/*--------------------------------*- C++ -*----------------------------------*\
| =========                 |                                                 |
| \\      /  F ield         | OpenFOAM: The Open Source CFD Toolbox           |
|  \\    /   O peration     | Version:  v2012                                 |
|   \\  /    A nd           | Website:  www.openfoam.com                      |
|    \\/     M anipulation  |                                                 |
\*---------------------------------------------------------------------------*/
FoamFile
{
    version     2.0;
    format      ascii;
    class       volScalarField;
    location    "400";
    object      nut;
}
// * * * * * * * * * * * * * * * * * * * * * * * * * * * * * * * * * * * * * //

dimensions      [0 2 -1 0 0 0 0];


internalField   nonuniform List<scalar> 
37190
(
0.00570779
0.0059417
0.00583154
0.00582893
0.00410074
0.00592436
0.00265935
0.00183169
0.00583896
0.00172333
0.000207583
0.0091593
0.00106016
0.00483112
0.00232426
0.0116528
0.00583097
0.00376039
0.00582408
0.00530494
0.00314101
0.0171815
0.0058808
0.0158926
0.00431343
0.00598995
0.0128644
0.00293343
0.0018631
0.00585599
0.00296574
0.00591003
0.0056865
0.00123268
0.0056138
0.0122141
0.0129122
0.0186413
0.00582279
0.00577588
0.0125838
0.00586251
0.0120452
0.00591869
0.00954157
0.00242799
0.00984805
0.0102132
0.00583688
0.00376314
0.0058807
0.00578877
0.00590154
0.00214436
0.00593448
0.00149199
0.00578979
0.0059121
0.00937766
0.0029993
0.00210795
0.00438466
0.00311821
0.00597431
0.00299279
0.0124229
0.0113238
0.00704207
0.00983695
0.0095011
0.0058225
0.00304109
0.00558431
0.00587687
0.00590472
0.00568315
0.0129546
0.00678311
0.00569576
0.00837914
0.0100366
0.00582677
0.0112052
0.00589639
0.00110007
0.00347558
0.0038846
0.00824186
0.00289123
0.0135086
0.00582072
0.00173229
0.00567255
0.00599556
0.00177827
0.0038226
0.00471852
0.010606
0.0139418
0.00590654
0.0173671
0.00142358
0.00589995
0.00581645
0.00114811
0.00595283
0.00595319
0.00162848
0.00760366
0.0059537
0.0159759
0.00591647
0.00582579
0.00591755
0.00313429
0.00583106
0.0105357
0.00299985
0.00413565
0.00391341
0.00324571
0.00721425
0.00588273
0.00587744
0.00150089
0.00318311
0.00300901
0.00588532
0.00115035
0.0173876
0.0129402
0.00594468
0.00598333
0.00496708
0.00601716
0.00530507
0.00587911
0.0137671
0.000432468
0.00411901
0.0105835
0.00325025
0.00485778
0.00388324
0.00504406
0.00591852
0.00402214
0.00306238
0.00592124
0.00908474
0.00595334
0.00594638
0.00579507
0.00254172
0.00515275
0.00586708
0.0101245
0.00588442
0.00428219
0.00257854
0.00589928
0.00461941
0.00578582
0.00568211
0.00921422
0.00386038
0.00176171
0.00181773
0.00412736
0.0096668
0.00161133
0.0058376
0.00489224
0.00588149
0.00179304
0.000342267
0.00135239
0.00198163
0.00593503
0.00196741
0.00218682
0.00132542
0.0134118
0.00758739
0.00281981
0.000863081
0.00595653
0.0013369
0.0140307
0.00250985
0.00592286
0.000915635
0.00124917
0.00593296
0.00592425
0.0113711
0.0119855
0.0141369
0.00993936
0.00592984
0.00594156
0.00235496
0.00595874
0.00591292
0.0181335
0.00802416
0.00582786
0.00584522
0.00190553
0.002405
0.00595872
0.00582073
0.00218345
0.00593838
0.00731617
0.00350055
0.00584963
0.00595785
0.000375977
0.00583019
0.00266701
0.00581971
0.0125591
0.000102952
0.00954373
0.00180599
0.000454933
0.0116107
0.0059068
0.00344224
0.00233394
0.00589291
0.00579398
0.00601336
0.00582136
0.00559792
0.0101662
0.00579506
0.00592339
0.00242296
0.00592483
0.00111735
0.00224263
0.00579163
0.00141923
0.000707172
0.005856
0.0031889
0.000250316
0.00599899
0.0040089
0.00562057
0.00258356
0.00391097
0.00592576
0.00282431
0.00590813
0.00593547
0.00185251
0.0057943
0.00189316
0.00229954
0.00514742
0.00578679
0.00350914
0.00421833
0.00583451
0.0046657
0.00592897
0.00339417
0.00577789
0.00590641
0.0095856
0.00116055
0.00134382
0.00183887
0.00189685
0.00595524
0.00119748
0.0057977
0.00592665
0.00235957
0.00571309
0.00579452
0.0103675
0.00581952
0.00602553
0.00211752
0.00387373
0.00557431
0.0042971
0.00593512
0.00209808
0.0114337
0.0058124
0.00131551
0.00581635
0.00606001
0.00301951
0.00594238
0.00194517
0.0174283
0.00289673
0.0112995
0.00579409
0.00582769
0.0140584
0.00583952
0.00949744
0.0101471
0.00399425
0.0119512
0.00439495
0.0211233
0.00578986
0.00579639
0.00591326
0.00583729
0.00817469
0.00595523
0.0123459
0.0121046
0.00583085
0.00308823
0.00137811
0.00823268
0.00424422
0.00747457
0.0012351
0.00592901
0.00269586
0.0050097
0.0149166
0.00845005
0.00590194
0.00592649
0.00583413
0.00601907
0.00582216
0.00584488
0.0121205
0.00587015
0.00524194
0.00589918
0.00279751
0.00578525
0.00611532
0.0059156
0.012296
0.00702352
0.0134513
0.00541852
0.00582353
0.00578664
0.00150195
0.00122585
0.0058256
0.00591401
0.0129294
0.016052
0.0128739
0.00364424
0.00544749
0.00914885
0.00889385
0.00876344
0.00593735
0.0162511
0.00581078
0.00223735
0.0058994
0.0107275
0.000929082
0.00790446
0.00589441
0.00580215
0.0105602
0.00182404
0.0175531
0.00592316
0.00593716
0.000122472
0.00582943
0.00188975
0.00753523
0.00058775
0.00590619
0.00590356
0.00590542
0.00160756
0.000669468
0.015312
0.00584928
0.00583396
0.00850916
0.00788026
0.000763717
0.0123706
0.000229695
0.00584645
0.0025262
0.00803081
0.00591444
0.00179008
0.00808586
0.00590811
0.000810054
0.00161349
0.0082399
0.00584862
0.00593583
0.00583745
0.00590494
0.00112347
0.00251275
0.00956232
0.00409092
0.00584778
0.000117416
0.00590846
0.00588644
0.0108839
0.00843605
0.00301147
0.00586111
0.0057888
0.00590334
0.00599507
0.00613905
0.0015683
0.00578872
0.00592817
0.00584691
0.0092507
0.00910505
0.00591111
0.00235737
0.00591215
0.00238582
0.00371494
0.00592928
0.00595262
0.00637208
0.00431927
0.00286644
0.000115251
0.00487084
0.00226751
0.00557985
0.00349187
0.00131319
0.0086955
0.00175004
0.00380973
0.00683221
0.0172457
0.00590422
0.00585189
0.00592189
0.00181705
0.00580895
0.00241551
0.0103158
0.00596091
0.00222961
0.00591835
0.0143633
0.00174515
0.0058234
0.0147166
0.0059512
0.00587601
0.00275706
0.00591517
0.00112116
0.00585363
0.00591105
0.0023908
0.00586078
0.00566441
0.00571186
0.00589525
0.00592222
0.00110873
0.00343227
0.00233776
0.00942708
0.00394105
0.00792406
0.0058229
0.000547073
0.00902013
0.00345328
0.00585093
0.00200033
0.00571151
0.00586058
0.00590947
0.00594171
0.000645971
0.0121266
0.012132
0.0085775
0.0165329
0.00590456
0.00593456
0.00591032
0.00604984
0.00438175
0.00595957
0.0155511
0.0058883
0.00582197
0.00205053
0.00202815
0.00560021
0.000483159
0.0059605
0.00586319
0.0175732
0.00581755
0.00608418
0.00265261
0.0029887
0.00585109
0.0121267
0.00394651
0.018903
0.00557296
0.00595784
0.00585106
0.00257101
0.00406625
0.00594075
0.0152542
0.00581945
0.00559329
0.00153701
0.0213893
0.00579487
0.00585933
0.00349543
0.00404
0.00134623
0.00473246
0.00530488
0.00909345
0.00592342
0.00583453
0.00588098
0.004969
0.0108998
0.00911239
0.00579076
0.000223866
0.00586294
0.00409012
0.00770728
0.00545404
0.0170666
0.009022
0.00772429
0.00581933
0.00596009
0.00066842
0.00481208
0.00665061
0.0124763
0.00593024
0.0115533
0.0112349
0.00474957
0.00602155
0.00809266
0.00262005
0.0123263
0.00368487
0.00580988
0.00201849
0.00268849
0.00592903
0.00581329
0.0057085
0.00590924
0.00102815
0.0116239
0.00906023
0.0124723
0.00575657
0.00223899
0.0106565
0.00580963
0.00244205
0.0058456
0.0116425
0.00239625
0.00364128
0.00700537
0.0057481
0.00586037
0.00587975
0.00577605
0.00593915
0.0166342
0.00235183
0.00222236
0.00591562
0.00866646
0.00887521
0.00585468
0.00580953
0.00450281
0.00600609
0.00599759
0.00375245
0.00631751
0.0058585
0.000929871
0.00581005
0.000239943
0.00323185
0.00473238
0.00582786
0.00556917
0.00592605
0.00550749
0.00470206
0.0028311
0.0187346
0.00587666
0.0165633
0.00584808
0.00100858
0.000135355
0.000334222
0.0167564
0.00701605
0.00373622
0.00586655
0.00594027
0.00902425
0.000131783
0.00224253
0.0160234
0.00582238
0.00346999
0.00588889
0.00591562
0.00442691
0.0127518
0.00581403
0.00173369
0.00273196
0.00795928
0.016652
0.0107873
0.0059026
0.00919508
0.0164322
0.00599267
0.00582828
0.0122016
0.0144473
0.00247184
0.00905039
0.00413205
0.00563151
0.00564705
0.0178855
0.005261
0.00591191
0.00589681
0.00582885
0.00104603
0.000152528
0.00590898
0.00583604
0.00484109
0.016231
0.00431054
0.00578729
0.0013622
0.00591757
0.00244424
0.00590066
0.00581539
0.00594513
0.0151909
0.00141021
0.00353024
0.00589058
0.00568857
0.00255681
0.00165404
0.00583158
0.00590977
0.0122902
0.00592948
0.00587833
0.0012197
0.00582525
0.00579379
0.000278334
0.00582068
0.00230003
0.00579204
0.00586907
0.00186472
0.0018098
0.00590254
0.00249067
0.00579158
0.00665643
0.00349619
0.00581015
0.0140433
0.00586502
0.00582278
0.00584484
0.0103331
0.00712373
0.00414044
0.00582989
0.00488281
0.00586757
0.00125016
0.0107225
0.000756727
0.00245787
0.00105026
0.00593121
0.0125358
0.00406215
0.00584095
0.00133806
0.00555855
0.00362407
0.00589897
0.00278766
0.00582598
0.00581022
0.00617669
0.0125582
0.00251506
0.00246397
0.00579327
0.00920759
0.00546303
0.00233777
0.0135043
0.0116257
0.00588065
0.00558106
0.00581383
0.0116776
0.0058638
0.00346498
0.0160446
0.00206837
0.0058594
0.0105965
0.00428234
0.00583161
0.00597018
0.005693
0.00581116
0.00456068
0.00588672
0.00577945
0.01441
0.00589781
0.00550931
0.00568092
0.00530469
0.00585972
0.00254295
0.00607238
0.00581458
0.00371592
0.00222874
0.00587334
0.00579135
0.00590133
0.00168063
0.00580977
0.00681854
0.00506886
0.00169095
0.00535631
0.00253045
0.00583173
0.00585845
0.00581124
0.00595815
0.00581037
0.00545154
0.00590087
0.00595356
0.00593956
0.011649
0.00108189
0.0059213
0.00589818
0.00588602
0.00210918
0.00286354
0.00766205
0.00474308
0.0110596
0.00593979
0.0058951
0.00593012
0.00602766
0.00218022
0.00593629
0.00583044
0.00594483
0.0054655
0.016303
0.00571822
0.00453167
0.00248375
0.00603215
0.00521531
0.00292032
0.00505595
0.012357
0.00597811
0.00510873
0.00579703
0.00784407
0.00586172
0.0180994
0.00834857
0.00307996
0.00512877
0.00586647
0.00580983
0.00583151
0.00984788
0.00201444
0.00502298
0.00581981
0.00510703
0.00590542
0.0044568
0.00584805
0.00582458
0.00168142
0.00211496
0.00208509
0.00603962
0.00562579
0.00483806
0.00591515
0.00587888
0.0152095
0.00584484
0.00734948
0.0153846
0.00698525
0.0011068
0.00452665
0.00236033
0.00266226
0.00528952
0.00909362
0.00135091
0.000327598
0.00584742
0.0125559
0.00585909
0.00537526
0.0058292
0.0168542
0.00635925
0.0104261
0.00662826
0.00590422
0.0132416
0.0104506
0.00171878
0.00130758
0.0019127
0.021197
0.00591742
0.0116582
0.0136089
0.0010797
0.00588877
0.0056752
0.00588571
0.0128839
0.00580458
0.00591892
0.00591601
0.00594161
0.00591863
0.00498905
0.00582806
0.00592949
0.0059326
0.00579638
0.0127928
0.00589057
0.00582622
0.00739092
0.00222108
0.00584976
0.00507979
0.00583178
0.00278861
0.00201531
0.00515829
0.00551792
0.00211626
0.00583087
0.00258384
0.00127594
0.00363825
0.00105856
0.00563909
0.00575362
0.00634543
0.0059137
0.00593071
0.00588387
0.00436144
0.00462235
0.00582605
0.00590065
0.00653579
0.00585712
0.00856618
0.0030876
0.011018
0.00201574
0.00585733
0.00780311
0.00582155
0.00639616
0.00371685
0.00197272
0.00576734
0.00533753
0.00181114
0.00466483
0.00206025
0.00582307
0.00330908
0.00192627
0.00237765
0.00121189
0.0128441
0.00556045
0.00581009
0.00589445
0.012225
0.00302168
0.00580859
0.00280409
0.00316803
0.00118198
0.0128669
0.00592903
0.00881666
0.00202788
0.00715677
0.00584533
0.000366732
0.00237326
0.0133617
0.0134934
0.00137572
0.00581208
0.00584747
0.000979317
0.00584455
0.00376665
0.00605096
0.00595784
0.00567713
0.00216849
0.00590772
0.00124437
0.0141758
0.0058113
0.000113171
0.00587924
0.00590121
0.000462624
0.00325601
0.00870305
0.00169555
0.00238668
0.00473941
0.00406072
0.00584184
0.0215625
0.0166507
0.00585332
0.00785656
0.00583034
0.00593006
0.0058162
0.00589544
0.00099257
0.0098384
0.00590352
0.00269803
0.00584641
0.010712
0.00940886
0.0091036
0.0125208
0.00747102
0.00546922
0.00578295
0.00563903
0.00587156
0.00585699
0.0023607
0.00594885
0.0072065
0.00584354
0.00592871
0.00594291
0.00591326
0.0184151
0.00592138
0.00220462
0.000125089
0.00595074
0.00588291
0.00581563
0.00580898
0.00594726
0.0162078
0.00160597
0.00592736
0.00595488
0.00628195
0.0058914
0.0114813
0.00116106
0.00588513
0.008845
0.00608914
0.00593945
0.00584534
0.00582293
0.0162058
0.00581841
0.00552006
0.00423017
0.00449644
0.00731517
0.00588492
0.00886895
0.00594324
0.00567045
0.00584915
0.00249881
0.00587751
0.000763694
0.00717951
0.00103859
0.00580999
0.00186871
0.00586506
0.00290093
0.00196038
0.00594704
0.00583531
0.00219344
0.00585163
0.00153574
0.00285569
0.00581053
0.00586512
0.00605312
0.00583632
0.00586856
0.00582789
0.00473144
0.00585544
0.00602841
0.00520598
0.00581747
0.00181823
0.00592989
0.0003084
0.00584003
0.00587662
0.00655153
0.00588526
0.00470557
0.00584985
0.00587558
0.00586071
0.00594351
0.00610704
0.00132343
0.000843355
0.0058131
0.0102193
0.00781446
0.001874
0.00590697
0.00333673
0.00603379
0.00208548
0.00843622
0.00140477
0.00513571
0.0089424
0.00106907
0.00577476
0.00275766
0.00370426
0.0122932
0.0058796
0.00586997
0.00403675
0.0145192
0.00592426
0.00586781
0.00584343
0.00195265
0.00580067
0.00315846
0.00806682
0.0113433
0.00586764
0.00173178
0.00692986
0.0145649
0.00242033
0.00214074
0.00591985
0.00484648
0.0117128
0.00364706
0.00581183
0.00585159
0.00382296
0.00583646
0.00193662
0.00586803
0.00585371
0.00485537
0.00199296
0.00583832
0.00148442
0.00203648
0.0208824
0.00583566
0.000244633
0.00581773
0.00881708
0.0154338
0.00585118
0.00593503
0.0132208
0.00592749
0.00586191
0.00214145
0.00882204
0.00583744
0.00584031
0.0114483
0.00518912
0.00609162
0.00582328
0.00232152
0.00740027
0.00698494
0.00127073
0.00509893
0.000343442
0.00521334
0.0124268
0.00585671
0.00590428
0.0183473
0.00992522
0.00265162
0.00582204
0.00567497
0.00468572
0.0170415
0.00186271
0.00268973
0.00879546
0.00476164
0.00574735
0.00456773
0.0113216
0.00592339
0.00453028
0.00601967
0.00935537
0.00862201
0.00579154
0.00584998
0.00217463
0.00764066
0.00588027
0.00585851
0.00601704
0.0173608
0.00311355
0.0023002
0.00761455
0.00592196
0.00588793
0.00552393
0.00592918
0.00840978
0.00116088
0.00220119
0.00820972
0.00602128
0.00417776
0.00588227
0.00583528
0.00590842
0.00591879
0.005444
0.00240818
0.00586162
0.005447
0.00669071
0.00429921
0.000887507
0.0147389
0.00581422
0.00591274
0.00179201
0.00583328
0.0191321
0.00581783
0.00585022
0.00589771
0.0019605
0.00583086
0.0039087
0.0169669
0.00151614
0.0163709
0.00602418
0.00582899
0.00583834
0.00590471
0.00587557
0.0160488
0.00258805
0.00427879
0.000778446
0.00374728
0.00589971
0.00825558
0.00131437
0.00587567
0.00574852
0.0124361
0.00218594
0.00204159
0.00591785
0.0118322
0.0058387
0.00585786
0.00255113
0.00586439
0.017088
0.0019381
0.00581952
0.0058795
0.00980122
0.00129283
0.00585215
0.00584974
0.00590489
0.0058971
0.00580165
0.00583586
0.00542325
0.0057562
0.00258176
0.00592912
0.00581605
0.00587689
0.00201949
0.0100831
0.00592215
0.00253053
0.00356519
0.0086464
0.00604583
0.00353863
0.00587814
0.00200871
0.00183622
0.00207842
0.00590456
0.00592883
0.0057905
0.000894303
0.00262678
0.00585024
0.00589817
0.0169466
0.00586122
0.00595951
0.00585805
0.00712923
0.00591354
0.00210567
0.00119624
0.00590828
0.00593337
0.00815995
0.00202299
0.00581173
0.000247024
0.00594373
0.0139952
0.00580953
0.0017515
0.00783938
0.00586798
0.00094782
0.0151885
0.00594095
0.00596577
0.00584029
0.0021763
0.00478972
0.0066433
0.00584017
0.00148294
0.00575649
0.00196171
0.00593461
0.00152231
0.00582406
0.00651801
0.00586208
0.00583019
0.00725952
0.00482796
0.0058922
0.00582621
0.00575531
0.00595141
0.00384377
0.00593885
0.00583503
0.00589574
0.00262017
0.00125181
0.00299148
0.00786084
0.00586906
0.00240776
0.00580951
0.0192692
0.00579983
0.0124237
0.00539075
0.00595203
0.00340911
0.00960471
0.00588528
0.00122038
0.00581504
0.00196298
0.00708655
0.00585716
0.00336005
0.00593265
0.00579476
0.00588151
0.00178893
0.0115984
0.00755954
0.005809
0.00171255
0.00582291
0.00591563
0.0101432
0.00773725
0.00586168
0.00203211
0.00596065
0.0044356
0.00590635
0.00357857
0.00595816
0.00270544
0.00583076
0.00586023
0.00202247
0.00592561
0.00259574
0.000572716
0.00528976
0.00583945
0.00591712
0.00144333
0.00187759
0.0169863
0.00583821
0.0106333
0.00596048
0.0058674
0.0014478
0.00582467
0.00166249
0.00583974
0.00482726
0.00799959
0.00586272
0.00593608
0.00592785
0.00593677
0.0059302
0.0134869
0.00588361
0.00938359
0.000350453
0.00298424
0.000476815
0.000286313
0.0059115
0.00602187
0.000925912
0.00226384
0.0058219
0.00592547
0.01306
0.00707513
0.00586705
0.0019447
0.00582831
0.0058965
0.000471275
0.00760463
0.00253036
0.0186608
0.00588308
0.00596627
0.0110049
0.00575198
0.00579153
0.0172156
0.0047886
0.00187381
0.00106653
0.00588827
0.001062
0.00588763
0.0059416
0.00592255
0.00196355
0.00472117
0.00286746
0.00409089
0.00580679
0.00182671
0.0157605
0.00593565
0.00138949
0.00744127
0.0184679
0.00583597
0.00590719
0.00294556
0.00582216
0.00951979
0.0059009
0.00190294
0.00288976
0.00590461
0.0129823
0.00585716
0.0131054
0.0024631
0.00142152
0.0181569
0.00587992
0.00591
0.00146235
0.00591557
0.0124817
0.0044249
0.000939321
0.00179727
0.00587498
0.00327204
0.00584411
0.00338192
0.00480645
0.000317872
0.00581409
0.00588799
0.00410075
0.00292853
0.00378649
0.00893462
0.00585562
0.00584821
0.00726436
0.00242546
0.0151616
0.0073972
0.00882137
0.00596867
0.00213744
0.005957
0.0119937
0.00431953
0.00947136
0.00590897
0.00588367
0.00587609
0.00692779
0.011301
0.00578662
0.00531762
0.00560108
0.0057923
0.001473
0.00583767
0.00578995
0.00389786
0.00965239
0.00582028
0.00579857
0.00676444
0.00269677
0.0135664
0.00591228
0.00590908
0.00216037
0.00622038
0.00588708
0.00550156
0.016769
0.00607792
0.0183783
0.00139413
0.00612022
0.00584178
0.0204763
0.0097893
0.00580713
0.00400621
0.00730702
0.00588467
0.0191188
0.00361619
0.00576992
0.00722837
0.00596174
0.00593309
0.00582181
0.00581989
0.00153842
0.00581577
0.00584268
0.0147463
0.00591489
0.00243629
0.00585625
0.000807463
0.00386029
0.00224559
0.00595038
0.00578874
0.00142301
0.00219291
0.00594984
0.00594176
0.00436916
0.0185145
0.00591118
0.00145567
0.00988274
0.00836899
0.0131477
0.00584588
0.00559135
0.000896229
0.00267201
0.0060226
0.00583008
0.00142664
0.0052274
0.0170924
0.00374882
0.0122106
0.0180578
0.00593464
0.00174223
0.00160197
0.00590031
0.00588167
0.00584906
0.000982926
0.00582233
0.00168858
0.000714535
0.00638105
0.00109472
0.00654118
0.0064235
0.000846229
0.00220751
0.00594209
0.00184765
0.00327104
0.00592217
0.00243538
0.0045012
0.00152307
0.0168869
0.00582449
0.00581866
0.00591055
0.00761124
0.00590687
0.00581042
0.0060518
0.00571458
0.00610976
0.0177443
0.00382159
0.00580877
0.00579651
0.0038265
0.00240521
0.0060389
0.00149749
0.0058521
0.00964542
0.0113969
0.00590715
0.00620214
0.000910488
0.00913826
0.0068729
0.00572983
0.00125944
0.00593832
0.00186358
0.00864614
0.00582209
0.00590449
0.00589684
0.0058235
0.00434403
0.00255588
0.00589886
0.00572776
0.00594118
0.0108024
0.00434253
0.00586289
0.00581175
0.00582134
0.0138096
0.00591624
0.00588588
0.00588357
0.00354656
0.00585746
0.00589831
0.0058641
0.00591535
0.00200831
0.00580692
0.0025841
0.00585696
0.00210791
0.00934091
0.00590323
0.00117836
0.00247091
0.00586291
0.00616853
0.00583828
0.00692296
0.0166807
8.08341e-05
0.00235435
0.00589211
0.00211596
0.00205871
0.00584035
0.00249198
0.00285439
0.00402157
0.00571133
0.00583843
0.011403
0.000330372
0.00585499
0.00940795
0.0105666
0.00581335
0.00584055
0.00581223
0.00202461
0.00668315
0.000955421
0.00592607
0.00589339
0.0124789
0.00472178
0.014311
0.0015372
0.00589509
0.00596933
0.00583246
0.0178598
0.0152207
0.00588469
0.00249519
0.0064641
0.00572423
0.00242369
0.00564479
0.00588894
0.0059166
0.0121193
0.000296264
0.00592877
0.0114809
0.00584873
0.0123083
0.00697812
0.00476134
0.00033199
0.00721486
0.00587463
0.0166611
0.00211691
0.00780335
0.000214905
0.00581463
0.00770901
0.0110092
0.00782855
0.0112267
0.00563128
0.00657855
0.0171975
0.00215879
0.00590591
0.0120563
0.0122653
0.0115063
0.00180037
0.00595342
0.000392627
0.00589097
0.010217
0.0101071
0.00219352
0.00566016
0.00593703
0.00588037
0.00155701
0.00590154
0.0044731
0.000727702
0.00247061
0.00589996
0.00148433
0.00593152
0.00219353
0.00855578
0.0115605
0.00411818
0.00595733
0.0058691
0.00584872
0.00487438
0.00584841
0.00224662
0.00549982
0.00588659
0.00582684
0.00166061
0.00422276
0.00590123
0.00581435
0.00584456
0.00601312
0.00569602
0.00164329
0.00518207
0.0075981
0.00071822
0.00593484
0.00593238
0.0021721
0.00463553
0.00581726
0.00201962
0.00225344
0.00138352
0.00220495
0.0188316
0.00192556
0.00280218
0.0115142
0.00584846
0.00811911
0.00132123
0.00586368
0.00960453
0.00588394
0.00249157
0.00685406
0.00606834
0.00244895
0.00082127
0.00592882
0.00593331
0.00581007
0.00298955
0.00590573
0.00587881
0.00582191
0.00942189
0.00548528
0.00584261
0.00278037
0.00582992
0.00614676
0.0189583
0.0173428
0.00582751
0.00581579
0.00848335
0.0021902
0.0152722
0.00593209
0.00416567
0.00590459
0.00582952
0.00124442
0.00256861
0.00584268
0.00593468
0.00152413
0.0058546
0.00270748
0.00581128
0.00584119
0.00599746
0.00135961
0.0024281
0.00562285
0.00581421
0.0159321
0.00593585
0.0017036
0.0092052
0.00587854
0.00427585
0.00125064
0.00386394
0.00881387
0.006071
0.00581608
0.00595764
0.00383801
0.00555041
0.00581627
0.00585479
0.00650003
0.00580922
0.0167563
0.00923763
0.00591282
0.00221273
0.00592177
0.0058985
0.00353673
0.00588905
0.00581063
0.0058173
0.00584937
0.0025483
0.00597756
0.00979089
0.00581575
0.0142894
0.00122777
0.00588342
0.0059644
0.00591802
0.00583358
0.00585146
0.00183661
0.00592058
0.00194323
0.0055191
0.00768746
0.00759073
0.00470391
0.00512004
0.00245538
0.00581796
0.0058098
0.00544232
0.00585654
0.00589133
0.00593805
0.00196845
0.00663544
0.00584874
0.00849181
0.00600518
0.00582697
0.00240505
0.00591087
0.00582334
0.00586303
0.00582226
0.00895569
0.00583279
0.00593336
0.0134541
0.00372923
0.00132525
0.00608985
0.00596047
0.0189913
0.00580985
0.00127703
0.0058007
0.0059284
0.00958242
0.00583179
0.00581149
0.00589946
0.0028366
0.00905059
0.00588873
0.00583145
0.00587024
0.00315898
0.0117157
0.00153279
0.00599647
0.00086078
0.0214351
0.00591701
0.0207406
0.00581687
0.000804891
0.00960933
0.00584857
0.00408624
0.00666405
0.00514106
0.00155082
0.00200522
0.00437822
0.00103214
0.0036107
0.000795986
0.00591176
0.0163276
0.00588228
0.00645586
0.00500939
0.00271803
0.0023609
0.00591069
0.00207875
0.00558886
0.00159212
0.00106696
0.0058041
0.00542271
0.005792
0.00584516
0.00811806
0.00583693
0.00858044
0.00563975
0.00582555
0.00393358
0.00406976
0.00138544
0.00581181
0.00241479
0.00232089
0.00511862
0.00919663
0.00582748
0.00594572
0.00583879
0.00585694
0.00742062
0.00172358
0.0126183
0.00591045
0.000223982
0.0116535
0.00580603
0.00587097
0.000979787
0.00389476
0.0125693
0.000955444
0.00128021
0.00103793
0.00176039
0.00559932
0.00922364
0.0126907
0.00589816
0.00531772
0.00589786
0.00379022
0.00121936
0.0181728
0.0059424
0.00126474
0.00676914
0.00585363
0.00593279
0.00595004
0.00579842
0.00582347
0.0214851
0.000296738
0.00295878
0.00589742
0.00391391
0.00213219
0.00177473
0.00127283
0.00260115
0.0015622
0.00584582
0.00582321
0.00107519
0.00580385
0.0162587
0.0025076
0.00585051
0.00581246
0.0170343
0.00593641
0.00594933
0.00591024
0.00333364
0.0020274
0.00457785
0.00579506
0.00585483
0.00593152
0.000249224
0.00582625
0.000499859
0.00582465
0.00588422
0.00579583
0.00295408
0.000423506
0.00452754
0.0058168
0.00567231
0.00607794
0.00688924
0.0131342
0.00589278
0.00704396
0.00584909
0.00581218
0.00430117
0.0170483
0.0108994
0.00846392
0.00221156
0.00242236
0.00583988
0.00586435
0.000250984
0.00178272
0.00227967
0.00579118
0.00121963
0.0114173
0.0059041
0.00591945
0.000290528
0.00586503
0.0171914
0.00138013
0.0120846
0.00590803
0.00611043
0.00591378
0.00910093
0.00593988
0.00580433
0.00405991
0.00775121
0.0165132
0.0065932
0.00290829
0.00457608
0.00581235
0.00594058
0.0105839
0.00590913
0.00551622
0.00235116
0.00583513
0.000416148
0.00585269
0.00584855
0.0058039
0.00444937
0.00592099
0.00674
0.00592195
0.00582313
0.0172381
0.00594346
0.00113134
0.00159012
0.0017291
0.00590395
0.0138031
0.00906192
0.00584274
0.000612844
0.00585645
0.000325397
0.00573581
0.0172259
0.0018499
0.00229905
0.00172299
0.00584069
0.00587992
0.0060159
0.00580377
0.00487881
0.00149891
0.00237373
0.0191418
0.00580567
0.0124759
0.00032808
0.00593662
0.00171351
0.00581041
0.00132156
0.0060343
0.00674284
0.00581008
0.001654
0.00583953
0.00582119
0.00215248
0.00175229
0.00379458
0.00600825
0.00809386
0.00212395
0.005897
0.0118108
0.00220857
0.00430743
0.00566347
0.00591637
0.0143949
0.0058215
0.00592252
0.00781087
0.00489547
0.00584115
0.00592232
0.0059201
0.00580613
0.00593987
0.00221465
0.000306137
0.00376024
0.00589706
0.00588694
0.00238243
0.00314689
0.00301897
0.0171721
0.0108692
0.00591679
0.00583751
0.00581468
0.00393668
0.00582706
0.00584625
0.0144862
0.00898231
0.00626808
0.0059001
0.0058277
0.0165865
0.00596834
0.00584314
0.00583591
0.00401779
0.0011916
0.00272377
0.00585072
0.00580597
0.00287184
0.00587093
0.0078899
0.00274643
0.0123151
0.00589657
0.00199766
0.00589615
0.00585568
0.00149748
0.00582061
0.000408072
0.00583811
0.0116054
0.00594112
0.00256362
0.00585844
0.00227304
0.00582588
0.0018126
0.00593421
0.00585793
0.00589912
0.00571872
0.00559789
0.00591429
0.00599911
0.00581644
0.0119233
0.00186001
0.0113641
0.00319838
0.00389739
0.00484185
0.00267796
0.00566985
0.00730424
0.00590072
0.00586332
0.00275147
0.0105706
0.00580329
0.000942995
0.00404889
0.00581353
0.0134224
0.00590285
0.00871436
0.00593705
0.0017175
0.00592078
0.0146015
0.00761772
0.00580954
0.00588945
0.00583122
0.00586274
0.00584735
0.0128257
0.012495
0.000717175
0.00592194
0.00112034
0.00583489
0.0137103
0.00582116
0.0065681
0.00580964
0.00184788
0.00592874
0.00583229
0.00604115
0.00258412
0.00645572
0.00976329
0.00390847
0.00379802
0.0114639
0.00206565
0.0177515
0.00588563
0.00603718
0.00576161
0.00583448
0.00591105
0.00558999
0.0093345
0.0213193
0.00549401
0.00590071
0.00992671
0.00584145
0.00196595
0.0025442
0.0173291
0.00573958
0.00588924
0.00580928
0.00589693
0.00589886
0.00614106
0.0039048
0.00581594
0.00379964
0.00214277
0.0033023
0.0121217
0.00102791
0.0111755
0.00592201
0.00957784
0.0144951
0.00388467
0.00546338
0.00581446
0.00592235
0.00384083
0.01199
0.00459055
0.00593702
0.00609685
0.00582155
0.00726587
0.0117251
0.00581784
0.00576614
0.00581507
0.00589332
0.000160374
0.0105121
0.00589384
0.00589044
0.00565958
0.00583959
0.00581489
0.0035969
0.00582432
0.00509022
0.00581635
0.0105836
0.00583641
0.00127105
0.00580974
0.000506893
0.0058948
0.0050597
0.00584617
0.00584603
0.00581509
0.00592873
0.00759616
0.00451264
0.00519519
0.00588772
0.00735239
0.00532632
0.0208837
0.00585509
0.000278962
0.00246874
0.0123912
0.0117211
0.00333916
0.0029954
0.00852153
0.00582127
0.0157957
0.00594594
0.00564101
0.00868207
0.00191281
0.00246569
0.0130323
0.0023284
0.00612382
0.00326781
0.000329243
0.00592343
0.00584107
0.00595671
0.00219199
0.00583064
0.00580654
0.00973064
0.00598142
0.00583523
0.00585272
0.00131279
0.00595201
0.00322967
0.0115356
0.0117128
0.017425
0.00463381
0.00491509
0.00576318
0.00180514
0.00591141
0.00578169
0.00462621
0.00593432
0.00581376
0.0014867
0.012164
0.00374634
0.00260064
0.00541474
0.00594222
0.000777596
0.0024618
0.00575481
0.00594805
0.00586091
0.0058735
0.0059382
0.00588793
0.00591592
0.00545356
0.00584994
0.00594609
0.00556323
0.00601506
0.00592472
0.0059572
0.0079116
0.00893633
0.00605635
0.00269355
0.00237772
0.00193695
0.00493061
0.00194996
0.00448808
0.00592518
0.00587111
0.00123848
0.0058109
0.00580466
0.0060726
0.00045199
0.00580275
0.0058291
0.00587402
0.00569727
0.00588089
0.0055524
0.00603203
0.0173317
0.00362054
0.0100096
0.00580648
0.00595713
0.00474707
0.0159893
0.00263147
0.000752112
0.0114773
0.00285719
0.00594543
0.00584257
0.00267901
0.00952789
0.00583646
0.00313969
0.00546492
0.000364346
0.00495883
0.0107309
0.00603044
0.00584179
0.00604451
0.00202992
0.00588143
0.0118499
0.00123002
0.00591238
0.00588243
0.00586917
0.00346185
0.00579324
0.00580461
0.00558752
0.000936312
0.000941395
0.00924349
0.0156749
0.00593964
0.00849655
0.0167926
0.00181743
0.0111964
0.000157215
0.0096311
0.0150241
0.00583953
0.000880747
0.001019
0.00592799
0.00253609
0.00589923
0.00872784
0.005937
0.00243122
0.00206915
0.0109414
0.00593857
0.00570972
0.00578604
0.00242928
0.00597218
0.00586409
0.0111185
0.00923122
0.0057787
0.00733996
0.00581013
0.00228213
0.0058415
0.00244553
0.0178153
0.00800558
0.00288691
0.00895848
0.000877442
0.00576485
0.0051335
0.0058592
0.00581637
0.00802613
0.00357095
0.00581092
0.00559073
0.00588972
0.00592522
0.00531476
0.00582311
0.0151429
0.00167543
0.00615627
0.00594822
0.00544685
0.00442757
0.00644078
0.00179931
0.00623201
0.0111135
0.0182186
0.00573293
0.00160617
0.00817249
0.00591474
0.00457268
0.00590045
0.00593941
0.00477162
0.00584281
0.00583826
0.00912505
0.00589904
0.001065
0.00588748
0.0151703
0.00807968
0.00550494
0.00676214
0.00175795
0.00581398
0.0101956
0.0116572
0.00557207
0.00592066
0.00594262
0.00196135
0.0115772
0.00859133
0.00582619
0.00259529
0.00609504
0.0059236
0.00241911
0.00178484
0.00594364
0.00587885
0.00585557
0.00245362
0.00596784
0.00125635
0.00586374
0.005843
0.00849756
0.00605448
0.00591215
0.000407814
0.00301135
0.00573905
0.00594144
0.00595142
0.0083872
0.00592998
0.00588055
0.00589989
0.00252427
0.00580365
0.00121711
0.00997895
0.00373422
0.00584997
0.00582577
0.00739837
0.00212828
0.00318672
0.00188922
0.00117335
0.00501304
0.00583304
0.0037326
0.00141859
0.00589376
0.00807635
0.0058462
0.00120638
0.00693072
0.00881227
0.0041307
0.00589049
0.00542699
0.00593621
0.00595822
0.00593736
0.0199297
0.00595406
0.00559442
0.00242253
0.00593253
0.00568507
0.00589081
0.0059235
0.00587758
0.00585676
0.00594189
0.00588823
0.00582147
0.00904506
0.00312365
0.0130925
0.00640131
0.00150491
0.00589411
0.00588166
0.00587068
0.00588163
0.00539638
0.00571874
0.00584231
0.0058818
0.00578685
0.0155722
0.00255477
0.00197755
0.00583748
0.00622136
0.0109756
0.00183416
0.00281922
0.00578732
0.00551151
0.00593789
0.0116422