/*--------------------------------*- C++ -*----------------------------------*\
| =========                 |                                                 |
| \\      /  F ield         | OpenFOAM: The Open Source CFD Toolbox           |
|  \\    /   O peration     | Version:  v2012                                 |
|   \\  /    A nd           | Website:  www.openfoam.com                      |
|    \\/     M anipulation  |                                                 |
\*---------------------------------------------------------------------------*/
FoamFile
{
    version     2.0;
    format      ascii;
    class       volScalarField;
    location    "400";
    object      omega_0;
}
// * * * * * * * * * * * * * * * * * * * * * * * * * * * * * * * * * * * * * //

dimensions      [0 0 -1 0 0 0 0];


internalField   nonuniform List<scalar> 
37190
(
0.0273007
0.0241707
0.0243478
0.0240479
0.089548
0.02455
0.0316646
0.0715473
0.0228368
7.94811
26.7109
2.09585
0.201751
0.0254483
7.48084
0.297
0.0243523
1.23683
0.023493
0.0257522
0.0291264
1.07267
0.0243127
2.55793
0.0811948
0.0252409
3.44867
0.0270437
7.94376
0.0246738
0.22954
0.0256214
0.0273669
0.0825717
0.0279732
0.458278
3.48138
0.969539
0.0234814
0.0267929
1.50031
0.0223151
0.305406
0.0255335
3.37151
0.462408
3.35255
2.09761
0.0224747
0.0298122
0.0243728
0.0220966
0.0247586
0.031955
0.0250712
0.0822952
0.0221017
0.0255917
0.293571
0.194582
0.0694638
5.04684
0.0293196
0.0252883
3.19849
2.11471
0.234849
3.03642
2.63207
2.89793
0.0234721
0.0650577
0.0282812
0.0243027
0.0244444
0.0336321
2.13871
3.73511
0.0272477
3.88271
3.31024
0.0240638
2.93233
0.0242835
10.281
0.0381249
3.2799
0.598129
0.0323154
0.850746
0.0235299
8.194
0.0275143
0.0244025
0.0521852
0.542003
0.0258206
2.11812
1.56396
0.0244096
1.55948
0.081084
0.0248153
0.0223357
11.1815
0.0244388
0.0250893
9.06606
2.71473
0.0246996
0.846061
0.0249053
0.0240542
0.0249004
0.062729
0.0240483
3.27277
3.15458
0.0290291
0.0261171
0.0648386
3.69025
0.0247746
0.0244986
8.78077
0.0298252
5.69939
0.0247876
10.2674
1.54673
3.45393
0.0249525
0.0244928
0.279177
0.0247352
1.3322
0.0250153
0.3254
0.573044
0.0912289
2.87976
0.0649777
0.0705965
0.492587
0.0260183
0.023486
0.0261285
0.0271678
0.0234272
2.93574
0.0250951
0.0237466
0.0222517
0.0366237
4.61545
0.0242652
2.58364
0.0249419
0.0402893
3.12795
0.0257009
0.0280981
0.0262828
0.0273998
2.8387
0.0262225
7.82969
7.49697
0.0291285
3.17351
8.34831
0.0228271
0.094646
0.0234806
7.72864
13.2384
0.150023
0.0523382
0.0249072
7.23003
0.0366126
0.0782089
0.814973
3.01473
0.0298513
4.18751
0.0250178
9.14618
2.0941
0.0430441
0.0233588
0.245524
0.0769032
0.0248845
0.0233178
2.97479
3.27682
2.02338
2.88772
0.025149
0.0245819
0.0805063
0.0249473
0.024454
0.971673
0.416367
0.024039
0.0246579
7.82523
0.042633
0.0249409
0.0239983
0.778319
0.0252982
3.82705
0.0260648
0.0241784
0.0249889
18.7126
0.0240461
0.0271516
0.0240014
2.10989
32.0827
2.80475
1.28892
0.254931
3.0586
0.0248684
4.77382
7.27783
0.0248752
0.0222428
0.0247119
0.0239946
0.0281346
2.85498
0.0222144
0.0249998
0.0571763
0.0232583
10.9267
0.031784
0.0223601
8.63992
4.78129
0.0242128
0.0388442
12.606
0.0258991
0.0265323
0.0281212
0.0596306
0.0262198
0.0232163
0.0271528
0.023314
0.0245282
0.0526718
0.0221865
0.612462
7.43901
0.0333446
0.0220938
0.430115
0.0275513
0.0244168
0.135123
0.0233375
0.0486924
0.0273722
0.0248724
0.831155
9.95685
0.0809879
7.61431
0.0529585
0.0250456
9.82049
0.0224182
0.023383
0.0692118
0.0272548
0.0222177
2.71835
0.0239982
0.024887
0.051159
0.11853
0.0283769
0.0281729
0.0253375
0.0641979
3.01245
0.0226005
8.93344
0.0234717
0.0264613
5.65145
0.0237361
0.0672985
1.08445
0.457854
2.99036
0.0263021
0.030482
2.00909
0.0245016
3.40585
2.44641
2.62555
3.33115
4.51532
1.03316
0.0274162
0.0277694
0.0245612
0.0250725
3.01659
0.0250443
3.38028
3.49009
0.0245956
0.03456
1.33876
0.429092
0.0295881
2.95149
9.9279
0.023356
0.488906
2.74143
2.02235
3.87962
0.0247565
0.0233993
0.0244118
0.0250589
0.0242428
0.0246459
0.308453
0.0242765
3.41707
0.024741
5.42672
0.0330312
3.75686
0.0229637
0.312206
3.04632
0.325407
0.0351024
0.0263935
0.0220893
2.15481
0.338576
0.023542
0.0229435
3.46556
2.53501
3.43273
4.57617
0.827819
3.44078
3.51388
2.76757
0.0249304
2.68652
0.0225942
3.92459
0.0247383
0.267439
0.240099
1.99447
0.0243219
0.0223284
2.87512
3.94928
1.5054
0.0370195
0.0249862
32.4564
0.0245388
0.589555
0.273219
10.7906
0.0237483
0.0228624
0.0230898
0.117978
0.247788
2.05535
0.0257974
0.0224625
3.31801
0.27074
5.14469
3.29109
26.536
0.0229022
6.13383
2.89212
0.0226036
7.86348
3.82592
0.0230916
1.99196
2.77592
3.63156
0.0234645
0.0249039
0.0262938
0.0252933
11.3285
0.0424351
3.18859
0.0388832
0.0257993
23.5664
0.0245452
0.0227746
0.269475
1.54303
0.0338499
0.0247057
0.0221824
0.0228502
0.0253532
2.59264
9.29814
0.0221857
0.0235039
0.0235183
0.298801
3.23494
0.0248709
0.031584
0.0252067
0.0318084
4.45341
0.0251773
0.0246205
3.7163
0.0428219
6.42782
36.0939
2.84954
0.0840314
0.0283151
0.0269644
9.13743
0.612186
0.0508804
0.0265757
3.54499
1.59297
0.0232904
0.0247096
0.023038
4.50202
0.0225389
0.0667824
2.70805
0.0248231
0.0684793
0.0230073
0.853646
0.0586693
0.024222
0.68114
0.0245993
0.0247603
0.319231
0.0255461
0.18844
0.567117
0.0248668
0.067986
0.0247088
0.0370195
3.06315
0.0248034
0.023078
0.20752
0.048684
0.0434306
3.23088
0.0261579
1.93154
0.024222
0.248618
2.78191
0.0473256
0.0230601
0.0507453
0.0270106
0.0256426
0.0379245
0.0246146
0.629637
0.311425
0.447302
2.93417
1.85857
0.0248485
0.0250691
0.0247844
0.0266687
0.0262095
0.0249358
0.687793
0.0234963
0.0242269
0.0768988
7.53813
0.03571
17.4267
0.024782
0.0246858
1.52176
0.0264412
3.02511
0.0420504
0.031899
0.0246435
0.312875
0.0390672
1.23815
0.0284054
0.0246923
0.0230576
0.0727143
0.0264411
0.0246207
0.836669
0.0239983
0.0388325
0.703457
1.02613
0.0469414
0.0261329
0.0758329
0.0363731
5.59415
0.0548759
4.03959
2.09703
0.0245559
0.0237693
0.0228293
4.20485
0.313412
0.275365
0.0220944
26.5865
0.0246909
0.0272997
2.694
0.0292877
1.32802
0.271998
1.95124
0.0239965
0.0248791
0.248283
0.216706
3.11991
3.34532
0.0243082
3.06183
0.318701
0.0826266
0.0256209
2.08492
5.06316
3.32007
3.9062
0.0233924
0.0759766
0.0297497
0.0233696
0.0264983
0.027289
0.0248751
4.90898
0.239838
0.25814
0.302009
0.0269438
0.0511428
1.74592
0.0231668
5.34425
0.0238864
0.239681
2.1053
0.0672104
2.60812
0.0270104
0.024371
0.0247645
0.0267938
0.0249921
1.79209
0.0424192
0.0574388
0.0233796
2.95422
0.46595
0.0246648
0.0231925
4.3016
0.0260953
0.0253111
0.0268638
1.87442
0.0243611
0.474762
0.0233927
0.509143
4.67507
0.0355814
0.0235638
0.0264397
0.0234193
0.0288916
2.35179
0.0294462
1.26371
0.0250935
2.09974
0.0238956
0.214274
35.0574
0.417742
1.35627
3.62744
0.0443601
0.0250799
0.0238024
2.79023
33.3027
0.0429176
1.06955
0.0242316
4.6513
0.0247985
0.0226527
0.0380103
2.1611
0.0223172
0.0551719
3.0466
2.96472
1.99761
3.24408
0.0241517
0.459354
2.64313
0.025421
0.0263678
3.42717
1.47084
0.0438803
3.24117
0.027561
0.0277799
0.0277506
0.940739
0.026552
0.0248479
0.0235954
0.0245415
2.10629
32.798
0.0241726
0.0237797
0.0818337
2.00971
0.0254853
0.0262814
9.38104
0.0240761
0.055212
0.0247141
0.0234635
0.0251885
2.04611
0.143083
0.0757409
0.0235742
0.0267955
0.0730185
7.79063
0.0246006
0.0241658
0.301912
0.0245258
0.0228095
0.168392
0.0235332
0.0221763
0.654135
0.0235368
0.0420576
0.022313
0.0243692
0.0540721
0.077108
0.0241606
0.0701519
0.022313
3.80134
0.0534434
0.0232827
2.08492
0.0248613
0.0242335
3.70758
3.27142
3.22814
0.0416279
0.0233307
0.0253479
0.0223413
0.16363
0.418667
5.66225
0.0412657
4.45157
0.0235377
3.44524
0.0265073
0.0245011
0.15184
0.0319109
0.0697634
0.0252173
0.0322934
0.0224231
0.0234058
0.0346487
0.241475
0.0558082
2.4863
0.0266481
3.45396
3.86261
7.09274
0.329145
0.316125
0.0243857
0.0288862
0.0234392
0.314467
0.02453
0.052409
1.50893
3.71733
0.0242009
2.73369
0.0395008
0.0239262
0.0254262
0.0344266
0.0231953
0.116691
0.0226571
0.0266442
1.97489
0.0247004
0.028875
0.0267549
0.0305292
0.0229604
0.0668297
0.0260177
0.0236255
0.0273242
0.0853599
0.0227927
0.0223537
0.0247251
0.517414
0.0233805
3.77525
0.0331613
0.11277
0.0300477
0.037585
0.023341
0.0251887
0.0231702
0.0249045
0.0225789
0.0353817
0.0247258
0.0250113
0.0238035
0.28993
0.192954
0.0241148
0.0253673
0.0228468
0.711619
0.029052
3.01615
0.0653358
2.91732
0.0322648
0.0240783
0.0248988
0.0252505
3.64949
0.0249328
0.0263358
0.0329131
0.0318525
2.63199
0.0269474
0.0389863
0.0429205
0.026234
3.63702
0.0289221
3.10672
0.857072
0.0254656
0.0337859
0.0223086
1.90895
0.0242217
0.952864
3.41372
2.51695
0.0326186
0.0269825
0.0233777
0.0245759
3.38958
0.731495
4.12334
0.0260303
0.0261629
0.0252837
3.33284
0.0261557
0.0235014
8.12604
0.0375168
0.083338
0.0252584
0.0278392
0.0352391
0.0240893
0.0247706
2.0733
0.026231
0.382695
0.49553
3.37869
0.0808747
0.0369548
0.0316076
0.0307699
3.95072
2.59642
9.25024
0.562181
0.0234963
0.813635
0.0245076
0.0304027
0.0237607
1.95902
0.273531
0.29295
2.37408
0.0256323
0.312606
0.296265
8.59886
0.141584
0.0515489
0.978839
0.0233929
3.08751
0.31374
6.35639
0.0258572
0.0307182
0.0245586
0.507307
0.022159
0.0235263
0.0248817
0.0246488
0.0235265
0.0254
0.0245327
0.0248849
0.0245573
0.0318559
0.51413
0.0243685
0.0235764
1.95484
0.0366668
0.0235311
0.0253099
0.0239345
2.56592
5.9902
0.025219
0.0265581
0.0595677
0.0245713
0.0323158
0.157981
0.0259967
2.082
0.0314161
1.94957
3.58166
0.024452
0.023014
0.0242983
4.03569
3.96344
0.0235716
0.0252344
1.77338
0.0231063
3.50355
0.0320718
0.643397
0.0521965
0.0231049
3.50473
0.023463
3.3298
1.23566
0.0663271
0.02872
0.030857
0.0767582
0.0260571
7.53313
0.0227142
0.0320908
7.98639
0.0390159
0.080385
0.666796
0.0323531
0.022745
0.0228876
2.62718
0.0319276
0.0227333
0.0295506
0.0298385
2.74349
3.42196
0.0249933
3.50587
0.0487506
3.34844
0.0262321
19.3007
0.0645663
0.513147
0.519732
0.143461
0.0227387
0.0234859
0.198602
0.023473
0.0265682
0.0257409
0.0248698
0.0269476
0.0556164
0.0228865
0.0797773
2.02813
0.0234094
0.425559
0.0227387
0.0233793
7.27421
0.333168
3.96434
7.66369
0.0313903
0.0369198
0.0426845
0.0228637
1.00141
0.929425
0.0246475
3.32111
0.0237711
0.024571
0.0264627
0.0233603
0.212958
0.541181
0.0241417
6.48412
0.023019
2.3232
2.54479
2.7769
3.38017
0.317037
0.0288471
0.0265923
0.0319961
0.0253319
0.0245009
0.0732931
0.0250721
3.67816
0.0230071
0.0245302
0.02422
0.0237218
0.988504
0.0239758
0.0360672
34.0455
0.0246694
0.030541
0.0233563
0.0225333
0.0251486
2.69293
0.886777
0.0240033
0.0246943
3.45195
0.024138
3.01589
0.180802
0.0246373
0.265104
0.0265359
0.0237758
0.0238756
0.0227102
0.828622
0.0314186
0.0284543
0.0408564
0.0399321
3.11501
0.0227598
0.265404
0.0246089
0.0268606
0.0249332
0.0326259
0.0247488
1.72835
0.365109
1.91452
0.0225708
0.0891254
0.024861
2.66185
0.0984738
0.0246351
0.0263047
0.0869444
0.0243268
3.92423
1.32549
0.0234062
0.0252097
0.0255357
0.0242578
0.0260351
0.0240646
0.0260164
0.0244835
0.0257287
0.0259833
0.0233586
0.0540772
0.0241874
23.4608
0.023708
0.0247606
0.199566
0.024635
0.0263467
0.0246347
0.0252737
0.0245678
0.0242456
0.0266684
0.154492
2.28802
0.0234288
0.817875
2.92106
1.56489
0.0233184
4.11033
0.025766
6.91321
0.59403
0.174608
0.0316796
2.31903
6.26584
0.0270815
0.0301952
0.0266789
1.78713
0.0223828
0.029967
4.25905
0.314314
0.023767
0.0231776
0.0238663
0.0625913
4.20178
2.69061
3.66911
2.98904
0.0231756
6.64281
0.323199
0.315129
0.053927
0.0477366
0.0237404
0.0259212
3.42606
4.5871
0.0263976
0.0243177
0.0425348
0.023358
7.28937
0.0260432
0.0243362
0.0349879
0.0636312
0.0229542
0.136636
0.0947487
1.58015
0.0229421
25.6203
0.0233092
3.25794
0.909586
0.0442823
0.024216
0.237861
0.0238782
0.0242124
0.0840565
2.3075
0.0227953
0.026271
0.237499
0.0312026
0.0264914
0.0224129
0.0913224
3.0675
3.066
0.159313
3.99832
19.5512
0.0310129
2.67177
0.0257198
0.0241346
1.22249
2.44168
0.122752
0.0235302
0.0357956
3.89762
1.65329
0.0892415
0.0711061
0.295515
0.0353937
0.0270159
0.0358712
1.48761
0.0239609
0.0393928
0.0248851
3.19085
2.86576
0.0221254
0.0243092
0.0354008
0.329337
0.0231257
0.0245548
0.0249511
1.84462
2.82846
0.0817493
3.16527
0.0249345
0.0232954
0.0289008
0.0241268
0.434565
9.48446
0.0802538
0.381612
0.0249445
0.0394924
0.0232768
0.0234143
0.0239354
0.0237495
0.02917
5.43208
0.0248186
0.0293379
0.301552
0.0392877
11.9158
1.07702
0.0227423
0.0239746
0.077165
0.022912
1.07073
0.0227723
0.0235082
0.022777
0.0984668
0.0229005
0.026598
1.69154
0.133289
2.03824
0.0249546
0.0263698
0.0236721
0.0237517
0.0232298
2.00257
0.0393692
0.0262891
0.250038
0.0282377
0.024506
0.233398
0.161987
0.0232289
0.0269958
3.33449
0.0371268
0.094499
0.0244797
3.37368
0.0233884
0.0246776
0.0596062
0.0242327
0.791173
0.0840385
0.0222596
0.0231162
2.70964
9.94859
0.0239891
0.0239842
0.0257048
0.0227602
0.0221461
0.0233818
0.0295808
0.270431
0.125832
0.0239893
0.0227617
0.0252964
0.739049
0.298231
0.0240941
0.0320447
2.52891
3.36512
0.0254803
5.11628
0.0227258
0.0387648
0.0747341
0.0923162
0.0257062
0.0241074
0.0221002
11.2314
0.0692722
0.0261851
0.0257101
0.682386
0.0259004
0.0246092
0.0225747
0.302133
0.0247513
0.0842422
0.174735
0.0229898
0.0242302
3.02765
0.0508462
0.0234335
20.681
0.0242074
0.671299
0.0233653
0.0687605
0.322724
0.0252394
0.233363
1.46796
0.0246389
0.0245927
0.0244848
0.0371615
0.0348518
1.79352
0.0234316
0.0692119
0.0269418
0.0854833
0.0249284
0.132749
0.0228396
0.309839
0.0260936
0.0245554
3.63684
0.0344734
0.0243068
0.0228504
0.0264276
0.401169
0.0375761
0.0251316
0.0242576
0.0243318
0.0337138
9.94542
0.0326434
3.23888
0.0247926
0.0529109
0.0233524
1.35471
0.0224187
0.314697
0.0296029
0.0250128
3.73355
3.15219
0.0244727
0.173244
0.0236878
8.15018
3.89828
0.0229501
2.85442
0.0232118
0.0263025
0.293849
0.109073
0.315609
3.14646
0.0225188
0.438703
0.0242492
0.0242626
2.47656
3.78131
0.0225782
0.0505724
0.0248724
0.0357655
0.0245686
0.0399241
0.0238539
0.0496335
0.0245602
0.0241791
0.0496892
0.0254817
0.0719681
1.38865
0.242288
0.0244822
0.0237649
0.071502
0.0700506
0.781652
0.0236651
3.06431
0.0248291
0.0231623
9.43338
0.0240515
0.434414
0.022491
0.0278162
2.31488
0.0231476
0.0237658
0.0240422
0.0251656
0.0250636
2.04139
0.0255579
1.44472
0.445453
0.0279936
13.6597
24.8866
0.0237392
0.0249309
11.6722
2.51523
0.0262478
0.0254873
0.517088
3.00815
0.0242536
0.037734
0.0224361
0.0243237
0.263847
2.80617
0.0586462
1.08281
0.0253546
0.0257518
0.277981
0.0355326
0.0223016
1.90223
0.035843
0.0535973
11.0886
0.0233106
0.202319
0.0242919
0.0249967
0.0230724
0.0388099
0.035372
0.0471818
0.0261159
0.0265329
0.0522087
1.4281
0.0245234
8.86545
0.338326
1.59417
0.0227851
0.0229822
4.81728
0.0242411
0.253661
0.0248136
0.0715007
0.147233
0.02452
0.509774
0.0241711
2.09619
0.0510182
0.111418
1.27745
0.0249494
0.0248918
9.03136
0.0246454
0.465695
0.0410402
0.23118
0.10855
0.0251347
0.0795765
0.0262361
0.0294978
0.0350921
21.417
0.0236217
0.0233082
3.31954
2.35672
0.0437303
3.73825
0.0261345
0.0234741
1.93893
0.0446039
1.59873
0.233562
3.34388
0.0257569
0.0346586
0.0251586
3.17699
0.0262053
0.253763
0.0229045
0.0235094
0.0250865
3.78148
0.423633
0.0279042
0.0313328
0.0281627
0.022298
0.0746872
0.0222253
3.36337
2.35902
2.70566
0.0222681
0.0262527
3.27126
0.032269
2.05584
0.0227948
0.0229104
0.0886712
3.14497
0.0258742
3.2082
2.43248
0.0260205
1.61183
0.14563
0.027529
0.0246368
1.06841
0.295971
0.0231158
0.0403364
2.59662
0.0235052
1.33308
0.0464996
3.41843
2.98412
0.0253095
0.0241506
0.022811
0.0228004
8.85236
0.0252421
0.0234437
1.98018
0.0238982
0.0424545
0.0257266
0.215773
0.0447397
0.0819722
0.0236553
0.0261769
0.116559
0.0435972
0.0248321
0.0243497
0.0420562
1.2158
0.0242491
0.119003
2.39437
2.94527
0.239089
0.0237771
0.0282421
13.4085
5.08074
0.025075
0.0245444
8.66046
0.192669
1.65681
0.0268302
0.49814
1.2687
0.0238947
0.389376
0.123296
0.0252953
0.0243297
0.0229171
11.7039
0.024244
8.68737
0.165971
3.61488
0.198335
2.35911
2.05973
2.42408
3.0867
0.0242138
3.83979
0.0790383
0.024658
0.0400541
0.0379533
0.132686
2.33556
0.0240613
0.0251344
0.0238688
0.24685
0.0234852
0.0232915
0.02551
0.0270053
0.0264568
1.2857
0.0437994
0.0225164
0.0259837
0.0269799
0.0785019
0.0256065
0.13528
0.0261662
2.43552
2.99884
0.023449
3.33155
0.230655
3.05812
3.44856
0.026862
10.2298
0.0241725
0.123554
2.91303
0.0242296
0.0238128
0.024518
0.0240596
0.0270265
0.0307725
0.0241134
0.230906
0.0249792
3.0719
0.0271224
2.59353
0.0232837
0.0240761
0.327913
0.0238924
0.0244648
0.0242757
0.0499019
0.0258467
0.0251711
0.0265335
0.0238396
0.0584341
0.0231092
0.456269
0.0244915
0.035406
3.28531
0.0251306
0.108823
0.076087
0.0241916
2.35753
0.0234123
3.4218
1.95188
31.7691
0.0558021
0.023565
0.0838612
0.0932972
0.0246358
0.032046
0.0360082
0.0376946
0.0265225
0.023776
0.236233
19.6653
0.0246582
2.87834
1.0086
0.0232953
0.0237819
0.0227479
0.0806523
0.432274
0.231234
0.0240107
0.0235593
0.308908
0.0356029
1.99035
4.96234
0.0242008
0.0254636
0.023318
1.27641
2.08868
0.0231576
0.032601
0.393972
3.53944
0.0314284
0.0270838
0.0226542
0.0248791
3.22437
0.379305
0.0241946
3.0878
0.0236399
0.467658
1.42122
0.0361552
0.231638
0.356959
0.0248155
0.496059
0.0366522
1.81748
25.3588
0.0232966
2.70204
3.22192
0.20145
0.650834
0.0272052
4.04179
1.84115
0.0326517
0.0229879
0.239066
0.320139
0.396632
0.0699186
0.0250104
0.328284
0.0241817
2.58241
2.43015
0.0929359
0.0276469
0.0249895
0.0242521
8.96546
0.0233967
4.34615
13.8083
0.0522721
0.024093
9.43795
0.0239792
0.0512349
2.80677
0.406113
0.0254706
0.024662
0.0244715
0.0241642
0.0356939
0.024292
0.0414557
0.0314813
0.0246516
0.0224471
0.118246
0.0602169
0.023395
0.0233699
0.0241535
0.0255061
0.0272428
0.22577
3.33623
1.80239
14.269
0.0244131
0.0239734
0.04964
0.0393387
0.0233823
0.0819945
7.39233
9.52318
0.0969181
0.880283
0.0535543
0.0318506
3.05711
0.0236455
0.231978
0.154715
0.0226665
0.398089
0.0255568
0.0754357
3.25174
0.0351962
0.0312126
12.992
0.0241044
0.0239043
0.0224064
0.0289586
0.0241017
0.0248978
0.0242278
2.75114
0.0288868
0.0243576
0.0316111
0.0260541
0.436995
1.28611
1.78648
0.024534
0.0233328
2.4615
0.0872752
0.692044
0.0241763
0.0263516
0.0243751
0.0251695
9.59413
0.0282988
0.0237143
0.0242226
0.112436
0.0237043
0.0367836
0.0234427
0.0234001
0.025646
0.0994938
0.051608
0.0280324
0.0234464
0.921244
0.0334244
8.38189
2.34785
0.0248912
0.0591088
0.163673
0.0450689
3.70325
0.0258699
0.408563
0.0252368
0.0461366
4.42842
0.0232902
0.0241595
2.9644
0.0223979
0.810752
3.71593
0.0234838
0.0622579
0.022981
0.0242265
2.42446
0.0228666
0.0234211
0.0233513
0.0226026
0.0297884
0.0243143
2.62351
0.0233633
2.06414
9.78452
0.0251054
0.0241056
0.0235024
0.0233703
0.0261792
7.66516
0.0229559
0.0599945
0.028754
2.96363
3.24604
0.0254647
0.0424744
0.042548
0.0224498
0.0231516
0.265008
0.0223046
0.0226571
1.87402
2.77863
3.59186
0.0246187
2.45705
0.295565
0.022496
0.0405347
0.0243856
0.0243603
0.0226574
0.0240675
2.64973
0.0243556
0.0243157
0.274486
0.0259125
5.58244
0.0264133
0.0247288
1.23803
0.0231443
9.55589
0.022744
0.0254144
2.29757
0.0242316
0.023301
0.0241065
2.94565
0.258455
0.0246578
0.0242271
0.0226901
0.0296169
0.440591
0.13167
0.0248252
12.3212
1.00562
0.0241569
1.51589
0.02244
0.212852
0.461422
0.0225953
0.0280328
2.16338
0.0316186
9.08465
0.048706
0.0385844
10.5839
0.0269803
0.938768
0.0238005
0.916275
0.0244504
3.85195
0.0252616
0.0279905
0.0323977
0.0233395
7.75141
0.279687
8.18281
0.199399
0.023057
2.15284
0.0223708
0.0239748
3.66835
0.0228372
3.06247
1.89371
0.0224858
0.0266398
0.0402609
0.146674
0.0233092
0.0781373
0.0368147
0.290265
2.70684
0.0245436
0.0242549
0.0239624
0.0224494
2.52129
0.0749188
0.308852
0.0234594
27.2254
3.07523
0.02229
0.0227006
11.8331
0.0726367
3.70458
0.23139
10.2987
0.206621
0.0598269
0.0334313
0.257694
3.63764
0.0253244
0.0366134
0.0237727
0.0267337
0.173625
1.52244
0.0252411
0.161302
0.303065
0.0237257
0.0249596
0.0251087
0.0265374
0.0240686
0.969577
0.662584
5.33036
0.02291
0.0703279
0.0346855
0.129125
0.0779693
0.0649613
9.01436
0.0234527
0.024347
0.199309
0.0230451
2.58562
0.0514977
0.024481
0.0223544
1.64893
0.0242104
0.0250756
0.0234603
0.0288211
0.049116
0.0359281
0.0266337
0.0241506
0.0245111
0.768057
0.0232924
0.273102
0.0242536
0.0242673
0.0224118
4.4854
0.55149
4.41189
0.0262777
0.0276148
0.0257746
3.2857
1.71091
0.0240916
3.67164
0.0244708
0.0232358
0.0432848
1.89763
0.267746
2.909
0.0936005
0.0778549
0.0239708
0.0244258
0.70813
7.89855
0.0424222
0.0221498
0.169035
3.1471
0.0234194
0.0231477
11.5156
0.0252822
1.7338
0.159249
3.21067
0.0230006
0.0267279
0.023967
3.20757
0.02527
0.0230688
0.0267362
1.91238
1.48376
3.3728
5.80153
0.0253963
0.0232299
0.0238502
3.24228
0.0234359
0.0251664
0.032283
0.0234051
2.17596
0.0241393
0.02285
0.0230338
0.0377018
0.0245115
0.188209
0.0245729
0.0243466
1.60401
0.024334
0.187471
8.80654
0.0732582
0.0252667
2.26855
0.440209
0.0246447
1.96723
0.0226342
0.234905
0.0343294
0.926305
0.0855553
0.0632853
0.114819
0.0237725
0.0223894
0.0248668
0.0230225
0.0345015
8.60036
0.0375908
1.2448
0.0223147
3.48465
1.23119
0.0248891
0.11392
0.0234082
0.100338
0.0251722
3.26069
0.0223471
9.03457
0.0228532
0.0239817
0.03396
7.9544
0.0819975
0.0246555
2.61206
6.78732
0.0228826
0.388551
0.0368035
0.043147
0.120148
0.0240819
1.99591
0.0239859
0.0241085
3.03382
0.0340884
0.0228109
0.0239676
0.0231365
0.0231013
0.0251306
6.6705
0.759465
0.0799793
0.0237812
0.0244561
0.0785167
6.13365
2.87964
1.78424
0.379526
0.0251467
0.0235133
0.0236613
0.0282822
0.0245443
0.0228977
0.920379
2.30293
1.88378
0.0243486
0.0239067
0.825099
0.0239642
0.0237791
0.0244737
0.0261196
0.180071
2.66118
0.0241189
0.0230932
0.0352386
0.0242563
1.97987
0.0301929
0.390622
0.0248726
0.052324
0.0239915
0.0226258
0.135321
0.0260099
1.13889
0.0234028
0.665524
0.0252518
5.15122
0.0236922
6.03203
0.0235625
0.0855162
0.0238978
0.0237149
0.024369
0.0364577
0.307042
0.0240975
0.0254961
0.0232848
3.15343
0.0557629
0.314781
0.0270718
0.0257671
0.0346898
0.747539
0.032566
1.7732
0.024209
0.0246822
5.51842
0.638509
0.0223059
0.231293
0.0262329
0.0232538
0.9932
0.0238032
0.446965
0.0245807
8.81581
0.0237331
1.96496
2.16957
0.0225816
0.0247117
0.0224473
0.0250081
0.311951
1.17612
0.496819
4.27781
0.0237287
0.111633
0.0244644
1.68274
0.022399
0.334999
0.023201
0.121171
0.0238712
0.0237653
0.0256438
6.70583
0.240644
1.12146
0.0475792
0.0427094
0.300653
0.093527
1.41538
0.0242117
0.0261949
0.0263929
0.0233473
0.0228819
0.0329497
0.350951
0.957391
0.0288399
0.024494
2.26139
0.0245411
0.0728854
0.0770275
1.58218
0.0270703
0.0231671
0.0233527
0.0248622
0.0243753
3.1861
0.0464456
0.023743
0.0264405
0.0479154
0.0271378
2.75681
12.3608
0.960182
0.0241769
0.419777
1.66178
0.0450583
1.29459
0.0236492
0.0235634
1.89969
3.17436
0.203615
0.0233207
0.0263653
0.0226699
3.18849
3.15899
0.0233031
0.0268679
0.0236876
0.0245029
0.786193
3.46282
0.0236085
0.0233304
0.0272316
0.0245605
0.0232719
0.0311351
0.0237715
0.0255406
0.0233091
2.4884
0.0233677
0.0770243
0.0231764
0.26017
0.023344
0.0327764
0.0238636
0.0238553
0.0232667
0.024205
2.0809
0.0255514
0.0326959
0.0256973
1.77578
0.0251917
0.912701
0.0236829
24.78
0.0400765
3.49497
0.307571
1.05593
5.71325
0.5972
0.0226725
2.47558
0.0248219
0.0276487
0.425631
0.0856385
0.0406397
3.52383
0.0815212
0.0266049
0.0284619
22.6387
0.0235639
0.0245555
0.0247555
0.0362032
0.0239176
0.0227296
0.357581
0.0251061
0.0239477
0.0241301
9.15513
0.0250515
0.0301144
3.08572
3.14467
0.492717
0.0374109
2.90306
0.0268859
8.01353
0.0228654
0.026876
0.035982
0.0248809
0.0232483
1.40788
3.22905
0.0471319
0.0323123
0.0251911
0.0250918
1.65353
0.0312382
3.51738
0.0251481
0.024243
0.024133
0.0241912
0.0247751
0.0236432
0.0292687
0.0246274
0.024639
0.028467
0.0251332
0.0239551
0.0249037
0.914149
2.87365
0.026367
0.0705896
2.89973
0.0710429
0.033466
0.150091
0.0376266
0.0234856
0.0242069
0.165263
0.0232184
0.0227334
0.0267015
0.495741
0.022738
0.0235723
0.025989
0.0266394
0.0239786
0.0285587
0.0262187
0.499126
4.7317
0.482727
0.0227376
0.0235717
2.11363
2.71716
0.0675198
1.96416
3.284
0.0295242
0.0249455
0.024558
2.83923
0.256778
0.0239566
0.0376242
0.277786
0.358996
1.98325
2.72584
0.0251458
0.0368818
0.0263802
0.0686203
0.0241627
3.5279
0.166888
0.025606
0.0239287
0.0248047
0.0514736
0.0221244
0.0227418
0.0342109
0.237674
11.9056
2.56566
1.79011
0.0241671
2.65901
2.54529
2.11841
3.20629
0.60289
2.87386
1.72862
0.0246281
0.179804
0.212126
0.0239963
5.26016
0.0245127
2.85937
0.0237416
0.0407087
0.0933115
2.85193
0.0239282
0.032701
0.0265933
0.0525234
0.0239527
0.024242
0.312541
2.28209
0.0267646
0.948611
0.023407
0.0386076
0.0245345
0.0369497
1.50907
0.0584475
4.62465
2.8035
5.06167
0.0268806
3.75972
0.0259518
0.0223757
3.03555
0.133945
0.0232115
0.0252475
0.0247941
0.0252128
0.14292
0.0237284
1.94882
0.0715486
0.0803022
0.0248746
0.0339433
0.037994
2.11262
0.056997
0.0684145
0.312454
1.50336
0.0271269
8.46258
3.88478
0.0239595
0.201717
0.024216
0.0249551
0.0366467
0.0228226
0.0237854
2.2749
0.0236159
10.7444
0.0231528
1.90795
2.91194
0.0284284
2.49291
0.0572515
0.0223682
2.84725
2.75688
1.06636
0.0246475
0.0249212
0.261983
0.412285
3.39919
0.0232835
0.031882
0.0264252
0.025053
0.0366347
0.0557365
0.0249191
0.0246898
0.0242235
0.0536698
0.0247181
0.165663
0.0242574
0.0225736
2.8694
0.0254085
0.0256076
0.294402
0.0287858
0.0270815
0.0252897
0.0250654
2.84994
0.0250089
0.0247062
0.0235888
0.0284332
0.0228026
0.114448
2.22116
0.0270857
0.0243009
0.0237646
2.32464
6.60678
0.0363331
7.49202
0.179485
0.0333402
0.0239436
0.334906
9.09944
0.0245885
1.87327
0.0235313
0.173992
0.872628
3.21887
2.97404
0.0237851
0.293807
0.0245992
0.0256904
0.0238125
0.910054
0.0249579
3.45888
0.0778483
0.025374
0.0267346
0.0237497
0.0254724
0.0232486
0.0237341
0.0244265
0.0244379
0.0226919
3.15157
5.85801
0.239012
0.303976
0.134583
0.0248055
0.0242327
0.0241109
0.0248026
0.16177
0.0264726
0.0225666
0.0232613
0.0221108
1.5794
2.78813
0.0417159
0.0225472
2.19769
1.63009
0.174865
0.0300284
0.0266949
0.1547
0.024698
0.40519
0.0705829
0.0256506
2.55918
0.0235401
0.0252993
3.81381
0.122006
0.02447
0.0407362
0.0244233
0.0280394
0.114148
0.261598
0.0277899
2.77667
0.148894
7.64218
0.0233023
0.0242356
0.161845
5.24988
2.13441
0.0233468
0.0245007
0.0247922
0.0232266
0.0712933
0.0223903
0.793202
0.0348554
0.0231867
0.0251322
0.0250992
0.0247743
0.0699092
0.0248553
0.174821
0.0257942
2.30484
12.902
2.3162
0.277055
3.34071
0.023906
2.82405
2.18087
0.0292221
0.0246802
0.0244861
0.0269574
2.33393
0.0247379
0.0231973
0.0251345
0.131068
0.374184
0.0380326
0.0249525
6.69906
0.0709014
0.0227773
8.21642
0.512448
4.3231
0.0233333
0.0262525
0.0339874
0.0562365
0.0252091
0.0746586
0.023211
0.02388
0.0249243
3.56209
2.48485
0.0244423
0.289392
0.0260637
0.0251999
0.0383892
2.93446
3.13271
0.0247387
0.549561
0.0486994
0.02524
0.0238626
0.283962
5.38777
0.0332076
0.390034
0.783304
0.0245828
0.0244541
0.0298423
6.47555
0.0251183
0.139933
10.3023
0.0241436
0.308952
0.270677
0.0246309
3.63364
0.0248472
0.292868
0.0245589
0.0351949
0.0401771
0.0729183
0.178937
0.0960468
0.214031
2.81178
0.0248012
0.0235331
0.0689611
0.0237699
0.217193
0.0242487
0.0244481
0.0232552
1.39717
0.0362485
2.40936
0.182979
0.0342373
9.91623
0.334927
0.0239231
0.986366
1.85602
0.02225
2.77295
0.27906
0.0278674
0.0222138
3.41675
3.27753
0.0231236
0.0248954
0.0481607
0.0275448
0.0250707
0.0266045
2.1786
0.0240773
0.787693
3.25965
0.0237299
0.0268575
0.0240627
0.0501175
2.71802
10.1185
0.165249
9.35114
3.27886
0.0223327
1.97933
0.0237581
5.95528
0.0231338
0.0240861
2.00972
0.0265717
0.0243933
2.86012
0.0245544
0.110393
0.227487
0.0314674
0.0729253
0.305582
0.0392024
2.2279
0.0244686
0.0354116
0.0334236
9.7638
0.0242888
2.69471
0.0258832
0.0887186
4.38434
1.72268
0.0259126
0.0671085
0.0245544
0.024979
0.0233456
0.0254845
0.0493102
0.114381
0.0233525
0.0225386
0.0240926
0.0229851
0.0258039
0.0313275
3.21932
0.0417607
0.0238113
0.0489016
0.024554
0.302142
0.105373
0.0240836
2.01269
0.225756
0.0231627
0.0229967
3.15657
0.675802
0.168214
0.0263234
2.58859
0.0249301
3.17523
0.0245172
11.6554
0.0345346
1.69596
0.826118
0.0237532
0.0516891
0.0314703
3.12199
0.0245513
0.0978339
0.0331363
0.0250302
0.05618
2.49285
2.97229
0.0268028
0.0441019
0.0254028
0.026271
1.85878
0.294501
2.25949
22.9773
5.83756
6.20964
0.16073
4.00996
0.0231054
2.16224
1.61349
0.694401
0.678633
0.0588439
0.023368
0.023832
0.0233139
0.0230887
0.874636
2.99804
0.0235146
0.037573
0.0239912
0.0557056
0.0478275
24.3395
0.0238167
0.0237078
0.0256056
0.022526
0.0606555
0.0295067
0.0410612
3.15909
5.76853
0.0234384
5.56472
0.0232869
0.0378417
0.0230765
0.0233078
0.0234847
2.75497
0.075832
0.0256138
0.0242433
0.898376
0.0634659
0.128241
0.024466
0.0668903
0.0246132
2.01694
0.0528913
0.0248766
0.0383255
0.0819105
0.0281881
0.0247043
2.11133
0.0743705
0.0222234
0.023746
0.0500322
11.4487
0.026111
0.0426607
0.0234239
0.0371492
0.023274
0.0249139
3.47786
0.0223694
0.0249
0.27138
0.32743
0.307118
0.02448
0.155867
0.0545291
0.0732094
0.110637
3.3806
0.0593186
5.39433
3.31669
4.12813
0.0380318
3.02186
1.73322
3.59048
2.00282
0.0329861
0.0237763
0.0246488
0.0245526
0.023984
0.0295296
0.0315746
0.0238329
0.0693199
0.331234
35.9866
3.71777
0.0252769
0.322371
0.0248167
6.01865
0.0249153
0.0237114
0.022462
0.0222046
0.0256047
0.0258225
0.0232751
2.63626
2.1269
3.39753
0.0284392
0.0268602
0.0233269
10.6644
0.0224358
0.317001
0.0233444
3.30708
0.0389385
0.0228448
0.0235096
2.71729
3.80908
0.0344302
3.61701
3.90232
0.0237711
0.0238075
0.02342
0.0337271
0.296481
0.0258211
0.0253338
0.949654
0.0237743
3.29108
0.0267982
0.0243597
0.0231338
0.069587
0.0254087
0.0238036
0.249114
0.0344758
0.165578
0.0246472
2.93358
3.07804
0.0594913
0.0237437
0.0258327
0.0245511
3.29717
0.0228798
0.447149
0.0238089
3.03994
2.89042
0.10554
0.024515
0.0871558
0.0246136
0.0281276
3.18017
0.0228911
0.0232775
0.229782
2.06626
0.185969
0.0280277
6.4693
0.0243922
0.0238925
0.0227959
0.0252642
0.437625
0.023862
0.818086
0.0566746
13.6629
0.917254
0.08702
0.0498469
0.0232547
9.68315
0.0248263
0.0243313
0.0225661
0.0591606
0.0246026
0.0280588
0.0334951
0.024334
0.023537
0.873997
0.0575707
0.025383
0.0239842
0.024558
0.0234739
0.0230855
3.07095
0.0279119
0.0661554
0.0252251
0.0241817
0.0351314
0.189105
0.407918