/*--------------------------------*- C++ -*----------------------------------*\
| =========                 |                                                 |
| \\      /  F ield         | OpenFOAM: The Open Source CFD Toolbox           |
|  \\    /   O peration     | Version:  v2012                                 |
|   \\  /    A nd           | Website:  www.openfoam.com                      |
|    \\/     M anipulation  |                                                 |
\*---------------------------------------------------------------------------*/
FoamFile
{
    version     2.0;
    format      ascii;
    class       volScalarField;
    location    "400";
    object      p;
}
// * * * * * * * * * * * * * * * * * * * * * * * * * * * * * * * * * * * * * //

dimensions      [0 2 -2 0 0 0 0];


internalField   nonuniform List<scalar> 
37190
(
-0.00701974
0.000306416
-0.0115589
-0.0056338
0.00788972
-0.00859134
-0.0381032
0.00836068
0.00108959
-0.0770842
-0.0522745
0.00351339
-0.0558647
-0.0297306
-0.0594176
-0.00633574
-0.0116204
0.0271439
5.77934e-05
-0.0246981
-0.0318315
0.018411
-0.00667669
0.00617109
0.00775289
0.000691579
-0.0613554
-0.0422422
-0.0516
-0.0175931
0.00199369
-0.00586347
0.000857801
-0.00600836
0.00131654
-0.00937014
-0.0619803
-0.00193167
5.07674e-05
-0.0125836
-0.0207554
7.5488e-05
-0.00644273
-0.00609586
-0.0591294
0.00979217
-0.0592963
0.0056583
0.000779415
-0.0182534
0.00123131
6.52092e-05
-0.0196963
-0.0520244
-0.000863927
0.00530024
6.646e-05
-0.00483169
0.000304892
0.000916706
0.00712287
-0.0593116
-0.0325939
0.000687721
-0.0877643
0.0297831
-0.000872706
-0.0516289
-0.0694728
-0.0574748
9.59204e-05
0.00252282
0.00125314
-0.00676554
0.00152419
0.00177596
-0.0303653
-0.057101
0.00099796
-0.0612296
-0.0601782
-0.00616584
-0.0561227
0.000449732
-0.0577125
-0.00788941
-0.0577561
0.00947525
-0.0383629
-0.0241794
-0.000257898
-0.0513013
0.000960244
0.000975646
-0.00902754
-0.0121073
-0.0245922
0.031076
0.0201205
0.00150651
0.00248734
0.00379687
-0.0216659
0.000307209
-0.0516485
0.00082001
-0.00769414
-0.0665443
-0.0859253
-0.00781552
-0.021376
0.00145587
-0.0060505
0.00144395
0.00252305
-0.00556602
-0.059045
-0.0581282
-0.0181125
-0.0315712
0.00802785
-0.059123
-0.0206206
0.0011964
-0.061062
-0.0301329
-0.0517626
-0.0209595
-0.0508962
0.00137627
-0.0624993
-0.00631814
0.00097784
-0.00572625
0.000574293
-0.0115769
0.00184455
-0.000802322
-0.00206177
0.00812601
-0.0475948
0.00859133
0.000468477
-0.00994017
-0.0251919
0.00126455
-0.0321116
-0.0404877
0.00123838
-0.0580409
-0.00743339
3.71817e-05
0.0003463
-0.0507812
-0.05945
-0.0067541
-0.0679625
-0.0127684
0.00153952
-0.0941026
-0.00350507
-0.0188146
0.00147929
0.00112975
-0.0770597
-0.0318176
-0.0706053
-0.0536924
-0.0187199
-0.0553711
-0.0602863
0.0010993
0.00043679
0.0010313
-0.0743999
-0.0799507
-0.0476011
-0.0282297
-0.0220079
-0.0753936
-0.0504013
-0.00201137
-0.0209798
-0.0406335
-0.0309261
-0.0784678
-0.00692086
-0.0770205
0.0252806
-0.0396602
0.00123603
-0.0541953
-0.00343394
-0.0214066
0.00122292
-0.0557889
-0.0530319
-0.00312458
-0.0424734
-0.0117777
0.000844641
-0.0549222
-0.00659665
-0.00705812
-0.0022814
-0.00479254
-0.00551365
-0.0127824
-0.052285
-0.0388843
-0.00632684
-0.00550372
-0.00383013
-0.0189
-0.061999
-0.0351429
-0.00550307
-0.006954
-0.0759966
-0.00543715
-0.0429578
-0.00571053
0.0272015
-0.0519377
-0.0741173
0.0154135
-0.0505648
-0.0551838
-0.022902
-0.0649129
-0.0677064
0.00179115
0.000334227
0.000457316
-0.00541886
0.00137868
-0.0430311
0.000335543
-0.010931
-0.0492685
0.00122869
-0.0700075
-0.0510609
0.000651367
-0.0565549
-0.0774911
-0.00542942
-0.00782666
-0.0794118
-0.0119361
-0.0288047
0.00264024
-0.0487247
-0.0312725
0.00121722
-0.0410895
0.00123183
-0.0061922
-0.00779848
0.000182869
-0.000860203
-0.0587972
0.00413382
5.37936e-05
-0.00805191
-0.0234047
-0.0127719
0.00052346
0.00126126
0.00398199
0.00157116
-0.0230321
0.00534583
-0.0732409
-0.00486779
-0.0738187
-0.0099925
-0.00735271
-0.0742015
0.000762122
0.00126661
-0.0392436
-0.00750131
0.000347918
-0.0534129
-0.00563111
0.000288578
-0.0275396
0.00823926
-0.000738037
-0.0193133
-0.0193599
0.00513998
-0.0541142
0.000966235
-0.0521484
-0.000101657
-0.00883923
-0.0714297
2.02711e-05
0.00619057
0.0181958
-0.00572512
-0.0544733
0.000935891
0.000950011
-0.0202492
-0.0142927
-0.0595876
-0.0556714
-0.0879937
-0.0527115
-0.0522075
0.0139441
0.00176553
0.0016798
-0.0105938
0.00167941
-0.0874983
-0.00708818
-0.0561657
-0.0560643
-0.0140003
-0.0172958
0.0202391
-0.00545469
-0.0187834
-0.0525965
-0.0700273
0.00125861
-0.00218728
-0.113592
-0.0129549
-0.0621848
-0.0195856
0.00126281
-0.012633
-0.00167799
-0.00993917
-0.0128275
-0.00754031
-0.00680069
-0.091517
-0.0192052
-0.0541475
0.00095115
-0.0523184
0.00115442
-0.00706067
-0.0563269
-0.000177896
0.00328421
-0.0172152
3.63386e-05
-0.04705
0.0308969
-0.000152735
0.00115016
-0.0619283
0.0078673
-0.0622829
-0.0659536
-7.75141e-05
-0.0592449
-0.0604439
-0.0428641
-0.0223655
0.0219049
0.000954509
-0.0865592
-0.0190869
-0.00298079
-0.054195
-0.0701311
0.000530264
0.000453628
-0.0478624
-0.0938109
0.00343865
0.00142308
-0.00021345
-0.0524809
-0.013752
0.00466048
-0.00117152
-0.0890409
0.00128166
0.00112257
0.000142852
-0.0371761
-0.048575
0.0206322
0.00130843
0.000760016
-0.0545955
-0.000854324
-0.0761217
-0.0561978
-0.053939
0.00112568
-0.0517742
-0.0419005
3.61468e-05
-0.0698239
-0.0609725
0.000101008
-0.0536611
-0.0587517
-0.0606889
0.000688273
-0.0217907
-0.0170753
0.00099874
-0.0666416
-0.0477902
-0.0501065
0.00382117
0.00127107
-0.0793348
-0.0105045
0.00106895
-0.000363
-0.0138185
-0.0177279
-0.0183713
0.000294297
0.0011094
0.000458409
-0.0590756
-0.0586368
0.000307611
0.00129245
0.000506494
-1.55465e-05
-0.0541116
-0.0229051
-0.0496476
0.00094071
-0.0505478
-0.11468
-0.0119264
-0.00527348
-0.0611465
0.00753759
-0.0664172
-0.0730857
-0.115756
-0.0550058
0.00107497
-0.0325859
-0.0745007
0.00931235
-0.0609203
-0.0317408
-0.0523784
0.0035889
0.00122718
-0.0127543
0.00118959
-0.0884702
0.000899923
-0.0568211
-0.0546804
-0.00562427
-0.0572393
0.00116707
-0.0248723
-0.0658933
-0.00955113
-0.00398484
-0.00546846
-0.0201184
0.00799631
-0.00486555
-0.0560282
-0.00238915
-0.0227365
-0.0383666
-0.01845
0.000890495
-0.078354
-0.0213529
0.00119659
0.0295307
0.00509532
-0.050623
-0.0534433
-0.0355074
-0.0872546
-0.00953819
-0.0502764
-0.039043
0.00428009
0.00111744
-0.0601752
0.00268993
0.00124943
0.00122094
-0.00809592
-0.00549386
-0.00778453
-0.00848934
-0.0832541
0.00537825
0.00167855
-0.000737759
0.00164011
-0.0117077
-0.0275116
-0.00625161
-0.00353083
0.00105178
-0.00957655
0.00945872
-0.0665126
0.000793478
-0.0702065
-0.00560854
-0.0182918
0.00434256
-0.0181975
-0.0735832
-0.0464823
-0.0302206
-0.0169028
-0.00631856
-0.00537968
0.000313604
-0.000434107
-0.00508345
0.00111764
-0.0395094
-0.0281527
-0.00834482
-0.0224344
-0.00568751
0.000895489
0.00263891
0.0127045
0.00119663
0.0012347
0.00075497
-0.00767468
-0.0862251
0.000587995
-0.0525167
0.0125904
-0.00882507
-0.00141718
0.00110571
-0.051927
0.000622405
-0.00266325
2.41978e-05
-0.052736
-0.0183361
-0.0240055
-0.0830221
0.00238326
0.00469009
-0.00280501
-0.0700244
-0.00560845
-0.0062651
-0.0484063
-0.0049736
-0.054791
-0.0581104
0.000271328
-0.055543
0.000159833
0.000672413
-0.0063754
0.0123511
-0.133006
-0.0564643
-0.129383
4.79157e-05
0.00965553
-0.0409557
0.00125376
-0.0107668
-0.00684125
-0.0231124
-0.0760963
-0.00142409
-0.00810065
0.00171746
-0.0127887
-0.0577414
0.00951307
0.000752744
-0.132207
-0.00199246
-0.0012215
-0.0433872
0.000709902
-0.0504498
-0.00202901
-0.010309
-0.0203645
-0.0120771
-0.00745301
0.00600815
-0.0473371
-0.0499319
0.00125597
-0.058329
-0.0127384
-0.0173517
0.000702398
-0.0531836
-0.0122785
0.000370835
-0.0312854
-0.080172
-0.0102609
0.00292742
5.92544e-05
-0.0566076
-0.11948
0.00141225
-0.000209309
-0.0177294
0.00125904
0.00169266
-0.089016
-0.0389582
0.000798173
0.00182295
0.0094926
-0.00197118
-0.0545132
-0.0579251
-0.0567609
0.00407861
-0.0590738
0.00430908
0.00185122
0.00136246
-0.0398868
-0.0536731
-0.048682
0.0165474
-0.00973376
-0.0609347
-0.0212218
5.59649e-05
-0.00143432
-0.0311753
0.000284431
-0.00974769
-0.0588721
-0.0373024
0.0112893
-0.0584881
-0.00179854
-0.00473658
0.0262725
0.0004101
-0.00709864
-0.0557247
-0.0189348
-0.0432535
-0.0523962
-0.0239823
0.003034
-0.00685912
-0.00483359
-0.0191023
-0.00967321
0.00102049
-0.0136687
-0.0533326
-0.0564812
-0.00166384
-0.00143476
0.000262563
0.0150584
-0.0302
0.00156278
-0.0511003
-0.000298545
-0.0475006
-0.0180784
-9.51747e-05
-0.0194413
0.0169547
-0.0475304
-0.000292151
0.000988395
0.00238316
-0.0409718
-0.0607258
-0.0141115
-0.00157402
0.00149889
-0.00707812
0.00109584
-0.0468978
-0.000116805
0.000162419
-0.0496303
-0.00029542
-0.0460669
0.000586165
0.00134689
-0.0647706
-0.0681357
-0.00188655
-0.040801
0.000585484
-0.0545522
0.00299156
0.000489419
0.02252
0.00159031
-0.00972041
-0.053521
-0.0585175
-0.0620996
-0.00137293
0.000708471
-0.0293541
9.58571e-05
-0.0465261
-0.00629286
-0.0919477
-0.0439556
-0.0761286
0.00131268
-0.0580087
-0.0293215
-0.0143881
-0.0471909
0.00159815
-2.93534e-05
0.00157685
-0.0378929
0.000705722
9.00384e-06
0.0025149
0.00138917
-0.0481178
-0.0767927
-0.0104437
-0.0597857
-0.0528123
-0.0672708
-0.000555024
-0.011445
0.00127109
0.00255221
-7.80607e-07
-0.010559
0.00133969
0.00339586
0.0185022
-0.0781937
-0.00602394
-0.0539934
-0.000106961
-0.00346893
-0.0112774
0.00173774
0.000717993
0.000277618
0.000109526
-3.92871e-05
-0.0162905
-0.017851
0.00192577
0.00219885
0.00295053
0.00115684
-0.0412624
-0.000936614
-0.00126543
-0.0245893
-0.0436557
0.00108525
0.000637449
-0.0184222
-0.00756925
9.56141e-05
-0.0646261
0.00323537
-0.036426
0.00292412
-0.0176055
0.00071547
0.00191182
0.000769906
-0.0117067
0.00092993
0.00330699
-0.0184707
-0.00466318
0.00136111
0.00282382
-0.0474576
-0.000408988
0.000974763
0.0011162
0.0013879
-0.0387855
-0.0932272
0.000490168
-0.0574673
0.00197692
-0.00136883
-0.0222655
-0.00151329
-0.0787606
-0.0228049
-0.00417947
0.00184489
0.00299794
0.0171367
0.00267962
0.00538228
-0.0491345
-0.0112482
-0.0517614
-0.0380072
-0.0578678
0.0045422
0.000444895
0.00407281
0.000469262
-0.0874686
-0.00625695
-0.0047626
-0.0551504
-0.045957
0.00317041
0.00117152
0.000124322
-0.0141259
-0.0610361
0.000221262
-0.0519446
0.00130051
-0.0222912
0.000921489
-0.0600555
-0.0225555
2.10101e-05
-0.0712099
-0.0552519
0.011681
-0.00101952
0.00308326
0.00494464
-0.000521463
-0.0203947
0.0371817
-0.0163547
-0.00541681
-0.00907914
-0.0537524
-0.0162284
-0.00110102
-0.0490681
-0.0435334
-0.0520761
-0.0759626
-0.0517096
-0.0489564
0.000586866
-0.0227106
-0.0143032
0.00352659
-0.00164375
0.0107932
-0.0106294
-0.00790819
-0.0567693
-0.00356182
-0.0127892
-0.00797042
-0.0524622
-0.036882
-0.00749572
0.0109026
0.00125687
-0.0538957
-0.0132986
-0.0874314
-0.0132917
0.00230379
0.00126623
-0.0145246
0.000107346
0.0012275
-0.0231
-0.00930761
0.0012413
-0.0294661
-0.0135482
-0.0218859
-0.00763925
0.000977982
-0.014645
0.00123216
-0.000315452
-0.0929533
-0.0494821
0.000522731
-0.028808
-0.00359655
-0.0462678
-0.0534667
-0.0283669
-0.0186424
0.00308028
-0.0140149
-0.0429374
-0.0367363
-0.0343917
-0.0631807
0.00126305
-0.0796875
-0.0531195
-0.00682853
0.000212015
0.00127887
-0.0543381
-0.0647452
-0.000301264
0.000434705
-0.0751414
0.001125
-0.0541404
-0.0223827
-0.0022298
-0.0582697
0.00112808
-0.0536379
9.92412e-05
-0.0618826
-0.00831405
-0.0328493
0.00123791
0.0036916
-0.0333964
-0.0233201
-0.0672217
0.00103972
-0.0218483
-0.0540925
-0.0265954
-0.0149833
-0.00272408
0.00189414
0.00102944
0.00113729
-0.0494193
-0.030874
0.00102297
-0.0397406
-0.0287565
-0.0627937
-0.0629225
-0.00990479
-0.0600536
-0.0611614
-0.0405504
-0.0158975
-0.0723045
-0.0383023
-0.00923136
-0.00837691
-0.0374547
0.00103138
0.000611246
-0.0435955
0.000598924
-0.0323042
-0.000237386
-0.0118178
0.00252226
0.00105325
0.00113583
-0.00762415
-0.00301521
3.3067e-05
-0.0452754
0.00105192
0.00121724
-0.0912657
0.00843255
-0.0660984
-0.0762068
-0.0482033
0.00299576
-0.00119789
0.00111746
0.0105847
-0.0121209
-0.0170898
-0.0527848
-0.00166297
-0.00844927
-0.00415899
0.00120212
-0.0476273
-0.0221525
-0.00161198
-0.0664782
0.001128
-0.053904
-0.0727657
-0.0601371
-0.0577518
-0.00503548
0.00265562
-9.70093e-05
0.00237267
0.00187652
-0.0141576
-0.0390546
-0.00389356
-0.0589784
0.00112288
-0.00731108
-3.05353e-05
0.00100883
-5.61459e-06
0.000453035
-0.0488493
-0.0661388
-0.00798232
0.00170985
0.000374468
0.000895517
-0.0190275
0.0239307
0.0289781
0.000494334
-0.00753774
-0.106399
0.00121256
-0.0538504
-0.0557418
-0.0166157
-0.00700422
-0.00369645
0.000205182
-0.00189495
0.00103031
-0.00445989
0.000963739
0.00255388
0.00143624
0.0065203
-0.0618807
0.00106801
-0.00569207
-0.00755055
0.00227667
0.00165778
-0.0437612
0.00154484
-0.062723
-0.00736277
-0.0462175
0.000935807
-0.0679155
0.00153241
-0.104839
-0.0433111
-0.00762182
-0.00534446
-0.0442978
-0.00981801
-0.0762856
0.025462
3.10702e-05
0.0018706
-0.00103535
-0.00940628
-0.0147585
-0.00613333
-0.0246493
-0.0137647
-0.00713129
-0.0230111
0.000402994
-0.0655632
-0.000654383
-0.0584628
-0.000639452
0.00154868
-0.00296834
-0.0164952
-0.0264212
-0.0166684
0.00180829
-0.0157437
0.000487235
-0.00712532
-0.0498817
-0.0597567
2.89826e-07
-0.0225715
-0.0611466
-0.0423094
0.00124056
-0.132864
-0.000216912
-0.129588
0.00690855
-0.00537726
-0.00127606
-0.0749756
-0.0913833
0.00169273
-0.0406526
-0.0318836
0.0123682
9.60098e-05
0.00180409
-0.0660019
-0.0105599
0.00110504
0.00113649
-0.00189939
0.00418057
-0.0380371
-0.0943546
-0.0568055
-0.0567143
0.00113924
-0.0599891
-0.00838845
-0.0109635
0.000912948
-0.00810721
0.00106266
-0.0252552
-0.0535193
-0.0620213
-0.000862966
-0.00961001
0.00413939
0.000748569
-0.052267
-0.0143182
-0.00988944
0.00458019
-0.0329031
0.00111131
-0.0614721
-0.0496315
0.0203588
0.00110468
-0.0565813
0.000558165
-0.0537521
-0.0117536
0.00107288
-0.000527473
-0.00176959
0.000944106
-0.00606615
-0.0641065
-0.0778582
0.00107789
-0.0100492
-0.00111784
-0.00213535
-0.00377975
0.000694553
-0.00231534
-0.0563885
-0.0616588
-0.0373752
-0.05315
-0.0745885
-0.00244288
-0.0463764
0.00173011
-0.00150723
-0.00414413
-0.0556933
0.0158002
-0.000217451
0.000770436
-0.0656854
0.00715564
-0.0672876
0.0054615
-0.000140948
0.00157514
-0.0023501
0.00185577
-0.0208093
0.000570071
0.00632619
0.000155603
-0.053785
-0.0400925
4.95919e-05
-0.00951558
-0.0537095
-0.00288489
0.00118098
-0.0154978
0.000435574
0.00437992
-0.0512924
-0.038041
-0.0520095
-0.0100608
0.00119766
0.00348639
-0.000162955
-0.0128648
-0.0586219
-0.0367857
-0.0149367
0.000395879
0.00351167
0.00118327
0.000592847
0.000245951
0.00104943
0.00274821
-0.134076
0.00128753
-0.00109332
-0.00585498
-0.000253742
-0.0504445
0.020841
0.00103672
0.000202106
-0.0688838
0.00109885
0.0171858
0.00105009
0.000599685
0.00105147
-0.0437146
0.00109407
-0.0299456
0.00767001
-0.0611893
0.0391828
0.000507549
-0.0101635
-0.000472
0.00125581
0.00114884
0.0127233
-0.0273474
-0.0280917
0.0149735
-0.0246823
-0.010212
0.00297761
-0.0235596
0.00115361
-0.00781733
-0.0630427
-0.0537179
-0.0491554
-0.00715142
-0.05303
0.000716566
-0.0178434
-0.0492607
-0.00630226
-0.00849834
-0.0635657
0.000109496
0.00119004
-0.054468
-0.0535922
-0.00285449
-0.0029548
-0.0119369
0.00104507
0.000105667
0.000685147
0.00255273
-0.0096416
0.0163166
0.000608468
0.00104412
0.00124542
-0.00629257
-0.0019549
-0.000203316
-0.0441827
-0.0466964
-0.0560864
-0.001718
-0.0519462
0.00103713
-0.0592045
-0.0327006
-0.0435778
-0.0115707
0.00145323
4.40288e-05
-0.0532408
-0.0414277
-0.0155288
-0.00371943
-0.00296999
0.00120142
0.000952826
0.000890308
-0.0122359
0.00161675
0.0113358
-0.0559345
0.00117623
-0.000781607
-0.0581709
-0.00501005
-7.99573e-05
-0.0772843
0.000162643
-0.00219229
0.000154527
-0.0678046
-0.00293069
0.00179757
-0.0544986
0.00265294
-0.00916784
0.000955616
-0.0141078
-0.0531493
0.000525307
-0.0739621
0.000633225
-0.00164585
-0.0133724
-0.0654319
-0.0227634
-0.0642082
0.00107448
-0.00524403
-0.0154247
-0.0138874
-0.0544413
0.000278285
-0.00526968
0.00108138
0.00252363
-0.0116644
-0.00695749
-0.0244248
-0.0094676
-0.00551274
-0.0345731
-0.0519531
-0.0339153
-0.0532512
0.00122958
-0.0474262
0.000213328
0.0194334
0.000761644
-0.00657545
0.00284345
-0.00390851
-0.0466037
-0.0536325
-0.0107561
-0.0353476
-0.00181341
-0.0570345
-0.0602379
0.00114529
-0.0500107
0.000197813
0.000785639
-0.00179831
-0.0442273
-0.00658532
-0.0518174
0.000876871
-0.00220427
-0.00982473
-0.00249874
-0.0547201
-0.0589975
0.000888908
-0.00611421
-0.00591681
-0.00757167
-0.00547281
-0.00538631
0.000292542
-0.000368474
-0.0139964
-0.00546742
-0.061504
-0.00940955
-0.0507226
-0.059488
-0.0056338
-0.0139882
0.00099578
-0.00201443
-0.0656301
-0.0103332
-0.000418613
-0.055594
-0.0058946
0.00116959
-0.0661964
-0.00614664
-0.000319649
0.000795842
-0.0187804
-0.0602503
0.00115805
0.00137476
0.00145838
-0.0248978
-4.18704e-05
-0.00422994
4.51064e-05
-0.0213591
-0.0454742
-0.0393259
-0.0901466
-0.0564217
0.000951262
0.000449846
-0.0707219
-0.077033
-0.000258297
-0.00963713
-0.0114234
-0.0582925
-0.00654647
-0.0593029
0.000727512
-0.00530247
-0.0112146
-0.0543978
-0.0481668
0.016605
0.00170722
-3.24863e-05
0.00257127
0.00223846
0.000576639
0.0070197
0.00287502
-0.025431
-0.0522529
0.00116666
-0.066176
-0.00542772
-0.00106869
0.00118955
-0.0597338
-0.00670878
-0.00127146
-0.0300526
-0.00676199
-0.0590214
0.00206985
-0.00598644
-0.054576
-0.0132369
0.0110988
0.00107874
0.00117583
-0.120844
-0.00982582
0.00307227
-0.0215361
-0.0663078
0.00782191
-0.010083
-0.0113457
-0.00560608
0.0386567
-0.000128961
0.00778606
0.0110413
0.00121121
-0.0107012
-0.0707008
-0.00553553
-0.00686439
0.00734007
-0.0503927
-0.0445969
0.00178198
0.0143591
-0.00663001
-0.0289581
0.00305306
-0.0458529
-0.00122961
0.00117271
-0.0502471
-0.0761337
0.00617513
-0.0569132
-0.00555449
0.000666149
-0.0932332
-0.0439534
-0.0151313
-0.001587
-0.0647743
-4.94204e-05
-0.0540851
-0.00770561
-0.0546444
-0.0270049
0.00335139
0.00114196
0.00101341
0.00185434
-0.062623
-0.00997593
0.00158193
0.00405215
0.000511594
0.00056891
-0.0175827
1.95013e-05
-0.0609405
-0.0948911
-0.0534323
0.000124859
0.000867418
-0.101978
-0.0340424
-0.0250244
6.99463e-05
0.00113683
-0.0499197
-0.0549767
-0.0128818
-0.0900867
0.0211539
-0.000927379
0.0112071
-0.0502005
-0.00867689
-0.0157708
0.0164284
-0.00258341
0.00081254
0.0042506
-0.095913
0.00102952
0.0178648
0.00478317
-0.0615467
-0.0971397
-0.0109102
-5.21156e-05
0.00106579
0.00106021
-0.051091
0.00157576
0.000642964
-0.0144484
0.000581431
-0.0439494
0.0016485
-0.0512418
0.00592361
-0.0376051
0.000221677
0.0016435
-0.035874
-0.0499715
-0.000972227
0.000538181
0.0072034
-0.00145166
-0.00260027
0.00847905
-0.0654985
-0.0417033
-0.00110901
-0.000920598
0.000738208
-0.0675744
-0.125394
0.000292978
-0.0138617
-0.0756147
-0.00413104
0.00519344
-0.0325727
-0.00436636
0.00872237
0.00108519
-0.00998334
-0.0363902
0.000910795
0.00125178
0.00113642
-0.0524391
-0.00990067
-0.0668042
-0.0390848
-0.0598424
-0.0428418
-0.062192
-0.0991744
-0.0618136
-0.093294
0.000101563
-0.0771929
0.0138737
0.00155208
-0.0416936
0.00153982
-0.063748
0.019723
-0.00632186
0.00158774
0.000590448
-0.00179285
0.00119564
0.000468165
-0.00316528
0.00256799
-0.00400516
0.0091754
0.00501268
0.000869872
0.00169708
-0.0296436
-0.0502698
-0.000289574
-0.0652604
-0.00660617
-0.0683511
-0.0553725
0.00119028
-0.0386821
-0.0510634
-0.0486668
-0.0529841
0.00248012
-0.0670734
0.000114827
-0.00528662
-0.0605567
-0.00962962
0.00127315
-0.0110118
-0.00638968
-0.0250395
-0.0441171
-0.00152724
-0.00334608
-0.0229012
-0.0544032
-0.0251833
-0.0479144
0.000510051
-0.00685679
-0.000448283
0.000620202
-0.0105213
-0.00538999
0.00464583
0.00128509
0.000967724
0.00114817
0.000785755
0.00212517
0.000827284
0.00825904
-0.0139428
-0.0544218
-0.0624618
0.000973083
-0.0160276
-0.0475851
-0.00551003
-0.0630782
0.000649809
-0.0601749
0.00883731
-0.0755716
-0.052823
0.00101675
-0.0628873
-0.0441243
-0.0155851
-0.0447793
-0.0174715
-0.00609039
0.00216508
-0.00127577
-0.000661099
-0.0745004
-0.0173511
-0.0581682
0.0208467
0.000508826
-0.00121647
0.0010342
-0.036297
-0.0135271
-0.0578202
0.000450947
0.0010329
0.000248804
0.00112536
-0.0180632
-0.0910094
-0.00298119
-0.0100545
0.000774994
0.00740433
-0.00805082
0.00120513
-0.0443999
-0.0139026
-0.111465
-0.0476409
0.00218599
8.23939e-05
-0.0229342
-0.0550028
-0.0564044
-0.000739066
-0.0550359
6.19531e-05
-0.0089681
-0.0192477
0.00537844
-0.0439397
-0.00897514
-0.0127437
-0.00947961
-0.054936
-0.0811674
-0.0770107
0.00053195
-0.0553749
-0.0577104
0.00172724
0.00430354
0.00219623
-0.0598067
0.00323023
-0.0515277
0.00118167
0.00149597
0.000796458
-0.0108005
-0.0686497
-0.00438981
-0.0563819
-0.00297093
-0.0495278
-0.0571797
0.0133248
-0.00674753
-0.000321666
-0.00516336
-0.0676746
0.0011882
-0.0526563
-0.0517036
-0.0467445
-0.00126054
-0.0532838
0.000718781
-0.0571953
-0.0409471
-0.011722
-0.0313356
-0.00529876
0.00131897
0.00140296
0.00322709
-0.0092162
-0.049691
0.00271747
-0.0169163
0.000750875
-0.0378872
0.00456751
0.00119463
0.000288238
0.00139259
-0.0058296
0.00120077
-0.00756976
-0.0857037
-0.0806607
-0.0502362
0.000598956
0.00143888
-0.0048754
0.00287425
0.000315079
-0.0624781
-0.0669687
-0.0664624
-0.0029226
0.00578054
-0.0263634
-0.0401053
-0.0544395
4.36895e-05
0.00310666
-0.0501897
0.00100223
-0.00705877
0.000144719
-0.0501804
-0.0539252
0.00249948
-0.0467978
-0.0528918
0.00145232
0.00101982
0.000717387
-0.037484
-0.00104797
0.00174478
-0.00966519
-0.0584325
0.00265416
-0.0112679
-0.0386645
0.000377577
-0.00710637
0.0136504
0.00271778
-0.0134691
0.000456797
-0.0489228
-0.0493836
0.00780335
-0.0004092
-0.0269667
-0.0057664
0.00168496
-0.0734007
-0.0461716
-0.000581813
-0.000694251
-0.0358888
-8.93275e-05
-0.0180733
-0.000118005
0.00072783
-3.20839e-05
-0.0304548
-0.0415656
0.00259085
-4.16524e-05
-0.0140599
0.00242765
-0.0678348
-0.0549094
0.00171991
0.00538576
-0.0474729
0.00710106
-0.0565463
-0.000669392
-0.00720251
-0.00961746
0.00677925
-0.0370454
0.000585261
-0.00557108
-0.0450079
0.000705835
-0.00600902
-0.0561244
0.00122813
-0.036041
0.00113033
-0.00221168
-0.105367
0.00111782
-5.90243e-05
0.000428303
0.000947676
-0.0416833
0.000930194
-0.0496243
0.00034788
0.0404033
-0.0502067
0.00172458
0.000845071
0.00124484
0.000675886
-0.00946088
-0.0725807
0.00111602
-0.0665325
0.00205059
-0.0595122
-0.0538317
-0.030966
0.00115945
-0.0432274
0.000776848
0.000785955
-0.00781411
7.93432e-05
5.98637e-05
-0.078554
-0.0599048
-0.0390035
-0.0164025
-0.0504398
-0.00729734
0.000833708
-0.0432403
-0.00538441
-0.0116645
0.000990059
-0.00662828
-0.0573712
-0.0116263
0.000450597
0.00424914
-0.0341468
-0.0807657
-0.00235652
-0.00509424
0.00550492
0.000798344
-0.0727194
0.00100934
-0.00561549
-0.053132
-0.00911107
0.000462602
-0.00143337
-0.0780535
-0.00785099
-0.0171002
-0.0089884
0.00102081
-0.0327202
-0.0070272
-0.0703442
-0.000669506
-0.0505441
0.011673
-0.0010706
0.020377
0.000762814
0.0171125
-0.00336439
0.000938323
-0.0243358
-0.0245513
-0.00158689
-0.0540941
-0.00840318
-0.00122067
-0.0520366
-0.0319147
0.00517336
0.000808577
-0.00955162
-0.0103824
-0.0625269
-0.0286927
-0.0398917
-0.0508047
0.00124664
-0.0670373
-0.0055378
-0.0773973
-0.0536809
0.000853842
-0.0891498
0.000695207
-0.00316309
-0.0569333
0.00108608
-0.0486707
-0.0784678
0.000819289
-0.0272651
0.00170273
-0.0505855
0.000438752
-0.0480073
-0.0522343
-0.00588582
-0.0523188
-0.0134904
7.92115e-05
-0.00345006
0.000115835
-0.0944173
-0.0318727
0.000851213
0.00120519
-0.0665914
-0.0541478
0.000326393
0.00102294
-0.0520836
0.00321631
-0.0616554
-0.0574464
-0.0566165
-0.05426
-0.0673883
0.002026
-0.00731502
-0.05864
0.000532783
0.00110458
0.000644831
-0.0264457
-0.0345738
0.009855
-0.0189625
-0.0458436
-0.0119041
-0.000240251
0.000831977
-0.018243
-0.000780735
-0.00656016
0.0104114
-0.0646565
-0.0580321
0.00114636
0.00304275
-0.0546925
0.0200461
-0.00518654
-0.0431486
-0.0518635
0.00067768
-0.0115343
-0.0658819
0.000860665
0.0129557
-0.0422144
-0.0139051
0.00060629
0.00581347
-0.000443305
-0.00414571
0.00121136
-0.0316956
-0.0242332
-0.00676969
-0.00806827
-0.00539178
-0.00640466
-0.0462817
0.000738758
-0.0559129
-0.00971648
-0.00519796
0.000752098
-0.13527
-0.038405
-0.0522308
-4.54996e-05
-0.00208978
-0.00149109
-0.0652299
-0.00279946
0.0012217
-0.0597406
-0.0136805
0.000648513
0.00474759
0.00545005
-0.000424926
-0.0388468
0.0132554
-0.0490458
-0.00348575
0.00138424
-0.0444752
-0.0525824
-0.0505845
0.000124147
-0.00387295
-0.0549413
0.00121432
0.00122094
-0.0748103
0.00183602
0.00225481
-0.00763549
-0.0551368
0.00119405
-0.0045707
0.000248813
-0.053453
-0.00559525
0.000841623
-0.0258943
-0.0895109
0.0156054
-0.0695135
-0.0733065
-0.0296579
0.000666159
0.00137495
-0.0579079
0.00122817
-0.0271503
-0.0525275
0.000614819
-0.0642919
-0.00534729
0.00111306
0.000875087
-0.000704004
-0.00772204
0.00408688
0.000534903
-0.0115403
0.00469895
0.000628414
-0.0624869
-0.0509188
-0.030972
0.00127385
-0.0308793
-0.0116217
-0.0159587
-0.0591739
0.000975626
-0.0440823
0.00201249
-0.00957968
-0.0680034
-0.0375676
-0.0539299
-0.00112966
0.000141795
0.000588731
0.000883512
0.00277366
-0.0523463
-0.0463734
0.00545765
0.000543396
-0.0574136
-0.0649165
0.000749677
-0.0019435
-1.9724e-05
-0.0314052
-0.000504265
-0.0535218
0.000595192
-0.0560925
0.00110485
-0.00514707
-0.0543295
-0.115918
0.00316532
0.000804766
-0.0754391
-0.128808
0.00113619
-0.00342446
-0.0517638
0.00451983
-0.000744322
-0.000367122
-0.014283
-0.0052524
-0.000333176
-0.06093
0.00462603
0.00108922
0.000493356
0.00121529
0.000829377
-0.0241306
-0.0763553
-0.0650628
0.00280838
0.000612884
-0.0100289
-0.0567023
-0.0584807
-0.0785479
0.002262
-0.00719882
0.00105411
0.000317717
-0.00154851
-0.0226773
-0.0134162
0.0011174
-0.0153551
-0.0612442
-0.0719459
-0.00554079
-0.00349307
-0.0186202
0.000981935
-0.00106705
-0.013742
-0.0305883
-0.0367893
-0.0756634
-0.00512272
0.000834637
-0.0178199
-0.00619896
-0.0890267
-0.0411845
-0.00329634
0.00176195
-0.0292382
0.00118937
0.000964389
-0.0646684
0.00122298
-0.0545996
0.000671102
-0.00596627
-0.00547761
-0.136293
8.90935e-05
-0.131688
-0.000261492
-0.0686586
0.00104252
-3.88807e-05
-0.00610707
0.00269994
-0.00932188
-0.000599022
-0.00745908
0.000604495
-0.0543799
-0.0648796
0.000211851
-0.0383421
-0.0334455
0.00468321
0.0212438
0.00154448
-0.077964
-0.00271774
0.0013239
-0.10421
0.00978486
0.000532961
-0.0500079
-0.0301975
0.000628071
-0.0224161
0.000639568
-0.0146275
-0.00773046
-0.0553288
0.00109685
-0.0167912
-0.0232908
0.000931366
0.00163028
0.000737509
0.00123691
-0.0106575
0.00619659
-0.00781158
-0.07744
0.00110835
-0.0173386
-0.0135677
-0.0162103
0.000671428
-0.00131419
0.000687758
0.018126
0.000969239
-0.00149264
-0.000100048
-0.0548137
-0.00471513
0.0139087
0.0076873
0.00541324
-0.00737582
-0.0609045
0.0136415
0.00122618
-0.0115849
0.00243824
0.00074368
0.00112178
0.00193702
-0.00541434
0.00888348
0.00246738
-0.00967669
-0.0490391
-0.0149621
-0.0597834
-0.000563275
0.00476598
-0.0141925
0.00120576
0.00019575
0.00174765
-0.00629354
-0.053812
0.00792346
-0.0023229
-0.0321315
-0.00699394
-0.0331445
-0.0103559
-0.0551894
-0.0199467
-0.000947464
-0.0156794
-0.0165897
0.000109803
-0.0188511
-0.00147644
0.00123702
0.00936544
-0.0552608
-0.00289867
8.68972e-05
-0.0042171
0.00100198
-0.097423
-0.0537873
0.000584993
-0.0113361
-0.00176865
-0.0108374
-0.0625542
-0.0549397
0.000975639
0.00118823
0.00279418
-0.0150523
0.000605848
-0.018565
-0.00203429
-0.0260854
0.00053237
-0.0342764
0.00072903
-0.0176271
0.000738509
-0.060173
0.0011948
0.00232095
-0.00169489
-0.00161972
0.000625859
-0.000910933
-0.0928133
-0.0265174
0.00393988
-0.00143814
-0.0787355
-0.027837
0.00354894
4.18518e-05
-0.0662863
-0.0366498
-0.0571496
-0.00470904
-0.0160828
-0.071058
-0.00465411
0.00100513
0.00270115
0.000927235
0.00167011
-0.0159119
-0.0648618
-0.0374067
-0.0633415
-0.0567027
-0.00465051
-0.0322274
-0.0664929
0.00124399
-0.0151179
0.000929542
-0.0539827
-0.00343748
0.00101862
-0.00712228
0.00074753
-0.00351838
-0.00516799
-0.0811544
-0.00475997
-0.0293355
-0.0551482
-0.0544964
-0.00566622
0.00511594
-0.0495677
-0.0117758
-0.119061
0.00110014
0.00166228
-0.00146739
-0.0211426
0.000646654
-0.0474353
-0.0539818
0.000820896
-0.0423712
-0.027642
0.000919476
-0.0601547
-0.0462652
-0.0628378
-0.0186034
-0.00685132
0.00139283
-7.5755e-05
-0.0206944
0.00127517
0.0028258
-0.0166256
-0.00788943
0.003404
-0.00182546
0.00060974
-0.00419319
-0.00987967
-0.0468863
-0.0084814
0.00488368
-0.0555561
-0.0336936
-0.00852371
0.000891824
-0.00345032
0.001274
0.00135805
-0.0462231
0.000668837
0.00101556
-0.00376684
-0.00231036
0.00101304
-0.000200309
-0.0139725
0.00209806
0.00135902
-0.000783016
-0.0117243
-0.00517338
-0.0588524
-0.017985
0.0010203
0.000755368
-0.0246057
0.023724
-0.0432509
-0.0579779
-0.0611946
-0.0403554
-0.0206135
-0.0152393
-0.102944
-0.00693858
-0.00355536
-0.0110873
-0.00913613
-0.0108352
0.0092789
-0.0495247
-0.000632621
0.000893629
-0.0125733
-0.0337164
-0.00338134
-0.0557908
-0.0473212
-0.00680645
0.0013842
0.00159321
0.00270158
3.25797e-05
0.00101725
0.000692208
-0.0515961
-0.0511667
-0.0577411
-0.00392254
0.000174946
-0.0500481
0.0253957
-0.0476481
-0.0573419
-0.0593251
-0.0577371
0.000868404
-0.0154132
-0.0037373
-0.0560794
0.000572863
-0.135959
-0.0104924
-0.0444207
0.00137437
-0.0424744
-0.0614253
-0.0554732
0.00111787
0.00220113
0.00174231
-0.0402155
0.000989717
-0.00650599
-0.00970082
-0.0676729
-0.0111872
0.0231232
1.15622e-06
-0.049725
-0.0148786
-0.0481814
0.00681955
0.00289213
-0.134831
-0.0409279
-0.0895346
-0.002995
-0.115886
-0.000898365
0.00063841
-0.0474974
0.00346554
0.000685226
-0.0255948
-0.0211358
-0.0127791
0.000182457
-0.00165637
-0.00770527
-0.0293472
0.0028723
-0.000924694
0.00327572
-0.00112135
-0.100701
-0.065859
0.00127813
-0.0100051
0.00942889
-0.00269587
-0.0690423
-0.0620923
0.000329556
0.00311858
-0.0028564
-0.0225302
0.00316105
0.00109819
-0.00136107
-0.0707574
0.00132466
-0.0690841
0.00119752
-0.00806445
-0.0388471
0.00248584
-0.10119
-0.0112759
0.000627321
-0.0575176
-0.0143689
0.0151839
0.000716223