/*--------------------------------*- C++ -*----------------------------------*\
| =========                 |                                                 |
| \\      /  F ield         | OpenFOAM: The Open Source CFD Toolbox           |
|  \\    /   O peration     | Version:  v2012                                 |
|   \\  /    A nd           | Website:  www.openfoam.com                      |
|    \\/     M anipulation  |                                                 |
\*---------------------------------------------------------------------------*/
FoamFile
{
    version     2.0;
    format      ascii;
    class       volVectorField;
    location    "400";
    object      U;
}
// * * * * * * * * * * * * * * * * * * * * * * * * * * * * * * * * * * * * * //

dimensions      [0 1 -1 0 0 0 0];


internalField   nonuniform List<vector> 
37190
(
(1.02628 -0.020536 -8.17871e-22)
(1.00224 2.25191e-05 -9.30426e-23)
(1.01978 -0.0032955 0)
(1.01386 -0.00348267 0)
(0.950188 -0.0305898 0)
(1.02135 -0.00971165 1.37909e-21)
(1.05776 -0.029611 -4.929e-21)
(1.01017 -0.0218989 -4.84403e-22)
(1.00905 5.35029e-05 0)
(0.409355 0.00630547 2.49262e-23)
(0.309756 -0.00215307 -5.64212e-21)
(0.726526 -0.130049 -6.57484e-22)
(1.07674 -0.0606573 1.00303e-20)
(1.04549 -0.00789277 5.19798e-22)
(0.242838 -0.00581774 -1.17791e-20)
(0.895992 -0.117272 0)
(1.01981 -0.00320638 8.10595e-22)
(0.961068 0.0331787 -8.20531e-21)
(1.00839 -0.00112383 -1.1917e-23)
(1.0412 -0.0154904 2.94119e-21)
(1.05084 -0.0264285 -3.46515e-21)
(0.838547 0.032352 4.08807e-21)
(1.01784 -0.00725774 9.70527e-22)
(0.191956 0.0671972 0)
(0.956961 -0.034457 0)
(1.0016 -1.91743e-05 -1.35636e-22)
(0.454525 -0.0387404 -2.9678e-21)
(1.06016 -0.0104654 -8.94151e-21)
(0.303386 -0.00382541 0)
(1.02786 -0.000534152 8.44887e-22)
(1.07248 0.0146408 6.49435e-24)
(1.0226 -0.0153772 -7.19139e-22)
(1.01684 -0.011923 1.7735e-22)
(1.01776 -0.0613934 0)
(1.01634 -0.0121749 0)
(0.871954 0.122684 -6.77479e-22)
(0.459138 -0.0405311 8.58652e-21)
(0.677306 -0.138733 4.88356e-22)
(1.00827 -0.00107203 1.11201e-23)
(1.03086 -0.0212142 0)
(0.873975 -0.00867507 0)
(1.01142 0.000756366 -8.11116e-24)
(0.893449 -0.10845 -7.92611e-22)
(1.02266 -0.0151516 0)
(0.336877 -0.0206241 -3.68107e-21)
(0.919618 -0.0103079 -1.58101e-21)
(0.339029 -0.0219104 1.01641e-20)
(0.678338 -0.132968 0)
(1.00964 0.000439858 -1.52855e-22)
(1.03736 -0.02895 -4.57201e-21)
(1.01738 -0.00071247 -1.92229e-22)
(1.00762 0.00031055 1.40816e-23)
(1.03203 -0.00509855 -1.13232e-21)
(1.07151 -0.021953 0)
(1.01708 -0.00887987 2.15666e-22)
(1.00373 -0.0446406 0)
(1.00776 0.000326119 2.71086e-24)
(1.02148 -0.0148003 0)
(1.01929 0.0341886 6.96403e-24)
(1.07226 0.0073523 0)
(1.0121 -0.0224853 9.92766e-22)
(0.264326 -0.00895398 5.20838e-21)
(1.05167 -0.0267244 -1.99877e-21)
(1.00093 2.36453e-05 1.33735e-22)
(-0.0174997 -0.0845154 2.2066e-20)
(0.641217 -0.115263 -7.08882e-21)
(0.904322 0.115939 0)
(0.511869 -0.0405836 0)
(-0.0888199 0.13946 1.44499e-20)
(0.514548 -0.0245465 6.32525e-21)
(1.00826 -0.00105269 0)
(1.01949 -0.0497345 0)
(1.01614 -0.0135726 0)
(1.01774 -0.00710738 0)
(1.01486 -0.00170962 4.91728e-23)
(1.01398 -0.0152302 4.33855e-22)
(0.21557 -0.0470432 9.0792e-21)
(0.824106 -0.061127 -5.61619e-21)
(1.01691 -0.0111968 0)
(0.842712 -0.0652192 0)
(0.352306 -0.0217009 1.0944e-20)
(1.01417 -0.00327675 6.97824e-24)
(0.556722 -0.032979 0)
(1.01855 0.00398265 -5.43636e-23)
(0.419366 -0.00556164 -3.12557e-21)
(1.02749 -0.0323373 -7.64422e-22)
(0.994631 -0.0656331 8.62094e-21)
(0.899945 -0.0151151 1.63466e-21)
(1.05811 -0.0303969 0)
(0.841898 0.0272716 1.44271e-22)
(1.00837 -0.00116689 0)
(0.346263 -0.00419928 0)
(1.0167 -0.012278 -2.25167e-22)
(1.00255 1.56342e-05 0)
(1.02593 -0.0447875 0)
(0.894989 -0.18694 0)
(1.04124 -0.0161754 -5.14114e-21)
(0.687989 -0.10887 -6.50468e-21)
(0.677505 0.139731 4.39122e-21)
(1.01465 -0.00162078 0)
(0.340479 -0.103092 6.13877e-22)
(1.00601 -0.045964 -4.42183e-23)
(1.03409 -0.00234363 4.26088e-21)
(1.0064 0.000149075 6.77665e-23)
(0.293256 -0.00357546 2.9868e-21)
(1.00172 2.14194e-05 0)
(1.02313 -0.0136546 3.56357e-21)
(0.25285 0.00399672 1.53185e-23)
(0.473636 0.158418 -1.02827e-20)
(1.02163 -0.0111051 4.00483e-22)
(0.838098 0.0810091 -2.60666e-21)
(1.01473 -0.00358416 1.97231e-22)
(1.01398 -0.00314229 7.13029e-22)
(1.01468 -0.00368011 4.7654e-22)
(1.01742 -0.0475835 1.34084e-22)
(1.01391 -0.00360059 8.35577e-22)
(0.362194 -0.0239021 -1.27465e-20)
(1.0199 -0.0659399 7.72235e-21)
(1.03709 -0.0274543 -6.91914e-22)
(1.04871 -0.0137838 0)
(0.994933 -0.0421748 0)
(0.854338 -0.0619095 -4.669e-21)
(1.03243 -0.00101629 -4.3667e-21)
(1.01777 -0.000926571 1.79647e-22)
(0.142065 -0.0425172 6.18322e-21)
(1.0494 -0.0286264 0)
(0.372692 -0.00715565 3.60087e-21)
(1.0329 -0.000855559 3.52254e-21)
(0.331789 -0.00272605 0)
(0.350355 -0.0980349 -5.10185e-23)
(0.433711 -0.0382329 3.54942e-21)
(1.01232 -0.000736611 5.34387e-22)
(1.00212 3.93696e-05 0)
(1.06384 -0.0707326 -2.94839e-22)
(1.00362 -5.73363e-05 0)
(1.04336 -0.0225058 -1.07995e-21)
(1.0139 -0.00165293 -2.76176e-22)
(1.00646 0.0500576 -6.00553e-23)
(1.00813 -0.114315 -5.67228e-23)
(0.942502 -0.0378173 2.69037e-21)
(0.692321 -0.0471278 5.67192e-23)
(0.992314 -0.0404863 0)
(1.03365 0.00405765 0)
(0.882728 -0.188476 0)
(1.04215 -0.0170836 0)
(1.01419 -0.00040917 2.321e-22)
(1.04926 -0.0133834 0)
(1.05862 -0.0130995 6.05334e-21)
(1.01395 -0.00031795 -1.3247e-22)
(0.505158 -0.0223805 -3.59307e-21)
(1.0229 -0.0136579 -2.22951e-21)
(1.00296 6.38512e-06 6.35833e-25)
(1.00667 0.000178054 -4.19369e-23)
(1.07095 -0.0306565 2.36118e-21)
(0.273612 -0.0104371 0)
(1.01731 -0.00656837 0)
(-0.0844244 0.143712 -6.68172e-21)
(1.01961 -0.000103158 0)
(1.02176 -0.0298481 0)
(0.000405366 -0.106044 0)
(1.02022 -0.0142158 -3.3076e-22)
(1.03743 -0.0255505 5.42792e-21)
(1.01759 -0.00859983 0)
(1.01674 -0.0114633 0)
(-0.0870294 0.140648 9.66302e-21)
(1.04904 -0.0145247 -2.87658e-21)
(0.357498 0.00409807 -3.32408e-21)
(0.398287 -0.00454017 -1.04691e-20)
(1.03768 -0.0279145 0)
(0.767706 -0.0536015 0)
(0.135226 -0.0408151 0)
(1.00899 5.83939e-05 0)
(1.03676 0.00218298 2.06625e-23)
(1.01055 -0.000842782 -3.09243e-22)
(0.394201 0.00434393 -1.40222e-20)
(-0.00689677 -0.0497968 4.46936e-21)
(1.0699 -0.0585878 5.10505e-21)
(1.04868 -0.0505146 2.06816e-21)
(1.03555 -0.00662102 -2.4755e-21)
(0.399881 0.00425042 -1.52101e-20)
(1.07051 -0.031106 -2.82174e-21)
(1.01305 -0.0545121 7.91966e-22)
(0.809026 0.0530708 -3.47781e-21)
(0.530413 -0.0220005 -3.90765e-21)
(1.05021 -0.0284528 -7.13021e-21)
(-0.00995385 0.0324298 0)
(1.02212 -0.0129791 0)
(0.399307 0.00439074 6.55592e-21)
(0.585908 -0.12699 -2.0473e-22)
(1.06047 -0.0418902 -4.08187e-21)
(1.01373 -0.000229163 2.78396e-22)
(1.07345 -0.0610893 5.67212e-21)
(1.01531 -0.0547125 -6.48257e-22)
(1.03482 -0.00689407 4.9524e-21)
(1.01354 -0.000171034 0)
(0.572794 -0.0354043 5.1715e-21)
(0.558557 -0.0406618 -2.52195e-21)
(0.488638 -0.139591 -8.88056e-22)
(0.756723 -0.0447258 0)
(1.01832 -0.000570399 3.28711e-22)
(1.00135 9.42588e-06 0)
(1.07607 -0.0507276 7.59014e-21)
(1.02155 -0.0124682 1.16794e-21)
(1.01942 -0.00883533 8.49154e-24)
(0.67323 -0.160332 -1.77299e-22)
(1.06315 -0.00937744 6.30323e-22)
(1.01266 -0.00132377 -1.10735e-21)
(1.01988 -9.74639e-05 0)
(0.335001 -0.00468782 -1.22989e-20)
(1.05964 -0.0415868 0)
(1.02133 -0.0124648 -5.22276e-22)
(1.01269 -0.00158232 -1.36128e-21)
(0.948168 -0.159384 0)
(1.03445 -0.0144569 3.16894e-21)
(0.86407 -0.0663239 0)
(1.05213 -0.00988619 5.7608e-21)
(1.01252 -0.0010724 -1.09257e-21)
(1.02195 -0.0127684 2.69616e-23)
(0.232644 -0.0228228 1.10568e-20)
(1.01256 -0.00125077 9.37865e-22)
(1.06104 -0.0105211 7.06808e-21)
(1.01311 -0.00220394 1.9762e-21)
(0.630133 -0.121344 5.29927e-21)
(0.212707 -0.000981693 5.64142e-21)
(-0.082181 0.147348 7.74612e-21)
(0.939996 -0.105332 0)
(1.07362 -0.0604645 1.07442e-21)
(0.54954 -0.0349145 3.68784e-21)
(1.0357 -0.00111665 -1.69963e-21)
(0.478774 -0.0168384 3.84626e-21)
(0.28194 0.00602957 -9.80324e-21)
(1.0139 -0.00167786 1.86366e-24)
(1.0067 0.000182174 4.76567e-23)
(1.00354 -5.52429e-05 -9.34624e-23)
(1.01259 -0.00150967 1.12012e-21)
(1.01617 -0.0125364 -4.1386e-23)
(0.74184 -0.0425873 0)
(1.00775 0.000351406 3.72901e-23)
(1.01728 -0.000693588 -6.69384e-22)
(1.07048 -0.0454772 0)
(1.01335 -9.13091e-05 -8.55683e-24)
(0.348706 0.00291463 -5.83561e-21)
(1.07053 -0.0219128 -3.83718e-21)
(1.00667 0.000172948 0)
(0.430733 -0.00479163 -2.59804e-21)
(-0.00169598 0.0154529 -7.51305e-21)
(1.01231 -0.000990311 1.29903e-21)
(1.02725 -0.0331679 -1.98093e-22)
(0.0533548 0.0120392 7.94949e-21)
(1.01728 -0.00045499 1.2696e-21)
(1.04636 -0.0184849 -2.31765e-21)
(1.01115 -0.00236183 5.00618e-22)
(1.06997 -0.0466352 0)
(1.0485 -0.0149216 0)
(1.01316 -3.40859e-05 -2.35056e-22)
(1.05917 -0.0125792 -2.6921e-21)
(1.01154 -0.000245812 2.74458e-22)
(1.01929 -0.00945251 -1.00724e-21)
(1.02437 -0.0440768 -1.36201e-21)
(1.00679 0.000183322 -4.23176e-23)
(0.951257 -0.154441 -1.43496e-23)
(0.242392 -0.0049843 0)
(1.00792 -0.011547 6.87153e-22)
(1.00738 0.000270788 0)
(0.887261 -0.184575 0)
(1.04172 -0.0241495 3.56062e-21)
(1.02128 -0.00313834 0)
(1.03488 0.0121816 2.63114e-23)
(1.0132 0.000401152 -1.08708e-24)
(1.01305 -0.0362604 2.42228e-22)
(1.0138 -0.00568777 1.05035e-22)
(1.03584 -0.000842569 -5.5067e-21)
(0.843584 0.124084 -7.43696e-22)
(0.375966 0.00249066 1.06083e-21)
(1.0162 -0.0594769 -7.63737e-22)
(0.389621 0.00398835 1.95704e-21)
(1.02666 -0.0460641 0)
(1.02262 -0.0132489 -1.32647e-21)
(0.381951 0.00324121 1.48337e-20)
(1.00726 0.000209807 -2.70763e-22)
(1.01344 0.000445771 0)
(1.06124 -0.0535818 -4.14904e-21)
(1.02662 -0.0205093 0)
(1.00768 0.000343865 0)
(0.581195 -0.0439793 0)
(1.01299 -0.00212809 -1.3907e-21)
(1.00398 -8.39928e-05 5.46152e-23)
(1.0478 -0.0497493 0)
(0.93439 -0.0341648 -2.76254e-21)
(1.01896 -0.0180677 0)
(1.03799 -0.0258227 -6.12158e-21)
(1.03503 -0.0146969 -4.96185e-21)
(1.0135 -0.0259805 0)
(0.530715 -0.0324805 -4.48186e-21)
(1.00782 0.000173066 1.07996e-22)
(0.383537 -0.00148425 1.04437e-20)
(1.00795 -0.000953292 -8.12236e-24)
(1.01268 -0.000515531 0)
(0.381347 0.00603684 6.91901e-21)
(1.00325 3.78617e-05 1.74726e-24)
(1.01175 -0.0256527 0)
(0.800612 -0.00535418 1.05151e-21)
(0.877221 -0.182279 6.70512e-22)
(0.525036 -0.0312702 0)
(1.01771 -0.00912135 8.4419e-23)
(1.02503 -0.00284574 0)
(0.309254 -0.095666 8.36123e-22)
(1.02318 -0.00261765 -2.3316e-23)
(0.328766 -0.0202894 0)
(0.760159 -0.0511505 0)
(-0.0225435 -0.0808631 -8.14977e-21)
(0.573601 -0.0416874 -1.37568e-22)
(0.384531 -0.00972988 5.78198e-21)
(0.749794 0.0316933 7.71693e-22)
(1.01159 -0.00389306 -2.27837e-22)
(1.01204 -0.00495636 2.33091e-22)
(1.02305 -0.00947056 -2.12052e-23)
(1.0137 -0.000596478 0)
(-0.0921176 0.118779 -4.40344e-21)
(1.02239 -0.0132515 1.23408e-21)
(0.527412 -0.0409102 -3.39525e-23)
(0.576743 -0.0450672 0)
(1.02195 0.000164883 2.13827e-21)
(1.03654 -0.0352476 0)
(0.939532 -0.100413 0)
(1.06126 -0.0182841 0)
(1.03782 -0.0284899 3.47764e-21)
(0.518194 -0.0415829 8.233e-21)
(0.34604 0.00408629 1.62506e-20)
(1.01343 0.000408768 -3.01467e-22)
(0.879445 -0.149922 0)
(4.90129e-05 -0.0782028 1.16411e-20)
(0.105026 0.0313788 -8.23162e-21)
(0.836918 -0.0654124 0)
(1.03195 -0.00535548 1.28081e-21)
(1.01367 0.000438983 2.60782e-22)
(1.02108 -0.00313151 5.04065e-22)
(1.00676 -0.000344406 0)
(1.01731 -0.00211526 -3.01769e-22)
(1.01996 -0.000130317 -1.01242e-21)
(0.891605 -0.0972503 3.79051e-22)
(1.01751 -0.00674587 0)
(0.334923 0.192465 -3.20746e-21)
(1.03146 -0.00538043 0)
(0.454494 -0.0450631 0)
(1.02585 -0.00444315 0)
(0.396591 -0.0125762 0)
(1.01215 0.000298578 1.6523e-22)
(0.888348 -0.0856 0)
(0.513819 -0.0425977 2.4273e-21)
(0.99985 0.0515246 -1.97021e-23)
(1.00481 0.00456992 4.43121e-22)
(1.03481 -0.02054 0)
(1.00744 0.000278425 6.81322e-25)
(1.05099 -0.0582732 5.57171e-21)
(0.966767 0.00310113 1.06751e-21)
(1.00864 -0.001285 1.95327e-23)
(1.012 0.000304433 -3.50411e-23)
(0.445481 -0.0392941 3.55391e-23)
(0.197458 0.0581865 0)
(0.440402 -0.0381939 -2.78468e-24)
(0.481741 -0.0183792 0)
(0.825888 0.174883 1.29273e-23)
(0.325985 -0.019355 0)
(0.310573 -0.0182205 -1.31167e-20)
(0.544203 -0.0313512 0)
(1.03609 -0.00671151 0)
(0.337858 0.0338759 5.59461e-21)
(1.0077 0.000180318 -2.18321e-22)
(-0.0145219 -0.08237 -2.90081e-20)
(1.03135 -0.00558426 0)
(0.893349 0.0654195 4.32448e-22)
(1.07447 -0.0608488 -4.80261e-21)
(-0.0571276 -0.015202 -9.4672e-21)
(1.01811 0.00418824 0)
(1.00648 0.000158045 6.23595e-24)
(0.697089 -0.0459303 -4.50158e-21)
(0.00141779 -0.10854 2.94228e-21)
(0.346538 -0.101083 4.07029e-22)
(1.02003 -0.0158391 -2.20448e-23)
(1.01645 -0.00789904 3.88686e-23)
(0.191629 -0.00107031 0)
(1.02159 -0.000621351 -1.80146e-21)
(0.926859 -0.149784 0)
(1.03846 0.0194111 -4.27968e-23)
(0.111235 -0.02099 8.41714e-21)
(1.01514 -0.000636582 7.36904e-23)
(1.01168 0.000403594 -8.9179e-23)
(1.016 0.00181388 -2.47685e-23)
(1.06218 -0.0665337 1.23722e-20)
(1.0713 -0.0597045 0)
(0.529654 -0.136791 -9.79007e-22)
(1.01671 -0.0081995 0)
(1.00944 0.000431634 2.11634e-22)
(0.391861 -0.0176952 0)
(1.0348 0.0233552 -7.29407e-24)
(-0.00455209 0.0274731 0)
(0.471265 -0.036354 -1.06906e-20)
(0.257893 -0.00253462 0)
(1.00929 1.66004e-05 6.37188e-23)
(0.389288 -0.00651415 4.07823e-21)
(0.532351 -0.0280721 1.11556e-21)
(1.01408 0.00108712 9.85592e-24)
(0.354071 0.00464076 -5.23799e-21)
(0.85546 -0.0659393 -5.61908e-21)
(1.01626 0.001792 2.90452e-23)
(1.06838 -0.0631519 -1.47131e-20)
(1.05329 -0.06669 -1.2969e-20)
(0.300317 -0.0166378 8.75983e-21)
(1.0094 -0.00103794 -1.85646e-22)
(1.03535 -0.00696142 -5.04577e-21)
(1.03448 -0.0202149 -6.20991e-23)
(1.01564 -0.00716186 -1.69587e-22)
(0.305857 0.00459512 0)
(1.06848 -0.0378233 0)
(0.770419 -0.0533696 0)
(1.01152 -0.0260177 0)
(1.01653 -0.00805843 -9.93583e-23)
(-0.00445928 -0.0353344 9.12137e-21)
(1.02278 -0.00923406 0)
(1.01109 0.000386646 0)
(0.898632 0.06489 -1.64025e-23)
(0.993518 -0.00788045 1.11946e-21)
(1.03697 -0.0346042 -1.97218e-21)
(1.029 -0.000126131 0)
(1.00718 0.000275292 -4.76792e-24)
(1.01169 0.000428192 -3.22971e-22)
(1.0018 6.05374e-07 0)
(-0.00500039 -0.015606 -4.62283e-21)
(0.229728 -0.00304731 8.74737e-21)
(1.00723 0.000274161 0)
(1.01228 -0.000210333 0)
(1.0094 -0.00124429 0)
(1.02396 0.0323593 -6.91828e-23)
(0.401295 -0.0196006 -1.66617e-21)
(1.03582 -0.00196689 0)
(1.06906 -0.0225198 0)
(1.01549 -0.0069792 1.5927e-22)
(1.07001 -0.0226698 0)
(0.125478 0.161123 0)
(1.01824 -0.000500452 -1.69839e-21)
(1.01906 -0.00999737 0)
(0.897042 -0.0669569 2.38422e-21)
(1.00966 0.00215147 -7.72524e-22)
(0.26589 0.00530268 6.37121e-21)
(0.400097 -0.00922652 5.13406e-22)
(-0.00213922 -0.0750099 -1.14485e-20)
(1.0762 -0.0512517 9.31942e-21)
(1.01631 -0.0140684 0)
(1.05054 -0.0185139 0)
(0.386192 0.00273644 1.83733e-20)
(0.898925 -0.008021 -1.03667e-21)
(1.0815 -0.037993 -1.45968e-20)
(1.04932 -0.016909 0)
(0.406063 -0.0141544 1.98805e-21)
(0.346269 -0.0999805 -8.5707e-22)
(1.01136 -0.000239935 -2.67362e-22)
(1.01983 -4.38452e-05 0)
(1.01247 0.000237462 -1.40421e-23)
(-0.0102062 -0.0946204 -3.13109e-20)
(1.00775 0.000203949 -9.66304e-23)
(1.07775 -0.0464082 9.18484e-21)
(0.580274 -0.0435891 0)
(1.02018 -0.0114297 -5.60205e-22)
(1.07826 -0.046881 -1.11949e-20)
(1.01227 0.000246876 -3.72932e-22)
(0.850874 0.0397155 1.23787e-21)
(1.08625 -0.0402659 -2.79154e-21)
(1.01714 -0.00261558 0)
(0.829779 -0.13503 4.29575e-22)
(1.01911 -0.00987032 0)
(1.03163 -0.000277541 0)
(0.913881 -0.0418545 -1.37068e-21)
(1.02131 -0.0144625 0)
(1.07677 -0.0603917 -5.20258e-21)
(0.866895 -0.152794 3.67358e-23)
(1.03566 -0.00229452 -4.35753e-23)
(1.06033 -0.0533727 0)
(1.02909 9.69726e-05 3.22017e-21)
(1.02717 -0.0157599 -2.39035e-22)
(0.337851 0.190116 0)
(1.03363 -0.00212894 0)
(1.01262 0.000170365 -7.06708e-23)
(0.968552 -0.00400725 9.882e-22)
(1.00723 -0.0339869 6.58724e-22)
(1.07127 -0.0375746 0)
(0.780337 -0.0547202 0)
(1.05263 -0.0103931 0)
(-0.0749944 -0.0565539 -9.73947e-21)
(1.01706 -0.00251071 0)
(1.07199 -0.0602142 0)
(0.573112 -0.0156736 1.49554e-21)
(1.01144 -0.0348122 0)
(1.00938 -0.000146077 -2.33565e-22)
(1.08079 -0.038207 1.53356e-20)
(1.01347 -0.0049795 -5.57797e-22)
(1.01892 -0.00322942 0)
(1.02201 -0.0157482 1.94106e-23)
(1.02138 -0.0103888 1.55998e-21)
(1.01278 -0.114402 -4.45849e-22)
(0.887757 -0.0684561 -1.13326e-21)
(0.876368 0.129268 0)
(-0.0936464 0.124503 1.32933e-20)
(0.397914 -0.0808153 1.39727e-21)
(1.01456 -0.00315892 3.73249e-22)
(1.01701 -0.00873945 -6.86729e-23)
(1.01448 -0.0030808 -1.07881e-22)
(1.0154 -0.000377665 0)
(1.04472 -0.0171526 -4.94172e-22)
(1.02111 -0.0122169 5.55988e-22)
(0.823544 -0.127859 -8.29634e-22)
(1.01075 -0.000849906 1.23776e-22)
(1.01685 -0.00193838 -1.11684e-21)
(1.00915 -0.0192746 -1.09732e-21)
(0.317838 0.00519826 0)
(1.02763 -0.01333 2.67076e-22)
(0.443519 -0.018382 -5.64652e-21)
(1.02002 -0.0111757 0)
(1.02896 -0.00118476 -3.99954e-21)
(0.338933 -0.105779 -9.52904e-22)
(1.03581 -0.0206507 -2.36495e-21)
(0.319829 0.191056 0)
(1.06717 -0.0380924 7.25595e-21)
(1.04979 -0.0325581 1.75087e-21)
(1.02678 -0.000824242 0)
(0.883951 -0.052419 1.54379e-21)
(1.02575 -0.0302345 -5.8374e-22)
(0.559801 0.122975 1.32368e-22)
(1.01851 -0.0177977 0)
(1.01921 -0.0103998 0)
(1.00944 -0.000135855 3.43292e-22)
(1.06163 -0.0542737 4.52291e-21)
(1.04562 -0.0182046 -2.17613e-21)
(1.02163 -0.0104485 -4.80096e-23)
(0.826323 0.0760728 -3.81441e-21)
(1.01297 -0.00195516 -1.43228e-21)
(1.02835 -1.17006e-05 -1.11019e-22)
(0.866081 0.157475 -3.04972e-23)
(0.756075 0.0475985 0)
(1.02689 -0.0179087 9.81883e-23)
(1.01893 -0.00404735 0)
(1.0605 -0.0174801 4.08816e-24)
(1.02777 -0.0306491 0)
(-0.0111467 -0.0842069 6.48722e-21)
(1.02512 0.00931289 -4.59659e-24)
(0.399367 -0.0113205 7.49415e-21)
(0.717931 -0.131061 0)
(1.02158 -0.00974324 8.33493e-22)
(1.01029 -0.00242146 0)
(1.0108 0.000211357 0)
(0.386543 -0.0104822 -4.27441e-21)
(0.940016 0.0827122 1.35883e-23)
(0.901392 0.101997 -1.01029e-21)
(1.00785 0.000334174 -3.7306e-24)
(0.28032 -0.00247508 2.8576e-21)
(1.02902 -0.000963328 -3.38475e-22)
(1.04226 -0.0231892 0)
(0.459268 0.163373 0)
(1.01512 -0.0116864 1.60316e-22)
(0.486454 0.128729 0)
(0.904074 0.111828 7.38725e-22)
(-0.053753 -0.0160905 1.37844e-20)
(1.01287 -0.00189073 2.07155e-21)
(1.02093 -0.0119398 1.07775e-21)
(1.07067 -0.0596537 -5.34893e-24)
(1.05499 -0.0728001 4.75837e-22)
(0.507361 -0.0423552 -8.81622e-21)
(0.489052 -0.0382293 -1.37767e-21)
(1.0019 2.11063e-05 6.58026e-23)
(0.578177 -0.0368194 -6.16506e-22)
(0.937741 0.0737296 -9.45589e-24)
(1.03348 0.00676003 0)
(1.01125 -0.000536946 0)
(0.754733 -0.127631 0)
(0.152216 0.0965243 -1.71367e-20)
(0.509974 -0.0388032 -5.68577e-21)
(0.0246033 0.0154402 -4.36424e-20)
(1.00721 -0.000585542 -8.97434e-24)
(1.01053 -0.0174472 0)
(1.06027 -0.0238259 -6.76356e-22)
(1.01366 0.000383671 1.7904e-22)
(1.02891 -0.0199299 -1.4218e-21)
(1.026 -0.0203288 9.92047e-22)
(1.03592 -0.00138992 0)
(-0.00773329 0.0148195 0)
(0.919126 0.107093 -1.1388e-22)
(0.902166 0.140824 1.07136e-21)
(0.91893 0.0350308 4.82572e-22)
(1.03119 -0.0216706 0)
(1.07837 -0.0394629 4.21039e-21)
(0.934114 0.0463468 -2.30869e-21)
(1.00701 -0.000348399 0)
(0.195272 0.104506 -1.30913e-20)
(1.0115 -0.00328221 -3.10119e-22)
(0.902596 0.11613 7.50517e-23)
(1.03466 -0.0917165 0)
(1.05569 -0.0210581 -2.78255e-23)
(0.926082 -0.0619022 4.83755e-21)
(1.01992 -0.0167173 1.10122e-22)
(1.02052 -0.00641474 -1.90997e-21)
(1.03202 -0.000813006 3.1663e-21)
(1.0304 -0.0210792 0)
(1.01356 -0.000804281 0)
(0.386745 -0.0841798 -1.7418e-21)
(1.06801 -0.0382836 -5.33939e-21)
(1.07113 -0.0452561 0)
(1.01182 -0.000237784 1.7247e-22)
(0.50854 -0.0228259 -1.86976e-21)
(0.861467 -0.009821 -2.01621e-22)
(1.0275 -0.000637897 2.25028e-21)
(1.00702 -0.000373982 7.68721e-23)
(0.414743 -0.00958814 -4.36458e-21)
(1.01726 -0.000493079 -2.87141e-21)
(1.00181 4.91328e-06 0)
(1.04915 -0.0186908 -1.48573e-21)
(-0.0428678 -0.0294417 3.18359e-21)
(1.02032 -0.00628204 -9.44948e-22)
(0.889504 0.151492 4.40816e-22)
(1.00713 -0.000542238 -4.20136e-24)
(1.08219 -0.0646161 0)
(0.135159 0.150186 0)
(1.01917 -0.0262723 0)
(1.00881 -0.00137414 -4.56873e-23)
(1.03538 -0.020774 0)
(1.01391 0.000397345 -1.47265e-22)
(1.0156 -0.0135388 0)
(-0.0253364 -0.0825881 9.75067e-22)
(1.05808 -0.0239647 0)
(0.582179 0.113021 -1.18703e-22)
(1.01409 -0.00266928 0)
(0.408464 -0.071891 -1.62376e-21)
(1.01164 -0.00337879 6.2696e-22)
(1.07538 -0.0605977 1.56165e-20)
(0.14207 -0.0018747 1.39474e-20)
(1.0806 -0.0640612 -7.98726e-22)
(0.499093 0.136391 -4.99349e-23)
(0.895189 -0.0643025 -2.48731e-21)
(1.0101 -0.0311723 6.05569e-22)
(1.01423 -0.000715206 9.78884e-23)
(1.01283 -0.000844676 1.28487e-22)
(0.590922 -0.00981879 -7.65804e-22)
(0.176869 -0.00132935 0)
(1.06934 -0.0381531 -4.97933e-21)
(0.835276 0.0210802 9.73268e-22)
(1.01718 -0.00229742 1.21287e-21)
(0.477711 -0.0452736 0)
(1.03331 -0.00108364 1.19877e-21)
(1.01428 0.00117908 -9.31704e-24)
(1.0265 -0.0243031 3.0971e-22)
(0.247642 -0.0612903 -6.71265e-21)
(1.00643 0.00014426 -3.17802e-23)
(1.02612 -0.0470309 1.72835e-21)
(1.02821 -0.06637 4.41908e-21)
(0.547011 -0.0125377 -1.67061e-21)
(0.373678 -0.0783236 -1.59349e-21)
(0.372756 -0.0247177 0)
(1.01386 -0.00529316 0)
(1.05858 0.00396356 -3.38397e-22)
(0.397082 0.0082627 -4.39604e-21)
(1.00167 -2.62161e-05 -2.32747e-23)
(1.0252 -0.0183833 0)
(0.556738 -0.0430333 -2.93621e-21)
(0.812996 0.010873 -4.50317e-21)
(1.06406 -0.0409088 4.82394e-21)
(0.801183 -0.0546276 6.86215e-21)
(1.04231 -0.0240586 0)
(1.01271 -0.00504147 0)
(1.02652 -0.0212673 0)
(0.677323 -0.129624 -9.83512e-22)
(1.03684 -0.0210838 4.89995e-21)
(1.01614 -0.000789665 2.59564e-21)
(1.01111 -0.00106334 6.31182e-23)
(1.02143 -0.000516216 0)
(1.06056 -0.0636757 1.64403e-20)
(0.155716 -0.00176062 0)
(1.01393 -0.00535598 0)
(1.01043 -0.00251257 -1.71118e-22)
(1.03599 -0.00071941 -4.35615e-23)
(0.478093 -0.142965 2.20129e-22)
(1.04615 -0.00792715 3.73609e-21)
(1.01751 -0.00866904 -3.57667e-22)
(0.321449 -0.00218253 1.26569e-20)
(1.01285 -0.00398212 -4.20433e-23)
(1.06861 -0.0452382 -2.94805e-21)
(1.03034 -0.00652622 0)
(1.00786 -0.00090895 0)
(1.03458 -0.0132608 -1.18405e-21)
(0.518632 -0.139934 -3.28885e-21)
(1.06987 -0.0584116 -2.67609e-21)
(1.05839 -0.028778 0)
(1.01091 -0.00106319 -2.56924e-22)
(1.01803 -0.00126708 3.65612e-22)
(1.06301 -0.0536498 -4.08416e-21)
(0.444989 -0.00615476 -5.07951e-21)
(1.02215 0.000238713 0)
(1.01385 -0.00527887 -1.36646e-23)
(0.910099 0.0326585 -4.98513e-23)
(1.01997 -0.00953051 1.73898e-21)
(1.01074 0.000230808 0)
(1.06988 -0.0592584 -7.75548e-22)
(1.00858 -0.00125303 -1.53546e-23)
(1.0068 0.000179691 -1.48085e-23)
(1.0744 -0.0597364 -3.93767e-21)
(1.00839 -0.00118808 3.66529e-23)
(1.06674 -0.0384957 0)
(1.00712 0.000250469 7.51527e-23)
(1.01566 -0.00179 1.53012e-22)
(1.08518 -0.0382656 0)
(1.0888 -0.0469115 -1.17805e-20)
(1.01395 -0.00537483 1.629e-22)
(1.06275 -0.0529885 -1.32768e-21)
(1.00704 0.000235295 -4.13628e-23)
(0.345488 -0.0132967 -9.97032e-21)
(1.01685 -0.0408724 0)
(1.00716 -0.000508142 0)
(0.573531 -0.131962 -7.60545e-21)
(1.01554 -0.00236286 1.76712e-22)
(1.01722 -0.00243106 0)
(0.433436 -0.0126154 -3.95433e-21)
(0.362309 -0.0230792 -4.63933e-21)
(0.554253 -0.0155748 7.19452e-21)
(1.02444 -0.0258087 0)
(1.00834 -0.000686455 7.32085e-23)
(1.04477 -0.00632553 0)
(1.01161 0.000782616 0)
(1.0696 -0.0593055 4.5703e-21)
(0.886856 0.127271 -4.75222e-22)
(0.0178551 -0.0908074 0)
(1.06463 -0.0387712 4.40476e-21)
(-0.00689962 0.0237264 -4.56626e-21)
(1.0125 -0.000190887 1.6229e-22)
(0.514014 -0.0416267 0)
(1.04685 -0.0179746 0)
(1.0234 -0.0027504 5.51895e-25)
(1.06973 -0.0588249 0)
(1.02613 0.00538217 0)
(1.0535 -0.0319375 0)
(1.01453 -0.00468421 4.52767e-22)
(1.05766 -0.030676 0)
(1.00916 0.000430479 1.45762e-24)
(1.00724 -0.000594905 2.20894e-24)
(1.00433 0.00567096 3.16381e-22)
(1.01837 0.0397113 0)
(1.06928 -0.0454637 0)
(-0.0088592 0.0208676 -2.35625e-20)
(1.02875 -0.020239 1.47468e-21)
(0.319748 -0.0192722 0)
(0.425094 -0.0117804 -1.95933e-21)
(0.281014 0.00648342 4.66275e-24)
(0.985257 0.0567002 -1.86527e-23)
(0.933829 0.0950704 6.96395e-22)
(1.01743 -0.000322984 3.44031e-23)
(1.01031 -0.0022641 -1.80518e-22)
(1.00773 -0.000840516 3.75971e-26)
(0.944402 0.0887705 -1.45284e-21)
(1.01554 -0.0020592 0)
(1.01515 -0.0395021 0)
(0.638752 0.143161 3.53722e-21)
(-0.0147368 -0.0221876 -9.369e-21)
(1.01618 -0.00591311 8.88085e-22)
(0.592156 -0.0438346 1.50757e-21)
(1.0274 -0.025038 -1.56947e-23)
(1.01198 -0.00313627 -3.42774e-22)
(1.01713 -0.000501464 -1.92659e-23)
(1.01599 -0.0166301 -4.55029e-22)
(1.00712 -0.000388288 8.17111e-23)
(1.03618 0.0089508 2.57375e-23)
(1.00568 0.000104711 0)
(1.01749 -0.0123729 -1.45216e-23)
(0.301654 -0.0963773 -1.21301e-21)
(1.02993 -0.00643466 1.92054e-21)
(1.01543 -0.0129641 0)
(1.01949 -0.00323472 1.80883e-23)
(1.0157 -0.0132536 0)
(1.00986 1.21568e-05 -1.45203e-22)
(1.06306 -0.0518353 5.51092e-21)
(1.00226 -7.20121e-05 -3.44836e-22)
(1.0084 -0.000871722 -1.52001e-22)
(1.04288 -0.0230713 4.54269e-21)
(1.06595 -0.0549544 0)
(1.01054 0.000234255 0)
(1.00669 0.000176201 -7.90969e-23)
(1.0307 -0.00633424 -4.12809e-21)
(1.08924 -0.0359315 0)
(1.0071 -0.000533398 -1.7656e-23)
(0.871739 -0.064792 3.42003e-21)
(1.01473 -0.0164463 0)
(1.06093 -0.0663305 -9.19229e-21)
(1.01565 -0.0126927 -5.35176e-22)
(1.03663 -0.0386027 -8.95554e-23)
(1.00847 -0.000715202 -2.56819e-22)
(1.01416 -0.000744945 1.5248e-22)
(1.00711 -0.000359598 0)
(1.02618 -0.0127935 0)
(1.00775 0.000184667 -1.06911e-22)
(1.00363 0.0026578 -6.91706e-22)
(1.03073 -0.00612211 7.00759e-21)
(1.01995 -0.012056 8.50994e-22)
(1.01284 -0.000887061 3.93505e-23)
(0.930567 -0.0231144 -7.70021e-22)
(1.07052 -0.0593869 0)
(1.01308 -0.00426447 2.60967e-23)
(1.01594 -0.00745804 0)
(1.01101 0.000205582 1.19264e-22)
(0.927622 -0.158315 -2.63198e-23)
(1.0578 -0.023059 0)
(-0.101641 0.0921971 6.14577e-21)
(1.02695 0.00931441 -2.07339e-23)
(0.545164 -0.0308251 0)
(1.01368 -0.0122416 0)
(1.01315 -0.00461355 0)
(1.03573 -0.00579988 0)
(1.00592 -0.000259676 0)
(-0.0156039 -0.0274006 1.9877e-21)
(1.03646 -0.00637722 3.74763e-21)
(1.02187 -0.0167134 -1.32936e-22)
(1.01537 -0.0128726 -2.36078e-22)
(1.01161 0.00735261 -4.0865e-22)
(0.268746 0.0462135 5.85855e-21)
(1.01357 -0.00448504 1.71215e-22)
(1.0232 0.00136258 -5.62331e-22)
(1.06983 -0.0376491 -6.20308e-23)
(1.0159 -0.000389564 -2.32644e-21)
(0.49116 -0.0406706 7.20961e-21)
(1.05696 -0.0228967 0)
(0.015185 -0.0194003 8.99358e-21)
(0.8268 0.124112 0)
(1.00093 2.23467e-05 0)
(1.00844 -0.0131435 0)
(1.00654 0.000165431 1.61988e-23)
(-0.0709038 -0.0589687 1.2385e-20)
(1.01654 -0.00612635 0)
(0.673847 -0.152509 9.76938e-22)
(0.366455 -0.0171389 0)
(1.02239 -0.0585393 0)
(1.0143 -0.01561 -7.47542e-22)
(1.02138 -0.00304923 0)
(1.00716 -0.00056676 0)
(1.02218 -0.000213376 0)
(0.323474 -0.0207839 -4.25499e-21)
(0.854015 0.170367 0)
(0.397927 -0.0104742 3.79334e-21)
(1.0174 -0.0084733 1.99303e-22)
(1.03946 -0.0190378 0)
(1.01579 -0.00730124 2.09775e-23)
(0.979257 -0.0653511 0)
(1.03974 -0.0188046 0)
(1.00843 -0.00114876 0)
(0.367214 0.00351694 0)
(1.07529 -0.029461 -6.09734e-21)
(1.01028 -0.012078 0)
(1.0055 -0.000243805 -3.51681e-23)
(1.01266 -0.00448438 -8.78244e-22)
(1.00927 -0.014371 0)
(1.01298 -0.00423094 -7.99694e-23)
(1.03206 -0.000447575 1.16448e-21)
(0.627033 -0.0823111 -6.25792e-21)
(1.03381 -0.0198599 -1.94741e-21)
(1.06243 -0.0304645 0)
(1.03267 0.0204757 6.44932e-23)
(0.443853 -0.0150129 0)
(1.0331 -0.0657011 0)
(1.0267 -0.0243442 -5.17517e-23)
(1.06854 -0.023251 0)
(1.06292 -0.0248378 -3.84701e-21)
(0.417847 -0.0113534 0)
(-0.111232 0.0969978 2.31467e-21)
(0.376075 -0.0043508 -9.60279e-21)
(1.07505 -0.0596476 -7.02504e-21)
(1.00939 -0.00115554 7.08113e-23)
(0.801019 0.0397688 4.78241e-21)
(1.02456 -0.00521883 1.59079e-21)
(1.01081 -0.00880805 0)
(1.01012 -0.0022537 -4.0935e-22)
(0.430682 -0.146564 -1.0343e-21)
(0.908538 -0.157823 -1.4953e-21)
(0.897181 0.136309 2.17458e-21)
(-0.0532527 0.0246405 0)
(1.0201 -0.0138476 7.88501e-22)
(0.978384 0.049434 0)
(0.900357 0.135239 -1.16648e-21)
(0.310127 -0.00433702 -4.40386e-21)
(1.06318 -0.0733842 6.52863e-21)
(1.0243 -0.0425018 1.91866e-21)
(0.73349 0.0579659 6.48774e-22)
(1.01188 -0.000240962 -3.42992e-25)
(0.554159 -0.036 -1.1739e-20)
(0.979008 0.0322079 0)
(-0.00684861 -0.0932712 1.08727e-20)
(1.03036 -0.0182274 1.69986e-21)
(1.00863 0.00356 1.35745e-22)
(1.01864 0.000969571 1.61851e-22)
(0.873551 -0.123965 2.42116e-21)
(1.0086 0.000431611 0)
(1.0116 -0.000634849 2.89239e-22)
(1.03614 -0.00263482 3.63317e-21)
(1.02268 -0.0107367 0)
(1.01164 -0.000606779 -2.58968e-22)
(1.04506 -0.00736682 -2.03388e-21)
(1.02124 -0.000568234 2.35213e-21)
(1.03525 -0.00585114 0)
(1.02062 -0.00982592 0)
(1.02581 -0.00172249 -1.17293e-22)
(0.867256 -0.117519 -4.72344e-21)
(1.01825 0.00124567 -1.58612e-22)
(1.00883 -0.0014193 -9.37689e-24)
(-0.0573075 -0.0751981 1.18289e-20)
(1.06972 -0.0315474 2.14694e-20)
(1.00955 -0.00128388 0)
(1.0441 -0.00640665 0)
(1.01209 -0.00315972 1.20479e-22)
(1.02213 -0.0572001 6.22888e-23)
(0.428064 -0.046383 0)
(1.04331 -0.00500321 -4.20253e-21)
(1.03637 -0.0212017 0)
(1.01521 -0.0288213 0)
(1.02198 -0.000249592 -1.07904e-21)
(1.06268 -0.0283211 3.31582e-21)
(1.06397 -0.0764391 -2.8531e-21)
(1.05127 -0.00992681 -5.53708e-21)
(1.07837 -0.0691998 -4.06427e-21)
(1.0228 0.00488878 3.12442e-22)
(-0.0377372 -0.0261157 3.34078e-21)
(0.427955 -0.0132326 6.93729e-21)
(1.01921 -0.00878873 -1.2338e-21)
(1.00483 7.80693e-05 4.67096e-23)
(1.01697 -0.000776705 0)
(0.479797 -0.0427395 0)
(0.488687 -0.0216017 0)
(1.00876 -0.00138083 0)
(1.01956 0.00518478 1.05691e-22)
(-0.0394678 -0.0109763 4.86691e-21)
(1.00963 -0.000188191 -2.57097e-22)
(0.824881 -0.0582224 0)
(1.04175 -0.0329688 4.91809e-21)
(0.850678 -0.136859 -5.6683e-22)
(1.07902 -0.0398532 0)
(1.00969 -0.000176176 3.18825e-22)
(0.833262 -0.0583699 0)
(1.00816 -0.00100802 -6.97649e-24)
(0.497251 -0.0216473 -1.27143e-21)
(1.06431 -0.0196922 7.40097e-22)
(1.05438 -0.0556027 0)
(1.02154 0.00506321 -1.3711e-22)
(1.01002 -0.00909723 1.41045e-21)
(1.05563 -0.0593304 8.10571e-21)
(1.04039 -0.0180668 0)