/*--------------------------------*- C++ -*----------------------------------*\
| =========                 |                                                 |
| \\      /  F ield         | OpenFOAM: The Open Source CFD Toolbox           |
|  \\    /   O peration     | Version:  v2012                                 |
|   \\  /    A nd           | Website:  www.openfoam.com                      |
|    \\/     M anipulation  |                                                 |
\*---------------------------------------------------------------------------*/
FoamFile
{
    version     2.0;
    format      ascii;
    class       volScalarField;
    location    "0";
    object      yPlus;
}
// * * * * * * * * * * * * * * * * * * * * * * * * * * * * * * * * * * * * * //

dimensions      [0 0 0 0 0 0 0];


internalField   uniform 0;

boundaryField
{
    frontback
    {
        type            empty;
    }
    topbottom
    {
        type            calculated;
        value           uniform 0;
    }
    outlet
    {
        type            calculated;
        value           uniform 0;
    }
    inlet
    {
        type            calculated;
        value           uniform 0;
    }
    walls
    {
        type            calculated;
        value           nonuniform List<scalar> 
602
(
6.48699
7.41022
6.8777
6.84149
7.06342
7.09955
6.98069
7.14347
7.16685
7.52964
7.0139
6.75947
6.96616
7.03892
6.4123
7.02597
7.14004
6.66885
6.92485
6.6379
7.01265
6.60423
6.72419
6.7544
6.94645
6.7965
6.64856
6.49233
6.15287
6.82521
6.02921
5.9138
6.01246
5.41296
4.89637
5.22651
5.74102
5.80222
5.6401
6.69451
6.02883
6.22205
6.06749
4.7869
5.7088
5.80222
5.39024
6.06234
5.72287
5.82353
5.43989
5.62957
5.49021
5.51651
6.55692
5.82157
5.69556
4.85484
6.15444
5.81023
5.72774
5.40487
6.16647
6.22894
6.15401
5.14445
4.81623
5.64214
5.46337
5.80222
6.06781
6.08586
5.43277
5.47676
4.96999
4.87681
5.94825
5.9968
5.50483
5.80222
5.80222
6.04901
5.25608
5.80222
5.80222
5.55771
6.96096
5.29329
5.50735
5.5542
5.61087
5.80222
5.99201
5.80222
5.92112
6.19603
6.70032
5.88542
6.30657
6.53725
6.36913
5.47841
6.77918
6.17767
5.14296
6.70051
5.80222
6.37773
5.47241
5.98358
5.67824
5.80222
5.08464
5.98797
5.80222
5.75758
5.16253
5.52209
5.29036
5.80222
5.1964
5.80222
6.40952
5.115
5.82179
6.38476
5.67652
4.90032
5.70578
5.71159
5.72805
5.35931
6.17649
5.80222
5.64037
4.60023
5.84179
5.80222
5.80222
5.93287
5.17336
5.61682
5.80222
5.80222
6.32419
4.984
5.60452
5.17221
5.55021
5.48716
6.8998
5.93294
5.51981
5.70799
6.03713
6.17212
5.80222
5.64071
4.71698
5.05687
5.7657
5.50375
5.08889
5.92024
6.97627
5.53826
5.80222
5.80222
5.1083
5.42915
5.80222
5.72534
5.90123
5.80222
6.43086
5.80222
5.41277
5.56144
4.70742
6.40706
5.92314
5.80222
5.80222
5.80222
5.15914
5.69385
5.15549
5.46898
4.79528
5.80222
5.61936
5.83916
4.84253
5.52529
6.22503
5.47502
5.76112
5.76611
5.59948
5.7748
5.5693
4.98954
6.4225
5.69556
6.08277
5.49671
5.69556
5.46783
5.69556
5.80222
5.96777
5.9468
5.51919
5.54011
5.66943
6.12379
5.55242
5.62015
5.80222
5.80222
5.74045
6.10926
5.83676
5.56648
5.40875
5.44997
6.79164
6.0695
5.30356
5.62283
6.05976
5.80222
4.99901
6.05738
5.77335
5.85866
5.40085
5.4417
5.36981
6.85947
7.21564
5.59389
6.14178
5.86609
5.48606
6.93885
5.72534
5.52926
5.21769
5.64271
5.49322
5.80222
5.80222
5.82557
6.27034
5.80222
5.90208
6.2385
6.32344
5.72119
5.64336
6.06223
5.80222
5.64322
5.55937
5.43703
6.0403
5.80222
5.5187
5.41959
5.46924
5.39219
7.03155
5.76465
5.83203
5.6725
6.79638
5.24977
5.51326
6.87274
6.20968
5.7552
5.56516
5.69087
5.33007
5.43801
5.2662
6.23559
5.53574
6.19738
5.47071
5.2502
6.23974
5.76522
5.89769
5.80222
5.80222
5.80222
6.60174
6.71755
5.7376
5.80222
5.80222
5.67594
5.67067
6.00852
5.68224
6.68895
5.94014
5.01486
5.89882
5.24098
5.48627
5.69398
6.22407
5.77067
6.12651
5.95475
5.92661
5.03305
5.65175
5.40308
5.43207
5.30774
5.42302
5.52822
5.5236
5.44259
5.69556
6.57276
5.21924
5.3698
5.72655
5.7283
5.90717
5.88007
5.56619
5.25416
5.60513
5.06059
5.81091
5.28565
5.55747
6.14715
6.11981
5.71468
5.90497
5.69556
5.48864
5.69556
5.74354
5.79246
5.74889
5.76753
5.74889
5.33484
6.32466
6.03603
5.74889
6.10777
5.39854
5.50057
5.5037
6.44731
5.89896
6.93939
5.91009
5.78795
6.24723
6.01978
5.69556
5.845
5.71402
5.82976
5.65067
5.86775
6.03176
5.95852
5.16962
5.77391
5.85778
5.4766
5.27767
5.59393
5.22163
5.79149
5.83331
5.93186
5.48355
6.48913
5.88211
5.34032
5.78355
5.84689
5.63174
5.84979
5.02539
5.86648
5.52907
5.39
5.26551
5.48951
6.32368
5.54639
6.11254
5.43685
5.53058
5.61596
5.71128
6.43424
5.51751
5.37914
4.97879
5.7293
5.49571
5.46018
5.97738
5.48242
5.59972
5.56501
5.24288
4.83839
5.53182
5.46665
5.74791
5.02947
4.92447
5.39804
4.95473
5.39956
5.40262
5.27857
5.80533
5.12648
5.24881
4.87436
5.55241
5.43517
5.19298
5.78132
5.23644
4.99877
5.21991
4.88381
5.39405
5.71209
4.94426
5.492
4.99654
4.68156
5.06593
5.07412
5.05516
4.9131
4.91316
4.62222
4.99897
4.47139
5.47708
4.96205
4.96827
4.99656
5.10768
4.88364
4.89074
4.78462
4.91406
5.53471
4.86102
4.76639
4.77846
4.72537
4.90255
4.83876
5.13673
5.65543
4.69597
4.98298
5.53503
4.88807
5.68432
5.33537
5.69839
5.565
5.11521
5.97684
5.10032
4.51298
5.21916
5.07875
4.82973
5.29458
5.37381
5.36747
5.05179
5.45532
5.62382
4.46044
5.35851
5.52575
5.0615
5.64078
5.86134
5.68989
5.31582
4.8752
5.60669
4.95124
5.24953
4.91761
4.48316
4.69798
5.05051
5.49053
5.28113
5.44743
4.44726
4.46048
4.83486
5.45291
4.81929
5.25726
4.33407
4.109
4.98419
5.10178
5.07867
4.20902
4.37769
4.2782
5.40808
5.42115
5.33741
5.01078
4.19574
6.04942
4.35336
4.63209
4.37105
4.78045
4.46955
4.55197
4.69592
4.35771
5.11988
4.72517
4.78065
4.75243
4.21815
4.86848
4.6697
4.6044
4.41792
4.41693
5.40079
4.107
4.05478
4.38591
4.36915
4.47615
4.17883
4.93206
4.65458
4.26998
4.54737
4.24031
4.22187
5.31679
3.92575
4.55406
4.09225
4.75855
4.35055
3.89701
3.91925
4.59828
4.22115
4.24659
5.03411
3.80761
4.31276
3.9096
3.96915
4.02064
4.08506
4.33711
3.64947
4.44369
3.95255
3.98043
3.66927
4.10765
3.74829
4.06777
3.6513
3.64515
4.14046
3.92772
3.67224
3.74075
3.45548
3.51176
)
;
    }
}


// ************************************************************************* //
