/*--------------------------------*- C++ -*----------------------------------*\
| =========                 |                                                 |
| \\      /  F ield         | OpenFOAM: The Open Source CFD Toolbox           |
|  \\    /   O peration     | Version:  v2012                                 |
|   \\  /    A nd           | Website:  www.openfoam.com                      |
|    \\/     M anipulation  |                                                 |
\*---------------------------------------------------------------------------*/
FoamFile
{
    version     2.0;
    format      ascii;
    class       volScalarField;
    location    "400";
    object      ddt0(omega);
}
// * * * * * * * * * * * * * * * * * * * * * * * * * * * * * * * * * * * * * //

dimensions      [0 0 -2 0 0 0 0];


internalField   nonuniform List<scalar> 
37809
(
3.40328e-07
1.30459e-05
-5.61941e-06
-0.264039
1.82807e-06
-2.92948e-07
-4.62922e-08
-0.0273469
-4.91562e-07
-3.51541e-05
-6.53248e-05
-1.62378e-05
4.48297e-06
2.40633e-05
3.42533e-06
-4.57611e-06
5.14922e-07
0.00634157
-1.49125e-05
-7.32579e-07
-4.61663e-06
-0.0112775
-0.0640613
0.00036323
-0.00996907
7.73189e-09
-1.49655e-05
0.0138417
-3.19106e-05
-1.87706e-07
9.29552e-05
-0.0103167
-5.23412e-08
-0.00416826
-1.72611e-05
-3.6178e-08
0.00033912
-0.33082
0.76693
1.53866e-06
-2.70104e-07
0.0010792
-4.24512e-06
-3.62918e-05
-9.19322e-08
-1.96192e-05
-3.08251e-06
8.84595e-06
-4.83791e-06
-0.000234861
0.0369784
0.147952
-0.00234947
-0.00385063
-1.58628e-05
2.26039e-06
0.00025486
-9.88669e-06
0.000412774
0.000948326
-1.95961e-05
-3.07012e-05
-0.351562
-3.58073e-05
3.75168e-05
3.73914e-06
3.40098e-05
0.00256928
-3.04849e-05
6.15335e-05
2.42841e-06
3.71753e-07
0.0509029
0.000347567
-3.80801e-08
-0.0155863
-0.000219941
1.1085e-07
-3.50506e-06
3.01143e-07
-3.91581e-05
0.000766519
-2.39532e-07
-0.00180299
0.0114813
0.0095387
3.14203e-06
0.0250336
-2.70519e-05
0.000330147
1.62527e-07
0.0103447
-1.52943e-05
1.9782e-08
-3.07177e-05
-9.83129e-08
-0.0116938
-1.83754e-07
-7.50765e-08
-0.00969468
-6.35474e-07
0.000322671
1.79171e-07
3.47931e-05
0.0034105
2.45716e-06
-0.00826973
4.38885e-07
-0.0614363
0.621417
5.36872e-07
0.000347407
0.0102783
1.5155e-06
-0.0137211
0.00277363
4.206e-06
2.79241e-07
0.0071791
1.52761e-08
0.0162149
-1.44182e-05
-0.0172636
-7.51834e-08
-3.44411e-07
-0.0715926
-2.89467e-08
-8.67595e-07
-3.9552e-07
-2.9181e-07
-6.45473e-06
3.87765e-06
3.23737e-06
-2.25605e-07
-2.77595e-08
2.82438e-07
-3.54145e-05
-0.175318
-0.00901903
-2.27178e-06
-1.74971e-05
-6.08618e-05
2.81862e-05
-4.30428e-07
-2.34943e-07
1.64417e-07
-1.63904e-05
6.56498e-06
-3.43389e-07
-4.26045e-08
-0.00232601
-4.54765e-07
1.03853e-07
0.000448958
-3.83205e-07
8.94589e-05
-3.47848e-08
-0.0318274
-1.34697e-07
3.2921e-07
-4.28306e-08
0.0915747
-0.0109921
-2.07933e-06
-3.21802e-07
-0.000147099
-1.16709e-08
-0.221091
-5.89575e-07
-0.0606538
-3.23043e-07
-0.000231091
-4.50605e-06
-4.7664e-08
2.80238e-05
-4.87021e-07
-6.31978e-07
2.06472e-06
-2.02709e-05
2.47537e-07
-5.9742e-06
-0.00416832
1.27618e-06
-6.45196e-06
-7.22614e-08
4.90105e-07
-0.0168562
-4.71664e-06
-0.00911778
-0.000186473
0.0205007
0.000273686
-7.71353e-07
-0.00035006
-7.57968e-08
-3.87336e-07
-4.22489e-07
0.000442921
3.51205e-06
0.0553638
0.103746
-3.91363e-05
-1.69439e-06
3.70273e-05
-2.04097e-05
4.15465e-06
4.06218e-07
-0.00165815
6.7288e-07
0.0291691
0.0518046
-0.00109511
0.054879
-0.000203599
5.26188e-07
-1.46775e-07
0.0128385
0.00036817
3.30769e-07
-0.00315376
0.000201406
-1.59277e-06
-1.9678e-05
-1.92853e-07
3.73968e-07
0.000371968
1.00415e-07
-0.0134756
-6.53788e-08
-0.125501
-2.3304e-06
-1.39414e-06
-1.15375e-07
-1.78203e-06
3.64528e-05
3.85307e-05
-0.0235682
-1.99451e-07
-1.15464e-05
8.02906e-09
0.000262844
-2.38773e-07
0.00331359
-0.0108019
-4.71535e-05
-6.47537e-06
0.000415961
0.00316463
-0.00519004
-5.17462e-05
3.34944e-07
2.95399e-08
-2.91534e-05
0.0986841
-6.04194e-07
-3.55033e-08
-3.1112e-05
-3.11714e-07
-5.05708e-05
-1.60663e-05
4.33674e-06
2.12595e-06
-4.97261e-05
7.88936e-06
-0.00694749
9.70822e-07
-0.000201291
-0.000946729
1.01522e-07
-6.39667e-06
1.15899e-06
3.12781e-07
4.93695e-06
-0.000190208
-3.21596e-05
-0.00201263
8.14746e-06
-4.45998e-06
-5.94801e-08
0.000632869
-0.00089655
5.23722e-08
4.55094e-05
0.171507
0.00143557
-2.87879e-07
-0.0226548
-2.87563e-05
3.78782e-07
2.87673e-05
-2.60668e-07
-2.60183e-07
-0.00254915
-0.00886216
-3.52052e-05
3.75412e-07
-0.0240038
3.03847e-07
3.23461e-07
-0.00042994
0.0771922
1.38388e-06
-4.42257e-06
-3.14359e-05
-2.15682e-06
1.41194e-05
3.32477e-07
4.66254e-07
5.98067e-06
-0.000124773
3.40564e-05
8.87816e-07
-2.85721e-07
-0.00106936
0.000311578
1.64795e-07
-0.00243617
6.12972e-07
0.0449952
-0.000898231
3.64927e-05
-0.00889964
0.0121708
-0.0867952
-0.0179566
1.62414e-07
5.01493e-06
-0.00485048
-3.6156e-07
6.1695e-06
-4.75636e-06
-1.62332e-06
-0.29554
-1.32961e-07
-1.30699e-07
-2.7891e-08
-1.87043e-07
-0.000177927
-0.016184
2.15134e-06
-0.00167628
1.43139e-07
-0.00868192
-6.47838e-05
-2.16125e-07
-3.63709e-07
-0.00591471
0.0256913
6.87415e-06
-9.87053e-06
6.10414e-05
-4.93463e-06
-4.46199e-06
-0.00316877
1.53993e-05
-5.93537e-06
-4.23785e-07
-0.00653771
-0.0110964
-8.81434e-06
-4.09792e-07
-0.0466709
-2.316e-05
-4.71736e-07
2.32308e-06
-0.000141369
-8.31231e-07
0.000392782
-0.000186554
2.22932e-07
0.000230835
1.89711e-07
-1.88342e-06
-3.83145e-08
-0.000179287
8.66733e-07
-1.01279e-05
2.99442e-07
-4.91334e-05
-0.0145537
-1.53571e-05
-1.73629e-07
0.158225
0.000406518
-0.000450185
2.60995e-06
-4.19373e-08
-0.00479762
0.053648
-0.0139761
-3.09318e-07
0.000187115
-0.029815
-2.56628e-05
0.00128382
-6.51721e-07
-2.47624e-07
-6.32872e-07
-0.00873067
-6.94526e-09
-1.2911e-06
1.4546e-07
-3.10015e-06
-0.0141614
6.45995e-06
0.00797589
0.0211929
-2.26025e-07
-1.97062e-05
0.00237003
-2.38581e-06
4.65159e-06
-3.46225e-05
1.30895e-05
0.00579434
-6.63966e-07
4.53832e-08
3.22394e-05
-9.61195e-05
-0.000658167
2.67448e-06
4.00773e-06
-2.11243e-06
0.0382538
-0.0871892
-0.000197541
-1.46391e-05
1.80544e-08
-3.51882e-07
2.80254e-06
-1.13574e-07
-0.0136699
-0.00145831
-0.000224998
-1.0756e-05
3.01556e-05
5.08167e-05
-0.00843839
-8.16295e-06
0.497404
4.87954e-06
-3.16599e-05
1.62307e-06
-2.57681e-07
5.34097e-07
2.57103e-07
1.64684e-06
-9.49961e-07
4.30124e-07
2.47587e-05
6.04954e-08
6.40219e-06
-0.0460747
1.82701e-06
5.74182e-06
-1.0189e-07
1.74231e-08
2.62508e-05
-2.31124e-07
-1.26188e-05
0.000129113
1.75557e-06
-0.000529471
1.93817e-06
-2.38912e-07
0.0238123
2.10318e-07
2.95342e-06
-0.000176715
-7.83312e-05
-0.000158619
4.10439e-07
-0.363177
-6.18964e-05
-0.00384043
5.46003e-08
-2.81667e-06
0.52993
0.0102214
1.71724e-06
-6.59562e-07
-0.0613207
-0.0399296
1.78863e-07
0.00358288
-4.30057e-08
-0.00871332
-2.7755e-05
-1.41737e-07
0.000374511
-2.97455e-07
-1.0227e-07
-0.0526013
-0.0119622
7.00074e-07
5.01537e-07
3.89054e-07
3.99127e-07
-0.00328944
-0.0769424
-8.95373e-08
0.0768818
0.0127412
6.83048e-07
3.13671e-08
-8.19867e-08
7.86698e-05
-0.0226415
-0.0624033
-0.0133551
5.88493e-06
0.00120352
-2.56652e-07
-2.78258e-07
0.00408901
1.61849e-07
-4.18936e-05
-0.164961
0.159337
4.72812e-05
0.000372543
-6.57789e-08
0.000192252
0.0617919
-0.000551198
6.9432e-08
0.0359068
0.000131602
-1.2584e-07
-9.5417e-05
-3.8794e-08
4.71497e-05
-2.13043e-06
-0.000537709
-2.73561e-07
-2.41342e-05
-0.000135034
-0.00861868
-5.70103e-08
3.07273e-06
2.03262e-07
-4.57241e-05
-0.0215746
-0.157847
-0.0225942
-0.000660367
1.94882e-05
8.98164e-06
-2.9296e-05
-0.000159811
-0.0234663
-0.000674741
2.90985e-08
6.61564e-06
-0.00015991
-2.82392e-05
-0.00251054
3.09584e-05
5.13762e-05
-0.000256437
0.00139175
2.37566e-07
-2.93112e-07
-0.00652153
-4.93648e-08
1.10968e-07
-6.15315e-08
-2.08074e-07
1.00136e-05
-0.00789029
-0.0175259
0.164913
-0.0045322
2.24674e-07
-1.96141e-06
-0.0425703
-3.39347e-06
-1.11593e-05
-2.44413e-05
-0.0591094
2.55543e-07
3.05141e-07
2.58359e-05
1.54598e-06
-0.00346079
-0.00874406
1.50041e-06
-2.11119e-05
-0.000270352
0.00117424
1.80479e-07
1.03015e-07
8.74846e-05
4.82065e-08
-0.0960821
-0.00138555
-4.67541e-05
-9.606e-06
-5.94509e-07
-0.305898
-5.37518e-06
-7.84936e-05
8.31565e-07
2.45517e-06
-2.72493e-05
0.00231332
-2.84068e-05
-4.16165e-06
1.06061e-06
-0.000933753
-0.000235335
1.45951e-05
-2.46896e-06
7.85282e-05
1.20324e-05
-0.0938951
-0.000101062
-0.00478576
1.78933e-07
0.00906918
-0.000850387
-0.0135704
-5.52626e-05
-4.78246e-05
-0.00771287
2.80486e-07
7.03565e-06
0.00104366
8.2587e-06
2.58073e-07
-5.67343e-05
0.436789
-8.65283e-06
7.31527e-06
-0.00660679
0.0558351
-2.94341e-05
-2.76013e-05
-3.36329e-06
3.61007e-09
-3.80732e-05
0.000619265
-5.15111e-06
-0.000482279
-6.93018e-07
-1.00227e-06
-7.17496e-07
-0.000265592
-7.58927e-05
-1.47299e-05
-0.000157368
4.77378e-05
0.000409451
-1.21061e-05
-0.000179559
0.000135907
4.90893e-06
3.81207e-09
-1.50951e-08
-0.162025
1.11219e-06
-0.000101478
7.35855e-07
-2.07263e-08
2.91734e-07
-4.2474e-06
0.0285078
3.4216e-07
5.87777e-08
9.85123e-08
1.10731e-05
0.0346812
-0.000105688
0.0113536
2.49821e-07
2.77207e-07
0.000433183
2.14706e-07
2.51197e-06
0.043562
6.5618e-07
-0.00133596
-0.000255421
0.0756986
0.000274106
1.93239e-07
-1.31893e-07
-2.48895e-08
3.24454e-06
-0.0506309
-0.0195742
-4.34665e-06
6.56768e-06
-1.46792e-07
0.014595
-1.2239e-05
-6.55224e-07
2.44103e-07
0.0280301
-4.6121e-05
-2.7066e-06
-0.00014601
-0.0872383
0.000121387
-6.23917e-06
-0.00125003
-6.74066e-08
-0.00103657
-4.10534e-07
7.25374e-07
6.72829e-07
0.00238999
-1.15327e-07
-2.96185e-05
-3.78048e-08
-0.0423689
-0.0347785
0.16242
-1.54415e-07
-2.432e-08
-1.42232e-06
-1.00402e-06
3.13598e-07
-0.000800131
3.39721e-05
-5.07815e-07
1.12167e-07
-6.72004e-07
-0.00697274
0.0142015
-0.000290364
0.0017398
4.82776e-05
-9.60022e-06
-1.44478e-07
1.84324e-07
2.6512e-05
0.000167386
-3.01756e-06
0.010249
-2.20594e-05
0.193672
-6.13395e-07
0.0285426
0.00191347
5.70275e-06
-2.05221e-07
-0.00861854
-1.3342e-07
7.13449e-07
0.253951
1.80726e-06
8.72285e-06
-1.41872e-07
0.897609
1.75635e-06
3.92443e-06
-0.118005
0.00139142
-0.000758871
-1.19335e-07
3.13994e-05
1.21178e-06
8.00319e-08
-2.84027e-07
-1.74487e-07
1.29329e-05
1.40825e-07
-0.0260454
0.061049
0.00208502
-2.04229e-07
7.34551e-07
0.00595375
5.48714e-07
-1.23943e-07
1.42772e-07
2.9201e-07
-2.90051e-05
-0.000352181
0.00286655
-1.24672e-08
6.18554e-09
-0.00840003
-1.2673e-06
-4.44786e-07
-0.000190687
3.52273e-06
0.000383029
-0.097976
-0.000264546
-0.0676955
0.201115
1.7336e-06
-0.0165316
3.12382e-07
-0.000497037
-9.29691e-05
2.15224e-07
4.93327e-06
0.141167
8.52225e-06
2.09282e-07
-0.000172605
-3.37396e-06
-2.51339e-05
-0.00879084
0.119206
2.56428e-07
0.0505518
0.146679
5.19084e-06
4.30056e-05
1.11795e-07
-0.000195627
-0.0279418
-8.44555e-08
-1.40772e-07
0.000709997
3.28677e-08
0.00339693
0.461949
-0.00147285
9.55346e-07
-0.00188802
-6.66847e-05
3.75985e-07
-1.11766e-07
1.87535e-07
-1.18125e-07
-1.25788e-07
-1.63228e-05
0.50235
3.08832e-07
2.29862e-07
9.85818e-05
-1.13378e-05
-6.67415e-05
5.70974e-05
-1.06164e-06
0.000476591
-1.12139e-07
-1.18507e-05
-6.0675e-07
-1.5091e-07
0.000370824
4.47979e-07
1.66345e-05
1.87274e-07
-7.65422e-05
-1.7635e-05
-2.63746e-07
1.40135e-07
0.000151796
4.47642e-07
-0.00929469
-2.66149e-05
-6.97005e-05
6.97508e-07
4.3275e-06
-7.95537e-07
-1.3163e-07
0.000810403
2.72516e-05
-6.29061e-07
0.054322
9.80985e-08
-1.21629e-07
-2.42895e-06
-1.66942e-05
-1.20986e-07
0.000317298
0.00766504
-8.26255e-06
-0.000344343
0.0221132
-6.93585e-05
-1.27309e-07
1.01322e-06
-1.41593e-05
-0.0929415
2.63459e-07
-2.64406e-07
-2.97121e-06
-0.000181244
-1.52152e-05
4.04555e-06
0.0099287
1.68287e-06
0.00231896
0.0152417
0.0606306
0.000258876
0.00132867
9.86655e-05
1.76331e-08
0.00115002
4.45377e-06
0.160742
4.32978e-06
3.44516e-05
-0.000167728
1.94216e-06
-1.17724e-07
0.0221743
0.148303
5.80923e-07
2.10877e-06
-1.36361e-07
4.89976e-07
-3.60004e-06
-0.0745757
5.79847e-07
6.19858e-07
0.00102727
-1.03148e-07
-0.00188112
7.81595e-05
-5.61529e-05
-8.52682e-05
4.28793e-07
-1.016e-07
-0.0197066
-0.00456422
-8.31313e-06
-2.93427e-05
-2.58647e-05
-1.34705e-07
4.00602e-05
6.91937e-06
0.00441171
9.81721e-07
7.38376e-06
-0.00354031
0.00102734
1.14849e-07
0.00024535
-0.000281855
-0.000118257
-3.56224e-06
-3.16362e-05
0.000155967
-0.00715576
2.86178e-07
4.39258e-07
-2.81581e-06
-6.69037e-08
-8.33921e-05
-6.027e-07
-0.00137259
2.65588e-06
-3.85492e-06
-0.182322
-7.50813e-07
0.0206643
7.81635e-09
0.0285105
7.3339e-08
0.00517924
-0.0614417
0.000699372
-7.28258e-05
0.0210885
-7.92367e-06
-1.21753e-06
-9.32193e-05
1.22635e-05
0.000569608
6.09638e-08
-1.93731e-08
0.000311946
-3.91229e-06
0.079698
-5.19296e-05
0.17386
-1.92211e-06
-5.80426e-05
-2.03233e-08
-1.00205e-05
0.000234206
-3.79685e-05
-2.30254e-05
3.30469e-07
-0.00206601
-0.0963856
5.03007e-05
-0.0139492
0.000788942
1.41984e-07
-0.018347
0.00202574
0.0265266
-5.8548e-05
0.00452093
0.0304874
0.437271
-1.48556e-08
-1.04782e-07
2.57271e-08
-8.53188e-06
3.22159e-08
0.00954332
0.12459
3.59189e-07
-0.000481489
-4.56343e-05
5.9686e-08
-6.19519e-08
0.00369907
1.72092e-05
-1.6052e-07
-2.17083e-05
-0.00301987
2.28113e-07
0.0069699
0.0148825
-0.290449
2.55317e-07
0.135748
-0.000428872
0.299188
-2.25859e-07
0.0263875
-4.18329e-05
0.0310278
-3.52142e-05
-2.4135e-07
-8.02167e-09
0.0332462
3.35219e-07
-1.26932e-05
-0.000777554
-5.93209e-05
-3.23459e-06
-9.38125e-06
1.21594e-06
1.59285e-06
-1.11159e-05
-5.20718e-08
3.58903e-05
-2.89723e-06
-0.000182153
-0.000168482
1.62902e-06
1.5493e-05
-0.0382235
5.42094e-05
-0.0161701
-4.51668e-06
7.59306e-08
-4.08631e-05
0.0827842
-4.1029e-07
-3.00971e-06
-3.78861e-05
0.00131845
-0.000844737
-2.43428e-05
-2.97809e-05
-8.12337e-05
-0.0626801
2.18818e-06
-1.35232e-05
-0.177968
3.14553e-08
0.156751
5.5689e-05
-0.000143513
-6.63145e-07
1.17104e-07
-5.81928e-05
-2.44e-05
0.00225296
-1.85645e-05
-6.10753e-07
-0.0131508
0.000159315
0.0156721
-0.0900062
2.00203e-07
0.0534433
-3.12049e-08
-1.76488e-05
6.81225e-06
-3.96812e-05
-7.91658e-06
0.0301403
-2.10061e-07
-0.2234
-1.39153e-06
-7.16415e-07
1.10894e-07
-0.000574689
0.00153296
5.07658e-07
-0.00165028
-5.35535e-07
-2.96694e-05
-3.66748e-05
0.131391
-1.34281e-06
-0.0002853
7.17219e-07
-9.81517e-07
1.92149e-06
-2.61369e-06
-1.85312e-07
-5.2239e-06
-0.0170492
-2.08036e-06
0.0529136
-8.09045e-05
-4.77709e-07
-0.000418537
2.29229e-06
0.000285018
-1.50219e-06
2.26312e-06
2.15907e-06
-4.02453e-07
-4.55744e-05
2.2956e-05
-0.000200071
-0.0110446
2.14688e-06
-5.9615e-07
-0.000470238
-0.000234741
-0.00298317
-0.000842379
1.4394e-07
-1.4658e-07
-2.06539e-06
-0.000580771
-0.218988
-2.23725e-05
-5.92957e-06
0.149063
0.240738
0.00214029
-5.60236e-08
-0.0166011
-0.0030154
-4.28316e-07
8.17773e-08
-1.66328e-07
-4.49553e-07
-7.83084e-08
2.16692e-07
0.000144756
0.000580773
-0.00125544
-0.0695367
-0.000303276
0.000322874
2.37027e-05
0.000128209
-5.74954e-07
-1.97762e-07
-7.64465e-05
-5.05664e-07
-1.32443e-05
2.09244e-05
1.73888e-05
-1.71204e-07
5.65813e-07
-6.57035e-08
9.63181e-06
-8.27367e-08
-1.26948e-08
2.20156e-07
1.21137e-05
1.00291e-07
2.3953e-05
2.41973e-05
1.56899e-07
1.85103e-05
-3.33776e-05
3.76327e-07
2.90623e-07
-2.35305e-05
-2.54102e-06
3.0191e-07
-0.0179261
1.6343e-07
0.0127286
-0.00353825
7.5165e-07
-5.12974e-07
-1.28341e-07
-6.85669e-08
-0.0524057
0.000700683
0.00762797
1.82241e-06
-7.81824e-05
-7.69024e-07
-1.04189e-07
-0.000637163
-0.000526823
-5.39073e-07
-2.41372e-06
-1.12802e-07
0.013656
-1.61209e-07
3.73623e-06
1.46152e-07
-0.000174899
6.48754e-07
-3.01293e-06
-3.42147e-05
-2.7767e-07
-2.25645e-06
4.24765e-07
-3.40785e-09
3.30435e-07
3.86804e-07
-2.58277e-05
-1.9502e-07
0.00515736
4.81312e-05
4.58068e-06
-2.68752e-09
0.00221917
1.35621e-05
-1.04853e-05
-2.19589e-06
2.21919e-06
-1.30868
-5.40641e-07
-2.08031e-06
2.82561e-07
-2.32347e-07
-0.00920085
6.99306e-05
3.05548e-07
2.61536e-07
-2.69058e-05
-1.73298e-05
-0.00015299
-0.000142858
-1.7023e-05
0.000564842
-0.0179405
6.88751e-07
-1.64518e-07
1.41108e-05
0.1009
0.0502036
1.80298e-06
2.07895e-07
-2.95451e-05
-3.41141e-05
1.18743e-05
3.00155e-07
-0.00939126
6.59579e-07
0.111309
-1.04553e-07
-1.18438e-07
1.15119e-07
2.28766e-07
2.05553e-07
1.52955e-06
-1.55943e-07
0.0221776
-2.51692e-06
6.09624e-06
2.32135e-07
1.90503e-07
-2.75867e-05
1.42153e-07
-0.0136779
5.45597e-07
2.2005e-07
0.0100452
0.000135674
1.12218e-05
-0.00107743
0.000229105
-6.15248e-06
2.76638e-07
-1.5321e-05
-0.000243196
-0.000129855
1.81567e-05
-0.00120647
3.52183e-07
-0.00466633
-2.00172e-05
6.15158e-08
5.85862e-06
0.0026761
-0.170401
0.489481
1.19045e-07
4.99598e-05
-2.71367e-05
1.95964e-06
0.000337374
-0.000269567
2.81898e-07
1.02659e-06
-3.07033e-07
2.11144e-06
1.32386e-06
2.2964e-07
8.1512e-06
-1.28297e-08
4.46469e-07
-0.0181186
-0.00574933
4.13231e-07
0.000139982
1.32456e-06
1.8231e-07
4.3337e-07
-5.44013e-06
1.70831e-06
-2.98258e-06
9.90473e-05
-1.51166e-05
-6.87729e-06
0.00171353
1.156e-07
-0.0303841
2.45182e-07
-1.0955e-07
1.33367e-05
7.38506e-05
-6.97307e-06
-0.221138
6.57353e-06
2.67911e-07
1.59243e-07
3.26728e-07
-7.61223e-06
3.0617e-07
1.38319e-07
0.00184379
7.16884e-06
-0.0119637
2.81005e-07
-3.78166e-06
0.000249396
-0.248517
8.86667e-08
6.10382e-05
-0.00142815
-4.6695e-06
3.26085e-06
-1.84903e-09
8.67162e-05
-7.87946e-07
-0.000126823
0.00049822
2.38959e-07
2.86015e-05
4.0656e-05
1.89477e-06
1.51869e-07
-3.25532e-05
-3.76084e-08
-0.138362
-0.0991224
0.0126233
-0.001773
-0.0173152
1.77517e-06
-0.00023789
-2.28897e-07
8.78325e-08
-2.45994e-07
-0.000120175
0.0710505
7.84146e-07
-3.02408e-05
-4.53016e-08
-5.08519e-09
1.00014e-07
-0.000903141
-1.26626e-07
2.41045e-05
-3.5919e-05
1.12767e-07
-3.66682e-05
-8.19028e-08
0.000406133
0.0124394
3.44289e-06
1.5301e-07
1.93948e-07
-0.0123214
4.42712e-09
5.27435e-05
-2.36947e-07
-8.4393e-05
-3.15944e-05
-0.320008
1.0315e-06
0.000459811
-2.87334e-07
-4.00102e-07
-5.61957e-07
-0.000118045
-3.22363e-05
-0.0110478
-0.0358517
1.2931e-06
2.33369e-07
-8.41272e-05
-0.000286343
2.70956e-06
5.7804e-05
-1.61134e-07
-4.05398e-05
4.90006e-06
3.88675e-08
0.000289139
1.2699e-07
0.000458441
-1.00967e-05
-0.017716
-3.5747e-05
-2.6728e-05
-5.64376e-05
-6.36516e-05
1.31081e-05
0.0589466
-7.34217e-07
2.5615e-07
0.00188578
3.06149e-07
-6.19321e-05
-3.07318e-06
1.71737e-06
-0.0190894
-0.173462
-0.0672869
-0.0154547
-8.2024e-05
6.46853e-05
0.00765587
0.00049891
-1.52474e-07
7.90456e-06
-1.42236e-07
0.00230777
-0.00474098
0.0301962
-0.000347074
-3.08179e-07
2.68297e-07
3.02366e-07
9.62954e-08
-2.01682e-05
-9.32403e-05
0.0267538
0.010758
-1.21725e-06
-0.000152236
2.9807e-06
-0.0119674
3.22282e-07
-1.25819e-06
1.64319e-06
1.14653e-07
4.16613e-07
3.48058e-07
-2.30598e-06
-0.000619301
2.06774e-06
-3.29834e-05
-6.52385e-07
4.15724e-07
-1.04225e-05
-3.14127e-07
0.000266648
3.20191e-07
-1.58086e-05
-0.056266
9.80508e-06
-1.50809e-07
-3.17889e-07
-3.00359e-05
-0.00192828
0.373801
-1.40516e-07
0.0400168
-1.62385e-07
0.000453693
-8.53986e-06
1.50747e-06
-1.26667e-06
-2.19759e-07
4.06961e-07
-2.99368e-07
-4.98595e-05
-0.020723
-0.0106079
0.000331057
-0.000326461
-3.2726e-07
-0.00207465
1.09821e-06
-3.12822e-08
-3.22592e-05
-0.00727684
3.85172e-05
2.40766e-07
9.05528e-07
-0.00798991
-1.23398e-05
-9.29153e-08
0.0199762
-4.1181e-07
4.06627e-07
1.53965e-07
-5.37945e-08
-6.12279e-07
0.000417708
5.23905e-06
0.00535305
-0.000237684
7.47102e-05
1.0634e-07
-5.1878e-06
-0.00010245
-2.82968e-07
5.42979e-07
-0.00730438
-1.51818e-07
-2.82777e-07
5.52229e-07
0.00208251
2.16559e-05
-2.44698e-05
-1.16547e-07
-1.00943e-05
3.61926e-06
-1.05442e-05
-0.00406693
-4.23377e-07
-0.0697757
-0.000122227
3.38789e-07
-0.000541199
0.000287816
0.000315333
1.37367e-07
0.507848
-2.13143e-07
0.108385
0.000133031
-4.93429e-06
-0.119902
1.39904e-06
-3.65976e-05
-0.00341934
-0.000116395
-0.000113631
5.78697e-05
0.000224802
-2.7602e-08
-0.0276349
2.01849e-06
0.0682543
-5.35157e-05
3.40585e-07
-2.38237e-07
-3.95195e-06
-5.4393e-06
0.000298105
-5.00106e-05
-1.53768e-07
7.4563e-06
8.81515e-07
-3.84809e-05
0.00177695
-0.000269303
-0.000114152
-0.00163566
-7.35429e-08
-0.244201
4.96261e-05
5.81451e-07
-5.34546e-07
7.47954e-07
-0.000207154
5.79134e-07
-3.28536e-07
0.000111558
-6.1952e-06
-5.51275e-05
-4.54834e-07
-4.78957e-06
-0.00886383
-0.0657984
-0.0224295
-1.8848e-05
-0.529519
-2.67057e-05
0.000306033
-0.00454736
6.99995e-07
0.00259097
-4.8368e-05
-9.52554e-08
-0.696107
-6.27144e-07
6.50755e-08
0.019284
9.72979e-08
2.72066e-07
0.000558188
-0.314625
-7.89942e-06
2.38705e-05
-0.000256743
3.26829e-05
2.40714e-05
2.41445e-06
-0.000222311
-0.00134281
1.84509e-05
4.64053e-06
-4.90803e-07
-1.81871e-06
-1.76393e-07
-2.03823e-07
-0.021775
-0.0507531
1.22442e-05
-0.000143138
6.99207e-07
1.70997e-06
-8.45623e-05
-2.04465e-07
-0.00981782
-6.16872e-06
-5.57565e-07
-9.25415e-05
2.29129e-07
0.00492509
-0.49271
-0.00203979
6.33481e-06
1.95948e-06
6.61523e-05
-0.00470089
0.128398
-0.022069
0.00872423
0.000109701
3.88415e-07
2.12927e-05
3.3482e-07
6.72134e-05
-3.56736e-07
0.000241505
-2.94173e-05
-0.0404129
1.09428e-06
-3.22312e-07
-1.79431e-08
-0.00862602
1.64719e-06
0.0933299
-0.000169522
-9.57004e-08
0.000892914
6.13996e-07
0.0015091
-2.1902e-05
-1.11132e-05
1.01683e-06
4.77135e-06
-3.84757e-05
-0.00030321
0.000227452
2.60186e-05
-2.93152e-05
1.21636e-07
-6.45712e-07
4.30067e-06
0.00198707
-0.00921092
-8.95045e-07
-0.000336274
-9.68522e-05
-1.66955e-07
0.00032153
-7.03753e-06
-4.78138e-06
-2.40476e-07
2.1342e-07
1.11421e-06
-8.61949e-05
-0.000169361
-0.0669194
-0.000163151
4.23321e-05
-3.49634e-07
-1.66873e-06
1.71398e-07
2.47459e-07
-4.92533e-07
-0.000116507
-3.23386e-06
0.000488166
2.05306e-06
-2.7225e-07
3.18822e-06
-4.90919e-05
-2.03577e-07
-1.62874e-05
0.0507623
-9.30339e-05
1.01239e-06
3.39627e-07
-2.57084e-05
-1.70855e-07
-8.4794e-07
1.62329e-06
0.000185071
4.06905e-07
-1.03035e-05
-2.27265e-05
-2.32062e-07
-2.64061e-05
0.36555
-2.95643e-07
-2.63104e-06
-3.71786e-06
8.06396e-07
-1.76411e-07
1.32442e-06
-0.00504861
5.67504e-07
-1.3228e-06
0.00749034
1.28357e-08
-5.59674e-06
0.0117724
-1.62804e-06
-0.000289498
-4.51825e-07
6.22976e-08
-0.00729799
-1.79897e-05
-0.00767848
-0.00749111
0.107189
1.5554e-07
0.000124452
-4.23013e-07
0.000118275
-4.57067e-07
5.89717e-05
-6.36535e-07
0.000679462
-0.2901
-0.0352244
-2.66098e-05
5.12028e-07
5.47071e-07
-1.41914e-07
-1.98418e-05
-2.6701e-05
-4.5305e-07
0.0203918
0.000405442
0.19791
5.04785e-06
6.68703e-08
-0.0204711
-3.57578e-05
-1.36616e-05
-1.21506e-06
0.000634639
-4.34866e-07
-1.3515e-07
-0.036346
-3.91058e-06
5.4255e-07
-1.94686e-07
-2.19808e-06
-2.56827e-06
-0.00800965
0.153959
-2.43499e-05
-2.98223e-05
-6.64916e-08
0.00901357
-6.51686e-07
-0.232131
3.73257e-07
0.000355765
2.46884e-05
1.45246e-07
-7.04983e-06
0.0667715
0.0019104
7.99854e-07
0.000102989
-2.45384e-07
1.75734e-05
0.00432868
2.28096e-05
0.000340428
8.23789e-06
0.00640743
2.20641e-09
0.00251668
0.000170617
-8.71036e-07
0.000787039
6.80018e-07
1.89172e-07
2.65692e-06
0.000279058
0.0549511
-5.36451e-07
-1.45764e-05
-1.20175e-05
-0.00032913
-3.27557e-07
9.67221e-06
-1.07601e-07
1.45034e-05
-1.94694e-05
2.83088e-05
-2.59304e-06
-0.00110078
-2.67834e-06
-1.12289e-07
-0.000210606
7.52989e-06
1.61315e-06
-2.5198e-09
-3.02587e-05
-2.40757e-08
-4.29105e-07
9.62514e-09
-1.56856e-05
-0.00267152
-1.22598e-06
0.000342207
5.02873e-06
-1.67405e-07
-4.20553e-06
-2.09486e-07
-2.93614e-07
-0.00566656
-2.19205e-05
-0.000937049
0.000367842
-0.000121604
-1.25223e-06
-3.08812e-06
3.30743e-08
-9.47113e-06
-0.0375775
-0.0191469
-0.0156437
-8.74749e-05
1.10996e-06
0.0178192
0.0652161
6.2179e-07
1.59808e-06
0.0589449
0.0106726
0.0234645
0.458309
-3.65264e-07
3.6501e-07
1.10674e-05
0.00614723
0.0378163
-0.000239583
0.102717
5.81846e-08
0.00219854
4.76124e-07
-4.28802e-06
1.20384e-07
0.000461594
6.83256e-07
-0.00356287
-6.92408e-05
-8.27521e-05
5.4109e-06
-1.07836e-06
-9.8581e-05
-0.0169092
0.00010121
0.0673732
1.19672e-05
-2.35589e-07
1.03498e-06
-2.10393e-08
7.26842e-05
0.000877369
-3.5967e-06
0.000447784
-2.77521e-07
0.000259341
0.000915566
0.00893698
3.20928e-06
-3.07908e-07
0.00291354
1.24053e-06
-0.00868217
-3.95989e-05
1.30628e-06
-2.13321e-07
-1.2208e-07
0.0377431
-4.23342e-07
-0.0258598
1.5557e-07
-1.45661e-06
1.17669e-06
0.19025
3.32901e-06
-0.0310266
-0.000115445
-5.41755e-06
0.000458656
6.69844e-06
-1.15126e-06
-2.60429e-07
-2.55119e-07
7.69015e-06
-0.00610613
-8.76007e-05
-1.19498e-07
1.58518e-07
2.21185e-06
2.0187e-07
-6.79927e-07
2.92667e-06
-3.7781e-05
-1.68837e-05
-2.62855e-06
-3.98366e-05
-1.14748e-07
-2.24926e-07
-1.06225e-06
-9.00836e-07
1.76256e-06
-0.00019451
-2.9384e-07
-5.70376e-05
0.000925104
6.60229e-08
-1.78152e-06
0.000219146
0.103308
-0.000148521
-1.36846e-06
-3.06529e-05
-1.22837e-05
-1.91615e-06
5.29968e-07
-0.00355407
2.14345e-05
-4.34344e-06
-3.72388e-05
-1.68806e-05
1.50664e-06
-0.000243847
-3.82767e-06
-3.29326e-06
1.27165e-06
-8.16949e-05
-0.0692743
-1.22005e-06
0.00703405
-3.75191e-07
5.48246e-07
-0.000127094
-7.48378e-06
1.54496e-06
-0.0973684
0.0143543
-0.002811
-3.66583e-07
4.97739e-06
1.95793e-07
-0.0157827
0.000202977
-4.72011e-05
-3.76459e-05
-3.75622e-07
3.29042e-06
1.03873e-05
-1.05308e-06
2.86732e-05
-4.89647e-06
1.8428e-05
0.00121928
-2.19027e-06
-1.07042e-07
-0.137313
-2.97492e-07
-2.9547e-07
-0.000160616
-2.00791e-07
-0.000145692
-0.00984607
0.414049
-6.74043e-08
-1.11012e-05
7.73044e-08
6.26582e-08
0.000122477
1.72898e-07
-2.62004e-07
8.14003e-08
-2.17093e-07
1.1273e-05
0.000269515
-4.43579e-07
1.2964e-06
8.08348e-05
-0.000892481
-3.90825e-09
-0.0553607
7.71567e-06
-1.75204e-06
4.97364e-07
1.80592e-06
-4.20233e-07
-5.56642e-06
2.72071e-06
-0.00936765
2.82e-06
-5.5102e-08
-2.92904e-05
-1.0494e-05
1.25648e-05
4.49735e-05
1.12858e-06
-4.02489e-07
-2.53946e-05
1.05621e-07
-0.000176784
1.73012e-08
6.29686e-07
-6.30489e-07
0.000231216
-2.32908e-05
-3.92658e-07
7.67042e-07
-8.99386e-05
0.000833094
-0.000583175
-1.32291e-05
0.00146687
-2.57721e-05
1.16269e-06
1.03007e-07
-1.9576e-07
1.18223e-07
1.21973e-05
0.047973
-1.27026e-07
-1.39064e-07
-0.0029368
6.58524e-05
-2.12496e-07
-8.21318e-06
0.0985645
-2.52868e-05
-6.40751e-07
-1.2345e-05
5.48332e-07
-0.0131244
-0.00298062
9.58786e-06
-0.000968203
1.64147e-07
-1.6077e-06
3.74411e-06
-2.1053e-05
-7.82024e-05
-4.66537e-07
1.52559e-05
-0.00800571
-4.17697e-06
-1.30075e-07
-0.323251
9.87451e-07
1.49924e-06
-1.57053e-05
-5.39302e-06
-2.18125e-05
-0.00887106
6.31485e-05
5.38056e-05
0.00300456
-0.0105313
0.00177514
-0.0189493
-4.16758e-07
1.28886e-06
-2.33389e-06
4.83274e-07
-3.57562e-05
-0.0142126
1.47362e-07
-0.000803
0.278823
0.00463376
-0.00409558
-5.96351e-06
5.20557e-06
-2.35045e-07
-7.25958e-05
-5.14347e-07
0.101776
-4.37754e-06
-6.78852e-07
0.0172669
6.29247e-07
0.000316348
-0.0030648
0.00932702
-3.96179e-06
0.00641518
-4.16626e-05
-5.77536e-07
-1.64047e-06
-0.0306055
-4.21104e-07
6.73669e-07
0.13131
5.78734e-05
-6.45044e-07
0.265476
-3.85541e-07
-0.0132878
2.75683e-05
-3.55526e-07
0.00135604
5.68342e-08
-4.49328e-07
-2.20841e-05
-3.53618e-07
-0.00227521
-0.00112013
-2.20904e-08
3.77929e-07
-1.88167e-06
0.0637419
-3.28727e-05
-2.51503e-07
-0.238407
-2.18645e-07
-2.12572e-05
-0.0549938
2.16881e-05
1.75068e-06
6.09594e-08
-0.00849861
0.00106177
3.47423e-05
-9.49095e-06
4.57022e-05
2.88199e-05
-0.000243843
0.00418247
0.00907776
0.000194034
-5.30242e-05
-4.43973e-05
-0.000169843
-2.96746e-06
-0.333696
-3.09643e-07
-4.70258e-05
0.00448781
0.000231579
-0.0021157
3.83051e-07
-0.000566197
-5.54289e-06
-3.3519e-05
0.0107548
4.76901e-06
1.33015e-06
-5.15995e-06
-0.00726649
4.67621e-07
-0.0759949
2.79097e-07
-2.47288e-07
2.00035e-07
-1.05529e-07
3.4609e-06
-1.33549e-08
-0.0156441
-1.09602e-06
0.131851
1.40708e-07
-1.18523e-05
1.98026e-06
2.48608e-07
0.057664
-4.05793e-07
1.5154e-07
0.187037
6.94399e-05
-0.0323434
-5.19234e-07
0.00707362
0.251926
-0.0661788
6.25397e-07
-3.12347e-08
-0.00149467
-0.000875939
-2.01189e-07
-5.09814e-07
-0.0527052
-9.86805e-08
-3.6326e-07
-0.000124969
-8.0915e-05
-6.48772e-07
-3.66701e-07
0.0883937
-5.31302e-07
1.75875e-06
6.68529e-07
-1.10256e-06
0.143642
1.5486e-06
5.98519e-06
0.00215985
8.02653e-07
1.08447e-07
-1.12978e-07
4.31656e-07
6.36906e-08
-9.08692e-09
-0.093121
9.79463e-05
-0.495035
1.28764e-07
8.14093e-08
9.95243e-08
1.04097e-05
0.000156296
-4.15909e-06
0.00132843
4.24902e-07
-5.23401e-05
-0.00271524
-4.0454e-07
-9.80044e-06
-1.1084e-05
-5.56656e-07
-2.2825e-07
0.588373
9.77989e-06
0.000641583
-2.73283e-06
-0.000163002
0.0249942
-3.43635e-05
-9.0853e-06
5.43205e-05
-1.30839e-05
4.21692e-05
1.62557e-05
-1.40957e-06
0.00720847
4.81274e-05
4.7017e-07
-3.84701e-05
-0.0159361
0.0523526
-0.00242028
-6.41813e-05
-0.007641
-2.93614e-05
-1.70125e-07
-2.16368e-06
0.0298315
-0.480207
-3.96204e-05
-0.457054
-4.23504e-06
0.00030663
0.0118701
-0.140203
-0.00902379
2.06624e-07
-0.0179691
-0.000467608
8.25131e-07
-0.000160318
-3.26981e-05
-3.14335e-05
7.17357e-07
-1.37892e-05
1.7276e-05
-8.40035e-08
-0.000166202
0.000102064
-0.0182504
1.71065e-07
-2.81834e-05
-5.34202e-07
-0.00189491
-0.00242448
-3.1087e-07
0.00124617
4.84442e-05
-0.000617192
4.79947e-05
-2.17697e-06
-0.0107716
-6.97586e-07
0.0011961
2.53645e-06
-2.29115e-06
2.46651e-07
0.000882383
1.71297e-06
-0.0159347
1.05862e-07
-0.013031
4.99552e-07
7.05668e-07
-0.000764221
6.00397e-05
3.91686e-07
7.84015e-08
-0.619113
-0.000196969
-0.0049982
-4.06402e-06
0.00259177
5.47056e-07
-2.40961e-05
1.12615e-06
2.40635e-07
-3.59797e-05
0.000887119
0.000495174
0.0224191
4.89326e-07
2.21738e-06
5.90746e-08
0.000626478
-3.83591e-05
-0.000124404
-6.11754e-05
0.00172726
1.84998e-06
-0.0206675
-2.19648e-06
7.44244e-07
-2.49122e-07
-3.18175e-06
-1.70795e-05
8.0597e-08
8.03191e-05
8.19849e-07
-0.094107
0.000361557
-0.0643849
-2.62242e-05
-5.06533e-05
1.27961e-05
0.472404
-2.13378e-06
-2.04796e-07
-0.120705
-3.81853e-07
-0.000731984
-2.38172e-07
4.6264e-05
-0.00267178
1.05811e-05
-0.000273735
0.000367429
-0.0106902
6.51203e-07
-6.86847e-09
-0.00143276
1.89504e-06
-2.9143e-05
0.0069935
7.01751e-05
-0.180188
-2.04019e-06
-0.0152199
0.00061895
-5.61022e-07
-0.010383
-0.00303241
-4.48887e-06
-0.00788204
-5.14733e-05
6.43197e-05
-0.000164037
-2.00242e-07
0.450062
5.44713e-05
-2.27814e-05
-7.9522e-08
-0.021331
-4.49944e-07
-0.123644
-5.48149e-07
-0.183014
8.91741e-05
-4.23121e-08
7.50142e-06