/*--------------------------------*- C++ -*----------------------------------*\
| =========                 |                                                 |
| \\      /  F ield         | OpenFOAM: The Open Source CFD Toolbox           |
|  \\    /   O peration     | Version:  v2012                                 |
|   \\  /    A nd           | Website:  www.openfoam.com                      |
|    \\/     M anipulation  |                                                 |
\*---------------------------------------------------------------------------*/
FoamFile
{
    version     2.0;
    format      ascii;
    class       volScalarField;
    location    "400";
    object      nut;
}
// * * * * * * * * * * * * * * * * * * * * * * * * * * * * * * * * * * * * * //

dimensions      [0 2 -1 0 0 0 0];


internalField   nonuniform List<scalar> 
37809
(
0.00584803
0.00232725
0.00266082
0.000653842
0.00593707
0.00595758
0.00596889
0.0105996
0.00594219
0.00293072
0.0055083
0.00354768
0.00594326
0.00568798
0.00591004
0.00431949
0.00601041
0.00790635
0.00412001
0.00589972
0.00394693
0.0100496
0.00891549
0.00598529
0.00967939
0.00608077
0.00368369
0.00993241
0.00284713
0.00585493
0.00552135
0.0123296
0.00582914
0.00409322
0.00411242
0.00582945
0.00208393
0.00065015
0.00544689
0.00592458
0.00585133
0.00139247
0.00390617
0.00302345
0.00584146
0.00326031
0.00512233
0.00578823
0.00457037
0.00130859
0.00885742
0.00296188
0.00405292
0.00418951
0.00369717
0.00594383
0.00146555
0.0030322
0.00107575
0.0102821
0.00371682
0.00312915
0.000741511
0.00299871
0.00575653
0.00591074
0.00198236
0.00496353
0.00319719
0.0030335
0.00594321
0.00602201
0.00273248
0.00133114
0.00593598
0.00366658
0.00149101
0.00580275
0.00388407
0.0059826
0.0029269
0.00757045
0.0059077
0.00408292
0.00307898
0.00359894
0.00594001
0.00916546
0.003662
0.00208151
0.00606689
0.00888648
0.00209395
0.00593095
0.00285094
0.00583611
0.0113544
0.00583536
0.00578706
0.00917655
0.00600776
0.00143287
0.00584988
0.00577008
0.00329192
0.00592643
0.00971485
0.00600212
0.00980829
0.00163484
0.00595129
0.00133761
0.00804779
0.00592585
0.0107585
0.00805211
0.00592057
0.00583345
0.00140155
0.00593318
0.00254531
0.00326435
0.0110458
0.00583517
0.00592726
0.00256752
0.0058003
0.0053701
0.00582047
0.00582776
0.00274747
0.00591551
0.00594478
0.0059262
0.00580015
0.00584773
0.00311717
0.00221509
0.0077959
0.00330222
0.00412304
0.00140545
0.00565001
0.00593841
0.00582997
0.00582691
0.00420911
0.0057982
0.00582173
0.00580016
0.000634411
0.00593854
0.00595958
0.00120713
0.00582238
0.00553553
0.00580046
0.0163811
0.00578796
0.00596768
0.00583543
0.00820853
0.0120745
0.00462468
0.00582399
0.00193635
0.00583611
0.00207582
0.00566747
0.00912537
0.00595519
0.00118264
0.0059553
0.00591072
0.00564889
0.00592488
0.00594022
0.00595193
0.00385076
0.00584671
0.00591272
0.00135576
0.00594
0.005913
0.00585753
0.00584964
0.0111375
0.00595471
0.00847344
0.00178175
0.0104544
0.00183838
0.00590216
0.00116101
0.00594904
0.00590696
0.00590722
0.00123187
0.00593207
0.00792771
0.00992539
0.00291463
0.00596338
0.00574127
0.00360125
0.00591587
0.00597351
0.00997028
0.00584941
0.0113106
0.00646578
0.00126566
0.000527927
0.00151984
0.0060122
0.00578846
0.00133479
0.0013989
0.00585088
0.00916796
0.0023758
0.005962
0.00388172
0.00609414
0.0060191
0.00138041
0.00583869
0.0110097
0.0058007
0.00039157
0.00457369
0.00596234
0.00588799
0.00596292
0.00575762
0.00217522
0.0117625
0.0060963
0.00588748
0.00585174
0.00189208
0.00593993
0.00331528
0.011328
0.00259665
0.00280798
0.00140721
0.00342965
0.0108548
0.00244103
0.00584842
0.00583758
0.002874
0.00813655
0.00596034
0.00585732
0.00292318
0.0058433
0.00583731
0.00368132
0.00592185
0.00594755
0.00583966
0.00588211
0.00734546
0.00596031
0.00535541
0.00105053
0.00580256
0.0059166
0.00594009
0.00595731
0.0059273
0.0026195
0.0032606
0.00768558
0.00578797
0.00375113
0.00595794
0.00557531
0.00104311
0.00587296
0.00572103
0.00793439
0.00193105
0.00584229
0.011627
0.0028728
0.00583497
0.00913909
0.0055599
0.00601414
0.00441682
0.00898036
0.00271388
0.00583693
0.00418821
0.00584359
0.00584165
0.00217331
0.00686549
0.0059421
0.00415682
0.00249323
0.00462249
0.0057141
0.0058449
0.00601859
0.005904
0.00263369
0.00549892
0.00596129
0.00590865
0.00257614
0.00214959
0.00581936
0.00241566
0.00585156
0.0126914
0.00273656
0.0054565
0.00434743
0.0101151
0.000425908
0.0115736
0.00585299
0.0019483
0.00990201
0.00584642
0.00579786
0.00372061
0.00364911
0.000396176
0.00583409
0.00588155
0.00592927
0.00593545
0.000902601
0.0115137
0.00595984
0.00472906
0.00581806
0.00737411
0.00184455
0.00592959
0.00596214
0.0111004
0.0132856
0.00208947
0.00304878
0.00562734
0.00593388
0.00468322
0.00676712
0.00191809
0.00594755
0.00580921
0.0126301
0.0149084
0.00590127
0.00584132
0.011193
0.00327539
0.00584416
0.0059311
0.00209731
0.00592093
0.00130936
0.00178369
0.00585714
0.0052853
0.00585429
0.00465942
0.0058006
0.00178951
0.00592198
0.00590209
0.00584059
0.00319976
0.0107264
0.00386145
0.00586872
0.00826187
0.00140694
0.00233215
0.00593135
0.00602057
0.00179886
0.00363314
0.0120365
0.00583543
0.00533254
0.0106173
0.00360134
0.00383351
0.00593056
0.00583502
0.00593361
0.00787925
0.005848
0.00593115
0.00582686
0.00495087
0.0111384
0.00579598
0.00399812
0.00253658
0.00587426
0.00378339
0.00174427
0.0046185
0.00576756
0.00304021
0.00207385
0.00153338
0.00585856
0.00584645
0.00560852
0.00224624
0.000729446
0.00594345
0.00593015
0.00400213
0.00324933
0.0105675
0.00137161
0.00364462
0.00583283
0.00584742
0.00594387
0.00583131
0.0118942
0.00431078
0.00261935
0.00470971
0.00554711
0.00530532
0.00933264
0.00585408
0.00201539
0.00585672
0.00546777
0.00593559
0.006003
0.00585268
0.00584326
0.00593799
0.00593264
0.00583893
0.0056899
0.00586895
0.00591834
0.00909154
0.00596056
0.00590366
0.00582605
0.00595931
0.00567092
0.00584156
0.00455791
0.00236646
0.00596087
0.00424892
0.00593367
0.00594399
0.00437597
0.00582786
0.00593295
0.00173501
0.0053328
0.00265824
0.00583651
0.000306641
0.0054866
0.0100767
0.00586722
0.00503433
0.00604947
0.00458567
0.00593552
0.00309835
0.011465
0.00332558
0.00582604
0.00130777
0.0059446
0.00825232
0.00348586
0.00582917
0.00141512
0.00593761
0.00582526
0.0030153
0.0214967
0.00585277
0.00595729
0.00583717
0.00582525
0.0125489
0.00314498
0.00580138
0.00204386
0.00397526
0.00588019
0.00585541
0.00579935
0.00556287
0.0118363
0.0096876
0.0214634
0.0059312
0.0100115
0.00584254
0.00591945
0.00129532
0.00582695
0.00237597
0.00217554
0.00958305
0.00570286
0.0013967
0.00579875
0.00207048
0.0129868
0.00446345
0.0059173
0.00246095
0.00221477
0.00582936
0.00257079
0.00585389
0.00529796
0.00289456
0.0052414
0.00593688
0.00353765
0.00216644
0.00766043
0.00579809
0.00592537
0.0058277
0.00249287
0.0117548
0.00190747
0.0115564
0.00252003
0.00562008
0.00586859
0.00531895
0.00191307
0.0116821
0.00271354
0.005825
0.00586567
0.00192161
0.00379641
0.00433206
0.00551341
0.00331366
0.00118674
0.00823309
0.00582856
0.00582386
0.0126577
0.00595632
0.00581453
0.00580042
0.00583044
0.00585291
0.00601991
0.0109167
0.0108846
0.00945753
0.0058499
0.00540332
0.0124029
0.00399772
0.00362902
0.00375722
0.0114061
0.00584436
0.00584693
0.00590303
0.0059271
0.00247435
0.00705954
0.00592172
0.00371289
0.00259518
0.00522368
0.00582677
0.00585297
0.00113744
0.00579745
0.00113944
0.00127221
0.00230375
0.0058963
0.00586033
0.00111574
0.00487056
0.00545455
0.00594309
0.00594277
0.00288911
0.00166623
0.00289341
0.00476565
0.00595118
0.00457304
0.00122229
0.00202144
0.00458307
0.00303908
0.00573964
0.00207264
0.00249349
0.00175509
0.00601025
0.010228
0.000705299
0.0157763
0.00267326
0.0043262
0.00909152
0.005992
0.00579135
0.00395961
0.00372763
0.00583945
0.00262701
0.00146927
0.0059111
0.00587598
0.00511633
0.0153554
0.00349304
0.00432808
0.0038826
0.00584202
0.00296845
0.00820218
0.00593544
0.00115825
0.00586347
0.00594428
0.00586699
0.00141817
0.00548846
0.00375651
0.00296229
0.00575299
0.00126837
0.00365023
0.00297289
0.00277571
0.0059012
0.00520496
0.00580071
0.000880138
0.00594814
0.00234983
0.00589556
0.00607558
0.00583781
0.00482006
0.0111373
0.00585924
0.00580084
0.00580255
0.00563098
0.010257
0.00224752
0.000756327
0.00583508
0.00600695
0.00108643
0.00582762
0.00594299
0.00269846
0.00585461
0.0124238
0.00140099
0.00263344
0.00596343
0.00583273
0.00581909
0.00584048
0.00590663
0.0126234
0.0119745
0.00364059
0.00576764
0.00580212
0.0113926
0.00392274
0.00590662
0.00583455
0.0080149
0.0055091
0.00449072
0.00125077
0.0162541
0.00117353
0.00279296
0.00901026
0.00585505
0.00121322
0.00274166
0.00585707
0.00590263
0.0016805
0.00580235
0.00587073
0.00579795
0.0133671
0.0132822
0.00940815
0.00593997
0.00595969
0.00596141
0.00594655
0.00583882
0.00264787
0.00577144
0.00600664
0.005797
0.00586211
0.00126711
0.0130577
0.00245983
0.00557732
0.00580695
0.00366293
0.0059783
0.00582604
0.00558994
0.00107946
0.00580834
0.000748792
0.00300803
0.000584098
0.00590365
0.0114402
0.00184112
0.00591585
0.00583322
0.00707275
0.00582334
0.00594791
0.00596236
0.00592554
0.00199121
0.00583431
0.00447592
0.00596073
0.00588618
0.00254702
0.00381582
0.00256795
0.00582258
0.00577735
0.00591233
0.00584735
0.00242719
0.00582626
0.00571495
0.00585066
0.0160681
0.0146577
0.0134142
0.00243385
0.00593994
0.00508893
0.00594824
0.00593516
0.00584975
0.00583773
0.00586864
0.00268219
0.00892265
0.00579773
0.00579769
0.0114403
0.00596016
0.00594766
0.00149465
0.00354443
0.0014152
0.0162513
0.00128069
0.0101466
0.00685789
0.00595956
0.0111344
0.00594289
0.00105014
0.00529399
0.00582791
0.00573305
0.00972141
0.00587208
0.00582788
0.0125915
0.0037699
0.00380303
0.00789347
0.00864355
0.00588598
0.00492172
0.00883869
0.00591234
0.00350647
0.00586428
0.00269903
0.011918
0.00592937
0.00581902
0.00384755
0.00582999
0.000827494
0.00688724
0.0215106
0.00595859
0.0207962
0.0019665
0.0059965
0.00582388
0.00586125
0.00581717
0.00595687
0.00308429
0.00688844
0.00591017
0.00598832
0.00286998
0.0036481
0.00551542
0.00570584
0.0059601
0.00386281
0.00581689
0.0036075
0.00585236
0.00582688
0.00143962
0.00602777
0.00587336
0.00585121
0.00271662
0.0028436
0.00585571
0.00583296
0.00272213
0.0060353
0.00847179
0.00383754
0.00229012
0.00588629
0.00205928
0.00549737
0.00582466
0.00511703
0.0055583
0.00587394
0.000529128
0.00582563
0.00578698
0.0059611
0.00381413
0.00578751
0.00118024
0.00826996
0.00420243
0.00216673
0.0132445
0.00230075
0.00591214
0.00595759
0.00411572
0.0108066
0.00595023
0.00598631
0.0050666
0.0017434
0.0043684
0.00199248
0.000598347
0.00595997
0.000829178
0.0112139
0.00977862
0.00205333
0.0109825
0.00549493
0.00581944
0.00194323
0.0059207
0.00876297
0.00587795
0.00450813
0.00259254
0.00594761
0.00582195
0.00311831
0.00889652
0.00604624
0.00593086
0.00582691
0.00593107
0.00594695
0.0127278
0.00604484
0.00585542
0.0102542
0.0058167
0.000982585
0.00556668
0.00298401
0.00207311
0.0060397
0.00581664
0.011546
0.00981715
0.00501676
0.0031882
0.00372548
0.00582224
0.0058764
0.00362524
0.00502024
0.00594801
0.00573445
0.00244561
0.00398586
0.00582515
0.00137193
0.00127661
0.00162194
0.00594769
0.00381827
0.00221988
0.0105605
0.00601923
0.00599009
0.00510982
0.00590675
0.00581146
0.00587177
0.00103958
0.00589395
0.00367564
0.00110661
0.00594049
0.0088865
0.00583946
0.00375342
0.00580109
0.00923235
0.00758216
0.00116796
0.00581355
0.00383561
0.00448073
0.00605559
0.00207387
0.00193538
0.00217616
0.00582664
0.00584245
0.00111647
0.00387057
0.00259158
0.00224869
0.00972519
0.0059351
0.0020424
0.00584349
0.00336805
0.000760698
0.00266382
0.00355587
0.00583277
0.0012862
0.0195675
0.00290571
0.0123477
0.00409952
0.00568835
0.0121511
0.00894642
0.0109998
0.0022919
0.0127939
0.0107024
0.0033308
0.00584836
0.00595988
0.00582411
0.00379421
0.00579741
0.012696
0.00927848
0.00582774
0.0026267
0.00259534
0.00595474
0.005797
0.00257853
0.00365201
0.00600056
0.00380091
0.00552528
0.00582562
0.0148958
0.00061361
0.000461047
0.00582408
0.00931106
0.00463822
0.00461897
0.00581704
0.0110793
0.00235479
0.00435265
0.00304757
0.005817
0.00583946
0.00323021
0.00593221
0.00415813
0.00203346
0.002504
0.0038426
0.00374163
0.00594135
0.00593236
0.00317311
0.00593384
0.00340325
0.00334374
0.00303831
0.000861411
0.00593241
0.00299302
0.0029189
0.00523565
0.00999519
0.0049695
0.00582838
0.0026131
0.010005
0.00581182
0.00510522
0.00264282
0.000975042
0.00524464
0.00316277
0.00372359
0.00202307
0.0164517
0.00596053
0.00419611
0.00648403
0.00580121
0.000702215
0.00523976
0.00177134
0.00291213
0.00586614
0.00539641
0.00320684
0.000945669
0.00404992
0.00587803
0.0124791
0.00228613
0.0130206
0.0191494
0.00595664
0.00809217
0.00586982
0.00415196
0.0059167
0.00243276
0.00366717
0.011339
0.00599004
0.00130471
0.00592238
0.0059406
0.00582724
0.00248941
0.0128366
0.00602618
0.00452089
0.00590429
0.00322295
0.0108682
0.00564916
0.00593408
0.00559504
0.00588399
0.00592141
0.00593961
0.00510992
0.00596333
0.00455934
0.0118227
0.005393
0.00754275
0.00211447
0.00586648
0.00450947
0.00591662
0.00128725
0.00591481
0.00596086
0.00557683
0.00584584
0.00264333
0.0056315
0.000879524
0.00239031
0.00596089
0.00586351
0.00463283
0.00142183
0.00554916
0.00223457
0.00590823
0.00578713
0.00519418
0.00220459
0.00553189
0.00543202
0.00374587
0.0105959
0.000860396
0.00557582
0.00593586
0.0114755
0.00223543
0.00582859
0.00582695
0.00584071
0.00582856
0.00579436
0.00604038
0.0016965
0.00217488
0.0127227
0.00975557
0.00108321
0.00198933
0.00574776
0.00222742
0.00321282
0.00580207
0.00216262
0.00602147
0.00405427
0.00574992
0.00205909
0.00580321
0.00599322
0.00593932
0.00586766
0.00584324
0.00580135
0.00584405
0.00580084
0.00579719
0.0055976
0.00580447
0.0058172
0.00170384
0.00276221
0.00596979
0.00583438
0.00330106
0.00594014
0.00583128
0.0114545
0.00591206
0.00222796
0.00245464
0.00589329
0.00583412
0.00582708
0.00586814
0.0129932
0.0151146
0.00928021
0.00596071
0.00214409
0.0059131
0.00582481
0.0127728
0.00254723
0.00583328
0.00593895
0.00597116
0.00384534
0.00591575
0.00587899
0.00581627
0.00180264
0.005944
0.00374362
0.00308371
0.00582582
0.00593229
0.00595811
0.00582265
0.00584771
0.00583537
0.00288259
0.00586422
0.00607162
0.00575169
0.00586858
0.00585066
0.00174598
0.00347723
0.00543073
0.00593493
0.00595922
0.000824471
0.00584417
0.00593048
0.0058242
0.00593687
0.0116511
0.00561039
0.0058338
0.00580407
0.00287353
0.00415207
0.00192882
0.00098991
0.00321648
0.011985
0.012242
0.00605232
0.00595068
0.00572835
0.00132077
0.00945785
0.00592206
0.00590338
0.00387942
0.00308644
0.00354885
0.00582289
0.00855144
0.00588237
0.00630929
0.00582297
0.00579214
0.00586426
0.00584783
0.00580317
0.00591202
0.00578726
0.0103758
0.0059623
0.00587983
0.00580442
0.00582853
0.00246813
0.00608495
0.0120815
0.00586054
0.00609652
0.0118542
0.00172046
0.00575326
0.00265236
0.000766846
0.00591722
0.00586225
0.00373646
0.00119217
0.00200309
0.00332256
0.00555482
0.00583655
0.00888642
0.00422041
0.00582834
0.00587174
0.000939976
0.00771199
0.00122385
0.00597439
0.00331657
0.00272481
0.00596077
0.00549887
0.00131647
0.00580546
0.0059329
0.0060218
0.00592758
0.00591532
0.0060715
0.00585915
0.00590133
0.00587793
0.00199781
0.00515683
0.00596773
0.00118962
0.00591742
0.00580095
0.00583813
0.0024848
0.00594728
0.00204115
0.00292272
0.00403919
0.00272044
0.00427576
0.00579687
0.0102329
0.00582762
0.00595437
0.00576648
0.00583577
0.0028713
0.000233799
0.00589494
0.0058427
0.00579979
0.00586544
0.00449204
0.00591509
0.00579763
0.00555839
0.00194879
0.0125336
0.00584832
0.00300004
0.00273472
0.000170427
0.00579675
0.00563077
0.00634083
0.00594426
0.00542893
0.00582342
0.00177908
0.00591009
0.00446544
0.0011643
0.00584055
0.00562585
0.00573358
0.0059238
0.00582546
0.00244747
0.00587112
0.00886997
0.0107935
0.0129281
0.000918667
0.0112839
0.00595938
0.00138293
0.00373165
0.00585978
0.00583472
0.00194576
0.00411976
0.00595782
0.00376476
0.00588704
0.00588642
0.00581381
0.00272575
0.005927
0.00291747
0.00497436
0.00585965
0.0025166
0.0058224
0.00195232
0.0024269
0.0058887
0.00594868
0.00582589
0.0118607
0.00604883
0.00585778
0.00596225
0.00204089
0.00309835
0.000879849
0.00595348
0.00152381
0.0058355
0.00594418
0.005881
0.00272831
0.00325162
0.000577248
0.00161739
0.00591544
0.00582873
0.00195165
0.00103793
0.00595711
0.00282612
0.00583599
0.00263511
0.00590571
0.00584394
0.00124226
0.00582744
0.00151478
0.00247259
0.0123544
0.00306815
0.00383423
0.00544094
0.00243977
0.00575767
0.000489178
0.00589285
0.00582955
0.00183809
0.00584258
0.00335504
0.00205175
0.00591995
0.0116549
0.00324752
0.0113035
0.0112727
0.000941036
0.00568749
0.00521268
0.00605026
0.00579466
0.00197655
0.00579521
0.0107023
0.00731335
0.0132119
0.00860027
0.00584537
0.00236815
0.00586662
0.00588229
0.00407584
0.00308856
0.0132639
0.00362869
0.00595156
0.00193562
0.00591698
0.0120506
0.0059092
0.00595761
0.00591867
0.00584341
0.00594828
0.00594132
0.00552044
0.00101822
0.00594386
0.00272578
0.00589376
0.00584513
0.00238821
0.00608886
0.00115029
0.00591367
0.0033063
0.00224003
0.00584754
0.00579938
0.0059953
0.00368129
0.0157865
0.0047203
0.0057994
0.000812282
0.0058267
0.00542997
0.00389499
0.00591957
0.00595109
0.00580442
0.00584423
0.00584556
0.0053163
0.0118094
0.0125634
0.00235227
0.00123156
0.00308751
0.00549302
0.00595635
0.00590745
0.00392928
0.00738187
0.00164601
0.00606483
0.00593946
0.0124865
0.00577308
0.00583218
0.0128402
0.00307006
0.00595901
0.00586202
0.0058418
0.00589422
0.00543813
0.00581004
0.00145536
0.00146323
0.00508541
0.00580285
0.00590432
0.00304923
0.00598702
0.00602116
0.0115376
0.00583786
0.00594153
0.00586435
0.0128214
0.00572518
0.00385822
0.00606498
0.00580278
0.00589564
0.00362946
0.00238286
0.00600108
0.0058836
0.00152094
0.00592634
0.000806872
0.00124775
0.00213642
0.0060452
0.00529053
0.0038987
0.00382987
0.00221556
0.00505563
0.00123526
0.00533009
0.0030998
0.0123943
0.00212983
0.00219669
0.00175021
0.00114168
0.00583318
0.00230843
0.00591611
0.000754355
0.00253274
0.00586932
0.00592015
0.00313904
0.005888
0.00188588
0.00536763
0.00590133
0.00202301
0.00591935
0.00307729
0.00199254
0.00308091
0.00219201
0.0133867
0.00587528
0.000726813
0.00566962
0.00592932
0.00591246
0.00586187
0.001354
0.00586539
0.00589976
0.00280461
0.00590346
0.00106581
0.00590285
0.00548682
0.00799606
0.0132413
0.0114934
0.00583402
0.00371966
0.0031969
0.00141637
0.00731502
0.00593909
0.00881018
0.00253392
0.00587078
4.55294e-05
0.00587315
0.00598971
0.0129358
0.00582641
0.00585035
0.00242583
0.00039645
0.00367396
0.00569796
0.000817476
0.00560729
0.00563976
0.00591655
0.0029591
0.00692906
0.00567532
0.00592462
0.00589542
0.00595988
0.00581872
0.00582103
0.0120001
0.000388795
0.00191883
0.00204374
0.00586392
0.00596128
0.00216766
0.00418546
0.00276021
0.0057625
0.00589971
0.00542386
0.00583018
0.00128417
0.000405318
0.0125494
0.0058595
0.00592373
0.00516953
0.00105411
0.0116092
0.00209605
0.0091992
0.00523353
0.00590332
0.0056177
0.00601714
0.00173961
0.00580711
0.00114115
0.00386185
0.00897684
0.00591328
0.00602269
0.00585156
0.00841377
0.00592008
0.00475051
0.00164616
0.0058383
0.00114983
0.00592462
0.00187847
0.00390128
0.00316245
0.00589568
0.00591634
0.0056728
0.0052078
0.00528681
0.00567187
0.00384272
0.00580218
0.0058976
0.00579705
0.0086468
0.00776792
0.00592721
0.000969967
0.00222246
0.00581866
0.00130643
0.00285237
0.00594491
0.00589586
0.00581767
0.00603543
0.00213952
0.00257301
0.00489704
0.00182585
0.000914232
0.00603705
0.00238182
0.00523987
0.00581765
0.00590216
0.0021827
0.00464942
0.00572515
0.00596118
0.00602836
0.00519706
0.00366367
0.00580213
0.00424726
0.00932571
0.00377628
0.00595825
0.00586448
0.00373793
0.00580054
0.00593935
0.00593876
0.00220655
0.00583406
0.00364895
0.004182
0.00592398
0.00326569
0.00342263
0.0058247
0.00431391
0.00576271
0.00595833
0.00590722
0.0059141
0.0023495
0.00606749
0.00604574
0.00936459
0.00583611
0.00594922
0.00597282
0.0059388
0.00456394
0.00581794
0.00582422
0.00832374
0.00421816
0.0102038
0.00904946
0.00401052
0.00584203
0.00552381
0.00584962
0.00116525
0.00584693
0.00177715
0.0058743
0.00234093
0.000358226
0.00219799
0.00339236
0.00586517
0.0058344
0.00582852
0.00413775
0.00374968
0.0058172
0.00301926
0.00193843
0.00117411
0.0056754
0.00583869
0.0154346
0.00406231
0.00198144
0.00593991
0.00568949
0.00583177
0.00581221
0.0105535
0.00305406
0.00586535
0.00584179
0.0054757
0.00595002
0.0102444
0.0105886
0.00282924
0.00384763
0.00583544
0.000744505
0.00591615
0.000429148
0.00595454
0.00450075
0.00185231
0.00595713
0.004729
0.00509004
0.00168513
0.00593907
0.00549283
0.00594204
0.00569917
0.00998703
0.00564103
0.00195274
0.00203747
0.00132097
0.00596078
0.00116193
0.00533795
0.00592422
0.00408801
0.00586015
0.0060086
0.00550783
0.00462779
0.0107973
0.00450845
0.00336399
0.00403575
0.00119504
0.00585059
0.00205536
0.00580441
0.00577883
0.00408825
0.00576626
0.0059107
0.00117565
0.00400253
0.00586239
0.000981981
0.00588342
0.00595913
0.00580274
0.00579229
0.00584121
0.00599755
0.00581942
0.00317928
0.00752049
0.00593692
0.00545237
0.0058831
0.00580021
0.00314909
0.00597967
0.00585237
0.0129011
0.00365309
0.00228321
0.00138606
0.00127353
0.00593703
0.00530113
0.00583296
0.00364963
0.0022839
0.0112969
0.0122139
0.0118759
0.00593571
0.01148
0.00722577
0.00586219
0.00596222
0.000466257
0.00150782
0.0117865
0.00757783
0.00580869
0.00583541
0.0052597
0.00116047
0.00320456
0.00149166
0.00125287
0.00583314
0.00166083
0.00584929
0.00322162
0.00597149
0.00161269
0.00589091
0.00266168
0.0031824
0.00193618
0.0020481
0.00594385
0.00312201
0.0066221
0.00472928
0.0105172
0.00534306
0.00598252
0.00595849
0.00595614
0.00198728
0.00205446
0.00333897
0.00439344
0.0058357
0.00206761
0.0060717
0.00613628
0.00591473
0.00595088
0.00180696
0.00595844
0.0087789
0.0029852
0.00592537
0.00592348
0.00579469
0.00256144
0.00593125
0.0104427
0.00584227
0.00594876
0.00607177
0.00448826
0.00590398
0.0100668
0.00215683
0.0059482
0.00161269
0.00588709
0.00594485
0.00583446
0.00591933
0.00587528
0.00847633
0.00307613
0.00581138
0.00586241
0.00593252
0.00586277
0.00587135
0.00593195
0.00569363
0.00318357
0.00594969
0.00296988
0.00580466
0.00586256
0.0060661
0.00606019
0.0059378
0.00189182
0.00590751
0.00264333
0.00606722
0.00579613
0.0059384
0.00141807
0.00074044
0.00269021
0.00603765
0.00420089
0.00429495
0.004742
0.00601289
0.0022953
0.00572958
0.00446048
0.00252887
0.0058759
0.00593747
0.00144655
0.00324796
0.00414778
0.00591959
0.00212922
0.00991212
0.00536899
0.000724343
0.0058334
0.00589203
0.00203746
0.00338212
0.00596016
0.0108882
0.00541579
0.0107517
0.00588802
0.00592795
0.00584043
0.0113207
0.00113056
0.00236008
0.00320058
0.00583292
0.0059308
0.00205299
0.0053276
0.00585014
0.00468265
0.00565203
0.00198201
0.00593307
0.00583665
0.0069779
0.00582647
0.00602282
0.00252159
0.00593148
0.0048836
0.00255007
0.0030339
0.00595965
0.00414201
0.00581336
0.00581316
0.00561833
0.00584571
0.00595785
0.00594196
0.00584719
0.00586142
0.00524067
0.00584594
0.0059192
0.00192594
0.00224636
0.00582977
0.00129838
0.00592187
0.00414607
0.00597995
0.0059263
0.00589051
0.0040106
0.00591964
0.00863304
0.0055698
0.00582807
0.00207683
0.00378604
0.0058486
0.00571831
0.00610163
0.00603988
0.00288053
0.00580159
0.00156761
0.00580072
0.00585149
0.00587499
0.00268223
0.00384796
0.00584956
0.00585605
0.00311865
0.000717029
0.00100102
0.00420552
0.00193385
0.00364252
0.00592608
0.00582357
0.00582682
0.00580179
0.00579097
0.000546982
0.00593458
0.00584615
0.00173428
0.00570315
0.00584901
0.00450169
0.0014907
0.0037763
0.00587704
0.00386839
0.00595808
0.0104427
0.00289814
0.00589841
0.00696244
0.00586342
0.0059282
0.0058798
0.00410464
0.0054471
0.00583146
0.00586306
0.0117213
0.00454007
0.00582888
0.00441738
0.00591741
0.00591496
0.00231352
0.00383405
0.00211059
0.000893069
0.00516443
0.00113464
0.00900441
0.00949716
0.000926642
0.0129243
0.00580708
0.00586387
0.0059327
0.00585303
0.00293633
0.0106953
0.0060049
0.000985079
0.000927705
0.00689679
0.00317988
0.00594686
0.00572214
0.00583549
0.00274317
0.00593965
0.00454428
0.0059525
0.00591553
0.0112952
0.00586796
0.00138476
0.00246168
0.000829898
0.00331198
0.0058257
0.00571914
0.00585104
0.00592689
0.0118571
0.0058509
0.00587318
0.00101579
0.00178176
0.0059626
0.00855927
0.00600471
0.0121009
0.00174149
0.00590028
0.00083101
0.00582573
0.005824
0.00438194
0.00609151
0.00549011
0.00281662
0.00584359
0.00597257
0.00413762
0.00990571
0.00249267
0.00584758
0.00920718
0.00580662
0.00355415
0.011661
0.00572434
0.00591942
0.00580146
0.00825286
0.00575245
0.00339809
0.00376027
0.00548111
0.00562501
0.00153585
0.00670873
0.0107807
0.00111445
0.0026601
0.0026952
0.00125169
0.00595341
0.00298782
0.00582533
0.0019139
0.010263
0.00112944
0.00245284
0.00585073
0.0126722
0.00395579
0.00571603
0.000824316
0.00589191
0.00594083
0.00594995
0.00276714
0.00585149
0.016421
0.00589041
0.00583549
0.00592758
0.00579436
0.00592367
0.00585894
0.0119751
0.00594601
0.00882694
0.00583571
0.00417397
0.00593189
0.00589422
0.00967786
0.00596305
0.00598109
0.0111401
0.00583198
0.0104722
0.00438027
0.0126787
0.00125347
0.0158765
0.00586979
0.00579697
0.00546269
0.00279507
0.00579629
0.00583865
0.0123799
0.00584601
0.00594305
0.00144925
0.00226915
0.00591389
0.00585114
0.00280179
0.0059152
0.00593191
0.00587503
0.00594494
0.0089511
0.00595778
0.00593068
0.000844723
0.00591765
0.0058264
0.00585298
0.00604786
0.00604235
0.00582138
0.0104369
0.00358764
0.00462284
0.00582839
0.00582565
0.00583394
0.00204218
0.00380787
0.00582538
0.000932993
0.00586315
0.0024821
0.00549139
0.00276297
0.00414018
0.00326513
0.0058377
0.00585376
0.00191143
0.00590458
0.00110275
0.00447831
0.00327755
0.0105794
0.00319034
0.00586271
0.00551682
0.00410192
0.00563175
0.00574148
0.00578799
0.00425816
0.00338892
0.00594488
0.00279568
0.0112265
0.00330332
0.00227834
0.00234526
0.00988912
0.00361535
0.00581436
0.00593813
0.0199424
0.00645431
0.00407727
0.000341371
0.00471222
0.00130785
0.00926546
0.00156801
0.00382356
0.00583799
0.0119438
0.00101812
0.00589752
0.00167424
0.00327282
0.00394253
0.00587939
0.00338665
0.00553495
0.00579635
0.0019003
0.00512198
0.0113227
0.00587312
0.00317995
0.00584642
0.000972756
0.00293213
0.00585479
0.00323278
0.00572119
0.0142447
0.00183111
0.00593815
0.00191341
0.00587591
0.010889
0.00574579
0.00595562
0.00582966
0.00116334
0.00594437
0.000538155
0.00583399
0.0105259
0.00583012
0.00593469
0.00225265
0.00581626
0.00586511
0.00582458
0.000791105
0.00286977
0.0053313
0.00486737
0.00580884
0.00584062
0.00311683
0.00593158
0.00582943
0.00207032
0.0144691
0.00244026
0.0110542
0.00582969
0.00525732
0.00596838
0.00111993
0.00570955
0.00206866
0.00245201
0.0135823
0.00592697
0.012067
0.00594684
0.00596201
0.0058405
0.00515391
0.00204992
0.00558398
0.0056541
0.00589967
0.00992584
0.00137369
0.00930801
0.00321577
0.00262736
0.00580033
0.00265387
0.00593318
0.00583659
0.000578175
0.00586546
0.000754202
0.00583937
0.00581424
0.00259051
0.00575166
0.00137202
0.00235388
0.00734076
0.00592949
0.0057947
0.00121518
0.00593331
0.00387578
0.00268224
0.00508254
0.0123717
0.00596169
0.0110561
0.00169004
0.00594096
0.0101206
0.00259876
0.00447203
0.00499093
0.00250324
0.00110276
0.000803952
0.00607537
0.00463797
0.00214285
0.00286906
0.00580069
0.00378682
0.00600837
0.00995403
0.00591227
0.00597766
0.00581616
0.00595411
0.00589703
0.00585401
0.0102769
0.00583667
0.0058486
0.00204663
0.00594663
0.00309541
0.00305742
0.00581301
0.0047899
0.00584063
0.00368504
0.00584664
0.00593473
0.00595699
0.00195162
0.00583653
0.00147481
0.00252581
0.00580421
0.00596131
0.0059053
0.000769426
0.00589619
0.00585933
0.00579961
0.00587182
0.00678085
0.0058455
0.0059127
0.00908603
0.000942072
0.00225579
0.00569064
0.00584133
0.00572879
0.00214674
0.00600712
0.00484235
0.00583417
0.00585986
0.00515107
0.00577862
0.00584296
0.00274634
0.000576385
0.00579982
0.00579803
0.00116972
0.00274718
0.00323506
0.00583925
0.00591767
0.00464289
0.00594434
0.00595739
0.00583121
0.00254808
0.0109514
0.000780819
0.0167189
0.00450082
0.00583889
0.00583809
0.00500694
0.00595973
0.00223908
0.00844015
0.00242819
0.00230043
0.00584512
0.00581031
0.00552258
0.00592638
0.00592122
0.00399405
0.000937619
0.005928
0.00259758
0.00592163
0.00590599
0.00594033
0.00600343
0.00323066
0.005848
0.00553398
0.00558995
0.00594648
0.00184547
0.00549828
0.00436027
0.00602006
0.00106161
0.00582438
0.00587631
0.0058448
0.00415626
0.00543863
0.00213177
0.00596254
0.0059037
0.00196007
0.00109498
0.00601385
0.00593979
0.00302169
0.00512894
0.00594999
0.00912869
0.0108824
0.00573366
0.0116906
0.00589277
0.00262782
0.000599161
0.00580297
0.00279587
0.00241869
0.00142002
0.00340901
0.000841057
0.0120508
0.00580465
0.00977142
0.00593271
0.0111876
0.00592647
0.0117028
0.00535546
0.005826
0.00582331
0.00594937
0.00583737
0.00321657
0.00261968
0.0195804
0.00583793
0.00367443
0.00592449
0.00586295
0.00595839
0.00844714
0.0205693
0.00561431
0.00562444
0.00973563
0.00596461
0.00603647
0.0127244
0.0104925
0.00585752
0.0011913
0.00281099
0.00582456
0.00274686
0.00581248
0.00589137
0.00594907
0.00231931
0.00595411
0.00179374
0.00577977
0.00575216
0.00586655
0.00594914
0.00289478
0.005883
0.00267364
0.000699846
0.00756729
0.0124825
0.00594403
0.0059032
0.00590803
0.00105124
0.00158179
0.00589998
0.0057512
0.00575983
0.00104336
0.00585424
0.0128878
0.00583992
0.0058379
0.00581741
0.0055227
0.00126498
0.00553684
0.00139108
0.00201023
0.00577591
0.00556357
0.00497499
0.00591024
0.00213117
0.00591653
0.00578117
0.00596867
0.0059387
0.00596001
0.00590072
0.00214893
0.000227857
0.00576
0.00585212
0.00259264
0.00331759
0.00231927
0.0084095
0.00284088
0.00166414
0.00446895
0.00127201
0.0105559
0.00586175
0.0059365
0.000477339
0.00585192
0.00234481
0.00590092
0.0116171
0.00578767
0.00905788
0.00592411
0.00580197
0.00206404
0.00583905
0.0011493
0.00312484
0.00591366
0.00595332
0.00586587
0.0059074
0.00562605
0.005952
0.0110683
0.00579845
0.0059122
0.00588094
0.00196047
0.00535714
0.00206253
0.00225639
0.000969233
0.00274264
0.00251193
0.0018178
0.00591701
0.00582284
0.00582692
0.0058535
0.00292529
0.00574968
0.00447323
0.00133352
0.00583713
0.00702003
0.00582744
0.00806341
0.00423455
0.0122469
0.00208024
0.00909118