/*--------------------------------*- C++ -*----------------------------------*\
| =========                 |                                                 |
| \\      /  F ield         | OpenFOAM: The Open Source CFD Toolbox           |
|  \\    /   O peration     | Version:  v2012                                 |
|   \\  /    A nd           | Website:  www.openfoam.com                      |
|    \\/     M anipulation  |                                                 |
\*---------------------------------------------------------------------------*/
FoamFile
{
    version     2.0;
    format      ascii;
    class       volScalarField;
    location    "400";
    object      omega_0;
}
// * * * * * * * * * * * * * * * * * * * * * * * * * * * * * * * * * * * * * //

dimensions      [0 0 -1 0 0 0 0];


internalField   nonuniform List<scalar> 
37809
(
0.0231102
0.0796629
0.0288542
2.12693
0.0237362
0.0247779
0.0238967
2.80575
0.0252882
0.0366886
0.0286032
0.0294278
0.0243875
0.0274752
0.0256861
0.0264109
0.0247784
3.8159
0.0293846
0.0246909
0.0264062
3.06511
0.241962
0.025819
3.18123
0.0261732
0.0289502
2.80275
0.0346644
0.0227406
0.0283796
3.09882
0.0245945
0.0522649
0.0294867
0.0245981
0.0923271
2.44777
0.911973
0.023407
0.0222896
0.142502
0.0264803
0.0379709
0.0245485
0.0302749
0.0257174
0.0267507
0.0263443
0.0941871
2.88701
0.19099
0.0557505
0.0495236
0.0292217
0.0238647
0.136572
0.0284195
0.194067
2.82208
0.0302441
0.034671
1.62711
0.0379917
0.0265941
0.0256862
0.0769535
4.23587
0.0361699
0.060094
0.0238718
0.0251945
0.19413
0.155146
0.0241162
0.319552
0.0917012
0.0229222
0.0262327
0.0256882
0.0386523
3.78824
0.0248273
0.0553453
0.0683935
5.10672
0.0248706
2.86851
0.0362456
0.0924509
0.0261843
2.94983
0.0331123
0.0242036
0.0341958
0.0229342
3.35223
0.0229228
0.0220747
3.2424
0.0251042
0.140078
0.0231294
0.0264556
0.0616631
0.0254746
3.07157
0.0244288
2.69913
0.974826
0.0242005
0.154192
4.02942
0.0234058
2.87092
4.00497
0.0255784
0.0236767
0.145429
0.025088
0.0894223
0.0412459
2.90668
0.0245081
0.023352
0.145884
0.022815
0.0263542
0.0228282
0.0228816
0.0286048
0.0256305
0.0243428
0.0233539
0.0228143
0.0239679
0.0396332
0.196
3.49253
0.0270214
0.0297328
0.143264
0.0277568
0.0250312
0.0228933
0.0239183
0.0297096
0.0266645
0.0228458
0.0228126
0.286698
0.0250306
0.0254111
0.170375
0.0228385
0.0282174
0.0228145
2.55328
0.0220983
0.0240923
0.0246092
2.93115
3.07094
0.0256559
0.0228568
0.0580119
0.024617
0.288941
0.0263522
0.253031
0.0247078
0.0970994
0.0250143
0.0250902
0.0277622
0.0233338
0.0253235
0.0244375
0.0454184
0.023961
0.0239779
0.143962
0.0237704
0.0239728
0.0244947
0.0230264
2.9003
0.0250185
3.36939
0.0867572
0.47661
0.106203
0.0247042
0.140856
0.0242263
0.0248139
0.0248118
0.16649
0.0249496
3.02614
0.471096
0.0386658
0.0247371
0.0267745
0.0306157
0.0256338
0.0240651
2.85249
0.0230771
3.966
0.085497
0.149872
0.474277
0.0957156
0.0249341
0.0221109
0.149655
0.145366
0.0231239
0.254132
0.0773592
0.0247883
0.0305832
0.0265218
0.0254122
0.147746
0.0239198
3.3105
0.022803
0.495817
0.0259151
0.0247873
0.0252163
0.0247384
0.0265963
0.0833266
3.11643
0.0265279
0.0257201
0.0229949
0.102839
0.0240223
0.0603851
3.36635
0.0385626
0.0287023
0.145326
0.0563629
3.43793
0.0400161
0.0244085
0.0239082
0.0340883
2.92239
0.0251426
0.0244892
0.0521573
0.0245079
0.0249454
0.0291528
0.0239644
0.0244094
0.0249131
0.0259566
3.73167
0.0247993
3.17339
0.15297
0.0229226
0.0254237
0.0240945
0.024948
0.0238873
0.0470882
0.0414246
3.7793
0.0267482
0.0264527
0.0246313
3.96255
0.146691
0.0246531
0.0265309
1.96281
0.0993651
0.0244997
3.14186
0.0337252
0.0236578
0.245089
0.0264655
0.0256403
0.0504461
3.33274
0.0367183
0.0236699
3.23305
0.0243914
0.0243777
0.0551246
0.0967461
0.0238106
0.0264461
0.0346389
0.0256597
0.027336
0.0243927
0.0253011
0.0257536
0.0518242
0.0289867
0.024797
0.0248287
0.0587712
0.0886126
0.0236243
0.0807258
0.0230448
1.17038
0.0574218
0.0293146
0.052068
4.02467
0.427865
3.25638
0.0231441
0.036225
3.35925
0.0245686
0.0266658
0.0473419
0.0484544
1.0762
0.0227968
0.0248054
0.0233868
0.0250221
0.140284
2.9776
0.025025
3.12196
0.0236231
3.62217
0.0828941
0.0232893
0.0248274
3.43319
3.50066
0.0357491
0.0285171
0.0274248
0.0253208
0.0262608
3.57836
0.0379167
0.0251072
0.0221749
3.17803
0.45765
0.0241051
0.0228445
0.228602
0.0318454
0.0228599
0.0233101
0.0566142
0.0238866
0.155255
0.0673745
0.0230302
0.0303387
0.0230153
0.0256046
0.022815
0.0737352
0.0238691
0.0240951
0.0243776
0.0410789
2.90544
0.0289791
0.0251654
1.95201
0.145284
0.0552793
0.0233323
0.0262133
0.131654
0.0827571
3.04162
0.0234423
0.0298318
2.77508
0.0446893
0.0467463
0.0233221
0.0234332
0.0233526
3.52249
0.0241048
0.0233513
0.024002
0.0287134
3.31024
0.0265706
4.67948
0.102664
0.0228498
0.0309817
0.117959
0.0257195
0.026774
0.0421122
0.0849336
0.129718
0.0229558
0.0240931
0.0280593
0.0478513
0.22126
0.023878
0.0233554
0.0258454
0.259878
0.302427
0.101863
0.0288137
0.0227783
0.0245768
0.0238889
0.0227846
3.03621
0.0455292
0.0487778
0.0296929
0.0286167
0.0305035
3.29815
0.0246805
0.983897
0.0246476
0.0293191
0.0235356
0.0251429
0.0230398
0.0227925
0.0237316
0.0233226
0.0236517
0.0274634
0.0247237
0.0251089
2.58378
0.0248769
0.0257526
0.0240764
0.0239683
0.0276247
0.0244842
0.0295744
0.0798578
0.0249848
0.0471795
0.0233494
0.0247722
0.075341
0.0235792
0.023374
0.0696526
0.0312401
0.0541055
0.0236396
1.06784
0.028759
2.855
0.0247172
0.0256564
0.564904
0.0536371
0.023532
0.0266856
0.319024
3.13702
0.0239845
0.161155
0.0247046
3.52252
0.0354517
0.0240861
0.143312
0.0250484
0.0240767
3.09214
1.23927
0.0230913
0.0249822
0.0236324
0.0227106
3.17073
3.46936
0.022696
2.37051
0.0642622
0.0228793
0.0230099
0.0226925
0.0279075
3.14444
2.6959
1.19197
0.0233999
2.84022
0.0244916
0.024222
0.162373
0.0239944
0.0521624
0.103117
1.95036
0.0267533
0.145616
0.0226848
0.0747627
1.17743
0.0420047
0.025107
0.0832871
0.0769777
0.0240823
0.0520202
0.0245897
0.0305628
0.0270915
0.0327317
0.0250481
0.0458181
0.0595979
3.58722
0.0226835
0.0254823
0.0239346
0.0385127
3.17803
0.0990302
3.13148
0.0522676
0.0280532
0.0260766
0.0301664
0.0600578
3.11133
0.0525095
0.0242359
0.0255326
0.0600473
0.0352932
0.0442702
0.0288733
0.0542608
0.147685
3.54527
0.0239585
0.0228626
3.1952
0.0249784
0.0235597
0.022802
0.0229015
0.0262101
4.21443
2.92189
2.31252
3.08942
0.0244316
0.0262296
0.440071
0.0262247
0.0280347
0.037808
0.432064
0.0237248
0.0244067
0.0230983
0.0234291
0.0843944
3.73409
0.0233762
0.0309996
0.0493792
0.0335675
0.023925
0.0228409
0.186962
0.0226526
1.5891
0.164459
0.0386612
0.0256257
0.0229744
2.59149
0.028956
0.0290739
0.0248105
0.0238563
0.0332232
0.116919
0.0336046
0.0261009
0.0247197
0.0396501
0.102581
0.0379126
0.0257252
0.0598605
0.027138
2.90877
0.0586015
0.1315
0.0254769
2.79644
0.217413
1.20154
0.0565989
0.0394435
3.38616
0.0244789
0.0267205
0.0445186
0.0472125
0.023706
0.0409034
0.662026
0.0254916
0.0260113
4.61494
1.51849
0.0434817
0.0386394
5.39918
0.0242609
0.0402801
3.53832
0.0252925
0.13369
0.0229466
0.0252439
0.0229628
0.0924322
0.0288114
0.0467544
0.0452322
0.0270713
0.160971
0.0282309
0.0478461
0.0667234
0.0252528
0.0251516
0.0228206
1.8326
0.0246972
0.0569274
0.0258109
0.02684
0.0236954
0.0261697
3.98623
0.0237823
0.0228471
0.022934
0.027141
2.63319
0.0580128
0.255723
0.023687
0.0247809
0.191785
0.0239411
0.0238542
0.0968974
0.02306
3.17268
0.0884678
0.10868
0.0258725
0.023584
0.0237931
0.0242551
0.0251806
0.4742
0.480198
0.0264972
0.0267728
0.0227127
3.70488
0.0283779
0.0247008
0.0235965
0.0957838
0.0289311
0.0257809
0.110509
2.64774
0.180047
0.0287058
3.08307
0.0231668
0.161267
0.0271487
0.0230812
0.0257447
0.12259
0.0227053
0.0244503
0.0226802
1.5404
0.476642
2.26923
0.0242744
0.0247461
0.0246511
0.0252114
0.0243646
0.0552024
0.026422
0.0252104
0.0226267
0.0229713
0.14089
3.40436
0.0510542
0.0368103
0.0257486
0.0276794
0.0240944
0.023977
0.0282882
0.195308
0.0256959
0.278978
0.0314368
1.47265
0.0246854
3.85092
0.104536
0.0226681
0.023423
3.87599
0.0240895
0.0242028
3.41158
0.0231858
0.0523713
0.0234175
0.850693
0.0249351
0.0244146
3.29605
0.0471078
0.0550362
0.0240856
0.0263556
0.0233138
0.0244921
0.0291283
0.0245392
0.0273227
0.0244469
2.55479
1.54561
1.54541
0.0291371
0.0253028
4.09439
0.0242012
0.0250695
0.0228258
0.0243642
0.0244808
0.051934
3.55394
0.0226684
0.0226662
3.39692
0.0246123
0.0241673
0.0872637
0.0500838
0.143293
2.6724
0.0937449
2.67279
3.17622
0.0249058
2.86995
0.0252556
0.139251
0.0308389
0.0239733
0.0270215
1.93095
0.0260449
0.0239809
3.19361
0.0262786
0.0326156
3.42777
2.3231
0.0244186
0.0662264
0.438501
0.0256707
0.0433404
0.0238156
0.049808
0.328896
0.0242514
0.0237863
0.0494307
0.0227664
0.20722
1.08967
1.15034
0.0247642
1.09474
0.0827155
0.0244399
0.0240814
0.0238022
0.0237605
0.0247217
0.0592133
0.622589
0.025668
0.0244383
0.064251
0.028011
0.0285846
0.0265841
0.0248368
0.0500607
0.02376
0.0281536
0.0235552
0.0245533
0.140415
0.0251236
0.0234991
0.0244432
0.0565945
0.0553145
0.0223086
0.0235765
0.0682428
0.0253326
3.3202
0.0322791
0.0430999
0.0229205
0.0347677
0.026459
0.0240861
3.13904
0.0285287
0.0246324
0.481126
0.0243839
0.0220839
0.0246988
0.0459523
0.0220915
0.176087
0.101922
0.0292164
0.0529689
3.43723
0.0431126
0.0231188
0.0247709
0.0291831
2.51
0.0242037
0.0251971
0.025696
0.0711219
0.0290701
0.0519004
0.275162
0.0249364
0.287544
3.72889
2.64405
0.0803839
0.539672
0.0284244
0.0238675
0.0987438
0.0255834
0.258157
0.0259934
3.08247
0.0502878
0.0242482
0.0238226
0.0974802
0.24854
0.0254561
0.0254126
0.0245574
0.0234147
0.0240877
0.466904
0.0255814
0.0231135
3.53515
0.0237477
0.218111
0.0278705
0.0553813
0.0509374
0.025486
0.0237461
2.88638
3.34922
0.0290707
0.0442027
0.0348752
0.0238172
0.0234506
0.048834
2.73873
0.0241672
0.0270118
0.0999687
0.0440398
0.0243768
0.140242
0.0938636
0.0977091
0.0241216
0.0372556
0.0782555
3.1833
0.0254351
0.0245096
0.0256487
0.0250693
0.0253097
0.0246258
0.210199
0.0231953
0.0263144
0.245318
0.0248325
2.92171
0.0235777
2.74057
0.0228556
2.91751
0.119554
0.176353
0.0253247
2.67637
0.0300166
0.0274093
0.0478748
0.0354997
0.0878066
0.0233659
0.0235874
0.187937
0.0263923
0.250829
0.0397629
2.25362
0.0234818
0.0413011
0.022817
0.0284264
0.192359
0.0361088
0.0445961
0.0236141
0.147043
1.0573
0.0634391
3.08459
0.0423097
0.025103
3.02569
3.52943
3.882
0.0411937
3.3698
3.98645
1.33381
0.0245523
0.0240533
0.0242346
0.0273542
0.022654
3.27263
0.322956
0.022722
0.0562652
0.0378805
0.0249212
0.0224966
0.0858078
0.0483746
0.025095
0.0314293
0.0390351
0.0233344
2.5467
0.249904
0.243368
0.0233254
0.321471
0.0379812
0.265311
0.02307
3.9102
0.0370471
0.0635376
0.0396402
0.0230738
0.0228033
2.6222
0.0250694
0.0285112
0.0614385
0.0414798
0.0262701
0.0275014
0.0240933
0.0243104
0.0286326
0.0243923
0.0526072
0.0536795
0.045323
0.140303
0.0243167
0.061314
3.02626
0.0310647
3.29024
0.0262384
0.0240278
0.0366888
0.739447
0.0221807
0.0257197
0.0361258
0.217823
0.032257
0.0321091
0.0348062
0.0541517
2.6153
0.0249794
0.0286688
0.145063
0.0228371
1.27258
0.0310339
0.058088
0.0267621
0.0247215
0.0299711
0.0439861
0.230669
0.0300738
0.024253
3.12761
0.0784138
3.4468
1.02228
0.0249496
0.0949274
0.0247153
0.0300548
0.0226396
0.0369284
0.027335
4.0054
0.0242781
2.93273
0.0232736
0.0248303
0.0233615
0.0518982
3.28674
0.0252282
0.0431806
0.0246832
0.0423795
3.51621
3.60179
0.0233788
0.035486
0.0228984
0.0232753
0.023763
0.0255947
0.0248604
0.028693
2.99142
0.0260519
0.0877321
0.0499342
0.0230128
0.039767
0.0255671
0.16135
0.0254158
0.0249806
0.0277102
0.0222822
0.0380923
0.0279708
0.146724
0.105504
0.0247441
0.0229904
0.0414888
0.0935985
0.0403305
0.0613539
0.0253039
0.0220926
0.0261603
0.0587605
0.183398
0.0296274
0.0469382
2.33196
0.299341
0.0384496
0.0250418
2.96663
0.138185
0.0231363
0.0243932
0.0244693
0.0231436
0.022482
0.0266526
0.116014
0.0877523
3.21136
2.67269
0.122807
0.0972989
0.0263371
0.0797975
0.0265876
0.022742
0.0466998
0.0253713
0.0287631
0.0263259
0.0546644
0.0227221
0.0261447
0.0253442
0.0247483
0.0235811
0.0251358
0.0237311
0.026645
0.0226303
0.0282267
0.025763
0.0236046
0.0380287
0.0350772
0.0255547
0.0236042
0.0318271
0.0237046
0.0236041
2.94673
0.0252785
0.144697
0.0868159
0.0229437
0.0228477
0.0230748
0.0247055
0.474635
0.456242
2.90075
0.024906
0.0477348
0.0247956
0.0230674
3.23824
0.0505116
0.0228531
0.0236731
0.0241987
0.0675395
0.0231474
0.0259792
0.023595
0.0673828
0.0241256
0.0263045
0.0404583
0.0234774
0.0233621
0.0237977
0.0242247
0.0228059
0.0236509
0.0327951
0.0228058
3.14446
0.0271904
0.0260747
0.0241125
0.110967
0.051229
0.029655
0.0234187
0.0250294
0.397937
0.02352
0.0233625
0.0233155
0.0250217
3.3805
0.0276149
0.0236691
0.0225865
0.0331335
0.0308099
0.0583152
0.127398
0.0299526
0.335036
3.04817
0.0263659
0.0251452
0.0272201
2.2892
2.5519
0.0231584
0.0246292
0.038515
0.0591555
0.0500848
0.0233074
3.29481
0.0228995
3.38146
0.0238332
0.0221182
0.0247155
0.0240745
0.0225697
0.0239095
0.0220929
3.92709
0.0247017
0.0246381
0.02258
0.0227478
0.0340761
0.0267172
0.334218
0.0227742
0.0265587
0.335438
0.11422
0.0269037
0.0589125
0.182548
0.0254222
0.0237962
0.0470986
0.100837
0.0681167
0.0540737
0.0344792
0.0236767
2.97937
0.0308107
0.0240328
0.0260529
0.234543
0.24191
0.619941
0.0242204
0.0542076
0.0337712
0.0249107
0.0296769
0.0999799
0.0225971
0.0253789
0.0250785
0.0254997
0.0230746
0.0262052
0.0256064
0.0250819
0.0223617
0.143792
0.120077
0.0241776
0.176962
0.0230743
0.0225643
0.0236584
0.0288967
0.0241325
0.0757191
0.0626121
0.0289502
0.0291011
3.04283
0.0225416
2.82325
0.023587
0.0246876
0.0269209
0.0252054
0.0286151
0.678752
0.0258357
0.0239554
0.0225547
0.0227654
0.030226
0.0254185
0.0225496
2.77683
0.0357538
3.15755
0.0240694
0.0611492
0.0674199
0.667592
0.0225334
0.0273946
3.62281
0.0251918
0.0273524
0.0242256
0.110043
0.0247817
0.0414444
0.177699
0.0239467
0.0279022
0.0262614
0.0231574
0.0233484
0.0351717
0.0227606
0.273051
2.48039
3.30984
0.239095
2.8704
0.0248767
0.0864396
0.0471471
0.0244845
0.023531
0.0681419
0.0892709
0.0249535
0.0354909
0.0248436
0.0248633
0.0235589
0.0574123
0.0242343
0.0631575
0.0351171
0.0244799
0.0361162
0.0238378
0.0995452
0.089331
0.0258934
0.0251862
0.0233444
3.04633
0.0256521
0.0253598
0.0247878
0.0521987
0.057391
2.49992
0.0247256
0.132349
0.0235252
0.0248253
0.0242608
0.0540127
0.0414064
0.290243
2.61888
0.0233402
0.0239515
0.0822341
0.2038
0.0250887
0.0654957
0.0235483
0.0366971
0.0250136
0.024086
0.166018
0.0240096
0.133268
0.0328445
3.09154
0.0387963
0.0355661
0.0295214
0.0433791
0.0269966
0.466766
0.0243036
0.022741
0.104751
0.0237146
0.0368752
0.0731821
0.0231302
3.23054
0.153645
0.231862
2.94705
0.130344
0.0267872
3.06083
0.0297795
0.0224578
0.035133
0.022465
3.55395
3.58727
3.60239
3.9618
0.0245789
0.0288666
0.0244845
0.0244022
0.0395198
0.0384099
3.52945
5.07542
0.0250826
0.0583175
0.0255615
3.06059
0.0246419
0.0248834
0.023934
0.0244266
0.0239243
0.0241418
0.0261263
0.207301
0.0238812
0.0352095
0.0242999
0.0240234
0.0328323
0.0263675
0.181387
0.0246559
0.0294088
2.87131
0.0262602
0.0227523
0.0258233
0.0350935
1.18775
0.298695
0.0227616
0.177388
0.0245442
0.0311292
0.0272639
0.0231012
0.0250837
0.0227399
0.0240136
0.0245845
0.0299584
2.94897
3.20811
0.0806353
0.104079
0.0264568
0.0345284
0.0247447
0.0249026
0.0335914
3.91655
0.102994
0.0261967
0.0237518
3.13531
0.0261797
0.0234051
3.55774
0.0267757
0.0243064
0.0231747
0.0244511
0.0227973
0.0310064
0.0264637
0.137629
0.0879959
0.0323253
0.0229362
0.0255495
0.0389134
0.0256619
0.0254567
3.40864
0.0228103
0.0248089
0.0227918
3.31434
0.0263398
0.0323379
0.0265372
0.0259704
0.0258258
0.0278786
0.0913895
0.0246311
2.60817
0.099898
0.0239745
0.162629
0.165257
0.0879979
0.0257833
0.445712
0.0255513
4.57852
0.077084
0.0269943
2.56604
0.0274768
0.0421335
3.15428
0.0522716
0.0545576
0.0474359
0.183849
0.0234002
0.116163
0.025613
0.208295
0.0417138
0.0227845
0.0232893
0.0272644
0.0256989
0.0791888
0.029584
0.0229188
0.0337568
0.0253552
0.0412307
0.095774
0.0676467
0.0523519
0.347784
0.0227796
2.84803
0.0270246
0.0242388
0.0256356
0.0231228
0.0909032
0.0237827
0.0228962
0.065977
0.0255528
0.197237
0.02292
0.026925
3.39566
0.471006
3.11974
0.0257127
0.171225
0.0329716
0.141918
3.43766
0.0237524
3.68385
0.0386025
0.0247083
0.281452
0.0242457
0.0249723
3.52455
0.0243856
0.0244275
0.0769332
1.34998
0.0273246
0.0274236
0.165287
0.028068
0.0277708
0.0256145
0.0477054
3.48648
0.0276307
0.0255395
0.0242931
0.0248405
0.0230654
0.023074
2.97921
0.310205
0.0360496
0.056573
0.0230922
0.024983
0.0465222
0.0255093
2.86226
0.0267706
0.0243107
0.0294016
0.0235857
0.161282
1.86713
3.17733
0.0261554
0.0255412
0.0316138
0.155923
2.38646
0.133765
3.73519
0.0311121
0.025733
0.0280787
0.0252148
0.107674
0.0224653
0.18391
0.0452381
2.57755
0.0230494
0.0255449
0.0231484
3.48321
0.0239307
0.146206
0.0873256
0.0244516
0.179553
0.0242211
0.102409
0.0386327
0.0285196
0.0241893
0.0251236
0.0273891
0.0318789
0.0303466
0.0276179
0.0336058
0.0229219
0.0228205
0.0265585
3.66685
3.60938
0.0247977
0.1279
0.0488979
0.0234682
0.156714
0.0284954
0.0251746
0.0245177
0.0229086
0.0266119
0.046501
0.0529696
2.57176
0.0653424
0.237348
0.0262731
0.0296875
0.025125
0.0229152
0.0246693
0.0559173
0.0284021
0.0329209
0.0249433
0.025712
0.0274294
0.0469194
0.0227491
0.0314883
2.54178
0.046617
0.0249291
0.0244734
0.0345354
0.0227537
0.0237337
0.0240649
0.0797889
0.0227448
0.0278481
0.0403092
0.0245627
0.0542605
0.325086
0.0234612
0.0258246
0.0267616
0.0249535
0.0249959
0.0239367
0.0946373
0.0260843
0.0282838
3.7162
0.0246234
0.0250765
3.67272
0.0237046
0.0382923
0.0221946
0.0227447
3.24348
0.0304076
3.21535
2.96632
4.42799
0.0227973
0.029198
0.0235704
0.181421
0.0235569
0.104948
0.0230268
0.0799906
0.925648
0.132014
0.0434268
0.0240387
0.0227115
0.0245624
0.0320788
0.032566
0.0221959
0.121034
0.100363
0.365472
0.0270665
0.0235842
2.56827
0.034788
0.0462705
0.0237344
0.0335994
0.0231379
0.0234076
2.73931
0.0273478
0.0240432
0.0244768
0.0259552
0.0242826
3.19895
1.17542
0.0323693
0.0335059
0.024602
0.280198
0.0248243
0.877101
0.0250059
0.0373682
0.10317
0.0249793
0.0284672
0.12023
0.116416
0.024286
0.028452
0.0243917
0.0274518
2.82822
0.0277584
0.0993993
0.0351338
0.159679
0.0247878
0.184499
0.0297741
0.0247838
0.0425508
0.0237483
0.0247801
0.0271239
0.0360551
0.317924
0.0254541
0.0290317
0.0282667
0.180595
0.0242466
0.0540424
0.0230495
0.0268252
0.0304342
0.0259588
0.0254751
0.157576
0.025873
0.0246776
0.124963
0.0259427
0.0250344
0.0228301
0.0257092
0.0240862
0.0260666
0.0238631
0.0295377
3.33237
0.0244694
0.0309579
0.0253981
0.0227462
0.0272753
0.0244758
0.0242573
1.56589
0.0483265
0.065252
0.145412
0.109702
0.0244682
0.0257788
0.0229336
0.0275768
2.85776
2.96247
3.05117
1.72205
0.0246533
3.72214
3.16369
0.0237687
0.0247052
0.489629
0.1322
1.73704
0.665762
0.0224762
0.0236225
0.0286464
0.18553
2.68386
0.0846383
0.264772
0.0229389
0.118121
0.0231042
0.0272038
0.0242599
0.123875
0.0241194
0.0816872
0.0373807
0.0553324
0.0342226
0.025049
0.0467289
2.77555
0.0348767
0.312092
0.0284699
0.0243908
0.024928
0.024952
0.0558673
0.096842
0.0268581
0.038599
0.0245159
0.0804075
0.030949
0.0412869
0.0256405
0.0246636
0.107459
0.0249101
3.38366
0.0402986
0.0233795
0.0241891
0.0221351
0.110434
0.0232902
2.84404
0.0244174
0.0250956
0.0269729
0.20427
0.0257515
2.82247
0.0561128
0.0250854
0.123885
0.025914
0.0250279
0.0245139
0.0241715
0.0260211
3.16222
0.0382323
0.023407
0.0244862
0.0233107
0.0244812
0.0242753
0.0233332
0.0272292
0.0298124
0.0242791
0.0394005
0.0230578
0.0224935
0.0274742
0.0274418
0.0253389
0.0696591
0.0230809
0.0428434
0.0309011
0.022526
0.0237027
0.133578
1.60647
0.0475843
0.0280622
0.0409203
0.030595
0.0255655
0.0249017
0.0978931
0.0271683
0.0304841
0.0361606
0.0253699
0.0253832
0.0833799
0.0270584
0.0415728
0.0233427
0.048751
2.6718
0.026128
0.257778
0.0234538
0.0241161
0.0537464
0.0275064
0.0245704
2.51147
3.88123
2.79742
0.0246174
0.0250195
0.0236039
2.96987
0.186197
0.0391134
0.0516962
0.0234566
0.0233543
0.0594596
0.0261086
0.0249354
0.0282345
0.0278154
0.0964525
0.0234819
0.0245966
0.708613
0.0234725
0.0255716
0.0468933
0.0234361
0.0363495
0.0899789
0.296253
0.0249848
0.0280439
0.0235421
0.0235376
0.0275949
0.024425
0.0247659
0.0253049
0.0246106
0.0255956
0.0307274
0.0238205
0.0233458
0.056804
0.0654313
0.0232269
2.29627
0.0246909
0.0257726
0.0255687
0.0239585
0.0246304
0.0265834
0.0253559
3.25949
0.0269651
0.0232162
0.0463204
0.0463496
0.0257214
0.0264207
0.0265505
0.0256355
0.0327038
0.0228846
0.0835295
0.0228306
0.0230965
0.024629
0.0691249
0.0314149
0.0242299
0.0230856
0.038242
0.188764
0.141281
0.0310054
0.0988982
0.0336721
0.0233762
0.0229102
0.0245049
0.022894
0.0267319
0.446146
0.0245888
0.0242561
0.165337
0.026596
0.0242559
0.0292283
2.34089
0.0366388
0.0246347
0.0451745
0.0249826
2.89942
0.0738867
0.025014
3.4636
0.0247199
0.0233152
0.0246828
0.0318407
0.0290842
0.0231443
0.0248124
3.39271
0.0302519
0.0245678
0.0941013
0.0246198
0.0239348
0.033533
0.0456538
0.0471613
0.239201
0.0316528
0.130905
0.229047
3.14736
0.233273
0.479895
0.0221624
0.0248471
0.0234201
0.0240136
0.0373429
2.89585
0.0245344
0.215766
0.343812
3.18511
2.93705
0.0251232
0.0272497
0.0245551
0.0522465
0.0250263
0.153623
0.0250154
0.0232435
3.74823
0.0244326
0.1431
0.0967545
0.270066
0.0269953
3.10854
0.0267977
0.0235616
0.0233162
0.321828
0.0245596
0.0244537
0.227439
0.0463243
0.0247412
0.712281
0.0246193
0.325374
0.105126
0.0246536
0.28448
0.0242455
0.0228222
0.0314578
0.0263674
0.0352538
0.0620745
0.0240928
0.0249181
0.0258255
0.292891
0.0349182
0.0246053
0.533934
0.0227372
0.0312146
0.236776
0.0272196
0.0250686
0.0228458
3.42103
0.0334934
0.0527005
0.0276007
0.0290415
0.0279083
0.0815971
0.0355078
2.67504
0.189613
0.0408757
0.0380657
0.10841
0.0249883
0.199958
0.0234566
0.0843155
2.80945
0.18642
0.068756
0.0230207
3.33944
0.0265781
0.0267966
0.270589
0.0251476
0.0252913
0.0250598
0.0853117
0.0240063
0.740949
0.0226251
0.0245512
0.0233829
0.022472
0.0252929
0.0244922
3.02134
0.0242276
2.3135
0.023584
0.0281925
0.0233738
0.022648
0.286192
0.0247398
0.025612
2.26871
0.0253095
2.78406
0.0254865
3.25293
0.42662
0.745593
0.0244437
0.0225045
0.0365082
0.0619983
0.0224525
0.0228531
0.39445
0.0242617
0.0252886
0.101387
0.0452105
0.0248131
0.0242405
0.248319
0.0230025
0.0233487
0.0244656
0.0250479
0.434239
0.0248666
0.0234018
0.269576
0.0243117
0.0242619
0.0229891
0.0269714
0.0257788
0.02369
2.52028
0.0411795
0.426121
0.0240145
0.0242523
0.0244262
0.0953213
0.0404545
0.0262905
0.231382
0.0244572
0.040001
0.0352109
0.0271081
0.0276218
0.028637
0.0228584
0.0245061
1.12871
0.0248865
0.188483
0.0258252
0.0422116
0.345376
0.0431541
0.0259769
0.0287031
0.0284334
0.0273629
0.0271227
0.0265845
2.9981
0.0528304
0.0252695
0.0535644
2.96119
0.0804651
0.0871744
0.0421643
3.18079
0.0341724
0.0234198
0.0236483
1.06485
0.464464
0.0353637
1.45254
0.0260842
0.156564
2.88818
2.72783
3.07477
0.0250802
2.99769
0.136399
0.0229653
0.0802932
0.0442289
0.0332404
0.0244724
0.0287017
0.028436
0.0224898
0.0616995
0.0316219
2.93237
0.0240313
0.0542655
0.0235326
0.221645
0.0678339
0.0245208
0.0627094
0.026524
0.359526
0.0454916
0.0236456
0.150642
0.0242549
3.53604
0.0269093
0.0249355
0.023969
0.177162
0.0243537
0.274978
0.0244223
2.88212
0.0227074
0.0242665
0.0815638
0.0257547
0.0244683
0.0240193
1.41227
0.0430013
0.0372561
0.026049
3.81892
0.0233424
0.0321347
0.0246327
0.0239755
0.0455592
0.356535
0.0767288
3.77971
0.0227146
0.0278632
0.0250631
0.185122
0.0271416
0.0537728
0.0414791
0.294563
0.0239287
2.9985
0.0241929
0.0248404
0.0245745
0.0258232
0.0462513
0.0251544
0.0270982
0.0229881
2.48975
0.14804
2.69174
0.033001
0.0393828
0.0266544
1.38188
0.0234472
0.0235419
0.258741
0.0230163
0.221355
0.0245751
0.0258918
0.0860522
0.0270389
0.104676
0.0804968
3.86802
0.0234155
0.0225075
0.177444
0.0239843
0.0393703
0.10181
0.0323482
2.56871
0.0247187
2.8203
0.117937
0.023769
3.18542
0.0747113
0.0300496
3.22329
0.0582044
0.131341
0.160401
0.0265611
0.328773
0.0754953
0.0319489
0.0227923
3.12999
0.0247639
0.41853
0.0248185
0.217282
0.0252898
0.024903
0.0248894
0.0245024
3.35552
0.0244271
0.0242617
0.0584517
0.024156
0.0317684
0.0265775
0.0253362
0.0343627
0.024612
0.0438747
0.0245623
0.0234673
0.0246812
0.0472601
0.0245247
0.084305
0.0864988
0.0227466
0.0249596
0.0229439
0.183922
0.0246013
0.0229505
0.0227743
0.0229559
0.625668
0.0235664
0.023311
0.404571
0.232484
0.045207
0.0343232
0.0246352
0.0269904
0.0881823
0.0248397
0.0338694
0.026259
0.0245529
0.0286176
0.0266726
0.02446
0.0269433
0.285745
0.022786
0.0225134
0.177411
0.0295334
0.0559536
0.0242603
0.02561
0.309292
0.023903
0.025087
0.0227596
0.0406689
3.8073
0.224105
2.4928
0.0291696
0.0245808
0.0245806
1.75186
0.0245679
0.0940119
0.733723
0.0406103
0.0777283
0.024432
0.0249771
0.0285753
0.023932
0.0235565
0.0432365
0.233149
0.0239566
0.0387351
0.0235552
0.0244353
0.0250439
0.0254892
0.103204
0.0244234
0.028434
0.0350345
0.0241346
0.0634599
0.026025
0.0389579
0.0250753
2.63714
0.0239499
0.0260031
0.0235723
0.0360224
0.0288352
0.0575952
0.024839
0.0230342
0.0460459
0.136818
0.0249812
0.025045
0.298158
0.0276346
0.0250762
0.267557
3.42681
0.0262595
3.76077
0.0245686
0.0794831
0.469612
0.0227289
0.0295369
0.0638485
0.0874276
0.0268019
0.279554
2.99305
0.0230593
0.287024
0.0254429
3.34676
0.0231719
2.94319
0.0296106
0.023909
0.0231465
0.0246404
0.0244428
0.0322525
0.0307343
1.1103
0.0239537
0.0351752
0.0255365
0.0237342
0.0246625
2.58933
1.08826
2.73606
0.027744
1.12532
0.0249049
0.0262434
0.254585
2.65269
0.02526
0.174308
0.0408046
0.0231551
0.0332414
0.0249927
0.0252435
0.0250948
0.0398299
0.0242842
0.109202
0.0265219
0.0389366
0.0237489
0.0245754
0.0322822
0.0244851
0.0420508
0.219813
0.131784
3.23354
0.024106
0.0243028
0.0248209
0.200562
0.0824791
0.0242851
0.0261002
0.0267852
0.124939
0.0246119
3.51633
0.0244542
0.0245985
0.0234664
0.0285662
0.162394
3.10149
0.130889
0.0342329
0.0267348
0.0283405
0.394303
0.0248133
0.079513
0.0246216
0.0257935
0.0244957
0.024112
0.024989
0.0246139
0.0491998
0.882475
0.0267586
0.0245793
0.0286859
3.0133
0.0865202
3.47352
0.0646569
0.119986
0.292338
0.235681
2.73947
0.0260247
0.0241181
0.245277
0.0247438
0.0596521
0.0242817
3.10244
0.0221036
0.265743
0.0243958
0.0256246
0.0331564
0.0239848
0.18224
0.0580327
0.0256415
0.023882
0.0225265
0.0246412
0.0277235
0.0242565
3.36818
0.0224439
0.0247495
0.0228749
0.036778
0.0295473
0.0717774
0.0330926
0.127541
0.0291095
0.0331368
0.106836
0.0228893
0.0230697
0.023955
0.0255692
0.0674662
0.0269271
0.340889
0.103374
0.0239471
0.300212
0.0244751
3.37047
0.0313128
0.324243
0.0334481
0.266421
0.0485947
0.0260975
0.0247316
0.0239483
0.185515
0.098245
0.0251161
3.1853
0.0253906
2.10865
0.0266891
2.243
0.0737529
0.0264712
0.254279
0.0235587
0.416325
0.0258195
0.0995817
0.0252949
0.0257023
0.0290866
3.81147
0.0247524
0.0331149
0.0240561
0.462188
1.81777
0.0263506
0.0281083
2.00796
0.0258308
0.0256938
0.0243649
0.0428238
0.0501061
0.025837
0.0268205
0.0246883
0.0263232
0.0250197
0.0266604
0.025139
2.47799
0.0229558
0.0292594
0.0408018
0.025222
0.0241836
0.0237956
0.37035
0.0314311
0.0331089
0.0224498
0.0351256
3.50216
0.0224732
0.0231788
0.0242074
0.0298437
0.0356751
0.0245757
0.026757
0.0280296
2.9522
0.0932763
0.0263417
0.0239491
0.027535
0.0317809
0.0263999
0.0254346
3.16615
0.0268754
0.0260139
0.76509
0.0272783
1.90207
3.24755
0.0257274
0.424459
0.0429931
0.0269273
0.0709909
3.13776
0.0252327
0.0232512
0.0245919
0.0268387
0.0239123
0.0356805
0.0657386
2.87011
0.0231428
0.0710068
0.0749791
0.0335518
0.0912322
0.0256384
0.0225247
0.029807
0.347275
0.0273994
0.0345577
0.0240433
1.92561
0.0244572
0.0285279
0.218974
0.0289813
0.0304276
0.0245679
0.0245927
0.0729248
0.0245823
0.0231872
1.92267
0.024071
0.0248454
3.99993
0.0253064
0.0330801
2.52571
0.0227286
2.8149
0.0288826
0.0279035
0.047247
0.0246285
0.0335982
0.0433694
0.0245279
0.0334465
0.0326157
0.0235431
0.0518198
0.0434569
0.185871
0.0364959
0.0240517
0.0279376
0.0231273
2.37016
0.185583
0.0231591
0.0261956
0.0248194
0.0264968
0.0723107
0.0307765
0.0230734
0.0271987
0.0251571
0.0310221
0.0231686
0.0232471
0.0262619
0.0635103
0.024157
0.290823
0.100573
0.0241708
2.79783
0.0226402
0.0383917
0.0931587
0.0345434
0.0224937
2.70133
0.0263506
0.0997327
0.029146
0.0260496
0.200242
0.0267316
2.50251
0.0238014
0.0676264
0.0244472
0.028726
0.026141
1.81747
0.0739967
0.0231072
0.0230959
0.0275262
2.9373
0.0224749
0.0256696
0.0262785
0.0226021
0.411263
0.0246054
0.0224601
0.0462948
0.0240365
0.0236813
3.13578
0.067573
0.0249548
0.823073
0.042412
0.0242641
0.0246541
3.67051
0.0224449
0.13553
0.0262651
0.0366611
0.0241064
0.0241256
0.023116
0.0825595
0.120276
2.65591
0.0312937
0.0243278
0.0966669
3.2765
0.024661
0.0262564
0.024181
2.81522
0.0250344
0.294543
3.72495
2.12116
0.0240167
0.293328
0.0245873
0.072248
0.0251157
0.023076
0.0713546
0.032576
0.024332
0.0443453
0.109172
0.0741709
0.0345989
0.143846
0.0261614
2.93669
0.161422
0.0240614
0.0239801
0.293121
0.0463438
0.0592008
0.0231092
0.0370583
0.022756
0.0229148
0.0405457
0.0293511
0.0264693
0.0354097
0.0236014
0.0290989
0.0236518
0.190175
0.0229332
0.0239281
0.0357211
0.0865782
0.0256237
3.16754
3.09603
0.0263867
0.0227513
0.0243177
0.0266841
0.0837599
0.0244298
2.93376
0.0301361
0.104034
0.0236424
0.0259362
2.70728
0.454303
3.12419
0.143453
0.0226026
0.03427
0.0631179
0.0367109
0.0227328
0.0230635
0.0239274
0.0876808
0.0268832
2.56276
0.0245067
0.0230536
0.0240859
3.765
0.02795
0.0328698
0.022616
0.0231915
0.0227945
0.0500541
0.0506595
0.0223864
0.0421879
0.173592
0.295989
0.0234883
0.186564
0.0241102
2.83131
3.35629
0.0227968
0.0230296
0.0498078
0.024711
0.115948
0.0714125
0.0244161
0.0267921
0.0255555
0.0312506
0.0244236
0.0296249
1.32002
0.0297834
0.0231043
1.11577
0.0451204
0.0581037
0.0227938
0.0229196
0.0234912
0.0356179
0.0259673
0.0271644
0.0245263
0.0258325
0.0226101
0.229151
0.0228943
0.0231674
0.022738
0.0230089
0.0254204
0.0257846
0.0466304
0.0260046
3.62689
0.0229086
3.82896
0.0348331
0.293036
0.42126
0.0245464
3.02598
0.0288653
0.0254724
0.0431089
0.0383909
0.0572195
0.0246064
0.100475
3.64498
0.347027
0.0282808
0.0375006
0.0917448
2.675
0.0245306
0.0242482
0.0264741
2.76527
0.0238143
0.024939
1.21482