# y+ ()       
# Time        	patch         	min           	max           	average       
0             	walls	3.455480e+00	7.529635e+00	5.518311e+00
