/*--------------------------------*- C++ -*----------------------------------*\
| =========                 |                                                 |
| \\      /  F ield         | OpenFOAM: The Open Source CFD Toolbox           |
|  \\    /   O peration     | Version:  v2012                                 |
|   \\  /    A nd           | Website:  www.openfoam.com                      |
|    \\/     M anipulation  |                                                 |
\*---------------------------------------------------------------------------*/
FoamFile
{
    version     2.0;
    format      ascii;
    class       volVectorField;
    location    "400";
    object      ddt0(U);
}
// * * * * * * * * * * * * * * * * * * * * * * * * * * * * * * * * * * * * * //

dimensions      [0 1 -2 0 0 0 0];


internalField   nonuniform List<vector> 
13851
(
(-0.000395836 0.0027943 -9.20159e-23)
(0.000152766 0.000105042 0)
(0.000143469 0.000105181 0)
(-0.0018184 -0.00391715 0)
(2.06363e-05 -1.1602e-06 -2.9135e-23)
(0.000221189 5.39606e-05 2.01639e-23)
(-0.000109074 0.00020334 1.83035e-21)
(1.66612e-05 2.64817e-06 0)
(0.00155369 0.00468521 -6.79183e-22)
(1.63826e-05 -1.82629e-05 -7.00082e-22)
(0.000236625 -0.00040954 0)
(2.76163e-05 2.38483e-06 -1.64624e-22)
(3.9638e-05 -0.000164556 -1.76896e-22)
(0.000217207 0.000385766 5.44242e-22)
(0.000137081 0.00062516 -1.00662e-22)
(-0.00211979 -0.00235336 0)
(0.0051466 -0.000441835 0)
(5.70652e-05 1.88979e-05 -2.29627e-23)
(0.0093841 -0.00760086 0)
(-0.000185107 0.00285684 2.74192e-22)
(0.000369537 0.000614772 3.92608e-26)
(0.000188615 -1.62681e-05 2.31776e-22)
(0.00758887 0.00352271 7.60195e-22)
(1.33918e-06 -4.22176e-06 0)
(0.00358152 0.0162205 4.48187e-22)
(-0.000624381 0.000314735 3.25258e-22)
(0.000939447 0.0102219 -2.55707e-22)
(-8.37322e-05 0.0159915 2.54085e-21)
(0.0131028 -0.000996398 -2.32875e-22)
(3.29494e-05 3.42194e-05 0)
(0.00392489 0.00618493 1.1657e-21)
(-0.000103826 0.000210986 -6.0594e-22)
(-0.000496026 0.00216815 -3.46688e-23)
(0.00539013 -0.000417067 1.39023e-23)
(0.000300283 -0.000182075 -3.05915e-23)
(0.0118065 -0.00281129 0)
(7.60753e-07 -3.64906e-06 0)
(0.00337027 -0.00168049 4.16802e-22)
(0.00236072 0.00426882 -9.07146e-22)
(8.91196e-05 -3.31452e-05 -4.84751e-22)
(-0.00419684 0.00466328 2.10248e-21)
(0.0131165 -0.00115021 2.34325e-22)
(0.00180936 0.000364394 0)
(0.000295693 -0.000955622 0)
(0.0126018 0.00202491 0)
(6.64731e-05 2.32641e-06 1.04865e-22)
(-1.05651e-05 8.94368e-06 3.59355e-22)
(-0.00323571 0.000733584 1.4725e-23)
(0.000151106 1.33989e-05 -1.61781e-22)
(3.35927e-05 -0.000162869 0)
(0.00273875 -0.000946123 -5.27753e-22)
(2.76189e-05 -0.00018043 -3.24332e-22)
(-0.00231281 -0.00198468 0)
(-0.000221809 0.000415617 -4.65799e-22)
(0.00536004 0.0013323 -4.00323e-23)
(8.98204e-05 -3.57514e-05 4.40966e-22)
(-0.000571862 0.00226829 0)
(-0.00481476 0.00405651 -2.84818e-21)
(-0.0148698 0.00513319 0)
(-0.00282053 0.000767055 3.59207e-22)
(2.74155e-05 -4.63076e-06 4.66788e-22)
(-0.00010139 0.00881168 2.88268e-22)
(8.33482e-06 -2.46145e-05 0)
(0.000155511 8.41586e-06 -1.19282e-22)
(0.000460925 -0.00046096 -7.48559e-24)
(0.000468653 -0.000458011 9.08742e-24)
(-0.00292784 0.000630624 2.51632e-22)
(0.000156722 -0.000483836 -7.34877e-22)
(9.73238e-05 4.30322e-05 1.87965e-22)
(-0.00651197 -0.000712859 2.05899e-21)
(0.00754759 0.000457884 1.84996e-21)
(0.000550898 0.00075456 1.1014e-23)
(5.72947e-05 -0.000128778 2.3486e-22)
(-0.00245631 0.000647875 0)
(-0.000163298 0.000497008 -3.2768e-22)
(0.000154206 8.02334e-06 0)
(0.00533591 -0.000780494 4.66714e-22)
(1.89081e-05 2.72269e-06 1.26797e-22)
(0.00570323 0.0182514 1.79078e-22)
(4.34906e-05 -6.62122e-05 -6.56767e-22)
(9.9612e-05 4.60479e-05 0)
(0.00598597 -0.00530254 -4.76433e-22)
(0.000290344 -0.000164941 0)
(-0.000309778 0.000292822 -8.38428e-22)
(-0.00233378 0.00074829 -1.42593e-22)
(0.00635736 0.00391948 0)
(0.000192911 -1.8837e-05 -2.56287e-22)
(0.0141667 -5.99584e-05 -8.72019e-24)
(2.45705e-05 -3.85788e-05 -2.42992e-23)
(0.00321156 0.00662256 0)
(2.43705e-05 -0.000181795 -1.64677e-22)
(-0.000103136 0.000225302 -2.14024e-21)
(0.00337531 9.483e-05 2.15686e-22)
(0.00530492 0.00389757 -1.11414e-21)
(0.00603509 -0.00253865 -6.95073e-22)
(0.000568806 -0.000903456 -4.82766e-22)
(6.50429e-05 -4.42797e-05 -4.62097e-22)
(-0.00342361 -0.000789042 0)
(-0.00662163 -0.000736153 2.54913e-22)
(-0.00163641 0.00118735 -2.59342e-23)
(-0.00387624 -0.000489682 0)
(0.000164697 -0.000329396 4.10315e-22)
(0.000200243 -0.000342621 2.1316e-22)
(5.91546e-05 -0.000137087 0)
(6.33899e-05 3.86115e-05 0)
(0.000670379 0.000388728 6.73788e-23)
(6.15213e-05 3.03811e-05 1.41029e-22)
(0.00764929 0.000957641 -1.98442e-21)
(-9.59433e-05 0.000230385 1.16296e-21)
(5.61051e-05 1.66002e-05 -5.27867e-23)
(0.000233648 -4.15053e-05 1.18928e-22)
(6.76173e-05 1.24824e-05 0)
(-0.00126383 -0.000571305 0)
(0.000572293 -0.000226109 0)
(-0.000389705 0.00205945 1.1612e-22)
(-0.000207322 0.000403772 1.18495e-21)
(3.05193e-05 2.63204e-05 9.18004e-24)
(1.4383e-05 3.60549e-06 -7.597e-23)
(-0.000874179 -0.00342425 -1.49532e-22)
(-0.00648495 -0.00126849 7.69239e-22)
(0.00121989 -0.000608183 2.72217e-22)
(4.35523e-05 1.97565e-05 1.31061e-23)
(9.69946e-05 2.60811e-05 1.51784e-22)
(-0.00130984 0.000994651 1.20054e-22)
(0.00915536 0.00415226 3.07079e-23)
(0.000228487 -0.00060783 0)
(6.3908e-05 -4.42393e-05 5.93034e-22)
(5.77362e-05 -2.29939e-05 0)
(0.00132703 0.00203552 4.27394e-22)
(0.000243789 0.000851144 -2.04538e-24)
(0.000188119 -1.56412e-05 -3.47774e-23)
(0.000278565 -5.23593e-05 0)
(-0.00507747 -0.00183356 -3.00386e-21)
(0.00450164 -0.000297813 2.18731e-22)
(0.000279565 -0.000443876 0)
(0.00642702 -0.000318093 -2.98128e-22)
(0.000141268 -0.00047356 -5.60587e-22)
(0.00670878 0.0029282 -2.14422e-22)
(0.000120768 -0.000256362 -3.08169e-22)
(0.000110623 0.000850538 -2.25587e-23)
(0.00459444 -0.00528306 4.51407e-22)
(8.79396e-05 -0.000104548 0)
(2.38072e-05 -4.78616e-05 0)
(0.000350789 -0.000487194 2.47825e-22)
(0.00495084 0.00268736 -1.17697e-22)
(0.000143333 2.11005e-07 0)
(1.76972e-05 2.03312e-06 -3.23534e-23)
(0.00448542 0.00467926 5.57709e-22)
(0.0108481 0.00266345 3.77431e-22)
(2.46912e-05 -8.81588e-06 0)
(-0.00386536 -3.25728e-05 0)
(-0.000949626 -0.000342609 8.42945e-25)
(0.000578862 -0.000241257 -1.10289e-22)
(0.00823552 -0.00322491 -1.63883e-21)
(4.92547e-05 -0.000165091 0)
(1.51063e-05 -0.000116101 0)
(2.60538e-05 -1.59195e-05 4.44694e-22)
(0.00251107 0.00383221 3.52233e-22)
(0.00012714 0.00076625 0)
(-1.01025e-05 0.00022903 5.14531e-22)
(2.79832e-06 -1.01759e-05 -5.47542e-22)
(0.0127179 -0.00182938 0)
(0.000627777 0.000405837 0)
(-0.00307863 0.00104967 1.13974e-22)
(0.000305236 0.000472452 -5.09665e-22)
(0.00327398 0.00656523 4.20925e-23)
(0.00244837 0.00706252 0)
(0.00310092 -0.00101368 6.72907e-22)
(0.000225873 -3.74275e-05 -5.31807e-22)
(-0.00854833 -0.00745167 0)
(2.6556e-05 -1.87794e-05 3.09179e-22)
(2.9671e-05 2.61256e-05 9.14371e-24)
(0.00089551 0.000172006 0)
(1.6101e-05 -4.07094e-06 0)
(0.00617711 -0.00307058 7.39968e-22)
(0.001907 -0.00175896 -8.79561e-22)
(-0.00319808 0.00280661 1.81235e-23)
(2.75795e-05 2.74088e-05 0)
(-0.000192207 0.000478727 0)
(-0.0032242 0.00236506 0)
(0.00794466 0.00433297 -5.09486e-22)
(0.000499265 -0.00106158 1.92321e-22)
(0.000218166 -3.24357e-05 -2.07242e-22)
(0.000199616 0.000829947 0)
(0.00439146 -0.000211036 3.18386e-22)
(0.0111319 0.00270603 2.35412e-23)
(-0.000515896 0.00207292 -1.65221e-22)
(0.000100555 -0.000183371 2.59418e-22)
(5.90785e-05 -0.000168971 -3.18359e-22)
(4.85816e-05 4.55796e-05 -3.47266e-23)
(0.0056082 0.0017503 -2.26395e-21)
(0.0001573 0.000756104 0)
(0.000370293 0.000200701 -2.7765e-22)
(0.00022541 6.68254e-05 -4.32328e-23)
(0.000140444 4.2743e-06 -2.68674e-22)
(-0.00297118 -0.00147933 0)
(-0.000442494 0.00204301 0)
(4.63859e-05 7.10915e-05 1.53578e-22)
(8.71493e-05 2.36978e-05 3.81177e-23)
(0.000188914 -0.000485003 0)
(0.00227134 -0.00658736 -1.25881e-23)
(-0.0018145 -0.00573081 -1.1099e-21)
(-0.00678293 0.00274878 0)
(0.000106536 0.000618873 1.99662e-22)
(0.00165146 -0.00266472 1.65347e-21)
(-0.0024436 -0.00510367 0)
(3.48506e-05 -0.000149651 0)
(-0.000132956 0.000828479 1.50483e-22)
(8.67017e-05 0.004015 -4.34228e-22)
(0.000210584 1.82634e-05 0)
(-0.00132862 -0.00261996 -1.69769e-24)
(9.47761e-05 2.11835e-05 1.66002e-22)
(0.0037445 -0.0070239 -5.17335e-23)
(5.08713e-06 -5.29706e-05 2.71482e-23)
(0.000326333 -0.000175387 -6.79599e-24)
(0.000168415 -2.48879e-06 2.94555e-22)
(3.45531e-05 -0.000154419 2.90689e-22)
(-0.00209669 0.00559726 0)
(7.26258e-05 2.80618e-05 1.58887e-22)
(0.000286941 -0.00129751 1.22127e-21)
(2.65154e-05 2.6817e-05 3.50602e-24)
(0.000210493 0.00315768 0)
(-0.000108914 0.000166681 8.65338e-22)
(0.00658886 -0.00151913 -4.74899e-22)
(0.000113781 -0.000170867 0)
(-0.000152514 0.000844207 -1.23602e-22)
(1.18299e-06 -2.58887e-05 0)
(0.000339854 -0.000486744 -2.17892e-22)
(2.92367e-05 -1.78294e-06 0)
(0.000311906 -0.000168806 0)
(0.0012005 -0.00845253 -1.54483e-22)
(0.000102856 -0.000176182 4.53639e-22)
(0.000207848 2.33061e-05 0)
(2.97374e-06 -5.25949e-05 -7.5356e-23)
(-0.00661665 0.00281957 -6.28045e-24)
(3.25994e-05 3.08522e-05 -5.9294e-23)
(0.00118015 0.00649078 0)
(-0.00743575 0.00157107 -3.57017e-21)
(-0.00140258 0.000854064 0)
(1.92355e-06 -9.58176e-06 6.35234e-22)
(0.00539398 0.00468895 0)
(-0.00190042 0.000637611 -1.02815e-21)
(0.012737 0.0016473 0)
(-0.00157245 -0.00231278 0)
(0.000326596 0.000309542 0)
(0.000382168 -0.000530147 6.48355e-22)
(-0.00135828 0.00502498 4.33502e-22)
(-0.000209419 0.000477027 0)
(0.000706987 -0.000855979 0)
(0.000235999 -3.37225e-05 2.2268e-22)
(0.0118172 0.000889593 0)
(0.00362014 0.00149199 -1.45947e-21)
(2.58956e-05 1.23134e-06 3.44781e-24)
(0.000159181 0.000212322 0)
(-0.00346219 -0.00129767 6.60988e-24)
(0.012569 -0.00186222 0)
(0.0106653 -0.000919971 1.74822e-22)
(4.70037e-05 4.51487e-05 3.15071e-23)
(0.000206772 -0.000625741 0)
(2.58369e-05 -3.74099e-05 -1.26494e-21)
(-0.00108473 0.00136744 -5.92649e-22)
(0.00923313 0.00133322 -9.58207e-23)
(0.000163782 0.000224498 0)
(0.00063298 0.000479515 -2.52546e-22)
(0.00405744 0.00130675 1.49504e-21)
(5.60056e-05 -0.000107356 9.00107e-22)
(0.000175274 -0.000338753 -4.80376e-22)
(-0.00217641 0.00105462 0)
(0.00315912 0.0226305 -5.24268e-22)
(2.25862e-05 -4.33736e-06 0)
(3.21766e-05 -0.000154015 3.73434e-23)
(0.000107002 -0.000172049 -2.94115e-22)
(-0.00130258 0.00352881 0)
(-0.00314874 -0.00127569 0)
(0.000405345 0.000734425 5.65985e-23)
(4.57918e-05 1.84867e-05 -7.4739e-23)
(0.00772239 0.00589609 1.21858e-22)
(0.00904022 -0.000993499 2.81991e-21)
(-0.000423969 0.00194733 -3.0811e-22)
(0.000590587 0.000499631 2.06652e-22)
(-0.00133171 0.00313291 0)
(-0.00817668 0.000158989 -1.19615e-21)
(0.000210774 0.000169558 0)
(0.00010505 0.000539934 4.31046e-22)
(0.0175205 0.0090444 0)
(6.05601e-05 4.75788e-05 4.80102e-23)
(2.56239e-05 -1.45827e-05 2.30347e-22)
(-0.000401227 0.00197263 -7.88678e-23)
(0.00012064 -0.000281671 1.26907e-22)
(3.16683e-05 2.59743e-05 -1.63515e-22)
(5.17555e-06 -5.05671e-05 4.24029e-22)
(2.94929e-05 -5.0729e-06 0)
(1.67815e-05 -4.67578e-08 3.12935e-24)
(0.000258687 0.000408085 2.9271e-22)
(2.63477e-05 -9.99807e-06 -6.70174e-22)
(0.00080658 0.00472738 3.74479e-22)
(0.000394571 0.000656974 0)
(7.96863e-05 -1.43821e-05 2.48993e-22)
(0.0121386 -0.00234465 0)
(-0.00140494 0.000880641 0)
(3.99385e-05 -0.000168843 0)
(-0.000103697 0.00316218 -2.27807e-22)
(-0.00215696 -0.00106883 3.20076e-22)
(8.98954e-05 -9.89189e-05 0)
(3.62292e-05 -0.000171332 0)
(0.000449308 0.000659011 0)
(-0.000651545 0.000116192 -5.3004e-23)
(0.00194101 -0.0105025 2.92722e-22)
(0.00111494 0.000445193 3.26743e-22)
(1.93955e-05 -2.67232e-07 1.1823e-22)
(-0.00866548 -0.00573721 0)
(2.65841e-05 -1.00015e-05 0)
(0.00126707 0.000305992 3.65738e-22)
(-0.00173028 -0.00144114 0)
(0.00133702 0.022163 1.72239e-21)
(-1.22754e-05 0.00022159 -3.69611e-22)
(0.0155089 0.00821426 1.66429e-23)
(-0.0130319 0.000696625 0)
(0.00791254 -0.00215298 1.51643e-21)
(-0.000581486 0.000314177 0)
(0.00012862 -0.000364372 4.47082e-22)
(0.00648237 -0.000157656 4.1683e-23)
(-0.000639 0.00129214 3.40055e-23)
(0.000649506 0.014027 -2.66177e-21)
(9.17709e-05 2.06637e-05 -4.08462e-23)
(0.00523092 0.0016151 4.73769e-22)
(0.0103943 -0.000161096 6.83293e-25)
(0.000486738 -0.000850741 1.33729e-21)
(0.000484163 -0.000816151 -1.13543e-21)
(4.25116e-05 -0.000144178 -2.69963e-22)
(0.00103805 0.000191464 -3.84089e-22)
(0.000187882 -0.000119375 0)
(0.0139863 -0.000147023 -9.10303e-22)
(0.000186498 -0.000383394 -4.4896e-22)
(2.53332e-05 -5.00344e-06 -1.5247e-22)
(-7.87686e-06 1.01966e-05 -3.82692e-22)
(0.000212654 -3.82381e-05 -1.98325e-22)
(0.00732253 -0.00169863 -2.00048e-21)
(0.000346546 -0.0012946 -1.00698e-21)
(5.86542e-05 4.9261e-05 -1.02456e-22)
(0.00641611 -0.0018496 7.88348e-22)
(0.000185708 -0.000138477 3.71558e-22)
(0.000276481 -5.85428e-05 -3.80949e-23)
(-2.06832e-05 0.000234905 -5.58727e-22)
(-0.00041004 4.88086e-05 -3.27067e-23)
(0.00660068 0.00601138 0)
(-0.00286336 -0.00193062 0)
(0.000164125 3.26379e-06 1.18888e-22)
(0.000196683 2.49236e-05 -9.74741e-24)
(0.00703528 -0.00401067 0)
(4.34611e-05 -0.000154529 1.00869e-21)
(0.00944735 -0.00232109 -9.65237e-22)
(0.000198072 0.000173799 0)
(0.000477309 0.000632749 0)
(0.000192924 -0.000137462 0)
(2.60638e-05 -4.43178e-05 8.62543e-22)
(7.97969e-05 -8.66136e-06 -2.49635e-22)
(0.00170227 -0.00141067 0)
(-0.00215213 0.00112339 -5.74619e-24)
(0.00331178 0.00224961 -1.57239e-21)
(-0.00784987 0.00129016 2.16314e-22)
(0.00736892 -0.00433979 8.94056e-23)
(0.000148411 2.52824e-06 0)
(-0.00726811 0.00195882 1.90043e-21)
(-0.00237826 0.000923229 -1.51349e-22)
(2.63949e-05 9.34842e-06 1.51272e-23)
(0.00209493 0.0213888 -1.54507e-21)
(0.000618872 0.00200908 1.60767e-22)
(-0.0062229 -0.00108391 -1.69034e-21)
(0.000209289 -3.38859e-05 0)
(-0.000347728 9.75236e-05 0)
(-0.0105524 0.00387543 0)
(-0.0172207 -0.0180831 6.53952e-22)
(0.00103808 -0.00173866 6.4277e-26)
(0.0139526 0.000125961 -1.40941e-22)
(0.000121966 1.97242e-05 -1.90444e-23)
(0.00103447 -0.00319568 1.00775e-21)
(0.00255375 0.000855446 0)
(0.000310601 0.000172874 -5.2388e-23)
(0.011715 0.00120478 -1.27734e-21)
(0.000362343 0.000157153 -6.13415e-24)
(-0.00761062 0.000519873 -3.77852e-21)
(0.00010993 0.000517655 -2.69483e-22)
(-0.00035511 0.000462208 -6.10665e-22)
(0.00384533 0.00034809 0)
(-0.00411118 -0.000482198 0)
(2.11032e-05 -0.00012132 0)
(0.000212855 0.000121738 -5.45083e-23)
(8.31774e-05 -0.000284055 9.92965e-24)
(-0.000183009 0.000497154 0)
(6.94067e-05 -1.26819e-05 0)
(0.000382054 0.000790103 -6.29485e-23)
(0.0137006 -0.000968677 -8.33974e-24)
(5.82185e-05 -0.000125187 5.8345e-22)
(-9.40104e-05 0.000841342 0)
(0.00212264 -0.00204014 1.57159e-21)
(0.000172628 2.39831e-05 1.23569e-23)
(-0.001476 -3.42937e-07 2.46538e-21)
(-0.000359149 0.000587217 5.0337e-23)
(-0.000366072 -0.0113465 0)
(0.000220725 1.45197e-05 2.40685e-23)
(-0.000577012 0.000355265 0)
(0.00146365 0.001264 -2.76139e-22)
(0.00968472 0.0023706 4.551e-22)
(0.000649171 0.000296513 5.99028e-23)
(0.0111632 -0.000734265 5.62076e-25)
(-0.00201101 0.000530237 1.27286e-21)
(0.00556847 0.00283148 0)
(5.52635e-05 -0.000108232 3.55921e-22)
(0.00164933 -0.00114185 0)
(0.000369325 9.98001e-05 -4.37922e-23)
(-0.00042797 0.000137697 0)
(4.73968e-05 3.13123e-05 1.08113e-22)
(0.0040637 0.000219466 3.68154e-23)
(0.00886034 0.00722599 2.25311e-23)
(-0.0121865 -0.00201663 -4.54244e-21)
(0.000193181 2.97977e-05 1.87767e-23)
(0.00414705 0.0006407 0)
(0.00305136 0.00623089 -8.85165e-22)
(-0.00263708 -0.00183925 0)
(1.0667e-05 3.12591e-05 -2.80435e-22)
(0.00539799 0.00116415 5.10454e-22)
(-0.00477481 -0.00238751 -8.93384e-23)
(0.0112051 0.000520566 -2.28099e-22)
(0.000238454 -3.07754e-05 -2.80022e-22)
(-0.0125161 -0.0177354 -2.94272e-21)
(3.51286e-05 -0.000121083 -6.73704e-22)
(1.80723e-05 -3.35353e-06 1.38736e-22)
(0.00587354 0.000986362 4.56039e-23)
(0.00399423 0.004457 1.00041e-21)
(1.6598e-05 -2.79408e-05 3.90912e-22)
(0.000157337 9.57787e-05 -4.03915e-23)
(-6.07346e-05 0.000873126 2.27215e-23)
(3.53866e-05 1.25669e-05 4.36243e-23)
(0.00740865 0.0086748 0)
(0.00110316 0.000256937 7.64834e-23)
(0.000706651 0.00191707 0)
(4.07343e-05 0.000304447 -1.98601e-22)
(0.000121438 1.85589e-05 0)
(1.6341e-05 -0.000178099 0)
(-0.0126802 -0.019463 0)
(7.85281e-05 -2.60465e-05 0)
(1.25466e-05 -0.000175632 0)
(0.00936068 -0.00439374 -5.61965e-22)
(0.0131606 -0.000304199 0)
(0.000184116 -1.20441e-05 0)
(-0.00815545 0.00444902 -2.74446e-22)
(6.35388e-06 -3.12693e-05 7.92381e-23)
(2.58272e-05 -9.11536e-06 2.25164e-22)
(0.000181204 2.37898e-05 -3.06093e-23)
(0.0036644 0.00215396 1.68209e-21)
(-0.000370226 0.000533098 5.6859e-22)
(7.26224e-05 -1.21495e-05 0)
(0.000126653 2.84907e-05 -9.74166e-23)
(0.00129026 -0.000496741 1.72647e-22)
(0.000105301 0.000107356 2.54566e-22)
(0.00784042 -0.00805901 0)
(2.72041e-05 -7.49944e-07 2.32688e-22)
(-7.81184e-05 0.000377815 -5.2968e-22)
(0.0121642 0.00291803 -5.41093e-22)
(0.000261217 -0.000174301 0)
(7.745e-06 5.26592e-06 7.38196e-23)
(2.5113e-05 -3.86492e-05 3.43757e-22)
(4.9018e-05 0.000295234 8.24841e-23)
(4.45517e-05 9.14906e-05 0)
(0.00476736 -0.00136602 3.85838e-22)
(0.0110696 -0.00527114 4.11879e-22)
(0.000335003 0.000335039 -7.96082e-24)
(0.0011091 -0.00185081 0)
(0.00018486 3.07872e-05 3.17515e-23)
(2.80315e-05 1.47334e-05 3.7948e-22)
(0.000764036 -0.000218278 -3.12465e-22)
(-0.00910246 0.00525302 -4.2591e-22)
(0.000183577 -0.000230317 0)
(6.76002e-05 -0.000115679 0)
(-0.00089268 0.00104427 4.36243e-22)
(0.000130102 -0.000250335 -6.06627e-22)
(-0.00763811 0.00929505 3.90257e-21)
(5.61532e-05 -0.000138387 5.09156e-22)
(0.000291484 -3.8228e-05 0)
(0.00135956 -0.00181603 0)
(-0.000119652 0.000570202 0)
(6.66506e-05 0.00139859 1.87826e-22)
(0.00324097 0.00715283 8.65688e-22)
(-0.0104525 -0.00387438 4.35354e-21)
(0.000129107 -5.46801e-05 0)
(-0.000991862 0.000170416 -1.18281e-24)
(5.9749e-05 -0.000103894 -2.99205e-22)
(0.0129725 -0.00123175 0)
(-0.000348986 0.000602971 -1.56581e-22)
(-0.000446721 0.00200408 0)
(0.00036066 0.000114115 3.53698e-23)
(0.00015844 8.57401e-06 2.21473e-22)
(0.000272216 -0.000147255 0)
(0.000953187 0.000234879 7.44162e-23)
(1.92029e-05 -1.77616e-06 0)
(-0.00484074 0.000439588 0)
(0.000232034 -0.000115499 0)
(0.00863385 -0.00670751 -1.54873e-21)
(0.000173688 0.00300909 -2.31619e-22)
(0.0107278 -0.0042882 -4.70177e-22)
(0.000551645 0.000186902 -3.46266e-22)
(0.0099039 1.19646e-06 -2.11475e-21)
(0.000124384 -0.000153951 0)
(8.2414e-06 -0.00010259 7.16495e-22)
(-0.0103459 0.000853097 1.63597e-21)
(1.28088e-05 -1.37958e-05 5.41044e-22)
(6.7622e-05 -1.80671e-05 -3.95133e-24)
(0.000148836 -0.000171125 -2.56536e-22)
(0.00567568 -0.00425423 -3.10662e-22)
(0.000117195 0.000139464 3.32251e-22)
(7.62478e-05 -0.00012102 -2.9868e-24)
(0.000757627 -4.34991e-05 -2.15185e-24)
(0.000567384 -1.24682e-05 0)
(5.06386e-06 -2.35829e-05 -6.12317e-23)
(-0.00403569 0.0135344 -3.04605e-22)
(6.24138e-05 -6.07954e-05 3.41678e-22)
(0.00240619 0.000934495 -1.51188e-22)
(0.00522194 -0.000587138 -6.73811e-22)
(4.61284e-05 -6.93929e-05 0)
(5.77378e-05 0.000177157 5.00663e-22)
(-0.00231959 -0.00582245 2.73485e-22)
(0.00359263 0.0229907 -2.0179e-22)
(3.32287e-05 3.0172e-05 -8.14548e-24)
(-0.00133808 -0.00789643 0)
(-0.00616643 -0.000588532 -1.31309e-21)
(7.8342e-06 7.29373e-05 0)
(-0.00108429 -0.00254116 2.22901e-22)
(0.00946431 -0.00582145 -1.08583e-22)
(0.000743877 0.00333432 0)
(0.000123082 -5.96466e-05 -4.75914e-22)
(0.00924039 -0.0029098 2.05529e-21)
(-0.00638472 0.00076626 1.26597e-21)
(8.78884e-06 7.39082e-05 3.01434e-22)
(-0.00635859 -0.00116946 -1.42252e-21)
(9.74442e-05 3.3573e-05 1.90317e-22)
(6.45845e-05 -5.49199e-05 -1.68488e-22)
(0.00238808 -0.0126612 1.0646e-23)
(-0.00785476 0.000260585 4.50993e-21)
(0.000460925 7.95457e-05 0)
(-0.000362336 0.0005181 -4.81697e-22)
(1.07959e-05 -1.42474e-05 7.11705e-22)
(-0.000554744 0.000647577 0)
(0.00211856 0.00171852 -2.80996e-23)
(0.00482019 0.00245504 3.94686e-22)
(2.28048e-05 6.06552e-05 -6.41588e-23)
(0.00272312 -0.00113915 0)
(7.16595e-05 -1.89456e-05 0)
(9.87375e-05 3.76889e-05 -2.09881e-22)
(0.000676315 0.000328952 8.97734e-24)
(-0.000138333 0.000351474 0)
(8.80645e-06 3.58175e-05 -1.59659e-22)
(0.000150026 8.95756e-06 1.65496e-22)
(-0.00193369 -0.0012313 0)
(-0.00363586 -0.000682383 2.40175e-22)
(-0.00127778 -0.00162695 0)
(0.000112827 0.000127486 2.94341e-22)
(2.73199e-05 -4.26161e-05 6.16233e-24)
(-0.00103467 0.00466605 -2.1926e-22)
(1.28182e-05 -0.000103217 0)
(0.00182296 -0.000479175 0)
(-5.61535e-06 0.000377163 -5.66844e-22)
(-0.000130991 0.000512941 6.37227e-22)
(0.000346193 0.000255458 -9.9771e-24)
(0.0125233 0.00136998 0)
(-0.00808256 2.90821e-05 0)
(0.000213569 9.01252e-05 6.28311e-23)
(0.00303973 0.00162792 0)
(1.49801e-06 0.000205509 -1.7501e-22)
(0.000856559 -0.00011036 0)
(0.0131968 -0.000612568 -7.97918e-22)
(0.00493483 0.00196369 3.50631e-24)
(9.68061e-05 3.4759e-06 2.81186e-22)
(5.79091e-05 -0.000107641 -3.60399e-22)
(0.000218183 -0.000343476 0)
(-0.00191338 -0.000529222 0)
(-0.00687056 -0.00428079 6.2618e-22)
(-0.000531167 0.000619685 0)
(0.00331566 0.000623811 4.93609e-22)
(-0.000147195 0.000349117 0)
(8.76654e-05 0.000509711 0)
(-0.00125512 -0.00948205 -8.61451e-22)
(-0.00698092 0.0127918 6.78796e-22)
(0.000990161 -0.00035691 -2.8205e-22)
(0.00175064 0.000654343 0)
(0.000543854 0.00267562 -1.10667e-22)
(0.00982727 -0.00454116 7.93723e-23)
(0.000113602 2.6427e-05 -1.02785e-23)
(-0.015646 0.00416583 0)
(-0.00372417 -0.0180509 0)
(2.72291e-05 1.95491e-06 -3.7734e-22)
(0.00494072 0.00021914 -1.26846e-22)
(0.00651617 -0.00863057 -7.6853e-22)
(0.00022497 -3.62036e-05 4.53283e-22)
(0.000158709 0.000865588 2.53971e-23)
(8.42041e-05 -6.7858e-05 -8.35902e-24)
(0.00242145 -0.00079785 5.57952e-22)
(-1.47613e-05 0.000302372 0)
(-0.0110933 -0.00464043 4.44363e-22)
(7.9389e-05 -2.67255e-05 2.71391e-22)
(1.3194e-05 -6.92568e-06 0)
(7.80733e-05 -0.00015419 0)
(0.000541181 -2.26149e-05 3.44132e-23)
(2.71138e-05 -2.69491e-06 0)
(0.00550218 -0.00370247 5.10875e-22)
(1.47842e-05 -6.8944e-06 -2.03381e-22)
(0.00041793 0.00245724 0)
(0.000118533 -6.73868e-05 -1.42275e-23)
(-0.000491585 9.76418e-05 8.1069e-23)
(6.21521e-05 -0.000133078 5.49481e-22)
(6.12498e-06 -3.12203e-05 6.96821e-22)
(0.000214162 2.36209e-05 0)
(0.00251424 -0.00098458 4.75652e-22)
(0.0006398 0.00020602 -2.43147e-22)
(0.0064309 -0.000730392 -6.25524e-23)
(0.000290765 -5.04711e-05 1.64897e-23)
(3.79499e-05 1.2278e-05 5.99783e-23)
(3.64538e-05 9.55348e-06 -1.99586e-22)
(0.000905541 0.000103908 -1.75651e-23)
(0.000126228 2.46817e-05 -1.32581e-23)
(0.000370911 -0.000413025 2.34115e-22)
(0.000142789 0.000143428 1.52993e-22)
(0.000171597 -0.00022667 0)
(-0.0164327 0.001773 0)
(1.21584e-05 -0.000106856 -3.79527e-22)
(0.00936227 -0.000754932 0)
(2.54611e-06 -3.59158e-05 -4.35493e-22)
(-0.00045141 -0.000645662 -6.42182e-23)
(0.00236086 0.00199198 0)
(0.00706955 0.00711378 0)
(4.44996e-05 -0.0001952 -4.45616e-22)
(-0.0107204 -0.00338416 -5.73637e-23)
(0.000710553 -8.36682e-05 -5.96721e-22)
(-2.54765e-05 0.00280777 -9.30508e-23)
(0.00614479 -0.00940711 0)
(2.83994e-05 6.23263e-05 1.24465e-22)
(-0.00508396 0.012549 -7.09738e-23)
(0.000194013 -0.000131063 0)
(0.000330927 0.000175232 7.57537e-24)
(0.001742 0.00349576 1.38398e-21)
(-0.0094142 0.00447058 2.38983e-22)
(2.77092e-05 9.31292e-06 1.66646e-22)
(0.000418846 -0.000381293 -2.21268e-22)
(4.26861e-05 7.32914e-05 1.70172e-22)
(0.0097618 -0.00392656 -1.43917e-23)
(0.00468514 9.12776e-05 -7.69265e-23)
(0.000101743 4.74573e-05 7.0912e-24)
(0.000171902 -0.000488885 7.55952e-22)
(-0.000976543 0.0137919 1.35059e-21)
(1.32608e-06 -3.70388e-05 6.03944e-22)
(2.22922e-06 -5.07955e-05 4.44902e-22)
(-0.000602724 0.000252948 -4.18053e-22)
(0.00964992 -0.000608745 2.27003e-22)
(0.00854686 -0.00137916 1.41614e-21)
(3.20092e-05 -0.000168863 -1.46531e-22)
(0.00362735 -0.000515091 8.33719e-23)
(0.000100605 0.00010078 -1.32073e-22)
(6.75905e-06 -4.72469e-05 0)
(-0.0168182 -0.00144609 -6.56994e-24)
(0.00404097 -0.000247101 0)
(-0.00194549 0.000316234 -7.59994e-23)
(9.04865e-06 2.79503e-05 0)
(-0.00202676 0.00129821 -1.30738e-23)
(0.000319635 -0.000260206 0)
(-0.00049273 0.000399915 -1.03736e-22)
(3.66241e-05 -0.000163029 1.06726e-21)
(0.000136298 4.34597e-06 -7.17854e-24)
(5.86663e-05 0.000260958 0)
(8.0671e-05 -0.000148212 0)
(-0.00267149 0.000921226 2.53573e-23)
(0.00049838 0.000772138 9.83999e-23)
(0.000579091 0.00069416 1.30169e-23)
(0.000906506 -0.000281851 4.20637e-22)
(0.000426507 -0.000980087 5.09982e-21)
(0.00768841 -0.00809166 -9.84097e-24)
(0.00354439 0.00313303 2.19022e-23)
(-0.00685987 -0.011335 0)
(-0.00357222 9.37774e-05 0)
(-0.000551113 0.000574191 5.07006e-22)
(0.000318451 -6.07303e-05 -5.59572e-22)
(0.00379463 -0.0120396 0)
(0.000389246 0.00343595 0)
(5.91503e-05 2.65903e-05 0)
(8.86727e-05 0.000484146 1.60929e-22)
(0.0064958 -0.00656571 -2.29637e-21)
(0.000199881 -2.76568e-05 -2.2928e-22)
(4.15083e-05 -6.18181e-05 -1.16708e-23)
(4.00765e-05 -5.70288e-05 2.96977e-22)
(-0.000790243 -0.000595063 -4.11113e-23)
(0.0140907 1.13411e-05 -4.49784e-22)
(-6.8914e-05 0.000391136 5.56838e-22)
(-0.00763576 0.000991707 1.98338e-21)
(3.87354e-05 9.42086e-06 6.52767e-23)
(0.00912411 0.000407845 -2.79193e-22)
(0.000596645 -0.00045352 0)
(-0.00125107 -0.000974718 2.20116e-21)
(0.000426224 -0.000300575 -1.03236e-22)
(0.000230197 1.94545e-05 -2.51403e-23)
(0.000139419 0.000117903 1.43066e-22)
(-0.000681079 -0.00133526 -9.35883e-22)
(-0.0020449 -3.58546e-05 2.71256e-22)
(0.000307441 -5.73203e-05 6.72867e-22)
(0.00417454 0.0056234 -2.43076e-22)
(0.000116696 2.14995e-05 0)
(-0.00355256 -0.00508237 0)
(-0.00065029 -0.000724186 1.70131e-23)
(0.000422676 0.0021176 -1.96522e-22)
(0.000339679 3.19584e-05 2.16481e-23)
(-0.00666931 -0.00634602 0)
(3.58972e-05 -0.000118602 -4.56895e-22)
(3.43416e-06 -4.33776e-05 -2.77328e-23)
(3.4208e-05 -0.000150051 -8.07527e-22)
(9.88479e-06 -5.82528e-05 1.11566e-22)
(0.0131493 0.000509232 0)
(1.55808e-05 6.52574e-07 0)
(-0.015902 -0.0023574 0)
(-0.00110545 0.00409722 0)
(0.000423974 -0.000246045 0)
(0.00557048 0.00175574 0)
(-0.006879 -0.000893106 0)
(0.000510758 0.00191837 0)
(-0.000544023 0.0031988 2.78218e-22)
(5.28992e-05 -0.000190711 3.67161e-22)
(5.5128e-07 -0.000123648 1.06916e-21)
(3.10925e-05 -0.00014732 -3.93189e-23)
(1.88214e-05 5.69599e-06 0)
(3.46259e-05 8.11613e-06 2.59301e-22)
(1.57159e-05 -5.18229e-06 1.44754e-22)
(0.000963586 -2.76054e-05 0)
(-0.000811253 -0.00139501 -3.51399e-23)
(0.000331294 -0.000273213 0)
(0.00320986 0.0183843 -4.25348e-21)
(0.00014003 2.48054e-05 5.22895e-23)
(0.000716096 0.00413025 -1.8375e-22)
(-7.64123e-07 -8.32674e-06 3.14319e-22)
(-0.00117007 -0.00479547 -2.19495e-21)
(0.000255243 -0.000149261 -3.21822e-23)
(-2.56926e-06 -1.99666e-05 9.01523e-23)
(3.4498e-06 -7.5786e-05 5.7584e-22)
(0.00563165 0.00745034 -2.61651e-22)
(0.000227536 4.82276e-05 -1.69848e-23)
(0.00718615 0.0140605 5.91184e-23)
(0.00523166 -0.0109661 -5.78189e-23)
(9.6561e-05 0.000815408 0)
(0.000667124 0.00127641 -1.07561e-22)
(2.25052e-06 7.66874e-05 2.74089e-22)
(0.0042272 -0.000182763 -2.48102e-22)
(0.000148441 -4.30282e-05 0)
(0.000125879 0.000135656 -3.4927e-22)
(-0.0162082 0.000504875 0)
(2.47354e-06 -0.000120334 -4.92404e-22)
(8.24624e-05 -0.000111693 1.64157e-22)
(4.08274e-05 2.13236e-05 0)
(-0.000328093 0.000644842 -3.22546e-22)
(0.0131504 0.000560589 -9.96707e-22)
(0.000264554 -2.30791e-05 -9.07849e-23)
(0.000351975 6.6086e-05 -5.35579e-23)
(-0.00555214 -0.00162223 0)
(0.00458239 0.00234542 -5.23485e-22)
(9.52938e-05 -0.000189477 5.08423e-22)
(0.000180277 -5.5436e-05 0)
(0.0123595 -0.00287358 4.29647e-23)
(1.74951e-05 4.84165e-06 0)
(0.011926 -0.00311815 3.27396e-22)
(8.18513e-06 -2.2515e-05 1.62652e-22)
(0.000100026 0.00012251 0)
(0.00709236 0.0176637 1.98949e-22)
(-0.000729504 0.00136368 8.00431e-23)
(-0.000405045 0.00199818 0)
(0.000409468 -0.000773185 -6.85556e-23)
(0.000670422 0.000237677 3.07954e-23)
(1.57247e-06 -0.0001001 4.6503e-22)
(-3.43422e-07 -7.01412e-06 6.60451e-22)
(0.000883463 -0.000159719 0)
(0.000115525 2.34902e-05 -2.003e-23)
(2.12044e-07 -8.98562e-05 8.45168e-22)
(-0.000118849 0.000390807 0)
(-0.00356893 0.00284265 4.74108e-22)
(1.94693e-05 -9.32123e-07 3.49419e-22)
(0.000829569 0.00245241 4.1105e-22)
(-0.000856611 -0.00375764 -1.7525e-21)
(0.00879301 0.012994 -1.44522e-22)
(0.000472109 -0.000701704 4.51896e-23)
(-0.0042682 0.00757339 1.06284e-21)
(0.000124712 -0.000267691 -6.59532e-22)
(1.99589e-07 -0.000120667 0)
(0.000384211 -0.00194744 -1.31419e-23)
(4.06271e-05 -5.22305e-07 0)
(0.00021203 0.000136593 1.24304e-23)
(0.00447554 0.00362106 -7.07016e-22)
(0.00613606 -0.00418333 7.56768e-22)
(-0.00598008 0.0122055 -9.98474e-23)
(0.0123928 -0.00319549 0)
(0.000106743 4.73543e-05 0)
(9.96968e-05 4.71421e-05 -7.11604e-24)
(0.000498534 -0.000255672 -5.07505e-22)
(0.00013005 -1.20376e-06 6.74963e-23)
(5.27013e-05 5.08306e-05 0)
(0.0053738 0.000500877 1.26053e-21)
(-0.000801964 0.0010717 2.09698e-22)
(0.00985764 0.00153277 0)
(-0.000304708 -0.000753814 5.11078e-23)
(-0.000704246 0.00143384 -6.53993e-23)
(1.34746e-05 -8.22236e-05 -1.36232e-22)
(3.41693e-05 3.79967e-05 0)
(0.0126758 0.00368343 1.17984e-21)
(0.000866442 0.00190287 6.53806e-22)
(0.000105028 0.000132869 -3.47198e-22)
(2.00412e-07 -6.73725e-05 1.9908e-22)
(-0.000458057 0.00209112 -1.60509e-22)
(0.000194675 0.00155306 -5.71995e-23)
(-0.00769323 0.000483739 0)
(4.8866e-05 -0.000162758 0)
(1.82834e-05 -3.52126e-05 -3.47327e-22)
(0.01296 0.000457924 7.89678e-22)
(3.19411e-05 -0.000167937 -8.765e-22)
(0.000356908 0.000203953 -2.18321e-24)
(3.50149e-05 1.01738e-05 0)
(0.00447397 -0.00537847 0)
(2.61241e-05 1.11902e-07 5.21521e-23)
(0.00362836 0.00205519 0)
(1.47187e-05 -5.59284e-09 -8.21308e-22)
(-0.00104463 0.000901702 4.28089e-23)
(0.000373148 0.000497889 -3.31184e-24)
(0.000467176 -0.000290462 -2.04595e-22)
(0.00035413 4.04938e-05 1.05445e-23)
(5.29736e-05 -0.000127787 0)
(0.000164131 7.8457e-05 0)
(1.95925e-05 7.93983e-06 5.03018e-24)
(-0.0145367 -0.00518036 2.29682e-22)
(4.91962e-05 -0.000157378 0)
(0.0104859 -0.00122052 -1.51578e-22)