/*--------------------------------*- C++ -*----------------------------------*\
| =========                 |                                                 |
| \\      /  F ield         | OpenFOAM: The Open Source CFD Toolbox           |
|  \\    /   O peration     | Version:  v2012                                 |
|   \\  /    A nd           | Website:  www.openfoam.com                      |
|    \\/     M anipulation  |                                                 |
\*---------------------------------------------------------------------------*/
FoamFile
{
    version     2.0;
    format      ascii;
    class       volScalarField;
    location    "400";
    object      ddt0(omega);
}
// * * * * * * * * * * * * * * * * * * * * * * * * * * * * * * * * * * * * * //

dimensions      [0 0 -2 0 0 0 0];


internalField   nonuniform List<scalar> 
13851
(
0.000863201
-1.69684e-07
-7.47365e-07
-0.00714981
-2.2964e-08
2.53219e-06
-7.35899e-06
-5.80827e-08
0.0245376
4.23616e-07
-0.000172224
-2.37859e-07
3.51849e-07
0.00795953
1.44815e-05
0.0024839
0.0073332
6.63177e-07
-0.0152111
0.00108228
7.204e-05
9.1678e-06
-0.0294749
1.10523e-09
-0.00439173
-7.94861e-05
0.000444214
0.170062
-0.0267055
-7.06975e-09
0.00346482
-7.37429e-06
0.000672511
0.0474909
-1.56961e-05
-0.0413751
1.48559e-09
-0.122332
-0.0111808
-2.71313e-06
0.0713449
-0.021527
-0.0885091
-0.0185948
0.0107928
-1.01679e-06
-1.48363e-07
0.00221238
4.94566e-06
1.24676e-07
0.0512756
-8.65215e-08
0.0026922
-3.96661e-05
-0.00499065
-2.81014e-06
0.00109614
0.0628472
-0.0628855
0.0114844
-2.57423e-07
-0.0273596
-1.63247e-07
5.23739e-06
0.0225448
0.0184263
0.0204557
0.0119568
-7.9187e-07
-0.00432482
-0.00644055
0.000136541
-1.00514e-07
0.014558
-3.47542e-05
3.58366e-06
-0.00138433
2.85566e-07
-0.210579
5.13838e-07
-5.02394e-07
0.0144588
1.80824e-05
-0.00319338
0.00999632
-0.0035765
9.02424e-06
0.0241379
8.01669e-07
0.00687686
-1.24812e-07
-7.55097e-06
-0.161808
-0.00154676
-0.0176077
-0.0147648
-1.0408e-06
0.00287966
0.0273845
-0.00337904
0.00296329
0.00114578
-0.000163413
-6.85425e-07
-7.81389e-07
8.96951e-05
-8.71906e-07
-0.00675194
-7.5292e-06
6.33836e-07
-0.000363652
-1.04316e-06
-0.00327695
-4.02011e-05
-0.00144467
-3.59609e-05
-2.17766e-07
-4.15807e-08
-0.0132177
0.0267872
-0.00911969
4.57255e-07
-1.66309e-06
0.00779439
0.00490995
0.0169163
-1.03754e-06
0.000419337
0.038687
7.49139e-05
8.76947e-06
4.00792e-06
-0.532391
0.0388772
-5.7128e-05
-0.0144628
0.0125036
-0.00596509
0.00170409
6.16416e-05
0.0092927
-4.45463e-06
9.12171e-07
0.0174862
0.0738201
9.72442e-07
3.03528e-07
0.000376754
-0.00433378
0.000112015
0.00247779
-0.00323347
-6.12025e-05
-0.00882061
-8.5844e-07
7.82721e-07
-2.03488e-07
-0.00958501
4.31557e-05
-3.99569e-06
5.18502e-09
-0.0332774
0.000121121
0.00214556
0.00651591
0.0413669
0.0432691
0.0442867
7.23778e-06
-0.0810097
-2.75956e-07
-2.50815e-07
0.000116857
7.46271e-09
-0.0280903
-0.00961183
-4.24525e-05
-1.91872e-07
-3.97219e-05
0.00124039
0.00361362
0.00424855
-2.25127e-06
6.43217e-05
-0.0647953
-0.00501074
0.000548501
9.22202e-05
-1.53869e-06
-3.36417e-07
-0.19989
4.52829e-05
0.0221361
1.88422e-06
7.02869e-07
0.00318197
-0.000307007
-3.59567e-08
1.29418e-06
-0.00497247
-0.00178198
-0.012044
0.0552
1.48003e-05
0.0420403
-0.00319371
-2.76694e-06
2.3112e-05
0.0246996
3.00213e-06
0.00170386
-1.71816e-06
0.00631199
5.56872e-08
-2.27363e-05
6.44214e-06
2.99912e-07
0.00916969
2.36208e-07
0.0683706
-2.23033e-07
0.003709
0.00455592
-0.0204253
1.61255e-06
1.03687e-05
3.43455e-08
0.00949301
4.44787e-07
-1.85385e-05
-0.154905
-6.40885e-05
2.79312e-06
-1.85531e-08
0.0525328
3.27607e-08
0.160385
0.0476407
0.00161742
4.83514e-09
-0.0668407
0.00579645
0.0135469
0.00190003
1.91787e-05
-0.00904678
0.00484241
-4.62478e-05
-0.010106
0.000264432
0.00576988
0.00117976
-1.06257e-07
-1.41678e-06
0.00346232
-0.0350994
0.00842082
-3.37565e-07
0.013521
8.66639e-07
-0.000328962
0.00191809
-2.24554e-06
0.000136016
-0.000880062
2.27923e-07
0.00857495
0.00140752
-0.0901714
-2.97209e-07
3.92372e-07
-3.34979e-05
0.0268747
-0.00788462
0.00011968
5.22771e-07
0.0023934
-0.00712488
-0.0013517
0.00013903
0.0253644
0.0147362
1.59981e-06
3.12775e-06
-0.267807
-4.8297e-07
-1.81839e-07
-0.00107374
8.96739e-05
1.56113e-07
5.40808e-08
5.1162e-07
-7.29833e-08
1.47599e-05
-2.09537e-07
0.0281874
8.82218e-05
-1.89888e-06
-0.0393081
0.00419763
-8.56783e-07
0.00250305
0.0620818
-4.26081e-06
-7.1288e-07
9.70132e-05
-0.00173552
-0.131356
0.000274096
-2.88837e-08
-0.0822364
-2.73921e-07
0.000226376
0.045796
-0.357154
-3.54981e-06
-0.40794
-0.135723
-0.0165359
0.00211469
0.00901396
-0.0274162
0.0163797
0.304918
1.45283e-06
-0.00815771
0.0184677
-0.0274242
0.00935998
-3.01406e-06
0.000168081
-1.92475e-06
0.0261403
-0.0125421
8.6411e-08
-1.88847e-07
7.80404e-06
-0.012131
0.115314
-4.67658e-07
-0.0129588
-2.52176e-05
6.97065e-06
-4.49072e-06
0.00787913
0.00521368
0.00328673
5.73038e-06
2.48016e-06
-0.0578703
-1.66813e-06
-0.003399
5.68226e-07
9.5688e-05
0.000441192
9.38947e-07
-1.93106e-06
0.00126027
-0.00190033
0.00377518
-0.378284
-0.0584517
1.32917e-06
0.0468568
-5.30358e-05
3.98485e-07
-0.357656
0.000834278
0.0221421
8.53492e-06
-0.000321118
-0.000662057
0.330389
-0.00344917
-0.00251014
2.57516e-06
-0.0155996
-0.137153
8.64015e-06
-0.00390518
1.66498e-05
0.0420826
1.58476e-06
-0.000107095
-0.000742329
-0.00282383
6.52385e-07
1.24424e-06
-9.30356e-05
-3.91158e-05
-1.20961e-06
0.000104589
0.045089
-3.65061e-07
2.15337e-05
0.0243429
2.05394e-06
0.247477
-7.8321e-05
-0.136021
3.54952e-06
-0.000121071
-0.0401377
0.00648249
8.24534e-05
0.0164454
0.0174226
-0.105804
2.68401e-07
0.00528274
1.63475e-05
-0.000291831
4.2553e-07
-0.101869
0.0652622
0.33647
1.98226e-06
-0.000617285
-0.0358088
-0.00799146
9.60185e-08
-0.0203957
-0.0121227
0.372741
0.000116044
0.301588
9.35403e-07
2.89357e-09
-0.00533128
-0.0110188
5.57934e-07
-2.65541e-07
2.82694e-05
-2.17917e-07
0.059021
0.000177697
0.00117631
-7.14466e-06
2.55613e-06
-1.36254e-07
0.685759
-1.90793e-06
1.9996e-08
0.0368195
0.0442059
8.09621e-06
0.0109322
-1.66874e-07
-1.86416e-07
2.46261e-06
0.0021746
-9.65411e-05
-1.40182e-06
1.01673e-06
-0.00422266
-9.53183e-07
-0.103214
-2.0345e-07
-1.70341e-05
0.0195076
0.000561866
1.61398e-08
-2.60859e-07
-6.02146e-06
-2.58841e-07
-0.00767132
0.024346
2.16484e-05
0.0528209
1.99172e-06
-1.19067e-07
0.0174124
-0.00562434
0.0001155
-1.03837e-06
0.0117503
0.000507664
11.4226
-5.09971e-07
6.93957e-06
-0.000775814
-2.73933e-05
0.0230674
-0.0484078
0.497175
-2.91273e-06
8.8711e-05
-1.97876e-07
-0.0292684
-6.52004e-05
-0.00045013
1.49489e-05
4.73199e-06
0.00112182
0.00010885
-9.13725e-09
-0.048483
0.0146373
-0.0885296
-0.027853
0.0274214
-0.0089058
0.00350987
5.13187e-08
4.21332e-08
0.435677
2.675e-07
-1.10966e-06
1.51924e-05
-0.0336498
-1.39323e-06
-4.02561e-06
0.00166692
4.36256e-05
1.75227e-07
0.0832988
-7.33127e-07
0.0371903
0.00796809
3.89587e-07
-2.24723e-06
-0.0155441
-0.176971
1.173e-07
-0.0501545
0.243426
-7.45188e-08
-0.0116386
-0.00117037
0.00437949
-3.02042e-06
0.0402688
0.00879824
-2.77741e-08
-0.00573626
-1.1775e-06
-7.83921e-07
0.0215433
0.0335539
2.54258e-05
-0.000102872
3.29435e-07
-1.22445e-05
0.0420525
-0.0148236
2.01043e-07
-0.0142566
-1.25763e-06
-1.00943e-06
9.2308e-05
-2.03538e-05
5.42982e-08
3.48745e-06
-0.00719412
-0.0027526
-0.00998159
-1.61863e-06
9.38417e-07
0.0312744
-4.12943e-08
0.00616619
-1.19886e-05
-3.00535e-05
1.7488e-05
0.0293599
0.014644
8.65884e-07
-0.0385904
-2.90493e-06
-4.35349e-05
-0.0143224
-0.00809826
-2.47786e-06
-1.88911e-07
0.00148913
-0.00747372
0.0137162
-1.5814e-05
5.72885
-2.17943e-05
-1.76948e-06
-0.253574
0.0630812
-0.00166749
0.0296649
-0.00436998
-0.0500382
2.64148e-06
-0.169913
0.812542
-2.89998e-07
-0.129146
-0.0388009
2.38538e-06
6.21294e-05
-2.44404e-06
0.00421705
0.000603248
-0.0128652
-1.95724e-06
7.94667e-09
4.91553e-06
4.17573e-05
-2.19285e-07
-0.0235235
9.19609e-09
-0.00412598
-4.19003e-06
-0.00021225
-7.92081e-07
1.56646e-07
0.000133376
-0.0157362
0.00010487
-0.0110293
5.81061e-06
-2.40711e-07
4.18836e-07
0.000114295
1.19745e-06
-0.00144767
-1.17429e-06
0.000525526
-0.130661
-4.3116e-08
0.0248605
4.11019e-08
-0.000226387
-0.0269701
0.0437822
-0.00450648
0.0493393
0.00425907
-0.00540258
-0.0503949
1.70331e-07
0.0564206
-4.13932e-06
1.29101e-05
-0.000339623
-0.651229
4.14091e-07
-0.00100549
-4.3004e-08
-0.051004
0.0289864
5.55637e-07
-0.00174056
0.0373268
5.04011e-08
6.09923e-08
-9.75266e-05
0.0410692
0.0265085
-5.90138e-07
0.000635608
-7.93663e-07
3.14444e-07
-0.287225
-0.000149716
-0.00237263
3.6666e-08
0.00139407
0.000669723
-0.000181529
-1.46564e-06
1.82314e-07
-0.000785531
-8.14177e-06
0.00180649
0.000142251
0.000158314
0.00209979
-0.397625
0.00463976
-0.0205163
-0.0743956
0.00261717
-0.00217026
4.67476e-05
0.014303
0.00432793
7.50058e-07
-4.13265e-06
-0.00842337
9.81434e-06
5.34299e-07
4.64231e-07
9.602e-05
-0.0132302
-1.65101e-05
0.0410959
-2.36881e-07
0.0315767
0.00625195
0.0635411
0.00068707
3.87574e-06
-8.74226e-07
0.0541188
-0.00332109
6.13644e-05
-0.0285368
2.27244e-06
0.111878
0.00010402
-0.00373796
1.01324e-05
-0.0357941
8.95827e-07
5.32421e-08
-2.17918e-06
4.29848e-07
-0.00743853
-6.18909e-08
-0.195867
0.0305764
0.000975316
-0.0213036
0.0235244
-0.00237655
-0.00547633
-0.000333291
-3.12214e-08
6.11784e-07
2.38029e-07
4.20593e-07
2.31324e-09
6.65667e-05
-0.00423734
0.00172912
0.199033
3.00709e-06
0.0223248
9.72621e-09
0.000727824
-4.79276e-06
2.06633e-08
-5.52658e-08
0.0448256
2.5732e-06
-0.0925849
-0.049863
4.79097e-05
0.000408341
-2.29478e-07
0.0458242
-9.3784e-10
-1.35635e-06
-0.212895
-7.58084e-09
-4.12676e-06
3.84187e-07
-4.53428e-05
-0.00765282
6.79823e-06
1.46062e-05
-0.00990039
-0.00828417
-0.000116659
1.3296e-06
-0.0306319
1.87919e-07
-0.0373439
1.02443e-08
-1.28166e-06
-0.322117
0.000114025
-0.00180994
-0.000984955
0.000120477
3.68777e-08
5.38445e-09
-0.000117947
2.36169e-06
3.61918e-08
-2.20377e-05
-0.00191602
4.51792e-08
-0.00814423
1.36522
-0.11415
-0.000447018
0.07958
-0.0019388
-1.86285e-08
-0.00293499
-1.72503e-07
7.90612e-07
-0.030491
-0.0609871
0.0535119
-0.0221165
1.17322e-06
1.55026e-07
0.00438985
-1.00543e-06
-1.44009e-07
0.125767
7.95284e-05
-0.010434
-0.00019361
0.000184736
4.89757e-07
-4.57225e-08
-0.575821
0.00134773
-1.41985e-06
5.44144e-09
-0.00133248
0.00123667
0.0405881
-1.21108e-06
-3.33008e-08
-0.00732929
-1.17791e-06
2.00078e-05
-1.86578e-07
-0.0385687
-2.83393e-07
-0.0106813
-1.30176e-07
0.00299809
5.87708e-05
0.00166363
1.31265e-05
4.70014e-08
-3.2597e-08
-3.7734e-08
-0.135885
-2.64621e-06
-0.00661725
1.9736e-06
0.0338219
0.0159586
1.00932e-05
-3.65877e-08
0.0168344
0.0334237
2.03504e-06
0.000194874
6.24079e-07
0.0159531
7.30313e-07
-0.00743272
-1.6529e-07
-3.39709e-08
-0.125194
1.87958e-05
-2.89288e-07
-3.5248e-05
0.0551091
-0.0696448
0.0351364
-4.07396e-07
0.0002207
-2.22834e-07
2.04303e-08
-3.58871e-07
-1.89352e-07
8.40396e-08
-0.0365436
-0.02881
3.75014e-07
9.18969e-09
5.03623e-05
-1.02342e-06
-0.0125195
-0.00403931
0.000359836
-0.0291206
2.32405e-07
0.0017505
-2.24196e-07
7.59665e-05
-0.0019342
9.00153e-08
1.03144e-08
-0.240014
0.0274678
0.000394436
-0.027005
0.000118599
-1.96969e-07
3.5864e-05
0.000176015
-0.03055
1.07975e-05
-0.397869
0.00132553
4.40216e-08
-0.236073
-0.28284
-0.0128486
-0.450637
0.0153791
-2.88884e-06
-0.0134666
3.22984e-08
-0.58101
9.37112e-06
9.27066e-08
0.011023
1.74161e-06
-4.38013e-08
-2.2167e-06
8.06103e-07
-0.0278117
-0.00362558
-2.89274e-07
2.33117e-05
-0.00699775
4.35118e-06
-0.0401443
-4.65781e-06
0.000118976
0.0150582
-2.39505e-07
0.026169
3.50002e-06
9.04644e-06
-0.000250657
1.56287e-06
0.0214742
-0.000179369
0.0693265
-4.4854e-07
0.00703212
8.77723e-06
0.00063991
-0.0266377
0.0271246
3.10437e-05
3.48381e-07
1.16208e-06
4.45733e-08
-9.74885e-05
-1.91179e-07
0.0291898
-1.03524e-05
1.66516e-06
-0.000276944
-2.92581e-06
-4.10819e-07
-1.81256e-05
9.53624e-06
-2.1939e-06
9.84982e-06
-0.0905672
-0.103429
5.31618e-06
1.77071e-05
-0.00240073
-4.14727e-06
-0.0168551
1.68523e-07
-7.36557e-05
-2.67584e-06
-2.59869e-07
-0.000115303
-2.17975e-08
-3.55435e-07
0.00388369
6.84936e-07
0.00536705
1.34017e-06
-0.159347
0.295906
0.00766121
-0.0020733
4.56977e-07
-0.0136151
0.00314828
5.36471e-08
9.55711e-06
-3.67084e-06
-0.0222849
-3.91586e-06
0.00323974
-0.634057
0.0385278
-0.000679519
1.34312e-06
0.0278453
-0.406371
0.00758738
-2.30051e-06
-2.48557e-07
1.26271e-07
0.000295774
7.66134e-07
0.00603855
0.00506445
1.35676e-08
0.00127366
0.000958028
4.23246e-07
-0.086295
-0.0185719
-0.000258166
2.48144e-06
0.0188066
0.000137506
6.52924e-08
0.00433572
7.06714e-06
4.99755e-07
-1.97922e-07
-3.27553e-05
-9.57796e-05
0.0296981
0.0206749
-4.54675e-05
0.0404309
-2.08856e-05
1.15397e-06
-0.019553
5.29203e-07
-0.197523
1.87754e-07
-6.03795e-08
2.64548e-06
2.46703e-06
0.0209887
0.022937
-0.00715574
0.0154443
0.0085844
9.63044e-07
-8.7435e-07
1.43042e-06
0.0196191
1.19731e-07
8.96262e-08
2.10766e-05
-0.0739893
0.0198174
-2.64762e-08
-0.000160879
1.47417e-05
0.00244043
-0.102959
-1.55287e-07
-1.52437e-08
-3.37209e-06
0.647652
-2.20027e-05
0.0467345
-4.93975e-07
-2.21372e-08
4.71899e-07
-5.03611e-07
6.71061e-06
-0.000603634
-0.0517446
0.0398217
-0.000518336
-1.65893e-08
-1.32826
-2.78421e-07
0.08225
0.00796364
-0.000369715
-0.0100633
-0.0149947
0.0341004
-8.77372e-05
9.28274e-06
0.00281098
9.58675e-06
5.5168e-05
-0.00402845
-0.00399362
2.7044e-06
-0.0813345
1.06395e-06
-0.0282626
0.501663
1.48041e-07
-3.6833e-06
-0.000133546
-0.0106665
1.97121e-05
-2.55928e-08
-1.02378e-05
-1.97601e-06
-7.66672e-06
-0.0533715
-1.03482e-07
0.0356352
-0.00295934
1.04211e-06
3.63126e-06
-9.16485e-05
-3.02329e-07
-0.0588755
0.128485
-0.0198415
-0.0209691
7.16536e-08
6.85377e-06
7.98503e-06
-2.29572e-06
-0.00109961
1.61623e-05
2.22675e-08
0.000113649
-1.60087e-06
0.00619206
5.48545e-05
0.00517833
-1.97111e-06
3.92871e-06
0.000888512
0.00110794
0.00027516
5.08284e-07
0.163837
0.00808958
0.0671718
-0.00763024
-0.0212221
0.0381638
8.70329e-05
8.21305e-07
8.80091e-07
2.77884e-07
0.0124017
-8.67746e-05
0.000153768
-0.0622211
-3.28248e-07
1.80289e-07
4.70433e-07
0.00900535
3.04612e-07
-3.60319e-06
2.24948e-06
0.0267762
-4.48637e-06
-1.65731e-07
-3.20586e-07
-1.53385e-06
4.51941e-09
0.000294159
-0.00635797
7.21172e-05
0.0600015
5.8115e-07
-6.11198e-07
0.0340441
0.0182641
-0.0078822
-0.0205481
-0.000412278
0.0350371
-2.44255e-07
-0.00281437
3.82453e-06
-1.83128e-07
-5.3717e-06
-0.00414068
-6.38531e-07
0.00111144
-0.733775
-1.44146e-07
-2.51693e-07
-2.65695e-06
-0.00260011
2.21622e-08
0.0339169
2.62612e-07
0.00564858
-9.38901e-08
4.51941e-07
1.86767e-06
0.00445831
-3.31447e-07
0.0149425
-0.00562199
-0.00529732
0.0339236
1.00314e-06
-0.0235533
-0.120443
1.77327e-07
0.473783
-2.47751e-06
0.000148724
-9.57982e-07
-9.56001e-07
1.49768e-07
-7.64199e-08
3.25713e-07
-2.0048e-05
0.000227714
1.58449e-06
-1.3667e-07
0.0112694
3.48359e-07
-0.0975502
-5.01205e-08
1.31802e-05
-3.26652e-05
0.00523337
0.809679
-1.8967e-07
-0.000363973
-1.5437e-07
-3.58805e-05
0.00108436
-0.061901
4.99983e-05
1.83224e-08
0.00126912
-0.000791325
4.27889e-05
0.0947612
0.000211146
-0.00326505
-6.22691e-06
0.000128588
-4.3128e-06
4.23787e-07
-0.143139
0.0280702
6.92686e-06
6.71595e-08
-0.0726214
-2.60321e-07
6.72224e-05
5.21169e-07
-0.000311143
-0.14122
-3.0288e-07
-0.0473518
1.9053e-06
-6.85024e-09
0.00179342
8.16476e-08
-0.000516721
-0.0248696
3.93459e-05
-0.131055
1.69051e-07
3.34575e-08
0.00723405
6.96966e-08
1.65133e-08
-1.22111e-05
6.48582e-06
0.000338092
-0.00128672
-1.23738e-06
-0.000117113
3.22857e-07
-1.89412e-07
5.28185e-08
7.27541e-08
0.193023
2.99566e-07
-4.43153e-06
0.00402858
-2.72572e-07
1.3831e-07
0.0197464
2.68328e-08
-0.100679
-1.33665e-06
0.0305492
0.011425
-0.000739986
-0.791679
0.00020082
-0.0476852
9.71418e-07
0.00228528
9.26932e-06
4.29094e-07
-1.09048e-06
-4.09566e-06
8.31985e-06
-1.47075e-06
-7.39329e-05
8.72519e-08
4.14516e-06
-0.126461
0.0489704
-0.00707467
-4.90386e-06
-0.00693869
0.0107994
-0.0338156
-9.12159e-08
-4.50801e-06
0.0174601
4.00273e-07
-2.9695e-05
-0.890803
0.0397028
-9.62725e-06
5.62261e-06
-2.74909e-07
0.00267203
2.70795e-08
0.000329676
0.306934
-2.30845e-06
-2.09933e-08
-0.114217
5.59595e-05
-0.00981136
0.0424525
0.00043828
-3.25883e-06
1.16847e-07
8.6648e-07
-0.0108491
0.669372
0.0572598
4.3711e-05
4.42374e-07
0.0165361
-2.19071e-07
0.00204279
-0.000159551
-2.7913e-06
5.21982e-05
-9.35178e-08
-0.0579466
0.0247102
-6.25676e-07
0.000423853
-8.18287e-05
-0.590927
-2.46681e-05
-5.9155e-05
-0.00543352
-2.84677e-05
-0.0641107
1.31691e-05
-1.9344e-07
-2.51998e-05
-0.0204088
0.039665
1.32403e-07
-0.615615
-2.48751e-05
-0.000139782
2.35824e-08
-0.0364664
-2.33665e-06
-2.10766e-06
-2.54935e-07
5.13687e-05
3.5232e-05
-0.00011121
5.10468e-08
-1.22633e-06
-0.000987654
-0.177398
7.31968e-06
-1.24498e-07
-2.60792e-06
-3.13966e-05
-0.00389227
-9.61862e-08
-0.000231091
-0.409847
0.000208272
0.0514389
-9.57446e-05
0.0426467
0.0127355
7.12791e-07
0.148501
1.7546e-09
7.79404e-06
-1.15344e-05
2.04037e-05
-0.000681971
-2.55182e-05
5.87758e-05
5.0984e-05
8.85457e-06
3.55217e-06
3.17661e-07
0.00588614
-2.46285e-06
7.49188e-06
0.452366
1.02905e-05
0.000515191
4.56765e-07
-0.0192127
-0.00030166
-1.11224e-06
-1.08002e-06
-1.18214e-06
0.00542131
0.00235568
-1.33517e-05
0.0033246
-0.0276485
0.0537737
0.00105109
0.0536832
-1.01806e-07
-0.00287113
1.0419e-07
-0.000115535
-0.270725
-0.059059
0.0105827
-0.566469
-1.6322e-07
0.016729
-1.73595e-07
0.000314402
2.63653e-06
0.0382776
-0.0227368
-1.31947e-05
-5.3288e-08
0.0111605
0.00257884
5.48668e-07
-0.0114985
-2.10271e-08
-2.52428e-06
-2.50051e-06
-6.69157e-07
1.03194e-05
-1.77706e-06
8.07033e-07
3.15816e-05
-0.0376999
3.85725e-05
8.60104e-05
6.48949e-07
0.0339043
-0.0621518
-2.16681e-08
-0.0229938
2.92064e-06
-2.0572e-06
0.0501957
-1.40071e-08
-4.23899e-06
-1.6252e-06
0.0123306
3.10323e-07
1.6228e-09
4.28678e-06
0.000703809
-8.32002e-09
1.40203e-05
6.5223e-05
0.298673
4.00915e-05
1.92682e-05
-0.00393039
-5.95747e-08
0.0198773
-1.32647e-08
0.0125415
1.3018e-05
2.55938e-07
-1.62121e-05
-0.00106174
-2.62461e-08
3.83823e-07
0.00329496
-0.027764
-2.59166e-07
0.0098865
1.92227e-09
7.57894e-08
0.000145699
1.57662e-07
3.25863e-07
-0.0388652
3.77418e-08
4.04591e-05
0.00224187
-0.0263966
0.167144
3.40514e-08
-1.40181e-07
1.06713e-06
-1.6796e-07
6.5144e-07
-3.69496e-07
0.049493
1.47031e-08
-0.000730822
-0.000197483
3.21825e-08
3.71921e-07
5.44469e-06
-0.000264479
-0.0156534
0.00285433
8.44724e-05
3.0187e-06
0.0298599
5.71261e-05
-3.65475e-05
6.61256e-07
-0.00180551
-0.000606803
0.741839
-7.84631e-05
-0.0104598
0.0341937
-0.0760088
-1.8361e-06
-1.5398e-06
-1.23853e-06
-0.00133786
4.79311e-07
-3.08766e-07
0.00122613
4.02959e-08
1.542e-06
1.107e-08
3.36348e-08
-2.49921e-06
6.0447e-07
0.00199271
-5.3511e-08
-0.143185
-1.74352e-07
-0.00226711
2.53934e-06
-0.000979838
0.001283
3.80899e-07
-0.0230075
-9.50449e-07
7.64959e-08
2.78539e-05
3.36875e-07
1.2235e-06
6.50262e-07
-0.046462
5.47902e-06
7.22664e-05
0.00674731
-0.0316239
4.35508e-05
-0.0292223
0.522414
0.00016825
5.26482e-07
5.61194e-07
-0.000464735
-1.48042e-05
-0.0144206
2.05361e-07
0.0289635
-2.48135e-06
0.00936627
-0.110281
-2.29263e-05
0.0424696
8.62589e-06
1.50764e-05
3.95981e-06
0.0301633
-8.25085e-07
8.93154e-10
-7.56029e-05
-0.00309608
4.65191e-06
4.69234e-07
-3.43148e-08
-0.0131367
7.43805e-08
2.60223e-06
0.0258644
3.45954e-06
3.63346e-07
0.00131712
7.37115e-06
-0.0464291
1.96443e-07
1.13492e-06
-5.24688e-08
5.3882e-06
1.00447e-06
6.28073e-07
0.000118145
0.0164504
2.20668e-07
-8.21616e-08
0.0519103
-5.57984e-07
-0.0429242
-4.92157e-06
-0.0414795
-3.19835e-07
-3.68156e-07
-1.83147e-07
-0.017455
0.0269495
0.000411346
0.00131211
-0.000711323
-1.68545e-06
-1.16873e-07
-0.038931
-1.89976e-09
0.000445973
1.57647e-07
-0.00010407
-5.09204e-09
0.056104
-2.03805e-07
-2.18481e-05
-1.46624e-07
0.0653026
0.026006
2.89126e-07
-8.10228e-05
0.0255031
0.000124287
0.0170317
0.0577877
-0.00225249
-2.50705e-06
1.66948e-05
0.00081928
-0.0229533
-9.40098e-07
-7.64856e-05
1.46381e-06
-1.46344e-06
-0.00320118
0.067206
0.000281395
0.0039588
0.00747125
5.54547e-05
0.0364154
4.50945e-07
1.81076e-07
-0.000234192
0.00248631
-0.00537932
0.00141716
-0.707507
-2.59991e-07
-0.0126272
-0.00917727
-0.0364705
1.55251e-08
-0.00541993
0.0436316
0.262023
-0.10521
0.00324665
0.000256203
8.1923e-06
-0.00513653
-4.4852e-05
-1.80983e-06
0.0995654
0.000460339
3.00926e-07
0.00721093
-1.07788e-08
-0.000722582
5.52233e-05
-1.18475e-06
-0.417436
9.85329e-05
0.0206678
-5.01277e-05
0.000383831
0.027002
-0.0318503
0.00342289
-4.05162e-07
-2.29233e-06
5.73357e-06
-0.00293993
-1.14147e-07
2.32927e-05
-0.00119216
0.00408321
-9.47293e-07
-0.00337161
3.33765e-06
-0.000376056
0.0412091
-0.0731437
-1.1454e-06
-0.00375278
-0.00998845
-2.28615e-06
-2.30625e-07
-0.0522446
-0.00824301
5.95365e-06
1.90233e-06
-3.39499e-07
0.000684027
-6.07407e-06
-0.0293643
-0.00175224
-3.69061e-06
1.38114e-08
-0.00946086
2.94252e-05
-0.145611
0.0429373
-9.00292e-07
2.55961e-07
8.44129e-06
1.59147e-08
2.43301e-06
8.22165e-07
2.42128e-06
-3.45051e-06
-3.18065e-07
4.03877e-06
-1.79904e-07
-1.54292e-05
0.106307
2.91758e-08
0.0567524
-0.0060851
2.53718e-08
0.0131716
0.00484658
-0.000463976
-4.48877e-06
0.000530148
1.20503e-06
0.00407933
5.5724e-06
4.40667e-06
1.18626e-08
-0.0259974
-2.09987e-05
-0.093618
-4.85427e-06
7.52123e-07
3.26967e-07
-0.00121039
1.74433e-07
0.000147693
9.36412e-05
0.00739924
1.00199e-07
0.0344566
0.159685
0.0100263
-2.44169e-07
0.00440225
-0.0601619
0.393403
-0.516771
-7.02052e-07
-1.03241e-06
-0.0041296
-0.522239
-0.225944
5.75672e-05
-0.0161493
2.9104e-09
5.19226e-07
1.13481e-05
1.79185e-08
1.29768e-07
0.00453306
3.93083e-08
0.00611133
-1.69384e-07
0.0167279
0.0496371
0.0212102
0.0408794
0.00815909
2.76988e-08
-2.04728e-07
-0.0406841
2.32392e-07
2.89691e-07
1.15461e-07
-0.00365089
0.0641758
-0.0126097
1.05164e-06
-2.4225e-07
3.87506e-06
4.87217e-06
0.00177284
-5.85609e-08
0.0465427
0.00838629
-2.7193e-08
1.00342e-08
-0.00471512
0.000292239
-2.82365e-06
3.84678e-07
0.0229476
0.0133443
6.18159e-07
0.000763948
4.86149e-08
0.00926108
0.427391
-4.37114e-06
-0.250867
-0.0535815
0.0436602
-1.79049e-07
-8.88166e-07
7.85965e-08
8.60109e-09
0.0213095
-1.08658e-06
0.00414007
0.0344891
-0.0102186
1.92867e-06
-0.000187917
-0.0390539
7.06524e-05
-0.0512811
-0.0168335
2.34123e-07
-1.8638e-06
-1.18168e-06
0.000965175
0.0542538
-6.21596e-09
-0.00844495
-0.00023747
1.04096e-05
-4.89463e-06
6.83683e-08
0.00600092
-3.62075e-05
-0.0149714
1.7444e-08
7.44623e-05
2.35322e-06
-0.000698507
-1.12861e-06
0.0143616
-0.0573794
-0.00281479
0.00027513
-7.75395e-07
2.38459e-06
0.000527519
0.0268186
0.0350468
-0.0125562
-2.06219e-08
0.0307868
0.00600675
-0.0479323
-1.4192e-05
4.04662e-05
4.19916e-05
1.16765e-06
0.047607
-2.14401e-07
1.44659e-05
-0.0145507
0.0510551
-0.139148
0.0607747
9.27987e-07
0.000121818
3.72947e-07
0.00375359
8.71777e-06
0.0895601
3.90288e-07
-0.047641
-3.06784e-07
5.88573e-07
1.39463e-05
8.39361e-05
1.25541e-05
-1.90151e-06
-0.00532172
-4.2192e-05
-1.08552e-06
-1.74485e-06
-0.0148412
0.00986461
1.03309e-06
-0.0204241
6.34731e-06
-1.99474e-05
-2.73793e-05
2.91e-08
-8.3595e-05
6.83107e-07
-0.242663
0.000736154
-1.5295e-05
7.87242e-07
-0.0159225
4.97193e-05
4.01197e-07
0.048055
0.741927
0.00946503
-6.94827e-07
0.124614
-2.1586e-07
-0.0043039
-9.47655e-06
0.000505677
-1.15155
-0.00395121
-0.000336589
0.0556469
-0.000163636
0.000570013
-4.42406e-07
0.0266194
0.00367083
-0.00179489
0.0135931
1.29447e-08
0.0322871
0.00139287
-0.000130673
0.0118342
-0.0296211
-0.00699034
-0.611255
-0.00930243
-0.000187689
-5.38032e-05
-3.49815e-07
1.14352e-06
1.08851e-07
0.000745071
-8.07331e-06
0.0027361
-0.00155198
-6.92923e-08
-2.3785e-08
-5.01698e-05
0.000246446
1.95258e-06
-1.05478e-07
-0.0194959
3.15293e-06
-6.055e-05
-3.48885e-06
0.00274416
3.7971e-06
-0.0212313
-0.000791088
1.99433e-05
-6.6091e-05
-3.2361e-07
0.0346012
-0.0275632
-3.86225e-05
-2.5677e-06
8.24812e-08
-0.000560095
-0.00841976
-0.0440127
5.00348e-07
-0.000107923
-0.116297
6.80179e-07
1.18144e-07
-9.03355e-07
0.0504279
-0.00150944
1.47972e-05
-1.77856e-05
-5.02817e-06
-0.0308146
-0.00116548
0.00348261
-1.29229e-05
1.55192e-05
-2.69978e-08
-0.00302704
-0.000139353
1.18764e-06
-0.0529123
-0.0146722
0.0470588
-0.0264317
0.0258935
-0.124671
-0.0473466
-1.66241e-06
2.26708e-07
-0.0562213
0.0279463
0.0856424
-2.5486e-06
4.62678e-05
4.47464e-07
1.31094e-07
0.0726841
0.0419366
0.000319924
5.62773e-07
-0.0117782
0.000973655
5.35435e-05
-0.00771294
0.390687
-0.0381332
7.34282e-08
0.0147117
0.075422
-0.0157068
-2.32321e-05
4.40927e-05
-6.76947e-08
-2.76775e-07
1.84108e-05
3.79668e-05
6.15988e-06
-1.08974e-06
1.67836e-06
4.18002e-06
0.0144189
-0.00482298
-1.68668e-05
-1.50841e-05
0.0103612
0.00931714
-8.8606e-08
0.0427402
-0.024896
0.00440053
2.95939e-05
1.28832e-06
6.06924e-06
9.38563e-06
8.19232e-06
5.48218e-08
-0.000185002
-9.63986e-06
7.58483e-06
-0.00527944
1.39948e-08
3.85792e-06
-0.0045789
-0.0122189
-0.0370039
-0.0281927
0.00102857
-3.08886e-07
4.73682e-07
6.69327e-06
3.68233e-07
0.0216759
7.28958e-07
3.75938e-08
8.82048e-08
-0.058148
0.531135
-3.02973e-06
0.000130625
1.09256e-05
0.000221832
6.50655e-06
5.09504e-05
4.67219e-05
-1.8335e-05
-0.0181202
-1.82899e-06
0.0149176
2.27626e-05
-0.0433407
4.44481e-06
4.08355e-08
-4.04629e-07
0.000683925
0.00360362
-1.33508e-07
-0.00059012
7.75315e-06
4.66342e-05
0.0413543
-0.2682
-0.0619829
4.05312e-08
0.013507
0.000129652
-3.81137e-05
7.12412e-07
-8.55606e-05
2.73247e-06
-0.00813105
-0.00331308
-2.97442e-05
-2.14783e-07
-0.0218544
5.08835e-06
0.00157668
0.0195458
0.0135949
5.51701e-06
-0.000406113
-0.0737177
0.152487
0.00712175
-1.92813e-05
4.61523e-07
-8.54057e-06
4.38749e-07
-0.121495
3.58512e-06
8.0654e-06
-0.0247355
-0.0361035
4.06692e-07
-1.46083e-06
-0.0135006
5.65586e-05
-0.11688
0.00077695
2.64762e-07
6.02553e-05
0.00391126
0.000422871
-0.0141114
-1.7276e-05
0.230722
5.30192e-06
7.93606e-08
-1.62766e-06
-0.0095196
-3.25438e-06
0.00326106
7.50359e-07
-3.42816e-08
-0.00801478
-6.15098e-06
1.24424e-06
7.57996e-08
1.29685e-05
0.272671
-2.16056e-05
3.41102e-05
-2.11609e-06
-1.43307e-05
-1.66899e-06
-0.00329157
6.79788e-06
3.59489e-05
-0.00664344
-2.17905e-05
-0.00403714
0.000293911
4.57131e-07
0.000150078
0.176613
-0.0240298
5.55146e-07
0.438944
-0.0020979
-5.84697e-07
-2.02052e-06
-0.0165522
-0.00105899
0.000302778
-0.00812783
0.00826438
-6.92137e-08
7.62479e-05
1.15955e-07
-2.4538e-08
-4.84864e-05
-0.172245
-0.0163321
0.0422924
-0.00971433
-0.0447986
0.0142981
-2.92517e-06
0.00709017
7.34371e-07
0.10117
0.0175063
-3.60572e-07
-3.47629e-08
-0.0199682
4.35944e-07
-2.83468e-07
0.0461253
0.0462278
-0.000956948
-6.95512e-06
0.0107471
-1.47494e-08
0.000159068
0.00151192
9.9036e-09
0.0708606
-0.170696
0.0175333
-0.0179751
0.000844464
-0.0157142
-1.93745e-07
-2.72611e-06
5.58531e-05
0.000291856
-2.18287e-07
0.000532545
4.62127e-07
0.00212083
0.00999543
0.000257378
-0.0175303
0.00132368
-0.00335305
0.00514975
0.0108489
0.00130789
-0.0299581
-3.91371e-06
2.94345e-07
0.02366
1.88558e-05
1.79086e-07
-0.0193967
2.99627e-07
-0.0100694
2.86179e-07
0.0785945
-5.82939e-06
8.43331e-07
-1.30227
-6.43366e-05
-0.000327146
-0.0101999
-0.0500517
-0.11197
-1.32116e-05
-0.000114889
-4.17533e-06
-4.76485e-05
0.00362937
-1.8698e-05
1.94916e-08
0.00987009
0.000273673
-2.88035e-05
-0.0136918
6.14769e-05
-5.87532e-05
-0.000480367
2.64173e-05
-1.71756e-05
7.44303e-07
0.00237434
-4.2057e-07
0.00173868
-0.194135
0.00852282
-1.88385e-08
1.22861e-06
-0.0142143
-9.63712e-07
-3.57196e-05
-3.26721e-05
1.98986e-06
-0.0524108
0.000288095
-2.57696e-06
0.270286
3.24004e-08
-0.0306469
-2.30368e-07
7.42641e-07
0.000882104
-0.0465659
3.08917e-05
0.0374905
0.012518
-1.72687e-05
1.40192e-06
-0.00348479
4.7547e-06
-0.00227215
-7.76702e-08
0.679325
0.00343468
-2.52691e-05
5.8438e-06
0.00374846
4.60824e-05
-0.000677628
0.000256465
0.000484975
5.05819e-06
-2.23446e-07
0.0220546
4.42459e-07
4.29757e-06
4.86679e-08
-4.114e-05
4.65747e-06
0.000231939
-0.00387686
-9.1882e-07
-0.00413729
-2.00344e-07
-1.35986e-07
-4.45418e-09
2.26403e-08
-1.26514e-05
3.62979e-07
0.000143943
0.0179116
0.000117279
0.000100052
-4.90395e-06
1.87726e-07
-0.0462934
-1.73185e-06
-0.0798104
0.0468019
-0.00328495
0.00167593
2.47473e-06
-1.24234e-05
-5.89189e-08
-1.29336e-06
0.0075797
7.09711e-05
0.0161275
0.000117861
-0.0424345
0.00219477
2.06607e-08
-7.83206e-08
-0.0223681
-1.3678e-06
4.02335e-06
-0.0103727
0.00724971
-2.05179e-06
0.0327416
5.90901e-09
8.58547e-06
2.20618e-07
-4.4933e-06
-0.00353679
0.00077119
1.1115e-06
-2.82622e-05
0.00451962
8.56843e-05
4.15865e-05
0.0146995
-0.00922651
-0.00643923
0.00227123
-1.31652e-05
4.21631e-06
4.04362e-05
-0.0546243
-0.0658868
0.00542152
-7.79866e-06
0.209094
0.000717491
6.55843e-07
6.0616e-07
-9.85902e-05
-2.08688e-07
-3.62856e-05
-0.0257405
4.81291e-07
4.51373e-07
0.00601206
0.0429088
-3.79144e-05
-0.0314667
1.32916e-07
-0.00743254
-2.32015e-06
-0.0467829
0.000198255
-2.32668e-06
0.0101637
0.0099081
8.57778e-07
0.00339088
6.62418e-08
0.00131382
7.90723e-06
0.00141895
0.0187141
-0.000906678
0.0615295
1.58644e-07
-0.0185959
-3.99667e-07
3.93495e-06
7.92224e-07
1.79757e-05
-4.44878e-08
0.00191646
-0.0309696
-0.0845105
9.41769e-05
-1.92606e-05
-0.000375597
-2.36297e-07
-2.6298e-07
-7.65601e-07
0.318438
-3.1264e-06
0.0710014
-0.00761636
-0.00179709
5.72573e-08
0.00346244
-0.00805401
0.00140905
-1.23659e-05
0.0111705
-8.37712e-07
-2.68817e-07
-4.24492e-07
0.768887
1.24583e-06
4.1043e-07
-0.00281981
7.56199e-07
0.00452614
0.00063859
2.365e-07
0.0227367
-2.10578e-05
0.0751869
2.56759e-07
-0.700451
3.31335e-06
-0.00716116
-0.357763
0.000370418
1.08124e-07
-1.49429e-05
-0.0590432
-2.96341e-05
0.00169573
9.0811e-06
8.1256e-06
-0.000706597
9.18642e-05
-5.88787e-07
-0.0408758
5.37866e-06
-2.05964e-05
0.00131217
1.47511e-07
-6.72874e-07
8.04564e-09
-3.69558e-05
-7.38005e-07
2.67342e-06
0.0619799
0.597348
-0.00127235
0.044802
-5.61564e-05
-5.91554e-05
-0.0385687
-0.0180481
-2.04485e-06
0.00208632
-0.164935
-0.00849929
-0.254439
8.14978e-06
-0.0470742
0.0341202
-0.100819
0.345916
-0.0775236
-0.000314171
0.000343457
-1.43367e-05
-1.02854e-05
-3.23178e-07
0.135992
2.191e-08
-0.00188999
-0.00824217
-0.000991317