/*--------------------------------*- C++ -*----------------------------------*\
| =========                 |                                                 |
| \\      /  F ield         | OpenFOAM: The Open Source CFD Toolbox           |
|  \\    /   O peration     | Version:  v2012                                 |
|   \\  /    A nd           | Website:  www.openfoam.com                      |
|    \\/     M anipulation  |                                                 |
\*---------------------------------------------------------------------------*/
FoamFile
{
    version     2.0;
    format      ascii;
    class       surfaceScalarField;
    location    "400";
    object      ddtCorrDdt0(phi);
}
// * * * * * * * * * * * * * * * * * * * * * * * * * * * * * * * * * * * * * //

dimensions      [0 3 -2 0 0 0 0];
oriented        oriented;


internalField   nonuniform List<scalar> 
20580
(
-0.000212446
0.000284763
-7.23177e-05
-6.12123e-06
-2.61144e-05
3.22357e-05
3.32707e-05
-3.93919e-05
-0.000130237
0.000284898
-0.000154681
1.13224e-05
-1.25678e-05
1.2449e-06
5.52276e-05
-2.82571e-05
-2.69704e-05
4.87788e-07
4.19706e-05
9.89501e-06
-8.87203e-06
-1.02168e-06
-0.00017791
-6.39426e-05
0.000241857
8.34936e-06
-9.78879e-06
1.43851e-06
-2.02678e-06
5.31181e-05
-5.1092e-05
-1.41702e-05
6.83812e-06
7.3317e-06
-5.27011e-05
2.00031e-05
3.26978e-05
7.15e-06
4.08756e-06
-1.12364e-05
-3.30028e-05
0.00010165
-6.86498e-05
0.000396919
-0.000137113
-0.00025981
-0.000107486
-0.000111808
0.000219291
-1.50927e-05
2.23514e-05
-7.25871e-06
0.00113051
-0.000498562
-0.000631953
9.56514e-05
-0.000308098
0.000136861
-0.000108623
-2.82376e-05
4.27309e-05
-3.66677e-05
-6.06359e-06
-0.000260115
-0.000272699
0.0005327
-2.92326e-06
8.97732e-07
2.02538e-06
-0.000957587
-0.000200525
0.00115812
-4.9323e-05
-3.9409e-05
8.87318e-05
-0.000863866
0.000535733
0.000328127
-0.000441384
-0.000665452
0.00110683
-8.7656e-05
0.000775643
-0.000687992
1.82899e-05
3.74079e-07
-1.86641e-05
-0.000305904
0.000408236
-0.00010234
4.40939e-05
-4.36067e-05
0.00025254
-2.1437e-05
-0.000231104
0.000351228
-0.000322806
-2.8424e-05
-2.49602e-05
4.61338e-05
-2.11725e-05
-0.000751883
0.000113376
0.000638506
-1.91327e-07
-2.73195e-06
0.000168699
-0.000268835
0.000100141
9.92106e-05
0.000231575
-0.000330791
-2.15947e-05
-6.00629e-06
2.76008e-05
0.000461142
-0.00029685
-0.000164291
-0.000791646
0.000703989
-0.000148292
0.000148288
0.000113612
-6.81465e-05
-4.54426e-05
0.000638817
-0.000886135
0.000247321
3.02957e-05
-1.79991e-05
-1.22968e-05
7.28017e-06
-3.62011e-06
0.000345122
-8.48962e-05
-0.000260227
-2.40989e-06
-3.30496e-05
3.54592e-05
-1.27381e-05
-3.99631e-05
-0.00012121
0.000147508
-2.63011e-05
-5.29294e-05
9.92946e-06
4.30002e-05
0.000194078
0.000202839
-6.86997e-05
8.74991e-05
-1.87994e-05
0.000338309
-0.000110606
-0.000227703
2.42736e-06
-2.40218e-05
0.000212125
4.0414e-05
0.000342977
0.000118165
-0.000225879
-0.000986334
0.00121222
0.0001393
-0.000132558
-6.7411e-06
-1.21199e-05
-2.05037e-06
-0.000598619
-0.000265249
-1.38684e-05
1.07131e-05
3.15801e-06
-2.69425e-05
2.45324e-05
-4.34037e-05
5.66217e-05
-1.324e-05
-5.84222e-05
1.50079e-05
0.000149136
-9.83641e-06
-2.70376e-05
5.37944e-05
3.93558e-05
-1.58147e-05
-2.35411e-05
0.000222362
0.000102388
-0.000324746
-0.000455746
2.41925e-05
0.000431547
1.4082e-05
-0.000130452
0.000116368
4.02036e-05
-4.12786e-05
1.07407e-06
-0.000150199
1.76413e-05
1.19555e-05
-8.4182e-05
7.2226e-05
3.54667e-05
-2.97335e-05
-5.73425e-06
-0.000323547
0.000216061
4.89426e-06
-9.51308e-06
4.61828e-06
0.000736286
-0.00169387
1.51266e-05
1.65058e-05
-3.1633e-05
1.56118e-05
2.3744e-05
-1.98739e-05
0.000619291
-0.000599417
1.90025e-05
-4.39601e-05
2.05239e-05
-5.88713e-06
-1.46366e-05
-0.000104213
-4.59861e-05
-0.000101013
0.000500402
-0.000399402
1.15041e-05
3.12264e-05
0.000829606
-0.000156805
-0.000672806
-9.01061e-06
1.75949e-05
-8.58415e-06
-0.000474888
0.000168976
-1.88401e-06
-5.10453e-05
2.99653e-06
4.10966e-05
-0.000228411
0.000228409
-0.000390731
0.000289716
0.000451272
-0.0004186
-3.26754e-05
-3.30599e-05
9.77782e-05
-6.46328e-05
2.98097e-05
-3.20475e-05
2.23784e-06
0.000273761
-0.000385269
0.000111505
0.000354778
-0.000348735
-6.04245e-06
-0.000106418
-9.77967e-05
0.000204212
0.0003892
-0.000115441
4.01499e-05
-4.94244e-05
9.27103e-06
5.87169e-05
-3.36896e-05
-2.5029e-05
-4.995e-05
3.97728e-05
1.01773e-05
-3.28086e-05
2.01543e-05
1.2654e-05
1.47433e-05
-9.41655e-05
7.94224e-05
-2.14797e-05
-1.13289e-05
-0.000396436
-5.93179e-05
-4.27781e-05
4.57755e-05
-2.02232e-05
5.13054e-06
1.89028e-07
3.43498e-05
-3.4539e-05
1.63029e-05
1.39926e-05
0.000137432
-0.000115546
-2.18849e-05
-1.90469e-05
7.34457e-05
-5.43994e-05
-8.83379e-05
-0.000112907
0.000201246
-8.32848e-05
1.45848e-05
-9.49508e-06
-6.50556e-06
1.6e-05
5.43512e-06
4.45913e-06
-0.000134047
3.80014e-06
0.000420646
-0.000198289
9.60314e-05
-0.000108897
1.28923e-05
1.456e-05
-1.85787e-05
4.01831e-06
-3.06753e-05
2.55895e-05
5.08552e-06
-1.00482e-05
-6.79397e-05
7.79875e-05
0.000246904
-0.000861163
0.000614258
-3.84389e-05
-1.95839e-05
5.80151e-05
2.73986e-05
2.41105e-06
8.62132e-07
8.56861e-06
-9.43128e-06
2.42849e-05
0.000118891
-0.000143177
-9.20462e-05
0.000124119
-3.20746e-05
-3.6065e-05
-6.02562e-07
-4.13574e-05
4.80461e-05
-6.68667e-06
0.0004216
-0.000252902
0.000292691
5.85364e-05
-5.58334e-05
5.38059e-05
-7.60838e-05
0.000380643
-0.000304562
3.02991e-05
0.000309755
0.000190641
3.63789e-05
3.70297e-06
-4.00806e-05
6.4712e-05
-0.000137101
7.23867e-05
-0.000463334
0.00044346
1.80505e-05
-3.92181e-05
2.11671e-05
-1.8301e-05
9.29025e-06
-3.27379e-05
-2.5719e-05
5.84652e-05
-0.00020081
-0.00010176
0.000302556
-8.38022e-06
3.48131e-05
-2.64342e-05
8.75854e-06
-3.86483e-06
1.75052e-05
0.000722474
-0.000677635
-4.48214e-05
1.08516e-06
-2.23825e-07
0.000172585
0.000216615
9.00558e-05
4.73771e-05
-7.15935e-05
5.25463e-05
0.000636679
-0.00088419
0.00024751
-4.78178e-05
5.09079e-05
-3.08994e-06
4.43014e-05
-3.38171e-05
-1.04854e-05
1.44879e-05
-1.4802e-06
-1.30077e-05
-0.000109926
0.000209136
-2.87888e-05
8.67562e-05
-5.79703e-05
-5.79075e-05
2.87228e-05
2.91832e-05
-6.88376e-06
4.8782e-06
2.00531e-06
0.000708232
-0.000772441
6.42074e-05
9.21674e-05
-7.74244e-05
1.60628e-06
0.000343515
-2.35424e-05
3.06929e-05
-0.000522116
0.000371659
0.000150446
1.87307e-05
-0.000540849
-0.000180753
5.95411e-05
3.55942e-05
-3.54051e-05
-0.000391394
0.000727541
-0.000336142
1.38599e-05
-1.6821e-05
2.9615e-06
9.53806e-06
-1.90333e-05
0.000139073
-0.000101465
-3.76081e-05
1.05998e-05
-4.89483e-06
-5.70516e-06
0.000356686
9.45827e-05
-0.000259415
9.31305e-05
0.00016628
-0.000480689
0.000239156
0.000241532
-7.13863e-06
1.66769e-05
1.69914e-05
6.45577e-05
-8.15494e-05
-0.000285024
-0.000195666
0.000702113
-0.00045521
8.05491e-05
4.19603e-08
-3.59736e-05
3.59317e-05
6.05651e-05
-0.000152613
0.000279904
-0.000279903
0.000142293
0.000580186
-0.000192935
0.000171498
2.45168e-05
-3.50097e-05
1.04932e-05
4.03554e-05
-4.90408e-05
8.68484e-06
-2.76316e-05
4.97055e-06
2.26605e-05
-0.000418218
0.000217402
8.0716e-05
-0.000109507
-7.72723e-06
1.1815e-05
1.2247e-05
4.29807e-05
-3.24072e-05
2.40264e-05
0.000238447
-0.000414709
0.000176259
-4.48715e-05
-0.000148063
-1.02956e-05
2.82526e-05
-1.7957e-05
1.85013e-05
-2.82821e-05
9.78088e-06
-5.72054e-05
5.91084e-06
5.12931e-05
-0.000149403
-0.000376631
0.000526033
-0.000397333
0.000218652
0.000178678
-0.000348767
0.00046331
-0.000114545
-9.78071e-05
6.48025e-05
-9.09629e-05
-0.00017587
0.000266845
-0.000200425
-0.000196909
2.66301e-05
5.67316e-06
-3.2304e-05
9.75955e-05
2.7975e-05
-0.000125572
0.000130791
-0.000251505
0.000120715
3.48938e-05
3.58455e-06
-3.84784e-05
0.00035833
-0.000103756
-0.000254578
-2.15991e-05
-9.07633e-06
-0.000612737
-3.56545e-06
2.9928e-05
-2.63629e-05
-1.72848e-05
4.81975e-05
-3.09114e-05
-3.55169e-05
2.83995e-05
7.11706e-06
-5.32302e-05
4.04923e-05
-0.000485398
7.52904e-05
0.000410105
-3.41981e-06
-1.82117e-05
2.16307e-05
1.92814e-06
5.52416e-05
-1.71902e-05
1.00513e-05
0.000218371
0.000106218
-0.00032459
1.58051e-05
4.71858e-06
0.000335098
-0.000386319
5.12168e-05
-2.51616e-05
-8.77421e-06
3.39329e-05
-2.50004e-05
0.000122596
3.32718e-07
1.14695e-05
-1.18022e-05
1.74773e-05
-5.02161e-05
3.59835e-06
-1.33197e-05
9.72174e-06
2.88499e-05
0.000618871
-0.000383404
-0.000235525
3.36808e-05
-9.16541e-06
-1.3919e-05
4.88127e-05
-1.1593e-07
2.07997e-05
7.40674e-05
-0.000422833
2.07478e-05
-2.4584e-06
-0.000399133
0.000138928
-0.000415235
0.000441811
-2.65793e-05
6.8184e-05
-0.000174604
-5.95263e-06
-9.31218e-07
-0.000565363
0.000355248
0.000210127
0.000122482
-9.75089e-05
-2.49726e-05
-0.000227636
0.000866455
0.000221216
0.000101905
-3.93452e-05
-6.25602e-05
5.69571e-05
-2.86353e-05
-2.83127e-05
-0.000315072
-0.000170327
8.10423e-05
-6.40511e-05
8.56584e-05
1.21555e-05
3.43457e-05
-3.65824e-05
2.23695e-06
2.5061e-05
-0.000490278
0.000465221
-0.000224656
0.000397763
-0.000173108
-8.45093e-06
1.7132e-05
-8.68142e-06
5.74276e-05
-1.67951e-05
-4.06322e-05
-0.000146824
0.000817727
-0.000109497
-0.000447104
-4.08678e-05
0.00048796
-2.38157e-05
-3.81601e-06
2.14467e-05
-8.63322e-06
1.7269e-05
-8.63554e-06
-2.2089e-05
0.00016605
-0.000143959
0.00100972
-0.000827239
-0.00018248
1.30394e-05
4.43879e-05
1.26467e-05
7.95205e-05
-0.000445062
0.000220406
-4.87108e-05
2.89265e-05
1.97839e-05
4.68828e-05
-6.73402e-06
0.000222145
3.16435e-05
-0.000253789
0.00152568
0.000507957
-0.00203363
1.03718e-05
-1.70784e-06
-8.66324e-06
-1.08372e-05
-4.23927e-05
8.51797e-06
0.000266798
-4.79266e-05
-0.00021887
0.000234696
-5.58958e-05
-0.000178812
0.000126799
-0.000111211
-1.55882e-05
1.93832e-05
-4.82332e-06
0.000117462
0.000584651
-0.000848591
0.000799127
4.94625e-05
0.000180643
4.03046e-05
-0.000220947
9.80368e-05
-8.539e-05
9.00878e-05
0.00017671
0.000416323
-0.000420363
4.04119e-06
-5.8078e-06
-3.68761e-05
4.26839e-05
-0.000105908
7.78043e-05
2.80929e-05
-0.00156906
0.000856523
0.000712534
-1.28455e-05
2.62481e-05
-1.34027e-05
-2.20789e-07
1.32202e-05
-1.29994e-05
1.3234e-05
0.000167409
-3.99711e-05
3.43284e-05
5.64208e-06
-1.53714e-05
1.69022e-05
-1.53236e-06
2.40994e-05
-2.76071e-05
3.5075e-06
1.11465e-05
-7.54805e-06
-8.85369e-06
8.97364e-06
-1.2043e-07
-8.19274e-05
1.67302e-05
6.51989e-05
1.42672e-05
9.77728e-05
-0.000275681
4.77174e-05
8.91437e-05
1.47477e-05
-2.42336e-05
9.48603e-06
6.58423e-05
-6.001e-05
4.99618e-05
-4.92139e-05
4.5064e-05
4.14964e-06
0.000314023
0.000160432
-3.91962e-05
-0.000121239
-1.46925e-05
3.27425e-05
-4.87786e-05
-4.35008e-07
-7.41487e-05
0.000121866
-1.80934e-05
2.80005e-05
-9.90788e-06
0.000618444
-0.000553642
-6.48091e-05
0.000136572
2.28128e-05
-0.000159386
9.00783e-06
2.31423e-06
-0.000778527
0.000387133
1.73967e-06
0.000131968
-0.000174468
4.24995e-05
5.69583e-05
0.000103473
0.00161315
0.000232849
-0.00184599
-1.30052e-05
-4.4903e-05
-0.00103956
-0.00052951
1.19666e-05
-0.000827201
0.000815229
-0.000455648
0.000450491
5.14367e-06
-5.74588e-05
-1.39851e-05
7.14454e-05
5.41931e-05
-3.59978e-05
-1.81996e-05
-0.000384033
0.000307946
7.0771e-06
-9.62357e-05
8.91585e-05
-0.0011405
0.00069912
3.0331e-05
-1.18299e-05
0.000172539
-0.000327285
0.000154743
-0.000682129
0.000682125
2.76826e-05
-5.78855e-05
3.02151e-05
-3.26055e-05
6.02948e-05
3.22561e-06
2.34047e-05
0.000164032
-5.45156e-05
-0.000109517
-1.47586e-05
-2.44388e-05
3.91971e-05
0.0003624
0.000467202
5.99545e-05
-4.62659e-05
-1.369e-05
-2.53577e-06
-1.02722e-05
1.28075e-05
7.9561e-06
-6.76205e-07
-5.21904e-06
3.47507e-05
-2.9532e-05
1.43996e-05
-0.000470051
6.26058e-05
1.69375e-05
-2.97832e-05
-8.35019e-05
-1.21767e-05
3.78781e-05
-2.57023e-05
-4.62834e-05
4.92616e-06
4.25056e-05
-1.37835e-05
-1.88008e-05
7.0702e-07
0.000664426
-0.000546966
-0.000220633
-5.86271e-06
-2.96542e-05
2.72209e-05
-4.11401e-05
-0.000268943
0.000438915
-0.000169962
-3.18018e-06
4.35356e-05
-0.000211912
-4.65495e-05
4.07409e-05
-0.000111531
3.73825e-05
2.19692e-05
-3.41469e-05
8.96169e-06
2.38497e-05
-9.10216e-06
0.000280037
-0.000174728
-0.00010531
0.000140572
-0.00023837
-0.000171898
0.000391538
-0.000219641
0.000433566
-0.000496917
0.000227974
2.75507e-05
7.26135e-06
4.80759e-05
0.000207216
-0.000236462
2.925e-05
-1.52307e-06
1.07396e-05
-9.21947e-06
3.92334e-05
0.00157392
-0.000292137
7.61072e-05
0.000216029
0.000252364
0.000102412
3.53504e-05
-4.05697e-05
4.38928e-05
5.12543e-06
0.000575302
-0.000801172
0.00175375
-0.000232818
-0.00152094
-4.25764e-05
-0.000131299
0.000173873
0.000793557
-0.000674282
-0.000119269
3.05368e-05
-2.947e-05
-1.06711e-06
-0.000254532
-4.88625e-06
-8.55002e-05
-6.28157e-05
4.09701e-05
-6.44403e-05
2.34699e-05
0.00044343
-0.000418366
-3.97048e-05
-3.01328e-05
6.98374e-05
0.000526515
-9.6333e-05
-0.000430185
-6.35794e-05
-4.23303e-05
-6.22352e-05
8.08026e-05
0.000441164
-0.000389329
-5.18359e-05
-7.59999e-05
0.000287851
-0.000211853
1.96848e-05
2.46152e-05
4.78792e-05
-8.53357e-06
-3.93456e-05
-1.85141e-05
-2.14575e-05
7.6513e-05
-1.58547e-05
-6.10812e-06
2.19629e-05
9.78905e-05
2.89075e-05
-0.000658733
-0.000144092
0.000802828
9.18952e-06
3.10134e-05
0.000145669
-0.000117695
-3.74195e-06
-0.000171609
0.000175362
2.41813e-05
-4.18674e-05
1.76857e-05
-6.85591e-07
-1.40543e-05
1.49208e-05
-2.06105e-05
-5.68166e-05
7.74266e-05
0.000853892
-0.00023546
4.32183e-05
-3.96337e-05
-9.28715e-05
4.35484e-05
-5.84783e-05
-3.24639e-05
0.000148554
0.000132401
-7.88763e-05
-5.3524e-05
-0.000653932
0.000206818
1.82683e-05
-0.000407648
-0.00015771
-3.37594e-05
-1.49512e-05
0.000171998
0.000108039
3.10196e-05
-5.71243e-05
2.61042e-05
6.50375e-05
-2.11444e-05
2.04164e-05
-2.05813e-05
1.64982e-07
0.000289489
-0.000289489
-0.000607306
0.000748902
-0.000141582
0.00103222
-0.000838998
-0.000193218
-1.77797e-05
4.50006e-05
-3.89865e-06
0.000670946
-0.000106501
-0.000564446
8.75349e-05
0.000147146
9.3165e-06
-1.61848e-05
6.86814e-06
0.000312156
-0.000139618
0.000272982
-0.00052901
0.000256027
-0.000553334
-2.37738e-05
0.000577059
3.76054e-05
-3.25973e-06
0.00171107
-0.000252905
-0.00145817
3.79253e-05
-3.50739e-05
-2.85138e-06
9.65216e-06
9.47521e-07
3.17865e-05
0.000306523
0.000526328
-0.000359799
-0.000166527
1.25284e-05
-4.18021e-06
-3.56629e-05
9.54855e-06
3.02183e-05
0.00011545
-1.14256e-05
1.81491e-05
-6.72442e-06
-0.00068112
7.38278e-05
6.48677e-05
9.91639e-05
-8.0992e-05
-0.000211145
-5.41566e-05
-7.64797e-06
6.1804e-05
-4.29355e-06
3.48293e-05
-3.75376e-05
-1.48217e-05
5.23578e-05
4.61152e-05
0.00170763
-1.54105e-05
-8.82319e-06
-5.21913e-05
1.46544e-05
-0.000191611
-0.000577294
0.000768911
-0.000753833
9.51084e-05
-2.98395e-05
-6.22558e-06
0.000319305
0.000425639
-0.000744933
-9.80339e-06
-4.0637e-06
1.33394e-05
-1.194e-07
4.86305e-05
-2.44494e-05
0.000225864
-0.000103481
3.26166e-05
7.08645e-05
-1.99852e-05
-1.48832e-06
2.14729e-05
-3.71179e-05
1.75114e-05
1.96062e-05
-3.54749e-05
0.000131509
-4.22547e-05
3.8779e-05
3.4762e-06
-0.000288307
0.000586126
-0.000297821
-3.85771e-06
-1.17225e-05
1.55808e-05
7.91058e-05
-7.2315e-05
-6.79142e-06
-0.00031693
-0.000569211
2.20908e-05
-3.80434e-05
1.59517e-05
6.82777e-07
-5.22053e-06
4.5374e-06
1.19109e-05
1.21955e-05
-2.41062e-05
9.3148e-06
-6.34719e-05
2.38966e-05
-3.31988e-05
9.30284e-06
0.000328717
-0.000354633
2.59287e-05
-0.000611854
0.000880829
-0.000268973
5.201e-05
4.98952e-05
-9.72818e-05
-9.42152e-05
0.000191498
3.08506e-05
1.33108e-05
-1.40904e-05
7.79443e-07
-2.54846e-05
2.39718e-05
1.51107e-06
0.000894611
-4.10909e-05
-1.60976e-06
4.26995e-05
-5.83696e-06
3.56e-05
-2.97632e-05
-6.08625e-05
-8.2993e-06
4.46777e-05
-0.000120131
-0.000124444
0.000244476
-2.08401e-05
-2.91098e-05
-4.90033e-05
4.3818e-06
4.46224e-05
-0.000217305
-1.19126e-05
-7.88734e-05
9.07852e-05
-6.60456e-05
-3.01899e-05
0.000180733
0.000490211
0.000757422
0.00027479
-3.38551e-05
1.80501e-05
1.58058e-05
3.25981e-05
-4.75941e-05
2.55915e-05
2.2002e-05
3.20037e-06
7.82296e-05
-9.88404e-05
-0.000139763
9.48911e-05
6.34378e-05
-3.24184e-05
2.96037e-05
-1.84219e-05
4.05119e-05
8.45574e-05
-8.17364e-06
-4.39425e-06
-0.000259291
0.000235403
2.39039e-05
-4.99244e-06
-2.04933e-05
0.000416058
-0.000704368
-6.67836e-05
9.59958e-05
-2.92263e-05
-0.000803464
-2.16971e-05
3.92586e-05
-1.75629e-05
-2.8112e-05
1.1162e-05
2.16459e-05
-3.28079e-05
5.88553e-06
-4.94454e-05
4.35594e-05
-0.000464281
0.000463609
-4.19939e-06
-5.58923e-06
-2.602e-05
1.01652e-05
-2.37639e-05
-1.37265e-05
3.749e-05
-0.000496768
0.00028925
0.000207511
-3.88771e-05
8.11102e-06
3.07668e-05
3.37931e-05
-7.07124e-06
-2.67227e-05
-9.55864e-05
5.34568e-05
4.21263e-05
-7.20964e-05
3.86856e-06
6.82275e-05
2.48018e-06
4.86866e-06
-7.34846e-06
0.0010086
-0.000921268
-8.73269e-05
2.13613e-05
-3.10813e-05
9.72063e-06
0.000141045
-7.03379e-05
-7.07073e-05
0.00043004
-0.000101316
-1.6584e-05
3.17105e-05
-1.67342e-05
-2.68488e-05
4.35854e-05
-0.00043986
-5.34879e-05
0.000493346
0.00175853
5.37676e-06
0.000357095
0.000152834
-0.000509926
0.000183611
-0.000647878
3.01813e-05
-3.08484e-06
-2.70968e-05
-0.000151871
-4.39246e-05
0.000195798
0.000416184
0.000714328
0.000233515
8.83291e-05
-0.000321844
-1.65006e-05
-1.73546e-05
0.000142505
-0.000719792
-0.00029343
-1.85252e-05
0.000311956
8.34432e-06
2.18371e-05
0.000148615
0.000408531
-0.00055715
3.76583e-05
-8.0796e-06
-2.9579e-05
-1.06862e-05
-0.000943581
-6.30637e-05
0.00100665
0.000265215
0.000261299
8.67263e-05
-6.17909e-05
-2.49355e-05
-2.8211e-05
-7.52702e-05
1.05704e-05
-5.62727e-06
-4.94174e-06
-0.000128256
5.03175e-05
7.79388e-05
0.000151461
-0.000127175
-0.000132871
0.000340222
-0.000207362
1.24459e-05
1.05761e-05
-2.30224e-05
0.000166158
-5.917e-05
-0.000106988
-2.60934e-05
2.18436e-05
3.82353e-05
3.0172e-05
4.04454e-05
-7.06177e-05
-8.02787e-06
1.73441e-05
-7.31317e-06
-2.24209e-05
5.08793e-05
-0.000137128
8.62487e-05
-0.00027672
0.000200719
-0.000100993
-7.85203e-06
-3.10247e-05
8.16601e-06
9.10308e-06
0.000267621
4.1074e-05
-0.000308695
-4.66237e-05
4.25761e-05
4.04746e-06
-0.000225959
4.36344e-05
0.000182324
6.66686e-05
2.18277e-06
-6.8852e-05
1.32417e-05
7.57389e-05
-8.89812e-05
8.80158e-05
-6.28226e-05
-2.51935e-05
-0.000611348
0.000805436
-0.000194085
0.000393187
2.3136e-05
3.73678e-05
-4.65162e-05
9.14852e-06
-0.000186017
0.000100503
5.47583e-05
-4.35192e-05
-1.12409e-05
-1.70246e-05
0.000102697
-8.56726e-05
-0.000676112
-0.000115534
0.000169636
-0.000280241
2.48943e-05
-3.00985e-05
5.20426e-06
-1.86675e-05
3.06193e-05
2.80965e-05
-0.000112756
-2.43733e-05
-0.00048066
0.000696011
-0.000215343
-7.93831e-05
-4.8873e-05
-0.000257446
0.000137245
-3.19228e-05
6.20946e-05
-0.000102209
3.8618e-05
0.000507198
0.000111693
0.000106213
-0.000982397
0.000876183
-4.71866e-05
0.000120785
-7.35841e-05
9.77077e-05
4.3336e-05
-0.000263948
3.78315e-05
0.000226116
-0.000204353
0.000655111
-0.000450759
3.6027e-05
-1.74738e-05
-1.85536e-05
-0.00124819
0.00026184
0.000887198
0.000823869
1.41556e-05
-6.67528e-06
-7.48177e-06
-0.000194353
-3.40592e-05
7.0181e-05
0.000562997
-0.000633172
3.56362e-05
0.000125277
2.67627e-05
5.85213e-06
-3.26155e-05
-0.000101926
4.64274e-06
-2.58263e-05
-1.24702e-05
3.82957e-05
0.000762687
-0.000672109
-9.05657e-05
-2.57918e-05
1.03816e-05
5.62657e-06
2.52018e-06
-8.14681e-06
1.46087e-05
1.65003e-05
-3.11078e-05
-6.3065e-05
-9.03176e-06
-1.28223e-05
8.96453e-06
-0.000140084
8.99851e-06
-3.37216e-06
-3.30833e-05
-0.000230865
3.54241e-05
-2.16004e-05
-1.38242e-05
3.84308e-06
6.11944e-05
4.1567e-06
3.56159e-05
-6.95391e-06
9.43432e-06
-1.91919e-05
-7.97561e-06
2.71665e-05
0.000116063
5.00956e-05
0.00012104
-7.25887e-05
-4.84511e-05
-5.6768e-06
-9.57003e-07
-6.27142e-06
1.82364e-05
-1.19657e-05
-1.65465e-05
3.91441e-06
1.26323e-05
1.5776e-05
-0.000117242
-2.2246e-05
-1.48721e-05
9.97207e-06
3.88958e-05
-4.88682e-05
-3.72341e-05
-6.04728e-06
4.32822e-05
-6.34869e-06
-3.47428e-05
-0.00116657
-8.16239e-05
5.17428e-05
-8.43912e-06
-4.3304e-05
-0.000400752
0.000396753
4.00393e-06
-1.78547e-05
1.81874e-05
3.98935e-05
-0.000100703
6.08094e-05
-2.59237e-05
-0.000160115
-1.37119e-05
-0.000564554
0.000578251
3.07154e-05
0.000278738
0.00048398
-4.17561e-05
-5.3831e-05
0.000167731
0.000113014
-0.000280753
0.000547474
-0.000477288
-1.59169e-05
-7.97682e-06
2.38934e-05
0.000530537
0.000478069
2.31193e-05
-2.69696e-05
6.79396e-05
-0.000244307
0.00017751
0.000376253
-0.000947879
0.000571611
-8.82687e-06
7.30246e-06
-4.55521e-05
5.5524e-05
-2.53537e-05
1.50584e-05
-0.000634084
0.000429731
0.0002762
-5.29267e-05
-0.000223275
-1.58359e-05
2.78975e-05
-1.20608e-05
-3.4115e-06
0.000782247
-0.00110921
0.000326969
4.1727e-06
1.57371e-05
-1.99104e-05
-2.23357e-05
2.65085e-05
-7.02218e-05
3.08129e-05
-0.000425379
2.46281e-05
-0.00058229
0.000534602
4.77057e-05
-1.78837e-05
-3.08947e-05
0.000364199
-0.000375119
1.09189e-05
-8.82324e-06
-3.34314e-05
1.42823e-05
2.01846e-06
-1.62995e-05
-0.000925844
0.00124259
-0.000316757
-2.513e-05
-0.000221662
0.000127389
9.42707e-05
1.66084e-05
-9.13249e-06
-7.47645e-06
1.1503e-05
0.000210643
1.81485e-05
3.64359e-05
-5.45843e-05
4.36887e-05
3.76332e-05
-8.13219e-05
-2.85817e-05
3.79166e-05
-9.33436e-06
-2.50024e-05
-7.40527e-06
2.55874e-06
-2.83857e-05
-1.00536e-05
2.46624e-05
0.000246298
-0.000244693
-0.000106278
0.000120359
-6.36668e-06
-0.000124085
-9.77939e-05
5.06128e-05
-0.000111942
-1.25741e-05
0.000416519
-0.000915083
-3.3971e-05
-0.000216255
0.000250212
0.00112623
-0.000769135
0.0002492
-7.66154e-05
-5.13445e-05
2.96096e-05
2.17352e-05
-6.41065e-06
-3.37768e-05
4.01862e-05
-0.000747541
-0.000196039
0.000339733
1.77321e-05
3.98487e-06
-2.1717e-05
-5.22146e-05
-4.99985e-05
-0.000438212
0.000854731
-4.0453e-07
3.39156e-05
-3.35117e-05
3.30907e-05
-1.65852e-05
-1.76925e-05
-1.17903e-05
2.94827e-05
-0.000123821
5.8042e-05
6.57783e-05
0.000105153
0.000688402
3.85661e-06
7.52483e-05
0.000454914
-1.31045e-05
1.22793e-05
-1.85511e-05
0.000108058
-0.000690345
-3.78855e-06
5.8834e-05
-5.50375e-05
0.000101874
-4.49177e-05
-6.10321e-05
1.54798e-05
2.74444e-07
4.2944e-05
3.91704e-05
-5.89932e-06
0.000110614
-8.74239e-06
-7.98062e-05
-0.000141857
-4.18019e-05
3.5391e-05
0.000419828
-3.75379e-05
3.32434e-05
0.000279249
0.000171453
-0.000450664
-8.39275e-05
0.000167537
-0.000200619
6.28185e-05
-1.79166e-05
-4.49029e-05
-0.000138589
0.000759859
-0.000621272
1.28245e-05
2.51006e-05
-2.14201e-05
3.45942e-05
-2.8921e-05
-7.80971e-06
2.20933e-05
0.000804324
-0.000191282
-0.000613039
-7.03907e-06
-1.81472e-06
-0.00127966
0.000353832
0.000219695
-4.9253e-05
-1.17791e-05
-0.000194133
0.000379495
-0.000185372
-0.000106311
-0.000242424
-1.58087e-05
0.000183348
0.000290449
-0.000122722
2.36154e-05
7.09975e-06
5.67737e-05
-4.73461e-05
3.65093e-05
-2.55045e-06
7.53215e-06
-4.98295e-06
-3.05048e-06
-1.34941e-05
4.10367e-06
0.000123541
-0.000103313
-2.0229e-05
0.000163151
-2.64306e-05
-0.000136719
4.79781e-05
-2.98294e-05
-0.00147827
0.000812814
-3.84109e-05
8.34233e-06
3.00681e-05
0.000228565
-8.72918e-06
8.72931e-06
0.000156945
0.000127944
-1.68858e-05
-2.33427e-05
4.02312e-05
-1.19325e-05
3.20331e-06
3.21706e-05
-3.06048e-05
-1.56516e-06
0.000137517
0.000430128
-0.000567652
1.87176e-05
-4.69748e-05
-0.000917659
0.00110311
-0.000185438
-0.000302524
0.000850023
-5.03458e-05
-8.88128e-05
-6.32634e-05
0.000152075
2.70045e-05
-2.77687e-05
7.63964e-07
-1.12251e-05
-0.000311581
5.75122e-06
2.23941e-05
-2.81476e-05
3.924e-05
-3.11287e-05
7.6011e-05
-5.62426e-05
5.83236e-05
-2.08044e-06
-2.76885e-05
-1.15299e-05
-1.33079e-05
-2.12807e-06
1.54356e-05
-9.30977e-05
5.9701e-06
8.71272e-05
-0.000537885
0.000598509
-6.06205e-05
3.68256e-06
-4.55624e-05
4.18779e-05
-5.19586e-05
6.77386e-05
-1.57806e-05
0.000507366
-0.000234386
-0.000306766
0.000173892
-3.26122e-05
-2.39561e-06
8.62838e-06
2.2766e-05
-3.13954e-05
0.000608163
0.000129634
-0.000737797
-7.64335e-06
5.09226e-06
0.00072154
-1.53529e-05
1.08302e-05
4.52245e-06
3.57214e-05
3.05818e-06
0.000567185
-0.00151684
0.000949649
0.000226982
-8.98987e-05
-0.000137084
-0.000224437
0.000136099
9.74554e-05
-9.54853e-05
-1.97043e-06
4.21635e-05
-2.06644e-05
-3.49816e-05
5.56481e-05
-6.76087e-06
6.7609e-06
8.2856e-05
-9.98809e-05
2.11619e-05
1.48644e-05
-3.83466e-05
1.7683e-05
-6.14589e-05
-1.18179e-05
7.32764e-05
-0.000492274
0.000239936
0.000252335
-7.79433e-06
8.73539e-06
-9.42567e-07
0.000172295
4.80533e-05
-0.000220356
0.000265227
-0.000195374
0.00127267
-0.0010773
6.99217e-05
2.75334e-05
0.000418446
-0.000539299
0.000120858
-3.76997e-05
4.14013e-05
5.312e-07
-9.12132e-05
-0.0001031
0.000194312
-2.07211e-05
8.79763e-06
1.19231e-05
5.35796e-05
-5.70052e-06
-0.000318863
0.000284879
0.000118442
0.000320479
0.000636751
-0.000656983
0.000786618
-2.03561e-06
2.92371e-05
-2.72019e-05
-2.55506e-05
9.71464e-06
6.06735e-05
-5.05617e-05
-1.01123e-05
3.01465e-05
-2.6249e-05
-3.89798e-06
8.88838e-06
-2.8852e-05
1.99634e-05
-9.97993e-05
-0.000172938
-9.67036e-05
7.46163e-05
8.28786e-05
0.000365103
-0.000447979
-8.04774e-05
9.06781e-05
0.000136304
8.8644e-06
1.69531e-05
-2.5815e-05
1.57261e-05
-1.53521e-05
0.000675622
-0.000665692
-9.91699e-06
0.000152722
-0.000233714
2.78697e-05
-3.24721e-05
3.74317e-05
-4.9583e-06
-0.000186745
7.38389e-05
7.19078e-05
-0.00012664
5.47364e-05
0.000358581
-1.00371e-06
-4.68135e-05
-1.0622e-05
2.26339e-05
-1.20119e-05
-0.000617123
7.92387e-05
9.94536e-06
-3.85264e-05
-4.47979e-05
-2.99777e-05
7.47754e-05
7.25047e-06
-1.86765e-05
-0.000495269
0.000175331
0.000319929
-1.29318e-05
4.48091e-06
0.000297577
-0.000197075
-4.16767e-06
-2.35989e-06
6.52611e-06
-7.2897e-05
0.000141079
9.81413e-05
-1.12597e-05
-8.68809e-05
6.90844e-05
-2.23786e-05
-4.67063e-05
1.08597e-05
-1.01573e-05
-3.11218e-05
-3.61606e-05
6.28837e-06
2.98723e-05
1.28126e-05
-3.56535e-06
-9.24748e-06
0.000562596
0.000693918
-0.0012565
-3.60371e-05
4.48948e-06
3.15466e-05
-0.000546699
0.000505832
5.96675e-08
2.55388e-05
-2.55994e-05
-0.000542092
-0.0002589
0.000800993
2.58996e-05
-1.52921e-05
-1.061e-05
8.53159e-06
-5.07971e-05
4.22638e-05
-4.85544e-06
7.65705e-06
-2.80135e-06
0.000190963
5.56882e-05
-0.000246628
-0.00075208
2.15526e-05
0.000730532
5.08433e-05
-1.34753e-05
7.77776e-05
-0.000167676
-4.22874e-05
-5.05923e-06
-0.000647046
1.37778e-06
0.000645672
2.10134e-05
-3.28151e-06
0.000214968
-0.000653181
1.35899e-05
-9.88253e-06
-3.7079e-06
6.23631e-06
6.57618e-06
0.000329835
-0.00124749
4.86706e-05
1.71355e-05
-5.22459e-06
4.32543e-05
4.42447e-05
-0.000219733
0.000284534
-6.47996e-05
2.74014e-05
3.32349e-05
-6.05907e-05
2.69982e-06
0.000779549
-2.52886e-05
1.47277e-06
-4.3837e-05
-7.50787e-06
4.43988e-06
5.93277e-06
-1.17844e-05
3.98979e-06
1.05479e-05
4.03599e-05
5.36226e-06
2.59353e-06
3.56807e-05
9.36876e-07
-3.66175e-05
-0.000471899
-0.000380449
0.000852347
0.00035971
9.92975e-05
-0.000459013
-1.88253e-05
1.54054e-05
-1.13548e-05
7.98251e-06
4.68366e-05
3.98895e-05
-1.29768e-06
1.76005e-05
0.0003293
-0.000138331
-0.000222512
1.83734e-05
-0.000254261
-0.000129776
-3.57326e-05
-4.27731e-07
0.000277941
3.4183e-06
1.07367e-05
-9.86899e-05
-9.93267e-06
6.18946e-05
-6.56752e-05
-2.6822e-05
1.09049e-05
-1.11597e-05
-4.19327e-06
6.49197e-05
0.000556572
-0.000621508
0.000117837
0.000158363
0.000103857
-0.00019267
0.000168097
-6.25446e-05
0.000144801
-8.22576e-05
-8.93981e-07
1.16085e-05
6.744e-05
-6.50278e-06
-6.09378e-05
-9.15682e-05
0.000169346
-3.94844e-05
5.18228e-05
-1.23403e-05
-1.43544e-05
-6.75713e-05
-0.000834928
0.00118285
-0.000347933
-9.54053e-05
0.000248127
2.80162e-05
-3.91676e-06
-0.000875842
0.000556378
0.000319487
-0.000509958
-0.000365842
8.43036e-05
0.000546344
-0.000630644
-4.19726e-05
-0.000661422
-0.000286519
0.000947949
-4.4977e-06
2.25477e-05
3.0882e-05
2.60836e-05
0.000208596
-0.000677774
0.000469174
-3.46639e-05
3.42592e-05
-1.29349e-05
1.03989e-05
-0.000146009
-0.000460429
0.00060644
-3.57781e-05
2.77842e-05
7.99348e-06
-9.12077e-06
4.26538e-06
-1.08142e-06
2.59752e-05
-2.51565e-05
-1.06217e-05
-0.00020602
-0.000468006
1.62112e-05
-1.86759e-05
2.46455e-06
5.21389e-06
6.22259e-05
1.98547e-05
-4.05006e-06
-9.84886e-06
-2.22853e-05
3.21336e-05
-1.98408e-05
-0.000260066
-1.82456e-05
-1.12334e-05
2.94785e-05
0.000178231
-0.000120137
-5.80949e-05
5.4706e-05
-0.000392495
0.000337786
-1.43021e-05
-0.000755727
0.000275074
-4.44739e-05
2.02045e-05
2.42688e-05
5.49881e-05
-4.64569e-05
-7.29564e-05
0.000100345
-1.06267e-05
-0.000765903
0.000179797
0.000586107
-4.91826e-05
-0.000290369
7.06373e-05
-3.92444e-05
1.23341e-05
2.69158e-05
2.3212e-05
-0.000602222
0.000579002
-3.66568e-05
-2.77835e-05
-6.28455e-05
-2.40359e-05
8.68809e-05
0.000137416
-0.000149814
1.23958e-05
0.000603531
-0.000580322
0.000145815
-8.67829e-05
-5.9034e-05
-4.86918e-05
2.45185e-05
2.41735e-05
2.55193e-05
-2.75544e-05
-1.72754e-05
-2.49296e-06
1.97687e-05
1.91097e-05
-1.74973e-06
3.04213e-05
-2.86714e-05
5.2846e-05
-3.48541e-05
-1.11958e-06
-2.02406e-05
-1.46445e-05
3.48855e-05
-3.12237e-05
-1.38758e-06
2.14886e-05
-2.59869e-05
-2.15943e-05
-3.69447e-06
-5.86737e-05
6.70019e-05
-8.32885e-06
-3.52148e-05
3.03557e-05
4.85867e-06
-3.56482e-05
1.89148e-05
-2.44185e-05
3.59221e-05
0.000628489
-0.000659333
3.08576e-05
0.000667352
0.000526123
-0.00119346
5.01437e-05
1.21977e-05
-6.23413e-05
-1.55457e-05
-3.78885e-07
1.59243e-05
0.000799284
-0.000945294
6.10407e-06
0.000493045
-4.25568e-05
-8.50928e-06
8.65584e-07
3.40882e-05
1.86307e-06
-3.59512e-05
-3.70272e-05
9.90024e-07
-3.21422e-05
3.056e-05
1.58241e-06
3.34648e-05
-3.27983e-05
-6.6742e-07
8.69113e-07
1.24412e-05
-1.53507e-06
1.7746e-05
1.78452e-05
3.63455e-05
-3.53371e-05
1.51823e-06
-0.000334972
-0.000157304
-3.31374e-05
1.08911e-05
0.000194353
-3.26303e-05
-0.000161724
3.26371e-06
0.00146373
-0.001467
0.000644104
-0.000464141
-0.000179965
-0.000209836
0.000358452
1.62794e-05
-2.16316e-05
5.35186e-06
0.000146087
-0.000352892
-9.44192e-05
0.00044731
2.32061e-06
-1.29926e-06
2.84919e-05
-3.55639e-05
0.000149091
0.000343948
2.91738e-05
-2.77804e-06
-2.63958e-05
1.31925e-05
-0.00140641
0.00144565
6.8794e-05
-7.25662e-05
2.60074e-05
-1.12506e-05
-1.47578e-05
1.95048e-05
7.95117e-06
-2.74559e-05
-0.000838985
-0.00153512
0.000128714
-0.000724485
-2.42444e-05
-2.02297e-05
4.0812e-06
1.4155e-05
1.53481e-05
9.42954e-06
-2.47778e-05
3.48336e-06