/*--------------------------------*- C++ -*----------------------------------*\
| =========                 |                                                 |
| \\      /  F ield         | OpenFOAM: The Open Source CFD Toolbox           |
|  \\    /   O peration     | Version:  v2012                                 |
|   \\  /    A nd           | Website:  www.openfoam.com                      |
|    \\/     M anipulation  |                                                 |
\*---------------------------------------------------------------------------*/
FoamFile
{
    version     2.0;
    format      ascii;
    class       volScalarField;
    location    "400";
    object      k_0;
}
// * * * * * * * * * * * * * * * * * * * * * * * * * * * * * * * * * * * * * //

dimensions      [0 2 -2 0 0 0 0];


internalField   nonuniform List<scalar> 
13851
(
0.000202356
0.000153843
0.000153638
0.0197778
0.000148182
0.000156321
0.000154566
0.000146902
0.0512197
0.000148007
0.00017789
0.000148193
0.00014849
0.0283574
0.000167993
0.000202121
0.0173737
0.000147848
0.000249744
0.000202278
0.000171083
0.000155265
0.031821
0.000149695
0.0260643
0.000185407
0.000110217
0.00985282
0.0472536
0.000145962
0.0450956
0.000154544
0.000202102
0.0679752
0.000170133
0.046944
0.000149782
0.024517
0.0661613
0.000148317
0.0693016
0.0494743
0.00622165
0.000224536
0.0525902
0.000147021
0.000144545
0.000202023
0.000151853
0.000148459
0.025358
0.000148715
0.000202134
0.000163532
0.0263959
0.000148321
0.000202468
0.0667838
0.000106677
0.0294506
0.000148253
0.000232902
0.000148336
0.000152119
0.000184327
0.000184924
0.0239467
0.000166889
0.000148542
0.0286305
0.0405131
0.000176391
0.000147989
0.0261892
0.000164904
0.00015209
0.0227608
0.000145109
0.0165899
0.00014725
0.000148606
0.000244108
0.000169538
0.0305069
0.03065
0.0440197
0.000155519
0.0206714
0.000147932
0.0449787
0.00014883
0.000154711
0.00959627
0.0397856
0.0599069
0.000203337
0.000147203
0.000203359
0.026367
0.000197152
0.000204538
0.0001625
0.000163514
0.000148248
0.000146987
0.000174955
0.000146988
0.0428301
0.000154678
0.000147693
0.00015943
0.000147029
0.00020494
0.000179876
0.000202051
0.00016269
0.000145849
0.000146406
0.0172277
0.0321227
0.000193086
0.000146771
0.000148471
0.047961
0.0002323
0.00017387
0.000147198
0.000172825
0.0635437
0.000174876
0.000155185
0.000161496
0.00748567
0.0669091
0.000178577
0.0596013
0.000166538
0.0426152
0.000160255
0.000174754
0.00023637
0.000149936
0.000147949
0.000172555
0.0327128
0.000151657
0.000145042
0.0403328
0.0408094
0.000173585
0.000204471
0.000203382
0.000181136
0.000229985
0.000149014
0.000148197
0.000148367
0.0622258
0.000172274
0.000153154
0.000149519
0.0471905
0.000174281
0.000202121
0.0289452
0.0555105
0.0567029
0.0299751
0.000159114
0.0696944
0.000148376
0.000145864
0.000179601
0.000148649
0.0633509
0.00014154
0.000208548
0.00014577
0.000164946
0.000207308
0.000228627
0.000223242
0.000158467
0.0001746
0.00721152
0.0415485
0.000202099
0.000157182
0.000148811
0.00014644
0.0149492
0.000172228
0.0232167
0.000156546
0.000151395
0.000202702
0.000201336
0.000148978
0.000148928
0.000167744
0.000236694
0.0642146
0.0674011
0.000168011
0.000326189
0.0603065
0.000151679
0.000174611
0.0525152
0.000155412
0.000201783
0.000148413
0.000241242
0.000149456
0.000170731
0.000153179
0.000148376
0.000224715
0.000149034
0.000513463
0.000145743
0.00020228
0.0262964
0.0613193
0.000156801
0.000174972
0.000149699
0.000171118
0.000147685
0.000170413
0.0333566
0.000156751
0.000155366
0.000148495
0.0652781
0.000145929
0.0163976
0.0665096
0.00019346
0.00014959
0.000320682
0.0312381
0.0531618
0.000201723
0.000164389
0.000176239
0.00021657
0.000165224
0.00020223
0.000161007
0.0219129
0.000202821
0.000146524
0.000156715
0.000203547
0.0458196
0.0241239
0.00014639
0.000174449
0.000147902
0.000214231
0.00023032
0.000157303
0.00017494
0.000203516
0.000147666
0.000162816
0.000198117
0.00395613
0.000148227
0.000148359
0.000156988
0.0604586
0.0119886
0.000174376
0.000146996
0.000230561
0.000229918
0.000198746
0.000174432
0.0592168
0.0256201
0.00015763
0.000165325
0.0256189
0.000146935
0.000148359
0.000199459
0.000174724
0.000145955
0.000149434
0.000147621
0.000147519
0.000164426
0.000148307
0.0529076
0.00017246
0.000147788
0.0456022
0.0453769
0.00014878
0.000202697
0.0256226
0.000150159
0.000148859
0.000173804
0.0287736
0.0770677
0.000182553
0.000148097
0.0662127
0.000148315
0.000184359
0.030682
0.00254142
0.000152851
0.012606
0.000760239
0.0478575
0.000202535
0.000162809
0.0646649
0.0541065
0.00893609
0.000149153
0.0247649
0.00802812
0.000217682
0.000212357
0.000151704
0.000181895
0.000157539
0.0218708
0.00016435
0.000146504
0.000143887
0.000157223
0.0444398
0.000387514
0.000146868
0.058709
0.000157617
0.000161752
0.000153387
0.0248916
0.000227989
0.00020276
0.000152803
0.000154703
0.0453018
0.000148839
0.000232065
0.000157526
0.00017373
0.000158272
0.000147915
0.00014776
0.00019941
0.000200443
0.000203033
0.0017905
0.0461688
0.000151774
0.0643866
0.000221565
0.000145725
0.00403035
0.000191796
0.0309763
0.000156716
0.000187086
0.000177047
0.0144672
0.000197559
0.0244172
0.000150253
0.000119917
0.00675296
0.000161556
0.0267693
0.000163767
0.0698065
0.000164972
0.000171443
0.000202527
0.000213388
0.000148204
0.000156935
0.000175845
0.000165214
0.00014721
0.00017471
0.0649529
0.000147965
0.000174663
0.0122377
0.000153304
0.00128777
0.000174116
0.0799236
0.00015608
0.000183958
0.000320184
0.000231843
0.000174298
0.020486
0.0263971
0.000327614
0.000147706
0.000198732
0.000163789
0.00018667
0.000146857
0.0072929
0.0703532
0.0178988
0.000154639
0.000203226
0.000226747
0.0131095
0.000144582
0.0183925
0.000220862
0.0321285
0.000161734
0.0199347
0.000148084
0.000148549
0.022525
0.000201102
0.000148003
0.00015387
0.000175181
0.000146124
0.0669135
0.000182211
0.000191297
0.000156737
0.00015029
0.000148788
0.0081766
0.000147749
0.000148721
0.037244
0.0636391
0.000154671
0.000246251
0.000148388
0.000148295
0.00015384
0.000203484
0.000173954
0.000147309
0.000150983
0.000192092
0.000152255
0.0793815
0.00014815
0.000159321
0.0534215
0.000160851
0.000144305
0.000148518
0.000156592
0.000149498
0.000323321
0.043915
0.000164622
0.000620072
0.000153952
0.000148016
0.0608475
0.000178722
0.000160192
0.000148074
0.0518503
0.0001596
0.00268304
0.000148253
0.000161843
0.000198469
0.000166601
0.0579608
0.000203478
0.0105975
0.000151989
0.000203824
0.000147661
0.0459158
0.000173975
0.000201303
0.000163604
0.000152481
0.000160891
0.000180126
0.000148277
0.0137352
0.0589911
0.0801344
0.00733985
0.042571
0.033557
0.000231859
0.000156228
0.000149226
0.00304171
0.000148019
0.000147177
0.000157543
0.0660437
0.000153543
0.000149922
0.00017503
0.000173521
0.000148072
0.0812881
0.000147202
0.0650159
0.000307777
0.000147236
0.00015262
0.000225732
0.00450522
0.000145998
0.0538051
0.0131069
0.000145794
0.0566881
0.000248689
0.000202163
0.000151942
0.0355693
0.0303007
0.000145998
0.000238202
0.000148495
0.000147217
0.0272167
0.0707377
0.000168047
0.000173361
0.000148027
0.000180916
0.0652009
0.0622125
0.000147041
0.0238856
0.000147274
0.000148561
0.000174542
0.000159491
0.000144534
0.000152093
0.0586079
0.000210679
0.0549663
0.000152971
0.000147878
0.0605081
0.000148994
0.000199525
0.000159085
0.000164894
0.000164121
0.0536662
0.0302734
0.000156388
0.0171499
0.00015235
0.000181436
0.0504099
0.0323631
0.000148446
0.000147699
0.00016358
0.056211
0.000236597
0.000180412
0.0057441
0.000159681
0.000164145
0.0411268
0.0836199
0.000184389
0.0633348
0.000213578
0.0480627
0.000149706
3.80323e-05
0.00502921
0.00014818
0.0108746
0.0862891
0.000159218
0.000174705
0.000148226
0.000524546
0.000177097
0.0502249
0.000147774
0.000148872
0.000154842
0.000172996
0.000148228
0.0629589
0.000148824
0.000212612
0.000152019
0.000187194
0.000148225
0.00014809
0.000168164
0.0241153
0.000174029
0.0576866
0.000161879
0.000146212
0.000146375
0.000179914
0.000150944
0.000190366
0.000154329
0.000159871
4.48206e-05
0.000149007
0.0200414
0.000149613
0.000193624
0.0196841
0.0558772
0.00015657
0.0403439
0.000174385
0.0002069
0.0860078
0.000147688
0.0855776
0.000157674
0.000162402
0.00934874
0.000251135
0.000145864
0.000189787
0.000148877
0.0465381
0.0261405
0.000148909
0.000167615
0.0691224
0.000149695
0.000149602
0.000185715
0.0168325
0.0264017
0.000148874
0.000202275
0.000151835
0.000148103
3.466e-05
0.000202896
0.000196259
0.000144368
0.000198155
0.000164237
0.000182104
0.000149977
0.000151117
0.000175808
0.000154614
0.000200178
0.000176177
0.000176117
0.00018063
0.000118261
0.000247548
0.0550789
0.0428223
0.000203072
0.0369587
0.000163659
0.0308774
0.000203013
0.000147565
0.000163544
0.000233637
0.000156359
0.000147264
0.000147221
0.000193639
0.0218389
0.000159544
0.0635259
0.000146244
0.0305539
0.000180457
0.0243544
0.000189283
0.000156255
0.000153683
0.0285011
0.000196325
0.000163241
0.000202369
0.000149929
0.00202669
0.000193825
0.000212766
0.000162893
0.00026941
0.000148068
0.000149544
0.000151266
0.000148109
0.0504906
0.000147514
0.000127951
0.0594112
0.000189891
0.0639885
0.0291874
0.000214503
0.000210924
0.000156392
0.000148994
0.000148289
0.00014516
0.000146351
0.000148667
0.000181914
0.00020425
0.000164979
0.00650972
0.00015102
0.0510803
0.000149946
0.0229308
0.00016803
0.000149861
0.000148614
0.0561151
0.000156568
0.0246534
0.0859794
0.000173539
0.000184263
0.000145628
0.0672354
0.000152786
0.000153641
3.79254e-05
0.000149022
0.0001499
0.0001474
0.00017396
0.0233105
0.000159651
0.000163355
0.000225922
0.0584949
0.000156776
0.000155495
0.0497688
0.000145124
0.048828
0.000149177
0.000152326
0.0141482
0.000189312
0.000201582
0.000185256
0.000174265
0.000149388
0.000149947
0.000182906
0.000149862
0.00014945
0.000160281
0.000220109
0.000147389
0.000203014
0.000767883
0.0186689
0.000185024
0.0451596
0.000160474
0.000148957
0.000196247
0.000146346
0.000157062
0.0510774
0.0458424
0.0850103
0.0509331
0.00014908
0.000148788
0.000170156
0.000150818
0.000146733
0.0260684
0.000215022
0.0283889
0.000193921
0.000189759
0.000148138
0.00014601
0.00238269
0.000191339
0.000152901
0.000149604
0.000201651
0.000207779
0.0652754
0.000148975
0.000148761
0.0199298
0.000149928
0.000163951
0.000146148
0.0675292
0.000147412
0.0221476
0.000148178
0.000190585
0.000169082
0.000169753
0.000163215
0.000147986
0.00015384
0.000147693
0.000102445
0.00014993
0.0284579
0.000150144
0.024981
0.0613249
0.000161539
0.000147538
0.0136605
0.0448263
0.000156955
0.000189225
0.000148281
0.0192424
0.000147685
0.000233939
0.000148084
0.000147667
0.0198952
0.000164346
0.000148438
0.000164031
0.0641664
0.000424933
0.0721225
0.000146388
0.039519
0.000148176
0.000147446
0.000149005
0.000143507
0.000149445
0.0766633
0.0544625
0.000149081
0.000148792
0.000168368
0.000147039
0.017191
0.000197347
0.0325444
0.0660477
0.000153762
0.00020017
0.000148125
0.000170991
0.000177028
0.000147485
0.000149248
0.0004695
0.0278814
0.000183592
0.0085392
0.000182315
0.000148368
0.000169448
0.000189628
0.0207472
0.000163379
0.00224213
0.000191968
0.000149363
0.057524
0.0560771
0.0285848
0.00801412
0.0253846
0.00015192
0.000175943
0.000148729
0.000536136
0.000155861
0.000146524
0.0747584
0.000150798
0.000147544
0.00014845
0.000150517
0.064339
0.000232052
0.000146612
0.000169987
0.029045
0.000151202
0.00779097
0.000150995
0.000188246
0.0697259
0.000148332
0.000217009
0.00015879
0.000162615
0.000495751
0.000150782
0.000242289
0.000183559
0.067995
0.0001493
0.0264173
0.000161121
0.0403152
0.0219737
0.0214022
0.000173617
0.000148083
0.000149149
0.000149693
0.000170181
0.000148541
0.0599399
0.000157705
0.000156116
0.000156599
0.000151818
0.000146349
0.000158384
0.000156978
0.000152597
0.000156241
0.0841115
0.000110434
0.000160713
0.000170288
0.0738979
0.000150008
0.0476459
0.000145192
0.000160824
0.000149954
0.000147627
0.000167172
0.000147976
0.000146566
0.000162806
0.000148239
0.000216224
0.000150555
0.00960094
0.000766914
0.000219081
0.000228123
0.00014852
0.0604432
0.000206844
0.000149384
0.000156808
0.000149719
0.0511604
0.000150973
0.0001629
0.00320047
0.0100644
0.000179033
0.000148658
0.0540331
0.00226415
0.0292044
0.000158688
0.000146139
0.000146904
0.000182631
0.000148078
0.0259331
0.000200161
0.000149147
0.000222053
0.00021876
0.000147273
0.0845478
0.0201095
0.000214225
0.000150397
0.0533118
0.000181731
0.00014771
0.0230426
0.000155328
0.000147015
0.000147256
0.000163864
0.000170383
0.0556706
0.0482793
0.000171074
0.0568719
0.000165274
0.000147919
0.00016965
0.000147263
0.00110817
0.000147262
0.00014789
0.000152383
0.00014976
0.0603658
0.0218373
0.000238875
0.0294768
0.0857448
0.000156791
0.00014801
0.000150557
0.000243356
0.000147093
0.000147666
0.000168965
0.0219575
0.000165093
0.000145005
0.000165535
0.000163493
0.000202336
0.00729992
0.000145775
0.000144427
0.000152674
0.00875039
0.00016021
0.0652591
0.000151077
0.000148854
0.000147085
0.000147228
0.000153158
0.000213999
0.0483701
0.0549037
0.000156602
0.00014802
0.00116995
0.000149526
0.0284322
0.0371945
0.000157939
0.0273191
0.0494438
0.040672
0.000179104
0.00016317
0.0440419
0.000161547
0.000160215
0.000170508
0.000208137
0.000149714
0.000496676
0.000147946
0.0468648
0.0163313
0.000145225
0.000152077
0.000167488
0.000236816
0.000164384
0.000148683
0.000159365
0.000150958
0.000156409
0.000242437
0.000148856
0.0478447
0.0233477
0.000147977
0.000162274
0.000170038
0.000148225
0.0448636
0.0114298
0.0624522
0.0337534
0.000147881
0.000153438
0.000156104
0.000149032
0.000237783
0.000164794
0.000149635
0.000182277
0.000154255
0.0359692
0.000169227
0.0247002
0.000150825
0.000151233
0.000164451
0.000191198
0.000184373
0.000147667
0.00901614
0.0438804
0.0255429
0.0379259
0.0507923
0.0553952
0.0383455
0.000147668
0.000147874
0.000148217
0.000237216
0.000173454
0.000184023
0.0138768
0.000149082
0.00014487
0.000148024
0.000223678
0.00014496
0.000157389
0.000151934
0.0337209
0.000150532
0.000146401
0.000148262
0.000147707
0.000148848
0.000159951
0.000234467
0.000160312
0.0591713
0.000147898
0.000147248
0.0634586
0.0637437
0.0205004
0.022561
0.000164134
0.0290343
0.000146096
0.000170092
0.000151227
0.000148215
0.000154044
0.0263152
0.000151329
0.000191606
0.00242319
0.000149192
0.000147553
0.000154599
0.000214383
0.000149766
0.033891
0.000148121
0.000220432
0.000148558
0.000149049
0.00015715
0.000172311
0.00014852
7.90424e-05
0.0414246
0.000209672
0.066889
0.000148086
0.0245971
9.25752e-05
0.000147991
0.0163401
0.000149009
0.000162209
0.000148824
0.000148951
0.000147219
0.000148089
0.000149514
0.000155306
0.000183493
0.000148854
0.00014834
0.000166099
0.000145688
0.0838351
0.000148561
0.000162586
0.000165226
0.034282
0.00162812
0.000148734
0.000214582
0.000146099
0.000162348
0.000174238
0.0186966
0.000174897
0.000149769
0.000197086
0.000169002
0.000189436
6.84914e-05
0.000160928
0.000200576
0.000180369
0.000184138
0.000150435
0.000146886
0.0174396
0.0116341
0.000153583
0.000147679
0.00842886
0.000146281
0.000170461
0.00014728
0.000178372
0.0152905
0.000143993
0.0157947
0.000156206
0.000148918
0.000207442
0.00014652
0.000161725
0.0355281
0.000168536
0.0200144
0.000147179
0.000149706
0.000162333
0.000149381
0.000149548
0.00015926
0.000160361
0.000183576
0.000179844
0.000148354
0.000165514
0.000146704
0.000148071
0.000149291
0.000148011
0.000533012
0.000147459
0.000151069
0.000241991
0.00014624
0.000147586
0.0620124
0.000149576
0.0119379
0.000151672
0.0613864
0.000226313
0.000164905
0.0015537
0.000178493
0.000289446
0.000149498
0.000209087
0.000156577
0.000146752
0.000147038
0.000151039
0.000161938
0.000147633
0.000171948
0.000146801
0.000151205
0.0069011
0.0251879
0.000300133
0.000153894
0.000163451
0.0365613
0.0294448
0.000148943
0.000157082
0.000333612
0.000148826
0.000167696
0.000532702
0.054931
0.00015822
0.000171747
0.000150285
0.000221752
0.000149875
0.000161153
0.0166877
0.000148639
0.000147071
0.0827912
0.000170185
0.000242406
0.0677185
0.000193791
0.000149403
0.000146826
0.000149167
0.031991
0.00368752
0.0484382
0.000175073
0.000148119
0.0422083
0.000148433
0.000202767
0.000154866
0.00015217
0.000171015
0.000148042
0.08572
0.0863875
0.000145525
0.000183369
0.000174288
0.002221
0.000171049
0.000180234
0.00024084
0.000165194
0.000117112
0.000181359
0.000148452
0.000166372
0.000169239
0.0392155
0.000147852
0.00142086
0.000172256
0.00018178
0.000149772
0.0837122
0.00015653
0.000151685
0.000146796
0.000166172
0.000165492
0.000166991
0.000148574
0.000150057
0.00017282
0.00849359
0.000176367
0.000148813
0.000149903
0.000166332
0.00022043
0.000148934
0.000181632
0.019094
0.000168221
0.0573254
0.000169906
0.0257991
0.000241478
0.000147684
0.00119853
0.000149482
0.000153825
0.000163866
0.000164881
0.000190815
0.000174028
0.000166165
0.000167597
0.000161115
0.000152552
0.000144898
0.000170685
0.00015562
0.000156958
0.000966759
0.000155368
0.000158623
0.000147204
0.0252454
0.000180254
0.000148348
0.000154293
0.000151042
0.0287188
0.000199988
0.000163891
0.0522864
9.97546e-05
0.00037855
0.000190609
0.000218994
0.000146769
0.000188394
0.000147606
0.000155069
0.0209899
0.0446073
0.000244907
0.00054427
0.000148524
0.0251934
0.000146743
0.00018912
0.000153807
0.0253947
0.0773704
0.000156954
0.000147696
0.000239212
0.000162296
0.000147765
0.0381407
0.000148157
0.000151798
0.00015567
0.000148809
0.000160579
0.000151161
0.000148121
0.000162659
0.000258
0.000169278
0.000176416
0.000147738
0.0300335
0.045315
0.000147551
0.000237106
0.000153732
0.000156955
0.0509271
0.000147525
0.000150039
0.000156224
0.0462779
0.000147832
0.000149019
0.000168206
0.0276022
0.000147412
0.000159461
0.000161458
0.000549038
0.000171377
0.000167845
0.000220905
0.000148187
0.000173533
0.000145305
0.0277889
0.000159731
0.000148033
0.000158279
0.00018788
0.000148752
0.000148721
0.000203353
0.0492023
0.000149486
0.0290785
0.000149065
0.00014524
0.000181751
0.000147844
0.000147467
0.0843437
0.000149781
0.000169119
0.000206329
0.0536864
0.000425988
0.000146938
0.000152062
0.000156077
0.00014814
0.000148077
0.000148332
0.0132841
0.000149131
0.000117687
0.000198715
0.000147036
0.000145815
0.000160278
0.000198702
0.00024107
0.000167129
0.00017741
0.000152158
0.0527497
0.000177377
0.000162276
0.000170047
0.000172836
0.000188913
0.025204
0.000168912
0.0300542
0.0237051
0.0234177
0.000154231
0.000147695
0.000166038
0.000159289
0.00014668
0.000149532
0.000179921
0.000149527
0.00014908
0.000147982
0.000144398
0.000152432
0.000148235
0.0218944
0.000147672
0.0386817
0.000148202
0.000174799
0.000149837
0.000199064
0.000174536
0.000148104
0.0560498
0.000152008
0.000149381
0.000169294
0.000146588
0.000158557
0.000147862
0.0490125
0.000152755
0.00016986
0.000172037
0.0532361
0.000157097
0.000113996
0.00104894
0.000170216
0.000148465
0.000150921
0.000177208
0.000180886
0.0247904
0.000146025
0.0325395
0.00014834
0.00017047
0.0814928
0.000164106
0.0224789
0.000154193
0.000162821
0.000153409
0.0862963
0.00016055
0.000148675
0.000169273
0.000201465
0.000151545
0.000147937
0.00014869
0.0650368
0.000149604
0.000156388
0.0650055
0.000154651
0.000147681
0.000172222
0.000153812
0.0401011
0.000144872
0.000147899
0.000146503
0.000154295
0.000149388
0.00014851
0.000182346
0.0611545
0.000147535
0.000148384
0.0423488
0.000149224
0.0162169
0.00015308
0.0811771
0.000146879
0.000152705
0.000146091
0.0309538
0.066494
0.000158654
0.000170044
0.000155169
0.000147546
0.000148491
0.0494506
0.000148632
0.000188992
0.000146529
0.000171607
0.000149083
0.0564838
0.000146317
0.000172954
0.000147013
0.000225501
0.000310089
0.000146372
0.000166588
0.0876251
0.00018391
0.0296192
0.0200704
0.000206046
0.000151267
0.000163969
0.000190958
0.00618193
0.000149088
0.000168644
0.000156204
0.000147786
0.0279692
0.0376841
0.000184038
0.000206229
0.000240207
0.000161743
0.060298
0.00014661
0.000146298
0.00018865
0.0855374
0.000218618
0.000201243
0.00160844
0.000146117
0.0849341
0.0352831
0.0805863
0.000149185
0.0314126
0.045377
0.000337367
0.000405016
0.04595
0.000189781
0.000160263
0.00020498
0.000153816
0.000147724
0.00111193
0.000191322
0.000144756
0.035344
0.000149074
0.000157874
0.000170698
0.000155024
0.00322553
0.000160302
0.0122347
0.000172653
0.000154374
0.0155676
0.0726262
0.000202558
0.000149321
0.000153967
0.000183625
0.000169218
0.000146227
0.000172698
0.000168062
0.000198769
0.000147676
0.000211406
0.000152832
0.000169232
0.0408029
0.000106297
0.000150727
0.00018691
0.0334604
0.000148633
0.000150294
0.0783358
0.000229472
0.000153193
0.00015399
0.000148292
0.000175686
0.000155781
0.0492582
0.000190355
0.000149635
0.000149355
0.000166907
0.000158355
0.000157483
0.0292334
0.000146869
0.000147852
0.000157157
0.000149122
0.000153171
0.000150538
0.000150375
0.000154117
0.000147268
0.000153413
0.00014875
0.000174215
0.00582051
0.000149701
0.0652699
0.0163139
0.00014531
0.000185054
0.000188421
0.000180428
0.00015012
0.000191302
0.000157466
0.000169711
0.000160455
0.00015131
0.00014924
0.0244073
0.00015954
0.0213424
0.000150084
0.000148014
0.000147755
0.000174272
0.000147463
0.00017507
0.000181329
0.000303795
0.000146966
0.000214803
0.00837875
0.0458844
0.00014605
0.000196026
0.000226739
0.0102615
0.000651472
0.000149731
0.000149004
0.000195255
0.00122305
0.0116675
0.000169216
0.000240413
0.000149423
0.000147017
0.00016472
0.000149136
0.000148587
0.000200757
0.000149712
0.000170749
0.000146805
0.0726491
0.0655367
0.03393
0.0391798
0.0428901
0.000148534
0.000148721
0.0814526
0.000146185
0.000146477
0.000145262
0.000185099
0.0692297
0.0261311
0.000155788
0.000148751
0.000151082
0.000163005
0.0291823
0.000147818
0.0215057
0.0742459
0.000149076
0.000148978
0.0350853
0.000187895
0.000152068
0.000147941
0.0711586
0.0444357
0.000148044
0.00021542
0.000149614
0.0477233
0.000177017
0.000152688
0.0268159
0.016115
0.0509661
0.000146622
0.000149038
0.000149541
0.000149883
0.06487
0.000147179
0.000199154
0.000214498
0.0229615
0.000150184
0.000174658
0.000131722
0.000173255
0.079055
0.0523109
0.000144633
0.000155808
0.000155953
0.000200975
0.0573598
0.000144258
0.0239644
0.000160235
0.000171227
0.00015014
0.000147099
0.000224921
0.000167376
0.0189821
0.000149134
0.000174283
0.000149936
0.000199194
0.000153519
0.0597595
0.00949634
0.000204117
0.000192336
0.000147609
0.000152223
0.000189592
0.000184438
0.0595253
0.0863879
0.000148742
0.0249982
0.000171409
0.0727674
0.000157911
0.000169657
0.000167525
0.000148416
0.0588557
0.000148127
0.000163218
0.0313307
0.0709817
0.000526778
0.0683413
0.000157067
0.000174476
0.000145965
0.0731961
0.00015608
0.0374406
0.000145884
0.0470533
0.000144041
0.000147602
0.000162694
0.000158373
0.000159713
0.000147761
0.0373195
0.000172145
0.000147209
0.000165332
0.0316414
0.00023813
0.000148051
0.0570843
0.000153073
0.000165176
0.000163636
0.000145106
0.000178496
0.000147552
0.0194991
0.000174161
0.000157938
0.000147881
0.00023254
0.000168069
0.000145875
0.0454826
0.00500517
0.000226808
0.000145351
0.000212563
0.000148684
0.000192767
0.000158634
0.000182945
0.0108651
0.0362163
0.000159598
0.0681464
0.000170354
0.000157027
0.000146346
0.056684
0.000181313
0.000190912
0.000166062
0.000149525
0.0273374
0.000184243
0.000239939
0.00024307
0.0865634
0.0375385
0.0040883
0.0333476
0.000157384
0.000158545
0.000148333
0.00014834
0.000144424
0.000209749
0.000157774
0.000159816
0.0630763
0.000147227
0.000146423
0.000170577
0.000201926
0.000158529
0.000146453
0.0655134
0.000153183
0.000174237
0.000148794
0.0229545
0.000156777
0.0753371
0.000167289
0.000164078
0.000172034
0.00014828
0.0106022
0.000155018
0.000180643
0.000148124
0.00014679
0.0226371
0.0448474
0.045711
0.000147185
0.000180898
3.38308e-05
0.000148323
0.000147605
0.000148359
0.0678604
0.000172608
0.00016266
0.000158599
0.000156552
0.0489958
0.000180709
0.000230229
0.000157306
0.000163035
0.000144357
0.000184843
0.0001737
0.000147866
0.0479934
0.0544815
0.0616388
0.048156
0.0415632
0.0838114
0.082736
0.000150825
0.000147167
0.0644579
0.0385168
0.0328975
0.000148243
0.000168759
0.000148134
0.000147504
0.0165935
0.072722
0.000181783
0.000147612
0.000161816
0.000191387
0.000173769
0.0373147
0.00136382
0.000228384
0.000146831
0.0594936
0.00953456
0.000228484
0.000163583
0.000170175
0.000148742
0.000146654
0.000166929
0.000171451
0.000153103
0.000169599
0.000158497
0.000153664
0.000230932
0.0348219
0.000159027
0.000171012
0.0451822
0.000217474
0.000148448
0.000196831
0.000235567
0.0267902
0.000168243
0.000148581
0.000160095
0.000156276
0.000158144
0.000145101
0.000158914
0.000162467
0.000173366
0.000203596
0.000149418
0.000150897
0.037179
0.0515984
0.0700791
0.000129562
0.000196549
0.000143869
0.000148072
0.000160647
0.000145864
0.0872314
0.00014802
0.000149779
0.000145529
0.0477692
0.0163431
0.000149403
0.000181775
0.000157482
0.000161688
0.00016012
0.000159791
0.000169113
0.000165353
0.0210674
0.000156523
0.0404351
0.000166428
0.069066
0.000159176
0.000146989
0.000146281
0.000191981
0.000203472
0.00014617
0.000163199
0.000159484
0.000176222
0.0369545
0.0241155
0.0328162
0.000149777
0.000235053
0.000158175
0.000164055
0.000147881
0.000180098
0.000151947
0.0292633
0.000297266
0.00016592
0.000148206
0.0508875
0.000155348
0.0344054
0.0373588
0.000231314
0.000152809
0.000198598
0.0402224
0.00015583
0.0499051
0.000177381
0.0001477
0.000166618
0.000147195
0.081943
0.000153211
0.000161152
0.000155038
0.0666392
0.000147469
0.0001476
0.0416456
0.000168603
0.0805556
0.000158684
0.000147944
0.000169657
0.000220363
0.000162771
0.0208246
0.000163797
0.000431178
0.000154425
0.00014954
0.000147499
0.000217557
0.000149982
0.00018404
0.000148163
0.000148011
0.00021203
0.000156681
0.000148424
0.000147868
0.000163386
6.93268e-05
0.000171368
0.00016724
0.000154678
0.000178269
0.000148087
0.000192472
0.000160839
0.000170582
0.000167861
0.000159305
0.000175814
0.000163548
0.000147
0.000183533
0.0482814
0.034553
0.000148572
0.000451736
0.0338697
0.000147576
0.000149982
0.000231135
0.0396503
0.000155806
0.0333962
0.000243788
0.000148508
0.000189458
0.000144391
0.000156171
0.000178962
0.0306123
0.000206754
0.000228742
0.000178084
0.047322
0.0520496
0.000152255
0.044468
0.000147964
0.0100431
0.0492423
0.000148365
0.000148188
0.0335015
0.000148516
0.000148255
0.000238238
0.0596003
0.000221304
0.000156756
0.0444741
0.000148358
0.0518065
0.0384802
0.00014908
8.16423e-05
0.00873955
0.0441687
0.0356516
0.0393774
0.032333
0.000146693
0.000150945
0.000179593
0.000182304
0.000148216
0.000214504
0.000147954
0.0402435
0.000247702
0.000164741
0.000246651
0.0410984
0.000250524
0.000233472
0.000165914
0.019106
0.000253529
0.00015539
0.000144729
0.0146056
0.000161332
0.000146121
0.0830399
0.000147611
0.0174567
0.000148622
0.0699342
0.000155767
0.00014757
0.00601111
0.000155587
0.000160575
0.0301296
0.0730969
0.000420907
0.000158774
0.00017323
0.00015119
0.000169411
0.00019954
0.000169768
0.000149241
0.000336722
0.000180321
0.000161217
0.0310832
0.000168878
0.000162383
0.00020018
0.000183866
0.00017261
0.000147539
0.00020797
0.000146292
0.000199321
7.38779e-05
0.0404618
0.000146561
0.000166831
0.0253711
0.000151769
0.000178893
0.000162699
0.000169055
0.0710708
0.00018041
0.000151303
0.0235827
0.000146632
0.0501681
0.000148559
0.000151021
0.000199101
0.0467261
0.000160871
0.000192513
0.000226528
0.000162657
0.00014884
0.000179366
0.000171012
0.0629686
0.000154751
0.00377273
0.000203193
0.000162679
0.000159915
0.00017968
0.000165115
0.000168773
0.000180433
0.00016276
0.000153267
0.000148705
0.000693656
0.000147903
0.000158829
0.000144515
0.000196216
0.000159403
0.000180449
0.0422747
0.00015063
0.000221174
0.000143656
0.000148643
0.000149077
0.000149215
0.000157417
0.000147143
0.000189887
0.0254443
0.000180377
0.000172386
0.000155116
0.000148143
0.000118162
0.000148022
0.0334407
0.0372732
0.0282182
0.000204148
0.000162962
0.000158222
0.000148986
0.000157763
0.000171508
0.000168628
0.0478819
0.000180295
0.0583378
0.000203978
0.000149248
0.000146299
0.0341178
0.000147535
0.000160597
0.000166848
0.000240376
0.000152028
0.0646109
0.000148941
0.000154967
0.000148144
0.000149905
0.000179329
0.000195663
0.000148869
0.000163877
0.000159653
0.00017308
0.000179931
0.000220538
0.000202752
0.000213255
0.000200475
0.000157054
0.000150762
0.000179717
0.0462303
0.0782208
0.0526984
0.000163012
0.0218288
0.000194979
0.000150552
0.000147551
0.00018225
0.000148713
0.00016386
0.0224301
0.000147455
0.000146656
0.000280983
0.017587
0.000174345
0.000399254
0.000148505
0.0264349
0.000168409
0.0704443
0.000156958
0.00014808
0.0525937
0.000165743
0.000148031
0.000172987
0.000149607
0.00019162
0.00015877
0.0001652
0.0854337
0.00015954
0.0511985
0.000147114
0.0526442
0.000148529
0.000155915
0.000149609
0.000170902
0.000148695
0.000166807
0.0502964
0.000235054
0.000174091
0.000160439
0.000169501
0.000147388
0.000148374
0.000151223
0.00173413
0.00015544
0.0728106
0.034608
0.000190126
0.000149296
0.000193543
0.000206774
0.000202836
0.000156736
0.0388337
0.00014767
0.00014388
0.000147525
0.00744282
0.000148342
0.000147935
0.0522182
0.00014751
0.000201958
0.000172907
0.000146754
0.0602249
0.000159606
0.0696191
0.00014761
0.00145931
0.000150487
0.00016805
0.0288684
0.000182297
0.000147291
0.000158343
0.0378135
0.000163682
0.000194863
0.000161768
0.000155748
0.000188579
0.000157647
0.000149242
0.00696135
0.000159289
0.000159598
0.000201741
0.000147573
0.00014679
0.000149069
0.000162623
0.000148521
0.000154502
0.0567036
0.015105
0.000172424
0.00952814
0.000181887
0.000165866
0.068211
0.0498838
0.000149462
0.0160919
0.0515319
0.0350863
0.00119248
0.000160898
0.0351748
0.0549119
0.0450516
0.00122336
0.0784502
0.000163223
0.000170677
0.000157462
0.000156785
0.000149394
0.000274537
0.000149876
0.018565
0.00017591
0.00020203
0.000144324
0.000186126
0.000164134
0.000151497
0.000149942
0.000148478
0.000175303
0.000152595
0.000149263
0.000170229
0.0562737
0.000153549
0.000193389
0.000146218
0.000175248
0.000170384
0.000148643
0.000155466
0.00014716
0.0699868
0.0622411
0.000207522
0.00386086
0.000160951
0.000189229
0.000148609
0.000170633
0.000148287
0.000149165
0.000149444
0.0548709
0.000146067
0.000173848
0.000241566
0.000156661
0.000161913
0.000147651
0.0676144
0.000207396
0.0407572
0.0333614
0.000202187
0.000238678
0.0308532
0.000239062
8.0727e-05
0.0166651
0.000175897
0.000159253