/*--------------------------------*- C++ -*----------------------------------*\
| =========                 |                                                 |
| \\      /  F ield         | OpenFOAM: The Open Source CFD Toolbox           |
|  \\    /   O peration     | Version:  v2012                                 |
|   \\  /    A nd           | Website:  www.openfoam.com                      |
|    \\/     M anipulation  |                                                 |
\*---------------------------------------------------------------------------*/
FoamFile
{
    version     2.0;
    format      ascii;
    class       volScalarField;
    location    "400";
    object      nut;
}
// * * * * * * * * * * * * * * * * * * * * * * * * * * * * * * * * * * * * * //

dimensions      [0 2 -1 0 0 0 0];


internalField   nonuniform List<scalar> 
13851
(
0.000762061
0.00158659
0.00169203
0.00410261
0.00583161
0.00125368
0.00284792
0.00586248
0.0138428
0.0058397
0.000369609
0.00583283
0.00302122
0.00530612
0.00117955
0.00139188
0.00225264
0.00431251
0.000669579
0.000881372
0.00102015
0.000758905
0.00138531
0.00583557
0.00336163
0.00204942
0.00033054
0.00215593
0.0134701
0.00584439
0.00983805
0.00335426
0.00101607
0.0144953
0.000491762
0.0134232
0.0058359
0.00239709
0.0142307
0.00290419
0.0145315
0.0136905
0.000194104
0.000202655
0.0138762
0.0058502
0.00585283
0.00144852
0.00140335
0.00283285
0.00324089
0.00284099
0.00139447
0.00200126
0.00477738
0.00274326
0.000860118
0.0150614
0.000248981
0.0049792
0.00583285
0.00091226
0.00583395
0.00133619
5.3348e-05
4.44521e-05
0.00300205
7.7664e-05
0.00285773
0.00628705
0.00948203
0.000919994
0.0037622
0.00365005
0.00178932
0.00105603
0.00363797
0.00583938
0.0023632
0.00583676
0.00249365
0.000560006
0.0004891
0.00613886
0.0053903
0.009935
0.000799037
0.00297632
0.00584079
0.00975778
0.0019958
0.00292554
0.000293421
0.00918494
0.0139985
7.41016e-05
0.00584787
0.00136229
0.0035627
0.000215787
0.00132417
0.00015911
0.000136675
0.00323645
0.00585458
0.000701415
0.00585381
0.00994514
0.00300272
0.00464889
0.000458701
0.0058517
0.00044365
0.000479013
0.00111046
0.0021058
0.00583394
0.00585317
0.00345956
0.00673892
0.000108393
0.00586906
0.00238941
0.0122724
0.000521515
5.06052e-05
0.00584798
0.000300254
0.0149055
0.00101257
0.000761428
0.00076597
0.00102822
0.0145945
0.000419486
0.0139173
8.90709e-05
0.0097732
0.000211203
0.00120801
0.000491424
0.00146592
0.00584225
5.92115e-05
0.00466127
0.00123855
0.00583866
0.00926426
0.0115165
0.000288542
0.00132999
0.000422735
0.0004795
0.000569643
0.00192588
0.00424951
0.00583277
0.0139301
0.00120934
0.0026258
0.00583509
0.0134736
0.000795713
0.00144602
0.00556506
0.0142866
0.0143328
0.00467367
0.000488347
0.00954604
0.00583301
0.00583329
0.000661104
0.00583238
0.0144237
0.000469615
0.00124618
0.00583395
0.00185196
0.00126825
0.000626995
0.000108286
0.000528506
0.0011781
0.00020852
0.0118165
0.00102478
0.000330624
0.00234542
0.00584713
0.00233061
0.00125214
0.00325567
0.00116818
0.0011286
0.00137804
0.000888384
0.00379753
0.00292308
8.88384e-05
0.000488007
0.0147567
0.0150983
0.00135274
5.71739e-05
0.0142384
0.000921551
0.00156274
0.0140132
0.00116525
0.00139852
0.00326052
0.000516758
0.00583518
0.000535291
0.000950839
0.00300454
0.000912868
0.00319636
3.41424e-05
0.00583331
0.000808631
0.00441548
0.0141843
0.000364415
0.00148939
0.00583579
6.70995e-05
0.00583397
0.000483021
0.00447393
0.000364408
0.00121252
0.00583356
0.0149919
0.00584495
0.00091775
0.0150502
0.000208622
0.00583533
0.000230115
0.00572706
0.0137515
0.00140998
0.0010224
5.02491e-05
0.000857819
0.00178867
8.91957e-05
0.000457234
0.00346567
0.000572111
0.00584042
0.00138803
0.00135024
0.0132618
0.00512581
0.00584582
5.18395e-05
0.00584031
0.00104815
0.000665494
0.00150033
0.00085735
0.000496599
0.00473192
0.000147029
0.00167055
0.00128543
0.00583383
0.00322808
0.000363813
0.0144385
0.00179852
0.00104436
0.00587499
0.000605626
0.000596045
0.00106867
0.000873014
0.0145192
0.00333459
0.00122981
0.00140572
0.00244365
0.00585635
0.00583266
0.000953231
0.000368658
0.00584791
0.00583512
0.00583414
0.00583075
0.00114495
0.00583263
0.0140901
0.00104868
0.0041091
0.0132632
0.011504
0.0024136
0.000782628
0.00322355
0.00131005
0.00213815
0.000993608
0.00527399
0.0105257
0.0007084
0.005831
0.0101158
0.00583297
0.000609089
0.00488357
0.000870182
0.00260413
0.00125593
0.000325953
0.0109816
0.00042146
0.000135293
0.0144746
0.0137736
0.00218797
0.00271011
0.00451062
0.000361628
2.8428e-05
2.92801e-05
0.000755644
0.000696049
0.000381673
0.00351018
0.000115795
0.00582928
0.00583782
0.000801921
0.0103903
2.89305e-05
0.00585553
0.0138391
0.000364945
0.000720741
0.00260995
0.00382302
0.000656993
0.00137241
0.00102639
0.0013052
0.0131668
0.00216532
0.000547695
0.00132875
0.000937507
0.000349273
0.00584138
0.0036481
0.000287585
0.000221945
0.000601232
0.000404789
0.0132218
0.00100525
0.0149232
0.000887219
0.00585697
0.00128919
0.000857131
0.00504195
0.000836243
0.0019928
0.000660494
0.00183696
0.000300394
0.00454967
0.00218843
0.00038662
0.000443503
0.00104248
0.00540857
0.000949267
0.0151623
0.00145169
0.0020222
0.000597981
0.000262561
0.00397038
0.00135042
0.00033897
0.00181594
0.0056726
0.00101545
0.0103545
0.00383056
0.00122088
0.00213196
0.00144243
0.000262744
0.00166656
0.00912469
0.000996274
0.00184014
8.26759e-05
0.000544912
0.000783891
0.00364799
0.00372733
0.000267326
0.00482077
0.00034834
0.000828791
0.0019078
0.00586762
0.000226748
0.0107166
0.00233963
0.00130977
0.000521902
0.000882824
0.00207206
0.00584273
0.00257983
0.000353985
0.00129005
0.000402892
0.00356421
0.00417694
0.00583252
0.00336971
0.000744968
0.00584085
0.00166976
0.00122708
0.00583285
0.00997551
0.000637195
0.000969071
0.0019986
0.00203167
0.00241714
0.00120411
0.00378637
0.00246345
0.00851324
0.0104003
0.000780684
0.000942322
0.00583387
0.00583251
0.00138321
0.000620494
0.0018825
0.00502792
0.00201402
0.000113135
0.00211489
0.00971369
0.00583266
0.00193401
0.0138612
0.000264302
0.00583454
0.00583323
0.0019428
0.00360382
0.000263221
0.0107347
0.00108609
1.52176e-05
0.00145807
0.0058335
0.0147107
0.000694803
0.00022719
0.00350791
0.013323
0.000240483
0.000194294
0.00301237
0.00073018
0.00030414
0.00158519
0.0144274
0.000687736
0.00144822
0.000879264
0.000425322
0.00477096
0.0132692
0.00191036
0.000963883
0.000908565
0.00106207
0.000250154
0.000655472
0.00583154
0.00205144
0.0145991
0.00755852
0.00123911
0.00917279
0.00695457
0.000564697
0.000412212
0.00583455
0.000327811
0.00583927
0.00585065
0.000334598
0.014755
0.00179195
0.00143515
0.000139265
0.000670504
0.00584153
0.00860897
0.00584599
0.0148798
0.000277601
0.0058376
0.00231583
0.000391444
0.00134107
0.00584747
0.00525307
0.000925254
0.00587334
0.0128006
0.000682304
0.000762831
0.00100362
0.00885802
0.00495769
0.00587796
0.000653602
0.00283063
0.00569936
0.00725895
0.0151414
0.000803342
0.00181806
0.00583949
0.00173961
0.014924
0.0141005
0.00589519
0.00387565
0.00585143
0.00255976
0.000785323
0.00243113
0.00584269
0.000988722
0.0130563
0.000311347
0.0126529
0.00185305
0.00584066
0.0138792
0.00583414
0.00035134
0.00186126
0.00174898
0.00103033
0.0131939
0.00485755
0.00132171
0.00238402
0.00275243
0.000542844
0.0137346
0.00744292
0.00264839
0.00501886
0.000135014
0.0128785
0.000936439
0.00161848
0.000498301
0.0022483
0.00142715
0.00436186
0.00899751
9.6853e-05
0.0148535
0.00111574
0.0133773
0.0021814
8.23797e-05
0.00113171
0.00583331
0.000586716
0.0107439
0.000486302
0.00116124
0.00326666
1.46485e-05
0.000222279
0.00307602
0.00416171
0.00583306
0.000473189
0.000631974
0.00583266
0.0144521
0.00583295
0.00115464
0.000859524
0.00189112
0.00316578
0.00560624
0.000326662
0.00368499
0.000753381
0.0136251
0.000761842
0.00583387
0.00586942
0.000652422
0.00204843
0.000471156
0.00173384
0.000249702
0.000125578
0.00583407
0.00358229
0.00583556
0.00194139
0.0031728
0.0139288
0.000363755
0.00242208
0.000130367
0.000201183
0.0131284
0.00590607
0.00921614
0.000379509
0.000972755
0.0016498
8.78714e-05
0.00585983
0.000433222
0.0040364
0.0133329
0.00373194
0.00257741
7.36638e-05
0.00948587
0.00583577
0.00583557
0.00184154
0.00244384
0.00680192
0.002038
0.00055265
0.00216316
0.00519344
5.37287e-05
0.000528295
0.000243035
0.00583797
0.00163311
0.000164029
0.00186582
0.00135046
0.00118705
0.000229272
0.000466919
0.00155062
0.000941647
0.000955496
0.00011477
2.24357e-05
0.000678162
0.00973149
0.00426692
0.00138941
0.00896505
0.000289389
0.00785168
0.000777479
0.00471464
0.00136324
0.000539257
0.000761012
0.00583627
0.00583545
0.00193646
0.00362662
0.00193299
0.014829
0.00583404
0.00767575
7.73389e-05
0.00286034
0.000418717
0.00109866
0.00177309
0.00404907
0.000237811
0.000309552
0.0006489
0.00224318
0.000302269
0.00192602
0.00113642
0.000822687
0.00045847
0.00426461
0.0058354
0.000928441
0.00546755
0.013787
0.00583054
0.000294156
0.0144757
0.000382528
0.0143312
0.00443678
0.00111023
0.000254449
0.00038292
0.00583379
0.00340746
0.00583835
0.0058682
0.00583244
0.000554954
0.000432464
0.000148023
0.00178434
0.00122447
0.013798
0.00583644
0.0048103
0.000503856
0.00583616
0.00583343
0.0141947
0.00120585
0.00592809
0.0102812
0.00108525
0.00081203
0.00587175
0.0146964
0.000852721
0.00181493
8.43831e-05
0.00583381
0.00142984
0.0058932
0.00169965
0.00408847
0.000835775
0.000815671
0.000379156
0.0136208
0.000334006
0.000580715
0.0135813
0.00583731
0.0135513
0.0058341
0.00231298
0.00212635
0.00130745
0.00115357
0.000327242
0.000761603
0.00583478
0.00583643
0.000562467
0.0021643
0.00583498
0.00202486
0.000304618
0.00583057
0.000182661
0.000213361
0.00476188
0.000342226
0.00864303
0.000204855
0.00583367
0.000287193
0.00583397
0.00131867
0.00842542
0.0131689
0.0105387
0.0134505
0.00246974
0.00270477
0.000132456
0.00126974
0.00585687
0.00111625
0.000971948
0.00597205
0.00191918
0.00138257
0.00457752
0.00584452
0.000373164
0.000759858
0.00195867
0.00583539
0.00116408
0.000411927
0.0149512
0.00196847
0.00583318
0.00286975
0.00145749
0.000949608
0.00583223
0.0148777
0.00585734
0.00395116
0.0058349
0.000208513
0.00105614
0.00011583
0.000852387
0.00381055
0.00158455
0.0058308
0.000329059
0.00141246
0.00738762
0.00258629
0.00544284
0.0146822
0.000840022
0.00583021
0.00268995
0.00948461
0.00120604
0.00166722
0.00354713
0.00295997
0.00445976
0.000611039
0.00583367
0.00583075
0.0049647
0.0010707
0.00583321
0.00187598
0.014929
7.85532e-05
0.0111273
0.00584409
0.0100256
0.00583416
0.00583055
0.00207337
0.00583036
0.00583518
0.0107657
0.00924309
0.0031586
0.00583289
0.000772304
0.00585214
0.00354051
0.00029533
0.00699898
0.0145398
0.00184551
0.00155055
0.00583337
0.00104181
9.00656e-05
0.00590291
0.00583432
0.000258963
0.00404172
0.000888935
0.000506116
0.00113582
0.00583389
0.000705886
0.00147813
0.00270139
0.0011452
0.000873154
0.000739852
0.00583489
0.00363892
0.00368149
0.0064968
0.00138517
0.00687716
0.000948914
4.97242e-05
0.00247085
0.000416366
0.00081393
0.00582965
0.0127128
0.00131737
0.00583019
0.00281243
0.00148134
0.0146197
0.00053745
0.00583707
0.00068502
0.00545474
0.00142777
0.000476226
0.00100937
0.00120337
0.0151859
0.00583275
0.000903913
0.000624629
0.000799166
3.10806e-05
0.00151925
0.000579281
0.00186216
0.0150861
0.00417358
0.00593388
0.0010475
0.00970035
0.00275218
0.00372639
0.00117264
0.00378712
0.0022596
0.00583577
0.00198803
0.00583349
0.0146405
0.000551796
0.000423883
0.000428631
0.000957326
0.00584285
0.00246144
0.000800294
0.00242809
0.000733733
0.0133594
0.000374243
0.00114832
0.000321329
0.0102349
0.00135465
0.0110548
0.00583572
0.000411221
0.0013405
0.00411354
0.000344453
0.00583363
0.0058368
0.000132229
0.0035695
0.00030922
0.00205288
0.000494628
0.000509916
0.000742717
0.000569262
0.0036924
0.0139384
0.000705099
0.00583498
0.000713756
0.00151175
0.0115293
0.00112128
0.000143875
0.000930123
0.00155314
0.000247585
0.00301764
0.0134617
0.000997323
0.00771878
0.000568548
0.0058338
0.00589444
0.000696737
0.00408352
0.00350709
0.000325043
0.00583439
0.000929339
0.000308884
0.00589067
0.0121605
0.00323095
0.00106953
0.00181262
0.0133267
0.000644078
0.00583189
0.0036894
0.000595212
0.00588046
0.00584327
0.00179812
0.00194524
0.0143745
0.00869223
0.00163278
0.0143696
0.00154488
0.00518043
6.58253e-05
0.00583503
0.000325089
0.0058991
0.00583108
0.0010749
0.00218061
0.0144711
0.0039063
0.000892078
0.00458056
0.00964818
0.000379669
0.00368442
0.00232053
0.000503826
0.00589755
0.00589145
0.000486231
0.00297281
0.000761846
0.0058505
0.000478764
0.000883491
0.00067696
0.000446122
0.00587464
0.00584213
0.0025933
0.00122966
0.00206036
0.0149559
0.00120786
0.00583337
0.00588321
0.00584468
0.000940277
0.00111095
0.0132777
0.0142296
0.000342316
0.0058336
0.000247291
0.00363044
0.00471889
0.00768538
0.000318774
0.00505196
0.0137209
0.00857114
0.00172144
0.00123989
0.011693
0.00112743
0.000310972
0.000114478
0.000202414
0.00210143
6.12605e-05
0.00486486
0.00846962
0.00220408
0.00583579
0.000861693
0.00026679
0.000452311
0.00110883
0.00583283
0.00167918
0.00100766
0.00195065
3.81691e-05
0.00583369
0.0102516
0.00406826
0.00450242
0.00130508
0.00193438
0.00583326
0.0130863
0.000755497
0.0142208
0.00980121
0.00583339
0.000983144
0.000882575
0.00198123
0.000906156
0.00116601
0.00583547
0.00144008
0.000555604
0.00753592
0.00106105
0.00375654
0.00107093
0.00137718
0.000121097
0.000714876
0.000624547
0.0058469
0.000534091
0.0108143
0.000984279
0.00844521
0.00949865
0.0143248
0.00896444
0.00584515
0.00583985
0.00430982
0.000936892
0.00175864
0.000644914
0.00193393
0.00420776
0.00583068
0.00584028
0.000966396
0.00583864
0.00157335
0.00106215
0.00824824
0.00122985
0.00583355
0.00583374
0.00420119
0.00583313
0.000265895
0.000900062
0.000329884
0.00898056
0.00583721
0.00584561
0.014886
0.0146127
0.00305569
0.00577073
0.000138598
0.00742948
0.00583333
0.000192614
0.00141255
0.00583447
0.00259334
0.00520771
0.00234181
0.000714157
0.000365802
0.00359843
0.00444925
0.000520375
0.000999956
0.00583595
0.00825069
0.00443176
0.000921309
0.00583341
0.00325497
0.00121616
7.87565e-05
0.00246411
0.000209112
0.0096161
0.00105343
0.0144086
0.00438548
0.00382976
0.000243417
0.00583521
0.00213015
0.00203951
0.000156659
0.00219842
0.00506507
0.00583105
0.00579894
0.0021173
0.000418798
0.000996478
0.00288052
0.00583401
9.05082e-05
0.00586034
0.00841486
0.00583341
0.000927573
0.00173346
0.00684355
0.000669708
0.00583359
0.000984334
0.00583172
0.00212423
0.000228917
0.0049663
0.00131011
0.00583596
0.00172229
8.35021e-05
0.00121323
0.000147099
0.000280355
0.000438812
0.00150993
0.00109504
0.00113939
0.00586944
0.00445471
0.00212598
0.00111612
0.00583194
0.00053818
0.00583475
0.000927564
0.00583459
0.000226534
0.0018208
0.0058408
0.0025444
0.00122992
0.00583354
0.00126735
0.00582899
0.000166193
0.0105438
0.000836363
0.00504616
0.0058311
0.0058358
0.000147284
0.00583493
0.00583512
0.00192285
0.00108297
0.000953397
0.000233215
0.00280806
0.00047142
0.00586374
0.00583341
0.00583471
0.00583506
0.000279177
0.00589734
0.00100775
0.000923704
0.0058345
0.00583178
0.0131755
0.00583521
0.000634109
0.0023231
0.0139412
0.000780989
0.000128318
0.000310966
0.000398792
5.33886e-05
0.00279292
0.000423601
0.000837955
0.0058676
0.00584976
0.00100336
0.00113619
0.00443268
0.000340764
0.00583251
0.00152933
0.000407491
0.00323851
6.5925e-05
0.00260109
0.000132485
0.00728036
0.00514817
0.00583394
0.00172305
6.80042e-05
0.00341097
0.000573701
0.000110674
0.0141931
0.00177353
0.00135986
0.00154451
0.00034285
0.00583622
0.000280208
0.00311877
0.00238316
0.0058677
0.00834232
0.000562439
0.000892447
0.0135541
0.00192355
0.00168082
0.00583218
0.00283628
0.00672557
0.00117496
0.0082984
0.000420422
0.00442312
0.00923457
0.00583354
0.000391159
0.000471138
0.0028431
0.000940661
0.00583384
0.0126757
0.00975182
0.00587743
0.000836899
0.00162645
0.000472528
0.000608391
0.00172481
0.00089968
0.00170886
0.000443409
0.00159893
0.0058335
0.00154834
8.09365e-05
0.00867755
0.0058335
0.000807479
0.000596858
0.00185484
0.00583597
0.00964635
0.00159639
0.000948985
0.00585614
0.00045566
0.000530616
0.000137763
0.00583379
0.00159881
0.000314002
0.000234536
0.000388653
0.00583356
0.00137532
0.00164404
0.000483938
0.00583394
0.000268916
0.00192449
0.000303204
0.0139536
0.0019775
0.0032763
0.00059264
0.00545085
0.000376372
0.00583497
0.000904767
0.00156142
0.00100192
0.00047654
0.00158148
0.000312153
0.000339281
0.000850998
0.000977523
0.005838
8.6904e-05
0.00172747
0.000419841
0.000533824
0.000843195
0.00047504
0.00583609
0.00516493
0.000270948
0.00295942
0.00167837
0.000983542
0.00512386
0.000348814
0.00171437
0.0137854
0.00025002
0.000306562
0.000581502
0.000940087
0.00583585
3.57621e-05
0.00589272
0.000471575
0.00198386
0.0130774
0.000599749
0.000240473
0.00583339
0.00378428
0.00583576
0.00157957
0.000694751
0.00675858
0.0119956
0.00274849
0.00583039
0.000636893
0.000148604
0.00583533
0.00885649
0.00583591
0.00101083
0.00172008
0.00214496
0.000769707
0.000966219
0.00441483
0.000482545
0.000463225
0.00105715
0.000406518
0.0058357
0.0046177
0.0130674
0.00583051
0.000773124
0.000748499
0.000374023
0.00848493
0.0058306
0.00140705
0.000462274
0.0107679
0.0058344
0.00583379
0.000723171
0.00748549
0.0058302
0.000385636
0.000405264
0.000355371
0.000566665
0.000730326
0.000941546
0.00583529
5.19713e-05
0.00583311
0.00424786
0.000742505
0.00583855
0.00211933
0.000399953
0.00583309
0.00353603
0.000680817
0.0125825
0.0036028
0.00491286
0.00583416
0.00583426
0.000665087
0.00583329
0.00589854
0.0102463
0.00583602
0.000959057
0.00128829
0.0118775
0.000342101
0.00589618
0.000771164
0.000424938
0.00583224
0.00387322
0.0058336
0.0039212
0.00583446
0.000533954
0.00123538
0.00586943
0.00586275
0.00087291
0.00105698
0.000832065
0.000156895
0.000412539
0.00114246
0.0140841
0.000242121
0.00213257
0.00136787
0.000223349
0.000465337
0.00105218
0.00192693
0.00804843
0.00521262
0.00436542
0.00174877
0.00402332
0.000608013
0.000233993
0.00587542
0.00378809
9.72836e-05
0.0058353
0.0022941
0.00583355
0.00583908
0.00252004
0.00392859
0.00335098
0.00583031
0.00421291
0.00583239
0.000153508
0.0020928
0.0011309
0.000177619
0.00351679
0.0105342
0.000762387
0.00583501
0.00121688
0.00586202
0.000382077
0.00437752
0.0130611
0.00102906
0.000776628
5.80094e-05
0.00888501
0.000546585
0.000304071
0.000637131
0.000314508
0.00379585
0.00220692
0.000111982
0.000586923
0.00340491
0.00585016
0.0066336
0.00273744
7.3153e-05
0.00723783
0.000538296
0.00606324
0.000839577
0.000995575
0.000817084
0.0107935
0.000710218
0.00583265
0.000312123
0.000494136
0.00141042
0.00583714
0.00583289
0.0142392
0.0058356
0.000589097
0.0144755
0.000639322
0.00488897
0.000315182
0.00091913
0.00765618
0.00583105
0.00519344
0.00583276
0.000537384
0.00246419
0.0035763
0.00119805
0.0147057
0.00573652
0.00583386
0.00798037
0.0044617
0.00279337
0.00325225
0.0109982
0.00585758
0.000841017
0.00583221
0.00799471
0.0142532
0.000438529
0.000113969
0.000451498
0.00460889
0.00583353
0.0129719
0.00583249
0.00161748
0.00587435
0.00197181
0.00583421
0.00899592
0.00583359
0.00150697
0.00585896
0.000200168
0.000280646
0.00585749
0.000284353
0.0103566
0.00113144
0.00679071
0.00562384
0.000240656
0.000950096
0.000936272
0.000562968
0.0015719
0.00496719
0.0019291
0.000413575
0.00377438
0.00692894
0.00638951
0.000953798
0.000702878
0.000626245
0.000518989
0.0142499
0.00587487
0.00585526
0.000381887
0.00956079
0.000507373
0.000385893
0.000828843
0.00583409
0.00954079
0.00923257
0.00752173
0.00583423
0.00576368
0.00896877
0.00027772
8.029e-05
0.0122549
0.00142
0.000792015
0.000395708
0.000577505
0.00431168
0.000496494
0.000894239
0.00583726
0.00738133
0.00583429
0.000557612
0.00105897
0.000514017
0.0010308
0.000295725
0.00201747
0.0016453
0.000504511
0.0035772
0.0152217
0.000621645
0.00171543
0.000591698
0.000566125
0.000173324
0.0058316
0.000605703
0.000129113
0.000391959
0.00450194
0.000468217
0.000924993
0.000318923
0.00863736
0.000298361
0.00105464
0.000186383
0.00729518
0.00245606
0.00149141
0.0073917
0.000429721
0.00118533
0.00141349
0.00583326
0.000218418
0.00208838
0.0136303
0.000442872
0.00159223
0.00583465
8.57387e-05
0.000557199
0.000291322
0.00449558
0.005848
0.00583431
0.000693285
0.00583429
0.00147181
0.00142505
0.00190733
0.000562677
0.00584422
0.000876042
0.00238694
0.00151664
0.00170882
0.00583576
0.00947138
0.00149018
0.00583369
3.85715e-05
0.000217309
0.000259658
0.00132394
0.000932329
0.00127189
8.13988e-05
0.00118478
0.00165814
0.00583432
0.0034085
0.00243331
0.00537206
0.00150422
0.00551615
0.00583365
0.00021718
0.0058441
0.000867785
0.00143924
0.00012903
0.00583542
0.00057791
0.00118725
0.0114787
0.00583355
0.00032661
2.76021e-05
0.00142993
0.000198905
0.00148332
0.00214134
0.000239341
0.00070398
0.00320903
0.00101571
0.000927929
0.00583476
0.00587604
0.000328224
0.00583446
0.00265232
0.000341174
0.00583585
6.92082e-05
0.005858
0.0151344
0.008838
0.00714308
0.00942719
0.0103934
0.00266085
0.00583368
0.0107788
0.00585358
0.00585901
0.00583553
0.000194052
0.0141664
0.00393842
0.000467246
0.00465784
0.00141756
0.000326114
0.00564667
0.00583093
0.00590383
0.0151148
0.00583423
0.00583382
0.00868311
0.0015901
0.00297524
0.0058361
0.00931256
0.0103116
0.0042566
0.00103774
0.00583558
0.01215
5.10687e-05
0.00335116
0.0038368
0.00242126
0.00844219
0.00585379
0.00474255
0.00583541
0.00583616
0.01455
0.00575292
0.000165355
0.000910832
0.00262311
0.00196837
0.000374871
0.000252694
0.000617057
0.00999646
0.0121047
0.00583009
0.00165341
0.00150522
0.0014421
0.0137395
0.00583663
0.00438849
0.000429479
0.0013426
0.00129866
0.00582996
0.000439205
0.000590305
0.00390526
0.00583443
0.000422668
0.00241722
0.000981567
0.00177028
0.0146542
0.00239315
0.00017675
0.0020357
0.00471089
0.000964578
0.000931118
5.31618e-05
0.0144022
0.0108264
0.00583302
0.00656632
7.90187e-05
0.0147876
0.00246127
0.000579044
0.00070326
0.00330298
0.00912532
0.00583351
0.00104192
0.0088785
0.0151724
0.000294002
0.0149098
0.000577453
0.000835862
0.00585731
0.0137871
0.000605798
0.0054774
0.00585799
0.00854163
0.00584026
0.00583424
0.00108008
0.000362304
0.000353112
0.00375355
0.0100069
0.00166508
0.00584972
0.000513485
0.00803132
0.000162838
0.00446749
0.0125414
0.00101974
0.0016687
0.0018092
0.00583038
0.000492732
0.00583464
0.00192049
0.000158112
0.00217921
0.00583881
0.000437544
0.000803623
0.00585836
0.00866576
0.00140143
0.000713079
0.00587402
0.000171745
0.00583346
0.000250902
0.00168759
0.000170677
0.00205639
0.00931543
0.0002216
0.0148436
0.000355188
0.00055123
0.00584058
0.00929933
0.000156867
0.000414734
0.000105384
0.00583516
0.00558812
0.000361553
0.000497258
0.000934027
0.0112413
0.010187
0.00063146
0.0067398
0.000485822
0.000308566
0.00583359
0.00339682
0.00583737
0.000967214
0.000533731
0.000313166
0.0136186
0.00584161
0.00583122
0.00165087
0.000517783
0.00136701
0.00585065
0.0148587
0.0013921
0.00169085
0.00228049
0.00404765
0.000442502
0.0106177
0.000152667
0.000957389
0.000374635
0.00583372
0.00134801
0.000457511
0.00044869
0.00309264
0.0058292
0.00329908
0.0101474
0.0132762
0.00588341
0.000445857
4.27476e-05
0.00373492
0.00583186
0.00298168
0.0147632
6.82208e-05
0.000489167
0.00229355
0.00180833
0.00839135
0.000264941
0.000629467
0.0022773
0.000974035
0.00584006
0.000179766
0.000391647
0.00548418
0.0126879
0.012472
0.0147168
0.0119778
0.00887937
0.00844288
0.0103965
0.00103093
0.00589529
0.00911484
0.00778592
0.00479183
0.00291523
0.000952889
0.00480949
0.0057604
0.004878
0.0146785
0.000944584
0.0058343
0.000579864
0.000792597
0.000743169
0.00890505
0.000390763
0.00077346
0.00582926
0.0146434
0.00304199
0.000419797
0.0017842
0.000858039
0.00244493
0.00583628
0.000688709
0.000678218
0.000997296
0.00141343
0.00133663
0.000789115
0.000939752
0.00850159
0.00035353
0.00151356
0.0111636
0.000985118
0.00583359
2.82189e-05
6.79229e-05
0.00560845
0.000625714
0.00312576
0.00112394
0.000807037
0.00042502
0.00583088
0.000251322
0.00145151
0.00121833
0.00020817
0.00583485
0.0016579
0.00986313
0.0133862
0.0151254
0.000362515
0.00174957
0.00583741
0.00574887
0.000967347
0.0058545
0.011149
0.00584346
0.00583603
0.00583979
0.0127958
0.000852196
0.00171482
0.00116906
0.000712073
0.000307942
0.000907312
0.000229915
0.00107636
0.000614558
0.0044602
0.0014217
0.00874867
0.000558237
0.0149839
0.000847506
0.00582931
0.00583919
0.000778919
0.00064455
0.00583135
0.000270675
0.000876152
0.000457972
0.00850765
0.00369401
0.00722437
0.00583603
0.000147676
0.000458961
0.000513551
0.00583817
0.000415744
0.0010503
0.0078872
9.69894e-05
0.000439347
0.0058343
0.0132541
0.000421217
0.00803736
0.00742115
0.000943301
0.000933837
0.000491259
0.00794265
0.000128987
0.0133111
0.000507246
0.00399424
0.0005358
0.00588772
0.00781593
0.000780623
0.000701047
0.000424345
0.0146649
0.00457988
0.0045061
0.0098403
0.000590818
0.0092234
0.000250496
0.00583581
0.000657477
0.000978305
0.000163046
0.00544307
0.000515747
0.000740792
0.00112626
0.00583541
0.00474206
0.000341286
0.00139879
0.000165411
0.00437172
0.00343431
0.000296718
0.00195927
0.0032156
0.00583321
0.000561798
0.000139476
0.00153029
0.000710799
0.00053879
0.000532374
0.00322367
0.000213682
0.000949873
0.000838052
8.39286e-05
0.00226117
0.00016883
0.000156687
0.00588362
0.00105273
0.00751236
0.0103283
0.00358967
0.000193599
0.0079382
0.0049815
0.00132466
6.90784e-05
0.0095611
0.000454581
0.00808752
0.000598375
0.00488215
0.00136803
0.0058361
0.00135163
0.000582242
0.00283289
5.00568e-05
0.00101483
0.000337057
0.0122321
0.0133185
0.00288278
0.011956
0.00584057
0.00317092
0.0123643
0.00583354
0.00583144
0.00959048
0.00275943
0.00583399
0.000846992
0.0136565
0.000562271
0.00183447
0.0108232
0.00583215
0.0130456
0.00994938
0.00583395
0.000129895
0.00123142
0.00992661
0.0099036
0.0104557
0.00872424
0.00583641
0.00101209
0.000628192
0.000948211
0.00583438
0.000971072
0.00583734
0.0109587
0.000886137
0.000156501
0.000858398
0.0113961
0.000898828
0.000907254
8.85462e-05
0.00248718
0.000469444
0.00186278
0.00583578
0.00420334
0.000353322
0.00585136
0.0108088
0.00556797
0.00478091
0.00263971
0.0147564
0.0021184
0.00584267
0.000291306
0.000430049
0.000261394
0.00801386
0.00970389
0.000169191
0.00186647
0.00188504
0.00106508
0.00171072
0.000707369
0.00149576
0.0058345
7.44163e-05
0.000743221
0.000487165
0.00770509
0.000873274
0.000318898
0.000233174
0.000607938
0.00157094
0.00584287
0.000393559
0.00584019
0.000782636
0.000231736
0.00919723
0.0058325
0.00065233
0.00553811
0.00223081
0.000441579
0.00190772
0.000680732
0.00968248
0.000804701
0.000918403
0.00150989
0.00583176
0.0131127
0.00583331
0.00210059
0.000925415
0.0133805
0.000539806
3.22626e-05
0.000122292
0.00159493
0.00290251
5.94056e-05
0.00063183
0.0138319
0.000536899
0.000272935
0.000704014
0.00171368
0.00100335
0.000177565
0.000580051
8.5374e-05
0.000855089
0.000317914
0.00125404
0.00470794
0.000279295
0.00415314
0.000909934
0.00583789
0.00120371
0.00095132
0.000933924
0.010852
0.00110374
0.000536241
0.0058286
0.00252304
0.00583427
0.0058343
0.00218071
0.00583467
0.00128748
0.00329824
0.00104702
0.000932698
0.00208296
0.00326071
0.000474265
0.00349875
0.00729902
0.00746841
0.00588905
0.00138066
0.000533025
0.00188521
0.0058341
0.000390688
7.48019e-05
0.000516501
0.0115024
0.00114998
0.0120144
0.00136189
0.00583443
0.00583132
0.0100495
0.00484598
0.00125724
8.68495e-05
0.000628211
0.00252629
0.0144741
0.00583366
0.000883252
0.00459487
0.00143447
5.54874e-05
0.001593
0.00254036
0.00175186
0.000226457
0.000968506
0.00136163
9.98619e-05
8.43694e-05
0.000304088
0.00149162
0.00238149
0.00162532
0.00150381
0.0132778
0.010082
0.0136367
0.00158145
0.00396032
0.00185264
0.00224618
0.00583409
0.00180966
0.00583363
0.00189218
0.00407276
0.00584294
0.00586777
0.000456138
0.00515302
0.00161003
0.000251532
0.00281165
0.00474056
0.000539871
0.0150682
0.000329135
0.00324789
0.013185
9.4196e-05
0.00405736
0.000176761
0.00583552
0.000200986
0.000822663
0.000103676
0.0108814
0.000284686
0.00893767
0.00583752
0.0107087
0.0028591
0.00115647
0.00173643
0.000528845
0.00583295
0.000149612
0.0133235
0.000108976
0.000733672
0.000495021
8.39306e-05
0.00476284
0.00588826
0.00234292
0.000759896
0.0017986
0.0150598
0.00770368
0.00023275
0.00583476
0.000267255
0.000282751
0.000517128
0.0027655
0.00819273
0.00460671
0.00583538
0.0053151
0.00109677
0.00337796
0.00416761
0.013508
0.00584152
0.000405948
7.9181e-05
0.00588829
0.0144957
0.00231716
0.0147083
0.0042269
0.000623615
0.00169103
8.56327e-05
0.00239906
0.000820015
0.00584177
0.00213974
0.00763344
0.0019335
0.000278254
0.00109718
0.000856366
0.000198661
0.000514636
0.00449589
0.000179996
0.000804852
0.00206201
0.00140327
0.00570714
0.0058494
0.00583385
0.00210925
0.00264954
0.000680435
0.0088183
0.000699824
6.41181e-05
0.0013158
0.00181959
0.00206558
0.0147089
0.0109705
0.00162006
0.00177505
0.00564726
0.00902061
0.000405674
0.000789023
0.00756587
0.0128811
0.00256279
0.000389272
0.0103201
0.000182513
9.05418e-05
0.000418005
0.00224937
0.00586331
0.000191176
0.00583627
0.00386297
7.41626e-05
0.0001009
0.00582949
0.00106457
0.000171974
0.000946494
0.00583643
0.00583201
7.02807e-05
0.00246595
0.0035946
0.00182278
0.013062
0.00156128
0.000225674
0.00583201
5.71912e-05
8.14755e-05
0.00245069
0.000646106
0.00583431
0.0149409
0.0141692
0.000620852
0.00043722
0.000417667
0.000680992
0.00583349
0.00159728
0.00584631
0.00237484
0.00583508
0.0105698
0.00584587
0.0018784
0.000184839
0.000610517
0.00126781
0.00583875
0.0140092
0.000404372
0.00260268
0.00741465
0.000374733
0.000617225
0.00716477
0.000639474
0.000264508
0.00197791
6.68454e-05
0.000226004
0.000381368
0.0151066
0.0058367
0.00372708
0.000191789
0.0100332
0.00582978
0.00103836
0.0143084
0.005836
0.00464451
0.000591351
0.00436907
0.00583188
0.00298029
0.00042083
5.55292e-05
0.00210496
0.000504729
0.00586776
0.00318559
0.00915758
0.00926367
0.00583721
0.00175103
0.00471518
0.00163067
0.0058334
0.000343904
5.0491e-05
0.0140617
0.00424002
0.000268093
0.00070002
0.00583016
0.00583022
0.00497972
0.00245331
0.000461398
0.000504221
0.000900895
7.93699e-05
0.00604813
0.00225839
0.00583839
0.00583857
0.00715493
0.00169496
9.2277e-05
0.000467133
0.0030475
0.000496766
0.00016136
0.00817709
0.00898452
0.00583415
0.00586928
0.00113656
0.000267009
0.0144159
0.0058358
0.00027145