/*--------------------------------*- C++ -*----------------------------------*\
| =========                 |                                                 |
| \\      /  F ield         | OpenFOAM: The Open Source CFD Toolbox           |
|  \\    /   O peration     | Version:  v2012                                 |
|   \\  /    A nd           | Website:  www.openfoam.com                      |
|    \\/     M anipulation  |                                                 |
\*---------------------------------------------------------------------------*/
FoamFile
{
    version     2.0;
    format      ascii;
    class       volScalarField;
    location    "400";
    object      omega_0;
}
// * * * * * * * * * * * * * * * * * * * * * * * * * * * * * * * * * * * * * //

dimensions      [0 0 -1 0 0 0 0];


internalField   nonuniform List<scalar> 
13851
(
0.142765
0.0272926
0.0271706
4.82074
0.0254101
0.0292399
0.0270652
0.0250579
3.69965
0.025345
0.0751813
0.0254068
0.025369
5.34475
0.0398446
0.145185
7.71185
0.0251158
0.372551
0.142977
0.0448332
0.029421
23.0544
0.0256521
7.74168
0.0704851
0.324613
4.58673
3.50829
0.0249748
4.58373
0.0270713
0.140123
4.68944
0.0499575
3.49747
0.0256655
10.2062
4.64969
0.0253198
4.58628
3.61414
19.235
0.731294
3.79012
0.0251309
0.0246967
0.139456
0.0266244
0.0253663
7.82281
0.0254194
0.144923
0.0336101
5.52583
0.0253188
0.142394
4.43417
0.429448
5.91469
0.0254169
0.255904
0.0254264
0.0267629
0.262151
0.280651
7.97676
0.0759252
0.0253425
4.55411
4.27232
0.0544477
0.0252857
7.17503
0.0352886
0.0269501
6.25597
0.02485
7.0136
0.0252281
0.0253553
0.43586
0.049257
4.97003
5.6861
4.43071
0.0296137
6.94363
0.0253274
4.60965
0.0254528
0.0271636
24.3019
4.33153
4.27947
0.43465
0.0251721
0.149261
7.40094
0.21299
0.154454
0.0492389
0.052816
0.0253229
0.0251063
0.0528887
0.0251098
4.3064
0.0271615
0.0250951
0.0348866
0.0251258
0.188771
0.0712159
0.137352
0.0327881
0.0250001
0.0250131
4.97982
4.76661
0.270761
0.0250076
0.0253366
3.9078
0.280017
0.1418
0.0251707
0.0657242
4.26307
0.0503536
0.0293527
0.0351078
7.27215
4.58434
0.0766784
4.2826
0.0732226
4.36028
0.0405334
0.0497095
0.40521
0.0258526
0.025324
0.123872
7.00179
0.0267145
0.0248417
4.35353
3.54376
0.0688503
0.153734
0.181307
0.0764322
0.283248
0.0255104
0.0253304
0.0254367
4.46741
0.0459095
0.0265374
0.0256242
3.5027
0.0517996
0.139766
5.2017
3.8845
3.95497
6.41233
0.0343724
6.20215
0.0254373
0.0250055
0.0654438
0.0254868
4.39225
0.303041
0.167376
0.0249864
0.0352371
0.163469
0.271125
0.681399
0.0333284
0.0498073
21.1051
3.51634
0.140045
0.0333155
0.025448
0.0250448
6.38078
0.045862
7.13167
0.029311
0.0265673
0.147065
0.135805
0.0252636
0.0253594
0.0814449
0.411415
4.35128
4.46409
0.0399
3.01459
4.23521
0.026906
0.0486758
3.74688
0.0286598
0.144259
0.0253204
0.42928
0.025613
0.0509491
0.0277194
0.0253489
0.23847
0.0253409
3.87196
0.0249845
0.14364
5.95632
4.32312
0.0329285
0.0492553
0.0256519
0.107709
0.0253147
0.0502154
7.15635
0.0328099
0.0286371
0.0254554
4.35426
0.0249667
18.1417
4.41911
0.185441
0.0256353
1.39975
5.45448
3.86606
0.143044
0.0364195
0.166443
0.214785
0.0353423
0.403941
0.0370786
6.32204
0.152213
0.025088
0.029021
0.150722
3.45518
4.7056
0.0250419
0.148928
0.0253244
0.198536
0.27779
0.0293936
0.052458
0.156009
0.0252479
0.0504041
0.118582
3.08198
0.0254081
0.0253487
0.0330359
4.18557
6.66647
0.0501196
0.0250207
0.270424
0.279972
0.123213
0.0516608
4.07703
7.68361
0.0299053
0.0365969
10.4637
0.0250898
0.025436
0.12678
0.0657081
0.0249585
0.0256093
0.0253029
0.0253001
0.036129
0.0254272
3.75426
0.0471434
0.025218
3.43839
3.94423
0.0254389
0.145078
7.94753
0.0259749
0.02546
0.0493923
5.45638
6.95068
0.0715076
0.0253982
6.13732
0.025427
0.0780588
6.28189
2.92132
0.0264371
9.9906
2.3389
4.35771
0.179474
0.0513111
4.46782
3.92804
4.10228
0.0254247
5.49015
22.2002
0.927009
0.815366
0.0269237
0.0712299
0.0335591
6.22908
0.0569648
0.0251325
0.0246475
0.0309183
4.27674
3.27901
0.0250819
4.24219
0.0338703
0.0354101
0.0266607
6.51188
0.267603
0.147707
0.0274528
0.0281178
3.44068
0.0254567
0.294539
0.0297847
0.0493206
0.0343943
0.0253219
0.0252148
0.182546
0.234234
0.151877
4.42788
3.49201
0.026793
4.31455
0.237941
0.0248807
3.11841
0.0982008
6.14374
0.0303185
0.0747097
0.243213
7.91528
0.174404
5.36587
0.0258047
0.312722
15.2274
0.0336238
4.94911
0.0363705
4.60368
0.0361444
0.0425922
0.153246
0.316098
0.0253298
0.0294747
0.070792
0.0354388
0.0251542
0.0504647
5.32284
0.02528
0.0489241
5.7396
0.0272078
5.14987
0.0468727
7.36562
0.0292044
0.0664713
2.36369
0.287828
0.052146
5.61474
7.08202
1.22104
0.0252525
0.177963
0.0366536
0.0736915
0.0250284
20.3582
5.5015
7.67665
0.0280548
0.155978
0.24947
6.32717
0.0247457
7.12917
0.358354
23.5461
0.0382562
5.61124
0.0253128
0.0254691
6.6852
0.261814
0.0253394
0.027339
0.0498862
0.0250519
5.53512
0.0713905
0.0964786
0.0286711
0.0258181
0.0254396
6.80928
0.0252185
0.0254214
4.0195
5.35108
0.0289276
0.261274
0.0254356
0.0254256
0.0275553
0.154255
0.0463569
0.0251628
0.0260106
0.254473
0.0264215
7.99104
0.0254001
0.0302708
3.85406
0.0403393
0.0247329
0.0254606
0.0286136
0.0253819
1.20923
4.09028
0.0367149
7.72513
0.0275893
0.0253734
4.13559
0.257787
0.0399125
0.025289
3.8915
0.0390402
7.54936
0.025326
0.0353575
0.180409
0.0372803
4.0172
0.263209
7.37036
0.0270424
0.185487
0.0252405
3.4605
0.0468231
0.135566
0.036407
0.0272233
0.0403901
0.0658885
0.0254267
6.69686
4.04009
8.37233
5.92452
4.09877
4.82518
0.291301
0.031761
0.0255762
8.79209
0.025349
0.0251557
0.034128
4.47613
0.027064
0.0258549
0.103569
0.0528257
0.0253482
7.53837
0.02518
4.36929
1.10486
0.025222
0.0264633
0.37066
3.35702
0.0249677
10.2426
14.3848
0.024823
4.42839
0.358603
0.143692
0.0270148
4.01253
6.11216
0.0248382
0.36443
0.0253374
0.0251799
3.68476
4.6715
0.0426877
0.0455782
0.0253494
0.0599873
4.36886
4.41242
0.0249426
6.16293
0.0251615
0.0253503
0.0526674
0.0302256
0.0247376
0.0269695
4.48874
0.293441
4.34406
0.0267472
0.0253188
4.21518
0.0255383
0.178761
0.030294
0.0353937
0.036347
4.06728
6.23261
0.0291053
7.19397
0.0262478
0.0717262
3.67069
4.34878
0.0253395
0.0252454
0.0529753
4.36471
0.252754
0.0588903
13.0933
0.030351
0.0351881
9.29764
7.60368
0.187944
4.2637
0.191463
3.59324
0.0256254
0.479644
4.46422
0.0254023
18.5335
6.48298
0.0343635
0.0497633
0.025306
6.82487
0.0895814
16.3178
0.02522
0.0255221
0.0299471
0.0521348
0.0254134
4.35635
0.0255144
0.184178
0.0271099
0.0752401
0.0253175
0.0253465
0.0530795
6.54415
0.0522169
4.23379
0.0353558
0.0250627
0.0249385
0.0660531
0.0260094
0.11247
0.0274975
0.0392412
0.375657
0.0255408
5.59387
0.0256382
0.0997331
6.20424
3.95058
0.0320331
16.6583
0.1004
0.316053
6.34074
0.025006
7.40146
0.0338489
0.034684
5.66722
2.74429
0.0248923
0.109454
0.0252375
3.49066
7.00321
0.025419
0.0812479
5.70346
0.0256512
0.0256362
0.0711838
6.88658
3.8739
0.0254665
0.154073
0.0262313
0.0253416
0.417737
0.156112
0.197633
0.0247291
0.118965
0.0528241
0.0620078
0.0258849
0.0264094
0.0843418
0.0297566
0.129084
0.0541836
0.0543629
0.154199
3.29717
0.363882
4.84403
10.041
0.146143
4.12276
0.0453295
3.76758
0.147196
0.0250933
0.0345386
0.306712
0.0302199
0.0252325
0.0252288
0.0999923
6.02093
0.0304485
4.28388
0.0250674
3.97372
0.175549
8.51325
0.109195
0.0293489
0.0271609
7.03777
0.196109
0.0434385
0.245528
0.0256793
6.83288
0.10063
0.187253
0.0360175
0.588793
0.0253089
0.0256271
0.0266213
0.0253372
3.6625
0.0253002
0.376057
4.10258
0.112304
4.46538
6.57862
0.19321
0.340607
0.0322089
0.0255398
0.0253369
0.0248631
0.0249397
0.0254896
0.0721299
0.181654
0.0569364
3.66411
0.0263057
3.70151
0.0256913
4.7669
0.0461878
0.0256781
0.0254763
3.95233
0.0294261
4.14917
6.47155
0.0475004
0.0725511
0.0248015
4.57488
0.0276132
0.027102
0.462512
0.0255445
0.0258591
0.0250119
0.0469503
5.7008
0.0326766
0.0362965
0.394844
4.29474
0.032874
0.0301236
3.66504
0.0248615
3.60364
0.0255699
0.0264281
6.63908
0.0847759
0.135712
0.105299
0.0525238
0.025603
0.0256915
0.0774889
0.0256691
0.0256129
0.0309257
0.377343
0.0252787
0.291863
3.77994
3.90602
0.1038
5.22451
0.0413984
0.025534
0.171454
0.0250852
0.0295097
4.80077
3.48122
7.43497
3.78737
0.0254827
0.0253918
0.0797708
0.0262516
0.0250532
23.4716
0.202664
4.75382
0.101041
0.0865107
0.0253333
0.0249824
6.33563
0.0971383
0.0267176
0.0256373
0.135387
0.215279
4.36582
0.0254991
0.0255026
6.94374
0.0258622
0.0363745
0.0250587
4.53909
0.025167
5.60529
0.0253951
0.166176
0.042261
0.0803818
0.0362247
0.0252862
0.0273677
0.0253298
0.322921
0.0258723
3.85163
0.0257395
4.58975
4.17582
0.0344302
0.0253057
5.07794
4.16732
0.0295911
0.0843118
0.0253376
6.49958
0.0251086
0.308159
0.0253843
0.0253256
3.99675
0.0365275
0.0254471
0.0340061
4.29825
5.42493
5.71793
0.0250488
3.94191
0.025398
0.0252885
0.0255073
0.0246137
0.025611
5.90226
4.93337
0.0253534
0.0255091
0.0429258
0.0251256
4.85549
0.176096
4.65027
4.543
0.027334
0.129085
0.0253926
0.0449114
0.138372
0.024985
0.025581
1.74201
6.89719
0.0710254
16.871
0.0653316
0.0254322
0.045217
0.0856639
7.6804
0.0348999
2.5611
0.0996389
0.0255983
14.2816
12.9416
4.39944
5.75057
3.62018
0.0269884
0.161066
0.0254232
1.27563
0.0296764
0.0251343
5.75044
0.0262025
0.025307
0.0253366
0.0260602
4.40082
0.297011
0.0251173
0.0461152
5.32546
0.0263253
16.3589
0.0264474
0.0818537
4.5912
0.0254309
0.240185
0.032996
0.035893
6.07736
0.0261846
0.417943
0.0656071
4.50723
0.0252854
4.45095
0.0333582
4.15593
7.98373
5.74185
0.0473842
0.0253027
0.0254902
0.025651
0.0407789
0.0254636
4.09399
0.0322977
0.0315083
0.0325734
0.0269236
0.0250476
0.0293205
0.0307243
0.0264675
0.0303761
5.95387
0.293852
0.032529
0.057464
5.82169
0.0259035
4.30968
0.0248798
0.0372494
0.0258812
0.0251558
0.0511174
0.0253661
0.0251107
0.0506968
0.025335
0.352813
0.0258577
19.4094
1.50833
0.225385
0.310559
0.0252183
4.33669
0.166904
0.0256015
0.0306252
0.0257716
4.43717
0.0264262
0.0502908
3.42528
6.4794
0.0948066
0.0253089
4.0137
2.25447
3.70931
0.0329127
0.0250504
0.0249225
0.0716885
0.0253067
7.39485
0.183329
0.0255635
0.238934
0.364175
0.025001
6.11437
6.22395
0.196932
0.0258403
4.00056
0.0717261
0.0253279
6.24536
0.029979
0.0250007
0.025201
0.034098
0.0411501
3.87181
4.95876
0.0427439
3.95654
0.03583
0.0253025
0.0962254
0.0252378
3.45502
0.0249635
0.0253623
0.027226
0.025632
4.13809
5.58881
0.267835
6.43554
7.19892
0.0328422
0.0252804
0.0258636
0.430967
0.0249414
0.0250644
0.0486879
7.3654
0.2176
0.0247851
0.044128
0.0364623
0.146326
16.3632
0.0248142
0.0247217
0.0263815
7.15352
0.0308816
4.36349
0.0263974
0.0255177
0.0250009
0.02519
0.0276815
0.192605
3.64343
3.85776
0.0325706
0.0253737
4.98622
0.0253814
6.04588
4.83994
0.0344325
5.40745
3.60387
4.74517
0.0556724
0.0346518
3.76637
0.0334903
0.0380026
0.0817438
0.323331
0.0256424
5.33541
0.0253029
4.67146
7.43782
0.0248852
0.0271206
0.0521304
0.421175
0.0362605
0.0254908
0.0305113
0.0264352
0.0284012
1.30482
0.0255167
4.20222
5.73811
0.0253033
0.0336405
0.0409162
0.0254103
3.42834
15.1227
4.39189
3.44343
0.0253508
0.0278106
0.0297331
0.0255133
0.262489
0.0365706
0.0256423
0.0640486
0.0291213
4.77662
0.0423412
6.57627
0.0263346
0.0263597
0.057985
0.0984812
0.0776872
0.0252556
16.8748
4.05755
26.0772
4.49085
4.73254
3.86614
4.27743
0.0252633
0.0253215
0.0251311
0.253338
0.0458582
0.0775276
7.17678
0.0252358
0.0248462
0.0253454
0.231264
0.0248277
0.0293546
0.0268849
4.08015
0.0261606
0.0250964
0.0254146
0.0252222
0.0255177
0.0387238
0.260605
0.0381363
5.51651
0.025337
0.0251896
4.26284
4.36126
6.70775
3.89555
0.0544198
3.90265
0.0250451
0.0696345
0.0263647
0.0254033
0.0269574
5.05295
0.0260182
0.0997935
6.64513
0.0253164
0.0251455
0.0297837
0.197675
0.0256626
4.06695
0.025115
0.23918
0.0254667
0.0253545
0.0296586
0.11071
0.0253771
0.352561
4.30763
0.199042
4.64195
0.0253158
6.42275
0.388561
0.0253617
7.70868
0.025508
0.0481626
0.0254531
0.0251497
0.0252474
0.0253404
0.0256139
0.0307006
0.0696554
0.0253635
0.0254268
0.0693968
0.02486
8.26443
0.0254673
0.0348869
0.0355469
5.00943
2.46261
0.025496
0.199491
0.0250524
0.0325177
0.0795614
3.74964
0.0496303
0.0256631
0.114422
0.086956
0.0861804
0.455379
0.0402278
0.160915
0.0589646
0.0700317
0.0261263
0.0250255
3.90255
5.47183
0.0277057
0.0253225
15.6616
0.0250707
0.0446681
0.0252426
0.0936221
8.40134
0.0246529
6.20891
0.0290641
0.0255278
0.163687
0.0251364
0.0460748
3.36925
0.0428869
3.95308
0.0252404
0.0256531
0.0494201
0.0256012
0.025629
0.0303499
0.0324499
0.0704037
0.0978384
0.0253408
0.0440786
0.0250189
0.0253833
0.0255868
0.0253659
1.95634
0.0250042
0.0264861
0.262052
0.0250646
0.0253072
4.29456
0.0256333
18.8245
0.0261598
4.4007
0.255558
0.0588282
4.86959
0.0734618
2.14422
0.0254865
0.220095
0.0301588
0.0250106
0.0251357
0.0264648
0.0337111
0.0252157
0.0612276
0.0251694
0.0263339
16.9358
7.77601
4.54877
0.0269094
0.0525643
5.02222
5.71962
0.0255304
0.0290627
2.14067
0.0252896
0.0445268
4.75469
3.86966
0.0296922
0.0444348
0.025966
0.387879
0.0256802
0.0404187
5.37362
0.0254058
0.0250645
8.40589
0.0481797
0.271735
4.74205
0.100739
0.0256445
0.0251752
0.0253885
4.75647
3.1539
5.4217
0.0632863
0.0253334
4.57041
0.0254447
0.185594
0.0300602
0.0261843
0.0453041
0.0253764
6.32737
7.20607
0.0247599
0.0714621
0.0469972
4.72071
0.048847
0.0583002
0.26778
0.0356226
0.266496
0.0613042
0.0254482
0.0372062
0.093105
4.09828
0.0253453
1.768
0.05176
0.0614709
0.0256636
7.09231
0.0288388
0.0268199
0.025067
0.0439188
0.042435
0.0636326
0.0254679
0.0258721
0.0646446
25.2855
0.0682602
0.0255098
0.0258563
0.037057
0.252319
0.0255289
0.101446
9.89658
0.0542198
4.10686
0.0406277
7.87424
0.407355
0.0252627
3.1889
0.0256183
0.0281454
0.0345975
0.0368356
0.110764
0.0472484
0.0486897
0.0509768
0.0341442
0.027321
0.0248198
0.0956765
0.0282026
0.0323714
1.82108
0.0293028
0.033909
0.0252231
4.88727
0.0935134
0.0253409
0.0275045
0.0264922
5.60534
0.177991
0.0345751
3.79319
0.355088
1.24409
0.100937
0.232751
0.0251496
0.35514
0.025049
0.0302911
10.559
3.41104
0.408542
2.19147
0.0254611
6.65805
0.0251454
0.0835647
0.0283992
3.7556
5.83207
0.0283864
0.0253321
0.375574
0.0490166
0.0253225
4.30631
0.0253871
0.0268998
0.0281879
0.0254481
0.0338726
0.026561
0.0253284
0.038768
0.55706
0.0421888
0.0683389
0.0253163
6.50374
3.46787
0.0253068
0.260658
0.0283408
0.0328962
5.22716
0.0253019
0.0259095
0.0314082
4.29754
0.0253379
0.0255441
0.0429733
3.65352
0.0252842
0.0361417
0.0384857
1.54896
0.0510928
0.0427493
0.234682
0.025395
0.135552
0.0249103
6.54186
0.0332238
0.0253544
0.0293802
0.107789
0.0255013
0.0252645
0.15125
3.91153
0.0253684
5.91885
0.0255505
0.0248942
0.0698013
0.0253448
0.0250006
6.63864
0.0256649
0.0426558
0.160158
4.51973
1.2435
0.0249209
0.0272097
0.0316234
0.0254002
0.0253055
0.0254271
3.38535
0.0255604
0.223263
0.121492
0.0250512
0.0248715
0.0330515
0.121597
0.261905
0.0629343
0.0691333
0.0270064
3.74472
0.0890626
0.0323821
0.0420047
0.0750105
0.101433
17.6121
0.0393247
3.73368
4.54589
5.36479
0.0274509
0.0251922
0.0415135
0.038532
0.024965
0.0253698
0.154385
0.0256246
0.0254731
0.0253674
0.0247296
0.0263577
0.0251749
6.53311
0.0253283
9.20786
0.0254101
0.100627
0.0256709
0.124246
0.0903648
0.0253074
4.91665
0.0271917
0.0256008
0.0413609
0.0250065
0.0346494
0.025115
3.7533
0.0273329
0.0449979
0.118856
4.88181
0.0317696
0.266855
1.65033
0.0580226
0.0252158
0.0259704
0.127263
0.0701251
7.28035
0.0249608
4.90509
0.0253151
0.101485
8.3669
0.0396921
3.63272
0.0284132
0.0349726
0.0280305
6.99936
0.0343517
0.0254902
0.0555638
0.154355
0.0264735
0.025344
0.0254916
4.5679
0.0256364
0.0309135
4.43747
0.0292755
0.0252545
0.0644397
0.0281204
4.75087
0.024845
0.0252983
0.0251173
0.0293756
0.0254747
0.0252377
0.0654029
4.1577
0.0252382
0.025435
5.29715
0.0252507
5.80668
0.0264072
6.67368
0.025075
0.0275328
0.025049
3.87135
4.66466
0.0340717
0.0812618
0.0303947
0.0251901
0.0254547
3.81305
0.0254834
0.0829083
0.0249439
0.0429428
0.0255532
5.51277
0.0250818
0.0456662
0.025092
0.587166
1.1291
0.0249889
0.0503682
6.82633
0.0694315
4.03664
3.5691
0.278234
0.0266121
0.0366559
0.102519
3.9367
0.0251806
0.0392092
0.0316848
0.0252068
4.03589
5.89736
0.0710089
0.164661
0.383661
0.0371048
4.2294
0.0249555
0.0249857
0.110038
7.61795
0.246328
0.178496
1.94019
0.0250454
7.17374
3.82186
9.10246
0.0255706
5.44995
4.97312
1.2242
4.17475
3.74925
0.0860203
0.0335041
0.187282
0.028869
0.025218
2.23858
0.0959824
0.0247987
4.78824
0.0255514
0.0329117
0.0443095
0.0300999
2.31212
0.0392379
6.06399
0.0448977
0.0294351
4.34333
4.77105
0.148421
0.0256049
0.0290593
0.0783386
0.066718
0.025075
0.0521775
0.0711057
0.16014
0.0252296
0.210468
0.0275216
0.0559668
4.16424
0.255157
0.0262909
0.152062
4.58644
0.0254065
0.0259748
8.32555
0.385587
0.0274328
0.0276268
0.0254218
0.0852017
0.028002
3.61428
0.110672
0.0257372
0.025598
0.074508
0.0330089
0.518037
6.5014
0.0251143
0.0253418
0.0309221
0.0255595
0.0271786
0.0260806
0.0258387
0.0290675
0.0251988
0.0280421
0.0254321
0.04776
3.4137
0.0256523
5.56109
10.9472
0.0249088
0.285404
0.151368
0.0983029
0.0259423
0.0952547
0.0298344
0.0912354
0.0323233
0.0263488
0.0255796
7.16063
0.0300811
3.95781
0.0259264
0.0253311
0.0253281
0.0807781
0.0252329
0.0523349
0.0617515
1.82605
0.0251852
0.286546
7.05562
3.99731
0.0250362
0.157083
1.11478
7.17813
3.24359
0.0257729
0.0254756
0.184229
1.71648
3.61917
0.0425535
0.259232
0.0256091
0.0250198
0.0454088
0.0255612
0.025392
0.183293
0.0256538
0.103238
0.0250606
4.79989
5.38245
4.75268
4.15119
4.12667
0.0253821
0.0254935
6.62905
0.0249736
0.0250004
0.0248927
0.139488
4.72174
6.63463
0.0310654
0.0251578
0.0262868
0.0422153
5.16864
0.0253506
3.6409
4.91173
0.0255519
0.0255369
4.04114
0.078901
0.0261232
0.0253492
5.75828
4.3095
0.0251386
0.204825
0.0256382
3.92765
3.44871
0.0262453
6.88285
6.65674
5.52639
0.0250473
0.025181
0.0256265
0.0256817
4.45765
0.0251614
0.27301
0.23529
8.75254
0.0257535
0.0653918
0.330013
0.0528803
6.57604
4.3213
0.0248081
0.0283536
0.0285323
0.139338
4.1731
0.024716
5.45997
0.0361545
0.0439419
0.0259519
0.0252315
0.325127
0.0437605
4.86053
0.025561
0.0615998
0.0256803
0.12593
0.0270832
4.07706
3.95774
0.308702
0.0944767
0.0252243
0.027082
0.0889982
0.260096
4.13131
6.68568
0.0255
3.80131
0.105056
4.92164
0.0289329
0.0476453
0.0425749
0.0252501
5.60264
0.0253924
0.0350401
3.52854
4.67806
1.79218
4.58382
0.0316195
0.0512679
0.0249201
4.82259
0.0305462
6.82975
0.0249035
4.8656
0.0246634
0.0252993
0.0346361
0.0353675
0.0366726
0.0252217
3.7297
0.0444113
0.0251652
0.0415392
3.93942
0.690378
0.0253146
4.55139
0.0275219
0.0358866
0.0339757
0.024888
0.0697277
0.025289
10.127
0.0930922
0.0291488
0.0253272
0.413018
0.0424207
0.0249004
5.1079
3.58193
0.260948
0.0247448
1.23183
0.0254881
0.164917
0.0299777
0.13678
5.37205
3.88823
0.0390898
4.5911
0.0560805
0.0318817
0.0250568
5.22397
0.131306
0.11322
0.069161
0.0256248
3.73557
0.0967688
0.428138
0.260153
6.43923
3.68519
6.46862
4.94789
0.0323858
0.0356433
0.0254273
0.0252379
0.0247413
0.177714
0.0325329
0.0371697
4.63173
0.0252031
0.0251101
0.0421537
0.154509
0.030483
0.0250318
4.40889
0.0272362
0.0471723
0.0254369
5.67058
0.0323808
5.86141
0.0638056
0.0365949
0.0589614
0.0254177
7.86453
0.337717
0.0761518
0.0252843
0.0251818
6.86231
4.41945
3.44323
0.025017
0.0776034
0.693741
0.0251958
0.0253101
0.025301
4.59666
0.115398
0.0384626
0.0294612
0.0286396
4.7397
0.100815
0.266808
0.0287165
0.0350324
0.0247184
0.144403
0.0614635
0.0252978
3.78337
4.36812
4.18849
3.93688
4.68091
8.05311
6.57407
0.026341
0.0249635
5.97854
4.94628
6.85441
0.0253102
0.0423142
0.0253359
0.0252327
3.40625
4.8059
0.066133
0.0253007
0.279361
0.0982236
0.0522201
4.19048
3.49754
0.259989
0.0251887
4.06207
3.12977
0.402
0.0340319
0.0448431
0.0254281
0.0251279
0.0419019
0.0490737
0.0276017
0.0415884
0.0304739
0.0282301
0.245518
4.09646
0.0355498
0.0432489
4.0473
0.220654
0.025447
0.523228
1.05194
4.7758
0.0444153
0.025294
0.032236
0.0299916
0.033964
0.0248849
0.0373395
0.0333596
0.0466175
0.270751
0.0256078
0.0261507
3.76985
3.85522
4.63313
0.355463
0.112334
0.0246461
0.0253427
0.0331763
0.0249148
6.63677
0.025331
0.0256645
0.0249203
3.73383
19.2755
0.0256451
0.0643751
0.0314591
0.0399614
0.0329239
0.0395937
0.0420468
0.0406699
4.72375
0.0289047
4.62195
0.0427479
4.60947
0.0323701
0.0252156
0.0250515
0.098212
0.152959
0.0250663
0.0444113
0.032549
0.0644789
4.08014
6.53047
4.54719
0.0256643
1.63894
0.0333709
0.0405359
0.0253299
0.0756078
0.0269158
3.70985
2.19502
0.0443337
0.0254026
3.84014
0.0307295
4.28103
5.03399
0.244882
0.0274753
0.13926
4.62914
1.26251
3.74862
0.0653275
0.025149
0.0436102
0.0250004
8.8537
0.0278473
0.0347958
0.259425
4.54452
0.0251161
0.0252094
4.23195
0.0452129
7.97226
0.0368652
0.0253511
0.0459154
0.221769
0.0490242
3.81249
0.0396758
0.905012
0.0281465
0.0256264
0.0251902
0.313241
0.0258875
0.146235
0.0253306
0.025216
0.293401
0.0286884
0.02526
0.0253493
0.0387287
0.627802
0.0435094
0.042076
0.0297357
0.0658666
0.0252883
0.174884
0.0333434
0.0454667
0.0793722
0.0299852
0.0986259
0.0511034
0.0249847
0.0692683
6.4256
3.34525
0.0252404
2.48812
4.26716
0.0252249
0.0258879
0.925306
4.14694
0.0313965
4.12989
0.407538
0.0251183
0.0858264
0.024741
0.0288029
0.0660027
10.7883
0.584951
0.224899
0.295321
3.86992
3.90787
0.0261871
3.71919
0.0253338
3.1706
3.9827
0.025433
0.025412
3.49279
0.0253774
0.0254122
0.281433
4.36153
0.240079
0.0286579
4.10925
0.025438
3.97177
3.86791
0.0255539
0.62587
7.09191
4.44897
3.59972
3.76646
3.7056
0.0251341
0.026419
0.0659802
0.0670641
0.0254038
0.220962
0.0253461
3.67263
0.279298
0.0557683
0.277292
3.60666
0.278837
0.257324
0.0677537
7.68104
0.540479
0.0279052
0.0248003
3.46973
0.0391627
0.0249721
6.82304
0.025245
3.64125
0.0254005
4.64729
0.0280262
0.0252573
20.9333
0.0309699
0.0399939
3.75914
6.60245
2.475
0.0299798
0.0452479
0.0265421
0.0404249
0.13225
0.0413145
0.025579
1.75913
0.0650235
0.0367406
4.03382
0.042829
0.0417582
0.22963
0.0791241
0.045443
0.0252511
0.220242
0.0250491
0.129585
0.348941
4.39952
0.0251284
0.0421167
4.58156
0.0261766
0.07053
0.0329651
0.0449663
5.99663
0.0640542
0.026652
15.6606
0.0251437
3.82676
0.0254674
0.0260097
0.127185
3.49232
0.0358704
0.441642
0.662762
0.0333032
0.0253503
0.186643
0.0487281
4.55273
0.0299148
12.936
0.149551
0.0331271
0.0322795
0.118115
0.0406882
0.0847039
0.0635536
0.0429938
0.0273533
0.0251586
2.51645
0.0252799
0.0317145
0.0247546
0.111096
0.0320269
0.0625627
3.89546
0.0262372
0.248101
0.0246468
0.0254071
0.0255519
0.0255755
0.0288875
0.0252187
0.0871419
7.71494
0.0615102
0.0474293
0.0276607
0.0252452
0.252473
0.0252779
4.50879
4.9869
4.79159
0.147859
0.0384751
0.0295341
0.0255371
0.0335136
0.109502
0.0467949
4.16295
0.060528
4.85545
0.149772
0.0255805
0.0250885
3.39468
0.0252027
0.0323332
0.0736079
0.382684
0.0261822
4.35626
0.0255313
0.0289562
0.0253372
0.0258508
0.190955
0.107932
0.0254042
0.0341993
0.0397723
0.0477524
0.0588318
0.575329
0.402581
0.302498
0.134375
0.0284184
0.0260962
0.0578189
3.48194
6.46038
3.86478
0.0338686
5.53679
0.105239
0.0258202
0.0252911
0.0625399
0.0254923
0.0340126
5.50776
0.0252365
0.0249935
0.615718
3.41997
0.0474719
1.58167
0.0253755
5.57709
0.0462335
4.67512
0.033243
0.0252799
3.98925
0.0671306
0.025304
0.0823164
0.0256373
0.177672
0.0320656
0.0628577
6.96031
0.0378495
5.31386
0.0252014
4.91612
0.0253809
0.0291352
0.0256709
0.0507165
0.0254922
0.0631094
3.77573
1.12781
0.0526847
0.0355946
0.0881273
0.0251223
0.0251983
0.0260076
2.28881
0.0280466
4.82523
4.49271
0.157351
0.0255873
0.162885
0.251748
0.157709
0.0282464
4.74029
0.0252347
0.0246565
0.0252227
6.81747
0.025247
0.0252825
3.86621
0.0252519
0.179508
0.113767
0.0249231
4.15311
0.0301763
4.61317
0.0251347
2.33331
0.0259669
0.0811837
9.10699
0.068833
0.0252134
0.0295334
4.66935
0.03391
0.167039
0.033695
0.0295023
0.159809
0.0325504
0.0252491
22.8758
0.0324417
0.0303423
0.143739
0.0252379
0.0250949
0.0255525
0.0326618
0.0253779
0.0291048
5.42161
12.6742
0.116038
7.24076
0.0619329
0.0357812
4.6379
4.54695
0.0256689
9.06518
9.14157
3.88992
2.95115
0.0340411
4.63238
3.97984
17.3604
3.14212
6.29765
0.0483185
0.0944993
0.0331353
0.0284576
0.0254795
1.56021
0.0256801
4.80573
0.141677
0.377797
0.0247575
0.0758244
0.0518477
0.0267885
0.0256907
0.0254591
0.139973
0.0264271
0.0253234
0.0414053
4.30841
0.0271487
0.174333
0.0250716
0.143157
0.0943592
0.0254065
0.0299231
0.0252232
4.66751
4.39066
0.172046
8.83228
0.0371934
0.0924122
0.0254752
0.042384
0.0253642
0.0254867
0.0256112
4.86597
0.0249863
0.0460706
0.826053
0.0311142
0.0334136
0.0252882
4.8267
0.216309
13.3976
4.49971
0.185306
0.336886
4.30643
0.373903
0.306421
8.42551
0.142492
0.0386596
3.48238
4.93736
0.025353
5.14892
0.169917
5.45176
0.0247815
0.0649037
4.96911
0.0256642
4.67428
0.0286086
6.63189
0.0254236
0.0253683
0.0740631
0.25501
0.0290948
0.0694928
0.0249781
0.0252859
3.65579
5.68108
6.77138
0.0545837
0.0252286
0.0256666
0.0254815
0.0405914
1.22198
4.39897
4.28984
3.45475
0.0352196
0.0252382
0.0252788
5.76317
6.25247
0.325577
0.0297123
0.0279262
0.0942414
4.83623
6.02625
0.0246421
0.0252347
4.97477
0.0261411
0.284976
0.0314138
0.0253094
0.0361922
0.052432
4.55944
4.5625
0.02557
0.0249913
0.0278624
0.20731
5.04518
0.0256534
0.146223
4.34557
0.0246559
3.32743
4.05278
12.0096
0.0254457
5.46846
4.83784
0.0437282
0.355079
0.0272565
0.350812
0.373322
0.0283516
0.0252097
6.39708
1.6755
0.0250191
0.148232
0.155555
0.0325508
0.288677
4.50556
5.38321
4.94933
0.0304225
0.0267619
0.0260826
4.35718
4.97074
4.71591
5.93908
4.58095
0.0249028
0.0456835
0.0253911
0.0254543
0.0280212
0.025253
0.0253757
0.025243
4.31214
12.59
6.86197
0.0639585
0.206211
0.040255
0.0250914
0.025284
4.39062
0.0254853
5.88985
3.8002
0.0255389
0.0250922
3.53911
0.025737
0.604225
0.0288556
0.0249649
0.0248957
4.37833
0.024863
4.32868
4.19878
0.0247167
0.0494875
0.0251238
0.0259662
0.0250095
0.127497
4.15442
0.0252578
4.86318
0.518965
0.0271973
0.0250781
0.025861
0.0266774
0.0256019
0.588383
5.30674
5.71971
0.0417309
6.58897
0.0256636
0.0286485
0.0252273
0.192338
0.0265816
4.87998
0.0251149
3.97343
0.298923
5.64478
0.160022
0.02511
0.0474645
0.0251432
4.2084
0.0250869
0.0317184
0.0295414
0.028538
0.0253544
0.0256349
0.0365388
4.90985
0.025435
0.0259693
0.0269596
0.0376571
0.179645
0.025551
5.12246
3.76517
0.0269239
4.7789
4.59714
3.69061
6.32777
0.0246808
0.0262492
3.9551
4.12962
0.154277
3.9331
4.33155
0.0362965
0.0526114
0.033326
4.29696
0.0253439
0.0252551
5.6055
0.134651
4.83251
0.0276711
0.0248696
0.025358
4.97483
0.0744496
0.026742
0.253087
0.0250125
0.0637322
0.0332957
0.0335624
0.0250733
0.0255519
0.0251888
0.0276828
1.44386
5.16044
0.0247286
0.025116
4.45552
0.0252951
0.0716768
0.0292548
0.0287846
0.0398659
0.025681
4.22153
0.0325128
0.0284605
20.092
0.0897725
0.0264341
0.0347144
0.0253065
0.0256774
6.91473
0.326503
3.46066
0.0254304
0.0255058
0.0671491
0.0305438
0.0253355
0.0407299
4.29979
0.0290249
0.0452763
0.0285267
0.125918
0.0254533
0.0248509
4.70041
5.31449
5.20271
0.0252359
0.163098
0.0247286
0.0253234
0.0711387
4.49069
0.0717561
0.03131
0.167157
0.0258715
0.0324365
0.0583958
0.832302
0.0254661
0.0248143
0.0257756
0.0268758
0.0296964
0.0252368
1.31329
9.86267
0.0252686
0.0360009
0.0256399
0.0247927
3.69356
5.95895
5.74081
0.0797651
0.0256117
0.0593953
4.81952
0.10923
0.10175
0.0381206
0.0334372
5.0649
0.232591
0.825059
0.0249827
0.0342547
0.0253753
0.0335686
6.90306
0.0247999
0.0454049
0.0286376
0.0334283
0.0262517
0.0249671
0.0251369
4.12713
0.0489168
0.0333627
0.0714223
0.0390885
6.38711
0.0350173
0.541864
0.0251821
4.76184
4.83701
6.855
0.0256528
0.0347471
0.0254136
0.0252065
5.65969
0.0493142
4.7392
0.0252817
0.0507249
0.140059
4.47337
0.0315012
0.0247904
6.7434
0.0256802
0.0256789
0.0257855
0.0253436
6.06862
0.025039
0.0251178
0.0406589
0.03063
0.160723
0.145536
0.037255
4.34499
0.0250796
0.191118
0.0249438
4.62719
0.0378045
0.517275
0.156538
2.81032
0.113567
4.59255
0.026177
6.3436
0.0364696
4.87238
0.214904
0.0314076
0.240169
0.0253872
7.09699
0.0262111
0.0417964
0.0304873
7.04024
0.150417
4.28182
0.0347631
0.0252927
4.8408
0.257534
0.0585859
0.160036
8.29778
4.81594
0.0437818
0.297056
0.0454335
0.0251199
0.0539836
0.280452
0.0776348
25.8798
0.133528
0.0249908
0.0251147
0.152633
0.0254158
5.51489
0.0795736
0.0254099
3.74133
2.11302
3.55771
0.120758
0.0251746
0.0325648
0.0289927
4.34539
3.65316
0.028938
5.15382
0.0250799
0.0355028
1.0937
0.0252918
0.0441495
0.0252016
0.0293729
0.0256352
0.183952
0.85204
0.033848
0.0328993
0.0248984
0.154302
0.0251027
0.025057
0.037153
0.025192
0.233756
4.76933
3.64166
4.25869
0.0249982
4.92259
0.0255524
0.0417638
0.144044
0.0251891
7.74895
0.0779656
0.0252798
0.0247783
0.0454872
0.0421845
0.200399
0.249328
0.0290297
0.0270962
3.96275
0.0659449
0.301597
0.92025
13.3932
4.06173
4.76045
1.33207
0.0254081
0.0254534
0.052395
0.0254417
0.0566752
0.0396067
6.30185
5.01227
6.55894
0.024839
0.0249687
0.132163
0.274894
4.36156
1.40643
3.63432
0.0628344
0.0368151
1.26936
0.283704
0.0292675
4.71115
0.0372819
0.0334574
4.37936
0.0439334
0.0250935
4.73942
0.985389
0.0275327
0.152654
0.0264486
3.97152
5.73855
5.74853
0.0253016
0.0248727
0.143929
0.0253076
0.0251058
0.0253158
0.0249283
0.0253256
0.0253367
4.67095
0.0311259
0.0522212
4.21078
0.025162
0.0253505
0.0346663
0.0287161
0.0292682
0.0253627
0.0737051
0.0340595
0.0297007
0.0961091
4.30673
0.0253788
0.0454098
0.0253959
0.0253359
0.0247149
0.0254133
4.37158
0.0251042
0.0253039
0.0254314
0.0488892
4.17949
4.25829
4.86687
1.85759
0.0480462
4.27517
6.42382
0.0252364
0.0475556
5.89797
0.23724
0.0254505
0.0309016
0.0460894
0.0422313
0.0253825
0.0431495
0.0649721
0.0498772
0.0248024
0.0592501
4.66847
0.0247293
2.13607
4.79831
0.0476336
0.734308
0.0392803
0.0254197
0.0285965
0.0252878
0.256706
4.73563
0.0248403
0.0487057
0.025247
0.0252739
0.0254321
0.0256811
0.0419529
0.02553
0.138799
0.158888
0.0289946
0.0277183
0.0491458
0.025358
0.0498239
0.0354246
0.0255634
0.0254366
0.0254893
4.98372
0.0252876
0.285642
0.0441481
0.0256379
0.0252886
0.024905
4.57424
0.0285353
0.0480825
0.0579498
4.93621
0.0316774
4.07908
2.29506
0.0487005
0.0252553
0.246969
0.0421822
4.95745
0.0789448
4.67496
0.0247687
0.0555047
0.0545785
4.34149
0.0252776
0.0474548
5.06277
0.0250884
7.86047
10.267
3.91358
0.0252486
0.0249516
4.83969
0.0253593
4.41326
0.178232
4.22532
4.41868
0.0251407
0.208184
0.246923