/*--------------------------------*- C++ -*----------------------------------*\
| =========                 |                                                 |
| \\      /  F ield         | OpenFOAM: The Open Source CFD Toolbox           |
|  \\    /   O peration     | Version:  v2012                                 |
|   \\  /    A nd           | Website:  www.openfoam.com                      |
|    \\/     M anipulation  |                                                 |
\*---------------------------------------------------------------------------*/
FoamFile
{
    version     2.0;
    format      ascii;
    class       volScalarField;
    location    "400";
    object      omega;
}
// * * * * * * * * * * * * * * * * * * * * * * * * * * * * * * * * * * * * * //

dimensions      [0 0 -1 0 0 0 0];


internalField   nonuniform List<scalar> 
13851
(
0.142778
0.0272926
0.0271706
4.82064
0.0254101
0.0292399
0.0270651
0.0250579
3.7
0.025345
0.0751789
0.0254068
0.025369
5.34486
0.0398448
0.145222
7.71195
0.0251158
0.372341
0.142994
0.0448343
0.0294211
23.054
0.0256521
7.74165
0.070484
0.324619
4.58933
3.50792
0.0249748
4.58378
0.0270712
0.140133
4.69014
0.0499573
3.49688
0.0256655
10.2044
4.64953
0.0253198
4.58731
3.61384
19.2338
0.730979
3.79029
0.0251309
0.0246967
0.139488
0.0266245
0.0253663
7.82355
0.0254194
0.144963
0.0336095
5.52576
0.0253188
0.142409
4.43508
0.428646
5.91485
0.0254169
0.255484
0.0254264
0.0267629
0.26246
0.280897
7.97705
0.0761123
0.0253425
4.55405
4.27223
0.0544497
0.0252857
7.17523
0.0352881
0.0269501
6.25595
0.02485
7.01064
0.0252281
0.0253552
0.436052
0.0492573
4.96999
5.68624
4.43067
0.0296139
6.94397
0.0253274
4.60976
0.0254528
0.0271635
24.2996
4.33152
4.27922
0.434429
0.0251721
0.149302
7.40135
0.212938
0.154496
0.049247
0.0528165
0.0253229
0.0251063
0.05289
0.0251098
4.30631
0.0271613
0.0250951
0.0348815
0.0251258
0.188728
0.0712153
0.137331
0.0327875
0.0250001
0.0250131
4.97964
4.76699
0.270625
0.0250076
0.0253366
3.90792
0.280092
0.142043
0.0251707
0.0657322
4.26364
0.0503547
0.0293528
0.0351079
7.26482
4.58491
0.0766774
4.28239
0.0734042
4.3602
0.040559
0.0497104
0.405334
0.0258525
0.025324
0.12412
7.00284
0.0267145
0.0248417
4.35354
3.5437
0.0688519
0.153769
0.181266
0.0764313
0.283121
0.0255104
0.0253305
0.0254367
4.46728
0.0459101
0.0265374
0.0256242
3.50223
0.0518014
0.139797
5.20179
3.8851
3.95559
6.41296
0.0343725
6.20098
0.0254373
0.0250055
0.0654455
0.0254868
4.39185
0.302907
0.167373
0.0249864
0.0352365
0.163485
0.271177
0.681415
0.0333283
0.0498082
21.1042
3.51627
0.140054
0.0333166
0.025448
0.0250448
6.37788
0.0458627
7.13198
0.029311
0.0265673
0.147111
0.135802
0.0252636
0.0253594
0.081388
0.411382
4.35109
4.46488
0.0399002
3.01013
4.23516
0.026906
0.0486762
3.74723
0.0286598
0.144284
0.0253204
0.429355
0.025613
0.0509487
0.0277195
0.0253489
0.238598
0.0253409
3.87292
0.0249845
0.143695
5.95639
4.32282
0.0329286
0.0492554
0.0256519
0.107836
0.0253147
0.0502152
7.15403
0.032809
0.0286372
0.0254554
4.35501
0.0249667
18.1447
4.41979
0.18547
0.0256353
1.4005
5.45457
3.86627
0.143072
0.0364198
0.166354
0.214856
0.0353416
0.403784
0.0370824
6.32212
0.152227
0.025088
0.0290209
0.150771
3.45468
4.70573
0.0250419
0.149124
0.0253244
0.198532
0.277812
0.0293936
0.0524599
0.155996
0.0252479
0.0505311
0.118602
3.08092
0.0254081
0.0253487
0.0330354
4.18596
6.66637
0.0501213
0.0250207
0.270458
0.279861
0.123194
0.0516628
4.07739
7.68383
0.0299053
0.036597
10.4599
0.0250898
0.025436
0.126765
0.0657097
0.0249585
0.0256093
0.0253029
0.0253001
0.0361292
0.0254272
3.75466
0.0471446
0.025218
3.43783
3.94429
0.0254389
0.145117
7.94843
0.0259748
0.0254599
0.0493937
5.45636
6.94878
0.0715114
0.0253982
6.13613
0.025427
0.078062
6.28255
2.91648
0.026437
9.98471
2.33704
4.35747
0.179508
0.0514492
4.46743
3.92829
4.10705
0.0254247
5.49003
22.2005
0.926599
0.815549
0.0269236
0.0712323
0.033559
6.22945
0.056775
0.0251325
0.0246475
0.0309184
4.27657
3.28065
0.0250819
4.24201
0.0338698
0.0354102
0.0266607
6.512
0.267675
0.147755
0.0274529
0.0281179
3.43985
0.0254567
0.294488
0.0297847
0.049322
0.0344007
0.0253219
0.0252148
0.182557
0.234201
0.15193
4.42216
3.49117
0.026793
4.31522
0.237948
0.0248807
3.11353
0.0982135
6.14407
0.0303187
0.0747052
0.243195
7.91999
0.174351
5.36583
0.0258047
0.312485
15.2254
0.0336239
4.94905
0.0363708
4.60427
0.0361444
0.0425906
0.153236
0.316061
0.0253298
0.0294748
0.0707908
0.0354383
0.0251542
0.0504662
5.32351
0.02528
0.0489244
5.73997
0.0272078
5.14984
0.0468716
7.36365
0.0292045
0.0664696
2.36304
0.287917
0.0521472
5.61498
7.08226
1.21968
0.0252525
0.178034
0.0366538
0.0736874
0.0250284
20.3567
5.50244
7.68158
0.0280549
0.15597
0.248974
6.32707
0.0247457
7.12886
0.358187
23.5517
0.038258
5.61565
0.0253128
0.0254691
6.68512
0.261632
0.0253394
0.027339
0.0498866
0.0250519
5.53597
0.0713931
0.0964961
0.028671
0.0258181
0.0254396
6.81904
0.0252185
0.0254214
4.02004
5.35173
0.0289277
0.261428
0.0254356
0.0254256
0.0275553
0.154283
0.0463555
0.0251628
0.0260106
0.254406
0.0264215
7.9896
0.0254001
0.0302706
3.85436
0.0403469
0.0247329
0.0254606
0.0286135
0.0253819
1.20855
4.09064
0.0367153
7.72593
0.0275893
0.0253734
4.13584
0.257698
0.0399149
0.025289
3.89168
0.0390476
7.50699
0.025326
0.0353576
0.180392
0.0372799
4.01754
0.262544
7.37764
0.0270423
0.185496
0.0252405
3.46009
0.0468222
0.135561
0.0364072
0.0272233
0.0404037
0.06589
0.0254267
6.69617
4.04031
8.3711
5.92411
4.09917
4.82505
0.291337
0.031761
0.0255762
8.79764
0.025349
0.0251557
0.0341282
4.47564
0.027064
0.0258548
0.103602
0.0528264
0.0253482
7.53955
0.02518
4.36984
1.10455
0.025222
0.0264632
0.370428
3.35477
0.0249677
10.242
14.388
0.024823
4.42822
0.358583
0.143755
0.0270148
4.01312
6.11229
0.0248382
0.36436
0.0253373
0.0251799
3.68509
4.67197
0.042688
0.0455767
0.0253494
0.0599871
4.36948
4.41221
0.0249426
6.16273
0.0251615
0.0253502
0.0526687
0.0302253
0.0247376
0.0269695
4.48863
0.293405
4.34391
0.0267472
0.0253188
4.21562
0.0255383
0.17885
0.0302938
0.0353933
0.0363472
4.06771
6.23282
0.0291053
7.1934
0.0262478
0.0717255
3.6705
4.34866
0.0253395
0.0252454
0.0530026
4.36459
0.252947
0.0588901
13.1519
0.0303507
0.0351881
9.29391
7.60457
0.187924
4.26414
0.191398
3.59253
0.0256254
0.477285
4.47472
0.0254023
18.5316
6.48244
0.0343636
0.0497642
0.025306
6.82506
0.0895888
16.3175
0.0252199
0.0255221
0.0299471
0.0521354
0.0254134
4.35601
0.0255144
0.184118
0.0271098
0.0752372
0.0253175
0.0253465
0.0530818
6.54393
0.0522184
4.23363
0.0353559
0.0250627
0.0249385
0.0660547
0.0260094
0.112451
0.0274975
0.0392489
0.373857
0.0255408
5.59424
0.0256382
0.0997301
6.20384
3.95122
0.0319747
16.6589
0.100468
0.315976
6.34003
0.025006
7.40226
0.0338488
0.0346842
5.66721
2.73512
0.0248923
0.109441
0.0252375
3.48993
7.00362
0.025419
0.0812421
5.70398
0.0256512
0.0256362
0.0711825
6.88718
3.87427
0.0254665
0.154084
0.0262313
0.0253416
0.413631
0.156112
0.197601
0.0247291
0.118985
0.0528326
0.0620052
0.0258849
0.0264094
0.0843309
0.0297565
0.12911
0.0541857
0.0543652
0.154228
3.30479
0.363945
4.84373
10.0399
0.14618
4.12273
0.0453289
3.7678
0.147259
0.0250934
0.0345386
0.30659
0.0302201
0.0252325
0.0252288
0.0999939
6.02073
0.0304482
4.28446
0.0250674
3.97417
0.175631
8.51417
0.109208
0.029349
0.0271609
7.03855
0.196062
0.0434395
0.245132
0.0256793
6.84488
0.100631
0.187202
0.0360177
0.588292
0.0253089
0.0256271
0.0266213
0.0253372
3.66241
0.0253002
0.373208
4.10302
0.112318
4.46507
6.57897
0.193179
0.340532
0.0322043
0.0255398
0.0253369
0.0248631
0.0249397
0.0254896
0.0721307
0.18159
0.0569623
3.66724
0.0263058
3.70183
0.0256913
4.76691
0.0461877
0.0256781
0.0254763
3.95297
0.0294262
4.14782
6.47085
0.0475011
0.0725571
0.0248015
4.57555
0.0276132
0.027102
0.459589
0.0255445
0.025859
0.0250119
0.0469496
5.70068
0.0326767
0.0362967
0.394705
4.29462
0.0328721
0.0301236
3.66461
0.0248615
3.60311
0.0255699
0.0264281
6.63447
0.0847776
0.135686
0.105285
0.0525256
0.025603
0.0256915
0.0774871
0.0256691
0.0256129
0.0309254
0.377292
0.0252787
0.291751
3.7916
3.90435
0.103793
5.22567
0.0413712
0.025534
0.171417
0.0250852
0.0295097
4.80032
3.48034
7.43573
3.78707
0.0254828
0.0253918
0.0798422
0.0262516
0.0250532
23.4736
0.202665
4.75367
0.101039
0.0865134
0.0253334
0.0249824
6.33036
0.0971577
0.0267176
0.0256373
0.135367
0.215295
4.3664
0.0254991
0.0255026
6.94363
0.0258622
0.0363748
0.0250587
4.53854
0.025167
5.60512
0.0253951
0.166217
0.0422618
0.0804048
0.0362249
0.0252862
0.0273677
0.0253298
0.320981
0.0258722
3.85153
0.0257395
4.59024
4.17605
0.0344303
0.0253057
5.07818
4.16781
0.0295912
0.0843146
0.0253376
6.49981
0.0251086
0.308051
0.0253843
0.0253256
3.99494
0.0365278
0.0254471
0.0340056
4.29905
5.42408
5.71842
0.0250488
3.94191
0.025398
0.0252885
0.0255073
0.0246137
0.025611
5.90172
4.93296
0.0253534
0.0255091
0.0429266
0.0251256
4.85531
0.176039
4.65027
4.54258
0.027334
0.12911
0.0253926
0.0449125
0.138342
0.024985
0.025581
1.73726
6.89757
0.0710312
16.8706
0.0653333
0.0254322
0.0452176
0.0856663
7.67997
0.0349001
2.55553
0.0996574
0.0255983
14.2781
12.9374
4.39925
5.74397
3.62042
0.0269883
0.16092
0.0254232
1.26717
0.0296766
0.0251343
5.75057
0.0262025
0.025307
0.0253366
0.0260602
4.40041
0.296956
0.0251173
0.0461155
5.32537
0.0263254
16.3583
0.0264473
0.0818555
4.5914
0.0254309
0.240545
0.0329961
0.0358931
6.0775
0.0261846
0.418258
0.0656045
4.50823
0.0252854
4.45105
0.0333583
4.15594
7.98334
5.74224
0.0473846
0.0253027
0.0254902
0.025651
0.0407775
0.0254636
4.09442
0.0322976
0.0315084
0.0325694
0.0269235
0.0250476
0.0293202
0.0307245
0.0264674
0.0303762
5.95257
0.292365
0.0325291
0.0574645
5.82163
0.0259035
4.30944
0.0248798
0.0372481
0.0258811
0.0251558
0.0511157
0.0253661
0.0251107
0.0507683
0.025335
0.352879
0.0258577
19.4071
1.51274
0.225495
0.310537
0.0252183
4.3365
0.166949
0.0256015
0.0306253
0.0257715
4.43684
0.0264261
0.0503403
3.41634
6.47997
0.0947972
0.0253089
4.01412
2.2487
3.70943
0.0329126
0.0250504
0.0249225
0.0716927
0.0253067
7.39494
0.183401
0.0255635
0.238959
0.364196
0.025001
6.11313
6.22367
0.196928
0.0258404
4.00085
0.071728
0.0253279
6.24542
0.0299791
0.0250007
0.025201
0.0340975
0.0411488
3.87224
4.95908
0.0427432
3.95711
0.0358297
0.0253025
0.0959295
0.0252378
3.45066
0.0249635
0.0253623
0.027226
0.0256321
4.13839
5.58914
0.267726
6.43577
7.19901
0.0328422
0.0252804
0.0258636
0.431241
0.0249414
0.0250645
0.0486882
7.36437
0.21794
0.0247851
0.0441257
0.0364625
0.146361
16.3617
0.0248142
0.0247217
0.0263815
7.16288
0.0308813
4.36418
0.0263974
0.0255177
0.0250009
0.02519
0.0276816
0.192599
3.6427
3.85834
0.0325636
0.0253737
4.97083
0.0253814
6.04691
4.84006
0.0344273
5.40731
3.60367
4.74567
0.0556712
0.0346519
3.76641
0.0334904
0.0380034
0.0817031
0.323267
0.0256425
5.33423
0.0253029
4.67104
7.44508
0.0248852
0.0271205
0.0521284
0.421012
0.0362608
0.0254908
0.0305112
0.0264351
0.0284011
1.304
0.0255167
4.20275
5.73806
0.0253033
0.0336405
0.0409149
0.0254103
3.42749
15.1246
4.39161
3.44313
0.0253508
0.0278107
0.0297333
0.0255133
0.262466
0.0365708
0.0256423
0.0640503
0.0291213
4.77673
0.042342
6.57636
0.0263346
0.0263597
0.0579867
0.0984975
0.0776911
0.0252556
16.8772
4.05767
26.0789
4.49074
4.73223
3.86668
4.27743
0.0252633
0.0253216
0.0251311
0.253514
0.045857
0.0775297
7.17588
0.0252358
0.0248462
0.0253454
0.231394
0.0248277
0.0293546
0.0268849
4.08053
0.0261606
0.0250964
0.0254146
0.0252222
0.0255177
0.0387278
0.260511
0.0381375
5.51737
0.025337
0.0251896
4.26334
4.36152
6.70763
3.89523
0.0544173
3.90315
0.0250451
0.0695967
0.0263648
0.0254033
0.0269573
5.05289
0.0260182
0.0998097
6.63499
0.0253164
0.0251455
0.0297836
0.19764
0.0256626
4.06743
0.025115
0.239262
0.0254667
0.0253545
0.0296586
0.110782
0.025377
0.352752
4.30755
0.198965
4.64246
0.0253158
6.42241
0.386843
0.0253617
7.71544
0.0255079
0.0481599
0.0254531
0.0251496
0.0252474
0.0253404
0.0256139
0.0307001
0.0696588
0.0253636
0.0254268
0.0695703
0.02486
8.263
0.0254673
0.0348871
0.0355464
5.0095
2.47461
0.025496
0.199487
0.0250524
0.0325172
0.0795746
3.74871
0.049631
0.0256631
0.114441
0.0869392
0.0861809
0.456811
0.0402308
0.160864
0.0589645
0.0700335
0.0261262
0.0250255
3.90049
5.47225
0.0277058
0.0253225
15.6605
0.0250707
0.0446691
0.0252426
0.0936191
8.39913
0.0246529
6.20822
0.0290642
0.0255278
0.163711
0.0251364
0.0460636
3.36889
0.0428875
3.95118
0.0252404
0.0256531
0.0495198
0.0256012
0.025629
0.0303497
0.03245
0.0704087
0.097821
0.0253408
0.0440771
0.0250189
0.0253833
0.0255868
0.0253659
1.95803
0.0250043
0.026486
0.262087
0.0250646
0.0253072
4.29484
0.0256333
18.823
0.0261598
4.40113
0.255721
0.0588146
4.85932
0.0734646
2.14362
0.0254865
0.220125
0.0301589
0.0250107
0.0251357
0.0264648
0.0337113
0.0252157
0.0612267
0.0251694
0.026334
16.9339
7.77671
4.54992
0.0269093
0.0524749
5.02238
5.71909
0.0255304
0.0290626
2.14073
0.0252896
0.0445264
4.7425
3.87023
0.0296921
0.0444349
0.025966
0.387923
0.0256802
0.0404239
5.37791
0.0254058
0.0250645
8.40422
0.0481805
0.271588
4.74268
0.100746
0.0256444
0.0251752
0.0253885
4.75632
3.16446
5.42251
0.063287
0.0253334
4.57066
0.0254447
0.185619
0.0300586
0.0261842
0.0453049
0.0253764
6.32655
7.2064
0.0247599
0.0714682
0.046996
4.71294
0.0488467
0.0582994
0.267697
0.0356222
0.265573
0.0613044
0.0254482
0.0372058
0.0928216
4.09885
0.0253453
1.75951
0.0517596
0.061469
0.0256636
7.09174
0.0288388
0.0268199
0.025067
0.0439196
0.0424355
0.0636314
0.0254679
0.0258721
0.0646314
25.283
0.0682602
0.0255098
0.0258563
0.0370566
0.252262
0.0255289
0.101442
9.89067
0.0542222
4.1076
0.0406264
7.87487
0.407556
0.0252627
3.19051
0.0256183
0.0281455
0.0345974
0.0368359
0.110753
0.0472481
0.0486908
0.0509778
0.0341443
0.027321
0.0248198
0.0957589
0.0282026
0.0323715
1.82792
0.0293029
0.0339167
0.0252231
4.88699
0.0935111
0.0253409
0.0275045
0.0264922
5.60542
0.178029
0.034575
3.79325
0.354708
1.24484
0.100952
0.233496
0.0251496
0.355064
0.025049
0.0302895
10.5551
3.41019
0.408694
2.18354
0.0254611
6.6583
0.0251454
0.0835691
0.0283992
3.75615
5.83172
0.0283862
0.0253321
0.375734
0.0490501
0.0253226
4.30615
0.0253871
0.0268998
0.0281879
0.0254481
0.0338728
0.026561
0.0253284
0.0387685
0.556494
0.0421894
0.0683401
0.0253163
6.50424
3.46697
0.0253068
0.26031
0.0283409
0.0328962
5.2279
0.0253019
0.0259095
0.0314081
4.29771
0.0253379
0.0255441
0.0429734
3.65355
0.0252842
0.0361419
0.0384866
1.55334
0.0510934
0.0427496
0.23463
0.025395
0.135844
0.0249103
6.54204
0.033224
0.0253544
0.0293799
0.107774
0.0255013
0.0252645
0.151299
3.91115
0.0253684
5.91899
0.0255505
0.0248943
0.0698033
0.0253448
0.0250006
6.6381
0.0256649
0.0426564
0.16019
4.51935
1.24597
0.0249209
0.0272097
0.0316234
0.0254002
0.0253055
0.0254271
3.38603
0.0255604
0.223262
0.121489
0.0250512
0.0248715
0.0330516
0.121593
0.261668
0.0629836
0.0691344
0.0270064
3.74515
0.089064
0.0323816
0.0420047
0.074985
0.101423
17.6229
0.0393236
3.73352
4.54637
5.36368
0.0274509
0.0251921
0.0415134
0.0385134
0.024965
0.0253698
0.154401
0.0256246
0.0254731
0.0253674
0.0247296
0.0263577
0.0251749
6.53313
0.0253283
9.20579
0.0254101
0.100598
0.0256709
0.124231
0.0903801
0.0253074
4.91632
0.0271917
0.0256008
0.0413613
0.0250065
0.0346494
0.025115
3.75264
0.027333
0.0449989
0.118938
4.88135
0.0317702
0.266382
1.658
0.0580249
0.0252158
0.0259704
0.127253
0.0701248
7.28013
0.0249608
4.90549
0.0253151
0.101616
8.36534
0.0396918
3.63333
0.0284134
0.0349728
0.0280306
6.99977
0.0343517
0.0254902
0.0555622
0.154306
0.0264735
0.025344
0.0254916
4.56772
0.0256364
0.0309135
4.43785
0.0292756
0.0252545
0.0644579
0.0281205
4.75022
0.024845
0.0252984
0.0251173
0.0293756
0.0254747
0.0252378
0.0654046
4.15795
0.0252382
0.025435
5.29789
0.0252507
5.80606
0.0264072
6.67304
0.025075
0.0275328
0.025049
3.87109
4.66507
0.0340772
0.0812803
0.0303843
0.02519
0.0254547
3.8125
0.0254834
0.0829146
0.0249439
0.0429413
0.0255532
5.51357
0.0250818
0.0456659
0.025092
0.587868
1.13011
0.0249889
0.0503672
6.82671
0.0694333
4.03686
3.56992
0.278197
0.0266121
0.0366561
0.10253
3.9366
0.0251806
0.0392081
0.0316848
0.0252068
4.03584
5.89828
0.0710131
0.16472
0.383767
0.0371056
4.22991
0.0249555
0.0249857
0.110033
7.61795
0.246246
0.178514
1.93131
0.0250454
7.17352
3.82173
9.10199
0.0255706
5.44986
4.97376
1.22786
4.17435
3.74929
0.0860238
0.0335042
0.18721
0.0288683
0.025218
2.2414
0.0959894
0.0247987
4.78834
0.0255514
0.0329007
0.0443103
0.0300999
2.30907
0.0392399
6.0643
0.044897
0.0294407
4.34368
4.77057
0.14847
0.0256049
0.0290593
0.0783386
0.066685
0.025075
0.0521778
0.0710879
0.160201
0.0252296
0.210422
0.0275216
0.0559616
4.16483
0.254105
0.0262909
0.152006
4.5863
0.0254064
0.0259748
8.32486
0.385452
0.0274329
0.0276269
0.0254218
0.0852137
0.0280019
3.61387
0.110647
0.0257372
0.025598
0.0743954
0.0330093
0.516001
6.50202
0.0251143
0.0253418
0.0309222
0.0255595
0.0271786
0.0260806
0.0258388
0.0290674
0.0251988
0.0280421
0.0254321
0.0477598
3.41542
0.0256523
5.5619
10.9471
0.0249088
0.285573
0.151439
0.0982953
0.0259422
0.0952623
0.0298344
0.0912894
0.0323234
0.0263489
0.0255796
7.16025
0.0300808
3.95643
0.0259264
0.0253311
0.0253281
0.0807576
0.0252329
0.052337
0.0617529
1.82613
0.0251852
0.286912
7.05754
3.99745
0.0250362
0.157152
1.11397
7.18348
3.2366
0.0257729
0.0254755
0.184168
1.7091
3.61591
0.0425543
0.258986
0.0256091
0.0250198
0.045409
0.0255612
0.025392
0.183364
0.0256538
0.103318
0.0250606
4.80011
5.38318
4.753
4.15178
4.12679
0.0253821
0.0254935
6.62848
0.0249736
0.0250004
0.0248927
0.139435
4.72268
6.63444
0.0310655
0.0251578
0.0262869
0.0422154
5.16867
0.0253506
3.64156
4.91183
0.0255519
0.0255369
4.04107
0.0789051
0.0261231
0.0253492
5.75859
4.30969
0.0251386
0.204837
0.0256382
3.92779
3.4531
0.0262453
6.87921
6.65596
5.52698
0.0250473
0.025181
0.0256265
0.0256817
4.45796
0.0251614
0.273073
0.235786
8.75238
0.0257535
0.0653894
0.329445
0.0528814
6.57531
4.32105
0.0248081
0.0283536
0.0285323
0.139352
4.17389
0.024716
5.45985
0.0361509
0.043942
0.0259519
0.0252315
0.325218
0.04376
4.86032
0.025561
0.0616008
0.0256803
0.125922
0.0270832
4.07727
3.95685
0.308697
0.0944808
0.0252243
0.027082
0.0890059
0.260473
4.13181
6.68552
0.0255
3.80174
0.105152
4.92096
0.0289327
0.0476458
0.0425755
0.0252501
5.60331
0.0253924
0.0350403
3.52833
4.67878
1.7897
4.58472
0.0316196
0.0512697
0.0249201
4.82263
0.0305463
6.83106
0.0249035
4.86493
0.0246634
0.0252993
0.0346364
0.0353688
0.0366728
0.0252217
3.72962
0.0444107
0.0251651
0.0415393
3.93921
0.690635
0.0253146
4.55108
0.027522
0.0358863
0.0339753
0.024888
0.0697265
0.025289
10.1234
0.0931031
0.0291486
0.0253273
0.412786
0.0424214
0.0249004
5.1086
3.59144
0.26108
0.0247448
1.23374
0.0254881
0.164849
0.0299775
0.136796
5.35102
3.88817
0.0390827
4.59191
0.0560781
0.03189
0.0250568
5.22436
0.131355
0.113194
0.0693553
0.0256248
3.73604
0.0967872
0.428129
0.26032
6.43882
3.68509
6.45952
4.94775
0.0323845
0.0356427
0.0254273
0.025238
0.0247413
0.177723
0.0325328
0.0372118
4.6317
0.0252031
0.0251101
0.042153
0.154509
0.030483
0.0250318
4.4086
0.0272363
0.0471714
0.0254368
5.67062
0.0323809
5.86108
0.0637984
0.0365952
0.0589603
0.0254177
7.86505
0.33732
0.0761511
0.0252843
0.0251818
6.8623
4.41933
3.4426
0.025017
0.0776017
0.692078
0.0251958
0.0253101
0.025301
4.5974
0.115387
0.0384628
0.0294609
0.0286395
4.73924
0.100798
0.266854
0.0287163
0.0350326
0.0247184
0.144362
0.0614616
0.0252978
3.78261
4.3679
4.18918
3.93651
4.68129
8.0513
6.5734
0.026341
0.0249635
5.97771
4.94669
6.8557
0.0253102
0.0423149
0.0253359
0.0252327
3.40731
4.80649
0.0661376
0.0253007
0.279202
0.0982378
0.0522208
4.19037
3.50346
0.259412
0.0251887
4.06228
3.1308
0.401778
0.0340315
0.0448437
0.0254281
0.0251279
0.0419022
0.0490743
0.0276018
0.0415884
0.030474
0.0282301
0.245722
4.09639
0.0355496
0.0432487
4.04745
0.220783
0.025447
0.523834
1.05157
4.77587
0.0444157
0.025294
0.0322361
0.0299917
0.0339641
0.0248849
0.0373367
0.0333595
0.0466177
0.270676
0.0256078
0.0261507
3.76979
3.85506
4.63259
0.355066
0.112349
0.0246461
0.0253427
0.0331764
0.0249148
6.63709
0.025331
0.0256645
0.0249203
3.733
19.2809
0.0256451
0.0643769
0.0314592
0.0399646
0.032924
0.0395966
0.0420475
0.0406696
4.72349
0.0289047
4.62216
0.0427482
4.60884
0.0323702
0.0252156
0.0250515
0.0982225
0.153011
0.0250663
0.0444038
0.0325491
0.0644797
4.08074
6.52659
4.54631
0.0256643
1.6384
0.0333721
0.0405353
0.0253299
0.0756066
0.0269158
3.70973
2.19489
0.0443331
0.0254026
3.83984
0.0307296
4.28105
5.03427
0.245074
0.0274754
0.139252
4.62807
1.26472
3.74872
0.0653272
0.0251491
0.04361
0.0250004
8.85197
0.0278473
0.0347959
0.259077
4.54401
0.0251161
0.0252093
4.23176
0.0452137
7.9706
0.0368777
0.0253511
0.0459163
0.221828
0.0490307
3.81226
0.0396755
0.909507
0.0281465
0.0256264
0.0251902
0.313101
0.0258875
0.146293
0.0253306
0.025216
0.293292
0.0286883
0.0252601
0.0253493
0.0387289
0.631888
0.0435091
0.0420765
0.0297357
0.0658664
0.0252883
0.174842
0.0333435
0.0454672
0.0792701
0.0299848
0.0985665
0.0511058
0.0249847
0.0692705
6.42814
3.3449
0.0252404
2.49557
4.26713
0.0252249
0.0258879
0.925057
4.14693
0.0314009
4.12977
0.407657
0.0251183
0.0858275
0.024741
0.0288029
0.066002
10.7859
0.584749
0.225505
0.295127
3.86928
3.90808
0.0261871
3.71929
0.0253338
3.17203
3.98296
0.025433
0.025412
3.4925
0.0253774
0.0254122
0.282109
4.36218
0.240065
0.0286578
4.10941
0.025438
3.97179
3.86793
0.0255539
0.626757
7.08911
4.44922
3.59946
3.76648
3.70537
0.0251341
0.0264189
0.0659809
0.0670684
0.0254038
0.220971
0.0253461
3.67267
0.27945
0.0557709
0.27704
3.60668
0.2788
0.257394
0.0679228
7.68106
0.540068
0.0279051
0.0248003
3.47004
0.039163
0.0249721
6.82272
0.025245
3.64107
0.0254005
4.64842
0.0280261
0.0252573
20.7546
0.0309689
0.0399897
3.75899
6.60175
2.47823
0.0299796
0.0452463
0.0265421
0.0404242
0.132301
0.0413142
0.025579
1.75901
0.0650274
0.0367402
4.03362
0.0428299
0.0417575
0.22962
0.0791244
0.0454427
0.0252511
0.22028
0.0250491
0.129612
0.346158
4.39964
0.0251284
0.0421168
4.58135
0.0261766
0.0705295
0.0329646
0.0449663
5.99585
0.0640583
0.0266519
15.664
0.0251437
3.82634
0.0254674
0.0260098
0.127197
3.49166
0.0358708
0.442095
0.662836
0.033303
0.0253503
0.186574
0.0487281
4.5527
0.0299148
12.956
0.149599
0.0331267
0.0322795
0.118174
0.0406888
0.0846834
0.0635574
0.0430014
0.0273534
0.0251586
2.51619
0.0252799
0.0317145
0.0247546
0.111095
0.032027
0.0625661
3.89541
0.0262372
0.248041
0.0246468
0.0254071
0.0255519
0.0255755
0.0288873
0.0252187
0.0871438
7.7152
0.0615119
0.0474308
0.0276607
0.0252452
0.251802
0.0252779
4.50765
4.98758
4.79154
0.147881
0.0384751
0.0295339
0.0255371
0.0335135
0.109615
0.046796
4.16319
0.0605297
4.85484
0.149803
0.0255805
0.0250885
3.39436
0.0252026
0.0323332
0.0734634
0.382784
0.0261821
4.35674
0.0255313
0.0289563
0.0253372
0.0258507
0.190879
0.107942
0.0254042
0.0341989
0.0398352
0.0477536
0.0588324
0.575491
0.402435
0.30241
0.134408
0.0284182
0.0260963
0.0578195
3.48115
6.45944
3.86488
0.0338684
5.53979
0.105249
0.0258202
0.0252911
0.0625386
0.0254923
0.0340121
5.50738
0.0252365
0.0249935
0.615778
3.4206
0.0474714
1.58123
0.0253755
5.57698
0.0462335
4.67444
0.0332444
0.0252798
3.98941
0.0672654
0.0253041
0.0823676
0.0256373
0.177686
0.0320657
0.06286
6.96055
0.0378367
5.31475
0.0252014
4.91586
0.0253809
0.0291352
0.0256709
0.0507167
0.0254922
0.0631392
3.7753
1.1257
0.052686
0.0355943
0.0881097
0.0251223
0.0251983
0.0260076
2.29329
0.0280466
4.82624
4.49261
0.157332
0.0255873
0.162932
0.251636
0.157728
0.0282462
4.74045
0.0252347
0.0246565
0.0252227
6.82836
0.025247
0.0252825
3.86619
0.025252
0.179571
0.113781
0.0249231
4.15344
0.030176
4.61426
0.0251348
2.32295
0.025967
0.0810771
9.10189
0.0688384
0.0252134
0.0295332
4.66851
0.0339096
0.16707
0.0336951
0.0295024
0.159794
0.0325517
0.0252491
22.8752
0.0324418
0.030342
0.143759
0.0252379
0.0250949
0.0255525
0.0326613
0.0253779
0.0291048
5.42251
12.6828
0.116031
7.24142
0.0619322
0.0357804
4.63735
4.5467
0.0256688
9.06521
9.13917
3.8898
2.94753
0.0340412
4.63172
3.98034
17.359
3.14641
6.29654
0.0483141
0.094503
0.033135
0.0284574
0.0254795
1.55893
0.0256801
4.8057
0.14156
0.377769
0.0247575
0.075826
0.0518475
0.0267884
0.0256907
0.0254591
0.139856
0.0264271
0.0253234
0.0414042
4.30837
0.0271487
0.174246
0.0250716
0.142994
0.0944275
0.0254065
0.0299232
0.0252232
4.66865
4.39098
0.172123
8.83374
0.0371944
0.0924252
0.0254752
0.0423835
0.0253642
0.0254867
0.0256112
4.86557
0.0249863
0.046069
0.825533
0.0311144
0.0334137
0.0252882
4.82674
0.216319
13.3937
4.49975
0.185306
0.336657
4.30628
0.373917
0.304229
8.42503
0.14234
0.0386485
3.49279
4.93674
0.025353
5.14773
0.16988
5.45266
0.0247815
0.0649056
4.96903
0.0256642
4.67411
0.0286091
6.63257
0.0254236
0.0253683
0.0740636
0.255348
0.0290946
0.0694918
0.0249781
0.0252859
3.65549
5.68158
6.7727
0.0545823
0.0252286
0.0256665
0.0254815
0.0405915
1.22142
4.39933
4.2905
3.4515
0.0352198
0.0252382
0.0252788
5.76332
6.25084
0.325705
0.0297131
0.0279263
0.0943535
4.83631
6.02542
0.0246421
0.0252347
4.97488
0.0261412
0.284847
0.0314138
0.0253093
0.0361925
0.0524307
4.55953
4.56269
0.02557
0.0249913
0.0278625
0.207416
5.04458
0.0256534
0.146301
4.34578
0.0246559
3.32851
4.05309
12.0042
0.0254457
5.46721
4.83817
0.0437283
0.355199
0.0272564
0.350781
0.373294
0.0283515
0.0252097
6.39352
1.67104
0.0250191
0.148293
0.155613
0.0325509
0.288533
4.50585
5.38413
4.94834
0.0304223
0.0267619
0.0260826
4.35793
4.97117
4.71627
5.93937
4.58109
0.0249028
0.0456837
0.0253911
0.0254543
0.0280212
0.025253
0.0253757
0.025243
4.31294
13.0054
6.86157
0.0638599
0.206141
0.0403021
0.0250914
0.025284
4.3907
0.0254853
5.89039
3.80015
0.0255389
0.0250922
3.53917
0.025737
0.604521
0.0288556
0.0249649
0.0248957
4.3785
0.024863
4.32865
4.1989
0.0247167
0.0494887
0.0251238
0.0259662
0.0250095
0.127451
4.15285
0.0252579
4.8644
0.518682
0.0271973
0.0250782
0.0258609
0.0266775
0.0256019
0.588182
5.30723
5.71955
0.0417298
6.58924
0.0256636
0.0286484
0.0252273
0.192291
0.0265815
4.87931
0.0251149
3.97336
0.299154
5.64476
0.160059
0.02511
0.0474639
0.0251432
4.20861
0.0250869
0.0317186
0.0295415
0.028538
0.0253543
0.0256349
0.0365386
4.91118
0.025435
0.0259693
0.0269596
0.0376573
0.179628
0.025551
5.12161
3.76461
0.026924
4.7793
4.59697
3.6912
6.32662
0.0246808
0.0262492
3.95539
4.13032
0.154258
3.93285
4.33232
0.0362968
0.0526116
0.033326
4.29701
0.0253439
0.0252551
5.60621
0.134673
4.83244
0.027671
0.0248696
0.025358
4.97478
0.0744517
0.026742
0.253022
0.0250125
0.0637339
0.0332959
0.0335625
0.0250733
0.0255519
0.0251888
0.0276828
1.44409
5.17181
0.0247286
0.0251161
4.45506
0.025295
0.0716961
0.0292555
0.0287846
0.0398649
0.025681
4.22155
0.0325128
0.0284608
20.0918
0.0897806
0.0264341
0.0347137
0.0253065
0.0256774
6.91686
0.326213
3.46031
0.0254304
0.0255058
0.0671467
0.0305438
0.0253355
0.0407294
4.29961
0.029025
0.0452759
0.0285267
0.125937
0.0254533
0.0248509
4.70041
5.31539
5.20356
0.0252359
0.163151
0.0247286
0.0253234
0.0711365
4.49097
0.0717615
0.0313101
0.167242
0.0258715
0.0324364
0.0581311
0.832477
0.0254661
0.0248143
0.0257756
0.0268758
0.0296961
0.0252368
1.31353
9.86545
0.0252686
0.036001
0.0256399
0.0247927
3.6937
5.95831
5.74102
0.0797691
0.0256117
0.0593962
4.81915
0.109238
0.101756
0.0381202
0.0334375
5.0647
0.232657
0.823564
0.0249827
0.0342552
0.0253753
0.0335687
6.90305
0.0247999
0.0454053
0.0286356
0.0334288
0.0262517
0.0249671
0.0251369
4.12781
0.0489185
0.0333627
0.0714278
0.0390887
6.39011
0.0350174
0.542446
0.0251821
4.76151
4.83715
6.85505
0.0256528
0.0347473
0.0254136
0.0252065
5.66146
0.0493151
4.73866
0.0252817
0.0507169
0.14007
4.47364
0.0315012
0.0247904
6.74323
0.0256802
0.0256789
0.0257855
0.0253436
6.07022
0.025039
0.0251178
0.040659
0.03063
0.160765
0.145514
0.0372583
4.34529
0.0250796
0.191086
0.0249438
4.62677
0.0378043
0.517835
0.156529
2.80967
0.113567
4.59252
0.0261771
6.34257
0.0364696
4.87221
0.214844
0.0314156
0.240037
0.0253872
7.09984
0.0262112
0.0417968
0.0304873
7.04042
0.150398
4.28157
0.0347634
0.0252927
4.8407
0.257535
0.0585837
0.160069
8.29591
4.816
0.043782
0.296905
0.0454339
0.0251199
0.053983
0.28037
0.0776915
25.8835
0.133515
0.0249908
0.0251147
0.152606
0.0254157
5.5151
0.079455
0.0254099
3.74058
2.10859
3.55834
0.12071
0.0251746
0.0325648
0.0289926
4.34527
3.65251
0.0289379
5.1535
0.0250799
0.0355023
1.09359
0.0252918
0.0441504
0.0252016
0.0293731
0.0256352
0.183936
0.850629
0.0338482
0.0328994
0.0248984
0.154202
0.0251027
0.025057
0.0371652
0.025192
0.23366
4.76912
3.63404
4.25931
0.0249982
4.92269
0.0255524
0.0417561
0.14407
0.0251891
7.74919
0.0779978
0.0252797
0.0247783
0.0454871
0.0421846
0.200472
0.249532
0.0290297
0.0270963
3.96306
0.0659466
0.301432
0.920474
13.4024
4.06207
4.75999
1.32974
0.0254081
0.0254534
0.052396
0.0254417
0.056675
0.0396056
6.30184
5.01151
6.55906
0.024839
0.0249687
0.132112
0.274662
4.36127
1.4055
3.6335
0.06298
0.0368158
1.26768
0.284285
0.0292673
4.71048
0.037284
0.0334575
4.37919
0.0439333
0.0250935
4.73856
0.985983
0.0275326
0.152593
0.0264486
3.96292
5.73885
5.75142
0.0253016
0.0248727
0.143974
0.0253076
0.0251058
0.0253158
0.0249283
0.0253257
0.0253367
4.67056
0.0311261
0.0522234
4.21058
0.025162
0.0253505
0.0346665
0.0287159
0.0292682
0.0253627
0.0736963
0.0340599
0.0297007
0.0961294
4.30692
0.0253788
0.045411
0.0253959
0.0253359
0.0247149
0.0254133
4.37128
0.0251042
0.0253039
0.0254314
0.0488904
4.17946
4.25812
4.86662
1.85627
0.0480471
4.27532
6.42289
0.0252365
0.0475493
5.89714
0.237899
0.0254505
0.0309013
0.0460894
0.0422112
0.0253825
0.0431479
0.0651163
0.049859
0.0248024
0.0592503
4.67224
0.0247293
2.13256
4.79762
0.0476324
0.73365
0.0392803
0.0254197
0.0285965
0.0252878
0.256582
4.73566
0.0248403
0.0487169
0.025247
0.0252739
0.0254321
0.0256811
0.0419533
0.02553
0.138847
0.15886
0.0289947
0.0277184
0.0491464
0.025358
0.0498001
0.0354243
0.0255634
0.0254366
0.0254893
4.98324
0.0252876
0.285488
0.0441472
0.0256379
0.0252886
0.024905
4.57445
0.0285354
0.0480964
0.0579508
4.9363
0.0316774
4.0796
2.2957
0.048668
0.0252553
0.246857
0.0421814
4.95764
0.0789395
4.67464
0.0247687
0.0555038
0.0545798
4.34227
0.0252776
0.0474558
5.06285
0.0250884
7.8599
10.2713
3.91149
0.0252486
0.0249516
4.84082
0.0253593
4.41313
0.178165
4.2251
4.41885
0.0251407
0.208144
0.246857