/*--------------------------------*- C++ -*----------------------------------*\
| =========                 |                                                 |
| \\      /  F ield         | OpenFOAM: The Open Source CFD Toolbox           |
|  \\    /   O peration     | Version:  v2012                                 |
|   \\  /    A nd           | Website:  www.openfoam.com                      |
|    \\/     M anipulation  |                                                 |
\*---------------------------------------------------------------------------*/
FoamFile
{
    version     2.0;
    format      ascii;
    class       volScalarField;
    location    "400";
    object      p;
}
// * * * * * * * * * * * * * * * * * * * * * * * * * * * * * * * * * * * * * //

dimensions      [0 2 -2 0 0 0 0];


internalField   nonuniform List<scalar> 
13851
(
-0.129553
-0.0581372
-0.0568831
-0.414639
0.00313278
-0.0685564
-0.0455504
-0.00880073
-0.0959866
0.03073
-0.16061
0.0118368
0.0405439
-0.109353
-0.0899472
-0.0805657
-0.377704
-0.02402
-0.210709
-0.130704
-0.103333
-0.0244773
-0.399308
0.00534345
-0.30962
-0.0770164
-0.0947025
-0.185746
-0.0786033
-0.0123625
-0.394382
-0.0457044
-0.120609
-0.13529
-0.122721
-0.0795874
0.00541537
-0.357123
-0.325272
0.0102395
-0.182652
-0.0796763
-0.397241
-0.195988
-0.0830886
-0.00230396
-0.0150081
-0.0871843
-0.0310741
0.0411168
-0.284148
0.0486586
-0.0810106
-0.0624206
-0.0912198
0.0113794
-0.122175
-0.187583
-0.0863721
-0.151739
0.0118778
-0.0958969
0.026967
-0.0313833
0.0401538
0.0461587
-0.15293
0.274766
-0.00527529
-0.410061
-0.385723
-0.113762
0.0252709
-0.149018
-0.0697827
-0.00470365
-0.379695
-0.0149517
-0.310539
0.00900187
-0.00649425
-0.287804
-0.119022
-0.113186
-0.147772
-0.39047
-0.0278312
-0.0773274
0.02924
-0.393152
0.0497031
-0.0469611
-0.310416
-0.392139
-0.298792
-0.15948
0.00427169
-0.0840542
-0.2318
-0.236873
-0.0846832
0.187602
0.182885
0.029987
-0.00641301
-0.11976
-0.00575752
-0.386854
-0.0470002
-0.0232597
-0.0148748
-0.00307166
-0.221019
-0.15734
-0.108205
-0.0617951
-0.00764684
-0.00913826
-0.414994
-0.410242
-0.161212
-0.0186405
0.000334555
-0.14217
-0.178742
0.315134
0.00357763
-0.129777
-0.14804
-0.101678
-0.0209077
-0.0864719
-0.353119
-0.130601
-0.165589
-0.303985
0.266703
-0.389398
0.159537
-0.097334
-0.283123
0.0450765
0.0299526
0.197065
-0.286631
0.0097604
-0.0148897
-0.393199
-0.0849346
-0.13496
-0.0856378
-0.218863
-0.161753
-0.196797
0.0489442
0.0385995
0.0102394
-0.329955
-0.0954189
-0.048978
0.00555423
-0.0782568
-0.117202
-0.088119
-0.107729
-0.0893324
-0.0914314
-0.286373
-0.015027
-0.22761
0.0124345
-0.00777666
-0.137482
0.00417567
-0.295284
-0.113035
-0.0916909
-0.00840282
-0.0678623
-0.0910548
-0.17529
-0.19112
-0.0200735
-0.0997603
-0.383832
-0.0854786
-0.11936
0.124772
0.0443261
-0.00902903
-0.282456
-0.0961678
-0.108217
-0.070243
0.00800707
-0.082573
-0.11756
-0.0342648
-0.0283612
0.258687
-0.284874
-0.255286
-0.194904
-0.0883248
-0.181061
-0.254141
0.0833489
-0.0894063
-0.0987131
-0.0626689
-0.0793074
0.00092078
-0.289564
0.0122628
-0.126623
-0.00847082
0.0397831
-0.142449
-0.0329468
0.360971
-0.00857513
-0.135355
-0.113481
-0.298308
0.113713
-0.0892716
0.0118966
0.20225
0.0131452
-0.122959
-0.415339
0.120009
-0.062535
0.0265768
-0.191259
-0.0130421
-0.389749
-0.201666
-0.226978
0.0056778
-0.328454
-0.143442
-0.0824299
-0.079622
-0.0931428
0.214863
-0.141539
-0.0675027
-0.154142
-0.0353454
-0.0811862
-0.1631
-0.00540293
-0.0686458
-0.0834126
-0.0757659
-0.0748095
-0.00877501
0.329275
0.0279586
-0.121234
-0.184632
-0.0704003
-0.117056
-0.166718
0.0179317
0.190272
-0.0889632
-0.169054
0.021474
0.0400585
0.118756
-0.104068
-0.413109
-0.106778
-0.0194401
-0.172977
-0.190785
-0.110723
-0.115219
-0.107318
-0.204514
-0.0737185
-0.084702
-0.362205
-0.00879218
0.00945623
-0.112601
-0.144785
-0.0141559
0.0114685
0.013686
0.000848089
-0.0897694
0.00973661
-0.0973735
-0.105252
0.00379811
-0.0821616
-0.139319
0.0469872
-0.13407
-0.258608
0.0462965
0.0482321
-0.1074
-0.119773
-0.371888
-0.138241
0.00296253
-0.221153
0.012391
-0.144952
-0.261202
-0.161396
-0.0477594
-0.347734
-0.334094
-0.383066
-0.221601
0.213798
-0.305172
-0.145125
-0.188085
-0.0295604
-0.392302
-0.0760258
0.316414
0.29705
0.0843304
-0.141771
0.0665363
-0.0769522
0.203801
-0.00296475
-0.0149763
-0.0563335
-0.386544
0.35425
-0.00901253
-0.294003
0.077191
-0.0873416
-0.0491101
-0.117537
-0.169973
-0.0819006
-0.00610343
-0.0598245
-0.077385
0.0443071
-0.19556
-0.0722231
-0.10893
0.081983
0.0287995
0.00291804
-0.236455
-0.24564
-0.159019
-0.342911
-0.0766417
0.0086122
-0.199108
-0.125732
-0.0194339
-0.158906
-0.128581
-0.234904
-0.0543576
-0.0729659
-0.0869291
-0.344642
-0.233813
-0.0774834
-0.0320231
-0.114477
-0.398796
-0.0884881
-0.0821951
-0.0960132
-0.210612
-0.0837293
-0.0647085
-0.170815
-0.27037
0.0383956
-0.0712062
-0.149927
-0.069427
0.000549691
-0.106557
-0.127365
0.0243934
-0.0909005
-0.413642
-0.0528497
-0.333827
-0.0755016
-0.369884
-0.0656447
-0.0763824
-0.137905
-0.183634
-0.120865
-0.0748947
-0.143972
-0.316452
0.0188489
-0.232018
-0.0972469
-0.0737362
-0.0169096
-0.392701
-0.150371
-0.32787
-0.0594689
-0.171018
-0.100842
-0.412921
-0.0178607
-0.391797
-0.282281
-0.402939
-0.0400905
-0.235574
0.0335043
0.00396674
-0.0899296
-0.103526
0.0314921
-0.0582612
-0.0924736
-0.00566589
-0.151401
-0.141785
-0.128907
-0.0630333
-0.0328217
0.0503641
-0.33946
0.00511561
0.0494625
-0.079368
-0.13056
-0.017444
-0.088183
0.0268876
0.0089833
-0.0552273
-0.162013
-0.0719039
0.00109495
-0.0424533
-0.157384
-0.0505561
-0.375093
0.0108636
-0.0624194
-0.079596
0.0693182
-0.0142477
0.0139411
-0.0625148
-0.036816
-0.296864
-0.0807621
-0.0944504
-0.0958143
-0.0569947
0.0155426
-0.127507
-0.0876401
0.129429
0.0228084
-0.143488
0.151033
-0.320638
0.0306843
-0.0893028
-0.239014
-0.0760382
-0.14554
-0.0994656
-0.328314
0.0418083
-0.223347
0.0165284
-0.0792661
-0.075965
-0.115904
-0.0956381
-0.00640456
0.0633164
-0.137991
0.00340016
-0.409147
-0.129763
-0.376075
-0.409513
-0.0795786
-0.351105
-0.189604
0.103225
0.019409
-0.346373
0.0308507
0.000741133
0.107086
-0.287253
-0.0560611
0.0498836
-0.095333
-0.129686
0.0336043
-0.318334
0.00567173
-0.140348
-0.289491
0.00855275
-0.0509701
-0.284043
-0.165064
-0.0134863
-0.368204
-0.379824
-0.0232397
-0.361421
-0.205508
-0.139658
0.0435325
-0.081426
-0.180899
-0.0236389
-0.245399
-0.00257123
0.00524115
-0.0813416
-0.211706
-0.110986
-0.0707147
0.0317502
-0.0809824
-0.145552
-0.31853
-0.0261354
-0.3726
0.00128696
-0.00378244
-0.122138
-0.0586846
-0.0180651
-0.00159199
-0.357781
-0.26411
-0.35952
-0.0540375
0.0275445
-0.101496
0.0193061
-0.233358
-0.0663447
-0.0717228
-0.0944049
-0.081017
-0.20739
-0.0690596
-0.398116
-0.0468168
-0.149794
-0.0802693
-0.0923345
0.00449843
0.0174146
0.174743
-0.354187
-0.0829383
-0.0798763
-0.367691
-0.0585678
-0.0817414
-0.413257
-0.32061
-0.125358
-0.137759
-0.105711
-0.0784744
-0.0279033
-0.0856156
-0.229537
0.0162801
-0.311931
-0.280476
-0.020313
-0.0993263
0.0151661
0.0779301
-0.151255
-0.397667
0.00596358
0.0045353
0.106878
-0.128323
0.0104249
-0.290516
0.00444078
-0.106721
0.0489544
-0.0747025
0.0290809
0.0343099
-0.0899149
-0.370505
-0.122864
-0.302477
-0.0899107
-0.00548789
-0.021575
-0.140715
-0.0413207
-0.191005
-0.060225
0.130478
-0.0849687
0.0200978
-0.0739644
0.011854
-0.0760556
-0.397632
-0.0870928
0.133499
-0.389689
-0.0834513
-0.254909
-0.279541
-0.0279518
-0.327124
0.0715915
-0.0912637
-0.40858
-0.275111
-0.0196235
-0.188556
-0.0337221
-0.0781411
-0.307389
-0.00897456
0.270098
-0.167521
0.0161381
0.0161114
-0.0764598
-0.0734463
-0.0832826
0.0481139
-0.176081
-0.0488566
0.0353553
-0.0833173
-0.175688
-0.236218
-0.016972
-0.0900125
0.0899047
-0.0745219
0.0642515
0.00950535
-0.143102
0.10336
-0.0882099
-0.111186
-0.114498
-0.110527
-0.271601
-0.21204
-0.105994
-0.363794
-0.0861288
-0.11139
-0.017158
-0.0828273
-0.138407
-0.0206298
-0.0806225
-0.207739
-0.0434954
0.00864126
0.00752736
-0.0777046
-0.0767798
-0.0638308
-0.205919
-0.00506849
-0.0845264
-0.0465065
-0.263893
-0.188421
-0.0679479
-0.0574657
-0.265874
-0.237228
-0.0166425
-0.102182
-0.0317692
-0.357673
-0.0771259
-0.108906
-0.0949996
-0.303465
0.0326556
0.0122859
0.0800687
0.0359019
-0.0804758
0.00119775
-0.0835395
-0.1008
-0.192498
-0.313126
-0.230072
-0.110069
-0.26499
0.130963
0.0242785
0.0387911
-0.0138657
-0.0209675
0.00426327
-0.14741
-0.212409
0.0909044
-0.184448
-0.00727073
-0.0983937
0.0214024
-0.414034
-0.111007
0.0215805
0.0257847
-0.087431
-0.0693916
-0.0924312
-0.278548
-0.0960968
-0.12187
-0.0228963
-0.13851
0.032257
-0.0571124
-0.0846673
0.0241132
0.0463455
-0.0253978
-0.0782113
-0.0795469
-0.0803534
-0.0958456
-0.287966
-0.319576
0.128094
0.0282039
-0.0802151
-0.0136276
-0.0791941
0.00580545
-0.0511538
-0.298875
-0.096571
-0.109612
-0.19441
-0.123893
0.022743
0.0208245
-0.153926
-0.0294504
0.0226667
-0.0624322
-0.279339
0.00220063
-0.24331
-0.323718
-0.0876538
-0.19224
-0.400696
0.166995
0.0243523
-0.23323
-0.00435791
-0.0719649
-0.101937
-0.0776527
-0.315504
-0.079966
-0.0132168
-0.00908254
0.00337385
0.0133267
-0.0116608
-0.394112
-0.11962
-0.0844626
-0.0757573
-0.0977591
0.0372287
-0.0119262
-0.360849
-0.131077
-0.0530433
0.023026
-0.106584
-0.23539
-0.208054
0.0490231
0.00736417
-0.0792577
0.0634453
-0.0951053
-0.00548679
-0.282437
-0.00497576
-0.396415
0.0268566
-0.217866
-0.100664
0.0250339
-0.0970415
0.0260558
-0.0579478
0.00308334
-0.0828788
0.0598761
-0.0751486
-0.0338509
-0.12312
-0.120795
-0.0905785
0.00177564
-0.412548
-0.0814639
-0.0714509
-0.0948614
0.0388653
-0.0747077
-0.0213635
-0.210602
0.0179069
0.00279408
-0.0926047
-0.0951494
0.0139232
-0.0635515
-0.171089
-0.0414395
-0.169261
-0.00795422
-0.110213
0.0217555
0.00221768
0.0474289
-0.0150267
0.0176524
-0.194108
-0.106518
-0.0333337
0.00448599
-0.112579
-0.00355623
-0.412456
-0.237992
-0.109832
-0.308571
-0.0576625
-0.0890029
0.0162524
-0.103263
-0.0348632
-0.0274296
0.00599094
-0.322519
-0.305857
-0.119613
-0.379351
-0.101923
0.0265566
-0.11686
-0.0942624
-0.358007
-0.0877275
-0.0893607
-0.133509
0.011169
-0.404861
-0.40308
-0.0793417
-0.281598
-0.079376
0.0391268
0.195362
0.0500873
-0.133395
-0.0421097
-0.00284766
-0.17395
-0.00329423
0.00175264
0.00320401
-0.00194449
-0.284486
-0.201682
-0.00217504
-0.118968
-0.115857
-0.022259
-0.385458
0.0626327
-0.102618
-0.226725
0.0105855
-0.0828219
-0.0540083
-0.0937948
-0.0141073
-0.00607992
-0.277925
-0.0749689
-0.171945
-0.0352181
-0.0760884
-0.0872296
-0.137808
-0.331992
-0.0753667
-0.0933077
0.0297256
-0.0124339
0.0170613
-0.0639375
0.0252174
-0.148144
-0.0158176
0.0900562
0.126466
0.0370914
-0.00774278
-0.0522733
-0.0496474
-0.0509961
-0.0284796
-0.266889
-0.0819801
-0.0841033
-0.110644
-0.177979
0.0490905
-0.3815
-0.013186
-0.0196286
0.0616272
-0.0103001
-0.0742317
0.0160277
-0.00266181
0.206535
0.0396312
-0.274434
-0.0393706
-0.316051
-0.176273
-0.15689
-0.241311
-0.0302265
-0.315401
-0.147307
0.0118911
-0.0471778
0.0483541
-0.380726
0.0661803
0.18098
-0.156903
-0.413711
-0.164427
-0.0243464
-0.0809397
-0.155241
-0.0775604
-0.0505593
-0.0060907
-0.025877
-0.135912
0.0317286
-0.178516
-0.237257
0.0195103
-0.128011
-0.279399
-0.0247254
-0.263909
-0.394328
-0.117184
-0.0346972
-0.0810211
-0.144423
0.00658517
-0.0837903
0.0252369
-0.0223516
0.00883786
-0.0685413
-0.0661141
-0.0992511
-0.393852
-0.0771405
-0.0938108
-0.075229
0.0289866
0.292221
0.00802304
-0.343323
-0.0266485
0.00373367
0.00860739
-0.0300855
-0.111136
-0.0752585
-0.092537
-0.212989
-0.3398
0.106347
0.0227034
-0.0384435
-0.283727
-0.0264248
-0.0123055
-0.115096
-0.301255
-0.0783877
-0.0142488
-0.0826485
-0.0980332
-0.148969
-0.393434
-0.0232339
-0.017909
-0.0478984
-0.328865
-0.0609979
-0.150788
0.0124073
0.00750857
-0.0228722
0.00726244
-0.0114093
-0.11333
-0.0787368
-0.0920964
0.133655
0.0166828
-0.33601
-0.0371718
-0.239502
-0.182322
0.113607
-0.371777
-0.0805414
-0.399765
-0.0773763
-0.0857261
-0.111097
-0.0866467
0.0389456
-0.00748075
-0.254706
-0.0259393
-0.109028
0.029969
-0.0947671
-0.330732
-0.0128316
0.0467835
-0.0797376
-0.289383
-0.0909766
0.00607797
-0.0679035
0.0746776
-0.0603184
-0.0334947
0.0227976
-0.081706
-0.0784768
0.0303715
-0.0836987
-0.0667934
0.0157411
-0.0750897
-0.0760087
-0.310558
-0.0762365
0.0136526
-0.0224413
-0.0533368
0.0456898
-0.0894283
-0.091474
0.0228016
-0.0903259
0.0998877
-0.123014
-0.100854
-0.117292
0.0737947
-0.0182913
0.194302
-0.140907
-0.141602
0.0195431
-0.0764578
-0.152667
-0.393456
-0.351896
-0.0959029
-0.0931655
-0.13431
0.0205883
0.0268037
-0.0295039
-0.0836462
-0.0727654
-0.145259
-0.403614
-0.0343859
-0.0121337
0.0317619
-0.0784444
-0.015333
-0.0688922
0.00560879
-0.0796312
0.0473774
-0.00384236
0.0208308
0.00973858
0.004643
0.0830802
-0.0906455
0.0346403
-0.154508
0.025312
0.00682971
-0.142991
-0.121873
-0.0776088
-0.0848993
0.145221
-0.0810718
-0.00619566
-0.0636033
-0.0166124
0.0262436
-0.0512766
-0.393786
-0.0464323
-0.139922
-0.3528
-0.0353227
-0.00991832
0.0989935
-0.112152
0.0107614
-0.0839374
-0.0291056
-0.0836993
0.0258919
-0.0325159
-0.0727469
0.100047
0.0414966
-0.0956718
-0.390834
-0.0782724
-0.128545
0.0337662
-0.359687
-0.132977
0.0230143
-0.340056
0.0459019
0.198883
0.0457526
-0.0318122
0.00234508
0.0348321
-0.00581092
0.116762
-0.11249
-0.025393
0.027399
0.246157
-0.0207458
-0.357735
0.0261143
-0.0931634
-0.0713655
-0.158541
-0.183728
0.0221386
-0.11563
-0.00566658
-0.0604397
-0.130815
-0.0843275
-0.0947776
0.0100952
-0.0881954
0.191006
-0.103468
-0.183782
0.0508481
-0.208202
-0.0821669
-0.105199
0.0454448
-0.0177301
-0.085703
-0.413806
-0.0417001
0.00699388
-0.389774
-0.00503571
-0.107574
0.00776344
-0.161447
-0.350525
-0.017908
-0.408659
-0.0682154
0.00730105
-0.0899561
-0.00273246
0.196147
-0.0763437
-0.111062
-0.0837615
0.00217996
0.0110902
0.20906
0.0196545
0.0231487
-0.0661294
-0.0846174
-0.116015
-0.171918
0.0297624
-0.0821331
-0.0162082
0.0156194
0.019749
0.0230419
-0.333584
-0.0263981
0.0647346
-0.0891779
-0.00534404
0.00573435
-0.108047
0.0229628
-0.306924
-0.047929
-0.0980942
-0.157993
0.1518
-0.34552
-0.160944
-0.0734476
-0.0343379
-0.237067
-0.0554766
-0.017806
-0.0013017
0.0659897
-0.0875376
0.00925873
-0.124436
-0.000110788
-0.0210357
-0.392633
-0.289476
-0.238042
-0.0507705
0.201782
-0.214433
-0.413285
0.0197919
-0.0672151
-0.179685
-0.0316946
-0.110596
-0.34617
-0.0868801
-0.0656636
-0.0874897
0.00186393
-0.282739
0.0210746
0.0445946
-0.214643
0.0315291
-0.00946822
-0.357114
-0.123053
-0.0932454
-0.130691
-0.0794333
0.044773
0.000365155
-0.0329541
-0.372964
-0.226391
-0.156364
-0.146335
0.0362899
-0.254722
0.0260458
-0.229084
0.116413
-0.0456722
-0.107847
0.0179406
-0.269738
-0.335142
-0.0226631
-0.12753
-0.073971
-0.35157
-0.12466
-0.0777903
-0.0912429
-0.0732241
-0.0812011
-0.0831813
0.0256758
-0.0766352
0.287233
-0.0807347
0.0141224
-0.0886872
-0.128763
-0.0753022
0.011518
-0.350153
-0.0669764
0.0321438
-0.0103738
-0.0953676
-0.0921228
0.0459154
0.00362655
0.00536681
-0.129017
-0.314723
-0.153873
0.0231816
0.0618106
-0.0743866
-0.211274
0.0190657
-0.182243
-0.374262
-0.0868591
-0.0873338
-0.0646473
-0.237609
-0.277265
0.0204746
-0.33477
0.00511398
-0.0198052
-0.0767725
-0.0929181
-0.181505
-0.0805583
-0.0622003
-0.0856471
-0.0882773
0.00860386
-0.0152184
0.101455
-0.0636817
0.0661985
-0.18155
-0.0386188
-0.004751
0.00774919
-0.0776648
-0.174669
0.0304385
-0.059529
0.0787653
-0.123048
-0.231324
-0.076013
-0.0809019
-0.169309
-0.31829
-0.157282
-0.082298
0.000280867
0.350515
-0.0126021
0.115111
-0.363007
-0.0800889
-0.259118
-0.327326
0.0249153
-0.121381
-0.000168664
-0.0912564
0.0180711
-0.0822069
-0.192343
-0.0503347
0.00217564
-0.257809
0.195156
0.0177046
-0.37509
0.0300081
0.0340709
-0.0639571
0.0472256
-0.083635
0.0803883
0.0366748
-0.0617623
-0.298568
-0.0985331
-0.152316
0.0182313
-0.241187
-0.0781705
0.00230494
-0.0949783
0.0211089
0.103881
-0.139531
0.00248944
0.0378397
0.0696707
-0.253869
0.0172435
0.00744198
-0.113086
-0.0793583
0.00183631
0.0350106
-0.0246537
-0.172548
-0.12748
-0.113077
-0.12368
0.0294153
0.216448
-0.011166
-0.15718
-0.0756769
0.0310926
-0.0576132
-0.192878
0.00682745
-0.0313742
-0.152173
-0.0792411
-0.0365285
-0.140077
0.0111904
-0.0119828
-0.137908
0.013027
-0.0265035
-0.280517
0.0174842
-0.104961
-0.0890982
-0.377848
-0.170231
-0.0261687
0.0896532
0.0978333
0.0082947
0.0313738
0.0206597
-0.0808616
0.0155043
-0.0796593
-0.101205
-0.00978184
-0.0210234
-0.0851538
-0.102743
-0.092737
0.0173008
-0.156303
0.000460336
-0.0954222
-0.154213
-0.0585232
-0.0868009
-0.117838
-0.177214
-0.408108
-0.066008
-0.0757934
-0.126123
-0.413149
-0.0589997
-0.00146299
-0.105996
0.164793
-0.0220403
-0.0370498
-0.0936879
0.0114365
-0.015494
0.0170809
-0.0173293
-0.0491434
-0.0274977
-0.384462
0.00213191
-0.350311
0.00878287
-0.097618
-0.0275676
-0.109188
-0.112871
0.0305378
-0.105574
0.0882071
0.0173083
-0.0920239
-0.0163445
0.04365
-0.0248061
-0.0788205
-0.0144791
-0.114128
0.306422
-0.104644
-0.00222866
-0.0792095
-0.185563
-0.108829
-0.029451
-0.0427096
-0.0777618
-0.146709
-0.330933
-0.0146752
-0.41168
0.00546494
0.169993
-0.377813
-0.0893751
-0.0797102
-0.0202123
-0.0923978
0.0111223
-0.33277
-0.0783945
0.00449032
-0.100902
-0.185577
-0.0282187
0.0256538
0.00651951
-0.323485
0.0170832
0.000991103
-0.127484
0.0264793
0.0196166
-0.12321
-0.0227727
-0.1109
-0.0123957
0.0283726
-0.0026026
0.108806
-0.033263
-0.0288114
-0.100198
-0.123853
0.0158153
0.0272652
-0.154722
-0.034395
-0.40992
-0.0417233
-0.354374
-0.010052
0.0299768
-0.0059152
-0.0769181
-0.124291
-0.000221277
0.0125143
0.118612
0.00376844
0.0263421
-0.0789456
0.0044971
-0.0888848
-0.0130878
-0.0667882
0.0199814
-0.156483
-0.00453397
-0.0823979
-0.00711103
-0.236345
-0.30285
-0.0157547
-0.068471
-0.307621
-0.103379
-0.0801252
-0.0810908
-0.256175
0.0777687
-0.0976144
-0.160644
-0.169538
-0.0325194
-0.0666904
0.0955589
-0.00169813
-0.0752808
-0.411968
-0.114892
-0.148968
-0.265627
-0.062277
-0.0976919
-0.0219034
-0.0151779
-0.195146
-0.338222
-0.211788
-0.227228
-0.147805
-0.00628535
-0.345245
-0.0844089
-0.378956
0.00736184
-0.338902
-0.399162
-0.307678
-0.119802
-0.112859
-0.0926023
-0.0831488
-0.217224
0.104613
0.00776311
-0.330133
-0.123222
-0.0155664
-0.153381
0.0158903
0.00652408
-0.100509
0.0869877
-0.263253
0.0770786
-0.413052
-0.0772636
0.111668
-0.131034
-0.247806
-0.154087
0.0586929
0.0994627
-0.152012
-0.0549722
-0.00474219
-0.128903
0.0429373
-0.218415
0.0133434
-0.207277
0.00559994
-0.0981973
-0.0812261
-0.0807612
0.0759624
-0.199292
-0.374776
0.0324042
0.00430948
-0.380042
-0.284597
-0.0401449
-0.0563944
0.0157709
-0.13934
-0.059291
-0.0798107
-0.183888
0.0460217
0.00638931
0.232278
-0.0243702
-0.139935
-0.291722
-0.00364426
0.0174952
-0.0527865
0.0109054
-0.0511962
0.00073817
-0.034372
0.0956478
0.00835459
0.0145239
0.046707
-0.0832452
-0.174975
0.010385
-0.154274
-0.372141
-0.0114422
0.0743499
-0.208705
-0.175046
0.039688
-0.119739
-0.0738546
0.16461
-0.0825327
-0.027301
0.00631529
-0.337994
-0.0538523
-0.0850787
0.0424305
0.0323629
0.0133322
-0.12679
0.014191
-0.115074
-0.0895504
-0.16382
0.0032971
-0.140321
-0.346397
-0.15602
-0.00654296
-0.226501
0.157214
-0.345234
-0.292098
0.0634192
-0.000507191
-0.235674
-0.143037
-0.0894463
-0.102995
-0.0934383
0.00506128
-0.0202105
-0.0483788
0.0146733
0.0475942
-0.235991
0.0127612
0.189931
-0.0113621
-0.214957
-0.142747
-0.123865
-0.0789141
-0.157963
0.0439801
0.0198916
-0.273471
-0.0152879
-0.015699
-0.0122195
-0.189843
-0.143568
-0.334101
0.087547
-0.03274
-0.0185568
-0.0233434
-0.110332
0.00346264
-0.0807711
-0.215891
0.0191695
0.0238503
-0.0916844
-0.0885429
-0.0444589
0.0242086
-0.173868
-0.219288
-0.0263987
-0.123319
0.0127427
-0.145873
-0.244177
-0.0410583
-0.413608
-0.403234
-0.164346
-0.0111012
-0.0326835
0.0175796
0.0227754
-0.124198
0.00189595
-0.231479
-0.0833282
-0.316395
-0.0346166
-0.144811
-0.162583
-0.130888
-0.264854
-0.368894
-0.0127364
-0.0651991
-0.0663283
-0.0777848
-0.0859024
-0.0168346
-0.0780478
-0.0200476
-0.0881846
0.0413213
0.000415279
-0.270002
-0.110207
-0.412792
0.0138452
-0.142183
-0.0322825
-0.114514
-0.0563218
-0.121742
-0.13193
-0.243303
-0.0790026
0.0128077
0.00570953
-0.118698
0.0143795
-0.0989701
-0.288924
0.00637471
-0.0819021
0.140212
-0.303352
-0.0515763
-0.120089
-0.112661
-0.0234967
-0.163766
0.0173561
-0.0902583
-0.0754375
-0.203428
-0.33029
-0.151122
-0.00702359
-0.112734
-0.0184244
-0.225394
-0.000450786
-0.273068
-0.0189727
-0.110866
-0.0179688
0.0121254
-0.0898332
0.0925537
0.0328251
0.00702363
-0.0855032
-0.0780226
0.00254014
-0.0932996
-0.0789107
-0.251597
0.033133
-0.369822
-0.0197388
-0.0761303
-0.0688887
-0.0108684
-0.155894
0.0125169
-0.366913
-0.0934731
-0.0560911
0.0264426
-0.288295
-0.109938
-0.0195273
-0.135416
-0.233319
-0.163868
-0.0221787
-0.166557
0.0225832
-0.227057
-0.0669766
-0.173684
-0.271051
-0.0895338
0.159146
-0.146484
-0.113471
0.0142551
-0.0067035
-0.130774
-0.156199
-0.187879
0.241502
0.00669204
-0.078283
-0.187329
-0.289662
-0.08766
-0.289457
-0.0846281
-0.3527
-0.349342
0.0121986
0.0923272
0.0215831
-0.0236564
-0.0167143
-0.120603
-0.0106644
0.0715048
-0.347247
0.00838679
-0.00329377
-0.0754902
-0.180988
-0.0762725
-0.00831991
-0.261106
-0.0498304
-0.0776445
0.0177034
-0.391124
0.070845
-0.188423
0.0250475
-0.0970027
-0.12787
0.0218044
-0.415808
-0.159003
-0.162721
0.0125264
-0.00164092
-0.0918732
-0.391038
-0.0787863
-0.0224694
-0.165387
-0.150829
-0.0276794
0.00618294
-0.00514741
-0.141699
0.112866
-0.0651169
-0.05354
-0.0633867
-0.0984741
-0.175787
-0.167206
-0.0553916
-0.091701
-0.0175342
-0.187345
-0.138934
0.0274564
-0.0787482
-0.365414
-0.17352
-0.0791806
-0.400899
-0.367184
-0.267606
0.0758108
-0.0260797
-0.198155
-0.270697
-0.27525
0.0145963
-0.104522
0.0368547
0.0147512
-0.0794705
-0.206026
-0.115849
0.0136018
-0.109794
-0.136664
-0.12473
-0.119437
-0.305818
-0.0973532
-0.0013975
-0.126121
-0.0806132
-0.287347
-0.071014
-0.111399
0.0479144
-0.00141008
-0.11034
-0.122786
-0.0169925
-0.0849008
-0.0748831
0.0156446
-0.0814239
-0.0935689
0.0418161
-0.0829304
-0.160239
-0.0832027
0.026747
0.306037
-0.12786
-0.0762992
-0.11436
-0.0246182
-0.0832664
-0.050584
0.0393839
-0.0111192
0.144804
-0.0772913
-0.0877589
-0.249692
0.0066232
-0.0239914
-0.0867841
-0.0802747
-0.261533
-0.165088
-0.0861488
-0.0174261
0.0345068
-0.0866421
-0.0178408
-0.311372
0.0325586
0.0157145
-0.0130168
-0.0778417
-0.373307
0.0455448
-0.102595
-0.0486352
0.00198915
-0.0843474
0.148894
-0.0984569
-0.102551
-0.412453
-0.0683171
-0.230033
-0.102999
-0.276737
-0.0773946
-0.000536109
-0.0068583
-0.125698
-0.157342
-0.00511072
-0.00406518
-0.0802119
-0.149598
-0.0829919
-0.412147
-0.106019
0.01484
-0.242407
0.00492336
-0.0779893
0.0256665
-0.162844
0.00331922
-0.0750942
-0.134051
-0.0888829
0.0245597
-0.0796189
0.109503
-0.101755
-0.242863
-0.0808195
-0.00359943
-0.181778
-0.0994606
-0.228744
-0.113702
-0.151157
-0.0150638
-0.102709
-0.0241229
-0.368873
0.00992988
-0.0827881
-0.108032
-0.300376
-0.014219
0.00805397
-0.373364
-0.115731
-0.36987
0.157512
0.0235914
-0.118662
-0.131662
0.159076
-0.08154
-0.0802063
-0.213012
-0.0522842
0.0164262
0.00464509
-0.274559
0.0578584
-0.17433
0.03759
-0.0107776
-0.267395
-0.0637027
-0.0219681
0.0125876
-0.0849115
-0.197002
-0.0822362
-0.110991
0.0823519
-0.149942
0.0191119
-0.226432
-0.0877158
-0.113788
0.198195
-0.0543359
-0.119093
0.128074
-0.0234313
-0.109102
-0.404049
-0.075887
-0.0297213
-0.334871
-0.0974475
0.0133549
0.0635337
-0.124014
-0.130598
0.122417
-0.0894966
-0.266661
-0.0317712
-0.100466
-0.0163516
-0.0682294
-0.146983
-0.357981
-0.0927782
-0.0785116
-0.1512
-0.0788783
-0.146694
-0.0455836
-0.105569
0.0299531
-0.0798109
-0.1661
0.0201082
0.00360907
-0.0763828
0.0454123
0.024237
-0.126473
-0.0914697
-0.18098
-0.0617935
-0.165034
0.00364455
-0.0805623
-0.0985816
0.00724938
-0.107444
-0.346943
-0.271641
-0.0795094
-0.09427
-0.0769082
-0.00093598
0.0732296
-0.142967
-0.114672
0.0254363
-0.0813992
0.0267344
-0.0903151
-0.113902
0.115255
-0.0977259
-0.0874164
-0.110471
-0.0878493
0.231989
-0.384794
-0.297711
-0.0610741
-0.01517
-0.081045
0.000613244
-0.0146765
-0.348875
0.0174682
-0.0816415
0.046869
-0.169793
-0.0592962
0.0182178
-0.36273
0.113717
0.0765412
-0.0757626
-0.264456
-0.317151
-0.0644035
-0.0686261
0.0462625
-0.074736
-0.142538
-0.0818532
0.0230489
-0.198672
-0.131271
-0.0472104
-0.0793686
-0.108463
-0.00308352
-0.244697
-0.153476
-0.0832383
0.017336
-0.243177
-0.00720465
-0.1335
-0.0832346
-0.172299
-0.00219259
-0.110353
-0.411751
-0.0485117
-0.157785
-0.0657623
-0.116472
-0.19905
-0.124225
0.0759832
-0.395443
-0.00163291
-0.079378
0.0134894
-0.0433089
-0.124658
-0.0787491
-0.057412
0.284537
-0.213174
-0.0736889
-0.0269777
0.0454019
-0.122761
-0.335761
0.109145
-0.34278
-0.147328
-0.069726
-0.0837691
-0.148502
-0.0990792
0.17434
-0.120838
-0.000126641
-0.0458593
-0.0326201
-0.342605
0.0249889
-0.077339
-0.0140343
-0.103807
-0.0813677
-0.114222
-0.120614
0.0743704
-0.199702
-0.0153371
0.0453829
0.01422
0.0231685
-0.0578482
0.00580799
-0.0995456
-0.2101
-0.107547
-0.110361
-0.0580247
-0.0113079
-0.080304
0.0183702
-0.100184
-0.136434
-0.395626
-0.0912424
-0.0771427
-0.0634297
0.0183426
0.0605454
0.159494
-0.115011
-0.217101
-0.101215
-0.37835
-0.0870875
0.00767738
-0.00420967
-0.0760685
0.00764788
-0.0817831
0.217613
-0.261473
-0.0478748
-0.136303
0.0241048
-0.0375043
0.0372518
0.0412973
0.0542089
-0.0926898
-0.0146188
-0.0705623
0.170452
-0.104167
-0.0923796
-0.19748
-0.172901
-0.272928
-0.0823043
-0.0493717
-0.0250019
-0.087028
-0.0782613
-0.253128
-0.0813011
-0.078461
-0.215754
-0.0859807
-0.0410194
0.0113734
-0.0766548
0.0175738
-0.0665357
-0.399685
0.0145484
-0.0186854
-0.304466
-0.0785889
-0.0798005
-0.326487
0.0437029
-0.0929726
-0.114515
-0.270748
0.132858
0.0146083
-0.0806434
0.250713
0.0310864
-0.101412
0.0195156
-0.21851
-0.0741366
0.244726
-0.337667
0.114154
-0.145802
0.00597626
-0.387599
0.0402357
-0.0636864
-0.0070316
-0.125241
0.00701222
0.0369098
-0.0792594
-0.259647
-0.125721
-0.0456456
0.147404
-0.0102652
-0.00659629
-0.0457228
-0.10614
-0.0623566
-0.187411
-0.120968
-0.216735
0.0189597
-0.228587
-0.257606
-0.180699
-0.0501734
-0.217915
0.0149614
-0.0169912
0.0128188
-0.335397
-0.0222361
0.0259962
-0.0805207
0.0166852
-0.224565
0.0674472
-0.0253228
-0.105558
-0.0555215
-0.175133
-0.0139907
-0.144551
-0.0206889
0.21446
-0.414031
-0.1255
0.0102903
-0.0601674
-0.107874
-0.0668892
-0.231237
-0.0882134
-0.0483718
-0.209494
-0.0014769
-0.0344679
-0.375888
-0.0772858
-0.0599455
-0.0783849
0.0164607
-0.00596489
0.00635229
-0.0598521
0.0380461
0.0238217
-0.148312
-0.416904
0.128233
-0.412506
-0.0773882
-0.0605603
-0.302549
-0.385404
0.0524687
-0.370191
-0.357983
-0.0862138
-0.338258
-0.0860843
-0.110214
-0.0838883
-0.407625
-0.33797
-0.238234
0.0787574
0.0882007
0.0559452
-0.0569326
-8.85122e-05
-0.293199
0.0174618
-0.414027
0.0405749
-0.16875
-0.0136077
-0.108382
0.0796948
0.0833842
0.0228392
0.00381934
0.0751233
-0.0503104
-0.0357705
-0.0710523
-0.344923
-0.0569573
-0.232175
-0.00490693
0.0888751
0.11629
0.0389245
0.00240422
0.00564171
-0.16407
-0.103648
-0.15742
-0.36311
-0.0299458
-0.142849
0.0251797
-0.0779871
0.000304454
-0.0148355
0.0199646
-0.0988105
-0.0121802
-0.0698412
-0.275531
-0.0125302
-0.0833737
0.0195525
-0.336539
-0.238551
-0.405039
-0.106789
-0.231893
-0.222965
-0.0837477
-0.250715
-0.0823492
-0.392639
0.0548216
0.167963
-0.315763
-0.244693
0.0263304
-0.411843
-0.209374
-0.144003
-0.0131744
-0.108854
-0.324894
0.0131966
-0.413797
0.102887
-0.283187
0.00526806
0.0452124
-0.16164
0.00553054
-0.0592769
-0.15425
-0.0193556
-0.0271822
-0.077656
-0.167314
-0.409967
-0.0760016
-0.033724
0.056105
0.0135403
-0.0174883
-0.0906138
-0.101738
-0.123338
-0.302123
-0.0862933
0.000730093
0.00158208
-0.136119
-0.407489
-0.271766
0.110338
-0.0141656
0.135336
-0.413559
-0.406305
-0.0176979
0.0116028
-0.329788
-0.0300067
-0.148168
0.0732517
0.0164926
-0.0347865
0.0982484
-0.156918
-0.322266
0.00645423
-0.0195201
-0.044174
-0.0788058
-0.306548
0.0194785
-0.220356
-0.266007
-0.0172976
-0.0793686
-0.0810271
-0.41448
0.0254197
-0.414561
-0.310738
-0.0418514
-0.0419952
-0.05003
0.332167
-0.250028
-0.0647972
0.00984347
-0.409964
-0.258146
-0.0127372
-0.142614
-0.216688
-0.0834008
-0.203089
-0.300759
-0.140327
-0.271836
-0.0644122
0.0787753
-0.0471814
-0.155558
-0.287456
-0.281474
-0.408899
-0.185907
-0.017803
-0.0887581
0.00477831
0.00806896
0.0280976
0.00819826
0.0225171
-0.0147305
-0.0864147
-0.350381
-0.357257
0.00526766
-0.202497
0.17816
-0.00569186
0.00141229
-0.151727
0.019591
-0.07509
-0.0804959
0.022245
-0.0169382
-0.082498
0.00538368
-0.257975
-0.0609136
-0.00931827
-0.018348
-0.197768
-0.0145064
-0.342901
-0.162551
-0.0164862
-0.119183
-0.0135566
-0.0454538
-0.0278342
-0.17961
-0.091001
0.00794139
-0.175455
-0.0921027
0.0154783
-0.018971
0.0337214
-0.0329961
0.0188862
-0.299506
-0.266655
-0.415931
-0.0703387
-0.412843
0.0198119
-0.0656528
-0.0333611
-0.219195
0.0491378
-0.107566
-0.00315548
-0.0760408
-0.137558
-0.38394
-0.0879858
-0.00337932
-0.118289
-0.00658476
-0.187007
-0.0138502
-0.0160678
-0.0547405
-0.0657787
-0.00111449
0.00904487
0.0652561
-0.164512
0.0479632
-0.0237671
-0.0549842
0.00538516
-0.0999114
0.018277
-0.410264
-0.0790372
-0.0476493
-0.12175
-0.412102
-0.080196
-0.238468
-0.0155709
0.0158928
-0.0848798
-0.0905175
-0.225143
-0.0795111
-0.0876134
-0.038994
-0.127354
-0.0804767
-0.0745411
0.0210757
0.00113919
-0.159056
-0.152325
-0.414271
-0.0607398
-0.0133886
0.020356
-0.413002
-0.109349
-0.0148725
-0.24012
-0.0217791
-0.0877634
-0.0871486
-0.0887227
-0.0306971
0.0150416
0.00313656
-0.0601201
-0.186273
-0.259146
-0.016247
-0.0153626
-0.278403
0.00516008
0.00767899
0.10951
0.101703
-0.0702866
0.0148757
-0.0762513
-0.0813542
0.102925
-0.371598
-0.122274
0.0247896
-0.0598825
0.0318628
0.00443699
-0.407303
0.309972
-0.0781214
-0.0307904
0.0175304
-0.150112
0.0897452
0.0211845
-0.0770923
-0.364155
-0.0141237
-0.10667
0.0274146
-0.120383
0.0250515
-0.0236012
-0.414051
-0.151679
-0.145791
0.0160019
-0.144133
-0.021746
0.0206192
-0.0754035
-0.103048
-0.118319
-0.0713611
-0.153841
-0.0441785
-0.0786234
0.231685
0.197852
-0.0240545