/*--------------------------------*- C++ -*----------------------------------*\
| =========                 |                                                 |
| \\      /  F ield         | OpenFOAM: The Open Source CFD Toolbox           |
|  \\    /   O peration     | Version:  v2012                                 |
|   \\  /    A nd           | Website:  www.openfoam.com                      |
|    \\/     M anipulation  |                                                 |
\*---------------------------------------------------------------------------*/
FoamFile
{
    version     2.0;
    format      ascii;
    class       volVectorField;
    location    "400";
    object      U_0;
}
// * * * * * * * * * * * * * * * * * * * * * * * * * * * * * * * * * * * * * //

dimensions      [0 1 -1 0 0 0 0];


internalField   nonuniform List<vector> 
13851
(
(1.13662 0.0500396 -8.28281e-21)
(1.07287 -0.024347 0)
(1.07129 -0.0233276 0)
(-0.18828 -0.0137654 0)
(1.00206 -0.000459058 1.17119e-22)
(1.0828 -0.0386658 -1.99537e-20)
(1.06003 0.0120384 -2.9232e-20)
(1.01346 -0.0007629 0)
(0.276914 0.0373186 -3.78731e-20)
(0.991141 -0.00812433 1.00618e-20)
(1.1632 -0.101844 0)
(1.00128 -0.0084536 1.52765e-21)
(0.980722 -0.0201183 3.64679e-21)
(0.0768593 0.0139598 3.13941e-20)
(1.10345 0.00906428 2.05035e-20)
(1.09521 0.0561477 0)
(-0.306798 -0.00209288 0)
(1.03595 -0.0199105 1.11317e-22)
(1.21022 0.0443172 0)
(1.13799 0.0484572 2.30368e-20)
(1.11544 0.00352566 2.20958e-20)
(1.03932 -0.0924326 7.20587e-21)
(0.531835 -0.261011 8.24776e-20)
(1.00008 -0.000218293 0)
(1.14861 -0.0142726 3.30202e-20)
(1.09134 0.0443413 -3.02067e-20)
(1.10135 0.0670394 -2.5745e-20)
(1.13406 0.0864737 4.22244e-20)
(0.408797 0.0344945 6.26518e-21)
(1.02101 -0.0125201 0)
(-0.0850631 -0.0127281 -1.4044e-19)
(1.06022 0.0113702 9.35244e-21)
(1.12906 0.0509914 -3.58816e-21)
(0.341843 0.0624549 1.09554e-21)
(1.13135 -0.0856577 -1.01444e-20)
(0.439558 0.0357198 0)
(1.00004 -0.00019645 0)
(1.16096 -0.149528 -1.24049e-20)
(-0.00935653 0.0151135 1.63463e-19)
(1.0067 -0.0388513 4.74107e-21)
(0.175437 0.0537142 5.17108e-20)
(0.444447 0.0375268 -6.22307e-21)
(-0.230569 -0.00329526 0)
(1.09637 -0.476309 0)
(0.459594 0.0419408 0)
(1.01485 -0.0230294 4.00796e-22)
(1.02002 2.90158e-05 -4.64691e-21)
(1.10004 0.0547129 -4.17731e-23)
(1.0464 -0.0578737 -1.20103e-20)
(0.980378 -0.0191666 0)
(-0.25102 0.00515117 -1.43826e-19)
(0.973505 -0.0134234 7.31129e-21)
(1.09557 0.0557723 0)
(1.07757 0.0220335 1.29649e-20)
(0.134971 0.0105256 -4.21747e-20)
(1.00565 -0.0391396 -4.39847e-21)
(1.13057 0.0518995 0)
(0.14324 0.0478978 -6.88864e-20)
(1.10189 0.0600915 0)
(-0.04017 0.0140392 1.86192e-20)
(1.00117 -0.00796753 -4.29583e-21)
(1.09994 0.0660262 4.3062e-20)
(0.995484 -0.00292654 0)
(1.04682 -0.0601399 -8.30099e-21)
(0.875075 -0.446621 1.24717e-22)
(0.856477 -0.466692 -1.51345e-22)
(-0.0611214 0.0100943 1.23528e-20)
(0.693226 -0.123516 7.89308e-20)
(1.0207 -0.0402275 1.20854e-21)
(-0.155841 -0.00968934 1.2382e-19)
(-0.155083 -0.00579932 -1.60565e-19)
(1.12522 0.00741072 4.48084e-22)
(0.993823 -0.0270233 -3.8389e-21)
(-0.0427107 0.0119338 0)
(1.08448 0.0193949 1.50735e-20)
(1.02103 -0.0749232 0)
(-0.282524 -0.00487248 -8.1337e-20)
(1.02192 -0.00641122 -3.16942e-21)
(1.2131 -0.0194877 2.95255e-20)
(1.00501 -0.0182931 5.58164e-21)
(1.02194 -0.0408598 0)
(1.26934 -0.0910382 -1.00192e-19)
(1.12767 -0.0873595 0)
(0.0666512 0.0144001 -5.19061e-20)
(-0.0250195 0.0145655 -8.9952e-21)
(-0.108868 -0.0100207 0)
(1.04261 -0.0936498 -7.96828e-21)
(0.225069 0.00814892 -3.28491e-23)
(0.99182 -0.0123366 3.59058e-22)
(-0.0817516 -0.0113404 0)
(0.972245 -0.0126238 3.79437e-21)
(1.06147 0.0111369 3.77422e-20)
(-0.232108 -0.00258961 1.7219e-19)
(-0.140498 -0.0090783 1.55693e-19)
(-0.0598758 0.0184028 1.24585e-19)
(1.0813 -0.436969 -6.79482e-20)
(1.00989 -0.0246618 2.1687e-21)
(1.09784 0.0554976 0)
(-0.186348 0.00828767 7.69072e-21)
(1.21559 -0.198174 6.91842e-20)
(1.09834 0.0558218 0)
(0.81014 -0.117308 -3.3389e-20)
(0.810427 -0.150233 -1.78339e-20)
(0.989711 -0.0287787 0)
(1.01848 -0.0227623 0)
(1.13122 -0.00737767 1.6651e-20)
(1.01774 -0.0224875 1.84644e-21)
(-0.13609 -0.00790795 1.711e-19)
(1.06158 0.0103438 -2.07665e-20)
(1.035 -0.0193378 2.94628e-21)
(1.02692 -0.131325 1.60339e-21)
(1.01564 -0.0234639 0)
(1.21808 -0.0187524 0)
(1.16336 -0.0463663 0)
(1.11789 0.0536459 1.50566e-20)
(1.07687 0.0208062 -3.19352e-20)
(1.01467 -0.00829689 2.27125e-21)
(1.01419 -0.000895823 3.06029e-21)
(-0.203984 -0.0117269 -1.64173e-20)
(-0.121124 -0.0129224 4.0927e-20)
(1.11105 -0.362102 6.01918e-20)
(1.0292 -0.0163815 -7.46959e-22)
(1.01576 -0.0408174 7.38683e-23)
(0.0773626 0.0302782 7.90588e-21)
(1.18023 0.0548293 -1.33805e-22)
(0.614443 -0.204274 0)
(1.01041 -0.0243521 -2.64997e-21)
(1.13049 -0.152694 0)
(0.200565 0.0510943 5.05327e-20)
(1.11431 0.0146721 -3.6987e-21)
(1.03592 -0.0944092 -7.91916e-22)
(1.09944 -0.06637 0)
(1.29148 -0.171113 9.90951e-20)
(0.325888 0.0601742 3.72632e-20)
(1.16766 -0.09894 0)
(-0.0691946 0.0179341 5.26451e-20)
(0.706359 -0.115958 5.82627e-20)
(-0.123795 -0.00895453 2.1945e-20)
(0.847942 -0.0891006 2.2386e-20)
(1.11003 0.0175972 2.52941e-20)
(1.26615 -0.0951355 9.0501e-20)
(0.974918 -0.0449568 0)
(0.991121 -0.0124584 0)
(0.742953 -0.309549 -1.94194e-20)
(1.10694 0.0138593 4.37315e-21)
(1.00743 -0.0731293 0)
(1.02169 -0.0059787 7.60257e-22)
(-0.131781 -0.0095968 -7.84341e-20)
(0.273505 0.0252079 -1.47459e-20)
(1.13561 -0.155018 0)
(1.09902 0.0556474 0)
(1.21657 -0.021956 -7.38197e-21)
(1.16749 -0.0454425 -3.56704e-20)
(1.19744 0.0415343 -6.79253e-20)
(0.972455 -0.0232822 0)
(0.983653 -0.00941957 0)
(1.0013 -0.00666378 -3.75535e-21)
(-0.044611 0.0118086 -1.63475e-19)
(1.10815 0.0142305 0)
(1.06303 0.00149651 -1.34464e-20)
(1.00015 -0.000503971 3.2591e-21)
(0.421004 0.0344231 0)
(1.12842 -0.00659021 0)
(1.10075 0.0545596 -3.47785e-20)
(0.0804263 0.0124588 -2.93857e-20)
(0.364292 0.046232 7.26695e-21)
(0.375444 0.0479381 0)
(-0.234561 0.00673688 1.97183e-19)
(1.02768 -0.126425 -8.46043e-21)
(0.68318 0.0767563 0)
(1.00088 -0.00733004 -2.88855e-21)
(1.01459 -0.0078875 1.76632e-21)
(1.14654 -0.0106278 0)
(1.00108 -0.000423818 0)
(-0.0324664 0.0231184 -1.14164e-19)
(1.11734 0.0727003 -4.48554e-20)
(1.10325 0.0572495 -7.58444e-21)
(1.01518 -0.00785073 0)
(1.08271 0.0208398 0)
(1.10284 0.0565196 0)
(1.17608 0.0536072 -1.7659e-20)
(1.1032 -0.45802 2.99196e-20)
(1.03322 -0.119408 -3.56821e-21)
(1.11235 0.014839 0)
(-0.245215 -0.00405719 -5.28943e-20)
(0.281642 0.0249882 2.68659e-22)
(1.12772 0.0522813 -1.65095e-20)
(0.889056 -0.0668821 -1.5049e-20)
(0.976926 -0.0240736 7.54478e-21)
(1.01929 -0.0169756 -1.26691e-21)
(1.20352 0.00825679 6.47486e-20)
(1.10893 0.01314 0)
(0.0573847 0.0084205 -1.6416e-20)
(1.08424 -0.0365426 2.06111e-20)
(1.00925 -0.0710329 2.05665e-21)
(1.09674 0.0555988 0)
(1.12617 0.0513871 0)
(1.04654 -0.0112705 -4.85543e-21)
(1.04183 -0.0283672 -7.81973e-21)
(0.709202 -0.158992 0)
(1.26661 -0.107878 4.59428e-20)
(-0.000211728 0.03292 -4.50662e-20)
(0.124637 0.0508346 0)
(1.10188 0.00985885 -3.86081e-20)
(0.940846 -0.712451 -5.61063e-20)
(-0.0309141 0.0307915 0)
(0.937378 -0.0214566 0)
(1.10265 0.0238812 -2.80855e-20)
(0.270379 0.0397398 -1.79109e-20)
(1.07713 -0.0464131 0)
(1.09414 0.0565053 -3.85089e-22)
(1.0151 -0.0399716 -3.3252e-22)
(1.27021 -0.103351 -1.37887e-20)
(1.00012 -0.00217838 -2.46083e-22)
(1.13499 -0.0783333 -2.38271e-21)
(1.02467 -0.0827294 3.21302e-21)
(0.981655 -0.0180669 -5.68842e-21)
(1.14558 0.0611272 0)
(1.04588 -0.0199646 -8.59571e-21)
(0.152548 -0.536834 -1.04886e-19)
(1.01521 -0.0074288 -1.45449e-21)
(1.142 0.0473463 0)
(0.0472937 0.0109808 5.25656e-20)
(-0.0536769 0.0190898 7.07715e-20)
(0.901017 -0.0763266 0)
(1.10242 0.0247771 2.22665e-20)
(1.00003 -0.00110865 0)
(0.745927 -0.288241 1.89782e-20)
(1.00164 -0.0135533 0)
(1.13162 -0.0796769 0)
(-0.0400157 -0.0356698 -4.04899e-20)
(0.894732 -0.06756 -2.51122e-20)
(1.07696 -0.044264 0)
(0.996264 -0.000898433 8.16368e-22)
(0.111479 0.0490609 2.12099e-22)
(1.0217 -0.0123279 3.50509e-21)
(0.890124 -0.426802 0)
(0.103424 0.0471122 -6.7631e-20)
(1.20819 -0.192969 0)
(1.0001 -0.000483012 -3.7827e-21)
(1.29056 -0.325518 0)
(-0.0133416 0.01433 -6.86279e-20)
(0.488833 0.0442795 0)
(1.09448 0.0561341 0)
(1.10652 -0.0141213 0)
(0.706731 -0.3412 -4.71258e-20)
(1.14607 0.0588732 2.8155e-20)
(1.08232 0.021993 0)
(1.08399 -0.419051 0)
(1.04618 -0.133331 8.61851e-21)
(0.173168 0.00728478 0)
(1.16775 0.0336541 -8.30911e-20)
(1.01046 -0.000808672 -8.84726e-24)
(1.08286 -0.0152929 0)
(1.09739 0.0558764 -1.70185e-21)
(0.409321 0.0328844 0)
(0.293324 0.0109365 8.92507e-21)
(1.01881 -0.0162524 1.53798e-21)
(0.590294 -0.199812 0)
(0.992692 -0.0131762 1.87353e-20)
(1.1287 0.0607888 -6.22262e-20)
(1.18555 0.0498544 -3.43607e-21)
(1.08468 -0.0147022 0)
(1.12853 -0.00330926 -7.46325e-20)
(1.1712 0.0339096 8.54704e-20)
(0.999612 -0.025201 -1.17438e-20)
(0.80535 -0.127036 3.90733e-20)
(1.10164 0.0521534 0)
(1.16603 0.0815212 -1.6318e-20)
(0.99778 -0.00851052 0)
(0.981552 -0.0170772 -7.21117e-22)
(0.895491 -0.0747832 1.68211e-20)
(0.358916 0.0545233 0)
(-0.25332 -0.00534097 0)
(1.11861 0.00833514 3.34499e-20)
(1.03023 -0.0169005 3.86659e-21)
(1.17407 0.056705 4.06756e-21)
(1.19147 0.0460518 9.86409e-20)
(1.12048 0.0498455 -4.07267e-20)
(1.12648 -0.0026 6.17528e-20)
(0.329947 0.0506232 0)
(-0.148543 0.00890061 -2.7965e-20)
(1.08805 -0.022849 0)
(1.09836 0.0067299 -6.2535e-20)
(1.1086 -0.169907 0)
(1.02055 -0.0219242 1.61841e-21)
(1.00142 -0.00631344 -1.90383e-21)
(1.12215 0.0505647 -9.0332e-21)
(1.14806 -0.117332 4.663e-20)
(1.02308 -0.012535 8.29647e-21)
(1.00013 -0.00214049 -3.71179e-21)
(1.00142 -0.0139517 0)
(1.00428 -0.000648361 -4.48636e-24)
(1.10323 -0.00560976 -9.23962e-20)
(1.00148 -0.00674603 5.61981e-21)
(0.287837 0.039853 1.89269e-20)
(1.11722 0.00484125 0)
(1.01172 -0.0328918 -9.80934e-22)
(0.415966 0.031951 0)
(0.0662796 0.0280169 0)
(0.974695 -0.0187665 0)
(1.14064 0.0491472 -1.87351e-20)
(-0.222427 0.00635816 1.73311e-20)
(0.973785 -0.0473363 0)
(0.973307 -0.0180808 0)
(1.11958 0.00453649 0)
(0.037297 0.0115306 -3.91795e-21)
(0.207755 -0.0109684 -6.89724e-20)
(1.14704 0.00195708 4.9594e-20)
(1.00227 -0.000604489 -4.56166e-22)
(0.720619 0.0794176 0)
(1.00098 -0.00780276 0)
(1.1531 0.00185847 4.97055e-20)
(-0.205931 0.00851392 0)
(1.16664 0.0799678 8.26086e-20)
(1.0618 0.00112609 9.97385e-21)
(1.21609 -0.205143 -1.49583e-21)
(1.32495 -0.185773 0)
(-0.110228 -0.00598496 -1.32105e-19)
(1.21847 -0.0301199 0)
(0.780236 -0.0958335 -3.9656e-20)
(-0.0253328 0.0191537 5.38342e-22)
(0.116056 0.0386039 3.07872e-22)
(1.15379 0.0853042 -4.53953e-20)
(1.04318 -0.0291583 8.37991e-21)
(-0.251023 -0.00467374 -9.28141e-20)
(0.126726 0.00279783 -6.75655e-23)
(0.460271 -0.45145 -1.17072e-19)
(0.495432 -0.457512 9.96156e-20)
(0.935783 -0.0226573 1.0215e-20)
(1.15012 -0.00577337 -5.96089e-20)
(0.947232 -0.118237 0)
(0.23317 0.00863071 3.45899e-20)
(0.785171 -0.142761 3.7904e-20)
(1.00821 -0.00194578 -1.29322e-21)
(1.02009 -3.32685e-05 4.9487e-21)
(1.07039 -0.0822236 -2.0223e-20)
(-0.136306 -0.00842021 1.81048e-19)
(0.206146 -0.543672 9.79461e-20)
(1.02056 -0.0211151 -3.65053e-21)
(-0.0692437 0.0182655 -1.28674e-19)
(0.936398 -0.115505 -1.57149e-20)
(1.10022 -0.0693725 -9.85722e-21)
(1.06328 0.00236064 1.4606e-20)
(0.0283898 0.00892668 -2.4083e-21)
(1.17057 0.055922 0)
(1.09627 0.0559567 0)
(1.02238 -0.0804613 9.05335e-22)
(1.07436 -0.0434166 2.46332e-20)
(0.482103 0.037266 0)
(0.976802 -0.0257019 -2.35791e-20)
(1.19629 0.0456172 -3.49464e-20)
(1.08658 -0.0216274 0)
(1.12091 0.00326297 0)
(0.930518 -0.117809 0)
(0.992034 -0.0131805 -1.28105e-20)
(1.01251 -0.0324766 9.48684e-22)
(1.22921 -0.0896223 0)
(1.22371 -0.194424 2.46432e-21)
(1.16355 0.0370005 -8.89363e-20)
(1.34493 -0.187975 -1.47443e-22)
(0.49186 0.0384155 6.18754e-21)
(1.00867 -0.0745979 0)
(0.0880127 0.0461054 3.63014e-20)
(1.13287 0.0647277 -1.65255e-20)
(1.02821 -0.00860423 -3.68124e-22)
(1.14947 0.0813941 -6.97652e-20)
(1.1368 0.0346764 1.51288e-20)
(-0.172723 0.0107467 -5.57787e-20)
(1.06836 -0.0796942 0)
(1.08774 0.0477267 0)
(1.09452 0.0602097 0)
(1.24588 -0.0936637 8.77395e-20)
(1.22539 -0.100208 1.14282e-22)
(0.226181 0.0086276 4.65675e-21)
(1.04672 -0.0400835 -7.17919e-21)
(1.1207 0.0740179 5.42812e-20)
(-0.324041 -0.00287682 0)
(1.10186 -0.0259128 4.23311e-20)
(0.193913 0.0105109 4.84844e-20)
(1.10893 -0.027867 -2.00637e-20)
(0.127922 0.0483618 -6.65671e-20)
(1.09747 0.00567172 3.78228e-20)
(1.08004 0.033523 1.83646e-20)
(1.17498 0.0282356 0)
(1.2481 -0.17319 0)
(0.983717 -0.0103373 0)
(1.08542 -0.0280389 1.28831e-20)
(1.15233 -0.120311 4.07827e-21)
(1.08416 0.0205918 0)
(1.0131 -0.025195 0)
(1.11836 0.0102034 -3.5274e-20)
(0.602055 0.0771434 1.26792e-21)
(0.99462 -0.0269616 -9.18905e-21)
(1.10404 0.0228159 0)
(-0.214855 -0.0130459 2.01498e-19)
(1.06743 -0.0408244 -1.2568e-20)
(1.25411 -0.483171 -7.44169e-20)
(1.08989 0.0316336 -2.8026e-21)
(0.265648 -0.0117719 0)
(1.07962 -0.0478751 2.10556e-20)
(1.09077 0.0433992 0)
(0.916474 -0.685545 6.65509e-20)
(1.18451 0.0523766 1.49087e-20)
(1.13188 -0.0126851 1.61048e-20)
(0.273938 0.00834545 3.42078e-23)
(-0.0333422 0.0108634 8.47094e-20)
(1.25729 -0.320269 0)
(0.998834 -0.0252714 -4.8833e-21)
(1.22544 -0.0861105 0)
(1.11047 -0.0346003 -4.48204e-20)
(1.08839 0.0468088 0)
(1.02773 -0.0181046 -9.5427e-21)
(-0.235609 -0.00217729 4.03746e-22)
(0.55846 0.0759008 -2.44056e-20)
(1.20697 -0.0525398 -1.61529e-19)
(1.07396 -0.0413916 -2.34966e-20)
(1.17454 0.0307282 0)
(1.10405 0.0684341 -5.14754e-20)
(-0.239311 -0.00783394 0)
(1.0248 -0.00328653 4.73883e-21)
(-0.285861 -0.00198195 -1.046e-19)
(1.25882 -0.159955 1.14904e-20)
(0.288816 -0.176415 1.27011e-21)
(1.05051 -0.136176 -1.08679e-20)
(1.13554 0.0667307 -9.4908e-20)
(0.987492 -0.0175155 1.17181e-20)
(1.00126 -0.000364095 -6.47418e-22)
(0.124995 0.00850166 4.995e-20)
(1.10698 0.0697718 4.33041e-20)
(0.990458 -0.00870375 -5.80683e-21)
(1.07274 -0.025862 5.41743e-21)
(1.10573 0.0229448 -7.6021e-21)
(1.0129 -0.00886616 1.42651e-21)
(0.632071 0.0783656 0)
(1.15008 -0.00302755 1.28384e-20)
(1.13733 0.0333422 0)
(1.07734 -0.000664648 9.41761e-21)
(1.04742 -0.0389063 0)
(0.971938 -0.00741036 0)
(1.29344 -0.107583 0)
(1.01056 -0.0321296 0)
(0.972998 -0.00637613 0)
(0.838367 0.0565824 9.31725e-21)
(0.636594 0.0751104 0)
(1.03275 -0.091887 0)
(1.09719 0.0602519 1.79986e-20)
(0.995686 -0.00237777 -9.08742e-22)
(1.00159 -0.00638922 -1.77997e-21)
(1.06975 -0.041746 3.7612e-20)
(1.16641 0.0373151 9.48383e-20)
(1.08666 0.0332665 -2.54275e-20)
(1.01298 -0.0266644 0)
(1.0567 -0.0313972 1.38626e-20)
(1.11266 -0.351079 3.08719e-20)
(1.06459 -0.0183082 -1.78233e-20)
(0.307466 -0.0220207 0)
(1.00145 -0.00789676 -2.06532e-21)
(1.07719 0.0107246 1.97079e-20)
(0.465763 0.0433716 1.22265e-20)
(0.93806 -0.161476 0)
(1.01929 -0.000671212 -1.2046e-21)
(1.00044 -0.00678507 -3.36607e-21)
(1.07697 -0.00164993 -4.79343e-21)
(1.04943 -0.0101921 0)
(1.24053 -0.37186 3.50289e-20)
(0.757015 0.0555286 -1.05425e-20)
(1.1075 -0.0125276 5.04164e-21)
(0.320507 -1.12535 0)
(1.07143 -0.0403141 -1.97199e-20)
(1.00025 -0.0108051 -4.04418e-21)
(0.237975 0.0495428 -2.38541e-20)
(1.0948 0.0606488 1.83177e-20)
(0.877221 -0.123807 0)
(0.995793 -0.0308362 0)
(0.104851 0.03584 3.57715e-20)
(0.857361 -0.0945165 4.17498e-20)
(1.17731 -0.643202 -1.60102e-20)
(0.989075 -0.0279296 -9.42861e-21)
(1.10219 -0.0609709 0)
(1.22958 -0.0970455 0)
(1.09049 0.018443 0)
(0.14851 0.0439109 2.23379e-20)
(1.10389 0.0684573 4.79981e-20)
(1.2685 -0.0648104 1.53668e-19)
(0.976358 -0.0713217 0)
(1.21997 -0.0265531 5.97487e-22)
(1.00076 -0.0264708 3.74556e-21)
(0.397565 0.0332578 0)
(1.09039 0.0309255 1.00727e-20)
(1.12476 0.0517282 0)
(1.10887 -0.0326651 3.61489e-20)
(1.02292 -0.0772604 1.86841e-21)
(0.944579 -0.15906 0)
(1.14687 -0.00722713 1.19141e-20)
(1.00183 -0.000551498 0)
(-0.267994 -0.00308749 0)
(0.209662 0.0460735 0)
(0.347318 -0.0270661 5.61717e-20)
(-0.180328 -0.00269646 -1.47936e-20)
(0.777368 0.0563324 9.22381e-21)
(-0.239219 0.00337136 -3.68494e-20)
(1.19045 0.0494812 -7.34183e-20)
(0.91232 -0.0799893 0)
(0.999676 -0.0029102 -7.47332e-21)
(1.22719 -0.482989 -4.52131e-20)
(0.99117 -0.00739546 -7.81331e-21)
(1.01278 -0.0245027 9.6582e-23)
(0.906251 -0.0967407 1.39444e-20)
(-0.00979056 0.0267499 7.00417e-20)
(1.0703 -0.0174671 -2.61173e-20)
(0.970456 -0.0401889 -8.60662e-23)
(1.07359 -0.28287 -6.99889e-22)
(1.13952 -0.0349093 0)
(0.989151 -0.00280379 8.79872e-22)
(0.655368 0.0198845 6.18937e-20)
(1.00856 -0.0236744 -2.04649e-21)
(0.244934 0.0546697 -2.39808e-20)
(1.2302 -0.356249 -1.21564e-19)
(1.00544 -0.0188932 0)
(1.06498 -0.00865843 -2.09308e-20)
(1.26367 -0.133334 -5.19166e-20)
(1.15043 0.082331 -8.88478e-21)
(1.02244 -0.0128137 4.60037e-22)
(0.941691 -0.0948839 0)
(1.05978 -0.399879 8.20936e-20)
(1.03231 -0.00306806 0)
(-0.0721883 0.00317846 3.16957e-20)
(1.20712 0.0447478 -4.43033e-21)
(1.14587 0.0457767 0)
(0.974906 -0.0695578 1.27432e-20)
(0.857004 0.0573612 -3.79337e-20)
(-0.0923034 0.0129894 3.37889e-20)
(1.03304 -0.00328598 -5.05337e-21)
(1.23898 -0.00550931 1.0855e-19)
(1.01823 -0.0404611 4.09259e-22)
(1.00903 -0.0242462 1.00826e-21)
(0.913392 0.0605277 2.24601e-21)
(0.131433 0.048854 8.21399e-20)
(1.12254 -0.0336259 0)
(1.08551 0.0331148 2.14055e-20)
(0.990527 -0.00611497 -1.03049e-20)
(1.09502 0.0379631 0)
(0.230632 0.0539532 -4.29716e-22)
(-0.0470226 0.0142354 1.13362e-19)
(1.03637 -0.00651763 1.30268e-21)
(-0.287739 0.00099722 0)
(1.01259 -0.0260149 0)
(1.01949 -0.041226 -1.34947e-21)
(1.13273 -0.0106862 2.17858e-21)
(1.07366 0.0152052 0)
(1.02504 -0.00298994 2.55546e-21)
(1.01817 -0.0750402 7.00936e-23)
(-0.0581298 0.00336054 0)
(1.24338 -0.16975 -4.49122e-20)
(-0.0873368 0.00297733 0)
(1.06817 -0.0179291 -1.98807e-20)
(0.992911 -0.0139099 -1.3225e-22)
(0.381417 0.0539018 -7.75763e-21)
(0.999466 -0.00404382 0)
(1.22632 -0.0758046 0)
(1.08098 0.00522153 2.88877e-20)
(1.0863 0.017698 -3.35608e-20)
(1.10751 -0.0184469 8.97282e-21)
(0.565061 0.0492374 0)
(-0.135473 0.0111894 0)
(1.08336 -0.0322453 -2.13906e-20)
(-0.285259 -0.00279367 0)
(1.06067 -0.000921161 4.75327e-21)
(1.15738 -0.01919 0)
(0.453884 0.0391687 1.87853e-20)
(0.160334 0.0155604 1.2488e-21)
(1.01187 -0.0410569 -1.1636e-21)
(1.00001 -0.0263776 4.71556e-21)
(0.817608 -0.159093 0)
(-0.0778555 0.00397916 0)
(1.09769 0.0585975 -4.97794e-20)
(1.09393 0.0376666 0)
(1.06575 -0.562123 1.46813e-20)
(1.07357 0.0159309 0)
(1.09546 0.00624422 0)
(0.0485451 -0.0471127 -8.03138e-20)
(0.601815 0.0131116 8.66444e-20)
(1.08619 -0.340965 -3.03728e-20)
(0.229683 0.0525007 0)
(1.11469 0.0609861 -9.74622e-21)
(0.498359 0.0400558 -1.67679e-20)
(1.04245 -0.0387331 9.16312e-23)
(1.10371 0.0598022 0)
(1.21753 0.0625028 0)
(0.999897 -0.00932687 4.03786e-21)
(-0.321352 0.00125778 -8.5908e-20)
(0.409031 0.0435533 4.02735e-20)
(1.03288 -0.124685 7.49513e-21)
(1.11191 0.0169821 -2.61929e-20)
(1.00233 -0.0361937 3.0075e-22)
(0.466257 -0.841816 -7.79504e-21)
(1.14473 -0.188674 0)
(0.575637 -0.187956 1.63312e-19)
(1.00987 -0.0326493 -1.83814e-21)
(1.00076 -0.000497999 0)
(0.910178 -0.0475826 0)
(1.13821 -0.03765 1.06283e-20)
(1.00151 -0.00760082 0)
(-0.0391205 0.0242391 -1.20059e-19)
(1.00088 -0.000592619 1.03102e-21)
(1.11599 0.0604892 0)
(0.969649 -0.0679896 4.27968e-22)
(1.08935 0.0471621 -7.70599e-21)
(0.990649 -0.0284129 -9.72073e-21)
(0.988429 -0.00293784 -1.01132e-20)
(1.09384 -0.161941 0)
(-0.286326 -0.000890193 2.072e-19)
(1.1336 -0.0177747 -6.59175e-20)
(-0.0831725 0.0176419 1.47078e-20)
(1.10255 -0.06408 5.07472e-21)
(1.0131 -0.0099046 1.37802e-21)
(1.03122 -0.0111237 6.00552e-21)
(1.14934 -0.0123871 -3.05326e-21)
(1.05555 -0.032391 2.25642e-21)
(1.19243 -0.0310082 9.29628e-20)
(1.07457 -0.0195157 -1.50055e-20)
(0.877165 -0.116067 0)
(1.1011 0.0594697 0)
(0.999347 -0.00377629 4.0327e-21)
(0.294739 0.00697536 0)
(1.00006 -0.00149512 3.86276e-21)
(1.09064 0.0523583 4.22824e-20)
(-0.268797 -0.00248786 0)
(0.428029 0.0462289 0)
(0.88179 -0.0281101 2.66064e-20)
(0.786135 -0.268909 -1.39119e-19)
(1.06243 -0.282187 -3.90995e-20)
(1.22131 -0.245573 -4.11467e-20)
(0.37836 0.0451358 0)
(1.0388 -0.00762339 -2.69233e-21)
(0.563143 0.0175428 2.67002e-20)
(0.941796 -0.120352 0)
(1.10445 -0.0259255 -9.36871e-21)
(-0.16798 -0.00472385 1.04588e-19)
(1.2841 -0.00239742 -7.58268e-21)
(1.02867 -0.00909046 -4.28716e-21)
(1.19026 -0.0334332 -8.73467e-20)
(1.04584 -0.0104644 -4.919e-21)
(0.464341 0.0365393 3.39115e-21)
(-0.267469 0.00305113 -4.16275e-20)
(1.02469 -0.0426854 1.08131e-22)
(0.691506 -0.148604 -8.09209e-20)
(0.624077 0.0802389 4.93295e-20)
(0.999988 -0.00126451 -5.99545e-21)
(0.999982 -0.00168852 -4.4679e-21)
(1.09084 0.0449923 3.78295e-20)
(0.276343 0.00460742 5.87943e-21)
(0.935507 0.0599607 -2.54877e-20)
(0.973519 -0.0166863 3.24489e-21)
(1.17976 0.02377 5.60587e-21)
(1.06281 -0.0182606 8.64471e-21)
(0.987312 -0.00399365 0)
(1.10306 0.0592025 4.93544e-21)
(1.17903 0.0267388 0)
(1.2181 -0.179886 3.22504e-20)
(1.02343 -0.00274347 0)
(1.10253 0.051909 3.01918e-20)
(0.906135 -0.208683 0)
(1.08914 0.0419034 6.87655e-21)
(0.957109 -0.0193036 -3.13213e-20)
(1.0079 -0.0683542 5.40919e-22)
(1.13714 -0.188481 0)
(0.914358 -0.0486768 0)
(1.1009 0.0534639 -1.21724e-20)
(1.12278 0.00834493 3.06204e-20)
(1.12575 0.00522639 5.34765e-22)
(1.07469 -0.328384 4.37985e-20)
(1.17315 -0.65691 -5.22861e-20)
(1.21304 0.0399766 -9.67631e-22)
(0.671267 0.0736021 -5.08527e-23)
(1.04641 -0.101311 0)
(1.09929 0.0552545 0)
(0.105881 0.0200434 2.82542e-20)
(1.02293 -0.177864 -8.27373e-21)
(0.881359 0.0590426 0)
(1.14455 0.0477774 0)
(1.03246 -0.0209815 0)
(1.09436 0.0051781 -1.77471e-20)
(1.20864 0.0360541 -1.08136e-19)
(1.05774 -0.0881219 -1.59512e-20)
(1.00508 -0.0176298 -2.03833e-23)
(1.00558 -0.0166955 -2.14764e-21)
(1.09207 0.0518035 1.90795e-20)
(0.218781 0.00627988 1.52209e-20)
(1.07862 0.0105865 -2.07202e-20)
(0.0693916 0.0424516 3.7403e-20)
(1.01291 -0.0102826 1.32442e-21)
(0.903479 0.0598384 5.17913e-21)
(0.999824 -0.372377 0)
(-0.232105 0.00593489 1.64236e-19)
(1.19077 -0.0388879 -4.42692e-20)
(1.08189 -0.0472564 -2.20101e-20)
(1.07188 -0.0216682 -1.43287e-20)
(-0.219497 0.00844948 -5.98991e-20)
(1.22021 -0.174523 -1.16284e-19)
(1.02341 -0.170949 8.16143e-21)
(1.10587 0.069924 -9.9586e-21)
(1.04612 -0.0368352 0)
(1.2499 -0.439148 0)
(1.09157 0.0523198 -1.10034e-20)
(1.1177 0.060908 -1.82335e-20)
(1.10775 -0.0445429 9.78553e-21)
(1.27731 -0.149357 0)
(0.988225 -0.0179339 7.78507e-21)
(1.00008 -0.00175195 2.51383e-22)
(0.940689 -0.0210516 2.87362e-20)
(0.986678 -0.00479331 -1.74057e-21)
(0.436376 0.0382675 0)
(1.00402 -0.00079196 0)
(1.09932 0.0586793 0)
(0.348527 0.0515458 0)
(1.19438 -0.040566 0)
(-0.0315735 0.0168549 0)
(-0.172443 0.00974061 0)
(1.11882 0.0616926 0)
(1.2299 -0.241758 9.07417e-20)
(0.884677 -0.0355088 -2.15731e-20)
(0.998597 -0.000391225 -1.05577e-20)
(0.982783 -0.0163131 7.59297e-22)
(1.02078 -0.00654934 0)
(1.03049 -0.0111874 -7.68539e-21)
(1.00104 -0.000552405 -7.29892e-22)
(1.15545 -0.0126749 0)
(1.21163 -0.0119116 -5.85878e-20)
(0.902834 -0.220238 0)
(1.16436 0.0843571 -8.37105e-20)
(1.02394 -0.0643776 3.89853e-22)
(0.263392 0.0373243 -8.99736e-21)
(0.999977 -0.000175913 -3.18674e-21)
(-0.158294 -0.0172584 -2.19248e-19)
(1.12014 -0.0924847 -8.67296e-21)
(0.999925 -0.000349236 -9.12454e-22)
(0.996997 -0.00112348 -6.24321e-21)
(0.411589 0.047192 3.04243e-20)
(1.08374 -0.0404684 1.51187e-20)
(0.946809 0.0690099 1.27028e-20)
(0.426282 0.0439927 5.28344e-21)
(1.10853 0.016663 0)
(1.13197 0.0219878 -1.50835e-20)
(1.03185 -0.00222929 -4.21238e-21)
(0.306854 0.0588338 -3.94442e-20)
(0.985284 -0.0821864 0)
(1.07139 -0.0187315 2.7456e-20)
(1.10251 0.0591933 0)
(0.998633 -0.000886786 5.02333e-21)
(0.973814 -0.0431864 -4.37071e-21)
(1.0362 -0.0121672 0)
(1.09241 0.029684 2.41991e-20)
(0.197435 0.00789275 3.11629e-20)
(1.09358 -0.0603763 -2.77412e-20)
(1.10871 -0.0392534 -3.88867e-20)
(1.26172 -0.167299 0)
(-0.0778055 0.0127834 -1.15889e-19)
(0.88637 -0.0578083 -2.9594e-20)
(0.98736 -0.105894 0)
(0.48363 0.0400344 -4.57382e-23)
(1.02035 -0.00634621 0)
(0.472584 0.0391864 -1.17759e-20)
(1.0004 -0.00124333 -9.85023e-22)
(1.06514 -0.0167442 0)
(1.22153 -0.0154528 -3.23559e-20)
(1.10845 0.042867 6.76736e-20)
(1.11922 0.0527711 0)
(1.19238 -0.0998227 -7.71235e-20)
(1.13439 -0.0153554 9.15172e-21)
(0.999517 -0.00106789 -4.68862e-21)
(0.999988 -0.000180173 -6.71019e-21)
(1.16122 -0.0182724 0)
(1.04402 -0.0386273 -5.2798e-21)
(0.999634 -0.000887349 -8.40196e-21)
(1.07736 0.0144525 0)
(1.24836 -0.205825 -9.96171e-20)
(1.00479 -0.00572867 -1.06906e-21)
(1.20904 -0.259291 7.38538e-20)
(1.27877 -0.471732 5.73436e-20)
(0.99233 0.0649619 1.06013e-20)
(1.19084 -0.0951241 4.91415e-20)
(-0.0453234 -0.0164463 7.92181e-20)
(0.838499 -0.0920603 4.89098e-20)
(0.998457 -0.000709487 0)
(1.22381 -0.111829 2.99078e-20)
(1.01235 -0.0107249 0)
(1.08606 -0.0260786 -2.88472e-21)
(0.71778 0.0766844 -1.33091e-20)
(0.502849 0.0380356 2.56611e-20)
(0.552879 0.0182782 1.95028e-20)
(0.522688 0.043612 0)
(1.02848 -0.0430571 0)
(1.02458 -0.0418426 -1.0851e-22)
(0.978497 -0.279782 1.22441e-21)
(1.00431 -0.0657026 -3.36646e-22)
(1.02265 -0.019488 0)
(0.561773 -0.288046 8.25641e-20)
(1.12714 0.0619213 2.22006e-20)
(0.184285 0.0126676 0)
(1.09029 0.0528767 -4.66783e-20)
(1.10963 0.0433186 -4.53794e-20)
(0.985289 -0.00669671 2.2389e-21)
(1.02081 -0.0130118 0)
(1.29781 -0.329014 4.86951e-20)
(1.13938 0.0320963 6.11848e-20)
(1.06719 -0.0165867 2.37073e-20)
(0.999803 -0.0002735 -1.87932e-21)
(1.11646 0.0532691 -1.9389e-20)
(1.22943 -0.0414814 -5.2991e-22)
(0.0803993 0.0434069 0)
(0.972605 -0.0213444 0)
(1.00093 -0.00341278 2.41323e-21)
(0.179574 0.0059861 -2.43602e-20)
(0.95822 -0.0179195 2.57243e-20)
(1.10823 -0.0231885 4.89132e-21)
(1.0125 -0.00837538 0)
(0.00881907 0.0292112 0)
(1.00989 -0.000456157 1.83272e-21)
(-0.260439 -0.00556821 0)
(0.994851 -0.00611554 1.03509e-20)
(1.19998 -0.196643 6.21849e-20)
(1.11326 -0.00244213 -2.45267e-20)
(0.954928 -0.283648 3.63001e-21)
(1.1097 -0.0427851 5.75223e-21)
(0.993153 -0.0260469 0)
(1.07248 -0.0286767 0)
(1.00338 -0.0040954 -7.59806e-23)
(1.09793 0.0587043 -9.07465e-21)
(0.961335 -0.0270467 0)
(0.314123 0.0141247 -7.69605e-21)
(1.04829 -0.0359711 -3.65163e-21)
(0.988338 0.0813064 -2.09321e-20)
(0.277326 0.0513546 0)
(1.10345 -0.0491785 -1.95902e-20)
(1.00398 -0.00293964 -3.73157e-22)
(-0.188413 -0.0180914 -5.0791e-20)
(0.756319 0.0560007 -5.39202e-21)
(1.08574 -0.0321338 4.53994e-20)
(1.10702 0.0431699 -4.52609e-20)
(0.982814 -0.0153738 0)
(0.248661 0.00725851 0)
(1.03337 -0.0216591 2.91316e-21)
(1.21091 0.032585 0)
(0.999252 -0.0102153 4.73515e-21)
(1.00367 -0.00427689 5.89254e-22)
(0.985791 0.0717942 1.82779e-20)
(1.10827 -0.0166475 0)
(1.0005 -0.007296 0)
(1.07879 0.0221552 8.32676e-21)
(0.141676 0.0477328 0)
(0.722071 -0.795437 9.19276e-21)
(0.574677 0.0792642 -5.09683e-20)
(1.01794 -0.0162363 -1.50005e-21)
(0.12317 0.0228095 -6.14033e-21)
(0.997553 -0.00902693 6.36417e-21)
(1.00459 -0.00540399 8.03948e-22)
(0.973925 -0.0242084 -8.83956e-21)
(1.02007 -0.000119064 0)
(0.999884 -0.00230162 -3.54352e-21)
(0.516339 0.0778381 4.36008e-20)
(0.687272 0.0773771 0)
(1.04643 -0.021026 0)
(1.00092 -0.000812366 -1.83298e-21)
(1.12383 -0.0307224 2.55123e-20)
(1.0162 -0.0233519 5.44391e-22)
(-0.15713 -0.0226081 -4.48562e-20)
(1.22806 -0.108073 -8.71462e-21)
(0.0873399 0.0159577 -4.60704e-21)
(-0.0124946 0.0187567 -5.54075e-20)
(1.07206 -0.0297866 0)
(1.10159 0.0532602 0)
(0.999929 -0.00989493 4.31929e-21)
(1.11561 0.00108702 -2.37519e-20)
(0.994509 -0.354658 1.73183e-21)
(1.0381 -0.00699388 1.0593e-20)
(1.00035 -0.00122504 2.80589e-22)
(1.29762 -0.308832 0)
(-0.257251 0.00361817 -4.49208e-20)
(1.12981 0.0221323 0)
(-0.329181 -0.00512869 6.39171e-20)
(1.1138 0.0303533 0)
(0.995803 -0.00323378 0)
(1.12764 -0.0426482 -3.17138e-20)
(1.10637 0.0437802 4.22767e-20)
(-0.302037 0.000146639 -1.26198e-20)
(1.10111 -0.00669401 0)
(1.09556 0.0663004 -1.47992e-21)
(1.14175 0.0324192 -8.34715e-20)
(1.00022 -0.00238045 4.94999e-21)
(0.362227 -0.117076 0)
(0.260968 -0.0813412 0)
(0.227996 0.0118371 1.3349e-20)
(1.24325 0.0011947 8.85068e-21)
(0.925159 0.0607651 -1.50231e-20)
(0.97931 -0.0721729 3.31447e-21)
(0.727713 -0.354662 5.10089e-20)
(0.97238 -0.0046406 -8.59027e-21)
(1.15174 0.0754816 -6.02116e-20)
(1.05667 -0.0847782 1.45053e-20)
(1.00803 -0.00154648 1.0268e-21)
(0.525828 0.0784703 -6.18949e-20)
(1.02016 -0.0634743 -1.49033e-21)
(1.0039 -0.00269817 0)
(1.01315 -0.0411054 1.2426e-21)
(1.01874 -0.0617203 1.25485e-21)
(-0.0215264 0.026693 0)
(1.20234 0.0409067 3.86329e-20)
(1.0122 -0.0150075 4.28528e-22)
(1.12959 -0.0399382 0)
(0.051542 0.0126298 6.72271e-20)
(1.03805 -0.0583171 0)
(-0.343357 -0.00307592 9.36759e-20)
(0.957657 -0.0439938 0)
(1.11405 0.0393364 2.59365e-20)
(0.0932602 0.0454576 0)
(1.0013 -0.00698429 0)
(1.09404 0.0588067 2.23785e-21)
(1.06663 -0.100001 6.14292e-21)
(1.10653 -0.0502061 0)
(0.676582 -0.822976 0)
(1.02259 -0.0628259 0)
(1.2631 -0.0791477 5.7316e-20)
(1.08953 0.0431398 -1.8123e-20)
(0.18403 0.0530434 0)
(1.04743 -0.00482954 1.05034e-20)
(0.27216 0.0113444 -2.49307e-21)
(1.10062 -0.0283461 -8.20232e-21)
(0.0451349 0.0222535 3.30754e-20)
(-0.29234 0.0020674 -1.83817e-19)
(0.249351 0.0078639 2.42878e-20)
(1.10622 0.0191556 0)
(0.990175 -0.0244612 0)
(1.02784 -0.0442414 0)
(0.999969 -0.00122587 0)
(1.07934 0.0324526 1.64453e-20)
(0.996989 -0.00298551 6.56918e-21)
(0.160651 0.0459275 2.72e-20)
(1.02929 -0.116421 3.55097e-21)
(0.925472 -0.0883917 0)
(0.889268 -0.0544176 5.0275e-20)
(0.981377 -0.0707963 0)
(1.01752 -0.0156608 0)
(1.06745 0.0171533 0)
(1.06364 -0.0858081 -8.31329e-21)
(1.06488 -0.0098804 0)
(1.04341 -0.0972195 2.7275e-21)
(0.302882 0.0472583 0)
(1.09673 0.0589809 0)
(1.0977 -0.0198249 -1.5945e-20)
(1.11383 -0.151455 0)
(0.555912 0.0782872 3.04181e-20)
(0.971115 -0.0426997 1.50489e-20)
(-0.12164 -0.0046567 -3.62804e-20)
(1.01973 -0.0063315 3.09522e-21)
(1.03047 -0.140554 0)
(0.959549 -0.0257425 1.49144e-20)
(1.02359 -0.0285216 3.69011e-21)
(1.07837 -0.165362 3.55006e-20)