/*--------------------------------*- C++ -*----------------------------------*\
| =========                 |                                                 |
| \\      /  F ield         | OpenFOAM: The Open Source CFD Toolbox           |
|  \\    /   O peration     | Version:  v2012                                 |
|   \\  /    A nd           | Website:  www.openfoam.com                      |
|    \\/     M anipulation  |                                                 |
\*---------------------------------------------------------------------------*/
FoamFile
{
    version     2.0;
    format      ascii;
    class       volScalarField;
    location    "100";
    object      ddt0(omega);
}
// * * * * * * * * * * * * * * * * * * * * * * * * * * * * * * * * * * * * * //

dimensions      [0 0 -2 0 0 0 0];


internalField   nonuniform List<scalar> 
37809
(
-0.00322106
0.0555178
1.94617e-07
-2.06125e-05
0.156897
-0.00051275
-0.000163297
0.000390643
-0.418765
0.042518
-0.00058307
-3.80852e-06
-1.40881e-06
-8.12246e-06
-0.0766969
3.88797e-05
-2.4647e-07
-0.060643
8.99226e-06
-0.000220721
-0.000233797
-0.000180712
-0.142475
6.58143e-07
-0.000171125
0.334122
-0.971336
-3.35794e-06
8.68659e-08
0.000920247
0.00377226
-0.221506
6.34131e-07
0.00679499
-4.66382e-06
-2.23309e-07
-2.41038e-06
1.13377
0.00076332
-0.00149028
0.0246329
0.122612
0.20259
0.145447
-7.46714e-06
-6.90966e-05
0.000787024
-0.0492652
-0.921685
-0.000111802
-5.66842e-06
3.26485e-06
-1.68585e-07
1.46197e-05
0.258919
-6.08665e-08
2.72147e-05
-2.65555e-05
0.000568867
0.249803
0.0456263
-9.88176e-08
2.15299e-06
0.00143343
0.00373167
0.00109989
-0.0609313
1.05355e-05
-1.7716e-05
0.198812
1.35884e-05
-0.281406
-5.85235e-06
1.98546e-06
-3.83274e-06
-1.49964e-06
-0.00143363
0.000449593
-0.00383847
0.0018365
-1.72964e-06
8.78949e-08
0.0235357
-2.48246e-05
4.78776e-06
0.178232
8.23771e-06
-0.752827
7.11102e-06
3.19073e-05
1.11538
-0.148506
-1.35204e-05
0.0184629
1.05152e-05
0.0582756
-5.88965e-06
-6.01663e-06
0.343011
-1.13094e-07
0.363525
-6.00047e-06
0.00137465
-0.0399783
-0.995182
7.74569e-09
-0.000867385
0.00174029
0.0037561
-2.60624e-06
-0.000138569
-3.42743e-05
0.000430566
1.9793e-05
2.83942e-05
0.000671351
-8.68243e-06
-4.26762e-07
-0.000381335
-0.230578
3.22948e-10
1.85071e-08
8.57842e-05
0.139636
0.117952
-9.45494e-06
0.00116885
-2.92884e-06
3.24587e-05
-1.78489e-05
0.00613832
0.00188454
1.1681
5.6067e-07
0.00506955
-6.56745e-07
-5.68156e-06
-4.03939e-07
-0.977839
0.26649
-4.29219e-06
-0.701992
-1.17506
0.0129221
-6.40712e-06
-0.0886489
-1.71395e-05
4.31797e-06
0.0273986
-4.44415e-07
0.27783
-1.71774e-05
-0.000347302
0.00670875
0.00026086
-3.17624e-07
-0.50375
0.00444681
1.4752e-05
-0.728559
3.00978e-05
0.00111753
0.00622931
0.113471
5.01301e-07
-1.14348e-06
2.75571e-06
0.204362
0.000947738
0.000202086
0.0277728
-1.67436e-06
-0.0707672
-1.07268e-05
-1.92525e-05
4.34778e-05
-0.97301
3.00713e-05
-0.031862
-0.000280075
-0.214386
-5.09762e-06
-1.00818e-07
-8.94778e-06
-5.11847e-07
0.0053813
-6.30208e-06
-1.12275e-05
0.223468
0.353825
-0.000111963
-6.0347e-06
-1.10852e-05
-0.0844088
-0.00397621
0.00510655
1.34042e-06
4.85037e-07
-1.71211e-07
1.59755e-05
0.658951
-0.000731992
-0.0978694
0.00119034
0.585649
-6.74377e-07
-1.30121e-05
-2.03073e-05
2.83074e-06
-0.000456464
-2.71519e-05
0.152228
-1.68229e-07
-2.36267e-07
7.17665e-07
-0.679428
-0.000663043
2.65548e-06
-2.2659e-07
0.00177065
0.0292451
0.00490239
-8.83497e-06
-3.7246e-06
-1.46592e-06
-0.0611306
-0.0564853
0.000841322
7.48718e-06
0.556005
-9.28606e-06
-0.000500251
0.00505557
1.02227e-06
0.043956
-0.472237
-7.92703e-07
-0.060134
-1.7158e-07
-0.00185182
0.0164209
-1.68594e-06
0.503306
-0.949372
-7.4295e-06
1.93659e-06
9.34034e-08
-7.52236e-07
9.22196e-05
-1.95774e-07
1.41357e-07
6.56966e-07
3.92939e-07
0.229173
-9.19787e-06
-9.8533e-06
6.45806e-07
3.80309e-08
0.00591398
-8.13133e-05
0.00604414
-1.1084e-05
0.304038
5.94285e-07
6.78946e-05
-0.000236199
0.000843375
5.58959e-05
6.32402e-07
0.00360396
1.00083
5.63631e-07
0.112551
0.631447
5.78104e-07
-0.001766
0.00210191
-1.05247e-06
0.213753
6.87559e-07
-4.76401e-06
-0.592751
0.155827
6.71976e-07
-0.000757964
1.94853e-06
-5.84883e-06
-4.44017e-07
-9.86194e-06
0.0745262
2.51268e-06
4.34321e-05
0.420798
-1.2351e-07
-4.31404e-06
-1.29111e-05
0.00199117
-0.0226223
-8.58311e-06
0.0715236
4.46264e-05
-0.34937
-1.42957e-06
0.0134827
0.0211057
-1.79128e-05
2.15744e-07
1.92756e-05
0.0197751
-1.52508e-06
-0.000291721
0.245593
0.143442
-0.000147451
6.18408e-10
-0.0470044
4.83765e-06
9.03967e-06
-0.12713
2.66866
0.000942759
0.00310183
-1.03074e-05
1.79922e-05
-1.83184
1.41482e-05
0.0440556
-1.23936e-07
2.06822e-07
0.0024846
-7.93769e-07
-5.50899e-07
-5.1165e-06
0.00102517
5.42944e-07
3.88879e-07
-0.000417656
8.0581e-06
1.75201e-07
-0.000189186
-5.22858e-07
1.35804e-06
0.00561789
0.22793
-2.86461e-05
0.00157909
-0.0559936
-9.89361e-07
-0.151464
-1.7217e-05
0.00493382
-0.00114236
-2.37779e-06
1.09783e-05
-2.29762
0.395038
-3.51795e-07
0.00173074
1.11623e-06
-0.115949
-0.660533
3.15152e-05
0.0330164
-0.0674814
0.127703
-0.0553168
5.00919e-06
4.065e-05
-1.52383e-05
1.51628e-06
1.08909e-06
1.06459e-05
-0.000536559
0.245245
-0.000410433
1.06124e-06
0.000282516
1.40163e-07
0.321632
0.0103593
-5.99699e-06
5.92658e-06
0.532075
0.000101094
0.00126792
-8.30078e-05
0.443762
1.93869e-05
0.080018
7.65053e-07
3.90862e-07
0.147647
1.82968e-07
-5.18975e-06
3.75903e-05
1.38513e-06
0.0844602
0.00177034
-1.16707e-05
2.10618e-07
-0.0547477
-0.000391484
7.43705e-07
-5.38071e-06
6.81111e-07
0.00124966
-1.51011e-06
-0.0610355
-0.0270172
-0.0558343
7.07416e-06
-3.99627e-06
-0.000483619
-8.21516e-06
-1.92113e-06
0.123917
0.0019188
0.0546555
8.37591e-08
3.47398e-08
-0.0198042
0.000836158
-0.027341
-0.00589397
-3.45742e-07
-0.128623
-2.80335e-06
8.26574e-06
1.27538e-05
0.0730285
-8.49119e-07
-0.000158605
-1.91564e-05
1.9816e-05
-0.0265828
-9.79101e-06
0.597037
0.123994
-9.41799e-05
-7.62587e-07
7.22658e-06
0.0285531
0.000111411
-0.000272368
2.78521e-06
-9.34138e-07
0.00550673
0.00294082
-0.000211389
0.00359311
6.40597e-05
1.073e-06
1.99948e-05
7.37364e-08
-6.60351e-06
5.95936e-07
-2.36588e-06
-3.94272e-08
-0.0292562
-4.69092e-06
-8.59161e-06
3.01965e-05
-0.00364125
-1.4469
0.0820355
0.191001
-2.24666e-05
2.74167e-05
-0.00515428
2.87574e-06
7.67133e-06
-9.1058e-07
-9.8267e-07
-1.90433e-06
-0.000723781
-2.8942e-06
-0.000202838
0.0233053
-0.000292597
-1.69962e-08
1.34766e-06
1.74738e-06
-1.52255e-05
7.43415e-09
0.1565
2.44055e-06
6.81962e-05
0.00111599
-0.0449543
-5.29952e-06
0.0272422
-0.000431858
-0.00128373
-6.02697e-06
-0.000225781
-0.0152321
-7.15453e-07
6.82342e-05
-8.5857e-05
-7.40308e-05
0.00572923
0.00568817
-0.0326358
0.00276937
4.53711e-05
1.06466e-05
0.00065669
0.235663
6.92725e-06
7.90087e-06
-1.78526e-06
-2.74015e-06
-0.0691065
9.62211e-06
-1.76662e-05
-0.596268
-0.0219505
7.93338e-06
0.000662859
3.81196e-05
-0.00563991
0.00278626
-2.36671e-07
0.0571692
-1.98927e-05
3.07575e-05
0.00663616
-0.19162
0.00106343
0.00394133
0.0469234
-2.81492e-06
0.00577315
-0.000150017
6.98411e-09
1.38982e-07
4.81252e-06
0.0669262
2.74772e-06
-3.37824e-07
-0.00134745
3.03542e-05
-0.0935872
0.00420719
-0.00375604
-1.02138e-05
-7.10158e-07
0.822283
-0.000609456
5.34677e-09
-2.26198e-05
-0.000217007
-1.05499e-06
-0.00186126
0.0347897
-1.02292e-05
6.23649e-07
-0.00257769
0.0235157
2.44925e-05
0.00482947
0.706382
0.00183845
1.53224e-07
0.209077
-9.14206e-05
0.000332933
-5.72524e-06
-0.041005
-8.61809e-05
5.17253e-08
-0.178136
3.32057e-07
-9.56431e-06
3.09405e-06
3.31645e-07
-0.021635
-0.0470575
4.90235e-07
-1.05909e-06
3.21375e-05
3.26674e-05
0.00123274
0.00278075
0.138016
-0.0597006
-0.0604573
-0.0841469
0.119171
-0.0652637
-6.14524e-07
5.92961e-07
5.7749e-06
-0.147206
-3.44648e-06
4.03629e-07
6.39322e-07
0.0109715
-0.0774389
7.37918e-07
-1.01243e-05
1.21991e-07
0.295657
-0.000121515
0.00240174
-4.63257e-06
-0.000909443
-1.71443e-05
-0.000572918
0.000914349
-1.22071e-07
-0.0822573
-5.62499e-06
0.0010587
-8.68667e-06
9.37464e-06
-9.79479e-06
0.223775
-0.000618209
0.000428794
-3.05953e-07
-0.117273
-0.0493877
-1.01227e-06
-0.0893832
-0.000868779
-0.000557124
5.16213e-07
6.44527e-07
1.65741e-06
0.700182
-0.152321
-0.000455755
-0.0214917
-3.39981e-08
8.90259e-07
1.10607e-05
-1.97105e-07
9.78564e-07
0.0320862
1.8346e-05
-0.000363583
0.00272411
-1.21895
0.239349
-0.0124515
-0.00116242
2.59887e-07
3.72626e-07
-2.85487e-05
-1.04924e-05
2.66967e-05
-0.0096253
7.93425e-07
0.502411
0.00229341
0.0249744
-2.03699e-05
0.0221783
-0.000128908
-0.104854
-1.92097e-05
-4.05202e-07
-9.32521e-06
3.74425e-07
-1.74628e-05
0.0213426
-0.0110536
0.163968
0.000759595
-0.0591252
0.219975
-0.000117701
2.71797e-06
-0.105854
-1.16539e-06
1.35402
0.0632015
9.73773e-07
-2.00821e-05
-0.00307236
-0.0554189
7.06221e-06
1.63841e-07
0.0227564
0.627092
-0.00890187
-9.96725e-06
0.188563
9.75429e-06
0.0304828
-0.000117634
-1.10562e-05
-0.00022025
0.0523287
6.67029e-06
-9.71716e-06
-9.92238e-06
3.03019e-06
0.00549062
-0.0794375
0.190596
0.134603
3.02425e-07
-0.0664182
-1.83399e-05
0.000144825
-0.147298
-1.88416e-05
0.14371
-9.5104e-07
1.29137e-05
-0.0725111
0.325622
0.00391282
0.0365731
-0.480381
-0.000185859
-0.166286
0.00200557
-2.21053e-06
-0.0724547
-5.38515e-07
4.34048e-06
1.981e-05
2.84702e-05
-0.000118416
1.92647e-05
1.10179e-05
0.00396946
2.82094e-05
-4.37508e-05
-3.53606e-05
-0.00121995
-2.76624e-05
-1.66675e-06
-9.4722e-06
-9.94186e-06
-3.03382e-06
-0.015937
0.0585078
-2.42566e-06
3.19733e-06
-7.36103e-05
-0.0370736
1.23615e-08
3.73337e-05
1.172e-05
0.00101914
1.87341e-07
1.00797e-05
-2.77354e-05
0.00125618
1.91242e-05
-4.61683e-06
-1.12386e-06
0.0664097
0.0815438
0.391755
3.17227e-06
1.98581e-07
-3.14873e-08
3.80161e-05
-1.59121e-08
2.6591e-06
-1.9628e-05
-0.160229
0.000838359
0.0282447
8.54894e-07
1.80029e-05
-4.52847e-05
-0.188606
-0.000100762
-0.687909
0.256636
0.0147952
-2.20685e-06
-8.01278e-08
0.0141387
0.000620781
-0.000132939
-0.000454251
0.203771
-0.109376
-4.46522e-05
1.53063e-05
0.00492836
-0.0323999
-2.20871e-05
-0.154702
-0.000434094
0.182263
-0.370818
-0.0023401
-0.000472389
-3.99592e-06
-0.0127649
3.47338e-06
-0.0141352
-2.38172e-05
-6.59343e-07
1.00426e-05
2.52476e-07
-0.13113
-8.34713e-07
-0.000997873
6.38473e-07
3.16554e-05
0.00859521
5.40352e-06
3.29902e-06
-0.0294295
0.000293775
4.12366e-07
5.75299e-06
0.104025
0.000732492
-2.44657e-05
-0.000138106
-2.37142e-05
3.86204e-05
1.19568e-06
0.000911524
0.172217
0.163459
-0.0263231
3.61683e-05
-0.000974625
-8.83314e-05
0.00059086
4.71788e-06
0.0279142
0.173958
0.00258546
2.67939e-06
4.1425e-05
-0.000593512
1.07961e-05
0.0126998
-0.0503248
-0.00372459
2.06549e-07
-1.71046e-05
8.7079e-06
-1.95499e-05
0.131852
-9.86638e-06
0.0495006
-0.126095
1.50694e-06
-4.87182e-06
-0.000105433
-6.01101e-07
-7.15279e-05
0.0994482
-0.000177209
-0.000358447
-0.0204442
0.00110901
7.33862e-06
-1.25534e-05
-1.03791e-06
2.79663e-05
1.20352e-06
1.96148e-07
0.0651708
7.05056e-05
1.21403e-06
-8.72909e-06
4.29655e-07
-7.50909e-06
-6.7756e-07
0.00409019
-0.000412955
3.00064e-05
0.00601861
0.213933
-7.98433e-07
-0.00111194
2.40937e-06
-4.13844e-05
2.23435e-07
-4.71186e-06
-0.0201824
4.22056e-05
0.391867
-9.97593e-06
-5.46239e-06
0.125363
0.0608483
-1.35891e-07
1.48623e-05
-0.00722122
0.137251
2.0886e-07
0.155141
-8.71404e-05
-1.96338e-05
0.00248627
-5.7506e-06
0.675035
2.83026e-05
1.5811e-06
-4.65221e-06
-2.41221e-07
-4.8985e-06
2.84836e-05
-0.0471803
-0.0020875
1.23245e-05
3.46867
-0.00101368
0.0406008
-6.90594e-05
9.75039e-08
-0.00047111
0.17468
-3.04783e-05
-0.000184519
-1.81579e-05
-0.26125
0.00273838
3.91754e-05
-6.79534e-05
-1.24881e-06
-0.0274704
-1.71173e-07
-0.000208555
2.8725e-06
1.70153e-05
2.31171e-05
0.03707
4.48393e-05
-0.00112841
3.73537e-05
-0.00011578
-2.00846e-06
0.00573311
0.0036372
-7.52962e-05
-6.37806e-07
-0.00110863
0.0655196
-0.0171587
6.90841e-07
2.75923e-06
0.0111482
-1.61022
0.425286
-5.94563e-06
9.63276e-05
1.15788e-07
-0.000135771
-0.00855208
-0.0298072
-3.27449e-05
0.0027988
5.49247e-06
2.53169e-06
1.69266e-07
0.00120468
2.51405e-06
2.95785e-06
-6.34606e-06
0.00247114
-0.00601945
-7.71273e-05
1.1989e-06
-9.00308e-07
-1.97427e-06
-4.05223e-05
5.40002e-06
0.00158294
0.0612719
-2.19829e-06
-0.0131535
-4.84114e-06
-0.29827
0.0020458
8.50385e-05
-1.89867e-05
-8.56519e-06
-4.29845e-07
-0.0597972
-3.82918e-09
0.00117129
4.01041e-05
4.38908e-07
0.00272457
-7.12785e-05
5.26223e-07
0.689738
-0.000722456
-5.16679e-05
-1.65682e-05
0.046398
0.00116249
-0.0276135
-4.34622e-06
-7.40657e-05
0.00221868
0.204511
-6.14726e-07
-5.38846e-05
2.19716e-06
0.208741
-0.750268
0.00431042
0.173035
2.67505e-09
-7.04191e-05
1.6921e-05
0.18328
0.131907
-8.05861e-07
-0.00114599
2.68889e-06
8.93021e-06
1.69918e-06
2.44491e-06
-2.50696e-06
-2.27479e-05
0.145135
2.72581e-06
-1.50204e-05
0.00487505
2.51863e-06
4.3063e-09
5.78309e-07
0.00472944
-2.25436e-05
-0.0011327
4.96176e-06
0.000529136
0.00806481
1.70925e-06
0.0347984
1.96859e-05
8.10278e-05
0.0955883
1.70672e-05
4.41902e-06
0.00540271
0.00232606
1.45351e-05
-0.878932
0.000886309
0.00278552
3.97712e-05
-1.01727e-06
-0.00397972
0.000253357
-0.00316582
2.48552e-06
0.188493
9.29149e-05
-0.00193738
-0.000152698
-4.50539e-09
2.19121e-09
-2.40944e-06
-1.07072e-07
1.23462e-08
9.7309e-06
0.523375
3.21937e-05
-2.88924e-06
2.81975e-05
2.6333e-05
-4.8522e-06
-0.0258224
-2.13512e-06
0.000783332
-0.000155038
-5.01702e-06
-0.00460995
0.00198758
-0.000431578
0.0493958
0.00582659
-7.92679e-07
-0.000223104
-0.00132088
0.00146489
-0.00142022
0.00351427
-1.06092e-06
-6.55751e-06
0.0706637
-9.89631e-06
-0.0591541
0.00299093
0.00309235
2.66269e-05
2.77426e-05
5.69815e-07
-1.4047e-06
1.83407e-06
4.91534e-07
-7.65558e-07
-8.11094e-07
-0.023674
1.44056e-06
0.0637126
-6.7535e-07
-0.000285832
-0.0123708
3.52835e-09
1.34252e-07
0.00527368
0.186996
0.000277274
3.15499e-08
-0.119905
3.86745e-08
1.93686e-06
3.28717e-06
-0.56411
-0.820601
-0.00268659
-0.13942
0.0197637
-4.08075e-05
0.00742759
-2.06526e-07
4.03945e-06
-0.0325983
-0.158867
0.000969843
-0.0002669
-5.71882e-06
0.156685
0.00494325
-0.00431693
-7.95168e-07
0.00499446
-9.38627e-06
2.78395e-05
-3.00559e-05
-0.000200878
0.98928
3.73694e-05
-0.00176375
-0.0795855
0.142448
-5.51354e-07
1.40995e-05
0.586943
2.43081e-07
0.0216945
-1.75971e-05
8.73732e-06
-0.000113666
-0.000383195
0.0392437
-5.27961e-07
-4.17883e-06
-2.24206e-05
-0.00117914
-0.0152035
8.97001e-08
-0.0545382
-7.32731e-06
0.0188509
0.0559399
0.00149859
-1.57008e-07
8.68821e-07
0.00366583
-0.154929
-7.5609e-07
0.10035
-1.72181e-06
-0.0287098
-5.22211e-05
-1.942e-05
-5.52859e-06
-0.000291802
0.000733644
4.73631e-05
2.42059e-05
-2.3819e-08
0.0470195
-7.36772e-06
-6.39251e-07
-9.06356e-05
0.0206661
-0.0183843
-5.34785e-05
-0.169421
0.0459121
-0.000210019
-0.0109027
1.79028e-05
0.00414043
2.83869e-07
0.00284211
1.29734e-05
0.0438893
-1.28746e-07
-8.07393e-06
0.0020764
-0.000491672
-1.67302e-05
-1.33089
-7.23437e-07
-3.77833e-08
0.0876298
-1.32077e-06
0.00114516
-2.93744e-06
5.13812e-07
0.11977
0.00175799
0.00168164
2.65611e-07
-4.58219e-06
-0.00609951
-1.63032e-07
3.25228e-06
0.126481
0.0398716
6.67697e-07
-0.000371349
1.0266e-07
8.88335e-06
-0.000179797
0.0316193
-0.0581636
-0.000993492
-7.09736e-05
1.14116e-06
4.91008
-0.0044803
-0.000364801
-0.0537404
5.23793e-06
-0.00068036
0.00353544
1.33289e-07
-3.86967e-06
0.00352321
1.63665e-07
-0.0390041
7.77584e-05
0.0742088
-5.64365e-06
-3.67199e-07
0.0587186
-3.24402e-08
0.0897399
-0.0441472
-0.0994122
0.00188297
9.43931e-07
9.97897e-07
-0.0349535
2.24744e-05
3.80164e-07
-4.82574e-05
1.24369e-05
-0.024762
0.0750191
-1.93426e-06
-4.02436e-07
-9.0024e-06
-5.21912e-07
-0.0212451
-0.00280768
0.00618822
0.0867019
3.34757e-06
2.8834e-06
-1.29975
1.40219e-06
0.0012429
-7.83819e-05
-0.0527795
0.284479
-0.00011836
0.047267
0.0752393
-4.15711e-07
-8.4907e-06
0.00311527
1.05247e-05
1.83605e-07
-0.000102985
-6.96029e-06
0.00135043
0.322605
0.137923
1.34113e-06
-5.16973e-06
-0.0848053
-0.127472
0.108668
0.00545412
1.82923e-05
-0.00733741
-1.58762e-06
0.00680304
0.0240585
-0.000735151
5.8323e-07
-0.000575547
-8.30498e-07
-7.4601e-08
-4.12711e-06
4.35866e-06
9.51804e-06
3.15145e-05
-8.85081e-05
0.1041
6.5389e-07
-6.65795e-07
0.0104101
0.000130374
-0.000998254
-0.00475078
0.120993
-0.101506
-1.71088e-07
-8.77238e-06
-0.246432
-0.000117038
-0.00105465
1.81661e-05
-5.26413e-06
-1.36412e-09
6.65511e-07
-1.4453e-06
-0.000437407
0.469311
-1.43446e-08
-1.09329e-05
3.81866e-05
-9.53933e-06
-0.0467491
-0.000243313
0.000226458
-0.0558421
0.000155349
2.67478e-07
-0.003723
0.190395
0.000364504
-0.133432
1.02919e-05
-0.000106751
0.202331
0.000759533
0.000547439
4.51986e-05
-3.68586e-07
-0.197054
0.00323525
1.82524e-07
-4.98648e-07
-0.000282451
0.217493
-7.86775e-08
7.93012e-07
1.12126e-07
7.98656e-07
-1.34215e-06
0.0362399
-0.000128958
-3.77476e-07
-6.90767e-05
-4.65384e-05
-4.40844e-07
1.45085e-05
1.47391e-07
-1.09901e-06
-6.20354e-06
-0.000350858
-1.81926e-05
-5.99886e-06
-2.44032e-05
1.47692e-07
0.160403
5.50735e-06
0.0274409
0.00127691
1.0133
-0.000498498
-6.93871e-07
1.16843e-07
-4.06808e-06
3.73157e-05
-2.60914e-07
8.57162e-07
-0.0712806
0.172876
0.0495317
3.93061e-07
-0.00059563
-0.0334175
-5.85114e-06
0.00213895
1.7695e-06
0.0225504
1.00262e-06
0.00298397
-0.407143
-3.85938e-06
1.0457e-05
0.0534227
0.0272418
-0.000130967
-0.00200917
0.00563956
0.304176
-0.0581631
-0.0703614
4.02497e-07
0.0481497
0.0712874
-0.127646
8.00187e-08
-0.0339607
-1.50928e-08
7.0214e-08
-0.0550784
1.70619e-07
-0.00128703
-0.0811976
3.32342e-07
0.0857608
0.00070788
-0.168203
-0.000176482
-1.15552e-05
-1.73154e-05
-3.31389e-07
-2.54141e-06
-0.000109817
1.21156e-05
0.037013
2.32351e-07
0.292305
0.00813621
-0.000214123
-0.199808
0.000123868
5.61962e-07
-0.111
6.95749e-08
0.232517
-0.0382381
-0.033411
0.0322955
-0.00123049
-0.000437956
0.000749343
-1.87378e-05
0.0734904
-3.73941e-08
-1.11566e-06
-0.000488719
5.93107e-08
-9.93693e-06
0.0399506
-8.96643e-06
0.0119962
-8.55338e-06
2.46441e-05
-0.0623557
-3.39832e-06
7.61108e-07
0.000153878
0.0286888
-2.42559e-05
-0.000657372
1.00392e-08
-0.0339658
3.13659e-06
-0.0569654
-4.79239e-06
0.0939295
-0.0014071
0.00122503
-0.0291141
2.02032e-05
-0.00121036
1.23483e-08
-0.00278808
-1.07768e-05
-9.21937e-07
0.00245681
4.97263e-07
6.31604e-08
-0.0147261
-3.21537e-07
-0.0637327
-6.29853e-06
-4.23956e-07
4.61766e-08
4.27478e-05
0.0362796
-8.75698e-07
0.00958319
-5.04092e-07
-7.41468e-07
1.78688e-06
0.000100755
-0.00110228
-0.00156287
0.00896216
2.60191e-05
7.6017e-08
1.05869e-07
5.07773e-07
-2.60126e-05
0.0336221
-1.19899e-06
-4.01549e-06
-0.0574193
8.96447e-08
2.41274e-05
3.00819e-06
7.92075e-08
0.0171594
1.29529e-06
2.9293e-05
2.30007e-06
-5.58757e-07
1.21755e-07
0.0838706
-9.42692e-06
0.720784
-0.0964392
-0.000144376
-0.132609
-9.84574e-05
7.76851e-08
-0.0850394
0.502602
9.58013e-07
2.0279e-06
-0.000118021
0.000783255
-1.91056e-06
0.000305621
-7.44899e-06
7.99419e-09
-3.18248e-06
0.0780119
-1.11911e-06
0.00497477
-1.467e-05
-0.0284095
0.0120336
7.91953e-06
0.027648
-1.73952e-07
-0.0512414
-0.00564319
0.00298829
-0.000240811
0.00197707
2.35056e-05
-0.0218196
-0.00118946
7.22437e-07
-1.6765e-07
-7.98354e-06
0.00956517
0.000171863
0.00387076
-0.00504255
1.94435e-07
5.08179e-06
-0.0171049
-9.0185e-06
-0.186084
-7.18162e-05
0.0678831
0.000268271
-6.66634e-06
-2.31672e-05
-8.68307e-05
-1.12944e-06
5.06464e-06
1.05687e-06
-4.95368e-07
3.27859e-06
0.00115946
8.51833e-06
-1.56841e-05
0.00608375
-1.08053e-05
0.0412994
6.76474e-05
2.17033e-05
-0.0935449
-1.84323e-05
0.0013963
8.08921e-05
2.43343e-05
0.0226978
-0.0125525
5.80674e-07
-0.161126
-5.46883e-07
-0.149025
-1.10873e-06
-2.76226e-06
0.0976124
-0.00051955
-2.35247e-06
-2.22374e-05
-1.84642e-05
-0.000257068
-1.85039e-05
0.144094
-1.0345e-05
0.0051759
-0.820064
-0.000783145
-6.58661e-06
-8.65275e-05
-0.151476
2.51245e-05
9.38783e-06
-0.052618
-7.48314e-06
0.0120277
0.0692258
-0.000988991
-7.26946e-06
3.82098e-07
-0.0273579
-0.0070464
-0.597602
-0.000275509
-0.00119585
9.68228e-05
-0.00354632
-0.000470357
-0.0724402
-8.3093e-05
0.190433
-0.000118919
-0.00895584
2.03331e-06
-5.46814e-07
-0.00144711
-6.74057e-05
0.000832504
0.541988
-0.00022839
0.199942
0.188763
-0.000160242
2.99365e-05
-0.00143936
-1.64135e-06
0.00133215
8.64565e-06
-1.08593e-06
-0.277591
-5.44871e-07
0.000489569
1.67768e-06
1.92741e-07
1.30344e-06
0.211125
0.115104
0.0233256
-5.50503e-06
-0.00155496
-7.18355e-06
-0.0475145
-0.00573413
0.0153177
-6.66292e-06
-0.146162
-0.000426016
-6.54797e-07
-7.54047e-05
1.11949e-05
-1.90517e-06
-7.29878e-10
2.73051e-05
3.67541e-07
2.71267e-05
-9.99105e-06
-6.58299e-07
2.49184e-05
0.000137544
0.136358
-5.06429e-06
0.00037088
0.0363843
-0.0010117
-1.76958e-05
-5.42545e-07
-0.010105
0.0475589
-4.8695e-05
-2.08527e-06
0.00305178
-7.87006e-06
-0.000691558
-4.25839e-06
0.00996326
0.000919637
2.41879e-06
-0.0035657
0.0258986
-0.000284289
-1.85848e-05
-0.276365
0.000236767
0.0128932
-0.0727569
7.06652e-06
0.00173592
1.9946e-07
-0.00133697
-1.57494e-06
0.190759
2.68375e-07
-9.65815e-05
0.132917
2.75912e-05
9.62799e-07
0.0065665
2.11842e-05
-0.182743
2.25459e-05
-0.000584386
0.00500265
9.94252e-06
-1.75533e-07
0.0956355
-0.00506115
-4.24897e-05
-0.156848
-0.96275
-4.66082e-07
0.0059915
-0.000203589
-4.24259e-06
5.23025e-07
0.0160023
-0.0948106
0.239939
-4.28664e-06
-1.86004e-06
0.171684
-8.96601e-07
-0.000117482
0.140427
-0.0189303
-6.84943e-09
1.45108e-07
0.041673
-0.171255
1.17694e-06
0.00311861
0.251554
-0.017363
-0.0414761
2.6826e-06
-4.37223e-06
9.60292e-08
0.0774049
4.58848e-06
0.00392939
7.06037e-06
-5.59911e-07
-6.27406e-06
1.22155e-07
-0.000848903
2.01011e-06
0.415853
-2.63074e-05
-1.69897e-05
-0.115236
-0.000116787
-0.000416591
0.0080234
2.34031e-07
0.00465921
2.11097e-05
-0.0164332
-0.000569034
0.116487
-3.79176e-05
0.197334
6.36493e-06
1.21639e-05
-0.00462941
-0.00039812
6.99995e-07
-0.000626815
-0.00358452
2.74139e-06
-0.00025792
-0.0337418
1.26875e-07
-5.14708e-06
3.51873e-09
-2.49076e-08
-0.173075
-1.11942e-06
0.00239212
-0.00010137
-0.125108
0.00257468
-0.00435338
-1.4165e-05
-0.00463609
3.49889e-05
7.09856e-08
-0.000781377
-2.65138e-06
-3.73304e-06
0.414478
0.0236243
0.00193065
5.19599e-05
-1.99683e-05
-9.80405e-06
0.00583288
0.0177982
-1.59913e-05
-0.0587487
-1.79184e-05
-0.00158381
5.10294e-08
-2.36062e-06
1.6241e-07
0.000971204
-0.00091622
0.00840163
-0.0584771
3.7405e-05
2.10753e-06
-0.0966491
1.40949e-08
-0.00110177
1.0168e-06
0.00569906
0.160304
-0.104428
-0.00039941
0.0106063
0.261528
-0.174569
5.51124e-07
-0.350263
-7.07901e-07
0.00120988
0.568355
6.44351e-07
2.47689e-05
0.0264057
-1.40023e-09
-6.83812e-09
8.75837e-07
3.23071e-06
0.0001527
6.16011e-09
-1.87644e-05
-0.00373563
7.13934e-07
-0.82107
-3.33944e-06
-3.49385e-07
-0.0156427
-0.436136
0.854198
-0.00155466
-8.24822e-08
0.042575
1.81681e-05
-0.000238453
3.06842e-07
-7.78562e-08
0.172079
-4.10106e-05
-0.112189
0.000938797
0.003118
-3.22305e-07
-0.000129812
-0.529169
-1.54083e-05
0.00195582
-1.93539e-05
0.0361173
-2.41494e-07
0.000519194
-6.41473e-05
0.269151
1.28996e-07
-2.3089e-05
-0.00035843
9.78871e-07
2.69573e-06
-1.29313e-05
0.000864503
0.00157709
-6.37992e-07
5.94528e-07
5.41933e-06
1.50257e-05
0.00368018
1.28198e-06
0.000118112
0.00289743
-7.33875e-06
-0.538585
-0.154268
0.0238449
-0.134162
-0.00323502
-1.16363e-06
1.46123e-05
-1.60415e-06
-7.95219e-06
3.77989e-05
-0.223602
9.68126e-07
1.38959e-06
-2.27476e-06
-8.29704e-07
3.21524e-06
-8.1776e-06
-8.69007e-05
-3.35421e-06
-0.000945258
-0.78828
0.0170342
0.0341822
-4.44616e-07
0.149508
-9.18015e-07
-0.352324
-6.91594e-05
-1.82354e-05
2.51878e-05
-2.22513e-07
-1.58675e-06
6.19238e-08
-0.0597342
-1.65664e-05
-7.79154e-05
0.00268524
-0.000207574
-5.65332e-07
-8.45881e-05
0.0026043
-0.016985
-2.04124e-06
-1.65566e-05
5.5948e-07
0.0818871
0.00771309
-1.68817e-06
-8.61309e-07
0.0054748
-3.07589e-06
1.02725e-05
-0.000614072
0.0581316
-2.96186e-07
-3.34452e-06
-1.22247e-05
5.66986e-07
-0.00916635
-0.0252477
0.115298
1.48256e-05
8.49297e-07
0.00296013
0.0007318
-4.65596e-07
-3.81431e-07
-0.000587755
-2.06543e-07
-5.85642e-06
1.0612e-08
0.077959
-1.2103e-06
-2.53291e-06
2.8749e-05
2.83276e-06
2.46712e-06
1.55637e-06
0.0402533
-0.10736
-4.50241e-06
8.64673e-07
0.172247
-0.0722884
0.00538852
-1.37995e-06
-0.110469
3.96521e-05
1.07374e-06
0.0108578
-4.67517e-05
-1.89737e-05
0.159231
5.91064e-06
-0.494166
0.0176919
0.150369
0.000210782
3.52396e-05
1.14974e-05
-2.55648e-06
-2.05006e-07
-0.00143786
-0.0304152
3.01007e-06
-7.14712e-08
0.000535386
6.15827e-07
0.0297991
-0.312519
-0.0583574
-3.47845e-06
1.0864e-06
8.38089e-06
4.00219e-05
1.0404e-06
-0.00167139
7.4402e-07
8.98609e-07
-0.0507385
-0.0348894
1.30244e-06
0.0105594
0.0278837
2.54329e-06
-0.00195728
-2.05547e-05
-0.000111949
0.0249159
0.00387582
-2.29011e-05
-0.000127075
-0.13365
-2.39589e-06
-1.11278e-06
6.60029e-08
0.0878893
-0.652558
-0.000129434
-2.35973e-06
-0.0554734
0.00336189
1.67956e-05
0.001101
-0.14666
-0.117432
4.72497e-07
3.6411e-06
-0.000764408
-0.00524674
-0.124317
0.128273
-1.123e-07
1.81758e-07
0.213037
-1.42515e-06
5.58392e-07
1.13787e-05
-5.31993e-07
0.00170054
2.84348e-08
1.73736e-07
-4.10817e-06
4.10145e-07
0.0616207
0.50069
3.5597e-06
-1.00513e-05
0.0382112
-8.78717e-06
2.24703e-05
7.47706e-07
3.5418e-05
0.0104419
0.181631
-0.0346831
-0.000127529
1.88844e-07
-3.0741e-06
0.345358
0.00322717
2.61479
0.0024176
6.62816e-06
-3.05256e-08
-0.00908273
0.00281824
0.00185285
-0.0210458
-8.49814e-07
3.17608e-06
-0.0111272
0.0439188
-1.73039e-06
-7.31869e-07
-0.0725586
0.0276336
2.16648e-07
0.152504
-5.50831e-06
6.88373e-07
4.14744e-07
0.157481
-8.19324e-05
0.0041297
-0.0157134
-4.65158e-09
0.0126636
0.000702235
0.0163665
0.0053291
5.80287e-08
-0.0888478
-0.00483801
-2.75704e-05
-0.234557
-1.63566e-08
3.19071e-06
0.00110696
7.7215e-07
1.25802e-06
1.15688e-05
-0.00200965
-2.82511e-05
8.77734e-06
0.00284956
-0.000595627
-1.17485e-06
1.05255e-05
6.13506e-07
0.180033
-0.0510024
-7.73147e-05
-0.000564306
0.141387
0.00438517
1.03963e-07
0.00535811
6.50751e-06
2.90318e-06
2.10774e-05
1.2158e-05
4.32139e-08
-0.000602133
-1.03084e-05
3.52987e-06
-0.000848312
0.00228992
0.00212949
-1.06921e-06
0.143318
2.51947e-05
1.83057e-06
0.0496586
-6.82681e-08
0.00179835
0.000100988
-6.44784e-06
-0.0742753
-0.000966772
-5.80046e-07
0.0027319
-9.44542e-06
-1.97657e-06
0.0880389
0.00317233
-0.000854136
0.101866
-0.0497285
-9.56036e-07
-2.83924e-07
-4.18764e-07
2.14392e-07
-0.0406074
-8.85315e-05
0.0263109
-0.0916535
-0.000104434
5.25385e-05
-0.110135
-6.52604e-06
-0.0374648
-0.040528
-0.048014
-0.00133948
-2.63654e-07
0.00272681
6.91461e-06
0.00226891
-0.000828008
-1.7847e-05
0.0356069
-1.01707e-05
-0.0016841
5.97056e-07
0.0298883
-4.3663e-07
0.00542088
4.22945e-08
-7.33249e-05
-3.80021e-06
0.0902291
-4.02756e-06
6.57151e-08
0.00350328
2.13519e-06
1.08828e-05
-2.77368e-05
2.10622e-05
0.0117783
4.54337e-05
0.190548
-3.58696e-06
1.2112e-05
0.000901216
3.03943e-06
0.111434
-3.55916e-07
0.000750794
0.705248
1.47902e-07
-0.190783
1.5097e-06
3.84832e-05
-2.03681e-06
-2.7551e-06
0.183504
3.50084e-05
1.56075e-06
-0.0613497
-0.0252728
-0.0662907
0.0744971
0.00789158
0.00126
3.41426e-05
-1.05543e-07
-0.0221409
-0.00029808
-0.000184558
-0.150691
-0.000527589
-1.61497
-1.0867e-06
-1.85419e-05
0.000253358
0.0494535
1.09918e-05
-6.59071e-06
-0.0406076
-0.00578621
-0.0105623
0.0528901
5.28475e-06
-0.0686102
0.0390922
-0.0245186
-0.0708273
-1.44245e-05
-0.0564324
0.00713199
-5.91506e-08
-0.000132245
-2.31865e-07
0.122133
3.92297e-05
0.0448695
5.80363e-08
0.048562
-0.0186503
1.26728e-05
0.00120852
0.955511
-1.26504e-05
8.19784e-08
1.04799e-07
1.24913e-05
1.43886e-05
-5.98831e-09
-1.25847e-06
0.000779217
8.24504e-06
-0.000192899
0.105967
0.000510267
2.67885e-05
4.55915e-06
0.000258163
-0.162547
0.0311812
-0.000705181
-0.0956017
-0.00078473
-0.00234062
-1.88554e-06
0.00279202
2.66642e-08
-2.67926e-05
-3.64082e-07
-1.8478e-06
1.24746e-07
1.28701e-07
0.00441064
0.00470158
1.61507e-08
0.198971
-0.000157408
7.73991e-08
-0.130179
3.19159e-06
0.0193037
-1.94055e-05
-1.16726e-05
6.54437e-08
0.0023962
3.47849e-05
0.0631511
-2.9879e-07
0.00366388
-0.00101773
5.13153e-07
-9.29819e-06
3.33804e-06
-2.17138e-06
0.0416259
1.02191
-1.10696e-05
1.69432e-05
-0.000190846
0.000684762
7.1304e-08
-0.00083074
0.000574457
1.08116e-06
0.222063
5.91898e-07
-1.95512e-05
-0.136127
-1.00761e-05
6.79195e-07
2.97605e-06
-0.000702829
-7.38119e-05
0.594503
3.29188e-06
0.260573
1.31152e-05
1.35213e-07
0.00983822
0.635513
-0.0452318
0.139628
-0.00351129
0.000222104
0.0949752
-0.000204408
-1.16887e-07
3.02946e-06
-0.0598128
-0.0998915
0.0315433
1.95913e-07
1.69174e-07
-1.44575e-05
-2.37093e-06
-0.0823679
-2.48406e-06
0.00449006
1.162e-05
1.80984e-05
6.24234e-07
-0.0268472
0.0181638
2.03793e-05
1.01894
1.08194
-3.20072e-06
5.14075e-06
-0.0276224
1.98619e-06
-0.0433584
0.0012626
-2.94035e-07
-1.85691e-05
-9.46084e-07
0.235453
0.0752062
0.0512247
-2.00414e-05
-0.000209962
-0.00962897
-0.00143136
-1.9811e-06
-0.112618
-3.78931e-06
-3.02269e-06
0.667712
-8.99251e-05
-2.78641e-05
0.00231221
-1.4359e-07
-1.65756e-05
-8.5282e-07
1.4626e-06
-0.176635
0.130609
2.21603e-07
2.058e-05
-0.00492752
0.0253657
-0.140039
0.090033
0.00198599
0.137465
7.25812e-07
0.121247
-1.85994e-05
-1.15962e-08
-0.000482982
1.00509e-06
-0.004958
0.0020344
-2.25301e-05
5.28502e-07
0.0347468
-9.59856e-05
1.16142e-05
2.39122e-05
-0.000266477
-4.39979e-05
-1.09569e-06
-0.159553
3.12371e-05
2.47544e-05
0.000530297
-0.0115972
-9.00866e-06
1.59542e-06
-2.95631e-06
-1.12869e-05
5.68113e-06
-0.00743692
-0.0296314
-8.9177e-05
-2.19584e-06
0.0023931
-6.88245e-05
-1.80505e-05
-3.55009
0.781044
-0.316479
8.57152e-07
-0.172095
-0.00620478
-1.41361e-05
-3.6908e-07
-1.19435e-06
1.02211e-05
-0.0168046
-4.37576e-06
-1.58328e-07
-1.28887e-06
-0.000121394
0.0282004
0.000160262
1.05724e-08
0.00280566
0.0964856
0.666329
2.19977e-07
-0.00545365
9.782e-06
-1.38016e-06
-6.08897e-06
-0.000188952
0.000836894
0.490862
0.00930657
-4.50662e-07
0.066729
4.20008e-08
1.19717e-08
-0.0020141
-0.00436865
-3.54026e-07
-0.0759522
1.33453e-05
0.00435175
-0.093511
0.000687131
1.12042e-05
9.12374e-08
0.277224
-5.47024e-07
-1.06175e-05
-1.17035e-05
4.45068e-07
0.0233203