/*--------------------------------*- C++ -*----------------------------------*\
| =========                 |                                                 |
| \\      /  F ield         | OpenFOAM: The Open Source CFD Toolbox           |
|  \\    /   O peration     | Version:  v2012                                 |
|   \\  /    A nd           | Website:  www.openfoam.com                      |
|    \\/     M anipulation  |                                                 |
\*---------------------------------------------------------------------------*/
FoamFile
{
    version     2.0;
    format      ascii;
    class       volVectorField;
    location    "100";
    object      ddtCorrDdt0(U);
}
// * * * * * * * * * * * * * * * * * * * * * * * * * * * * * * * * * * * * * //

dimensions      [0 1 -2 0 0 0 0];


internalField   nonuniform List<vector> 
37809
(
(0.00199171 0.000692491 -3.34939e-22)
(0.0351269 0.00168614 -6.50243e-22)
(1.52987e-05 0.000206383 1.15481e-22)
(0.000644942 -8.65524e-05 2.36287e-22)
(0.0177814 -0.017964 1.47937e-22)
(-0.0010241 -0.000592009 -1.47056e-22)
(0.00160624 0.00212193 2.74676e-22)
(8.69862e-05 0.00309894 7.37802e-22)
(-0.0342528 -0.000230634 0)
(0.00170803 -3.51052e-05 2.65791e-22)
(-0.000101536 0.000797804 4.44355e-22)
(0.00012904 0.000428661 4.21966e-22)
(-3.8698e-05 0.000353609 0)
(-3.08724e-05 0.000373588 0)
(-0.00666912 0.00107145 -4.79921e-21)
(0.000485031 0.000363997 7.34538e-22)
(6.27712e-05 -1.44704e-05 4.07736e-22)
(0.0246879 0.00825095 0)
(0.00030414 0.000110572 1.70069e-22)
(0.00154968 0.00177365 0)
(-0.000274441 0.00169471 -2.90856e-21)
(-0.000230973 0.00167781 2.25814e-21)
(0.0128638 0.0119706 0)
(6.43819e-05 5.29126e-05 5.50208e-22)
(0.000895985 0.0012309 3.91076e-22)
(-0.0220803 0.0154763 -1.34825e-22)
(-0.00352892 0.0111845 9.71338e-22)
(4.36538e-05 0.000326703 0)
(1.02174e-05 0.000116115 0)
(0.000102661 0.00322218 -1.65928e-21)
(-0.00164624 -0.00876423 0)
(0.0228208 0.00105514 0)
(6.18768e-05 4.00348e-05 5.1529e-22)
(0.0015725 0.00333987 1.40044e-21)
(-4.70931e-05 -0.000258952 0)
(6.35834e-05 -6.67106e-06 0)
(1.03668e-05 -0.000234906 -5.49389e-22)
(0.00787421 -0.000625236 1.47514e-21)
(0.000467479 -0.00364328 1.18853e-22)
(-0.000994519 0.00103265 -3.06932e-22)
(0.00635724 -0.00624553 -1.01737e-21)
(-0.0161666 -0.000465604 -6.18417e-22)
(-0.0112662 -0.00283323 -4.05995e-21)
(-0.0067483 -0.00072682 3.40263e-21)
(0.000207975 6.59597e-05 -1.02366e-21)
(-7.44094e-05 -0.000968333 -3.91935e-22)
(-0.00634662 0.00323569 -2.87435e-22)
(0.0305666 -0.0263714 0)
(-0.0137186 0.01205 -5.16182e-22)
(0.000838025 0.000308787 0)
(0.0002007 -0.000449202 9.81078e-22)
(7.64583e-05 0.000219532 4.5528e-22)
(0.000107078 9.33713e-05 -1.14846e-21)
(0.000359129 0.000160183 -6.76107e-22)
(-0.0224919 0.00101115 0)
(0.00010268 9.76658e-05 1.08949e-21)
(0.000642406 0.000623335 0)
(0.000150413 -0.000912688 3.0514e-22)
(0.000116128 -0.00339688 1.77919e-22)
(0.0253887 0.00666301 -8.75433e-22)
(0.0131134 0.00105067 2.30335e-22)
(-2.75538e-05 0.000253401 0)
(-5.71616e-05 0.000336352 0)
(0.00240079 -0.00427411 -7.33647e-22)
(-0.0020716 -0.00877727 0)
(0.000993435 0.00123926 3.45471e-23)
(-0.000376387 0.00279218 -4.47265e-22)
(0.000318807 0.00011592 1.27951e-21)
(-0.000136001 -0.000519257 1.04277e-21)
(-0.0129766 0.0295302 1.40105e-21)
(0.000501901 0.000329214 0)
(0.010661 0.000212629 0)
(0.000138685 0.000402628 0)
(-1.59818e-05 0.000362317 6.74848e-22)
(4.79532e-05 0.000333228 0)
(5.67928e-05 -0.000244575 1.57542e-21)
(-0.000877627 0.00109378 6.3949e-22)
(0.0020564 -0.000177358 0)
(0.00192522 0.000740701 0)
(0.0117173 0.00219401 0)
(0.000146624 0.000274283 -4.39305e-22)
(8.51965e-06 0.000110056 0)
(0.0265784 -0.00523674 7.02668e-22)
(0.000471233 -0.00138487 8.86048e-22)
(0.000212274 3.12768e-05 0)
(-0.0128052 -0.00216935 1.55478e-21)
(0.000268132 0.00011659 0)
(-0.00614199 -0.00608863 -2.44538e-22)
(-0.0015873 -0.00182042 -1.61454e-22)
(0.000448461 0.000866197 -1.91028e-22)
(0.0115092 0.000204473 0)
(0.00903948 -0.000942383 -1.29286e-21)
(0.000468258 0.00187616 -2.57199e-22)
(0.00206013 -0.00273813 0)
(0.000265458 0.000130412 -1.49962e-21)
(0.0260068 -0.0051601 0)
(0.000132454 0.000410694 0)
(0.000196673 -0.000471113 -1.00673e-21)
(0.0383291 -0.00105793 8.80611e-22)
(5.53112e-05 -9.73039e-06 -9.48728e-22)
(-0.0143527 0.0157398 -7.99018e-22)
(0.000188224 -0.000478486 -1.56245e-21)
(0.0021915 -0.00418581 3.80165e-22)
(0.0249076 0.00732538 1.61057e-21)
(0.00406079 0.00467776 1.16487e-21)
(1.63334e-05 2.05448e-05 -2.60029e-21)
(9.54246e-05 0.00329027 -8.08033e-22)
(0.00121859 0.000211749 0)
(0.00175765 -0.000871801 -1.07158e-22)
(0.000123956 0.000443034 0)
(0.00150062 0.00177424 -9.07007e-22)
(0.000446981 -0.00135144 -9.53089e-22)
(-0.000674913 0.00219639 -1.04347e-21)
(0.000295368 0.000202197 -8.76685e-22)
(0.000626828 0.000625088 0)
(0.000389235 -0.00352102 -1.02487e-22)
(0.000222791 4.9798e-05 0)
(5.78196e-05 0.000536065 -4.08706e-22)
(-0.00516723 -0.0213662 2.51129e-22)
(0.00846565 -0.00324279 -1.52213e-22)
(9.03784e-07 3.38616e-06 -1.74921e-21)
(0.000364435 0.000127469 0)
(0.0013843 -0.000872243 2.94666e-22)
(0.0168684 -0.0176288 0)
(-0.00398714 -0.000873739 1.00903e-21)
(0.00021801 5.79965e-05 0)
(-0.00680513 0.00156231 -2.07536e-22)
(0.000240571 -9.7761e-05 1.1222e-21)
(0.000408825 0.00083227 0)
(-0.000216735 -0.000450508 6.49578e-22)
(0.0167624 -0.00736435 1.5793e-21)
(-0.00846656 0.00880093 -1.59755e-22)
(-0.0275519 -0.00140549 -1.26931e-21)
(0.000101128 0.000189544 -3.91695e-23)
(0.0139405 0.00173861 0)
(5.77107e-05 -6.76692e-06 0)
(0.000208342 -0.000438255 0)
(-3.73704e-05 0.000258055 0)
(0.0234591 0.000512527 9.94095e-21)
(-0.00945661 0.0143197 1.56967e-23)
(-5.77411e-05 -0.000238696 -4.38257e-22)
(0.00975794 -0.0307516 -1.53627e-21)
(0.0155283 -0.00022044 -1.06442e-20)
(0.0063967 -0.0060379 -1.12545e-21)
(0.00014491 0.000390657 0)
(-0.00149576 0.0035143 -2.67536e-21)
(0.000516654 -0.000556304 -9.73195e-22)
(0.000143769 0.000202101 4.83483e-22)
(0.0261693 -0.00482876 -1.36859e-21)
(3.57176e-05 -9.13734e-06 -1.02116e-21)
(0.0427877 -0.000579432 9.03377e-22)
(-0.00023634 -0.000417544 0)
(-0.000252686 -0.000979964 -5.21943e-23)
(0.0128365 0.00612942 1.11703e-21)
(0.00529689 0.00262236 -3.05447e-23)
(3.72951e-05 -5.59781e-06 0)
(0.00286769 -0.0304236 5.91724e-22)
(-0.00563375 -0.0205319 -1.18391e-22)
(0.000366158 0.000165435 2.77001e-22)
(0.0145608 0.000510235 1.14209e-21)
(0.000389542 0.000834892 -1.85771e-22)
(-0.00223203 0.0161242 4.04529e-22)
(0.000421883 0.00409553 -1.11576e-21)
(0.000304549 0.000342243 -1.8652e-23)
(1.72731e-05 0.00019429 -2.66609e-22)
(-5.37504e-06 -0.000121342 1.04193e-21)
(8.76599e-05 0.000192902 -1.39939e-21)
(0.00425662 0.00127939 1.25701e-23)
(0.00141949 -0.00364686 1.02575e-23)
(0.00480579 0.00261109 0)
(-0.0209643 -0.013717 5.88522e-22)
(0.000138837 -3.99453e-05 0)
(-0.00763555 -0.00392116 1.81627e-21)
(0.000515476 7.48917e-05 -7.31376e-22)
(-0.000140188 -0.000531938 0)
(0.000431099 0.000411319 9.23415e-22)
(0.00664848 0.00568313 0)
(0.000425918 0.000861079 -6.93865e-22)
(0.0245401 -0.00496834 0)
(0.00143494 0.000507206 0)
(0.00749063 -0.002988 1.24347e-23)
(0.000363363 -1.25337e-05 1.10563e-21)
(0.000106933 0.000102349 1.05664e-21)
(0.000131597 0.000214671 0)
(-3.24786e-05 -5.01583e-05 1.23205e-24)
(0.000163909 -0.0153564 -8.72469e-22)
(0.000367016 -3.64688e-05 0)
(0.000723039 -0.00105729 6.06796e-22)
(-0.00462601 0.0146661 1.80553e-23)
(-0.0127061 -0.000611959 -2.64836e-21)
(0.000808681 0.00030401 2.61128e-22)
(0.000139587 0.000397151 0)
(0.000194554 0.000141416 -1.85864e-21)
(0.0014128 -0.000594295 1.47259e-22)
(-0.00240811 -0.000430797 0)
(-0.000590512 0.00318536 -9.80636e-22)
(7.34516e-05 0.000471511 0)
(-3.07329e-05 -1.16491e-05 0)
(0.00010149 5.94193e-05 0)
(0.000512786 0.000331457 0)
(-0.0146969 0.000973404 1.1877e-20)
(-0.00019125 0.000817642 0)
(-0.00683538 0.00145588 2.28043e-21)
(0.00143426 0.000479504 0)
(-0.0295659 -0.00223334 0)
(-3.14391e-05 -6.34526e-05 -1.28676e-21)
(0.000530154 7.59525e-05 -1.30689e-21)
(0.000933353 0.00150245 7.41165e-22)
(8.6071e-05 0.000212272 9.13911e-22)
(-0.00271836 0.00198781 1.73436e-24)
(0.000872279 0.00152032 -4.53717e-23)
(0.0357494 0.0020202 0)
(9.30995e-05 1.19935e-05 1.01071e-21)
(8.78296e-05 0.000547754 1.28837e-21)
(0.000130032 0.000378742 0)
(-0.00625832 -0.00433775 1.17925e-21)
(-0.000398714 0.00163015 0)
(0.000179965 -0.00010034 0)
(9.32048e-05 8.83076e-06 -1.29506e-21)
(-0.00923493 0.00650706 2.83648e-22)
(0.00253905 -0.00223918 9.17433e-22)
(-5.10053e-05 0.00284139 0)
(0.000213625 7.94412e-05 0)
(0.00037229 5.96236e-05 2.0614e-23)
(0.000143272 0.000282051 0)
(0.0383101 -0.00310498 6.39451e-22)
(0.0144581 -0.000631198 5.48375e-22)
(-0.00632239 0.00181133 3.07333e-22)
(-0.000123403 0.000717845 -2.32558e-21)
(-0.00843983 0.0156441 0)
(0.000140897 0.000206061 0)
(0.000564911 0.00232706 3.29222e-22)
(-0.0012887 -0.0135166 -1.22422e-21)
(-1.45794e-05 0.000240769 5.40927e-22)
(-0.0233072 -0.0148248 -9.00377e-22)
(-0.00547977 -0.00537028 2.42724e-22)
(0.000108543 -4.05472e-05 2.67311e-22)
(0.0343269 -0.00544992 0)
(5.59116e-06 0.000196929 2.56389e-22)
(-0.00130667 0.00102377 0)
(0.0341373 -0.0206695 2.71666e-23)
(0.000136836 -2.23069e-05 0)
(0.026624 0.00326051 1.99877e-21)
(0.00934112 0.00217898 -5.0382e-22)
(0.000213669 4.12132e-05 9.39712e-22)
(4.13047e-05 5.80623e-05 0)
(5.55115e-06 0.00010815 0)
(1.07205e-05 -5.19312e-05 4.71449e-22)
(0.0045362 0.0028005 -1.82725e-22)
(-3.69457e-05 -3.69784e-05 0)
(-7.58089e-06 4.16318e-05 -8.1706e-22)
(6.21126e-05 2.98837e-05 -5.41085e-22)
(6.42173e-05 -9.10701e-05 -1.61012e-21)
(-0.000477417 -0.0178629 0)
(0.000204094 4.17963e-05 1.49702e-21)
(0.000214002 7.70896e-05 0)
(-3.03419e-05 -8.94756e-06 0)
(2.29475e-07 -8.62177e-05 -1.04728e-21)
(0.00158623 0.00384885 8.64566e-22)
(-0.0225746 -0.00185432 -1.09822e-21)
(0.0128412 0.00559034 0)
(0.000197547 0.000119527 2.02336e-21)
(-0.0179129 0.00166221 -9.96601e-21)
(0.000373712 0.000136484 0)
(0.0130644 0.000729658 -2.97981e-22)
(0.00139076 0.000667802 1.51997e-21)
(-0.00674152 0.00359404 5.73788e-22)
(0.00132315 -0.00085941 -1.29558e-22)
(6.74207e-05 0.000493878 0)
(-0.000577897 0.00312077 7.46754e-24)
(-0.0284572 -0.000784402 0)
(0.000122279 0.000388986 0)
(0.0219215 -0.0147783 -1.52691e-21)
(0.0213001 0.00973619 0)
(6.01374e-05 1.56417e-05 5.21264e-22)
(-0.00118393 0.000207423 3.48511e-22)
(0.00161617 0.00321982 -1.54031e-21)
(4.69265e-05 1.65046e-05 4.46507e-22)
(0.0270102 0.00557921 -9.19511e-22)
(1.92638e-05 -8.10663e-05 0)
(0.000224478 -0.000350939 -5.40579e-22)
(-0.0302672 -0.000547762 8.52514e-22)
(-0.00342179 -0.000714687 0)
(6.69202e-05 7.38034e-05 6.55395e-22)
(-0.00177593 0.00913942 -4.20696e-22)
(5.67799e-05 7.84119e-05 0)
(0.000144732 0.000390962 -2.9669e-21)
(7.20661e-05 -6.8929e-05 0)
(0.000209443 6.76512e-05 -2.04125e-21)
(-0.00940952 0.0276972 -6.51249e-22)
(6.32765e-05 3.7646e-05 0)
(0.000405127 -0.0020588 2.16231e-23)
(-0.00155481 0.00022799 0)
(0.000103676 8.99683e-05 -3.65553e-25)
(0.00023568 -8.91288e-05 1.10398e-21)
(0.000707597 -0.00101384 -7.65668e-22)
(-0.0102579 0.00562606 0)
(-0.00173635 5.14159e-05 -1.37637e-23)
(0.000212785 3.58021e-05 1.32161e-21)
(0.0010326 0.00467124 1.90254e-22)
(0.000434355 -0.00200018 -1.53983e-24)
(0.0228901 0.000983505 2.09577e-21)
(6.51868e-05 -0.0002447 -1.26081e-21)
(-0.0181086 0.00403541 7.29034e-22)
(0.00192319 9.58266e-06 0)
(0.000572781 -0.00137429 -8.85198e-23)
(6.25567e-06 0.000219354 2.38632e-21)
(0.000504052 0.000331975 1.09402e-21)
(0.00636148 -0.00616342 5.82562e-22)
(0.000136201 -1.16423e-05 0)
(-0.00218675 0.0058576 0)
(0.00153454 -0.018339 -3.74401e-22)
(0.0391454 0.000954411 7.23617e-24)
(0.0010357 0.000362632 1.38678e-21)
(1.48349e-06 4.58696e-06 1.62477e-21)
(0.0127991 -0.00293531 0)
(0.000139853 0.000225771 -1.61476e-21)
(0.00030958 0.000120859 -1.74734e-22)
(-0.00171242 0.0048725 -2.99332e-21)
(-0.0283483 0.000908114 0)
(0.00382795 -0.00116183 -4.85621e-22)
(9.65373e-05 0.00281696 -6.76286e-22)
(0.000904193 0.000913009 3.94031e-22)
(0.000486877 0.000332389 9.24103e-22)
(0.000870305 0.000803677 -1.46781e-21)
(0.000165094 0.00168871 -1.77382e-21)
(0.00178715 -9.19414e-05 0)
(5.75464e-05 0.000490165 0)
(9.79194e-06 0.000202248 -5.52261e-22)
(-0.0148512 -0.00840058 -1.28178e-22)
(0.000110197 -3.45717e-05 2.39307e-21)
(-6.06955e-05 -5.07589e-05 1.85105e-21)
(0.000229609 -0.000336449 2.60653e-21)
(0.00128617 0.000203681 -2.24518e-21)
(7.5307e-05 -1.64763e-05 5.39798e-22)
(0.000106691 0.000191308 6.60277e-22)
(-0.000380459 -0.000904237 9.21622e-23)
(0.000307211 0.000123851 0)
(6.15487e-05 -5.13194e-05 -1.10879e-21)
(0.00138838 0.00155003 1.16853e-22)
(6.9455e-05 6.50965e-06 0)
(-3.21476e-06 0.000364262 0)
(0.000636681 0.00404975 0)
(-0.0118375 0.0295157 -7.41913e-22)
(0.000737021 2.06208e-05 9.23929e-22)
(-0.0154139 -0.00792133 1.54869e-22)
(-0.000996817 0.00470091 1.76629e-21)
(4.15233e-05 3.54833e-05 9.34732e-23)
(0.00295924 -0.00211153 -7.90908e-22)
(0.000520438 -0.000576679 0)
(-4.50985e-05 0.00279495 0)
(0.000650184 0.00239516 -1.56834e-21)
(0.000123311 0.000448126 4.85042e-23)
(0.000312939 0.000101032 0)
(-0.0444791 0.00108916 3.91472e-22)
(-0.0146084 0.0144766 2.37501e-22)
(-3.49127e-05 -4.74329e-05 -2.60178e-21)
(-0.0089904 0.00727053 -3.4915e-22)
(7.35368e-05 0.000459755 0)
(0.0135076 0.0102125 3.78663e-22)
(0.0136897 0.00343928 -8.48799e-22)
(0.000521091 0.000416561 -8.87556e-22)
(0.00661277 -0.00181722 -4.01845e-21)
(-0.050106 -0.000289267 -2.5927e-21)
(0.0145905 -0.00260922 0)
(0.0387592 -0.0029817 0)
(0.000259973 0.00137749 1.97278e-21)
(0.000466463 0.0003729 -1.43757e-21)
(0.000579836 -0.000522379 1.38797e-21)
(9.4222e-05 0.000193428 -1.1989e-21)
(-1.55545e-05 0.000373805 -6.82521e-22)
(0.000490771 0.00185438 7.64372e-22)
(-0.00110889 -0.000485685 -7.96281e-23)
(-0.0310906 0.00058359 0)
(0.000292245 0.000996999 2.55434e-23)
(9.36599e-05 3.43485e-05 0)
(-0.00275196 -0.00164391 0)
(-4.03401e-05 -2.4448e-05 0)
(0.0408472 -0.000899691 0)
(0.000914368 0.00432466 1.17519e-21)
(0.000151095 0.000388937 2.17111e-21)
(0.000132216 0.000220627 1.30076e-21)
(-0.0272478 -0.00137347 3.21922e-21)
(0.00132553 -0.00127826 0)
(2.75927e-06 0.0029585 0)
(0.000739198 0.000427398 0)
(-0.0127344 0.0148046 0)
(0.000707019 0.000766578 6.51326e-22)
(0.00175917 0.00478323 0)
(8.72574e-05 1.6542e-06 -1.37162e-21)
(3.26425e-05 -7.91764e-05 0)
(-0.00449659 0.00169343 0)
(1.24943e-05 0.000179232 -8.33361e-22)
(0.000242 -2.9941e-05 -2.97082e-24)
(0.000392593 0.000414004 5.99483e-24)
(-0.00176083 -0.00183605 0)
(-0.0198886 -0.00156246 0)
(-0.000145224 0.00277932 2.02885e-21)
(0.000887047 -0.000481473 0)
(7.10629e-06 0.000196224 -1.85875e-21)
(0.0120866 -0.0032639 0)
(-0.00267411 0.00169754 -2.97112e-24)
(8.51437e-05 5.65813e-07 -5.88501e-22)
(0.000113742 0.000430431 0)
(4.23161e-05 1.55722e-06 1.68245e-21)
(0.00151743 0.00130951 -1.48342e-21)
(0.00013426 5.33321e-06 6.01165e-22)
(0.0351907 -0.00500856 0)
(0.0310896 -0.0256388 -4.43009e-22)
(-0.00895547 -0.00475316 -1.09865e-21)
(0.000172433 0.00171036 0)
(0.000918283 -0.000486383 2.05241e-22)
(3.77894e-05 0.000184068 -5.91604e-22)
(0.000135311 0.000194397 -1.16981e-21)
(3.66825e-05 -0.000252424 1.62475e-21)
(0.0255643 0.00488453 2.777e-21)
(-0.00016216 0.00279327 -2.12586e-21)
(0.00139688 -0.000142295 -5.20771e-21)
(2.39173e-06 8.59236e-05 1.56397e-21)
(5.47901e-05 -3.58164e-05 1.0245e-21)
(0.0073756 -0.00583592 1.09168e-21)
(0.00138286 -0.00348324 7.97432e-22)
(0.00261509 0.00119051 1.74227e-22)
(-0.0176357 0.00416748 -6.6037e-22)
(6.96698e-05 -7.50513e-05 -5.78522e-22)
(0.0237987 0.00409144 -1.46972e-21)
(0.00037467 8.76221e-05 1.36074e-21)
(2.00505e-05 0.000968519 -1.06208e-21)
(0.000152012 0.000725056 0)
(0.00342543 0.00467369 -3.46886e-23)
(0.000196927 -0.000140821 -1.04589e-21)
(0.00141119 0.000716485 -4.67272e-22)
(0.000648026 -6.03015e-05 -8.32531e-22)
(0.000304881 0.00018634 -3.57862e-22)
(0.00786608 -0.00553658 1.38362e-21)
(0.000151508 0.000190304 0)
(0.0316975 -0.00130226 -7.91072e-22)
(0.022834 -0.0146699 1.3335e-21)
(0.000929971 0.000727499 -4.97424e-22)
(0.000110794 -2.14973e-05 -1.16946e-21)
(0.000273876 7.12292e-05 0)
(0.00307011 -0.000403778 0)
(0.00160924 0.000311632 -5.94686e-22)
(-0.000649156 -0.00145355 1.56137e-22)
(7.39383e-05 7.97583e-05 1.59383e-21)
(0.000189497 -7.55448e-05 0)
(-0.0229269 -0.00217157 9.9855e-22)
(0.0102599 0.00681886 0)
(-0.00049194 -0.00153494 4.72696e-23)
(-0.0140781 -0.00010782 9.66946e-23)
(0.000718343 -0.00184504 1.37644e-22)
(9.15403e-05 4.1566e-05 -5.16204e-22)
(0.000304328 0.000204308 0)
(-1.30537e-06 -8.35124e-05 1.09423e-21)
(0.000132343 0.000382174 8.19982e-22)
(6.35174e-05 6.35113e-05 0)
(1.72807e-05 -0.000244893 -1.08766e-21)
(5.54623e-05 -3.88653e-05 5.00716e-22)
(0.0155448 0.000275445 1.26919e-22)
(0.000161694 0.000320026 1.1133e-21)
(0.000202726 8.00044e-05 2.45543e-22)
(0.000525403 0.000410101 7.4247e-22)
(-0.00220058 -0.000402548 3.45752e-22)
(0.00212022 -6.05585e-05 0)
(-0.00352671 -0.00241851 0)
(0.0325 0.00180564 1.40428e-22)
(-0.000153498 -0.000566792 5.07953e-22)
(0.000677506 0.000611483 1.14162e-21)
(0.0364128 -0.00300101 -6.8888e-22)
(6.50667e-05 5.31539e-05 0)
(0.000959421 -0.000781195 2.01561e-22)
(0.000192819 -0.000143662 9.14502e-22)
(4.22767e-05 3.27187e-05 2.29246e-21)
(0.000217542 -0.000130822 -1.05617e-21)
(-0.000381556 -0.00016117 3.61455e-22)
(0.000162185 -6.50376e-05 0)
(0.000466647 0.000228052 -4.69716e-22)
(-0.0159868 0.000363925 6.54766e-22)
(-0.000176123 -0.000996456 1.35912e-24)
(-8.33379e-07 -8.95128e-05 7.79314e-22)
(9.36637e-05 0.000205447 1.23899e-21)
(6.6736e-05 0.000421427 -1.48527e-21)
(0.000848386 -0.000436259 -4.15962e-22)
(-3.901e-05 -3.394e-05 -1.36796e-21)
(-0.00590654 -0.000764477 -5.13748e-22)
(6.36275e-05 4.25258e-05 -9.13339e-22)
(0.000423365 -0.00211911 -2.33205e-23)
(-0.0143587 -0.0099683 4.63978e-23)
(0.000123334 -0.0098946 2.41759e-21)
(0.000217445 -0.000385914 6.98825e-22)
(-0.0202604 -0.0015592 1.3856e-21)
(-0.000340887 -0.000897754 -1.62094e-22)
(0.000234056 0.00236991 1.90683e-22)
(0.00019484 -0.00049054 1.85169e-21)
(0.0012704 0.00150305 -1.1857e-22)
(-0.018079 -0.00411608 0)
(1.04366e-05 -5.70561e-05 1.66655e-25)
(0.000732419 -0.00190282 -4.51179e-23)
(0.000990922 0.000744097 4.62801e-22)
(0.000718821 0.000422076 -2.98739e-22)
(0.00201257 0.000600878 3.42837e-22)
(0.0108545 0.00730016 7.66821e-22)
(0.00842475 -0.00521868 -1.89181e-21)
(-0.00134516 0.00353784 2.17101e-21)
(0.000476295 0.000385944 1.55986e-21)
(0.000640733 0.000487823 0)
(0.00019583 -0.00352348 3.45542e-22)
(-0.0153345 0.0012142 -1.28924e-21)
(0.000308267 0.000131919 1.20628e-21)
(0.000313648 0.000131602 -1.32441e-21)
(3.66376e-05 -0.000248054 -2.0464e-21)
(0.000161378 -7.74557e-05 0)
(0.0139872 -0.000560613 5.40292e-22)
(0.000633723 0.000486736 0)
(-8.04647e-05 -0.000576812 -5.75565e-22)
(-0.00713939 -0.00318379 7.21312e-22)
(0.000990712 5.17411e-05 0)
(0.00029182 7.54735e-08 9.94958e-22)
(-0.000895093 3.16235e-05 -1.00693e-22)
(0.000392863 0.000396698 9.03905e-22)
(0.000919017 7.03114e-05 4.28197e-21)
(0.0115069 -0.000680876 -7.84688e-22)
(1.12018e-05 3.95511e-05 4.73747e-22)
(0.00119404 -0.000173153 4.75669e-21)
(-8.71891e-05 -0.000588185 -5.72505e-22)
(0.000390753 0.000216189 1.12235e-21)
(0.0135032 0.00494472 0)
(0.0196709 0.0118561 -1.43209e-23)
(-0.000221039 0.00145011 -8.24992e-22)
(-0.00876644 -0.00775988 -6.7596e-23)
(0.00158568 -7.11352e-05 1.95778e-21)
(3.13705e-05 0.000200251 9.34264e-22)
(0.0133624 0.00436284 0)
(0.00107158 0.000380389 -4.48904e-22)
(1.31859e-06 1.93371e-05 0)
(8.03494e-05 -6.88526e-05 0)
(0.000206845 1.61105e-05 -1.83797e-21)
(-0.0103544 0.0276145 0)
(6.33526e-05 5.64415e-05 -1.07228e-21)
(6.9774e-05 -8.03624e-05 0)
(-0.00075944 0.00131018 1.20575e-21)
(0.000393402 0.000212418 -6.72195e-25)
(0.0107445 0.0106807 0)
(-0.0148521 -0.000397392 -8.25093e-23)
(0.000958605 1.26434e-05 0)
(0.000155039 0.000202667 1.12061e-24)
(4.92425e-05 0.000512283 0)
(-0.0246476 6.16153e-05 0)
(0.00370005 0.00862165 -1.55873e-22)
(1.04471e-06 1.45181e-05 0)
(0.000757592 -0.000116743 -5.39468e-22)
(-0.000545833 -0.00153947 -2.16645e-22)
(5.04468e-05 9.91991e-06 -3.02397e-21)
(-0.00129557 0.000871782 3.6404e-22)
(0.0159911 0.000474887 0)
(0.000874911 -0.000437734 4.15619e-22)
(6.2721e-05 -9.07323e-05 1.27096e-21)
(0.00169456 -0.00076602 3.99709e-22)
(-0.000997922 0.00320936 2.77495e-23)
(0.000709199 0.000745371 -1.18911e-21)
(0.0019652 0.000538007 6.43087e-24)
(0.0275696 -0.000965072 1.21494e-21)
(-0.00500334 -0.0037174 -1.40234e-22)
(7.76627e-05 -6.3379e-05 0)
(-0.0111799 -0.000791893 -4.98041e-21)
(-4.95006e-05 -0.00113308 1.32519e-22)
(0.00290089 0.00106757 -1.82635e-25)
(0.000239473 -2.1287e-05 2.52993e-24)
(-0.000374492 -0.00866767 -2.42636e-21)
(-0.0173998 0.00563807 -3.25029e-22)
(3.20475e-06 5.39002e-05 -1.88903e-21)
(0.00928996 -0.000677992 1.38803e-21)
(2.16421e-05 0.000458558 -1.89281e-21)
(0.000153348 0.000193782 0)
(0.000182106 -8.70456e-05 0)
(1.58584e-05 -8.59567e-05 0)
(0.00925872 -0.0035205 1.76205e-21)
(-0.00213508 -0.00167411 0)
(7.99665e-05 -1.97072e-05 1.79675e-21)
(-8.53459e-06 -0.000110281 -2.93019e-22)
(0.00051822 0.000393731 0)
(0.000629858 0.000809749 2.07429e-22)
(-0.000364774 0.00166234 2.02085e-22)
(-0.013804 0.00359907 -2.80482e-22)
(-0.00661129 -0.000904094 -3.01154e-21)
(-0.00913496 0.00825917 0)
(0.0329686 -0.00615859 -1.10867e-21)
(0.0010009 -0.000433893 0)
(-0.00631607 -0.000901559 -9.81986e-22)
(0.0352544 -0.00487241 -2.10226e-21)
(4.00732e-05 0.000513353 0)
(6.0821e-05 5.77545e-06 0)
(0.000527451 0.000330493 2.1482e-21)
(-0.0236499 0.00161366 0)
(0.000377386 7.10772e-05 6.83303e-22)
(2.14883e-05 -7.96852e-05 0)
(8.49334e-05 -1.43853e-05 -5.19011e-22)
(0.033813 -0.0185346 0)
(0.0156279 0.000260992 0)
(0.000103574 0.000199749 1.27764e-21)
(0.000172309 0.000247568 -8.5859e-22)
(1.31176e-06 0.000106864 1.05399e-21)
(0.0388563 -0.00127531 -2.79063e-24)
(0.000589584 0.00031778 0)
(0.000969157 0.0035749 0)
(0.000376775 3.52907e-05 -2.06425e-23)
(-0.000963917 0.00316884 0)
(0.000500914 -0.000541514 7.214e-22)
(-2.54287e-05 0.000159557 1.58417e-24)
(0.00371595 -0.0012979 4.23404e-22)
(0.000101235 6.67798e-05 0)
(-0.0247361 0.00239651 -1.33998e-21)
(0.000222771 -0.000375506 0)
(-0.00709182 0.00676601 0)
(0.000152724 0.000312005 0)
(0.000291074 9.86706e-06 0)
(0.000213329 7.51443e-05 -8.73309e-22)
(-0.0104852 -0.00890488 1.5255e-21)
(9.2395e-05 0.00313769 -9.29857e-22)
(4.7932e-05 0.00300303 0)
(2.26905e-05 3.11336e-05 0)
(0.0227943 0.00406267 1.24787e-21)
(0.0388144 -0.00315825 0)
(1.84999e-05 0.000200729 2.83082e-22)
(0.00160301 -0.000654708 -5.12717e-22)
(-0.00205395 0.00866238 9.86559e-24)
(-0.00166914 0.005712 2.6229e-22)
(5.9442e-05 -8.04873e-06 2.17214e-21)
(7.22731e-05 0.000490316 -9.70693e-23)
(6.70676e-05 0.000441461 0)
(0.0191645 0.0104536 9.72507e-22)
(-0.0172618 0.0144643 -3.32975e-23)
(-0.000453498 -0.000851179 -3.00409e-22)
(0.00958145 -0.00351339 -1.31361e-21)
(3.88211e-05 0.000281621 2.1001e-21)
(2.87604e-05 0.000439106 0)
(0.000380794 -0.00194514 1.48997e-24)
(0.00104372 -8.69389e-05 4.4692e-22)
(0.000187574 -0.00014123 -3.04281e-23)
(0.016039 0.000713788 3.57327e-22)
(0.000547547 0.000391784 -3.50573e-22)
(0.00331299 0.009269 0)
(-0.000307886 0.00236677 0)
(0.0127909 -4.41945e-06 1.07146e-20)
(0.0431901 -0.000822463 -2.45044e-24)
(-0.000329461 0.00275069 2.90516e-22)
(-0.00720886 -0.019495 0)
(1.61994e-05 0.000446122 2.42177e-21)
(8.17105e-05 -4.53324e-05 0)
(0.000163324 -0.000939142 3.97275e-22)
(0.000171415 0.00022076 -1.79217e-21)
(0.000400198 0.000889958 -3.69277e-22)
(0.00705681 -0.00593975 0)
(6.25868e-05 0.00046976 0)
(-0.00804553 -0.000230299 2.9193e-21)
(0.0119272 0.000952741 1.04421e-21)
(0.0160914 0.000813868 0)
(0.00063026 -0.000108637 -5.85999e-22)
(0.0343588 -0.0197355 -3.77979e-22)
(0.000546948 0.000355012 8.0871e-22)
(-0.00213159 0.00442783 1.80952e-21)
(-0.000156663 -0.000515979 0)
(7.41343e-05 -7.18555e-05 5.91992e-22)
(-0.000188643 0.00086149 0)
(-1.39697e-05 0.000532969 -5.37608e-22)
(0.000593045 -0.000494064 -1.20459e-21)
(0.00269236 0.00109403 3.25931e-22)
(0.00268949 -0.00254024 1.46286e-22)
(0.00156818 0.00096455 -7.1308e-23)
(-0.0181891 0.00165995 0)
(-0.000713161 -0.000428503 -6.06738e-23)
(-0.0111382 -0.00822057 6.36002e-22)
(0.000575124 0.000342832 0)
(6.87373e-05 6.78233e-05 -1.77993e-21)
(-0.0254618 0.0018164 0)
(-6.83849e-06 -0.000120831 -2.1496e-21)
(0.00621005 0.00888409 -1.52456e-21)
(0.013131 0.00130495 -2.49386e-22)
(4.90022e-05 2.554e-06 -1.00522e-22)
(0.000644466 0.000275186 2.74861e-22)
(-0.0170993 0.0058574 1.32848e-22)
(0.0384594 -0.00331191 6.6137e-22)
(0.000280823 5.72467e-05 -1.75244e-21)
(8.33896e-06 0.000167079 8.09342e-22)
(0.0243613 -0.00258665 0)
(-0.014973 0.000139567 0)
(0.0138511 -0.00207999 -1.11015e-21)
(0.00021057 9.5066e-05 0)
(0.00267216 0.00117366 7.38953e-24)
(0.000265675 -1.73512e-05 3.8439e-22)
(-0.0202437 -0.0116248 2.296e-22)
(0.000560306 0.000345788 7.85994e-22)
(0.000375792 -0.000376369 -9.42555e-23)
(0.00139958 0.000793314 0)
(0.0443271 -0.000442292 0)
(0.000314438 0.000137023 0)
(0.000159437 0.000274052 -2.05024e-22)
(0.000205284 0.000119469 0)
(0.000190401 -0.000104941 0)
(-0.000144357 -0.0161188 0)
(0.0292724 -0.00402312 2.06863e-21)
(-0.0155962 -0.00811194 -2.28431e-21)
(-0.0147161 0.00249015 -6.55858e-22)
(6.275e-05 -5.11004e-05 1.04619e-21)
(-0.00314158 -0.00204354 -3.11718e-22)
(0.00101788 -9.23159e-05 0)
(0.00507056 0.00281885 2.94329e-22)
(-0.00851426 0.00886288 -1.2391e-21)
(0.000418742 -0.000836678 0)
(-0.0162531 -0.000446778 1.54229e-21)
(1.24023e-05 0.000219667 -1.96939e-21)
(0.000286437 0.000125496 0)
(0.00994501 0.0107348 0)
(-0.00772578 -0.00282009 1.76633e-23)
(-0.00123703 -0.00918316 -4.22627e-22)
(-0.00284249 -0.0119715 3.59718e-21)
(0.0174546 0.00117804 4.56114e-22)
(0.000690252 0.000143277 -9.43641e-22)
(0.0115138 -0.000694236 2.43421e-23)
(-0.0100484 0.00641197 -2.22634e-22)
(2.75008e-05 0.000339885 -1.69198e-21)
(0.0105635 0.00986623 0)
(0.000140239 0.000801522 1.52176e-21)
(0.000397607 -0.00188327 0)
(0.000238105 0.000645243 -2.8899e-21)
(0.000308611 0.000627173 -5.77854e-22)
(0.000556823 0.000339759 -6.42098e-22)
(0.000300716 0.000215253 8.53621e-22)
(4.9294e-05 0.000979954 0)
(-0.00822942 -0.00826583 8.25987e-23)
(0.000356115 0.000802525 0)
(-0.00022233 -0.000735836 0)
(0.000249074 -0.00107494 -1.56348e-22)
(0.000157061 0.00204984 4.0863e-22)
(-0.000103067 -0.000669119 -3.38617e-22)
(0.000119476 0.00045535 -4.48905e-23)
(0.000137425 0.000239556 1.04809e-21)
(0.000197819 0.000137482 0)
(4.69023e-05 0.000308391 -8.88135e-24)
(-0.0066929 -0.0203629 -3.03358e-22)
(-0.00150837 0.00357405 -8.80596e-22)
(0.000381984 9.86896e-05 -1.19274e-21)
(0.000228047 9.57706e-05 -5.50614e-22)
(0.000853544 0.000398539 0)
(0.00585292 -0.00243931 -4.76226e-22)
(1.97633e-05 1.96956e-05 2.64448e-21)
(0.000508877 0.000392447 1.38213e-21)
(0.00089238 0.00132531 -1.81916e-21)
(-0.0150657 -0.0094488 0)
(1.17178e-05 0.000185589 4.76624e-22)
(0.000288867 -3.37634e-05 4.05436e-22)
(-0.000123857 -0.000655988 0)
(-0.000562435 -0.0045448 -2.29936e-22)
(0.000475897 0.000313265 1.01172e-21)
(0.000221538 -8.41776e-05 -1.42056e-21)
(0.000128879 4.6567e-05 0)
(-0.00319031 -0.00189971 -4.60597e-21)
(0.00945944 -0.0155136 0)
(0.025367 0.00769099 0)
(0.000637232 0.000490574 9.07989e-22)
(8.80313e-06 0.000209067 4.93841e-22)
(5.5367e-05 -4.11004e-05 -9.70845e-22)
(0.000493777 0.000700555 -6.52628e-22)
(-3.88407e-06 -7.94937e-05 5.98386e-22)
(9.29306e-05 0.000203547 -7.03619e-22)
(0.000633444 0.000283545 5.80566e-22)
(0.00966946 0.00246258 0)
(0.00153689 -0.003375 -1.29555e-23)
(-0.0164219 0.0261947 0)
(6.65612e-05 -1.59854e-05 0)
(0.000538338 0.000392633 0)
(0.00095108 0.00164615 -4.07402e-22)
(0.0187644 0.0120248 6.62829e-24)
(0.00137107 0.000767593 -9.27194e-22)
(0.016048 0.00057156 4.47449e-21)
(-0.00429746 0.0297146 -1.67383e-21)
(0.00144507 0.00468322 -7.6268e-22)
(2.02229e-05 -0.000243118 7.27003e-22)
(5.60668e-05 -4.61101e-05 1.02935e-21)
(0.0160192 0.00116105 -3.54299e-22)
(0.00182953 -0.000369321 -5.37751e-22)
(0.000551863 0.000355942 9.81076e-25)
(0.000252596 0.00106067 2.6481e-22)
(0.0187843 -0.0195026 0)
(-0.0267636 0.00244006 5.3789e-21)
(0.0015473 0.00218028 -1.4985e-21)
(0.000354579 0.000148627 1.85307e-21)
(-0.00239479 -0.0140891 -4.34801e-22)
(0.00555135 -0.00273393 -2.41069e-23)
(0.000647435 0.000254138 -2.59676e-22)
(-0.0138421 0.0106646 0)
(0.000382947 -0.00011474 0)
(-0.00466886 0.0134637 -5.36591e-22)
(0.0248826 -5.91764e-05 -9.85941e-21)
(0.00102087 -0.00192157 2.95636e-22)
(8.76147e-05 0.000144137 -4.9689e-22)
(6.00287e-06 0.000205142 2.44527e-21)
(0.00674465 0.0164732 0)
(0.000227013 8.94886e-05 -2.66979e-24)
(-0.000119733 0.0028908 0)
(0.000763401 -8.86989e-05 -2.79441e-23)
(0.000109398 -1.45269e-05 -1.10031e-21)
(0.0002757 -3.65842e-05 1.40403e-21)
(7.90398e-05 -4.34894e-05 -6.65099e-22)
(0.0162925 9.58583e-05 0)
(-5.74066e-05 -6.36345e-05 0)
(0.000481685 0.00262957 -2.132e-22)
(7.53356e-05 0.000481322 0)
(0.00065771 0.000808524 2.00694e-22)
(0.0156885 -0.00575178 1.62298e-21)
(0.000630616 0.000477902 -8.8265e-22)
(7.53216e-05 0.000203264 0)
(0.00896643 -0.0047367 -5.27038e-22)
(-0.000620902 0.00220512 -2.54584e-22)
(6.0314e-05 -2.98052e-05 -3.00999e-22)
(0.000309422 0.000135851 0)
(0.00941335 -0.00479418 -4.29458e-22)
(0.00147975 -0.00321784 -1.24983e-23)
(0.000523275 -0.00135817 0)
(-6.15109e-05 0.0112064 0)
(0.000360762 -0.000966191 6.71872e-22)
(0.000421879 0.000365692 9.02012e-22)
(0.000125144 5.05648e-05 0)
(-0.00318885 0.0157199 -4.1329e-22)
(-0.0159883 -0.00889614 1.67055e-21)
(-0.00766214 -0.0140354 0)
(0.00868179 -0.00492054 -9.9691e-22)
(0.00180434 -0.000294011 1.0002e-21)
(0.000593005 0.00274237 -2.08205e-22)
(0.000962982 0.00130477 9.40141e-22)
(0.00108334 -0.00207005 0)
(0.000167523 0.00020107 0)
(0.0324712 -0.0244869 -1.93412e-22)
(0.00235156 0.000895144 8.62827e-24)
(0.011621 0.000480976 -1.73807e-21)
(0.000104025 0.000249685 -9.25421e-22)
(0.00046469 0.000355081 1.52972e-21)
(0.000183973 0.00239433 -8.90249e-22)