/*--------------------------------*- C++ -*----------------------------------*\
| =========                 |                                                 |
| \\      /  F ield         | OpenFOAM: The Open Source CFD Toolbox           |
|  \\    /   O peration     | Version:  v2012                                 |
|   \\  /    A nd           | Website:  www.openfoam.com                      |
|    \\/     M anipulation  |                                                 |
\*---------------------------------------------------------------------------*/
FoamFile
{
    version     2.0;
    format      ascii;
    class       volScalarField;
    location    "100";
    object      nut;
}
// * * * * * * * * * * * * * * * * * * * * * * * * * * * * * * * * * * * * * //

dimensions      [0 2 -1 0 0 0 0];


internalField   nonuniform List<scalar> 
37809
(
7.0964e-05
0.00262745
0.00583567
0.00127565
0.0140256
0.0015135
3.98219e-05
5.46066e-05
0.000177072
0.00121651
0.000287652
0.00421006
0.000620612
0.000623236
0.00151687
0.0007242
0.00583203
0.0104703
0.00256812
5.1125e-05
9.6477e-05
0.000100067
0.0129919
0.00583111
0.000116673
0.00249744
0.000819277
0.00181138
0.00583545
4.29012e-05
0.000961476
0.00234734
0.00583114
2.62918e-05
0.00468609
0.00583211
0.00586907
0.000821737
0.000931024
0.000248554
0.0106158
0.00167703
0.00303502
0.00130923
0.00440789
0.00169948
0.00159571
0.00648447
0.000737181
0.00023019
0.00333043
0.00583661
0.00583063
0.00188036
0.00272438
0.00583052
0.000337866
0.00174885
0.000970901
0.000216947
0.00302068
0.000820442
0.0006124
0.00071342
0.00105123
0.000120261
0.00329753
0.00242721
0.00253776
0.003526
0.00110295
0.000173242
0.00338618
0.000655068
0.0018749
0.00585794
0.000274476
9.45151e-05
8.57239e-05
0.00042218
0.00583737
0.00583557
0.00826803
0.00123951
0.00441726
0.00185257
0.00107354
0.000138329
0.00131621
0.000271589
0.000664422
0.00161471
7.07608e-05
0.00822069
0.00103025
0.00981594
0.00321081
0.00334771
0.0019425
0.00585112
0.000988872
0.00314897
0.000727767
0.00966813
0.00158661
0.00583476
4.27315e-05
0.00079031
0.000109915
0.00421899
5.93171e-05
0.00132709
4.90619e-05
0.000848337
0.000383784
0.000981594
0.00198224
0.00358351
0.000700852
0.00335998
0.00583614
0.00229285
0.000815553
0.0125799
0.00153281
0.00208071
0.00162253
0.00289303
0.000285862
0.00245531
0.000685618
0.00114834
0.00201294
0.0058319
0.000438871
0.00588615
0.00356589
0.000830277
0.000462504
0.000847866
0.00492572
0.00066435
0.0002021
0.0108284
0.00330349
0.00306078
0.00143364
0.000934161
0.00816525
0.00592989
0.0017547
0.00267711
0.00157512
0.000521693
0.000361172
0.00594432
0.000188736
0.000728602
0.0017882
0.000278164
0.000287755
0.00101516
2.30435e-05
0.00339478
0.000998906
0.0058374
0.00583415
0.00286067
0.000870741
0.00036807
0.000634747
0.00583439
0.00576858
0.00146791
0.00261154
0.000573031
0.00163814
0.000280679
0.0146098
0.000112882
0.00338384
0.00238303
0.00583074
0.0017617
0.0058512
0.000839683
0.00236569
0.00118637
0.000141814
0.000362135
0.000241727
0.00319531
0.00248265
0.00179007
0.00023585
3.15816e-05
0.00482287
0.00583025
0.0058301
0.000871238
0.000129962
0.000289496
0.00236815
0.000117981
0.00304596
0.00585141
0.0013509
9.22866e-05
0.00583498
0.00164553
9.30642e-05
0.00262595
0.00582918
0.00383787
0.00583952
0.000203063
9.84341e-05
0.00545062
0.00582925
0.00120546
0.00831287
5.59061e-05
0.00170561
0.00225028
0.00583709
0.0119108
0.0128843
0.00166531
0.000369976
0.000585111
0.00180228
4.45191e-05
0.000906293
0.000917168
0.00061409
0.000190192
0.00583084
0.0126603
0.00113136
0.000246626
0.00849871
0.00583414
0.000156596
0.00190622
0.00449751
0.00583653
0.00583586
0.0058264
0.00039087
0.00585364
0.00583338
0.0058313
0.00583403
0.0138906
0.0030641
0.00277621
0.00582952
0.00583478
2.08684e-05
0.00658477
0.000455172
0.00242634
0.000270005
0.0022384
0.0017196
0.000104904
0.0015332
0.000786933
0.00441404
3.47489e-05
0.00202467
0.00583986
0.0133611
0.000155583
0.0058313
0.000226216
2.5472e-05
0.00583357
0.000183794
0.00583504
0.00346577
0.00104202
0.000789054
0.00583099
0.00144765
0.00583679
0.00357296
0.00583279
0.00289474
0.00523859
0.00583423
0.0011313
0.000134924
0.00583044
0.00324151
0.00116295
0.00117866
0.000939909
0.00282374
7.01144e-06
0.00121406
0.0013581
0.00585826
0.000745937
0.000738681
0.00116132
0.00583556
0.000908264
0.00980299
0.00583364
0.00154769
0.0138342
0.00163622
0.000182599
0.00583605
0.0124153
0.000773702
0.00250409
4.06297e-05
0.000201725
0.000503335
5.57096e-05
0.000183373
0.000953962
0.000977903
9.36527e-05
0.000693665
0.00458132
0.00583558
0.00090304
0.00583095
0.00589941
0.00357669
0.000691078
0.00583321
0.00583201
0.00150014
0.00255902
0.00583182
0.000366923
0.0058397
0.000628202
2.0557e-05
0.0032592
0.000929168
0.000896027
6.9969e-06
0.00583353
0.00202345
0.00159895
5.30056e-05
4.2159e-05
0.00419339
0.0022844
0.000704633
0.00156443
0.00585386
0.00120393
0.00489422
0.012244
0.00203582
0.000706982
0.00270671
0.00297027
0.00603493
0.0112946
0.000155747
0.000597753
0.00133468
0.00583267
0.000592002
7.25502e-05
0.00147868
0.000191467
0.000333289
0.00583859
0.00144278
0.00585614
0.00182655
1.73248e-05
0.0034643
0.000806545
0.0028787
0.000869342
5.76431e-05
0.00048211
0.00121467
0.000242893
3.89406e-05
0.00583674
0.00583481
0.00269667
0.00583569
0.00215581
0.000546785
0.00159174
0.00318355
4.02254e-05
0.000969418
0.0058357
0.0126174
0.00168492
0.00583605
0.00296122
0.00589496
7.40611e-05
0.00583353
0.0124753
0.00715846
0.00723661
0.000100696
0.000938448
0.000261361
0.0017141
0.00586084
0.000259373
4.06485e-05
0.000634182
0.005836
0.00583126
0.0115956
0.000836222
4.72416e-05
0.000772017
0.00583278
0.0143072
0.0021767
0.000272585
0.000353261
3.51526e-05
0.00551533
0.0001268
0.00111184
0.000861024
0.0117466
0.00177466
0.00195547
0.0131915
0.000430693
0.00583082
0.00121686
9.07985e-05
0.000535799
0.00152227
0.00583417
0.00517689
0.00799842
0.000386024
0.00134433
0.00104207
0.00102325
0.00583862
0.000841467
0.0058349
0.00290566
0.00583084
0.00586854
0.00583127
0.00215382
0.00547084
0.00174624
0.000625395
0.000223999
0.000829517
0.00246096
0.00233635
0.00235322
0.000327005
0.00721719
0.00583511
0.000976018
0.0056126
0.00583353
0.0042079
0.00149225
0.00584043
0.000288926
0.00235636
0.00162961
0.00583464
0.00583282
0.00539025
0.000985375
0.00585618
0.000904267
0.0058345
0.00102689
0.000877841
0.00776037
0.003333
0.00321898
0.00155285
0.00143014
0.00332432
0.000379373
0.00863503
0.00582661
0.00108839
0.000446632
0.000414017
8.05965e-05
0.000497911
0.0118611
0.00408308
0.000663538
0.000423435
0.001047
0.00188883
0.00256939
0.0025014
0.00585897
0.00584036
0.0131433
0.000433951
0.00250216
0.000228329
0.000497893
0.00162779
5.18236e-05
0.000592392
0.000617041
0.000417345
0.00583341
0.0010382
0.00245168
0.000999203
0.000489
0.0140517
0.000132288
0.00123735
0.000883677
0.00114856
0.000423569
0.000170293
0.00583599
0.00583815
0.00433011
0.00568798
0.00583545
0.00583284
0.000264984
0.00104258
0.0106967
0.00100955
0.000335956
0.00209084
0.00336375
0.000425994
0.00114826
0.00583611
0.000934575
0.00135791
0.00583357
0.00025139
0.00633464
0.000966044
0.0058343
0.000109448
2.84769e-05
0.0002853
8.54506e-05
0.00202123
0.00159197
0.0058373
0.00135124
0.00163586
0.000421938
0.00249494
0.00797722
0.000757644
0.00583606
0.00109919
0.00451932
0.00177385
0.00546645
0.00583492
0.00953067
0.00172765
0.00583591
0.00583648
0.000676926
0.00024254
9.2564e-05
0.00103141
0.00169462
0.00309103
0.0133475
0.000657339
0.00191796
0.0129485
0.00356168
0.00583146
0.000963363
0.00127528
0.00217465
0.00583505
0.00583631
0.00788097
0.00145824
0.00583223
0.00256749
0.00583611
0.00245679
0.000340377
2.45862e-05
0.00224811
0.00147305
0.00152913
0.000257541
0.000569538
0.00583017
0.00216944
0.00357441
0.00133086
0.00276255
0.00148881
0.00223464
0.0140109
4.98627e-05
5.519e-05
0.00583342
0.0144338
0.0107417
0.000998071
0.00165647
0.00144726
0.00151068
0.00583148
0.00439618
0.0051701
0.0002936
0.0104078
0.00134495
0.00962711
0.00583445
0.00494349
0.00117377
0.000718172
0.00540276
0.00792766
0.00068914
0.00118665
4.35577e-05
0.00019109
0.00222266
8.76364e-05
0.000743019
0.00473538
0.0058369
0.0018338
0.00245882
0.000268599
0.0109162
0.00439113
0.00011374
0.00042565
0.00900859
0.00119699
0.00790036
0.000385332
2.141e-05
0.0025082
0.00583284
0.000286152
0.00350654
0.00138263
5.21699e-05
0.000295081
0.00161974
0.000748695
0.00238169
0.0143596
0.000362755
0.00583428
0.00142487
0.00583826
0.000521409
0.00434931
0.00592007
0.000747329
0.000794304
0.0114172
0.00124915
0.00583581
0.00806872
0.000183741
0.0091613
0.0028943
0.0018437
0.00277245
0.000680385
0.000367878
0.00214812
0.000111404
0.0044274
0.0025649
0.00252979
0.00349782
0.00505122
0.000863015
0.0148725
0.0147
0.00468308
0.00583196
0.00241967
0.000717523
0.000373856
0.000297704
0.00155446
0.00185064
0.00107239
0.0010312
0.0129932
0.000238025
0.000882036
0.00449505
0.00244857
0.000267493
0.00127759
0.00117533
0.00193559
0.0130445
0.000329796
0.00113201
0.000400874
0.000410602
0.000363378
0.000834402
0.000254946
0.00123295
0.000309419
0.00214925
0.0017098
0.00140373
0.00223807
0.00448681
0.00195327
0.00315482
0.00179302
0.000718781
2.24893e-05
0.00213766
0.00417323
0.000244939
0.00650461
0.00583462
0.000714832
0.000109638
0.00087765
0.00583568
0.00203771
0.0022439
0.00102402
0.00108756
0.00400133
0.00583241
0.00159937
0.0148379
0.000147042
0.000478308
0.00583554
0.00583143
0.000348148
0.00583485
0.00583408
0.00082535
0.0138194
0.000837583
0.00746287
0.00583218
0.000789225
7.68878e-05
0.0140509
0.0001137
0.00031346
0.00136995
1.04869e-05
0.00586586
0.00583137
0.0102036
9.60125e-05
0.000396046
0.000337532
0.0138295
0.00203226
3.82818e-05
0.00187129
0.000909428
0.00722285
0.000860866
0.00916201
0.000215433
0.000250033
0.00135562
0.000142188
0.000258231
0.00107996
0.00579542
0.00396408
6.37219e-05
0.000913672
0.00583062
0.00263969
0.00583627
0.00132861
0.00589925
0.000316988
0.00456293
0.000266363
0.000523223
0.000407436
0.00583636
0.0115804
4.79819e-05
0.00583166
0.00261495
0.00717845
0.000857273
0.00120366
0.00130427
0.00163081
0.000665366
0.00584789
0.00100454
0.0147068
0.0148082
0.0115486
9.42482e-05
0.000319874
0.000110617
0.000152771
0.000893102
0.00842913
0.002577
0.000426007
0.00583463
0.000733964
4.76268e-05
0.00220468
0.00718987
0.00315348
0.000291552
0.00583488
8.95073e-05
0.00285098
0.000198746
0.00234749
0.00342196
0.000673854
0.0106032
0.00583707
0.000321315
0.000347135
0.00582878
0.00047323
0.0149387
0.00136421
0.00156393
0.000672221
0.00103286
0.00121816
0.000652957
0.00583217
0.000258856
0.00584755
0.00583483
0.00612627
0.00102163
0.000627285
0.0018491
0.00583405
0.00169771
0.00586926
5.10459e-05
4.01913e-05
0.00101532
0.00074806
0.00238829
0.005831
0.000112987
0.00583356
0.00204248
0.00583557
0.00180725
0.00820689
0.000503798
0.000282902
0.00269372
0.00129672
0.000212385
0.00852316
0.0058334
0.000520216
0.00197706
0.00253765
0.0058357
0.00161983
0.0021893
0.000156449
0.000426762
0.000628532
9.75843e-05
0.000414828
0.00528941
0.00385018
0.00583014
0.00120425
0.000979677
0.00190989
6.15331e-05
0.000919303
0.000244585
8.95579e-05
0.00708549
0.000433821
0.00583393
0.00150985
0.0143788
0.000833464
0.0013302
0.000958962
0.0020714
0.000673103
0.000704506
0.000470491
0.0010778
0.00698354
0.00583341
4.51236e-05
0.00583475
0.000398036
0.000776909
0.0037426
0.000647287
6.92253e-05
0.000341739
0.000131132
0.00586337
0.000536661
0.00132323
0.000467283
0.00582861
0.00145252
0.00452926
0.000230851
0.00582847
0.000610196
1.86243e-05
0.00109548
0.00105522
0.00279255
0.000506726
0.00583561
0.000256648
0.000758268
3.64395e-05
0.00157984
0.00133505
0.000274265
0.00583997
0.00583527
0.0015667
0.00584033
0.00583726
0.00164908
0.00136673
0.00011911
0.000442672
0.00584538
0.00587152
0.0058624
0.00122449
0.00256135
0.00156951
0.00434737
0.0058657
0.00300551
0.00410572
0.00146495
2.57235e-05
0.00107445
0.00137525
0.000140434
0.00384266
0.0125965
0.005833
0.000936638
0.000780772
0.00337156
4.69481e-05
0.000248665
0.0058313
0.00187933
0.00146956
0.00192444
0.00163678
0.00856802
0.000556033
0.0023976
0.00419244
0.000100135
0.000144024
0.00279568
0.00583053
0.00179385
0.00542731
0.00140941
0.0021736
2.71092e-05
0.0148383
0.00583613
0.000450527
0.0011017
0.0142635
0.000230886
0.00101925
0.000315098
0.00583998
0.000947328
0.00550701
0.00584073
0.00446303
0.00246493
0.00163003
0.00583961
0.000229213
0.000893947
0.00584048
0.00583601
0.000177012
0.00800358
0.000804079
0.000316146
0.00366602
5.59619e-05
7.31396e-05
0.00583683
0.000701625
0.000150785
0.00108317
0.00943511
0.000308657
0.00271161
0.0004567
4.35621e-05
0.00115915
0.000174321
0.00172409
0.000486853
0.000514106
0.00583552
0.00032407
0.000394669
0.000400929
0.00516894
0.00308314
0.00113941
3.15901e-05
0.00151388
0.00585493
0.00583612
0.00584008
0.00583209
0.00583455
0.00080044
0.00267288
0.000377362
0.00169306
0.00038584
0.000429716
0.00507941
0.0146432
0.000366196
0.00137235
0.00160642
0.00163406
4.2146e-05
0.0017796
0.000221444
0.0055624
0.0135826
0.00583101
0.000221816
0.000203217
0.00151762
0.000262521
4.70482e-05
0.00583949
0.00289729
0.00330344
0.00196496
0.00407788
0.00105724
0.000591363
0.000392328
0.000391721
0.00583125
0.00583305
0.00539651
0.00496494
0.00247495
0.00526016
0.00145383
0.00583794
0.0060183
0.00597214
0.000343155
0.00868006
0.00583602
0.0058346
0.000915845
0.00215832
0.00127334
0.00583551
0.00915358
0.00583541
0.00583717
0.00112061
0.000198166
0.000509061
0.000351913
0.00121744
0.00638876
0.00134535
5.6502e-05
0.00583192
0.00251756
0.00484873
0.0136019
0.00133037
0.00172233
0.00160507
0.00107624
5.88294e-05
0.000360821
0.00583195
0.000544868
0.00174244
0.000969522
0.000773932
4.83891e-05
0.000203271
0.000720616
3.29224e-05
0.0148832
0.000251074
0.0034969
0.000719626
0.00212468
0.000824409
3.99719e-05
0.00145293
0.000105408
0.000351166
0.0014437
0.0028611
0.00582932
0.00387531
0.000251779
0.0014619
0.00233846
0.00583529
0.00214886
0.00163152
0.000572598
0.00762802
0.000389126
0.0058316
0.00583211
0.00134352
0.00442903
0.00582684
0.0137894
0.00156167
0.0076646
0.00186403
0.00046134
0.00300166
0.00143876
0.000562275
0.000541453
0.000580776
0.0058517
0.00772614
0.00116835
0.0058668
0.000497827
0.00425264
0.00614537
0.00190948
0.0121925
0.00889613
0.000245935
4.33764e-05
0.000411499
0.00111349
0.00583185
0.00118939
0.00122773
0.00325384
0.00583371
0.00214748
4.93754e-05
0.000837036
0.00158953
0.000540594
0.00582662
0.00583424
0.00350414
0.00583256
3.6713e-05
0.000140127
0.00447953
0.00388238
0.00067602
0.00040533
0.00583551
0.000287746
9.66516e-05
0.00583379
0.000624258
0.00402403
0.00779239
0.000151764
0.0014584
0.00583395
0.000684196
0.00135508
0.00757511
0.0134808
0.00165069
0.00137001
0.00110468
0.000203513
9.96222e-05
0.00145678
0.0124742
0.00364751
0.00151819
0.000494761
0.00585355
0.00213802
0.000509954
0.00583593
0.00221665
0.000858206
3.4936e-05
0.00307706
0.005834
0.0107449
0.00583446
0.00563944
0.00276341
0.000190457
5.9598e-05
0.005832
0.000856579
0.0120002
0.000493028
0.0058317
0.00139869
0.00118307
0.00712357
0.00131985
0.000513549
0.00583401
0.00263634
0.00582941
0.0074194
0.000246437
0.000681606
0.0135022
0.0058361
0.0058349
0.000394199
0.00583206
0.000601473
0.0016046
0.0020149
0.00263762
0.000260268
0.00881083
0.00246502
0.00583035
0.00120038
0.000569401
0.000760475
0.00583567
0.00162239
0.000549105
0.000795879
0.00023644
0.00160082
0.0058321
0.00556775
0.0146483
0.00560627
0.00254638
0.000427738
0.000315361
0.0107743
0.00586132
0.000105322
0.0092133
4.60476e-05
0.00592175
0.000221716
0.00587427
0.00583376
0.00584327
0.00457802
0.00123912
0.000361613
0.000486042
0.00715993
0.00471375
0.00582956
0.00976146
0.000393851
0.00142073
0.00839685
0.00414614
0.00978132
0.00583162
0.00161693
0.00210052
0.000446321
0.00146851
0.00113501
0.00324647
0.00583336
0.0058293
0.00105999
0.000231866
0.000766921
0.00583248
0.00305632
0.0003865
0.00244961
0.014197
0.0013638
6.87964e-05
0.00149993
7.16697e-05
0.00583184
0.00211278
0.00295536
7.51263e-05
0.0107748
0.00102334
0.000446201
0.00120284
0.00136829
0.00629497
0.000527688
0.00583766
0.00117507
5.7096e-05
0.00583531
0.00583273
0.00157175
0.00272479
0.00583456
0.00583332
0.00583511
0.00583282
0.0048881
0.00957174
0.000858259
0.00592107
0.00184956
8.21077e-05
0.00583824
0.000751333
0.00583515
0.00583545
0.00275095
0.00159075
0.000769072
0.00216357
0.000919676
0.00583527
0.00149381
0.000934676
0.000884245
3.54378e-05
0.000379559
0.00158166
0.00582948
0.00583524
0.00584274
4.00769e-05
0.00582937
0.00583231
0.0111155
0.00169487
0.000701142
0.00582901
0.00150793
0.000182593
0.00232133
0.00521881
0.00067069
4.84218e-05
0.00583218
0.000441908
0.00122439
0.00138855
0.00259619
0.00891163
0.00535221
0.00010323
5.69446e-05
0.000342964
0.0015575
0.00212515
0.00868765
0.00346305
0.00900407
0.00262403
0.0139267
0.00583575
3.25247e-05
0.00584233
0.00583582
0.0145762
0.00583567
0.00145372
0.0111243
0.00582906
0.00148223
8.43651e-05
0.00448512
0.00155256
0.00206437
0.000160616
0.0058344
0.00262706
0.000202363
0.000319726
0.00949929
0.00583282
0.00265485
0.00467322
0.000309108
0.00414368
0.000609456
0.0048325
0.00129025
0.00583191
0.0141885
0.000953748
0.00705849
0.00572589
0.000126656
0.00021831
8.83949e-05
0.00118542
0.00752109
0.00583444
0.00583349
0.000148114
0.00583373
0.000167834
0.0009836
0.00172304
4.00963e-05
0.00105601
0.00132286
0.0122621
0.000650521
0.00583313
0.000831595
2.39166e-05
0.00241918
0.00145422
0.00583488
0.00950016
0.00583691
0.0102276
0.00517017
0.000285037
0.00132335
3.67624e-05
0.000850721
0.0011359
9.92301e-05
0.00583453
0.0003551
0.00212497
0.00587267
0.00118011
0.00583161
0.00583602
0.0095655
0.00486913
0.0130466
0.00329782
0.00583196
0.00583447
0.000628475
0.000721642
0.00583655
0.000543112
0.00583848
0.00583187
0.000605084
0.000928576
0.00145204
0.000195652
2.05996e-05
0.000392169
0.00583522
0.00583603
0.00583557
0.00240466
0.00987195
0.00584938
0.00143853
0.0062413
0.00583501
0.000366842
0.0058353
0.00583382
0.00943362
0.0058473
0.000895273
0.00583366
0.00584019
0.00583383
0.00331663
0.00174244
0.000354103
0.0112091
0.000431489
0.00111571
0.00152506
0.00583511
0.000352705
0.00238522
0.00584446
0.00583366
0.000416545
0.000801436
0.00186738
7.48559e-05
0.00296985
0.00583614
0.00583965
0.00121175
0.00583358
0.000898856
0.000745412
2.70348e-05
0.000648307
0.0014434
0.0119961
0.00583199
0.00142576
4.1797e-05
0.000485458
0.000285717
0.00153525
0.00129019
0.00570652
0.00145229
0.00583893
0.00558984
0.00172061
0.00074075
0.0012964
0.0011913
0.000271906
0.00583557
0.00425036
0.0113804
0.00278703
0.00161902
0.000290771
2.7293e-05
9.96518e-05
0.00099526
0.000786642
0.000504593
0.00583359
0.00197472
0.00583195
0.00583326
0.00583587
3.80522e-05
0.000323477
8.67054e-05
0.000469066
0.00209486
0.0100151
9.22397e-05
0.00107789
0.0106987
0.00251614
4.3426e-05
5.64762e-05
0.00073239
0.00717356
0.000115666
0.00583312
0.0115007
0.00582935
0.0134098
0.00583346
0.002478
0.009063
0.00161172
0.00347621
0.000811388
0.00166537
3.65745e-05
0.000307458
0.0144578
0.00213421
0.00096906
0.000409381
0.00150235
0.0027963
0.000347467
0.0102558
0.000294035
0.00107433
0.0122661
0.00301194
0.000100716
0.00347719
0.00154399
0.00287434
0.00585284
0.00576689
0.000773317
0.000226737
0.00144507
9.09091e-05
0.000895273
0.000206052
0.00144973
0.00302646
0.000336472
0.00201167
4.9072e-05
3.84636e-05
0.00583652
0.00582911
0.000283956
0.00033434
4.44793e-05
9.88532e-05
0.000344475
0.00166438
0.00205735
0.00154284
0.00108171
0.000226432
0.00505884
0.000771375
0.00108783
0.00587061
0.00013482
0.00582925
0.000562203
0.00583722
0.00583557
0.00506985
0.00198374
0.0148969
3.68207e-05
0.00584503
0.00981022
0.000291432
0.00903585
0.000741989
0.000841344
0.00284233
0.00133754
0.000146235
0.00497078
0.000418787
0.00111243
0.00585923
0.00583452
0.00100013
0.00583445
0.00104314
0.00270318
0.00583632
0.00130451
0.000821138
0.0136227
0.00296537
0.00147925
0.00443711
5.45967e-05
0.00097046
0.00582935
0.000739508
0.00764606
0.00195007
0.00585984
0.00128023
0.00281675
0.00149679
0.00299619
0.000636319
0.00051547
0.00470514
4.33763e-05
3.83504e-05
0.00147413
0.000734536
0.00214592
7.43042e-05
0.00350397
0.00689083
0.00115572
2.24604e-05
0.00582924
0.00165792
0.00415691
0.0147111
0.00583321
0.00143416
0.00272152
0.00112266
0.00583917
0.0126807
0.00111357
0.0131313
0.00111654
0.000291162
0.00656477
0.000336243
0.00583034
0.00565328
3.3578e-05
0.00174027
0.013838
0.00171097
0.00583834
0.000666045
0.00027921
0.0012104
0.00583485
0.000254001
0.0094531
0.00159313
0.00134545
0.00105252
0.0037493
0.00583354
0.000431162
0.00314938
0.00750724
0.00582931
0.00583528
0.0123622
0.0130121
0.00583185
0.00100095
0.00103818
0.00436621
0.00592197
0.00583473
0.00120527
0.00583514
0.000553293
0.000622132
2.53816e-05
0.000157384
0.00583333
0.000101361
0.00582903
0.000334033
0.00583685
0.00242727
0.000158978
0.00160063
0.00105259
0.000397505
9.73218e-05
2.15105e-05
0.00583315
4.86743e-05
0.000994766
0.000734856
0.00023353
0.0149214
0.000155623
0.00152444
0.000920143
0.00187735
0.000795954
0.000265132
0.00582877
0.000280344
7.71526e-05
0.00429384
0.000332271
0.00060078
0.00583514
0.00584433
0.00583614
0.00583444
0.0121016
0.00583349
0.000422433
4.39515e-05
0.0102522
0.00111511
3.8746e-05
0.000557972
0.000273314
0.000610559
0.00583066
0.0014334
0.00140715
0.000117263
0.00168493
0.013904
0.00114589
0.001482
0.00100134
0.0034709
0.000757226
0.000739993
0.000736009
0.0103967
0.000544361
0.000221105
0.00583068
0.005841
0.00583518
0.00107651
0.000321767
0.00821582
0.00679396
0.000740579
0.0028446
0.0133799
0.005836
0.000193817
0.00585438
2.02617e-05
0.00147193
0.00540941
6.18984e-05
0.00126028
0.000176581
0.00162983
0.00582915
0.0003794
0.00497298
0.00284906
0.000203829
0.00582853
0.000557507
0.00858407
0.00583581
0.00583266
0.00583269
0.000137161
0.000186989
0.00583601
0.00241558
4.29254e-05
0.0058327
0.000186592
0.000106221
0.00583029
0.004166
0.00034556
0.000705773
0.000836363
0.00513122
0.00563007
0.000562653
0.000388801
0.00590215
0.00583172
0.0146963
0.000176812
0.00929103
0.000422756
2.56668e-05
0.00583345
0.000395619
0.00255883
0.000407918
5.65838e-05
0.0025104
0.00996194
0.00583404
0.000559062
0.000442162
0.00233244
0.00582921
0.00169103
0.00155643
0.00583297
0.00583422
8.91771e-05
0.000374886
0.0012184
0.00554655
0.00583823
0.00199098
0.0011731
3.83989e-05
0.00584766
0.000829828
0.00108652
0.00292499
0.00169029
0.013771
0.00844863
0.00283192
3.16452e-05
0.00583353
0.000112201
0.00586735
0.00109575
0.000357969
0.00141511
0.00583257
0.000179797
0.00137316
0.0053749
0.00583551
0.00294537
0.000427668
0.00196741
0.0015377
0.000367279
0.00801636
0.00474047
0.00583271
0.00210014
0.00144624
0.00144565
0.00042499
0.001042
0.000543248
0.00583028
0.00586747
0.00583606
0.0148383
0.000322615
0.0013734
0.000118058
0.000393581
0.00584252
0.00153182
0.00111388
0.00534445
0.00601366
0.00248217
0.00583838
0.00748179
3.78977e-05
0.00137648
0.00583138
0.000805615
0.00583748
0.000366748
4.00476e-05
0.0127471
0.00583397
0.00583817
0.00111359
0.00583269
0.0140734
0.0111993
0.0127384
0.00209993
0.00583663
0.00105666
0.00585008
0.00583347
0.00590758
0.000239808
0.00583179
0.000106209
0.00583611
0.00160283
0.00583354
0.00587791
0.000308327
0.00571727
0.000140333
0.00018388
0.0109709
0.0090774
0.000983783
0.00583451
0.00158494
0.000830404
0.000757783
0.00589454
0.00237873
0.000570263
0.00584055
6.73804e-05
0.000436811
9.64627e-05
0.00384141
0.000621872
0.00267971
0.0103063
0.00147884
9.78139e-05
0.000805776
0.00100024
0.000486429
0.00583185
0.000217335
0.00183894
0.00583449
0.00583338
0.000555028
0.00583443
0.00288741
0.00225078
0.0113878
0.0058447
0.00319411
0.000833694
0.000695816
0.00585328
4.55994e-05
0.00583962
0.00583304
0.0114375
0.0119875
0.000130623
0.000647314
0.000727277
0.000318819
0.00013088
0.000935526
0.000332409
0.00903398
0.00100038
0.000963036
6.28426e-05
0.0100147
0.00587721
0.00583385
0.00583587
0.00078263
0.000342772
0.000404159
0.00339981
0.0131536
0.00123047
0.000102435
0.00108269
0.00206194
0.00174017
0.00583953
0.00541696
0.00150626
0.000440722
0.0125762
0.0130167
0.00583336
0.00582926
0.0128622
0.00187117
0.00583483
0.00194709
0.00582894
0.000417622
0.00583548
0.0058353
0.00314526
0.00326963
0.00841654
0.000230617
0.00561183
0.000526535
0.0102503
0.00262789
0.00112543
0.00582833
0.000774901
0.00050715
0.00188065
0.00139725
0.000398019
0.00583549
0.00430571
0.000972771
0.00126868
0.000324293
0.00104525
0.00365942
0.00583943
0.00770104
0.000209079
0.000405698
2.80247e-05
0.000257054
0.00583683
0.00014405
0.00224196
0.0031937
0.00584256
0.00432913
0.00814901
0.00582908
0.0144291
0.00308943
0.0047287
0.0058319
0.0135297
0.000338694
0.00111169
0.00475487
0.00583202
4.44084e-05
0.000712243
0.0023952
0.000716688
0.00583093
0.0120963
4.18262e-05
0.00194923
0.00218379
0.00583571
0.000616539
0.000425242
0.0058285
0.00583199
0.00201549
0.000364974
0.00200346
0.000197276
5.62681e-05
0.00153457
0.00583347
0.000328378
0.00446374
0.00292087
0.0107179
0.00158662
0.000247207
0.00709939
4.04573e-05
0.0058329
0.0144342
0.00358342
0.00463072
0.00029041
0.000683252
0.00583508
4.051e-05
0.00263704
0.000489471
0.00149702
0.00107948
0.00104111
0.0058345
0.0142342
0.000287676
0.00583835
0.0106589
0.00583378
0.00114206
4.88292e-05
0.000487493
0.0113735
4.22417e-05
0.00261245
0.000436796
0.00253571
0.00586188
0.00624296
0.00120853
0.000129746
0.00285247
0.0112182
0.00583391
0.00584021
0.00583345
0.00583556
0.00851874
0.000204329
0.0111664
0.010136
0.000350822
0.0010383
0.0140226
0.000296625
0.00223828
0.00300621
2.47263e-05
0.00137187
0.0058336
0.000477122
0.000149972
5.54569e-05
3.01482e-05
0.000160233
0.00969479
0.00246585
3.15794e-05
0.00583494
0.0106519
0.00583415
0.010305
0.00583617
0.00163745
0.00271258
0.00405249
0.00319742
0.00583094
0.00048372
0.00583639
0.00203486
0.00170997
0.000675998
0.00193757
0.00106167
0.00218689
0.00584462
0.000740054
0.00130272
0.00583445
0.00242457
0.00348943
0.000415476
0.000261225
0.00583343
0.00276498
0.00583829
0.000522735
0.00318095
0.001461
0.00252873
0.00035311
0.00583875
0.00153828
0.0112979
0.0106529
0.00351599
0.00621593
0.0011778
0.000376523
0.00446719
2.68546e-05
0.000713286
0.00149083
0.000952963
0.000113416
0.00198865
0.00589431
0.00130231
0.00130006
0.0119162
0.00101874
0.00286958
0.0122424
3.14617e-05
0.00030019
0.00522688
0.00100833
0.00930433
0.0111523
0.0102044
0.00966307
0.000971129
0.0124507
0.000494334
0.0058337
0.000392187
0.00583369
0.00323418
0.000666877
0.0101371
0.0058346
0.00432556
5.4441e-05
0.000774255
0.0015591
0.000398254
0.00251792
0.00583334
0.00583133
0.00202268
0.000106642
0.00583379
0.00471558
0.000807386
0.000308575
0.00164447
0.00414718
0.00156164
0.00073783
0.000728939
0.000132288
0.0138629
0.000405616
5.6114e-05
0.0140714
0.0015058
0.000488289
0.00599607
4.18382e-05
0.00583453
0.00164178
0.00583387
0.00586819
0.00583548
0.0058349
0.00104708
0.00105139
0.00583601
0.00263754
0.00136467
0.00583929
0.0017964
0.00569399
0.00955999
0.000824694
0.00181648
0.00583469
3.79584e-05
0.00046686
0.00625589
0.00583343
0.00617922
0.00150308
0.00583144
0.00195548
0.000403484
0.00586419
0.0110683
0.000193616
0.00312062
0.000242985
0.00150492
0.00142029
0.00583553
0.000188065
0.00156707
0.00584844
0.00109957
0.00583143
0.00125878
0.0136221
0.00333195
0.00172482
0.00583495
0.00152044
0.000193038
0.00200698
0.000883023
0.000155981
0.000707966
0.0058313
0.0120984
0.00188556
0.0101523
0.00109841
6.1725e-05
0.00125286
0.00239223
0.00160201
0.00466922
0.00583476
0.00152574
0.0107261
0.00947058
0.00583196
0.00583579
0.000402689
0.00583637
0.013261
0.00156646
0.000655922
0.000346677
0.000356459
0.00583463
0.00707
0.0136293
0.00035252
0.000480089
0.00038503
0.00583999
0.00014336
0.00132697
0.00222636
0.00854219
0.000650934
0.00583344
0.00135189
0.00536225
0.0146397
0.00494345
0.000322418
0.000206585
4.63255e-05
0.00791374
0.000164966
0.00585872
0.0118705
0.00113453
0.00592197
6.98614e-05
0.00166941
0.000553283
0.000883464
0.00583417
0.00165873
0.00583353
0.00583218
0.0140207
0.00291823
0.00583497
0.000297456
0.000275487
2.73567e-05
0.0123969
0.00313165
0.00114946
0.00180075
0.00583494
0.00186938
0.00145684
0.00453557
0.00111826
0.00584739
0.000299982
0.000427758
0.00121813
0.0058347
0.0112878
0.000216279
0.000194412
0.0008527
3.78831e-05
0.000166075
0.00583358
0.0127275
0.000636484
0.000708495
0.00100081
0.00618582
0.00355385
0.00214089
0.0013835
0.0011125
0.000856745
0.000182401
0.00245126
0.000489101
0.00298514
0.000141023
0.000417094
0.00154464
0.000177646
0.00128999
0.00360167
0.0058326
0.0023963
0.000113074
0.00113106
0.00574347
0.00583469
0.00256412
0.00611471
0.00205492
0.00583581
0.00583461
0.000236026
0.00601928
0.000690866
0.00583602
0.00121395
7.63199e-05
0.000177345
0.00583306
0.000813127
0.000953367
0.00584588
0.00210502
0.000354986
6.23184e-05
0.0027228
0.000492088
0.00583028
0.00250844
0.00583617
0.00583614
0.00047671
0.000282995
0.00583336
0.00605067
0.000333696
3.89877e-05
0.00822472
0.00147081
0.00128209
0.00583524
0.00201554
0.00582932
0.00307488
0.00114015
0.0058311
0.000135612
0.000577302
0.00280835
0.000526513
0.0130325
0.000652433
0.000283088
0.00039204
0.00466988
0.0123774
0.00269014
0.00317548
0.000177008
0.0004705
0.000124823
0.00112283
0.0133436
0.000320186
0.00282641
0.0026642
6.13911e-05
0.0126877
0.00298508
0.000671395
0.00329586
0.00433552
0.00533101
0.000699961
0.00789559
0.00584048
0.000846818
0.00179149
0.00981393
0.0129851
0.0030058
0.0130983
0.00585237
0.0010882
0.00201474
0.000978199
0.00583173
0.00711144
0.000789757
0.000557645
0.00583113
0.00253793
0.000877131
0.000368372
2.99499e-05
0.00585285
4.61133e-05
0.000555454
0.00824584
0.00583342
0.00582992
0.00259477
0.00955051
0.00589812
0.000202821
0.00583199
0.000224909
0.00584842
0.00188468
0.00130498
0.000195746
0.00190269
0.00586833
0.000117864
0.0115773
0.000727251
0.00108399
0.00215018
0.00361564
0.00541725
0.00583387
0.00337331
0.00251433
0.000977257
0.0139706
0.00584518
0.00215604
0.000988598
0.00423851
0.00419128
0.00047274
0.00107308
0.00246422
0.000607939
0.000730277
0.0043585
0.00033124
0.00302392
0.00583448
0.00583935
0.00270588
0.00105681