/*--------------------------------*- C++ -*----------------------------------*\
| =========                 |                                                 |
| \\      /  F ield         | OpenFOAM: The Open Source CFD Toolbox           |
|  \\    /   O peration     | Version:  v2012                                 |
|   \\  /    A nd           | Website:  www.openfoam.com                      |
|    \\/     M anipulation  |                                                 |
\*---------------------------------------------------------------------------*/
FoamFile
{
    version     2.0;
    format      ascii;
    class       volScalarField;
    location    "100";
    object      p;
}
// * * * * * * * * * * * * * * * * * * * * * * * * * * * * * * * * * * * * * //

dimensions      [0 2 -2 0 0 0 0];


internalField   nonuniform List<scalar> 
37809
(
-0.00880239
-0.101793
0.0206431
-0.0563308
-0.108006
-0.0904219
0.182428
0.475222
-0.0777044
-0.419006
-0.165956
0.0334084
0.104678
0.105027
-0.308745
0.0161948
0.00776826
-0.104084
-0.0115342
0.159175
0.272994
0.270817
-0.110213
0.00723449
0.1475
-0.304414
-0.106868
0.0585333
0.0117562
0.451328
-0.130468
-0.239863
0.00738671
0.205733
-0.0295783
0.00774852
-0.019898
-0.241365
-0.117931
-0.20304
-0.389332
-0.378415
-0.148041
-0.411511
0.0157519
-0.06528
-0.101938
-0.121586
-0.107341
-0.0354168
-0.0341215
0.0260282
0.00296916
-0.00914795
-0.248633
0.00302303
0.0580557
-0.0601508
-0.114397
-0.2562
-0.360843
0.0903167
0.10312
-0.136178
-0.129463
0.141971
-0.352205
-0.0108847
-0.0466413
-0.107832
-0.0140422
-0.254117
0.0369449
0.103915
0.0577669
-0.0177807
-0.200502
-0.104196
0.00115562
-0.221603
0.0134469
0.0119798
-0.104236
-0.083569
-0.00974923
-0.14657
0.0543422
-0.338716
-0.10015
0.129788
-0.242339
-0.396501
0.293443
-0.371425
0.0558888
-0.103303
0.038246
-0.0349539
-0.103491
-0.00357511
-0.328366
-0.0350544
-0.134402
-0.102596
-0.107259
0.00760821
0.439058
-0.411529
-0.155997
0.0330548
0.163065
-0.0823736
0.322038
0.060923
0.0584842
-0.116708
0.0343953
0.0420926
-0.133397
-0.123597
0.00773404
-0.0244782
-0.106621
-0.112497
-0.418106
0.0351825
-0.103826
0.0126693
0.129448
-0.04599
-0.205033
-0.10233
-0.115148
0.00779443
-0.224398
-0.00378381
-0.0339741
0.0904706
-0.212561
-0.329274
-0.0290856
-0.142766
-0.217658
-0.388727
0.0365865
-0.353524
-0.0575305
0.0808845
-0.105868
-0.00989347
-0.102054
-0.045336
-0.0774569
-0.245159
-0.203879
-0.00970131
-0.143004
-0.132921
-0.00974149
-0.257239
0.131402
-0.100284
0.256948
-0.407083
0.0785168
-0.0140545
0.0181447
-0.404542
-0.125547
-0.200976
-0.114749
0.00119662
-0.143696
-0.0395163
-0.0474717
0.0639368
-0.106259
0.131913
-0.104742
-0.000485683
-0.124899
-0.0306136
0.00318251
0.0551888
-0.0164765
-0.142562
-0.0314988
-0.0817968
-0.32166
-0.384461
-0.0372113
0.0379193
0.0351243
-0.408794
-0.251383
0.397525
0.0368119
-0.0127042
0.00182883
-0.0155548
-0.0327861
-0.170913
-0.310344
-0.00790153
-0.116837
-0.0165435
-0.0408325
0.189483
0.0207038
-0.0964954
0.196979
-0.101906
0.000363788
0.0415332
0.0237383
-0.335093
0.258476
-0.00404927
0.000356134
-0.103225
-0.373626
0.520378
0.0427369
-0.02862
0.0139368
-0.104052
-0.377211
-0.102995
0.137687
-0.325805
0.0527367
0.359008
-0.137952
0.0875336
-0.115116
-0.3333
-0.000365983
-0.104691
0.0776912
-0.21366
-0.112679
0.0015484
-0.247437
-0.108187
0.015256
0.0313731
0.0138559
-0.0107844
-0.202355
-0.0167364
0.0285989
0.00774262
0.0220682
-0.138556
0.0237607
0.0248691
-0.0125987
0.0313664
0.139886
-0.184938
-0.241212
0.0355309
-0.0360363
-0.0244479
-0.359621
0.0248575
-0.10219
-0.104368
0.0382277
0.402017
-0.118303
0.0242597
-0.110643
-0.265693
0.00789702
-0.208328
0.195676
0.0258933
-0.25441
0.0301523
-0.0316868
-0.110744
-0.420453
0.00679253
-0.0969115
0.0313558
0.0356559
0.0128752
0.0240706
-0.106601
0.0204747
-0.0991802
-0.293289
0.00276607
0.0131871
-0.0805782
-0.104184
-0.408743
0.0230027
-0.372331
-0.0982804
-0.238956
-0.0178775
-0.107453
-0.419482
-0.0850391
0.0197087
-0.0120312
-0.39221
0.00159251
-0.0959212
-0.135248
-0.101721
-0.0178168
0.00774121
-0.379938
0.0839185
-0.0125265
-0.191585
-0.111352
-0.15531
0.521081
0.092231
-0.010186
-0.351994
0.272087
-0.420369
0.0387034
0.0182173
-0.115387
-0.000130709
-0.0217991
-0.0314583
-0.41182
-0.0104123
0.0075382
-0.0820324
-0.0131232
0.00918381
-0.172149
0.00169131
0.104251
0.221213
-0.106968
-0.0661853
-0.114629
-0.379077
0.0259924
-0.13077
-0.0582385
0.518323
0.356271
0.0334668
-0.00986784
-0.078117
-0.324101
-0.016767
-0.102875
0.0361846
-0.106797
-0.105864
0.0106175
-0.175149
-0.0684838
-0.391492
-0.104211
0.211953
0.0355518
-0.0610099
0.0118226
0.105331
0.284903
-0.0908152
-0.0450729
-0.160107
-0.0086565
-0.102955
-0.0169451
-0.102618
0.128458
0.035281
0.0823332
-0.119711
-0.105834
0.501224
-0.110099
-0.321723
0.0776441
-0.194889
-0.010918
0.0298766
-0.315938
0.0180128
0.025552
0.0714752
-0.10085
-0.17521
0.48775
-0.0814577
0.0195452
-0.381324
-0.0963779
-0.0108268
0.0419933
-0.00667035
0.101053
0.00197113
-0.105093
-0.124294
-0.145302
0.278713
-0.0834206
-0.142715
0.053913
-0.018484
-0.249752
0.489807
-0.422137
0.0137742
0.00690208
-0.384949
-0.124204
-0.0296764
-0.107288
0.0130247
-0.102494
-0.0276072
0.167152
0.136839
-0.27278
0.00190182
0.0303179
-0.0548684
0.057605
-0.386975
0.0511094
-0.10652
-0.106453
-0.139408
0.000173401
0.0464745
-0.181254
-0.13443
-0.0909013
0.0200312
-0.0207607
-0.186777
-0.245525
-0.0901993
-0.108962
-0.0989126
-0.00879103
0.0595205
0.0315762
0.0404721
0.00691457
-0.0198462
0.00701244
-0.370194
0.0220094
0.0437815
0.00909527
-0.246185
-0.106193
-0.160232
-0.102032
-0.0493436
0.043404
-0.104957
0.0243472
-0.0879498
0.00154445
0.0255394
0.00554459
-0.0849799
0.00294557
-0.0973419
-0.349974
-0.0715097
0.0314191
0.0120665
0.0351379
-0.0784287
-0.017032
-0.415339
0.0208504
-0.100363
-0.116849
-0.198155
-0.0327023
-0.177237
-0.0810344
-0.0886878
-0.0356734
-0.170069
-0.16536
-0.0108834
-0.100355
-0.139547
-0.107107
-0.0199208
-0.249277
-0.386888
-0.354874
0.0332834
0.0061069
-0.115875
-0.280686
-0.0146141
-0.0141173
-0.0181297
0.00256095
-0.376773
0.0034876
-0.0474419
-0.329402
-0.412694
0.0275208
-0.414034
0.0686513
-0.410787
-0.206797
0.0286194
-0.420965
-0.0482335
0.0172134
-0.239402
-0.103625
0.233115
-0.118478
-0.41982
0.0776419
-0.235864
-0.0144436
0.00828356
-0.012253
-0.00899615
-0.106214
0.0246793
0.0135077
-0.200809
0.0186766
-0.105455
-0.109231
-0.412023
0.0492418
0.0434485
-0.214821
-0.0926309
0.00823437
-0.0684253
-0.0909176
0.0254674
-0.213062
-0.37206
-0.080372
0.0224278
-0.145857
0.310647
0.0741652
-0.0260731
-0.108676
-0.112134
-0.0120232
-0.401877
-0.0715343
-0.170029
0.025601
-0.203177
-0.106748
0.0118155
-0.395773
0.0400082
0.0524279
-0.00467105
0.030934
-0.392924
-0.137142
-0.0110253
-0.0138806
0.0108734
0.0948581
0.263687
-0.106553
-0.412289
-0.340937
-0.105403
-0.409022
-0.414865
-0.104193
0.0434127
0.00823241
-0.0248503
-0.0330881
-0.0286107
0.0310361
-0.0111063
-0.108759
-0.36936
0.00870958
0.0373194
0.0208448
-0.103689
-0.067006
0.279214
-0.0295844
-0.0924919
-0.0561545
-0.14797
-0.153103
0.00207094
-0.0336072
-0.0325165
-0.101503
0.039598
0.0281702
0.0350517
-0.17818
0.467123
0.488982
0.0284673
-0.102638
-0.104301
0.0784144
-0.40766
-0.0968562
-0.095219
0.00839327
0.0378822
0.0357241
-0.268704
-0.331035
-0.0836393
-0.392418
0.0169746
0.0387587
-0.0967695
-0.0959493
-0.000749193
-0.371118
-0.010459
-0.0933918
0.394539
-0.196222
-0.102292
0.522831
-0.130353
0.0398394
-0.0117292
-0.0612704
0.0387444
0.13901
-0.385015
0.0381027
-0.3938
-0.216132
-0.370784
-0.0562237
-0.111439
-0.0828599
-0.0273368
-0.0473035
0.0133822
0.153444
0.0451469
-0.0610203
-0.0453903
-0.289779
-0.403191
-0.108131
-0.409947
-0.179849
-0.0720188
0.0204093
-0.0334497
-0.0142753
-0.268514
-0.360245
-0.00771796
-0.0508026
-0.106631
-0.103975
0.0436761
0.0206178
-0.103886
-0.242788
-0.385091
0.025691
-0.40746
-0.00250833
-0.113776
-0.0773728
-0.0425157
0.0453551
-0.10184
-0.0155707
0.0394011
0.0256327
-0.00339327
-0.14235
-0.10629
-0.175694
-0.283664
0.00976361
-0.138185
-0.0936762
-0.204766
-0.329383
-0.0619576
-0.377483
0.0775413
0.051715
-0.110185
-0.329753
-0.132518
-0.206737
-0.107504
-0.0695505
-0.393243
-0.103776
0.0586276
-0.109979
0.145868
-0.0957205
0.12266
0.112292
-0.0810465
0.0628709
0.168024
-0.119276
0.130289
-0.0563656
-0.0684078
-0.0883251
-0.0523297
0.0331417
0.0500124
0.0266677
0.0597014
-0.130903
0.188667
-0.0275809
-0.0145706
-0.0159408
-0.398448
0.0075528
0.00974167
0.160837
-0.115963
0.0185382
0.0119453
-0.0521266
-0.11958
-0.0111372
0.0101242
0.00268961
-0.161079
-0.11959
-0.260772
-4.57615e-05
0.018726
0.00727898
0.0983608
0.031605
0.0176566
-0.0489342
-0.369361
-0.124952
-0.106695
0.0109058
-0.00883507
0.211419
-0.103696
0.0394063
-0.25486
-0.106384
0.0447138
-0.0193582
0.00743775
-0.369215
-0.11524
-0.0830486
-0.163725
-0.112941
-0.034032
0.194794
-0.00800603
-0.136003
-0.399698
-0.0521121
-0.34701
-0.121108
-0.323107
-0.22252
-0.220703
-0.138598
0.0784888
-0.107467
-0.0140557
0.521906
-0.0690405
0.000251705
0.00174487
-0.0115286
-0.374407
-0.0219122
-0.203859
0.0372652
0.0916997
-0.202379
-0.00215688
0.0255098
-0.388498
0.332435
0.00885243
-0.0160232
-0.386994
-0.123502
-0.083776
-0.0967164
-0.0658055
0.0521163
-0.0119672
-0.10041
-0.170827
-0.148624
-0.388591
-0.10514
-0.205648
0.155038
-0.229423
0.0770544
-0.121763
-0.407031
-0.212333
0.0188581
0.031744
0.40106
0.0123914
-0.10702
-0.409924
-0.252782
0.0310743
0.204549
-0.00247831
0.0820802
-0.402019
0.0266658
-0.114147
-0.323607
0.0323113
0.00768776
-0.0645664
-0.0120596
-0.060338
-0.117506
-0.0909186
-0.0770417
-0.408785
-0.11837
0.0452202
0.101593
0.00265555
0.142869
-0.0115778
0.0312003
-0.241994
-0.100539
0.104554
-0.0351566
-0.0105978
-0.0353447
-0.0188361
0.39113
0.407549
0.0295336
-0.107773
-0.101728
-0.000652714
-0.145578
0.0160724
-0.0556669
0.0189666
0.0595812
-0.104856
0.0715643
-0.395908
0.0388019
0.0640991
-0.305149
-0.117873
0.0285675
0.0117936
-0.406329
-0.407011
0.0191259
-0.40662
-0.0667247
0.0807362
-0.217713
0.103044
-0.366842
0.109621
0.0349715
0.0102544
0.00153817
0.0639974
0.0313471
-0.0684744
0.345835
-0.0898774
-0.342494
0.126526
-0.107195
-0.057656
0.0265397
-0.0825782
-0.109866
-0.0765038
-0.0900702
-0.076941
-0.223483
-0.142654
0.0500855
-0.0597078
0.077399
-0.394036
0.0287321
0.401894
-0.00523346
0.0101695
0.0654062
-0.346992
0.050149
0.123759
0.10109
0.059607
-0.0190167
-0.180041
-0.117244
-0.064764
-0.0119321
-0.0885762
-0.102329
-0.263429
-0.00682483
0.105806
0.166975
-0.107156
-0.329726
0.0444032
-0.136202
0.0128835
-0.0548037
-0.127947
0.431934
-0.0673716
-0.109267
0.166411
0.0327639
0.0154272
-0.103954
0.0326585
0.0259235
-0.0338017
-0.108736
-0.334001
-0.0653638
-0.0049719
-0.0191978
-0.0186646
-0.0799167
-0.0169733
-0.111016
-0.358155
-0.019344
-0.198819
-0.0322761
-0.257259
0.294459
-0.100864
-0.0600514
0.229268
0.0428479
-0.383038
-0.00425386
-0.100599
0.0314182
0.045444
0.405472
-0.0145876
0.00646195
-0.230151
-0.0856276
-0.0608089
-0.0521168
-0.35736
-0.151582
-0.335283
-0.0316023
0.250607
-0.218144
-0.103712
0.000559986
-0.0631316
-0.00254145
-0.101268
-0.106517
0.334326
-0.147098
0.00799622
-0.054462
0.0423836
-0.1132
-0.326843
0.0789985
-0.206621
0.0320653
-0.0885951
-0.00190239
0.0333618
0.00616004
-0.0494461
-0.389786
0.0321083
0.0222836
-0.135793
0.0334734
0.00802987
0.206372
-0.112091
-0.0519712
-0.207407
-0.000406634
0.482041
0.521805
0.0318951
-0.112794
0.19544
-0.101765
-0.108394
0.0466061
-0.0173847
-0.227927
0.349433
0.0423805
-0.333696
-0.102795
-0.204534
0.0719376
-0.0136664
-0.258014
-0.172772
-0.261771
-0.00275619
-0.252886
-0.102087
0.305235
-0.074634
-0.0157994
0.00791134
0.00169485
0.00983498
0.016291
0.0823227
-0.109272
0.0631437
0.0603973
0.114089
0.118801
0.0218981
-0.106975
0.135363
-0.1001
-0.0738626
-0.0324302
0.424874
-0.112575
-0.126622
-0.107404
-0.104563
-0.00112327
-0.0712226
-0.190257
-0.110915
-0.204292
0.495907
-0.0145688
0.0408326
-0.101723
0.0485644
-0.406456
-0.105261
-0.161118
0.118696
0.116795
0.00644289
0.00234647
0.034321
0.0395803
0.0517612
0.0384981
-0.318271
0.0334856
-0.357797
-0.0106512
-0.138796
-0.387668
0.00793922
0.0307198
-0.137754
-0.401027
-0.0972348
0.00917956
-0.322914
0.00927478
0.0318929
0.0771584
-0.322266
-0.106319
-0.257037
-0.400585
-0.107014
-0.078769
0.356861
-0.00421283
-0.0183152
-0.351454
-0.371992
-0.101162
-0.0711792
-0.0335304
-0.315952
0.351086
-0.412083
0.0027822
-0.179796
-0.0362457
0.0347928
-0.0769181
0.253576
-0.217641
0.0144288
0.315859
-0.106741
-0.297171
0.0430194
-0.0142488
-0.302666
0.0888693
-0.165749
-0.0617469
0.174956
-0.0757302
-0.0931267
-0.167163
-0.00109468
0.0331168
0.0187359
-0.0889678
-0.336656
0.0117212
-0.410089
-0.0349645
-0.417856
-0.356228
-0.203213
0.00764613
0.00896308
-0.117409
-0.127634
-0.0104602
-0.226024
-0.0292656
-0.400406
-0.0621356
0.130418
0.0416431
-0.0861567
-0.148953
0.06384
-0.000988951
-0.000295986
-0.406287
-0.0941498
-0.0185307
-0.0872055
-0.344306
-0.168492
-0.0617812
-0.368438
-0.108836
-0.0802702
0.396133
0.0160017
-0.121036
0.0069853
-0.122185
0.0424675
-0.17733
0.0262164
0.0336577
0.495875
-0.120031
-0.053457
-0.105878
-0.0103651
0.0302802
-0.408767
0.00226683
0.461774
0.232695
0.0398051
-0.103179
-0.141062
-0.200138
0.0321021
0.156423
-0.0849928
0.0260571
0.104526
-0.308021
-0.108478
0.205136
-0.0948303
0.0212558
-0.0183958
-0.097302
-0.37087
-0.105033
-0.0785407
-0.0822286
0.0780879
-0.338047
-0.091677
-0.0924972
-0.382182
-0.00082448
-0.0963544
-0.176841
-0.0154325
0.0559515
-0.175345
0.0208796
-0.373977
-0.118369
-0.0375899
0.0157048
0.0208654
-0.105552
0.016502
-0.380977
-0.112216
-0.157508
0.353355
0.00881003
0.0881787
-0.115744
0.017612
0.00704656
-0.0775094
0.0409164
-0.108129
-0.335852
0.115445
0.0206382
0.0405576
-0.00121345
-0.166082
-0.264284
-0.202506
-0.228884
0.0250992
0.0203036
-0.0456253
0.0102772
-0.153731
-0.0660419
-0.319383
-0.223724
-0.0516572
-0.103348
-0.10124
0.00116359
-0.09308
-0.15918
-0.0170645
0.0174695
-0.0722935
0.114363
-0.133246
-0.330229
-0.319613
0.0100769
0.0208196
-0.105124
-0.127596
-0.391382
-0.230095
0.140903
-0.375248
-0.0182902
-0.156508
-0.369431
0.316154
-0.00687103
-0.142977
-0.0194977
0.0209607
0.00602589
-0.0100988
0.0423127
0.0624596
-0.104021
-0.388399
0.0391704
-0.0122908
-0.109233
-0.250078
-0.0780745
-0.383306
-0.322567
-0.270993
0.00771476
0.0560484
-0.221135
-0.105539
-0.091504
0.0367947
0.0146934
0.0287116
-0.00690328
0.0774276
-0.1312
-0.349608
0.00667132
-0.0400368
0.0649528
-0.0424678
-0.104295
-0.0900905
0.111048
-0.410649
0.314128
0.00931817
-0.406004
-0.227626
0.139281
-0.282923
-0.0186975
-0.0899121
-0.38606
-0.100504
-0.35532
0.0694232
0.0341381
-0.389773
0.351377
0.0223336
0.0124838
-0.0858112
-0.282528
0.000845039
-0.00980324
0.0242049
-0.00958526
-0.0212805
-0.10078
-0.117378
-0.0101001
-0.0642173
0.204856
0.0346071
-0.0127738
0.023559
-0.0135741
0.0435874
-0.0758624
-0.0456642
0.0528766
-0.0662083
0.0236305
-0.10145
0.0726902
-0.417717
0.441346
-0.221888
-0.09533
-0.0121631
0.0242927
0.00631206
0.348455
0.000149878
-0.00908027
-0.104004
-0.112018
-0.113081
-0.00603797
-0.0959201
-0.252695
0.0527754
-0.106509
0.100246
-0.116865
0.0110228
-0.223958
-0.219846
0.066332
0.00178264
-0.346409
-0.10363
0.0549056
0.501666
-0.309278
-0.246022
-0.197346
-0.233733
0.0451289
-0.105033
-0.160243
-0.303954
0.0120111
0.426831
0.0269133
-0.0138487
-0.105165
0.0169914
-0.0894054
-0.104174
-0.00580558
-0.351702
0.143005
-0.121438
-0.0749907
-0.0430941
0.0682274
-0.000903582
0.0505968
-0.00539159
0.165667
-0.0996492
-0.00553915
-0.23214
-0.171614
-0.100885
-0.124075
-0.11953
0.0376277
-0.40491
0.00935233
-0.126048
-0.410012
-0.400005
-0.373149
-0.22132
-0.126079
-0.0935423
-0.0528976
-0.406454
0.0160155
0.018634
-0.106848
0.0267102
0.0891291
-0.404552
0.054071
0.490588
-0.0394218
0.0156266
-0.103152
0.101727
0.0156885
-0.109818
0.168195
-0.0483683
-0.0940842
0.00764535
-0.142445
0.0257274
-0.102536
0.0205678
-0.294315
-0.0882888
0.433352
-0.409457
0.0359747
-0.105697
0.0157955
-0.30313
-0.0411546
-0.0193982
-0.106607
0.00870874
0.0149707
-0.387079
-0.0193711
-0.104972
0.0160907
-0.00274843
0.0306076
-0.116699
-0.110972
0.0147554
-0.205684
0.0348627
0.00311123
0.10583
-0.102784
-0.0872496
-0.196871
0.119039
0.126057
0.0248306
0.0147615
0.031821
-0.0487561
-0.217488
0.000834334
0.065408
-0.13242
0.0118063
0.122665
0.0243218
0.0266582
-0.191403
-0.0111296
0.00158978
0.0159103
0.00149233
0.0266944
-0.341776
-0.0364487
-0.234668
-0.25706
-0.128739
-0.403049
-0.0780641
0.0247629
-0.333218
-0.106805
-0.0048029
0.0152558
-0.130714
-0.126821
0.0593079
0.30671
-0.0392279
0.00858321
0.00353935
-0.420801
0.02444
-0.13653
-0.0421512
0.324479
-0.406745
0.0294102
-0.319204
0.00934746
-0.36451
0.40214
-0.179975
-0.106003
-0.112019
0.0168577
-0.358185
-0.0875654
-0.00588615
0.000895428
0.0473399
-0.108822
-0.10208
-0.116709
-0.26321
0.0176864
-0.00856462
-0.375362
0.0390132
-0.274886
-0.0374664
-0.335885
0.273365
-0.0376169
-0.0550405
-0.0841976
0.0247353
-0.0202794
0.00906902
0.017118
0.0246285
0.471847
0.0371993
0.248915
-0.233577
-0.0405129
-0.345103
0.275562
-0.00916075
-0.258602
-0.0469418
0.363989
0.356225
-0.00411591
-0.106691
-0.192412
0.0155466
-0.366333
-0.00158952
-0.306473
0.0188132
0.0509495
-0.117507
-0.0951993
0.0411154
-0.0548623
-0.0615296
0.456976
0.00429288
-0.214116
0.0359948
-0.133573
-0.197035
-0.0804718
0.0204017
-0.0540914
-0.330123
0.134403
0.052813
-0.106395
-0.0394032
-0.416006
-0.101823
-0.0802621
0.0212684
-0.000883315
-0.35324
-0.124335
-0.315045
-0.0840671
-0.237411
-0.104235
-0.259697
-0.0910828
-0.406637
-0.0396941
-0.39914
0.243762
0.488567
0.0307635
-0.00245245
-0.206585
-0.0378202
0.482211
-0.381207
-0.116872
-0.401451
-0.320772
-0.0742859
0.00273826
-0.274602
-0.0222037
-0.131554
0.0498711
-0.0190521
-0.256276
-0.00257427
-0.146332
0.0323436
0.0171914
0.0365326
-0.149274
-0.124711
0.460991
0.0124496
-0.167049
0.0167553
-0.364068
-0.120658
-0.415234
0.0418037
-0.380388
-0.168395
-0.0197846
-0.144622
0.0483099
-0.0181469
0.0171976
0.0352408
0.0267823
0.0281349
0.0365555
0.0142697
0.0129892
-0.107847
-0.121994
0.0429731
-0.103862
-0.10192
0.315232
-0.0780853
-0.00168046
-0.123694
-0.241237
-0.0636037
-0.0183017
-0.123065
0.0217132
-0.0941256
0.0143366
-0.203928
-0.157786
-0.0137358
0.437523
0.454093
-0.0845497
-0.0476975
-0.24216
0.318357
-0.371814
-0.309241
0.0480315
0.245915
0.00183719
-0.0897789
-0.0226266
-0.174377
0.0100785
-0.0770156
-0.195691
0.0265206
0.0347791
-0.26351
-0.00871812
-0.104599
0.0333667
-0.157058
-0.107309
0.139983
0.00225444
-0.322366
0.450577
-0.0626918
-0.107648
-0.0951541
0.0348841
-0.14595
-0.0939913
0.0659101
0.0294587
-0.301679
-0.362173
-0.33603
0.0625682
0.0783243
-0.408315
0.0264315
-0.105744
-0.407472
-0.168078
0.00109876
0.0239041
-0.278876
-0.10502
0.00917492
-0.10691
-0.397522
-0.10675
-0.307858
0.0191929
0.0625554
0.0118809
-0.110863
0.104089
0.30629
0.211313
0.0168393
0.168301
0.00119431
-0.20412
0.0311237
-0.220285
0.0581188
-0.0541604
-0.405177
-0.102918
0.256933
0.183982
0.009724
0.357364
-0.0115414
-0.128473
-0.141442
-0.123837
0.0737773
-0.101243
0.0722921
-0.0135935
-0.123782
-0.133716
-0.00686897
-0.161612
0.0221843
-0.014622
-0.120244
-0.409284
0.0240536
0.0126064
0.00810654
0.0155213
-0.371739
0.0180788
-0.222302
0.178491
-0.306242
-0.106128
0.469724
-0.0318911
-0.259433
0.0682268
0.00564283
-0.093652
0.0670222
0.168323
-0.208841
-0.105721
-0.100994
-0.101027
-0.0704124
0.0275738
-0.148319
-0.108351
-0.0444549
-0.103716
-0.0348422
-0.202367
0.00580506
0.00156817
0.0229805
-0.115893
-0.202327
-0.190002
-0.30859
0.0153449
-0.0202337
-0.376283
0.00868105
-0.179482
-0.00670773
0.183048
-0.401132
-0.130019
0.353232
-0.321111
-0.0462494
-0.205673
-0.00645375
-0.343592
-0.0203351
-0.0667545
-0.250633
-0.00669295
0.0941461
-0.107091
0.0253942
0.0067355
-0.0092852
0.231488
-0.244502
0.00814658
-0.0489191
0.400382
0.0131689
-0.375123
0.223132
0.00146397
-0.16012
-0.353826
-0.272494
-0.118921
0.000419126
-0.104601
-0.00129983
-0.185588
-0.00608316
-0.00902716
-0.172138
0.0630337
-0.304416
-0.195947
0.296991
0.0283421
-0.0880909
-0.0965425
0.130499
0.494504
-0.0479671
-0.398785
0.0229509
-0.143812
-0.0488089
-0.10283
0.00148359
-0.0657814
-0.0754758
0.0111062
0.0185111
0.243363
-0.200146
-0.10201
0.0376758
0.0346196
-0.019541
0.0356173
0.445581
-0.0114866
-0.107678
-0.106584
-0.0391567
-0.102159
-0.369018
-0.107722
-0.131945
0.373966
0.0205309
0.216698
-0.0193779
-0.0799035
0.0919919
-0.209886
0.0127141
0.0887537
0.0679466
0.0379148
0.0237661
0.0225455
-0.143376
0.0567135
-0.0929002
-0.0468935
-0.107272
-0.308631
0.012351
-0.101946
0.0672946
-0.241368
-0.143719
-0.0722667
0.0932576
0.00199812
-0.0195085
0.0122183
-0.105361
0.0193575
-0.0833561
-0.137201
-0.186522
0.0259695
-0.0733092
-0.105645
-0.106358
-0.0100175
-0.0448188
0.0346738
-0.384144
0.458593
0.0678648
-0.0010338
-0.144304
0.00645907
0.132499
0.490346
-0.230819
0.0232335
0.00608786
-0.0782265
0.0132696
-0.268282
-0.130499
-0.211431
-0.00248271
-0.0107786
-0.105698
-0.102156
0.0281798
-0.0101941
-0.146586
0.00726722
0.189089
0.00877342
-0.335697
0.0202735
-0.0213026
0.128833
-0.00481035
0.217977
0.0922445
-0.21983
-0.365139
-0.0845288
0.0255352
-0.39646
-0.409711
-0.148341
-0.0217195
-0.206649
0.0666776
0.0354932
0.520381
-0.0432512
0.182561
-0.37603
0.103383
-0.101985
-0.397318
-0.358127
0.275265
0.0120234
-0.0176515
0.118348
0.00740502
-0.188404
-0.322521
0.0202913
0.0287488
-0.144444
0.0257552
-0.16321
-0.344807
-0.103479
0.00406971
-0.0200725
0.0778801
0.0468058
-0.00194914
0.0621294
0.0351281
0.0114203
-0.105876
-0.383234
0.232397
-0.192195
-0.110198
0.0227343
-0.230991
-0.0737981
-0.0712259
-0.107605
-0.133454
-0.0636842
0.312772
-0.344429
-0.021182
0.00749441
0.0118083
-0.40575
-0.106167
-0.0919217
0.0418916
-0.105625
-0.113338
0.265894
-0.117284
-0.211038
-0.40026
0.0232367
-0.00773247
-0.0833059
-0.341725
-0.107722
-0.218662
0.0285931
0.0017621
-0.122344
0.0588946
0.0290426
-0.0136612
-0.00249867
-0.198861
0.00895095
0.0227644
0.0414242
0.045485
-0.121436
-0.211947
-0.00713804
0.117645
-0.344802
0.041036
-0.0068546
-0.00792781
0.0127098
-0.406366
-0.106726
-0.409156
-0.0918509
0.022314
0.00696223
-0.10504
-0.112953
-0.36034
-0.100857
-0.00477275
0.0222042
-0.132626
-0.249666
-0.195616
0.315974
0.168529
0.0261287
-0.224608
-0.405788
-0.0240935
0.0255045
-0.144376
-0.106142
0.00162994
-0.111431
0.0406805
0.0392172
0.00959387
-0.122
-0.0403544
-0.121971
-0.347353
0.00966458
-0.0374633
-0.406781
-0.405768
-0.150242
0.00640383
-0.103573
0.37982
-0.0590566
-0.269751
0.025442
0.105559
-0.197932
-0.00788153
0.00969947
-0.0122458
-0.247791
-0.0578844
0.196723
0.357031
-0.0939547
0.0178896
0.143123
0.0396408
-0.151016
-0.103275
-0.0723582
-0.145426
-0.402142
0.44389
-0.00509185
-0.103576
-0.00428292
-0.0135756
0.167472
0.0915415
0.00933799
0.438643
-0.0431425
0.119003
-0.0848295
-0.10004
-0.101076
-0.0133562
-0.113078
0.136143
0.0244514
-0.102416
0.0262793
-0.100749
0.297894
0.120145
-0.103245
0.488809
0.0509962
-0.20675
-0.0429179
-0.0185103
-0.283361
-0.123927
0.233926
-0.406598
-0.117752
0.00790888
0.0226136
0.0283816
0.0204268
-0.195115
-0.00951813
-0.344168
-0.253408
-0.0603264
-0.0990925
-0.103249
0.0204097
-0.0575334
-0.409844
0.224997
-0.0880144
0.0120391
-0.269971
0.207753
0.500774
0.341338
0.215246
-0.357049
0.0393217
0.414719
0.0297935
-0.195361
-0.00248309
-0.395674
0.0120112
-0.0661688
-0.0275183
-0.102003
0.0417279
0.00630193
-0.181417
0.0302053
-0.0128566
-0.0654156
-0.00597358
-0.336821
-0.0975937
-0.404934
0.00450587
0.0916855
-0.10038
0.0203371
-0.101565
0.0443548
-0.265653
-0.369447
-0.0050047
-0.083853
0.0335815
0.0785335
-0.0241946
0.0667768
-0.102176
0.0746036
0.0242373
-0.0579547
-0.39097
-0.103262
-0.102019
-0.102673
-0.099861
0.06785
-0.0194754
0.332874
-0.124333
-0.0799187
-0.158082
-0.08306
-0.357336
-0.021551
-0.0599378
-0.104974
-0.223578
0.0530956
0.0422034
-0.383033
0.39767
-0.290821
-0.102123
-0.0263381
-0.228296
-0.320001
-0.390671
-0.230539
-0.0772477
-0.384916
-0.189375
0.0265129
-0.0880326
0.0122745
-0.206359
0.0496754
-0.247873
0.0121613
-0.101878
-0.320672
0.0864606
-0.109888
-0.239318
-0.0470662
0.0283492
0.00499123
0.00955458
0.25964
0.0264893
0.00486889
-0.126158
0.0284711
-0.0645059
-0.156912
-0.100597
0.000174888
-0.0231097
0.227706
-0.107542
-0.178642
0.504908
-0.104348
-0.0815528
-0.411961
-0.0109056
0.0578461
0.0153237
-0.0659014
0.0233396
-0.0192581
0.0130625
0.0315481
-0.12496
-0.126078
0.00887835
-0.102751
-0.0897868
-0.0144383
-0.199832
-0.00590992
-0.194107
-0.0681268
-0.0396057
0.0120528
0.480791
0.0804604
-0.356332
0.0285434
-0.106156
-0.0912415
0.00672557
0.0506368
-0.00820162
-0.0189331
-0.221629
-0.208494
-0.0404224
0.158081
-0.0744915
-0.107547
0.032191
-0.160633
-0.101025
-0.0121481
-0.402149
0.0067626
-0.0781747
-0.106514
0.0275781
0.0311235
0.0239854
-0.0800459
-0.00771586
-0.145486
0.0809773
-0.102345
0.0866338
0.00527169
-0.342098
-0.121068
-0.128349
-0.338236
0.332326
-0.104331
-0.101399
-0.0753993
0.0401693
0.0207478
-0.31213
-0.267197
-0.216086
0.0096314
0.0220647
-0.0143601
0.00862404
-0.376715
-0.0305499
-0.414228
0.140323
0.137436
0.0269979
-0.393465
-0.106088
0.0247913
-0.181615
-0.183334
0.00385923
0.229835
-0.359032
0.0575709
-0.144926
-0.144625
0.011571
-0.0605047
-0.0202367
-0.144842
-0.381059
-0.180708
0.182202
0.407925
-0.38724
-0.17447
-0.0181333
-0.106813
0.0656668
-0.0255839
-0.358092
-0.0717802
-0.0460444
-0.406125
0.0228838
-0.0540836
0.0268043
0.010651
-0.105705
-0.202825
0.0314657
0.156344
-0.263318
0.314234
-0.103699
-0.343926
-0.102104
-0.38727
0.0293802
-0.382017
-0.0609056
0.0404153
-0.092173
-0.0121395
-0.265751
-0.190894
-0.0916444
-0.0111818
-0.325266
-0.00798364
0.193648
0.0545696
0.449488
0.0457309
0.0249661
-0.104162
0.0698729
-0.00173008
-0.113713
-0.105611
0.0283177
0.0577788
0.0675019
-0.0774709
0.0789079
-0.234031
-0.408933
-0.0868236
-0.0249191
-0.169581
-0.0520782
-0.061351
-0.336695
-0.224103
-0.114588
0.0127968
-0.276373
-0.20532
-0.0757231
0.0270557
-0.00107046
-0.0110051
-0.17125
0.0561214
-0.0138215
-0.0008425
-0.0453392
-0.101935
-0.118199
0.00850838
-0.122095
-0.103322
-0.233137
-0.00542667
-0.106027
0.062901
-0.0155473
-0.0316694
-0.10961
0.344857
-0.12263
-0.193315
0.00094819
-0.100934
0.0124104
0.00898063
-0.415668
-0.256458
0.0116873
-0.122862
0.145039
0.478876
-0.303032
-0.106697
0.0379257
0.0319856
-0.101466
-0.00204111
-0.0399929
-0.0800462
0.00609587
-0.410893
-0.0261714
-0.0399876
-0.406718
-0.355071
-0.142779
-0.259534
-0.255119
0.0400363
-0.106745
-0.046614
-0.0363236
-0.180157
-0.00611238
-0.0487592
-0.0913505
-0.229388
-0.100532
-0.000154805
-0.101726
0.31046
-0.228155
-0.0333541
-0.144267
0.0411665
-0.00783037
-0.38381
-0.097021
-0.122875
-0.0147487
0.080491
-0.103306
-0.111267
-0.105682
-0.0405223
-0.375223
-0.00714111
0.0763356
-0.0569925
-0.0749544
0.00856539
-0.161525
0.0508092
-0.0485307
0.0060683
-0.271433
0.0767658
-0.210325
0.397866
-0.00691193
0.362541
-0.146378
-0.104305
0.0112058
0.00397938
0.0378503
-0.234659
-0.00829107
-0.0970586
0.00819711
0.171278
-0.000495407
-0.420653
-0.0769382
0.0890545
-0.0850754
-0.0195867
-0.0178027
-0.280387
-0.110393
-0.12399
-0.0306755
-0.101563
0.0340997
0.0237877
0.0174157
-0.0476957
-0.109092
-0.354809
-0.0156859
-0.0560006
-0.304465
-0.371736
0.0388519
0.115758
-0.406105
-0.000631187
0.104947
-0.109664
0.038762
0.143593
-1.63299e-06
-0.0109676
0.0042901
-0.130179
-0.10029
0.00467007
0.0501715
0.021048
0.126014
0.0236332
-0.0718424
0.0038113
-0.105489
-0.240707
0.0525495
-0.143743
0.0668855
-0.38162
0.102355
-0.115465
-0.156762
-0.0143692
-0.0583536
0.0191841
0.0548839
0.0342666
0.0621826
-0.104461
-0.00677258
-0.193533
-0.109706
-0.323616
-0.0407396
-0.00816296
-0.0671779
-0.12061
0.0201275
-0.377975
-0.0019117
-0.294199
0.00519407
0.0199489
-0.0191594
-0.40382
-0.189796
-0.374495
-0.297223
0.0593291
-0.279902
-0.101597
-0.246737
-0.105939
-0.00843245
-0.114956
-0.0678707
-0.41244
0.17502
-0.124837
0.190386
-0.343989
0.0113244
-0.107099
0.185704
0.518313
-0.37457
-0.198215
-0.0639336
0.293663
-0.0787006
-0.235857
-0.131587
0.0198906
-0.103335
0.169035
-0.047697
-0.0604115
-0.107526
-0.00226205
0.488344
-0.0408488
-0.00572846
-0.0861835
-0.27707
-0.00262855
-0.055521
0.1783
0.0517049
-0.111356
-0.0053149
-0.0822412
-0.39552
-0.105618
-0.275708
-0.0797995
-0.0849974
-0.131551
-0.106942
0.00841892
-0.106991
-0.386424
-0.259378
0.100332
-0.00142297
-0.00647705
-0.000768813
0.126581
-0.106745
-0.000678355
0.071977
-0.0197859
-0.00915812
0.127092
-0.147414
-0.0999203
0.0147667
0.0377527
0.00835557
-0.0159287
0.0133616
-0.150313
-0.113505
-0.370526
-0.0188768
0.260053
-0.0929208
0.00751763
0.00659911
-0.00530484
-0.2868
-0.101829
-0.038456
5.13389e-05
-0.0157742
-0.106403
0.0160068
-0.0441568
-0.066893
-0.341867
-0.408966
0.311038
0.0249058
-0.045304
0.0252097
-0.0109478
-0.00743812
-0.380151
-0.0866205
-0.105473
0.00244923
-0.121573
0.0589547
0.350481
0.0310485
0.0821713
-0.248073
-0.138501
-0.392729
-0.37495
-0.298174
0.323055
-0.0929512
-0.143667
0.234606
-0.0825984
-0.105285
-0.0999284
-0.348312
-0.00121461
-0.38921
-0.0198799
-0.0466782
-0.184003
-0.0486097
-0.401095
0.408757
-0.0863529
0.0570112
-0.38547
-0.108398
0.278793
-0.420455
0.0341462
-0.0114123
-0.103439
-0.0717015
-0.10213
-0.283968
0.0801626
0.0489262
-0.206803
0.317667
-0.105423
-0.326824
-0.0356861
-0.199471
-0.295913
0.0684255
0.00218964
-0.0928138
-0.132136
-0.0411606
0.00973251
-0.125889
0.0155434
0.0211254
-0.364506
-0.166513
-0.00718522
-0.0264733
-0.025109
-0.417072
-0.0925473
0.0371093
0.235419
-0.0240259
0.0502234
-0.105564
-0.043204
-0.104393
-0.291067
-0.0127354
-0.0713933
0.0129575
-0.408995
-0.289472
-0.113818
-0.0285764
0.0948966
0.291048
0.015653
0.0594748
-0.105181
0.117914
-0.280634
-0.0265247
-0.347826
-0.0432818
-0.0996914
-0.137541
0.0439251
-0.0353265
-0.328658
0.00676176
0.0252328
-0.10609
-0.0763975
-0.200643
-0.0599182
0.00892203
0.100169
-0.0819314
-0.106215
-0.105724
0.389437
-0.217135
-0.19396
-0.144761
0.0263637
-0.0844562
-0.0729774
-0.153025
0.0483771
-0.102158
0.0277429