/*--------------------------------*- C++ -*----------------------------------*\
| =========                 |                                                 |
| \\      /  F ield         | OpenFOAM: The Open Source CFD Toolbox           |
|  \\    /   O peration     | Version:  v2012                                 |
|   \\  /    A nd           | Website:  www.openfoam.com                      |
|    \\/     M anipulation  |                                                 |
\*---------------------------------------------------------------------------*/
FoamFile
{
    version     2.0;
    format      ascii;
    class       surfaceScalarField;
    location    "100";
    object      phi_0;
}
// * * * * * * * * * * * * * * * * * * * * * * * * * * * * * * * * * * * * * //

dimensions      [0 3 -1 0 0 0 0];
oriented        oriented;


internalField   nonuniform List<scalar> 
56134
(
-0.0529875
0.0525203
0.000467222
-0.00674825
0.00280878
0.00393946
-0.428297
0.257165
0.171132
-0.161805
0.143879
0.0179265
-0.00202154
-0.0114616
0.0134831
0.0418294
-0.105782
0.0639528
-0.0274824
-0.00970649
0.0371889
0.0118733
-0.00767047
-0.00420288
-0.00169058
0.00169058
0.00466681
-0.00731355
0.0334513
-0.0898803
0.056429
-0.220667
0.176585
0.0440815
0.0113886
-0.103651
0.0922627
-0.0836161
0.0950047
0.00880053
-0.00886352
6.29989e-05
0.117584
-0.0302737
-0.0873108
-0.245019
-0.0868902
0.331909
0.00242217
-0.0109794
0.00855728
0.205905
-0.13593
-0.0699751
-0.0448152
0.040741
0.00407424
-0.0436264
0.00983485
0.0337916
0.00221984
-0.0458463
0.0101751
0.0157837
-0.0259588
-0.399543
0.248487
0.151055
0.068572
-0.00426599
-0.064306
0.0460374
0.0109065
-0.056944
0.0322124
-0.0512215
0.0190091
-0.0794594
0.154608
-0.0751483
-0.189695
0.37837
-0.188675
0.0136817
-0.0102707
-0.00341101
0.0908241
-0.0676003
-0.0232237
-0.0058032
0.00634011
-0.24429
-0.155252
0.00723269
0.0211136
-0.0283463
0.201317
0.0279436
-0.22926
0.128908
-0.373927
-0.304015
0.197419
0.106597
-0.0682029
0.0584993
0.00970367
0.0640567
0.0290719
-0.0931286
0.0576856
0.024996
-0.0826815
0.00380583
-0.00303441
-0.000771423
-0.0111153
0.0093359
0.00177937
-0.00157829
0.00200615
0.00788936
-0.00962579
0.00173643
0.266066
-0.166098
-0.0999688
0.121844
0.0136572
-0.135501
0.0223811
-0.072699
0.0503178
0.0135196
-0.0439449
0.0304253
0.0554873
-0.0232749
0.0584089
0.0283977
-0.0868067
0.145921
-0.243152
0.0972305
-0.147983
0.282226
-0.134243
-0.123019
-0.184542
0.307562
0.152124
-0.182788
0.0306642
0.00780037
-0.00437447
-0.00342589
0.179279
-0.302298
-0.09351
0.0862725
0.00723747
0.0397348
0.11326
-0.152994
-0.0658028
-0.032442
0.0982448
0.0714462
-0.0492202
-0.022226
-0.00309361
-0.00484597
0.00793957
0.0308199
-0.127514
0.0966942
0.00143818
-0.105089
0.049898
-0.0848458
0.0349479
0.0212663
0.0695578
0.0563813
0.0121907
0.0621393
-0.0458053
-0.016334
-0.214734
0.126067
0.0886678
0.0704732
-0.193894
0.12342
0.0529723
-0.0521471
-0.000825231
0.158041
-0.119318
-0.0387232
0.00743099
-0.00743099
0.143865
0.0432756
-0.18714
0.025337
-0.108953
-0.157025
0.0775652
-0.248603
0.278223
-0.0296202
0.0856873
-0.0280018
-0.0740475
0.0633686
0.0106788
-0.0516338
-0.00135377
0.049592
0.0247432
-0.0743353
-0.109053
-0.124369
0.233422
-0.403714
0.214019
0.0445527
-0.0320214
-0.0125313
0.0756441
-0.122623
0.0469789
-0.258084
0.189166
0.0689188
-0.00212396
0.000545667
0.0666967
0.0880096
-0.154706
0.022998
-0.0652651
0.0422671
0.0181517
-0.0950656
0.0769139
-0.0721033
-0.00456336
0.0766666
-0.0560195
-0.0121834
-0.00893887
0.0107454
-0.0018065
-0.0214013
0.0436135
-0.0222122
-0.0143501
-0.0116945
0.0260446
-0.063586
0.130283
0.0368239
-0.0165597
-0.0202642
0.142117
0.0517749
-0.193892
0.214224
-0.0683026
0.00287206
-0.00290313
3.10731e-05
0.246942
-0.373801
0.12686
0.0318462
-0.0626923
0.0308461
0.167085
0.047139
0.0949384
-0.0450404
0.00897268
-0.00655051
0.0674357
-0.0466467
-0.020789
0.335549
-0.0710064
-0.264542
0.00362384
0.0100579
-0.00602484
0.00405673
-0.0184424
-0.0463955
0.0648379
-0.135687
-0.0849795
-0.00554152
-0.0392737
-0.0464931
0.122137
0.00692497
0.0230162
-0.0299411
0.0773235
0.0369104
-0.114234
-0.0801035
-0.0134065
0.0967276
-0.0326709
-0.130631
0.00158583
0.129045
-0.217547
0.149304
0.0682431
0.0414364
0.017916
-0.0593524
-0.000394167
0.000123136
0.000271031
0.213058
0.116859
-0.329917
-0.111743
0.196335
-0.084592
-0.0285241
0.106466
-0.0779419
-0.0107483
0.00872679
0.0074655
-0.00964801
-0.181551
0.0509205
0.047464
0.0272309
-0.0746949
-0.264359
0.169988
0.0943703
-0.062956
0.0940967
-0.0311407
0.197962
-0.130123
-0.0678391
0.0769234
-0.0356885
-0.0412348
-0.0144746
0.0681157
-0.0536411
-0.0002146
2.21146e-05
0.000192485
0.327672
-0.179564
-0.148108
-0.0459661
-0.0229087
0.0688747
-0.0609229
0.307864
-0.146666
-0.0964862
-0.0815567
0.112377
0.00578074
-0.0068829
0.00110216
-0.0184678
0.0673405
-0.0488727
0.240904
-0.0395872
-0.0146111
0.0493263
-0.0347151
0.00578074
0.00327003
0.000535801
-0.0361599
0.180024
0.040386
0.0217533
0.1372
-0.0563805
-0.0808192
0.0303198
0.0902099
-0.12053
0.033171
0.0113817
-0.337476
0.284552
0.052924
0.00327775
-0.00328234
4.58954e-06
0.137296
0.0606659
0.117491
-0.0907115
-0.026779
0.0361594
0.0271267
-0.0632861
-0.0890014
0.0474894
0.041512
0.0151962
-0.352672
-0.0522097
0.0375986
0.061633
-0.0201966
0.0154028
0.136721
0.00060417
-0.00660225
0.00599808
-0.0864801
0.0235241
-0.0764789
0.0368185
0.0396604
0.0206559
-0.0241194
0.00346355
-0.00131001
0.0017117
-0.000401692
-0.134729
0.0170549
0.117674
0.155034
0.178395
-0.33343
0.153289
0.111177
-0.264466
-0.00396043
-0.00307237
0.0070328
-0.0320287
0.0988356
-0.0668069
-0.098525
0.0500719
0.048453
-0.041566
0.0613069
-0.0197409
-0.317192
0.10094
0.216252
-0.00030602
0.000756902
-0.000450882
0.0618033
-0.174681
0.112877
0.197516
-0.127043
0.119529
-0.0814097
-0.0381196
0.015654
0.0517816
0.0219934
-0.0189692
0.0141494
0.00481975
0.0678516
-0.0559105
-0.0119411
0.000108708
-0.000502875
0.228683
-0.0895574
-0.139126
-0.32678
0.142238
0.153321
-0.0595318
-0.0937895
-0.363505
0.181883
0.181622
0.0353438
-0.0742265
0.0388828
0.106486
0.122197
-0.088927
0.124934
-0.0360074
-0.0754499
0.056982
0.00915714
-0.0122627
0.00310561
0.0877884
-0.0293794
0.185392
0.178379
-0.0498002
-0.128579
0.00443864
-0.00919067
0.00475203
-0.0422253
-0.0316415
0.0738668
-0.0203153
0.00306942
0.0172459
-0.115122
0.208365
-0.093243
0.182578
0.129612
-0.31219
-0.188434
0.341922
-0.153488
0.141569
0.0164714
0.00723071
-0.00723071
0.0923736
-0.0589223
0.00886306
0.010653
0.0571986
0.000110539
-0.000325139
-0.160269
-0.203236
0.159938
-0.0981342
-0.0385997
-0.0100875
0.0486872
0.188473
-0.300123
0.11165
-0.0551819
0.0824998
-0.0273179
0.0124608
-0.0510606
-0.00271909
-0.00402916
0.108136
-0.328276
0.22014
-0.107184
-0.110363
0.072586
0.112768
-0.185354
0.0735668
-0.0440466
-0.0295202
0.0241886
0.0241372
-0.0483258
0.264154
-0.1422
-0.121953
0.291836
-0.1837
0.0792747
-0.0567828
-0.0224919
0.0162867
-0.0306368
0.00143478
-0.00351734
0.00208256
0.111076
-0.177592
0.0665164
-0.111886
0.20043
-0.0885443
-0.239787
0.130734
-0.00423724
-0.00337429
0.00761153
-0.00188668
0.00322998
-0.0013433
-0.0277567
0.0752207
-0.0453161
-0.0343283
0.0796444
-0.0290559
0.060902
0.0552496
0.106925
-0.162174
-0.0153033
-0.014287
0.0295903
0.0266384
0.0431635
-0.069802
0.0604528
0.0569029
-0.117356
0.0165996
-0.0581656
0.055516
-0.032518
-0.176431
0.362039
-0.185608
0.008708
-0.003899
-0.004809
-0.0100521
-0.124677
-0.0948419
0.0572038
0.0376381
0.0408169
-0.0290287
-0.0117882
-0.205861
-0.111332
-0.0788562
0.0379571
0.0408991
0.0611415
-0.0451695
-0.015972
0.0965063
0.16956
0.224825
0.0368781
-0.261703
-0.36275
0.103473
0.259277
0.102709
-0.315023
0.212314
-0.0685358
-0.0299892
-0.357751
0.19601
0.161741
0.2283
-0.339822
-0.389394
0.145104
0.0498574
-0.236541
0.186684
0.003415
0.00620555
-0.00962055
-0.171192
0.0913526
0.0798397
0.076441
-0.185691
0.10925
-0.126914
0.147472
0.112158
-0.259631
0.00938107
-0.032067
0.022686
0.000370914
-0.0026442
0.00227328
0.0670141
-0.0308547
0.154981
0.023398
0.00887815
-0.00164744
-0.207171
0.0954282
-0.00952999
0.00643638
-0.0483468
-0.0222467
0.0705935
0.0710998
-0.0487187
-0.123163
0.0946387
-0.108036
0.211108
-0.103073
-0.0159209
-0.0043944
-1.3806e-05
0.000124345
0.200823
-0.128237
0.0105145
-0.0190091
0.00849454
-0.0725594
0.0337603
0.0387991
-0.232231
-0.157163
-0.0383029
-0.0430367
0.0813396
-0.0243376
0.0315703
-0.219786
-0.0323444
0.25213
0.0478375
0.0236087
-0.235034
0.244985
-0.00995134
-0.231201
0.138568
0.0926325
0.000469211
-0.000244547
-0.000224665
0.00892313
-0.00145763
-0.338652
0.274636
0.0640161
-0.0471108
-0.0157279
0.0628387
0.00123507
0.22359
0.161021
-0.197181
0.24303
-0.347285
0.104255
-0.0947512
0.0495094
-0.00379791
-0.0457115
-0.0911387
0.267801
-0.176662
-0.059259
-0.0326106
0.0918697
0.00817186
-0.00817186
0.299649
-0.120371
-0.150789
-0.113569
-0.146776
0.0578492
0.075522
-0.0504631
-0.0250589
-0.00572452
0.00675042
-0.0010259
0.180267
-0.0889148
0.0306693
-0.00196908
-0.0287002
0.0721615
-0.131421
-0.0066676
0.000864397
-0.261108
0.0125052
0.0374059
-0.0634827
0.0260768
0.00635215
-0.00168534
0.0841083
0.0528827
-0.136991
-0.358043
0.0185759
0.339468
-0.181638
0.0623201
-0.00209201
-0.000942396
-0.373761
0.1679
0.0646832
0.015424
-0.0801072
-0.00759546
0.0110105
0.00508915
-0.00503227
-5.68806e-05
-0.0441569
-0.031892
0.0760489
-0.102814
0.315872
0.0023979
-0.00405707
0.00165917
-0.0969783
0.0999177
-0.0029394
0.14087
0.0650349
-0.0344938
-0.00314271
0.0376365
0.000469211
0.073324
0.00451947
-0.0778434
-0.000347121
0.0017819
0.0807721
-0.0323699
-0.0484023
-0.075949
-0.105689
0.0337883
-0.0650765
0.0312882
0.051523
-0.0223648
-0.0291583
0.00856238
-0.00794671
-0.000615668
-0.147793
-0.0358007
0.183594
-0.26754
-0.0517525
0.319293
0.068955
-0.052286
-0.016669
-0.333749
0.157318
-0.279457
-0.0737379
-0.157463
-0.00287939
0.0847188
-0.295296
0.210577
0.23188
0.0957922
0.0968384
0.00116911
-0.0980075
0.222475
-0.0816048
0.162095
-0.335938
0.173843
-0.107485
0.0726438
0.0348412
0.352973
-0.349543
-0.00343064
0.0755551
0.0329066
-0.108462
0.0259396
-0.00528371
0.00515476
0.118286
0.0114492
-0.129735
0.0582148
0.0107401
-0.00155298
-0.0329408
0.100183
-0.319969
0.00041614
-0.000539779
0.000123639
0.135127
0.0020723
-0.00313911
-0.000378236
-0.00229023
0.0241549
-0.0218647
-0.216298
0.0806111
-0.149392
-0.0653421
-0.0016832
-7.3746e-06
-0.0706082
0.00791594
-0.175868
0.0176622
0.0616124
-0.212849
0.0977268
-0.0023811
-0.0181914
0.0205725
0.0144948
-0.00559908
0.0874918
-0.0818927
0.00377944
-0.0011374
-0.00264204
-0.00274944
0.00466248
-0.0323295
0.0257096
0.00661991
-0.00699246
0.00275522
0.0362701
-0.0636989
0.0274288
0.13015
-0.117114
-0.0130357
-0.146839
0.0620458
0.084793
0.13098
0.153156
-0.284135
0.100892
-0.0409608
0.0195595
-0.0529775
0.0948069
-0.00512171
0.00512171
0.0497312
-0.0978432
0.048112
0.280837
-0.262611
-0.0182259
-0.0313767
-0.0664811
0.0978578
-0.355737
0.00309692
-0.00309259
-4.32836e-06
0.0307065
-0.0238066
-0.00689989
0.198047
-0.0370261
-0.0666584
0.000322104
-0.00033591
0.0793307
0.0308555
-0.110186
-0.00458322
0.00720317
-0.00261995
-0.118922
0.107609
0.0113128
-0.0147489
-0.0558593
0.0580561
0.0293953
-0.0874514
0.0363177
-0.00564848
0.136622
-0.287494
0.150873
0.0644343
-0.299468
0.00502594
-0.00968131
0.00465538
0.108354
-0.375895
-0.21955
0.0534812
0.166069
-0.0312092
0.110119
-0.0789102
0.0788693
-0.0607176
0.00389777
-0.00194422
-0.00195355
0.0101946
-0.00353857
-0.00665606
0.0433264
-0.134876
0.0915491
-0.00930331
-0.34874
0.00300693
-0.000609021
0.0323301
-0.087512
0.3059
-0.169279
0.0964234
0.0919856
-0.188409
0.328079
-0.0129433
-0.315136
-0.0415443
-0.0120283
0.0535726
-0.254373
-0.119388
0.00581698
0.00289101
-0.0258637
0.0393833
-0.000498521
0.000192501
0.0348607
0.0166624
-0.0849354
0.128262
0.0336114
-0.0868468
0.0532353
-0.0944042
0.149654
-0.0787153
0.215086
-0.136371
0.0720973
-0.0242598
0.00638139
0.00381324
0.00803173
-0.00864763
0.000615898
-0.311385
-0.0513651
-0.38904
0.151079
0.237961
-0.000577409
-0.00102758
0.00160499
-0.0981417
0.066113
0.0584925
-0.0308701
-0.0276224
0.0586411
-0.0212352
-0.0753326
0.318362
-0.0135841
0.0187255
-0.00514145
0.198847
-0.114845
-0.0840018
0.0250195
0.048179
-0.0731985
0.0308049
0.053502
-0.0843069
-0.00726744
-0.0345312
0.0417986
0.107744
0.10336
-0.211104
-0.0629898
0.0146431
-0.0465704
-0.115235
0.0432219
0.0850109
-0.128233
-0.00131878
0.000741376
0.0617724
-0.162593
0.100821
0.00195642
-0.00204703
9.06069e-05
0.0222764
-0.0117618
0.133889
-0.0582433
-0.0756453
-0.163831
-0.169918
0.0993773
0.0406111
-0.139988
0.00854347
-0.0562758
0.0477323
-0.0675378
0.104848
-0.0373101
-0.017526
-0.0794373
0.0969633
-0.127854
0.271202
-0.143347
0.142512
-0.252536
0.110024
0.0022838
-0.00191289
0.0223045
-0.0762764
0.0539719
0.0276285
-0.101908
0.0742794
-0.0377062
-0.0330615
0.0707677
0.0186525
-0.116171
0.0975183
0.258924
0.0219126
0.120545
-0.105816
0.253289
-0.0973586
-0.0747256
0.172084
-0.0901646
-0.171402
-0.132613
-0.299407
-0.0896328
-0.00978781
0.000859633
0.00892818
0.249107
-0.130356
-0.118751
-0.0475331
0.158609
-0.103618
0.0980187
0.0280614
-0.0702867
-0.0660027
0.0250346
0.0409681
0.00237094
-0.000249101
-0.00212184
-0.0047132
0.00647591
-0.00176271
-0.204918
0.14445
0.0604678
-0.0590863
0.0924581
-0.0333718
0.00299105
0.00150775
-0.0044988
-0.0646995
0.22896
-0.164261
-0.0466716
-0.0751402
0.121812
0.231615
-0.123872
0.287096
-0.31944
-0.252155
0.175155
0.0769996
-0.112833
0.0784347
0.0343986
0.11078
-0.228771
0.117991
-0.106328
0.0561293
0.0501987
0.00936223
-0.0106456
-0.0678369
-0.0488831
0.11672
0.176852
-0.282669
-0.147436
0.278415
0.113013
0.103513
-0.216526
0.0449028
-0.140567
0.0956645
-0.159727
-0.00572905
0.00897287
-0.00324381
-0.238165
0.147026
-0.102316
0.0697051
0.0696511
-0.0523209
-0.0173302
-0.0102936
0.0302582
-0.0199647
-0.22121
0.156517
0.0646925
0.00167752
0.00222024
-0.011956
0.108794
-0.0302302
0.0862542
-0.0560239
0.0312867
0.135798
-0.0818855
-0.0255995
0.00137621
-0.000430361
-0.000945848
0.28771
-0.185001
0.0901746
-0.0715222
0.0547285
0.07916
-0.104599
-0.0143236
0.0372968
0.0152235
0.0697578
-0.0474533
-0.000957589
-0.000361195
-0.00809183
0.0484778
0.0263262
0.103823
0.071575
-0.112085
0.0405098
0.0309248
0.009172
-0.00921309
4.10903e-05
-0.140943
0.236292
-0.0953487
0.0815314
-0.243084
0.164368
-0.122517
0.233298
0.00121997
-0.00310666
0.103727
-0.0321524
0.0852884
-0.197071
0.111782
0.0809918
-0.0503038
-0.030688
-0.00335115
-0.00129027
0.00464142
0.0949681
-0.175485
0.0805164
0.0056056
-0.0056056
-0.120367
0.089158
0.00301987
-0.00442622
0.0836957
-0.0463634
-0.0373323
-0.218301
-0.0338244
0.252126
0.00730069
0.191809
-0.106521
-0.0581681
-0.0759842
0.134152
0.0428869
0.0241273
-0.0138069
0.0192316
-0.00542465
0.0412901
-0.0588279
0.0175377
-0.0890142
0.0633624
0.0256519
0.00691069
0.0939161
0.0421809
-0.136097
0.0697552
-0.0268684
0.022612
-0.0667689
-0.320999
-0.0173034
0.338302
-0.112474
0.279188
-0.166713
-0.143419
-0.114665
0.0118877
0.0376217
-0.208165
0.143466
-0.244361
-0.00637354
0.250735
-0.0541048
0.0858154
-0.0317106
-0.126016
0.0678484
-0.0216664
0.0192853
-0.0643643
0.0266581
-0.00432168
0.000970532
-0.18875
0.0432235
0.145527
-0.146541
-0.01589
0.162431
0.00574132
-0.000912415
-0.00482891
-0.0477689
0.0750761
-0.0273072
0.0803617
-0.401361
-0.103889
0.144626
-0.040737
0.0928264
-0.0651978
0.0224299
0.264666
-0.0426794
-0.0521625
-0.0013501
0.00799984
-0.00664974
-0.0899727
-0.241024
0.290881
0.0496592
-0.0681015
-0.0121856
-0.0129356
0.0251211
0.0847089
-0.0266528
-0.0216213
0.0589181
-0.00178046
0.00151796
0.000262501
0.0645667
0.0132508
-0.0778175
-0.283165
0.170691
-0.000764137
-0.00771504
0.00847918
0.0597983
-0.150037
0.0902384
-0.046409
-0.0456391
0.0920481
-0.0782149
-0.141335
-0.0266093
0.0163158
0.0421997
0.0164414
0.390856
-0.213462
-0.177394
-0.00978346
0.000844593
-0.157162
-0.023927
0.181089
0.168697
0.186396
0.0777576
0.200612
0.0787543
-0.279367
-0.00612853
0.00339702
0.00273151
0.00112487
-0.000103208
-0.00102166
-0.130639
0.274693
-0.144054
-0.139916
0.29495
-0.0156383
-0.0879795
0.0775023
-0.0785361
0.00103375
-0.00952899
0.0337176
-0.0443791
-0.0231379
0.067517
0.00874619
-0.0484687
-0.0118155
0.0602842
-0.0102948
0.00639585
0.00752095
-0.00308231
0.00532869
-0.0104791
0.0051504
0.0651318
-0.211673
-0.370687
0.138455
0.151586
-0.0294519
-0.122134
-0.00761965
0.00856168
-0.000942032
0.0869611
-0.00945245
0.210065
0.175262
-0.0416173
0.0171813
0.0244359
-0.0100149
0.000227132
-0.335296
0.1973
0.137996
-0.022835
0.160231
-0.137396
0.37364
-0.174367
-0.199273
0.000985023
0.00188703
-0.0227876
0.100043
-0.0772552
0.0263588
-0.00956997
-0.0167888
0.0747091
0.125721
0.0615431
0.0187834
-0.0803265
-0.16212
0.105739
-0.0536395
0.087251
-0.0234899
0.0968139
0.130544
-0.318978
-0.00795889
0.000339236
-0.0826415
0.0781811
-0.0569223
-0.0212588
0.076433
0.101126
-0.177559
-0.0516229
0.146591
-0.106002
-0.0755492
-0.00972868
0.00206837
0.00766031
0.00624369
0.00562966
0.00908135
-0.00552767
-0.00355367
0.0884247
-0.306726
0.00800475
-0.0215888
0.00355523
0.00275781
-0.00631304
0.110971
-0.00665642
-0.00253425
0.0197395
-0.0668503
-0.00211001
0.0667932
-0.206773
-0.163913
-0.0742314
-0.117152
0.191384
-0.0998362
-0.0441198
-0.0284396
0.0294508
-0.0185192
-0.0109316
0.108243
-0.104396
-0.00384747
-0.00224471
-0.00388382
-0.124489
-0.182697
0.307186
0.145559
-0.234655
0.0890961
-0.0343734
0.106535
-0.0424339
-0.0706262
0.11306
-0.124417
-0.110916
0.235334
-0.00267209
0.00773298
-0.00506089
-0.145327
0.119836
0.0254909
0.0254539
-0.0732228
-0.028507
0.020496
0.00801101
0.00485939
-0.00485939
0.00115867
0.00211908
2.89739e-05
-0.00112397
0.001095
-0.0424093
0.0615024
-0.0190931
0.0635041
-0.220666
-0.0754124
-0.207753
0.12563
-0.0858956
-0.112931
-0.0545706
0.167502
0.0329443
-0.088902
0.0559577
0.000633581
-0.00166116
-0.222024
0.00915714
0.0522356
-0.0739459
0.0217103
-0.00756189
0.0048898
0.042049
0.10183
0.0285118
0.0123051
-0.103849
0.0688293
0.0350195
0.0236147
-0.0267574
0.170452
0.0270643
-0.319694
0.0564778
0.0235878
-0.0800656
0.141738
0.0517684
-0.193506
-0.120707
-0.0261313
0.0400548
0.0184377
0.0747748
-0.0447598
-0.030015
0.000740836
0.00116486
-0.00190569
0.0724453
-0.053239
-0.0192063
0.000960707
-0.00632996
0.00536925
-0.00881958
-0.000909101
0.105802
-0.0251016
-0.0807008
0.139946
-0.00838456
0.000425678
0.305709
-0.127314
-0.0735373
0.052416
0.0211214
-0.0102171
0.00537109
0.340231
-0.352086
0.0118551
-0.151217
0.135171
0.0160453
0.0607844
-0.0185847
-0.00343724
0.0406205
0.107349
-0.14797
-0.223222
-0.205075
-0.0448037
0.0170988
0.0277049
-0.00676663
0.00676663
-0.00422345
0.0071273
-0.00290385
-0.244955
0.0592642
-0.0077859
0.00852674
-0.0754254
0.177015
-0.101589
-0.040802
0.0605709
-0.0197689
0.116101
-0.0867675
-0.0293336
-0.100131
0.180328
-0.0801977
0.042564
-0.0656947
0.0231306
-0.00269391
0.00473079
-0.00203688
0.148369
0.0879225
0.117356
-0.181763
0.0644068
-0.15539
-0.089565
-0.267158
0.160384
0.106775
0.0662828
-0.0309391
0.0138429
-0.0147858
0.000942937
0.00680239
-0.00579435
-0.00100804
-0.00162045
-0.006228
0.00784845
0.315316
-0.154496
-0.16082
-8.54088e-05
0.00121028
0.0840264
-0.12646
-0.0389295
-0.0480353
-0.0202561
0.0682914
-0.185761
0.130088
0.0556733
-0.00430983
-0.00680543
0.127686
0.000206359
-0.127892
-0.092784
-0.037195
0.129979
-0.0352906
0.0136243
0.0413863
0.0396056
-0.00306572
-0.0645346
-0.020242
0.0487387
-0.0284967
-0.0579712
0.0128017
-0.00386293
0.0743551
-0.0704922
-0.00949776
0.0096586
-0.000160842
0.0187393
0.0763664
0.0663443
-0.142711
-0.0240905
-0.0112002
-0.033897
-0.044323
0.0782199
0.0786249
-0.112998
0.0912135
0.00856154
-0.0997751
-0.0523087
-0.0310296
0.0833383
0.0122523
0.11829
-0.0813801
-0.0505817
0.0756011
-0.0602801
-0.0287341
0.0243572
0.0604058
-0.0847629
0.207353
-0.0906549
-0.116698
-0.0212024
-0.0994391
0.120642
-0.0867056
0.0564753
0.174844
-0.108912
-0.0659321
-0.0899822
-0.126316
0.186478
-0.0936078
-0.0928703
-0.242814
0.0874243
0.0719659
0.0826418
0.0192237
0.0173802
-0.0331758
0.0157956
-0.204624
0.0897789
-0.225876
0.109101
0.116774
-0.0174952
-0.0512569
0.068752
0.00418738
-0.00701063
0.00282326
0.354543
-0.0189947
-0.1157
0.100062
0.0572151
-0.000535949
-0.0566792
0.0173651
0.319812
-0.371564
0.0761383
0.0928589
-0.168997
0.135921
0.038923
0.0500978
-0.0863487
0.0362509
-0.152065
0.0726785
0.0793864
0.125466
-0.220711
0.095245
-0.0709373
0.229963
-0.159026
0.00243355
-6.2604e-05
0.00464702
-0.00964644
0.00499942
0.0138632
-0.0630834
0.0789768
0.0247506
-0.00563336
0.325445
-0.0900241
-0.209383
0.0504878
0.0462214
-0.0967091
-0.045002
0.221854
0.294815
-0.141525
-0.113844
-0.0373724
-0.00167742
0.00116284
0.00051458
-0.0294756
-0.0686661
0.00185207
0.0288446
-0.0306967
0.190201
0.140192
-0.330393
-0.105531
-0.0397956
-0.0193241
-0.0252025
0.0445266
-0.0176789
0.00387203
-0.0204258
0.00660225
0.000828742
-0.029128
0.0563758
-0.0272478
0.0251192
0.00558729
-0.32666
0.155257
-0.282032
0.192008
0.00247063
-0.00696545
0.00449482
-0.060359
0.0641833
-0.00382424
0.100314
-0.0314849
-0.0296214
0.0793526
0.00892244
-0.0191794
0.010257
-0.00757148
-0.000813085
-0.0370246
0.00954218
-0.0669048
-0.115884
0.0264968
-0.0673299
0.0408331
0.00678621
-0.00259883
-0.0801091
0.128348
-0.0482386
-0.0176639
-0.00565286
0.0233167
0.0992569
-0.0309468
-0.06831
-0.023791
-0.0516588
0.00535524
-0.00515337
-0.000201869
0.0115438
0.0510189
-0.0625627
-0.0343881
-0.0524586
0.117634
-0.032956
0.0466744
-0.0137184
-0.0535438
-0.172332
-0.00253983
0.0025688
0.0426376
-0.146526
-0.349655
0.185824
0.0814826
-0.181787
0.100304
-0.247513
0.172101
-0.0094195
0.0104192
-0.000999709
-0.154322
-0.125135
0.0961638
-0.0681627
-0.0280011
0.0912128
-0.00349061
0.0809929
-0.0377288
0.0695589
-0.0318301
0.102591
-0.0236137
0.102542
-0.250525
0.00356678
-0.00177001
-0.00179677
0.0297128
-0.0227879
0.332808
-0.194912
-0.137895
0.233967
-0.0855975
-0.007517
0.0192632
-0.0117462
-0.0981065
0.068631
-0.0385147
-0.0482298
-0.0184903
0.0667201
-0.179275
0.0945776
0.0846973
0.115499
0.00764968
-0.123148
-0.254885
0.19364
0.0612447
-0.0244606
-0.0520182
-0.00560846
0.00406603
0.00154243
0.00605167
0.00109074
-0.00714241
0.00203558
0.0015312
-0.054221
-0.00613806
0.0664223
0.0297415
0.0529491
0.0614244
-0.0498806
0.0391756
0.0819725
-0.121148
0.0141481
-0.0348267
0.0206786
-0.00328903
-0.000671404
0.0785499
-0.0263143
-0.185736
-0.06291
0.248646
-0.090761
0.117087
-0.00866484
0.0217771
-0.0131122
-0.0966686
0.172807
0.025325
0.0221642
-0.0474892
0.00535421
-0.0043935
0.0209775
0.0568219
-0.0777994
-0.27874
0.120822
0.157918
0.0540323
-0.0415715
-0.180508
0.105083
0.0803829
-0.0626187
-0.0177642
-0.139618
-0.103196
0.020505
-0.026228
-0.00739078
0.0336188
0.139981
0.090048
-0.230029
0.101207
-0.0767101
-0.0244967
-0.10382
0.0810322
-0.234339
-0.0838592
0.318198
-0.0686619
0.105109
-0.0364473
0.0106786
-0.00603162
-0.0294281
-0.0724798
0.0957114
0.0217792
-0.00614533
0.000420804
0.0928538
-0.042756
0.139998
0.100433
0.00820667
-0.10864
-0.236224
0.165287
0.0724275
-0.0394832
-0.189377
-0.0655077
0.129141
0.123526
-0.252668
-0.00399289
-0.00161048
0.00560337
-0.126746
0.0355273
0.0912191
0.0638812
0.0401106
-0.103992
-0.0627016
0.154352
-0.0916502
0.227905
-0.143186
-0.155182
0.0924808
-0.157837
-0.122566
0.280403
-0.00558186
-0.0229251
-0.0111062
-0.0098209
0.0209271
-0.124929
-0.0130493
0.137978
0.00896259
-0.00252911
-0.00201955
0.00454866
0.148825
0.213213
-0.0167957
0.0664549
0.274145
-0.149592
-0.124554
0.0887215
0.118631
-0.337675
0.332041
-0.0919909
-0.0497262
0.141717
0.00497666
-0.00198561
-0.0516835
-0.0426109
0.0942944
-0.00538586
-0.00687689
0.17508
-0.0577238
0.122189
0.00384309
-0.126032
-0.0354154
-0.033934
0.0693494
0.0109738
-0.0316756
0.0207018
0.262862
-0.296687
0.122087
-0.0965684
-0.0255185
0.00511306
-0.00437112
-0.000741933
-0.00178648
0.00245218
-0.000665697
-0.346978
0.00348874
-0.00253496
-0.000953785
-0.0151226
-0.0924254
0.107548
0.0712719
0.00911095
-0.0243539
0.101871
0.00880486
-0.00880486
0.0482925
-0.100601
-0.107465
0.210978
-0.0557183
0.181184
0.163027
0.178895
0.00442291
0.117766
0.0322487
-0.157178
-0.0034383
0.000688861
0.0217152
0.0138919
-0.0356071
0.0655056
0.0445089
-0.110014
-0.0580278
0.063007
-0.00497915
0.0552946
-0.0486478
-0.00664678
-0.029593
0.105932
-0.123741
0.0178088
0.312836
-0.186177
-0.12666
0.109412
-0.0182659
0.0068043
0.130337
-0.114282
-0.0160555
-0.103711
0.074283
0.140677
-0.0520063
-0.0886706
0.00011163
0.00524361
0.0616936
-0.0460718
-0.0156219
0.132658
-0.0454517
-0.0872059
0.0372705
0.0665155
-0.126238
0.0597225
-0.00754877
0.00333333
0.00421544
0.0040335
0.258829
-0.0196061
0.0109413
-0.195002
0.206832
-0.0118298
0.0100022
-0.0766573
-0.0405872
0.117244
-0.0386948
0.0556349
-0.0169401
0.0246346
0.0908641
0.0558212
-0.000526579
-0.0209071
0.0713949
0.0683553
-0.0566915
-0.0116637
-0.0488118
0.223715
-0.174903
-0.0295046
-0.0304222
0.0599268
-0.0524714
0.0607015
-0.0082301
0.0774626
0.0276466
-0.276263
0.0419235
0.0286047
0.0580446
-0.0866493
-0.00490532
0.00697367
-0.00206836
-0.0132507
-0.0472967
0.0605474
-0.220973
0.364256
-0.143283
0.0967879
0.00213295
-0.0281583
-0.0378444
0.0572031
0.0101374
-0.11493
-0.0559182
0.170848
0.0397324
-0.10727
0.230224
-0.407413
0.177189
-0.0201839
-0.0573673
0.0775512
-0.0408771
0.0621656
-0.0212885
0.0172787
-0.00886551
-0.00841321
-0.118378
0.0971753
0.0431947
-0.0684761
0.0252814
0.00273334
-0.05212
0.0493867
0.183371
0.0460651
-0.229436
-0.201435
-0.136871
0.338306
-0.0421958
0.0694267
-0.0266982
0.210069
-0.266756
0.0686522
0.198103
-0.131189
0.198307
-0.0671185
-0.0237238
0.0669185
0.0240279
0.0435362
-0.0675641
0.106383
-0.0289203
-0.124419
0.251634
-0.127214
0.111822
-0.269659
0.166274
0.0805386
-0.120664
0.0401253
0.142215
0.0917518
-0.0258291
0.0903959
-0.00331683
-0.00690023
-0.102945
-0.00458615
0.00430656
0.131749
-0.204482
0.0727334
0.00655804
-0.00595387
-0.00770114
-0.0164183
-0.0585681
-0.0681783
0.152834
-0.090788
0.0364822
-0.0494945
0.0130123
0.18216
-0.19805
-0.00195592
0.00220212
-0.000246199
0.0291088
-0.225289
0.196181
-0.0318315
0.06865
-0.120775
0.0300142
0.00466002
0.137078
-0.0200405
0.00593873
0.0141018
0.0604033
-0.0778985
-0.226597
-0.0258315
0.252429
-0.0314326
-0.0258875
0.0573201
-0.0500094
-0.0628239
-0.0982356
-0.0479584
0.146194
0.0687397
-0.164736
0.095996
-0.00504803
-0.00294744
0.00799547
0.0219832
-0.0922216
0.0702385
0.00768207
-0.00924999
-0.0828945
0.214643
0.0157277
0.0299933
-0.045721
-0.001856
0.0563935
-0.0545375
-0.00220474
-0.000698395
-0.168615
-0.18104
0.0871261
0.0382711
-0.125397
-0.241715
0.131961
0.109754
-0.00353023
0.00100112
-0.0329366
0.0230425
-0.0137414
-0.00930108
-0.000672222
0.00672389
0.270427
0.0622385
-0.332665
-0.090375
-0.0333662
-0.150115
0.117545
0.0325694
-0.00934347
-0.0435543
0.0678252
-0.0242709
-0.12161
0.0538571
0.0677527
0.0973834
-0.0531283
-0.0442551
-0.200104
0.0240085
0.176095
0.116801
-0.0512958
-0.111017
-0.130699
-0.153815
0.199881
-0.135105
-0.117049
-0.138435
-0.0664833
0.00277826
-0.00816412
-0.226802
0.0585804
0.0260971
-0.0846775
0.0629884
-0.0364916
0.0812205
-0.235036
-0.0941232
0.36455
-0.0239713
0.0616504
-0.0376791
-0.0131055
0.0550622
0.0292207
0.222686
-0.0517875
-0.170899
0.00141088
0.00166537
-0.00263502
0.000969649
0.178176
0.0747949
-0.252971
-0.0414589
0.0608521
-0.0193932
-0.0315517
-0.024063
0.0556147
-0.112872
0.010556
0.0333492
-0.0167031
-0.0166461
-0.0883182
0.0292319
0.209516
-0.0673007
-0.0712914
0.0253253
-0.0324805
0.0171772
-0.0483393
-0.101776
0.0300124
-0.0766973
0.0489406
0.0403448
0.0433508
0.0826732
0.0274463
-0.305495
0.165579
0.0722887
-0.0513111
-0.084576
0.038167
-0.0180206
0.0716138
-0.0535932
-0.135197
0.00257299
0.00522738
-0.0773444
-0.0304622
0.0139276
0.0165346
0.152544
-0.0913208
-0.0612232
-0.142133
0.229657
-0.0875242
0.227864
-0.361304
0.13344
0.125297
0.10931
-0.234607
0.345794
-0.175946
-0.169848
0.19409
0.130921
-0.32501
-0.039937
-0.072819
0.112756
-0.000575694
-0.00120477
0.0968209
-0.0229406
-0.0738803
-0.0691208
0.141087
0.0695439
-0.100573
0.0942893
-0.00353891
-0.0907504
0.169545
0.0795628
-0.012095
-0.00687414
-0.0810513
0.0357352
-0.0834594
0.0321271
0.0513322
0.0937661
0.0587778
0.199865
-0.119486
-0.0803782
-0.0139822
0.0119291
0.00205302
0.0608941
-0.0476434
0.091261
-0.0713512
-0.0199098
-0.00147279
0.00358673
-0.00211394
-0.026587
0.0110263
0.0155607
0.244604
0.109827
-0.354431
0.0506277
-0.0544907
0.0211021
0.0588038
-0.0799059
0.0556627
-0.0814918
0.0315825
0.00645156
0.00105837
-0.00750993
-0.142654
-0.145761
0.288415
0.0778312
-0.17519
-0.00399507
0.00130116
-0.0565814
-0.132169
0.00300052
-0.00815371
0.00515319
-0.0768869
0.0543723
0.0225145
0.0417822
-0.0657766
0.0239944
0.0143366
0.0799528
0.0838805
0.0621797
-0.288777
-0.0588109
-0.195562
0.100907
-0.208372
0.190097
-0.214024
-0.179327
0.111455
0.0678723
-0.211144
0.099299
0.00839093
-0.00817366
-0.000217275
0.125923
0.0973463
-0.223269
-0.0088548
0.00553797
0.336086
-0.336742
0.000656091
0.0697907
-0.105476
0.0356855
-0.00256895
-0.0046522
0.00722115
0.290103
-0.162745
-0.115995
-0.0406915
-0.00657519
-0.00579706
0.0123723
-0.0713667
0.0231368
0.148997
0.184947
-0.333944
0.000595776
-0.0268238
0.330856
-0.181859
0.215055
0.117835
0.0126169
-0.130452
0.0387944
0.0213671
-0.0601616
-0.0395452
0.0571308
-0.0175857
0.0572641
-0.0752847
-0.00931749
0.00943061
-0.000113124
-0.0149715
-0.0300343
0.0450059
0.133995
-0.0534562
-0.0200114
-0.00698948
0.0270009
-0.19961
0.228719
0.131525
0.0779914
0.0162033
-0.0548981
0.00215074
-0.00186569
-0.000285042
0.0548283
0.0233528
0.0580229
-0.12586
0.068676
-0.00274692
0.00777286
0.00755864
0.0273772
-0.0349358
-0.00130181
-0.335225
0.0990013
-0.0624137
0.0329092
-0.0863471
-0.0703014
0.156649
-0.136892
0.100374
0.0365177
0.0204654
0.109872
0.0268306
-0.0375513
0.0107207
0.00574132
0.0831918
0.0343927
-0.00908292
-0.0213793
0.0157208
-0.00187789
0.00081709
-0.0074448
0.00662771
0.0140967
0.168063
0.124627
-0.0796249
-0.0450024
-0.00491912
0.0509566
-0.0628868
0.12334
-0.0455263
0.0382589