/*--------------------------------*- C++ -*----------------------------------*\
| =========                 |                                                 |
| \\      /  F ield         | OpenFOAM: The Open Source CFD Toolbox           |
|  \\    /   O peration     | Version:  v2012                                 |
|   \\  /    A nd           | Website:  www.openfoam.com                      |
|    \\/     M anipulation  |                                                 |
\*---------------------------------------------------------------------------*/
FoamFile
{
    version     2.0;
    format      ascii;
    class       volVectorField;
    location    "100";
    object      U;
}
// * * * * * * * * * * * * * * * * * * * * * * * * * * * * * * * * * * * * * //

dimensions      [0 1 -1 0 0 0 0];


internalField   nonuniform List<vector> 
37809
(
(0.963461 0.367913 1.43565e-21)
(0.182817 -0.00435305 -1.82905e-20)
(0.999955 0.00125292 2.7586e-22)
(1.07113 0.0493774 -2.62548e-21)
(0.413365 -0.0526827 -2.86912e-21)
(1.10136 -0.0366501 -8.52453e-21)
(0.715554 0.413805 7.59369e-21)
(0.0677857 0.305759 4.4563e-20)
(0.0428951 0.00291639 0)
(-0.225392 -0.00888284 -5.08091e-21)
(1.16528 0.132803 -2.09607e-20)
(0.989024 0.0200163 1.70262e-21)
(0.917404 -0.00903453 0)
(0.916803 -0.00582563 0)
(-0.286981 0.00278228 6.19297e-20)
(1.00157 0.0923544 2.17876e-21)
(1.00149 0.00304643 4.26248e-22)
(0.309299 -0.0189002 0)
(1.02778 0.0386833 -3.04425e-22)
(0.771125 0.36604 0)
(0.707308 -0.0694143 -7.21826e-20)
(0.711488 -0.0638626 5.63755e-20)
(0.594662 -0.041848 0)
(1.00389 0.00771653 5.41447e-22)
(0.840842 0.211348 8.33389e-21)
(1.20443 -0.0229299 -1.12299e-20)
(1.11195 -0.0475124 -1.87496e-20)
(0.965959 0.00710763 0)
(1.00008 0.00115951 0)
(0.0653667 0.376082 -1.00341e-19)
(1.13253 -0.0435607 0)
(-0.211894 0.00148036 0)
(1.00372 0.00753755 5.03924e-22)
(0.507692 0.614756 4.87027e-20)
(1.04223 -0.000330518 0)
(1.00142 0.00288251 0)
(1.03037 0.00330658 1.59528e-21)
(1.22787 -0.078939 1.89722e-20)
(1.12551 -0.0203093 6.59799e-21)
(1.19675 0.140458 1.67506e-20)
(0.0938298 0.0196657 4.51916e-20)
(-0.327322 -0.000299211 1.82028e-20)
(-0.0585133 0.00778827 1.89234e-20)
(-0.320747 -0.0022763 -8.2576e-20)
(1.00285 0.0279702 -2.11297e-21)
(1.079 -0.0116198 1.24439e-20)
(1.11251 -0.0495456 -1.95483e-20)
(0.907885 -0.0782431 0)
(1.12152 -0.0479689 7.81442e-21)
(1.0365 0.201083 0)
(1.04766 0.0138144 -5.83177e-21)
(0.995566 0.0132394 1.41838e-21)
(1.0072 0.00857398 -4.81702e-22)
(1.02636 0.0500918 8.33011e-22)
(-0.221811 -0.00766641 0)
(1.00701 0.00826936 4.3388e-22)
(0.954987 0.136054 0)
(1.07412 0.00196305 -4.89799e-21)
(1.12218 -0.0210714 1.0998e-20)
(1.25498 -0.0495634 -1.65276e-20)
(-0.315885 -0.000314605 -4.14258e-20)
(0.933001 -0.00614949 0)
(0.919282 -0.0096829 0)
(1.14139 -0.0179464 -3.1119e-20)
(1.13154 -0.0439887 0)
(0.846303 0.215967 7.26985e-22)
(1.14507 0.0941056 1.38575e-20)
(1.02738 0.0413692 -2.11265e-21)
(1.06086 -0.00688637 -1.03096e-20)
(1.05762 -0.0744828 1.53485e-20)
(1.03093 0.0778395 0)
(-0.186558 -0.00203809 0)
(0.985849 0.020992 0)
(0.918194 -0.00473765 6.79125e-21)
(0.966693 0.00790044 0)
(1.0279 0.00562336 -4.14112e-21)
(1.19471 0.137425 -3.44906e-20)
(1.05912 0.360994 0)
(0.954381 0.362785 0)
(1.21652 -0.0213669 0)
(1.00357 0.0186629 -7.59386e-22)
(1.00007 0.0010923 0)
(0.872923 -0.0532523 -8.57737e-21)
(1.09617 0.00313246 -4.01215e-20)
(1.02418 0.0263919 0)
(-0.0678504 0.00584754 -7.27803e-21)
(0.967229 0.0523375 0)
(1.31946 0.252561 1.28076e-20)
(1.10969 -0.0330054 -1.03024e-20)
(0.882808 0.0980088 -3.1809e-21)
(1.23891 -0.0755391 0)
(-0.30391 0.00399315 7.40409e-20)
(0.667241 0.13486 -8.75567e-21)
(0.606512 0.0423107 0)
(0.965505 0.0530986 -1.05261e-20)
(0.764053 -0.0520238 0)
(0.984737 0.0203712 0)
(1.04854 0.0136258 5.97245e-21)
(0.0882443 -0.003978 -1.07182e-20)
(1.01039 0.000504901 4.79819e-22)
(1.28335 0.0338339 4.66273e-20)
(1.0486 0.012965 9.52593e-21)
(1.13975 -0.0174135 1.63832e-20)
(0.294296 -0.0171188 1.47566e-20)
(1.09845 -0.0478964 -2.0315e-20)
(1.00018 0.000233875 -2.61111e-21)
(0.0725385 0.402425 -4.82684e-20)
(-0.156405 -0.00865623 0)
(1.1147 0.335932 5.19549e-21)
(0.989377 0.0196029 0)
(0.769874 0.35546 -2.25265e-20)
(1.09502 0.00291449 4.31526e-20)
(0.601879 -0.218147 -2.74851e-20)
(0.959998 0.060098 -6.8326e-21)
(0.95461 0.133212 0)
(1.1243 -0.0198849 -5.83087e-21)
(0.986945 0.037727 0)
(0.982366 0.00954156 -1.85706e-21)
(1.12546 -0.0660621 8.62776e-21)
(0.0119743 -0.00831122 1.23184e-20)
(1.00001 3.89352e-05 -1.78828e-21)
(1.04004 0.037289 0)
(1.11769 0.0287988 -1.79682e-20)
(0.388331 -0.0514085 0)
(-0.312359 -0.00876623 -2.26163e-20)
(0.986309 0.0368758 0)
(1.11348 -0.0480801 -1.81358e-20)
(1.0059 0.0359539 1.83969e-21)
(0.884344 0.0900269 0)
(1.06043 -0.0103965 -6.6548e-21)
(1.19531 -0.0637146 2.27032e-20)
(1.11519 -0.0535802 -1.05167e-20)
(-0.00229811 0.00672765 3.57697e-21)
(1.00527 0.0118836 -4.05275e-23)
(1.21844 -0.0311248 0)
(1.00989 0.000430275 0)
(1.04752 0.0144102 0)
(0.932811 -0.00827627 0)
(-0.203042 -0.00196302 -4.48312e-20)
(1.30693 0.0563452 -2.6447e-22)
(1.04164 -0.000624158 1.94877e-21)
(1.13174 -0.0837123 -2.39691e-20)
(-0.15045 0.00696027 4.78296e-20)
(0.0831118 0.0166482 4.62155e-20)
(0.986086 0.0216216 0)
(1.16485 0.0950658 8.23346e-20)
(1.07199 0.027538 1.18192e-20)
(0.941636 0.0296026 4.18468e-21)
(0.858962 -0.0530646 1.60245e-20)
(1.01549 0.00015902 1.43822e-21)
(0.105976 -0.00354393 -1.10614e-20)
(1.05984 -0.0108302 0)
(1.08993 -0.0299915 -6.28361e-21)
(1.23938 -0.0215518 3.13934e-20)
(1.20324 0.0210836 -2.27911e-21)
(1.01473 0.000126577 0)
(1.14525 -0.0822167 1.08982e-20)
(1.12654 -0.0647819 -3.9329e-21)
(1.02707 0.0507379 -4.02793e-22)
(-0.262333 0.00177982 -7.23932e-21)
(0.882459 0.0856504 -2.96659e-21)
(1.11652 -0.0615232 9.66292e-21)
(0.134515 0.721339 -5.27884e-20)
(-0.0318824 0.0373528 -2.7164e-20)
(0.945209 0.00195028 -2.03417e-21)
(1.0223 0.00188155 -2.07194e-21)
(1.0002 0.0141926 -3.2192e-21)
(0.16325 0.0839993 -2.89623e-20)
(1.13224 -0.0154412 1.6818e-23)
(1.20125 0.0261869 0)
(1.11172 -0.0548953 -2.10277e-20)
(1.01036 0.0128727 0)
(-0.015341 -0.0148988 3.84799e-20)
(1.05516 0.048413 5.25744e-21)
(1.06172 -0.00738058 0)
(0.95459 0.0876182 7.81836e-21)
(1.09152 -0.0479141 0)
(0.880951 0.0938212 -1.16466e-20)
(0.481005 -0.0391331 0)
(0.980485 0.290361 0)
(0.0103259 -0.0092953 -1.40797e-20)
(1.04556 0.0315403 -5.76763e-21)
(1.00711 0.00876629 4.47504e-22)
(0.968328 0.023339 0)
(1.02574 0.000116731 -4.9706e-23)
(1.13852 -0.0580979 -2.18715e-20)
(1.04634 0.0309939 0)
(1.09472 0.0176551 -1.64792e-20)
(1.32704 0.0613295 -2.02968e-22)
(-0.3372 -0.00710647 7.43948e-20)
(1.03937 0.197162 -2.19825e-21)
(0.984967 0.0210505 0)
(0.986648 0.0317681 -8.30814e-21)
(-0.271015 0.00348213 -2.06459e-20)
(1.23117 0.180133 0)
(0.280922 -0.424191 -3.07176e-20)
(0.98713 0.0112835 0)
(1.0203 -8.54474e-05 0)
(1.00745 0.00707587 0)
(1.03246 0.0785668 0)
(0.196625 -0.00365333 -7.61587e-21)
(1.16946 0.133801 0)
(-0.275996 0.00354417 -2.8559e-20)
(0.988034 0.29036 0)
(0.00431028 0.00838589 0)
(1.02579 0.000345783 2.93824e-21)
(1.05644 0.0492555 9.80243e-21)
(0.787151 0.222951 1.87656e-20)
(0.998774 0.0143783 2.36033e-21)
(1.10723 -0.0471629 6.1424e-23)
(0.779871 0.21517 -1.18092e-21)
(0.183125 -0.00457818 0)
(1.00779 0.00472972 3.35314e-23)
(0.982932 0.00913439 5.7109e-21)
(0.996721 0.0181995 0)
(1.30022 0.227565 -4.90781e-20)
(0.72504 -0.100467 0)
(1.0183 0.0238244 0)
(1.00788 0.00492157 -4.59768e-23)
(1.11499 -0.0519703 2.97503e-20)
(0.679733 0.0518491 -2.84509e-20)
(0.0962543 -0.0361148 0)
(0.979426 0.0371077 0)
(1.04386 0.0345312 -1.00512e-22)
(1.00321 0.0187077 0)
(0.229471 -0.0182479 -7.32736e-21)
(-0.102193 0.0051354 -2.24431e-20)
(1.11287 -0.04807 2.56495e-20)
(0.880209 -0.0286907 -2.97275e-20)
(1.3078 0.0329229 0)
(0.970559 0.0256698 0)
(0.541094 0.197032 1.39334e-20)
(1.13578 -0.0540934 -3.47855e-20)
(0.935875 -0.00371139 4.45463e-21)
(1.11198 -0.0553232 3.25427e-20)
(1.29657 0.246 -1.4255e-20)
(1.00963 0.00792351 -3.1721e-23)
(0.230687 -0.0210554 0)
(0.946269 0.00142556 1.91627e-21)
(1.20497 0.143769 0)
(0.828413 -0.0675702 2.93204e-22)
(1.01005 0.0128159 0)
(1.25311 -0.0630275 3.08222e-20)
(1.08838 -0.0487055 7.82873e-21)
(1.00326 0.0285278 1.9397e-21)
(0.992837 0.0063211 0)
(1.00003 0.00100902 0)
(1.01763 0.000919166 -7.17607e-22)
(1.20238 0.0289445 -1.89737e-20)
(1.02613 -0.00031696 0)
(0.996782 -0.0014176 -2.2986e-21)
(1.00357 0.00762528 -5.6401e-22)
(0.998401 0.00881046 -4.22202e-21)
(0.290125 -0.0628217 0)
(0.996452 0.0337428 4.67887e-21)
(0.995458 0.0326067 0)
(1.0201 -0.000128017 0)
(0.993947 -0.000365629 -3.25778e-21)
(0.465901 0.738597 2.70289e-20)
(-0.0871061 -0.0167886 -1.37982e-20)
(1.23555 -0.0209408 0)
(0.986277 0.0323818 8.95036e-21)
(0.254849 0.00415637 6.51273e-21)
(1.04011 0.0383486 0)
(-0.333917 -0.000810415 4.59787e-20)
(0.957242 0.285226 8.13819e-21)
(1.11285 -0.0499617 3.96568e-20)
(1.11562 0.0291965 7.07942e-21)
(0.986051 0.00946196 0)
(0.293918 -0.401503 -8.91961e-22)
(-0.00796299 0.00667675 0)
(0.996358 0.0182994 0)
(0.47745 -0.0489143 2.02489e-20)
(1.2749 -0.0466872 0)
(1.00338 0.0074179 5.43349e-22)
(1.19712 0.167316 -1.82553e-20)
(0.539794 0.603807 -5.37208e-20)
(0.997557 0.00405487 1.2857e-21)
(1.25478 -0.0536847 -1.6742e-20)
(0.994349 0.00406418 0)
(1.04527 0.0162677 2.91602e-21)
(-0.00665646 0.00572432 -3.01035e-21)
(-0.320332 -0.00344443 0)
(1.00421 0.00783282 5.68356e-22)
(1.11005 -0.0575521 -1.12038e-20)
(0.992732 0.00657886 0)
(0.986928 0.0215925 -1.26273e-20)
(1.00128 0.00691779 0)
(0.996231 0.0325861 -6.34484e-21)
(1.01611 -0.0643155 -1.65863e-20)
(0.998943 0.011923 0)
(1.1097 -0.00928338 9.58506e-21)
(-0.2136 -0.001944 0)
(1.00715 0.00809813 -1.53558e-23)
(1.00543 0.0352374 2.05038e-21)
(1.09353 0.0184121 2.06249e-20)
(1.11543 -0.0513502 0)
(-0.201987 0.00895532 1.004e-20)
(0.997175 0.0337858 3.93633e-21)
(0.2767 0.97175 -2.44821e-20)
(1.10907 -0.00813569 1.20829e-20)
(-0.22365 -0.000306405 -1.09908e-20)
(1.02809 0.00593886 3.29385e-21)
(1.11747 -0.0497044 -2.51682e-20)
(-0.230683 -0.0071348 0)
(1.09764 0.00505439 4.96875e-21)
(0.999922 0.00148055 5.50319e-21)
(1.0291 0.0792732 -2.1243e-21)
(0.0680075 0.0190295 -2.47822e-20)
(1.00985 0.01232 0)
(1.10812 -0.0538294 0)
(0.313776 -0.0658174 -6.4809e-21)
(0.160304 -0.003372 1.07931e-20)
(1.01375 0.229878 -4.82992e-21)
(1.00002 5.18206e-05 1.66142e-21)
(-0.0997427 0.00603827 0)
(0.938522 0.0289135 -1.44255e-20)
(1.02876 0.0388593 3.12774e-22)
(0.417123 -1.00134 3.08924e-20)
(-0.0158453 0.00599841 0)
(1.1604 0.00998426 -4.15017e-20)
(0.0878398 -0.0264533 -3.51432e-20)
(0.907813 0.195036 5.55364e-21)
(1.02725 0.0786896 -1.47186e-21)
(1.28356 0.138514 5.34706e-20)
(0.71015 0.0465036 -5.0098e-20)
(-0.249877 -0.00602162 0)
(0.98541 0.010773 0)
(0.999966 0.00150921 -1.21324e-21)
(1.11866 -0.0520667 1.27301e-20)
(1.00954 0.00820005 -6.96666e-23)
(1.03304 -0.00203453 -5.45359e-21)
(1.04507 0.0168154 -1.39788e-20)
(-0.159989 -0.00914355 4.25572e-20)
(1.01859 0.00501183 -8.21205e-22)
(1.00553 0.0121444 6.80147e-22)
(1.09396 -0.0319319 7.78001e-21)
(1.02918 0.0380126 0)
(1.00246 0.00664509 -1.35106e-21)
(1.17491 0.0734333 -1.022e-20)
(1.00533 0.000350467 0)
(0.917807 -0.000150046 0)
(0.199619 0.734533 0)
(1.06871 -0.076823 -8.79374e-21)
(1.08037 0.0623245 -1.3543e-20)
(1.11838 -0.0518099 -1.57012e-20)
(0.25739 -0.983818 -2.24924e-20)
(0.99758 0.00378216 2.68997e-22)
(-0.0200013 -0.00676337 -2.77383e-20)
(1.07263 0.0270196 0)
(0.113183 -0.0341678 0)
(0.532883 0.229123 -6.65992e-20)
(0.989082 0.0189001 1.91777e-22)
(1.02636 0.0412956 0)
(0.0613425 0.00238576 -1.44852e-21)
(1.26634 0.0348286 -1.1613e-20)
(1.02617 -6.78495e-05 5.94195e-21)
(1.11501 -0.0524761 -2.87662e-20)
(0.987665 0.0114904 0)
(0.604006 -0.0422998 -1.02637e-20)
(1.07731 -0.0485202 1.59119e-20)
(1.00627 0.102081 -1.38597e-21)
(-0.114398 0.00413154 1.71602e-20)
(0.136329 0.0110146 6.57974e-21)
(0.755895 0.105069 0)
(0.216891 -0.0168939 0)
(0.78908 0.0586883 4.59238e-20)
(0.982407 0.0927208 -7.1884e-21)
(1.07567 0.0312733 -1.90204e-20)
(1.00338 0.013134 -1.87222e-21)
(0.91656 -0.00187987 -6.87339e-21)
(0.678687 0.139361 2.51355e-20)
(1.10175 -0.037564 -4.7644e-21)
(0.128314 0.00273078 0)
(1.16179 0.113555 -1.24452e-21)
(1.01847 0.0102208 0)
(1.11199 -0.0382195 0)
(1.02647 -0.00076199 0)
(0.0972291 -0.0037288 0)
(0.263466 0.829421 2.77529e-20)
(0.987216 0.0221765 9.27525e-21)
(0.940103 0.0287166 1.16183e-20)
(-0.00309344 0.00859235 -1.32165e-20)
(1.11676 0.0179819 0)
(0.0489491 0.211496 0)
(1.11855 0.0986334 0)
(1.28581 0.0419848 0)
(0.931332 0.150224 7.56241e-21)
(0.442468 0.996981 0)
(1.01979 0.00667709 2.17508e-21)
(0.994617 0.00412897 0)
(-0.296617 -0.00535185 0)
(0.999986 0.00135955 -1.78856e-21)
(0.994904 0.0402445 -1.36622e-22)
(0.947484 0.0813973 3.25078e-22)
(1.11026 -0.033811 0)
(-0.103029 -0.00992718 0)
(0.250028 -0.115817 9.12013e-20)
(1.09467 0.0403964 0)
(0.999957 0.00133259 -4.28628e-21)
(-0.0781647 0.00755044 0)
(1.10707 -0.0465252 7.92374e-23)
(1.01957 0.00644334 9.04016e-22)
(0.981543 0.0179136 0)
(1.01297 0.000464022 -1.61841e-21)
(0.858753 0.327216 -2.50072e-20)
(1.0095 0.0122508 1.83487e-22)
(0.228536 -0.0204041 0)
(0.859931 -0.0788458 -1.92294e-20)
(-0.00452324 -0.0179547 -2.30567e-20)
(0.70095 0.0485623 0)
(1.09649 0.0404877 -5.05038e-21)
(1.14078 0.166389 2.22369e-20)
(0.969412 0.025297 -7.21319e-21)
(1.02865 0.00464576 -4.34087e-21)
(1.24414 -0.052674 4.8253e-20)
(0.235882 -0.128833 -9.54693e-20)
(-0.274835 -0.00910867 1.03166e-19)
(1.00001 0.000813171 2.70192e-21)
(1.00269 0.0046727 9.5045e-22)
(0.0275242 0.0153166 -3.91776e-20)
(1.13117 -0.0141945 4.73049e-20)
(0.936688 0.474362 -1.06947e-21)
(1.11815 -0.0499081 2.2376e-20)
(1.00129 0.00716827 -9.74551e-22)
(0.486721 -0.0363583 2.03907e-20)
(1.043 0.0360962 -6.14409e-21)
(0.846554 0.00340129 -1.7636e-20)
(0.880415 0.0352284 0)
(0.801142 1.012 6.39829e-21)
(1.01349 0.0253643 -2.54209e-22)
(0.949495 0.288814 -2.54249e-21)
(1.06977 0.049973 9.57086e-21)
(0.963302 0.0612298 -2.60148e-21)
(-0.0151719 0.0127149 -5.97638e-20)
(0.972043 0.0272472 0)
(0.065054 -0.00405171 1.20198e-20)
(0.505713 -0.0512326 -1.76226e-20)
(1.14522 0.0881228 2.30527e-20)
(1.00925 0.0081248 -4.78713e-23)
(0.974842 0.0518963 0)
(1.09956 0.441936 0)
(1.14257 0.0574365 3.93278e-20)
(1.10197 -0.0275028 1.47518e-20)
(0.999166 0.0125097 3.95627e-21)
(1.03328 0.0159243 0)
(-0.075367 -0.0200729 1.2963e-20)
(1.23936 -0.00628194 0)
(1.10132 -0.024755 6.79021e-21)
(1.11688 -0.0498849 -1.12746e-20)
(1.1099 -0.00108983 -2.63599e-20)
(1.01859 0.0100514 6.74443e-22)
(0.961299 0.0617855 0)
(0.993754 -0.000644642 3.43225e-21)
(0.982644 0.0209766 3.91469e-21)
(1.00404 0.00766079 0)
(1.03029 0.003636 3.07687e-21)
(1.00254 0.00451993 4.64742e-22)
(-0.325126 0.000631043 -9.18221e-21)
(0.997898 0.0227923 3.08419e-21)
(0.978311 0.0375884 1.34728e-21)
(1.00776 0.100614 8.73778e-22)
(1.22632 0.181106 -1.89895e-20)
(1.10686 -0.0485063 0)
(-0.086507 0.00640314 0)
(0.188921 -0.00426049 2.35802e-21)
(1.0636 -0.00842445 -6.07653e-21)
(0.968437 0.145083 8.02729e-21)
(0.137344 -0.0110661 8.38799e-21)
(0.996899 0.011341 0)
(1.10065 0.0300953 -5.5114e-21)
(1.01373 0.0249562 2.22275e-22)
(0.997734 0.00413307 6.56391e-21)
(1.01119 0.0293978 -8.35355e-22)
(1.09654 -0.0398714 1.58187e-20)
(1.01091 0.0183759 0)
(1.10052 0.164231 1.05102e-20)
(-0.308086 0.0011066 -1.5165e-20)
(1.08445 -0.0307787 -4.95625e-21)
(0.993944 -0.00104164 2.43379e-21)
(1.00331 0.0134481 1.93482e-21)
(0.988662 0.011215 -5.87039e-21)
(1.09186 0.041659 8.60678e-21)
(1.02656 -0.000522324 3.18657e-21)
(-0.325618 -0.000852253 1.22146e-20)
(0.998734 0.0118475 -2.34904e-21)
(1.11086 -0.00948911 -9.96148e-21)
(1.11925 -0.0529426 -6.91745e-21)
(0.736913 -0.0993877 1.99254e-20)
(1.0463 0.0156211 -3.87238e-21)
(-0.105733 -0.0111046 1.95166e-20)
(1.09306 -0.0319287 -1.39744e-20)
(1.10022 -0.0504956 5.55772e-21)
(1.04912 0.0127314 -1.13041e-20)
(1.17321 0.0765433 1.0368e-20)
(-0.0313172 -0.0218106 0)
(1.01777 0.000982332 -1.13985e-23)
(1.11113 -0.00189139 1.79942e-20)
(1.14598 0.0856416 -2.29258e-20)
(1.11583 0.0993653 8.50645e-21)
(0.974317 0.36972 -4.45317e-22)
(1.24332 -0.0089567 3.05395e-20)
(-0.032719 0.0122917 8.05712e-20)
(1.0914 0.0851237 -6.73722e-20)
(0.984584 0.0937682 7.80002e-21)
(1.00716 0.132105 0)
(1.12353 -0.0212624 1.91727e-20)
(-0.270293 -0.00456702 -2.41298e-20)
(1.0305 0.0371087 -2.60443e-21)
(1.03015 0.0381057 2.85946e-21)
(1.02818 0.00462158 5.37326e-21)
(1.01115 0.0181151 0)
(-0.083645 0.00426783 -2.11946e-20)
(1.01012 0.130796 0)
(1.06156 -0.00442494 5.86633e-21)
(1.29593 0.203576 -2.54001e-20)
(-0.152481 0.0247593 0)
(0.992838 0.0517666 3.56818e-21)
(-0.138236 -0.0121154 4.27331e-20)
(0.950372 0.0810483 8.34421e-21)
(-0.138748 0.00720372 -8.16455e-20)
(1.20266 -0.0274718 -1.90263e-20)
(0.996629 -4.50599e-05 1.36541e-21)
(-0.267142 -0.00896684 -9.42496e-20)
(1.06239 -0.00501781 6.3467e-21)
(1.0018 0.0727872 2.92824e-21)
(1.23388 -0.0250159 0)
(0.485501 -0.0358779 -5.30838e-21)
(0.763558 -0.0539089 -1.80225e-20)
(1.12163 -0.0494727 -1.96135e-20)
(-0.243707 -0.00814705 -3.76841e-20)
(0.94623 0.00507358 7.12949e-21)
(1.22996 -0.0245219 0)
(1.00939 0.233808 1.48563e-21)
(1.00001 0.000215916 0)
(1.02108 0.00577922 0)
(1.02345 0.0263041 2.37475e-21)
(1.00206 -0.0653999 0)
(0.996668 0.0112543 -3.16896e-21)
(1.0012 0.00736159 0)
(1.19538 0.129989 -6.7002e-20)
(1.00019 0.0732156 1.46749e-22)
(0.63528 -0.043059 0)
(1.11697 -0.0499613 6.93706e-21)
(-0.151161 0.0138881 0)
(0.973983 0.0268454 1.0162e-22)
(0.981144 0.0075012 0)
(-0.207565 -0.00313702 0)
(1.10551 -0.0628163 -2.2145e-21)
(1.00001 0.000165695 0)
(1.08258 0.0542637 8.37331e-21)
(1.10194 -0.0255781 -2.33377e-20)
(0.997682 0.00436353 -8.66235e-21)
(1.20362 0.147456 -1.98688e-20)
(-0.271719 0.00104684 0)
(1.0937 0.0419644 -9.2807e-21)
(0.998219 0.00879022 3.404e-21)
(1.10767 0.329917 -1.72223e-20)
(0.404851 -0.518993 -2.59011e-21)
(0.935487 0.150622 -1.28743e-20)
(0.982643 0.364089 5.89013e-22)
(0.0508193 -0.0041854 -2.40606e-20)
(1.11875 -0.0427233 -8.86844e-21)
(1.02072 0.00564536 0)
(-0.327059 -0.000826449 1.39439e-19)
(1.08474 -0.0127433 -6.82643e-21)
(1.17401 0.0412927 2.71036e-21)
(0.99481 0.0393358 1.17456e-22)
(0.685409 -0.0968138 -2.01515e-20)
(1.1183 -0.0501184 1.04993e-20)
(1.00003 0.000552515 -2.87514e-21)
(-0.315815 0.00326254 -7.99008e-20)
(0.985006 0.00286417 -7.61355e-21)
(0.970784 0.0269062 0)
(1.01891 0.02402 0)
(0.994063 0.00218663 0)
(-0.173087 0.00851827 -9.49692e-20)
(-0.0407854 -0.00613196 0)
(1.01966 0.00593405 -2.85282e-21)
(1.02204 0.0016761 5.71012e-22)
(1.00619 0.0979181 0)
(0.915203 0.139163 2.76744e-21)
(0.716714 -0.0995832 4.74916e-21)
(1.11663 -0.0504111 3.28856e-20)
(-0.311571 -0.00232344 7.38357e-20)
(1.16849 0.0696783 0)
(0.249225 -0.0234052 1.21662e-20)
(-0.285927 0.00328799 0)
(-0.311934 -0.000265778 2.38904e-20)
(0.244876 -0.0211885 2.32952e-20)
(0.981278 0.00689047 0)
(1.00325 0.00749145 0)
(1.04117 0.0758028 -8.96411e-21)
(0.288095 0.00604366 0)
(1.04398 0.0356237 -3.30862e-21)
(0.993881 0.00244458 0)
(1.01982 0.00619556 8.43185e-22)
(0.836199 -0.063896 0)
(-0.33507 0.000429946 0)
(1.00493 0.0124805 1.46112e-21)
(0.984972 0.0273301 -3.94203e-21)
(0.99998 0.000660205 2.51988e-21)
(0.0958604 -0.00431378 -3.80226e-23)
(1.07403 0.154524 0)
(0.338689 0.613496 0)
(1.04482 0.0340731 1.00652e-22)
(1.10399 -0.0506112 0)
(1.07066 0.0273438 -8.76107e-21)
(1.14518 0.168056 4.84549e-22)
(1.15825 0.00923444 3.64221e-20)
(1.00734 0.00726771 0)
(0.296767 0.00723284 8.79713e-22)
(1.04614 0.0161329 0)
(1.11358 -0.0526205 0)
(0.983183 0.0242941 0)
(0.992155 0.0530288 0)
(0.986496 0.0357555 -3.91447e-21)
(0.234018 -0.0715571 1.27088e-20)
(0.0631377 0.328291 -5.70996e-20)
(0.0607021 0.25849 0)
(0.996773 9.72801e-05 0)
(0.50545 -0.0367046 -1.85881e-20)
(0.203815 -0.0156949 0)
(0.945203 0.00446654 2.17762e-21)
(-0.270554 0.00451592 6.02156e-20)
(1.10985 -0.0569929 3.04961e-22)
(1.10741 -0.0540617 8.89325e-21)
(1.00307 0.00727858 2.43251e-21)
(0.986095 0.0115932 -4.12292e-22)
(0.988153 0.0110171 0)
(1.27499 -0.0432479 2.39419e-20)
(0.57824 -0.0334249 -2.78134e-20)
(1.09548 -0.0329945 -2.2181e-20)
(-0.172616 0.00876136 6.94237e-20)
(1.00005 0.00299807 4.32171e-21)
(0.986009 0.00579462 0)
(1.1077 -0.00839358 -1.19218e-20)
(1.10793 0.0586397 -1.31113e-20)
(1.01563 0.0247396 2.33734e-23)
(-0.249021 0.00130294 -2.77818e-20)
(1.02676 0.0953508 5.7934e-22)
(1.1065 -0.0628905 0)
(0.503976 -0.0912823 0)
(-0.141164 -0.00270873 -4.48366e-20)
(0.113385 -0.00393233 2.56525e-24)
(0.0316163 0.0555927 1.64822e-20)
(1.12545 -0.0628997 0)
(0.985241 0.00240978 9.73217e-21)
(1.02043 0.0058378 0)
(1.07518 0.00162962 -6.81381e-21)
(0.98361 0.0284017 -8.49229e-21)
(0.873828 0.0883342 -6.21778e-21)
(0.0466506 0.0167262 0)
(0.986011 0.0108575 0)
(-0.232374 0.00427833 -8.35451e-20)
(1.21127 -0.0251429 2.6473e-20)
(-0.232313 0.00152036 0)
(1.07122 0.048399 7.06462e-21)
(0.813097 -0.0668393 8.79964e-21)
(1.0912 0.137026 -1.50428e-20)
(0.515297 -0.906872 9.04756e-22)
(1.06159 -0.00812089 0)
(1.0012 0.0071308 9.9724e-22)
(0.862088 -0.0427254 0)
(0.980101 -0.00305427 -2.30733e-21)
(1.07551 0.0324455 1.63551e-20)
(0.95271 0.477266 -3.62859e-21)
(1.21446 0.368906 -2.00957e-20)
(0.0663578 0.0745202 3.89715e-20)
(1.11716 -0.0496306 0)
(-0.229824 0.00939819 9.03541e-21)
(0.226414 -0.0719433 5.26064e-21)
(1.07999 0.143372 0)
(0.998951 0.0123781 -4.41822e-21)
(0.283913 0.0058717 0)
(1.02263 0.00182773 4.30412e-21)
(1.2638 -0.0550409 -2.77492e-20)
(-0.301736 -0.000595909 4.72556e-20)
(1.01319 0.000288956 1.09643e-22)
(1.06544 0.0808306 -2.76489e-21)
(1.11858 -0.0502674 -6.06591e-21)
(0.216365 -0.0172346 -7.48635e-21)
(0.977521 0.0523972 -9.77445e-21)
(0.999972 0.00102947 1.91915e-21)
(0.877645 -0.0510617 0)
(-0.181711 -0.00250866 0)
(-0.207987 0.00481102 5.2819e-20)
(0.994874 0.0314875 0)
(0.172071 0.113242 -1.81564e-21)
(1.0194 0.0381686 -1.65208e-22)
(1.11166 -0.0536891 -8.04865e-21)
(1.08533 0.139488 -1.36614e-20)
(1.05702 0.0248875 7.5938e-22)
(0.934764 0.284345 0)
(0.145715 -0.00587308 0)
(1.03143 0.0371385 0)
(0.983197 0.0259574 -9.63785e-22)
(0.994915 0.030883 0)
(1.0181 0.0254611 0)
(1.13777 -0.0595374 0)
(0.392218 -0.0322362 -2.22318e-20)
(0.155777 -0.0619981 -1.92752e-20)
(-0.241859 -0.00827827 -1.32189e-20)
(1.00241 0.00717201 1.36537e-21)
(-0.0376972 -0.0081707 -7.81536e-21)
(1.10565 0.0586944 0)
(1.20415 0.023919 2.35153e-20)
(1.328 0.0972264 4.42924e-20)
(1.07597 0.0160373 0)
(-0.321492 9.18692e-05 -4.39883e-20)
(0.946456 -0.00139242 -1.46643e-20)
(0.969373 0.0570789 0)
(0.65818 -0.0448685 0)
(1.29465 0.198331 -4.32735e-22)
(1.134 -0.0441841 -1.2218e-20)
(1.03999 -0.0989943 3.45371e-20)
(1.0657 -0.0497779 -8.50064e-21)
(1.06972 0.197349 1.45718e-20)
(-0.318595 0.0019341 -1.24867e-21)
(1.11543 -0.0517777 -2.6362e-20)
(0.966009 0.00419145 -9.90654e-21)
(0.654068 -0.0452332 0)
(0.870163 0.0311119 2.37857e-20)
(1.10681 -0.00727038 0)
(0.895047 0.0530068 -4.09995e-20)
(0.905414 0.0681728 -7.86766e-21)
(1.08867 0.139503 1.1002e-20)
(0.958004 0.060782 6.65287e-21)
(0.845179 0.00817288 0)
(1.1222 -0.0494585 1.08867e-20)
(0.88451 0.0779511 0)
(1.0706 -0.0143333 0)
(1.082 0.00283928 3.26481e-21)
(1.09982 -0.0496206 1.07881e-20)
(1.06651 -0.00716545 4.44301e-21)
(0.989433 0.0183847 -1.77484e-22)
(0.97341 0.0241719 5.93627e-21)
(0.994103 0.0303469 0)
(0.964739 0.00744982 -1.3326e-23)
(1.12475 -0.0642129 -1.31777e-20)
(0.470007 -0.675176 -1.45803e-20)
(1.04308 0.0371963 5.4062e-21)
(1.02873 0.0253108 1.19646e-21)
(1.01877 0.19638 0)
(-0.217694 0.00770941 3.46714e-20)
(1.00022 0.00022938 2.64577e-21)
(1.00738 0.0963606 1.82552e-21)
(0.825364 0.210394 -4.08209e-20)
(1.11888 -0.0526665 0)
(0.999974 0.00136047 1.04711e-21)
(1.007 0.0478603 6.96237e-22)
(1.06637 -0.00795938 0)
(1.12601 -0.029413 -9.77159e-21)
(1.02847 0.074069 -1.92934e-21)
(1.00761 0.0305785 -1.98197e-21)
(1.00864 0.0113494 0)
(-0.0980088 0.00524635 2.04379e-20)
(0.249729 -0.0434276 0)
(1.26555 -0.0502612 0)
(1.01309 0.13333 -1.70598e-22)
(0.999952 0.00150033 1.0969e-21)
(1.00239 0.00451849 -9.50838e-22)
(0.916692 0.105309 -8.43129e-21)
(0.993726 -0.00131235 1.86779e-21)
(1.00048 0.0142979 -1.55897e-21)
(1.06363 0.0807135 -5.36018e-21)
(0.0394181 0.00286567 0)
(1.13198 -0.0125328 -4.40328e-23)
(0.87265 -0.0681553 0)
(1.00253 0.00885239 0)
(1.02513 0.0944572 0)
(0.754918 0.234456 -1.15946e-20)
(0.501153 -0.0359602 6.20525e-21)
(0.94237 0.281998 -7.15463e-21)
(-0.260114 0.000676056 -2.78264e-20)
(1.11455 -0.0692768 -3.08206e-20)
(0.374484 0.918108 -1.49885e-20)
(1.02973 0.00376366 -2.05208e-21)
(1.00234 0.0045618 1.00813e-21)
(-0.210368 0.00151169 2.57337e-20)
(1.07681 0.338377 1.71983e-20)
(1.09172 0.134001 2.48641e-22)
(1.16529 0.112887 -1.35795e-20)
(0.465065 -0.0583664 0)
(0.29031 0.00768144 -3.62949e-21)
(0.697891 0.410826 -4.59553e-20)
(1.02531 0.0502446 -2.21384e-21)
(1.13355 -0.0552554 -1.34364e-20)
(-0.20274 0.00906656 1.77601e-21)
(1.06706 0.0775848 2.75231e-21)
(0.537099 -0.0142685 0)
(1.11597 0.200339 0)
(1.32497 0.0662122 2.18134e-20)
(-0.200367 0.00349127 4.58527e-20)
(1.18 0.303274 -2.20558e-20)
(1.13677 0.169338 1.77255e-20)
(0.945462 -0.000532415 1.82605e-20)
(0.990671 -0.0521169 0)
(1.0282 0.0255503 -5.95831e-23)
(0.0481766 0.0680232 0)
(1.08307 0.0561416 4.34824e-22)
(1.00905 0.00779253 -2.19025e-23)
(1.01586 0.0416262 3.48672e-22)
(1.02012 0.0056678 1.11756e-21)
(-0.334796 0.000232043 0)
(1.03317 -0.00170801 0)
(1.20192 0.0866163 1.73524e-20)
(0.98665 0.0117679 0)
(0.918451 0.141719 2.64383e-21)
(1.19614 -0.0538038 2.62908e-20)
(1.0157 0.131901 3.55938e-22)
(0.995916 0.0131672 0)
(-0.081923 0.0123286 2.44328e-20)
(0.586355 -0.212823 -7.15707e-21)
(1.00278 0.00710506 -3.49694e-22)
(1.03173 0.0361385 0)
(0.452548 0.0537734 1.94022e-20)
(1.13081 -0.0113819 -4.9037e-23)
(1.09632 0.00477534 0)
(1.11071 -0.0606474 0)
(1.07956 0.0101095 -1.09729e-20)
(0.966708 0.0860934 6.4506e-21)
(1.02274 0.0121726 0)
(1.1166 -0.0605281 -9.89326e-21)
(0.138898 -0.057543 1.46992e-20)
(0.191998 -0.0556123 0)
(-0.0774084 0.0120413 4.76658e-20)
(1.06852 0.336 -2.69167e-20)
(1.20335 0.0841385 1.85826e-20)
(0.830722 0.216261 2.10885e-20)
(1.18617 0.307823 0)
(0.9453 0.0353096 0)
(0.768737 -0.0773056 -1.11809e-20)
(0.0711019 0.0618453 3.03453e-20)
(1.20796 -0.0248765 -4.28356e-20)
(0.999864 0.0150957 -2.24145e-21)
(0.986727 0.0922925 7.05909e-21)
(0.491545 0.076761 -3.72518e-20)
(1.00659 0.0486901 0)
(0.942783 -0.0509458 0)
(-0.214642 0.0107783 -9.45363e-21)
(1.24325 0.0878015 -4.82119e-20)
(0.994033 0.00149017 8.24247e-22)
(0.769036 0.218244 0)
(1.01928 0.0372946 -2.31931e-22)
(0.916702 0.202836 -1.12376e-20)
(-0.311422 -0.00182312 -5.57472e-20)
(0.994082 0.029633 -4.52718e-21)
(1.11131 -0.054089 0)
(0.70839 -0.0299789 2.67218e-20)
(0.992253 0.00502065 -2.64789e-22)
(1.0022 0.158939 1.8267e-21)
(1.07229 0.150629 -1.29464e-20)
(1.01933 0.00105404 9.43045e-22)
(1.07186 0.123063 -1.38018e-20)
(0.271047 -0.0460991 2.93145e-21)
(1.102 -0.0236184 -1.52007e-20)
(1.08952 -0.0308388 3.30515e-21)
(-0.211721 0.00701671 -1.022e-20)
(1.12493 -0.0288558 0)
(0.976 0.0530469 5.38435e-21)
(0.920931 -0.0138902 3.13106e-21)
(1.00854 0.0111452 -2.01012e-22)
(0.868911 0.0879461 0)
(1.02236 0.0122443 0)
(0.993994 0.000868014 -3.46021e-21)
(-0.178745 -0.01425 -1.99289e-20)
(1.11117 -0.00665452 6.59577e-21)
(0.917376 0.00410513 -1.35433e-20)
(1.05082 0.0414791 0)
(1.01887 0.0051039 1.1824e-21)
(1.05111 0.0424392 -4.92669e-21)
(1.02904 -0.000666973 3.86027e-21)
(0.512931 -0.0834001 -3.82252e-20)
(0.473443 0.101357 0)
(0.990046 0.070395 6.60084e-22)
(1.11688 -0.0495478 -3.16172e-21)
(0.145864 -0.00378894 -2.83508e-20)
(1.00991 0.00799118 -9.93475e-23)
(1.11027 0.321456 1.59233e-20)
(1.00126 0.0137822 -1.11181e-22)
(1.07003 -0.0150358 7.76287e-21)
(1.00001 0.00150827 0)
(0.964693 0.0104896 -8.31723e-21)
(0.149744 -0.0125726 0)
(0.946338 0.0914732 0)
(-0.314571 -0.00376697 -6.96162e-22)
(0.983676 0.0266547 0)
(0.958847 0.0308612 1.07188e-20)
(1.306 0.0274771 5.04778e-21)
(0.735832 -0.0737003 1.17155e-20)
(0.99675 -0.000368255 8.13246e-21)
(1.00198 0.128245 4.12392e-22)
(-0.148432 0.0149851 -1.24182e-19)
(0.00600103 0.0479246 -9.41603e-20)
(0.999995 0.0013448 0)
(0.0513721 0.0651583 -6.60237e-20)
(1.08034 -0.0140095 -1.40945e-20)
(0.917753 0.207448 -5.82047e-21)
(1.21307 -0.0215303 -5.53785e-21)
(0.919155 -0.0130453 0)
(-0.245495 -0.00156312 0)
(0.908373 0.0684802 8.77363e-21)
(0.988726 0.0117947 5.47957e-21)
(1.00757 0.031318 1.80365e-21)
(1.00773 0.00716305 0)
(0.958838 0.0319453 -1.19358e-20)
(0.98831 0.0699209 6.31544e-22)
(0.122461 0.00766248 0)
(0.596645 0.0584302 0)
(1.10242 0.0342018 0)
(1.32916 0.176083 -2.84393e-20)
(0.835713 0.30654 0)
(0.901704 -0.0699248 1.83967e-20)
(1.06848 0.127169 4.83647e-21)
(0.99882 -0.000586482 -4.41009e-21)
(1.0945 -0.0330307 1.43538e-20)
(0.433378 -0.0544161 0)
(1.08964 0.0719941 -1.12307e-21)
(1.10128 -0.0228122 0)
(1.09051 0.0462609 1.31119e-20)
(-0.191423 0.00431418 -7.11126e-20)
(1.13008 -0.0716795 0)
(0.969262 0.0801615 0)
(1.07101 0.125501 5.08584e-21)
(0.946336 0.00798272 0)
(-0.228283 0.00606382 -6.71105e-20)
(0.996574 -0.000464354 -1.03602e-20)
(0.490462 0.0642217 0)
(1.01916 0.0226989 -1.80599e-21)
(1.00367 0.130264 -7.80047e-22)
(0.955215 0.063628 1.49701e-20)
(1.14214 0.0548855 -1.26402e-20)
(0.968415 0.0872237 -4.21029e-21)
(0.837357 0.314855 -1.1741e-21)
(0.913693 0.106897 0)
(0.92257 0.273231 -9.64178e-21)
(1.02932 0.00424897 1.99005e-21)
(1.17421 -0.0543496 -2.65463e-20)
(1.12111 -0.0483363 -1.43033e-20)
(1.07575 0.12268 -3.42583e-22)
(1.01916 0.00107316 0)
(1.10002 -0.0479887 -1.11343e-20)
(0.200081 -0.0067024 1.30959e-20)
(1.20232 0.358687 3.80152e-20)
(1.01398 0.00253062 -1.3776e-23)
(0.916065 0.00242856 0)
(0.201117 0.823552 -1.55138e-20)
(1.10704 -0.049238 8.78901e-21)
(1.29163 0.0506413 1.44842e-20)
(0.9792 0.018344 -4.10885e-21)
(1.1443 0.059081 -3.01759e-20)
(1.00005 0.00116467 0)
(1.05696 0.191517 -5.07068e-21)
(1.1245 -0.0611038 8.6567e-21)
(0.300915 -0.314917 2.90223e-20)
(1.08097 0.00313642 9.58368e-21)
(1.11682 -0.0485375 -1.15742e-20)