/*--------------------------------*- C++ -*----------------------------------*\
| =========                 |                                                 |
| \\      /  F ield         | OpenFOAM: The Open Source CFD Toolbox           |
|  \\    /   O peration     | Version:  v2012                                 |
|   \\  /    A nd           | Website:  www.openfoam.com                      |
|    \\/     M anipulation  |                                                 |
\*---------------------------------------------------------------------------*/
FoamFile
{
    version     2.0;
    format      ascii;
    class       volScalarField;
    location    "400";
    object      ddt0(k);
}
// * * * * * * * * * * * * * * * * * * * * * * * * * * * * * * * * * * * * * //

dimensions      [0 2 -3 0 0 0 0];


internalField   nonuniform List<scalar> 
27915
(
1.3566e-08
5.72075e-08
2.85352e-05
-0.000121412
-1.81699e-08
2.64961e-08
-0.00051251
-1.30278e-09
-7.44454e-09
1.70811e-07
-3.21827e-09
1.42873e-08
-1.59151e-06
4.31356e-05
0.000989289
-2.19871e-08
-0.00147267
1.23015e-08
5.71877e-05
-1.03692e-08
5.3843e-05
2.04448e-08
-0.00147763
1.30949e-08
-1.0346e-09
1.21771e-08
-6.43356e-09
-5.18399e-06
-0.000114562
0.000174793
1.00425e-07
-2.50752e-09
-0.00137871
-1.06509e-08
0.000107222
-6.08469e-09
1.61762e-08
2.56514e-08
-1.55163e-06
3.20826e-08
-1.2743e-09
1.4819e-08
-1.99751e-09
-5.55683e-07
1.69128e-06
2.13408e-11
1.22944e-08
5.32333e-08
8.69244e-09
-1.52591e-08
5.94105e-08
-5.60591e-07
-4.11634e-10
3.20123e-08
-1.49647e-06
-5.49215e-05
0.00010785
-4.74018e-10
2.08388e-08
-0.00015687
-2.69153e-09
-6.32609e-10
-1.66087e-07
8.66335e-06
-1.88838e-10
1.78793e-08
1.02691e-07
1.04731e-08
0.000395232
-8.88517e-09
1.80338e-08
0.000202651
2.35857e-11
1.0839e-08
-2.32605e-09
1.1386e-08
8.48449e-09
-1.49627e-08
8.14434e-06
1.49628e-08
1.58942e-08
3.19578e-08
1.26181e-08
-1.53172e-08
-9.84563e-05
-1.91448e-09
8.21192e-09
-8.24889e-09
-1.76738e-05
1.05729e-08
-4.71108e-09
-1.53624e-05
-2.1781e-08
9.40797e-08
-5.05365e-09
6.44866e-08
0.000484133
1.07573e-08
6.50222e-09
0.000706237
4.12374e-09
8.11787e-12
0.000157158
1.68568e-08
3.47632e-10
-3.07013e-09
-4.46613e-09
5.68503e-09
-1.11779e-07
1.66017e-07
3.00615e-09
-6.2724e-09
0.00033078
0.000258424
-0.000791901
1.64927e-06
-0.000554236
1.41902e-08
-1.0668e-08
1.28847e-09
-4.35343e-07
-1.30891e-08
9.1659e-08
1.25059e-08
6.88358e-09
8.00252e-10
-7.12031e-09
-0.000748435
3.98623e-07
-1.68807e-08
3.19581e-08
-3.60532e-09
-2.22428e-09
2.02487e-05
0.000206668
1.33043e-05
-1.3008e-09
1.13643e-08
-2.29371e-10
-1.81833e-09
-0.000155069
-0.000166454
-5.40485e-09
0.00107891
4.09554e-09
-3.71999e-10
-1.8967e-08
-0.000171192
-2.63515e-07
1.42869e-10
-2.29312e-09
-1.57982e-08
3.6984e-07
-0.00137612
-1.87252e-07
-1.54907e-08
-1.44232e-09
1.0641e-08
-3.58162e-09
1.72977e-09
-1.6838e-06
-1.82829e-07
-4.80173e-10
9.85787e-09
-5.63519e-09
2.19e-08
2.7451e-06
3.23922e-08
-6.88145e-10
5.99022e-08
0.000430481
1.12893e-08
-0.00149857
8.74663e-10
-3.96466e-11
-4.34966e-07
7.72153e-08
1.47373e-08
-1.74165e-08
1.78157e-06
9.71582e-09
1.1079e-07
2.01736e-09
-0.000914048
0.000244111
-9.7836e-09
-1.84166e-07
5.26239e-10
2.17899e-05
-2.96571e-09
1.98972e-08
-1.24369e-07
5.20761e-10
1.08414e-09
1.18273e-10
0.000176143
1.51036e-08
2.77389e-08
7.55072e-06
-0.000443059
4.71858e-08
0.000677772
3.10277e-08
5.14049e-06
1.28781e-08
1.9376e-08
0.000314418
-1.25976e-08
2.64392e-09
-6.27726e-07
1.76093e-06
1.48146e-08
0.000767534
-7.71902e-09
1.4953e-07
-8.34529e-09
-4.27912e-07
-0.000645228
-3.54978e-08
3.0687e-08
-7.63565e-05
1.10282e-07
-2.63119e-08
2.69132e-09
-8.36986e-09
2.50266e-08
2.03251e-08
1.934e-08
-9.84476e-07
9.67556e-09
-0.0012318
-1.34223e-09
0.000140858
-1.19363e-08
1.04805e-08
7.96245e-09
-0.000849866
2.73183e-08
-3.57642e-05
-9.02956e-10
-4.17918e-09
0.000393187
-0.136512
-1.42925e-08
1.62406e-09
-9.0002e-09
1.61895e-06
-8.52593e-09
-1.42522e-06
3.97307e-07
-4.06794e-09
5.15695e-08
2.28211e-08
2.64073e-09
1.86357e-08
-1.09642e-08
5.16835e-08
2.34267e-08
-5.30041e-07
0.000234288
0.000125612
-2.43997e-08
-5.8054e-11
-4.2481e-10
2.09508e-08
-4.03268e-09
3.06704e-09
2.95358e-09
-1.87037e-07
1.14353e-08
2.12459e-08
-3.40976e-09
0.000590091
6.12696e-09
-1.75282e-09
-0.000151624
1.56824e-09
-9.71906e-05
0.000169931
-0.000183906
1.05008e-08
-0.000872934
-2.10784e-08
-5.97887e-06
3.52339e-09
-1.89659e-08
-1.32193e-07
-4.58094e-09
8.00178e-06
0.000113356
5.34208e-07
1.9019e-08
1.49889e-08
8.41759e-08
1.0848e-08
-2.45377e-10
2.04435e-08
0.000122345
-2.44116e-08
2.26406e-10
-6.54574e-07
-9.23637e-09
-1.02567e-08
-2.37127e-09
5.5909e-07
-0.000111587
-8.41146e-09
1.68861e-07
1.33748e-08
1.0283e-06
2.03682e-05
0.000185957
1.14035e-05
-6.00119e-09
-0.000167552
4.93355e-11
-3.1329e-10
-1.08109e-09
1.0837e-08
-4.10097e-07
0.000483795
9.52851e-10
3.36206e-09
2.80886e-08
-1.00235e-06
-5.67218e-09
1.09656e-09
-3.05187e-08
-6.08681e-09
-3.51614e-08
1.38035e-08
-7.42093e-05
-1.43418e-08
1.09372e-05
-0.000175977
-8.50711e-09
-1.85717e-07
-8.31084e-07
7.95678e-08
-1.04284e-08
-1.2805e-08
1.60496e-07
5.37922e-09
-2.36861e-07
-0.000156669
2.16754e-05
2.12743e-08
1.4426e-08
3.26518e-07
-5.6984e-09
-1.29694e-07
0.000172613
9.23132e-08
2.78869e-08
0.000253998
8.23035e-08
1.10167e-08
-1.24432e-09
0.000170006
6.58751e-07
0.000152351
-6.8589e-09
-4.82552e-09
-8.02805e-07
-2.67241e-08
-2.79747e-10
0.00895668
1.61751e-07
-8.19988e-08
1.99873e-08
1.41317e-08
6.41156e-07
-2.57995e-08
-1.34843e-08
-7.18411e-08
5.69731e-09
1.44243e-08
1.13201e-08
-0.000129087
-9.59867e-09
0.000676015
1.4736e-08
1.65679e-06
-3.90163e-08
-6.96892e-09
2.25691e-09
3.83559e-07
2.94864e-08
-0.00310121
-3.25207e-08
3.52823e-05
2.97026e-08
-7.65237e-08
1.81845e-08
-3.60137e-09
9.21303e-08
0.00348587
-0.000526334
1.50241e-08
-5.71308e-07
4.10713e-05
2.87667e-08
1.83245e-09
-2.16262e-10
-0.000102085
1.25487e-08
-2.1134e-08
1.79929e-09
-8.28266e-09
-5.27034e-09
-3.48596e-09
4.81168e-08
-2.85771e-10
6.90993e-08
2.81317e-08
6.00109e-07
-2.89837e-09
3.15561e-08
-7.36826e-08
-8.29463e-10
-0.000177137
1.88583e-07
-6.48188e-08
-0.000179186
2.77897e-09
1.03065e-05
-8.01263e-09
-8.26997e-09
-4.34818e-09
-3.15337e-09
-1.19759e-08
2.82023e-08
-3.76827e-08
5.89037e-07
0.000238818
-1.29648e-08
2.67116e-09
-0.00174311
-2.9917e-09
1.6261e-05
8.70178e-10
1.02152e-09
-0.00602003
-3.81158e-07
-2.7953e-09
-2.4339e-07
6.77537e-08
-1.1402e-05
1.87204e-08
1.29847e-10
-4.7113e-09
1.20151e-08
-3.73159e-09
0.000248139
-2.17246e-09
-2.68976e-08
9.14129e-07
8.20821e-09
-2.63057e-08
0.000139387
-3.76087e-06
-2.21315e-10
-4.97571e-07
2.5391e-08
0.000550205
2.63795e-08
-0.000542676
-8.79793e-05
1.65806e-08
-1.17125e-08
-3.09741e-07
1.92453e-08
0.000167908
7.74248e-10
-4.24352e-11
-5.60917e-07
3.15604e-07
-6.24898e-05
-3.98835e-09
9.14272e-09
8.85418e-08
1.04593e-08
-8.03081e-05
0.000192067
5.9726e-09
-1.30804e-09
-1.72794e-08
-2.70081e-08
1.43262e-08
-1.2508e-08
9.12623e-09
1.54056e-08
-0.000174048
6.59634e-09
1.30253e-08
2.98349e-08
-6.31859e-11
1.68937e-08
-7.55222e-07
-1.43165e-08
3.15538e-08
9.3217e-09
-2.89057e-07
0.000670845
0.000332167
1.26597e-06
1.88607e-08
3.25191e-09
2.59629e-07
1.39388e-08
8.07039e-10
1.05531e-08
4.64737e-11
-1.2861e-09
0.000375947
1.91339e-05
-1.01228e-08
3.18223e-08
0.000580394
1.20912e-08
-5.6593e-08
7.5608e-10
-4.45968e-09
-0.000825933
4.89147e-08
-2.30758e-08
-5.23147e-08
1.10149e-08
1.26256e-08
-2.49493e-08
-1.23257e-08
1.96412e-08
-2.86264e-09
-2.11485e-09
6.89927e-09
-1.58078e-08
-4.37266e-10
2.81235e-05
-2.84618e-07
-1.26522e-07
-6.45844e-12
2.88998e-08
1.11303e-09
7.61497e-08
-2.14406e-09
-4.66631e-09
-1.40089e-08
-1.06765e-08
5.30879e-06
4.10723e-10
-0.00172161
8.79618e-05
1.6291e-08
1.5948e-09
0.000262295
2.31155e-07
-9.80795e-09
6.95763e-09
-2.52486e-06
-1.73451e-08
-1.35919e-08
1.64361e-09
0.445319
2.84934e-08
-1.21806e-06
2.91655e-08
-8.59903e-10
1.12866e-07
-0.000104536
4.87846e-09
-6.08223e-09
-2.87488e-11
-8.7195e-09
2.21729e-07
-2.35554e-08
-5.5066e-09
-0.000160268
0.000953315
2.07158e-06
8.84679e-09
-5.85846e-07
2.44738e-07
-4.00603e-09
6.55699e-09
-3.90392e-07
3.85891e-10
-1.49632e-08
2.92537e-07
0.000159282
8.21475e-09
-6.51028e-09
1.90226e-08
-1.68169e-10
9.85718e-05
-7.94421e-05
5.12459e-07
-0.000316333
-0.000216588
0.000246962
1.83414e-08
-0.00169821
0.000391705
6.64695e-05
2.59435e-08
-7.27699e-07
1.80941e-08
2.54508e-08
-1.63501e-08
-1.34303e-08
-1.11851e-07
9.00291e-11
1.21691e-08
2.97414e-08
6.91586e-09
-2.13721e-07
-0.00104186
-1.44102e-08
-1.4142e-08
2.76974e-10
-5.2499e-09
2.23779e-08
0.000371584
-0.000175763
1.39539e-06
8.70814e-10
6.18679e-06
-1.14782e-08
1.99108e-08
-3.66637e-08
1.73328e-08
-3.07188e-11
-6.73854e-08
-4.99728e-09
0.000136835
5.30653e-08
1.84133e-08
4.62888e-05
-2.56546e-07
1.74488e-08
-9.75614e-11
-2.04566e-10
1.44737e-09
4.01995e-06
2.92924e-07
3.00082e-08
0.00101627
2.42235e-08
8.38565e-05
3.55902e-09
-0.00173193
-4.6809e-09
1.11168e-08
7.2967e-09
7.21365e-09
2.79726e-08
-1.14813e-08
4.35767e-09
-9.69874e-10
1.67216e-08
1.03688e-05
1.79387e-08
-3.63449e-10
6.15047e-07
1.07609e-08
-9.30345e-09
-6.93837e-10
6.67154e-09
2.76616e-07
-1.68086e-09
1.10348e-08
1.16649e-08
-1.8316e-09
1.04039e-06
5.29082e-10
1.90668e-09
-2.02072e-07
-2.78564e-09
9.36909e-09
0.000240747
-1.48591e-09
1.74899e-08
0.000281176
0.00078739
4.50298e-05
-2.40062e-09
9.45293e-09
2.41371e-08
8.31301e-10
-2.6172e-08
7.86212e-08
-1.35466e-08
-2.71991e-09
1.54117e-08
-1.37072e-08
-0.000120095
-0.000188848
-5.49414e-08
-4.88018e-08
0.000184595
-2.45608e-08
-1.37237e-10
-6.9065e-08
7.31485e-08
5.34257e-10
-1.0428e-09
-2.88038e-09
-2.44722e-07
-1.07182e-08
-6.01768e-08
-6.52087e-09
7.83993e-10
0.000429108
-2.56127e-08
0.000274693
-7.45003e-07
9.46548e-06
2.96902e-08
-1.41441e-08
2.30802e-09
-3.46045e-11
-3.77388e-09
-8.70148e-11
5.27677e-08
1.17047e-08
1.59228e-08
2.87193e-08
2.22476e-08
-1.45486e-08
-2.07819e-07
-1.21677e-05
1.77675e-08
-1.49535e-09
-1.63775e-08
1.06494e-07
-1.51769e-09
-6.38862e-09
4.63218e-08
7.66351e-10
-4.56645e-11
2.23478e-07
-1.25108e-06
-1.01138e-08
2.63537e-08
-0.00117458
3.85791e-09
4.69241e-10
0.000256164
2.99063e-08
2.25556e-05
7.92227e-10
2.85075e-08
1.64162e-07
-3.42841e-08
-3.23836e-09
5.76437e-09
5.12701e-08
6.509e-09
-9.44638e-09
3.65989e-06
6.4087e-05
2.8782e-08
0.000224781
-9.38771e-10
-0.000146054
1.25066e-08
3.81463e-08
-0.00127964
-1.18566e-08
1.53428e-07
-4.16703e-09
3.34421e-08
-1.52705e-08
1.03629e-08
-2.92596e-09
-2.64848e-09
1.86135e-08
-4.13084e-08
0.000194692
2.66077e-08
2.74897e-08
1.57466e-08
2.14497e-08
0.000114643
-7.31638e-10
2.60999e-09
-3.832e-08
-1.25209e-09
-4.90515e-09
0.000179059
-0.000162129
2.50285e-08
1.66611e-09
-3.32501e-09
3.03871e-08
0.000152039
-4.88997e-10
1.05555e-07
0.000676143
4.52636e-08
-3.40881e-09
6.29463e-09
-3.22569e-07
-6.86139e-10
-1.23576e-08
8.91074e-05
-1.83856e-08
-1.81177e-07
7.59128e-09
-0.000173566
3.25701e-08
-4.90292e-09
-7.05667e-09
0.00159351
-6.39258e-09
1.18385e-08
0.000120641
-6.96196e-07
-3.36318e-05
1.68987e-09
-1.99841e-08
-0.000174279
0.000211428
0.000385543
2.44976e-07
6.73607e-10
-8.05541e-09
-1.57547e-08
1.66184e-08
-2.42623e-07
0.000888012
-1.70285e-09
7.74333e-08
-1.37936e-10
-1.80244e-07
0.000970901
-1.31028e-08
-0.000157916
6.27532e-07
-0.00401906
-5.03306e-09
2.01142e-08
-1.88505e-08
-2.94552e-10
3.01975e-08
-1.97011e-08
2.67112e-08
1.11549e-07
8.34501e-09
-1.94895e-08
2.62489e-08
3.15644e-08
-2.22757e-08
-2.11068e-08
-0.000126601
5.96855e-07
-5.74524e-05
-2.28217e-10
2.84503e-08
-6.51507e-07
-1.52194e-08
2.80994e-07
0.000297026
-5.71534e-05
-0.0311593
-1.50665e-09
3.16826e-08
-1.39587e-07
1.05736e-05
-1.16746e-08
2.92232e-08
-5.40828e-09
2.00827e-07
-3.70518e-09
6.93012e-08
-0.000213845
-9.87612e-09
2.85304e-08
1.4021e-09
-8.66548e-05
2.19608e-09
3.49691e-09
1.95657e-08
2.83049e-08
1.18147e-06
1.46833e-09
-2.61791e-10
1.0035e-08
-4.51499e-08
9.59867e-05
3.00923e-09
1.08549e-08
3.53619e-09
3.60213e-09
8.09173e-09
-0.00110596
1.94017e-08
1.35235e-08
7.65793e-09
5.38138e-08
-2.64026e-09
-4.23418e-09
-1.13333e-08
0.000311017
-1.99508e-08
-2.169e-08
1.79048e-09
7.21549e-10
-9.51669e-07
-1.85368e-07
3.1103e-05
-2.673e-09
0.000293288
-1.70767e-08
-8.93275e-09
1.01645e-07
4.97893e-08
7.97855e-05
3.40827e-09
-2.86997e-08
2.43456e-08
3.13399e-08
8.28729e-09
-0.000701538
-2.29539e-09
5.19969e-09
0.000325134
1.2672e-08
1.59275e-07
5.41015e-09
4.60505e-09
2.75186e-08
1.08956e-07
-0.000378627
1.08061e-07
1.16085e-08
8.10759e-09
4.38745e-05
3.03612e-09
-2.38874e-08
-1.45327e-07
1.36972e-09
4.86615e-09
-8.5296e-09
1.08747e-08
4.43608e-07
7.83138e-06
9.53587e-12
9.87783e-08
0.0021708
6.50931e-05
0.000168565
-2.42761e-07
-9.37141e-05
1.42345e-08
-6.31193e-09
2.47607e-09
0.00117864
0.000314464
-2.54716e-10
2.56345e-09
1.01865e-08
-3.04423e-08
-0.000165406
-0.000176492
-1.40544e-08
1.64424e-09
-1.10902e-09
1.34755e-09
5.08851e-09
-9.67756e-08
2.03428e-09
6.87975e-05
-1.54128e-09
-6.46472e-09
-3.03471e-09
-5.47279e-07
-4.61592e-08
0.000501068
-1.03073e-08
-4.15295e-09
1.51307e-08
1.11337e-06
0.0021646
0.000258559
-2.00972e-07
-2.575e-09
1.94381e-08
8.34627e-08
5.54741e-09
4.13191e-06
-6.37005e-09
2.80225e-09
1.16802e-08
-6.19208e-09
-0.000167463
1.62457e-08
-6.52546e-07
-6.22321e-08
4.91131e-10
-5.84095e-09
-6.18202e-09
-1.65155e-08
5.23992e-09
6.31047e-06
-8.97202e-09
8.1773e-08
0.00022893
1.76985e-09
-1.87431e-09
3.48018e-05
1.24838e-09
6.91953e-08
-1.01482e-08
-6.62833e-07
-2.43056e-10
1.07382e-08
-0.00156646
0.00058663
0.000243353
-1.16735e-09
-6.08044e-09
7.08177e-05
2.29735e-08
1.74657e-08
3.12604e-10
7.71875e-06
-1.60988e-08
3.81248e-09
0.00024051
3.29514e-07
1.12333e-07
-0.00173844
-1.65866e-09
-1.93455e-08
0.000104904
-1.67265e-09
-6.1562e-09
2.97226e-09
1.03162e-05
1.25439e-08
-2.56994e-09
-1.82522e-09
-0.000768014
-2.26663e-08
7.14602e-09
1.12646e-08
3.56261e-10
-1.94637e-07
5.90655e-08
1.19811e-09
1.02807e-08
2.41406e-09
-3.18139e-10
3.12904e-07
2.37906e-08
9.36531e-09
1.1049e-08
1.31488e-08
3.39953e-09
-1.48587e-08
3.62831e-10
-2.10459e-09
2.11109e-08
2.38054e-05
-9.6022e-09
-3.50193e-10
0.000364503
1.42946e-08
-2.21093e-07
1.33943e-08
8.3795e-09
-3.7195e-07
-4.9132e-10
-6.05797e-09
-2.38421e-08
7.91464e-09
-2.00428e-05
1.55732e-06
1.94912e-08
-6.72071e-07
-9.42117e-07
1.18393e-08
-6.1547e-10
9.05889e-05
1.56624e-09
1.58029e-09
6.95744e-09
0.000253858
-0.000121042
7.7012e-08
-0.000251326
-1.45514e-09
0.000105925
2.12648e-08
-7.55885e-09
-6.01713e-09
-2.21319e-06
1.49269e-08
-5.60273e-09
8.2908e-09
2.79238e-08
-3.72085e-10
-3.75255e-09
-0.0020304
-5.58982e-09
0.000271753
3.54424e-07
-0.0473737
-1.49024e-10
8.8818e-08
-6.56822e-07
-1.66128e-05
-1.11332e-08
3.02852e-07
5.10275e-09
6.18234e-08
6.63001e-10
-0.00203658
2.07012e-08
1.34264e-09
0.000122296
2.76393e-08
1.70655e-09
-0.0156489
-0.00174646
1.0405e-08
8.97255e-10
-1.85621e-08
-6.29471e-07
-4.214e-05
-1.16807e-08
1.88764e-09
3.6711e-07
6.61109e-11
6.49549e-05
-5.18233e-10
0.00212084
-1.4127e-09
-0.000832783
5.10922e-09
4.8294e-07
0.000678955
-0.000201243
-0.000171999
-0.000106952
1.58654e-09
-0.000368414
1.80335e-08
-9.74251e-07
2.59756e-08
3.33023e-10
6.02695e-08
-0.000142552
8.56342e-07
-7.30546e-09
0.000236517
-4.91037e-09
4.99924e-07
-1.74914e-09
1.13758e-08
0.000143278
3.09616e-08
-0.000148354
-2.94528e-09
-2.57748e-09
0.000334238
5.48169e-09
-1.43983e-08
6.95387e-09
2.28959e-08
-1.11215e-08
-1.12291e-08
2.2022e-08
-1.35469e-08
8.56529e-10
5.52329e-09
-0.000182744
-1.20654e-08
8.23169e-06
4.8418e-06
-1.31329e-08
3.37232e-08
-1.07173e-08
4.46903e-08
-0.00028239
-1.16221e-06
3.13953e-08
8.62544e-07
-1.17869e-08
-5.27812e-07
-5.66147e-09
-4.03382e-09
-5.68692e-07
-3.98822e-07
-2.0307e-07
-2.70123e-10
-2.30649e-08
8.11656e-09
9.55638e-05
-2.27714e-08
-3.45681e-09
5.97728e-09
0.000929055
3.04496e-10
-7.38735e-07
3.42301e-08
-0.000120904
-1.66164e-10
-3.02178e-08
1.66535e-08
-1.41466e-09
0.00163279
3.11774e-08
7.84256e-09
-1.92741e-08
-3.63417e-07
-3.22714e-07
8.59546e-10
-2.90944e-06
-7.8779e-07
-3.07196e-05
9.84501e-09
-0.00101588
-2.05896e-10
-6.60114e-09
-0.0015552
0.000468442
-0.000164269
-2.88266e-09
4.49533e-09
-3.9701e-10
-6.17829e-09
3.32456e-05
-2.55755e-10
-1.01488e-08
9.77911e-05
-7.69451e-07
1.68445e-05
-3.93876e-09
-0.000145109
-2.09198e-10
2.59073e-06
1.29852e-08
3.13505e-08
7.39997e-09
1.33103e-09
3.96148e-09
8.32974e-06
2.10297e-08
-0.000410243
-2.74164e-07
1.44459e-08
-5.59039e-07
2.62457e-05
8.76071e-09
3.06479e-08
6.06825e-08
1.60297e-08
-3.18136e-09
-2.50067e-08
-1.74044e-09
3.16429e-09
2.13701e-08
2.48084e-08
9.90558e-05
3.88901e-09
-2.71958e-08
-2.50836e-06
0.000119092
-2.49363e-10
-0.000116761
-4.91975e-09
1.89899e-09
-9.5237e-10
-1.44747e-09
-1.31282e-06
0.000173967
-1.8309e-07
4.11448e-10
1.84788e-07
-6.58402e-07
1.06215e-09
-3.67795e-10
1.80298e-08
3.40324e-09
1.57445e-10
-1.54158e-08
-5.36686e-07
-0.00077029
-4.20891e-09
5.82694e-07
-4.31177e-06
-8.5135e-07
-1.6317e-08
0.000120218
-0.00012952
-2.21496e-08
4.68108e-08
-3.67477e-06
2.13806e-07
-4.14021e-09
1.4838e-08
3.33733e-10
3.32158e-09
-2.24043e-08
9.29683e-09
2.81719e-08
-6.15959e-11
-4.72454e-09
-7.30783e-09
-1.48361e-06
4.67156e-10
3.5954e-07
6.54253e-06
-1.81087e-05
1.57439e-09
-5.91739e-09
7.72285e-09
2.64467e-08
3.6121e-08
-1.57984e-08
2.21677e-05
3.5754e-09
-2.1483e-06
-1.5343e-08
6.06446e-10
7.59713e-06
-5.32292e-09
0.002072
2.62618e-09
-7.4195e-09
1.06841e-08
9.45243e-05
-2.97957e-09
-9.48787e-11
0.000358806
7.20238e-09
5.51707e-09
-4.72644e-09
0.000238613
2.91742e-09
2.06279e-08
-1.51214e-08
0.000219163
0.000195573
1.20593e-09
0.000202968
-6.42724e-11
1.71607e-08
0.00162548
7.86645e-06
-1.04864e-09
0.000575836
-3.82107e-09
-6.50271e-05
1.6836e-06
0.0001101
3.40394e-08
1.45179e-09
3.70271e-07
7.78401e-07
9.47082e-05
-7.6179e-09
5.91837e-09
-9.31785e-09
3.00081e-07
1.6178e-08
-1.04671e-08
1.30244e-08
1.32321e-10
-3.85913e-09
-3.17845e-07
-0.000135766
-1.87496e-06
8.40303e-09
0.000342066
-0.00575673
-3.45989e-09
-3.58858e-09
9.85833e-06
-2.15793e-09
1.48264e-08
9.01927e-09
-3.78156e-10
1.31315e-09
-8.11769e-09
-1.14908e-10
0.000349021
-6.13089e-05
1.11692e-09
9.53521e-10
6.17296e-07
-1.10169e-08
0.000515891
-2.26656e-07
1.81488e-08
-8.27724e-06
1.09991e-06
2.60952e-08
-5.46517e-11
-0.000186874
-2.09521e-09
1.07969e-08
4.4119e-10
2.36359e-08
3.05944e-08
-2.10879e-09
0.000192573
-2.12057e-09
2.13485e-08
7.52345e-06
-2.95411e-08
6.73115e-07
3.059e-08
-5.97359e-09
9.53782e-05
-2.27605e-08
2.88832e-08
0.000119875
1.67566e-07
8.47898e-10
-0.000196114
-0.000200158
-4.83084e-09
1.04318e-08
0.000552575
5.04709e-09
-9.92507e-05
2.48941e-08
2.94327e-09
7.12385e-09
8.86748e-08
1.9059e-08
1.30052e-08
-1.31377e-08
-0.000133365
8.74386e-07
-2.35877e-08
6.0495e-10
1.2497e-09
-0.00101796
-4.84449e-11
3.09214e-08
8.11612e-05
9.27777e-05
1.52981e-08
1.87935e-09
-0.000114103
-1.26824e-07
0.000243192
0.000112942
1.0589e-08
-7.29714e-09
1.094e-07
1.38923e-08
1.83185e-09
1.78867e-09
7.12448e-08
1.71676e-09
0.000781435
-0.000229775
1.60315e-08
0.000221592
9.0827e-07
-2.06341e-08
-1.34858e-08
0.00115789
2.53566e-08
-2.05898e-07
-6.33543e-07
4.30351e-05
-4.09024e-06
2.36659e-08
3.20246e-08
1.69666e-08
1.69393e-09
-0.000684506
-5.77954e-09
-1.14494e-09
-7.79456e-07
7.22885e-05
3.74321e-07
-2.51795e-08
5.21551e-06
4.69227e-07
1.1727e-08
3.81679e-07
1.15623e-07
0.000250856
2.63135e-09
3.43562e-08
-0.000572274
6.06921e-06
2.24009e-08
-3.45917e-09
-4.14178e-05
-7.18751e-09
0.000122992
-1.09133e-05
1.84759e-09
7.91742e-08
1.52444e-08
-6.63084e-07
9.78516e-10
-3.86491e-09
0.000539719
1.59606e-08
2.59684e-09
7.72668e-10
-7.24611e-10
-1.33974e-11
2.05369e-08
0.000809156
0.00115522
7.26476e-09
1.17552e-09
-3.63721e-09
-3.46229e-09
8.62129e-07
1.20342e-05
-2.7276e-08
3.74371e-07
-3.04124e-07
4.34972e-08
1.33302e-05
1.18322e-09
-5.28795e-07
-6.28599e-05
4.21777e-08
1.567e-08
1.45341e-08
-0.000236666
-0.000182276
-6.9057e-10
8.7921e-09
8.66012e-09
-4.53664e-09
8.82645e-05
1.29288e-08
3.15755e-08
1.19983e-08
-0.000235459
-1.04938e-08
-1.13167e-08
1.61703e-05
-1.54059e-08
1.53481e-08
-6.19931e-07
0.00129642
2.09222e-09
1.37101e-09
-3.2252e-09
-1.36354e-09
2.42876e-08
-4.26812e-08
1.76523e-08
6.44344e-09
9.23461e-09
2.53463e-07
-4.97678e-08
9.56164e-09
2.73158e-08
4.97479e-08
-3.89917e-09
6.24486e-08
1.77003e-09
-9.28694e-09
1.57905e-09
-7.01882e-09
3.18993e-08
2.87588e-08
1.61608e-08
-2.95724e-09
8.81756e-09
-1.52936e-05
-3.76964e-09
1.80342e-08
7.51707e-09
1.94023e-10
4.83543e-09
6.66802e-09
6.93167e-07
1.54243e-09
2.57079e-08
1.06804e-07
-2.79198e-09
1.53714e-09
-0.000205831
-1.4937e-08
5.7358e-05
1.60899e-10
9.33771e-05
-9.42958e-05
-7.67228e-09
2.88318e-09
0.000381207
-8.69358e-09
0.000103022
-4.1966e-06
0.00145716
-8.12217e-07
1.6188e-08
0.00124775
-5.3474e-08
-2.14814e-07
-1.85028e-07
1.03492e-09
-1.54341e-08
9.34251e-05
6.24131e-09
9.59969e-05
-4.82459e-10
-6.53218e-09
-2.86159e-09
6.0149e-09
7.39468e-10
-7.53039e-07
-0.000272095
0.000247805
-2.84037e-08
-4.05287e-05
-1.25267e-08
1.25882e-08
1.7813e-08
2.60418e-09
3.56746e-07
-1.40351e-08
6.97822e-09
-8.70446e-09
-7.21249e-09
-1.48385e-09
-2.50221e-05
5.74271e-08
9.04656e-05
-3.29154e-09
-3.42709e-09
5.80628e-09
-7.21311e-07
1.35507e-09
2.08628e-08
7.69629e-05
0.00024217
3.56226e-10
-1.55027e-08
-1.57061e-08
-3.32072e-09
1.04535e-07
0.00015512
-4.75787e-11
2.83639e-09
7.79379e-09
3.35034e-09
0.000617335
1.34147e-08
-1.2877e-08
1.24898e-09
4.3898e-08
0.000279052
-1.04914e-08
0.00228253
1.60458e-07
3.19896e-07
5.27856e-05
-0.000185032
0.001518
-0.000185102
-0.000228881
1.13923e-09
-9.80077e-10
-4.5803e-09
2.55284e-08
0.0010064
0.000206717
6.74957e-09
-5.57412e-08
-2.76723e-09
4.92854e-09
-7.47005e-09
1.96289e-08
-0.000135096
5.38745e-10
-9.90099e-05
1.20238e-08
2.066e-08
-0.000354225
1.53763e-08
-0.000348298
-1.93782e-09
1.6274e-08
-1.9474e-08
-6.21712e-08
9.05617e-10
-3.36464e-09
4.51431e-10
3.79253e-10
0.0020783
0.000305407
-3.3617e-09
1.2177e-09
0.000113147
1.87895e-08
2.09446e-08
7.73336e-05
0.000150681
-1.36917e-09
8.57034e-10
-5.0063e-07
0.00133435
0.000106163
4.39458e-08
-9.53865e-09
0.000249794
9.77233e-09
-4.79473e-06
1.96997e-08
1.15904e-06
2.03888e-08
-1.63304e-07
1.01072e-08
9.15044e-09
1.00851e-07
1.20835e-06
7.66151e-08
2.02711e-08
1.04099e-08
0.00027837
-0.000787312
3.95492e-09
0.000249216
1.0367e-08
6.86795e-09
1.92963e-08
-0.000171639
1.12229e-08
0.000406556
-8.38319e-09
1.52768e-08
9.84217e-05
7.16414e-09
0.000147168
1.61659e-08
-6.28436e-07
-3.12826e-07
3.27769e-10
1.64595e-09
0.000167451
-5.86865e-09
-5.08717e-07
-0.00159846
-6.12923e-07
-2.81576e-09
-1.17841e-08
1.81382e-08
-1.68595e-08
1.10501e-08
8.28806e-10
-1.33136e-05
-2.58783e-08
-1.69075e-08
2.72566e-08
8.79668e-05
-1.20626e-09
-1.68677e-08
6.99898e-09
2.05962e-05
1.55408e-08
-7.21963e-05
3.06254e-08
1.51615e-06
-1.72816e-08
-5.76906e-08
-5.13661e-07
2.04763e-08
1.48799e-08
2.08275e-08
7.38895e-05
6.82087e-09
-0.000204069
-1.46131e-07
1.24647e-08
1.68137e-08
0.000888412
-3.61275e-09
2.37708e-08
3.13883e-08
3.12361e-08
-1.48167e-09
-7.89073e-12
-1.65979e-09
-2.92485e-08
-0.000176956
2.53072e-08
-3.32687e-05
-5.74777e-07
8.16368e-09
0.00371266
-2.14758e-09
1.95887e-08
-0.000192304
-1.62619e-08
4.0663e-05
0.000181589
2.18426e-08
1.46276e-08
-1.39576e-09
-1.34855e-08
-1.76736e-08
1.88311e-07
5.95138e-09
1.76837e-07
-5.9116e-10
2.1463e-08
2.24762e-08
7.37085e-09
-1.83525e-07
4.63722e-09
4.09086e-09
1.31487e-09
0.000115642
0.00013591
-6.5672e-05
-1.06839e-09
2.85755e-08
0.000177746
-1.66182e-08
-0.000152785
2.07824e-08
-1.21409e-08
-1.18602e-08
6.45743e-09
-1.4931e-08
3.80568e-08
-5.74587e-09
0.000116648
4.50422e-10
-2.3477e-08
4.48751e-09
-4.94636e-08
-9.68282e-09
6.64389e-10
0.00123649
1.39176e-08
1.25463e-07
1.58632e-07
0.00207373
-1.87827e-09
2.03934e-06
1.00496e-07
2.79504e-08
2.73698e-08
-0.000152952
-5.89732e-07
5.32035e-05
-3.47168e-05
9.31244e-09
0.000286667
-6.69396e-09
1.19466e-08
0.000418688
8.67806e-10
5.4727e-08
1.73802e-09
-4.32202e-05
1.69551e-09
8.33574e-10
-2.71994e-09
1.3081e-06
3.62278e-09
2.46765e-08
1.8658e-07
2.97502e-08
8.97401e-09
0.000227011
-7.28969e-07
-9.4163e-09
1.4495e-08
-5.77168e-05
5.85798e-11
2.00586e-07
2.93617e-09
-5.87909e-07
1.71331e-09
2.88735e-08
6.19837e-09
4.05745e-08
6.18138e-08
7.38291e-09
1.41053e-09
-3.86872e-05
9.66902e-05
-7.97095e-09
1.2205e-09
0.000259931
2.11716e-08
-8.34703e-05
-8.92134e-06
0.000136463
-6.96419e-07
-7.56585e-07
-0.000601148
3.05477e-08
-3.12622e-07
6.71203e-09
2.10579e-09
1.1685e-08
3.31589e-11
1.63034e-05
-0.00205587
-1.85842e-07
0.000112379
2.49938e-08
4.36869e-09
4.689e-07
1.53143e-05
1.53213e-09
1.05055e-07
5.81659e-08
-0.000116588
1.96441e-09
1.03966e-07
0.000343303
-8.82248e-07
6.99826e-07
-3.47372e-09
-1.97167e-09
1.62731e-09
-2.05795e-08
-3.60785e-05
6.33831e-07
-1.13568e-06
1.59338e-05
-0.000152441
1.21253e-08
-3.26168e-09
3.80286e-08
0.000102295
7.81018e-05
-2.68083e-09
7.00351e-07
6.42782e-06
1.41807e-08
7.48082e-08
7.69832e-09
9.30252e-05
-1.92168e-09
-8.10361e-08
-2.2491e-05
0.00123817
9.86477e-09
0.000375128
5.32105e-10
2.32371e-08
-8.41317e-09
1.4673e-09
-1.15387e-07
-1.77353e-09
0.000247562
0.000150396
2.06182e-07
0.000198565
1.00202e-07
-1.0299e-09
5.27267e-10
-1.87379e-08
1.79565e-10
0.000439834
1.71501e-08
-2.47059e-08
-8.61869e-11
7.05309e-05
-0.00139898
-2.7982e-09
2.04796e-08
1.45269e-08
-0.00103863
0.00132248
7.74083e-08
1.77523e-09
9.30652e-09
-9.64284e-10
-1.70472e-09
-0.000155955
-8.42358e-11
7.82739e-07
-0.000133902
6.46473e-10
0.00202201
-6.56712e-06
-2.58498e-08
-0.000183277
1.54095e-08
3.39012e-05
-2.33434e-07
-0.000136907
2.9842e-08
0.000679837
5.92576e-10
-1.16979e-07
4.03647e-08
1.16304e-07
3.12043e-09
-4.81589e-09
6.16489e-10
2.00964e-09
-4.49064e-05
2.27315e-08
2.79918e-08
-0.000214848
0.000636766
1.4937e-09
-5.0222e-05
-7.83227e-09
0.0014456
0.00117898
1.15201e-06
-2.36538e-08
-5.99378e-05
-0.000535254
-0.000171495
-2.72011e-09
-2.45406e-08
-0.000130438
0.000170974
0.000149459
2.42232e-07
-8.4099e-08
2.13686e-09
-2.38756e-10
-1.29939e-08
3.65372e-09
-9.86543e-09
0.000884629
-3.26811e-09
-1.7973e-08
1.32906e-08
9.61149e-06
1.94462e-09
1.9413e-09
-6.34028e-09
1.90519e-07
9.84052e-11
7.36956e-09
1.74416e-08
-2.25884e-10
4.41866e-08
-6.05609e-09
3.03703e-09
0.000447084
5.19443e-09
1.35318e-08
-4.50545e-08
3.09208e-09
-1.01539e-08
-6.4159e-09
-7.24014e-06
4.50981e-07
-7.29604e-09
-1.44749e-08
9.63975e-09
9.36722e-09
-8.51169e-05
-8.82971e-09
1.24204e-08
9.51361e-05
5.02981e-09
1.73246e-06
1.08209e-07
1.2618e-08
-1.27935e-07
3.05312e-08
-5.83114e-06
-7.36069e-07
-2.65381e-08
-1.28237e-08
-9.62417e-09
-1.23788e-09
-6.02807e-08
7.11264e-05
1.12504e-08
8.50064e-09
1.19192e-08
-9.0838e-09
4.39997e-09
-1.16966e-08
1.36966e-08
-6.43479e-05
-1.6713e-08
-2.84602e-09
-0.00012279
-1.6392e-08
0.000147676
1.95453e-08
5.16282e-08
5.93022e-09
-2.42926e-07
2.04852e-08
1.8249e-06
0.000815563
-8.57679e-09
0.000172717
-2.20128e-07
4.94935e-10
0.000354787
1.4796e-09
-9.26928e-09
2.99009e-09
9.16948e-09
-7.89734e-09
0.000201175
-6.71839e-12
-1.56705e-08
-2.54148e-08
-2.2092e-05
-1.1612e-09
-2.49036e-08
9.69368e-09
8.45762e-09
8.22747e-09
1.88272e-09
1.74236e-11
1.33619e-09
8.50692e-07
-1.372e-09
-0.000175327
0.000242172
2.56978e-10
-4.62499e-06
-4.19994e-09
2.61075e-09
-4.42975e-05
-2.65098e-05
0.000223909
0.000902014
-0.000151662
-3.42168e-05
-7.6141e-10
-7.62489e-09
-2.20012e-08
-1.06318e-08
-0.000124024
2.09478e-08
1.98227e-07
0.00209124
-1.06503e-08
0.000241479
2.28298e-07
-8.1746e-05
2.07564e-08
2.60755e-08
-5.98974e-09
7.48771e-09
-1.7523e-08
0.00107196
4.61418e-07
1.37702e-05
5.99671e-09
8.11503e-10
-0.000217525
3.36251e-07
-2.34911e-07
-2.16893e-08
-4.20978e-09
6.7409e-05
0.00148597
1.73347e-09
6.36182e-09
-4.8613e-09
3.13664e-10
2.65424e-10
-8.41645e-09
5.42709e-05
-6.08527e-09
-1.86865e-09
6.76055e-06
0.000136631
-1.10322e-08
3.01509e-08
3.21548e-10
9.3988e-05
-7.61676e-10
8.18949e-09
9.72684e-05
9.99473e-05
-5.12748e-09
2.45696e-08
0.000256959
1.11335e-07
-4.19475e-08
1.59917e-07
3.19233e-10
-9.67118e-05
-3.46296e-10
5.25771e-07
-0.0004745
-2.16287e-08
-7.02844e-08
-3.06815e-08
-8.61575e-08
-1.63689e-10
2.74839e-08
1.79269e-09
-5.93447e-07
2.12546e-08
-7.97798e-09
4.57373e-09
5.49579e-09
-1.3136e-06
0.000149281
-1.63232e-08
-2.04814e-09
-2.92556e-09
6.77626e-10
0.00101824
0.000193053
-3.63651e-05
-2.53441e-10
-2.75338e-08
1.03665e-08
-1.26406e-08
3.24522e-08
-0.00018193
1.19305e-08
-6.04081e-08
-6.12278e-05
-5.55349e-05
6.51463e-08
-9.55314e-09
-5.10986e-10
-9.90218e-09
-7.78967e-09
-2.4214e-10
-1.2891e-08
-3.37051e-09
1.20811e-08
-2.31861e-08
-0.000183112
-1.46367e-07
1.82897e-08
2.20637e-08
1.42161e-09
0.00203699
0.000222071
1.09052e-07
0.000255227
-1.77733e-05
1.64733e-08
0.000162367
-7.29281e-07
2.3995e-09
7.52526e-05
0.000465361
1.37057e-06
1.72139e-08
6.30572e-10
1.07759e-08
8.16143e-09
0.000335957
-3.10346e-08
-2.6096e-08
1.02729e-08
2.02704e-08
5.42135e-09
-4.66445e-05
-0.000246717
1.52858e-08
-7.04589e-07
-6.70394e-09
-6.35531e-07
2.93839e-08
-6.48109e-05
3.15244e-08
0.000146239
-2.10328e-08
-1.12098e-08
-5.02009e-08
2.13664e-08
1.71726e-09
0.00195098
-0.000102582
1.60287e-08
0.000484952
0.000124851
-0.000712778
0.000244316
-4.49555e-07
2.90494e-09
1.20115e-06
2.06602e-06
-1.34618e-08
0.0016534
1.44105e-09
-7.75297e-10
-0.000361934
3.58228e-09
5.69853e-09
5.71972e-09
3.12522e-07
-1.40737e-08
-2.1455e-09
0.000124859
3.67736e-10
0.000100031
-0.000130698
-2.33774e-05
5.46085e-06
-5.26261e-09
1.5892e-08
-4.05286e-09
8.60472e-07
-1.73797e-07
-3.15668e-09
5.09703e-07
-5.17022e-08
6.64939e-09
1.84218e-09
7.24429e-08
1.7381e-08
-1.98378e-06
-8.83718e-08
-2.1825e-08
-1.43398e-09
-2.15811e-09
-4.75327e-05
1.09078e-07
-6.89281e-10
-9.14892e-06
2.30269e-10
-7.08046e-09
1.16981e-08
-0.000290436
-6.32126e-10
4.89507e-08
5.50232e-09
7.83611e-05
1.43515e-09
2.0226e-06
-3.80647e-09
0.000831847
-2.01105e-06
0.00012231
1.54987e-08
4.73343e-08
-5.67152e-08
-3.26096e-08
1.48208e-08
2.92901e-08
8.98945e-05
7.81155e-08
1.15706e-08
6.36413e-09
4.1793e-05
-2.39587e-09
-6.59799e-09
-8.03799e-09
8.62106e-05
8.39023e-05
6.69113e-09
-1.49173e-08
2.34414e-08
-0.000188719
1.47745e-09
0.0008324
-0.0001904
-4.312e-08
5.41531e-06
0.00017751
-1.36741e-10
-9.95619e-11
1.08878e-09