/*--------------------------------*- C++ -*----------------------------------*\
| =========                 |                                                 |
| \\      /  F ield         | OpenFOAM: The Open Source CFD Toolbox           |
|  \\    /   O peration     | Version:  v2012                                 |
|   \\  /    A nd           | Website:  www.openfoam.com                      |
|    \\/     M anipulation  |                                                 |
\*---------------------------------------------------------------------------*/
FoamFile
{
    version     2.0;
    format      ascii;
    class       volVectorField;
    location    "400";
    object      ddtCorrDdt0(U);
}
// * * * * * * * * * * * * * * * * * * * * * * * * * * * * * * * * * * * * * //

dimensions      [0 1 -2 0 0 0 0];


internalField   nonuniform List<vector> 
27915
(
(2.47438e-05 4.78354e-05 -6.94696e-22)
(-9.43374e-05 0.0012706 6.5554e-22)
(-0.00029511 -0.000297636 0)
(0.00363851 -0.00179824 1.95566e-22)
(7.81117e-05 -0.000357708 1.72828e-22)
(3.85686e-05 2.48088e-05 2.4454e-22)
(0.00250407 0.00125104 0)
(-0.000209142 0.00024927 -4.04176e-22)
(0.000390641 -0.000370584 0)
(0.000522482 0.000510927 -5.90361e-24)
(2.63878e-05 -9.53272e-05 0)
(1.7991e-05 -5.88538e-05 -6.39719e-24)
(0.00145428 0.000710715 2.17602e-22)
(-0.00356663 0.00271376 1.39572e-21)
(-0.00511628 -0.00358986 4.56083e-22)
(6.98447e-05 2.88974e-05 2.39085e-22)
(0.00675125 0.00539894 7.75899e-23)
(-9.10697e-05 8.32208e-05 -3.09023e-23)
(0.00245313 0.000554165 0)
(4.6386e-05 -9.92252e-05 5.17228e-25)
(-0.00359625 0.00263632 -1.27178e-21)
(1.92826e-05 -3.68377e-05 -8.8722e-23)
(0.00675539 0.00528176 1.91814e-22)
(2.55573e-05 4.96522e-05 3.71595e-22)
(4.2231e-06 3.23503e-06 2.24265e-22)
(1.88849e-05 -4.76074e-05 -4.85994e-22)
(1.35591e-05 2.31201e-05 -2.6379e-23)
(-0.000135024 -6.16287e-05 3.83425e-23)
(0.00351725 -0.00196623 -1.91496e-22)
(-0.00203116 -0.000280677 -1.74255e-22)
(0.000654114 0.000507618 5.87586e-22)
(6.77329e-06 3.30562e-05 2.0896e-22)
(0.00640734 0.00545663 1.3145e-21)
(4.71082e-05 -0.00010226 -1.51656e-24)
(0.0022661 0.000417364 -6.9812e-23)
(1.23977e-05 2.65633e-05 -1.25559e-23)
(1.61639e-05 8.75678e-06 -2.73563e-24)
(7.26986e-06 3.67355e-05 0)
(-5.82619e-06 -8.1973e-05 2.70766e-23)
(5.33518e-05 -6.95476e-06 -4.04958e-22)
(1.01172e-05 1.01504e-06 -3.2803e-22)
(5.48865e-05 0.000111412 5.06408e-22)
(9.87912e-06 -3.94425e-05 9.90994e-23)
(-0.000636876 -0.00223866 -1.86682e-21)
(-0.00256869 0.00276269 0)
(-4.96386e-06 7.46348e-07 -1.54997e-22)
(1.12871e-05 -6.90214e-06 2.46177e-23)
(0.000218114 0.000197984 9.99748e-22)
(1.84778e-05 4.65327e-05 0)
(3.21815e-05 -2.87056e-06 0)
(0.000228263 0.000207974 1.03017e-21)
(-0.000497395 -0.00220406 2.05922e-21)
(0.00253775 0.00120174 -8.64375e-22)
(5.28365e-05 -9.61637e-06 0)
(0.00154684 0.00186476 0)
(-0.00591467 -0.000362168 -6.88624e-22)
(-0.000756725 0.00280041 0)
(7.46856e-07 4.79872e-07 -4.63213e-23)
(1.99827e-05 -3.68977e-05 -9.01808e-23)
(0.00476544 0.000605044 0)
(7.94042e-06 3.51611e-05 0)
(0.000226323 -4.92558e-05 7.52694e-23)
(-0.000428355 -0.000839176 -1.3032e-21)
(0.00214624 0.00108886 -1.28536e-22)
(-1.4581e-06 1.67905e-05 0)
(0.000109239 1.96441e-05 0)
(9.79763e-05 0.000391708 -7.99464e-22)
(-0.00130045 0.00120765 -5.43696e-22)
(-0.00361899 0.000866477 7.4289e-22)
(3.18951e-05 -0.000125005 0)
(4.49798e-05 0.000111469 1.02632e-22)
(-0.00174194 -0.000319586 1.45166e-22)
(8.41779e-06 -5.37065e-06 0)
(1.46369e-05 -3.60935e-05 0)
(0.000106114 7.56356e-05 0)
(0.000241825 0.00019112 2.12159e-22)
(0.00152204 0.000104271 -1.45206e-21)
(9.40499e-05 4.76082e-05 2.87577e-22)
(-0.000106729 0.00115972 0)
(1.73824e-05 -6.81189e-05 2.16784e-23)
(5.06128e-05 0.000111167 -5.26044e-22)
(5.14838e-05 -1.00633e-05 0)
(1.82923e-05 -4.49767e-05 2.70988e-22)
(3.22174e-05 -3.53121e-07 1.93176e-22)
(-0.00535622 -0.0004684 1.62805e-21)
(1.46713e-05 8.31688e-06 0)
(1.72952e-05 4.73088e-05 0)
(3.05341e-05 -0.000125414 -2.21361e-23)
(0.00740257 0.00193721 -5.93943e-22)
(-7.18076e-05 0.000136046 4.96601e-22)
(1.15546e-05 3.09644e-05 2.10686e-24)
(-0.00502867 0.00545233 0)
(6.82899e-05 2.83086e-05 2.05202e-22)
(0.000611496 0.000528879 -5.98174e-22)
(2.51928e-05 -0.000129827 0)
(0.000223835 0.000225775 -1.26999e-21)
(-0.00349065 -0.00514101 1.27671e-21)
(9.01083e-05 6.24069e-05 4.24843e-22)
(1.39142e-05 3.27076e-05 3.44603e-23)
(-0.00390946 -0.00447139 5.89751e-22)
(1.16592e-05 2.94502e-05 -1.25504e-22)
(-5.07285e-06 8.76811e-07 0)
(-0.00136021 -0.000648856 0)
(4.84462e-05 0.000114249 0)
(6.13934e-06 -1.06917e-05 1.88771e-22)
(4.69348e-06 2.50968e-05 -7.71236e-22)
(6.40435e-06 -4.30062e-05 -3.1887e-24)
(0.000304199 -1.28614e-05 0)
(0.000235179 -0.000142848 -3.38699e-22)
(0.00049678 0.000504036 -1.51815e-21)
(-2.95503e-06 -3.78713e-05 0)
(3.97361e-05 -0.000108606 -3.70629e-23)
(0.0034703 0.00187667 0)
(-0.00701883 0.000123461 2.2815e-22)
(0.00491555 0.0024269 -2.28411e-22)
(-0.00256105 0.00258201 0)
(0.00245853 0.00100708 -3.68242e-22)
(1.51604e-05 1.59915e-05 5.8449e-23)
(0.000348102 -0.000383225 0)
(-2.27008e-06 -1.32655e-07 1.86021e-22)
(-0.00229094 0.000821187 -1.55376e-21)
(0.000293926 -0.000395588 -6.50623e-22)
(0.000494632 -6.14463e-05 -2.77766e-22)
(-0.000104743 7.87853e-05 -7.21987e-23)
(4.06736e-05 6.80294e-05 4.69867e-22)
(-2.28822e-06 6.75761e-07 1.90477e-22)
(4.0361e-05 -0.000107986 8.17855e-23)
(0.00330776 0.00463123 3.05901e-22)
(0.000458173 0.00138808 -7.37767e-22)
(6.26999e-05 4.83778e-05 0)
(5.56606e-05 -5.14921e-06 -1.94819e-22)
(1.25493e-05 -1.64661e-05 -1.33833e-23)
(1.35407e-05 9.8929e-06 -1.89251e-22)
(-0.00030824 -0.000290505 0)
(-0.00778336 0.000481114 -7.08677e-22)
(-0.000720574 -0.00013766 2.89168e-22)
(9.41687e-06 4.32014e-06 0)
(1.40666e-05 -3.50301e-05 0)
(1.58229e-05 -0.000127224 0)
(1.40968e-05 8.14198e-06 0)
(0.00397873 -0.00147998 1.1568e-21)
(0.00464971 0.000599545 0)
(2.07198e-05 7.41232e-05 4.84634e-23)
(-0.00531929 -0.00369796 -2.10952e-22)
(0.000289045 -1.2619e-05 -5.27672e-23)
(1.13901e-06 -1.50766e-08 3.8297e-22)
(4.72519e-05 -6.16302e-05 7.40478e-23)
(0.000857452 0.00372899 -7.12366e-22)
(-0.00224888 0.000685951 1.14396e-21)
(5.35015e-06 2.26565e-06 4.98417e-22)
(1.03394e-05 5.40916e-07 0)
(9.2472e-05 4.50583e-05 -3.34703e-22)
(0.0016328 0.00263275 6.17455e-22)
(0.00647507 0.00532996 0)
(-0.000473162 -0.000902779 0)
(9.2554e-05 3.39019e-05 -3.28861e-22)
(1.40057e-07 2.07376e-05 -6.65445e-22)
(1.18252e-05 -8.10285e-06 0)
(1.72504e-05 -0.00013438 -5.11644e-25)
(3.90992e-05 3.21446e-05 0)
(-1.23909e-05 -8.43271e-05 0)
(-0.00100469 -0.000518717 6.84403e-22)
(0.00148237 3.5295e-05 1.04296e-21)
(2.2121e-05 4.09058e-05 -3.57527e-22)
(3.50218e-05 -6.79527e-05 5.89876e-24)
(5.93654e-05 -1.27011e-05 3.51433e-22)
(-1.0231e-05 -3.00646e-05 0)
(-0.000719601 0.00132138 0)
(1.09617e-06 2.11962e-05 -3.72468e-22)
(-0.000115099 0.00119256 1.16739e-21)
(-0.00278801 -0.00364484 1.25782e-21)
(1.36626e-05 -7.66035e-06 -5.27304e-22)
(0.00689798 0.00522318 1.5422e-21)
(7.77339e-06 -1.03035e-06 0)
(-4.98993e-07 8.07643e-06 0)
(0.00307507 -0.00048817 0)
(0.000408392 0.000158292 -8.76487e-22)
(2.80616e-05 4.34372e-05 -7.18923e-22)
(4.49078e-05 -6.243e-05 3.38877e-23)
(0.00184673 0.00160976 -1.25223e-22)
(1.2047e-05 -1.04559e-05 3.80672e-22)
(9.64474e-05 0.000406075 4.21986e-22)
(6.65823e-06 -5.53337e-07 0)
(-3.30819e-05 -0.00316486 -1.04891e-21)
(-0.00724578 4.34348e-05 0)
(0.000326553 -0.000410164 0)
(0.000230872 -0.00113572 0)
(2.88488e-06 -1.13047e-05 -1.54901e-24)
(-0.000228611 -0.000232849 -3.13731e-22)
(0.000123484 8.1517e-05 2.89665e-23)
(2.23781e-05 -5.6473e-05 -3.87674e-23)
(0.00470566 0.00157074 0)
(2.64641e-06 -1.18006e-05 -1.76308e-22)
(4.154e-06 -1.25859e-06 2.03196e-24)
(7.85665e-06 -7.398e-06 1.02877e-22)
(-0.00500436 0.000927535 1.21585e-21)
(1.61787e-05 -5.62104e-05 3.26867e-23)
(0.0001379 -0.000118289 -4.91959e-22)
(-0.000216644 -6.54306e-05 2.7627e-22)
(0.00231491 0.00135287 0)
(0.000639674 2.93132e-05 0)
(0.00184765 -0.00148701 5.61758e-22)
(0.000133812 -9.23243e-05 0)
(-0.00522171 0.0052032 0)
(1.02291e-05 -4.63786e-06 -2.20619e-23)
(0.000115054 1.18407e-05 0)
(-0.0029931 0.00149334 0)
(7.77979e-05 5.43266e-05 0)
(3.04458e-05 0.000210989 -3.69982e-22)
(0.00198519 -0.00222636 5.28264e-22)
(0.000599353 0.00235101 1.37563e-21)
(2.57755e-05 4.25393e-05 7.30238e-22)
(-0.00416632 -0.00450478 -1.82255e-21)
(4.25226e-05 -0.000105588 -8.1148e-23)
(0.000382149 0.000450607 -7.73276e-22)
(1.53229e-05 -1.61085e-05 -3.90994e-23)
(0.00316299 -0.000514191 -3.10409e-22)
(0.00261675 0.000867907 -3.51203e-22)
(0.000105792 -0.000485196 3.96927e-22)
(0.000167384 9.62477e-05 -9.93211e-23)
(0.000327603 0.00345304 -4.87616e-22)
(0.00206026 0.00419119 -6.95178e-23)
(-0.0005515 0.000695084 -3.29704e-22)
(-1.21078e-08 -5.87694e-05 -7.48939e-23)
(0.000102177 5.77477e-05 3.47944e-22)
(4.39167e-07 2.89858e-05 -3.33786e-22)
(1.19497e-05 0.00028523 0)
(2.2592e-05 -5.90376e-05 0)
(0.00182774 0.00178673 0)
(2.01936e-05 4.0554e-05 1.72876e-22)
(0.00570769 0.00435849 -1.71674e-21)
(1.403e-05 3.93659e-06 0)
(-0.00122484 -0.000701412 -5.6125e-23)
(9.09891e-05 3.25145e-05 3.4977e-22)
(1.32605e-05 -9.504e-06 -7.3703e-22)
(3.05364e-05 6.16613e-05 9.6872e-23)
(-0.000884899 -0.00362383 1.68324e-21)
(3.9633e-05 2.30705e-05 0)
(0.00731778 -0.00163233 -3.09554e-22)
(6.68979e-06 1.50259e-05 1.29735e-22)
(7.59294e-06 -7.89139e-05 -8.51057e-25)
(-0.00271186 -0.00354894 0)
(0.00333593 0.00980003 -1.12509e-21)
(0.000274713 -0.000418041 1.20069e-21)
(2.77796e-06 -6.52908e-05 -1.25457e-22)
(3.43561e-05 -0.000122066 -1.18255e-23)
(-0.00229768 0.0032928 -1.8012e-21)
(4.21671e-05 -0.000104909 4.7412e-23)
(0.00150143 0.000815308 -6.57917e-22)
(0.00156402 0.00275011 -9.00471e-22)
(1.22748e-05 -4.1369e-05 0)
(0.000107153 0.000298261 5.34884e-22)
(0.0025034 0.00166757 7.12844e-22)
(1.16628e-05 3.03657e-05 0)
(-3.25496e-05 6.70362e-06 -7.70136e-22)
(3.94317e-05 -0.000113003 -1.45656e-23)
(9.79336e-05 0.000308126 1.722e-22)
(6.02681e-05 -1.25561e-05 -1.94562e-22)
(-0.00204346 0.00100296 -6.88152e-23)
(-0.0044639 -0.00236844 4.71044e-22)
(-0.00191057 -0.000649739 1.67385e-22)
(4.80168e-05 -3.45557e-05 1.41209e-24)
(8.39346e-06 -3.81225e-06 -1.87305e-22)
(4.6054e-06 1.81996e-05 0)
(-2.98336e-05 2.53697e-05 -3.49233e-22)
(0.00266584 0.00162306 -4.87922e-22)
(-2.09525e-07 -9.10209e-06 5.98735e-22)
(-2.29364e-06 -4.6355e-05 -4.09683e-23)
(0.000284983 -0.00109277 -4.49114e-23)
(1.00557e-05 2.77375e-06 0)
(1.78259e-05 -2.71166e-05 7.9631e-23)
(1.21154e-05 -2.25493e-05 1.20738e-23)
(-0.00218366 -5.18624e-06 2.30118e-22)
(-6.67946e-05 0.000120491 3.28473e-22)
(3.4663e-05 -0.000114919 0)
(0.0023874 0.00216343 -6.56008e-22)
(3.82186e-05 3.13993e-05 0)
(0.000303128 0.0034536 1.46932e-21)
(-0.00541401 0.00191795 1.285e-21)
(0.00322278 0.00155617 -9.12254e-22)
(0.00214445 0.00403558 -1.44301e-22)
(0.00413579 0.0047831 7.46269e-23)
(7.08107e-05 3.16653e-05 -1.28706e-22)
(-0.00637584 -0.000523228 -4.31862e-22)
(1.68547e-05 -0.000127204 5.33625e-23)
(6.66979e-05 4.39785e-05 -7.75413e-24)
(-0.000962197 -0.000253476 8.574e-22)
(3.79087e-05 -0.000111241 -4.39347e-23)
(0.00705954 -0.00188515 -3.38326e-22)
(-0.00196292 -0.000627184 -9.50622e-23)
(0.00105947 0.00291993 3.17537e-22)
(-3.44712e-05 1.6661e-05 1.21515e-21)
(1.40573e-05 1.6968e-05 0)
(0.000666438 0.000446894 -1.12762e-22)
(9.22464e-05 7.89887e-05 2.71668e-22)
(1.00593e-05 -2.81845e-08 0)
(2.16199e-05 -5.23634e-05 0)
(-0.0019482 0.00109875 0)
(-0.000621153 0.000694368 0)
(8.58453e-06 3.41414e-05 2.84146e-23)
(0.00442726 -0.000655883 0)
(3.05867e-05 -3.51414e-05 4.92345e-23)
(2.88491e-05 -9.90259e-05 -7.44856e-24)
(1.06438e-05 -3.46969e-05 -1.95589e-22)
(0.000928253 0.00283157 5.43012e-22)
(0.00331168 -0.00199004 -1.63024e-21)
(1.45576e-05 -1.61968e-05 0)
(0.00164484 0.00161982 -1.43202e-22)
(1.37038e-05 1.78949e-05 -3.68137e-23)
(-0.000964068 0.00222742 1.73041e-21)
(0.00217557 0.000993422 2.78377e-22)
(-0.00490962 0.000697575 1.22646e-21)
(0.000968763 -0.00294847 6.93928e-22)
(3.85025e-05 -0.000110782 -2.1358e-24)
(0.00483708 0.000503304 2.43568e-22)
(1.00075e-05 5.71017e-08 -2.79117e-22)
(3.08712e-06 1.64041e-06 -1.61663e-22)
(1.37429e-05 3.05021e-06 0)
(-0.000143045 0.000222361 -6.70912e-22)
(0.000572559 -0.000277186 -1.69424e-22)
(-0.00337216 -0.00488257 1.33376e-21)
(5.58448e-06 -2.63307e-06 2.83831e-22)
(4.30012e-06 -6.08302e-05 -6.97947e-24)
(4.70215e-05 1.83198e-05 -4.42219e-22)
(0.00189056 -0.00337945 3.10488e-22)
(2.22361e-05 -0.000130028 0)
(8.20227e-06 2.31225e-05 -1.29688e-22)
(-0.000439445 0.000295895 0)
(-0.000149463 -8.33319e-05 -6.44073e-23)
(0.000137078 -0.000479617 3.85396e-22)
(1.47731e-05 1.67184e-05 7.0602e-24)
(0.00154879 0.00238347 -1.35307e-21)
(1.46626e-05 -0.000126744 -4.83398e-23)
(-0.00619204 -0.000722409 -5.91593e-22)
(0.00353306 0.00139564 -9.88912e-22)
(0.000386438 -0.000391936 0)
(-0.000538894 -0.000887601 4.81089e-22)
(0.00430084 -0.000452547 2.49427e-22)
(0.000647854 0.000417486 0)
(4.06277e-05 -0.000113071 1.70706e-23)
(8.10874e-05 5.45082e-05 4.08905e-23)
(0.000409519 0.000470641 -4.48979e-22)
(-0.000103335 0.00023864 0)
(0.000599966 -0.00026638 1.97282e-22)
(-0.000149571 -0.000522433 -1.14951e-22)
(0.00032047 0.00140549 0)
(1.82615e-05 -3.31424e-05 0)
(0.000213131 -0.000178794 0)
(2.50079e-06 -0.000104026 3.49606e-24)
(6.70389e-06 0.000151834 -4.04993e-22)
(-0.000903384 -0.00026008 -6.30627e-22)
(-0.00348343 -0.00257144 -6.22995e-23)
(0.0025942 0.00241327 0)
(0.000147588 -0.000121231 2.02035e-22)
(-0.00705614 -0.000343363 -2.27096e-22)
(0.00052078 -5.95791e-05 4.70847e-22)
(6.62921e-05 0.000103903 5.23414e-22)
(8.27266e-06 3.40272e-05 -2.89434e-23)
(-0.00482825 0.00104507 -1.19346e-21)
(-0.000761887 0.0011406 8.15103e-22)
(-0.00124571 0.00251332 2.33662e-22)
(2.89102e-05 -3.64403e-05 3.65468e-22)
(7.35912e-06 -7.47129e-05 -2.23968e-24)
(-0.00221322 0.000942795 0)
(-0.000446129 0.000263244 0)
(-1.23778e-06 2.99341e-05 -4.27827e-23)
(0.0019272 0.000653059 0)
(2.47376e-07 -9.86992e-05 1.63424e-23)
(0.000133517 4.04539e-05 0)
(-3.36803e-05 3.48212e-05 -3.29513e-22)
(6.09496e-05 0.000106522 4.92048e-22)
(0.00117419 0.00430828 0)
(6.88652e-05 5.93312e-06 -2.09396e-22)
(7.12072e-05 -7.63523e-05 -4.82522e-23)
(4.44252e-05 -0.000614233 -6.19229e-22)
(2.33128e-05 -0.000105595 -1.16557e-23)
(1.86178e-05 -9.63516e-07 0)
(2.68196e-05 5.54022e-05 -5.94373e-25)
(-2.78795e-05 0.00350474 -1.24898e-22)
(3.52928e-05 -0.000122304 2.54527e-23)
(-0.00381286 -0.00429427 1.21239e-21)
(1.81076e-05 -7.2573e-05 0)
(-0.00249823 0.0032719 1.9203e-21)
(-0.000496613 0.000246733 -9.84952e-22)
(1.39202e-05 -2.11213e-05 0)
(0.000274151 -0.000156331 -9.92099e-23)
(0.000533257 0.00143064 7.94353e-22)
(2.05007e-05 7.51778e-06 -5.45475e-22)
(-0.00127948 0.00224284 0)
(-0.000652593 0.000495766 0)
(-0.00696305 -0.000460449 0)
(0.000183858 -0.000112662 4.37743e-22)
(0.000261271 -0.000169514 -1.11537e-22)
(-6.01901e-05 -4.27898e-05 0)
(3.95983e-06 2.81213e-05 5.05436e-22)
(0.000611647 0.000175108 0)
(-0.000330173 -0.0021451 0)
(-0.00149879 -0.00426143 -9.14071e-22)
(2.0616e-05 -7.88958e-05 5.99451e-24)
(0.00293727 -0.00118288 -3.05037e-23)
(0.000765469 -0.0031413 -1.23307e-21)
(5.71591e-05 -8.09874e-05 4.00101e-23)
(1.21569e-06 -6.02389e-05 -6.33313e-23)
(-1.91278e-06 1.56736e-05 6.37393e-26)
(0.00313179 -0.0021371 1.72538e-21)
(1.3235e-05 -4.51495e-05 0)
(0.000605653 4.19222e-05 1.78731e-22)
(9.20913e-07 -6.18257e-05 1.04425e-22)
(0.000491817 -0.000398544 -8.67575e-22)
(-0.000154358 3.77076e-05 0)
(1.25018e-05 8.95781e-06 2.71839e-22)
(0.000181019 0.000189761 0)
(-1.33286e-06 2.70577e-05 0)
(0.000384598 0.000124885 2.06158e-23)
(4.65271e-05 2.07527e-05 -5.15707e-22)
(0.000869014 0.00119476 -3.89504e-22)
(1.19859e-05 4.91655e-06 -1.90167e-22)
(-0.00126405 0.0013168 -2.85431e-22)
(0.000129276 4.20988e-05 -2.98235e-22)
(6.47153e-06 1.60496e-05 -2.72125e-22)
(0.00472582 0.000491358 -2.13738e-22)
(0.000516135 0.00118599 2.73655e-22)
(7.63239e-05 -0.000597219 0)
(0.00319175 0.00162871 0)
(0.000221131 7.07656e-05 3.9448e-22)
(-8.80991e-05 -0.00014057 -2.16212e-23)
(-0.000149725 2.42746e-05 0)
(2.98495e-05 -3.48263e-05 -4.00023e-22)
(7.61093e-06 -3.74269e-05 -2.68332e-24)
(3.65159e-05 -0.000113225 -4.33112e-23)
(4.23293e-05 -0.000114085 -6.73678e-24)
(5.86718e-05 -9.0797e-05 0)
(-0.00050309 0.000206344 9.05426e-22)
(0.00086747 0.00110492 4.332e-23)
(-0.00622544 -0.00143328 -3.88832e-22)
(3.50456e-05 -0.000113165 0)
(-1.12464e-07 -5.73939e-05 0)
(0.00680128 0.00198055 -9.7582e-22)
(1.21304e-05 1.52927e-05 -1.09657e-22)
(0.00217897 0.00118202 -1.60558e-22)
(-4.68125e-06 2.52111e-05 -5.14879e-24)
(8.27513e-07 -3.761e-05 0)
(-0.00334226 0.00315242 0)
(0.00174382 -0.00147102 9.9553e-23)
(1.16524e-05 8.20469e-06 -1.48453e-23)
(-0.000823034 -0.00097403 0)
(0.00036527 0.000118678 -1.86049e-23)
(-0.000192858 0.00318052 1.24523e-22)
(3.54655e-05 0.000109134 0)
(1.09184e-05 3.29658e-05 0)
(2.43001e-05 7.53558e-05 -2.45828e-22)
(9.65098e-05 6.33865e-05 1.36082e-22)
(1.137e-05 -4.26748e-05 -8.18226e-23)
(0.000367405 -0.000516346 0)
(5.92501e-06 -8.92545e-05 1.50821e-23)
(5.12122e-05 -1.5083e-05 0)
(5.58231e-05 -5.95748e-05 0)
(1.68909e-05 -4.38756e-05 0)
(7.00395e-05 6.6397e-06 0)
(-0.00342729 -0.00244834 0)
(0.000729679 0.00247256 -9.69305e-22)
(4.95102e-06 1.31735e-05 0)
(0.00460329 -0.00158023 0)
(0.000125689 0.000171032 6.79495e-24)
(-0.00162929 -7.0741e-05 -2.02223e-23)
(0.000131048 0.000163618 -9.94569e-23)
(-0.000915896 -0.00157551 -2.7506e-21)
(0.00280521 -0.00228855 -1.07735e-21)
(2.60632e-05 -7.36063e-05 -3.121e-23)
(9.06484e-05 -0.000333662 5.26073e-22)
(0.00168941 -0.00115214 1.05289e-22)
(1.49111e-05 -1.33454e-05 0)
(-0.00555953 0.00188429 -1.31058e-21)
(-7.11763e-07 1.94102e-06 -3.70404e-22)
(-4.87492e-07 7.56175e-06 -2.19474e-23)
(-0.000277555 -0.00226698 5.57864e-22)
(0.000565775 0.00126452 5.88024e-22)
(0.00145712 0.00230855 1.53793e-21)
(3.70396e-05 -0.00011299 1.10428e-23)
(0.000214491 -0.000250683 0)
(0.000602563 0.000139771 5.36962e-23)
(0.000253611 0.000203575 -1.27161e-22)
(0.00171035 0.00228353 1.44847e-21)
(-0.0047492 0.00184831 -1.68025e-21)
(2.93323e-05 6.05338e-05 3.80015e-22)
(4.58618e-06 2.05412e-05 2.54386e-22)
(5.0033e-05 4.63213e-05 -2.05525e-22)
(4.87311e-05 -1.04253e-05 -2.01167e-22)
(0.000211641 -0.000230044 0)
(4.35263e-05 -0.000108767 -6.16141e-23)
(1.72632e-05 -4.47849e-05 0)
(0.000109936 6.74316e-05 0)
(0.00276875 0.0028635 -2.45024e-22)
(3.70478e-05 6.37755e-05 -2.53771e-24)
(6.17634e-05 0.000104935 -5.02248e-22)
(0.000189028 -0.000102971 0)
(-1.03772e-06 7.81905e-06 0)
(0.000104022 2.91539e-05 0)
(0.000161475 -0.00275878 0)
(3.81956e-05 -0.000105974 -7.02922e-24)
(5.05457e-05 5.27285e-06 -8.7372e-22)
(2.69614e-05 -6.4917e-05 0)
(-0.00185886 -0.000363412 0)
(-0.00446386 -0.00115878 0)
(-0.0028505 0.000199694 0)
(-0.000974454 0.00439859 1.7336e-21)
(0.000232806 -0.000275909 -5.16831e-23)
(-5.00007e-07 -9.79988e-06 -3.7928e-22)
(0.00138939 0.0016221 0)
(1.80147e-05 -1.97195e-06 6.00966e-22)
(-2.5351e-06 8.58572e-07 0)
(1.79395e-05 3.47282e-05 -3.02997e-25)
(0.000244096 -0.000295053 0)
(8.98764e-06 -3.85247e-05 0)
(-0.00327599 0.00112909 -1.27329e-21)
(0.000251336 0.00152826 6.92199e-22)
(0.000107941 -6.98277e-05 -4.18979e-23)
(5.17676e-05 2.09502e-06 8.36695e-22)
(-0.00337677 -0.00415283 2.05178e-22)
(5.44544e-05 -0.000183046 -5.13479e-22)
(0.000219286 -0.000133386 1.86645e-22)
(7.34329e-06 2.2172e-05 -1.62959e-22)
(7.03292e-06 -7.56262e-05 -1.32755e-24)
(-0.000730643 -0.00390788 1.24368e-21)
(0.000172046 0.000208183 0)
(5.75968e-05 -6.63862e-05 0)
(0.00266173 0.00111909 7.38328e-22)
(1.27265e-05 -6.89497e-05 -2.49897e-23)
(2.77762e-05 -7.11672e-05 0)
(4.76388e-05 -2.97159e-05 -1.43097e-22)
(4.47116e-05 -0.000108558 1.92006e-23)
(2.21788e-05 -4.24896e-05 1.06865e-22)
(1.14907e-05 -2.54651e-05 2.28176e-23)
(7.28141e-06 -8.07833e-05 -6.50046e-23)
(1.24406e-05 -0.000103883 -3.9995e-24)
(5.76084e-05 5.36478e-05 0)
(1.08758e-06 -5.59e-07 -1.08586e-22)
(-0.00626955 -0.000845537 6.32016e-22)
(-0.00179367 -0.000248475 -1.3694e-22)
(0.00023497 -0.000157954 -1.70777e-22)
(-3.21836e-06 1.30492e-06 0)
(4.45713e-05 2.04188e-05 -3.84901e-22)
(7.31871e-06 2.1995e-05 -3.7195e-23)
(0.000307045 -0.00015251 0)
(1.03501e-05 3.71408e-07 0)
(1.37155e-05 3.58053e-05 8.60671e-23)
(3.82027e-05 -0.000106934 7.11436e-24)
(2.77443e-05 4.42018e-05 -6.07007e-23)
(0.00189847 0.00594181 0)
(5.66892e-06 -1.20358e-05 -1.19635e-22)
(0.00681409 0.00213483 8.57181e-22)
(-0.00435231 0.00246364 2.14482e-21)
(0.00472479 0.00182702 0)
(-2.32174e-06 -3.23812e-05 1.25836e-22)
(-0.00613787 -0.00143974 6.53901e-22)
(0.00252457 0.003866 1.09022e-21)
(1.29013e-05 -3.49227e-06 0)
(1.14626e-05 -8.99713e-06 4.61429e-22)
(0.000318231 0.00300437 4.39749e-22)
(4.83651e-05 5.08874e-05 0)
(-0.000161834 -0.000106323 1.45732e-22)
(-3.06e-06 1.43413e-05 -8.45864e-24)
(0.0161857 -0.0649698 -2.69228e-21)
(4.16612e-05 1.55613e-05 7.02472e-22)
(0.00199841 -0.00352293 -7.60546e-22)
(1.74736e-05 9.42069e-06 5.92508e-22)
(4.28353e-06 -9.23592e-05 -1.5483e-23)
(0.00179066 0.00432981 2.91531e-22)
(0.00238926 0.00196373 0)
(3.58647e-05 6.65445e-05 0)
(1.11355e-05 2.80635e-05 0)
(-1.097e-06 6.14836e-06 -2.43838e-22)
(1.29154e-05 1.25356e-05 6.86289e-24)
(0.00124071 0.00112097 0)
(7.41563e-05 -4.78191e-05 0)
(7.36552e-06 -6.85947e-05 -4.12486e-24)
(0.00366419 0.00134992 0)
(-0.00496259 -0.00465865 5.19011e-22)
(0.00205624 0.000663056 0)
(2.68573e-05 -6.36989e-05 0)
(0.00305681 -0.00112033 0)
(0.00156042 0.0042312 0)
(9.53549e-06 2.93537e-05 -4.26822e-22)
(1.38715e-05 3.31633e-05 -3.41451e-23)
(0.00324162 0.00144578 -5.68161e-22)
(0.000219036 -5.80658e-05 8.45601e-23)
(4.19778e-05 5.23395e-05 -3.89957e-22)
(0.00128941 0.00160301 0)
(-0.00486127 0.00125515 0)
(-0.000129499 0.000243574 -4.26872e-23)
(0.00022108 -0.000120445 -1.84754e-22)
(2.15108e-05 -4.36752e-05 1.59436e-22)
(8.54288e-06 -1.81214e-06 0)
(-0.00128533 0.000353951 1.46324e-21)
(-0.00454677 -0.000727429 5.52927e-22)
(2.40373e-05 -0.000257727 -1.44458e-23)
(-0.00287372 -0.00417925 -2.92017e-22)
(0.00102392 0.00287685 -1.61294e-21)
(0.000970871 -0.000273142 0)
(0.000113131 2.43877e-05 0)
(0.00570477 0.00116203 2.67655e-22)
(-0.00189459 -0.000235671 -9.87033e-24)
(-0.000588612 0.000738364 0)
(0.000142566 9.22417e-05 -3.95901e-22)
(0.00429242 -6.10523e-05 0)
(3.97787e-05 0.000113903 -1.46057e-22)
(3.89127e-05 1.09817e-05 -5.97075e-22)
(3.49847e-05 -3.30019e-06 -3.78211e-22)
(6.02472e-05 5.78892e-05 0)
(-0.00114778 0.000206008 1.95682e-22)
(8.20832e-06 2.34869e-05 -1.26184e-22)
(1.41419e-05 -3.46583e-06 -3.80539e-22)
(2.49041e-05 -7.29323e-06 2.81949e-22)
(0.000244072 0.000214693 0)
(0.000944556 -0.0011527 6.04366e-23)
(0.00519765 0.00501057 1.16253e-21)
(4.26953e-05 -9.63558e-05 0)
(3.0948e-05 1.70343e-07 -1.25948e-24)
(7.38038e-06 -6.2027e-06 -2.59523e-23)
(2.52724e-05 -0.000129995 0)
(0.000100558 -1.40834e-05 -1.27224e-22)
(-0.00300213 0.00029703 0)
(0.000783364 0.00273399 1.3002e-21)
(-0.00116363 0.00447988 -1.87421e-21)
(2.092e-06 -3.95138e-05 0)
(0.00153997 0.00579361 0)
(4.82064e-05 -9.66466e-05 0)
(1.59627e-05 -7.93442e-06 0)
(0.000699539 -0.000516591 0)
(0.000106898 3.7155e-05 -1.50027e-22)
(-6.25751e-07 5.26555e-06 2.52204e-22)
(0.000731497 -0.000611814 -6.06732e-22)
(1.63505e-05 -0.000133945 0)
(-0.00284679 0.00119203 1.23585e-21)
(0.000124687 0.000286024 2.0825e-24)
(-3.48616e-05 -1.48046e-05 6.81476e-24)
(-0.00606261 -0.00104337 -6.01218e-22)
(-0.00182993 -5.16406e-05 0)
(0.000231481 0.000284312 0)
(-9.71121e-08 1.55443e-05 0)
(-4.48724e-07 4.13125e-05 5.13132e-25)
(3.78489e-06 -1.10863e-06 0)
(0.00131072 -0.000691476 5.35123e-23)
(0.0018983 0.00248838 -8.82137e-22)
(0.000398428 0.000322137 -4.50011e-23)
(-0.00513504 -0.00473231 5.86051e-22)
(6.12977e-06 4.61607e-05 1.44369e-22)
(1.34655e-05 0.000386684 0)
(5.61435e-06 -1.29913e-06 0)
(-0.00132279 -0.00112203 -8.85014e-22)
(1.39228e-05 3.68715e-05 -1.97609e-22)
(1.19685e-05 -6.5436e-05 0)
(4.13744e-05 7.17064e-05 -6.81379e-22)
(1.95467e-05 5.0863e-05 -6.9132e-22)
(-0.000702087 0.00122328 0)
(4.83891e-05 -9.51595e-05 -6.23387e-23)
(3.01513e-05 6.1652e-05 7.57564e-22)
(4.0966e-05 0.00011442 -4.90787e-22)
(2.61633e-05 -7.23865e-05 0)
(0.00205915 0.000749311 0)
(3.88687e-05 -4.00832e-06 0)
(6.18139e-06 -4.71664e-05 -1.70741e-22)
(-0.000665366 0.00109256 0)
(9.23262e-05 8.78196e-05 0)
(0.000104229 5.3038e-05 -3.2686e-22)
(1.90892e-05 -2.12611e-05 0)
(2.25326e-05 5.21535e-05 3.28938e-22)
(0.00243749 0.00404701 -1.20199e-21)
(9.29916e-06 3.32776e-05 1.34593e-23)
(1.67336e-05 2.74606e-05 0)
(1.37908e-05 -2.90801e-06 1.78239e-22)
(3.92009e-06 2.94286e-06 1.90292e-22)
(-0.000924293 0.00234738 -1.52229e-21)
(-1.88003e-06 1.70336e-06 6.52923e-22)
(7.94429e-06 1.78769e-05 5.91802e-22)
(0.00193708 -0.000594263 -4.46041e-22)
(1.78988e-05 -0.000136122 5.14237e-23)
(4.17003e-05 7.04378e-05 5.78597e-22)
(0.00129259 -9.62708e-05 0)
(9.41268e-06 6.57312e-06 0)
(-4.02696e-05 -3.83799e-06 0)
(-0.00670185 -0.000376425 -2.29393e-22)
(-0.00426331 -0.0044755 -1.02378e-21)
(-0.00170994 -0.00575305 0)
(1.1682e-05 -2.285e-06 0)
(0.000245361 0.000229621 3.03834e-22)
(0.000116834 0.000176463 -6.36031e-24)
(-4.44354e-06 -1.03627e-05 2.3287e-22)
(4.92886e-05 -2.52207e-05 -1.78075e-22)
(0.000425099 0.000142483 0)
(6.03348e-05 5.84394e-05 0)
(6.27685e-06 -8.66106e-05 -1.27274e-23)
(1.37639e-05 1.12099e-05 9.60007e-24)
(3.99321e-05 5.13606e-05 3.7101e-22)
(0.0037386 0.00161568 0)
(0.00454286 -0.000334867 -3.05919e-22)
(0.000911962 -0.000531008 3.54253e-22)
(-0.000715445 0.000494196 0)
(-0.000123608 -0.000704727 3.90617e-23)
(7.47399e-05 -4.53389e-05 1.87395e-22)
(-3.15244e-07 1.63481e-05 2.50222e-24)
(0.000696489 -0.000636168 6.87112e-22)
(7.20162e-05 -0.000150023 -2.81801e-23)
(2.15487e-06 -9.45668e-05 -3.21732e-23)
(0.000241939 0.00012129 -5.07592e-22)
(9.16801e-06 3.13769e-05 1.56006e-24)
(0.00494969 0.000716728 -1.50809e-22)
(2.93641e-05 -0.000102467 1.07134e-23)
(4.95932e-05 -0.000108979 -2.30493e-23)
(8.21055e-05 6.87911e-05 4.19011e-23)
(-1.99555e-06 9.96488e-07 -6.54676e-22)
(-0.00203092 -0.000172585 -1.81892e-22)
(4.92034e-05 -2.86415e-05 0)
(-0.0042801 -0.00249561 3.09546e-22)
(1.63411e-05 -0.00284825 0)
(0.00126337 -0.000320942 0)
(1.94671e-05 -1.46085e-06 2.02513e-23)
(0.000294429 -0.000164886 5.46193e-23)
(6.63273e-06 1.13144e-05 5.17854e-22)
(4.88034e-06 1.32947e-05 7.83466e-23)
(7.63638e-06 -6.81457e-05 -3.61769e-23)
(-4.34982e-07 7.99261e-06 0)
(0.000116729 0.000297641 -2.96754e-22)
(1.30526e-05 2.26801e-05 -3.72571e-24)
(0.000110308 4.26137e-05 -5.9238e-22)
(0.000124 -5.24911e-05 0)
(0.000102506 -1.33147e-05 -2.37216e-22)
(4.62809e-05 -0.000104567 0)
(0.000885048 -0.00113102 4.40004e-22)
(0.00103628 0.00269354 9.79508e-22)
(3.7217e-05 -5.00069e-06 -2.74196e-25)
(9.18005e-06 1.39149e-05 -2.49009e-22)
(3.47665e-05 -3.60717e-06 1.482e-22)
(0.000649556 0.000231871 -5.97985e-22)
(5.13098e-06 -9.10756e-05 0)
(-7.78571e-05 0.000250819 -3.43757e-22)
(0.000250899 8.47384e-05 0)
(7.09801e-06 2.0212e-05 0)
(-1.51408e-06 9.67934e-06 -7.03607e-23)
(0.00211395 0.00231527 1.00805e-21)
(0.00426882 -0.00204738 -5.76502e-22)
(3.98941e-05 5.78317e-05 1.93287e-22)
(0.000111137 0.000186148 4.35073e-22)
(0.00575165 0.0051249 -1.29368e-21)
(4.41126e-06 -3.13761e-06 -1.62035e-22)
(4.16619e-05 5.28409e-05 -4.4115e-22)
(-0.00707859 -0.000157216 9.41405e-22)
(9.70797e-05 -5.33091e-05 4.64423e-22)
(-0.000552635 -0.000478008 0)
(-4.79833e-06 -6.65424e-06 -2.00102e-22)
(3.70931e-05 3.3695e-05 0)
(0.00030797 0.000489794 0)
(-0.000894602 0.00125228 -8.57779e-22)
(8.93896e-06 -7.08061e-05 0)
(1.92609e-05 -0.000115512 1.91571e-23)
(0.000171127 0.000136195 5.11633e-22)
(0.000211093 7.26708e-05 -1.87206e-22)
(0.000111098 -7.40106e-05 1.73383e-22)
(0.00134523 -0.000330457 -1.71214e-22)
(-0.000745813 0.000841528 4.41014e-22)
(3.88775e-05 3.45266e-05 5.53615e-23)
(0.00130327 -9.65238e-05 0)
(3.2902e-06 3.1696e-06 0)
(0.00378191 0.00158617 0)
(2.632e-05 5.44183e-05 2.29809e-22)
(0.000164736 0.000142959 -5.88232e-22)
(0.0061082 0.00536069 -1.28057e-21)
(-0.000227625 0.000227045 7.5489e-22)
(0.000351954 0.000454368 9.00895e-22)
(5.73737e-06 1.65365e-05 -1.7505e-23)
(0.000349289 -0.000137941 0)
(4.92185e-05 -0.000103381 9.95002e-23)
(8.77938e-05 0.00010218 6.18151e-22)
(0.000206158 -5.65695e-05 0)
(1.16405e-05 5.47124e-06 0)
(2.33373e-05 -6.48789e-05 8.92077e-24)
(0.000917513 -0.00048584 3.45793e-22)
(-0.00145195 -0.000552167 -9.24507e-23)
(0.000387986 0.000310106 0)
(2.51792e-05 -6.23109e-05 0)
(3.64515e-05 -5.31988e-06 6.21111e-22)
(1.92403e-05 -3.44299e-05 0)
(-0.00222262 -0.000483024 1.0522e-22)
(1.04153e-05 3.57195e-05 2.78428e-22)
(1.45991e-06 -6.49625e-05 1.103e-22)
(-0.000982271 0.00127384 9.66639e-22)
(8.25316e-06 1.37214e-05 -1.90167e-22)
(8.25094e-06 0.000153976 -3.23595e-24)
(-0.00176619 -0.00054747 1.48787e-22)
(0.00391911 -0.00142515 -4.79093e-22)
(3.70227e-05 3.46799e-05 -2.95297e-22)
(-1.84481e-06 -8.73823e-07 8.85176e-22)
(1.27905e-05 8.57712e-06 0)
(9.32709e-05 -5.086e-05 -5.74851e-22)
(-0.00202551 -0.000500886 0)
(9.12034e-06 -1.4288e-06 1.38165e-23)
(0.000428739 0.00118899 0)
(0.0025428 -0.00158135 -6.16935e-22)
(0.000258444 6.81104e-05 0)
(0.000500027 -0.000372358 0)
(2.07916e-05 -0.000112268 -3.92635e-23)
(0.00166484 -0.00126632 -8.31633e-22)
(1.00375e-06 -4.32806e-07 2.36742e-22)
(0.00010059 -5.06236e-05 8.16448e-23)
(-0.00117496 -0.000746503 -1.12634e-22)
(4.232e-05 4.12398e-05 3.56302e-22)
(-0.0016058 8.60183e-05 1.00795e-21)
(3.64076e-05 6.63257e-05 -4.87907e-22)
(0.00349296 -0.00140035 8.66372e-22)
(0.000346023 -0.000155892 2.10029e-22)
(6.81253e-06 1.45631e-05 0)
(1.38348e-05 -1.65693e-05 6.2789e-23)
(-0.000867767 -0.00182653 2.72905e-23)
(1.11962e-05 2.56482e-05 0)
(1.07035e-05 4.65109e-06 0)
(-0.00469569 0.00231107 -1.87913e-22)
(0.00445289 -0.00170144 6.47829e-22)
(-0.00271649 -0.00158879 5.16539e-22)
(-1.34764e-06 -3.3915e-05 0)
(8.80766e-05 2.5281e-05 0)
(-0.0031219 -0.00431371 -2.26596e-21)
(-0.00102319 0.00261783 -1.16545e-22)
(-0.00216463 -9.12293e-05 1.51963e-22)