/*--------------------------------*- C++ -*----------------------------------*\
| =========                 |                                                 |
| \\      /  F ield         | OpenFOAM: The Open Source CFD Toolbox           |
|  \\    /   O peration     | Version:  v2012                                 |
|   \\  /    A nd           | Website:  www.openfoam.com                      |
|    \\/     M anipulation  |                                                 |
\*---------------------------------------------------------------------------*/
FoamFile
{
    version     2.0;
    format      ascii;
    class       surfaceScalarField;
    location    "400";
    object      ddtCorrDdt0(phi);
}
// * * * * * * * * * * * * * * * * * * * * * * * * * * * * * * * * * * * * * //

dimensions      [0 3 -2 0 0 0 0];
oriented        oriented;


internalField   nonuniform List<scalar> 
41582
(
-1.09943e-05
1.12397e-06
9.868e-06
-0.000101437
4.97662e-05
5.16671e-05
2.1062e-05
-7.76152e-06
-1.33004e-05
0.000210222
-4.9894e-05
-0.000160325
4.27039e-05
-2.34915e-05
-1.92086e-05
9.1662e-06
-9.47961e-06
3.12676e-07
4.97667e-05
9.96915e-05
-0.000149463
-2.73595e-05
3.02073e-06
2.43401e-05
-5.41798e-05
1.85033e-05
3.56745e-05
-3.71901e-05
-3.43628e-05
7.15537e-05
9.557e-06
-9.53508e-06
-2.26651e-08
1.17708e-05
-8.37048e-06
-3.40025e-06
0.000128563
-6.89252e-05
-5.96326e-05
-6.76261e-05
0.000179629
-0.000111997
0.000360222
-0.000198908
-0.000161324
-3.92392e-06
1.06816e-05
-6.75614e-06
0.000462192
-0.000188701
-0.000273504
-2.40533e-06
-8.98506e-06
1.13902e-05
6.41153e-05
7.8133e-05
-0.000142258
-1.82345e-05
1.60605e-05
2.17183e-06
8.96557e-05
-0.000157277
1.18632e-05
-7.84314e-06
-4.01974e-06
0.000315419
0.000146781
1.20185e-06
-1.21972e-05
2.01965e-06
-2.23819e-06
2.17763e-07
9.2457e-06
2.56516e-06
-1.18103e-05
4.73449e-06
-7.34786e-06
2.61255e-06
-2.10507e-06
6.7383e-06
0.000137065
7.31495e-05
4.02682e-05
4.38235e-05
-8.40932e-05
-7.22882e-06
-3.93829e-05
4.6611e-05
-7.30316e-06
9.09833e-06
-1.79462e-06
0.000415717
-0.000135168
-0.000280578
-1.75697e-05
-6.6516e-07
-4.83323e-05
0.000112441
-2.61632e-06
7.34903e-06
-3.50037e-06
6.99982e-07
2.79865e-06
2.34511e-06
2.37875e-06
-4.72455e-06
2.81333e-06
-5.49927e-06
2.68681e-06
-7.89343e-06
7.40091e-06
4.9158e-07
4.58583e-06
-2.70082e-06
-1.88606e-06
-5.98836e-06
-8.00687e-06
1.39958e-05
3.46002e-06
1.00243e-05
-1.34846e-05
0.00010584
6.65964e-05
-0.00017244
-0.000285002
0.00017774
0.000107263
1.80144e-06
6.35187e-08
-1.86487e-06
-1.69081e-08
-2.16624e-06
2.18244e-06
2.61301e-05
-3.41648e-05
8.035e-06
-1.09611e-05
1.34527e-07
1.08268e-05
3.90345e-06
-7.56235e-06
3.65931e-06
4.24048e-05
-1.62757e-05
-6.20158e-05
0.000167851
-0.00013114
0.000225438
-9.43059e-05
7.74383e-06
-4.9871e-06
-2.75539e-06
2.33406e-05
-0.000125305
0.000101969
-0.000157247
0.0001945
0.000124511
2.34384e-06
-0.000126853
-4.83824e-07
7.30533e-06
4.55779e-06
0.000103097
-0.000181823
7.87357e-05
-9.66301e-06
2.35964e-06
-2.01758e-05
1.48291e-06
1.86905e-05
-9.03902e-05
7.00531e-05
2.03372e-05
-2.45874e-05
0.000114322
-8.97396e-05
5.73047e-06
-7.08596e-06
1.35334e-06
-1.57353e-05
1.66615e-05
-9.23035e-07
4.26259e-05
-5.72477e-06
-3.69007e-05
0.000119604
-5.53786e-05
-6.42174e-05
-0.000191595
0.000171287
2.03071e-05
2.075e-05
-4.98683e-06
-1.57626e-05
5.0295e-06
7.64095e-06
-1.26685e-05
-4.37864e-05
8.40558e-05
-3.31104e-06
3.59595e-06
-2.84795e-07
-1.16793e-05
4.73229e-06
6.94685e-06
-8.09413e-06
1.6861e-05
-8.76965e-06
3.62168e-05
-1.87106e-05
-1.7506e-05
-0.000114329
2.11225e-05
9.32075e-05
-5.89001e-06
1.37409e-05
-7.85584e-06
-4.90689e-05
9.26082e-06
2.3112e-06
-1.15717e-05
7.59262e-06
-1.35802e-05
-1.49684e-07
-3.57587e-06
1.28218e-05
7.60134e-06
-3.69787e-06
6.3815e-05
6.39518e-06
-4.7216e-06
-1.6735e-06
1.10939e-07
-1.10716e-05
1.43565e-05
6.3931e-06
0.000111693
-0.000438201
0.000326571
-1.3375e-05
1.95125e-06
1.14191e-05
-3.27938e-06
-4.29265e-06
7.57163e-06
-0.00041304
7.27832e-05
0.000340255
-1.20395e-05
8.11583e-06
4.69991e-05
-5.42275e-05
-6.55258e-06
-1.08573e-05
1.74103e-05
1.97791e-05
2.26245e-05
-0.000282012
0.000300674
-1.86566e-05
7.98909e-06
-1.61375e-05
8.14785e-06
-8.76212e-06
4.27687e-06
4.48356e-06
-0.00010242
-0.00014948
0.000251907
-1.049e-05
6.24382e-06
4.2463e-06
2.20102e-06
-3.99554e-07
-8.02306e-05
5.39202e-05
2.63032e-05
1.26225e-05
-3.726e-06
5.4584e-06
-1.73277e-06
5.85396e-06
-3.73062e-06
-2.12299e-06
-7.74113e-06
9.88906e-06
-2.14343e-06
-2.36227e-05
2.43219e-05
-6.98639e-07
-1.18329e-05
-1.25088e-05
2.4342e-05
-6.12361e-05
2.40471e-05
-1.91744e-06
1.1063e-05
-9.14555e-06
1.46828e-05
-1.83157e-05
3.63031e-06
0.000192057
-8.03393e-05
0.000241317
-0.000278505
3.71956e-05
-0.000210866
0.000350001
-0.000139124
-0.000142423
-6.89806e-05
0.000118753
-5.60574e-06
3.92666e-06
1.6778e-06
-5.57877e-05
1.8962e-05
3.68184e-05
1.03829e-06
-5.93375e-07
-4.45818e-07
-0.000136697
0.000136872
-1.83395e-07
1.60079e-05
-5.99059e-05
4.38928e-05
3.64028e-05
-3.95222e-06
-3.24553e-05
-1.17356e-05
9.33023e-06
-1.19769e-05
-1.13849e-06
1.31149e-05
1.57575e-07
8.8058e-07
1.76255e-05
-2.94338e-06
-2.785e-07
-0.000207883
0.000208156
4.63256e-05
-0.000117969
7.16187e-05
-1.16359e-05
5.40369e-06
6.23244e-06
-7.34145e-06
2.35597e-06
-4.77731e-06
-1.2498e-06
6.02731e-06
3.33886e-06
3.05623e-06
4.06258e-06
1.6998e-05
0.000237407
-0.000232971
1.26219e-05
4.69764e-06
-1.12698e-07
-6.18168e-06
-5.49769e-06
-8.06437e-06
1.45796e-05
-6.51601e-06
-5.30762e-06
5.86302e-07
-0.000147707
0.000182385
-3.46889e-05
0.00018297
-7.98727e-05
1.06647e-05
-1.3267e-05
2.60117e-06
0.000200883
0.00015934
-2.12057e-05
-2.41658e-06
-1.31572e-07
-3.547e-07
2.79706e-06
9.19145e-06
-1.1989e-05
8.08568e-05
0.000104942
-0.0001858
2.33391e-06
-0.000139058
2.53595e-06
-4.88842e-07
-2.04817e-06
-4.58944e-06
4.67611e-06
-8.71307e-08
-1.08128e-05
4.9198e-06
0.000230313
-5.12286e-05
-0.000179112
0.000227014
-3.46083e-05
-5.57842e-05
-1.22908e-05
1.47607e-06
-4.97581e-06
2.39236e-06
2.58329e-06
-2.42e-06
3.35551e-06
-9.34626e-07
-6.62392e-06
-1.08774e-05
1.75027e-05
-7.72936e-06
8.5479e-06
-8.17396e-07
5.88926e-06
-3.07437e-06
7.04233e-05
-0.000107216
3.67876e-05
-0.000118346
4.01595e-06
-9.50464e-06
9.63978e-06
1.28675e-05
-1.17279e-07
-1.27505e-05
-9.08959e-06
1.09059e-05
-1.81754e-06
1.74592e-06
-8.22835e-05
2.41214e-07
8.20453e-05
-1.17429e-06
-3.80093e-06
-3.50671e-05
-6.63721e-05
0.000190379
-0.000199586
9.20679e-06
-3.35004e-06
9.31176e-07
0.000283203
3.22256e-05
3.43279e-06
-2.92431e-06
-5.08628e-07
5.73056e-06
-0.000176427
0.000195032
-1.85841e-05
-2.81443e-05
-1.62146e-05
4.43616e-05
-8.04125e-06
9.16359e-06
-6.9399e-06
9.73665e-06
-1.37931e-05
0.000117302
-0.000103522
-3.3665e-06
2.77634e-06
5.9161e-07
3.52996e-05
7.32593e-06
3.29477e-06
1.3794e-07
0.000131866
-1.36528e-05
-0.000118216
0.000307888
-6.65646e-05
-3.9781e-05
0.00011118
-9.48837e-05
-1.62868e-05
-3.12543e-06
-1.21927e-06
4.34443e-06
-1.42805e-05
1.48381e-05
-5.59458e-07
-1.80029e-05
1.00398e-05
7.96207e-06
-8.41337e-06
-1.71975e-06
1.01322e-05
0.000347956
-0.00021389
-0.000134064
-4.94577e-06
1.82022e-06
-2.27376e-06
1.95195e-06
3.21572e-07
1.43533e-06
-4.74652e-06
2.48253e-05
-0.000169213
0.000144379
6.93919e-06
4.8319e-06
1.18522e-05
1.18749e-05
-2.37289e-05
6.18358e-06
-2.27314e-05
0.000122422
-1.05814e-05
-3.3574e-05
4.41601e-05
-0.00010792
-9.77167e-05
0.00020565
-6.80201e-06
-1.39775e-05
2.07765e-05
3.90062e-05
-0.000452045
-2.06918e-06
2.05149e-06
-5.05388e-07
-1.52315e-05
0.000121233
-0.000171799
5.05647e-05
1.42957e-05
-4.33492e-06
-9.96099e-06
-2.59918e-05
7.95516e-06
-9.24269e-05
0.000209422
-0.000116996
-8.41244e-05
7.8346e-05
5.90996e-06
3.39651e-06
-1.14396e-05
0.000140777
-0.000243195
1.35562e-05
4.06834e-06
4.96983e-05
1.44111e-05
-6.41063e-05
3.47401e-06
1.63042e-06
-5.10448e-06
-0.000193133
1.67034e-05
-0.000141754
7.27662e-05
2.33284e-05
-4.67908e-05
2.34592e-05
1.55904e-05
-2.56348e-05
1.00424e-05
7.26605e-05
9.61957e-05
-0.000168856
-0.000356346
0.000106245
0.000250072
-2.94995e-05
-3.39012e-05
6.34011e-05
-1.68165e-05
1.80224e-05
-1.2061e-06
-7.92699e-06
1.52862e-05
-7.36427e-06
3.66517e-06
-1.31969e-06
-1.01424e-05
-1.68161e-05
2.69632e-05
-4.28388e-06
1.21566e-05
-7.87412e-06
-8.93526e-05
0.000112689
9.36933e-07
-1.04408e-05
-0.000110926
-0.000210973
-3.10927e-06
-2.19783e-06
-3.4816e-05
-4.54162e-05
-9.70694e-06
-2.58524e-06
-1.10434e-08
8.82351e-06
-1.52699e-05
6.44675e-06
-9.79953e-05
0.00022987
1.52299e-06
7.645e-06
-0.000429113
1.91709e-05
0.00040996
6.71924e-06
-3.91965e-06
-2.80008e-06
3.35759e-06
1.67397e-05
-2.00982e-05
-1.33959e-05
0.000203783
-0.000563593
-0.000225164
0.000788775
-4.25166e-05
-1.73949e-05
1.8198e-05
-2.11589e-05
2.9608e-06
-1.88006e-05
1.36131e-05
5.18746e-06
-2.69634e-05
0.000213235
-0.000186268
-4.01373e-06
9.38223e-05
3.4746e-05
8.02532e-05
0.000150055
1.29078e-05
6.20732e-07
-1.35277e-05
4.03539e-05
-4.9396e-06
-3.54111e-05
-8.67288e-05
0.000220909
-0.00013416
-6.3878e-06
-4.10244e-06
4.78357e-06
-4.26399e-06
-5.20495e-07
-9.96004e-06
1.76001e-05
-7.63977e-06
1.35831e-05
2.67728e-05
-9.3622e-06
2.71248e-07
-7.75282e-05
-7.09485e-05
0.000148448
0.0001543
6.57438e-05
-0.000220039
4.12513e-05
-9.23767e-05
5.11257e-05
7.06132e-06
-1.03971e-05
3.33511e-06
3.93092e-06
-3.34879e-07
4.72072e-06
1.12488e-06
-5.84505e-06
-2.80202e-06
6.10989e-06
-3.30987e-06
-0.000223343
0.000136649
-3.33649e-06
9.12093e-07
2.42506e-06
1.24213e-05
-1.43386e-05
2.42671e-05
8.69152e-05
-1.76752e-06
-3.0216e-07
2.81567e-06
-6.15976e-06
3.34445e-06
4.65091e-06
-9.42819e-06
-6.46531e-06
-7.43441e-05
8.0802e-05
-2.63096e-06
-1.07451e-05
1.33365e-05
-1.90323e-05
5.69661e-06
0.000159088
-4.56354e-05
-0.000113472
-7.94081e-06
2.12677e-07
0.000153517
-0.000141419
0.000255853
-0.000114432
0.000112376
-0.000132
1.96166e-05
-0.000101555
-0.000254795
-0.000254541
0.000254266
3.42659e-06
7.25385e-06
3.99149e-05
-0.000212843
0.000172927
-1.52515e-05
7.18684e-06
1.27762e-05
-6.36352e-06
-6.41227e-06
2.80439e-05
3.75601e-05
-6.55935e-05
1.4948e-05
-1.88447e-05
3.89472e-06
-0.000111051
-0.000318055
8.67576e-05
-4.55096e-05
-0.000127259
-4.67354e-05
0.00017399
1.98116e-06
3.0125e-06
-4.08616e-06
1.07243e-06
-7.11285e-05
3.17448e-05
2.03172e-05
-9.46125e-06
-1.08553e-05
-3.44597e-06
3.27057e-06
1.75426e-07
1.08772e-06
-9.5017e-06
-3.68248e-05
9.8567e-05
-6.17413e-05
-7.61724e-05
4.66716e-05
-2.8149e-06
8.26256e-06
-5.44857e-06
0.000273498
-0.000274394
8.89536e-07
2.32384e-06
7.90956e-06
-1.02344e-05
8.22077e-06
1.33751e-06
1.15451e-05
-8.08511e-06
7.77079e-05
-0.000204972
0.000196721
-5.96553e-05
5.29998e-06
-1.82573e-06
-0.000103145
-3.67045e-06
-1.93642e-06
0.000180858
-3.15159e-05
-0.000149336
8.97641e-05
-0.000114353
-0.000145093
0.000169908
0.000144085
-4.65759e-05
-9.75112e-05
-3.36839e-06
0.000139931
4.30504e-05
-4.26339e-06
8.17125e-07
3.71256e-07
2.16414e-06
1.57302e-06
-4.68168e-06
2.37192e-05
-4.18294e-06
-1.95382e-05
4.59099e-05
-3.34434e-05
-1.24689e-05
-0.000290645
8.63722e-06
3.10581e-06
-1.65174e-06
-1.45391e-06
1.16802e-05
-9.99894e-07
-2.90071e-06
-5.19806e-06
8.09954e-06
-0.000196111
0.000234124
-3.80145e-05
9.9068e-06
6.68154e-06
-1.65874e-05
5.33669e-06
-9.33065e-06
3.99451e-06
-5.75791e-05
3.67968e-05
2.07824e-05
-2.11179e-05
1.17847e-05
9.331e-06
4.7979e-05
-2.46538e-05
-4.90934e-07
3.50318e-06
1.30934e-05
0.000101104
-0.000114242
-4.30004e-07
1.5009e-05
-0.000177161
0.000217073
-7.65637e-06
0.000120034
-3.5219e-05
3.48836e-05
-6.94927e-05
0.000272104
1.38844e-06
-3.45186e-05
-3.66112e-05
4.59314e-06
-1.45533e-05
1.05682e-05
3.72715e-06
-6.65268e-06
5.63522e-05
8.72727e-07
1.91407e-05
-2.00128e-05
3.10493e-05
1.48639e-05
-2.02176e-05
3.01914e-05
-9.97585e-06
-7.43768e-05
2.48365e-05
4.95489e-05
-5.02737e-06
8.62638e-06
1.09537e-05
-1.95823e-05
-8.71251e-06
5.80006e-06
2.90846e-06
2.38459e-05
-2.63875e-05
-4.38833e-05
7.1931e-05
-2.05912e-05
-0.000130395
0.000150986
6.62177e-05
-0.000240182
0.000174001
2.33444e-05
-1.14937e-05
6.3466e-05
-0.000297799
0.000234336
-3.03788e-06
3.94335e-05
1.93373e-05
-5.34677e-06
-1.39923e-05
-7.90144e-06
5.08609e-06
-4.31756e-05
-0.000126038
-8.57743e-05
-1.36469e-05
9.94118e-05
3.17799e-05
9.2733e-05
-4.11041e-06
1.03731e-05
-6.26252e-06
1.87083e-05
-1.97143e-05
1.00672e-06
5.93397e-05
-3.63039e-05
-2.12751e-05
-9.18422e-06
9.22833e-06
-4.37722e-08
2.33797e-05
-4.17012e-05
1.83211e-05
-2.57174e-06
-6.1421e-06
-1.52283e-05
1.48796e-05
3.48718e-07
1.73806e-06
4.3696e-06
-1.93701e-05
1.13628e-05
0.000169524
-0.000306203
0.000136707
1.05513e-06
-8.0916e-06
7.03576e-06
6.963e-06
-1.08092e-05
3.84497e-06
5.68466e-05
-4.81727e-05
-8.6834e-06
3.82869e-06
1.3401e-05
-1.72269e-05
3.96335e-06
-2.91067e-06
-1.05201e-06
8.87174e-06
3.12054e-06
-1.1994e-05
-8.3353e-05
-6.44998e-05
0.000147855
-4.44379e-06
-0.000232591
-1.23969e-05
0.000244991
1.3226e-05
-3.96494e-06
-0.000209853
0.00018289
-5.89167e-05
2.26136e-05
7.10162e-06
-4.39662e-06
-2.70458e-06
-2.55831e-05
2.01874e-05
5.39597e-06
0.000113157
-6.68214e-05
-1.25929e-06
2.44936e-06
-1.19003e-06
-0.000258968
0.000102994
0.000155998
-2.58203e-05
6.12733e-05
-3.54524e-05
0.000233543
-0.000205937
3.02935e-05
-7.28824e-06
-2.30064e-05
-2.0358e-05
-5.22676e-06
8.11759e-06
-4.59346e-06
-3.52617e-06
5.42823e-06
4.25109e-07
-6.66661e-05
2.44407e-05
4.22243e-05
9.61412e-05
-7.27547e-05
-9.7132e-05
0.000249924
-0.000152782
-1.12096e-05
1.51648e-05
-3.9553e-06
0.000127087
-0.000205382
7.82966e-05
3.63616e-05
0.000107714
-1.09963e-06
-9.61857e-06
1.07131e-05
-1.8502e-05
8.4497e-07
1.76562e-05
5.70129e-06
-6.78404e-06
1.08044e-06
0.000109968
8.67624e-05
9.11821e-06
-7.33596e-06
-1.78413e-06
3.16304e-05
-4.22095e-05
1.95e-05
-1.30268e-06
6.76169e-05
-2.49047e-05
-4.27045e-05
-1.61619e-05
2.35882e-06
1.38013e-05
1.81909e-06
2.93531e-06
-4.7544e-06
2.89176e-05
4.50088e-07
-2.93674e-05
4.83578e-07
-9.66762e-06
-1.51769e-05
4.25483e-05
-2.73681e-05
4.50833e-06
-7.4068e-06
-8.175e-05
7.71844e-05
4.56883e-06
-2.41921e-07
4.58346e-06
-4.34174e-06
5.27813e-05
6.68297e-05
-1.25423e-05
-2.68696e-06
3.29032e-06
3.42927e-06
0.000187616
-4.76861e-05
9.95042e-05
-3.02171e-05
-6.9288e-05
1.82048e-05
3.86377e-05
-0.000117891
-1.41168e-05
-1.31889e-05
-7.47602e-06
2.0668e-05
1.06511e-05
-4.47763e-06
-6.17335e-06
-1.56975e-05
-4.6432e-07
-1.02409e-05
6.13039e-06
-9.52284e-06
1.78248e-06
1.5129e-05
-1.95196e-05
4.39041e-06
8.72774e-06
-1.26723e-05
3.94386e-06
9.78139e-06
-1.08854e-05
-3.6607e-05
-2.23095e-05
-6.89525e-05
-1.27953e-05
-0.000159982
-7.8683e-05
0.000238674
1.3792e-05
-5.06379e-06
-1.84614e-05
2.66937e-06
1.57923e-05
-6.81978e-05
0.000314423
-0.000246224
3.00484e-06
-6.62086e-06
3.61623e-06
0.000118257
-3.93935e-06
1.29648e-06
-8.74142e-06
7.44531e-06
-1.2232e-05
1.34934e-05
-1.26135e-06
-0.000163464
-9.54924e-05
0.000196151
-9.99909e-05
-9.61597e-05
-4.39723e-06
4.15536e-06
9.47368e-05
-2.20997e-05
-7.26345e-05
-4.41141e-05
2.89405e-05
-3.94349e-05
0.000135632
4.99198e-06
7.91545e-06
-1.2906e-05
6.15123e-06
1.94076e-06
-8.09447e-06
-2.2706e-07
1.08908e-05
1.87501e-05
-1.07613e-05
-1.36511e-06
1.42737e-05
-2.69606e-05
9.30026e-06
1.76605e-05
-2.83272e-07
-2.29246e-05
2.32085e-05
9.95108e-06
-6.49854e-06
-3.45231e-06
1.45923e-06
-1.34214e-05
5.34121e-06
8.0798e-06
-7.14962e-06
8.20416e-06
0.00011066
-0.000131253
-0.00011751
3.34965e-05
5.2843e-06
-3.02539e-06
-2.25899e-06
-0.00020043
-6.74021e-05
0.000267813
-3.49742e-05
1.48597e-05
2.01107e-05
5.58995e-05
-6.23695e-05
-1.49265e-05
-2.00505e-05
-1.76427e-05
-9.427e-05
0.00011203
-0.000160992
7.79661e-05
8.30206e-05
-1.52285e-05
3.90634e-06
1.13224e-05
1.84461e-05
2.42587e-05
-0.000162531
7.34791e-05
8.90516e-05
-1.4861e-06
4.74793e-06
-3.26281e-06
8.28228e-05
-0.000224242
-1.555e-07
-5.94673e-07
7.5075e-07
-4.76073e-06
4.76064e-06
-8.63278e-05
-6.55217e-05
0.000151847
5.51567e-05
4.4347e-05
0.000102683
-8.95559e-05
-3.71589e-06
2.6835e-05
2.98461e-06
-2.98198e-05
-1.1975e-05
-5.46934e-05
1.27022e-05
2.35165e-05
-2.30871e-06
0.000103385
8.62987e-05
-0.000220783
0.000134486
-7.81179e-06
1.49386e-05
-7.12575e-06
-2.29663e-08
4.74425e-06
4.33017e-06
6.44224e-06
-1.07732e-05
5.44733e-06
4.50357e-06
-4.09853e-06
3.09325e-05
-1.79565e-05
1.49294e-05
3.02777e-06
1.39746e-05
-5.74212e-06
-8.23239e-06
-1.77399e-05
1.06242e-05
7.11559e-06
-3.28603e-05
-0.000177996
-1.40361e-05
1.18477e-05
2.1887e-06
-6.92484e-06
-1.24458e-05
2.30684e-05
7.22389e-06
5.70103e-06
-1.53911e-05
1.75454e-05
-2.15005e-06
-0.000105741
-6.92161e-05
0.000174955
1.44872e-05
-6.9483e-07
7.22378e-06
-6.73889e-06
-4.80409e-07
1.68625e-05
-8.97994e-06
-7.88234e-06
0.000133911
-3.73237e-05
-9.65645e-05
-0.000162325
0.000230655
-6.8329e-05
0.000136641
-0.000135035
-1.60625e-06
0.000107526
0.000169682
-0.000277211
4.58851e-06
-2.07202e-05
1.61288e-05
-1.51209e-06
-1.82392e-06
-6.53094e-05
-7.98861e-05
0.000145194
3.18019e-06
7.83376e-07
9.86572e-07
-8.29621e-07
7.47411e-06
2.48716e-06
-9.96083e-06
-1.64087e-05
2.09979e-05
-9.87801e-06
-2.6104e-06
1.24883e-05
-9.46849e-05
-9.69106e-05
-4.42918e-05
-3.00837e-05
6.73133e-06
-1.17132e-05
4.97902e-06
-1.17178e-07
-0.000198901
-3.36909e-05
-1.78169e-05
-4.24397e-06
2.20607e-05
7.03265e-06
-1.88647e-05
8.48973e-06
-3.06548e-06
-5.42442e-06
2.21106e-05
-2.14077e-05
-7.04116e-07
-0.000195127
4.91636e-07
2.84242e-05
-7.68554e-07
1.12821e-05
-1.05141e-05
-0.000185329
5.41819e-05
-9.84397e-06
-1.11868e-06
1.09616e-05
3.48405e-06
-1.27389e-05
9.25501e-06
-3.08072e-06
1.01419e-05
-3.56259e-07
1.33724e-05
-6.06706e-06
-3.98196e-06
8.63296e-06
2.05504e-05
-2.28769e-05
2.32542e-06
1.65822e-05
-1.27542e-05
6.65764e-06
5.01402e-06
-1.16721e-05
4.31339e-07
7.20902e-09
-4.40716e-07
5.88924e-05
-0.000236051
0.000104031
2.98657e-05
-2.08766e-05
8.36676e-06
1.45543e-06
-1.15675e-06
-2.98906e-07
5.71096e-06
-8.06391e-06
2.35338e-06
5.18659e-06
3.30305e-06
-2.91975e-05
2.25588e-05
6.64254e-06
-3.61011e-06
-9.79642e-07
1.2024e-05
-6.01596e-06
-6.0094e-06
1.21628e-05
2.3242e-06
1.40466e-05
-6.84794e-06
-7.2008e-06
-0.000298538
-5.65808e-05
0.000355123
9.12983e-07
-4.63919e-06
-0.000305489
0.000237291
-0.000115853
-8.92709e-05
0.000205127
0.000113201
0.000234758
1.05268e-05
-1.24449e-05
1.91802e-06
-0.000253806
9.3827e-05
0.000354943
-9.84753e-05
-0.000256461
3.7835e-06
-6.34789e-07
-3.14915e-06
8.58988e-07
-3.07254e-06
2.21408e-06
-0.000122399
0.000204021
-8.16403e-05
-7.39456e-06
1.17248e-05
-1.44351e-05
-6.68365e-06
1.95968e-06
2.34835e-06
-4.30741e-06
0.000698533
-0.00126212
-8.77997e-06
3.7605e-06
5.02516e-06
-0.000246089
4.99734e-05
-2.37919e-06
1.1195e-06
-4.23535e-07
2.41558e-05
-2.37319e-05
-0.000173839
0.000280107
-0.00013362
5.01612e-05
8.34561e-05
-8.66674e-06
-5.36946e-06
3.56374e-06
-6.84353e-06
2.58313e-06
-2.30137e-06
-2.82065e-07
5.18046e-06
-3.88855e-06
-1.29174e-06
-0.000113021
1.7419e-05
9.56045e-05
4.93832e-06
-9.90772e-06
4.96814e-06
-1.66991e-06
2.03777e-05
-0.00011795
0.000110292
-0.00019679
0.00033757
0.000129182
-9.50451e-05
-3.41319e-05
7.04511e-06
9.81678e-06
0.000197218
-7.01351e-05
9.10171e-05
-0.000264844
6.09112e-06
3.07163e-06
-9.16197e-06
-3.68821e-06
-5.07467e-06
-5.79031e-05
-0.000146699
0.000204614
-1.7806e-05
-2.37136e-06
-9.07423e-06
-4.57257e-06
1.36462e-05
7.51624e-05
-0.000140466
-0.0001821
0.000138929
2.4592e-05
-1.25055e-05
1.95393e-05
7.61155e-06
5.76074e-06
1.61686e-06
2.3143e-06
3.7888e-05
-4.087e-05
-0.000143128
0.000168242
1.48712e-05
-5.43044e-06
-9.44568e-06
4.8103e-06
0.000245132
5.78531e-05
7.71943e-05
-0.000135107
4.3513e-05
-4.20446e-05
-1.46731e-06
1.27112e-06
0.000115959
0.000172811
-0.00028878
0.000122565
-6.21136e-05
-6.04565e-05
-8.43897e-06
2.65836e-05
-1.81351e-05
2.62676e-05
-1.59428e-05
-1.03228e-05
-0.000228414
0.000250393
-2.19811e-05
1.26334e-05
-9.50212e-07
-5.99683e-06
6.94825e-06
-8.19365e-07
-5.86785e-06
6.68718e-06
-1.27775e-05
8.9436e-06
3.83302e-06
-8.13526e-05
8.16128e-05
-2.50244e-07
-8.8644e-06
5.79906e-06
-5.43319e-07
2.90447e-06
-2.35955e-06
-3.35482e-06
1.80695e-06
1.54774e-06
3.22943e-05
-1.95925e-05
2.95073e-05
6.10847e-05
-9.05905e-05
9.80148e-05
-0.000352556
-1.23853e-06
-8.13404e-06
9.37338e-06
-3.15986e-06
-4.25614e-06
7.41563e-06
-2.6424e-06
-9.47643e-07
3.58989e-06
-1.71891e-05
1.06364e-05
8.95465e-06
-1.41565e-05
5.1994e-06
3.07113e-06
0.000133569
-2.58959e-05
8.37175e-05
-9.84171e-05
0.000205945
-1.41638e-05
1.93179e-06
4.55565e-05
-0.000344102
1.78654e-05
-1.8054e-06
-4.02779e-06
4.15416e-06
-1.25332e-07
-4.57183e-05
-3.14033e-05
7.71235e-05
1.39993e-05
3.54687e-06
7.3145e-08
2.50972e-06
-6.44839e-05
7.65908e-05
-1.21047e-05
-5.6234e-06
1.69638e-05
-1.134e-05
-0.000114782
4.14964e-05
7.32965e-05
3.80311e-05
-2.9975e-05
-8.05531e-06
3.26393e-06
-5.01103e-06
1.74639e-06
0.000223502
-0.000164615
-0.000121547
1.83702e-05
0.000103134
2.93597e-05
-3.09896e-05
1.62971e-06
-3.85547e-06
-3.23163e-06
1.50835e-05
-7.29553e-07
-1.43539e-05
-8.9878e-07
1.53768e-06
-6.37405e-07
8.23976e-05
-3.17744e-05
-5.06244e-05
0.000237898
-5.8497e-05
-0.000179415
-5.19674e-05
2.93601e-05
2.26136e-05
9.28057e-05
-0.000289594
-4.35343e-06
6.73352e-06
-1.91955e-05
1.22337e-06
-1.11942e-06
-1.03872e-07
-0.000218706
0.00014392
7.47872e-05
7.26968e-06
4.75423e-06
-3.1769e-07
-9.52651e-06
-8.87082e-07
-9.43706e-06
1.03253e-05
-1.122e-05
1.1332e-05
5.55315e-06
-8.78345e-05
1.55798e-05
2.28529e-06
-1.5398e-05
7.58757e-06
-1.9524e-08
-1.65616e-05
1.65745e-05
-1.9212e-06
-1.33069e-05
0.000100283
2.89026e-05
4.38314e-06
3.09721e-06
-7.48103e-06
2.28167e-06
-1.53581e-05
1.30762e-05
2.08891e-05
-0.000106642
9.38689e-06
1.09311e-05
5.82071e-06
-1.37509e-05
-8.93185e-06
2.99543e-06
5.93667e-06
1.5046e-06
-1.27239e-05
0.000253372
-2.66959e-06
-5.23219e-06
4.67677e-06
-8.47003e-06
3.79354e-06
-3.09058e-06
2.54826e-06
-2.27553e-06
1.78599e-06
5.9508e-05
0.000121355
-8.25538e-07
8.67442e-07
-4.17124e-08
2.76796e-06
2.16975e-06
-4.93656e-06
-5.7784e-05
0.000137918
-8.01353e-05
-1.43641e-05
8.74073e-06
1.04761e-05
-1.13636e-05
-6.61645e-05
1.86041e-06
6.43054e-05
4.55826e-06
1.3877e-07
-1.00028e-06
0.000263278
-0.000199811
0.000264549
-0.000276942
0.000359579
-0.000296397
-6.31849e-05
1.87101e-06
2.19612e-06
-4.06716e-06
8.72541e-06
2.35734e-05
3.56144e-05
-2.07537e-05
1.02673e-06
3.57905e-06
-4.60577e-06
-7.47783e-06
-3.29399e-07
7.80764e-06
1.18922e-05
-4.00355e-05
-5.38771e-06
-7.39014e-06
2.0546e-05
-2.08294e-05
-3.20633e-06
-2.948e-07
1.33975e-05
-5.26839e-06
-8.12974e-06
-0.000227808
0.000166536
6.12684e-05
-7.62201e-06
9.38425e-05
-6.50428e-05
-2.88003e-05
-6.25942e-05
3.67763e-05
-2.43178e-05
4.0992e-06
-4.90258e-06
9.83982e-06
9.6962e-07
-7.33562e-05
8.87353e-06
-4.86679e-06
1.05726e-05
-5.70336e-06
1.67063e-05
9.80099e-06
-2.65071e-05
-2.59599e-05
1.90062e-05
6.95598e-06
-7.73277e-06
5.06269e-06
-0.000250679
0.000325853
-7.51808e-05
9.13468e-06
3.49104e-06
-1.26281e-05
8.18231e-06
-9.89183e-06
1.71123e-06
-1.74281e-05
1.15713e-05
5.85549e-06
-6.98323e-07
-1.2786e-07
4.82197e-05
-1.05584e-05
-1.17498e-06
0.000155471
7.77559e-05
-0.000183498
6.27119e-05
3.97701e-06
-6.669e-05
-9.05139e-07
-9.01011e-06
2.73867e-06
9.55993e-07
-3.69378e-06
2.55436e-06
2.7306e-06
-1.85012e-05
1.99464e-05
-1.4447e-06
-5.15488e-06
5.1543e-06
3.30926e-05
-6.70167e-06
3.62752e-06
3.07383e-06
-3.78085e-06
1.77805e-05
-2.17358e-06
1.38706e-05
-1.16989e-05
1.38347e-05
-4.88207e-06
-1.74429e-05
1.45752e-05
2.86753e-06
-5.68927e-05
8.64009e-05
5.27533e-05
7.67693e-05
-0.000129548
6.92268e-06
-2.54016e-06
-2.45559e-06
-3.76709e-06
6.2221e-06
4.21939e-06
-5.03885e-06
2.67701e-05
3.32417e-05
-6.00107e-05
-2.33481e-05
2.28972e-05
-3.75367e-06
-2.11299e-05
-7.63133e-06
2.87652e-05
5.70698e-06
-7.90643e-06
2.19887e-06
4.22945e-06
-3.5564e-06
-6.73193e-07
0.00020486
-4.81046e-05
-0.000156738
0.000191871
-0.000285319
9.34392e-05
-1.53267e-05
4.1234e-06
1.12014e-05
1.72282e-05
1.83862e-05
-0.000259272
0.000357285
1.59123e-06
-3.68032e-07
1.14078e-05
-8.41875e-06
-2.9887e-06
-0.000285046
0.00027787
7.18325e-06
-5.21317e-06
1.39202e-05
-8.7113e-06
-4.41528e-06
-2.46023e-05
2.90258e-05
-1.10163e-06
2.12823e-06
-3.35109e-07
-4.89369e-06
5.22742e-06
5.41858e-05
-7.53919e-06
-4.66448e-05
4.47592e-06
8.10285e-05
-8.54998e-05
-2.12164e-05
2.7154e-06
-8.83623e-06
1.66757e-05
-7.84134e-06
-1.97742e-06
1.65614e-05
-1.45843e-05
-2.27635e-05
9.57648e-06
1.20927e-05
-5.36405e-06
7.2644e-05
-9.9309e-06
2.79436e-05
-3.6376e-05
5.52066e-06
-5.85568e-06
-5.13246e-05
-1.48398e-05
1.83224e-06
1.87028e-07
-0.00013486
-9.29462e-05
1.00731e-05
1.49693e-05
-1.69471e-05
-0.000394445
-2.76667e-05
3.08648e-07
5.29284e-05
-3.8518e-05
-4.77973e-06
4.27672e-06
5.02783e-07
-4.33893e-05
3.12051e-05
1.2184e-05
-2.5136e-06
-2.09581e-05
9.05635e-06
1.19046e-05
-1.7295e-05
-5.13802e-07
-4.25283e-06
-1.44434e-07
-1.14649e-05
7.18078e-06
2.4795e-05
6.90465e-05
3.98222e-06
4.99368e-05
-2.61259e-05
-2.58396e-05
7.81454e-06
-1.3212e-07
-7.68408e-06
-5.26974e-06
6.79135e-06
-1.52266e-06
-7.30596e-06
-3.61268e-07
7.66655e-06
6.19406e-05
-9.96729e-05
3.77332e-05
-3.63633e-06
9.15045e-06
-5.51307e-06
-2.02557e-05
3.43917e-06
-7.76443e-05
8.21223e-05
3.74292e-06
-5.66507e-06
1.9215e-06
9.35558e-07
2.29114e-05
-2.78099e-05
-5.21111e-05
7.99218e-05
2.30744e-05
-0.000170785
-9.25647e-06
8.15889e-06
1.09453e-06
6.10113e-07
1.72706e-07
-7.83946e-07
-2.33298e-06
4.1521e-06
-1.31424e-05
7.92751e-06
-8.21731e-05
5.43643e-05
3.84611e-06
-1.46193e-06
-2.38331e-06
-8.98701e-05
5.9652e-05
-8.87472e-05
-2.8229e-05
7.1026e-06
4.28385e-05
2.4782e-05
-1.5806e-05
6.96745e-06
-0.000103705
-5.88242e-05
3.35421e-07
9.33918e-08
1.95387e-06
7.0852e-06
-9.04177e-06
3.95139e-05
7.3744e-06
-4.68833e-05
2.1887e-06
8.3613e-06
-1.05495e-05
-9.95478e-06
9.66916e-05
-8.67592e-05
-8.27109e-07
1.16382e-05
-1.08105e-05
0.000152457
-0.000131736
-2.07131e-05
-3.18361e-05
-1.15526e-05
-2.97609e-06
-1.80439e-06
3.24626e-06
3.85482e-06
4.02501e-05
-5.77904e-05
-3.25421e-06
6.81744e-06
-2.19981e-06
4.30993e-07
0.000209597
-6.99201e-05
-0.000139677
-0.000287736
8.72964e-05
-0.000148335
7.30964e-05
7.5238e-05
-1.09629e-05
1.09827e-05
-1.85621e-08
1.17708e-05
-2.67877e-06
-9.09311e-06
-0.000248628
0.000253443
6.76788e-05
-0.000147843
8.01641e-05
3.07118e-05
-0.000107089
7.63761e-05
-1.14543e-05
6.14134e-05
-4.99609e-05
-7.40395e-06
2.41098e-05
-1.11239e-05
-6.30492e-06
-1.15341e-05
2.46049e-06
4.33173e-06
2.76141e-05
-3.19438e-05
-1.75275e-05
0.000293473
-2.8922e-05
-1.79356e-05
1.44156e-05
3.5199e-06
-0.000143469
8.54739e-05
5.79956e-05
2.07574e-05
-3.20807e-06
-1.75475e-05
7.45745e-05
-4.154e-06
-0.000206959
0.000187439
1.95239e-05
-6.97705e-06
3.81679e-06
0.000132318
2.67454e-05
0.000116244
6.37287e-05
-0.000179976
-0.000330757
0.000167321
2.39586e-06
3.18373e-05
-2.47918e-06
1.20165e-05
-1.17918e-05
-2.2343e-07
-3.24316e-06
-6.48879e-06
9.73137e-06
1.15868e-05
-1.8391e-05
1.20298e-05
-1.2309e-08
-1.67804e-05
2.99679e-05
-1.31874e-05
-4.95983e-05
3.82211e-05
1.13801e-05
-2.48078e-06
2.41525e-06
6.60856e-08
-6.50924e-06
-5.88235e-07
7.09674e-06
9.4874e-06
1.46691e-05
-1.1595e-05
-3.07481e-06
-8.55052e-06
-3.48908e-06
-5.96177e-06
8.68317e-06
-2.72118e-06
-0.000152045
0.00010648
4.55539e-05
0.000193955
-0.00022834
9.34844e-05
7.22631e-06
-1.37507e-05
6.52339e-06
-1.33322e-05
1.11572e-05
8.39249e-05
-0.000176352
-1.4013e-05
1.17287e-05
2.28315e-06
0.000186662
0.000188189
-5.43333e-05
-0.000133854
5.72992e-05
-0.000200426
-0.000260407
1.30721e-05
-3.04812e-06
-2.5929e-05
2.41392e-05
1.78654e-06
-1.50344e-05
8.66753e-06
6.37333e-06
6.21936e-05
0.000109431
-0.00017163
-1.58387e-05
1.21337e-05
3.70411e-06
-4.68403e-07
-8.34437e-06
8.81021e-06
1.64744e-05
-1.04618e-05
-6.01306e-06
0.000146368
6.83073e-06
1.97377e-06
-8.80263e-06
-0.00013982
7.02636e-05
6.95581e-05
-9.38108e-05
-6.52053e-05
0.000159011
-1.80324e-05
1.33782e-05
4.65323e-06
-1.00881e-05
-1.89964e-05
1.40868e-05
4.91125e-06
-0.000112095
-0.000116246
-1.30777e-05
6.99978e-06
6.07741e-06
-3.2679e-06
3.68111e-06
-4.12947e-07
3.33947e-06
-4.82623e-06
-4.27072e-06
-0.000131083
0.000173376
-4.22962e-05
-2.34351e-07
8.4395e-07
-5.97949e-06
-2.8851e-06
-3.85153e-06
-2.85001e-06
-7.13102e-06
6.21556e-07
2.16503e-05
7.83118e-05
-9.99604e-05
7.3709e-06
-4.35711e-06
-3.01399e-06
-4.39838e-06
-1.89037e-07
4.58852e-06
2.7881e-06
4.58227e-06
-2.92759e-06
-1.06362e-05
1.35632e-05
8.4115e-06
-9.23852e-06
0.000184907
-0.000295724
-2.87304e-06
6.81926e-06
-3.94765e-06
5.02103e-06
-3.53875e-06
-1.48385e-06
-5.84561e-05
4.0361e-05
1.80997e-05
-1.10889e-05
-2.30695e-05
-2.38184e-06
1.03405e-05
-2.06489e-05
-5.31009e-06
-0.000149525
3.49982e-05
0.000114523
-9.22233e-06
1.14116e-05
3.28546e-06
-9.24694e-06
-1.71944e-05
7.76098e-06
9.43437e-06
1.26862e-05
-5.46016e-06
4.36864e-05
-8.79845e-05
8.41047e-05
3.87432e-06
-2.10264e-05
1.66159e-05
-6.18273e-06
5.72722e-05
0.000206006
-9.68174e-07
-8.90751e-06
9.87596e-06
5.55423e-06
-2.46985e-06
-3.08505e-06
5.81243e-05
-3.85763e-05
-1.95486e-05
5.71879e-05
-8.37892e-05
2.65998e-05
-0.00014626
5.20921e-05
9.41573e-05
1.71302e-06
-4.9812e-06
3.12678e-05
1.67078e-05
-7.92354e-06
-1.3327e-06
-5.69771e-06
-2.72808e-06
8.42284e-06
1.6542e-06
-3.08626e-06
1.43303e-06
0.000163568
8.96307e-05
-0.000253201
-4.24362e-06
2.2911e-07
4.01444e-06
-1.56172e-05
0.000247098
-0.000189823
2.57184e-06
-5.63835e-06
3.06626e-06
-4.65282e-05
3.98777e-05
8.25791e-06
7.2009e-06
-1.54591e-05
-1.04707e-05
-1.50673e-06
-1.49012e-05
3.33643e-05
-1.8471e-05
6.43508e-05
-3.75785e-05
9.82548e-06
-0.000103826
9.39994e-05
-1.09539e-05
-3.86428e-05
1.18208e-05
-9.25513e-06
-3.7536e-06
1.27337e-06
-0.000109897
1.22244e-06
-9.13659e-06
7.9141e-06
1.08431e-05
-8.66808e-06
-2.17537e-06
-7.83888e-06
-7.19151e-06
5.94705e-06
-4.36821e-06
-1.5785e-06
1.08269e-05
-1.37539e-05
-1.44063e-05
3.56817e-06
1.08366e-05
-1.75448e-06
-2.64312e-06
0.000260545
3.18265e-05
-3.94075e-05
7.57683e-06
-1.42495e-05
8.07986e-06
6.16923e-06
5.73213e-06
-1.05977e-05
0.000387118
-0.000212431
-0.000174694
-9.4929e-05
0.00019677
-0.000101839
-0.000337377
0.000305731
-0.000139816
8.20324e-05
-0.000114192
0.00011187
1.14526e-05
-7.96846e-06
-1.18883e-06
-5.25004e-06
6.44075e-06
3.59543e-07
2.37923e-06
-2.00465e-05
0.000275196