/*--------------------------------*- C++ -*----------------------------------*\
| =========                 |                                                 |
| \\      /  F ield         | OpenFOAM: The Open Source CFD Toolbox           |
|  \\    /   O peration     | Version:  v2012                                 |
|   \\  /    A nd           | Website:  www.openfoam.com                      |
|    \\/     M anipulation  |                                                 |
\*---------------------------------------------------------------------------*/
FoamFile
{
    version     2.0;
    format      ascii;
    class       volScalarField;
    location    "400";
    object      k;
}
// * * * * * * * * * * * * * * * * * * * * * * * * * * * * * * * * * * * * * //

dimensions      [0 2 -2 0 0 0 0];


internalField   nonuniform List<scalar> 
27915
(
0.000149265
0.00020253
0.0293509
0.0577824
0.000174762
0.000151784
0.0839994
0.000177784
0.000177034
0.000180904
0.000159917
0.000149021
0.000264346
0.0438276
0.0658299
0.000153867
0.0346118
0.00017074
0.077586
0.000150716
0.0428973
0.000147742
0.0361993
0.000149245
0.000147007
0.000147187
0.000147733
0.000260013
0.0598669
0.0596295
0.000191667
0.000146032
0.0347752
0.000150761
0.0837402
0.000147728
0.000148045
0.0001619
0.000168272
0.000154955
0.000147535
0.00016105
0.000147998
0.000206112
0.000211498
0.00014906
0.000148561
0.000166707
0.00014842
0.000147625
0.000167676
0.000205936
0.000205055
0.000154896
0.000398833
0.0264019
0.0508245
0.000149073
0.000147718
0.0583486
0.000146046
0.000169034
0.000188251
0.00166806
0.000149906
0.000157502
0.000172482
0.000212064
0.0565119
0.000153455
0.000161389
0.0634357
0.000147695
0.000146939
0.000160392
0.000172194
0.000191741
0.000157718
0.00999802
0.000149148
0.000160914
0.000155069
0.00014714
0.000147568
0.0251243
0.00014559
0.000148401
0.00015339
0.000118421
0.000170989
0.000147881
8.43954e-05
0.000153669
0.000191247
0.000152809
0.000167954
0.0299028
0.000157183
0.000147601
0.0724548
0.000147249
0.000149156
0.0818811
0.000161451
0.000147899
0.000149927
0.000148056
0.000172196
0.00017297
0.000180308
0.000148779
0.00015071
0.000957732
0.0485967
0.0136573
0.000210338
0.082009
0.000147559
0.00017688
0.000144528
0.00022756
0.000176579
0.000182069
0.000171267
0.000151196
0.000144769
0.000150757
0.0457211
0.000191971
0.000153647
0.000154779
0.000147779
0.000145576
0.0303306
0.0228161
0.0136215
0.000147479
0.000146984
0.000155465
0.000145582
0.0651272
0.0607911
0.000153589
0.0654733
0.000171358
0.000150397
0.000149604
0.0480893
0.000224855
0.000148261
0.000148016
0.000157777
0.000207922
0.0365651
0.000189506
0.00015736
0.000149068
0.000148732
0.00015289
0.000153088
0.000168723
0.000193186
0.000191428
0.000148464
0.000148317
0.0001538
0.00693714
0.000207086
0.000148899
0.000199677
0.0741943
0.000148708
0.0362542
0.000147838
0.000149949
0.000209524
0.000172591
0.000149323
0.000149456
0.000474034
0.000148632
0.000173223
0.000147922
0.0143534
0.0472107
0.000176998
0.000189077
0.000148142
0.0273726
0.000161998
0.000148504
0.000232222
0.000148171
0.00014808
0.00014777
0.0250273
0.000149021
0.000163846
0.0110962
0.0854186
0.000187841
0.00138028
0.000162352
9.66301e-05
0.000148517
0.000157651
0.0553675
0.00015586
0.000159363
0.000209623
0.0699917
0.000149164
0.0718149
0.000150708
0.000177796
0.000147793
0.000210478
0.0786224
0.000178043
0.000162117
0.0489684
0.000224518
0.000191672
0.000148635
0.000159347
0.000162282
0.000174919
0.00014864
0.000404433
0.000148333
0.0416179
0.000145626
0.0807502
0.000157142
0.000148749
0.000149445
0.00921679
0.000151956
2.1956e-05
0.000147092
0.000148155
0.0740274
0.00700073
0.000176679
0.00014846
0.000153477
0.000214518
0.000150748
0.000264146
0.000208169
0.000147951
0.000166919
0.000206901
0.000147266
0.000165787
0.000152236
0.000167205
0.000153686
0.000225674
0.0558935
0.050482
0.000149722
0.000147654
0.00014595
0.000165316
0.000207742
0.000144363
0.00014873
0.000188995
0.000148466
0.000147707
0.000147824
0.0518551
0.000170254
0.000150672
0.0744834
0.000152771
0.0496755
0.0475359
0.0705512
0.000224458
0.0445252
0.000154199
0.0291411
0.000155331
0.000154167
0.000191294
0.00015071
0.000179456
0.0474821
0.00020748
0.000165766
0.000148076
0.000191065
0.00015778
0.000145483
0.000148475
0.0593693
0.000191946
0.000148071
0.000227745
0.000147456
0.000159876
0.000147944
0.000206429
0.0582903
0.000147815
0.000458798
0.000147545
0.000201228
0.00240689
0.021421
0.0621943
0.00015075
0.0599733
0.000145517
0.000147441
0.000145619
0.000175857
0.00019459
0.0385986
0.000146205
0.000149381
0.000152587
0.000225164
0.000153411
0.000147073
0.000183627
0.000173126
0.000178054
0.000148097
0.0710072
0.00015561
0.0328975
0.0677895
0.00017723
0.000189757
0.000226415
0.000190578
0.000152156
0.000156125
0.000178725
0.000175296
0.000194618
0.00028963
0.0482925
0.00014772
0.000173949
0.000168612
0.000156095
0.000190672
0.0558794
0.000211962
0.00016417
0.0489102
0.000183299
0.000159765
0.000148048
0.0265248
0.000192567
0.0522384
0.000147295
0.000148131
0.000227725
0.000183156
0.000149689
0.00385875
0.000168817
0.00016216
0.000165346
0.00016061
0.000222062
0.000153579
0.000161301
0.000180956
0.00015013
0.000149182
0.00014922
0.0506624
0.000153555
0.0725671
0.000149179
0.000214916
0.000184051
0.000147821
0.000174754
0.000192393
0.000160306
1.80815e-06
0.000189873
0.0276662
0.000164596
0.000175098
0.000167958
0.000150083
0.000178258
0.0128728
0.00768331
0.00014918
0.000210619
0.0648528
0.000162202
0.000148496
0.000149903
0.0602617
0.000149001
0.000185831
0.000148492
0.00017894
0.000173045
0.000147517
0.000165444
0.000149724
0.000171389
0.000152459
0.000218317
0.000147544
0.000213169
0.000161704
0.000147071
0.0620152
0.000205813
0.000180691
0.0702376
0.000168063
0.000186297
0.000173128
0.000147349
0.000148046
0.000150703
0.000155834
0.000162587
0.000183777
0.000215994
0.0512307
0.000155965
0.000148637
0.0317164
0.000147431
0.00118787
0.000149297
0.000148415
0.000164368
0.000200715
0.000147505
0.000193939
0.000170661
0.0504046
0.000161843
0.000147649
0.000153837
0.000157601
0.000147979
0.0858958
0.000148255
0.000150357
0.00495265
0.000146867
0.000153748
0.0541113
0.0726638
0.000146918
0.00023687
0.000162058
0.030253
0.000161893
0.00430535
0.0607807
0.000148665
0.000174024
0.00019845
0.000147436
0.0463475
0.000148103
0.000149957
0.000205471
0.000210683
0.0688131
0.000150742
0.000170962
0.000178022
0.000172768
0.0695192
0.0511846
0.000149073
0.000146039
0.000151195
0.000150398
0.00017
0.000152259
0.000146973
0.000158441
0.00169796
0.000150224
0.000160433
0.00016456
0.000149952
0.000157724
0.000211167
0.000156481
0.000154466
0.000147771
0.00020752
0.0603996
0.0679917
0.000220164
0.000180525
0.000144378
0.000198332
0.0001492
0.000145282
0.000148301
0.000182281
0.000148018
0.0560878
0.0514778
0.000163645
0.000154678
0.0742847
0.000167863
0.000171605
0.000147055
0.000148132
0.0113556
0.000165523
0.000152108
0.000205553
0.000149342
0.000148153
0.000149835
0.000152293
0.000147745
0.000147855
0.000148232
0.000150015
0.000153011
0.000149452
0.0348371
0.000206911
0.000173781
0.000149408
0.000153113
0.000147038
0.000175933
0.000146957
0.000145832
0.000155993
0.000147572
0.000232447
0.000147976
0.0404393
0.0439815
0.000232157
0.000148606
0.0524427
0.000225089
0.000147835
0.000148925
0.000231273
0.00015123
0.000173763
0.000149143
0.00189014
0.00015248
0.000229463
0.000160367
0.000148326
0.000224536
0.0664606
0.000150027
0.000147867
0.000149784
0.00014779
0.000193576
0.000156439
0.000148099
0.0652887
0.0699812
0.000302983
0.000147743
0.000211157
0.000223006
0.000145419
0.000147585
0.000213306
0.000169032
0.000149964
0.000197792
0.0293499
0.000175855
0.000171
0.000147723
0.000147585
0.0243075
0.0295512
0.000182051
0.000991746
0.0394104
0.087058
0.000157843
0.0294347
0.0688721
0.0351256
0.000161262
0.000224824
0.000161888
0.000151584
0.000147793
0.00015385
0.000195315
0.000147108
0.000148699
0.00016063
0.000172875
0.000192414
0.0419783
0.000157889
0.000147442
0.000147809
0.000153073
0.000156862
0.0625089
0.0384129
0.000221635
0.000148355
0.000237999
0.000150727
0.000147771
0.000183432
0.000158058
0.000149825
0.000184752
0.000153244
0.0255767
0.00016681
0.000166024
0.0381805
0.000206832
0.000175165
0.00014991
0.000149648
0.000146589
0.000580607
0.000208227
0.000180216
0.0691728
0.00016198
0.0229234
0.000146765
0.000556982
0.000145884
0.000149296
0.000152385
0.00014842
0.00020359
0.000150688
0.000149022
0.000156191
0.000148689
0.00106175
0.000151533
0.000148165
0.000191668
0.000157999
0.000159286
0.000146263
0.000148402
0.000225387
0.000148029
0.000148274
0.000148568
0.000145728
0.00020204
0.000144288
0.000146963
0.000197714
0.000153379
0.000152354
0.0873771
0.000147443
0.000166081
0.051055
0.0706915
0.00140332
0.000147621
0.00017344
0.000162071
0.000148817
0.000150107
0.000172974
0.000153538
0.00014822
0.000148002
0.000149499
0.0858972
0.0262334
0.000186024
0.00019042
0.000308981
0.000156243
0.000149905
0.000184747
0.000169332
0.000148496
0.000170004
0.00014801
0.000235379
0.000155638
0.000165735
0.000156956
0.000144285
0.0656035
0.000150038
0.057829
0.000211881
0.000292002
0.000160616
0.000176098
0.000146892
0.000146901
0.000148132
0.000149955
0.000167029
0.000147489
0.000157943
0.000159627
0.000157132
0.000152264
0.000192124
0.0782943
0.000151353
0.000147313
0.000147725
0.000179572
0.000148288
0.000175341
0.000165857
0.000147012
0.000149667
0.000208185
0.000237928
0.000149895
0.000162252
0.0401762
0.000146765
0.000154128
0.0487744
0.000158964
0.039219
0.000148879
0.000156
0.00017791
0.00020723
0.00014816
0.00015017
0.000167427
0.000167744
0.000164096
0.000303616
0.0378544
0.000155906
0.0870924
0.000146925
0.0843317
0.000149244
0.000167466
0.036883
0.000177865
0.000177581
0.000148063
0.000171067
0.000152345
0.000158252
0.000168285
0.000147531
0.000148709
0.00018582
0.0829142
0.00017967
0.000162587
0.000151307
0.000148214
0.0475254
0.000146797
0.000148594
0.000208387
0.000147245
0.000156293
0.0597015
0.0664281
0.000151645
0.000144183
0.000147499
0.000158691
0.0556937
0.000147574
0.000204878
0.00175134
0.000166116
0.000178915
0.000150125
0.00019864
0.000154992
0.000161361
0.0452442
0.000149629
0.000203949
0.000150826
0.0703246
0.000171305
0.000148052
0.000147791
0.00360958
0.000147881
0.000148438
0.0466838
0.000237144
0.0416761
0.000148862
0.000156617
0.000867154
0.0502445
0.0161685
0.000266193
0.000148521
0.000156742
0.000149909
0.000182486
0.000207383
0.0674451
0.000149501
0.000194019
0.000167301
0.00019314
0.0550527
0.000147368
0.0733637
0.000205977
0.000182054
0.000148106
0.00017554
0.000153845
0.000149786
0.000162
0.000153934
0.000161565
0.000173045
0.000147018
0.000162192
0.000161623
0.000161071
0.00015338
0.000148565
0.0425928
0.00020671
0.0861796
0.000146705
0.000159422
0.000209415
0.000156073
0.00020834
0.0613302
0.032085
0.00651447
0.000148029
0.000171617
0.00016658
0.0476908
0.000153619
0.000161848
0.000150017
0.000208766
0.000145444
0.000192522
0.0731989
0.000153591
0.000162299
0.000150637
0.084869
0.000146738
0.000146904
0.000147467
0.000152341
0.000202193
0.000144196
0.000147128
0.000147467
0.000162067
0.0307887
0.000147118
0.000146996
0.000147114
0.000148445
0.000150826
0.0426177
0.000147475
0.000147943
0.000177679
0.000166455
0.000147591
0.000153136
0.000169593
0.0488509
0.000149694
0.000148642
0.000152
0.000146666
0.000226336
0.000188932
0.0360092
0.000150721
0.0519952
0.000148394
0.000147807
0.000176728
0.000200567
0.0685696
0.000146895
0.000177148
0.000151456
0.000160197
0.000146443
0.0827423
0.000147483
0.000177813
0.0538883
0.000147422
0.00017907
0.00014994
0.000151007
0.000161727
0.000180338
0.0858189
0.000172617
0.000147204
0.00014703
0.0662399
0.000146349
0.000153014
0.00016661
0.000148793
0.000148406
0.000147831
0.000147005
0.000223486
0.000319921
0.000149944
0.000169045
0.0247811
0.043907
0.0257961
0.000198836
0.0718211
0.000148107
0.000148024
0.000146909
0.0650735
0.0624376
0.000148349
0.000148395
0.000149488
0.000180946
0.0695976
0.0438616
0.000158237
0.000148686
0.000145529
0.000148959
0.000150016
0.000211556
0.000146775
0.0428568
0.000146359
0.000146425
0.000147517
0.000238411
0.000165656
0.0145767
0.000161331
0.000152667
0.000148859
0.000200959
0.0220036
0.0485831
0.000193478
0.000148204
0.000147466
0.000194387
0.000205296
0.000185337
0.000159933
0.00014682
0.000160259
0.00014661
0.037016
0.000169267
0.000211017
0.000179432
0.000145675
0.000146459
0.000146464
0.000153207
0.000147584
0.00031265
0.000163421
0.000176465
0.0451157
0.000146493
0.000168336
0.0249405
0.000148831
0.000161493
0.000153641
0.000265561
0.00014981
0.000148374
0.0412765
0.0127005
0.0850732
0.000147189
0.0001472
0.046486
0.000162484
0.000147727
0.00014858
9.52707e-05
0.000154377
0.000146409
0.0473455
0.000230954
0.000179204
0.0324804
0.00014645
0.000156903
0.0447123
0.000147678
0.000148035
0.00014682
0.000234684
0.000151259
0.000148056
0.000185451
0.0135277
0.000182667
0.000169839
0.00014789
0.000149379
0.000189366
0.00017201
0.000151935
0.000149444
0.000146347
0.000149817
0.000197685
0.000162408
0.000196587
0.000156918
0.000207735
0.000144717
0.000156098
0.000146324
0.000188509
0.000147704
0.0533926
0.000149463
0.000146296
0.0455656
0.000147983
0.000200209
0.000158756
0.000159202
0.000200609
0.0001471
0.00014642
0.000153327
0.000147996
0.036696
0.000219371
0.000148555
0.000209479
0.000237876
0.00016966
0.000151246
0.0483949
0.000148587
0.000185178
0.000145734
0.0870281
0.0331552
0.000201563
0.078208
0.000147395
0.0265851
0.000147724
0.0001474
0.000162354
0.000245537
0.000168771
0.000167607
0.000151145
0.000159827
0.000147734
0.000157283
0.000270839
0.000167148
0.0524246
0.000197812
0.00383366
0.00014708
0.000176898
0.00021138
0.0432833
0.000149745
0.000190512
0.000171584
0.000169133
0.000148118
0.0116962
0.000162268
0.000146601
0.0577722
0.00015945
0.000148826
2.04185e-05
0.0281603
0.000158459
0.000148083
0.000153385
0.000208936
0.0431878
0.000147206
0.000147031
0.000190747
0.000153041
0.0536878
0.000147704
0.0210798
0.000153048
0.0442033
0.000144761
0.000190858
0.059811
0.0716655
0.0363956
0.0680802
0.000148459
0.0860679
0.000147753
0.000246634
0.000151688
0.00014788
0.00019249
0.0574542
0.000214424
0.00014832
0.0502762
0.000147932
0.000191228
0.000148216
0.00014951
0.0628801
0.000154234
0.0444493
0.000148094
0.000147902
0.0554469
0.000146913
0.000161263
0.000145633
0.000151029
0.000161465
0.000147266
0.000163691
0.000157735
0.000149269
0.000148436
0.0320435
0.000181874
0.000246848
0.000260269
0.000149661
0.000171301
0.000155814
0.000165863
0.0478889
0.000188917
0.000154454
0.000213435
0.000147254
0.000175108
0.000187975
0.000147817
0.000211332
0.000209702
0.000193503
0.000149857
0.000161501
0.000149838
0.024653
0.000182954
0.000148081
0.000147846
0.0546135
0.000160353
0.000211358
0.000161101
0.0775276
0.000154346
0.000163389
0.000166342
0.000147083
0.0570184
0.000188349
0.000146422
0.00018249
0.000209178
0.000168797
0.000177258
0.000243957
0.000219026
0.0857259
0.000166826
0.0151982
0.000149695
0.000146618
0.0108967
0.064718
0.0299172
0.00015272
0.000147245
0.000148352
0.000153596
0.0423087
0.000149662
0.000173382
0.029849
0.000211402
0.000222135
0.000145389
0.0588373
0.000149615
0.000304404
0.000168132
0.000164156
0.000145522
0.000150602
0.000147187
0.000225321
0.000165118
0.0861836
0.00025134
0.000148911
0.000205985
0.0270497
0.000147589
0.000163679
0.000174996
0.000169533
0.00014745
0.000156505
0.000147989
0.000144752
0.000147996
0.000161783
0.0298905
0.00017192
0.000156404
0.000203909
0.0428661
0.000149903
0.0813986
0.000148029
0.000148822
0.000149558
0.000170196
0.000264541
0.000360014
0.000199681
0.000147973
0.000166021
0.000219767
0.000148772
0.000148377
0.000177098
0.00014724
0.000148746
0.000156186
0.000299081
0.0453564
0.000149725
0.000243849
0.000174989
0.000215526
0.000153715
0.0492512
0.000775938
0.000153799
0.000169781
0.000247979
0.000180851
0.00014774
0.000168557
0.000146794
0.000147786
0.000151803
0.00014951
0.000185558
0.000149663
0.000157492
0.000147904
0.0759777
0.00014779
0.000225948
0.000281223
8.20239e-05
0.000144199
0.000148021
0.000185568
0.000160936
0.000171409
0.000158474
0.0564188
0.000147393
0.000187158
0.000148327
0.000146765
0.00023455
0.000166805
0.0258622
0.000147758
0.000147705
0.000173716
0.0339615
0.000148096
0.000173252
0.0763807
0.000147948
0.000147559
0.000160941
0.0834738
0.00014887
0.000148424
0.000187598
0.0535859
0.0255101
0.000147644
0.0279487
0.000149709
0.00017488
0.00641246
0.0112726
0.000147147
0.0632078
0.000145497
0.0347665
0.000287785
0.0464348
0.000192424
0.000148321
0.00018524
0.000217057
0.0345349
0.000147874
0.000145675
0.000160154
0.000226247
0.000149116
0.000147659
0.000170215
0.000149471
0.000147868
0.000203304
0.0370004
0.000187213
0.000146766
0.0547927
0.00164498
0.000168859
0.000148191
0.0307718
0.000174268
0.000158092
0.000148101
0.000145585
0.000144229
0.0001478
0.000148322
0.0764144
0.0362151
0.000149237
0.000148805
0.000207058
0.000147822
0.00127106
0.000193011
0.000147532
0.000257227
0.000209167
0.000161944
0.000149707
0.0633803
0.000150988
0.000147596
0.000148018
0.000156649
0.000162022
0.000147138
0.0287512
0.000146182
0.000148212
0.0424063
0.000207359
0.000218575
0.000168828
0.000193867
0.0621967
0.000153865
0.000163027
0.0302457
0.00017806
0.000146695
0.0782093
0.0498326
0.000151611
0.000149445
0.073101
0.000166906
0.0588091
0.000151757
0.000148815
0.000150326
0.000211464
0.000162363
0.000148755
0.000150657
0.0723402
0.000174391
0.000176411
0.000149361
0.000148919
0.0433124
0.000149662
0.000161883
0.0319077
0.0432455
0.000149053
0.000149102
0.0585503
0.000192943
0.0473302
0.0552389
0.000161699
0.000151838
0.000177215
0.000158301
0.000148663
0.000146073
0.000197838
0.000150405
0.0562871
0.0776343
0.000166835
0.0527876
0.000212963
0.000178743
0.000159163
0.0540916
0.000161406
0.000211092
0.000241653
0.0257996
0.000247012
0.00015687
0.000156685
0.000167443
0.000148334
0.0452526
0.000151436
0.0001524
0.000218768
0.0537319
0.000197224
0.000152676
0.000292416
0.000169087
0.000171354
0.000197936
0.000167255
0.0865307
0.000147573
0.000185468
0.0856957
0.000244887
0.000174281
0.0001451
0.000346915
0.000172857
0.0270277
0.0247156
0.000148634
0.000177056
0.000149149
0.000208388
0.000146682
0.000147804
0.0625782
0.000178928
0.000148602
0.000146006
0.000145578
0.000149474
0.000164891
0.0564191
0.0481995
0.000148782
0.000148439
0.000148233
0.000145137
0.000213872
0.0483647
0.000166279
0.000208059
0.000203357
0.00016496
0.00021356
0.000148818
0.000303019
0.000622677
0.000191869
0.000149137
0.00016965
0.000478785
0.062637
0.000148113
0.000146939
0.000147606
0.000148049
0.0429704
0.000149033
0.000156771
0.000154721
0.0765401
0.000196281
0.000153675
0.000210613
0.000156259
0.000148061
0.000211639
0.0508284
0.000147001
0.000145765
0.000145006
0.000145572
0.000169241
0.000180689
0.00014969
0.000149301
0.000147343
0.000191423
0.000203827
0.000147358
0.000152362
0.000184873
0.000148165
0.000169398
0.000146008
0.000160785
0.000148487
0.000147794
0.000163
0.000159921
0.000151424
0.000148034
0.000146899
0.0382727
0.000148064
0.000148699
0.000149016
0.000148263
0.000158984
0.00016033
0.000192862
0.000148542
0.000160517
0.000178296
0.000146207
0.000148471
0.0672931
0.000173787
0.0243146
0.000148747
0.0346883
0.0373996
0.000147981
0.00014971
0.0642917
0.000147783
0.00970751
0.000248162
0.0614445
0.000208964
0.000147735
0.065491
0.000180299
0.000206892
0.000189213
0.00014894
0.000147573
0.0312419
0.000148195
0.0284022
0.000168743
0.000150255
0.000152548
0.000152144
0.000145945
0.000312011
0.00989869
0.0474715
0.000156331
0.032102
0.000147331
0.00014879
0.000147505
0.000148645
0.000249141
0.000173132
0.000150086
0.000166267
0.000147994
0.000150917
0.0629557
0.000168554
0.0502782
0.000152762
0.000152551
0.000147749
0.00021177
0.000149204
0.000162079
0.0307223
0.0476818
0.000147874
0.000147605
0.000152254
0.000147648
0.000172442
0.0566468
0.000149709
0.000147344
0.000161772
0.000146402
0.00208759
0.000148848
0.000150699
0.000148781
0.000209477
0.0547498
0.000155206
0.0390287
0.000185524
0.000191468
0.011481
0.0302907
0.0599297
0.0319565
0.00721943
0.000149246
0.000147029
0.00015313
0.000175456
0.0518495
0.0245095
0.000158832
0.000180128
0.000145376
0.000147515
0.000147251
0.000171163
0.0367798
0.00014934
0.042877
0.000148507
0.000148389
0.0468222
0.000147759
0.0855857
0.00014645
0.000189573
0.000154055
0.000174352
0.000147075
0.00015021
0.000148089
0.000148025
0.0192475
0.000761923
0.000148086
0.000148473
0.0568546
0.000167298
0.000163237
0.0298107
0.0599632
0.000157722
0.000150682
0.000211152
0.0630027
0.0296991
0.00016478
0.000147822
0.084596
0.000146986
0.0641947
0.000152116
0.000250282
0.000148001
0.000187996
0.00014693
0.000148497
0.000172263
0.000219229
0.000196719
0.000152147
0.000146996
0.0522734
0.0430636
0.000146822
0.0512942
0.000151231
0.000148387
0.000148612
0.0605757
0.000148333
0.0652643
0.000147789
0.000183885
0.0463228
0.000146718
0.0226006
0.000149198
0.000208642
0.000203717
0.000148347
0.00014916
0.00537781
0.000150214
0.000205628
0.0365739
0.000206848
0.000147731
0.000147195
0.000178933
0.000152237
0.000151165
0.000149289
0.0423468
0.000152421
0.00015895
0.000154025
0.0278886
0.000154612
0.000147976
0.000146865
0.000112536
0.000149224
0.0292547
0.00016064
0.000236905
0.000149711
0.000184328
0.000237654
0.000147703
0.000147157
0.000164564
0.0512639
0.000147716
0.075653
0.000193824
0.000156719
0.000167552
0.0677189
0.000148077
0.00016207
0.000155401
0.000155765
0.00014826
0.000149525
0.000166429
0.000178485
0.0613002
0.000152123
0.00021718
0.000215699
0.000147382
0.000680065
0.000177474
0.000209179
0.0486677
0.000159078
0.0518026
0.0477259
0.000150803
0.000147893
0.000145524
0.000153662
0.000178194
0.0001983
0.000148186
0.000178077
0.000147516
0.000175068
0.000151136
0.000147723
0.000189055
0.000173013
0.000147695
0.00014604
0.0480538
0.0581637
0.000656567
0.000146784
0.000160124
0.0202448
0.000147941
0.0667244
0.000147727
0.00017314
0.000156489
0.000147779
0.000153735
0.000185637
0.000159321
0.0485322
0.000149096
0.000152146
0.000144246
0.000184348
0.000147821
0.000146037
0.0657751
0.000147904
0.00020478
0.000176875
0.0236394
0.000156164
0.000298656
0.000240389
0.000162528
0.000153988
0.032596
0.000208731
0.0236624
0.000210045
0.00015886
0.0532523
0.000147667
0.000156461
0.00132528
0.000146596
0.000166548
0.000148729
0.000261456
0.000146515
0.00017634
0.000159817
0.000218467
0.000152193
0.000153903
0.000183455
0.000156128
0.000193662
0.0667118
0.000219909
0.00014789
0.000183835
0.0650865
0.000147829
0.000198527
0.000148688
0.000206865
0.000167016
0.00015309
0.000172354
0.000178677
0.000190292
0.000161692
0.000148513
0.0400746
0.0273676
0.00016799
0.000147278
0.0863105
0.000148321
0.0567512
0.000248538
0.0459171
0.000242862
0.000219488
0.00807943
0.000163441
0.000204222
0.000148694
0.000152419
0.000178449
0.000146736
0.0502774
0.0245276
0.000208463
0.048965
0.000162256
0.000144313
0.000226975
0.0165794
0.000147309
0.000172691
0.000172108
0.0685308
0.000148542
0.000211809
0.0575565
0.00023519
0.0002091
0.000145974
0.000149527
0.000144369
0.000153853
0.0724358
0.000372394
0.000233745
0.0150471
0.0697206
0.000147919
0.000145039
0.000202798
0.0270043
0.0403054
0.000152039
0.000205478
0.000273152
0.000157489
0.000171838
0.000147196
0.0357874
0.000147502
0.000181113
0.000234565
0.000163319
0.000146987
0.0588357
0.000147046
0.000161551
0.000172883
0.000146026
0.000195021
0.000157753
0.0528113
0.0589532
0.000193238
0.0521691
0.000159344
0.000151858
0.00014904
0.000151303
0.000147761
0.0567203
0.000169757
0.000155401
0.000149667
0.0585336
0.0391138
0.00014491
0.000157631
0.000147164
0.0431781
0.0620695
0.000176794
0.000148478
0.000148513
0.000148074
0.000154546
0.0422969
0.000149713
0.000204981
0.0577876
0.000147644
0.0176404
0.0670078
0.0001538
0.0333929
0.000147174
0.0199272
0.000165
0.039541
0.000160944
0.039904
0.000145923
0.000211746
0.000171574
0.000178476
0.000150166
0.000157349
0.000146652
0.000148534
0.0393461
0.000221869
0.000152882
0.0696921
0.0366911
0.000145853
0.0398876
0.000151895
0.0054496
0.0653012
0.000215863
0.000191113
0.000375157
0.0856817
0.0593857
0.000181224
0.000153691
0.0503592
0.0278809
0.0306654
0.00019302
0.000181874
0.000148548
0.000149686
0.0001491
0.000144372
0.00014784
0.0674402
0.00014593
0.00015385
0.000148917
0.000186539
0.000148569
0.00014608
0.000147967
0.000178814
0.00015078
0.000149214
0.000148735
0.000148207
0.000165704
0.00015175
0.000145945
0.0581026
0.000147801
0.000147135
0.000165832
0.000150331
0.000156451
0.000147605
0.000251733
0.000196613
0.000147733
0.000161505
0.000148154
0.000147392
0.0370414
0.000161063
0.000147881
0.024186
0.000144703
0.000218954
0.000186614
0.000147444
0.000165388
0.000156285
0.000287907
0.000210681
0.000150545
0.000184977
0.000152312
0.000148241
0.000184842
0.0526525
0.000148385
0.000149979
0.000147006
0.000155943
0.000144022
0.000156192
0.000174271
0.0421847
0.000156241
0.000147465
0.0601485
0.000152312
0.0362056
0.000147752
0.000194063
0.000162792
0.00019426
0.000147762
0.00029792
0.0585056
0.00015338
0.0285225
0.000193772
0.000148253
0.0679352
0.000148785
0.000147796
0.000147858
0.000159729
0.000152472
0.0296413
0.000149201
0.000158895
0.000153
0.0719127
0.00014829
0.000156329
0.0001468
0.00017371
0.00014551
0.000149111
0.000145831
0.000148826
0.000214632
0.000147264
0.0377334
0.0720618
0.000147032
0.000621113
0.000178194
0.000171342
0.0462855
0.077035
0.01079
0.000152964
0.042874
0.000198909
0.000168727
0.000149692
0.00015382
0.000156364
0.00226407
0.000148125
0.000179017
0.0137635
0.000149513
0.0686005
0.000191802
0.0324291
0.000148247
0.000156189
0.000148042
0.000145625
0.000185284
0.0536205
0.000197259
0.000226793
0.000172291
0.000148034
0.000858751
0.000184911
0.000208811
0.000153903
0.000145514
0.0456364
0.0581925
0.000149766
0.00014995
0.000148128
0.000147285
0.000148398
0.000153093
0.0499769
0.000152623
0.000147702
0.0696313
0.0332203
0.000147447
0.000153999
0.000146439
0.0394813
0.00014683
0.000147171
0.0630833
0.0646289
0.000148093
0.000162379
0.0854725
0.000173619
0.000180002
0.000178049
0.000146625
0.0548113
0.000148289
0.000217397
0.0866407
0.000162148
0.000203157
0.000172308
0.000165529
0.000149917
0.000152357
0.000148265
0.000206825
0.000148284
0.00014767
0.000148715
0.000158737
0.000239373
0.0257181
0.000151931
0.00014547
0.000144948
0.00014935
0.0663719
0.0238427
0.0274069
0.000169802
0.000152299
0.000146965
0.000149446
0.000156649
0.0320507
0.000157856
0.000185155
0.0472048
0.000461076
0.000192076
0.000156481
0.000150871
0.000147516
0.000147861
0.000149718
0.000153741
0.000147589
0.000146982
0.000149423
0.072726
0.000187305
0.000147358
0.000171144
0.000145585
0.0217149
0.0439597
0.000173383
0.0522176
0.0603679
0.00015503
0.0863541
0.000241732
0.00014754
0.0257847
0.0642133
0.000222306
0.000167903
0.000148287
0.000147507
0.000146745
6.42831e-05
0.000181545
0.000177043
0.000187104
0.000165521
0.000147182
0.074794
0.0770331
0.000176813
0.000219443
0.00014781
0.00020838
0.000160977
0.0440521
0.000219699
0.0574796
0.000153927
0.000152315
0.000184656
0.000182416
0.000145669
0.0252973
0.0753644
0.000178457
0.0591487
0.00264469
6.97603e-05
0.0136687
0.000239035
0.000152666
0.000203005
0.000239651
0.000158066
0.0546145
0.000150445
0.000151972
0.0849783
0.000147552
0.000144563
0.000144494
0.00018409
0.000150603
0.00014751
0.0631594
0.000149422
0.0290175
0.0764026
0.000789992
0.000339312
0.000147869
0.000166271
0.000145484
0.00019578
0.000203237
0.000147714
0.000286254
0.000200401
0.000170049
0.000146075
0.000198582
0.000166375
0.00028973
0.000184592
0.00015652
0.000149767
0.000151656
0.062861
0.000172872
0.000168221
0.000106383
0.000150702
0.000147917
0.000146993
0.0843597
0.000147018
0.000180405
0.000145688
0.0282215
0.000150011
0.000472686
0.000172465
0.069417
0.000243682
0.0495057
0.000152843
0.000169812
0.000190668
0.000155506
0.000148987
0.000159251
0.0309511
0.000196165
0.000147528
0.000172646
0.0390418
0.000147676
0.000173153
0.000147697
0.0585869
0.0527638
0.000149885
0.000150678
0.000151346
0.0284605
0.000147779
0.0690859
0.0640698
0.000207511
0.060477
0.0318392
0.000149776
0.000149582
0.000147186
0.0345578
0.000151538
0.0178384
0.000147362
0.000183078
0.000149965
0.00019381
0.000151077
0.000239504
0.000198814
0.000187106
0.00022165
0.0326096
0.043648
0.000148498
0.0001818
0.05181
0.000148999
0.000240086
0.000150013
0.000170661
0.000156352
0.000164863
0.000147477
0.0627349
0.000149712
0.0563897
0.000149246
0.0498048
0.000173618
0.000148394
0.000146674
0.000168504
0.000162162
0.000151891
0.000211561
0.000153302
0.000187954
0.000191577
0.000169538
0.000147521
0.000585883
0.000183383
0.0642746
0.00021863
0.000147207
0.0188328
0.000246524
0.000207162
0.000148384
0.0354189
0.000159759
0.000148085
0.0627585
0.0333057
0.000147962
0.000156309
0.000146761
0.000176294
0.000182208
0.000176527
0.0572012
0.0406486
0.000171986
0.000148387
0.000157936
0.000177197
0.000147501
0.000183802
0.000147491
0.000149422
0.000215958
0.000159041
0.000155269
0.000187422
0.000153807
0.000147409
0.000166718
0.00020622
0.00014749
0.000155882
0.000148742
0.000161684
0.000195556
0.0564056
0.0233536
0.000240822
0.000145491
0.0510759
0.000172438
0.000152611
0.000172142
0.000153773
0.000190866
0.000168577
0.0512173
0.000149932
0.000147991
0.000221076
0.0852135
0.0333891
0.000145509
0.00014625
0.000148504
0.000146583
0.0236628
0.000202838
0.000150129
0.00014942
0.0236213
0.0524634
0.00026373
0.0758676
0.000146744
0.000170155
0.00016911
0.000168122
0.000200571
0.000147244
0.0363215
0.000190429
0.0248823
0.000146971
0.0616434
0.000255689
0.000149665
0.000177094
0.0302921
0.000145866
0.000149351
0.0427362
0.0463616
0.059675
0.000150202
0.000150417
0.000149313
0.0535738
0.0614003
0.000173066
0.0519133
0.000148248
0.0320475
0.0667687
0.000148506
0.0517564
0.00014985
0.000195067
0.00020307
0.073048
0.000146831
0.000154236
0.0001711
0.0754023
0.00015209
0.0631414
0.000167586
0.0857794
0.000172599
0.000153914
0.000147401
0.000179312
0.000148356
0.000145813
0.000147121
0.000219561
0.000159828
0.000149809
0.0289728
0.000158184
0.0469938
0.000147298
0.000154914
0.000194614