/*--------------------------------*- C++ -*----------------------------------*\
| =========                 |                                                 |
| \\      /  F ield         | OpenFOAM: The Open Source CFD Toolbox           |
|  \\    /   O peration     | Version:  v2012                                 |
|   \\  /    A nd           | Website:  www.openfoam.com                      |
|    \\/     M anipulation  |                                                 |
\*---------------------------------------------------------------------------*/
FoamFile
{
    version     2.0;
    format      ascii;
    class       volScalarField;
    location    "400";
    object      k_0;
}
// * * * * * * * * * * * * * * * * * * * * * * * * * * * * * * * * * * * * * //

dimensions      [0 2 -2 0 0 0 0];


internalField   nonuniform List<scalar> 
27915
(
0.000149265
0.000202529
0.0293507
0.0577834
0.000174762
0.000151784
0.0840036
0.000177784
0.000177034
0.000180903
0.000159917
0.00014902
0.000264358
0.0438272
0.0658219
0.000153867
0.0346236
0.00017074
0.0775855
0.000150717
0.0428968
0.000147742
0.0362112
0.000149245
0.000147007
0.000147187
0.000147733
0.000260058
0.0598678
0.0596281
0.000191666
0.000146032
0.0347862
0.000150761
0.0837393
0.000147728
0.000148044
0.000161899
0.000168284
0.000154955
0.000147535
0.00016105
0.000147998
0.000206116
0.000211485
0.00014906
0.000148561
0.000166707
0.00014842
0.000147625
0.000167676
0.000205941
0.000205055
0.000154895
0.000398845
0.0264023
0.0508236
0.000149073
0.000147718
0.0583499
0.000146046
0.000169034
0.000188252
0.00166799
0.000149906
0.000157502
0.000172481
0.000212064
0.0565087
0.000153456
0.000161389
0.0634341
0.000147695
0.000146938
0.000160392
0.000172194
0.000191741
0.000157718
0.00999791
0.000149148
0.000160914
0.000155068
0.00014714
0.000147568
0.0251251
0.00014559
0.000148401
0.00015339
0.000118564
0.000170989
0.000147881
8.45198e-05
0.000153669
0.000191247
0.00015281
0.000167953
0.0298989
0.000157183
0.000147601
0.0724492
0.000147249
0.000149156
0.0818799
0.000161451
0.000147899
0.000149927
0.000148056
0.000172196
0.000172971
0.000180307
0.000148779
0.00015071
0.000955066
0.0485946
0.0136637
0.000210324
0.0820135
0.000147559
0.00017688
0.000144528
0.000227564
0.000176579
0.000182069
0.000171267
0.000151196
0.000144769
0.000150757
0.0457271
0.000191968
0.000153648
0.000154779
0.000147779
0.000145576
0.0303304
0.0228144
0.0136214
0.000147479
0.000146984
0.000155465
0.000145582
0.0651284
0.0607924
0.000153589
0.0654646
0.000171358
0.000150397
0.000149604
0.0480906
0.000224857
0.000148261
0.000148016
0.000157777
0.000207919
0.0365762
0.000189508
0.00015736
0.000149068
0.000148731
0.00015289
0.000153088
0.000168736
0.000193187
0.000191428
0.000148464
0.000148317
0.0001538
0.00693712
0.000207086
0.000148899
0.000199676
0.0741908
0.000148707
0.0362663
0.000147838
0.000149949
0.000209527
0.000172591
0.000149323
0.000149456
0.000474018
0.000148632
0.000173222
0.000147922
0.0143606
0.0472087
0.000176998
0.000189078
0.000148141
0.0273724
0.000161998
0.000148504
0.000232224
0.000148171
0.00014808
0.00014777
0.0250259
0.000149021
0.000163846
0.0110961
0.0854222
0.00018784
0.00137483
0.000162352
9.659e-05
0.000148517
0.000157651
0.0553649
0.00015586
0.000159363
0.000209628
0.0699917
0.000149164
0.0718087
0.000150708
0.000177795
0.000147793
0.000210482
0.0786277
0.000178044
0.000162117
0.048969
0.000224517
0.000191673
0.000148635
0.000159348
0.000162281
0.000174919
0.000148639
0.00040444
0.000148333
0.0416278
0.000145626
0.0807491
0.000157142
0.000148749
0.000149445
0.00922344
0.000151955
2.22728e-05
0.000147092
0.000148155
0.0740243
0.00696973
0.000176679
0.00014846
0.000153477
0.000214504
0.000150748
0.000264158
0.000208166
0.000147951
0.000166919
0.000206901
0.000147266
0.000165786
0.000152236
0.000167205
0.000153685
0.000225678
0.0558916
0.050481
0.000149723
0.000147654
0.00014595
0.000165316
0.000207742
0.000144363
0.00014873
0.000188996
0.000148466
0.000147707
0.000147824
0.0518504
0.000170254
0.000150672
0.0744846
0.000152771
0.0496762
0.0475345
0.0705527
0.000224457
0.0445323
0.000154199
0.0291412
0.000155331
0.000154168
0.000191295
0.00015071
0.00017942
0.0474812
0.000207475
0.000165765
0.000148076
0.000191064
0.00015778
0.000145483
0.000148475
0.0593683
0.000191946
0.000148071
0.00022775
0.000147457
0.000159876
0.000147944
0.000206424
0.0582912
0.000147815
0.000458796
0.000147545
0.000201219
0.00240672
0.0214195
0.0621942
0.00015075
0.0599747
0.000145517
0.000147441
0.000145619
0.000175857
0.000194592
0.0385948
0.000146205
0.000149381
0.000152587
0.000225172
0.000153411
0.000147073
0.000183627
0.000173126
0.000178054
0.000148097
0.0710078
0.00015561
0.0328974
0.0677909
0.00017723
0.000189758
0.000226421
0.000190578
0.000152156
0.000156125
0.000178724
0.000175296
0.000194622
0.000289942
0.0482924
0.00014772
0.000173949
0.00016861
0.000156095
0.000190673
0.055878
0.000211961
0.00016417
0.0489081
0.000183298
0.000159765
0.000148048
0.0265235
0.000192561
0.0522371
0.000147295
0.000148131
0.000227732
0.000183156
0.000149689
0.00386676
0.000168816
0.000162161
0.000165346
0.00016061
0.000222057
0.000153579
0.000161301
0.000180957
0.00015013
0.000149182
0.00014922
0.0506634
0.000153555
0.0725616
0.000149179
0.000214903
0.000184051
0.000147821
0.000174754
0.00019239
0.000160306
2.52556e-05
0.000189873
0.0276659
0.000164596
0.000175099
0.000167958
0.000150083
0.000178257
0.0127546
0.00768789
0.00014918
0.000210624
0.0648525
0.000162202
0.000148496
0.000149903
0.0602625
0.000149001
0.000185831
0.000148492
0.000178941
0.000173045
0.000147517
0.000165443
0.000149724
0.000171388
0.000152459
0.000218311
0.000147544
0.000213169
0.000161704
0.000147071
0.0620166
0.000205811
0.000180691
0.070239
0.000168063
0.000186219
0.000173128
0.000147349
0.000148046
0.000150703
0.000155834
0.000162587
0.000183777
0.000215989
0.0512288
0.000155965
0.000148637
0.0317304
0.000147431
0.00118773
0.000149297
0.000148415
0.000210308
0.000200718
0.000147505
0.000193941
0.00017066
0.0504046
0.000161843
0.000147649
0.000153837
0.000157601
0.000147979
0.0858938
0.000148255
0.000150358
0.00495264
0.000146867
0.000153749
0.0541102
0.0726638
0.000146918
0.000236874
0.000162058
0.0302486
0.000161893
0.00431322
0.0607814
0.000148665
0.000174024
0.000198452
0.000147436
0.0463461
0.000148103
0.000149957
0.000205476
0.000210681
0.0688136
0.000150742
0.000170962
0.000178021
0.000172768
0.0695198
0.051183
0.000149073
0.000146039
0.000151195
0.000150398
0.00017
0.000152259
0.000146972
0.00015844
0.00169936
0.000150224
0.000160433
0.00016456
0.000149952
0.000157724
0.000211173
0.000156481
0.000154466
0.000147771
0.000207523
0.0603941
0.067989
0.000220154
0.000180525
0.000144378
0.00019833
0.0001492
0.000145282
0.000148301
0.000182281
0.000148018
0.0560848
0.0514776
0.000163645
0.000154677
0.0742801
0.000167863
0.000171605
0.000147055
0.000148132
0.0113625
0.000165522
0.000152108
0.000205553
0.000149342
0.000148153
0.000149835
0.000152293
0.000147745
0.000147855
0.000148232
0.000150015
0.000153011
0.000149452
0.0348368
0.000206913
0.000173782
0.000149408
0.000153113
0.000147038
0.000175932
0.000146957
0.000145832
0.000155993
0.000147572
0.000232417
0.000147976
0.0404532
0.0439808
0.000232158
0.000148606
0.0524406
0.000225088
0.000147835
0.000148925
0.000231293
0.00015123
0.000173763
0.000149143
0.00140259
0.00015248
0.000229473
0.000160367
0.000148326
0.000224536
0.0664615
0.000150027
0.000147867
0.000149784
0.00014779
0.000193575
0.000156439
0.000148099
0.06529
0.0699735
0.000302964
0.000147743
0.000211162
0.000223004
0.000145419
0.000147585
0.00021331
0.000169032
0.000149964
0.000197789
0.0293486
0.000175855
0.000171
0.000147723
0.000147585
0.0243067
0.0295518
0.000182046
0.000994241
0.0394122
0.087056
0.000157843
0.0294484
0.0688689
0.0351251
0.000161262
0.000224829
0.000161888
0.000151584
0.000147793
0.00015385
0.000195315
0.000147108
0.000148699
0.000160629
0.000172875
0.000192415
0.0419867
0.000157889
0.000147442
0.000147809
0.000153073
0.000156862
0.0625059
0.0384143
0.000221624
0.000148355
0.000237959
0.000150727
0.000147771
0.000183432
0.000158058
0.000149825
0.000184753
0.000153244
0.0255756
0.000166809
0.000166024
0.0381801
0.000206834
0.000175164
0.00014991
0.000149648
0.000146589
0.000580569
0.000208225
0.000180216
0.0691646
0.00016198
0.0229227
0.000146765
0.000459402
0.000145884
0.000149296
0.000152385
0.00014842
0.00020359
0.000150688
0.000149022
0.000156191
0.000148689
0.00106166
0.000151533
0.000148165
0.000191663
0.000157999
0.000159286
0.000146263
0.000148402
0.000225385
0.000148029
0.000148274
0.000148568
0.000145728
0.000202031
0.000144288
0.000146963
0.000197716
0.000153379
0.000152354
0.0873752
0.000147443
0.000166081
0.0510528
0.0706852
0.00140297
0.000147621
0.00017344
0.000162071
0.000148817
0.000150108
0.000172974
0.000153538
0.000148221
0.000148002
0.000149499
0.0858981
0.0262349
0.000186025
0.000190421
0.000307949
0.000156243
0.000149905
0.000184748
0.000169331
0.000148496
0.000170005
0.00014801
0.00023538
0.000155638
0.000165735
0.000156956
0.000144285
0.0656
0.000150039
0.0578268
0.000211887
0.000291923
0.000160616
0.000176099
0.000146892
0.000146901
0.000148132
0.000149955
0.000167028
0.000147489
0.000157942
0.000159626
0.000157132
0.000152264
0.000192126
0.0782944
0.000151353
0.000147313
0.000147725
0.000179571
0.000148288
0.000175341
0.000165856
0.000147012
0.000149667
0.000208183
0.000237938
0.000149895
0.000162252
0.0401857
0.000146765
0.000154128
0.0487723
0.000158964
0.0392188
0.000148879
0.000155999
0.000177909
0.00020723
0.00014816
0.00015017
0.000167427
0.000167744
0.000164097
0.000303578
0.0378538
0.000155905
0.0870906
0.000146925
0.0843329
0.000149244
0.000167465
0.0368933
0.000177865
0.000177579
0.000148063
0.000171066
0.000152345
0.000158252
0.000168285
0.000147531
0.000148708
0.00018582
0.0829127
0.00017967
0.000162587
0.000151307
0.000148213
0.0475245
0.000146797
0.000148594
0.000208387
0.000147245
0.000156293
0.0597001
0.0664294
0.000151645
0.000144183
0.000147499
0.000158691
0.0556925
0.000147574
0.000204877
0.00174591
0.000166116
0.000178915
0.000150125
0.000198643
0.000154992
0.000161361
0.0452435
0.000149629
0.000203951
0.000150826
0.070326
0.000171305
0.000148052
0.000147791
0.00359741
0.000147881
0.000148438
0.0466828
0.00023715
0.0416763
0.000148862
0.000156617
0.000868626
0.0502428
0.0161654
0.000266206
0.000148521
0.000156742
0.000149909
0.000182486
0.000207385
0.0674379
0.000149501
0.000194018
0.000167301
0.000193142
0.0550448
0.000147368
0.073365
0.000205972
0.000215729
0.000148106
0.00017554
0.000153845
0.000149786
0.000162
0.000153934
0.000161565
0.000173044
0.000147018
0.000162193
0.000161623
0.000161071
0.00015338
0.000148566
0.0425938
0.000206705
0.08618
0.000146705
0.000159422
0.000209421
0.000156073
0.000208337
0.0613278
0.0320855
0.00674728
0.000148029
0.000171617
0.000166581
0.0476907
0.000153619
0.000161848
0.000150018
0.000208765
0.000145444
0.000192521
0.0732006
0.000153591
0.000162299
0.000150637
0.0848697
0.000146738
0.000146904
0.000147467
0.000152341
0.000202183
0.000144196
0.000147128
0.000147467
0.000162068
0.030788
0.000147118
0.000146996
0.000147114
0.000148445
0.000150826
0.0426266
0.000147475
0.000147943
0.000177679
0.000166455
0.000147591
0.000153136
0.000169593
0.0488483
0.000149694
0.000148643
0.000152
0.000146666
0.000226344
0.000188934
0.036009
0.000150721
0.0519928
0.000148394
0.000147807
0.000176727
0.000200567
0.0685689
0.000146895
0.000177148
0.000151455
0.000160197
0.000146443
0.0827479
0.000147483
0.000177813
0.0538857
0.000147422
0.000179068
0.00014994
0.000151007
0.000161727
0.000180337
0.085822
0.000172616
0.000147204
0.00014703
0.0662395
0.000146348
0.000153014
0.000166611
0.000148793
0.000148406
0.000147832
0.000147005
0.000223483
0.000319856
0.000149944
0.000169044
0.0247635
0.0439064
0.0257948
0.000198838
0.0718218
0.000148106
0.000148024
0.000146909
0.065064
0.0624351
0.000148349
0.000148395
0.000149488
0.000180946
0.069599
0.043863
0.000158237
0.000148686
0.000145529
0.000148959
0.000150016
0.000211557
0.000146775
0.0428562
0.000146359
0.000146425
0.000147517
0.000238415
0.000165657
0.0145726
0.000161332
0.000152667
0.000148859
0.00020095
0.0219861
0.048581
0.000193479
0.000148204
0.000147466
0.000194386
0.000205296
0.000185305
0.000159933
0.00014682
0.000160259
0.00014661
0.0370174
0.000169267
0.000211022
0.000179432
0.000145675
0.000146459
0.000146464
0.000153207
0.000147584
0.000312589
0.000163421
0.000176464
0.0451138
0.000146493
0.000168336
0.0249403
0.000148831
0.000161493
0.000153641
0.000265566
0.00014981
0.000148374
0.0412892
0.0126957
0.0850712
0.000147189
0.0001472
0.0464853
0.000162483
0.000147727
0.00014858
9.52161e-05
0.000154377
0.000146409
0.0473436
0.000230975
0.000179203
0.0324944
0.00014645
0.000156903
0.0447115
0.000147678
0.000148035
0.00014682
0.000234601
0.000151259
0.000148056
0.000185451
0.0135337
0.000182667
0.000169839
0.00014789
0.000149379
0.000189367
0.000172009
0.000151935
0.000149444
0.000146347
0.000149817
0.000197682
0.000162407
0.000196586
0.000156918
0.000207735
0.000144717
0.000156098
0.000146324
0.000188509
0.000147704
0.0533924
0.000149463
0.000146296
0.0455626
0.000147983
0.000200211
0.000158756
0.000159202
0.000200612
0.0001471
0.00014642
0.000153327
0.000147996
0.0366961
0.000219358
0.000148555
0.000209484
0.000237884
0.00016966
0.000151246
0.0483941
0.000148587
0.000185178
0.000145734
0.087026
0.0331562
0.000201562
0.0782101
0.000147395
0.0265842
0.000147724
0.0001474
0.000162354
0.000245555
0.000168771
0.000167607
0.000151145
0.000159827
0.000147734
0.000157283
0.000292992
0.000167148
0.0524224
0.000197809
0.00428442
0.00014708
0.000176897
0.000211386
0.0432834
0.000149745
0.00019051
0.000171584
0.000169132
0.000148118
0.0117126
0.000162268
0.000146601
0.0577712
0.000159449
0.000148826
0.000114099
0.0281744
0.000158458
0.000148083
0.000153385
0.000208941
0.0431881
0.000147206
0.000147031
0.000190744
0.000153041
0.0536873
0.000147704
0.0210627
0.000153048
0.04421
0.000144761
0.000190854
0.0598055
0.0716671
0.036397
0.068081
0.000148459
0.0860709
0.000147753
0.000246643
0.000151688
0.00014788
0.00019249
0.0574554
0.000214417
0.00014832
0.0502743
0.000147932
0.000191224
0.000148216
0.00014951
0.062879
0.000154234
0.0444505
0.000148094
0.000147902
0.0554441
0.000146913
0.000161263
0.000145633
0.000151029
0.000161465
0.000147266
0.000163691
0.000157735
0.000149269
0.000148435
0.032045
0.000181874
0.000246791
0.000260236
0.000149661
0.0001713
0.000155814
0.000165862
0.0478912
0.00018892
0.000154454
0.000213428
0.000147254
0.000175116
0.000187975
0.000147818
0.000211337
0.000209705
0.000193505
0.000149857
0.000161501
0.000149837
0.0246522
0.000182954
0.000148081
0.000147846
0.0546059
0.000160353
0.000211364
0.000161101
0.0775286
0.000154346
0.000163389
0.000166341
0.000147083
0.0570052
0.000188348
0.000146422
0.00018249
0.000209181
0.000168799
0.000177258
0.000243981
0.000219032
0.0857262
0.000166826
0.0152064
0.000149695
0.000146618
0.0109094
0.0647143
0.0299186
0.00015272
0.000147245
0.000148352
0.000153596
0.0423084
0.000149662
0.000173382
0.0298483
0.000211408
0.000221969
0.000145389
0.0588385
0.000149615
0.000304384
0.000168132
0.000164155
0.000145522
0.000150602
0.000147187
0.000225241
0.000165118
0.0861869
0.000251347
0.000148911
0.000205989
0.0270495
0.000147589
0.000163679
0.000174996
0.000169533
0.00014745
0.000156505
0.000147989
0.000144752
0.000147996
0.000161783
0.0298897
0.00017192
0.000156404
0.00020394
0.0428651
0.000149903
0.0813995
0.000148029
0.000148822
0.000149558
0.000170196
0.000264548
0.000358601
0.000199682
0.000147973
0.00016602
0.000219772
0.000148772
0.000148377
0.000177098
0.00014724
0.000148746
0.000156186
0.00029908
0.0453626
0.000149725
0.000243844
0.00017503
0.000215533
0.000153715
0.0492502
0.00077709
0.000153799
0.000169781
0.000248009
0.000180849
0.00014774
0.000168557
0.000146794
0.000147786
0.000151804
0.00014951
0.000185558
0.000149663
0.000157492
0.000147904
0.0759777
0.00014779
0.000225945
0.000281174
8.21934e-05
0.000144199
0.000148021
0.000185568
0.000160936
0.000171409
0.000158474
0.0564186
0.000147393
0.000187174
0.000148327
0.000146765
0.000234485
0.000166805
0.0258455
0.000147758
0.000147705
0.000173715
0.0339608
0.000148096
0.000173252
0.0763778
0.000147948
0.000147559
0.000160941
0.0834719
0.00014887
0.000148423
0.000187598
0.0535841
0.0255085
0.000147644
0.0279471
0.000149709
0.00017488
0.00639644
0.0112725
0.000147147
0.0632032
0.000145497
0.034767
0.000287781
0.0464339
0.000192424
0.000148321
0.000185236
0.000217051
0.0345342
0.000147874
0.000145675
0.000160154
0.000226245
0.000149116
0.000147659
0.000170215
0.000149471
0.000147868
0.000203307
0.0370015
0.000187226
0.000146766
0.0547899
0.00171202
0.000168859
0.000148191
0.0307717
0.000174268
0.000158092
0.000148101
0.000145585
0.000144229
0.0001478
0.000148322
0.0764116
0.0362156
0.000149237
0.000148805
0.000207052
0.000147822
0.00126689
0.000193013
0.000147531
0.000257293
0.000209213
0.000161944
0.000149707
0.0633818
0.000150988
0.000147596
0.000148018
0.000156649
0.000162022
0.000147138
0.0287497
0.000146182
0.000148212
0.0424062
0.000207359
0.000218569
0.000168827
0.000193867
0.0621959
0.000153865
0.000163027
0.0302447
0.000178059
0.000146695
0.0782109
0.0498342
0.000151611
0.000149445
0.0730966
0.000166906
0.0588099
0.000151757
0.000148815
0.000150326
0.000211463
0.000162363
0.000148755
0.000150657
0.0723412
0.000174384
0.000176411
0.000149361
0.000148919
0.0433206
0.000149662
0.000161882
0.0319071
0.0432447
0.000149053
0.000149102
0.0585513
0.000192944
0.0473283
0.055238
0.000161698
0.000151839
0.000177214
0.000158301
0.000148663
0.000146073
0.000197838
0.000150405
0.0562807
0.0776362
0.000166835
0.0527858
0.000212955
0.000178743
0.000159163
0.0540822
0.000161406
0.000211094
0.000241658
0.0257991
0.000247045
0.00015687
0.000156685
0.000167443
0.000148334
0.0452581
0.000151436
0.0001524
0.000218775
0.0537313
0.000197221
0.000152676
0.000292367
0.000169083
0.000171354
0.000197933
0.000167254
0.0865287
0.000147573
0.000185468
0.0857003
0.00024484
0.000174281
0.0001451
0.000347248
0.000172857
0.0270267
0.0247157
0.000148634
0.000177055
0.000149148
0.000208394
0.000146682
0.000147804
0.0625739
0.000178928
0.000148602
0.000146006
0.000145578
0.000149474
0.000164891
0.0564125
0.0481902
0.000148782
0.000148439
0.000148233
0.000145137
0.000213865
0.0483646
0.00016628
0.000208055
0.00020336
0.00016496
0.000213447
0.000148818
0.000303024
0.000623181
0.000191869
0.000149137
0.00016965
0.000473758
0.0626385
0.000148113
0.000146939
0.000147606
0.000148049
0.0429697
0.000149033
0.000156771
0.000154721
0.076542
0.000196281
0.000153675
0.000210491
0.000156259
0.000148061
0.000211644
0.0508179
0.000147001
0.000145765
0.000145006
0.000145572
0.000169241
0.000180689
0.00014969
0.0001493
0.000147343
0.000191421
0.000203828
0.000147357
0.000152362
0.000184873
0.000148165
0.000169397
0.000146008
0.000160786
0.000148487
0.000147795
0.000162999
0.000159921
0.000151424
0.000148034
0.000146899
0.0382728
0.000148064
0.000148699
0.000149016
0.000148263
0.000158983
0.00016033
0.000192857
0.000148542
0.000160516
0.000178295
0.000146207
0.000148471
0.0672948
0.000173787
0.0243141
0.000148747
0.0346875
0.0374004
0.000147981
0.00014971
0.0642886
0.000147783
0.0097066
0.000248197
0.0614327
0.00020897
0.000147735
0.0654809
0.000180299
0.000206894
0.000189214
0.00014894
0.000147573
0.0312411
0.000148194
0.0284014
0.000168743
0.000150255
0.000152548
0.000152144
0.000145945
0.000312013
0.00990083
0.0474695
0.000156331
0.0321023
0.000147331
0.000148789
0.000147505
0.000148645
0.000249139
0.000173132
0.000150086
0.000166267
0.000147995
0.000150917
0.0629559
0.000168554
0.0502775
0.000152762
0.000152551
0.000147748
0.000211775
0.000149204
0.000162079
0.0307217
0.0476798
0.000147874
0.000147606
0.000152254
0.000147648
0.000172442
0.0566456
0.000149709
0.000147344
0.000161772
0.000146402
0.00208261
0.000148847
0.000150699
0.000148781
0.000209477
0.0547475
0.000155206
0.0390206
0.000185522
0.000191466
0.0114805
0.0302922
0.0599174
0.031958
0.00722123
0.000149246
0.000147029
0.00015313
0.000175456
0.0518414
0.0245078
0.000158832
0.000180128
0.000145376
0.000147515
0.000147251
0.000171162
0.0367809
0.00014934
0.0428778
0.000148507
0.000148389
0.046825
0.000147759
0.0855885
0.00014645
0.000189573
0.000154055
0.000174352
0.000147075
0.00015021
0.000148089
0.000148025
0.0192307
0.000759464
0.000148086
0.000148473
0.0568537
0.000167298
0.000163237
0.0298101
0.059962
0.000157722
0.000150682
0.000211158
0.0629919
0.0296982
0.00016478
0.000147822
0.084594
0.000146986
0.0641947
0.000152116
0.000250274
0.000148001
0.000187997
0.00014693
0.000148497
0.000172262
0.000219219
0.000196718
0.000152147
0.000146995
0.0522712
0.0430699
0.000146822
0.0512922
0.000151231
0.000148386
0.000148612
0.060577
0.000148333
0.065261
0.000147789
0.000183885
0.046322
0.000146718
0.0225994
0.000149198
0.000208648
0.000203719
0.000148347
0.00014916
0.00537642
0.000150214
0.000205632
0.0365868
0.000206853
0.000147731
0.000147195
0.000178933
0.000152237
0.000151165
0.000149289
0.0423469
0.000152421
0.00015895
0.000154025
0.0278879
0.000154612
0.000147976
0.000146865
0.000112371
0.000149224
0.0292553
0.00016064
0.000236892
0.000149712
0.000184329
0.000237659
0.000147702
0.000147157
0.000164564
0.0512633
0.000147716
0.0756546
0.000193825
0.000156719
0.000167552
0.0677117
0.000148077
0.00016207
0.000155401
0.000155765
0.00014826
0.000149525
0.000166429
0.000178485
0.0613016
0.000152123
0.000217397
0.000215704
0.000147382
0.000655007
0.000177474
0.000209179
0.0486693
0.000159078
0.0518023
0.0477244
0.000150803
0.000147893
0.000145524
0.000153662
0.000178195
0.000198298
0.000148186
0.000178075
0.000147516
0.000175068
0.000151135
0.000147723
0.000189056
0.000173013
0.000147695
0.00014604
0.0480528
0.0581626
0.000657133
0.000146784
0.000160124
0.0202434
0.000147942
0.0667256
0.000147727
0.00017314
0.000156489
0.000147779
0.000153735
0.000185637
0.000159321
0.0485313
0.000149096
0.000152146
0.000144246
0.000184348
0.000147821
0.000146037
0.0657651
0.000147904
0.000204779
0.000176874
0.0236226
0.000156164
0.000298639
0.000240389
0.000162528
0.000153988
0.0325972
0.000208735
0.0236619
0.000210334
0.00015886
0.05325
0.000147667
0.000156461
0.0013217
0.000146596
0.000166548
0.000148729
0.000262036
0.000146515
0.00017634
0.000159817
0.000218457
0.000152193
0.000153903
0.000183454
0.000156128
0.000193662
0.06671
0.000219915
0.00014789
0.000183835
0.065087
0.000147829
0.000198525
0.000148688
0.000206869
0.000167016
0.00015309
0.000172354
0.000178677
0.000190292
0.000161692
0.000148513
0.040075
0.0273668
0.00016799
0.000147278
0.0863084
0.000148321
0.0567519
0.000248597
0.045916
0.000242866
0.000219494
0.00808429
0.00016344
0.000204225
0.000148694
0.000152419
0.000178449
0.000146736
0.0502772
0.0245439
0.000208465
0.048964
0.000162256
0.000144313
0.000226971
0.0165793
0.000147309
0.00017269
0.000172107
0.0685318
0.000148542
0.000211809
0.0575537
0.000235196
0.000209095
0.000145974
0.000149527
0.000144368
0.000153853
0.0724361
0.000372397
0.000233754
0.015047
0.0697218
0.000147919
0.000145039
0.000202797
0.0270034
0.0403047
0.000152039
0.000205472
0.0002731
0.000157489
0.000171838
0.000147196
0.0357867
0.000147502
0.000181114
0.000234758
0.000150098
0.000146987
0.0588327
0.000147046
0.00016155
0.000172883
0.000146026
0.000195022
0.000157753
0.0528093
0.058952
0.000193236
0.0521674
0.000159343
0.000151858
0.00014904
0.000151303
0.000147761
0.0567167
0.000169757
0.000155401
0.000149667
0.058533
0.0391251
0.00014491
0.00015763
0.000147164
0.0431865
0.0620588
0.000176794
0.000148478
0.000148513
0.000148074
0.000154546
0.0422982
0.000149713
0.000204974
0.0577887
0.000147644
0.017624
0.0670078
0.0001538
0.0333944
0.000147174
0.0199269
0.000165001
0.0395421
0.000160944
0.0398985
0.000145923
0.000211746
0.000171574
0.000178475
0.000150166
0.000157349
0.000146652
0.000148534
0.0393464
0.000221869
0.000152882
0.0696938
0.036686
0.000145853
0.039888
0.000151895
0.00543795
0.0652917
0.000215853
0.000191113
0.000375637
0.085686
0.0593871
0.000181224
0.000153691
0.0503602
0.0278795
0.0306642
0.000193018
0.000181875
0.000148548
0.000149686
0.0001491
0.000144372
0.00014784
0.0674331
0.00014593
0.000153851
0.000148917
0.000186468
0.000148569
0.00014608
0.000147967
0.000178812
0.00015078
0.000149214
0.000148735
0.000148207
0.000165704
0.00015175
0.000145945
0.0580989
0.000147801
0.000147135
0.000165833
0.000150331
0.000156451
0.000147605
0.000251791
0.000196609
0.000147733
0.000161505
0.000148154
0.000147392
0.0370421
0.000161063
0.000147881
0.0241852
0.000144703
0.00021894
0.000186613
0.000147444
0.000165389
0.000156285
0.000287956
0.000210687
0.000150545
0.000184977
0.000152313
0.000148241
0.000184842
0.0526519
0.000148385
0.000149979
0.000147006
0.000155943
0.000144022
0.000156193
0.000174271
0.0421852
0.000156241
0.000147465
0.0601495
0.000152312
0.0362044
0.000147752
0.000194062
0.000162792
0.000194262
0.000147762
0.000297906
0.058499
0.00015338
0.0285211
0.000193774
0.000148252
0.0679324
0.000148785
0.000147797
0.000147858
0.000159728
0.000152473
0.0296397
0.000149201
0.000158895
0.000153001
0.0719129
0.00014829
0.000156329
0.0001468
0.00017371
0.00014551
0.000149111
0.000145831
0.000148826
0.000214625
0.000147264
0.0377348
0.0720598
0.000147032
0.000621206
0.000178194
0.000171342
0.0462859
0.0770352
0.0107881
0.000133405
0.0428753
0.000199196
0.000168727
0.000149692
0.00015382
0.000156364
0.00226505
0.000148124
0.000179015
0.0137466
0.000149513
0.0685985
0.0001918
0.0324297
0.000148247
0.000156189
0.000148042
0.000145625
0.000185284
0.0536118
0.000197256
0.000226709
0.000172291
0.000148034
0.000860504
0.000184908
0.000208813
0.000153903
0.000145514
0.0456358
0.0581804
0.000149766
0.00014995
0.000148128
0.000147285
0.000148398
0.000153093
0.0499765
0.000152623
0.000147702
0.0696312
0.0332191
0.000147447
0.000153999
0.000146439
0.0394805
0.00014683
0.000147171
0.0630825
0.0646281
0.000148093
0.000162379
0.0854704
0.000173618
0.000180003
0.000178048
0.000146625
0.0548121
0.000148289
0.000217393
0.0866445
0.000162148
0.000203157
0.000172308
0.000165529
0.000149917
0.000152357
0.000148265
0.00020683
0.000148284
0.00014767
0.000148715
0.000158736
0.000239384
0.0257169
0.000151931
0.00014547
0.000144948
0.00014935
0.0663637
0.0238412
0.0274071
0.000169802
0.000152299
0.000146965
0.000149446
0.000156649
0.0320522
0.000157856
0.000185156
0.0472053
0.00046152
0.000192076
0.000156481
0.000150871
0.000147516
0.000147861
0.000149718
0.000153741
0.000147589
0.000146982
0.000149423
0.0727274
0.000187306
0.000147358
0.000171143
0.000145585
0.0216984
0.0439579
0.000173383
0.0522155
0.060368
0.00015503
0.0863528
0.000241738
0.00014754
0.0257841
0.0642095
0.000222294
0.000167902
0.000148287
0.000147507
0.000146745
6.13781e-05
0.000181545
0.000177043
0.000187104
0.000165521
0.000147182
0.0747944
0.0770351
0.000176813
0.000219449
0.00014781
0.000208385
0.000160977
0.0440526
0.000219699
0.0574784
0.000153927
0.000152315
0.000184657
0.000182416
0.000145669
0.0252816
0.0753652
0.000178457
0.0591447
0.00264369
7.33439e-05
0.0136666
0.000239038
0.000152666
0.000202995
0.000239635
0.000158066
0.0546012
0.000150445
0.000151972
0.0849812
0.000147552
0.000144562
0.000144494
0.000184087
0.000150603
0.00014751
0.0631583
0.000149422
0.0290167
0.0764037
0.00079015
0.000339275
0.000147869
0.000166271
0.000145484
0.000195773
0.000203239
0.000147714
0.000286245
0.000200402
0.000170049
0.000146075
0.000198581
0.000166375
0.00028975
0.000184593
0.00015652
0.000149767
0.000151656
0.0628614
0.000172871
0.000168221
0.000106474
0.000150702
0.000147917
0.000146993
0.084362
0.000147018
0.000180405
0.000145688
0.0282208
0.000150011
0.00047267
0.000172465
0.0694103
0.000243697
0.0495047
0.000152843
0.000169811
0.000190668
0.000155506
0.000148987
0.00015925
0.0309504
0.000196164
0.000147528
0.000172646
0.0390415
0.000147676
0.000173153
0.000147697
0.0585861
0.0527631
0.000149885
0.000150678
0.000151346
0.028462
0.000147779
0.0690792
0.0640713
0.000207511
0.0604769
0.0318378
0.000149776
0.000149582
0.000147186
0.0345579
0.000151538
0.017845
0.000147362
0.000183078
0.000149965
0.000193809
0.000151076
0.000239521
0.000198816
0.000187106
0.00022164
0.032608
0.0436514
0.000148498
0.0001818
0.0518095
0.000148999
0.000240099
0.000150013
0.000170661
0.000156352
0.000164863
0.000147477
0.0627344
0.000149712
0.0563867
0.000149246
0.0498046
0.000173618
0.000148394
0.000146674
0.000168518
0.000162162
0.000151891
0.000211559
0.000153302
0.000187955
0.000191577
0.000169538
0.000147521
0.000583848
0.000183382
0.0642642
0.000218617
0.000147207
0.0188165
0.000246555
0.000207161
0.000148383
0.0354182
0.000159759
0.000148085
0.0627508
0.0333051
0.000147962
0.000156309
0.00014676
0.000176293
0.000182206
0.000176527
0.0572017
0.0406493
0.000171986
0.000148387
0.000157936
0.000177196
0.000147501
0.000183801
0.000147491
0.000149422
0.000215951
0.00015904
0.000155269
0.000187422
0.000153807
0.000147409
0.000166717
0.000206214
0.00014749
0.000155882
0.000148741
0.000161684
0.000195549
0.056406
0.023352
0.000240839
0.000145491
0.0510744
0.000172438
0.000152611
0.000172141
0.000153773
0.000190867
0.000168579
0.0512152
0.000149932
0.000147991
0.000221065
0.0852164
0.0333883
0.000145509
0.00014625
0.000148504
0.000146583
0.0236496
0.000202838
0.000150129
0.00014942
0.0236209
0.0524613
0.000263747
0.0758702
0.000146744
0.000170155
0.00016911
0.000168122
0.000200574
0.000147244
0.0363351
0.000190429
0.0248817
0.000146971
0.0616429
0.000255786
0.000149665
0.000177093
0.0302906
0.000145866
0.000149351
0.0427401
0.0463612
0.0596633
0.000150202
0.000150418
0.000149313
0.0535712
0.0614015
0.000173066
0.051913
0.000148248
0.0320464
0.0667675
0.000148506
0.051754
0.00014985
0.000195068
0.000203073
0.073049
0.000146831
0.000154236
0.0001711
0.0753986
0.00015209
0.0631408
0.000167586
0.0857775
0.000172599
0.000153914
0.000147401
0.000179311
0.000148356
0.000145813
0.000147121
0.000219475
0.000159828
0.000149809
0.0289739
0.000158184
0.0469937
0.000147298
0.000154914