/*--------------------------------*- C++ -*----------------------------------*\
| =========                 |                                                 |
| \\      /  F ield         | OpenFOAM: The Open Source CFD Toolbox           |
|  \\    /   O peration     | Version:  v2012                                 |
|   \\  /    A nd           | Website:  www.openfoam.com                      |
|    \\/     M anipulation  |                                                 |
\*---------------------------------------------------------------------------*/
FoamFile
{
    version     2.0;
    format      ascii;
    class       volScalarField;
    location    "400";
    object      omega_0;
}
// * * * * * * * * * * * * * * * * * * * * * * * * * * * * * * * * * * * * * //

dimensions      [0 0 -1 0 0 0 0];


internalField   nonuniform List<scalar> 
27915
(
0.0254113
0.204416
5.39652
4.09113
0.0527877
0.0262878
6.63484
0.0690825
0.0554617
0.0602786
0.039718
0.0255107
0.624797
3.46688
5.12768
0.0282219
4.04715
0.0492505
10.4848
0.0262681
3.4326
0.0252346
4.0506
0.0254073
0.025218
0.0251591
0.0253024
1.70545
4.14783
5.00319
0.163645
0.0249216
4.07221
0.0262853
10.0595
0.0252991
0.0252941
0.0351015
0.0844197
0.0279606
0.0253031
0.0351439
0.0253761
0.175276
0.188069
0.0255516
0.025387
0.0373691
0.0252062
0.0251525
0.0385501
0.173062
0.148809
0.0279753
1.97654
5.7169
4.53674
0.0251627
0.025233
4.17896
0.0249251
0.0647905
0.0945149
4.75326
0.0256852
0.0292054
0.0442973
0.242752
4.50769
0.0285267
0.0354245
5.36531
0.0253319
0.0251458
0.0355233
0.0644529
0.0940799
0.032183
18.5903
0.0255548
0.0349374
0.0280772
0.0251586
0.0251441
6.39976
0.0249528
0.025205
0.0283571
0.845224
0.0504608
0.0253076
0.67783
0.0280601
0.160323
0.0278371
0.0388205
5.75822
0.0288443
0.0252599
5.41904
0.0252289
0.0255662
12.1555
0.0355288
0.025365
0.0254024
0.0253635
0.0754821
0.0899338
0.0589213
0.0255032
0.0262736
2.26443
3.69098
8.56786
0.182024
6.66008
0.0252396
0.0554333
0.024768
0.316369
0.0550958
0.132688
0.0502097
0.0261804
0.0247951
0.0262908
4.14687
0.0920635
0.0279479
0.0279023
0.0253388
0.0249495
5.7803
5.5378
7.26273
0.0252939
0.0251518
0.0308955
0.0249543
4.35181
4.23532
0.0267252
5.1822
0.0721806
0.0253108
0.0257059
4.44531
0.300172
0.0251508
0.0251683
0.0323487
0.160511
4.0808
0.0994325
0.0318182
0.0251808
0.0251922
0.0279203
0.0265719
0.0876161
0.12144
0.0931704
0.0252103
0.0253166
0.0271156
7.04335
0.221575
0.0251435
0.185171
5.8713
0.0251928
4.04261
0.0253514
0.0256918
0.173576
0.0456461
0.0254175
0.0256514
2.23438
0.0251669
0.0454015
0.0253585
5.79329
3.64654
0.0558531
0.092654
0.0254046
5.58243
0.0379866
0.0253731
0.278365
0.0254092
0.0253904
0.0253442
4.56363
0.0255089
0.0356774
6.70892
6.51353
0.164172
2.51483
0.0339639
0.329778
0.0253756
0.0293421
4.48385
0.0299178
0.0300154
0.180379
4.82872
0.0253805
5.41978
0.0262601
0.0537019
0.0253312
0.178467
6.73335
0.059592
0.0328084
4.47686
0.241266
0.130242
0.0254796
0.0342717
0.0355431
0.0638893
0.0254067
2.12781
0.0251826
3.91623
0.0249631
11.5046
0.0315783
0.0251935
0.025498
4.98174
0.0263713
0.75801
0.0252286
0.0253952
5.89951
22.0196
0.0554664
0.0254513
0.0284765
0.200911
0.0262788
0.620796
0.161893
0.0253661
0.0371551
0.156792
0.0252343
0.0400694
0.0272995
0.0374726
0.0270684
0.309927
3.98748
4.71271
0.0257346
0.0253253
0.0248978
0.0395621
0.160671
0.0247334
0.0254953
0.0919596
0.0253663
0.0252349
0.0253465
16.0422
0.048856
0.0262555
4.96657
0.0264246
4.44851
3.64476
4.67892
0.238269
4.15876
0.0285203
5.00413
0.0307043
0.0284117
0.114617
0.0262674
0.878105
4.56532
0.158383
0.0400442
0.0253011
0.162534
0.0292135
0.0249551
0.0253661
4.51847
0.13022
0.025318
0.253077
0.0251474
0.0395623
0.025367
0.1536
4.10039
0.0253363
2.07846
0.0252409
0.131886
6.74416
5.59879
4.234
0.0262893
4.20144
0.0249601
0.0250691
0.0249642
0.0638029
0.241799
5.83494
0.0250661
0.025631
0.0266717
0.255869
0.0284645
0.0252146
0.0888301
0.0523894
0.0594212
0.025305
4.80055
0.0312101
4.40567
4.52925
0.0560747
0.100631
0.247704
0.159347
0.0272448
0.0302245
0.0554954
0.0627643
0.241372
1.49416
4.25448
0.0252356
0.1003
0.0854946
0.0279042
0.111491
3.97918
0.18036
0.0360355
3.70888
0.138591
0.033738
0.0253177
4.24836
0.0945702
4.53258
0.0251296
0.0253875
0.316628
0.0863907
0.02565
13.7093
0.0875089
0.0394559
0.0396207
0.0346735
0.22924
0.0280993
0.0417558
0.0672527
0.0259747
0.0253185
0.0254098
4.33651
0.0284874
5.71995
0.0255679
0.203209
0.0894462
0.0253406
0.100041
0.0934405
0.0329653
1.41365
0.117863
5.30076
0.0362952
0.105082
0.0430611
0.0254459
0.0554374
22.4663
4.65865
0.025568
0.181243
4.36638
0.0344155
0.0254572
0.0256847
4.15891
0.0255042
0.147162
0.0254565
0.0594097
0.0533506
0.0252949
0.0359051
0.0256557
0.0439536
0.0266
0.328379
0.0253007
0.250785
0.0385073
0.0252245
4.25678
0.240149
0.066505
4.66429
0.0546322
0.313398
0.0533692
0.0251349
0.0253601
0.0262716
0.0312359
0.0347988
0.0877718
0.317085
3.80225
0.0314131
0.0254799
7.64343
0.0252802
4.4332
0.025587
0.0254464
1.24965
0.136363
0.0252943
0.12051
0.04289
4.47842
0.0358934
0.0252792
0.0268346
0.0291323
0.0253707
9.90946
0.0254139
0.0259989
6.31196
0.025128
0.0282177
3.91412
5.00413
0.0251984
0.306014
0.0324698
14.3276
0.0323396
4.35957
4.1753
0.025413
0.0513531
0.125269
0.0252113
3.59037
0.0251234
0.0256932
0.169668
0.271422
4.67813
0.0262905
0.0452108
0.0552319
0.0655899
4.70083
3.88343
0.0253862
0.0249073
0.0263218
0.0260176
0.0436824
0.0273334
0.0251389
0.0297409
5.41401
0.0257625
0.0344711
0.0362222
0.0256923
0.0293203
0.196973
0.0321891
0.0277414
0.0252229
0.198918
4.73032
19.5661
0.225916
0.157934
0.0247322
0.117136
0.0253184
0.024841
0.0251673
0.172016
0.02538
4.53947
4.22641
0.0475586
0.0278632
5.6756
0.0415104
0.0829585
0.0252136
0.0253878
5.45836
0.0359479
0.0270923
0.150932
0.0256164
0.0252937
0.0257795
0.0273502
0.0252322
0.025352
0.0254112
0.0259075
0.0274453
0.0252042
4.18491
0.19702
0.0965987
0.0256061
0.0269553
0.0252083
0.105932
0.0250778
0.0249416
0.0314231
0.0251101
0.281977
0.0253778
7.88127
3.48276
0.278332
0.0254767
3.84848
0.242256
0.0253284
0.0252083
1.64133
0.0263318
0.0534285
0.0255628
10.7636
0.0265876
0.275973
0.0330335
0.0254268
0.238547
4.51002
0.0256995
0.0253099
0.0256659
0.0253158
0.0984983
0.0313644
0.0253814
4.42015
5.47711
1.75895
0.0252187
0.183239
0.233631
0.0249039
0.025261
0.188237
0.0650989
0.025746
0.114596
3.84251
0.0637874
0.0791532
0.025231
0.0253139
7.25226
5.27046
0.211891
2.62914
3.24787
9.71517
0.0294357
7.25382
15.0953
4.98548
0.0319465
0.241744
0.0359745
0.0261641
0.0251787
0.0280508
0.139016
0.0252229
0.0251996
0.0332077
0.065492
0.101891
4.177
0.034592
0.0251252
0.0253507
0.0280789
0.0289078
20.0358
3.22215
0.234881
0.0254365
0.294173
0.0262681
0.0252517
0.0705297
0.0295478
0.0256723
0.0746654
0.0282703
4.2204
0.0371025
0.0402425
3.93422
0.198196
0.0722601
0.025686
0.0256442
0.0251415
2.60511
0.162162
0.0981164
5.47046
0.0353004
8.00363
0.0249369
7.21541
0.0249432
0.0256026
0.0268175
0.0252132
0.199695
0.0262464
0.0253811
0.0280593
0.025422
2.93255
0.0260483
0.0254043
0.0911984
0.0293486
0.0342528
0.0250396
0.0252121
0.244695
0.0253171
0.0251551
0.0251715
0.0249287
0.13565
0.0247528
0.0249722
0.119298
0.0283952
0.0267799
9.35649
0.0252874
0.0403329
3.79247
5.72309
2.97861
0.0253148
0.0672467
0.0324272
0.0255117
0.0258898
0.0463017
0.0277856
0.0254076
0.0252898
0.0255716
8.68276
6.98773
0.0776449
0.119144
1.70495
0.0311197
0.025685
0.0747643
0.0812322
0.025456
0.0587142
0.0253175
0.295016
0.0310386
0.0611171
0.0309509
0.0247542
15.4717
0.0258657
4.08594
0.201045
0.912628
0.0332016
0.10904
0.0249598
0.0251947
0.0253944
0.0256928
0.0373271
0.0252403
0.0294355
0.0311888
0.0290726
0.0273107
0.100788
5.46026
0.0259954
0.025265
0.025169
0.0581748
0.0254198
0.0629874
0.0368241
0.0252076
0.0256475
0.162162
0.3103
0.0257053
0.0326081
4.15286
0.0249353
0.0270331
3.69909
0.0307785
6.19148
0.0255217
0.0290345
0.0537927
0.219633
0.0253992
0.0259864
0.0491284
0.0531309
0.0492672
1.00097
4.71859
0.0289546
9.63987
0.0252054
8.83987
0.0254125
0.0488642
4.11221
0.0689879
0.0533193
0.0253325
0.044542
0.0273516
0.0294822
0.0625029
0.025299
0.0254238
0.0767091
13.116
0.0953327
0.0351059
0.0259635
0.0253149
4.467
0.0249779
0.025473
0.226004
0.0252545
0.0280272
5.2193
4.41326
0.0262617
0.0247377
0.0252915
0.0306074
4.87681
0.0253115
0.232659
2.29877
0.0371478
0.0592234
0.0259651
0.12632
0.0259167
0.0406153
4.96205
0.025636
0.183464
0.0260155
4.62802
0.0448805
0.0253336
0.0253357
4.17616
0.0253133
0.0253614
3.60783
0.305894
3.95665
0.0255179
0.0310061
1.83044
4.58342
17.7207
0.729598
0.0254603
0.0307381
0.0257283
0.141976
0.200024
5.74123
0.0256881
0.101267
0.0531073
0.121305
4.87024
0.0251158
4.88136
0.151664
1.25751
0.0253825
0.0727464
0.0286664
0.0256658
0.0336495
0.0287367
0.0321678
0.0453956
0.0251859
0.0469408
0.0322451
0.0374584
0.0278168
0.0253506
3.39841
0.154965
8.79609
0.0250869
0.0310239
0.180123
0.0315673
0.162519
4.26892
4.74696
17.7496
0.0253816
0.0568638
0.0616692
3.69014
0.0285676
0.0341183
0.0257322
0.164554
0.0248881
0.0958485
4.82597
0.0285325
0.0345813
0.0262426
8.96003
0.0250957
0.0251816
0.0252118
0.0265412
0.137871
0.0247411
0.0252276
0.0252406
0.0465902
5.08517
0.0252149
0.0251702
0.0252126
0.0252311
0.0260125
3.9064
0.0252059
0.0252845
0.0563074
0.0371652
0.0253095
0.0281755
0.0575529
4.61691
0.0256617
0.0253684
0.0266339
0.0250858
0.246579
0.0948017
5.65771
0.0262821
3.83635
0.02532
0.0253167
0.052505
0.205447
4.59801
0.0251817
0.0572718
0.0261705
0.0324899
0.0248781
7.27709
0.0252919
0.0567554
3.94335
0.0252294
0.0563081
0.0258712
0.0261087
0.032251
0.0598011
6.33021
0.0448761
0.025159
0.0251885
4.44473
0.0250679
0.0275545
0.0617317
0.0255072
0.0252205
0.0251452
0.0251745
0.234154
1.43687
0.0256893
0.0793451
4.78788
3.47516
5.22975
0.124712
4.83421
0.0252844
0.0253542
0.0249597
5.23855
4.33843
0.0254297
0.0252257
0.0256726
0.129828
4.58268
3.46917
0.0353451
0.0254886
0.0249538
0.0255338
0.0259097
0.179248
0.0251004
3.435
0.0249886
0.0250189
0.0252959
0.351129
0.0600391
3.97
0.040407
0.0277254
0.0254655
0.131698
4.74172
3.68892
0.121697
0.0254068
0.0252058
0.165012
0.149335
0.291955
0.0392207
0.0249476
0.0343368
0.0250495
3.19094
0.0428793
0.183941
0.121772
0.0248838
0.0250296
0.0250279
0.0275784
0.0252645
1.37721
0.0435632
0.0523825
3.58026
0.025125
0.0632387
7.22723
0.0255134
0.0383573
0.0285686
1.42673
0.0256695
0.025183
7.3558
3.91767
10.0016
0.025245
0.0251189
4.52863
0.0326924
0.0252284
0.0251442
1.03147
0.028567
0.0250795
3.65502
0.623747
0.057345
7.55235
0.0249556
0.0313599
4.39705
0.0252831
0.0253589
0.024947
0.275776
0.0261834
0.025384
0.0749097
5.60235
0.085866
0.0442826
0.0252815
0.0256004
0.0963637
0.0451382
0.0266014
0.0254891
0.0250658
0.0256707
0.114252
0.0326417
0.164822
0.0286825
0.224778
0.0247612
0.0315655
0.025072
0.154098
0.0252387
4.23955
0.0255554
0.0250443
4.59014
0.0252885
0.129913
0.0298891
0.0331433
0.135753
0.0252247
0.0250203
0.0278204
0.0251088
4.16279
0.224244
0.0253843
0.178654
0.310326
0.0439419
0.0254249
5.32329
0.0254738
0.0742028
0.0248239
9.38498
4.84472
0.209613
5.20134
0.0252793
5.47171
0.0252396
0.025143
0.0397269
0.300601
0.0425631
0.0539934
0.0261566
0.0325832
0.0253373
0.0312237
1.16281
0.0592278
3.84779
0.114588
17.0066
0.0252208
0.053019
0.186539
3.4391
0.0256493
0.0872269
0.0516481
0.0407875
0.0253997
3.48133
0.0363259
0.0251434
4.4692
0.0322699
0.0255121
0.937496
7.55508
0.0321538
0.0253179
0.0277502
0.17687
3.43314
0.025096
0.0252062
0.0877109
0.0272859
4.27887
0.0253322
4.53095
0.0273146
3.79799
0.0247525
0.0879793
4.77559
4.73515
4.73922
4.59573
0.0254511
6.28821
0.025231
0.303173
0.0262635
0.0253622
0.096038
4.17022
0.193475
0.0253154
4.60111
0.0253619
0.0891907
0.0254028
0.0254964
4.70923
0.0276338
4.12789
0.0253386
0.02536
4.53861
0.025122
0.0416051
0.0248147
0.0260068
0.0371362
0.0251094
0.0336377
0.0345537
0.0255826
0.0252227
5.4358
0.0844366
0.294833
1.67425
0.0256317
0.0447332
0.0311941
0.058619
4.38944
0.350114
0.0277495
0.188809
0.0251025
0.152431
0.113592
0.0253448
0.184846
0.173822
0.121604
0.0256769
0.0399068
0.0258294
6.57431
0.0868911
0.0253361
0.0250896
4.85075
0.0355372
0.195722
0.0426242
5.25598
0.0271204
0.0433826
0.0401417
0.025149
5.21017
0.167914
0.0248786
0.0857099
0.171209
0.0849624
0.0679498
0.329288
0.248785
9.06222
0.0437951
8.73572
0.0256518
0.0250465
5.99497
4.58554
5.68944
0.0277912
0.0252274
0.0254314
0.0285718
6.26982
0.0256459
0.0519005
4.72427
0.197301
0.541863
0.024898
4.20081
0.0256382
0.85114
0.0419879
0.0357466
0.0247999
0.0256335
0.0252214
0.298524
0.0384904
6.46783
0.339798
0.0254772
0.172762
5.33913
0.0252539
0.0351657
0.107136
0.0430962
0.0252829
0.0315378
0.0253749
0.0247667
0.0252737
0.0323329
5.36775
0.077058
0.0314381
0.587755
4.49496
0.0256846
9.34961
0.0253771
0.0255114
0.0257099
0.0541108
0.634295
1.2588
0.127256
0.0253771
0.0594128
0.257341
0.0255044
0.0254343
0.0785506
0.0252294
0.0255016
0.0316019
0.955243
4.17328
0.0257767
0.39038
0.15197
0.217339
0.0279751
4.49965
2.3492
0.0285471
0.0421945
0.346801
0.194817
0.0253317
0.0421771
0.0251771
0.0252187
0.0268927
0.0255048
0.111195
0.0256467
0.0340928
0.0253536
5.26504
0.0252885
0.247014
0.75616
0.476662
0.0247404
0.0253515
0.145134
0.0318871
0.0448724
0.0352195
4.28419
0.0250188
0.315292
0.0253051
0.0251711
0.699633
0.057705
4.65797
0.0252143
0.0253024
0.0610351
4.83839
0.0253366
0.0527646
5.7672
0.0251077
0.0250326
0.036284
9.62883
0.0255181
0.025355
0.110916
4.11282
4.67881
0.0253153
4.35857
0.0256538
0.0633122
5.75959
7.87922
0.0252381
4.59338
0.024895
4.44449
0.891838
4.41391
0.161481
0.0253473
0.249686
0.205802
4.12003
0.0253159
0.024825
0.0398936
0.248516
0.0253515
0.0251235
0.0546126
0.025616
0.0253044
0.17126
4.88121
0.318977
0.0251306
3.99855
2.24056
0.0520678
0.0254018
6.77358
0.0553362
0.0295006
0.0251286
0.0249657
0.0247436
0.0253137
0.0254278
5.79774
4.30771
0.0255775
0.0255098
0.277661
0.0251502
2.70549
0.115829
0.0252051
0.3502
0.462726
0.0324198
0.0256537
4.29273
0.0264338
0.0252528
0.0253846
0.0288006
0.0326994
0.0250842
4.08512
0.0250217
0.0253148
3.40604
0.159339
0.212395
0.0514225
0.147748
4.56642
0.0286009
0.0346712
4.53169
0.0539421
0.0251601
6.26133
4.35178
0.0264636
0.025661
5.34012
0.0442206
4.11196
0.0262332
0.0255092
0.0258079
0.17797
0.036477
0.0254389
0.02623
4.82835
0.137501
0.0555989
0.0255973
0.0255275
3.92204
0.0256465
0.0326312
4.74097
4.65131
0.0255243
0.0255562
4.21783
0.124441
3.63934
4.38061
0.0373173
0.027009
0.0532574
0.0296093
0.0254855
0.0250594
0.18579
0.0255719
4.81301
6.30474
0.0408838
4.01188
0.187083
0.0691246
0.035751
4.91385
0.0346151
0.225294
0.355163
36.7157
0.35059
0.0289365
0.0293939
0.0423326
0.0253484
4.27314
0.0263722
0.027506
0.24579
6.50922
0.112137
0.0273479
0.832285
0.0879043
0.0456821
0.115006
0.0643831
9.80157
0.0252653
0.110562
7.15488
0.331337
0.0626153
0.0248711
1.39802
0.0509631
3.95953
7.55784
0.0254809
0.11118
0.025556
0.178419
0.0251572
0.0253427
4.53283
0.0812698
0.0254742
0.0250215
0.024963
0.0256171
0.0392638
4.83436
4.7885
0.0251762
0.0254472
0.025299
0.0248743
0.191431
3.74099
0.0618826
0.307304
0.173136
0.0355069
0.75874
0.0255112
0.98432
3.40395
0.160986
0.0253652
0.0477132
1.1198
4.27198
0.0253957
0.025134
0.0252586
0.0253806
3.44478
0.0255125
0.0295109
0.02746
5.067
0.162517
0.0286015
0.715333
0.0316831
0.0252975
0.187198
4.88168
0.0249723
0.0248659
0.0248553
0.024957
0.0422462
0.0746645
0.0254685
0.0254499
0.0249156
0.0907398
0.195818
0.0249184
0.0265847
0.0723056
0.0253968
0.0412153
0.0250482
0.0363281
0.025455
0.0253351
0.0343574
0.032631
0.0259979
0.0253804
0.0251325
4.06707
0.0253344
0.025426
0.0252304
0.0254202
0.0355504
0.0307581
0.0958937
0.0254659
0.0315255
0.0553356
0.0250216
0.0254524
4.45012
0.0534237
7.97766
0.025502
4.67181
20.2404
0.0253639
0.0256025
4.4873
0.0253295
3.70257
0.357401
5.29991
0.308793
0.0252263
5.38108
0.0689906
0.200548
0.0924709
0.0252077
0.0251388
4.52065
0.0253249
5.43142
0.0623091
0.0254675
0.0276243
0.026683
0.0248849
1.05227
3.67263
3.65091
0.0315978
5.62796
0.0251161
0.0254461
0.0252009
0.0254817
0.407878
0.0532982
0.0259463
0.0617503
0.0253669
0.026391
4.42992
0.0747672
3.86419
0.0278006
0.0276531
0.0252162
0.201153
0.0255728
0.0380109
4.78146
3.66895
0.0253614
0.0251438
0.0273005
0.0253177
0.0447141
4.79746
0.025654
0.0250198
0.0373786
0.025076
2.48058
0.0254602
0.026251
0.0255055
0.168346
4.51982
0.0303814
28.6222
0.0725389
0.0904528
3.76248
5.82467
5.25017
5.47021
3.44849
0.0255788
0.0252231
0.0281054
0.0517982
4.82803
5.06095
0.026458
0.0682146
0.0248693
0.0250334
0.0251233
0.0552601
4.51612
0.0255942
3.41382
0.0251655
0.0253484
4.38279
0.0252287
6.16857
0.0249589
0.157705
0.0283414
0.135073
0.0252156
0.025805
0.0253957
0.0253854
4.45019
1.59345
0.0253347
0.0254554
4.41972
0.0645953
0.0373691
4.91542
4.6388
0.0316446
0.026267
0.324527
5.24971
3.64659
0.0353252
0.0253241
9.54849
0.0251765
4.50731
0.0265637
0.678037
0.0252731
0.0938075
0.025141
0.0253728
0.0445468
0.21775
0.181637
0.0265738
0.0251744
3.84237
4.27145
0.0251688
3.80258
0.0261814
0.025353
0.0254011
4.21221
0.025166
4.56587
0.0253135
0.099576
4.87614
0.0251194
4.88479
0.0253689
0.174437
0.173889
0.025432
0.0255653
10.7817
0.0254651
0.159252
7.11856
0.170408
0.0253323
0.0250892
0.0956354
0.0272662
0.0261473
0.0255858
3.39932
0.0271525
0.0360772
0.0273094
5.39786
0.0272288
0.0251972
0.0251241
0.307202
0.0253829
6.49388
0.0329414
0.30566
0.0256587
0.0734282
0.370979
0.0252421
0.0251689
0.0387621
4.50824
0.0252722
5.02419
0.129001
0.0301532
0.0405751
5.16092
0.0253337
0.0356325
0.0282234
0.0284693
0.0254121
0.0256247
0.0633882
0.0664369
4.22738
0.026498
0.293015
0.235458
0.024957
1.40113
0.0563149
0.16738
4.42187
0.0362087
4.10063
4.5636
0.0259073
0.025277
0.0249514
0.0286357
0.0674495
0.117552
0.0253245
0.0537594
0.0253017
0.0511988
0.0260453
0.0252705
0.0914631
0.0596078
0.025072
0.0250309
4.43752
4.52931
1.68847
0.0249804
0.0328575
5.91031
0.0251904
4.43033
0.0252426
0.0941194
0.0316641
0.0252209
0.0286568
0.0746491
0.0384278
4.55089
0.0255564
0.0271149
0.0247065
0.088955
0.0253288
0.024894
5.40642
0.0252791
0.41368
0.0516568
4.58267
0.028027
0.993506
0.374646
0.035012
0.0273013
5.09206
0.172926
5.29746
0.280451
0.032597
4.58433
0.025314
0.0299234
2.1457
0.0251444
0.0371794
0.0254961
1.1676
0.0251287
0.0644649
0.0395294
0.214475
0.0267333
0.0272043
0.0664279
0.029091
0.146046
5.68087
0.2541
0.0253446
0.151677
4.48984
0.0253534
0.118178
0.0254886
0.166668
0.0653987
0.0269266
0.097857
0.14503
0.15925
0.036669
0.025462
4.01903
5.74381
0.0713771
0.0252395
9.43098
0.0253339
4.05001
1.49977
3.56977
0.384653
0.250212
6.12143
0.0347664
0.178673
0.0251563
0.026289
0.0928715
0.0250917
3.91292
6.92951
0.166469
3.74977
0.0325614
0.0247147
0.252296
5.54859
0.0252421
0.0450826
0.0453717
4.60881
0.0254653
0.179857
4.11015
0.295943
0.317874
0.0249268
0.0256961
0.0247514
0.0286328
4.94342
1.54778
0.287096
5.1979
4.59768
0.0252838
0.024859
0.199432
6.11064
4.44288
0.0271935
0.149579
0.824232
0.0291169
0.0445383
0.0252134
4.56433
0.025296
0.0702811
1.16871
1.01971
0.0248849
4.19319
0.0252131
0.0350253
0.0523608
0.0250458
0.136947
0.0317712
3.98289
4.61849
0.0975439
3.96948
0.03853
0.0254867
0.0255474
0.0263748
0.0253429
4.56407
0.0434949
0.0299499
0.0256472
7.46644
4.05884
0.0248393
0.0307945
0.0251666
3.94034
5.1954
0.0530062
0.0254542
0.025376
0.0253892
0.027204
4.23794
0.0256545
0.147578
4.1862
0.0252761
4.37278
4.64587
0.0284744
5.29512
0.0251756
5.43131
0.0611098
4.5982
0.0334374
5.76552
0.0250111
0.316569
0.0449722
0.167571
0.0255093
0.0313998
0.0251543
0.0254631
3.29563
0.226351
0.0268408
4.57003
5.76133
0.024871
4.05688
0.0270481
3.38982
5.25876
0.201757
0.0925084
1.73143
6.82295
4.1669
0.083
0.0283856
4.37868
4.73276
3.6917
0.0965306
0.0726728
0.0254657
0.0256497
0.0254448
0.0247293
0.025331
5.14259
0.0249213
0.0286906
0.0254755
0.320193
0.0254697
0.0250407
0.0253657
0.0552268
0.0260283
0.025427
0.0254301
0.025411
0.0367402
0.026944
0.0248725
4.31932
0.0250891
0.0251614
0.0458055
0.0255585
0.0304925
0.0251759
0.346276
0.109503
0.025304
0.0398818
0.0251316
0.0252347
4.94274
0.0424822
0.0252791
6.59248
0.0247454
0.223212
0.14853
0.0252334
0.0627315
0.0291984
0.780896
0.193508
0.0260635
0.0738355
0.0269071
0.0254081
0.0899114
4.26515
0.0251401
0.0258979
0.0251687
0.0315603
0.0246729
0.0309401
0.0620225
3.38506
0.0316612
0.0252868
4.25559
0.0273364
4.37986
0.0252513
0.162582
0.0383993
0.122609
0.0252492
0.971596
4.85638
0.0265943
4.54061
0.12198
0.0254202
18.6893
0.0255058
0.0253197
0.0252906
0.0337729
0.026987
4.0928
0.0255738
0.0360527
0.02758
10.6043
0.0254182
0.0313786
0.0248679
0.0615499
0.0247871
0.0255575
0.024996
0.0255124
0.193548
0.025257
4.69363
18.8456
0.0252118
3.01136
0.116285
0.0726272
10.2089
5.32494
3.73054
1.00895
4.19329
1.44119
0.0618844
0.0257593
0.0286077
0.031528
2.7837
0.0253012
0.0553867
4.35367
0.025567
5.79135
0.0920562
5.66445
0.0253213
0.0285611
0.025362
0.0248091
0.0748597
4.88377
0.11204
0.620821
0.0755145
0.0253848
3.83931
0.0691319
0.168766
0.0286601
0.0249124
3.55482
5.14073
0.0256154
0.0258782
0.0253902
0.0252428
0.0254394
0.0264631
3.85822
0.0270699
0.0251983
4.81333
3.50779
0.0251414
0.0275165
0.0250938
4.3731
0.0251892
0.0252105
4.29076
4.68238
0.0253857
0.0326539
9.47767
0.0458803
0.07235
0.0540251
0.0250805
4.01412
0.0254173
0.311962
6.77772
0.0421666
0.191244
0.0984621
0.0449142
0.0256869
0.0265746
0.0253378
0.167279
0.0253272
0.0251857
0.0254227
0.0326725
0.318013
5.3561
0.027027
0.0249399
0.024844
0.025596
5.18532
5.09687
6.71277
0.067154
0.0271715
0.0251419
0.0255581
0.0293258
5.61625
0.0292889
0.0916832
3.67559
1.50336
0.162708
0.03052
0.0263775
0.0251011
0.025317
0.0256548
0.028649
0.0253074
0.0251554
0.0255816
4.83049
0.0923254
0.0251989
0.054729
0.024851
4.50805
3.56775
0.045539
3.9177
4.34008
0.0276896
9.81704
0.387627
0.0252623
3.99819
4.55173
0.237568
0.042889
0.0254258
0.0252435
0.0249032
1.02921
0.0656348
0.0620596
0.142037
0.0390642
0.0252188
5.10715
5.09702
0.0544096
0.248381
0.0253391
0.183395
0.0334953
3.95891
0.217042
4.57473
0.0286823
0.0269151
0.0907385
0.0956655
0.0248557
5.07636
5.08695
0.0797786
4.39043
3.1395
0.976264
3.929
0.38375
0.0264025
0.141408
0.313865
0.0351021
5.11144
0.0253576
0.0271357
6.29286
0.0252615
0.0247226
0.0247146
0.0668622
0.0261969
0.0252968
4.30092
0.0256076
5.62197
5.14965
3.77363
1.32221
0.025351
0.0430519
0.0249009
0.107871
0.180614
0.0253292
1.14269
0.174338
0.0443601
0.0250379
0.181158
0.0401291
0.737678
0.0752981
0.0315162
0.0256265
0.0264688
4.40347
0.0452459
0.0594758
1.19245
0.0262662
0.0253563
0.0251646
5.90758
0.0252153
0.158755
0.0248303
5.17977
0.0257064
2.11284
0.0505226
5.23342
0.301156
4.61766
0.0270138
0.0422348
0.119711
0.0300787
0.0255032
0.0309297
3.52755
0.164972
0.0252431
0.055281
5.72733
0.025287
0.0500251
0.0253155
31.2333
4.40018
0.0258431
0.0262274
0.0261435
6.38328
0.0252854
5.21537
4.31359
0.217453
4.15979
4.06598
0.0256647
0.0256336
0.0250095
5.20843
0.0261261
8.65795
0.0252734
0.0696574
0.0257214
0.100868
0.0254129
0.320057
0.12638
0.110164
0.233026
3.78826
4.37404
0.0253734
0.0926897
4.05171
0.0255418
0.364703
0.0255871
0.0532512
0.0311026
0.0353424
0.0252854
4.26904
0.0256543
4.12072
0.0255807
4.50844
0.050874
0.0253534
0.0251585
0.0873423
0.0421485
0.0270148
0.273703
0.026586
0.094031
0.0938851
0.0528513
0.0252368
1.50649
0.223269
5.30055
0.221563
0.0252487
4.96022
0.343358
0.157661
0.0253516
4.47055
0.0348008
0.0250904
4.97279
3.39076
0.0253147
0.0315815
0.0251331
0.0509376
0.0634598
0.0881986
4.05612
4.10263
0.064067
0.02544
0.0292818
0.114136
0.0250925
0.0977419
0.0251344
0.0256423
0.199772
0.0308094
0.0285624
0.112603
0.028698
0.0252065
0.0374702
0.152871
0.0252367
0.0283576
0.025426
0.0365131
0.106829
21.6302
5.29869
0.325669
0.0249071
3.87908
0.0457373
0.0276893
0.0444751
0.0286514
0.0921005
0.0830915
3.79832
0.0254511
0.0253177
0.231565
6.21672
4.95583
0.0249061
0.0250827
0.0253739
0.0250708
5.19468
0.196787
0.0259659
0.0256069
8.53754
4.58189
1.51522
6.38601
0.025108
0.0750471
0.0469716
0.0413168
0.136361
0.0250956
8.08833
0.147244
5.8115
0.0252076
4.21548
0.562588
0.0256468
0.0532057
3.87858
0.0249305
0.0255976
4.35597
3.59852
5.17816
0.0259914
0.025998
0.0255914
3.94537
4.27198
0.0515553
4.42698
0.0253204
4.26249
4.90783
0.0254631
3.83289
0.0256764
0.138651
0.166981
4.89933
0.0251155
0.0276472
0.0735081
5.55132
0.0270711
8.17069
0.0603383
10.5599
0.0554238
0.0269184
0.02523
0.0560101
0.0254351
0.0249243
0.024885
0.866045
0.0396645
0.0256701
5.68888
0.0353384
7.48997
0.0252382
0.0290246
0.109639
4.19801
0.0251609
0.0308684
0.0254346
6.79108
0.0273155
4.5187
0.0262413
0.0318622
4.57138
0.0254308
0.0607305
0.0252934
0.0520947
7.03025
0.0253905
0.0252263
0.0254533
0.0291575
0.0262752
0.0933927
0.0626648
0.183901
11.6698
0.0252279
0.025201
0.0374509
4.29032
16.4445
0.715243
3.99372
0.0249469
0.0248003
3.95472
0.0284534
0.0298167
0.0463921
0.0281959
0.146441
7.67425
0.0253978
0.0253387
0.616965
0.0270506
0.128615
0.0252483
0.22284
1.27655
0.0253581
0.0252227
0.044911
0.162243
4.63849
0.0287418
0.0762821
0.0254643
5.27507
4.89312
4.80898
3.39075
1.16444
0.0352382
0.0530669
7.02085
0.0253205
0.169409
0.02497
0.0268031
0.578847
0.0260481
0.0682287
0.0252277
0.175452
0.0255663
0.283859
0.0425849
0.0264443
0.0935803
0.160134
0.0255728
0.0290365
0.147269
0.0252086
6.80397
0.0463018
0.0252491
0.25227
0.0279792
1.78402
0.0340371
4.5545
0.124995
1.0035
0.0964042
0.0769023
0.163078
4.48142
0.0254482
0.0274065
0.0253126
0.0913445
0.0270214
0.0254625
0.0297145
0.0247971
4.95799
4.90378
0.0380626
0.0268795
0.0254879
3.32056
0.0277239
0.0379035
0.144904
0.296855
0.0256125
0.0251254
6.1776
4.06072
0.0306262
5.02256
0.0253177
5.62342
0.0253622
5.91911
0.02558
0.307665
0.0250078
2.1421
7.5461
0.0297594
0.0272602
5.4665
0.0256142
0.0255793
0.200784
0.169845
0.0436038
0.0256935
0.0849287
0.0302211
4.63558
0.0248304
0.0254747
0.0254682
0.0250792
0.0256723
5.40824
3.97734
0.0253573
3.69818
0.0911541
0.0257692
0.0246606
0.0253256
0.0253068
0.0641856
0.171425
4.0174
0.0255616
0.0252372
3.63816
4.78395
0.0321176
3.84533
3.92936
0.0415898
0.0253917
0.0253686
5.6478
0.157642
0.11671
0.0516798
3.93741
0.0256131
0.100042
0.0251388
0.0657554
8.14107
0.0253307
0.321059
4.28736
0.227853
0.0272485
0.0251403
0.215202
0.114038
0.0334527
4.4195
0.0682251
4.57591
8.05952
4.87686
10.4279
4.08967
5.0754
0.0715615
0.127076
12.3925
0.0253268
3.83136
6.30765
5.04488
3.64545
4.17556
0.0251175
4.44857
4.51961
0.0251254
0.0246901
0.0269728
4.89609
0.0254209
0.0368914
0.0255927
4.91132
1.43291
0.028708
0.0676268
0.0413901
0.0251339
0.0248683
0.0414713
0.0447369
0.965464
3.53873
3.58528
0.0253469
5.46206
3.23189
3.37626
0.0434333
0.0265611
0.0374489
4.70177
0.148538
4.4969
0.175385
0.0254253
0.0251294
3.87478
0.0253965
4.59699
0.0250949
0.208941
14.5991
0.73296
0.0254869
16.0525
0.0251507
0.0260633
0.0255001
0.025339
0.0946491
0.150269
0.0264779
0.241557
0.8172
3.49604
0.0252337
0.110817
0.169758
6.25682
0.0248965
0.0250328
7.1062
0.171563
0.45465
0.0279204
0.0248767
3.48041
0.0287304
0.024854
0.0286886
0.340028
0.0251402
0.0256567
0.0253666
0.0248251
0.0682853
0.379794
3.52745
0.0247576
17.4395
0.0257064
0.02673
0.0256547
0.0410505
0.0303054
0.0295766
0.0331931
4.91781
0.0369693
0.0760898
0.0983944
13.6749
0.0532385
14.7004
4.5462
0.21521
0.025062
0.263211
0.0249462
0.0255696
0.0919344
0.0257674
0.0253341
0.0343069
0.332415
0.373702
0.0697025
0.0256252
0.02531
0.0315962
0.0348041
0.0253569
6.26695
4.61273
2.57439
0.0260117
5.49147
0.217259
0.0269081
0.0254378
0.0256481
0.0253702
4.2324
0.0253452
0.0369469
7.20131
3.6886
0.0248169
0.152823
0.2542
0.0250874
0.0588525
0.0259521
0.0260971
0.216598
0.358136
0.816995
0.0264061
0.0439419
0.156153
0.0269922
4.5522
0.0251004
0.0256869
0.116187
0.0248843
0.0846618
0.144101
0.0274032
4.25125
0.0247211
0.119747
0.140311
0.0310402
0.0261349
0.0255817
0.0253567
1.10838
0.0251013
0.0269954
0.155382
0.0414321
0.0252734
0.0283664
12.1298
4.65847
0.0694917
0.0246729
5.20805
7.12571
0.0246044
0.027403
0.0320838
0.0250281
0.0255485
3.74265
0.0264223
4.189
0.0598448
0.0253448
0.0253371
0.0251709
0.025291
0.162546
0.0635662
0.0551769
0.218739
0.0254353
0.0249556
0.0592267
0.0869089
5.6953
0.0256093
0.0288419
0.241039
6.13378
0.0255925
0.225218
0.0611998
5.94251
0.0254695
0.81208
0.027352
0.389071
0.0482095
0.171391
0.0268859
0.111467
4.43579
0.0281168
5.60571
0.0252955
0.0496613
0.0364834
0.209007
28.5515
0.0333122
4.67247
2.68116
0.0253459
3.93945
0.0253236
0.066726
4.49995
5.70897
0.245969
5.02139
0.0309554
0.0253665
0.0251867
0.0292294
0.315289
0.0430026
4.47559
5.04637
0.0446328
0.74173
8.54397
0.0249583
0.393977
0.118597
0.0253146
0.0256756
0.0269456
0.0275364
0.0253405
0.0420748
0.0254027
0.0498416
0.0253326
0.157946
0.0251998
4.29866
5.05671
0.0248971
0.0263134
0.0299797
0.0254469
0.119
0.0891061
0.0423115
0.025233
0.0254726
0.0916439
0.234581
0.0256029
0.0271121
0.0252961
0.214211
0.0256001
0.0255784
0.120662
0.0269555
0.0261074
5.37935
1.08466
5.18233
0.0270266
0.0249677
0.0260136
4.67264
0.0370374
0.0254593
4.03597
3.63144
0.0252011
0.184135
0.509558
0.0248266
6.72831
0.0256193
0.02499
0.0287314
3.94674
5.25949
0.0348208
0.0406587
0.0535513
0.0269632
6.09097
0.0249326
0.0254199
8.00552
0.0363069
0.0362958
0.0316918
0.0253519
3.88225
0.0251283
0.0743514
0.0254011
4.92396
0.0313982
3.91945
4.68412
3.61502
0.0254569
0.0255766
0.0545951
0.0246978
0.0410822
6.22309
0.0739249
0.0688338
4.55676
0.0287679
3.97292
4.43871
0.0251344
0.0256053
0.0256856
0.02482
0.0251186
0.0248825
6.45644
0.0249019
0.0275756
0.0255985
0.0316873
3.38231
0.0276037
0.326754
0.204766
0.0694674
4.34935
0.0266602
0.0251921
0.0428838
0.0254312
0.169042
0.254218
0.0368458
0.29896
0.0309726
0.0254545
0.162712
4.16799
0.1208
0.110686
0.362082
0.0256398
4.52801
4.63962
0.0255281
1.64842
4.01933
0.0277348
0.0410981
0.612081
4.12769
0.025174
0.0287351
0.166188
4.48396
6.8396
2.00004
10.0317
0.150702
4.21161
0.0439844
0.0255908
0.0254916
0.0248561
4.29134
8.4129
0.0252862
0.0703467
0.0254136
0.0294718
0.322244
0.0251223
3.82934
0.0246632
0.0253183
0.0262112
0.0253318
0.353262
0.0506671
0.0317222
0.108907
0.0252228