/*--------------------------------*- C++ -*----------------------------------*\
| =========                 |                                                 |
| \\      /  F ield         | OpenFOAM: The Open Source CFD Toolbox           |
|  \\    /   O peration     | Version:  v2012                                 |
|   \\  /    A nd           | Website:  www.openfoam.com                      |
|    \\/     M anipulation  |                                                 |
\*---------------------------------------------------------------------------*/
FoamFile
{
    version     2.0;
    format      ascii;
    class       volVectorField;
    location    "400";
    object      U_0;
}
// * * * * * * * * * * * * * * * * * * * * * * * * * * * * * * * * * * * * * //

dimensions      [0 1 -1 0 0 0 0];


internalField   nonuniform List<vector> 
27915
(
(1.04681 -0.0227391 9.96827e-21)
(1.23215 -0.0861272 -4.22058e-20)
(-0.118041 -0.0250033 0)
(0.0521319 0.0325557 -4.46996e-21)
(1.12999 -0.00686135 -5.03198e-21)
(1.06193 -0.0246983 -4.48155e-21)
(0.516445 0.0470855 0)
(1.16137 -0.0687247 1.75489e-20)
(1.12274 0.011335 0)
(1.09864 0.0363346 3.65591e-23)
(0.861009 -0.10801 0)
(0.97493 -0.0273592 1.40588e-21)
(1.27581 -0.172113 -2.86723e-20)
(0.397234 0.0377659 -1.18584e-20)
(0.515113 0.0731958 -1.18947e-20)
(1.03095 -0.0857575 -2.83471e-21)
(0.814103 0.0618388 -6.18527e-22)
(1.13301 -0.0609888 1.21331e-21)
(0.761425 -0.0509732 0)
(0.984682 -0.0608003 -1.18334e-22)
(0.390042 0.0364918 1.0787e-20)
(1.0034 -0.0299914 -2.15185e-21)
(0.794111 0.0614787 -1.49349e-21)
(1.04612 -0.0230756 -5.30092e-21)
(1.00592 -0.00145438 5.37029e-23)
(1.01168 -0.0250385 -1.32655e-21)
(0.996552 -0.0161235 -5.15042e-21)
(0.569009 -0.62359 -1.66372e-20)
(0.0697216 0.0354824 4.29731e-21)
(-0.0483787 -0.00205066 3.95691e-20)
(1.21028 -0.164237 -4.8967e-20)
(1.0285 -0.0109536 -1.6946e-21)
(0.814647 0.0628249 -1.1037e-20)
(0.98328 -0.061459 -6.14113e-23)
(0.653988 -0.0378853 1.46842e-20)
(0.996455 -0.0166142 -3.04513e-21)
(0.99198 -0.0251696 -3.40778e-21)
(1.10325 -0.0540612 0)
(0.720678 -0.194675 -2.47236e-20)
(1.07701 -0.0234495 9.18559e-21)
(1.0042 -0.0058635 -1.30422e-21)
(1.08941 -0.085758 -1.71181e-20)
(1.00215 -0.00847126 1.47762e-21)
(1.17848 0.0307298 5.07419e-20)
(1.0854 0.057647 0)
(1.00053 -0.000212602 -9.19464e-22)
(0.979385 -0.0201642 -3.92153e-21)
(1.08707 0.0217069 -1.63259e-20)
(1.04138 -0.0193109 0)
(1.02482 -0.0280728 0)
(1.08792 0.0224629 -1.67928e-20)
(1.17612 0.0308992 -5.59697e-20)
(1.11267 0.0599123 1.65218e-20)
(1.07722 -0.0256987 0)
(1.3089 -0.125216 0)
(0.0329753 0.0103166 1.91869e-20)
(0.640173 0.0681678 0)
(1.01899 0.00019477 2.75184e-22)
(1.00397 -0.029798 -1.97484e-21)
(-0.0350061 0.0241862 0)
(1.02816 -0.0111143 0)
(1.05631 -0.223212 -3.03423e-21)
(1.16476 0.000932109 4.0023e-20)
(1.31339 -0.159685 2.59812e-20)
(1 -0.00022099 0)
(1.07812 0.00179637 0)
(1.08234 0.0337742 1.1499e-20)
(1.23168 -0.0401771 2.48239e-20)
(0.517484 0.0638019 -1.37653e-20)
(0.934132 -0.0577601 0)
(1.09359 -0.0812634 -3.59316e-21)
(-0.0101195 -0.00342191 -3.41973e-20)
(1.00341 -0.00281458 0)
(1.01172 -0.0211108 0)
(1.05854 -0.117316 0)
(1.12688 -0.152253 -1.10882e-20)
(1.11822 0.0442035 3.13601e-20)
(1.03969 -0.111376 -5.31232e-21)
(-0.120203 0.0628679 0)
(0.974549 -0.0297336 -5.70582e-21)
(1.09 -0.083779 1.77799e-20)
(1.07758 -0.0245866 0)
(1.01161 -0.0244066 7.33319e-22)
(1.02499 -0.0274492 -1.27075e-21)
(0.0129554 0.00942181 -3.84091e-20)
(1.01694 -0.00785511 0)
(1.04081 -0.0195463 0)
(0.936369 -0.0582809 1.60022e-20)
(1.12232 0.0842435 1.22487e-20)
(1.13393 -0.0699289 -2.04696e-20)
(0.992625 -0.0157965 -4.36183e-21)
(1.08989 0.0606014 0)
(1.03182 -0.0833414 -2.26444e-21)
(1.20843 -0.159749 4.90836e-20)
(0.934351 -0.0470843 0)
(1.08771 0.0234286 2.06753e-20)
(1.03095 0.0715077 -2.89058e-20)
(1.07381 0.0067608 -7.46663e-21)
(0.998949 -0.0211379 2.75991e-21)
(0.48174 0.069684 -1.36197e-20)
(1.00501 -0.017286 -1.68614e-21)
(1.00045 -0.000150347 0)
(0.41893 -0.0766236 0)
(1.09305 -0.083284 0)
(1.00279 -0.00248239 7.02615e-22)
(1.04814 0.00172998 9.72907e-21)
(0.991859 -0.00501132 7.47645e-22)
(1.09635 -0.217561 0)
(1.05448 -0.272081 1.91419e-20)
(1.09792 0.0358246 2.50293e-20)
(0.999681 -0.00552457 0)
(0.97836 -0.0578443 -6.01583e-21)
(1.11912 0.0856195 0)
(0.290477 0.0408377 -4.08955e-21)
(1.23603 -0.0705835 2.23641e-20)
(1.08539 0.0573367 0)
(0.561995 0.0485102 1.02518e-20)
(1.00085 -0.0237118 2.51878e-21)
(1.12427 0.00898825 0)
(1.01843 -0.000668603 -1.07056e-21)
(1.2335 -0.0145525 6.44686e-20)
(1.12536 0.00631808 1.71588e-20)
(1.14848 -0.243712 2.61743e-20)
(1.13504 -0.0598385 2.83391e-21)
(1.05274 -0.0415339 -8.4123e-21)
(1.01822 -0.000717843 -1.08211e-21)
(0.978972 -0.05928 1.24178e-20)
(0.661742 0.0582196 -2.68487e-21)
(1.09656 0.0494606 1.12202e-20)
(1.04072 -0.0782961 0)
(1.07607 -0.0260372 4.37822e-21)
(1.00292 -0.00968864 -1.6916e-22)
(1.01727 -0.00784662 9.36629e-22)
(-0.104118 -0.026489 0)
(0.193456 0.00959127 7.84763e-21)
(-0.271265 -0.00627912 -9.25067e-20)
(1.00446 -0.00597165 0)
(1.01145 -0.0214466 0)
(0.898197 -0.0427319 0)
(1.01664 -0.00756516 0)
(0.0898961 0.0373392 -2.55932e-20)
(-0.0166295 0.0269701 0)
(1.06044 0.00715061 -7.2622e-22)
(0.537011 0.0728853 5.43073e-21)
(1.09013 -0.215931 2.77073e-21)
(1.01862 0.000183385 -2.2582e-21)
(1.01123 -0.0536895 5.60879e-22)
(0.670883 0.067389 9.26371e-21)
(1.23055 -0.0138164 -4.73106e-20)
(1.01532 -0.000360274 -2.50209e-21)
(1.01309 -0.000517419 0)
(1.03717 -0.112605 6.20551e-21)
(1.10087 0.0611999 -1.58861e-20)
(0.793647 0.0625055 0)
(1.16646 0.00256012 0)
(1.0343 -0.111228 5.00298e-21)
(1.04379 0.00166998 7.79215e-21)
(1.04502 -0.00830979 0)
(0.927394 -0.0355208 1.48063e-22)
(1.06198 0.00195609 0)
(0.720585 -0.207353 0)
(1.18453 -0.00923358 -2.38879e-20)
(1.11896 0.0432517 -2.24037e-20)
(1.04145 -0.0183506 4.35364e-21)
(1.01307 -0.040047 2.56003e-23)
(1.07072 -0.0116686 -6.87078e-21)
(-0.192673 -0.0137457 0)
(1.23251 -0.0597365 0)
(1.04311 0.00140528 4.28937e-21)
(1.22761 -0.086197 -7.34241e-20)
(0.576349 0.0668363 -2.71454e-20)
(1.04463 -0.00874265 6.41579e-21)
(0.797948 0.0605904 -1.22776e-20)
(1.00311 -0.000480917 0)
(1 -9.1292e-05 0)
(1.12851 0.06139 0)
(1.0987 0.0238069 1.54736e-20)
(1.04695 -0.0217608 1.02475e-20)
(1.01117 -0.0525591 2.64175e-22)
(1.31307 -0.138637 2.00595e-20)
(1.04414 -0.0073304 -4.57886e-21)
(1.08286 0.0343976 -6.07662e-21)
(1.00319 -0.00037703 0)
(1.14654 0.0523965 2.62023e-20)
(0.274299 0.0376611 0)
(1.12581 0.00838765 0)
(1.15083 0.0192909 0)
(1.00226 -0.00184603 1.74923e-23)
(-0.115991 -0.0244805 9.85275e-20)
(1.06482 -0.124321 -9.31709e-22)
(0.990711 -0.0347889 -6.69005e-21)
(1.11555 0.0737024 0)
(1.0021 -0.0018305 -7.54741e-22)
(1.00243 -0.000345345 -3.06441e-23)
(1.00318 -0.00270393 3.3973e-22)
(0.255309 0.012052 -9.81406e-21)
(0.975719 -0.0278262 -7.49073e-21)
(1.10308 -0.00912311 1.33414e-20)
(-0.239694 -0.0096328 -1.12839e-19)
(0.454046 0.0461433 0)
(1.18061 -0.227381 0)
(1.13269 0.0871839 -1.38259e-20)
(1.0987 -0.00889629 0)
(1.08413 0.060193 0)
(0.980249 -0.0202437 3.86579e-21)
(1.07888 0.00124203 0)
(0.535 0.0640814 0)
(1.0435 -0.0941909 0)
(1.06769 0.0195666 5.01713e-21)
(1.14935 0.0547159 -1.30889e-20)
(0.0147955 0.0219258 -6.46841e-20)
(1.0464 -0.0212167 -1.02424e-20)
(0.493844 0.0701679 4.21648e-20)
(0.981107 -0.0592489 -1.0783e-20)
(1.09505 0.0338284 1.23122e-20)
(0.999594 -0.0129644 -2.23223e-21)
(1.12965 0.0622329 6.94084e-21)
(0.630017 0.0486266 9.95145e-21)
(1.13496 -0.000507337 -1.1297e-20)
(1.08443 0.0121874 1.82597e-21)
(0.661875 0.067936 6.48613e-21)
(1.09719 0.0679923 1.08677e-21)
(1.204 -0.0620089 1.58551e-20)
(0.999527 -0.00632024 -4.89109e-21)
(1.04763 -0.117418 -8.19897e-21)
(1.10509 -0.0528682 1.12082e-20)
(1.1507 -0.0938194 0)
(0.987732 -0.0347762 0)
(1.31319 -0.129393 0)
(1.04097 -0.0179398 -2.04757e-21)
(0.701362 0.0533022 1.09808e-20)
(1.01623 -0.00756979 0)
(0.379681 -0.0642439 1.80906e-20)
(1.0328 -0.109466 -5.20217e-21)
(1.04481 -0.00763253 8.91414e-21)
(1.04568 -0.0289372 -1.41651e-21)
(1.17991 0.0523238 -4.20714e-20)
(1.06311 -0.0247809 0)
(1.14162 0.0848053 7.45799e-21)
(1.00612 -0.00651665 1.99447e-22)
(0.996541 -0.00826857 3.15276e-23)
(0.581374 0.0680189 0)
(0.92645 -0.804454 -4.66064e-20)
(1.12675 0.00566611 -3.18405e-20)
(1.0002 -0.00733517 -4.71792e-21)
(0.938573 -0.0624485 1.6486e-20)
(1.08579 0.0586535 1.63762e-20)
(0.981676 -0.0603782 5.89463e-21)
(1.27925 -0.167108 8.47278e-20)
(1.10008 0.0614584 2.2785e-20)
(1.00138 -0.010205 0)
(1.07888 0.0276462 -7.80316e-21)
(1.10939 0.0613156 -1.27288e-20)
(1.00507 -0.0168839 0)
(1.11678 -0.0489691 2.74443e-20)
(0.962257 -0.0670688 -5.00291e-21)
(1.07873 0.0282383 -2.4774e-21)
(1.0701 -0.0124395 3.76663e-21)
(1.23422 -0.0194791 3.01334e-21)
(0.222397 0.0446579 -1.18115e-20)
(-0.101754 -0.00756022 -3.82127e-20)
(1.0187 -0.0539832 -7.35225e-23)
(1.00354 -0.00265323 -5.26887e-22)
(1.0294 -0.00921167 0)
(1.11541 -0.0525537 1.24937e-20)
(1.1103 0.0621433 8.63377e-21)
(1.02282 -0.00285649 -3.90886e-21)
(0.999651 -0.00582782 -2.39483e-21)
(1.14903 0.0195311 1.13733e-21)
(0.980846 -0.0194194 0)
(1.0026 -0.0287888 2.14412e-21)
(1.00272 -0.00939995 1.52609e-22)
(0.998151 -0.206007 -7.2541e-20)
(1.13139 -0.0684113 -1.32749e-20)
(0.970887 -0.0526754 0)
(0.0798806 0.0314323 2.28238e-20)
(1.06111 0.00154268 0)
(0.644324 0.0665691 -1.93494e-20)
(0.37114 0.0425329 -1.51712e-20)
(0.0531081 0.0321011 2.7114e-20)
(1.0978 0.067878 2.30694e-21)
(0.684357 0.0592368 -6.4145e-22)
(1.0326 -0.0873523 1.36252e-21)
(0.0535802 0.0125606 1.20164e-20)
(0.900471 -0.0409538 -1.5599e-20)
(1.03831 -0.0839512 1.19931e-22)
(1.18662 -0.018283 -3.11159e-20)
(0.975716 -0.0563469 -9.3868e-21)
(1.14196 0.083848 8.10578e-21)
(-0.124332 -0.0079636 2.17022e-20)
(1.09741 0.0606325 -4.74034e-21)
(1.11745 -0.0509091 -4.33578e-20)
(0.990688 -0.0235133 0)
(1.20871 -0.169691 9.60882e-21)
(1.07417 0.00873174 -4.75043e-21)
(1.01349 -0.00156821 0)
(0.990198 -0.0338551 0)
(-0.0804456 0.00885503 0)
(1.20487 -0.058961 0)
(0.987773 -0.0142367 -7.36561e-21)
(1.12922 0.0719659 0)
(1.02026 -0.0282244 -2.12254e-22)
(0.866485 -0.109124 1.35556e-20)
(1.00234 -0.00876731 -2.7087e-21)
(1.09706 0.0599694 -7.76535e-21)
(0.061838 0.0341435 3.67954e-20)
(0.999832 -0.0128756 0)
(1.30942 -0.135609 2.00686e-20)
(1.00116 -0.0232783 -1.58841e-21)
(1.08888 0.0556473 -1.911e-20)
(1.30425 -0.16082 -5.51793e-20)
(0.240328 0.0086658 -9.69855e-21)
(0.146622 0.0435317 -1.64327e-20)
(0.976279 -0.0578577 -6.60268e-23)
(-0.0192738 0.0269029 -6.62137e-21)
(1.01326 -0.00145039 1.11725e-21)
(1.01588 -0.000407285 8.29236e-22)
(1.01592 -0.00728495 0)
(1.15311 -0.072278 2.90834e-20)
(1.17379 -0.291757 2.1445e-20)
(0.969853 0.0721728 -2.95676e-20)
(1.01052 -0.00113041 -8.09829e-22)
(0.963059 -0.00807549 8.59963e-22)
(1.06613 -0.0258295 8.87155e-21)
(1.16005 0.0609505 -7.90441e-21)
(0.926786 -0.0460094 0)
(1.00696 -0.0124362 -5.47436e-22)
(1.17864 -0.0559536 0)
(1.13803 -0.0383095 2.31923e-21)
(1.1338 0.000573952 -1.07199e-20)
(0.990151 -0.0233487 -6.65362e-21)
(0.0319407 0.0259194 5.52188e-20)
(0.898609 -0.0463723 1.49552e-20)
(0.0689701 0.0161236 1.51779e-20)
(0.0258073 0.0294876 2.95159e-20)
(1.12422 0.0106446 0)
(1.16862 0.00165167 -1.46452e-20)
(1.12795 0.0710529 -5.36527e-21)
(1.2043 -0.171699 0)
(0.96223 -0.0655429 5.86462e-21)
(1.04488 -0.0956769 -8.61094e-22)
(1.09556 0.0348299 7.15661e-21)
(1.15135 -0.0771673 0)
(1.1796 -0.288825 -2.50158e-20)
(1.09558 -0.540758 2.25397e-20)
(-0.158907 0.0110396 0)
(1.00278 -0.0293014 0)
(1.04502 -0.293135 0)
(0.774775 -0.245774 -3.14737e-20)
(1.06272 0.0145721 5.76229e-21)
(1.18411 -0.0190487 2.27787e-20)
(0.190981 0.0430099 1.61399e-21)
(1.10574 0.0646965 0)
(1.10339 -0.00761903 -5.57547e-21)
(0.269415 0.0402809 4.36045e-21)
(1.15498 -0.243254 -4.44255e-20)
(1.08063 -0.0885892 -1.70391e-20)
(0.988178 -0.0136785 8.97681e-21)
(0.265483 0.0133503 9.62972e-21)
(1.08695 0.0511167 -9.5375e-21)
(0.612588 0.0669128 -3.5701e-21)
(1.01971 -0.0263407 -1.46079e-21)
(0.994893 -0.00700014 -3.38692e-21)
(1.23499 -0.0172688 0)
(1.1767 -0.0541401 0)
(1 -0.00132408 -1.99066e-21)
(1.08214 -0.71492 0)
(0.763128 -0.249044 -3.97014e-20)
(1.04667 -0.141868 0)
(1.11602 -0.0545639 1.18994e-20)
(1.08714 -0.0868851 -1.6426e-20)
(1.09432 0.066073 0)
(1.02227 -0.0865783 8.64782e-22)
(0.935853 -0.166721 -7.47186e-21)
(1.14257 0.00184335 1.75548e-20)
(0.966568 -0.040405 7.1506e-21)
(1.04761 -0.0111546 0)
(1.04559 -0.0245091 7.6452e-23)
(0.602278 0.0626406 1.50995e-21)
(0.936132 -0.0617493 -1.83971e-20)
(0.570176 0.0702277 -2.65584e-20)
(0.974631 -0.0310159 0)
(1.08543 0.0585369 -1.7456e-20)
(1.17888 -0.0508857 4.13345e-20)
(1.00094 -0.0121047 0)
(1.07443 -0.2783 6.46774e-21)
(1.09721 0.0498933 -1.20913e-20)
(1.09786 -0.0429622 1.70016e-20)
(1.28196 -0.029265 0)
(1.19693 -0.0527707 0)
(0.0591852 0.0114073 0)
(1.10209 -0.00289184 -1.12464e-20)
(1.06965 -0.283733 7.9423e-21)
(1.12353 -0.0421944 0)
(1.04868 0.00221549 -6.37893e-21)
(1.10507 0.0289633 0)
(0.979468 -0.625753 0)
(1.18526 0.054444 2.17596e-20)
(0.976698 -0.0343122 -2.97324e-21)
(1.13557 0.0603761 7.26439e-22)
(0.176678 0.0464967 2.93253e-20)
(1.10323 -0.0245243 -1.21942e-21)
(1.00041 -0.00703824 -2.01715e-21)
(1.00002 -0.000299578 4.97378e-22)
(0.0806769 0.0363455 -3.88117e-20)
(0.972304 -0.0215867 0)
(1.17498 -0.222905 -1.64762e-20)
(1.00027 -0.00710773 3.92762e-21)
(1.12407 0.0154482 2.04995e-20)
(1.1406 -0.0520014 0)
(1.0042 -0.0099243 2.11353e-21)
(1.08435 0.020728 0)
(1.00001 -0.00117303 0)
(1.09834 0.0217825 -3.69206e-22)
(1.06501 -0.0252862 1.00018e-20)
(1.25596 -0.131392 3.58834e-20)
(1.00415 -0.00908736 -1.35716e-21)
(1.23456 -0.0421404 1.36718e-20)
(1.04436 -0.139243 6.84924e-21)
(1.00625 -0.00687682 -4.38194e-22)
(-0.00244526 0.0286523 5.68331e-21)
(1.24178 -0.118715 -2.25036e-20)
(1.14071 0.00202223 0)
(0.0503834 0.0323923 0)
(1.08604 -0.172783 -1.70251e-20)
(0.732236 -0.456768 1.60931e-20)
(1.13926 -0.0503856 0)
(1.02011 -0.0269413 1.5989e-21)
(0.991469 -0.00485793 4.90897e-22)
(0.973167 -0.054662 -1.28419e-20)
(0.919872 -0.0788135 1.23856e-20)
(1.10437 -0.0234456 0)
(1.17746 -0.0487249 -3.80054e-20)
(1.25328 -0.135338 -4.0256e-21)
(0.232663 0.0406729 8.81974e-21)
(0.919202 -0.0812594 0)
(0.999691 -0.00638037 0)
(1.10686 0.0104489 4.83867e-20)
(1.00466 -0.0101033 -7.80729e-22)
(1.32169 -0.157577 3.0544e-20)
(1.00002 -0.00308561 -2.20077e-22)
(1.00156 -0.00523 0)
(1.27561 -0.0275915 0)
(1.14186 0.047742 -2.43202e-21)
(1.00435 -0.00903512 -9.2724e-23)
(1.17732 0.0042033 0)
(1.09755 0.020803 3.33163e-22)
(0.636682 0.0669944 -1.69948e-21)
(1.09704 -0.0783839 0)
(0.997658 -0.0187324 0)
(1.06126 0.00719763 3.76538e-21)
(1.07486 0.00708274 -2.42197e-21)
(1.00145 -0.00997775 -1.80778e-21)
(0.414717 -0.0371442 0)
(0.996955 -0.00725669 3.81411e-21)
(1.0225 -0.0585245 0)
(-0.157754 -0.0117979 0)
(1.01346 -0.0210426 0)
(1.02177 -0.0885659 0)
(0.173632 0.0395896 0)
(0.0415135 0.0245873 4.46208e-20)
(1.00705 -0.00696231 0)
(1.13676 0.0741712 0)
(1.0788 0.017729 -1.08088e-22)
(1.15589 -0.238897 6.70774e-21)
(1.07877 0.0170155 1.60453e-21)
(1.22531 0.0357398 6.75364e-20)
(0.0926588 0.0374909 2.42345e-20)
(0.992174 -0.0382855 -3.05876e-21)
(1.12813 -0.0071152 -1.51275e-20)
(1.13795 0.0457934 -2.53295e-21)
(1.00518 -0.0253298 0)
(0.361108 0.0400285 1.5397e-20)
(1.01667 -0.000360194 2.00801e-21)
(1 -7.27602e-05 3.87196e-21)
(1.1732 0.0332237 -1.48711e-20)
(1.24662 -0.117722 -5.00445e-20)
(0.00971956 0.0245707 -6.25941e-20)
(0.973702 -0.0562787 3.65511e-21)
(1.11682 -0.000618949 0)
(1.10553 0.027876 -1.0024e-21)
(1.13138 -0.151731 6.89193e-21)
(0.0179662 0.025547 -5.75012e-20)
(0.413275 0.0491778 2.20687e-20)
(1.04352 -0.0270064 -5.24259e-21)
(1.02971 -0.00960826 -2.09529e-21)
(1.03921 -0.0573706 2.82199e-21)
(1.0238 -0.0587872 1.07163e-21)
(1.11508 -0.00103766 0)
(0.966149 -0.0687781 -1.38829e-20)
(1.01301 -0.0223784 0)
(1.07696 0.00794279 0)
(1.30172 -0.0799107 2.46771e-20)
(1.04839 -0.0355187 7.93423e-23)
(1.08487 -0.0863985 1.6773e-20)
(1.10159 -0.00203919 0)
(1.00002 -0.000134871 0)
(1.07781 0.00363597 0)
(1.17056 0.0427869 0)
(0.921352 -0.0857336 -1.23983e-20)
(1.07488 -0.028184 1.98949e-20)
(1.00988 -0.0328596 0)
(1.20812 -0.00280692 0)
(0.501653 0.0670713 0)
(0.727817 -0.19341 0)
(1.088 0.0622137 -1.77968e-20)
(1.07105 -0.335464 4.70445e-21)
(1.0232 -0.00290815 2.52406e-21)
(1.10385 0.0546092 0)
(1.04799 -0.0107469 -7.91688e-21)
(1.01802 -0.000523636 0)
(1.04111 -0.0166558 -6.99585e-23)
(1.07965 -0.339751 0)
(1.00226 -0.00786151 0)
(0.535571 0.0663026 2.36672e-20)
(-0.139479 0.0126557 -3.35326e-20)
(0.972576 -0.195034 -9.76169e-22)
(1.07608 -0.0277872 -1.90533e-20)
(0.523762 0.0680725 -4.4391e-21)
(1.11761 -0.0174859 1.55734e-20)
(1.0464 -0.267519 -8.72822e-21)
(1.00698 -0.0114558 -4.98441e-22)
(0.994619 -0.00637015 -2.19663e-21)
(1.15831 0.0541656 -2.99282e-20)
(1.08383 0.0215986 0)
(0.99516 -0.0770242 0)
(1.11387 0.0605635 -1.48078e-20)
(0.967561 -0.0223967 4.01339e-21)
(1.00386 -0.0366933 0)
(1.01978 -0.0548332 2.1998e-22)
(0.964037 -0.0692785 4.78484e-21)
(1.00444 -0.0306152 2.17667e-21)
(1.0027 -0.00904485 2.90494e-22)
(0.998571 -0.00869693 -6.43958e-21)
(0.967667 -0.0393815 3.54079e-21)
(1.04141 -0.072215 0)
(1.01851 8.65261e-05 6.39188e-22)
(0.0812755 0.0180787 -1.52832e-20)
(1.20807 -0.00549452 4.9522e-21)
(1.05466 -0.279518 9.57469e-21)
(1.00021 -0.000104475 0)
(1.06854 -0.0272605 7.8816e-21)
(1.00712 -0.0118627 -1.13914e-22)
(1.08802 -0.275225 0)
(1.01332 -0.000646877 0)
(1.0232 -0.0114957 -5.95047e-22)
(0.924826 -0.0855197 1.2522e-20)
(1.03038 -0.023356 5.39205e-22)
(1.08957 0.0715135 0)
(1.0026 -0.00240176 -4.86461e-22)
(1.04703 0.00791282 -4.19313e-20)
(0.380206 0.0374034 -2.00898e-20)
(1.11452 0.0741689 0)
(1.00103 -0.00508897 1.79076e-21)
(0.249474 0.0427446 -1.48187e-20)
(1.09943 0.0687268 -1.80083e-20)
(0.996094 -0.0133314 0)
(1.04539 -0.004616 -5.59094e-21)
(1.30204 -0.076952 -4.00205e-20)
(1.0407 -0.0567672 0)
(1.13958 -0.036298 -5.25461e-21)
(0.999452 -0.00313768 -1.18986e-21)
(1.01792 -0.930121 -1.09363e-20)
(1.06569 -0.02346 -1.33924e-20)
(1.16009 0.0628194 1.92836e-20)
(1.09845 -0.0445328 -1.84682e-20)
(0.997141 -0.00657231 -3.91015e-21)
(1.09621 0.0676174 -4.31594e-21)
(-0.00367427 0.0262703 0)
(1.04744 -0.034919 0)
(0.992942 -0.0152611 0)
(1.00005 -0.000326762 -2.02923e-21)
(0.996096 -0.0147563 2.86445e-21)
(1.10531 0.0498498 0)
(0.983895 -0.113055 0)
(0.994827 -0.00741284 -3.79281e-21)
(0.00228949 0.0274927 0)
(0.552881 0.074818 -1.21403e-20)
(1.30892 -0.176001 0)
(1.01039 -0.0325279 0)
(1.13458 0.0612251 0)
(1.09572 0.0669078 0)
(1.02066 -0.00822279 2.55139e-21)
(0.99928 -0.0208248 -2.73464e-21)
(1.11343 0.0654967 1.06811e-20)
(1.05134 -0.226964 -3.57485e-21)
(1.03964 -0.0445608 5.22125e-21)
(1.10318 0.0541054 0)
(0.279277 0.0164606 0)
(1.15387 -0.075021 1.88023e-21)
(1.04705 -0.259418 8.88522e-21)
(1.00498 -0.0304261 2.89806e-21)
(1.00377 -0.00272726 0)
(-0.287761 0.00375258 -9.61251e-20)
(0.0215562 0.012997 -1.81761e-20)
(0.950424 -0.419802 5.42848e-22)
(1.22047 0.0514366 7.17556e-21)
(0.455852 0.031759 9.8025e-21)
(0.453439 -0.0328916 0)
(1.07863 0.00305699 0)
(1.09961 0.0210788 -9.91154e-21)
(0.803752 -0.149365 3.38188e-21)
(-0.23479 0.00729951 0)
(1.08148 0.0127614 7.06235e-21)
(1.12542 0.0708512 0)
(1.09658 -0.0806994 5.07533e-21)
(1.06115 -0.0194383 1.03961e-20)
(1.02532 -0.029968 2.57724e-21)
(1.04621 -0.0755872 0)
(1.20105 -0.0288193 -7.76931e-21)
(1.00661 -0.0112052 -4.6539e-22)
(1.0447 -0.00995417 4.62084e-21)
(1.09932 -0.0399516 -8.83087e-21)
(1.13249 -0.147027 0)
(1.14195 0.0335204 -1.45621e-21)
(0.728625 0.0612501 -9.81715e-21)
(0.909523 -0.107989 0)
(1.02472 -0.0260746 -1.11422e-24)
(1.00308 -0.00204895 -8.4265e-23)
(0.93182 -0.0476262 0)
(1.07942 -0.00446152 2.76716e-21)
(0.829426 -0.245398 0)
(0.44101 0.0295171 -7.94111e-21)
(1.08766 0.0621657 1.93777e-20)
(1.00162 -0.00548597 0)
(1.08955 0.0710251 0)
(0.98631 -0.0623389 0)
(0.999404 -0.0273692 0)
(1.12783 0.0236232 0)
(1.07814 0.0047835 2.85864e-21)
(1.00003 -0.000271826 2.09359e-21)
(1.1305 0.0246079 1.40805e-20)
(0.922962 -0.033449 0)
(0.290875 0.0125901 -8.42096e-21)
(1.07988 0.0266503 -5.28009e-23)
(1.11763 -0.0453156 -2.37605e-22)
(0.0976922 0.02183 1.49237e-20)
(1.21052 -0.00950746 0)
(1.14761 -0.138122 0)
(0.999986 -0.000210739 0)
(0.999865 -0.000850159 -2.55661e-22)
(1.00885 -0.00703905 0)
(1.29643 -0.292659 -1.23297e-20)
(1.10255 0.0616356 1.71165e-20)
(1.16988 -0.159586 3.05398e-21)
(0.565252 0.0770449 -1.35817e-20)
(1.10318 -0.0562694 -4.92413e-21)
(-0.284681 0.00339905 0)
(1.0344 -0.00836921 0)
(1.06722 -0.770084 -3.11738e-20)
(1.02373 -0.0118274 1.33952e-21)
(0.96781 -0.0213246 0)
(1.05761 -0.0489257 1.36437e-20)
(1.04102 -0.0205589 8.48219e-21)
(1.22841 -0.0600509 0)
(0.987536 -0.0616492 -4.75445e-21)
(1.04276 -0.0275865 -1.00794e-20)
(1.06662 0.0112715 7.64362e-21)
(0.99143 -0.0386924 0)
(1.31171 -0.171903 0)
(1.06023 -0.0113962 0)
(1.00182 -0.00730534 -2.4584e-21)
(1.08698 0.0506266 0)
(1.07435 0.00957253 0)
(1.04484 -0.119059 7.71625e-21)
(1.01736 -0.0147387 0)
(1.04043 -0.0207956 -4.00046e-21)
(1.09867 0.0688574 1.98369e-20)
(0.988801 -0.0139136 -4.34312e-21)
(1.04126 -0.0153277 0)
(1.04387 -0.0099776 -2.21434e-21)
(1.01568 -0.000781747 -9.48275e-22)
(1.08913 0.0560441 1.6887e-20)
(1.01875 -0.00188831 -3.77054e-21)
(1.03437 -0.0111122 -5.64101e-21)
(1.12962 0.048295 1.06336e-20)
(0.920523 -0.0338026 -1.34503e-20)
(1.0582 -0.0477588 -1.15791e-20)
(0.436913 -0.0248164 0)
(1.00459 -0.00634211 0)
(1.11864 -0.0473016 0)
(0.292354 0.0431605 4.65437e-21)
(0.602576 0.0722336 2.2543e-20)
(1.19857 0.0668404 0)
(1.00388 -0.00809497 0)
(1.13639 -0.14617 -1.6215e-20)
(1.07778 0.0183458 1.01169e-22)
(1.00088 -0.00306739 2.19289e-21)
(1.02026 -0.0573346 3.79954e-22)
(1.09977 0.023588 0)
(1.04469 -0.074479 0)
(0.996745 -0.00753198 -4.16017e-21)
(0.992537 -0.0247743 4.7712e-21)
(1.03833 -0.0402212 -4.60597e-21)
(0.592059 -0.00759593 0)
(-0.140166 0.00697523 8.13973e-21)
(1.12803 0.0298257 -8.12677e-21)
(1.19832 -0.0505486 0)
(1.0879 -0.557693 -1.60696e-20)
(0.986398 -0.111333 7.53294e-21)
(0.999992 -0.000183307 -5.02586e-22)
(1.13143 0.0237841 -1.61835e-20)
(0.929778 -0.290576 -2.30469e-21)
(0.996552 -0.00269123 7.26507e-21)
(1.10787 -0.162582 2.44448e-20)
(0.989206 -0.0133451 -5.76758e-22)
(1.12081 0.0747361 3.08498e-21)
(0.916633 -0.073156 -1.29759e-20)
(0.886292 -0.233965 -7.80591e-21)
(1.05353 -0.0963121 -1.04506e-21)
(1.01868 -0.00171348 3.75835e-21)
(0.842853 -0.158137 6.16438e-20)
(1.01941 -0.0565738 0)
(0.243067 0.0468096 -8.1216e-21)
(1.17288 0.042816 0)
(1.27177 -0.259406 0)
(1.09973 -0.0415284 -6.4152e-22)
(1.08335 -0.280616 -4.18677e-21)
(1.03443 -0.0101908 -4.90065e-21)
(1.00719 -0.00731065 4.57498e-23)
(0.999033 -0.00967573 -2.53127e-21)
(1 -0.000125741 0)
(1.07975 0.0273181 4.34382e-21)
(1.00168 -0.0222609 -1.3186e-22)
(1.07732 0.00531115 1.10191e-20)
(1.08993 -0.00698099 0)
(1.08005 -0.00380833 5.15139e-21)
(0.969463 -0.0708597 0)
(1.14202 0.0325013 -1.06373e-20)
(0.110929 0.0258281 -5.53571e-20)
(1.05939 -0.0109104 4.51477e-24)
(1.00521 -0.00701675 -7.16937e-22)
(1.02497 -0.0294729 -9.80134e-22)
(1.10505 0.0310917 1.10036e-20)
(0.996927 -0.0068719 0)
(1.15248 -0.0803225 1.53167e-20)
(1.09221 0.0150554 0)
(1.00717 -0.0106882 0)
(1.00008 -0.000582648 -6.10115e-22)
(1.10429 0.0619533 -1.79438e-20)
(1.14058 0.0728277 1.39675e-20)
(1.04133 -0.041658 -2.71137e-21)
(1.07789 0.0190088 -6.77884e-21)
(0.752151 0.0619091 1.09144e-20)
(1.03477 -0.00813023 1.5199e-21)
(1.06444 0.00481091 7.21989e-21)
(0.277749 0.039863 -1.69143e-20)
(1.09004 -0.0137491 -1.20226e-20)
(-0.0669173 -0.0285198 0)
(1.00077 -0.00290099 -1.94156e-21)
(1.08023 -0.0428204 0)
(1.09257 0.0349657 0)
(1.23102 -0.0531895 4.362e-20)
(0.998965 -0.00942694 0)
(0.964108 -0.0383935 -8.7269e-21)
(1.09812 -0.139343 -2.22128e-20)
(1.08447 -0.168131 7.93436e-21)
(0.974455 -0.20057 6.44339e-21)
(1.27749 -0.255981 3.51e-20)
(-0.223286 0.00701222 -2.37404e-20)
(1.07992 -0.0418369 -1.45759e-21)
(0.478791 -0.0291344 0)
(1.00619 -0.00151247 0)
(0.633052 -0.0125378 0)
(1.0463 -0.024198 -3.28122e-21)
(1.09926 -0.137263 2.53647e-20)
(0.792555 0.0630662 1.07676e-20)
(1.1607 -0.0657488 -3.25211e-20)
(1.09405 0.0338576 -1.43451e-20)
(0.987847 -0.00757163 2.54724e-21)
(1.10895 0.0104364 0)
(0.967547 -0.0713311 2.04789e-20)
(1.07374 0.0111036 -1.03582e-20)
(1.04481 -0.223522 0)
(1.00426 -0.00868654 0)
(0.987195 -0.0355427 2.71056e-21)
(1.12667 0.0298423 -7.86395e-21)
(0.523462 -0.0972354 3.09661e-20)
(1.16541 -0.160353 0)
(1.10594 -0.0315102 0)
(1.0588 -0.00945424 -1.01411e-20)
(0.993097 -0.0314007 0)
(-0.133524 -0.00479069 -2.18262e-20)
(1.03233 -0.013033 -2.53212e-21)
(0.999413 -0.00650367 7.21178e-21)
(1.23246 -0.0508512 -4.9183e-20)
(1.0054 -0.00635616 -4.3936e-22)
(1.06357 0.014579 -4.84017e-24)
(-0.0338829 -0.00585387 -3.65737e-20)
(0.099253 0.0387893 1.06564e-20)
(1.06084 -0.0277306 5.57542e-21)
(1.01881 -0.00141552 -5.13084e-21)
(1.0041 -0.0100807 0)
(1.08925 -0.0146769 1.48529e-20)
(-0.0710055 -0.00468434 0)
(1.00389 -0.00380647 3.80693e-23)
(1.23924 -0.114086 0)
(1.13453 0.0867981 1.49403e-20)
(1.09316 0.0146117 0)
(1.12259 0.0161219 0)
(0.964454 -0.0373394 1.21768e-20)
(1.13943 0.0459144 2.01414e-20)
(1.01722 -6.35602e-05 -1.4044e-21)
(0.97597 -0.166973 2.95905e-21)
(-0.0999592 -0.0137784 2.88777e-20)
(1.03614 -0.0437596 -4.0785e-21)
(1.21045 -0.0153452 -3.97017e-20)
(1.05186 -0.0390721 8.47717e-21)
(0.138115 0.0425979 -1.89443e-20)
(1.11031 0.0100951 -4.74498e-21)
(0.988306 -0.00779971 0)
(1.00116 -0.0122704 1.87505e-21)
(1.23061 0.0366572 -4.45946e-22)
(0.992734 -0.0147309 0)
(0.981614 -0.0197021 0)
(0.388956 0.0411896 2.02551e-21)
(1.1376 0.0731921 -1.5426e-20)
(0.0570266 0.0241551 -1.58109e-20)
(0.998392 -0.0026496 0)
(1.02849 -0.107573 0)
(1.2229 0.0512897 5.4654e-20)
(0.662746 0.0706573 1.77717e-21)
(1.15317 -0.380665 -5.05337e-20)
(1.25941 -0.269881 -9.09893e-20)
(0.996795 -0.00271951 -4.52056e-21)
(1.05172 -0.0951299 0)
(1.03834 -0.0448335 -2.19259e-21)
(1.13802 -0.265625 1.4924e-20)
(1.21069 -0.00703651 0)
(0.659108 0.0742366 6.9818e-21)
(0.995461 -0.0508453 7.79668e-22)
(1.11295 0.0489389 0)
(1.07539 -0.175475 0)
(1.18635 -0.0109441 5.42687e-20)
(0.642174 0.0759675 0)
(1.02418 -0.0254788 -1.21713e-21)
(0.0692852 0.0308704 -2.36655e-20)
(1.09576 0.0594605 2.02754e-21)
(1.278 -0.0230879 0)
(0.994554 -0.00677385 7.04595e-21)
(1.15073 -0.13602 3.35981e-20)
(0.967568 -0.0862153 -8.02655e-21)
(0.999952 -0.000852012 4.36158e-21)
(1.09804 -0.0103643 0)
(0.969141 -0.0883081 -2.60528e-22)
(1.08072 0.0142177 6.28305e-21)
(1.08723 0.0319187 1.33514e-20)
(1.00839 -0.0177276 -8.74717e-22)
(0.848826 -0.15134 0)
(1.08162 0.0137066 -3.69205e-21)
(1.03814 -0.137383 0)
(1.03037 -0.0815166 3.35353e-21)
(1.02378 -0.0400045 -3.27885e-22)
(0.444791 0.036481 0)
(1.09617 0.0600559 0)
(0.58444 -0.00920937 0)
(1.01742 -0.020071 -5.52778e-22)
(1.08913 -0.00758864 0)
(1.15043 0.0534068 -3.58556e-24)
(0.929132 -0.0900765 0)
(1.10165 0.0619111 -1.68069e-20)
(0.259943 0.051245 0)
(0.0340529 0.0150775 1.68188e-20)
(1.02477 -0.718508 3.49271e-20)
(1.00213 -0.00817374 0)
(1.13276 -0.114501 0)
(0.966838 -0.243844 0)
(0.441257 0.0447828 -6.56832e-21)
(0.944204 -0.0701736 -1.65535e-20)
(1.10271 -0.027507 -2.14169e-20)
(1.0441 -0.0399656 -5.3539e-21)
(1.1033 0.0624133 1.89137e-20)
(1.02321 -0.00860714 2.05435e-23)
(1.11356 0.0468164 1.42131e-20)
(0.0843383 0.0340059 4.89501e-20)
(0.941241 -0.0665383 1.01488e-21)
(1.10391 -0.0263394 2.21634e-20)
(0.966615 -0.0483746 -1.70641e-20)
(0.620706 -0.0131013 0)
(1.01659 -0.0203865 -6.60711e-22)
(1.00828 -0.0128831 -1.1702e-21)
(1.005 -0.0258987 1.72922e-21)
(1.06491 -0.0242621 3.60676e-21)
(1.08732 0.0557675 1.42369e-20)
(1.0186 -0.00130951 1.70779e-21)
(1.00645 -0.0108139 1.01504e-21)
(1.00187 -0.0217506 0)
(0.846798 -0.145211 -1.63847e-20)
(-0.263768 0.000808457 -2.64687e-20)
(1.00671 -0.0149918 -7.34221e-22)
(1.00942 -0.0194128 0)
(1.00679 -0.0154347 7.39518e-22)
(1.04015 -0.0230155 4.09022e-21)
(1.05187 -0.0382364 -7.42697e-21)
(0.681032 0.0521358 -1.16954e-20)
(1.0063 -0.0269049 0)
(0.993259 -0.0237456 0)
(1.11997 0.015954 -2.24675e-20)
(1.0874 0.0205616 0)
(1.00398 -0.00842762 7.69441e-22)
(0.92473 -0.0360161 1.09104e-20)
(1.10415 -0.161676 -3.07038e-20)
(0.690377 0.0721156 -7.19492e-21)
(1.0358 -0.0449653 4.06279e-21)
(1.02346 -0.0409295 1.66321e-21)
(1.05407 -0.0503134 9.86465e-21)
(1.017 -0.0194753 -5.31394e-22)
(1.12654 0.0717951 6.93037e-21)
(1.1595 0.00923861 -9.72846e-21)
(-0.0921002 -0.0280253 0)
(0.971298 -0.0544449 0)
(0.297691 0.0445106 1.27647e-22)
(1.01946 -0.0395885 6.58249e-23)
(0.995452 -0.0145021 0)
(1.10158 0.0284191 -1.02967e-21)
(1.23197 -0.118232 1.06658e-20)
(0.221203 0.0507172 1.16794e-20)
(1.00838 -0.0126039 4.63057e-22)
(1.13196 0.000656753 -2.26078e-20)
(1.05964 -0.0274903 -1.00181e-20)
(1.09742 -0.0308972 -5.92264e-23)
(1.03467 -0.0037995 1.41381e-21)
(0.606488 0.0312539 0)
(1.00448 -0.00815967 7.82332e-23)
(1.12122 0.0151065 0)
(0.322866 0.0481466 0)
(1.00307 -0.022482 0)
(1.09653 0.0348019 5.91367e-22)
(0.956823 -0.0155085 -3.89733e-21)
(1.05141 -0.0416207 -1.45856e-21)
(1.07978 0.0156643 0)
(1.10552 0.0321085 -1.23845e-21)
(0.390848 0.047988 -2.04078e-20)
(1.08754 0.0311578 -8.85957e-21)
(1.01221 -0.0254269 3.41238e-22)
(1.00799 -0.0175973 1.38815e-21)
(0.188692 0.0477453 4.05117e-21)
(1.01481 -0.0142727 -8.27635e-22)
(1.02676 -0.080327 7.93327e-22)
(0.959833 -0.24452 3.23046e-22)
(1.00079 -0.00398612 -2.30294e-21)
(1.03997 -0.0220432 4.34454e-23)
(1.03256 -0.0241207 5.48217e-21)
(1.009 -0.0192273 -5.24513e-22)
(1.09478 0.0668556 2.43934e-21)
(1.19244 -0.441011 -2.32028e-20)
(1.04527 -0.0369832 0)
(0.925146 -0.284534 2.17669e-21)
(0.990219 0.0891907 -2.54297e-21)
(0.389143 0.0375038 -1.60288e-21)
(0.152015 0.0116209 -8.74807e-21)
(1.13029 0.0495773 -1.19264e-20)
(0.0425598 0.0269542 5.58568e-20)
(1.00371 -0.0359692 8.31513e-22)
(0.991607 -0.00669203 0)
(1.03479 -0.00987657 -5.73821e-21)
(0.568921 0.075649 -2.82785e-21)
(0.270536 0.0522675 3.29707e-21)
(0.995702 -0.00318274 4.3509e-21)