/*--------------------------------*- C++ -*----------------------------------*\
| =========                 |                                                 |
| \\      /  F ield         | OpenFOAM: The Open Source CFD Toolbox           |
|  \\    /   O peration     | Version:  v2012                                 |
|   \\  /    A nd           | Website:  www.openfoam.com                      |
|    \\/     M anipulation  |                                                 |
\*---------------------------------------------------------------------------*/
FoamFile
{
    version     2.0;
    format      ascii;
    class       surfaceScalarField;
    location    "300";
    object      ddtCorrDdt0(phi);
}
// * * * * * * * * * * * * * * * * * * * * * * * * * * * * * * * * * * * * * //

dimensions      [0 3 -2 0 0 0 0];
oriented        oriented;


internalField   nonuniform List<scalar> 
20537
(
-0.000256196
0.000505312
-0.000249118
0.0184673
-0.0301916
0.0117243
0.00134888
-0.00206304
0.000714163
-0.000120334
-0.00024135
0.000361682
0.000250286
0.000393767
-0.000644055
0.0100427
0.00378917
-0.013832
-4.31795e-05
2.74362e-05
1.57424e-05
-0.000858353
0.000287156
0.000571191
1.85159e-05
-1.83856e-05
-1.3082e-07
-0.00380061
-0.000299717
0.00410031
0.0120963
-0.0458981
0.0338017
-0.0031966
0.0192993
-0.0161027
0.00020827
0.00088619
-0.0010946
0.0132646
-0.00733916
-0.00592518
-1.7696e-05
8.87923e-06
8.81571e-06
0.000602924
2.5127e-05
-0.000628051
-7.40624e-05
-2.29829e-05
9.70442e-05
-0.00146838
0.000502907
0.000965474
-0.00206273
0.00242923
-0.000366498
1.68057e-05
1.71034e-06
0.000128636
-0.00024897
-0.000428203
0.00177708
-1.73587e-06
1.89115e-06
-1.55943e-07
9.04087e-06
-6.27495e-07
-8.41321e-06
-1.80773e-06
7.15197e-08
-0.000717839
-0.000140517
7.57161e-05
-4.24696e-06
-7.14678e-05
-0.000183307
-0.000282745
0.000109371
-0.000365567
-0.000298096
9.95253e-05
0.00019856
-0.00982321
0.0198659
-0.000106064
3.20005e-05
-0.000450944
-0.00161209
0.00352555
-0.0277882
0.0242627
1.03273e-05
-1.28564e-06
-0.000279963
0.000350448
-7.0484e-05
-0.000135675
-0.00039549
0.000531164
0.00224743
0.00098718
-0.00323455
-0.00557812
0.00177749
-0.0361042
0.0396298
2.43733e-05
-2.19864e-05
-2.38874e-06
7.76918e-06
-1.03724e-06
-6.73192e-06
-0.000634281
0.000661918
-2.76655e-05
-0.032856
0.00478012
0.0280759
0.0063187
-0.0391747
-0.0125781
0.0072481
0.00532971
-0.00449666
0.0211816
-0.016685
0.0814473
-0.00281612
-0.0786311
7.99461e-07
7.49174e-05
0.00202493
-0.00961704
0.0075921
1.889e-05
7.99535e-05
-9.88427e-05
0.000427642
-8.95508e-05
-0.000338107
-0.00120382
0.00263806
-0.00143434
1.92829e-05
-1.18812e-05
-7.40249e-06
-2.19042e-05
1.94957e-05
2.40774e-06
-2.34824e-07
8.00431e-06
-4.4506e-07
-2.29078e-06
2.73542e-06
0.00321369
0.000966269
-0.0041801
-0.000113846
-0.000184263
1.74463e-05
-3.96943e-05
2.22465e-05
0.00422715
-0.00197975
0.00384505
-0.00721337
0.00336836
0.00705553
-0.0100172
0.0029617
-0.000511832
-4.96555e-05
0.000561486
0.00726281
0.00660258
-0.0138656
-0.000989089
0.000102021
0.000887057
-1.0646e-05
-0.000125028
-0.00248939
0.00327054
0.000182895
-3.86521e-05
-0.000144243
-0.000604303
-0.000864084
0.000480127
-0.000588588
0.00010846
0.000468601
-0.000490574
2.1976e-05
0.0210808
-0.00261353
1.11119e-05
8.17051e-06
-5.07652e-06
1.63498e-05
-1.12738e-05
-2.78231e-05
5.13831e-06
2.26905e-05
0.000571548
-0.000999749
-0.000236717
0.000193637
4.30657e-05
-0.000301335
0.000352476
-5.11447e-05
0.000563952
-5.53729e-05
4.15173e-05
-3.60407e-05
-5.47604e-06
0.0293898
-0.0326928
0.00330305
1.81361e-05
-1.79766e-07
-1.79573e-05
-0.0032074
0.00588421
-0.00267649
0.00837826
-0.00132272
-0.0224323
0.0192357
-0.0079631
0.0109615
-0.00299848
-0.013503
0.00896911
0.00453408
8.17143e-05
-0.000115898
3.41829e-05
-0.00017602
0.000166012
1.00126e-05
-2.09133e-05
-0.000259048
0.0043313
-0.00651585
0.00218454
-0.0161042
1.15363e-05
-0.000125044
0.000113506
-1.07887e-05
9.25027e-05
-3.9871e-06
5.10876e-06
-1.12111e-06
0.000633552
-0.000383269
0.00283357
-0.00127644
-0.00155716
0.0126761
-0.0106511
7.41987e-07
-4.72898e-06
0.0117342
-0.00680211
-0.00493192
0.00011056
0.000130749
-0.000241309
9.8523e-05
-9.05996e-06
-8.94654e-05
-7.51724e-05
7.36295e-05
1.85962e-06
1.50261e-06
-3.36275e-06
0.0129971
-0.00640847
-0.00658864
-0.000101876
-9.25538e-05
0.000194428
8.37209e-06
1.25196e-06
-9.62425e-06
0.000568166
0.000117838
0.0139964
-0.0102072
4.67611e-06
2.78356e-07
-4.95349e-06
-0.000286262
0.000110243
0.00445055
-0.000119231
9.37084e-06
-9.37027e-06
4.01461e-07
4.2751e-06
0.0141967
-0.00900407
0.000184709
0.00264885
-4.76666e-06
-1.7322e-08
4.78422e-06
1.38201e-05
-1.45952e-05
7.74248e-07
4.39206e-06
-1.80491e-05
1.36563e-05
-0.000346201
-0.000288098
1.1201e-05
-8.63745e-05
0.00134202
-0.00113376
-0.00208814
0.0170187
0.0644288
0.000265944
0.000751976
-0.00101792
0.0392094
-0.0221906
-0.000334507
0.000102476
0.000232035
-0.000144641
0.000273278
0.00135654
-0.00137726
2.06663e-05
-1.3736e-06
2.57459e-05
-9.18518e-06
6.52199e-07
8.53083e-06
0.000602599
-0.000122472
2.05525e-05
-2.41718e-06
0.00177011
7.99115e-06
-1.03727e-05
2.38152e-06
1.0583e-06
-5.82485e-06
-0.000434689
0.000362898
7.17939e-05
-0.0144135
0.00478238
0.00963121
-0.00147478
0.012044
-0.010569
0.00571398
0.00602027
-1.2789e-05
-9.11597e-06
0.000840036
-0.000426078
-0.000413948
1.94589e-05
-3.18767e-05
1.24173e-05
2.02612e-05
-3.29133e-05
1.26475e-05
-0.00948212
0.0142622
0.00116381
0.00198587
-0.00314969
0.00161873
-0.000262188
-2.43029e-05
-1.88774e-05
0.0527914
-0.0464727
-0.000117949
-3.57031e-05
1.3954e-05
-1.78298e-05
3.87475e-06
0.0065752
0.00668951
1.35304e-06
-1.79848e-06
-4.61183e-05
3.66968e-05
9.42241e-06
-1.84411e-06
2.21025e-05
6.83462e-06
1.32924e-05
-2.0128e-05
5.88121e-05
-0.000103854
4.50548e-05
-0.000104043
0.000531655
-0.000134547
0.000153438
9.10922e-06
-1.62375e-05
7.12881e-06
-6.22299e-05
-3.77e-05
9.99288e-05
-0.000505452
0.00371907
-3.57096e-06
-5.61441e-06
0.000710294
-0.000318046
-0.000392251
1.15488e-07
2.34157e-06
-2.45713e-06
-0.00470297
0.00586677
0.00015321
2.96838e-05
-0.000195618
5.09769e-05
0.00566337
-0.00552413
-0.000139481
-5.9105e-05
-0.00017762
-6.41523e-06
5.72754e-06
6.86561e-07
-1.12144e-05
1.80477e-05
-0.0154252
0.0139507
-1.0117e-05
6.54365e-06
-0.0898575
0.0870414
-5.63338e-05
-0.000278175
-0.000308932
0.000692017
-0.000383078
-0.000518065
-0.00154467
-8.67623e-06
-1.56187e-06
1.02383e-05
4.00059e-05
9.14305e-05
-0.000131438
3.39125e-05
3.86245e-06
1.34444e-05
-1.73071e-05
0.000642698
0.00113438
-1.29624e-06
2.55559e-06
-1.25927e-06
1.44108e-06
-1.56253e-06
1.21143e-07
-0.000494203
-0.000494889
-1.14046e-05
1.57961e-05
-0.000589797
-0.00035133
0.000941121
0.00676523
-0.00500297
-0.00176225
-0.00122613
-0.00290265
0.00169882
0.000314443
0.000151075
-0.000465519
-6.08169e-05
0.000204914
-0.000144098
0.00766653
-0.00382142
-4.487e-05
2.67931e-05
1.80768e-05
0.000440192
0.000399852
0.0781546
-0.0336395
-0.0445152
-0.000679339
0.000370407
3.95635e-06
-3.17797e-05
-0.000707515
0.000973462
-0.00902329
0.00729297
0.00173006
1.68487e-05
-2.87755e-06
-1.39717e-05
2.8597e-05
-1.78203e-05
-1.07774e-05
-0.00409403
0.00279604
0.00129796
1.85459e-05
-1.46844e-05
-0.0196521
0.0101478
0.00950438
-9.44585e-05
8.16638e-06
8.6291e-05
0.000590586
-0.000146236
-0.000444351
-2.73479e-06
4.88867e-06
-2.15413e-06
0.000167592
-0.000459618
0.000292028
8.63722e-05
1.21509e-05
0.0371336
-0.0846468
0.0475129
1.67531e-06
2.18599e-06
-3.86143e-06
6.46506e-07
1.21999e-05
-1.28458e-05
0.0176264
-0.0437813
0.0261549
0.00351472
-0.0079582
0.00444353
-0.00812068
-0.00445762
7.6112e-06
8.1716e-06
-1.57833e-05
0.000486211
0.000104376
-9.27078e-05
-1.75179e-06
1.13024e-05
3.02139e-05
0.000944922
-0.000339517
-0.000605403
-0.000568301
0.000871385
-0.000303098
0.000103525
0.00035392
-0.000457444
-5.47589e-07
1.6821e-07
3.79322e-07
-2.61048e-05
0.000187709
-0.000161606
2.5803e-06
-7.21049e-07
-0.00187291
0.00325996
-0.00138708
-1.54148e-06
3.21682e-06
-0.000933034
0.000215191
-0.0124813
-0.00590345
0.0183847
-7.24381e-07
-5.69034e-06
2.81814e-05
2.68954e-05
8.77552e-05
-0.00011465
0.00415501
-0.00182904
-0.00232595
-0.0121379
-0.00751429
0.0161327
-0.00887009
-1.69643e-05
3.64231e-05
1.44145e-05
1.41819e-05
-0.0168515
0.00702824
-0.0366191
0.0237066
0.0129125
0.000270585
-0.00011891
-0.000151675
-0.00253746
-0.00155658
-2.85415e-07
1.78802e-06
0.000444829
-3.92977e-05
-0.00040553
-0.000134198
0.000244759
-0.0232594
-0.0456238
0.0688832
-2.89426e-05
1.35362e-05
1.53999e-05
-0.000198631
8.11809e-05
0.000117465
0.000241432
0.00214697
-0.00238842
-0.0247742
-0.0118448
1.65703e-05
3.78545e-06
-2.0356e-05
-3.07892e-05
-0.000180327
0.000121554
5.87729e-05
0.0181664
-0.0351523
0.0169859
0.00304689
0.00371834
-6.13429e-05
0.000424243
0.000149422
0.000539835
-0.00068929
2.4376e-05
-7.75684e-06
-1.66199e-05
-1.63179e-05
0.00121292
-0.00121682
3.89657e-06
0.0490521
-0.0298429
-0.0192092
-2.46882e-07
0.000124848
-0.0001246
-0.0024656
0.00158074
0.000884844
-2.05112e-05
-2.43596e-05
2.20053e-05
-5.43532e-06
0.000101579
-9.00434e-05
0.000642817
0.000302103
-0.00131827
0.00627682
-0.00495855
0.00273214
-0.00249071
-1.93254e-05
0.0243541
-0.0232134
-0.00114067
-0.000338643
3.73024e-05
5.19066e-05
0.000551022
7.61542e-06
-6.96396e-06
-0.00400086
0.0333906
0.0111212
-0.00932391
-0.00179732
-6.916e-05
0.000468416
-0.000399256
0.0405735
-0.0284772
0.000203168
6.74174e-05
2.03743e-06
5.5769e-08
-2.09322e-06
2.69948e-06
-3.77534e-06
1.076e-06
-5.04872e-05
-0.000129841
0.0323729
0.016679
-0.000533718
0.0753427
-0.074809
1.979e-05
-1.06678e-05
-9.12408e-06
-6.34703e-06
-7.183e-06
1.35289e-05
0.0259904
-0.00163635
-0.0148419
0.0485079
-0.0336659
0.00174279
-0.000124047
-0.000180379
6.65336e-05
3.40568e-05
-1.66103e-05
3.88143e-05
-0.00020976
0.000170943
0.0146288
-0.0294707
-0.000938498
-0.0015271
0.000318976
-5.51964e-05
-0.000263783
-0.0338853
0.011453
-9.92004e-06
7.80942e-06
2.1091e-06
0.000400981
4.38497e-05
-0.000116775
5.45449e-05
6.7127e-05
-9.01108e-05
-0.000165302
-0.00031928
0.000484582
9.48349e-06
-3.38313e-05
2.43467e-05
0.000666922
0.0123301
-0.000386433
-0.000177805
0.00056426
6.52681e-06
1.32624e-05
-0.000178556
0.000151932
2.66241e-05
-0.00014087
1.58252e-05
-5.71994e-05
-0.00012317
-0.0010788
-0.0133347
0.000396743
-7.77704e-05
-2.30188e-05
2.17548e-05
1.2636e-06
0.00142943
-0.000218408
-0.00121105
2.40718e-07
1.8946e-06
-2.13474e-06
-0.000150009
-4.86203e-05
-0.00121262
-9.98063e-05
0.00131243
-0.000550164
0.000481005
-0.000181135
2.64769e-05
0.000154659
1.6371e-05
-8.76023e-06
-4.4927e-05
0.000182136
-0.000137211
-6.38871e-06
-8.83395e-06
1.52221e-05
-0.000704447
0.000853853
-0.00460082
0.00416765
0.000433152
-2.05521e-06
3.85069e-06
-1.79576e-06
2.32028e-05
-4.01625e-05
1.69591e-05
-0.00018199
8.55156e-07
-0.000152368
0.000126262
3.05335e-05
9.16662e-06
-3.96986e-05
-1.10838e-05
3.12722e-05
-2.17898e-05
-1.89623e-05
-4.05626e-06
-0.046705
0.000806911
-0.00677466
0.0108065
-0.00715157
0.00327402
0.00387765
0.0010559
0.00149876
-0.00255465
0.000428354
-0.000593655
-0.00553794
-0.000797401
0.00633527
-6.58439e-06
0.000161037
-0.000221856
-1.47976e-08
0.00174294
0.00345819
-0.00705067
0.00359247
0.00697443
-0.00489025
-0.00208415
-0.000137482
0.000268492
-0.000131009
0.00149073
-0.0010652
0.00184218
-0.00077699
0.0511422
-0.0556589
0.00451651
0.000242868
-0.000469419
0.000226551
-4.74551e-06
1.3624e-05
-0.00581463
-0.0042224
0.010037
0.00378758
-0.00960224
-0.00222566
-0.00343984
0.00566556
-1.084e-05
4.13751e-05
0.00642007
0.000554454
-0.0034118
0.0015389
8.46154e-06
-1.96763e-05
0.0861055
-0.0349636
3.55305e-05
-1.23285e-05
7.81219e-06
-1.4201e-05
2.21902e-06
-2.50457e-06
1.0817e-05
-2.44495e-06
-9.36287e-06
-8.43921e-06
1.78001e-05
0.000465325
-0.00022246
-0.0225884
0.0645065
-0.041918
-6.94095e-06
2.44446e-05
-1.75051e-05
-0.000145918
-3.26384e-05
3.53202e-06
1.01015e-06
-4.54142e-06
-0.0209549
-0.0129304
-0.00112529
0.000172725
0.000952568
0.0789124
-0.0175552
0.00148279
0.00418065
1.80897e-05
-2.50323e-05
0.00628565
-0.00277084
1.39356e-05
0.000118812
-0.000132749
0.0663988
0.0125135
1.81238e-05
3.75821e-06
-2.18837e-05
4.60443e-06
-4.62183e-06
0.00338245
-0.000129474
-0.003253
0.00992028
-0.00793968
-0.00198055
-1.64816e-05
-0.0147929
0.0137141
-0.00305766
-0.00025952
0.00012203
-0.00162069
-0.00390359
0.0137518
0.00337004
-0.0171219
-0.00696104
0.0207129
-0.00102501
0.00244581
-0.00142081
-9.36824e-06
-6.89483e-06
1.62611e-05
-8.41054e-06
1.06216e-05
-2.21207e-06
-0.000766843
0.00182276
-0.00014094
9.60145e-05
-0.0137548
0.00641557
5.6734e-05
-0.000181169
0.000124434
-0.000401243
0.00050477
3.92518e-05
0.000389563
-0.000428798
3.8776e-06
-3.4528e-07
1.25944e-05
1.17813e-05
-0.00566871
0.000143365
-0.00058626
0.000442893
-0.0171737
0.00469258
-0.00189432
0.00207901
0.00396444
-0.000582008
0.000154021
-0.000140087
-1.22811e-07
-7.28715e-08
1.95391e-07
-0.00567141
0.000133436
5.33e-06
-3.80936e-06
-1.52052e-06
0.000399566
-0.00037444
-0.00162686
0.000601845
2.32693e-05
8.04593e-06
-3.13176e-05
-6.63317e-07
1.87772e-05
-1.22505e-05
-1.11943e-06
1.23516e-06
-7.82728e-05
-0.00043356
0.00414254
-0.00476264
0.000620045
-0.000494761
0.00120446
-0.000709717
-0.00170349
0.000365435
0.00133806
8.026e-05
-0.00455735
0.00373135
0.000826022
-0.0476589
0.0228847
-0.000197465
0.00019188
5.59351e-06
-0.00784645
0.0056209
-4.99505e-06
7.21223e-05
0.0345724
-0.016946
-5.83715e-06
6.89559e-06
4.31135e-06
1.44655e-05
-1.3678e-07
1.57751e-06
-0.00270283
-0.00248144
0.00518419
0.0283963
-0.0125781
-0.0158181
0.000988331
-0.000403494
-0.000584849
-0.00261093
-0.00194643
-0.00119921
0.00496476
-0.032753
-0.00729618
-4.09537e-06
7.93071e-05
-5.24116e-05
-5.61194e-06
2.37352e-05
-0.0119351
-0.0357237
-1.61184e-07
-1.06296e-06
1.22434e-06
0.012489
-0.00329535
-0.00919353
-0.0755254
0.00885473
0.0666708
3.09874e-05
-0.00152806
0.00149707
-0.000456048
7.67336e-05
0.000379317
-1.38886e-05
-0.000665448
-0.0106859
-0.00156688
0.0122528
-0.00478566
-0.0707397
0.000205263
0.00874761
-3.68113e-06
2.38502e-06
0.000174982
-0.000185816
1.08315e-05
0.000296143
0.00795233
-0.00927061
3.47502e-06
-3.79008e-06
3.13911e-07
2.56464e-05
-1.03709e-05
-1.52759e-05
-0.000132558
0.000191256
-0.000280812
-0.00023465
0.00253022
-0.00229556
0.00846581
0.00918449
-0.0176503
8.64709e-07
-1.4127e-06
-1.36603e-05
-2.64997e-05
-0.000619246
0.00184273
-0.00122353
0.000509247
0.000201045
1.77705e-06
2.60416e-07
-0.0062324
-0.00727044
-1.43277e-05
4.95859e-06
0.000263964
-1.25337e-05
1.38656e-05
-1.33268e-06
-0.000846835
0.00256606
-0.00171923
9.78069e-05
-1.37095e-05
-8.40858e-05
-2.67895e-06
-0.000555588
0.000541703
0.00143974
-1.03101e-05
-1.64012e-05
1.62213e-05
-0.000173985
7.89749e-06
0.000166086
-2.02571e-06
1.00165e-05
-0.00242619
0.00271251
-0.000286292
-0.0182279
0.0113573
0.00687058
-9.5798e-06
9.57871e-06
-1.84872e-05
6.48631e-06
1.19994e-05
8.74333e-06
-2.62119e-06
-6.74906e-06
-0.0689303
-0.00680817
0.0757384
-1.71322e-05
-5.75233e-06
2.28841e-05
0.00372345
0.00723805
-3.69571e-06
1.71389e-05
-8.306e-07
7.0738e-07
0.00613199
-0.000723826
-0.00540794
-5.10122e-05
-0.000405035
-6.35889e-06
-1.2146e-05
1.8504e-05
-0.00304119
0.000614972
2.49913e-05
-0.000222454
0.0130709
0.0106358
0.00378495
-0.00699233
-4.08497e-05
2.7191e-05
-0.0443933
0.0218048
-2.05794e-05
2.4336e-05
0.000500322
-0.000820522
0.000320203
-7.06655e-06
3.14384e-05
-2.43732e-05
0.00153639
0.00223835
-0.00377486
6.25924e-06
-7.08259e-07
-5.55087e-06
0.00259165
4.63439e-05
-0.0064425
0.00390222
0.00254031
3.94675e-06
-4.98371e-06
-0.00380615
0.000764939
0.00046098
0.00279685
-0.00325802
-0.000660346
-0.00027269
-0.0365147
-0.0109162
0.0474309
1.43221e-05
-5.0162e-07
0.0270461
-0.0179466
-0.00909882
2.05022e-05
-1.00722e-06
7.47319e-06
-1.2804e-05
5.33009e-06
9.23039e-06
-2.88169e-06
-6.34991e-06
1.72848e-05
1.64077e-05
-3.36938e-05
0.000622336
-0.000478972
2.41082e-05
0.000145596
-0.000169704
0.000180084
-0.000250653
7.05676e-05
0.00113967
-0.000441853
-0.000697832
0.000420054
3.46639e-05
-2.55543e-05
-0.00293499
-6.01012e-05
0.00299511
0.0100866
0.0183097
-7.71943e-05
0.000117199
9.12167e-05
-0.000128917
0.0199588
-0.00688784
-0.00694665
0.0048586
-0.000297772
0.000465363
1.60426e-05
-8.50235e-07
-1.51932e-05
0.00591421
-0.00437783
0.0110331
-0.00260513
-0.00641829
7.86979e-05
-0.000459519
-0.00334666
-0.0100429
0.077311
-0.00858212
-0.00210383
-0.00546637
0.0236329
0.0524288
0.0257255
0.0157872
-0.00780959
-0.00797754
-7.79829e-05
0.0001368
0.00199526
0.013792
1.70393e-05
0.000423205
-0.000440245
-1.77944e-07
6.43737e-06
0.00253906
-0.000110439
-1.44078e-05
-0.000367111
0.000381522
3.52867e-05
-2.17566e-05
-4.42876e-06
-1.40136e-05
1.84419e-05
1.8395e-05
-5.10371e-06
-2.08015e-05
-1.52865e-07
2.09522e-05
-0.000725757
0.000135957
0.00229836
-0.00259226
0.000293907
0.00795359
0.00101559
-0.0111752
0.019641
9.05804e-06
-1.26451e-05
3.58632e-06
0.000786063
-0.00140533
-0.000223927
-0.000121989
0.000345903
-0.0212603
0.00948692
0.0117733
0.0517514
-0.0416648
-2.07754e-05
-4.70327e-06
7.97175e-07
3.9059e-06
-1.40739e-05
0.0156173
-0.00719324
-0.00842407
-0.00244114
-0.000493852
2.87608e-05
7.93616e-06
-0.000121565
8.31998e-05
3.8367e-05
0.000286724
-0.000209993
-7.67276e-05
-9.72567e-06
9.49103e-06
-0.00595488
0.00127538
0.0046795
0.00883762
0.00914894
-0.0179864
0.00480451
-0.00824434
-0.000417936
0.000457776
-3.98519e-05
6.55635e-05
0.000556773
0.00029575
0.000169164
-0.000464915
-2.19536e-05
3.50899e-05
-1.18218e-05
0.0118278
0.0151099
-0.0269377
-0.000347177
8.06881e-05
9.66152e-05
-0.000177304
-7.47898e-05
0.000131523
-0.00436194
-0.00565526
2.14094e-06
-2.0928e-05
8.27986e-07
2.01006e-05
0.00467944
1.94322e-07
-9.9198e-06
3.21288e-05
3.1535e-06
-7.23925e-06
5.67749e-06
-2.24647e-06
1.52618e-05
-1.30141e-05
0.000343774
-0.000326737
0.000583895
-0.00313402
0.000523102
-9.74786e-06
9.94247e-06
-0.000596847
-0.014196
0.0260411
-0.0596809
-8.44567e-06
-6.14675e-06
1.45907e-05
-7.90748e-07
1.65281e-06
-8.62707e-07
-0.000143117
0.000142872
-1.31563e-05
-0.000769287
0.0106896
0.0518454
-0.0751049
0.088979
-0.00876452
0.00615928
0.0136138
0.0134324
0.000168248
-1.47214e-05
-0.000153526
-0.000347011
0.000332604
-0.000461226
0.000314991
0.000658024
-0.00172323
0.000145488
-0.000184141
-4.14943e-06
-5.53755e-07
-0.00192013
-0.000247488
0.000619691
-0.000372206
-0.00156439
-1.60548e-05
0.00158044
-0.0503378
-0.00532148
-4.98027e-05
-7.17619e-05
0.000223215
-0.000118211
-0.000105008
1.73552e-05
-1.64138e-06
-1.57169e-05
-0.000758991
0.000183666
0.000575334
0.000294714
-0.000890102
0.000595394
-0.038543
0.0020283
-5.95614e-06
-0.000182961
0.000188918
1.26293e-05
-1.63255e-05
0.00218386
-0.000685089
6.88513e-07
2.78553e-06
-1.74123e-05
9.11111e-05
-7.37006e-05
0.000370684
0.000617637
-2.6681e-05
-1.30147e-05
1.30205e-05
-1.8633e-05
-0.00136371
0.000238414
-1.04536e-05
2.0031e-05
-9.57722e-06
-0.000331991
0.00181427
-0.00451713
-6.44502e-05
-0.000503861
-0.000907281
0.000525359
0.000381928
-0.000111915
0.000192605
1.67109e-06
1.5684e-05
-0.0161273
0.0171877
-0.00105988
-0.00245385
-0.00493294
-0.00383172
5.73414e-05
2.90284e-05
6.24819e-06
-2.68054e-06
-3.56789e-06
4.23226e-06
0.000563936
0.000112293
-0.000297132
0.000184833
-0.00419005
0.00256947
0.000490742
-0.00031636
-0.000174382
0.00937485
-0.00160575
-0.00776921
-0.0160906
0.00985835
2.52144e-06
2.8075e-06
-0.000486346
1.20088e-05
0.000191159
-1.76935e-05
1.43792e-05
3.31348e-06
-5.32356e-06
4.61554e-06
-1.66677e-05
1.44211e-05
-0.000837199
-0.000822794
0.00165999
-0.000542042
-0.00116144
-0.00186186
0.00101502
-1.64121e-07
-9.58373e-06
0.00458799
-0.00976693
0.00517887
-0.00339561
0.00919348
-0.00460552
1.41409e-05
3.80156e-06
-1.79441e-05
-3.72644e-06
2.39089e-06
1.3357e-06
2.87737e-06
-1.50754e-06
-1.3703e-06
-0.00220317
0.00220324
-0.00502701
-0.00294159
0.00796869
-0.000153763
4.64462e-05
0.000107317
8.41659e-05
0.000307317
-0.000295308
9.00283e-07
-9.73395e-07
2.93026e-06
8.86853e-06
-1.18007e-05
2.26247e-05
-6.18768e-06
-1.64381e-05
0.000395563
0.000238904
-0.000634452
0.0115596
-0.00285473
-0.00870494
8.15783e-06
-1.86101e-05
-1.02774e-05
1.01133e-05
3.53635e-05
-1.80793e-05
3.42063e-06
1.92033e-05
-0.00991804
0.00949872
0.000419307
0.00175077
-0.00294461
0.00119369
-0.000707081
0.00418221
-0.00134154
-0.00284061
-0.0309429
0.0129964
-8.66641e-06
2.16861e-05
1.11772e-05
0.0001689
-0.00773435
0.000184301
-0.00190799
0.0212073
-3.05361e-05
-5.5049e-06
0.000608621
-2.72382e-05
-0.000126526
-0.000851387
-0.032218
1.21866e-05
0.0331025
1.28177e-06
-1.44295e-06
-0.000137313
0.000102834
0.000479051
-0.000402317
-5.35705e-06
-3.93449e-05
4.47017e-05
-0.000141954
-2.16991e-05
0.00016365
-0.0108432
0.00648132
1.22463e-05
-4.77394e-06
-1.46332e-05
0.00574467
0.0202458
0.0213882
-0.0212279
-0.000160343
-0.0002362
0.000230245
0.00292032
-0.00133959
0.023287
-0.0199169
-5.05341e-06
-5.19189e-06
1.93315e-05
0.00395116
0.00218096
0.000226884
5.98413e-05
0.00167031
0.0024847
0.00017808
0.000312662
-7.41443e-06
1.17835e-05
-4.37085e-06
1.74231e-06
2.97493e-06
-4.71797e-06
-6.01499e-06
0.0353164
-0.0217024
0.000157257
-0.000313132
0.000155876
0.000127072
0.000105884
-0.000232955
-5.91388e-05
2.51584e-05
3.39778e-05
-0.0227189
0.00449102
-5.38828e-05
-3.2828e-05
8.67115e-05
5.0531e-07
2.37193e-06
0.000561486
0.000517701
-0.00107925
-0.0486171
0.0134646
-0.000255062
-0.000334254
0.000589301
4.18764e-06
-1.34238e-05
2.158e-05
7.18745e-05
0.000255065
-0.000326939
0.00141422
0.000426898
-0.00184137
0.000180733
-0.000201645
-0.000298389
0.000593109
0.000484063
-0.000361803
-0.00012226
5.86772e-06
0.0178233
0.0167491
0.00384975
-0.004553
0.000703231
-0.00205691
0.0020879
-0.000135422
9.01201e-05
4.53068e-05
0.00125415
-0.00203333
-0.000591577
0.00262489
-0.000564426
0.00126439
-0.000699965
0.000189511
-0.000585
1.41001e-06
4.83769e-06
1.68488e-05
6.78902e-05
2.99276e-05
1.54132e-05
-1.3743e-05
-0.00100452
0.00156602
-2.90306e-05
0.000370668
-0.000341637
-0.00022668
-0.00124414
-0.00188987
0.00384689
-0.0131708
1.5164e-05
-0.0240982
-1.01812e-05
1.00684e-06
9.173e-06
0.000412472
-4.12067e-06
-1.20259e-06
-7.75467e-06
1.87774e-05
-1.10239e-05
1.66299e-05
-7.00685e-06
-9.62399e-06
-0.000404902
0.000227109
9.03215e-06
-4.87591e-06
9.36705e-07
3.93885e-06
-0.0301448
0.0319472
-0.00180224
2.32717e-05
1.18167e-05
0.000359007
-0.000287131
-1.84677e-06
7.37401e-08
1.77301e-06
0.000716183
0.000133802
-0.000849972
-6.71648e-05
4.31468e-05
2.40185e-05
-0.000463779
-0.00945426
0.0545511
-0.0110676
-0.0434835
-9.59198e-07
-8.49732e-06
9.45472e-06
-0.020268
-0.00294549
0.00275881
0.00142346
4.87274e-06
2.51437e-05
-0.00053372
0.000508576
-3.27181e-05
-0.000104595
2.3472e-07
-1.27683e-05
0.0018899
0.00221259
-0.0041025
0.000368722
0.000293186
-0.0149295
-0.00533852
0.00012663
-0.000179938
5.33139e-05
1.19882e-05
-9.02559e-06
0.0469658
0.00249489
0.000110627
-0.0026055
-0.00168826
0.00375415
-0.0020659
-0.000312998
0.000257803
-0.00349984
0.00538974
1.36601e-05
2.38193e-06
0.000214481
0.000501709
-3.09155e-06
-0.000116481
0.0145803
-0.00731422
-0.00726582
-0.000897771
0.000546446
-0.017965
8.29415e-06
-2.17159e-05
-0.000397451
8.0498e-05
-6.90164e-05
-1.14818e-05
-0.000151489
-0.00018643
0.000313502
-0.00464396
0.0168185
-0.0121745
0.000534503
0.000605181
-1.85868e-05
4.1857e-05
-0.00191782
0.00962661
-0.00770831
-0.015581
-0.000546163
-0.00489971
0.00531866
-0.000418768
0.0217829
-0.000394709
0.0011278
-0.00093663
-0.000191212
-0.0227254
0.0127928
0.0099326
-0.00026858
0.000918449
-0.000649872
1.56476e-05
-0.00192525
0.00115842
0.00507401
-0.0041076
0.00396652
-2.64019e-05
9.73817e-06
1.66606e-05
-5.63057e-07
6.95936e-07
-1.32736e-07
0.000113491
-2.57356e-05
0.0180213
0.00795829
-0.0259796
8.3159e-08
3.80596e-06
-3.88904e-06
0.00115188
0.00148601
-0.00263799
1.2539e-06
-8.6693e-06
-1.0562e-05
2.22516e-05
-1.16907e-05
0.000838163
0.000188118
0.000103493
-0.000291614
0.00933647
0.0139506
-1.32197e-05
-4.47579e-06
1.84478e-05
-1.06359e-05
-0.000353921
0.00176803
-8.27842e-06
0.000403849
-5.72982e-05
0.000153916
-0.000947484
-6.04364e-05
0.00100791
-0.00250201
0.00577615
-0.00145227
0.00625677
-0.00722339
0.0021964
-0.000220798
0.000128243
2.48001e-05
-0.000170718
6.684e-06
-3.11874e-05
2.4119e-05
0.0264198
-0.00533902
0.000136104
-9.1585e-05
-4.4518e-05
-0.00032348
-0.000262781
0.00112923
0.0028352
-0.000151486
0.000433656
0.00113229
-0.000574211
-0.00432543
5.74001e-05
-0.000281334
-7.46646e-06
-1.17065e-05
1.91716e-05
-0.000129469
0.000142969
-1.35e-05
-1.28122e-05
4.36548e-06
-0.000723613
-0.000194823
5.28689e-05
-0.0102993
0.0076734
0.00262577
-1.43853e-05
1.43848e-05
-0.000427216
-0.000111241
0.000538458
-4.10622e-06
4.18904e-06
4.90361e-06
-7.20677e-05
2.60036e-05
-1.76468e-05
-8.35808e-06
-2.73245e-05
0.00568228
-0.00565498
9.34573e-05
-1.6789e-06
-0.000127791
-0.002618
-0.000185105
9.8604e-05
8.65013e-05
0.000202701
0.00236335
4.96191e-06
-7.58326e-06
8.4211e-05
-0.0903912
-0.0113275
0.00141597
0.00991167
-3.67849e-05
-1.67999e-05
5.35721e-05
-4.76829e-05
0.000235795
8.80115e-05
3.68364e-05
-0.0264585
-0.0179348
2.8471e-05
-1.39977e-05
-1.4474e-05
-0.000394359
-6.52583e-05
-0.00878261
0.000124713
0.000234295
-0.0245875
0.00186203
-0.00311183
0.00424105
-3.07736e-05
1.83628e-05
1.24082e-05
-0.000589382
0.000334307
-1.77894e-06
-1.26068e-05
0.00703583
-0.01604
-7.18692e-05
-0.000439869
0.000511737
-1.93213e-05
5.47354e-06
1.38457e-05
-6.8686e-05
2.1666e-05
4.70235e-05
0.00174571
-0.0319724
0.0580134
-0.00710808
0.0168124
-0.00970423
1.56528e-05
-2.04962e-05
4.84269e-06
-3.237e-06
9.45896e-07
0.0119278
-0.00499898
-0.00692893
-1.72708e-05
0.000503482
0.000374918
8.28378e-05
0.000157879
-3.12403e-05
0.000642469
-0.000610656
-3.18196e-05
-0.0289369
0.00247841
-0.00382707
0.00111572
0.00271118
-1.2117e-05
9.26161e-05
-3.15461e-06
-1.72156e-06
-0.000977866
0.000709288
1.13758e-05
-4.14522e-06
-7.23206e-06
-1.25219e-05
9.64433e-06
0.0170016
-0.013214
3.57578e-07
5.42177e-07
-0.00927013
0.000973249
0.00829701
-0.0586514
0.0467163
-2.28971e-05
1.23344e-05
-0.00098166
4.75608e-06
-3.59565e-05
-0.000486779
0.000353539
0.00013324
0.0041925
-0.00373172
-1.74775e-05
0.000192459
-0.0151949
0.010551
9.51256e-06
1.64911e-05
-0.000189502
3.68457e-06
2.04725e-05
-2.11189e-06
4.94525e-06
6.42906e-06
2.73885e-05
-3.78993e-05
1.05089e-05
-7.89628e-06
-1.50014e-05
0.000433237
1.99355e-05
-0.000453173
6.34641e-06
-1.84924e-05
0.000116589
-0.000143828
-1.89663e-05
1.14994e-05
1.19513e-05
0.0100406
-8.50019e-05
-0.00104844
0.00113311
-6.36019e-06
-8.2353e-06
0.0235708
-0.011743
0.00241118
-0.00409944
-0.000520033
-0.000366639
0.000886687
0.00031226
-0.00034129
-0.000182323
-0.00012142
0.000303741
-0.000145696
0.000140103
-4.89927e-05
0.00117062
-0.00299965
-0.0122072
0.00100736
0.0323361
-0.0333435
0.00164468
0.00111674
-0.00276145
0.000395278
-0.000411224
1.59425e-05
0.00608644
-5.54861e-06
6.28907e-05
-0.00013295
-5.2155e-05
-9.00493e-05
0.00971046
6.81325e-06
-7.77301e-06
0.00836424
-0.017682
0.00931807
-1.7526e-05
1.23325e-05
-1.55201e-05
-0.010232
-0.00352291
-0.000352127
-0.000450731
0.000802861
-0.00148532
0.000967235
-5.42389e-05
-6.89781e-07
-0.00222354
-5.00295e-06
5.9649e-06
1.24823e-05
0.00031555
9.79784e-05
-0.000413529
-2.95037e-05
-1.03194e-06
-0.000312115
0.000501628
1.92292e-05
-1.37565e-05
-0.000502604
0.000494334
-0.000866154
-0.00296101
0.00306039
-0.00357819
0.000517777
-0.0198955
-0.00133233
-2.3142e-05
6.58502e-07
-1.08394e-05
-0.00212054
0.00202073
-1.79614e-05
-2.84122e-06
9.72389e-06
3.54758e-05
7.28928e-06
-4.27653e-05
4.80706e-05
-2.2404e-05
-2.5668e-05
-1.44231e-05
8.38352e-06
6.03625e-06
-4.57354e-05
-1.34055e-05
5.77141e-07
-2.63243e-06
0.000251034
0.00361301
0.00794664
-0.0126502
0.000116684
-0.00201102
0.000495545
8.66552e-05
-0.000582196
-1.83216e-05
-2.60592e-06
-0.0385367
0.0121647
0.0263719
0.000128281
9.49324e-05
1.07894e-05
-0.00361638
0.00212167
0.00149475
-0.0170934
0.0160311
0.00106228
0.00294382
0.0154525
-0.0183964
1.51318e-05
1.21751e-06
0.0154301
0.00575153
0.00457297
-0.0365453
0.0034468
-0.00581997
0.00237322
-5.22613e-07
-2.803e-06
3.32521e-06
0.000795825
0.000546167
0.000345361
2.53062e-05
1.89982e-05
-7.28805e-05
-0.000572602
0.00088815
-4.42629e-06
1.08322e-05
-6.40488e-06
0.0110498
0.00471527
-0.015765
-0.00526068
-0.0103201
0.00641227
1.46831e-05
-2.00394e-05
-1.25063e-05
-4.62624e-06
1.7132e-05
0.0100863
0.0291232
1.63944e-05
1.20762e-05
0.0062034
-0.0269349
-0.00200202
-0.0299038
0.00771405
0.0221898
-0.000548516
0.00150696
-0.00095846
-0.0130794
-0.00891726
0.0219968
-1.11678e-06
5.53951e-07
1.53641e-05
-2.55e-05
1.01327e-05
-0.0079312
0.00101657
0.00691481
0.000627783
0.00208474
6.97034e-05
-8.09576e-05
1.12507e-05
0.00382241
0.000421488
-2.62119e-05
2.54806e-05
2.25891e-05
0.000309728
0.000332739
0.00648362
0.00831256
-0.014796
-1.2896e-05
-1.52933e-06
0.00079616
0.000408307
-0.000116058
0.000788241
-0.000672133
-0.0225122
0.029548
0.00111432
-0.000701495
-0.000412807
-3.4115e-06
5.15325e-06
3.02356e-05
-4.32689e-05
1.30332e-05
1.14754e-05
2.76015e-05
-3.90798e-05
0.0386377
-0.0370161
-0.00162152
-0.0439097
0.033541
0.0103687
-4.16271e-06
3.64002e-06
9.70421e-06
-9.7046e-06
-9.35088e-06
2.40334e-05
0.000130475
-5.05213e-05
5.66248e-06
-7.07424e-06
1.41175e-06
-1.49622e-06
-7.85399e-06
-2.45218e-05
3.58243e-05
-0.00021213
9.0288e-05
0.00012184
0.000341111
-0.000183852
0.00346897
-0.00164182
0.00140717
4.51386e-06
1.21156e-05
4.15235e-05
9.45803e-05
0.00355884
-0.00166332
-0.00189557
5.96624e-05
-2.71866e-05
0.00543673
-0.00186834
-0.00538861
0.0072569
-4.56582e-06
-2.74111e-05
3.19758e-05
1.57611e-05
-6.93344e-06
-8.82703e-06
3.10733e-05
0.000120858
-1.59927e-05
1.15639e-05
1.79726e-06
2.05307e-06
-6.83462e-06
1.83097e-05
-7.96653e-05
-0.000123186
0.000202842
-7.2249e-05
-0.00010974
-0.0188601
0.0062821
8.09046e-05
-0.00489563
1.08887e-05
6.43193e-06
-1.73211e-05
8.95047e-07
1.68506e-06
2.67759e-05
1.01508e-05
-3.69284e-05
-0.0133753
-0.0251614
-0.0226883
-0.00982457
0.0325128
-1.32346e-05
-3.00285e-06
-0.000122816
-8.93151e-05
-0.00321241
0.00735492
-0.000441146
0.000459319
-1.81728e-05
-8.35962e-07
-8.74333e-06
0.0319545