/*--------------------------------*- C++ -*----------------------------------*\
| =========                 |                                                 |
| \\      /  F ield         | OpenFOAM: The Open Source CFD Toolbox           |
|  \\    /   O peration     | Version:  v2012                                 |
|   \\  /    A nd           | Website:  www.openfoam.com                      |
|    \\/     M anipulation  |                                                 |
\*---------------------------------------------------------------------------*/
FoamFile
{
    version     2.0;
    format      ascii;
    class       volScalarField;
    location    "300";
    object      k_0;
}
// * * * * * * * * * * * * * * * * * * * * * * * * * * * * * * * * * * * * * //

dimensions      [0 2 -2 0 0 0 0];


internalField   nonuniform List<scalar> 
13851
(
0.000153011
0.0243292
0.000190819
0.000152205
0.00019043
0.000201057
0.000145407
0.000176715
0.000137219
0.000190949
0.00360175
0.0304227
0.0132986
0.021979
0.000142908
0.000167389
0.00015632
0.000161712
0.0012405
0.000137127
0.000151743
0.0001902
0.000143366
0.0001504
0.000144815
0.000177236
0.000154714
0.00205419
0.000152595
0.000155166
0.00018145
0.000156938
0.000189718
0.00473302
0.000150514
0.000209968
0.000116606
0.000186774
0.00019369
0.00510483
0.000143333
0.000129653
0.00700678
0.00311877
0.00335828
0.0109809
0.0032268
0.00716802
0.000155159
0.000895489
0.000187764
0.000200134
0.0110312
0.000144809
0.000153023
0.000129727
0.000142691
0.0141219
0.000154639
0.000146036
0.000187703
0.0261424
0.000197791
0.000193781
0.000276658
0.000156791
0.00130062
0.00290455
0.000166912
0.000161248
0.0154943
0.0109335
0.0235345
0.000145763
0.00013971
0.000139818
0.000189136
0.0170578
0.000177123
0.0178946
0.000148207
0.00367299
0.000142706
0.01162
0.000203247
0.0307212
0.000198811
0.00934588
0.000157035
0.000139257
0.000209976
0.000175711
0.00268747
0.000160378
0.000156658
0.000148551
0.000191003
0.0291997
0.00188342
0.000148586
0.0220034
0.000178793
0.00014943
0.000153863
0.000140994
0.000152097
0.000181429
0.000128654
0.0244624
0.000234607
0.000150662
0.000139684
0.000169426
0.000153283
0.000150646
0.00947569
0.0299177
0.000128843
0.000155057
0.000156188
0.00689143
0.000153664
0.015678
0.00239636
0.00543326
0.000143828
0.0038141
0.000178011
0.000151169
0.00020229
0.000143088
0.000137224
0.0187299
0.000142683
0.0105532
0.000139002
0.000128938
0.00974989
0.0346288
0.0247159
0.0220487
0.000153064
0.000147753
0.000133292
0.000153016
0.00296566
0.00019665
0.000202269
0.000145236
0.00346207
0.000188329
0.000152907
0.021814
0.000143332
0.000151965
0.000152827
0.000140478
0.000152642
0.000200111
0.000187406
0.0001306
0.000160078
0.0135746
0.000137099
0.000161769
0.000131426
0.000221837
0.000167319
0.000150784
0.0191608
0.0147968
0.000134452
0.000140668
0.0247801
0.000136986
0.00909331
0.000177135
0.000147936
0.00141885
0.000128909
0.000158248
0.013399
0.00014259
0.00019186
0.000129981
0.000144959
0.00015696
0.00014773
0.000193556
0.000193982
0.00301654
0.0123172
0.000140772
0.000167164
0.0268704
0.000151566
0.000146992
0.00382004
0.000147275
0.000140108
0.0001444
0.0127803
0.00016194
0.000141912
0.00018642
0.000142723
0.0435565
0.000156547
0.029567
0.000129373
0.0383299
0.000149076
0.00333638
0.000128446
0.000132481
0.00369978
0.000200201
0.0108839
0.000142282
0.0307821
0.000156855
0.000148534
0.0333847
0.000199984
0.0413871
0.000145555
0.000162846
0.000142537
0.0156105
0.0001285
0.000176305
0.000586784
0.000134367
0.000140325
0.000185105
0.00018007
0.0440861
0.000299346
0.000133111
0.000142031
7.39969e-05
0.00627429
0.000134173
0.000187961
0.000138488
0.0392804
0.00017944
0.00468365
0.000153086
0.00015816
0.000166801
0.00620465
0.000148519
0.000153263
0.000179181
0.00175383
0.0001924
0.0117308
0.00530547
0.000143151
0.000132656
0.000159457
0.011947
0.000136457
0.0063641
0.000151544
0.000148346
0.0001597
0.0321364
0.000388902
0.000166322
0.000151978
0.000878037
0.000175541
0.000166697
0.000137336
0.00370164
0.000604748
0.0440551
0.00365294
0.000134141
0.000128964
0.000140478
0.000178015
0.013126
0.00960778
0.000138442
0.000143059
0.00217921
0.00401403
0.000207833
0.000153952
0.000146183
0.000169158
0.00387688
0.00600708
0.000160767
0.029644
0.000137546
0.0396438
0.00015955
0.000156133
0.0431786
0.000146485
0.000157759
0.0362722
0.00013819
0.000173956
0.000160564
0.000153397
0.0378246
0.000161075
0.000148162
0.0326682
0.000130145
0.000158581
0.000149573
0.0431868
0.000198752
0.00014229
0.000179469
0.000142558
0.0120251
0.000180276
0.00014349
0.00014333
0.000198212
0.000162016
0.000151688
0.000143073
0.000146296
0.000147944
0.00338779
0.0219156
0.0213009
0.000163897
0.0422909
0.0223829
0.000142496
0.000167813
0.000208848
0.000192572
0.000195053
0.000197185
0.000962906
0.000155421
0.0104392
0.0377264
0.000143123
0.00104981
0.00127681
0.00169701
0.000151661
0.000198533
0.0159832
0.000140989
0.00829012
0.000143253
0.000142642
0.000136977
0.000128669
0.000139741
0.038068
0.00346958
0.000143241
0.000172835
0.000130725
0.0284413
0.000173053
0.00836551
0.0208078
0.000143434
0.000209039
0.000160773
0.00796749
0.000142272
0.000128979
0.000167316
0.0210057
0.000143523
0.0392129
0.00018964
0.000198135
0.0147517
0.00365401
0.00357119
0.000160783
0.00013776
0.000149417
0.000162113
0.000179104
0.0213807
0.000167246
0.0412662
0.0368177
0.00013085
0.000143248
0.019788
0.0202527
0.000183314
0.0307688
0.000169283
0.00016161
0.000148264
0.0185439
0.000135639
0.000166743
0.000157499
0.000144748
0.00014166
0.000137911
0.00013129
0.000192952
0.000187957
0.0161611
0.000161454
0.000180945
0.000175223
0.006196
0.000159755
0.00370292
0.000155617
0.00320485
0.000128829
0.00013769
0.000146852
0.000116931
0.00408485
0.000199372
0.00017271
0.0124813
0.00416122
0.000198916
0.000159146
0.000185569
0.00014203
0.00613724
0.000140859
0.0184304
0.00535387
0.000187408
0.0267538
0.000148103
0.00045647
0.00502224
0.0205141
0.000128719
0.000163281
0.000177833
0.000459724
0.000135166
0.000148034
0.000186932
0.000198075
0.000167525
0.0290094
0.000145618
0.000143951
0.0114175
0.000162954
0.000128764
0.0128005
0.00013767
0.000153022
0.000135941
0.000176005
0.000151519
0.000129107
0.00014752
0.0317984
0.000142838
0.000169154
0.000138269
0.000166327
0.00132163
0.00015432
0.000143171
0.000153494
0.000153337
0.0112622
0.000148198
0.000190402
0.00014255
0.000146414
0.0237193
0.0251986
0.000142988
0.00016904
0.000159903
0.00624274
0.0116177
0.000144013
0.00318219
0.000142544
0.000190798
0.000145276
0.0160794
0.000130121
0.0105938
0.000194192
0.000129779
0.000167689
0.0245707
0.000177023
0.00387729
0.000154858
0.00507698
0.000156621
0.000136532
0.000137439
0.000144716
0.0247052
0.000185376
0.000199366
0.00078056
0.00019616
0.000131048
0.0217237
0.00405055
0.000158434
0.000160397
0.00628292
0.00232126
0.0366985
0.000151935
0.0163735
0.0115299
0.0119004
0.000162178
0.000169552
0.00296015
0.000540128
0.00120299
0.00361174
0.0300916
0.000153107
0.0313018
0.0156577
0.000128994
0.000468812
0.000185933
0.0205043
0.000153521
0.000141502
0.000140204
0.000142377
0.000192983
0.000175613
0.00573291
0.0272135
0.000137859
0.0103037
0.0255509
0.00163709
0.00438098
0.000168656
0.000128356
0.000137443
0.000675704
0.0242548
0.000152193
0.000192388
0.000209776
0.000129608
0.000185576
0.00120256
5.84457e-05
0.000197272
0.0260248
0.015771
0.000142796
0.000144879
0.0197981
0.036324
0.000199539
0.000167029
0.000216376
0.000128851
0.000140599
0.020366
0.000129353
0.000153332
0.000128789
0.000137752
0.0173441
0.000192836
0.000168122
0.000129264
0.0403173
0.00333743
0.000137764
0.000140401
0.000136734
0.000148561
0.0207769
0.00412225
0.00383441
0.0128566
0.00621604
0.000165457
0.016584
0.0268438
0.000156564
0.000167396
0.000128321
0.000148534
0.000168487
0.0293988
0.012238
0.000191935
0.000162087
0.000136705
0.000167322
0.000147221
0.00384347
0.000187915
0.000142426
0.000165381
0.000135168
0.000159304
0.000200392
0.000145684
0.000141785
0.000172966
0.000145686
0.000190907
0.000135174
0.00019883
0.000167994
0.000200457
0.000136539
9.95155e-05
0.000170854
0.0132588
0.000148801
0.00014913
0.0212403
0.000153468
0.0134799
0.0378285
0.0124603
0.0132119
0.000135614
0.0141231
0.000135102
0.00013773
0.000130081
0.000137833
0.000145485
0.000162138
0.000174062
0.000129049
0.0259283
0.000195764
0.0273579
0.000139516
0.000131527
0.00013997
0.000206766
0.0277669
0.000179695
0.000159692
0.000135442
0.000147192
0.000144951
0.000141182
6.7733e-05
0.0296824
0.000145405
0.000128942
0.000144848
0.000141066
0.0052924
0.0125692
0.000167735
0.0272988
0.00337979
0.000141574
0.000199049
0.0207268
0.000168664
0.0311034
0.000148157
0.000159851
0.000179182
0.000159895
0.00307197
0.000142856
0.002057
0.000141593
0.00016312
0.0296017
0.000140791
0.000151864
0.000205639
0.000136638
0.000157438
0.00839692
0.0209735
0.000187334
0.00456666
0.00386866
0.000128582
0.000139279
0.0246503
0.000206286
0.000183442
0.0380796
0.00013637
0.000165945
0.000129118
0.00675108
0.00221606
0.000158295
0.000147791
0.00159996
0.0001551
0.000139623
0.00990387
0.00366098
0.0296431
0.000129993
0.000145239
0.0170302
0.00697543
0.000204815
0.00014651
0.0277973
0.00014279
0.00259608
0.000206025
0.000189233
0.0001568
0.0115441
0.000164256
0.000149037
4.30435e-05
0.000148428
0.0001618
0.000151971
0.000136359
0.0108737
0.000165847
0.000197351
0.000166642
0.000865631
0.000136925
0.00837162
0.000153759
0.000165029
0.000132232
0.000141172
0.000143563
0.0357829
0.000139965
0.00012929
0.00158133
0.000145103
0.0209956
0.000142831
0.000147345
0.00018683
0.0106696
0.00439932
0.000139426
0.000156204
0.0278242
0.000148363
0.0356469
0.00016279
0.000136073
0.000187827
0.00806703
0.000254215
0.000158584
0.000138957
0.000128758
0.00468044
0.0001919
0.000187697
0.000160057
0.00018755
0.000149464
0.000146885
0.0001923
0.00289378
0.000193104
0.0132658
0.000145011
0.000191122
0.000190873
0.0425484
0.000158039
0.0320116
0.000444597
0.000145248
0.0116527
0.000195239
0.0267031
0.0197708
0.032923
0.0043739
0.000173112
0.000136222
0.00016115
0.0153649
0.0118389
0.000142752
0.000146592
0.000185896
0.0031338
0.00012988
0.0100781
0.000136129
0.000143272
0.0115701
0.0169012
0.00389067
0.000137673
0.000142767
0.00836775
0.000104159
0.000198069
0.000151619
0.0239835
0.000167991
0.0276615
0.00018101
0.000172267
0.000148193
0.000145116
0.0215476
0.000177695
0.0191562
0.000173711
0.000166816
0.0109182
0.0265033
0.0228603
0.000143523
0.000163873
0.000137661
0.00016846
0.000151637
0.0293215
0.000166276
0.0354613
0.000129793
0.00018632
0.000140996
0.00020725
0.000166055
0.00016345
0.027911
0.000174032
0.000178008
0.000151168
0.000186373
0.00868061
0.00021973
0.000153567
0.0151278
0.000135936
0.0188376
0.00347391
0.000146312
0.03925
0.0215385
0.022634
0.00450168
0.000170419
0.000142532
0.0283556
0.000167265
0.00690186
0.030012
0.000139527
0.000151236
0.00017228
0.00285725
0.0280103
0.000145156
0.000139449
0.0221452
0.0294771
0.000197421
0.000157796
0.000150087
0.00326275
0.013126
0.000191709
0.000129348
0.000173521
0.000136746
0.000158682
0.00264688
0.000148711
0.0172525
0.0058609
0.000143424
0.000148307
0.000142788
0.000152168
0.0165244
0.0235536
0.000162786
0.0336485
0.000140942
0.00016287
0.000142095
0.000136865
0.000145758
0.000143261
0.0225903
0.000143021
0.000179272
0.000143613
0.000158794
0.00285893
0.0060181
0.000155147
0.0195748
0.000188737
0.000953654
0.00016643
0.000166676
0.0167334
0.000159287
0.000177066
0.0292893
0.00269173
0.012327
0.000172721
0.00348621
0.000148331
0.000172666
0.000179346
0.0288624
0.000143461
0.0270664
0.000139092
0.000139709
0.0214612
0.000141989
0.00588936
0.000157298
0.000137555
0.000179944
0.000137664
0.000142811
0.000137214
0.000147732
0.000160732
0.000139707
0.000105535
0.0134327
0.000184589
0.0230919
0.000144895
0.000153993
0.00015538
0.000142556
0.000137459
0.000189646
0.000148324
0.000139027
0.000148036
0.000145507
0.0210173
0.0304568
0.000209894
0.0309756
7.2916e-05
0.000140569
0.00701852
0.00016185
0.000139554
0.00306183
0.000512245
0.00319016
0.000140261
0.00325994
0.00276282
0.0178074
0.000134628
0.0138466
0.000164896
0.000154533
0.000138403
0.000136398
0.0416826
0.00015618
0.010326
0.000140268
0.000142298
0.00237714
0.000146446
0.00829676
0.00382689
0.00212537
0.00125873
0.00248496
0.000146382
0.000142998
0.000208632
0.000168015
0.000153959
0.000213327
0.000174026
0.000148571
0.000149833
0.0314329
0.000139301
0.0204251
0.00565978
0.00807666
0.000208512
0.000151536
0.000134219
0.000147096
0.00404432
0.00500492
0.000134624
0.000156622
0.000139997
0.000189257
0.000130608
0.000139556
0.000148752
0.000166292
0.00175306
0.000178228
0.000165674
0.000144001
0.000179123
0.011189
0.0001497
0.0114492
0.0119612
0.000189928
0.000131878
0.000174754
0.000141476
0.000143827
0.00014664
0.0170175
0.000198507
0.00374053
0.000154058
0.00216431
0.000141909
0.000141721
0.000146584
0.0082312
0.000449031
0.000130313
0.000165908
0.00019278
0.0260417
0.000154219
0.0119517
0.000147527
0.041903
0.000188215
0.0330862
0.000192656
0.00018971
0.000111559
0.0269097
0.00258479
0.0155738
0.000142746
0.000229809
0.00013047
0.000153769
0.000158076
0.000145999
0.0270315
0.000163254
0.000160338
0.00379158
0.000210596
0.0103407
0.000142417
0.00015371
0.000159092
0.000134932
0.000162386
0.0216777
0.00683234
0.0164955
0.00013902
0.000159357
0.000152446
0.00131728
0.0306717
0.000209189
0.000134092
0.000147836
0.0160811
0.000176122
0.0319638
0.0248667
0.000169102
0.000131674
0.0105421
0.000161541
0.000174975
0.000161571
0.0370815
0.00414494
0.000199513
0.000241977
0.00014972
0.000162571
0.0001433
0.0119089
0.000184358
0.0256705
0.00202248
0.000157883
0.000202454
0.000151504
0.0367917
0.000129812
0.000139685
0.000178965
0.030818
0.000266052
0.0219759
0.000145258
0.000143243
0.0169523
0.0129437
0.0147092
0.000154897
0.000144871
0.000143422
0.0213413
0.000202586
0.000147639
0.00132546
0.000193442
0.0437017
0.00935544
0.00881898
0.000143129
0.0246489
0.000155788
0.000142954
0.000200937
0.0273383
0.000145502
0.000139059
0.0048151
0.035207
0.000142362
0.000138894
0.0272047
0.000139304
0.000761855
0.000139015
0.00144957
0.00014324
0.000179713
0.0152454
0.0307647
0.000150872
0.007885
0.00569581
0.027754
0.00484221
0.0414374
0.000197104
0.000141013
0.00853381
0.000154566
0.000142554
0.00013478
0.00371386
0.000141376
4.71223e-05
0.000139244
0.000149599
0.0162673
0.000185537
0.0142834
0.000152016
0.000172098
0.000137337
0.00016568
0.00976306
0.0231462
0.000138631
0.000186055
0.003721
0.000146249
0.000136573
0.0293421
0.000167534
0.000169175
0.000199167
0.0228889
0.000481124
0.00692074
0.0192863
0.000204332
0.00368759
0.00443944
0.000984092
0.000186132
0.000133708
0.000198845
0.000140939
0.0001408
0.0300101
0.0295663
0.000152439
0.0222137
0.000356723
0.019737
0.00118441
0.000236229
0.000142089
0.000520004
0.000517567
0.000140385
0.000151184
0.0363069
0.0306204
0.0146668
0.034896
0.000173069
0.0382043
0.0377059
0.000165165
0.000146214
0.00014061
0.00373909
0.000139779
8.11396e-05
0.000151954
0.000149306
0.000152945
0.0132641
0.0407824
0.0211709
0.000147863
0.0117682
0.0001573
0.000164219
0.000139407
0.000139714
0.0133011
0.000160365
0.0272264
0.0209934
0.000939118
0.000197393
0.000143435
0.000173701
0.000146178
0.000203035
0.000147535
0.000151739
0.000147408
0.000152517
0.000204653
0.000149485
0.000168497
0.000140625
0.000169084
0.000190935
0.017321
0.00014091
0.000177633
0.000143463
0.000230557
0.000155512
0.0229658
0.000230368
0.000164701
0.000153907
0.000152285
0.00157108
0.00014255
0.000942101
0.000142924
0.000140704
0.000146581
0.0333384
0.000159643
0.000155703
0.000166398
0.000143903
0.000184688
0.031665
0.0049121
0.000168774
0.000143323
0.000347687
0.000134263
0.000141344
0.0002099
0.0355389
0.000142349
0.00016543
0.000223197
0.0133165
0.000147931
0.00014919
0.0338359
0.000151187
0.000580774
2.74002e-05
0.0401201
0.000143464
0.000168056
0.000141811
0.0410027
0.00020129
0.000173783
0.000197548
0.0216325
0.000150442
0.0370836
0.0351822
0.000146354
0.0151612
0.000190047
0.000152041
0.0138167
0.000144826
0.000143001
0.000135774
0.000211157
0.000894757
0.000206873
0.000151875
0.000149927
0.000162881
0.00430339
0.000131726
0.0399001
0.00388708
0.000149004
0.000201347
0.000202412
0.0136965
0.000186998
0.00316777
0.00013991
0.000166003
0.000136592
0.00115614
0.000171995
0.000141749
0.0294745
0.000231629
0.000166236
0.000162393
0.000129436
0.000143373
0.000180246
0.000168019
0.00285583
0.000186284
0.000186191
0.000183934
0.00019925
0.039624
0.000226855
0.03979
0.000141122
0.000138937
0.000189992
0.0233797
0.0127655
0.000152761
0.000152774
0.0162335
0.00374499
0.000141035
0.000158462
0.000138011
0.000172934
0.000187016
0.000231726
0.011792
0.00016996
0.000151297
0.0268005
0.0143264
0.000143038
0.000212204
0.032692
0.0125187
0.000154137
0.0001882
0.000128431
0.000158371
0.000140241
0.000157547
0.04121
0.0249821
0.00947864
0.0158341
0.000151024
0.000168777
0.000181598
0.000141064
0.000147918
0.000136445
0.028742
0.000139461
0.0359599
0.000171346
0.000189353
0.000210439
0.000175064
0.0184442
0.015558
0.000172398
0.000131049
0.000147813
0.0125991
0.00488878
0.000156125
0.000137742
0.000137073
0.000185388
0.000164206
0.000202886
0.0415803
0.000150843
0.000135987
0.000199406
0.00030801
0.0162607
0.0165983
0.000139003
0.000188021
0.000145849
0.0436772
0.000132595
0.0389569
0.000139358
0.000150621
0.000163008
0.000148399
0.000215558
0.000163341
0.000177048
0.0169615
0.0311749
0.00015699
0.0001635
0.000141937
0.0141541
0.0181366
0.000147513
0.000132989
0.0036019
0.000128653
0.0257702
0.000143015
0.000169071
0.000186729
0.00617975
0.000173686
0.000150308
0.000145001
0.000186866
0.0364276
0.000141056
0.000776391
0.0219242
0.0173939
0.000767429
0.000168385
0.0210628
0.000156794
0.000356795
0.000141897
0.00416996
0.00402776
0.0115545
0.0134629
0.0418884
0.000142339
0.000185643
0.000139014
0.0129828
0.00295978
0.0355232
0.016
0.000160239
0.0400434
0.00705663
0.000169706
0.000151453
0.000145587
0.0275143
0.000158059
0.000186686
0.000157006
0.000146702
0.000136862
0.000145501
0.0289772
0.000174843
0.000165175
0.0167712
0.00756417
0.000140791
0.000142343
0.000136558
0.000161732
0.0379481
0.000150514
0.000158061
0.000169473
0.000380809
0.000189767
0.000175371
0.0086958
0.000164252
0.0397623
0.000163122
0.000162596
0.000142035
0.000156542
0.000187467
0.00267004
0.00428122
0.0303265
0.000187897
0.0317135
0.000154696
0.00015549
0.000144738
0.0107863
0.0244561
0.0038711
0.000682321
0.000153582
0.000143466
0.000140639
0.000142908
0.000136635
0.0107056
0.000162912
0.0117464
0.000166742
0.0265483
0.0208357
0.0392456
0.000191622
0.000157862
0.0154559
0.000173354
0.000515933
0.0299939
0.000136415
0.00139861
0.000159994
0.0197542
0.00931362
0.000169254
0.00181777
0.00488861
0.000156442
0.000189729
0.000165646
0.0176679
0.0033986
0.000154621
0.00014502
0.00433066
0.00105319
0.000200253
0.00145479
0.000198752
0.000163611
0.000142073
0.0214476
0.0342476
0.000187624
0.000164052
0.0297092
0.02352
0.000139206
0.000143162
0.000155104
0.0355847
0.0329563
0.000142422
0.0209213
0.000149174
0.000140879
0.00014628
0.0137379
0.000615064
0.00023224
0.0122491
0.000151879
0.000151654
0.000139614
0.0103142
0.00015106
0.0306064
0.000153975
0.0236408
0.000147772
0.00014098
0.000199374
0.0102523
0.00332562
0.0001697
0.0214844
0.000133145
0.000144682
0.000143291
0.000175536
0.000185676
0.000185546
0.000172603
0.0310137
0.000155322
0.000200818
0.000177155
0.0380232
0.00014454
0.025751
0.0314424
0.000156148
0.00468059
0.000185318
0.0219467
0.000145836
0.000186021
0.000141903
0.000110576
0.0148665
0.000211407
0.0384768
0.000153264
0.000177359
0.000150566
0.0219402
0.000131747
0.000137879
0.00482913
0.000189585
0.023154
0.00916341
0.000184727
0.00016199
0.000135607
0.0271501
0.000162241
0.000140553
0.000203651
0.000136555
0.000174418
0.000143447
0.0187599
0.000153854
0.00300058
0.00383489
0.000163373
0.00157127
0.00018082
0.0439292
0.000143624
0.0135586
0.0342455
0.000137482
0.000142894
0.00015217
0.000147972
0.000172084
0.000142292
0.00570304
0.00018862
0.00267775
0.000247179
0.000145599
0.000148358
0.000135888
0.0179602
0.000144915
0.000142919
0.000125238
0.000154202
0.0235443
0.0375927
0.000192
0.000154627
0.000167537
0.000151491
0.000149159
0.0002042
0.000133584
0.000154517
0.00987861
0.0406393
0.00134559
0.00015134
0.012246
0.000560056
0.000148129
0.00160701
0.0306364
0.000142524
0.000153517
0.000142011
0.0198783
0.0192423
0.00520891
0.000133456
0.00015479
0.000150681
0.000145109
0.000199789
0.00014595
0.000749355
0.00685711
0.0382261
0.000136322
0.000154307
0.000153242
0.0204855
0.000129411
0.0176636
0.0115866
0.00186857
0.00299502
0.020889
0.0344348
0.000149332
0.00375256
0.00635484
0.00015035
0.00013539
0.000138628
0.0378128
0.01188
0.012471
0.000143193
0.0405393
0.000145698
0.000208925
0.000136621
0.000153075
0.000150199
0.000136201
0.0215495
0.000150496
0.0277053
0.0228119
0.0166058
0.000176908
0.000179246
0.0176895
0.0356966
0.000147775
0.00736463
0.000135891
0.000129011
0.000142154
0.000198516
0.000138447
0.0172497
0.000161909
0.000355354
0.000173618
0.0111308
0.0176477
0.000218712
0.000135962
0.000182108
0.000186517
0.0195783
0.0001446
0.000131341
0.00015714
0.0302694
0.00014605
0.00238612
0.0160849
0.00017314
0.000184355
0.000144787
0.0036307
0.000147571
0.039057
0.000133383
0.00957365
0.000164407
0.000144598
0.0167726
0.0149874
0.000133007
0.000185282
0.000156037
0.0121095
0.000193099
0.000285798
0.000272268
0.000147778
0.000182724
0.0268388
0.000140513
0.000213906
0.000150398
0.000188807
0.000165775
0.012924
0.0242229
0.000144845
0.0258712
0.000150633
0.0001752
0.0296596
0.0157068
0.000171471
0.0268243
0.000132035
0.000145143
0.00223432
0.000200288
0.000164152
0.000150368
0.0262491
0.000133297
0.0165607
0.000197678
0.000199482
0.00014231
0.000163995
0.0256377
0.000175661
0.0271361
0.000149325
0.000154327
0.000229825
0.0256617
0.000157919
0.0369442
0.00837971
0.0178628
0.000146468
0.0239784
0.00793121
0.0243777
0.000142842
0.000144991
0.000143787
0.0383024
0.000168121
0.00386749
0.00195236
0.000148062
0.000135114
0.000142624
0.0222756
0.0106667
0.0223972
0.0176813
0.000139425
0.0248651
0.0334413
0.000199715
0.0121022
0.0269808
0.000170815
0.0152416
0.000153133
0.000157362
0.0174204
0.0174453
0.000145829
0.0219677
0.000147326
0.000143213
0.0442046
0.0242825
0.0356708
0.0138048
0.000165425
0.000147993
0.000158868
0.0329617
0.0144605
0.000141094
0.000175997
0.00535414
0.000143413
0.00014513
0.0269866
0.0343772
0.000152615
0.000143142
0.000150072
0.000150998
0.000809188
0.000147908
0.000142251
0.000158295
0.000226941
0.035665
0.00422148
0.0267021
0.000145056
0.000156594
0.0300048
0.0347915
0.000162428
0.00024477
0.000142154
0.000169193
0.000150375
0.000149831
0.000184852
0.000141817
0.0132679
0.00016785
0.000139373
0.000155864
0.0114021
0.0310842
0.0225341
0.000143566
0.000169423
0.0359986
0.00691411
0.000154655
0.00014407
0.000143545
0.00364852
0.000145367
0.00014789
0.000161168
0.000142758
0.03037
0.000331162
0.00014765
0.000155271
0.00013277
0.000145856
0.0236321
0.00881539
0.000187303
0.0129023
0.000204699
0.000148453
0.000141988
0.000144626
0.000143409
0.000147379
0.000163308
0.000190101
0.0295899
0.00014916
0.000197146
0.0226162
0.00025696
0.000142376
0.000138013
0.000153315
0.0401445
0.000142867
0.00323467
0.000183104
0.000184514
0.000145156
0.0145989
0.000133218
0.000720514
0.000135254
0.000133506
0.000146293
0.000139422
0.000183317
0.0160218
0.000952087
0.00017159
0.0160607
0.000492473
0.000757942
0.00016526
0.0245161
0.0134698
0.000197562
0.0316467
0.0281242
0.000196976
0.00259094
0.000148054
0.000138531
0.0248529
0.000140232
0.000155444
0.0412435
0.000592713
0.027374
0.0002175
0.000138222
0.000149725
0.00014481
0.000558572
0.000136379
0.00118437
0.0245017
0.0280459
0.00926295
0.000144902
0.000133691
0.000187624
0.0215379
0.0306546
0.000201306
0.00174726
0.000138667
0.00369047
0.0278837
0.000228965
0.000154473
0.000145251
0.000132769
0.000152688
0.000145071
0.000143909
0.000154958
0.0292143
0.00018916
0.0265812
0.00209116
0.00270912
0.000210545
0.000141803
0.000140929
0.000145691
0.000136609
0.000147714
0.00873159
0.0230481
0.0012915
0.0405374
0.000153127
0.0184971
0.000204505
0.0370925
0.0309893
0.000145417
0.000139295
0.0044737
0.000145004
0.00013316
0.00215173
0.0305096
0.00679708
0.00014349
0.000144972
0.00015267
0.000171142
0.0129234
0.000136078
0.000154257
0.000457607
0.000136593
0.00354897
0.000170788
0.0386507
0.000147867
0.000159561
0.0208959
0.000170184
0.0320067
0.000196876
0.0274848
0.000132964
0.00015732
0.000138784
0.000163855
0.0154746
0.000144374
0.0115445
0.000145057
0.000145358
0.000143184
0.0401606
0.000175112
0.000196988
0.00239579
0.000137281
0.000177169
0.0151198
0.000181482
0.00013881
0.000149949
0.000145153
0.000184646
0.000143754
0.00014013
0.0424278
0.0382311
0.0385842
0.00120676
0.000632369
0.0187468
0.000186894
0.0418587
0.000201401
0.000132331
0.000141068
0.000128761
0.000146695
0.033908
0.0339821
0.000135734
0.00942291
0.0414598
0.000162302
0.000148865
0.000170121
0.0265204
0.0257949
0.0294653
0.00373066
0.0307466
0.000128808
0.000144977
0.000196365
0.00299385
0.0188578
0.00014246
0.000200071
0.0174547
0.000167504
0.0208639
0.000147898
0.0013659
0.0184039
0.035505
0.000188173
0.000165316
0.0166818
0.000200874
0.0359114
0.0389446
0.0302181
0.000196895
0.0197401
0.000145246
0.000154175
0.000176919
0.0221886
0.00434786
0.0273074
0.000150333
0.000200794
0.000189267
0.000151181
0.0291728
0.000142528
0.000199455
0.0209411
0.000142545
0.0412404
0.0363541
0.0386958
0.0240895
0.00141569
0.0065901
0.000141738
0.0347763
0.000144652
0.000139796
0.000173387
0.000154508
0.0317217
0.000154846
0.000170311
0.000155141
0.000139356
0.0193647
0.000152384
0.000197381
0.00180996
0.000136305
0.0272411
0.000196112
0.000149253
0.0134658
0.000132446
0.000142293
0.00224589
0.000149479
0.041093
0.00207692
0.000135946
0.000198478
0.000152562
0.0365268
0.0308758
0.000187891
0.00623454
0.000157972
0.00014363
0.0423005
0.000154589
0.000143855
0.00680481
0.000171997
0.000138602
0.000139194
0.000202833
0.000151988
0.0208886
0.000153706
0.000469694
0.0215474
0.000179655
0.00018503
0.000142251
0.0373593
0.0169429
0.0254509
0.000142923
0.000134861
0.000188422
0.000164905
0.00312031
0.000144095
0.00576569
0.000143225
0.000235727
0.00014813
0.000619373
0.000198502
0.000197161
0.0275801
0.0200123
0.0300578
0.0295923
0.000129057
0.00157993
0.0019015
0.0205942
0.0001417
0.000189575
0.0166655
0.0128618
0.000197745
0.00059591
0.013407
0.0390462
0.000175339
0.000127125
0.000136081
0.000177115
0.00017349
0.000142216
0.000186786
0.022432
0.00191095
0.0145095
0.00255023
0.000140971
0.000138607
0.000169232
0.000142318
0.0117295
0.000136343
0.000138468
0.0418539
0.000184393
0.000169002
0.000195992
0.000151997
0.000189517
0.0141152
0.0315409
0.0148825
0.000157172
0.031278
0.000150614
0.000136406
0.000152769
0.0256243
0.000151242
0.000139819
0.000176081
0.000150424
0.000139179
0.000142327
0.00014811
0.000159026
0.0229341
0.00259723
0.000162396
0.0300656
0.0205672
0.00503947
0.0121883
0.000143492
0.000163441
0.000269237
0.000143123
0.00018211
0.000159702
0.000154742
0.0258808
0.0316537
0.000136342
0.000171417
0.000163505
0.00018597
0.0256165
0.0391103
0.0390176
0.000146123
0.000190373
0.0398551
0.000190013
0.000198168
0.00149961
0.0259349
0.0377323
0.04246
0.000135941
0.0180847
0.000135559
0.000152047
0.000142784
0.000184589
0.0381126
0.0146712
0.00580323
0.0120273
0.000182806
0.000132637
0.000137886
0.00014507
0.000157342
0.000174993
0.040561
0.0424478
0.000188791
0.000659561
0.000146792
0.000182523
0.00013675
0.0378531
0.000205319
0.000145665
0.000206539
0.000195682
0.0220616
0.0256756
0.000203394
0.00836301
0.00015661
0.0269251
0.000133551
0.0182535
0.00325968
0.000150422
0.000182079
0.000144498
0.0273487
0.0135333
0.000172894
0.0374963
0.000142404
0.0322313
0.000186805
0.000223775
0.000178719
0.000138577
0.000199059
0.000182942
0.000155172
0.000181612
0.000164909
0.000166717
0.0156372
0.000205307
0.000152893
0.000164559
0.000169763
0.000167041
0.000149597
0.0363472
0.000198131
0.000559989
0.0107694
0.000143361
0.0303451
0.00014336
0.000154604
0.000153842
0.0302812
0.000172089
0.0367681
0.0129247
0.000183893
0.000184386
0.00019779
0.0308386
0.000201083
0.0054091
0.000165776
0.00017549
0.000140297
0.0326208
0.00487023
0.000164758
0.000145286
0.000171694
0.00015817
0.000155834
0.000177609
0.000171527
0.000146003
0.000169316
0.0181136
0.0216862
0.00024113
0.000173256
0.000130295
0.0297419
0.000165897
0.000184831
0.000349112
0.000173788
0.0268914
0.00013345
0.000167057
0.000154618
0.000168736
0.000141799
0.0310074
0.00119384
0.0110356
0.00017252
0.0310858
0.000178119
0.000157733
0.0300678
0.000185392
0.000184956
0.0114973
0.000182718
0.000154928
0.000172142
0.000187311
0.000153555
0.000548754
0.025998
0.0028835
0.000138651
0.000164489
0.00116068
0.00857457
0.0001418
0.000175455
0.000142024
0.000164883
0.0184332
0.000163347
0.00016273
0.000138727
0.000138475
0.00829025
0.0254833
0.000144413
0.0171455
0.000198382
0.000132791
0.000167464
0.0325674
0.000199558
0.000195566
0.000142957
0.000160178
0.0001952
0.000146497
0.000140889
0.0432364
0.000163031
0.0310829
0.000190539
0.000158603
0.0367416
0.000201547
0.00020939
0.000139047
0.00387104
0.000163191
0.000159334
0.0244843
0.000172625
0.000146165
0.000190275
0.000155795
0.000155044
0.000133257
0.00371382
0.0001431
0.000198072
0.00762733
0.000196536
0.000139618
0.00020247
0.000164273
0.0177941
0.000209322
0.0258543
0.000199133
0.0342771
0.000136982
0.000189111
0.000157342
0.000140649
0.00306606
0.02467
0.000156324
0.000282325
0.000162627
0.000188186
0.0260017
0.000158213
0.00279808
0.000750763
0.0331548
0.0318123
0.000228101
0.000214978
0.000138038
0.000199091
0.00017086
0.00198351
0.0245745
0.0376472
0.0391005
0.0398838
0.000138244
0.000336029
0.000142841
0.000150558
0.000145615
0.0052386
0.000202983
0.000205127
0.000140453
0.00974921
0.000160424
0.0226376
0.000139845
0.000183488
0.000163726
0.000186582
0.000174329
0.00019552
0.000152
0.000190728
0.000204031
0.000139296
0.0217108
0.00017058
0.0001927
0.000154718
0.000163839
0.000144933
0.000141157
0.000184782
0.000181257
0.0128872