/*--------------------------------*- C++ -*----------------------------------*\
| =========                 |                                                 |
| \\      /  F ield         | OpenFOAM: The Open Source CFD Toolbox           |
|  \\    /   O peration     | Version:  v2012                                 |
|   \\  /    A nd           | Website:  www.openfoam.com                      |
|    \\/     M anipulation  |                                                 |
\*---------------------------------------------------------------------------*/
FoamFile
{
    version     2.0;
    format      ascii;
    class       volScalarField;
    location    "300";
    object      nut;
}
// * * * * * * * * * * * * * * * * * * * * * * * * * * * * * * * * * * * * * //

dimensions      [0 2 -1 0 0 0 0];


internalField   nonuniform List<scalar> 
13851
(
0.00581568
0.0175095
0.00194743
0.00585047
0.00143341
0.00386489
0.00587846
0.00305511
0.00584718
0.00201052
0.0128219
0.0157256
0.00494335
0.00706148
0.00583433
0.00377047
0.00437014
0.00524513
0.00108426
0.0058433
0.00586735
0.00161919
0.00596573
0.00603043
0.0059695
0.00356763
0.00368723
0.000271659
0.0058365
0.00576054
0.00185453
0.0041494
0.00226261
0.0116974
0.00604131
0.0011036
0.000145172
0.000482675
0.00183884
0.0120968
0.00590049
0.00580823
0.00155345
0.0113911
0.011917
0.00213085
0.0118654
0.0107311
0.00358724
0.00475942
0.00184184
0.001275
0.00351429
0.00587779
0.00603187
0.00581161
0.00597772
0.00720679
0.00578511
0.00589846
0.00076017
0.0104097
0.00324226
0.00121735
0.00208042
0.00563936
0.000599021
0.0112916
0.00249108
0.00526524
0.00210329
0.00355596
0.0184277
0.00588985
0.00582711
0.00590458
0.00186801
0.00321967
0.00212269
0.00265962
0.00594131
0.0147209
0.00584551
0.00269907
0.0033405
0.0153368
0.00425888
0.00592132
0.00356226
0.00593005
0.00109917
0.00510796
0.0106811
0.00338963
0.00443125
0.00601948
0.00128258
0.010805
0.00701773
0.00601204
0.00599532
0.00199372
0.00594213
0.00293658
0.00594544
0.00323024
0.00193112
0.00579219
0.00675818
0.00384083
0.00602741
0.00593129
0.00517243
0.00599093
0.00603169
0.0117245
0.0108543
0.0057891
0.00606895
0.00607405
0.00138098
0.00318351
0.00576638
0.005261
0.00866386
0.00589315
0.00752331
0.00202465
0.00588518
0.000738192
0.0058951
0.00581829
0.00314058
0.00584381
0.0131312
0.00585314
0.00578992
0.00325281
0.0135816
0.0106278
0.00799144
0.00603604
0.00584119
0.00588221
0.00547248
0.0111282
0.00596531
0.000755045
0.00587574
0.0121453
0.00235487
0.00603939
0.00673993
0.00599672
0.00453348
0.00586704
0.00587427
0.00587611
0.00102537
0.00183171
0.00585623
0.00305192
0.00685819
0.00581808
0.00416312
0.00584265
0.00600874
0.00246336
0.00589702
0.00561656
0.00226132
0.00580817
0.00587712
0.0103665
0.00581508
0.0130067
0.00209665
0.00585012
0.00101478
0.00580131
0.0041933
0.00417804
0.00583927
0.00153984
0.00584475
0.00598903
0.00561161
0.00596365
0.0011426
0.00182778
0.0115279
0.00492948
0.00592805
0.00260334
0.00965533
0.00567687
0.00586569
0.00992904
0.00586758
0.00590883
0.00588493
0.00268579
0.00611595
0.00584643
0.00238918
0.00584186
0.0159096
0.00440654
0.00955559
0.00582096
0.0110276
0.00594787
0.00880977
0.00579338
0.00586788
0.0129724
0.00306856
0.00240591
0.0058249
0.0101178
0.00436268
0.00594484
0.0108376
0.000948982
0.0122565
0.00596688
0.00303596
0.00595703
0.00734359
0.00579683
0.0036502
0.00205533
0.00580594
0.00593023
0.0019329
0.00245651
0.0155628
0.00211634
0.00587969
0.00584783
0.000865475
0.0150133
0.00591288
0.00230893
0.00596063
0.0123771
0.00192495
0.0108091
0.00585828
0.00422683
0.00553373
0.014905
0.00595333
0.00584558
0.00211257
0.00419023
0.0019815
0.00385901
0.000227526
0.0058342
0.00587024
0.0053739
0.0153277
0.00592131
0.00278158
0.00543031
0.00595408
0.00341653
0.0103336
0.00573701
0.00553001
0.00496514
0.00285474
0.00219879
0.00387183
0.00582073
0.014767
0.00654506
0.0121516
0.0129221
0.0059116
0.00581333
0.00594708
0.00226344
0.0164554
0.0139924
0.00587053
0.00582628
0.00525564
0.0155697
0.000763145
0.00582049
0.00590313
0.00241423
0.0152437
0.00286866
0.0051866
0.0149286
0.00582376
0.0123498
0.00296172
0.00457541
0.0119226
0.00594757
0.00305305
0.0117924
0.00586483
0.00207839
0.00311463
0.00584176
0.013627
0.00385265
0.00595339
0.0110324
0.00581687
0.00474013
0.00581354
0.011635
0.00154559
0.00582552
0.00196412
0.00582606
0.00114352
0.0054886
0.00598206
0.00593469
0.00157855
0.00326148
0.00525819
0.00582576
0.00594476
0.00595415
0.0121178
0.00418905
0.00754879
0.00490537
0.011506
0.00864005
0.00582851
0.00263915
0.000692994
0.0049466
0.00234752
0.00150081
0.000750155
0.00562348
0.0135816
0.0120374
0.00583975
0.0062578
0.00694698
0.00118522
0.00525798
0.00219834
0.00762405
0.00588321
0.0109015
0.005935
0.00582532
0.00593251
0.00579362
0.0058567
0.0118586
0.0109934
0.0058719
0.00226965
0.00583089
0.0151032
0.00308646
0.0126905
0.00679985
0.00587736
0.00332809
0.00342418
0.0119654
0.00588043
0.00578961
0.00542781
0.0051832
0.00589584
0.0140433
0.00497247
0.00151089
0.00279277
0.0130181
0.0128199
0.00564147
0.00582018
0.00594675
0.00503668
0.00194744
0.00614695
0.00226529
0.0119188
0.0118502
0.00583274
0.00583614
0.0064851
0.00402411
0.000825233
0.0108828
0.00539679
0.00334798
0.00601057
0.00727963
0.00582362
0.00364754
0.00565946
0.00587065
0.00595884
0.00585984
0.00584038
0.00133052
0.00218648
0.00246135
0.00519395
0.00191057
0.0049516
0.0148678
0.00455925
0.00231342
0.00453857
0.0114337
0.00578923
0.00585514
0.0060057
0.00027916
0.0110616
0.000960439
0.00502017
0.00138596
0.0109504
0.00451078
0.00612452
0.00178289
0.00587576
0.0147512
0.00594574
0.00771743
0.0130206
0.00253676
0.00830539
0.00583688
0.00667119
0.0123536
0.0035185
0.00581123
0.00328584
0.00225202
0.00608734
0.00581456
0.00595587
0.00222151
0.00138662
0.00475869
0.0181731
0.00599479
0.0059453
0.00480975
0.00445315
0.00580843
0.00807621
0.00581929
0.00582021
0.0058218
0.0023165
0.00591029
0.00581361
0.00585371
0.0106824
0.005848
0.00236446
0.00583739
0.00527524
0.00795772
0.00600117
0.00590878
0.00599676
0.00599443
0.0158027
0.00595209
0.00409195
0.0058375
0.00599903
0.00988781
0.00745227
0.00584533
0.00523234
0.00417417
0.0150063
0.00230729
0.00594349
0.0105419
0.00588488
0.00137035
0.00588395
0.00660091
0.00583142
0.00282202
0.00189664
0.00580974
0.00520674
0.00881833
0.0035754
0.0126228
0.00609061
0.0107713
0.00608221
0.00581321
0.00582448
0.00586498
0.00616449
0.00181934
0.00144427
0.000637167
0.00304292
0.00586471
0.00793797
0.0108665
0.00398046
0.00270174
0.0150525
0.00554233
0.0106883
0.00598078
0.00655283
0.0022374
0.0024412
0.00394791
0.00513738
0.00584377
0.00676576
0.00372588
0.00938733
0.011892
0.00585721
0.0121683
0.0050227
0.00579665
0.00623141
0.00181665
0.00488533
0.00583693
0.00583162
0.00586894
0.00586923
0.00122946
0.00242168
0.00423054
0.0178655
0.00584816
0.0039357
0.00812327
0.00521465
0.0112619
0.00236442
0.00579736
0.00585129
0.0079572
0.00872843
0.00465928
0.00201461
0.001121
0.00581005
0.00464256
0.00382047
0.000182945
0.00129395
0.0068928
0.00501172
0.00589003
0.00587236
0.0132734
0.0118599
0.0014654
0.0022459
0.00323911
0.00579846
0.00583407
0.00844934
0.00580423
0.00584972
0.00580014
0.00581342
0.00552741
0.00123661
0.00518236
0.00580345
0.0137466
0.00930179
0.00582348
0.00594773
0.00592057
0.00593473
0.00560429
0.00985171
0.00930313
0.00277901
0.0121405
0.00230662
0.00287847
0.00820067
0.00558155
0.00251038
0.00579777
0.00584438
0.00436517
0.00988754
0.0154838
0.00204161
0.00363171
0.00583576
0.00351861
0.00585531
0.0126306
0.00164925
0.00583453
0.00482142
0.00581383
0.00374572
0.000891877
0.00589097
0.00587158
0.00312657
0.00590218
0.00136174
0.000451881
0.00111812
0.00326934
0.00142363
0.00583135
0.000813188
0.00548688
0.00283193
0.00595292
0.00602387
0.00612983
0.0058137
0.00215455
0.0121614
0.00349563
0.00835466
0.00582228
0.00432345
0.00591482
0.00581561
0.00583311
0.00581508
0.0058834
0.00509291
0.00253647
0.00579841
0.0100884
0.00187902
0.0105766
0.00585902
0.00587284
0.00597018
0.00083126
0.0101067
0.00208819
0.00336868
0.00591694
0.00600918
0.00597031
0.00589243
0.000208647
0.0163406
0.00589656
0.00579728
0.0058669
0.0058881
0.00271116
0.00575024
0.00370732
0.0103389
0.00798801
0.00586719
0.00145802
0.00459696
0.00240518
0.0157196
0.00594361
0.00534193
0.00198832
0.00529573
0.00872153
0.00584305
0.00451913
0.00597148
0.00211055
0.00977933
0.00592818
0.00587361
0.00336981
0.00581607
0.00439978
0.0120713
0.00769127
0.00166918
0.00241191
0.0134502
0.00579499
0.00585438
0.00978109
0.00114754
0.00228647
0.0121108
0.00584926
0.0061183
0.0057973
0.012632
0.00101975
0.00534207
0.00595818
0.00814923
0.00399345
0.00596427
0.00352626
0.00530169
0.0103662
0.00581458
0.00589151
0.00317663
0.00187732
0.00126215
0.00587702
0.00766561
0.00584453
0.00976092
0.00115303
0.00239784
0.00475482
0.00305392
0.00558884
0.00581801
8.28006e-05
0.00602406
0.00611357
0.0058973
0.00582956
0.00365326
0.00416546
0.00125981
0.00521916
0.00680279
0.00583884
0.0117929
0.00607378
0.00559207
0.0058758
0.00586
0.00590791
0.0117869
0.00586133
0.00579242
0.005837
0.00587661
0.00529107
0.00595937
0.0058524
0.00207688
0.00519456
0.0125054
0.0058886
0.00164801
0.0105166
0.00595131
0.011008
0.00217279
0.00582513
0.00579747
0.00228854
0.00238397
0.00472786
0.00586957
0.00579288
0.0118301
0.00217454
0.00188442
0.00471652
0.00582269
0.00594517
0.00586687
0.00203281
0.00905683
0.0012234
0.01657
0.00588716
0.00130381
0.00187289
0.0107833
0.00540661
0.0157267
0.000565173
0.00587855
0.00174205
0.00182417
0.0103874
0.00689382
0.0113479
0.013294
0.00398941
0.00582605
0.00510903
0.00772417
0.00173993
0.00593173
0.00599298
0.00200189
0.0135624
0.00580633
0.00342629
0.00584453
0.00586736
0.00483304
0.00320221
0.0133963
0.00581715
0.00582611
0.00271653
0.000273224
0.00155846
0.00575343
0.00927359
0.000514995
0.01052
0.00197795
0.00229803
0.00595462
0.00587934
0.0180877
0.00206606
0.003322
0.00537021
0.00257004
0.00354562
0.0103946
0.00658856
0.00585299
0.00241442
0.00582341
0.00339665
0.00588412
0.0165301
0.00449233
0.011353
0.0058027
0.00193116
0.00584687
0.000813161
0.00250512
0.00252044
0.0104264
0.00243754
0.00217121
0.00602916
0.0021124
0.0126019
0.00281782
0.00584127
0.00232649
0.00591502
0.00622035
0.0111114
0.00593115
0.0116823
0.00518357
0.00623714
0.0136169
0.00540209
0.00592183
0.0098636
0.00614144
0.00877022
0.00967007
0.00585616
0.00440187
0.000468267
0.00868468
0.0152711
0.0058977
0.00593595
0.0169322
0.00965082
0.00133312
0.00484034
0.00582676
0.0107004
0.00490612
0.00182039
0.00579331
0.00395115
0.00581544
0.00610373
0.0108944
0.00599598
0.00723065
0.0141517
0.00587206
0.00582457
0.00592706
0.00589175
0.00278292
0.00848611
0.00317652
0.0157373
0.00584459
0.00334172
0.00591538
0.0058155
0.00593
0.00586966
0.00572941
0.00584657
0.00250107
0.00585628
0.00473271
0.0111792
0.00180601
0.00609827
0.0129104
0.00167615
0.000654754
0.00369001
0.00363515
0.0021687
0.00304151
0.00247891
0.0165486
0.00478751
0.00401495
0.00305363
0.0122463
0.00595634
0.00201687
0.00202295
0.0153035
0.00595475
0.0129753
0.00585152
0.00586221
0.00768682
0.00590604
0.0024937
0.00457947
0.00582427
0.00477633
0.00582384
0.00582587
0.00591266
0.00593676
0.000337413
0.00585899
0.000277717
0.00542563
0.00249802
0.00923433
0.0058751
0.00607516
0.00573837
0.00587444
0.00582139
0.00223793
0.005932
0.00587758
0.00595483
0.00598775
0.00543741
0.0164379
0.0030158
0.0110181
0.000246718
0.00583543
0.0134979
0.00337024
0.00585381
0.0106242
0.00377933
0.00883604
0.00583527
0.0118632
0.0086153
0.00793829
0.00580536
0.005168
0.00447116
0.00387446
0.00590987
0.00584678
0.0157145
0.00172639
0.0150508
0.00591952
0.00584039
0.00627878
0.00593171
0.00424441
0.0119332
0.00216778
0.000852172
0.00867376
0.00600798
0.0058747
0.00311532
0.00526919
0.00331934
0.00101386
0.00314669
0.00593408
0.00584413
0.0159774
0.00588552
0.00553078
0.00238433
0.0105822
0.000762205
0.00597637
0.00588668
0.00596053
0.0132217
0.0129017
0.00580577
0.0060306
0.00591589
0.00197162
0.00581719
0.00590633
0.0059461
0.00275488
0.00112515
0.0024402
0.00487042
0.00591337
0.00209787
0.00456799
0.00472629
0.00152677
0.00504499
0.00220848
0.00584194
0.00193552
0.00583296
0.00598703
0.0059569
0.00330292
0.00154438
0.010759
0.00332323
0.00921054
0.00583418
0.00594405
0.00595272
0.0153175
0.00312349
0.00584726
0.00291076
0.00222513
0.00742981
0.00600402
0.00757184
0.00594895
0.0154949
0.00230599
0.0100637
0.00200296
0.00198527
0.000273184
0.00877375
0.00889656
0.00405312
0.0059948
0.00122166
0.00581521
0.00582809
0.00266867
0.00591703
0.00866197
0.00401595
0.00350776
0.0119615
0.00107604
0.014642
0.00582576
0.004094
0.00470272
0.00589843
0.00497177
0.0155543
0.0123854
0.0151408
0.00581705
0.00306457
0.00570956
0.00361618
0.0106125
0.0026366
0.00588696
0.0059263
0.00599253
0.00365607
0.0127316
0.00932622
0.00442156
0.00583831
0.00374181
0.00504762
0.00236707
0.00322213
0.0112454
0.0133438
0.00090082
0.00231533
0.00593715
0.00539132
0.00586532
0.00353601
0.00227108
0.0079981
0.00876798
0.00287917
0.00131311
0.00547003
0.0110307
0.000326787
0.00595427
0.00047535
0.0103122
0.000526932
0.0064191
0.00590242
0.00587914
0.00299511
0.00514068
0.00584682
0.00603179
0.00586972
0.00587463
0.0056717
0.00135437
0.00593843
0.00504387
0.00196724
0.0155929
0.0034162
0.013254
0.0058379
0.00717811
0.00332963
0.00590522
0.00136081
0.0101642
0.00588115
0.00585364
0.00121032
0.0107555
0.00590196
0.00581686
0.0129202
0.00596885
0.00815312
0.00581624
0.00414044
0.00588168
0.00222799
0.0139229
0.0104614
0.00539982
0.00164471
0.0138625
0.0107842
0.00210879
0.0157643
0.00544384
0.00583541
0.00372385
0.0060073
0.00582606
0.00589891
0.00916619
0.00586401
8.46636e-05
0.00585655
0.00580186
0.00312501
0.00263161
0.00603622
0.00587248
0.00524819
0.00582189
0.00263296
0.00332699
0.00771381
0.00584679
0.001785
0.0114393
0.00594822
0.00585259
0.0099831
0.00255555
0.00359856
0.00145454
0.00967992
0.0030686
0.00252139
0.0057652
0.00527778
0.0129621
0.0117283
0.00122908
0.0017261
0.00590176
0.00147777
0.00583647
0.00584659
0.015493
0.00992624
0.00586172
0.0063519
0.00208099
0.00496643
0.00428955
0.00278722
0.00586851
0.00234392
0.00444263
0.00592767
0.0055063
0.0115706
0.0109332
0.00921551
0.0103795
0.00256518
0.0121036
0.0116589
0.00256409
0.00591612
0.00586677
0.0148953
0.00583512
0.000261563
0.00600612
0.00594517
0.00584208
0.00517861
0.0106161
0.00818146
0.00595666
0.0040563
0.00564153
0.00400288
0.0058216
0.00595777
0.00680833
0.00429575
0.00827754
0.0178909
0.00474456
0.0016058
0.00583288
0.00291939
0.00593838
0.00135742
0.00586765
0.00590039
0.00595681
0.00603961
0.00122057
0.00593863
0.00451347
0.00592439
0.00421866
0.000757067
0.00297538
0.0058784
0.00209256
0.00594967
0.00318294
0.0058878
0.00866251
0.00108791
0.00228898
0.00373352
0.00598339
0.00525714
0.00588216
0.00736121
0.00582565
0.00592515
0.00587763
0.0112979
0.00368545
0.00569545
0.00528443
0.00596308
0.00213971
0.0110644
0.00231984
0.00251132
0.00586325
0.00458787
0.00591868
0.0059241
0.0010834
0.0114465
0.00596898
0.00368122
0.0019089
0.00446191
0.00593949
0.00594565
0.010764
0.00591304
0.00464237
9.68631e-05
0.0102333
0.00588805
0.0058434
0.00584149
0.0123477
0.00143994
0.00364659
0.00157283
0.00806327
0.00502446
0.00974921
0.013922
0.00595762
0.00580398
0.00213984
0.00598908
0.00697793
0.00588184
0.00593356
0.00583519
0.000913609
0.00486367
0.00118564
0.00590089
0.00479613
0.0026946
0.0122141
0.000227364
0.0105896
0.011682
0.00594007
0.00143494
0.000823705
0.00583485
0.00237179
0.0135426
0.00583609
0.00530027
0.00585001
0.00358388
0.00252248
0.00584088
0.0150789
0.00112855
0.00373578
0.00570127
0.00582388
0.00596563
0.00321642
0.00456815
0.0070811
0.00168169
0.00263692
0.0023873
0.000953458
0.0158549
0.00329237
0.0111203
0.00588482
0.00586936
0.000398527
0.00794735
0.004751
0.0021793
0.00605747
0.00290122
0.0114349
0.00592867
0.00287404
0.00581309
0.00215994
0.00195245
0.0060524
0.00481196
0.000392011
0.00529319
0.0104833
0.00217714
0.00583463
0.00220239
0.0132191
0.00519621
0.00398394
0.00225431
0.00579604
0.00608463
0.00592739
0.00484997
0.0116994
0.00933634
0.00401048
0.00378196
0.00436154
0.00306275
0.0024474
0.00598095
0.00596207
0.005845
0.00957865
0.00583356
0.0104024
0.00270758
0.00350943
0.000830666
0.000819403
0.00388819
0.00507797
0.00222202
0.00583741
0.00582699
0.0043209
0.00218664
0.00400038
0.00581293
0.00587756
0.00243223
0.00397606
0.0013177
0.0155006
0.00394213
0.00583928
0.00153888
0.00471876
0.00256242
0.0172081
0.00581812
0.00160288
0.00594991
0.0123187
0.00586585
0.0123461
0.0059202
0.00440459
0.00490689
0.00592899
0.00331206
0.00284457
0.00232187
0.0081668
0.011115
0.00362157
0.00369014
0.00586371
0.00472399
0.00773908
0.00601836
0.00586436
0.0113676
0.00578858
0.00663079
0.00597373
0.0046165
0.00253797
0.00691194
0.00248191
0.00588941
0.0058672
0.00222607
0.011417
0.00583724
0.003278
0.00521301
0.0172971
0.00114098
0.00304664
0.0057552
0.00267831
0.000738621
0.00583299
0.012358
0.0120482
0.00341065
0.00478544
0.0166953
0.00590505
0.00425438
0.00585561
0.00157053
0.0105048
0.0116352
0.00793522
0.00432119
0.0156074
0.00884022
0.0028525
0.00589989
0.00589017
0.00813928
0.00464606
0.00220421
0.00603932
0.00595573
0.00581486
0.00591796
0.01068
0.000344906
0.00436679
0.00607189
0.00320585
0.00591432
0.00584249
0.00585859
0.00532628
0.0120888
0.000319957
0.00493593
0.00621999
0.00327833
0.00232321
0.00208801
0.00218246
0.00403483
0.0114921
0.00250521
0.00511616
0.00583649
0.00603289
0.00160353
0.00858236
0.0127199
0.00955738
0.00240926
0.00940523
0.00570537
0.00389229
0.00595841
0.00479585
0.00796284
0.00863194
0.00397864
0.00422118
0.00586781
0.0058694
0.00582628
0.00584811
0.00315104
0.00407018
0.00371693
0.00344626
0.0101206
0.00882131
0.0123017
0.00550472
0.00303556
0.00636294
0.00262463
0.0012178
0.00896615
0.00581297
0.00578269
0.00352181
0.00447461
0.00256747
0.00323343
0.00593209
0.0114029
0.00608719
0.00255553
0.00611936
0.00432609
0.0107806
0.00424966
0.00586988
0.012806
0.0011497
0.000883991
0.00401467
0.00147585
0.00529164
0.00593157
0.0107771
0.0109786
0.00228861
0.00245019
0.0107339
0.0101628
0.00585864
0.00584456
0.00414727
0.0114116
0.0110104
0.00583396
0.00489435
0.00593804
0.00587169
0.00594276
0.00261023
0.000852833
0.00405657
0.00438831
0.00588649
0.00590602
0.00583712
0.00223837
0.00599432
0.00875342
0.00577824
0.0155749
0.00592833
0.00583835
0.000913116
0.00302408
0.0109506
0.00376843
0.00843769
0.00590576
0.00588683
0.00584716
0.00374068
0.00167164
0.00171138
0.00285224
0.00951969
0.00387554
0.000836558
0.00160323
0.0153472
0.00595184
0.00756438
0.0102356
0.00273249
0.0109761
0.00214017
0.00796358
0.00591093
0.00224198
0.0059348
0.000229487
0.00201111
0.00207525
0.0114891
0.00582099
0.00203814
0.00592582
0.00556062
0.00584976
0.00581307
0.00880064
0.0020553
0.00853918
0.00316001
0.00216649
0.00379589
0.00583249
0.0197469
0.00499259
0.00592531
0.0013226
0.00591219
0.00214811
0.00586995
0.0173143
0.00603817
0.0113048
0.0120978
0.00494427
0.00370709
0.00315144
0.0122882
0.00591844
0.0118764
0.0194481
0.00584238
0.00585038
0.0058937
0.00593002
0.00369629
0.0058974
0.0111888
0.00219259
0.00996426
0.00318519
0.00594891
0.00594952
0.00584958
0.0056894
0.00589118
0.00588962
0.000278421
0.00333016
0.0152786
0.011176
0.00204357
0.00574909
0.00453521
0.00591173
0.00594102
0.00477223
0.00587553
0.00339924
0.00463753
0.0125639
0.000959297
0.00591786
0.0050734
0.00309041
0.00593141
0.00811409
0.00989804
0.00583335
0.00379662
0.00582406
0.00602536
0.00593539
0.0103369
0.00587485
0.00456507
0.00580934
0.00587425
0.00107078
0.00594429
0.00524045
0.00245851
0.0108949
0.00581768
0.00365203
0.00343024
0.00533085
0.00582668
0.00584804
0.00564672
0.0067202
0.0049219
0.00751001
0.0134048
0.00585846
0.00842224
0.0120026
0.00468588
0.00582745
0.0058271
0.0113712
0.00493176
0.00459932
0.00597528
0.0116497
0.00591093
0.000660504
0.00589795
0.0058606
0.0050515
0.00581483
0.00642768
0.00448304
0.0147651
0.00963689
0.00557218
0.00357354
0.0022829
0.00544278
0.0113253
0.00600344
0.0017249
0.00584662
0.00579058
0.00583747
0.00449074
0.00592452
0.00816032
0.0050709
0.00706249
0.00271428
0.00551455
0.00721362
0.00202976
0.00581124
0.00250221
0.00235687
0.00565174
0.0059504
0.00587893
0.00607636
0.0149577
0.00595406
0.00902379
0.00785271
0.00229351
0.00287011
0.00594859
0.0114949
0.00593279
0.0123356
0.00580197
0.00348072
0.00235661
0.00587765
0.008027
0.00532459
0.00580938
0.00215914
0.00500626
0.00471778
0.00385341
0.00216051
0.00593714
0.00594236
0.00220699
0.0103158
0.00592498
0.00454346
0.00582853
0.00226175
0.00252908
0.00637024
0.00795441
0.00588476
0.00752039
0.00566569
0.00246241
0.0102549
0.00760546
0.00266942
0.00883734
0.000425747
0.00587136
0.00933716
0.00145616
0.00252381
0.00457158
0.00996638
0.00581414
0.00445791
0.00440716
0.00131484
0.00582418
0.00496241
0.00789028
0.002324
0.0101569
0.00594152
0.00465651
0.00249652
0.00950624
0.00240637
0.0116447
0.0107919
0.00818035
0.00594928
0.00891515
0.00349816
0.00727779
0.00583245
0.00583879
0.0059333
0.0117615
0.00568793
0.0118763
0.00814002
0.00594927
0.00588901
0.00583275
0.00631572
0.00343416
0.00646767
0.00679867
0.005832
0.00954784
0.0104288
0.00143793
0.00519286
0.00872441
0.00318626
0.00339274
0.00394462
0.00287142
0.00536972
0.00648019
0.00590178
0.00499214
0.00595817
0.00585071
0.0161484
0.00781415
0.00901754
0.001573
0.00410215
0.00594377
0.00611003
0.00977691
0.00532461
0.00583456
0.00205723
0.0116995
0.0058483
0.00590342
0.00889653
0.0118455
0.00587896
0.00583335
0.00495451
0.0059161
0.00549285
0.00593238
0.00593739
0.00480181
0.00165666
0.0112224
0.00790909
0.0105075
0.00589066
0.00568945
0.0104409
0.010841
0.00425204
0.00155557
0.00582414
0.00287642
0.00588824
0.00588673
0.00263451
0.00593175
0.0167143
0.00302033
0.00589167
0.00572609
0.0048022
0.0191199
0.00624841
0.00585129
0.00621014
0.0108935
0.0124103
0.00360344
0.00594608
0.00583516
0.0127913
0.00590983
0.00601973
0.00382388
0.0058488
0.0104328
0.0022745
0.00594259
0.00494139
0.00586078
0.0059406
0.0183924
0.0160601
0.00176116
0.00561396
0.00348968
0.005947
0.00582336
0.00588073
0.00592537
0.00593465
0.00615952
0.00195888
0.0103976
0.00586842
0.00105003
0.00644917
0.00562659
0.00587957
0.00581327
0.0036477
0.0145697
0.00591398
0.00181606
0.000320818
0.00347755
0.00587702
0.00229358
0.00588451
0.00460458
0.00586144
0.00588932
0.00595072
0.00591093
0.00490667
0.00594282
0.00299014
0.00412055
0.00821369
0.00318187
0.00323463
0.00257929
0.00784836
0.00594554
0.000937894
0.0120628
0.00912244
0.00161746
0.00962127
0.00593596
0.00592624
0.0155872
0.00585376
0.0046479
0.016197
0.00529989
0.014716
0.0011141
0.00585265
0.00585426
0.00589702
0.00505249
0.00589526
0.00652049
0.00924147
0.00960514
0.0105943
0.00590401
0.00582369
0.00194745
0.00681423
0.0104003
0.00122447
0.00105921
0.00582871
0.00154705
0.00777334
0.00367863
0.00579218
0.00591119
0.00590058
0.00584176
0.00593823
0.00592444
0.00476376
0.0100084
0.0016452
0.00816292
0.0072834
0.00156231
0.00110126
0.00583092
0.00596651
0.00589506
0.00588949
0.00592983
0.0160898
0.00905819
0.0030945
0.0118032
0.00344311
0.00701366
0.000806676
0.0115585
0.00945298
0.00593208
0.00590314
0.0135807
0.00591151
0.00581287
0.00682405
0.0104155
0.00253143
0.00586581
0.00589485
0.00574458
0.00421978
0.00543218
0.00584958
0.00573704
0.000607282
0.00594359
0.00984425
0.00426613
0.0164308
0.0059405
0.000361791
0.00687308
0.0029896
0.0097009
0.00136066
0.0082393
0.00587484
0.00514552
0.00585137
0.0038805
0.00384951
0.00597446
0.00567099
0.00590778
0.00597233
0.00583128
0.0120527
0.00213282
0.00122868
0.00635616
0.00587932
0.00223165
0.00748652
0.00302483
0.00592671
0.00583215
0.0059198
0.00277364
0.005948
0.00591181
0.0123908
0.0104612
0.0119536
0.00147394
0.000690856
0.00789682
0.00225753
0.011799
0.000772491
0.00586218
0.00596995
0.00578905
0.00595105
0.00986107
0.0102197
0.00590472
0.00419243
0.0126105
0.00251264
0.00588198
0.00617483
0.0101923
0.00865079
0.00995927
0.00275589
0.0103612
0.00579273
0.000370586
0.00110558
0.00969383
0.00570171
0.00583833
0.00145175
0.00825754
0.003222
0.00719183
0.00596143
0.00716538
0.00830165
0.0114982
0.0023301
0.00405634
0.00316415
0.00144277
0.0114534
0.0123224
0.0104495
0.00161933
0.0074971
0.00590231
0.00561335
0.00216634
0.00538199
0.0128469
0.00789946
0.00606133
0.00111361
0.00198897
0.0060533
0.00932578
0.00583397
0.00144317
0.00534874
0.00583091
0.016968
0.0134413
0.0123137
0.00913397
0.00110183
0.0127425
0.005908
0.00977096
0.00591294
0.00593203
0.00232503
0.00437835
0.0101001
0.00404002
0.00620371
0.00457717
0.00590711
0.00768477
0.00588639
0.00157877
0.00947542
0.00581348
0.00727762
0.00107918
0.00587006
0.00624987
0.000284244
0.00582375
0.00334538
0.00594802
0.0125599
0.00725452
0.00590729
0.00159396
0.00587707
0.0100164
0.0102579
0.0017552
0.00563851
0.00555097
0.00583681
0.0164567
0.00337156
0.00593677
0.00260119
0.00203665
0.00582334
0.00588661
0.000910842
0.00590134
0.00543134
0.000374102
0.00524178
0.00861947
0.00209479
0.00277842
0.00591878
0.0101958
0.00272607
0.00874504
0.00583449
0.00588541
0.00147165
0.00391642
0.00926978
0.00593899
0.0120689
0.00594124
0.00176516
0.0060438
0.0056366
0.00114964
0.00161152
0.00772245
0.0168595
0.00985851
0.0098565
0.00579127
0.00107244
0.000921589
0.00453684
0.0059547
0.000880857
0.00281155
0.00417258
0.00159378
0.000579998
0.0169508
0.0104986
0.00200426
0.000262624
0.00581447
0.0021495
0.00208036
0.00583221
0.0023639
0.0086231
0.0067066
0.00470886
0.00114701
0.00583159
0.00584871
0.00520469
0.00583462
0.0131954
0.00585183
0.00585746
0.0112628
0.000905199
0.00434646
0.00114888
0.00604762
0.00211926
0.00603685
0.0101998
0.00672581
0.00294222
0.0102451
0.00584885
0.0058737
0.00349263
0.00805767
0.000614598
0.000462931
0.000355918
0.00565719
0.00587658
0.00583532
0.00593347
0.00333612
0.00804143
0.00115694
0.00396345
0.00948407
0.00529784
0.0102218
0.00206965
0.00585486
0.00342583
0.00319657
0.00584279
0.0058808
0.00368506
0.00416528
0.00994356
0.010161
0.00585488
0.00203038
0.00388504
0.002544
0.00740034
0.0166455
0.0110133
0.00595239
0.00217637
0.0116836
0.00219963
0.00159752
0.00681049
0.00990913
0.00934273
0.0120689
0.00584157
0.00689259
0.00589802
0.00585757
0.00585354
0.00251876
0.00984725
0.00220473
0.0118312
0.00403451
0.00270363
0.00580564
0.00581333
0.00589958
0.00608603
0.00217113
0.0112243
0.0125443
0.00231341
0.00508767
0.00595324
0.00303332
0.00581608
0.0121029
0.00204412
0.00595202
0.00122957
0.00119382
0.0112902
0.00701988
0.000848607
0.00213374
0.00472308
0.00892995
0.00032159
0.00571512
0.0110667
0.00586467
0.00305012
0.00588388
0.00929116
0.00527876
0.00313595
0.0125688
0.000391842
0.0137415
0.00263261
0.00113674
0.00258091
0.0058148
0.0015428
0.00274603
0.00419204
0.00306174
0.00386181
0.00398591
0.0074647
0.00121064
0.00586428
0.00390177
0.00276134
0.00329718
0.00585672
0.0163076
0.000918136
0.00541399
0.00136693
0.00586149
0.00947129
0.00583296
0.00570678
0.00583029
0.00963622
0.00279723
0.0115441
0.00264063
0.00288039
0.00387486
0.00156549
0.0170301
0.00140757
0.00484824
0.00617311
0.00203338
0.00593664
0.0100972
0.0119302
0.00615531
0.00600632
0.00273842
0.00342079
0.00522234
0.00214929
0.00208818
0.00591525
0.00295447
0.00557636
0.0052251
0.00208444
0.00226731
0.00581979
0.015978
0.00259302
0.00207254
0.00327882
0.00203635
0.0136498
0.0058173
0.00615065
0.0057221
0.00297013
0.00585602
0.00925696
0.00913414
0.00463794
0.00258637
0.00968376
0.000850074
0.00308874
0.0168614
0.00206668
0.000918625
0.00296055
0.00284296
0.00443496
0.00208514
0.00228187
0.00568605
0.000685441
0.00678902
0.0100502
0.00581656
0.000731921
0.00120071
0.005306
0.00583339
0.00228212
0.00593761
0.0039975
0.00729289
0.00402964
0.00404612
0.00582645
0.0058236
0.0046196
0.00816875
0.00593475
0.00877653
0.00100738
0.0058095
0.00566863
0.00997108
0.000846916
0.00118864
0.00584738
0.00385639
0.00177744
0.00600685
0.00587488
0.0153189
0.00369754
0.00938073
0.00216023
0.00308732
0.00923916
0.00135165
0.000643843
0.00582535
0.01031
0.00247379
0.00368924
0.0170155
0.00231634
0.00594519
0.00213976
0.0041218
0.00558012
0.00584681
0.00396641
0.00586167
0.00195273
0.00337841
0.0010097
0.00591006
0.000316298
0.00265133
0.00431575
0.000982067
0.00739284
0.00119063
0.011123
0.00581432
0.00160232
0.00313185
0.00582938
0.00913245
0.010392
0.00289896
0.00333008
0.00573434
0.00151297
0.00730405
0.00304714
0.00795828
0.00309843
0.00959223
0.0166617
0.00162659
0.00583269
0.0058498
0.00193128
0.00269969
0.00408095
0.0131275
0.0120925
0.0163843
0.0121765
0.00582132
0.00142231
0.00583164
0.00453633
0.00591009
0.0123907
0.00113613
0.00207884
0.00585838
0.00100879
0.00364007
0.0061743
0.00593109
0.00283653
0.00263004
0.00219602
0.0038607
0.00136178
0.00427929
0.000552682
0.00147016
0.0058289
0.00810472
0.000332364
0.00362886
0.00602472
0.00367529
0.00589519
0.00588854
0.00216077
0.00607448
0.00540069
0.00100256
0.00183161
0.00318547
0.00592295
0.00438226
0.00214257
0.0155291
0.00365459
0.00350379
0.00975163
0.00324743
0.00508088
0.00330315
0.00469473
0.00582208
0.0059553
0.0101362
0.00265387
0.00478969
0.00537861
0.00375964
0.00590606
0.00455042
0.0125183
0.00599288
0.00386281
0.011118
0.00156301
0.00148711
0.000241326
0.00242287
0.012473
0.00705906
0.0107684
0.00307423
0.020786
0.00590081
0.00287347
0.00589015
0.00583614
0.0078344
0.0118433
0.00327772
0.00584564
0.00301904
0.00201877
0.00591815
0.00608414
0.00253155
0.00585953
0.0058702
0.0182738
0.00281138
0.00211812
0.00315201
0.00592349
0.00183236
0.00193385
0.0038225
0.00151748
0.00229219
0.00453109
0.00176889
0.00854677
0.00579249
0.00690443
0.000667612
0.00131781
0.00262587
0.015952
0.00196957
0.00457532
0.00198756
0.00169987
0.00344741
0.00214918
0.00586163
0.00583149
0.00589211
0.00451466
0.00935726
0.0058859
0.00149802
0.0056907
0.00357356
0.00567431
0.000826048
0.00374354
0.00280747
0.00590613
0.0055162
0.00493999
0.00591845
0.00225401
0.00388201
0.00591269
0.00462772
0.00405452
0.00592873
0.0125683
0.00405506
0.00721566
0.00200164
0.0122588
0.00179691
0.00181911
0.00511976
0.00217072
0.00573688
0.00286125
0.0147657
0.00813202
0.00169894
0.00201705
0.00240541
0.00590254
0.0138913
0.00246874
0.00864264
0.00591997