/*--------------------------------*- C++ -*----------------------------------*\
| =========                 |                                                 |
| \\      /  F ield         | OpenFOAM: The Open Source CFD Toolbox           |
|  \\    /   O peration     | Version:  v2012                                 |
|   \\  /    A nd           | Website:  www.openfoam.com                      |
|    \\/     M anipulation  |                                                 |
\*---------------------------------------------------------------------------*/
FoamFile
{
    version     2.0;
    format      ascii;
    class       volScalarField;
    location    "300";
    object      omega_0;
}
// * * * * * * * * * * * * * * * * * * * * * * * * * * * * * * * * * * * * * //

dimensions      [0 0 -1 0 0 0 0];


internalField   nonuniform List<scalar> 
13851
(
0.0263098
1.38361
0.0824698
0.0260156
0.0835499
0.0524223
0.0247356
0.0489216
0.0234675
0.0949773
0.280748
1.93991
2.69281
2.47971
0.0244944
0.0357993
0.0276225
0.0308329
1.14503
0.0234674
0.0258621
0.0804422
0.0240317
0.0249402
0.0242592
0.0496802
0.0269944
7.58555
0.0261446
0.0269362
0.0979816
0.0279169
0.0792209
0.403527
0.0249141
0.190292
0.796623
0.178796
0.105348
0.421912
0.0242916
0.0223223
4.49814
0.273468
0.281541
5.19557
0.271552
0.676839
0.0272009
0.187023
0.0767145
0.140037
3.13952
0.0246367
0.025369
0.022322
0.0238705
1.95945
0.0267306
0.0247583
0.159857
2.51019
0.0567158
0.0968253
0.132933
0.0278019
2.1646
0.256492
0.0363059
0.0306268
7.36553
3.0689
1.2748
0.0247482
0.0239759
0.0236796
0.0770422
5.29655
0.0497983
6.7276
0.0249451
0.249255
0.024413
4.07568
0.0608368
2.00957
0.0468125
1.59211
0.0281
0.023483
0.191056
0.0343939
0.251444
0.0302554
0.0278818
0.0246783
0.0856633
2.70332
0.266281
0.0247148
2.44561
0.0531806
0.0251476
0.0267516
0.0237146
0.0474077
0.0589009
0.0222116
3.55439
0.0613099
0.0249962
0.0235501
0.0327519
0.0255859
0.0249758
0.798482
2.7575
0.0222561
0.0255493
0.025714
4.97732
0.0266339
2.72133
0.44466
0.635401
0.0244065
0.512334
0.0515685
0.0256862
0.139788
0.0242723
0.023585
5.96283
0.024416
0.796515
0.0237482
0.0222695
2.99115
2.55051
2.31829
2.40607
0.0253584
0.0252949
0.0226601
0.0261378
0.266351
0.0329552
0.138774
0.024718
0.284855
0.0799726
0.0253183
2.55956
0.0239018
0.0258406
0.0260484
0.0239142
0.0259768
0.13942
0.0756205
0.022301
0.0302132
1.97961
0.0235643
0.0304708
0.0224943
0.0369097
0.0367724
0.0255695
3.39907
6.54155
0.0231488
0.0239348
2.38418
0.0235571
0.707111
0.0499461
0.025288
1.4001
0.0222206
0.0286596
3.20157
0.0244191
0.0858753
0.022239
0.0242041
0.0279693
0.0247717
0.0943168
0.0874531
0.261104
2.49959
0.0237464
0.0364237
2.51916
0.0257057
0.0250595
0.386228
0.0251
0.0237117
0.024536
4.71647
0.0264783
0.0242732
0.072865
0.024431
2.73803
0.0277562
3.09405
0.0222253
3.38898
0.0250636
0.379657
0.0221711
0.0225773
0.286046
0.0576819
4.55461
0.0244265
3.04224
0.0279162
0.0249854
3.08142
0.134727
3.37616
0.0243937
0.0321841
0.0239276
2.12534
0.0221672
0.0483013
0.279679
0.023143
0.0236628
0.0685428
0.0456803
2.83324
0.141644
0.0226392
0.0242879
0.0870549
0.417915
0.0226917
0.0787789
0.0232337
3.17341
0.054515
0.435299
0.0261316
0.0285107
0.0301435
0.416314
0.0249471
0.0262186
0.0547883
0.423189
0.0845262
3.03492
23.3088
0.0245365
0.0225981
0.029674
0.7738
0.0230449
2.29053
0.0256941
0.024915
0.0297793
3.1109
0.0677455
0.0300761
0.0258336
0.298862
0.0471797
0.0349229
0.0235943
0.250557
0.0924114
3.62427
0.28269
0.0226912
0.0221841
0.0236214
0.052406
0.795054
0.688513
0.0235825
0.024554
0.404164
0.257747
0.167841
0.0264501
0.0247636
0.0387644
0.254066
2.09682
0.0298866
1.99238
0.023618
3.20984
0.0298489
0.0274914
3.59172
0.0246294
0.0520071
3.07628
0.0235626
0.0455855
0.0303815
0.0262588
2.77535
0.0300719
0.024887
2.96228
0.0223737
0.0287485
0.0257273
3.71033
0.128591
0.0244252
0.0548987
0.0244689
10.5102
0.0328301
0.0239867
0.0241512
0.125563
0.0315044
0.0257672
0.0245587
0.0246092
0.0248473
0.279241
3.25809
2.81452
0.0334144
3.67415
2.58773
0.0244482
0.0370748
0.169036
0.0389257
0.0602264
0.122851
1.28496
0.0276355
0.778022
3.13419
0.0245083
0.166829
0.182745
1.42131
0.0257588
0.0653469
2.09611
0.0239647
0.771529
0.0241369
0.0244866
0.0230892
0.0222088
0.0238599
3.21019
0.316378
0.0243943
0.0438619
0.0224193
1.88817
0.0419136
0.664165
3.05136
0.0244045
0.0628088
0.0304906
0.670607
0.0241942
0.0222776
0.0308247
2.65759
0.0243431
2.79176
0.0381332
0.131131
5.25733
0.280425
0.278248
0.0284979
0.0236694
0.0251259
0.0321882
0.0542622
2.68492
0.0367679
3.46152
3.10722
0.0224337
0.024545
3.04086
5.03234
0.224139
2.82862
0.0313644
0.0310915
0.0246673
2.54435
0.0232912
0.0351207
0.0278312
0.0246561
0.0237732
0.0235349
0.0224798
0.0941943
0.0543402
6.55936
0.0310871
0.0581006
0.0353914
0.416856
0.0294221
1.58887
0.0272528
0.281926
0.0222532
0.0235161
0.0244521
0.418167
0.368902
0.130012
0.0344045
8.99256
0.37779
0.0441882
0.0259851
0.070072
0.0241723
0.416077
0.0236907
2.38368
0.411165
0.0738882
3.22102
0.0253738
0.068292
0.406049
3.19962
0.0221501
0.0324796
0.0511226
0.075522
0.0232462
0.0248552
0.0749343
0.130511
0.0352081
1.59763
0.0242907
0.0242126
2.3752
0.0312858
0.0221685
1.59415
0.0236575
0.026291
0.0233503
0.0432746
0.0256364
0.0222078
0.0252013
2.97806
0.024425
0.0389282
0.0236867
0.0315307
0.166219
0.025715
0.0242302
0.0255962
0.02558
0.713327
0.0248985
0.0468998
0.0244198
0.0244062
2.40035
3.38101
0.024462
0.032315
0.0295826
0.415836
4.04233
0.0242303
0.30242
0.0242221
0.0835966
0.0246902
2.43782
0.0223137
3.74826
0.0832161
0.0223382
0.0322152
2.78485
0.049512
0.307195
0.0254258
0.466676
0.0257508
0.0234864
0.0235968
0.0246746
4.00738
0.0688355
0.13803
1.22643
0.05373
0.0223452
2.7384
0.372205
0.0288172
0.0304183
0.417205
0.405541
3.4329
0.0254038
2.50066
5.19676
4.84357
0.0308201
0.0330167
0.512836
0.0797744
0.32568
0.386082
2.53003
0.02614
2.57152
3.11455
0.0222532
0.0752365
0.0706276
4.19642
0.0263017
0.0242646
0.0238892
0.0242582
0.0925395
0.0417575
1.36655
1.52476
0.023573
2.61644
3.14514
0.31148
0.388477
0.0383047
0.0221404
0.0234894
0.0848863
2.78047
0.025921
0.0954942
0.187164
0.0223076
0.039973
0.317133
0.32127
0.121719
3.77538
3.14375
0.0242436
0.0246714
1.49264
3.06312
0.136166
0.036612
0.0668045
0.0222216
0.0240996
2.40685
0.0222859
0.0262117
0.0222044
0.0236955
3.13536
0.0927919
0.0324407
0.0222736
2.931
0.35997
0.0236567
0.0236058
0.0230947
0.0250325
2.63716
0.419896
0.413573
4.58213
0.510066
0.0349197
5.76011
3.27309
0.0280472
0.0367782
0.0221329
0.0254118
0.0372097
2.97491
0.79355
0.094009
0.0314015
0.0234255
0.0354148
0.025143
0.304085
0.0764766
0.0244109
0.0343051
0.0232494
0.0295402
0.134514
0.02473
0.0241477
0.041995
0.0246835
0.0847411
0.298837
0.128775
0.0359173
0.140805
0.0234147
0.123924
0.0311387
4.63999
0.0249962
0.0247564
3.46096
0.0263978
6.2332
3.11054
3.57883
1.5903
0.0232923
3.26104
0.0228413
0.0236828
0.0223006
0.0237026
0.024733
0.0318384
0.041117
0.0222559
2.56545
0.0856634
2.58276
0.0238121
0.0223958
0.0234449
0.165058
2.53295
0.0561265
0.0298125
0.0228904
0.0244946
0.0242787
0.0239599
0.232278
1.81417
0.0246594
0.0222418
0.0246891
0.0239578
1.94473
2.18673
0.0360159
2.64074
0.414608
0.0241298
0.13651
2.91153
0.0382182
1.98428
0.0249272
0.0299252
0.0550632
0.0301945
0.352986
0.0244488
0.459648
0.0237115
0.0330122
3.02686
0.0237494
0.0258553
0.0610257
0.0234932
0.0282138
0.686876
2.73237
0.0745167
1.89563
0.287546
0.0221885
0.0237906
2.51925
0.179783
0.0489748
3.1443
0.023314
0.0271227
0.022272
0.534115
2.16455
0.0284255
0.0248047
0.196708
0.0271252
0.0234098
2.63034
0.699868
2.85976
0.0223564
0.0246522
5.35991
3.72775
0.162282
0.0249293
3.45089
0.0244314
0.266973
0.144991
0.0789348
0.0277714
3.80635
0.0293913
0.0256157
0.680403
0.0246391
0.0264658
0.0257697
0.0233909
2.49708
0.0344029
0.123004
0.0319286
0.1274
0.0234507
0.699013
0.0253152
0.0295056
0.0225045
0.0240907
0.0243001
3.03623
0.0238794
0.0223205
0.27256
0.0246916
3.96746
0.0239675
0.0251766
0.0740898
2.05423
0.35215
0.0236772
0.0970433
2.6463
0.0249295
3.23854
0.0327199
0.0233597
0.0324029
3.5177
0.106555
0.0286864
0.0236741
0.022227
0.394725
0.0882729
0.0602106
0.0294498
0.0321974
0.0251404
0.0250362
0.0945953
0.318455
0.0920932
0.799552
0.0246318
0.0849033
0.0889841
3.76393
0.0282557
2.03676
0.787423
0.0247082
6.71786
0.10725
2.57041
2.88075
2.90219
0.328735
0.043392
0.0233816
0.0315431
1.98893
5.07826
0.0240659
0.0244606
0.0707781
0.2302
0.0223687
2.94581
0.0232917
0.0244185
2.39766
5.27673
0.290346
0.0236668
0.0245047
3.08681
0.220739
0.12709
0.0263518
2.58434
0.326725
2.55014
0.0580529
0.0430312
0.0248871
0.0246823
1.19194
0.0523713
5.76569
0.0323491
0.0362907
2.58322
2.54926
3.46923
0.0245214
0.0334357
0.0236392
0.036585
0.0257706
1.77649
0.0271491
3.1233
0.0223677
0.0725484
0.0241147
0.16391
0.0354956
0.0330355
2.67746
0.0458338
0.0455791
0.0250727
0.0724018
0.694146
0.0779268
0.0262899
6.50085
0.0229813
3.03911
0.313294
0.0246684
3.35942
2.57506
3.62841
0.330336
0.0315468
0.0240689
2.87488
0.0272355
0.768668
3.10344
0.0238256
0.0256881
0.367621
0.329517
1.83436
0.0246123
0.0234923
1.30494
3.05423
0.122257
0.028253
0.0257576
0.305272
2.68528
0.0920901
0.0223272
0.0439146
0.0235143
0.0259976
0.24236
0.0248018
2.37933
0.415502
0.0244248
0.0254623
0.0240909
0.0258274
5.93651
2.77311
0.032081
2.13967
0.024115
0.0321038
0.0240212
0.0235345
0.0245798
0.0244071
3.94233
0.0244624
0.0551376
0.0245229
0.028862
0.254974
3.34493
0.0254412
1.51928
0.0630445
1.46629
0.0351467
0.0355228
7.71444
0.0295521
0.0428928
1.77278
0.527942
3.06676
0.0428653
0.284339
0.0249031
0.0437479
0.0544893
1.88663
0.0240918
2.08419
0.0237703
0.0238321
2.56464
0.0240418
2.36594
0.0280242
0.0236175
0.0376799
0.0236381
0.0245132
0.0232069
0.0248842
0.205575
0.023845
0.200232
2.48212
0.0649562
2.50587
0.0246626
0.0253479
0.0270732
0.0242672
0.0236127
0.0847411
0.0250041
0.0236538
0.0248599
0.0243009
3.86453
1.85012
0.0695233
2.81248
0.298547
0.0240889
0.520453
0.0312047
0.0238399
0.287557
0.134677
0.363119
0.0240368
0.274474
0.320762
2.24302
0.0231902
2.68209
0.0336424
0.0268754
0.0234192
0.0233288
2.6566
0.0910618
0.686627
0.0236958
0.0243645
0.381248
0.0246887
1.9489
0.320704
0.979756
1.47964
0.286773
0.0243646
0.0243413
0.0633887
0.0318925
0.0267399
0.169167
0.0446978
0.0250369
0.0256375
1.96318
0.0236684
3.69074
2.3741
0.749539
0.196016
0.0253559
0.0228003
0.0246784
0.305597
0.387077
0.023188
0.0259712
0.0236646
0.0824174
0.0224521
0.0236283
0.0250167
0.0353962
1.55314
0.0443039
0.0340204
0.0243518
0.055325
2.45141
0.0252981
7.51213
2.36438
0.0859985
0.0225744
0.0468276
0.0242547
0.0240231
0.0246169
5.15063
0.128531
0.346789
0.0268111
0.235629
0.0243237
0.0238424
0.0246247
0.536812
0.143405
0.0222862
0.0349967
0.0583975
3.50471
0.025686
1.54832
0.024804
2.70499
0.0816289
3.28774
0.0961838
0.0847318
0.406905
3.06694
0.289083
3.81137
0.0238117
0.188192
0.0224361
0.026384
0.0289164
0.0246744
3.12054
0.0322174
0.0301719
0.316702
0.190757
0.710139
0.024446
0.0265274
0.0288618
0.0228758
0.0326617
1.38883
0.552055
1.09477
0.0238987
0.029617
0.026699
0.366144
2.89163
0.0624827
0.0227777
0.0249456
2.68647
0.0481732
2.51397
2.66674
0.0385279
0.0225535
2.8159
0.0320028
0.0464113
0.0311107
3.29747
0.310582
0.127685
0.105086
0.0252174
0.0301577
0.0244317
3.36216
0.0504852
3.20932
0.231397
0.0287347
0.154166
0.025658
3.33522
0.297346
0.0234597
0.384465
2.98844
0.515447
3.39795
0.0246099
0.0243645
5.6588
2.51936
2.52046
0.0256801
0.0246811
0.0244139
3.76211
0.149581
0.0248616
0.262436
0.0929459
2.8032
2.73715
0.667947
0.0245172
3.37109
0.0274488
0.0242081
0.147644
2.52217
0.0247405
0.0237559
3.99634
3.27354
0.0241216
0.0238778
2.10267
0.0233384
0.0937574
0.0239012
0.338802
0.0243535
0.0560483
1.09991
2.94228
0.0255003
3.62965
0.411902
2.56887
2.29978
2.6298
0.0362654
0.0241651
2.2816
0.0257296
0.0244683
0.0228482
0.407618
0.0241091
0.543614
0.0237757
0.0257833
5.20182
0.0705104
2.3563
0.0257944
0.032806
0.0235898
0.0350641
2.92995
2.3846
0.0237107
0.0706801
0.325166
0.024587
0.0233355
2.9392
0.0368453
0.0374728
0.136916
2.35423
0.156353
2.74
3.34145
0.0387638
0.284781
0.377492
0.810763
0.0705945
0.0226556
0.134559
0.0241479
0.0240825
1.93365
2.97857
0.026006
3.21146
0.169092
3.97212
0.274672
0.0840787
0.0242121
0.218665
0.115886
0.0236829
0.0255898
3.13825
2.8012
1.55496
3.3617
0.0408082
3.15614
3.23416
0.0344999
0.0247146
0.0239672
0.250712
0.0239548
0.258692
0.0252999
0.0251138
0.02618
2.56347
3.68211
2.5861
0.0248231
2.89966
0.0278824
0.0321568
0.0239465
0.0234507
1.95345
0.0298409
3.28893
1.17477
0.197557
0.122923
0.0245908
0.0426835
0.0246157
0.149576
0.025144
0.0257168
0.0247462
0.0252529
0.167683
0.0251717
0.0373103
0.023737
0.0379167
0.153448
5.82023
0.0239708
0.0509952
0.0241127
0.0724058
0.0264105
2.65132
0.211525
0.0342047
0.026643
0.0254512
0.295885
0.0242342
0.127995
0.0245336
0.0237469
0.0249386
2.95189
0.0297023
0.0273374
0.0314833
0.0241324
0.068371
2.86309
2.11962
0.0382542
0.0244443
0.0755458
0.0226846
0.0238592
0.193687
3.10458
0.0238482
0.0330885
0.0967319
2.98256
0.0249064
0.0250922
3.14326
0.0255685
0.124608
0.317261
3.78789
0.0243653
0.0287518
0.0242765
3.32022
0.139793
0.0443494
0.1256
2.68062
0.0254394
3.65611
2.53327
0.0245659
2.61392
0.0861112
0.0253865
1.97921
0.0246225
0.0241004
0.0232682
0.191021
0.182471
0.174503
0.0257376
0.0253556
0.0327476
0.353089
0.557445
3.64638
0.332481
0.0250845
0.14032
0.136823
2.34609
0.0788549
0.233039
0.0239733
0.0313142
0.023349
0.325506
0.0390685
0.0242685
1.95153
0.204723
0.0350129
0.028483
0.0222251
0.0240333
0.0560306
0.0367803
0.407076
0.0706849
0.070618
0.062489
0.121991
2.50627
0.0688821
3.57699
0.0239806
0.0236716
0.187838
2.9367
2.68414
0.0705746
0.0252208
5.58544
0.32713
0.0237886
0.0290934
0.0237414
0.0438859
0.074573
0.0382939
2.4519
0.464571
0.0256358
2.55592
6.57761
0.0245153
0.0832889
2.47401
2.4077
0.0267036
0.0795526
0.0221583
0.0260281
0.0236596
0.0280816
3.52147
2.67482
2.35993
4.1604
0.0256255
0.0365114
0.056304
0.0235855
0.0248099
0.0233439
3.00217
0.0239066
3.45609
0.0389386
0.0511125
0.167918
0.214387
4.74247
3.0623
0.0430957
0.0224498
0.0253619
2.91482
2.23763
0.0275977
0.0236958
0.0233215
0.0668728
0.0330017
0.153968
2.6855
0.0255998
0.0232883
0.12958
0.0650637
6.34442
0.963418
0.0238914
0.0763869
0.0245127
3.54459
0.0226045
3.15508
0.0235395
0.0255393
0.0332184
0.0250293
0.0650527
0.0326254
0.0499544
2.07661
2.80546
0.0280399
0.0325628
0.024206
2.99494
2.3433
0.0245106
0.0226774
0.316607
0.0222254
3.88627
0.0239407
0.0361424
0.0735846
0.906544
0.0404968
0.0255219
0.0247139
0.0745494
3.19099
0.0241648
0.238245
3.18203
1.00881
0.681884
0.0359727
3.65816
0.0282728
0.481341
0.0243266
0.337348
0.33388
2.61201
2.82385
2.51397
0.0241074
0.0438826
0.0237403
8.26446
0.280938
3.05362
2.0161
0.029693
2.5725
0.809232
0.0372233
0.0256705
0.0247169
3.38018
0.028407
0.0740697
0.0259973
0.024632
0.0235366
0.0245864
2.71438
0.194378
0.0337412
2.76408
2.36241
0.0238051
0.0243635
0.023309
0.0303687
3.13884
0.220844
0.0283336
0.0272464
0.116116
0.0816984
0.0471625
3.98936
0.0329404
3.45925
0.0329563
0.0317835
0.0243357
0.025948
0.0745414
0.310738
0.337145
3.17292
0.0742376
3.04117
0.0271158
0.0272461
0.0242914
2.24395
3.06463
0.441591
0.170867
0.026457
0.0244496
0.0239614
0.0245282
0.0233639
3.39061
0.0318707
3.15577
0.0347616
2.61205
2.36256
3.19008
0.0348161
0.0287211
2.43167
0.0415011
0.412903
3.34506
0.0234673
0.241666
0.0299028
3.04994
2.85467
0.037221
0.306968
0.429423
0.0257002
0.0543381
0.0270692
4.05841
0.315977
0.0268602
0.0247058
0.338166
0.925834
0.135774
0.367134
0.134665
0.030923
0.023952
1.99991
3.1193
0.0819802
0.0335248
2.76912
2.32476
0.0237608
0.0244949
0.0270732
3.11881
2.99432
0.0244126
4.27392
0.0251217
0.0239928
0.0246148
5.22904
0.718975
0.0573283
2.78797
0.0258014
0.0256778
0.0239184
3.38364
0.0252006
3.115
0.0266469
1.50669
0.0249263
0.0241472
0.128204
3.38425
0.303345
0.0382576
2.54091
0.022545
0.0245772
0.024506
0.0469275
0.0686811
0.0686535
0.0388168
3.25797
0.0272274
0.130946
0.113539
2.48638
0.024285
3.40392
3.07174
0.0279011
0.423861
0.0698763
2.42734
0.0246723
0.0704963
0.0239102
0.414858
7.39048
0.0808609
3.34868
0.0263299
0.0518148
0.0254085
3.94508
0.0225219
0.0237188
0.55265
0.092238
2.70873
2.89436
0.068375
0.0312284
0.0232502
1.37091
0.0324938
0.0237205
0.153983
0.0230974
0.0459261
0.0244376
1.08736
0.0254803
0.265103
0.317975
0.0330394
0.423503
0.0573652
3.57381
0.0242673
1.15044
1.76007
0.0235318
0.0244247
0.025819
0.0249531
0.0419582
0.024128
0.512151
0.0806764
0.269908
0.0775882
0.024475
0.0249362
0.0232304
3.15464
0.0245986
0.0242663
0.255616
0.0268245
1.52736
3.36338
0.0939519
0.0268952
0.0361325
0.0256254
0.0251066
0.0427534
0.0227357
0.0269444
2.13139
3.23418
1.30586
0.0255734
2.41971
0.181986
0.0249737
0.19869
3.09633
0.0244326
0.0264817
0.0243835
3.29587
3.23691
0.506419
0.0227165
0.0268909
0.025937
0.0247025
0.136682
0.0245529
0.142953
2.79281
3.50772
0.0234324
0.0268112
0.0264729
3.82112
0.0222101
3.01976
2.04995
0.275666
0.575336
2.77371
2.57169
0.0254898
0.44682
0.533812
0.0254409
0.0232331
0.0237903
3.32514
2.40778
2.72402
0.0239642
3.47906
0.024649
0.172039
0.0231641
0.0261194
0.0253758
0.0234231
3.34334
0.0255075
1.87503
2.3681
2.98202
0.0495049
0.0554295
3.24755
3.15241
0.0246151
3.92367
0.0232426
0.0222794
0.0243521
0.0443727
0.0233684
2.11355
0.0319262
0.0505981
0.0398928
2.01826
2.44672
0.0891976
0.0233964
0.0572347
0.0791413
3.45518
0.024301
0.0223409
0.0258609
2.01886
0.0245295
0.265166
2.04807
0.0439438
0.0642382
0.0243398
0.314671
0.0248738
3.16587
0.0229892
2.74731
0.0339964
0.0246013
2.08925
2.82051
0.0228952
0.0699726
0.0273754
2.57517
0.0502017
0.132283
0.0464299
0.0248686
0.0570125
2.60199
0.0237149
0.0471154
0.0258032
0.0814847
0.0350835
2.02662
3.04439
0.0246136
3.43982
0.0254378
0.0466613
2.89383
2.06491
0.0382856
3.03522
0.309578
0.0247205
0.239005
0.137546
0.0335492
0.0254575
2.6339
0.0229264
2.9825
0.0453912
0.115287
0.0244343
0.0330506
3.24899
0.0472514
2.561
0.0251324
0.0267018
0.0916603
2.70029
0.0289056
3.17285
0.785196
2.18332
0.0246194
2.69032
2.26011
3.33942
0.0244909
0.0248302
0.0242338
3.25653
0.0295553
0.324573
0.236648
0.0248874
0.0229435
0.0244523
3.51363
3.09982
2.42262
2.60137
0.023907
2.60322
3.20714
0.138892
2.33137
3.09241
0.0372562
3.42208
0.0263311
0.0285552
3.24053
2.69422
0.0247088
3.12594
0.0247267
0.0244778
2.73911
3.10682
3.66506
8.77399
0.033817
0.0248989
0.0260012
3.33958
2.72223
0.0241825
0.0493395
0.456562
0.0245222
0.0245841
3.03481
2.90023
0.0259595
0.0245386
0.0253672
0.0255232
0.14726
0.0249323
0.0239584
0.0285052
0.136567
3.17483
0.53454
2.5406
0.0246247
0.0275234
2.87393
3.20967
0.0308605
0.157505
0.0244078
0.0384435
0.0255383
0.0254506
0.0701696
0.023908
0.794745
0.0352937
0.0236559
0.0272199
2.36956
1.62683
3.60585
0.0245359
0.0272817
3.30458
0.557557
0.0269493
0.0242295
0.0246
0.28571
0.0245975
0.0245675
0.0306294
0.0244081
2.91112
0.14247
0.0248461
0.0270593
0.022654
0.0245524
1.28414
0.549491
0.0748328
2.30048
0.0586447
0.0249628
0.0243825
0.0245933
0.0242026
0.0248336
0.0265131
0.0738196
2.84742
0.0254169
0.116148
3.50629
0.0460795
0.0242153
0.0237411
0.0264385
2.75452
0.0241575
1.76945
0.630868
0.048164
0.0246992
6.36287
0.0226388
0.155536
0.0230752
0.0226693
0.0245841
0.0235872
0.0373522
2.69848
0.317386
0.0411802
1.96772
0.155408
0.235715
0.0345202
3.12322
2.26569
0.114417
2.61971
3.08415
0.121779
0.267122
0.0249418
0.0233759
1.59762
0.0239558
0.0271474
2.54848
0.111623
1.86519
0.194266
0.0236169
0.0255892
0.0245566
0.11045
0.0231336
0.18138
2.64909
2.9216
0.88271
0.024543
0.0229564
0.0765798
3.18205
2.94749
0.123662
1.64771
0.0237903
2.37943
3.58694
0.0626049
0.0266695
0.0245722
0.022501
0.0261375
0.0244301
0.0242908
0.0269384
2.91904
0.0816162
3.25609
0.288346
1.72201
0.191221
0.0243192
0.02362
0.024714
0.0231954
0.0249104
0.542642
2.5386
0.421213
3.43378
0.0264032
2.63694
0.156261
3.20932
3.27807
0.0245136
0.0235968
0.329331
0.0245291
0.0229078
0.31421
2.92931
2.67922
0.0244621
0.0245929
0.0265776
0.0405563
2.37119
0.0232629
0.0268874
0.752718
0.0229815
0.357351
0.0400331
2.35488
0.0248913
0.428538
3.06504
0.0379718
3.29928
0.119807
3.33557
0.0226327
0.0279493
0.0237182
0.0325069
3.98593
0.0241651
2.03687
0.0245536
0.0243386
0.0245545
3.33171
0.0469357
0.118407
0.377697
0.0233498
0.0461493
2.01884
0.0573494
0.0234211
0.0257105
0.0245199
0.0493419
0.0241685
0.0237033
3.42338
3.57153
3.22778
0.827464
0.916289
2.37345
0.0747025
3.54666
0.131637
0.0225737
0.0236297
0.0222422
0.0246502
3.37971
3.32502
0.0229874
2.25056
3.2872
0.0321535
0.0253082
0.0275507
2.60151
2.98347
2.95858
1.3722
2.96748
0.0222362
0.264142
0.106998
0.310225
3.3036
0.0244008
0.137814
2.11353
0.0353172
2.78192
0.0248091
0.189966
2.21653
3.08768
0.0794539
0.0339593
5.27007
0.139229
3.13522
3.1603
2.89195
0.121582
2.63361
0.0246084
0.0274661
0.0499103
4.12215
0.339025
3.45662
0.0248019
0.121995
0.071812
0.024975
3.12912
0.0244307
0.138203
3.91448
0.0244465
2.43486
2.70227
3.14223
2.63718
1.28133
0.519406
0.0239908
3.41821
0.0244637
0.0235664
0.0440798
0.0267965
3.14057
0.0269914
0.0274531
0.0270342
0.0235913
2.51294
0.0258874
0.125016
0.191017
0.0234463
3.74296
0.107135
0.0254258
2.1499
0.286628
0.0244332
0.656476
0.0251309
3.27128
0.287563
0.0230131
0.124519
0.0259588
3.49735
3.00986
0.0767807
1.11918
0.0284568
0.0246076
2.57239
0.027
0.0242312
2.61327
0.0433305
0.0238012
0.0236458
0.13664
0.0257548
3.84505
0.28322
0.0894435
2.41611
0.0561506
0.0666016
0.0240339
3.53387
6.21383
2.90563
0.0244963
0.0229144
0.0766479
0.0332439
0.335855
0.0242625
0.47765
0.0241071
0.133195
0.0245094
0.109895
0.172864
0.122345
3.57124
1.19094
3.05025
3.00225
0.0222847
1.46725
2.05264
4.53857
0.0237964
0.158534
5.92616
3.09633
0.124069
1.0288
0.792884
3.61029
0.0483215
0.244811
0.0234039
0.0503236
0.045477
0.0243846
0.0742467
2.59946
0.28499
3.08809
2.21676
0.0241737
0.0236987
0.0325155
0.0243919
0.89668
0.0232991
0.0236396
3.71452
0.205204
0.0358501
0.107975
0.0251333
0.0894364
2.33686
3.09216
2.21216
0.0284419
3.05286
0.0257514
0.0232231
0.026263
3.17986
0.246725
0.253167
0.191617
0.0253911
0.0236836
0.0243906
0.0249618
0.0294336
2.39689
2.25011
0.0314934
3.1708
3.88109
0.496358
5.89238
0.0245082
0.0325652
0.0842489
0.0244957
0.0309556
0.0296597
0.0269269
2.51306
3.11506
0.0232868
0.0424128
0.0324441
0.0731087
3.44866
2.35571
3.54174
0.0245485
0.0874717
3.41064
0.0863825
0.124046
0.220877
2.617
3.75631
3.5172
0.0232713
2.62487
0.0229839
0.025957
0.0243927
0.0645882
3.69821
6.65279
0.491005
2.99995
0.0605487
0.0228463
0.0237188
0.0245899
0.0258529
0.0466925
3.61243
3.38315
0.0816058
0.131421
0.0246575
0.0601763
0.0235124
3.12735
0.0741669
0.0244732
0.149311
0.108512
1.96237
3.65725
0.136984
3.91059
0.0276456
3.00983
0.236821
3.19114
0.293872
0.0256492
0.0596991
0.0245583
2.94524
2.56135
0.043025
2.98147
0.24082
2.34688
0.0709669
0.19636
0.0441598
0.0238317
0.129025
0.0618595
0.0271215
0.059319
0.0337229
0.0352784
2.0935
0.169607
0.026072
0.033043
0.0391896
0.0347353
0.0255424
2.23552
0.116778
0.104042
4.53733
0.0244582
3.20372
0.0245776
0.0270908
0.0263865
3.14226
0.0403893
3.18474
4.8714
0.0638489
0.0475746
0.126342
1.80831
0.14286
1.12416
0.0268545
0.0484403
0.0236324
3.23049
0.407359
0.0267669
0.0241888
0.0395897
0.0288362
0.0272565
0.0521246
0.0424478
0.0246825
0.0366678
3.22834
2.61493
0.115674
0.0439971
0.0223883
1.85896
0.0351321
0.0684037
0.106703
0.0458386
1.97753
0.0229403
0.0271609
0.0270204
0.0359285
0.0242142
3.34949
0.130564
2.37656
0.0398739
3.21057
0.208926
0.0285953
1.78126
0.0699379
0.201936
2.97439
0.0477136
0.0269727
0.0434033
0.0717705
0.0270067
0.808364
3.82922
0.286958
0.0238373
0.225135
0.96573
1.63082
0.0243084
0.0471601
0.0239194
0.0334224
2.52186
0.0321598
0.0318222
0.0238099
0.0237782
1.8115
3.11935
0.0243336
1.96514
0.196558
0.0228575
0.0295164
3.26602
0.1213
0.109111
0.024448
0.029954
0.109802
0.0243883
0.0239815
2.82216
0.0321348
3.31333
0.0882008
0.0290372
3.71054
0.125027
0.168652
0.0238693
0.376745
0.0328697
0.0294513
1.44145
0.043199
0.0245853
0.0889438
0.0274066
0.0277859
0.0227915
0.908275
0.0244129
0.0681393
2.2535
0.106467
0.0236238
0.64276
0.0335932
4.08691
0.213274
3.49688
0.114228
3.08147
0.0235595
0.0809504
0.0283854
0.0241276
0.335969
2.37841
0.0279247
0.0845936
0.0283501
0.0764465
3.5596
0.0289038
0.353424
0.242797
3.21916
1.90574
0.139632
0.0368309
0.0235971
0.0704987
0.0381572
0.475316
1.87789
3.11305
2.3935
3.27517
0.0237479
0.231703
0.0244941
0.0254959
0.0246384
0.422616
0.160012
0.0795174
0.0239747
9.5844
0.0301704
3.66592
0.0235783
0.0646714
0.0331485
0.0739259
0.0451547
0.109876
0.0258658
0.162864
0.138753
0.0238974
2.39632
0.200123
0.0525004
0.0256806
0.0328155
0.0245849
0.0239714
0.0684147
0.0298524
2.39108
0.197132
0.0897009
0.0969868
0.0238184
1.28562
0.0683955
2.40517
0.0332862
0.0337918
0.359939
0.0342919
0.0433742
0.0741992
4.39195
0.0264016
0.0246676
3.02005
0.0345883
0.0266264
0.0301207
0.0328807
0.0232045
0.0293546
3.21804
0.0242395
0.0451386
3.27041
0.119941
0.0757991
0.335065
1.28353
3.36494
2.87393
1.49788
0.0589217
1.25706
0.0257471
0.0277714
0.0245701
0.0239365
2.02746
0.431153
0.0347215
0.0235765
0.117001
0.0943892
0.0239338
0.0463079
0.0561877
0.0242312
0.0260282
1.56038
0.0294301
0.0401363
0.0396223
0.0240632
0.0849518
0.0686949
0.0324675
0.986798
0.0816555
1.72127
0.134953
2.97943
0.0261193
2.90398
0.168718
0.154895
0.0702211
1.93304
0.0788826
0.0292484
0.0524172
0.0707866
0.0264957
0.0728825
0.0240448
0.0242986
0.0226679
0.0273989
3.29801
0.0230973
0.110431
0.0272237
0.0266976
0.0271797
0.874621
0.0263854
0.0651325
0.0246032
0.0273047
0.0278645
0.0234735
0.113103
0.0265815
0.0232415
0.0253966
0.0317127
0.0236536
1.95929
0.030083
3.05955
0.141267
2.77006
0.0632473
0.073202
0.0391054
0.0431509
0.0303407
0.0280459
1.71705
2.97522
0.138802
0.0648593
0.0344671
0.0240363
2.46576
0.0425849
3.26266
0.0242987
1.01322
0.151202
1.4252
1.44623
0.0227574
0.0245119
0.0230435
0.0318319
3.03121
0.0502939
1.02851
0.0287539
0.0318542
0.0239379
0.0249526
0.0366456
0.0266388
0.0269256
0.0235896
0.271884
0.161862
3.23136
0.0273415
0.954008
0.0234426
0.0229061
0.110943
0.0250233
0.0271144
0.0687215
0.027113
0.072893
0.0245203
0.0289629
0.0246368
0.0274236
3.18423
0.023972
0.026568
0.0256856
0.0268204
0.785907
0.0248895
0.0525268
1.48858
0.0275527
0.0325413
0.0255228
0.0260378
0.0248751
0.140101
0.0245071
0.0292886
2.83463
0.0236627
0.0321256
0.0528352
0.062655
2.81034
0.0227326
0.0267471
0.0250653
0.0331212
0.105623
0.156569
3.31864
0.0229741
0.0309477
0.0779204
0.0263544
2.44034
0.022608
0.0246707
1.96172
0.0431189
0.026671
0.022666
0.121958
0.131414
2.28138
0.0246739
0.19012
0.0226402
0.0233605
0.0265279
0.0815442
3.74012
0.024608
0.023835
0.148562
0.0245214
0.0262754
0.506603
3.11294
0.0244957
0.0232511
0.0249128
0.0342298
0.21616
3.30841
0.0249502
0.111358
0.0240435
0.0244101
2.4662
0.0259452
0.0248563
0.0331904
0.229188
0.139577
0.0263656
0.0252708
2.53212
0.0433421
0.0254589
0.131543
3.09969
0.0245505
0.0248268
0.0262155
0.024446
0.0245357
0.0236187
0.0228799
0.0420691
0.0261309
0.047568
0.0504167
2.00862
0.709338
0.033738
0.0227119
0.0243594
0.0253046
0.0261915
0.0432438
0.0317885
1.88262
0.0265885
0.0879546
0.027156
3.86377
2.01322
0.0314076
0.0255106
0.129133
0.0268211
0.0293109
0.0244768
0.0254144
0.024116
0.135398
0.0462058
0.0519891
0.112022
0.0262063
0.0281005
0.025344
3.35452
2.26606
0.401119
0.0298613
0.0981348
0.0895604
2.93318
0.0250465
0.716655
0.0687202
0.0244832
0.0249191
2.17098
0.0245757
0.0254635
0.0262968
1.18068
0.0245674
0.0248525
0.0283224
2.17614
0.0238337
0.0542716
1.11684
0.0265987
0.0246024
0.0241076
0.0245127
0.0248837
0.0248123
0.0388912
0.0253476
0.0245755
0.0248181
0.0248349
0.0314815
0.0244417
0.284631
0.0246645
0.0248076
0.040656
0.0677064
0.0278583
2.2547
1.12639
3.40014
0.0400705
0.0236195
0.0413655
2.4144
0.0228611
0.377426
0.0263005
1.07947
0.0261998
0.045829
0.0248796
0.024473
0.120764
0.226333
1.65891
0.22863
3.39784
0.0248423
0.0236693
2.2849
0.0228318
0.0245845
3.21466
0.0239851
1.96358
0.0245374
0.185986
0.112606
0.0267424
0.0964875
0.0292616
0.0805749
1.16652
1.30393
1.35073
2.6086
0.301035
2.36404
0.0246335
2.29721
0.0245283
0.0243722
0.0237846
0.0249758
1.06981
0.0254809
3.19595
0.0245635
0.0244664
0.0246832
0.0824729
0.0243856
0.0231404
0.0575385
0.0280925
0.0289533
0.0280966
0.031193
0.267966
2.37359
0.951082
0.117126
0.10329
0.0254527
1.15503
0.0245588
0.0313076
0.0775233
2.62668
0.0459607
3.44161
0.0245432
0.745898
2.40789
0.154699
3.40499
0.256565
0.026557
0.024383
0.026913
0.0245143
0.024367
2.73819
2.7442
0.0240221
1.75964
0.024515
0.113112
0.0239192
0.219454
0.0297392
0.0264248
0.0232183
0.101514
1.14969
0.341134
0.0234419
0.0235546
0.0293132
0.0248949
0.0253318
1.23439
0.432438
0.0493274
1.78888
0.0460409
0.0249037
0.0337834
0.0827011
0.0249766
3.06505
0.0586754
0.389364
0.0260549
0.0271411
0.0229538
0.0222111
0.0244502
0.0292903
0.0236988
2.03325
0.0418497
0.157481
0.0242965
0.0443089
0.0244906
0.290881
0.0431502
0.0578189
3.08261
0.0287607
0.0243945
0.0277908
0.0249186
2.5608
0.118227
0.0446184
0.0582862
3.48626
2.48848
0.114727
0.0529446
0.0244784
0.0260305
0.0262441
0.0697137
0.841228
0.029108
0.024619
0.490894
0.392618
0.0248537
0.0263475
0.0589835
0.0253619
0.0238677
0.0427634
0.0244003
0.0249817
0.0238782
0.0265376
0.0251318
0.0496031
1.97889
0.0245759
0.611099
0.103299
0.113713
0.0238712
0.0242473
0.0436426
0.0288604
0.0245367
0.0819028
0.0243958
0.0535139
0.024662
0.0441869
1.73648
0.0574333
0.0256091
0.0626244
1.03797
1.09455
0.0245332
0.0382734
2.63804
0.0240651
0.02511
0.0817069
8.21379
3.30729
0.0267661
0.0243747
0.0500066
0.0241537
0.0254187
0.030566
0.02485
3.52741
0.0248969
0.98352
0.0245018
0.024581
0.0537472
0.024453
0.0246461
0.0306659
0.791027
0.0233971
0.0364556
0.0249716
0.0240207
0.0244598
0.0308943
0.0285909
0.0731618
0.0261272
0.0248397
0.0249286
0.040992
0.025479
3.34785
0.0251034
0.114589
0.0361731
0.0255896
0.0303846
1.06974
0.024585
0.0251495
0.0226302
0.0825063
0.330881
0.0243264
0.0386532
0.0238544
0.0376677
0.0245613
0.202822
1.43822
0.0264983
0.0280625
0.0298353
0.0533607
0.0248527
0.023627
0.0503055