/*--------------------------------*- C++ -*----------------------------------*\
| =========                 |                                                 |
| \\      /  F ield         | OpenFOAM: The Open Source CFD Toolbox           |
|  \\    /   O peration     | Version:  v2012                                 |
|   \\  /    A nd           | Website:  www.openfoam.com                      |
|    \\/     M anipulation  |                                                 |
\*---------------------------------------------------------------------------*/
FoamFile
{
    version     2.0;
    format      ascii;
    class       volScalarField;
    location    "300";
    object      omega;
}
// * * * * * * * * * * * * * * * * * * * * * * * * * * * * * * * * * * * * * //

dimensions      [0 0 -1 0 0 0 0];


internalField   nonuniform List<scalar> 
13851
(
0.0263094
1.38568
0.0824715
0.0260155
0.0835477
0.052628
0.0247356
0.0489212
0.0234675
0.0949992
0.280507
1.93765
2.69321
2.47638
0.0244944
0.0357984
0.0276224
0.0308345
1.14643
0.0234674
0.025862
0.0804411
0.0240317
0.0249402
0.0242592
0.0496801
0.0269943
7.57943
0.0261443
0.0269365
0.0963934
0.0279167
0.0792181
0.402101
0.0249141
0.190268
0.794
0.178808
0.105371
0.421042
0.0242916
0.0223223
4.50801
0.273087
0.281243
5.16439
0.271027
0.678686
0.0272008
0.185433
0.0767119
0.14004
3.13919
0.0246367
0.025369
0.022322
0.0238705
1.95911
0.0267309
0.0247583
0.159845
2.50875
0.056733
0.0968196
0.132745
0.0278011
2.16141
0.256058
0.0363052
0.0306284
7.36593
3.06775
1.27722
0.0247482
0.0239759
0.0236796
0.0770409
5.29735
0.0497965
6.72782
0.0249451
0.249011
0.024413
4.04247
0.0608474
2.00835
0.0468525
1.59329
0.0280998
0.0234832
0.191041
0.0344117
0.251443
0.0302551
0.0278816
0.0246783
0.0856573
2.70337
0.265267
0.0247148
2.44762
0.053178
0.0251475
0.0267516
0.0237146
0.047158
0.0588979
0.0222116
3.554
0.0613062
0.0249962
0.0235504
0.0327587
0.0255859
0.0249759
0.797945
2.75736
0.0222561
0.0255493
0.025714
4.98647
0.0266339
2.72167
0.444023
0.641244
0.0244017
0.518225
0.0515668
0.0256862
0.139785
0.0242723
0.023585
5.96311
0.024416
0.796017
0.0237482
0.0222695
2.99006
2.55528
2.322
2.40794
0.0253584
0.0252951
0.0226601
0.0261378
0.265959
0.0330027
0.138769
0.024718
0.284646
0.0799758
0.0253183
2.55639
0.0239018
0.0258405
0.0260484
0.0239142
0.0259769
0.139424
0.0756194
0.022301
0.030213
1.97916
0.0235643
0.0304711
0.0224943
0.0369899
0.0367718
0.0255695
3.40862
6.54257
0.0231488
0.0239348
2.38772
0.0235571
0.706623
0.0499443
0.0252883
1.40153
0.0222206
0.0286593
3.20068
0.0244191
0.0858774
0.022239
0.0242041
0.0279683
0.0247717
0.0943099
0.0874627
0.260511
2.4986
0.0237471
0.036423
2.51756
0.0257056
0.0250596
0.387754
0.0251002
0.0237116
0.0245323
4.73586
0.0264783
0.0242732
0.0728686
0.024431
2.73811
0.027756
3.09389
0.0222253
3.38881
0.0250635
0.381246
0.0221711
0.0225773
0.285898
0.0577025
4.52551
0.0244265
3.04205
0.027916
0.0249853
3.08116
0.134725
3.37605
0.0243938
0.0321837
0.0239276
2.12445
0.0221672
0.0483014
0.274548
0.023143
0.0236628
0.0685412
0.045676
2.83041
0.14143
0.0226392
0.0242879
0.0854238
0.417685
0.0226919
0.0787894
0.0232337
3.17316
0.0545129
0.435034
0.0261316
0.0285106
0.0301362
0.416065
0.0249472
0.0262186
0.0547868
0.430686
0.0845446
3.03383
23.304
0.0245365
0.0225981
0.029675
0.771183
0.023045
2.29109
0.025694
0.024915
0.029779
3.1107
0.0681991
0.0300675
0.0258335
0.290553
0.0471778
0.034922
0.0235943
0.25041
0.0931143
3.62447
0.282483
0.0226913
0.0221841
0.0236214
0.0524048
0.793674
0.687484
0.0235825
0.024554
0.39614
0.257642
0.167824
0.0264504
0.0247636
0.0387636
0.253829
2.09768
0.0298868
1.99154
0.023618
3.2096
0.0298486
0.0274912
3.59186
0.0246294
0.0517544
3.07589
0.0235626
0.0455842
0.0303811
0.0262591
2.77795
0.0300721
0.024887
2.96203
0.0223737
0.0287484
0.0257171
3.71055
0.128598
0.0244252
0.0548968
0.0244689
10.5128
0.0327936
0.0239867
0.0241512
0.12557
0.031504
0.0257671
0.0245587
0.0246092
0.0248473
0.278936
3.26298
2.81878
0.0334174
3.67432
2.58632
0.0244482
0.0370741
0.169019
0.0389739
0.0602028
0.122849
1.28626
0.0276344
0.778221
3.13383
0.0245083
0.165723
0.181903
1.41505
0.0257587
0.0652975
2.09526
0.0239647
0.771574
0.0241369
0.0244866
0.0230892
0.0222088
0.0238599
3.20987
0.317118
0.0243943
0.0438608
0.0224193
1.88707
0.0419116
0.663606
3.05804
0.0244045
0.0628409
0.0304902
0.669901
0.0241942
0.0222776
0.0308218
2.66018
0.0243431
2.79366
0.0381738
0.131132
5.27795
0.280263
0.278013
0.0284984
0.0236694
0.0251259
0.0321903
0.0542605
2.67962
0.0367673
3.46146
3.10683
0.0224337
0.024545
3.04768
5.03235
0.219537
2.82843
0.0313655
0.0310911
0.0246673
2.54296
0.0232912
0.03512
0.0278306
0.0246561
0.0237732
0.0235349
0.0224798
0.0941913
0.0543302
6.5644
0.0310888
0.058099
0.0353833
0.416637
0.0294219
1.58398
0.0272527
0.282142
0.0222532
0.023516
0.0244521
0.417161
0.367829
0.130007
0.0343985
9.00121
0.37588
0.044267
0.0259851
0.0700708
0.0241723
0.415807
0.0236908
2.38436
0.410705
0.0738901
3.22095
0.0253741
0.0686564
0.405495
3.21191
0.0221501
0.0324792
0.0511208
0.0761109
0.0232462
0.0248553
0.0749373
0.130508
0.0352115
1.60021
0.0242907
0.0242125
2.37471
0.0312861
0.0221685
1.59464
0.0236575
0.0262908
0.0233503
0.0432704
0.0256366
0.0222078
0.0252015
2.97785
0.024425
0.0389273
0.0236867
0.03154
0.167405
0.025715
0.0242302
0.0255962
0.02558
0.712702
0.0248985
0.0470417
0.0244198
0.0244062
2.40329
3.381
0.024462
0.032322
0.0295823
0.415589
4.00845
0.0242302
0.302921
0.0242222
0.0835947
0.0246902
2.43428
0.0223137
3.75275
0.0832214
0.0223382
0.0322209
2.78665
0.0495125
0.306991
0.0254258
0.463957
0.0257508
0.0234864
0.0235968
0.0246746
4.00728
0.0688331
0.138036
1.22753
0.0537546
0.0223452
2.73818
0.371221
0.0288169
0.030418
0.416936
0.404028
3.43279
0.0254038
2.49696
5.16425
4.85626
0.0308202
0.0330142
0.515884
0.0802302
0.331811
0.387501
2.53033
0.0261402
2.57111
3.11431
0.0222532
0.0757637
0.0706254
4.19665
0.0263017
0.0242646
0.0238892
0.0242582
0.0925352
0.0417547
1.37076
1.5271
0.023573
2.61863
3.14521
0.309164
0.387647
0.0383039
0.0221404
0.0234893
0.0852815
2.78018
0.025921
0.0954977
0.187143
0.0223076
0.0399579
0.317042
0.319066
0.121717
3.77526
3.14339
0.0242436
0.0246713
1.49111
3.06273
0.136171
0.0366114
0.0668681
0.0222216
0.0240996
2.40697
0.0222859
0.0262118
0.0222044
0.0236955
3.13516
0.0927876
0.0324363
0.0222736
2.92914
0.361161
0.0236567
0.0236058
0.0230948
0.0250325
2.63917
0.420712
0.414748
4.59364
0.508065
0.0349192
5.76063
3.27302
0.0280461
0.0367775
0.0221329
0.0254039
0.0372092
2.97478
0.793284
0.0940127
0.0314011
0.0234255
0.0354138
0.025143
0.303717
0.0764729
0.0244109
0.0343086
0.0232494
0.02954
0.134511
0.02473
0.0241477
0.0419941
0.0246835
0.0847347
0.298294
0.128775
0.0359161
0.140812
0.0234147
0.1223
0.0311295
4.64515
0.0249961
0.0247564
3.46048
0.0263979
6.25373
3.11019
3.56184
1.59009
0.0232923
3.26019
0.0228416
0.0236828
0.0223006
0.0237026
0.0247319
0.0318405
0.0411135
0.0222558
2.56421
0.0856708
2.58132
0.0238121
0.0223958
0.0234449
0.165065
2.53118
0.0561267
0.0298122
0.0228909
0.0244946
0.0242787
0.0239598
0.232021
1.81302
0.0246593
0.0222417
0.0246891
0.0239577
1.94329
2.18597
0.0360149
2.64105
0.411271
0.0241298
0.136516
2.91743
0.0382174
1.98232
0.0249271
0.0299265
0.0550631
0.0301958
0.354554
0.0244488
0.461353
0.0237115
0.0330121
3.02669
0.0237494
0.0258552
0.0610749
0.0234932
0.0282136
0.682322
2.7314
0.0745148
1.89633
0.287552
0.0221885
0.0237906
2.52298
0.179765
0.0489677
3.14395
0.023314
0.0271227
0.022272
0.532579
2.16373
0.0284257
0.0248047
0.198021
0.027125
0.0234099
2.63307
0.710844
2.85972
0.0223564
0.0246522
5.36043
3.7188
0.162282
0.0249291
3.45076
0.0244314
0.268047
0.144974
0.0789344
0.0277714
3.78331
0.0293829
0.0256162
0.678072
0.0246392
0.0264658
0.0257698
0.0233909
2.49718
0.0344026
0.123002
0.0319248
0.128409
0.0234507
0.694299
0.0253152
0.0295012
0.0225045
0.0240907
0.0243001
3.03585
0.0238794
0.0223205
0.277055
0.0246915
3.96772
0.0239675
0.0251767
0.0740903
2.05427
0.352287
0.0236772
0.0948261
2.64642
0.0249295
3.23828
0.0327198
0.0233597
0.0324274
3.5252
0.104961
0.0286863
0.0236741
0.022227
0.393928
0.0882755
0.0602001
0.02945
0.0322275
0.0251404
0.0250361
0.0946002
0.317906
0.0920899
0.798764
0.0246318
0.0848977
0.0889831
3.76415
0.0282561
2.03939
0.788155
0.0247082
6.70203
0.10646
2.56911
2.87812
2.90194
0.328679
0.0433905
0.0233816
0.0315446
1.9887
5.03352
0.0240659
0.0244607
0.0707761
0.229624
0.0223687
2.94237
0.0232917
0.0244185
2.39599
5.27729
0.290408
0.0236668
0.0245047
3.08202
0.220534
0.127096
0.0263513
2.58512
0.324922
2.54855
0.0580508
0.0430303
0.0248871
0.0246823
1.19334
0.0523715
5.7659
0.0323463
0.03629
2.58015
2.54817
3.46944
0.0245214
0.0334354
0.0236392
0.0365839
0.0257705
1.77439
0.0271491
3.12312
0.0223677
0.072548
0.0241147
0.163933
0.0354951
0.0330351
2.67773
0.045833
0.0455732
0.0250728
0.0724009
0.693453
0.0778988
0.02629
6.50163
0.0229813
3.04002
0.313742
0.0246684
3.35922
2.57712
3.62857
0.330218
0.0315439
0.0240689
2.8749
0.0272355
0.766899
3.10326
0.0238256
0.0256881
0.367434
0.330267
1.83442
0.0246123
0.0234923
1.30493
3.05406
0.122259
0.028253
0.0257573
0.305488
2.67776
0.0920884
0.0223272
0.0439144
0.0235143
0.0259976
0.241832
0.0248018
2.37849
0.415349
0.0244248
0.0254627
0.0240909
0.0258275
5.93691
2.77548
0.0320806
2.14304
0.024115
0.0321034
0.0240212
0.0235345
0.0245798
0.0244071
3.9424
0.0244624
0.0551367
0.0245229
0.0288618
0.254423
3.33586
0.0254412
1.51787
0.0630334
1.4665
0.035146
0.0355222
7.7151
0.0295519
0.0428908
1.7705
0.51881
3.06787
0.0428648
0.284144
0.024903
0.0437469
0.0544872
1.88774
0.0240918
2.08451
0.0237703
0.0238321
2.55889
0.0240425
2.3668
0.0280241
0.0236175
0.0376734
0.0236381
0.0245132
0.0232081
0.0248842
0.205254
0.0238449
0.200106
2.4769
0.0649579
2.50311
0.0246626
0.0253479
0.0270531
0.0242672
0.0236127
0.0847406
0.0250041
0.0236538
0.0248599
0.0243009
3.86497
1.84901
0.0695049
2.81238
0.298863
0.0240889
0.521116
0.0312043
0.0238399
0.28668
0.13417
0.368144
0.0240368
0.274014
0.321057
2.24194
0.0231902
2.68241
0.0336419
0.0268753
0.0234209
0.0233288
2.65587
0.0904665
0.685565
0.0236959
0.0243645
0.386584
0.0246888
1.94702
0.320879
0.97201
1.48112
0.28704
0.0243646
0.0243413
0.0634008
0.0318952
0.0267399
0.169194
0.0446975
0.0250369
0.0256371
1.9615
0.0236684
3.69257
2.37456
0.746772
0.196056
0.0253559
0.0228003
0.0246785
0.305205
0.386383
0.023188
0.0259712
0.0236646
0.0824155
0.0224521
0.0236283
0.0250167
0.0353956
1.55082
0.0442999
0.0340234
0.0243518
0.0553246
2.45131
0.0252981
7.51235
2.36237
0.0859984
0.0225743
0.0468265
0.0242547
0.0240231
0.024617
5.1516
0.128539
0.345444
0.0268111
0.236844
0.0243237
0.0238425
0.0246246
0.536829
0.143802
0.0222862
0.0349962
0.0583669
3.50464
0.025686
1.54526
0.0248108
2.70592
0.0816422
3.28759
0.096188
0.0847311
0.405323
3.06689
0.288707
3.82609
0.0238117
0.188445
0.0224361
0.0263841
0.0289163
0.0246744
3.12046
0.032217
0.0301716
0.316742
0.190771
0.709821
0.024446
0.0265273
0.0288621
0.0228758
0.0326638
1.38869
0.550807
1.09463
0.0238987
0.0296167
0.0266984
0.365821
2.8914
0.062502
0.0227777
0.0249456
2.68139
0.0481736
2.5152
2.66581
0.0383285
0.0225535
2.81566
0.032004
0.0464104
0.0311103
3.2972
0.310405
0.12768
0.10476
0.0252173
0.0301581
0.0244317
3.36388
0.0504737
3.20933
0.232584
0.0287345
0.154177
0.025658
3.335
0.297163
0.0234597
0.389126
2.98823
0.521978
3.39758
0.0246099
0.0243645
5.65923
2.519
2.51534
0.0256802
0.0246811
0.0244139
3.76244
0.149587
0.0248616
0.26289
0.0929495
2.80021
2.73712
0.666723
0.0245172
3.37093
0.0274486
0.0242081
0.147653
2.52044
0.0247404
0.023756
3.98409
3.27331
0.0241187
0.0238778
2.10357
0.0233384
0.0936866
0.0239013
0.335845
0.0243535
0.0560474
1.0992
2.94208
0.0255003
3.63795
0.411765
2.56742
2.30081
2.63157
0.036322
0.024165
2.27877
0.0257296
0.0244683
0.0228482
0.411995
0.0241091
0.541849
0.0237757
0.025784
5.20441
0.0705155
2.35596
0.0257944
0.0327013
0.0235898
0.0350636
2.92931
2.38707
0.0237107
0.0706774
0.324705
0.024587
0.0233355
2.93904
0.0368446
0.0374721
0.136923
2.35904
0.157065
2.73912
3.34097
0.0388147
0.284678
0.376581
0.811177
0.0705913
0.0226556
0.13456
0.0241479
0.0240825
1.93195
2.97839
0.026006
3.21134
0.167652
3.97363
0.273139
0.0833706
0.0242121
0.2161
0.115077
0.0236833
0.0255897
3.13788
2.80123
1.55371
3.36155
0.0408058
3.156
3.23384
0.0344994
0.0247146
0.0239672
0.250447
0.0239548
0.258864
0.0252999
0.0251138
0.0261801
2.56355
3.68223
2.58669
0.0248232
2.89929
0.0278827
0.0321571
0.0239465
0.0234507
1.95313
0.0298406
3.28883
1.17503
0.198123
0.122927
0.0245908
0.042682
0.0246157
0.149585
0.0251442
0.0257167
0.0247462
0.0252529
0.167669
0.0251717
0.0373098
0.0237373
0.0379164
0.153441
5.82063
0.0239708
0.0509932
0.0241127
0.0725592
0.0264272
2.6504
0.212513
0.0342043
0.0266429
0.0254512
0.294008
0.0242342
0.128911
0.0245336
0.0237469
0.0249386
2.95162
0.029702
0.0273367
0.0314856
0.0241324
0.0683729
2.8629
2.11996
0.0382534
0.0244443
0.0750926
0.0226846
0.0238592
0.193717
3.10438
0.0238482
0.0330885
0.0966515
2.98215
0.0249064
0.0250922
3.14307
0.0255685
0.123603
0.317641
3.78805
0.0243652
0.0287863
0.0242765
3.32008
0.139802
0.0443489
0.1256
2.68115
0.0254394
3.65614
2.53433
0.024566
2.61376
0.0861114
0.0253865
1.97933
0.0246225
0.0241004
0.0232682
0.191029
0.181058
0.174492
0.0257377
0.0253556
0.0327474
0.353309
0.555826
3.64645
0.332194
0.0250845
0.140329
0.136817
2.34509
0.0788603
0.232523
0.0239733
0.0313161
0.023349
0.331865
0.0390666
0.0242685
1.94988
0.205554
0.0350125
0.0284679
0.0222251
0.0240333
0.0560283
0.0367797
0.412892
0.0706818
0.0706215
0.0624897
0.121985
2.50627
0.069057
3.577
0.0239806
0.0236716
0.188031
2.93726
2.68399
0.0697824
0.0252208
5.59307
0.326704
0.0237886
0.0290932
0.0237414
0.0438847
0.074572
0.038398
2.45082
0.46373
0.0256357
2.55448
6.57928
0.0245153
0.0832376
2.4791
2.40743
0.0267035
0.0795535
0.0221583
0.0260281
0.0236596
0.0280816
3.52147
2.67598
2.36242
4.17789
0.0256254
0.0365101
0.0563025
0.0235855
0.0248099
0.0233439
3.00212
0.0239066
3.45601
0.0389366
0.0511338
0.167893
0.213909
4.74312
3.06204
0.0430946
0.0224499
0.0253587
2.9147
2.23816
0.0275975
0.0236958
0.0233215
0.0668726
0.0330013
0.153977
2.68442
0.0255998
0.0232883
0.129586
0.0648019
6.34496
0.963523
0.0238914
0.0763825
0.0245128
3.54473
0.0226045
3.15492
0.0235388
0.0255392
0.0332205
0.0250293
0.0651581
0.0326249
0.0499526
2.07618
2.80545
0.0280397
0.0325623
0.0242059
2.99473
2.34201
0.0245106
0.0226774
0.315952
0.0222253
3.88612
0.0239407
0.036146
0.0735888
0.916307
0.0404943
0.0255222
0.0247139
0.0745502
3.19066
0.0241648
0.24275
3.18409
1.00639
0.686311
0.0359715
3.65954
0.0282727
0.479143
0.0243266
0.337149
0.333564
2.60672
2.81503
2.51351
0.0241066
0.0436115
0.0237403
8.26527
0.280294
3.05324
2.01571
0.0296928
2.5728
0.809322
0.0372217
0.0256705
0.0247169
3.38006
0.0284069
0.0740704
0.0259973
0.024632
0.0235366
0.0245864
2.71409
0.19403
0.0337406
2.75888
2.36327
0.023805
0.0243635
0.023309
0.0303718
3.13868
0.220595
0.0283337
0.0272464
0.116059
0.0817059
0.0471607
3.98604
0.0329399
3.45915
0.0329561
0.0317856
0.0243357
0.0259481
0.0745395
0.310783
0.337449
3.17273
0.0742373
3.03072
0.0271157
0.0272459
0.0242915
2.24782
3.06493
0.439021
0.170143
0.0264569
0.0244497
0.0239614
0.0245282
0.023364
3.39363
0.0318703
3.15863
0.0347607
2.61074
2.36429
3.1898
0.0347874
0.0287209
2.42798
0.0414984
0.405484
3.34489
0.0234673
0.241872
0.0299025
3.05969
2.85871
0.0372196
0.309002
0.428976
0.0257002
0.0543268
0.0270692
4.05314
0.31672
0.02686
0.0247058
0.337975
0.932819
0.135773
0.370077
0.134668
0.0309275
0.023952
2.00374
3.11911
0.0819971
0.0335244
2.76889
2.32202
0.0237608
0.0244949
0.027073
3.11847
2.99407
0.0244126
4.27407
0.0251217
0.0239928
0.0246148
5.25508
0.715549
0.0567841
2.78832
0.0258015
0.0256778
0.0239184
3.37309
0.0252006
3.10519
0.0266465
1.50798
0.0249263
0.0241472
0.128197
3.38689
0.30254
0.038257
2.53948
0.022545
0.0245772
0.024506
0.046927
0.0686776
0.0686502
0.038817
3.25787
0.0272272
0.130949
0.11267
2.48707
0.0242851
3.40387
3.07152
0.0279011
0.421683
0.0698766
2.42898
0.0246723
0.0704996
0.0239101
0.399853
7.3912
0.0807879
3.34846
0.0263299
0.0518148
0.0254085
3.94521
0.0225219
0.0237188
0.553862
0.0922582
2.71046
2.89379
0.0683763
0.031228
0.0232502
1.37248
0.0324949
0.0237209
0.153988
0.0230981
0.0459245
0.0244376
1.08451
0.0254803
0.264654
0.319421
0.033039
0.421628
0.057365
3.57398
0.0242673
1.14892
1.7632
0.0235318
0.0244247
0.0258191
0.0249531
0.0419579
0.024128
0.512973
0.0806759
0.270723
0.0778529
0.024475
0.0249362
0.0232304
3.1545
0.0245986
0.0242663
0.255512
0.0268244
1.52678
3.36319
0.0939551
0.0268947
0.0361317
0.0256255
0.0251066
0.0427999
0.0227356
0.0269444
2.13007
3.23407
1.307
0.0255735
2.41595
0.184923
0.0249737
0.199953
3.09623
0.0244326
0.0264817
0.0243835
3.29556
3.23189
0.508161
0.0227164
0.0268907
0.0259365
0.0247025
0.136689
0.0245528
0.14323
2.79
3.50767
0.0234324
0.0268111
0.0264729
3.81684
0.0222101
3.01419
2.05099
0.273208
0.567312
2.77741
2.57195
0.0254896
0.447981
0.53412
0.0254408
0.0232331
0.0237903
3.3249
2.40784
2.71577
0.0239642
3.47899
0.024649
0.172041
0.023164
0.0261195
0.0253758
0.0234231
3.34018
0.0255075
1.8741
2.36417
2.97531
0.0495054
0.0554289
3.24065
3.15208
0.0246151
3.93382
0.0232426
0.0222794
0.0243521
0.0439469
0.0233684
2.11291
0.0319254
0.0506847
0.0398915
2.01795
2.44443
0.0891266
0.0233964
0.0572345
0.0791467
3.44972
0.0243011
0.0223409
0.0258609
2.01672
0.0245294
0.26695
2.04749
0.0439424
0.064238
0.0243399
0.313454
0.0248738
3.16574
0.0229892
2.75152
0.033996
0.0246013
2.08856
2.81312
0.0228952
0.0699746
0.0273754
2.56903
0.0497355
0.132274
0.045987
0.0248686
0.0570108
2.60195
0.0237153
0.0467558
0.0258027
0.0814847
0.0350829
2.0278
3.04537
0.0246136
3.43977
0.0254378
0.0466607
2.89359
2.0643
0.038284
3.0352
0.307827
0.0247205
0.24141
0.137553
0.0335488
0.0254575
2.63274
0.0229264
2.99727
0.0447719
0.115289
0.0244343
0.0330534
3.24899
0.0472496
2.55946
0.0251324
0.0267017
0.091646
2.69955
0.0289055
3.1725
0.784246
2.1826
0.0246194
2.68961
2.25759
3.33781
0.0244909
0.0248275
0.0242338
3.25624
0.0295327
0.323473
0.234351
0.0248874
0.0229436
0.0244523
3.5105
3.09854
2.42477
2.5983
0.023907
2.60395
3.20695
0.138895
2.33049
3.09235
0.0372568
3.44612
0.026331
0.0285551
3.2401
2.69416
0.0247131
3.12706
0.0247268
0.0244778
2.73794
3.10756
3.66507
8.7749
0.0338162
0.0248989
0.0260012
3.33946
2.71528
0.0241825
0.0493395
0.454907
0.0245222
0.0245842
3.03484
2.90259
0.0259596
0.0245386
0.0253672
0.0255232
0.149682
0.0249323
0.0239583
0.0285053
0.136775
3.16942
0.536746
2.53923
0.0246247
0.0275237
2.87382
3.20943
0.030861
0.155407
0.0244078
0.0384428
0.0255386
0.0254574
0.0701759
0.023908
0.794603
0.0352929
0.0236559
0.0272202
2.36795
1.63007
3.60606
0.0245358
0.0272817
3.30436
0.556422
0.0269492
0.0242296
0.0246
0.28562
0.0245975
0.0245675
0.0306291
0.0244081
2.91094
0.140556
0.0248461
0.0270592
0.022654
0.0245524
1.2839
0.549031
0.0748315
2.29837
0.0587317
0.0249627
0.0243825
0.0245933
0.0242026
0.0248336
0.0265131
0.0738176
2.84712
0.0254166
0.116145
3.5066
0.0457299
0.0242153
0.0237411
0.0264385
2.75134
0.0241575
1.76563
0.628776
0.0481869
0.0246994
6.36415
0.0226388
0.154618
0.0230752
0.0226693
0.0245841
0.0235873
0.0373606
2.69874
0.316293
0.0411799
1.97129
0.157735
0.24008
0.0345196
3.12371
2.26408
0.114413
2.61775
3.08414
0.121781
0.265226
0.0249418
0.0233758
1.59688
0.0239558
0.0271473
2.55023
0.111763
1.86535
0.195528
0.0236169
0.0255805
0.0245566
0.110672
0.0231336
0.181309
2.65213
2.92148
0.882625
0.024543
0.0229564
0.0765781
3.18033
2.94729
0.123663
1.64338
0.0237903
2.37688
3.58677
0.0627
0.0266697
0.0245722
0.0225011
0.0261375
0.0244301
0.0242908
0.0269383
2.9189
0.0816134
3.25602
0.29144
1.71854
0.191197
0.0243192
0.02362
0.024714
0.0231954
0.0249103
0.542179
2.53728
0.421248
3.43367
0.0264032
2.63437
0.156241
3.20899
3.2779
0.0245135
0.0235969
0.329115
0.0245291
0.0229078
0.313542
2.92911
2.67812
0.0244621
0.0245929
0.0265777
0.0405558
2.36908
0.0232629
0.0268868
0.753026
0.0229815
0.355322
0.0400323
2.35708
0.0248912
0.426537
3.0608
0.0379701
3.29916
0.119803
3.33544
0.0226328
0.0279494
0.0237182
0.0325064
4.00608
0.0241651
2.03579
0.0245536
0.0243386
0.0245545
3.33151
0.046934
0.118408
0.378456
0.0233498
0.0461448
2.01898
0.0573495
0.0234211
0.0257103
0.0245199
0.0493382
0.0241685
0.0237033
3.42337
3.57153
3.22747
0.830411
0.917543
2.37244
0.0747042
3.5467
0.131634
0.0225737
0.0236297
0.0222422
0.0246501
3.3796
3.32486
0.0229874
2.24808
3.28713
0.0321532
0.0253079
0.0275507
2.60007
2.98353
2.9584
1.37928
2.96727
0.0222362
0.264394
0.106992
0.311778
3.30316
0.0244008
0.137819
2.11314
0.0353161
2.77565
0.0248091
0.18945
2.21597
3.08746
0.0794557
0.0339588
5.27134
0.139237
3.13505
3.16003
2.89179
0.121588
2.63281
0.0246084
0.0274672
0.0499087
4.12225
0.339168
3.45649
0.0248019
0.121984
0.0718135
0.024975
3.12907
0.0244307
0.138207
3.91476
0.0244465
2.43468
2.69894
3.14203
2.63607
1.27643
0.519236
0.0239908
3.41811
0.0244636
0.0235665
0.0440785
0.0267964
3.14037
0.0269912
0.0274531
0.0270341
0.0235913
2.51161
0.0258875
0.12502
0.192741
0.0234463
3.74282
0.107129
0.0254256
2.15356
0.285475
0.0244332
0.645741
0.0251308
3.27117
0.290918
0.0230132
0.124525
0.0259589
3.49729
3.00967
0.0767779
1.11989
0.0284556
0.0246076
2.57361
0.0269999
0.0242312
2.61223
0.0433306
0.0238012
0.0236458
0.136631
0.0257549
3.84561
0.283553
0.0895937
2.41748
0.0561509
0.0666027
0.0240339
3.53384
6.21433
2.90766
0.0244962
0.0229145
0.0766419
0.0332433
0.335652
0.0242625
0.476387
0.0241071
0.133295
0.0245094
0.110286
0.17284
0.122345
3.57108
1.18898
3.05015
3.00207
0.0222848
1.46532
2.04967
4.53875
0.0237964
0.158419
5.92666
3.08449
0.124076
1.02937
0.793047
3.61032
0.048322
0.244798
0.0234039
0.0503218
0.0454768
0.0243846
0.0742471
2.60128
0.284872
3.07846
2.21348
0.0241737
0.0236987
0.0325132
0.0243919
0.89695
0.0232991
0.0236396
3.7147
0.20487
0.0358532
0.10797
0.0251333
0.0894516
2.33592
3.09195
2.21082
0.0284418
3.05264
0.0257518
0.0232231
0.026263
3.17989
0.246469
0.253378
0.191737
0.0253911
0.0236835
0.0243906
0.0249617
0.0294333
2.39919
2.24635
0.031493
3.17072
3.88183
0.498879
5.8967
0.0245082
0.0325648
0.0847119
0.0244957
0.0310189
0.0296594
0.0269267
2.51179
3.11485
0.0232868
0.0424127
0.0324437
0.0731143
3.44674
2.35486
3.54172
0.0245485
0.0874748
3.41051
0.0863845
0.124052
0.223708
2.61567
3.75639
3.51725
0.0232713
2.62424
0.0229839
0.0259568
0.0243928
0.064588
3.69828
6.65355
0.490193
2.98746
0.060548
0.0228463
0.0237188
0.0245899
0.0258529
0.0466912
3.61248
3.38314
0.081608
0.133352
0.0246574
0.0601765
0.0235124
3.12716
0.0741054
0.0244732
0.149313
0.108511
1.96591
3.65716
0.136968
3.91701
0.0276456
3.01157
0.236868
3.1909
0.292859
0.0256495
0.0597003
0.0245583
2.94521
2.56146
0.0430243
2.9811
0.240723
2.35184
0.0709674
0.197324
0.044158
0.0238317
0.129031
0.0618604
0.0271214
0.0593209
0.0337224
0.0352778
2.09433
0.169595
0.0260722
0.0330424
0.0391889
0.0347344
0.025542
2.23402
0.116776
0.102141
4.51048
0.0244582
3.20354
0.0245776
0.0270902
0.0263867
3.14208
0.0403873
3.18465
4.88396
0.0638504
0.0476026
0.126345
1.808
0.142866
1.12445
0.0268545
0.0484401
0.0236323
3.23033
0.40611
0.0267669
0.0241888
0.0395876
0.0288359
0.0272566
0.0521245
0.0424473
0.0246825
0.0366665
3.23765
2.61691
0.115589
0.0439958
0.0223883
1.85749
0.0351315
0.0684037
0.107104
0.0458387
1.97917
0.0229403
0.0271609
0.0270198
0.0359274
0.0242142
3.34932
0.131636
2.37539
0.0398712
3.21045
0.209393
0.028595
1.78073
0.0699381
0.202073
2.96019
0.0477139
0.0269726
0.043403
0.0717702
0.0270075
0.808462
3.82908
0.286904
0.0238373
0.225054
0.963338
1.6333
0.0243084
0.0471584
0.0239193
0.0334218
2.52026
0.0321594
0.0318218
0.0238099
0.0237782
1.81598
3.11946
0.0243336
1.96856
0.196742
0.0228575
0.0295311
3.26586
0.12129
0.109111
0.024448
0.0299537
0.10984
0.0243883
0.0239815
2.81879
0.0321345
3.31316
0.0882031
0.029037
3.71058
0.125035
0.168629
0.0238693
0.377855
0.0328694
0.029451
1.44182
0.0431979
0.0245853
0.0889549
0.0274064
0.0277874
0.0227915
0.893718
0.0244129
0.0681105
2.25151
0.106464
0.0236238
0.642927
0.0335927
4.08636
0.213036
3.49682
0.114224
3.08124
0.0235595
0.0809469
0.0283852
0.0241276
0.33615
2.38062
0.0279246
0.0845051
0.0283659
0.0764418
3.55951
0.0289036
0.356304
0.245674
3.21125
1.90478
0.140021
0.0369601
0.0235971
0.0704573
0.0381553
0.470726
1.88007
3.11284
2.39254
3.27493
0.0237479
0.228387
0.0244941
0.0254959
0.0246384
0.42196
0.160029
0.0794721
0.0239747
9.57147
0.03017
3.66606
0.0235784
0.0646727
0.033148
0.073928
0.0451551
0.109874
0.0258657
0.162845
0.138857
0.0238974
2.39807
0.200727
0.0525394
0.0256806
0.032815
0.0245849
0.0239713
0.0684152
0.0298984
2.38725
0.197186
0.0897
0.0970852
0.0238194
1.27591
0.0683952
2.40531
0.0332855
0.033791
0.3606
0.0342912
0.0433983
0.0745015
4.39211
0.0264018
0.0246675
3.01993
0.0345878
0.0266263
0.0301187
0.0328801
0.0232045
0.0293545
3.21789
0.0242395
0.0451389
3.27014
0.119942
0.0757969
0.339676
1.29127
3.36489
2.86811
1.49513
0.0589243
1.25707
0.0257472
0.0277714
0.0245701
0.0239365
2.02728
0.430749
0.0347209
0.0235765
0.118023
0.094413
0.0239341
0.0465016
0.056187
0.0242312
0.0260282
1.56315
0.0294299
0.0401361
0.0396207
0.0240629
0.0849533
0.068693
0.0324669
0.992163
0.0816729
1.72655
0.135106
2.98004
0.0261187
2.90897
0.168712
0.154901
0.0702278
1.93144
0.0788821
0.0292485
0.052416
0.0707832
0.0264957
0.0728882
0.0240448
0.0242987
0.022668
0.0273987
3.29783
0.0230973
0.110426
0.027223
0.0266975
0.0271799
0.875879
0.0263853
0.0651361
0.0246032
0.0273048
0.0278645
0.0234734
0.112902
0.0265814
0.0232415
0.0253966
0.0317133
0.0236537
1.96217
0.0300826
3.05833
0.140966
2.77396
0.0632443
0.0731982
0.0392032
0.0431499
0.0303704
0.0280458
1.71721
2.97537
0.138837
0.0648584
0.0344666
0.0240354
2.46766
0.0425809
3.26262
0.0242988
1.01124
0.151207
1.41551
1.44812
0.0227574
0.0245119
0.0230435
0.0318317
3.03132
0.0502841
1.0276
0.0287539
0.031854
0.0239379
0.0249526
0.0366447
0.0266387
0.0269257
0.0235897
0.271741
0.16341
3.23104
0.0273415
0.950271
0.0234426
0.0229061
0.110942
0.0250233
0.0271142
0.0687185
0.027113
0.0728986
0.0245203
0.028982
0.0246368
0.0274237
3.1841
0.023972
0.0265679
0.0256857
0.0268206
0.786636
0.0248895
0.0525251
1.49117
0.0275527
0.0325409
0.0255228
0.0260378
0.0248751
0.140096
0.0245071
0.029289
2.84176
0.0236627
0.032125
0.0528329
0.0626291
2.80715
0.0227327
0.026747
0.0250653
0.0331207
0.105658
0.157968
3.32572
0.0229742
0.0309472
0.0778797
0.0263544
2.43735
0.022608
0.0246707
1.96569
0.0431177
0.0266709
0.0226659
0.121999
0.13151
2.27904
0.0246739
0.191721
0.0226402
0.0233605
0.0265278
0.0815454
3.74023
0.024608
0.023835
0.145557
0.0245214
0.0262753
0.504609
3.11277
0.0244957
0.0232511
0.0249128
0.034229
0.216156
3.30836
0.0249502
0.111363
0.0240435
0.0244102
2.46827
0.0259448
0.0248562
0.0331899
0.229325
0.139583
0.0263655
0.0252708
2.53256
0.0433411
0.0254589
0.131478
3.09137
0.0245505
0.0248268
0.0262154
0.024446
0.0245357
0.0236187
0.0228799
0.0420686
0.0261309
0.0475636
0.0504149
2.00703
0.710889
0.0337373
0.0227119
0.0243595
0.0253045
0.0261914
0.0432426
0.031788
1.88021
0.0265887
0.0878715
0.0271564
3.86316
2.01286
0.0314073
0.0255107
0.129125
0.026821
0.0293135
0.0244768
0.0254144
0.024116
0.135916
0.0462124
0.0519883
0.112027
0.0262065
0.028102
0.025344
3.35445
2.26516
0.402012
0.0298616
0.0980337
0.0894566
2.93298
0.0250464
0.713832
0.0687166
0.0244832
0.0249191
2.16988
0.0245757
0.0254636
0.0262967
1.18051
0.0245674
0.0248525
0.0283213
2.17832
0.0238337
0.0542726
1.11666
0.0265986
0.0246024
0.0241076
0.0245127
0.0248837
0.0248123
0.038971
0.0253476
0.0245755
0.0248181
0.0248349
0.0314811
0.0244417
0.284604
0.0246645
0.0248076
0.0406554
0.0678561
0.0278902
2.25315
1.12561
3.40006
0.0400704
0.0236195
0.0413732
2.41565
0.0228611
0.376706
0.0263005
1.07817
0.0262
0.0458285
0.0248796
0.024473
0.12077
0.226451
1.65898
0.230084
3.39771
0.0248423
0.0236694
2.28363
0.0228318
0.0245844
3.21465
0.0239851
1.96515
0.0245374
0.185995
0.112606
0.0267423
0.0977645
0.0292101
0.0805698
1.16605
1.3029
1.34916
2.61254
0.304534
2.36902
0.0246335
2.29654
0.0245284
0.0243722
0.0237846
0.0249758
1.06778
0.0254809
3.20255
0.0245635
0.0244664
0.0246832
0.0827509
0.0243856
0.0231399
0.057519
0.0280918
0.0289533
0.0280964
0.0311926
0.26821
2.37444
0.956055
0.118698
0.103283
0.0254527
1.15364
0.0245588
0.0313055
0.0775416
2.62557
0.0459775
3.44155
0.0245432
0.746759
2.40943
0.154721
3.40494
0.257128
0.0265569
0.024383
0.0269134
0.0245144
0.024367
2.73678
2.7414
0.0240221
1.75581
0.024515
0.11311
0.0239192
0.218484
0.0297431
0.0264247
0.0232181
0.102434
1.14941
0.342056
0.0234419
0.0235546
0.0293129
0.0248949
0.0253318
1.23106
0.437437
0.0493266
1.78685
0.0460423
0.0249037
0.0337855
0.0824553
0.0249766
3.06487
0.0586746
0.388778
0.0260548
0.027141
0.0229538
0.0222111
0.0244502
0.0292906
0.0236988
2.03239
0.0418497
0.159169
0.0242965
0.0443255
0.0244906
0.294712
0.0431519
0.0578197
3.08267
0.0287611
0.0243945
0.027791
0.0249186
2.57171
0.117854
0.044621
0.0582862
3.4862
2.48727
0.114721
0.0529454
0.0244784
0.0260307
0.026244
0.0699998
0.842004
0.0291078
0.0246191
0.491424
0.391731
0.0248537
0.0263475
0.0589828
0.025362
0.0238677
0.0427756
0.0244003
0.0249817
0.0238782
0.0265375
0.0251318
0.0496071
1.9783
0.0245758
0.608927
0.103294
0.113716
0.0238712
0.0242473
0.0432007
0.0288603
0.0245367
0.0823281
0.0243958
0.0534995
0.024662
0.0441953
1.73673
0.0574348
0.0256091
0.0626292
1.04556
1.09508
0.0245332
0.0382727
2.63982
0.0240651
0.0251102
0.0817097
8.2279
3.30729
0.026766
0.0243747
0.0501136
0.0241536
0.0254187
0.0305656
0.02485
3.52736
0.0248969
0.975717
0.0245018
0.024581
0.0537874
0.024453
0.0246461
0.0306669
0.790987
0.0233971
0.0364805
0.0249716
0.0240208
0.0244598
0.030894
0.0285911
0.0731688
0.0261274
0.0248397
0.0249286
0.0409916
0.025479
3.34775
0.0251034
0.114597
0.0361724
0.0255896
0.0303842
1.06844
0.024585
0.0251495
0.0226302
0.0825783
0.329653
0.0243264
0.0386614
0.0238544
0.0376736
0.0245613
0.203585
1.43783
0.0264985
0.0280627
0.0298348
0.0531009
0.0248528
0.023627
0.0503035
0.0245097
0.0250269