/*--------------------------------*- C++ -*----------------------------------*\
| =========                 |                                                 |
| \\      /  F ield         | OpenFOAM: The Open Source CFD Toolbox           |
|  \\    /   O peration     | Version:  v2012                                 |
|   \\  /    A nd           | Website:  www.openfoam.com                      |
|    \\/     M anipulation  |                                                 |
\*---------------------------------------------------------------------------*/
FoamFile
{
    version     2.0;
    format      ascii;
    class       volScalarField;
    location    "300";
    object      p;
}
// * * * * * * * * * * * * * * * * * * * * * * * * * * * * * * * * * * * * * //

dimensions      [0 2 -2 0 0 0 0];


internalField   nonuniform List<scalar> 
13851
(
9.56979e-05
0.0118894
-0.0168525
6.37988e-05
-0.0411153
0.0101313
-0.0215298
-0.0243346
0.000380765
-0.00810814
-0.00871144
-0.00995513
-0.0757177
-0.0610226
-0.0140262
-0.0138753
-0.0241435
0.000591219
-0.0588051
0.000315637
-0.000190592
-0.0190748
0.000594246
-2.39677e-05
0.000602805
-0.0228102
-0.0349126
-0.0768916
-0.000326021
-0.00705331
0.0105967
-0.0243249
-0.0163938
-0.00751299
-8.6553e-05
-0.0732841
-0.0734967
-0.0166617
-0.00734321
-0.00669804
-0.00479472
0.000400694
-0.104364
-0.00881422
-0.00922465
-0.153067
-0.00766545
-0.0262666
-0.0356857
0.00432955
-0.0571779
-0.0618029
-0.0834368
-0.0137223
-0.00675387
0.00039298
0.000622506
-0.0780982
-0.00711452
-0.021621
-0.0131686
-0.0424499
0.00744601
-0.0453691
0.0152267
0.00153425
-0.0730156
-0.00773222
-0.0446785
0.000907554
-0.0701866
-0.0740822
0.00404364
-0.0138971
-0.00579716
0.000721702
-0.0203774
-0.0845597
-0.0390984
-0.0690633
-0.0228404
-0.00156077
-0.0137117
-0.138013
0.0085915
-0.0134984
0.00757494
-0.0163664
-0.0307183
0.00113723
-0.0729826
0.00172344
-0.00754072
-0.0339006
-0.031435
0.000688531
-0.0427537
-0.100386
0.00356844
0.000703962
-0.0577863
-0.0471065
-0.00400427
-0.0421815
0.000157732
0.00739583
-0.0507174
0.000242411
-0.0739629
0.00894583
0.000297432
0.00113795
0.00161815
1.36429e-05
0.000298657
-0.00353087
-0.0978334
0.00036295
-0.00218695
-0.00600147
-0.105067
-0.0412092
-0.0767541
-0.00943968
-0.0215692
0.000968049
-0.018621
-0.042791
-0.000203478
-0.0395031
-0.00492492
-0.00107453
-0.07144
-0.0138321
-0.00329158
-0.00149065
0.000360634
-0.0737608
-0.0301329
-0.0465393
-0.0637523
-0.00627229
0.00153827
0.000731904
-0.0180382
-0.00669264
-8.76395e-06
-0.0367634
-0.0209944
-0.0106455
-0.0708616
-0.00552449
-0.0564014
0.000680137
-0.026171
-0.0174562
-0.00117063
-0.0097211
-0.0607207
-0.0557376
7.4871e-05
-0.0414616
-0.0799893
-0.000977926
-0.0061055
0.000599322
0.000359799
-0.0460911
-0.000439855
-0.119543
-0.0840571
0.00052802
-0.0012752
-0.0493556
-0.00100286
-0.0266951
-0.0416578
0.00166518
-0.0633222
0.000228053
-0.0236527
-0.0717245
-0.0140899
-0.0195928
2.65672e-05
0.0007631
0.00138539
-0.00596595
-0.0379736
-0.00767063
-0.00684193
-0.0837475
0.00114968
-0.0402872
-0.0353265
-0.024856
0.00148708
-0.00649407
0.00157405
0.000720478
0.00101596
-0.130081
-0.00315346
-0.00987518
-0.00903572
-0.0143344
0.0240367
-0.0262941
-0.0773884
0.000127271
-0.0781861
-0.0042255
-0.0149629
0.000151183
0.000650447
-0.00555808
0.00969147
-0.152239
-0.0139523
-0.0777631
-0.026178
-0.0234862
-0.0882856
-0.0532918
-0.074075
0.000768125
-0.0345857
0.000165392
-0.0939267
0.000134039
-0.0220075
0.0261219
0.000524779
0.00115593
-0.0578213
0.00654236
0.0280047
0.0135329
0.000694499
-0.0101039
0.0110657
-0.0032894
0.000129548
-0.00912611
0.000165306
-0.0759032
-0.046198
-0.0142741
-0.0162564
-0.0171663
0.003272
-0.00559978
-0.0170701
-0.0169395
-0.0564738
-0.0092981
-0.00690345
-0.0747719
-0.0914193
-0.0158829
0.000662544
0.000362817
0.0101023
0.000946303
-0.0552009
-0.0242141
-0.0172435
-0.0339692
-0.0880476
0.000226418
0.00349762
-0.0254926
0.0153044
-0.0390235
-0.0134155
-0.00104186
-0.00217776
0.000522818
-0.0723776
-0.0104665
8.66659e-05
7.67918e-05
9.01694e-05
-0.0561171
0.00731634
-0.024348
0.000487838
-0.0147961
0.0138034
0.00472549
-0.0371075
-0.00780787
-0.0216883
-0.0434062
0.00372591
-0.0607613
-0.00861226
-0.00849732
-0.00106388
-0.0754794
-0.0413335
-0.0230485
-0.073371
-0.00782297
0.00803746
-0.0847665
0.000421809
-0.0522574
-0.0328075
-0.00782326
-0.0227354
-0.00811647
-0.015521
-0.0943
0.000468881
-0.017603
0.000932517
-0.0741203
-0.0717526
-0.0140945
-0.0508649
-0.0146415
-0.0909015
0.00355544
0.000694362
-0.000262655
-0.0710183
-0.0344416
-0.0272486
-0.0147143
-0.00808644
-0.0150859
-0.00961229
-0.0435736
-0.107456
0.00304653
-0.0720879
0.00114226
-0.0138757
-0.0395591
-0.0345423
0.00178408
0.0118682
-0.0617871
-0.0561262
0.00223925
-0.0102383
-0.0805037
-0.0140631
0.0018648
0.00236006
0.0167765
-0.0277851
0.0130724
-0.0924405
-0.00120485
-0.0147656
-0.000201509
-0.0145857
0.000150373
0.000222288
-0.00151218
-0.0802303
-0.00349231
-0.0107849
-0.0518538
0.000488995
-0.00323674
-0.00941674
-0.0121249
-0.114951
-0.010538
0.011417
-0.0307413
-0.0180036
-0.0046043
0.00037699
0.00252349
-0.0498798
-0.00575188
-0.0160903
0.00109254
-0.0629972
-0.132037
0.00156546
0.00116453
0.00271333
-0.0016841
-0.0140259
0.0024756
-0.0520447
-0.0632193
-0.0479193
-0.0759868
-0.0816766
0.000532708
-0.0161848
-0.11649
-0.0703822
0.0257982
-0.0960002
0.00260931
-0.03107
0.0007025
-0.000481484
0.000488388
-0.0149349
0.00264199
-0.0195224
0.000114555
0.000434864
0.000575789
-0.0466964
0.00833113
-0.093177
0.00167218
-0.0515938
0.00475186
-0.0084136
-0.0155465
0.0174685
-0.0227239
-0.00492508
0.000340341
0.000392692
0.000780778
-0.00649509
-0.0104922
-0.048994
0.00459707
-0.0874748
-0.00658814
0.00761483
-0.00561445
-0.0591681
-0.00470608
-0.00733783
0.000264927
0.0181509
-0.0164545
-0.0155638
-0.0786923
0.00164579
0.00182017
-0.0169351
-0.0415717
6.48224e-05
-0.0314602
-0.0402944
0.00032993
0.00043062
-0.0143296
-0.070439
-0.0615017
0.00389178
0.00918092
0.000752668
-0.000125952
-0.111804
-0.00528947
8.19627e-05
-0.0168159
-0.00160813
0.00021059
0.000287157
-0.000862192
-0.00920294
0.000117641
0.00153771
-0.0918664
-0.0138432
-0.0480053
-0.00155118
0.0039638
-0.000318163
-0.000171585
-0.00301366
-2.80605e-05
-0.000101849
-0.0221563
-0.0180825
0.00877902
-0.0142151
0.000712805
-0.0641864
-0.0781417
-0.0149327
0.00409028
-0.0162431
-0.000814845
-0.146634
-0.000202967
-0.00238493
-0.00483666
-0.0340116
-0.0200919
-0.109707
0.00029136
-0.0853807
-0.00550956
0.000427743
0.00371261
-0.10827
-0.0208034
-0.00873951
-0.00233109
-0.00832369
-0.00690147
-0.000606672
-0.000866244
-0.0199909
-0.0714751
-0.0536058
-0.0668502
-0.0721214
0.00803482
0.00010178
-0.0644651
-0.0116953
-0.0246411
-0.0405292
0.00241751
-0.00829619
-0.0765334
-0.0130437
-0.110697
-0.150529
-0.136936
-0.00693565
0.00382104
-0.0145844
0.000980594
-0.0108266
-0.00779661
0.025513
-0.00910387
0.0253154
-0.0746312
0.000305561
0.00113868
-0.0551204
-0.0773856
-0.0155794
-0.0109217
-0.00124602
-0.00715115
-0.0397455
0.0036155
-0.0154788
0.00652948
-0.000526696
-0.108495
-0.0840754
0.00770681
-0.0139742
-0.0466471
4.21596e-05
0.000414771
0.000742049
-0.0710911
-0.0270262
-0.069571
-0.0722336
0.000369516
0.00561035
-0.00958976
0.0108528
-0.0579944
-0.0717845
-0.0755152
-0.00471494
-0.0198962
-0.00913438
-0.0830968
-0.0700702
-0.049008
0.00767443
0.000234558
-0.0069936
0.0223768
0.000349569
-0.0149179
0.000201689
-0.00234611
-0.0742452
-0.0432503
0.00405214
0.000332076
-0.00984382
-0.0057582
-0.001315
0.000745712
0.000955593
-0.0140106
-0.053278
-0.0133208
-0.016539
-0.128917
-0.00920211
-0.0484456
-0.0771361
-0.0761628
0.00220624
-0.0438132
2.4695e-05
0.00082919
-0.0168672
-0.0895756
-0.00489523
-0.0687041
-0.0262687
0.00030328
-0.0117744
0.00152799
-0.00775583
-0.0525284
-0.0140082
0.00344425
0.000390992
-0.035581
-0.0477131
-0.0210485
-0.00448238
-0.0101788
-0.0181127
-0.0396345
-0.00482598
-0.0533171
-0.00995828
-0.0707135
0.000269971
0.0220619
0.00319568
-0.133147
-0.00468849
0.000576254
-0.0752631
-0.00424116
-0.131173
-0.0788144
-0.143369
-0.0141276
0.000448672
-0.0759
0.000107855
-0.00210363
0.000269822
-0.00236257
0.000124408
0.00222563
-0.00113828
0.000317367
0.0223154
-0.00669086
0.0184684
-0.000948326
0.000207777
0.000629313
-0.0312965
-0.019506
-0.0617486
-0.0353389
0.000134631
0.000709679
-0.000578493
-0.000794948
-0.0735488
-0.00454021
-0.0178155
0.00028193
-0.0202537
-0.000936349
0.0121431
-0.0810381
-0.0124578
-0.103048
-0.00691758
-0.00456942
-0.0658489
-0.0429155
-0.0443341
0.000158525
-0.0222252
0.000255201
-0.0607416
0.00107347
-0.0105898
-0.014686
-0.0141503
0.000285909
-0.0557467
-0.0788523
0.000959181
-0.00409463
0.00555829
-0.000583959
-0.0234555
0.00873002
-0.0641116
-0.0509122
-0.0509343
-0.00221836
0.000189559
-0.00102745
-0.071763
-0.0721116
0.007855
-0.078606
0.0007536
-0.0139873
0.000329463
-0.010576
-0.0743285
-0.00924465
-0.00241231
-0.00143185
-0.0323544
0.000606136
-0.108292
-0.0091058
-0.0898569
0.000433587
-0.0180136
-0.0797381
-0.0769804
-0.0728358
0.00145629
-0.0749731
-0.0142092
-0.0038284
-0.00495204
-0.0142023
-0.0178048
-0.148135
0.00271541
0.00179474
-0.0741644
0.00049012
-0.00316177
-0.0091458
0.000302432
-0.11392
-0.019997
-0.0597574
0.00384865
0.000184821
0.000275573
0.00634029
-0.0010287
0.00290532
0.000254526
-0.00444075
-0.0041073
-0.0830448
-0.00142995
0.000459153
-0.00731874
-0.0204255
-0.0802638
0.000412758
0.00147956
-0.0620929
0.0105503
-0.00235382
-0.000261228
0.0102118
-0.0982748
-0.0178452
-0.0830532
-0.0546382
0.000310369
0.00315346
-0.10513
0.00951341
-0.0147429
-0.000555967
0.000274593
-0.0145026
-0.0108644
-0.000840133
-0.00827468
0.00331247
-0.0132839
0.00146966
-0.0722781
-0.00872239
-0.0359157
0.000286288
-0.0177094
-0.0358561
-0.0600762
-0.0726971
-0.00852459
0.00625539
-0.0695467
-0.0208511
-0.137233
0.0193547
-0.0569595
-0.0680101
-0.0920408
-0.00224787
-0.0154767
0.000275596
0.00221359
-0.0792398
-0.135997
4.63873e-05
0.000747875
-0.0573204
0.000148018
0.000494236
-0.0801872
0.000726118
-0.0120739
-0.114028
-0.0808649
-0.00233269
-0.00202801
-0.0145764
-0.0776197
-0.0728372
-0.0695411
0.0018575
-0.102026
0.00866785
-0.0190915
-0.0492602
-0.0504928
-0.0147368
-0.020079
0.00154601
-0.0648885
-0.0707276
0.00289763
-0.04675
-0.116929
-0.0665467
-0.083778
-0.0162339
-0.0486779
-0.00124565
-0.0107397
-0.00385607
0.000294741
-0.0139482
-0.0729482
0.000497933
-0.0612514
-0.00605919
0.00111599
-0.0493436
-0.0472647
-0.101831
-0.055149
0.00051546
-6.63942e-05
-0.0602523
-0.0281466
0.0111998
-0.0136136
-0.081173
0.000921957
-0.0702945
-0.0011561
-0.0133188
-0.0809045
-0.0511992
-0.0810625
-0.00362472
0.00310218
-0.000376402
-0.0906193
-0.0138956
-0.00487041
-0.0761609
-0.00118009
-0.0331628
-0.0112366
-0.0076785
-0.00469359
-0.0156669
0.000679304
0.00551614
-0.0772886
-0.057566
-0.0147121
0.00160773
-0.00240822
-0.123914
-0.0599471
0.00047196
-0.0157801
-0.000747888
-0.00308515
0.000287897
0.000693277
0.0249727
-0.00889783
-0.0118506
0.0015914
-0.000268029
-0.00974383
-0.0729967
-0.111246
-0.0325169
0.00871266
-0.00626879
-0.0303422
-0.000356337
-0.000820952
-0.00948156
-0.0114328
-0.074351
-0.0148602
-0.0595535
-0.016187
-0.0155268
0.000613133
-0.0762587
-0.00214988
-0.0123854
-0.00117819
-0.0742505
-0.0205048
-0.0258956
-0.0699535
-0.0364611
0.00540436
-0.002171
0.00522438
-0.0937727
-0.0281164
-0.00995516
-0.00488266
-0.0542632
-0.0486557
-0.002135
-0.000255104
-0.0339511
-0.000959673
-0.00101885
-0.0638845
0.00108068
-0.066175
-0.0180567
-0.000939202
0.00532216
-0.00112981
-0.0147151
0.000134652
-0.0217611
-0.0737486
-0.00125731
-0.073717
-0.11952
-0.00863759
-0.0587075
-0.0196088
-0.000962865
0.0011478
-0.00690294
-0.00112128
-0.0621761
-0.0272243
0.000386533
-0.00254847
0.000712072
-0.0848546
-0.00554554
0.00924796
-0.0965542
-0.0736737
-0.00682292
4.53326e-05
-0.0272328
-0.0014242
-0.00857471
0.00518628
-0.0158169
-0.00607533
-0.00746925
-0.00760591
-0.0940147
0.000379937
-0.0743091
-0.0199958
-0.0317271
0.00015223
0.000705458
0.0294383
0.0184819
-0.0218401
0.000901493
-0.0127768
-0.0122894
-0.0137794
0.0147064
-0.00169799
0.0222187
-0.0672738
-0.0111091
0.000732392
-0.00895354
0.0117431
0.00424623
-0.0402884
-0.00203676
-0.0287761
-0.0279088
0.00159598
-0.00593232
0.000457785
-0.0940183
-0.079049
-0.00393112
-0.0648709
-0.0140108
0.000862962
-0.00247877
-0.00240752
-0.0125983
0.000411648
-0.000930231
0.00090596
-0.0579029
0.000595952
0.000853965
-0.0235233
-0.0379135
-0.0743895
0.004845
0.00316654
-0.00436958
-0.0655977
-0.0472049
-0.0318945
-0.132968
0.012064
-0.0640422
0.000711083
-0.0534709
-0.0107893
0.000734643
-0.0026671
-0.0851397
-0.0706707
-0.00948069
-0.0411288
-0.00301668
-0.0121355
0.000169688
-0.00639277
0.00138577
0.00363267
7.61467e-05
-0.0367721
0.0097282
-0.0738497
-0.000137678
0.0172932
0.000115572
0.0129615
-0.0100191
-0.0816447
-0.0719834
-0.0616933
0.000149714
-0.0835326
-0.0104256
-0.114181
0.000761122
-0.00936173
0.000579921
-0.0142795
-0.0425453
-0.0159571
-0.0808742
-0.0209436
-0.0315703
-0.00313468
-0.0612794
-0.0249761
-0.0142897
-0.0313018
-0.0091787
0.00088945
0.00268493
0.00374394
-0.0164792
-0.00336878
-0.00511546
-0.0374019
0.00192945
-0.0110623
-0.092971
0.0120074
0.000851368
-0.0263256
-0.117149
-0.0200663
0.0209512
-0.0461427
0.00453652
0.000693712
-0.0768941
0.002373
-0.0375133
-0.033266
-0.0806264
-0.0036883
-0.0408119
0.020917
-0.00412454
0.00420043
-0.0127054
-0.0981292
0.00715423
-0.0814042
-0.0015889
-0.041663
-0.0692734
-0.0223894
-0.0795443
-0.0741595
0.000591477
-0.013236
-0.0796419
-0.0153426
-0.073696
-0.00944506
-0.00899654
-0.0753986
-0.0421547
-0.1182
-0.0100656
-0.0201729
-0.0112037
-0.0819716
-0.0728783
-0.0211655
0.00479745
-0.0108164
0.0326433
-0.0784421
-0.0199315
-0.0159396
-0.0751065
-0.0321859
-0.00286031
-0.0679214
-0.0278217
-0.0218449
-0.00075385
-0.076452
-0.0822256
0.00102411
-0.00455757
-0.0332569
0.000603722
0.000705979
-0.00519474
-0.00788455
-0.00834439
-0.0592569
-0.0117957
-0.0920826
-0.0246162
-0.102896
-0.0103372
0.0292998
-0.0698641
0.0151295
0.00439491
-0.00832911
0.0140563
-0.000212852
-0.0144759
0.000878218
-0.0170632
-0.00436382
-0.073778
-0.00081526
0.00170383
-0.0902384
-0.0135411
0.0236827
-0.0186853
0.00083294
-0.000907008
-0.0463024
-0.0753784
-0.0620281
-0.00137942
-0.0528177
-0.0103558
-0.00579977
0.000747661
-0.0837492
-0.041567
-0.0120611
-0.0657793
-0.0485602
-0.000624676
-0.0748974
-0.0746089
0.00416784
-0.00782545
-0.0124016
0.0215208
-0.050287
0.00019561
-0.0680566
-0.00782848
-0.00622379
-0.0111218
-0.0811295
-0.00504009
-0.059848
0.018008
-0.0915382
0.00702835
0.00810223
-0.00617566
0.0195601
0.00143562
0.0011176
-0.0251787
-0.0862325
-0.0953376
0.0213143
-0.0791805
-0.00493667
-0.0733697
-0.0808435
-0.0450182
-0.0100667
-0.00214863
-8.32375e-05
-0.00420993
-0.0730099
-0.00866429
-0.0237404
-0.00488039
-0.0572663
-0.0734296
-0.0893123
-0.00192851
-0.0768681
-0.00867319
-0.00493388
-0.00566585
0.000506583
-0.0762273
-0.0148077
-0.0756707
-0.00368135
0.00308335
-0.0687333
-0.0142934
-0.00865084
-0.00956204
-0.0740636
0.00164836
-0.0199519
-0.00212686
-0.00516723
-0.0698902
-0.025385
-0.0185115
0.00111652
-0.0174283
0.00335592
-0.0724588
-0.00148411
-0.0441232
0.000195617
0.00536939
0.000999271
-0.0375383
-0.0106298
-0.0492918
-0.0343068
-0.0138406
0.00484227
-0.00536414
4.12473e-05
-0.0147208
0.000900905
0.0014336
-0.0902442
-0.0311205
0.0012059
0.00252298
0.000597395
-0.069405
-0.0951686
-0.0455231
-0.042052
-0.0133114
0.00231054
0.000160931
0.000685562
-0.063175
-0.073513
0.000430991
-0.00408475
0.00992969
-0.0778184
-0.0229212
-0.023161
-0.0743552
-0.0221295
0.00203735
-0.0730907
-0.0727491
-0.00804347
0.000953941
-0.0103803
-0.0730347
-0.0743041
-0.0235306
-0.0673502
-0.0915471
-0.0295697
-0.0736397
0.016355
-0.00299492
-0.0534924
-0.0634659
-0.0119825
-0.0734395
-0.0178108
3.16391e-05
0.000661782
-0.0591821
0.00399996
-0.0712225
-0.017908
-0.0327442
-0.0537197
-0.00394409
-0.0737929
-0.0738597
-0.013707
-0.0265976
-0.0738223
-0.0310896
-0.103623
-0.0103768
0.000602551
-0.00437544
0.00250442
0.000694654
-0.0122816
-0.00237137
-0.010221
-0.012002
-0.00700676
-0.0249503
0.00198137
0.000111151
0.000543608
-0.0102755
-0.0191806
-0.0133576
-0.0476529
-0.0151909
-0.00812337
-0.0339201
0.0140079
0.0017404
-0.0748822
-0.00130299
0.000166962
-0.0729863
-0.0944604
-0.102568
0.00928805
-0.000333119
-0.0955917
-0.0115715
0.000954284
-0.0404231
-0.0030463
-0.0496492
-0.0579251
0.00116095
-0.0820521
-0.0736079
-0.0260272
-0.0412315
-0.0857339
-0.0157243
0.00980394
-0.0389034
-0.107513
-0.0320352
-0.0656547
0.000109828
-0.0103093
0.00111575
-0.0138971
-0.0748802
-0.107573
-0.072803
-0.12527
-0.0325254
-0.00817902
-0.00767938
0.000550362
-0.00624173
0.000652301
-0.088599
-0.00351891
-0.0776173
-0.00526172
0.00700474
-0.0170677
-0.0736551
-0.0810523
-0.0768027
-0.0481569
0.000554215
0.00138499
-0.0775409
-0.0782278
-0.0312139
-0.00248677
0.000535444
-0.020915
-0.0209385
-0.0710558
0.0315016
-0.0345414
0.000686515
-0.0741138
0.00159522
-0.0734125
-0.00649248
-0.00454641
-0.0499524
-0.00314795
-0.0766216
0.000691787
-0.0733011
0.00101432
-0.0338821
0.00273973
-0.014099
0.00359993
-0.035515
-0.0449173
-0.0832077
-0.0966206
-0.0296781
-0.0257973
-0.0064158
-0.0770976
-0.0973826
-0.000644043
0.000786359
-0.00907585
0.000294854
-0.069526
0.000280981
0.00422079
-0.0136177
-0.0166649
-0.000131413
0.000794042
-0.0208433
-0.0649777
-0.0833232
-0.0081095
-0.00778194
-0.0494369
-0.0154422
-0.0145324
-0.00659308
-0.0938448
-0.047781
0.00804918
-0.0123018
-0.0149655
-0.0138491
-0.122287
-0.127058
0.0202674
0.00101065
0.00449977
-0.000568032
-0.0727488
-0.00906474
-0.0860882
-0.0819622
-0.0139463
0.0159945
-0.0251296
-0.00632428
-0.00579531
-0.0205321
-0.0735362
-0.0161788
-0.0656059
-0.0010183
-0.00567098
-0.000922203
-0.0119091
-0.0942091
-0.0734309
-0.0173091
-0.116035
-0.0705775
0.000985839
-0.0126072
0.000833796
0.00281058
-0.072272
-0.0738616
-0.0123195
-0.00730787
0.00403419
-0.0123565
-0.0443311
-0.079737
-0.0172619
-0.0755448
-0.0536337
0.00174644
-0.012295
-0.0008255
-0.0482858
-0.00817836
-0.0139478
-0.0738698
-0.0177157
-0.0358373
0.00228457
-0.0274002
0.000737051
-0.0714405
-0.0937488
-0.0102238
0.00633303
-0.0303171
-0.0131076
-0.00286588
-0.0148009
0.000644753
-0.105445
-0.0200139
-0.0873789
-0.0102064
-0.0408006
0.0120767
-0.0769411
0.00353516
-0.0395913
-0.11388
-0.00595465
0.0233634
-0.0723257
-0.00054972
0.00199373
-0.0291762
-0.0451805
-0.106585
-0.00895227
0.00178506
-0.0109656
-0.00247787
0.0103669
-0.0137697
-0.12756
-0.00551606
-0.0272761
-0.0207897
-0.0139492
-0.013579
-0.0513565
-0.0114333
-0.0669945
0.00324782
-0.000439099
-0.0236389
-0.0731238
-0.00950155
-0.0465777
-0.0943268
-0.0614654
-0.000622023
-0.015685
-0.0278707
-0.0846443
-0.0897088
-0.0140915
-0.0747974
-0.0266528
-0.00206891
-0.00853286
-0.132592
0.0105695
0.00244411
-0.104417
-0.00563908
-0.0191935
-0.00346804
-0.115455
-0.00827192
-0.0449933
0.000495936
0.0156468
-0.0258813
-0.00760513
-0.0449887
-0.106729
-0.00964099
-0.0126906
0.022486
5.65301e-05
-0.0156783
-0.0159723
-0.0249679
-0.0459843
-0.048699
0.00317177
-0.0817308
-0.0319119
-0.0340362
0.0249909
0.00923299
0.000696998
-0.0755057
-0.0756745
-0.0465823
-0.00914198
-0.0650141
-0.0729569
-0.0167183
-0.00869244
0.000827703
0.0268971
-0.0726838
0.0111512
-0.0792241
-0.00377373
-0.0634994
-0.00647049
-0.0775189
0.000626293
-0.00276004
-0.0181691
-0.00892877
-0.0855053
-0.075504
-0.0675086
-0.0237527
0.000675236
0.0241878
0.00244416
0.00112555
-0.0736305
0.000144397
-0.0454106
-0.0124947
-0.0165883
-0.00716864
-0.00753151
-0.0107091
0.00249974
0.0169448
-0.0106192
-0.0696109
-0.00289225
-0.0164736
0.0240502
-0.000414827
-0.0136693
-0.0140698
-0.0260806
-0.0240225
-0.00295177
-0.0029423
-0.0635391
-0.00342832
0.00304673
-0.00346452
-0.0207171
0.000850121
-0.079914
-0.0159174
-0.00524377
-0.0728555
-0.0392691
0.0209977
-0.0799141
-0.0702717
0.000798444
-0.017149
-0.0177313
-0.026012
0.0032653
0.000835179
-0.0381658
-0.0751249
-0.0733491
-0.0752407
-0.0170064
-0.118299
-0.00394351
-0.0269925
-0.0011763
-0.0876842
-0.0144472
-0.0344661
-0.0134239
-0.075035
-0.118511
-0.00208496
0.00080486
-0.0248337
0.00173029
-0.0207085
-0.0562675
-0.00618392
0.00233238
-0.0758142
-0.0760621
-0.000182146
-0.0351367
-0.0404264
-0.119432
6.69061e-05
-0.118866
-0.0723642
0.00465369
0.000638816
-0.105982
0.0278471
0.0013859
-0.00394588
-0.00438073
-0.031725
0.000653986
-0.00253516
-0.0790416
-0.109299
-0.126342
0.000689206
-0.0753765
-0.0156088
-0.0254424
0.00103653
-0.013598
-0.0295547
-0.000206614
-0.112967
-0.033713
-0.0147735
-0.0624773
-0.121962
-0.0188631
-0.0636034
-0.123911
-0.0844726
-0.00188327
-0.10311
0.000815132
0.000385398
-0.0126164
0.00127049
0.0011141
-0.0868693
0.00230392
0.00203123
0.00266308
-0.074791
-0.103367
0.0100787
-0.000172429
-0.00831603
-0.00993049
-0.120618
0.000826081
3.79955e-05
-0.00880797
-0.00640935
-0.000217535
-0.00459956
-0.0872655
-0.0449068
-0.0201415
0.000684536
0.0011709
-0.0223859
-0.0731733
0.000691452
-0.107321
-0.0510938
-0.0174524
-0.0890684
-0.12303
0.000829377
-0.0687161
-0.0168776
-0.121756
0.00275566
0.019486
0.00300131
-0.0204308
-0.00689866
-0.0985311
0.00116286
0.00120048
0.00175095
-0.0651354
-0.0441726
-0.0718495
-0.0963893
-0.0172273
-0.0746882
-0.0248306
-0.0348604
-0.0899318
-0.0890679
-0.000947765
-0.0848984
0.00930313
-0.0210959
-0.00458485
-0.0722672
-0.0444524
-0.0324216
-0.0469424
0.000841442
-0.0546952
0.00279879
-0.00693226
-0.0140181
0.00290968
-0.0802004
-0.0362327
-0.0261967
-0.0253924
-0.0243987
0.019819
-0.0584549
-0.0466986
-0.0816199
-0.0208612
-0.0891425
-0.00706338
-0.0516082
0.00655831
-0.101727
-0.0152489
0.00129215
-0.00112559
-0.0793645
0.0021391
0.000275
0.00199654
-0.0188838
0.000966975
-0.0147553
-0.111109
-0.0745834
-0.0580072
-0.108745
-0.00372303
-0.102616
-0.084728
-0.0688459
-0.11107
-0.0821318
0.00231671
-0.0543303
-0.0336304
-0.0461322
-0.0741438
-0.0617669
0.000966066
-0.0476134
-0.00262399
-0.015156
0.0310679
-0.0932922
-0.0733609
-0.0724946
-0.0136719
-0.0202718
-0.00732158
-0.0796419
-0.122004
-0.00884085
-0.0627553
-0.0101204
-0.0163041
-0.0137442
-0.0866188
-0.0468444
-0.0141896
-0.0158182
-0.030911
-0.00634676
-0.000843469
-0.025551
0.000902609
-0.0131068
-0.00851491
-0.0459704
0.00053313
-0.0528447
-0.0170601
-0.00943139
-0.0878872
-0.0836076
-0.00477813
0.0218959
-0.013733
-0.033294
0.000646112
0.000946726
-0.0123522
0.000751566
0.000700228
-0.00573834
0.000597595
-0.00950884
0.00222643
0.0213547
-0.0821171
-0.0166237
-0.00877809
-0.0809059
-0.01425
-0.0338739
0.000708365
-0.0163991
-0.00660875
-0.0134516
-0.000371184
-0.0236072
-0.0133405
-0.08448
0.00888514
-0.0184896
-0.0198852
0.000772343
-0.00689534
0.0116363
-0.00229563
-0.053464
-0.113688
0.00271975
-0.0213108
-0.0132989
-0.0169071
-0.00142909
-0.0199988
-0.00607457
-0.00707897
-0.0902596
0.00145987
-0.0487913
-0.0849717
0.00226772
-0.00513337
-0.00290133
-0.0365281
0.0335011
-0.00156409
0.0157051
-0.073401
0.00552902
0.00127962
-0.0838214
0.000667412
0.00350542
0.000734983
0.000684715
-0.000244653
0.000957934
0.00317288
-0.0740942
0.014912
-0.0231596
-0.02174
-0.00454146
-0.00807632
-0.0427798
-0.0909991
-0.108835
-0.0410354
0.0320899
-0.0863311
-0.0664067
0.00210876
-0.0251413
0.00110493
-0.0128181
-0.00274414
-0.0217088
0.0163488
0.0017049
-0.0172067
-0.0119423
-2.69481e-05
0.00138173
-0.0135763
0.00130233
0.00102487
0.000658621
-0.0779235
-0.0872194
-0.00883111
-0.012093
0.000878733
-0.0591472
-0.0640147
-0.0819047
-0.00689518
-0.0740041
-0.00237993
-0.0741899
-0.0702645
0.0100138
-0.00633477
-0.0122152
4.10319e-05
-0.00408091
-0.00360762
-0.00262028
-0.0214722
-0.0852445
-0.0554096
-0.0775856
-0.0038561
0.00941328
-0.0736888
-0.0121572
0.00077026
0.00153349
0.000751268
-0.0245205
-0.000417946
0.0272588
-0.00944785
-0.0744445
-0.0393495
-0.105471
-0.0234457
-0.0821761
-0.0729421
-0.00695464
0.000857835
-0.000784753
-0.0105919
0.000841111
-0.0104061
-0.0831821
-0.0748179
-0.0137072
-0.015207
0.00226985
-0.0177104
0.0190439
0.000811822
-0.00031858
-0.0728263
0.000112813
-0.00641509
-0.0169763
0.0222243
-0.0210489
-0.0737718
-0.0675033
-0.00716439
-0.0809603
-0.0602654
-0.0739741
0.000719685
-0.012342
-0.000637283
-0.0163573
-0.124008
0.00072505
-0.077474
0.00143967
-0.00104135
-0.0156343
-0.0770619
-0.0469035
-0.0554157
-0.00872201
0.000487553
-0.00414063
-0.0735617
-0.00951606
0.00111372
0.00152497
-0.00909017
0.00897234
0.000588151
0.00078159
-0.0734544
-0.0750009
-0.0783047
-0.0130463
-0.0637778
-0.0942965
-0.0667908
-0.0738866
-0.0276761
0.000660262
0.000585195
0.000319295
-0.0073417
-0.0791937
-0.0805164
0.000974611
-0.0763899
-0.0731085
-0.0505042
0.00146323
-0.0123979
-0.0259682
-0.0859113
-0.0824395
-0.019925
-0.0806272
0.000283878
-0.0615094
-0.0403247
-0.00609974
-0.0736836
-0.0137611
-0.0710175
-0.0799775
-0.00842868
-0.0663771
-0.00599676
0.00109918
-0.0860216
-0.0739569
-0.0673614
-0.0181851
-0.0863949
-0.0731901
-0.0717421
-0.0765699
-0.0861391
-0.0651221
-0.0373768
-0.0149688
0.00229996
-0.0474044
-0.0739526
-0.0121164
-0.072959
-7.16766e-05
-0.0103546
-0.00610077
4.00341e-05
-0.0859794
-0.0143972
-0.0678731
-0.0813315
-0.0145314
0.017397
0.0328796
-0.0739995
-0.0317501
0.00402317
-0.00140261
-0.00046695
-0.0782873
0.00145079
0.00117009
-0.0400131
-0.0262561
-0.0737164
-0.0302427
-0.00975369
-0.023332
0.000911098
0.0228432
-0.0154433
-0.0661544
-0.00207161
-0.00041006
-0.0706751
-0.0444644
0.00160488
-0.0683863
-0.0725885
-0.0138892
0.0273588
-0.0211611
-0.0737871
-0.0039081
0.000982301
-0.0733995
-0.0161895
-0.0762497
-0.0783856
-0.0550032
-0.0144575
0.00165549
-0.0166778
0.0210855
-0.0391592
-0.000841049
-0.0763177
-0.0627617
-0.00285446
0.000536238
-0.0243075
-0.0133782
-0.0855228
-0.0650406
0.000811436
-0.0767443
-0.0630609
-0.0184739
-0.000223773
-0.0755053
-0.0717157
-0.0856671
-0.015496
0.000958442
-0.0441325
-0.012962
-0.00515264
-0.00088211
-0.00930147
0.000477634
-0.00535132
-0.000308728
7.27303e-05
0.00558809
-0.0676135
-0.0708985
-0.0129869
-0.0888669
-0.0798713
0.000390335
-0.0748528
-0.0742545
-0.0739706
0.000512519
-0.00771333
-0.0744439
-0.133523
-0.0699088
-0.0485534
0.00264445
-0.0743945
-0.0634554
-0.0707468
-0.000157792
-0.0489534
-0.0613747
-0.0134896
-0.0636867
-0.084379
0.00270831
-0.130134
-0.0741386
-0.00877889
-0.000578666
0.00456057
-0.013684
-0.00676431
0.000797132
2.4533e-05
-0.073296
-0.0731199
0.00361089
-0.0479881
-7.42503e-05
-0.00869707
-0.100941
-0.0750976
-0.101022
-0.0462717
-0.0762954
0.00129017
0.00070357
-0.0383321
-0.0825511
-0.0742949
-0.0566487
-0.0733873
-0.0257534
0.000255725
-0.013561
-0.0256704
-0.0388148
-0.0648998
-0.0739539
-0.0218398
-0.0846506
-0.087194
-0.00614453
-0.145741
-0.0158198
-0.0294575
-0.000755794
-0.0157247
0.000993251
-0.0279826
-0.029226
-0.046994
-0.0742067
0.000836509
-0.0612999
-0.0230115
-0.0122314
-0.097457
0.0233896
-0.0751719
1.5782e-05
-0.0705435
-0.0758507
-0.0673069
-0.0721778
-0.00387581
-0.0323519
-0.0724855
-0.0738381
0.000734866
-0.043196
0.000988499
-0.000645677
-0.0125643
-0.0227023
-0.0733569
-0.0799877
-0.0111029
-0.131699
-0.0234695
0.000829801
-0.00262311
-0.014508
-0.00437351
-0.0426991
-0.0738147
-0.073133
-0.068486
-0.00184297
-0.00667346
-0.0209495
-0.000652155
-0.0735781
0.0099067
-0.000144303
0.000359765
-0.0513847
-0.0229155
-0.0722753
-0.0192429
-0.106305
-0.0169177
-0.0831177
-0.0717875
-0.075038
-0.00752974
0.00111015
-0.0187157
-0.0152089
-0.086783
-0.0964011
-0.0260301
-0.0336537
-0.0706501
-0.0291449
-0.0173912
-0.010776
0.00678737
-0.00402959
-0.0729078
-0.00930214
-0.0288151
-0.0168276
-0.0241474
-0.01803
-0.0698827
-0.070558
-0.00848402
-0.0145062
-0.0345142
-0.00759223
0.00158459
0.0119678
-0.0358944
0.00238179
-0.118184
-0.0138955
-0.0732295
-0.0160074
-0.000346153
-0.0122701
-0.0744547
-0.00797303
-0.071288
-0.136042
-0.0178233
0.00347197
-0.0684395
-0.00100691
-0.0715882
-0.00943224
-0.00529877
-0.0613748
0.00114559
-0.0709428
-0.0023461
-0.00445594
0.000806367
-0.00704823
-0.0367245
-0.0161025
-0.0613029
-0.0592083
-0.0165102
-0.00470299
-0.107377
-0.0485817
0.0142555
-0.0424758
0.000487361
-0.00674055
-0.0419559
-0.063779
0.00689877
-0.0627679
-0.0194398
0.000853402
-0.0118909
0.000127338
-0.00389251
-0.00740948
-0.0709844
0.000649051
-0.00956607
-0.00334954
-0.0836085
-0.0733143
-0.0384343
-0.000786286
-0.0630491
-0.072987
-0.126466
0.00868874
-0.0257844
-0.0606384
-0.0196768
0.00232951
-0.074874
-0.0707485
-0.0055715
-0.00403382
-0.0736822
0.00760444
-0.0222687
-0.0118291
-0.0416039
0.000902822
-0.0153672
0.0167109
-0.0181998
-0.0228269
-0.00282814
-0.00303732
-0.0188147
-0.0857267
-0.00249881
-0.0231102
-0.0722879
0.00084009
0.00140441
-0.0711206
-0.0286966
-0.0544961
-0.0145136
-0.0261173
-0.00882786
0.000764343
-0.00177168
0.0274595
-0.0265219
-0.070783
-0.0667587
-0.0333875
-0.0734387
-0.00461639
-0.0285054
-0.00362379
-0.00193361
-0.0493163
-0.02991
0.00152648
-0.0434795
-0.00651417
-0.00891017
-0.0291708
0.00251053
0.000894018
0.0273141
-0.0125162
0.00815512
-0.00295198
-0.0360286
0.000907446
-0.0226452
-0.0422622
-0.116172
0.00471284
-0.0744007
-0.00959803
-0.0740301
-0.00111096
-0.0530835
-0.0398891
-0.00795025
-0.00347289
0.00985328
-0.0441607
0.00409527
0.00115004
-0.0472492
-0.0727689
-0.0379404
-0.00281556
-0.00234256
-0.0492478
-0.000923456
-0.0108827
0.000970783
1.16865e-05
0.00703678
-0.00440441
-0.00783819
-0.0221272
-0.0741896
0.0160164
-0.0777348
-0.00285953
0.0251238
-0.0152349
-0.0318134
-0.0151269
-0.00192566
0.00358526
0.0061326
-0.00267243
-0.11362
-0.027221
-0.0797912
0.00118932
-0.00969885
-0.0430565
-0.0692445
-0.02041
-0.0569706
-0.0276333
-0.0116884
-0.00991589
-0.00376241
-0.0626158
-0.073753
0.00311572
-0.0121907
-0.0240772
-0.00970611
-0.00104161
-0.0656483
0.0018809
-0.116781
-0.0708044
-0.0608578
0.00399164
0.00118038
0.023242
-0.0617622
0.00508688
-0.00956263
-0.00785565
-0.00198754
-0.00602339
0.00438458
-0.000396749
-0.0733617
-0.00658603
-0.00594336
-0.0885897
-0.0406042
-0.023463
0.00267705
-0.0112447
0.00105136
-0.0123024
-0.0741294
0.000153346
-0.0223885
-0.0816666
-0.062127
-0.0421002
-0.00895178
-0.0159564