/*--------------------------------*- C++ -*----------------------------------*\
| =========                 |                                                 |
| \\      /  F ield         | OpenFOAM: The Open Source CFD Toolbox           |
|  \\    /   O peration     | Version:  v2012                                 |
|   \\  /    A nd           | Website:  www.openfoam.com                      |
|    \\/     M anipulation  |                                                 |
\*---------------------------------------------------------------------------*/
FoamFile
{
    version     2.0;
    format      ascii;
    class       surfaceScalarField;
    location    "300";
    object      phi;
}
// * * * * * * * * * * * * * * * * * * * * * * * * * * * * * * * * * * * * * //

dimensions      [0 3 -1 0 0 0 0];
oriented        oriented;


internalField   nonuniform List<scalar> 
20537
(
-0.378975
0.508262
-0.129287
0.00243204
-0.162241
0.159809
-0.184257
0.166536
0.0177211
-0.021597
-0.301614
0.323211
-0.146695
0.162702
-0.0160069
0.270072
-0.43749
0.167418
0.198313
0.201799
-0.400112
0.243867
-0.0875592
-0.156308
-0.455748
-0.094112
0.54986
-0.0382829
0.213853
-0.17557
0.60944
-0.223038
-0.386402
0.0894743
-0.090096
0.000621705
0.0906465
0.00974332
-0.10039
-0.00293066
0.016895
-0.0139643
0.677009
-0.546129
-0.130879
0.278808
-0.287729
0.0089206
-0.0477036
0.283306
-0.235602
0.441036
-0.248792
-0.192244
-0.137395
0.147537
-0.0101416
0.0825789
-0.538327
0.34636
-0.367957
-0.0768358
-0.107421
-0.363933
0.584425
-0.220492
-0.690494
0.0984931
0.592001
-0.549409
0.185476
0.217651
0.0262164
-0.0878035
-0.180749
0.268553
-0.00152756
-0.000942843
0.00568587
-0.384661
0.227429
-0.352019
0.124589
0.434711
-0.164639
0.230712
-0.278416
-0.0179057
0.184441
0.416655
-0.477623
0.0609677
-0.602279
-0.0882157
0.115249
-0.129438
0.0141892
-0.00280562
0.0923609
-0.0895553
0.199195
-0.120707
-0.0784882
0.13754
-0.175823
0.00220201
0.414453
0.0444287
0.337615
-0.382043
0.488739
-0.66311
0.174371
-0.00693727
0.00407339
0.00286388
0.306816
-0.585981
0.279165
0.574297
-0.26748
0.00300722
-0.0180799
0.0150727
-0.575771
0.282333
0.293438
0.12089
-0.502179
0.381288
0.172703
-0.260506
0.288374
0.247517
-0.535891
0.163782
-0.0183774
-0.145405
0.148532
-0.0776005
-0.0709319
-0.00276884
0.00278234
-1.35023e-05
-0.735378
0.374644
0.360734
0.656278
-0.53682
-0.119458
0.662145
-0.173406
0.652669
-0.295784
-0.356885
0.00414699
-0.00302996
-0.00111703
-0.183023
0.410452
0.284012
0.0961937
-0.380205
0.0508996
0.148296
0.0357799
-0.0572018
0.0214219
-0.412546
0.297781
0.114765
-0.142791
0.127453
0.015338
-0.116059
0.29281
-0.176751
-0.447274
0.14383
0.303444
0.0700916
-0.0728972
-0.59432
0.31928
-0.213973
0.215779
-0.00180604
0.197676
0.24336
0.0146386
-0.0178882
0.00324956
0.0871213
-0.0784237
-0.00869756
0.142287
-0.139855
-0.292446
-0.442932
0.28162
-0.58588
0.304261
-0.5281
0.433597
0.0945025
-0.134546
0.0577105
-0.0239488
0.000976656
0.0229721
-0.00121322
-0.174314
0.175527
0.0174043
-0.0014561
-0.172199
0.432592
-0.260393
0.52431
-0.0401997
-0.48411
-0.434347
-0.0512409
0.485588
0.0109782
-0.000389735
-0.0105885
-0.319171
-0.0933754
0.0940786
-0.00460424
0.463223
-0.15811
-0.305113
0.0700609
0.162927
-0.232988
-0.261955
0.3236
-0.0616449
-0.358942
-0.248702
0.607644
0.0217883
0.0934607
-0.0969704
-0.315363
0.412334
-0.190664
-0.0903603
0.251343
-0.160983
-0.0279063
-0.234048
0.563136
-0.551358
-0.0117782
0.0304177
-0.177113
0.00536638
0.0370827
-0.0424491
-0.20257
0.490944
-0.0245902
0.587727
-0.000470514
0.006469
-0.00599849
0.175604
-0.173061
-0.00254354
0.0755102
-0.382409
0.306898
0.26776
-0.017728
-0.456828
-0.0991293
0.555957
-0.487543
0.370002
0.117541
-0.181298
0.177846
0.00345191
0.523392
-0.68126
0.157868
0.0672383
0.00956364
-0.143763
-0.293727
-0.540831
-0.0194038
0.560235
0.273749
-0.632691
0.307723
-0.404693
-0.651433
0.651433
-0.072069
-0.468762
0.375724
-0.154009
-0.0539036
0.0592699
0.0722999
-0.471394
0.399094
-0.573748
0.575664
-0.00191596
-0.192805
0.562876
-0.370071
-0.00618163
-0.000755644
0.23648
0.0312799
0.0912726
-0.000626069
0.0506303
0.487358
-0.366468
-0.774249
0.347065
0.427183
0.106312
0.381046
0.158336
-0.187886
0.0295503
0.0303929
0.315967
0.170274
-0.0835982
-0.086676
0.42515
-0.380721
0.55623
-0.161666
-0.394564
0.0192284
-0.00458971
-0.552313
0.117966
0.22575
-0.572305
0.607017
-0.0347119
0.554819
-0.482519
-0.0720349
0.0885104
-0.0164755
-0.0213566
0.00993179
0.0114248
-0.0416181
-0.0110915
0.0527096
0.00724114
-0.00771165
0.377267
0.279011
0.164396
-0.563461
0.399066
0.71737
-0.38269
-0.33468
0.411753
-0.0844141
-0.327339
-0.255146
-0.330836
-0.437731
0.613118
-0.175387
0.0439727
0.126302
-0.267755
0.466069
0.208746
0.365551
-0.00215352
0.130224
-0.422977
0.61618
-0.193204
-0.00851028
0.00557962
0.309829
0.34284
0.364397
-0.208298
-0.1561
0.304117
0.107636
-0.497048
0.187967
0.309081
0.233634
0.128367
-0.362001
0.0160081
0.132524
0.0029786
0.160803
-0.351765
-0.247048
0.598813
-0.0763125
0.225764
-0.149452
0.0019411
0.00220589
0.164307
0.391923
0.271533
-0.370003
0.0984706
0.640099
-0.229579
-0.41052
-0.682001
0.244269
0.00456264
-0.218535
-0.31905
0.349443
0.0388516
0.00534215
-0.0441938
0.000204337
-0.0241531
0.240481
-0.545122
0.304642
-0.174257
-0.322791
-0.00220154
-0.0394165
0.565909
-0.401602
-0.197402
-0.304777
0.183567
-0.0252311
0.53467
-0.509589
-0.0250807
-0.0171395
-0.120256
-0.518833
0.666289
-0.147456
-0.270671
0.056081
0.21459
0.0150864
-0.130333
-0.362417
0.49275
0.0489865
-0.156408
-0.362377
-0.23516
0.597537
-0.448531
0.614491
-0.165959
-0.170959
-0.276314
0.35695
-0.549756
-0.16797
0.158096
0.00987336
0.232668
0.0154754
-0.248144
-0.256491
-0.00198983
-0.000779007
0.265804
-0.542767
0.276963
0.186212
-0.210647
0.0244354
0.0594176
-0.0236377
0.401259
-0.179023
-0.222236
0.540979
-0.376583
-0.168844
0.490638
-0.321794
0.460428
0.0742416
-0.428676
-0.0994232
-0.305091
-0.469158
0.0143085
0.0238533
-0.0381618
-0.580375
0.0842013
0.496174
-0.540291
0.146787
0.393505
-0.0223994
0.220894
-0.198494
-0.492806
0.362473
-0.0236056
-0.0134597
0.0370653
0.14875
0.140771
-0.289521
0.0290172
-0.00193054
-0.0270866
0.127969
0.442201
-0.570171
-0.0150432
-0.034055
0.0490983
-0.354504
0.430015
-0.504255
0.202934
0.301321
0.451389
-0.6345
0.183111
-0.718689
0.429981
0.288708
0.635238
-0.240796
-0.394442
-0.165869
0.408363
-0.242495
-0.006963
0.00997022
-0.108913
-0.410506
0.519419
0.0308927
-0.00187556
0.265464
-0.116714
0.194091
-0.36629
-0.00437829
0.0480816
-0.0437033
-0.0678985
0.14505
-0.0771519
0.00028376
0.0346188
-0.0349026
-0.598734
0.580091
0.0186429
-0.046567
-0.19157
0.238137
-0.525707
0.0688788
-0.00579361
0.00360904
0.00218456
0.672089
-0.2207
0.219085
-0.00143401
0.32609
-0.267138
-0.0589523
-0.284922
0.525402
0.539552
-0.155567
0.146725
0.00884211
-0.0625546
-0.245733
0.308287
0.0179595
-0.0415652
0.128245
-0.244304
0.279908
0.437462
-0.455925
-0.0843665
0.138303
0.296408
0.336605
-0.49424
0.157635
0.57469
0.0568865
-0.631576
-0.199322
0.176923
0.456129
-0.555258
0.0285422
0.00416044
-0.0327027
0.194026
-0.0184214
0.475216
-0.415947
-0.0592689
-0.395912
0.293899
0.102013
-0.223393
-0.123598
0.346991
0.652541
-0.382554
-0.269987
0.505368
-0.168763
-0.245775
-0.107568
0.353344
-0.0917947
-0.0311275
-0.120244
0.151371
0.442841
-0.168336
-0.274506
0.263948
-0.0312795
0.00871655
0.0797939
0.00730588
-0.0153743
0.00806845
-0.189661
-0.347306
0.536968
-0.438781
-0.446886
0.348111
0.0987751
0.383087
-0.106764
-0.276323
-0.629841
0.207429
0.422411
-0.130891
0.103552
0.027339
0.188345
0.212913
-0.367599
0.121824
-0.207155
0.116794
0.0487627
-0.053141
0.422624
0.147093
-0.569718
0.290504
0.362037
0.185374
0.479406
-0.139167
-0.340239
0.176757
-0.177971
0.255752
0.0230559
-0.534594
0.372928
0.600782
-0.0764719
0.601817
-0.176825
-0.424992
-0.000984892
0.0356095
-0.0346246
0.125345
0.484095
0.0252787
0.549411
0.0800326
-0.557488
0.477456
-0.502473
0.598747
-0.0962745
-0.151304
0.120176
0.0119116
0.371175
0.426581
-0.215495
-0.211087
0.0334907
0.454176
-0.487666
-0.383347
0.498278
-0.11493
0.12032
0.359086
-0.650894
0.290372
0.360522
0.144696
-0.100723
0.149543
-0.332566
-0.105126
0.389137
-0.218858
0.216871
0.00198737
-0.38347
-0.267424
-0.0405006
-0.09039
0.070695
0.16991
-0.240605
0.0484251
0.0456535
0.434674
-0.570354
0.13568
0.0351202
-0.006578
0.106849
-0.183161
0.0799215
0.203384
-0.0130501
-0.028004
0.0410541
-0.142091
0.366783
-0.224692
-0.340007
-0.147536
-0.0403917
0.0376939
0.00269787
0.481099
-0.447608
-0.0150919
-0.145657
0.160749
0.227141
0.0242022
-0.223459
0.373002
-0.00292913
-0.0184275
0.222049
-0.151354
0.38664
-0.362012
-0.024628
0.0464291
-0.0585454
0.0121163
0.650656
-0.257372
-0.393284
0.0558578
-0.27925
0.736558
-0.370529
-0.366029
-0.0461516
0.0451667
0.125706
-0.0156534
-0.110052
-0.508858
0.399944
-0.190988
0.0466305
0.144358
-0.262331
0.491025
-0.228694
0.0266991
-0.0193933
0.00285483
0.4423
-0.445155
-0.454716
0.643215
-0.188499
0.610394
-0.249844
-0.36055
0.125692
1.4023e-05
0.199774
-0.246341
-0.323749
0.0730426
0.250706
0.108366
-0.369871
0.22778
0.327587
0.0590535
0.418766
-0.641804
0.00938125
-0.0150271
-0.0398387
-0.0127995
0.0526382
0.0846017
-0.386058
0.301457
0.0402287
-0.0532789
-0.00120264
-0.072077
0.0732797
0.384563
-0.0197585
0.20597
0.122441
0.0222554
0.556027
-0.340376
-0.215652
0.0315502
0.21928
-0.25083
0.00115803
0.113941
-0.115099
0.107036
-0.234038
0.515391
-0.281353
0.291684
-0.0103634
-0.28132
-0.00641878
-0.0324042
0.038823
0.0395299
-0.585659
0.644986
-0.065519
-0.579467
0.154097
0.490889
0.170523
-0.0370269
-0.133496
-0.109363
-0.214386
-0.206667
0.238217
-0.00236579
-0.00342781
-0.493796
0.319539
-0.0328603
0.324544
0.358301
0.252093
-0.501886
0.239555
-0.112763
0.568892
-0.0545232
0.577915
-0.183288
0.552816
-0.369528
0.036694
-0.0431128
0.637533
-0.31317
-0.324363
0.31581
-0.443121
0.127311
0.178654
-0.193746
-0.653764
0.358928
0.294835
0.0850005
-0.0365754
-0.301363
0.237492
0.0638712
0.263219
-0.342641
0.0501384
-0.0112868
-0.119765
0.435574
-0.250863
0.0849944
-0.03165
-0.196774
0.228424
-0.179214
0.442433
0.0866031
-0.447368
0.360765
0.159104
-0.630498
0.206833
0.211168
-0.418001
-0.000287772
0.00385161
-0.00356384
0.63857
-0.0229403
0.0200112
0.240664
-0.103053
0.104211
-0.0393888
0.0447309
-0.659128
0.133564
0.525564
-0.146509
-0.512619
-0.0133634
-0.338401
0.351764
0.632031
-0.154622
-0.477409
0.515722
-0.529639
0.0139172
0.391659
-0.307057
-0.0866101
-0.104378
0.00664073
0.0102542
-0.255727
0.216904
0.0388229
-0.043701
0.0439847
0.0432337
-0.00940195
-0.0338317
-0.397076
-0.256687
0.232821
-0.422482
0.0102997
0.00470559
-0.0186461
0.0139405
0.09798
0.22811
-0.0499845
-0.0039191
0.443019
-0.236187
-0.215842
0.184192
0.501041
-0.534558
0.0335173
-0.092505
0.0913024
-0.436066
0.516235
-0.0801689
-0.109129
-0.1786
0.367772
-0.381135
-0.448175
0.341461
0.106714
0.0534842
0.0942178
0.386881
0.318092
0.322007
-0.12162
-0.0211717
0.22989
0.0647349
-0.294625
-0.0152249
-0.0105476
0.0257726
0.34848
0.0130169
-0.361497
-0.134668
-0.446719
0.0294423
0.417276
0.309068
0.196299
-0.330067
0.0914576
0.23861
0.170963
-0.000440112
0.286859
-0.206938
0.177777
0.457461
0.12211
0.432708
0.49552
-0.401302
0.0932807
-0.541812
0.135199
-0.155342
0.0201423
0.185469
-0.497438
0.311968
0.128641
-0.117472
-0.0111697
-0.0576067
-0.389112
0.0114742
-0.187382
-0.290241
0.123216
0.139899
-0.0601791
-0.0953878
0.444503
-0.3579
0.478674
-0.169606
0.65921
-0.499243
-0.159967
-0.163802
0.0253782
0.138423
-0.287534
0.500842
-0.213308
0.00389413
0.17754
-0.181434
-0.0217353
-0.00351207
0.0252473
0.590994
-0.130566
-0.63158
0.207533
0.424047
-0.563917
0.276383
0.00265864
-0.00691805
0.305763
-0.66814
-0.227861
0.224737
0.00312358
0.00925283
0.560885
-0.138261
-0.487239
0.543329
-0.0560891
-0.403203
0.105626
0.297577
0.131663
0.0252705
-0.102871
0.0796753
-0.363246
0.28357
0.0838802
-0.0449018
-0.0389784
-0.546099
-0.0526344
-0.563337
0.313492
0.00148002
0.0054281
-0.00690812
-0.0745581
0.346091
-0.457111
0.537144
0.201287
-0.131226
0.464322
0.167709
0.206648
-0.156759
-0.376635
0.533394
0.1112
0.189227
-0.300427
-0.125759
-0.244191
0.36995
-0.429519
0.461002
0.129992
-0.0141717
0.0606007
0.379705
-0.430946
0.203835
-0.197447
-0.00638802
-0.0791093
-0.493196
0.259643
-0.379996
0.120352
-0.641951
0.190069
0.451882
0.562706
-0.562706
0.517658
-0.156225
-0.361434
-0.55294
0.134353
0.51708
-0.188412
0.464038
-0.275626
0.260088
0.109325
-0.369413
0.317115
-0.475224
0.116375
-0.478792
-0.166245
0.667286
-0.0134381
0.0134863
-4.817e-05
0.00191699
-0.0236522
0.141515
0.321697
-0.463212
0.401088
-0.141445
-0.286796
-0.0432711
-0.233885
-0.260354
0.0141049
-0.00312662
-0.364167
-0.19917
0.30394
0.333593
-0.0751886
-0.37218
-0.153118
0.00337297
0.149745
-0.333495
-0.0656404
0.399135
-0.00764554
0.00696119
0.000684349
-0.132963
0.544388
-0.411424
0.00194116
0.000841182
-0.234491
0.250391
-0.0158995
-0.213001
-0.450109
0.216149
0.18494
0.0484261
-0.019498
-0.028928
0.210359
0.0087261
-0.458793
0.453979
0.00481421
-0.518992
-0.0547553
0.386174
-0.433655
0.0474802
-0.572575
0.0357551
-0.16909
0.577885
-0.408795
-0.578829
0.187459
0.39137
-0.449175
0.338421
0.110754
0.0225129
-0.0178073
-0.157275
0.156237
0.00103738
0.128399
-0.0185941
-0.109805
0.0965431
-0.0923156
-0.00422749
0.0891927
0.326289
-0.678054
-0.0793484
-0.0176847
0.0970331
0.510677
-0.325207
-0.0578116
-0.212859
0.00471385
0.221051
-0.479894
0.246008
-0.381114
0.431745
-0.0620131
0.0469699
-0.516825
-0.00991097
0.526736
-0.00230998
-0.00533557
-0.00397507
0.0283475
-0.014039
-0.147954
-0.144949
0.361098
0.482626
-0.317232
-0.469412
-0.162168
0.354544
0.0882978
0.289622
-0.458466
-0.148561
0.0332889
0.115272
0.353979
-0.120345
-0.10487
-0.0436916
0.073379
-0.00634215
-0.0670368
-0.536736
0.403772
0.132405
-0.154296
0.00265385
-0.0208298
0.018176
0.378744
-0.0848442
0.333895
0.171748
-0.505643
-0.354574
0.542541
0.337237
0.12045
-0.457687
-0.0147947
-0.153175
0.243517
0.0575137
-0.301031
-0.071008
0.233935
0.048328
0.0355522
-0.437573
0.596151
-0.158579
0.00691696
-0.00543694
0.00142532
-0.0266297
0.0252044
0.489505
-0.379515
-0.10999
0.219645
0.291031
0.208398
0.578593
-0.477664
-0.100929
0.401408
0.473752
0.0570708
-0.530823
-0.0945909
0.0152425
-0.225522
0.0172246
0.120344
-0.119886
-0.000458178
-0.0862032
0.103468
-0.0172652
0.211258
0.450887
-0.382103
0.433805
-0.0517018
-0.048895
0.421147
-0.372252
-0.199332
0.162306
-0.141984
0.147495
-0.00551125
0.00227439
0.0202385
-0.00534563
0.0718569
-0.0665113
0.349961
-0.107729
-0.340445
-0.139344
0.10638
0.0329643
0.00284196
-0.0981608
-0.0094595
0.10762
-0.118528
-0.137199
0.402147
-0.104365
-0.573356
0.314502
0.195451
-0.509952
-0.130513
0.693447
-0.48219
0.285644
0.0930995
0.181634
0.484655
-0.160695
-0.395583
0.556279
0.0760357
-0.00265666
0.157871
-0.470426
0.412819
0.294556
0.398891
0.00643944
-0.0293798
0.331537
0.159101
0.631103
-0.183771
-0.447332
-0.415133
0.5637
-0.148567
-0.0922197
-0.537621
0.555252
0.0012166
-0.00150438
0.366764
0.108451
-0.137491
0.0106874
0.0176601
0.432039
-0.0458647
-0.0499241
-0.163804
0.213729
-0.015833
0.0184868
-0.0204406
0.0185101
0.151408
-0.385445
0.0212149
0.194564
0.0605517
0.518042
0.431467
-0.236057
0.0171298
0.218927
0.00956124
-0.0701776
0.0606164
-0.31181
0.301446
0.000752156
0.119592
-0.275203
0.035245
0.239958
0.080954
-0.477717
0.396763
-0.314872
0.243321
0.0715518
0.129249
-0.525373
0.396124
-0.0181912
-0.440602
0.134422
-0.143462
0.00904001
-0.371701
0.488075
-0.305295
-0.0807635
0.0224937
-0.509733
0.146369
-0.226712
0.0803436
0.115349
0.0132926
0.411222
-0.315028
0.103718
0.340785
-0.11378
-0.187583
0.0625758
-0.317791
0.255215
0.147907
0.147369
-0.0121691
0.0401123
-0.108011
-0.302994
0.0699463
0.233047
0.0110495
-0.10921
0.470399
-0.389445
0.108337
-0.342857
0.23452
-0.379699
0.0191977
-0.00851032
0.134134
-0.488638
-0.632482
0.290243
0.342239
-0.00159167
0.06883
-0.208179
0.424226
-0.216047
-0.00820268
-0.0311861
0.0318302
-0.035105
0.00327477
0.00287466
-0.000573417
-0.00230125
0.0549824
0.146305
0.0807022
-0.516768
-0.0800154
-0.460842
0.48612
0.339732
-0.537133
0.197401
0.122781
0.421607
0.380934
-0.541629
-0.612178
0.271679
0.3405
-0.0309418
0.379422
-0.227419
0.338618
0.701191
-0.406635
-0.0777746
-0.00834049
0.0861151
0.0294566
0.00930441
-0.087079
0.160291
-0.543566
0.383275
0.137757
-0.557347
0.41959
0.626308
-0.14531
-0.480998
5.74833e-05
0.122383
-0.0195646
-0.0395668
0.0591314
0.110016
-0.150974
0.0409578
-0.0607858
0.128907
-0.589748
-0.451827
-0.0827319
-0.135488
-0.453853
0.589341
-0.255911
0.42581
-0.169899
0.060755
-0.0861066
0.0253517
0.0357575
-0.0610214
0.0252638
-0.253039
0.315615
0.240139
0.461052
-0.136921
-0.312254
-0.47053
0.214619
0.152466
-0.172485
0.0200192
0.00277615
-0.000849106
-0.00192704
-0.0591199
0.0433312
-0.0626335
0.0193023
-0.389685
-0.0439695
0.457249
-0.35353
0.135361
-0.00696203
0.00651025
-0.197643
-0.0425348
-0.0475613
0.116954
0.315638
-0.24921
0.150964
-0.0409481
0.361128
0.492556
-0.351291
0.0687156
0.387763
0.271447
0.131048
0.0527949
0.0252036
-0.0287156
0.151846
-0.54482
0.392974
0.390707
-0.11358
-0.277128
0.300013
0.102133
-0.567674
0.398583
0.286793
-0.253862
0.374182
-0.0286002
0.00122283
0.0273774
-0.00349962
0.137922
0.127928
-0.0243763
-0.415663
0.549227
-0.452866
0.560356
-0.400065
0.00227062
-0.0157087
-0.0999892
0.013786
-0.297443
0.234888
-0.00625631
0.0380865
0.165129
-0.585369
0.42024
-0.00864837
-0.483263
0.491912
-0.414625
0.38799
0.0440487
0.0787158
0.00612403
-0.0848398
0.341159
-0.112766
-0.228392
-0.417891
0.0958354
0.322056
-0.197886
-0.444065
0.0726169
0.219473
-0.29209
0.409544
0.216764
0.00184092
0.00465676
-0.00649768
0.134619
-0.302955
0.0315816
-0.0311722
-0.000409413
0.437656
0.0886552
-0.341694
-0.000995872
0.0198381
-0.0188422
-0.00103052
0.000426559
0.000603965
-0.0740892
0.0958775
-0.382413
0.511662
0.0573016
-0.0660207
0.00871913
-0.18984
0.63029
-0.452513
-0.0263261
0.168979
-0.142653
0.183178
-0.179284
-0.133895
0.32214
-0.188245
-0.00408834
0.567724
-0.225579
-0.342144
-0.588529
0.371691
0.216838
-0.0116084
0.103969
-0.147961
-0.484521
-0.580375
-0.36248
0.236721
0.119561
0.350838
-0.00629488
0.0081358
-0.208494
0.0446931
0.163801
-0.116714
-0.348984
-0.121441
0.431971
-0.608796
-0.395138
-0.360626
0.566009
-0.0599517
-0.506057
0.229323
-0.406076
0.528857
-0.12436
-0.353116
0.477476
-0.616681
0.24424
0.37244
-0.00329516
0.040989
-0.537862
-0.518408
0.0164058
0.502002
-0.0999901
0.455368
-0.355378
-0.44076
0.333031
0.0211147
-0.0221106
-0.545635
0.00344158
0.542193
0.524722
-0.380021
-0.144701
0.0820158
0.0411961
-0.123212
-0.0192566
0.171722
-0.182794
0.495038
-0.312244
0.188258
0.340254
-0.528512
0.221074
-0.360241
-0.0139143
0.0572455
-0.107511
-0.0523405
0.00449261
0.0478479
0.191117
-0.0600696
-0.5001
0.343341
0.568999
-0.40142
-0.16758
0.00449267
-0.000419283
-0.242149
0.463223
0.0948758
-0.329688
0.234812
-0.57306
-0.44112
-0.344272
-0.171477
-0.00323476
0.174712
-0.125129
0.26094
-0.135811
-0.195704
0.365615
0.411277
0.157723
-0.499176
-0.0176494
0.38816
0.136562
0.0950136
0.0235624
-0.513895
0.323242
0.190653
0.00773859
0.150358
-0.299898
-0.299814
0.388469
-0.145379
0.105887
-0.135627
0.0297402
-0.00781339
0.11782
0.223338
-0.0292931
0.00479473
0.0244984
0.00209395
0.0944491
-0.366734
-0.0740257
-0.0125617
-0.0149231
0.0274848
0.334405
-0.226067
-0.0515978
0.0632055
-0.0116077
-0.00469548
-0.0239047
-0.0223075
-0.0264299
0.0487374
0.588744
-0.279589
-0.309155
-0.226216
-0.00776062
0.233977
-0.38054
0.300858
0.0908007
0.00156425
-0.00459421
-0.0129514
-0.530606
0.14134
0.389267
0.586478
-0.594863
0.00838495
-0.00356629
0.150291
-0.301934
0.535197
-0.233264
-0.414451
0.561404
-0.146953
-0.00078632
0.00147008
-0.000683757
-0.398049
0.563178
0.343185
-0.453259
0.110074
-0.000866787
0.0205194
-0.000938255
-0.0195812
0.0343928
-0.450056
0.480313
-0.140581
-0.498106
-0.0037794
-0.00120789
0.000177371
0.0861403
-0.0253854
0.10987
-0.119329
-0.184784
-0.303591
0.488375
-0.0551799
0.0423803
-0.0837771
-0.115555
-0.0708665
0.0513019
0.0104925
0.167354
0.17561
0.00304491
-0.0756163
0.0689954
-0.40249
-0.0256126
0.1679
-0.00679513
0.147791
-0.140996
-0.0106855
-0.00796064
0.488447
-0.0454281
-0.00163116
0.00293567
0.00520013
0.0093824
-0.0609802
0.0216803
-0.020255
0.319733
0.115141
-0.434874
0.201476
-0.0220357
-0.17944
0.474633
0.15647
-0.0596732
0.277413
0.113294
0.0700709
-0.0247247
-0.0453463
0.654129
-0.654129
-0.0200094
-0.00695914
0.0269686
-0.538372
0.123921
0.124118
-0.0421027
-0.431305
0.535234
-0.103929
-0.115212
-0.0605775
0.17579
-0.168452
0.195827
0.00564873
-0.0255508
0.0360859
-0.161214
0.125129
-0.146316
0.335543
-0.482859
0.617212
0.0639394
0.22918
0.387627
-0.0769265
-0.310701
-0.371429
0.110006
0.261423
-0.000439746
0.0209592
-0.371194
0.578624
0.619717
-0.315777
-0.43901
0.152525
0.286485
-0.0447653
0.0107102
0.00290516
-0.00195458
0.0230693
0.366015
0.222729
0.0904178
0.39803
0.021009
0.389037
-0.410046
-0.000221662
0.0318033
0.124532
0.529597
0.154307
-0.308317
0.000791158
-0.0251385
0.0243473
0.385001
-0.559264
0.174263
0.0864371
0.195787
-0.282224
-0.104442
0.533918
-0.202381
-0.0262936
-0.00402274
0.0303163
-0.270573
0.393299
-0.122726
0.217202
-0.512986
-0.0526161
0.141854
-0.0892384
0.00561383
0.0252789
0.120445
0.0270507
0.322206
-0.22733
0.478733
-0.150171
-0.328561
0.300551
0.319166
-0.00357522
-0.00326708
0.00684231
-0.0144079
0.120295
-0.530793
0.0123857
0.0352668
-0.261483
-0.564257
0.394098
0.170159
0.411864
-0.327662
-0.423018
0.577115
0.0211851
-0.473012
0.146514
-0.130882
-0.015632
0.226865
0.251809
0.451453
-0.108268
-0.10246
0.37931
-0.234113
-0.0165427
0.0129587
0.00358403
0.037505
0.0109211
-0.00813501
-0.219726
-0.0149606
-0.0143325
0.045445
-0.47675
0.206618
0.0181194
-0.0776366
0.466673
-0.404341
-0.159916
-0.151378
0.430777
-0.279399
0.337445
0.114008
0.0189078
-0.00173284
-0.017175
-0.148106
0.469804
0.107779
0.043185
0.434322
-0.114589
-0.23823
-0.569527
0.00177049
-0.00101363
-0.000756865
0.20738
0.368284
-0.0340666
-0.105277
0.126006
-0.251135
0.0391682
-0.113203
0.0740347
-0.244245
0.0357513
0.200547
-0.00545981
-0.195087
-0.00394766
-0.200948
-0.0257644
-0.310366
0.0646335
0.0275362
-0.110597
0.365508
-0.254912
0.000844983
0.00382558
-0.00467057
-0.141044
0.17688
-0.0358354
0.627512
0.419454
-0.28532
0.199813
-0.163727
-0.162568
-0.0214988
-0.315361
0.503619
0.0248283
0.00715255
-0.0319808
0.410246
0.150111
-0.158565
-0.0118311
0.0184719
-0.191988
0.610804
-0.418816
-0.106368
0.0892289
-0.257493
-0.144155
-0.352661
-0.0957213
-0.491814
-0.00629255
-0.121953
0.508495
-0.386542
0.384197
-0.267243
0.0806085
-0.0922169
-0.408894
-0.15037
0.0665685
0.0195718
0.00330392
-0.00687914
0.241707
-0.0222236
-0.219483
0.0180086
-0.0167857
0.410456
-0.0216857
0.587694
0.22267
-0.593199
0.445773
-0.108536
-0.398914
0.136197
-0.111965
-0.0242321
-0.099454
-0.231139
0.330593
0.338254
-0.513967
0.175713
-0.0918997
-0.325992
0.107405
-0.562121
0.022657
0.0580218
-0.0222642
0.294252
-0.0566109
0.0066264
-0.0105382
-0.081144
0.0916822
0.43411
-0.119609
0.129143
0.270792
-0.399935
-0.100975
-0.174229
0.143923
-0.224844
0.529689
-0.304845
0.346135
-0.478416
0.132281
-0.539488
0.346557
0.192931
-0.421463
-0.164417
-0.303637
0.58597
0.333651
0.200267
-0.00503089
-0.00289709
0.00792798
0.406351
0.0940975
-0.500448
0.00990855
0.0813641
-0.214287
0.25898
-0.206488
0.279104
-0.572782
0.450829
0.423569
-0.59288
0.169311
-0.113958
0.0265487
0.0874094
0.236716
0.0976889
-0.403907
0.55412
-0.402274
0.352057
0.125793
-0.477851
-0.356917
0.463229
-0.291686
-0.147324
-0.147107
0.62174
-0.321188
-0.240349
0.00604051
0.234309
-0.000674759
0.104429
-0.103754
0.398782
-0.417552
0.0187703
0.482422
0.104055
-0.0935108
0.446485
-0.352974
0.361103
-0.146912
-0.214191
-0.192023
-0.187973
-0.30071
0.0697413
0.230969
-0.141538
-0.192107
0.0510628
-0.342288
0.242834
0.335125
0.143608
-0.0252776
0.0736436
-0.048366
-0.146334
0.484588
-0.029931
0.0193833
-0.107994
0.090135
0.0178589
-0.136603
0.29091
0.12241
-0.118913
-0.00349684
0.454182
-0.46283
0.671113
-0.244419
-0.426694
0.124667
0.320578
-0.445245
0.369457
0.0577917
-0.427248
-0.167557
-0.340117
0.507674
0.499889
-0.0935383
-0.495521
0.495521
0.167966
0.386154
0.119879
-0.138257
0.569835
-0.14469
-0.425145
0.554888
-0.386922
0.379074
-0.184983
0.210773
-0.200261
-0.010512
-0.0112362
0.089952
-0.0668489
0.336237
-0.256561
-0.143569
-0.473112
0.136916
-0.143711
0.118594
-0.0276918
-0.090902
-0.0886796
0.326528
-0.0231258
0.115034
-0.117375
0.00234094
0.136324
-0.0294288
-0.106895
0.578795
-0.172467
-0.406328
-0.151292
0.00563509
0.474639
-0.140744
0.352806
0.290409
-0.326032
0.450699
0.0216946
-0.0216479
-4.67011e-05
0.0137897
0.111902
-0.195303
-0.302134
-0.0642305
0.432404
-0.364901
-0.133215
0.498116
-0.379626
-0.146081
-0.434519
0.123797
0.310722
-0.272777
0.40192
-0.352793
0.0727112
0.280082
-0.539894
0.292846
0.195837
0.0149363
0.307708
-0.0778173
-0.0193757
0.0183167
0.00105899
0.00976575
0.55294
0.189149
-0.180491
-0.00865877
-0.35339
-0.258788
0.0313929
-0.0089744
-0.0224185
0.193019
-0.0055516
-0.187467
0.00761249
0.0518551
-0.0594676
0.118587
-0.0235734
0.00598601
0.130211
0.00961153
0.137757
-0.00260736
-0.0240224
0.425481
-0.0266992
-0.0165363
0.0403896
-0.581378
0.220041
-0.246597
0.0265567
0.164817
0.405018
-0.0857849
0.222333
0.0273678
-0.249701
0.214669
-0.372015
0.157346
0.0256396
-0.00299688
-0.0226428
-0.0708956
0.270278
-0.199383
0.030367
0.342151
-0.0111393
0.126785
-0.115645
0.159261
-0.518253
0.392096
0.126157
-0.0813856
0.289857
-0.208471
-0.308471
0.654625
-0.25988
-0.394745
0.396953
-0.0960952
0.0925115
-0.145128
-0.00983945
-0.40002
-0.0609167
0.185069
-0.124152
-0.224774
0.488822
-0.264048
-0.243079
0.0421312
0.274233
-0.459017
-0.430009
-0.061214
0.0572949
0.11024
0.26518
0.405932
0.366373
-0.113984
-0.252389
-0.00813747
0.0058275
0.210173
0.000186148
0.1086
-0.12722
0.0186203
0.0689899
0.015929
-0.0849189
-0.502987
0.36952
0.133467
0.396479
0.182316
0.0852235
-0.0687665
-0.016457
0.296399
0.100555
0.174104
0.0026531
0.223977
-0.0497552
0.00622832
0.0435269
-0.0330089
0.402465
0.0333153
-0.116913
-0.019315
0.321423
-0.302108
-0.381929
-0.000479801
-0.396367
0.204345
-0.454908
0.347681
0.107227
-0.00387014
-0.00237575
0.0062459
-0.232708
0.0236851
-0.171289
0.61851
-0.447221
0.0846065
0.137727
-0.00183109
0.0960937
-0.0942626
0.124527
-0.307454
0.182928
-0.00763991
-0.0421153
-0.0199117
0.0864802
-0.501401
0.562513
-0.0611114
-0.22699
-0.00348609
0.230476
0.0282684
-0.00306485
-0.226897
-9.29687e-05
-0.0741849
0.0652897
0.00889516
-0.504024
0.0433344
0.46069
0.342338
-0.435849
-0.0158745
-0.000511693
0.0163862
0.0237243
0.0948695
-0.0053375
1.69502e-05
0.00532055
0.121356
-0.556823
0.435467
-0.0993341
0.437755
-0.105676
0.0040154
-0.0242704
-0.128387
0.0542975
0.27678
0.107417
0.465574
-0.119439
0.000996314
-0.172474
0.0545335
0.00548339
-0.0600169
-0.071032
-0.0118281
0.0828601
-0.390301
0.0656996
0.39002
-0.455719
-0.00858935
0.0658909
0.209545
-0.00742099
-0.202124
0.202459
0.315199
0.0890917
-0.107686
0.0198507
-0.143166
0.344965
-0.569632
0.41205
0.157582
8.58009e-05
0.00168469
-0.044728
-0.218375
0.565441
-0.113421
0.560274
-0.446852
-0.0135372
0.0383654
-0.526143
0.0247413
0.615893
-0.142141
-0.473909
0.249136
0.031462
0.32998
-0.446213
0.116233
0.14788
-0.0401004
0.114542
-0.175459
-0.0516528
-0.105801
-0.237563
0.343363
0.00136491
-0.00507457
0.00370965
0.463947
-0.237082
0.0840932
2.0401e-05
-0.0841136
0.0964598
-0.0971346
0.0179332
-0.492813
0.384078
0.108735
0.368375
0.132033
-0.500409
-0.00666648
0.1217
-0.204592
-0.358114
-0.0272276
0.410206
-0.228161
-0.311327
0.332889
-0.00934135
-0.0802139
-0.159386
-0.213649
-0.37488
0.00246494
-0.0218582
-0.189419
0.198315
-0.00889606
0.0160008
0.368074
-0.220118
-0.147956
0.598203
-0.14319
-0.455013
0.560386
0.203817
-0.205449
-0.07497
0.0696244
0.00647109
0.0070152
0.206687
0.40033
0.00469823
0.151539
0.202304
-0.5291
0.326796
-0.104458
-0.330534
0.434992
-0.1618
0.0269136
-0.0295209
-0.0215942
-0.189053
-0.295773
0.236653
0.110726
0.0246356
-0.0618395
-0.290953
-0.068846
-0.0654683
-0.108188
-0.384625
0.29491
-0.535706
-0.511829
-0.0501428
-0.190206
0.151752
-0.155252
0.537709
-0.399952
-0.00427606
-0.100667
0.104943
-0.491855
0.358677
0.133178
0.172489
-0.593952
-0.0670003
0.0356533
0.031347
0.0255592
-0.0285561
-0.162653
-0.231516
0.394169
-0.0261486
0.0185163
-0.337061
0.249492
0.087569
0.0272141
-0.0247491
0.18213
0.307376
-0.0364347
0.406436
-0.343447
0.455699
-0.112253
-0.100345
0.192944
-0.626382
0.433437
0.329729
-0.499555
0.169826
-0.328037
-0.03819
0.0408878
0.0378653
0.00669639
-0.0445617
0.0164472
0.172702
0.0494688
-0.0571087
0.0796989
-0.320904
0.241205
0.0294392
-0.00215542
-0.0272838
0.0429223
0.204859
-0.00104177
0.43119
-0.309835
-0.140259
-0.353196
0.493455
-0.42367
-0.501886
0.375284
0.126603
-0.0549282
-0.0311784
0.607966
-0.439187
-0.168779
0.258081
0.0215298
-0.27961
-0.370832
0.117053
-0.0897139
-0.00843566
0.0486644
-0.0134198
0.00733411
0.00608564
0.115992
-0.441916
0.325924
-0.0640843
0.0804922
-0.0164079
-0.226947
0.344767
0.251754
-0.326312
-0.205634
0.509895
-0.310638
-0.215505
-0.00304698
0.00192996
0.312262
-0.073652
0.0213669
-0.0205757
0.0948976
-0.12051
0.347875
0.117699
0.114234
-0.00436392
0.399734
0.224198
0.258276
-0.0207841
-0.388302
0.236923
-0.00687527
0.0976458
-0.0907705
-0.277167
-0.232422
0.332753
-0.202635
-0.130118
0.43657
0.335761
0.280419
-0.0836286
0.0817975
-0.233229
-0.0969473
0.330176
0.232727
-0.128291
-0.104436
-0.144018
0.473747
-0.00333045
-0.144355
0.0160256
-0.0145637
-0.00146191
0.326488
-0.483533
0.157046
-0.130894
-0.056992
-0.468597
0.0889709
0.391839
-0.0918259
-0.170922
-0.41297
0.583892
-0.0203303
0.0893202
0.0043903
0.21565
-0.18584
-0.199211
-0.0864935
0.285704
0.135675
-0.489945
0.35427
-0.1416
0.488784
-0.347184
0.622041
0.325228
0.173049
0.396698
-0.532137
0.135439
0.160957
0.0208572
-0.0431647
0.249599
-0.219232
-0.2775
0.421329
0.550804
-0.243081
0.561514
-0.031637
-0.529877
0.133279
0.00102825
-0.00894793
-0.0476629
0.100236
0.195277
0.341853