/*--------------------------------*- C++ -*----------------------------------*\
| =========                 |                                                 |
| \\      /  F ield         | OpenFOAM: The Open Source CFD Toolbox           |
|  \\    /   O peration     | Version:  v2012                                 |
|   \\  /    A nd           | Website:  www.openfoam.com                      |
|    \\/     M anipulation  |                                                 |
\*---------------------------------------------------------------------------*/
FoamFile
{
    version     2.0;
    format      ascii;
    class       surfaceScalarField;
    location    "300";
    object      phi_0;
}
// * * * * * * * * * * * * * * * * * * * * * * * * * * * * * * * * * * * * * //

dimensions      [0 3 -1 0 0 0 0];
oriented        oriented;


internalField   nonuniform List<scalar> 
20537
(
-0.378971
0.508255
-0.129284
0.00217076
-0.161808
0.159637
-0.184276
0.166566
0.0177106
-0.0215953
-0.301611
0.323206
-0.146699
0.162696
-0.0159976
0.269926
-0.437543
0.167617
0.198314
0.201798
-0.400112
0.24388
-0.0875632
-0.156316
-0.455749
-0.0941117
0.54986
-0.0382284
0.213858
-0.17563
0.609268
-0.222379
-0.386889
0.089522
-0.0903728
0.000850877
0.0906437
0.00973037
-0.100374
-0.00312175
0.0170015
-0.0138798
0.677009
-0.54613
-0.13088
0.2788
-0.287729
0.00892967
-0.0477025
0.283306
-0.235604
0.441058
-0.2488
-0.192258
-0.137365
0.147502
-0.0101365
0.0825787
-0.538327
0.346358
-0.367954
-0.0768295
-0.107447
-0.363933
0.584425
-0.220492
-0.690494
0.0984931
0.592001
-0.549409
0.185476
0.217661
0.0262183
-0.0878046
-0.180749
0.268554
-0.00152484
-0.000938727
0.00568426
-0.384655
0.227434
-0.35202
0.124586
0.434851
-0.164925
0.230714
-0.278416
-0.017899
0.184465
0.416602
-0.477222
0.0606202
-0.602279
-0.0882157
0.115253
-0.129443
0.0141902
-0.00280369
0.0923666
-0.0895629
0.199162
-0.120721
-0.0784415
0.137621
-0.175849
0.00271879
0.413883
0.0444284
0.337615
-0.382043
0.488739
-0.66311
0.174371
-0.00692828
0.00406399
0.00286429
0.307287
-0.586052
0.278765
0.574207
-0.26692
0.00318884
-0.0181848
0.014996
-0.575708
0.282033
0.293675
0.119709
-0.50214
0.382432
0.172702
-0.260507
0.288343
0.247657
-0.536
0.163782
-0.0183785
-0.145403
0.148526
-0.0775993
-0.0709269
-0.00275194
0.00274427
7.67236e-06
-0.735378
0.374644
0.360734
0.656279
-0.536821
-0.119458
0.662145
-0.173406
0.652669
-0.295784
-0.356885
0.00410089
-0.00304317
-0.00105772
-0.183021
0.410455
0.284011
0.0961943
-0.380206
0.0508386
0.148324
0.0357236
-0.0570974
0.0213738
-0.412649
0.297926
0.114723
-0.142784
0.127454
0.01533
-0.116162
0.292713
-0.176551
-0.44726
0.143828
0.303432
0.0700918
-0.0728955
-0.594285
0.319238
-0.213975
0.215779
-0.00180396
0.197685
0.243373
0.0146317
-0.0178797
0.00324799
0.0871145
-0.0784166
-0.00869785
0.141986
-0.139815
-0.292446
-0.442932
0.28162
-0.58588
0.304261
-0.528099
0.433597
0.0945021
-0.134554
0.057725
-0.0239453
0.00097386
0.0229715
-0.00120887
-0.174319
0.175528
0.0173961
-0.0014553
-0.1722
0.432593
-0.260393
0.523888
-0.0397316
-0.484157
-0.434347
-0.0512409
0.485588
0.011024
-0.000473588
-0.0105504
-0.319291
-0.0933573
0.0944024
-0.00488047
0.463337
-0.158268
-0.305069
0.0702574
0.162798
-0.233056
-0.261956
0.323601
-0.0616454
-0.358939
-0.248705
0.607644
0.0217886
0.0934645
-0.0970335
-0.315269
0.412303
-0.190428
-0.0903605
0.251345
-0.160984
-0.0279062
-0.23405
0.563136
-0.551358
-0.0117782
0.0304086
-0.177107
0.00532534
0.0371013
-0.0424266
-0.202754
0.491097
-0.0245902
0.587727
-0.000640214
0.00656784
-0.00592762
0.175603
-0.173063
-0.00254008
0.0755088
-0.382409
0.3069
0.267761
-0.0177291
-0.456828
-0.0991294
0.555957
-0.48773
0.370093
0.117637
-0.181297
0.177848
0.0034491
0.523392
-0.68126
0.157868
0.0672301
0.0095619
-0.143965
-0.293579
-0.540831
-0.0194038
0.560235
0.273753
-0.632692
0.307659
-0.404692
-0.651434
0.651434
-0.072069
-0.468762
0.375521
-0.153882
-0.0539064
0.0592318
0.0723
-0.471394
0.399094
-0.573748
0.575664
-0.00191597
-0.192805
0.562876
-0.370071
-0.00617674
-0.00075154
0.23648
0.0312812
0.0912532
-0.000609514
0.0506564
0.487115
-0.367406
-0.774253
0.347055
0.427198
0.105735
0.38138
0.158341
-0.187888
0.0295469
0.030395
0.315963
0.170254
-0.0835783
-0.0866762
0.42515
-0.380721
0.55623
-0.161666
-0.394564
0.0192197
-0.00458794
-0.552314
0.117966
0.225722
-0.572305
0.607017
-0.0347119
0.554819
-0.482519
-0.0720286
0.0885051
-0.0164765
-0.0211499
0.00986433
0.0112856
-0.041598
-0.0112663
0.0528643
0.00715887
-0.00779909
0.377267
0.279011
0.164384
-0.563455
0.399072
0.71737
-0.382689
-0.334681
0.411753
-0.0844136
-0.327339
-0.255014
-0.331038
-0.437748
0.613089
-0.175342
0.0439494
0.126305
-0.267755
0.466069
0.207987
0.36622
-0.00215182
0.130224
-0.422977
0.616181
-0.193204
-0.0086061
0.00548435
0.309829
0.34284
0.364398
-0.208298
-0.1561
0.304117
0.107636
-0.497048
0.187967
0.309081
0.233634
0.128368
-0.362002
0.0160097
0.132517
0.00298052
0.160801
-0.351765
-0.247047
0.598813
-0.0763116
0.225765
-0.149453
0.00194813
0.00215277
0.164307
0.391923
0.271522
-0.369999
0.0984762
0.640099
-0.229579
-0.41052
-0.681932
0.244184
0.00456042
-0.218536
-0.319047
0.349442
0.0387702
0.00542202
-0.0441922
0.000205191
-0.0241505
0.240481
-0.545123
0.304642
-0.174256
-0.322791
-0.00197814
-0.0396199
0.565909
-0.401602
-0.196108
-0.306033
0.183568
-0.0252271
0.534674
-0.509599
-0.0250753
-0.0171317
-0.120233
-0.518832
0.666289
-0.147456
-0.270671
0.0560797
0.214592
0.0150859
-0.130333
-0.362418
0.492751
0.048977
-0.156424
-0.362377
-0.23516
0.597537
-0.448531
0.614491
-0.165959
-0.170952
-0.276307
0.35695
-0.549756
-0.167961
0.158101
0.00985979
0.232571
0.0155479
-0.248119
-0.25647
-0.00194852
-0.000803422
0.265799
-0.542769
0.27697
0.186213
-0.21065
0.0244375
0.0593068
-0.0235832
0.401259
-0.179023
-0.222236
0.540972
-0.376589
-0.169973
0.491122
-0.321149
0.460438
0.0742363
-0.428676
-0.0994228
-0.305081
-0.469172
0.0144409
0.0237476
-0.0381885
-0.580376
0.0842014
0.496174
-0.540292
0.146787
0.393505
-0.0223403
0.220854
-0.198513
-0.492806
0.362473
-0.0233216
-0.0136052
0.0369269
0.148751
0.14077
-0.289522
0.0290086
-0.00192844
-0.0270802
0.127969
0.442201
-0.570171
-0.0150456
-0.0340484
0.049094
-0.354506
0.430014
-0.504791
0.204161
0.300631
0.451389
-0.6345
0.183111
-0.718689
0.429981
0.288708
0.634985
-0.240165
-0.39482
-0.16592
0.408479
-0.242558
-0.00684667
0.0100355
-0.108913
-0.410506
0.519419
0.0308857
-0.00187706
0.265465
-0.116714
0.194091
-0.36629
-0.00439197
0.0480865
-0.0436946
-0.0678904
0.145038
-0.0771475
0.000282285
0.0346137
-0.034896
-0.598734
0.580091
0.0186429
-0.0465666
-0.191573
0.238139
-0.525707
0.0688788
-0.00576675
0.00356228
0.00220447
0.672089
-0.2207
0.219098
-0.00143704
0.326269
-0.267051
-0.059218
-0.284922
0.525402
0.539552
-0.155567
0.146724
0.00884376
-0.0626146
-0.245706
0.308321
0.0181344
-0.0414561
0.128013
-0.244175
0.279908
0.437461
-0.455925
-0.0843667
0.138546
0.296305
0.33713
-0.494582
0.157452
0.574686
0.0568882
-0.631574
-0.199286
0.176945
0.456129
-0.555258
0.0285358
0.004161
-0.0326968
0.194028
-0.0184249
0.475548
-0.415291
-0.0602573
-0.395912
0.293899
0.102012
-0.22339
-0.123599
0.346989
0.652537
-0.382585
-0.269952
0.505726
-0.168596
-0.245776
-0.107568
0.353344
-0.0917943
-0.0311249
-0.120245
0.15137
0.442584
-0.167828
-0.274756
0.263904
-0.0313335
0.00871741
0.0797877
0.00730372
-0.0153821
0.00807841
-0.189662
-0.347306
0.536968
-0.438781
-0.446904
0.348129
0.0987751
0.382379
-0.106335
-0.276045
-0.629841
0.207428
0.422413
-0.130855
0.103529
0.0273265
0.188346
0.212914
-0.367599
0.121824
-0.207156
0.116796
0.0487535
-0.0531454
0.422644
0.147003
-0.569647
0.290465
0.362073
0.185375
0.479054
-0.138832
-0.340222
0.176762
-0.177971
0.255752
0.0230479
-0.534594
0.372928
0.600839
-0.0769506
0.601657
-0.176689
-0.424967
-0.000983871
0.0356027
-0.0346189
0.124761
0.484507
0.0252758
0.54941
0.0800326
-0.557488
0.477456
-0.502473
0.598747
-0.0962745
-0.151303
0.120178
0.0114492
0.37093
0.42659
-0.216575
-0.210015
0.0334904
0.454176
-0.487666
-0.383347
0.498278
-0.114931
0.119945
0.359109
-0.65068
0.289673
0.361006
0.144671
-0.100721
0.149546
-0.332567
-0.105126
0.389137
-0.218859
0.216874
0.0019849
-0.383679
-0.267001
-0.0404873
-0.0903677
0.0706904
0.169911
-0.240602
0.0489132
0.0454892
0.434674
-0.570354
0.13568
0.0351145
-0.00657862
0.106851
-0.183162
0.0799205
0.203386
-0.0130477
-0.0279994
0.0410471
-0.142091
0.366783
-0.224692
-0.340016
-0.147714
-0.0403862
0.0376964
0.00268972
0.481099
-0.447608
-0.0150893
-0.145659
0.160749
0.227143
0.024202
-0.223458
0.373004
-0.0029149
-0.018235
0.222043
-0.151353
0.38664
-0.362012
-0.024628
0.0464085
-0.0585423
0.0121339
0.650656
-0.257372
-0.393284
0.05586
-0.27925
0.736576
-0.370528
-0.366048
-0.0461436
0.0451598
0.125708
-0.0156538
-0.110054
-0.508858
0.399945
-0.190988
0.0466279
0.14436
-0.262331
0.491025
-0.228695
0.0267093
-0.0194056
0.00292115
0.442239
-0.445161
-0.454716
0.643215
-0.188499
0.610394
-0.249844
-0.36055
0.125694
1.4015e-05
0.199777
-0.246343
-0.323749
0.0730425
0.250707
0.108367
-0.369871
0.22778
0.327587
0.0590535
0.419439
-0.641818
0.00947818
-0.0151835
-0.0397354
-0.0128473
0.0525827
0.0845867
-0.38608
0.301493
0.0402226
-0.0532703
-0.00112304
-0.0720651
0.0731881
0.384563
-0.0197608
0.205973
0.12244
0.0222304
0.555978
-0.340274
-0.215704
0.0314492
0.219351
-0.2508
0.00116006
0.113937
-0.115097
0.107014
-0.234022
0.515364
-0.281342
0.290946
-0.00956741
-0.281379
-0.00642229
-0.0323974
0.0388197
0.03953
-0.58566
0.645069
-0.0654575
-0.579611
0.154041
0.491027
0.170555
-0.0369766
-0.133578
-0.109363
-0.214386
-0.206759
0.238208
-0.00231689
-0.00344986
-0.493796
0.319539
-0.034097
0.325043
0.358301
0.252093
-0.501886
0.239555
-0.112763
0.568892
-0.0545233
0.577915
-0.183288
0.552816
-0.369529
0.0366873
-0.0431096
0.637858
-0.314103
-0.323755
0.31581
-0.443121
0.127311
0.178657
-0.193746
-0.653764
0.358928
0.294835
0.0853035
-0.0363903
-0.301347
0.23749
0.0638574
0.262087
-0.342385
0.0501177
-0.0113475
-0.119765
0.435575
-0.250954
0.0850336
-0.0316502
-0.196775
0.228426
-0.180163
0.44225
0.0866028
-0.447368
0.360766
0.159104
-0.630498
0.206784
0.21117
-0.417954
-0.000430716
0.00396649
-0.00353578
0.63857
-0.022728
0.0198131
0.240709
-0.103049
0.104209
-0.0393666
0.0447886
-0.659325
0.133513
0.525811
-0.146407
-0.512918
-0.0133484
-0.338436
0.351784
0.632031
-0.154622
-0.477409
0.515722
-0.52964
0.0139172
0.39167
-0.307083
-0.0866081
-0.10438
0.0068383
0.0101632
-0.255728
0.216907
0.0388211
-0.0436952
0.0439775
0.0432331
-0.00940757
-0.0338256
-0.397076
-0.256687
0.232821
-0.422483
0.0103823
0.00470353
-0.0186377
0.0139342
0.0982281
0.228041
-0.0499572
-0.00394927
0.442962
-0.236178
-0.215844
0.184194
0.501041
-0.534558
0.0335173
-0.0924233
0.0913002
-0.436066
0.516235
-0.0801689
-0.109135
-0.178594
0.367796
-0.381144
-0.448175
0.34146
0.106715
0.0534842
0.0942176
0.386881
0.318092
0.322007
-0.121619
-0.0211655
0.22983
0.0648035
-0.294634
-0.0152179
-0.0105649
0.0257828
0.348504
0.0130117
-0.361516
-0.134669
-0.446653
0.0293886
0.417264
0.309754
0.195972
-0.330065
0.0914548
0.23861
0.171076
-0.000521747
0.286859
-0.206939
0.177277
0.457708
0.122111
0.432708
0.49552
-0.401303
0.0932807
-0.541812
0.135238
-0.155305
0.0200675
0.185064
-0.497258
0.312194
0.128627
-0.117466
-0.0111614
-0.0575692
-0.389084
0.0114915
-0.187453
-0.289769
0.123321
0.139899
-0.0601803
-0.095387
0.444504
-0.357901
0.478848
-0.169095
0.65921
-0.499243
-0.159967
-0.163981
0.0254267
0.138555
-0.286448
0.500716
-0.214267
0.00389347
0.177562
-0.181455
-0.0217287
-0.00351318
0.0252419
0.590994
-0.130556
-0.631425
0.207555
0.42387
-0.563849
0.277401
0.00265499
-0.00704405
0.305763
-0.66814
-0.227864
0.22474
0.00312341
0.00924856
0.560771
-0.138127
-0.48724
0.543329
-0.0560891
-0.403203
0.105626
0.297577
0.131665
0.0252677
-0.102867
0.079679
-0.363282
0.283603
0.0837578
-0.0450324
-0.0387254
-0.546099
-0.0526343
-0.563336
0.313493
0.00148888
0.00540177
-0.00689066
-0.0745654
0.346088
-0.457111
0.537144
0.20138
-0.131122
0.464322
0.167709
0.206644
-0.156759
-0.376635
0.533394
0.111212
0.18919
-0.300402
-0.12576
-0.244191
0.369952
-0.429519
0.46101
0.129985
-0.0141925
0.060601
0.379705
-0.430946
0.203838
-0.197447
-0.00639041
-0.0791093
-0.493196
0.259678
-0.380035
0.120357
-0.641688
0.189903
0.451785
0.562706
-0.562706
0.517659
-0.156225
-0.361434
-0.55294
0.134353
0.51708
-0.187425
0.464139
-0.276714
0.260089
0.109325
-0.369414
0.31706
-0.475328
0.116375
-0.478792
-0.166245
0.667286
-0.0135293
0.0134963
3.30182e-05
0.00191772
-0.0236464
0.141515
0.321698
-0.463213
0.401132
-0.141454
-0.286797
-0.0432679
-0.23407
-0.260511
0.0140505
-0.00302651
-0.364166
-0.19917
0.304583
0.333274
-0.0751883
-0.37218
-0.153125
0.0033848
0.14974
-0.333495
-0.0656408
0.399136
-0.00766718
0.0069286
0.000738579
-0.132964
0.544388
-0.411424
0.00190397
0.000840305
-0.234398
0.250335
-0.0159365
-0.213001
-0.450109
0.216203
0.184929
0.0484197
-0.0195385
-0.0288811
0.210368
0.00872995
-0.458269
0.454135
0.00413369
-0.518993
-0.0547553
0.385784
-0.433398
0.0476133
-0.572576
0.0357551
-0.169091
0.577886
-0.408795
-0.578829
0.187459
0.391371
-0.449175
0.338421
0.110754
0.022504
-0.0178004
-0.157275
0.156235
0.00103983
0.128397
-0.0185905
-0.109806
0.0965266
-0.0923093
-0.0042173
0.0891873
0.326289
-0.678054
-0.0793058
-0.0176842
0.09699
0.510533
-0.325469
-0.0578105
-0.212861
0.00471253
0.221052
-0.48018
0.24611
-0.381021
0.431677
-0.0620088
0.0469632
-0.516825
-0.00991096
0.526736
-0.00239456
-0.00527262
-0.00413434
0.028387
-0.0139461
-0.147955
-0.144943
0.361146
0.48277
-0.318354
-0.469289
-0.162136
0.35463
0.0879544
0.288862
-0.458835
-0.148788
0.0334024
0.115385
0.35398
-0.120347
-0.104897
-0.0438911
0.0733787
-0.00634822
-0.0670305
-0.536736
0.403772
0.132368
-0.154294
0.00265406
-0.0208245
0.0181705
0.378743
-0.0848439
0.333895
0.171748
-0.505643
-0.354574
0.542541
0.337237
0.12045
-0.457687
-0.0147843
-0.153177
0.243484
0.0575511
-0.301035
-0.0711248
0.233923
0.0484876
0.0352702
-0.437573
0.596151
-0.158579
0.00690577
-0.00541688
0.00142855
-0.026628
0.0251994
0.489812
-0.37965
-0.110162
0.218905
0.291628
0.208398
0.578593
-0.477664
-0.100929
0.401408
0.473527
0.0571737
-0.5307
-0.0945557
0.01525
-0.225523
0.0172245
0.120346
-0.119887
-0.000458732
-0.0862073
0.103471
-0.0172641
0.211258
0.450887
-0.382017
0.433786
-0.051769
-0.0490161
0.421017
-0.372001
-0.199401
0.162425
-0.141978
0.147489
-0.00551073
0.00227345
0.0202305
-0.00534988
0.0718545
-0.0665046
0.349962
-0.10773
-0.340445
-0.139517
0.106163
0.0333547
0.00284698
-0.098162
-0.00946089
0.107623
-0.118527
-0.137201
0.402211
-0.104285
-0.573356
0.314502
0.195451
-0.509953
-0.130579
0.693447
-0.482189
0.285644
0.0930994
0.181634
0.484655
-0.160695
-0.395584
0.556279
0.0760307
-0.00265196
0.157863
-0.47038
0.412811
0.294556
0.398891
0.00644708
-0.0291751
0.331157
0.159965
0.631103
-0.183771
-0.447332
-0.415133
0.5637
-0.148567
-0.0922176
-0.537623
0.555252
0.00122813
-0.00165885
0.366016
0.109532
-0.138775
0.0108157
0.0175713
0.43184
-0.0460558
-0.0499265
-0.163804
0.213731
-0.015828
0.018482
-0.0204339
0.0185055
0.151398
-0.385421
0.0212128
0.194567
0.0605518
0.518042
0.431495
-0.236054
0.0171208
0.218933
0.00958396
-0.0701775
0.0605935
-0.311084
0.301517
0.000752873
0.119593
-0.275207
0.0352467
0.23996
0.0809537
-0.477717
0.396763
-0.314861
0.243318
0.0715435
0.129245
-0.52536
0.396115
-0.0176386
-0.44063
0.134422
-0.14346
0.00903731
-0.371701
0.488076
-0.305326
-0.0807539
0.0224937
-0.509733
0.146369
-0.226714
0.0803446
0.115343
0.0132838
0.411222
-0.315028
0.103718
0.340786
-0.11376
-0.187587
0.062576
-0.317791
0.255215
0.147912
0.147342
-0.0121039
0.0401131
-0.108004
-0.302981
0.0699386
0.233042
0.0110511
-0.109213
0.470399
-0.389445
0.108571
-0.343104
0.234533
-0.379664
0.0192707
-0.00845505
0.134133
-0.488639
-0.632482
0.290243
0.342239
-0.0015917
0.0688218
-0.208181
0.424231
-0.21605
-0.00814286
-0.0312237
0.0318231
-0.0351004
0.00327728
0.00274047
-0.000551193
-0.00218928
0.0552164
0.146163
0.0807021
-0.516768
-0.0800083
-0.460842
0.486117
0.339733
-0.537133
0.197401
0.122781
0.421607
0.380934
-0.54163
-0.612166
0.27169
0.340476
-0.0309341
0.379438
-0.227392
0.338604
0.701191
-0.406635
-0.0778398
-0.00819984
0.0860397
0.029506
0.00917209
-0.0870119
0.160291
-0.543566
0.383275
0.137757
-0.557347
0.41959
0.626308
-0.14531
-0.480998
8.91893e-05
0.122351
-0.0194927
-0.0395236
0.0590163
0.110018
-0.150974
0.0409562
-0.060787
0.128902
-0.589744
-0.451827
-0.0827319
-0.135488
-0.453853
0.589341
-0.255911
0.42581
-0.169899
0.0607493
-0.0861101
0.0253609
0.0355901
-0.0609813
0.0253912
-0.253039
0.315615
0.24014
0.461052
-0.136921
-0.312254
-0.47053
0.214619
0.152608
-0.172622
0.0200143
0.00275118
-0.00080712
-0.00194406
-0.0591097
0.0432708
-0.0626144
0.0193436
-0.389239
-0.0441585
0.457249
-0.353531
0.135361
-0.0069645
0.00662148
-0.197646
-0.0425087
-0.0478641
0.116955
0.315638
-0.249219
0.150964
-0.0409463
0.36114
0.493023
-0.351291
0.0682254
0.387763
0.271447
0.13105
0.0527934
0.0251966
-0.0287098
0.151846
-0.544819
0.392973
0.390709
-0.113579
-0.27713
0.30017
0.10204
-0.567674
0.398584
0.286794
-0.253944
0.373889
-0.0289095
0.00152941
0.0273801
-0.00349621
0.137918
0.127886
-0.0243573
-0.416001
0.549514
-0.452866
0.560356
-0.400065
0.00221274
-0.0157421
-0.0999925
0.0137852
-0.297467
0.234852
-0.00625887
0.038082
0.165129
-0.585369
0.42024
-0.0086484
-0.483263
0.491912
-0.414625
0.387484
0.0443562
0.0787135
0.00612856
-0.0848421
0.341157
-0.112768
-0.228389
-0.417891
0.095835
0.322056
-0.197556
-0.444132
0.0726176
0.219474
-0.292091
0.409544
0.216764
0.00183305
0.00464928
-0.00648233
0.135325
-0.303153
0.0315853
-0.0311674
-0.000417938
0.437656
0.0886554
-0.341694
-0.000996909
0.0198344
-0.0188375
-0.00105106
0.000420436
0.000630627
-0.0740918
0.0958804
-0.382409
0.511654
0.0572946
-0.0660155
0.00872088
-0.18984
0.630034
-0.452757
-0.026382
0.169045
-0.142663
0.183208
-0.179314
-0.133893
0.322139
-0.188245
-0.00410619
0.567753
-0.225571
-0.342182
-0.588521
0.371673
0.216848
-0.0116111
0.103978
-0.147961
-0.484521
-0.580376
-0.362481
0.236721
0.11956
0.350839
-0.00628058
0.00811363
-0.208493
0.0446877
0.163806
-0.11671
-0.348966
-0.121414
0.431918
-0.608607
-0.395138
-0.360278
0.566009
-0.0599517
-0.506057
0.229317
-0.406075
0.528857
-0.12436
-0.353117
0.477476
-0.616681
0.24424
0.37244
-0.00328932
0.0409857
-0.537862
-0.518407
0.0164058
0.502002
-0.0995471
0.454908
-0.355361
-0.44076
0.33303
0.0211095
-0.0221065
-0.545635
0.00344158
0.542193
0.524712
-0.380023
-0.144689
0.0820167
0.0411954
-0.123212
-0.0192514
0.171859
-0.183579
0.495195
-0.311616
0.188258
0.340254
-0.528512
0.221366
-0.360198
-0.0139544
0.0572252
-0.107511
-0.0523409
0.00450031
0.0478406
0.191118
-0.0600681
-0.5001
0.343341
0.568972
-0.401451
-0.16752
0.00448742
-0.000423435
-0.241933
0.463299
0.094874
-0.329685
0.234811
-0.57306
-0.44112
-0.344945
-0.171514
-0.00323609
0.17475
-0.125105
0.260886
-0.135781
-0.1957
0.365611
0.411327
0.157645
-0.499176
-0.0176494
0.388157
0.136555
0.0950136
0.0235641
-0.514108
0.323346
0.190762
0.00775151
0.15035
-0.299635
-0.299814
0.38847
-0.145373
0.105886
-0.135626
0.0297403
-0.00781117
0.117823
0.223334
-0.0292255
0.00455134
0.0246741
0.00208608
0.0944405
-0.366734
-0.0740263
-0.0125341
-0.0150623
0.0275965
0.334629
-0.226058
-0.0515268
0.0631289
-0.0116021
-0.00500986
-0.0238996
-0.0223238
-0.0264164
0.0487402
0.589073
-0.279777
-0.309296
-0.226212
-0.00777384
0.233986
-0.38054
0.300886
0.0907841
0.00149163
-0.0045348
-0.0130077
-0.530606
0.141339
0.389266
0.586478
-0.594863
0.00838495
-0.00356791
0.150291
-0.302191
0.535081
-0.23289
-0.414451
0.561404
-0.146953
-0.000802661
0.0014486
-0.000645935
-0.398049
0.563178
0.343185
-0.453259
0.110074
-0.000878806
0.0205167
-0.000939751
-0.019577
0.034255
-0.450256
0.480313
-0.140581
-0.498107
-0.00377925
-0.00120302
0.000151961
0.0861405
-0.0253912
0.10987
-0.119331
-0.18477
-0.30359
0.48836
-0.0551441
0.0422968
-0.0837555
-0.115646
-0.0707623
0.0512696
0.0104957
0.167352
0.175609
0.00304737
-0.0756164
0.0689958
-0.402491
-0.0259895
0.167975
-0.00679709
0.147793
-0.140996
-0.0106808
-0.00795686
0.488431
-0.0454687
-0.00162897
0.00292975
0.00518387
0.00939119
-0.060918
0.0216795
-0.0202509
0.319734
0.115141
-0.434874
0.201477
-0.0220377
-0.17944
0.474633
0.15647
-0.0596627
0.277416
0.113293
0.0702185
-0.024833
-0.0453855
0.654129
-0.654129
-0.0200033
-0.00695753
0.0269608
-0.538372
0.123921
0.124118
-0.0421017
-0.431305
0.535234
-0.103929
-0.115211
-0.0606599
0.175871
-0.168454
0.195827
0.00565057
-0.0255131
0.0360885
-0.161216
0.125127
-0.146318
0.335509
-0.482859
0.617212
0.0639382
0.230482
0.387792
-0.0769483
-0.310843
-0.371428
0.110006
0.261422
-0.000439057
0.0209558
-0.371196
0.578623
0.620098
-0.315515
-0.43901
0.152525
0.286485
-0.0447596
0.0107111
0.00303206
-0.00195638
0.0230659
0.366368
0.222705
0.0904624
0.397968
0.0210095
0.389036
-0.410046
-0.000213171
0.0317985
0.124532
0.529597
0.154207
-0.308089
0.00079219
-0.0251321
0.0243399
0.385002
-0.559264
0.174263
0.0864381
0.195787
-0.282225
-0.104467
0.534382
-0.203225
-0.0261911
-0.00426608
0.0304571
-0.270574
0.393299
-0.122726
0.217202
-0.512986
-0.0527918
0.141928
-0.0891365
0.00561407
0.0252716
0.120439
0.0270496
0.322204
-0.22733
0.478724
-0.150162
-0.328561
0.300973
0.319126
-0.0035212
-0.00328269
0.00680389
-0.0144077
0.120293
-0.530793
0.0123857
0.0352809
-0.261493
-0.564257
0.394098
0.170159
0.411864
-0.327663
-0.423264
0.577305
0.0211851
-0.473012
0.146647
-0.130894
-0.0157522
0.227711
0.251137
0.451453
-0.108268
-0.102446
0.37931
-0.234113
-0.0165357
0.0129536
0.00358211
0.0374446
0.010975
-0.00813474
-0.219729
-0.0147401
-0.0144854
0.0454448
-0.47675
0.206621
0.0181193
-0.0776369
0.466673
-0.404341
-0.159916
-0.151379
0.430778
-0.279399
0.337445
0.114009
0.0189016
-0.00173313
-0.0171684
-0.148106
0.469804
0.107777
0.043187
0.434323
-0.114589
-0.238231
-0.569671
0.00177155
-0.000998254
-0.000773299
0.20738
0.368284
-0.0344082
-0.105109
0.125971
-0.251076
0.0391757
-0.113198
0.0740218
-0.244249
0.0357562
0.20055
-0.00545809
-0.195092
-0.00394556
-0.20095
-0.0257637
-0.310383
0.0646768
0.0277097
-0.110615
0.365043
-0.254428
0.000821384
0.00380965
-0.00463103
-0.14105
0.176886
-0.0358356
0.627426
0.419454
-0.285321
0.199815
-0.163726
-0.162567
-0.0216397
-0.315361
0.503619
0.0247083
0.00740846
-0.0321167
0.410246
0.15011
-0.158564
-0.0116855
0.0185238
-0.191983
0.610811
-0.418827
-0.106347
0.0892152
-0.257493
-0.144155
-0.352628
-0.0957212
-0.491814
-0.00629273
-0.121957
0.508494
-0.386536
0.384197
-0.267243
0.0806131
-0.0922241
-0.408894
-0.15037
0.0665758
0.0195647
0.00331624
-0.00683744
0.241663
-0.0221719
-0.219491
0.0182961
-0.0167667
0.410456
-0.0216857
0.587695
0.222701
-0.593228
0.445773
-0.108536
-0.398914
0.136196
-0.111965
-0.0242315
-0.0994547
-0.231139
0.330593
0.338254
-0.513967
0.175713
-0.091899
-0.325992
0.107405
-0.562121
0.0226534
0.0579705
-0.0223804
0.294434
-0.0566127
0.00665557
-0.0105454
-0.0811453
0.0916907
0.434111
-0.119609
0.129702
0.270613
-0.400315
-0.100977
-0.17423
0.143923
-0.224797
0.529661
-0.304863
0.34638
-0.478648
0.132267
-0.539537
0.346331
0.193206
-0.421464
-0.164417
-0.303856
0.585888
0.333581
0.200801
-0.00508041
-0.00281339
0.0078938
0.406351
0.0940975
-0.500448
0.00989687
0.0813563
-0.214292
0.25898
-0.206488
0.279106
-0.572773
0.450816
0.423569
-0.592881
0.169312
-0.114115
0.0264787
0.0876366
0.23679
0.0978387
-0.404
0.55412
-0.402273
0.352057
0.125794
-0.477851
-0.357075
0.462809
-0.291686
-0.147325
-0.147195
0.622129
-0.321156
-0.23992
0.00592949
0.233991
-0.000666643
0.104407
-0.103741
0.398977
-0.417423
0.0184452
0.482422
0.104055
-0.093511
0.446485
-0.352974
0.361217
-0.146926
-0.214291
-0.192031
-0.188004
-0.300711
0.0697425
0.230969
-0.141593
-0.192113
0.0510631
-0.342288
0.242834
0.335121
0.143603
-0.0253727
0.0735247
-0.0481521
-0.146334
0.484588
-0.0299423
0.0193774
-0.107992
0.0901236
0.0178687
-0.136277
0.290485
0.122394
-0.118903
-0.00349076
0.454182
-0.46283
0.671112
-0.244418
-0.426694
0.124667
0.320577
-0.445244
0.3689
0.0583236
-0.427223
-0.16693
-0.340598
0.507528
0.499889
-0.0935383
-0.495522
0.495522
0.167966
0.386153
0.119877
-0.138256
0.569835
-0.14469
-0.425145
0.554888
-0.386922
0.379074
-0.184984
0.210776
-0.200263
-0.0105137
-0.0112412
0.0899547
-0.0668989
0.33626
-0.256581
-0.143569
-0.473112
0.136916
-0.143713
0.118543
-0.0276681
-0.0908744
-0.0886805
0.326528
-0.0232052
0.11506
-0.117297
0.00223667
0.136324
-0.0294284
-0.106896
0.578795
-0.172467
-0.406328
-0.151293
0.00563335
0.474639
-0.140744
0.352806
0.290409
-0.326032
0.450699
0.0216958
-0.0216462
-4.96307e-05
0.0137907
0.111904
-0.195034
-0.302223
-0.0642317
0.432478
-0.364901
-0.133215
0.498116
-0.379626
-0.146081
-0.434519
0.123797
0.310722
-0.272581
0.402283
-0.352463
0.0728519
0.279611
-0.539893
0.292846
0.195839
0.0149376
0.307753
-0.0779233
-0.0193693
0.01831
0.00105925
0.00976577
0.55294
0.188689
-0.180056
-0.00863325
-0.353371
-0.258795
0.0313339
-0.00909587
-0.022238
0.193038
-0.00552939
-0.187509
0.00761945
0.0518483
-0.0594677
0.118589
-0.023575
0.00598591
0.13021
0.00952849
0.137813
-0.00261086
-0.0240171
0.425428
-0.0264511
-0.0165803
0.0403279
-0.581378
0.220145
-0.246611
0.0264659
0.164817
0.405018
-0.0857848
0.222335
0.0273669
-0.249702
0.21467
-0.372015
0.157346
0.0256357
-0.00299895
-0.0226368
-0.0708918
0.270278
-0.199386
0.0303673
0.342352
-0.0111354
0.126771
-0.115636
0.158106
-0.518253
0.392096
0.126157
-0.0813863
0.289858
-0.208472
-0.308468
0.654625
-0.259879
-0.394746
0.396955
-0.096069
0.0923384
-0.14513
-0.00916263
-0.400121
-0.0617161
0.185342
-0.123626
-0.224774
0.488822
-0.264048
-0.243081
0.0421305
0.274231
-0.459001
-0.430037
-0.0612135
0.0572642
0.110263
0.26518
0.405932
0.366373
-0.113985
-0.252389
-0.00813577
0.00574122
0.210188
0.000180579
0.10877
-0.127454
0.0186838
0.0689485
0.01591
-0.0848585
-0.503104
0.369519
0.133585
0.396479
0.182316
0.0852225
-0.0687577
-0.0164647
0.296426
0.100529
0.174105
0.00265686
0.223979
-0.0497533
0.00623307
0.0435202
-0.0336701
0.40257
0.0333287
-0.116907
-0.0195338
0.321616
-0.302082
-0.38193
-0.000478608
-0.396395
0.204363
-0.454909
0.347681
0.107227
-0.00386114
-0.0023539
0.00621504
-0.232663
0.0236794
-0.170912
0.618321
-0.447409
0.0846082
0.137727
-0.00182752
0.0960924
-0.0942648
0.124527
-0.307455
0.182928
-0.00764476
-0.0421085
-0.019904
0.0864798
-0.501401
0.562513
-0.0611114
-0.226809
-0.00359251
0.230402
0.0282635
-0.00306681
-0.226874
6.49673e-05
-0.0741782
0.0652825
0.00889571
-0.504025
0.0433344
0.46069
0.342338
-0.435849
-0.0158686
-0.000512184
0.0163808
0.0236973
0.0948452
-0.00526476
-6.40747e-05
0.00532884
0.121356
-0.556823
0.435468
-0.0993347
0.437756
-0.105676
0.00401691
-0.0242679
-0.128391
0.0542989
0.27678
0.107417
0.465765
-0.119384
0.000989078
-0.172503
0.0543574
0.00570094
-0.0600583
-0.0710239
-0.0118369
0.0828608
-0.390178
0.0656999
0.39002
-0.45572
-0.00859218
0.0658868
0.209546
-0.00742051
-0.202125
0.202459
0.315199
0.089094
-0.107684
0.0197832
-0.143167
0.344965
-0.569632
0.41205
0.157582
7.99444e-05
0.00169161
-0.0447214
-0.218386
0.565441
-0.113421
0.560274
-0.446852
-0.0137723
0.0384805
-0.526143
0.0247413
0.615799
-0.142272
-0.473909
0.249136
0.0317781
0.32998
-0.446213
0.116233
0.14788
-0.0401022
0.114081
-0.175797
-0.0516295
-0.105801
-0.237563
0.343364
0.00136307
-0.00506601
0.00370294
0.46435
-0.236639
0.0840203
0.000170341
-0.0841906
0.09645
-0.0971167
0.0177287
-0.492869
0.384031
0.108838
0.368376
0.132033
-0.500409
-0.00656682
0.121627
-0.204592
-0.358115
-0.0272277
0.410207
-0.22865
-0.310887
0.332889
-0.00934296
-0.08022
-0.159386
-0.213656
-0.374865
0.00245549
-0.0218611
-0.189439
0.198347
-0.00890801
0.0160678
0.368074
-0.220118
-0.147956
0.598256
-0.143205
-0.455051
0.560387
0.20382
-0.205449
-0.0749688
0.0696189
0.00640212
0.00709418
0.206687
0.40033
0.00469565
0.15154
0.201674
-0.528925
0.327251
-0.104458
-0.330534
0.434992
-0.1618
0.0269078
-0.0295186
-0.0215966
-0.189053
-0.295763
0.236653
0.110722
0.0246388
-0.0619748
-0.290488
-0.0688402
-0.0654608
-0.108324
-0.384545
0.29541
-0.535575
-0.511875
-0.0499434
-0.189977
0.151753
-0.155249
0.537709
-0.399952
-0.00427821
-0.100667
0.104945
-0.491855
0.358677
0.133178
0.172489
-0.593952
-0.0669015
0.0357562
0.0311453
0.025553
-0.0285519
-0.162655
-0.231517
0.394172
-0.0262929
0.0187076
-0.33733
0.249663
0.0876668
0.0272122
-0.0247567
0.182228
0.307584
-0.0365298
0.406623
-0.343447
0.4557
-0.112253
-0.100539
0.192992
-0.626562
0.433569
0.329729
-0.499551
0.169822
-0.328037
-0.0381913
0.0408811
0.037851
0.00671267
-0.0445637
0.0164926
0.172196
0.0494622
-0.057107
0.0796951
-0.320878
0.241183
0.0294317
-0.0021548
-0.0272769
0.0429204
0.20486
-0.00103984
0.431191
-0.309835
-0.140259
-0.353196
0.493455
-0.423411
-0.501887
0.375284
0.126603
-0.054924
-0.0311861
0.607966
-0.439187
-0.168779
0.258081
0.0215295
-0.279611
-0.370835
0.11701
-0.0896838
-0.00843461
0.0486572
-0.0134866
0.00726823
0.00621834
0.115992
-0.441915
0.325923
-0.0640758
0.0804903
-0.0164144
-0.226944
0.344767
0.251741
-0.326307
-0.205634
0.509895
-0.310638
-0.215505
-0.00298494
0.00192722
0.312258
-0.0736485
0.0213609
-0.0205687
0.0946763
-0.120666
0.34819
0.117575
0.114235
-0.00436495
0.399734
0.224198
0.258256
-0.0207661
-0.388302
0.236923
-0.00687459
0.0976486
-0.090774
-0.277174
-0.232425
0.332753
-0.202635
-0.130117
0.436569
0.335761
0.280419
-0.0836277
0.0818002
-0.233229
-0.0969479
0.330177
0.232731
-0.1283
-0.104431
-0.144013
0.473742
-0.00332265
-0.144415
0.016019
-0.0145573
-0.00146175
0.326488
-0.483534
0.157046
-0.130892
-0.0569952
-0.468597
0.0889709
0.391841
-0.0916704
-0.170897
-0.412968
0.583864
-0.0202991
0.0892476
0.00454242
0.215602
-0.185842
-0.199211
-0.0864946
0.285705
0.135812
-0.490168
0.354356
-0.1416
0.488784
-0.347184
0.621821
0.325228
0.17305
0.396697
-0.532136
0.135439
0.160949
0.0208437
-0.0431675
0.249601
-0.219234
-0.277492
0.42132
0.550747
-0.243089
0.561514
-0.031637
-0.529877
0.133279
0.00103011
-0.00897147
-0.0476413