/*--------------------------------*- C++ -*----------------------------------*\
| =========                 |                                                 |
| \\      /  F ield         | OpenFOAM: The Open Source CFD Toolbox           |
|  \\    /   O peration     | Version:  v2012                                 |
|   \\  /    A nd           | Website:  www.openfoam.com                      |
|    \\/     M anipulation  |                                                 |
\*---------------------------------------------------------------------------*/
FoamFile
{
    version     2.0;
    format      ascii;
    class       volVectorField;
    location    "300";
    object      U;
}
// * * * * * * * * * * * * * * * * * * * * * * * * * * * * * * * * * * * * * //

dimensions      [0 1 -1 0 0 0 0];


internalField   nonuniform List<vector> 
13851
(
(1.01686 -0.0118767 0)
(0.595321 -0.170526 -3.34379e-21)
(1.03601 -0.0483695 4.74437e-21)
(1.01623 -0.0109493 0)
(1.05507 -0.0608247 0)
(0.975142 -0.00186419 0)
(1.031 -0.00239569 0)
(1.04392 -0.0430039 7.18342e-21)
(1.00905 -0.000965345 4.61583e-23)
(1.04412 -0.0383521 -3.22693e-21)
(0.985596 0.0582787 0)
(0.440225 0.0978913 -4.92916e-21)
(0.994811 -0.0947488 -1.00556e-20)
(0.0567185 -0.125042 -1.47694e-20)
(1.01955 -0.000635376 2.1238e-23)
(1.03411 -0.0360114 -9.453e-24)
(1.0404 -0.0246822 3.56253e-21)
(1.01813 -0.0154687 3.12015e-22)
(1.06693 -0.101496 -1.00694e-20)
(1.00893 -0.00097746 -1.07069e-22)
(1.01625 -0.0107508 7.90695e-23)
(1.0373 -0.0499281 1.59598e-21)
(1.00269 4.94803e-05 1.0022e-22)
(1.00318 -9.65296e-05 1.58565e-23)
(1.00191 -1.84138e-05 0)
(1.04293 -0.0428906 -7.15948e-22)
(1.04998 -0.0190445 0)
(-0.0021224 -0.0402242 1.56665e-20)
(1.01716 -0.0117708 8.85583e-24)
(1.02319 -0.0194852 -7.28264e-22)
(0.967484 0.0075441 0)
(1.04083 -0.0256486 0)
(1.03658 -0.0470818 -8.16669e-21)
(0.888527 -0.117892 0)
(1.00396 -0.000105463 -2.09085e-23)
(1.08798 -0.0567567 -9.4045e-21)
(1.09852 -0.056547 -4.83836e-20)
(1.01837 -0.0810209 0)
(1.04479 -0.0364847 1.2051e-21)
(0.879504 -0.0955114 4.35408e-22)
(1.01563 -0.00703628 3.04881e-22)
(1.0081 0.000345993 -5.88353e-23)
(0.0297443 0.108328 2.98264e-20)
(0.935317 0.109027 0)
(0.925633 0.0970973 0)
(0.213749 -0.0424964 -2.43173e-21)
(0.901795 0.129631 -1.05694e-21)
(0.953341 -0.0800641 5.42408e-21)
(1.05087 -0.0196456 -1.45042e-20)
(1.00384 0.0267487 -1.68866e-21)
(1.07165 -0.0548509 2.99594e-20)
(1.075 -0.0687149 2.51664e-20)
(-0.0273881 0.0397821 0)
(1.01917 -0.000593557 -4.6171e-21)
(1.01121 -0.00073394 0)
(1.00833 0.000375384 0)
(1.0044 -6.4286e-06 1.11504e-23)
(-0.0556286 0.0169923 -2.95829e-20)
(1.02313 -0.0188463 -1.27077e-21)
(1.03172 -0.00496693 -3.541e-21)
(1.01393 -0.0788157 0)
(0.476446 -0.161838 2.78075e-21)
(1.02948 0.0051913 2.88516e-21)
(1.05832 -0.0655381 8.98627e-22)
(0.953497 -0.0709556 4.18221e-21)
(1.01587 -0.0132254 -5.20992e-22)
(1.09211 -0.0566634 0)
(0.905184 0.135507 -5.88135e-22)
(1.06078 -0.0351096 7.89903e-22)
(1.01846 -0.0148622 -3.39729e-22)
(0.333531 -0.00360782 3.86237e-20)
(1.02903 -0.0578792 0)
(0.562544 -0.174587 5.17145e-21)
(1.01912 -0.000620949 4.13265e-21)
(1.01226 -0.00122904 8.90274e-22)
(1.01109 -0.00127491 1.53634e-22)
(1.03892 -0.049671 0)
(0.453927 -0.00915079 3.46241e-20)
(1.05543 -0.0462901 -1.46878e-20)
(0.318478 -0.00690953 8.77309e-21)
(1.03451 -0.00895575 -7.91968e-21)
(0.90115 -0.0921529 -6.06545e-22)
(1.02134 -0.00477408 -8.58809e-21)
(0.178047 0.0344398 0)
(1.02583 0.00856329 -4.05171e-21)
(0.503527 0.0729952 4.82144e-21)
(0.993139 0.00615085 -3.19111e-21)
(0.907507 -0.130928 7.19159e-21)
(1.04684 -0.0245316 0)
(1.0133 0.000124692 0)
(1.0877 -0.0567684 0)
(1.02782 -0.0145353 0)
(0.908356 0.131248 -9.12338e-22)
(1.05048 -0.0288439 0)
(1.04737 -0.0237964 4.86754e-21)
(1.00264 -1.20123e-05 -4.69308e-23)
(1.0566 -0.0620765 0)
(0.661498 -0.0809477 3.28723e-20)
(1.00086 0.0323062 1.59355e-21)
(1.00189 6.16635e-06 0)
(-0.0630977 -0.0744633 5.42902e-21)
(1.06264 -0.0473381 -8.57576e-21)
(1.01894 -0.0118284 0)
(1.05677 -0.0120168 2.24704e-21)
(1.00306 6.38146e-05 0)
(1.00367 0.020303 2.09004e-21)
(1.06583 -0.0496708 0)
(1.00737 0.000330671 3.61697e-23)
(0.923044 -0.0566837 0)
(0.973665 -0.0108641 -2.85062e-21)
(1.00202 -2.86237e-05 -5.27422e-23)
(1.01367 0.00021234 0)
(1.0255 -0.0131588 3.16139e-23)
(1.00018 4.01367e-05 0)
(1.00276 -4.64229e-05 0)
(0.799723 -0.203128 7.78485e-22)
(0.68971 -0.0852273 -8.52429e-21)
(1.00681 0.000200668 0)
(1.00481 -0.000258421 -2.83787e-23)
(1.00928 -0.000504414 9.99722e-22)
(0.0179105 0.122132 1.19789e-21)
(1.05568 -0.0123977 -3.49513e-21)
(0.965114 -0.0981201 0)
(0.877323 -0.184942 -4.24261e-21)
(0.995928 -0.105915 -5.85143e-21)
(1.01752 0.000815787 1.43675e-22)
(1.00057 -0.141422 -7.77248e-21)
(1.05882 -0.0470221 2.41939e-21)
(1.01592 -0.0101276 -1.15811e-23)
(1.04926 -0.0780133 -1.35493e-20)
(1.01548 -0.00681424 8.66289e-22)
(1.00824 -0.00123548 1.62398e-22)
(0.35386 -0.00804957 -2.67179e-20)
(1.02133 -0.00448609 6.8728e-21)
(0.796344 -0.199588 2.38105e-21)
(1.00797 -0.000553816 4.69477e-22)
(1.00679 0.000176838 1.14276e-22)
(1.03818 -0.0571912 3.65109e-21)
(0.0428264 -0.147125 0)
(0.357145 0.0879452 1.43746e-20)
(-0.0868605 -0.0742094 4.42577e-22)
(1.01078 -0.00069755 -1.71167e-21)
(1.01719 -0.00182379 5.81351e-22)
(1.01088 0.000420911 0)
(1.03328 -0.0200175 -1.84319e-21)
(0.926922 0.124923 3.14946e-21)
(1.01229 -0.003885 -8.61796e-23)
(1.04598 -0.0783388 2.02406e-20)
(1.03025 -0.00236362 8.64208e-21)
(0.931878 0.0658714 3.40938e-21)
(1.08439 -0.0490381 -3.70141e-20)
(1.00975 -0.000646787 -1.71512e-21)
(0.0622664 -0.119806 -1.74503e-20)
(1.00434 -2.65009e-05 -2.2703e-22)
(1.04053 -0.0165759 0)
(1.03255 -0.0197729 7.35336e-21)
(1.01142 -0.00323916 0)
(1.025 -0.0181211 2.90284e-21)
(1.07394 -0.0701033 -2.50969e-20)
(1.07031 -0.0546805 -2.78902e-20)
(1.01069 0.000695313 -4.92024e-25)
(1.05731 -0.0264898 0)
(-0.0523481 0.0196344 1.64402e-20)
(1.0081 -0.0011673 -1.79607e-22)
(1.02279 -0.0268194 0)
(1.00949 0.000400927 -1.82055e-22)
(1.01254 -0.00633327 8.84229e-23)
(1.06205 -0.0354448 4.31678e-22)
(1.01595 -0.00989131 0)
(0.566714 -0.0989514 0)
(0.437692 -0.0068729 -4.18127e-20)
(1.00663 -0.000290669 0)
(1.01156 -0.00337927 8.42884e-22)
(0.31481 0.069623 -1.60573e-20)
(1.00791 -0.00106568 0)
(0.935047 -0.0191775 6.61473e-21)
(1.05773 -0.0463086 7.30413e-21)
(1.01608 -0.000540538 0)
(1.06792 -0.102315 -1.76717e-20)
(1.00801 0.000412594 0)
(1.04058 -0.0272052 -4.24094e-21)
(1.00807 -0.0568423 0)
(1.02124 -0.00384825 0)
(1.03663 -0.0517783 -3.57203e-21)
(1.00652 0.000174841 -4.67743e-25)
(1.00274 8.03591e-07 0)
(1.0165 -0.01373 0)
(1.01143 -0.000816552 -4.86163e-22)
(1.05083 -0.0648342 0)
(1.04118 -0.0612551 2.25726e-21)
(0.902989 0.137651 1.25252e-21)
(-0.0361105 0.0373434 0)
(1.0147 0.000311802 -4.82473e-22)
(1.05685 -0.0362842 -3.22346e-21)
(0.500977 -0.155163 -9.24263e-22)
(1.03899 -0.0161828 4.46092e-23)
(1.01641 -0.00185933 5.46533e-22)
(0.866913 0.0398543 -1.38016e-21)
(1.01604 -0.00081277 0)
(1.01123 -0.00132877 -1.53539e-22)
(1.0175 0.00137358 -1.44276e-22)
(0.398654 -0.189609 7.25753e-20)
(1.00234 -0.000108823 9.14634e-22)
(1.01783 -0.00551233 0)
(1.04109 -0.0495857 -5.81771e-22)
(1.02167 -0.00405217 -7.88184e-21)
(0.270496 -0.0498987 -2.24323e-21)
(1.04263 -0.0247129 8.00948e-21)
(0.47491 -0.0195742 -2.49616e-20)
(1.00915 0.000541228 -1.75919e-23)
(0.721801 -0.0480637 -2.93994e-20)
(1.0188 -0.0114944 0)
(0.883477 0.0683782 -2.346e-21)
(1.00764 0.000379233 -1.50637e-23)
(1.01046 0.000466651 0)
(1.02263 -0.00821861 -8.11216e-22)
(1.01629 0.00605523 2.37745e-21)
(0.132857 -0.0192141 2.60646e-21)
(1.01966 -0.00138924 5.60446e-21)
(0.489843 -0.021826 2.47739e-20)
(1.04254 -0.0253349 -1.47113e-20)
(1.03535 -0.00928266 1.1244e-20)
(0.753875 -0.0613235 0)
(1.065 -0.0741231 -4.47361e-22)
(0.627315 -0.0402134 0)
(1.00187 6.41698e-06 2.1906e-22)
(1.05142 -0.0321079 0)
(1.00238 3.65708e-05 3.99731e-23)
(-0.06445 0.0702324 2.22147e-20)
(1.00788 0.000408249 6.5703e-23)
(1.04244 -0.0421431 -5.27242e-21)
(0.935372 0.00836439 -7.2056e-21)
(1.00649 -0.000261562 -4.80702e-23)
(1.0143 0.000161793 0)
(1.07249 -0.0510833 1.58245e-20)
(1.00394 -0.0193369 8.59546e-22)
(0.322785 -0.0520199 9.06611e-21)
(0.950054 -0.0793558 -5.08365e-21)
(1.01087 0.000450939 0)
(1.01815 -0.00563929 1.2611e-21)
(0.974167 0.0173483 0)
(1.00105 0.0722598 0)
(1.01318 0.000711984 0)
(1.04321 -0.0501845 6.48244e-22)
(1.004 8.47492e-05 -4.99665e-23)
(0.57384 -0.0342796 2.61136e-20)
(1.06173 -0.0483365 0)
(0.876487 -0.0667584 -2.77131e-21)
(1.03146 -0.0201897 3.66071e-21)
(1.03434 -0.0270305 0)
(1.00828 -0.00300199 -6.30928e-22)
(1.00034 0.0781838 0)
(1.02941 -0.0126426 0)
(1.03222 -0.0204727 -1.90687e-21)
(1.07141 -0.0456376 -1.8851e-20)
(1.09235 -0.0539825 0)
(1.03731 -0.0613041 -2.37407e-21)
(1.02009 -0.056908 -1.58297e-20)
(0.412557 0.00130795 8.26891e-22)
(1.02247 -0.0013893 0)
(1.01049 0.000450073 0)
(1.01937 -0.0145887 0)
(0.83025 -0.0503607 0)
(1.01282 0.00036229 -2.78138e-22)
(1.00986 -0.112832 0)
(1.03839 -0.0163453 -1.40022e-20)
(1.02943 -0.0121513 -3.74918e-21)
(1.05042 -0.0281127 0)
(0.791041 -0.0644181 0)
(1.03202 -0.00940574 1.00742e-22)
(1.00846 -0.00120368 4.23666e-23)
(1.03985 -0.0168585 -1.4237e-20)
(0.92392 -0.016417 -1.79887e-21)
(1.05542 -0.0447884 -1.44608e-20)
(1.03318 -0.0354217 -5.35572e-21)
(1.0084 -0.0013422 -3.70199e-22)
(0.901461 -0.0792529 1.11131e-21)
(1.02766 -0.0217211 -3.108e-22)
(0.63769 -0.043868 0)
(0.994946 0.0322527 -3.74379e-21)
(1.0133 0.000770045 0)
(1.0088 0.000500103 0)
(1.00328 5.969e-05 0)
(1.07114 -0.0446016 6.33778e-21)
(0.804631 -0.0467447 0)
(0.878083 0.0781131 5.74296e-21)
(1.01011 -0.00121029 1.63604e-22)
(1.02039 -0.000262029 -1.4834e-21)
(0.911591 -0.00890789 1.58078e-21)
(0.900753 -0.0463628 6.15702e-22)
(1.04611 -0.0823065 1.22431e-20)
(1.02366 -0.0186196 1.66373e-21)
(1.03196 -0.00541163 0)
(1.0596 -0.0382013 0)
(0.903429 -0.068949 -2.14204e-22)
(1.02786 -0.110295 1.88134e-20)
(1.0254 -0.026956 0)
(0.517457 0.0647275 -4.75727e-22)
(1.00867 -0.00150636 -1.98323e-22)
(0.594352 -0.0364348 -2.48001e-20)
(1.05711 -0.0257884 1.30879e-20)
(1.03935 -0.0245612 3.66957e-21)
(0.651242 -0.0454107 1.98358e-20)
(1.02007 -0.0104455 1.30736e-21)
(0.997462 0.0180657 0)
(0.66378 -0.0434775 1.04522e-20)
(1.00983 -0.00117463 0)
(1.06761 -0.0415557 -9.46986e-21)
(1.04957 -0.0293587 0)
(1.02352 -0.018017 -7.66768e-22)
(0.0788164 -0.15485 -4.90564e-21)
(1.02489 -0.0273463 -3.20973e-21)
(1.02782 -0.0124586 -6.71274e-21)
(0.728211 -0.0661737 9.97759e-21)
(1.00847 0.000362348 7.83951e-23)
(1.03493 -0.0277256 -1.75031e-21)
(1.01826 0.00279575 -5.85799e-22)
(0.682132 -0.0467829 -1.74166e-20)
(1.08519 -0.0553712 0)
(1.01991 -0.00153347 0)
(1.06626 -0.0472901 0)
(1.02036 -0.0010167 0)
(0.464966 -0.00587764 -9.35124e-21)
(1.00539 -0.00561706 -7.38734e-22)
(1.00286 2.27744e-05 -5.31667e-23)
(1.01282 -0.00386346 1.59592e-22)
(1.08457 -0.0553865 0)
(1.0512 -0.0309211 -1.57224e-20)
(1.04137 -0.0155291 -8.95317e-21)
(1.02024 -0.000155635 -1.46543e-21)
(1.02012 -0.0103417 0)
(1.02724 -0.0122913 5.81003e-21)
(0.965435 0.0706095 2.56395e-21)
(0.175656 -0.0698352 0)
(0.563383 -0.135819 4.00504e-20)
(1.02139 -0.0113092 6.19627e-22)
(0.693457 -0.0478579 -8.48176e-21)
(0.744485 -0.108642 0)
(1.01946 -0.000618519 -2.35128e-21)
(1.05617 -0.0371906 -3.30656e-21)
(1.04255 -0.0829699 -1.23428e-20)
(1.03416 -0.0104716 5.25726e-22)
(0.992505 -0.0138299 9.64075e-22)
(1.0755 -0.0646402 0)
(1.062 -0.105811 5.40307e-21)
(1.01598 -0.00827194 0)
(0.767443 -0.0725078 1.03496e-20)
(0.63519 -0.0395532 0)
(1.01953 -0.000513621 0)
(1.00284 0.0173141 5.33873e-22)
(1.00515 0.022001 -3.79931e-22)
(0.985469 -0.0315099 0)
(1.04183 -0.0151725 9.04912e-21)
(0.988262 -0.0129844 -9.53808e-21)
(-0.0715792 0.0632098 -2.73016e-20)
(1.01179 -0.00352648 -2.65897e-22)
(0.778386 -0.0355238 -5.70802e-21)
(1.01274 -0.00378523 1.10937e-22)
(1.02022 -0.000942847 1.32548e-21)
(1.00459 9.99821e-05 6.86674e-23)
(1.00754 0.000353462 -1.73177e-23)
(1.01091 -0.00297144 -3.31475e-22)
(0.668713 -0.0428172 3.40175e-20)
(0.888676 0.0620708 0)
(1.0201 -0.00743884 1.59826e-21)
(1.06725 -0.0402187 -7.51108e-22)
(1.00925 0.000429809 0)
(0.485917 0.0685645 0)
(1.03046 -0.0403801 -3.08508e-21)
(0.819333 0.0907059 -7.95419e-22)
(0.576831 -0.109868 -2.2296e-20)
(1.02007 -0.00768265 1.58314e-21)
(1.01302 0.00941389 -6.80017e-21)
(1.04768 -0.0299759 -6.9757e-21)
(0.833015 0.0733428 -3.29717e-23)
(1.01468 -0.00609196 -4.9154e-22)
(1.00683 0.0002054 0)
(1.01304 -0.0121419 0)
(-0.00152053 -0.0541925 5.91781e-21)
(1.01184 -0.0010087 0)
(0.11208 -0.140693 0)
(1.03296 -0.0139273 0)
(1.07651 -0.0655038 0)
(0.5357 -0.0935132 0)
(0.98821 0.0512334 -4.46729e-22)
(0.982753 0.0430568 -1.8074e-22)
(1.0139 0.00331793 -7.88092e-22)
(1.00881 -0.00152438 2.9668e-22)
(1.01842 -0.000358297 -4.91594e-21)
(1.02125 -0.0122746 0)
(1.06734 -0.0466886 0)
(0.119257 -0.104655 1.63246e-20)
(1.0639 -0.0348069 0)
(0.666714 -0.0431797 1.85344e-20)
(0.65763 -0.0429754 1.08334e-20)
(1.00922 0.000419526 -1.11787e-22)
(1.0229 -0.00141814 -6.35493e-21)
(0.558502 -0.129249 -1.76951e-20)
(0.348697 -0.00700419 0)
(0.947032 0.0201735 1.11187e-20)
(0.710092 -0.0809699 0)
(1.01179 -0.0133069 3.45346e-22)
(1.04815 -0.0309589 0)
(1.00186 -8.32362e-06 -2.74917e-23)
(0.807662 -0.10492 0)
(1.00785 -0.000581314 -9.51404e-23)
(1.035 -0.0355739 3.46428e-21)
(1.01447 0.00256128 1.33713e-21)
(1.02853 -0.00365396 0)
(1.00268 3.30929e-05 9.67233e-24)
(1.00969 -0.001106 2.09682e-22)
(1.00949 0.000411649 -1.16094e-22)
(1.06 -0.0644082 -2.02648e-21)
(0.996739 -0.0268414 3.52787e-21)
(0.510367 -0.0101532 -3.83022e-20)
(1.01919 -0.013479 4.02313e-22)
(1.06672 -0.0487268 0)
(1.00561 -0.0160775 -2.29543e-21)
(1.0164 0.0574556 3.39439e-21)
(1.03313 -0.0285395 5.1688e-23)
(0.964542 -0.0242696 0)
(1.03884 -0.0238085 1.04766e-20)
(1.02216 -0.0283933 8.27525e-22)
(1.00679 0.000176828 -9.68404e-23)
(1.00945 -0.00107244 -3.60002e-23)
(1.00196 -9.32277e-06 0)
(1.01019 -0.0809628 0)
(0.893052 0.14165 1.8048e-21)
(1.06016 -0.0747206 1.57297e-20)
(1.00764 -0.0168832 1.48659e-21)
(0.479765 -0.00979836 3.08367e-20)
(0.898814 -0.126649 1.62026e-21)
(0.997154 0.00972363 2.0619e-21)
(1.00845 -0.000528102 1.6373e-21)
(1.07376 -0.051068 0)
(1.01451 -0.00585299 4.94123e-22)
(1.01261 0.0543235 -5.04023e-21)
(1.00315 5.4258e-05 0)
(0.875193 0.00507553 6.88997e-21)
(0.954485 0.0328076 0)
(1.03787 -0.0443431 3.10497e-22)
(0.470673 -0.0174656 0)
(1.01682 -0.000842473 -3.30552e-22)
(1.01111 -0.0226483 7.12532e-22)
(0.933638 0.0569885 3.21053e-21)
(0.095551 -0.0300731 1.36137e-20)
(1.00683 0.00018298 1.0151e-23)
(1.04874 -0.0329067 0)
(1.05653 -0.0470241 7.95779e-21)
(1.03261 -0.0147183 -1.08462e-22)
(1.0072 -0.000469701 -4.04833e-23)
(1.0266 -0.0125413 8.25816e-21)
(1.0841 -0.0480004 -2.35948e-20)
(1.07471 -0.0676733 0)
(1.0176 -0.0108744 0)
(0.363415 0.132271 0)
(1.00239 2.24975e-05 -4.6932e-22)
(1.01309 -0.0040247 2.46823e-23)
(0.0272896 0.111104 5.70432e-22)
(1.02165 -0.0269364 5.7292e-22)
(1.00853 0.000471862 -2.6689e-23)
(0.832204 -0.125361 0)
(1.00868 -0.00145246 -6.26248e-22)
(1.01649 -0.011652 5.73275e-23)
(1.00778 -0.000686905 -5.37666e-23)
(1.01459 -0.0374253 -2.01276e-22)
(1.02407 -0.0164891 -1.91164e-21)
(1.00888 0.000516057 1.87227e-23)
(1.01673 -0.00116689 -3.00515e-22)
(0.754583 -0.0726573 4.07337e-21)
(1.02172 -0.00510201 0)
(1.06377 -0.0372016 0)
(1.00828 -0.000634455 -6.10832e-22)
(1.01704 0.00201158 -6.10652e-22)
(1.0229 -0.0430347 -7.44396e-24)
(0.999915 1.51489e-06 0)
(1.01419 -0.00605686 7.41155e-22)
(1.00065 5.12322e-05 0)
(1.00053 -1.29318e-05 -1.32728e-23)
(0.926479 0.0684319 5.13734e-21)
(1.03008 -0.0116605 0)
(0.986554 0.00662353 -1.16794e-21)
(1.0212 -0.00354281 -1.59222e-21)
(1.00268 1.83887e-05 -1.07417e-22)
(-0.0841002 -0.135771 -1.45105e-20)
(0.456188 -0.0154457 8.71545e-21)
(1.02251 -0.00420469 -1.90256e-21)
(1.01835 0.00358189 0)
(1.03403 -0.0289619 -7.31725e-21)
(0.980863 0.0844014 -3.65698e-22)
(0.163479 0.0297745 0)
(1.01317 -0.00412554 0)
(0.896183 0.0927606 -1.19822e-21)
(1.015 -0.00632375 0)
(1.04829 -0.0597029 0)
(1.02965 -0.00479112 0)
(-0.0749248 0.0828483 2.24993e-20)
(1.00649 0.000137552 -8.26769e-23)
(-0.0235507 0.0526457 2.63409e-20)
(1.03121 -0.0648089 2.54782e-21)
(1.00816 0.000342645 6.72583e-23)
(1.0209 0.00281461 1.09508e-21)
(0.601134 -0.0725297 -2.41217e-20)
(1.04179 -0.0421612 1.21548e-20)
(0.897205 -0.0925819 2.62592e-21)
(1.00602 -0.00031949 7.05234e-22)
(0.879608 -0.150942 3.75701e-21)
(1.01022 -0.000600326 -2.48205e-22)
(1.00749 -0.000843417 1.04845e-22)
(1.00859 -0.00144457 -1.52865e-22)
(1.02875 -0.00215349 0)
(0.372621 -0.0116513 0)
(1.06831 -0.0528972 -1.71786e-21)
(1.08077 -0.0619254 2.19008e-20)
(1.0894 -0.0881273 2.97911e-22)
(1.02107 0.00483416 5.0983e-21)
(1.01099 0.000702233 0)
(0.857476 -0.118004 0)
(0.900678 0.140617 8.98607e-21)
(1.04158 -0.0274017 4.62921e-21)
(1.05656 -0.0271583 1.6652e-22)
(0.985578 0.0723831 4.22496e-22)
(0.888387 -0.187739 2.04356e-21)
(0.764937 -0.0504769 0)
(1.01717 -0.000382242 0)
(-0.0824364 0.0758173 8.96337e-21)
(0.242422 -0.0206004 -4.98328e-21)
(0.319261 -0.180729 -3.21377e-20)
(1.02377 -0.0277024 2.32296e-21)
(1.02247 0.00390229 -2.13807e-21)
(0.851676 -0.121186 9.19307e-21)
(1.01635 -0.0263858 -4.38366e-23)
(1.08644 -0.0687065 -1.26063e-21)
(0.864777 0.0326782 -2.81837e-22)
(0.744343 0.0115376 1.00467e-20)
(1.02456 -0.0183361 -3.09739e-21)
(0.713607 0.00566354 -1.03297e-20)
(0.995046 -0.057555 -4.56678e-22)
(1.00671 0.000158645 -9.49475e-23)
(1.02221 -0.021258 1.32632e-22)
(1.06972 -0.0531599 0)
(0.430998 -0.00982635 1.46547e-20)
(1.03101 -0.020747 1.8559e-21)
(1.01772 -0.00387927 -2.22108e-21)
(1.0112 -0.00311284 5.27694e-22)
(1.01656 -0.00656919 1.93209e-21)
(1.05295 -0.0639798 0)
(1.00801 -0.0265021 -4.13968e-22)
(0.951104 -0.139896 -6.36917e-21)
(0.368446 0.116654 -3.26579e-21)
(1.00718 -0.000381214 -8.56478e-23)
(0.029668 0.11076 2.34588e-20)
(0.500099 -0.0188515 1.58275e-20)
(1.00102 0.046203 1.03483e-21)
(0.905111 0.115699 -2.32065e-21)
(1.06253 -0.0368496 -4.53329e-22)
(1.00801 0.000410833 1.32422e-23)
(1.00931 -0.00101764 0)
(1.0026 -0.0240293 0)
(0.827495 -0.115251 0)
(1.04139 -0.0170365 2.89734e-21)
(1.08315 -0.0528243 1.23691e-20)
(1.08714 -0.0578005 0)
(1.00829 0.000381528 0)
(1.00032 -0.0179016 -1.66507e-21)
(0.913795 -0.185226 -2.12256e-21)
(1.00273 -0.0334997 -5.96389e-21)
(1.07136 -0.0669373 -9.3456e-22)
(0.38281 -0.0129757 0)
(0.994174 -0.0569587 1.64472e-20)
(1.01516 -0.00656109 1.05558e-21)
(1.02896 -0.00339366 0)
(0.577143 -0.111766 2.62672e-21)
(0.64617 -0.0422302 1.2186e-20)
(1.08369 -0.0571739 1.78235e-20)
(1.06484 -0.0340234 -2.58483e-20)
(1.03675 0.00733547 0)
(1.00781 0.000381621 -2.0735e-23)
(1.01434 -0.00403123 1.38866e-21)
(0.838821 0.00252885 0)
(1.00798 0.000361714 -1.03706e-22)
(1.03027 -0.0204133 -1.73366e-21)
(1.00795 0.00041098 0)
(1.0088 -0.00119869 -4.04762e-22)
(0.975791 -0.0584638 -4.43175e-21)
(1.05652 -0.0643625 -1.20019e-20)
(1.00919 -0.0147305 0)
(1.00796 0.000366796 1.04377e-22)
(0.165648 -0.141644 -2.37645e-21)
(0.873819 0.0759123 3.40994e-21)
(1.00889 -0.0016384 0)
(1.00477 -1.1766e-05 0)
(1.01293 0.000433436 2.93892e-22)
(1.01903 -0.000452888 9.3815e-21)
(-0.0115416 -0.0440416 0)
(0.872022 -0.0238849 -9.78114e-22)
(0.88462 0.0187688 2.43493e-21)
(0.262224 -0.199814 0)
(0.868756 -0.152289 -4.34084e-21)
(1.06422 -0.0322198 1.49409e-20)
(0.410885 -0.00653508 2.63999e-20)
(0.452785 -0.0161029 -1.58907e-20)
(1.01676 -0.00906236 3.02528e-23)
(1.05999 -0.0359839 -1.32776e-20)
(1.00811 0.000422567 -1.33416e-23)
(1.01867 0.00211018 0)
(1.03751 -0.0370746 -7.19013e-21)
(0.806602 -0.0839958 -3.00402e-20)
(0.768914 -0.057784 0)
(1.08232 -0.0527482 1.30942e-20)
(1.04414 -0.0317434 0)
(1.00855 -0.000881443 7.61437e-23)
(1.03135 -0.0357421 -3.57783e-21)
(1.01558 -0.00306068 0)
(0.896974 -0.109935 -4.29521e-21)
(1.06695 -0.0566041 0)
(1.02081 -0.00333112 7.6778e-21)
(1.02045 -0.0108298 -6.15725e-22)
(1.00711 -0.000471531 -7.03031e-23)
(1.05173 -0.0270379 -4.70836e-21)
(1.05828 -0.0765305 -2.81902e-20)
(1.03093 -0.00480454 9.939e-21)
(1.0142 -0.00565364 1.51587e-21)
(1.03184 -0.0406193 0)
(1.02838 -0.00773414 1.81544e-21)
(1.05331 -0.061693 1.02116e-20)
(1.0105 -0.0739763 0)
(1.06519 -0.0724145 3.16364e-21)
(1.02918 -0.0360775 -1.66134e-21)
(1.08425 -0.0570217 0)
(1.00834 -0.000846746 -7.69961e-23)
(0.969441 0.0224931 -4.69013e-22)
(1.00745 -0.0046696 2.61192e-23)
(0.183228 -0.178138 0)
(1.01898 -0.0114848 -8.32348e-24)
(1.00266 -3.7722e-05 -1.68227e-22)
(0.95147 -0.0560099 1.70037e-20)
(1.02091 -0.0156147 -1.59428e-21)
(0.510404 -0.074443 0)
(0.603618 -0.0364177 -2.36815e-20)
(0.019217 0.0385602 3.94263e-20)
(0.809235 -0.134714 3.70831e-21)
(1.00774 -0.000585889 4.3514e-23)
(1.00497 -0.0575774 0)
(1.01366 0.000730678 0)
(1.00871 -0.00132139 4.02602e-22)
(1.00643 0.000141572 4.62419e-23)
(1.00885 -0.00132804 1.19962e-21)
(1.01393 -7.38826e-05 0)
(1.01975 -0.012697 -3.34698e-22)
(1.01515 -0.035306 4.49345e-22)
(1.00769 0.000349037 -1.02269e-22)
(0.678613 -0.0790663 -3.72815e-21)
(1.03533 -0.0655745 -2.65417e-21)
(0.644439 -0.0867178 0)
(1.01062 -0.00263647 0)
(1.00609 0.000141929 3.27574e-23)
(1.00391 5.24025e-05 3.47328e-22)
(1.03989 -0.0796523 0)
(0.491212 -0.145713 1.6999e-21)
(1.07639 -0.0443108 3.3921e-20)
(1.05154 -0.0276154 1.40295e-20)
(1.01388 0.000580379 0)
(1.00245 6.42654e-06 -1.89306e-22)
(1.00596 -0.000228786 -4.21612e-23)
(1.0118 -0.00335098 -4.67657e-22)
(1.09128 -0.0656098 2.56849e-20)
(0.282761 0.15336 0)
(1.02786 -0.00746045 -1.83804e-21)
(1.00767 0.000353065 0)
(1.02909 -0.00182171 0)
(1.01174 -0.00337561 3.41138e-22)
(0.986343 -0.00066412 2.51446e-21)
(-0.0414692 0.0231216 -2.2464e-21)
(1.03239 -0.0362344 2.3584e-21)
(0.637197 -0.0911215 0)
(0.89119 -0.164983 2.1706e-22)
(1.01403 -0.00541784 -4.96489e-22)
(1.07971 -0.0622832 -1.29256e-20)
(0.0684535 -0.0450026 -2.75096e-20)
(1.06044 -0.0373216 0)
(0.42958 0.0975912 -2.08026e-22)
(1.03387 -0.00919567 7.62454e-21)
(1.01908 -0.014974 -2.63339e-23)
(1.07536 -0.0440285 -3.04914e-20)
(1.01954 -0.0139104 0)
(0.874582 0.07537 4.35597e-21)
(1.02207 -0.00398321 1.69234e-21)
(0.867343 -0.163494 -1.15846e-21)
(1.00299 4.05471e-05 0)
(1.07094 -0.0254082 7.98198e-21)
(0.49269 -0.0211543 2.87261e-20)
(1.01174 -0.00116605 -7.54379e-22)
(1.02034 -0.0140229 -2.17677e-21)
(1.03961 0.00208016 3.23093e-21)
(1.00768 -0.000924938 -2.1665e-22)
(1.0402 -0.0263218 0)
(0.873818 -0.018024 -6.01741e-21)
(0.24769 0.0120831 1.41925e-20)
(1.06547 -0.0562605 -9.40233e-22)
(1.02862 -0.111294 0)
(0.981389 0.0662195 -8.06681e-22)
(1.00768 0.000382324 3.31415e-23)
(1.01039 -0.00251898 0)
(-0.102422 -0.145482 -4.58988e-20)
(1.08694 -0.0575442 6.05368e-21)
(1.00066 -0.0206519 1.27808e-21)
(0.623978 -0.0387398 3.89618e-20)
(1.00912 -0.000541721 1.2296e-22)
(1.01525 -7.15304e-05 0)
(1.00671 0.000154793 -7.57406e-24)
(0.856983 -0.137308 0)
(1.08526 -0.0580763 0)
(1.02578 -0.0245915 -2.49725e-21)
(1.01636 -0.00914717 0)
(1.02942 -0.0383011 1.45216e-22)
(1.04772 -0.0207649 0)
(1.00413 6.19533e-05 -2.54201e-22)
(0.0701889 0.0878143 -5.01744e-20)
(1.08468 -0.0467586 7.572e-23)
(0.568581 -0.0316811 0)
(1.00844 0.000367861 3.26801e-24)
(1.0279 -0.00702956 3.39731e-21)
(0.427751 -0.00817991 -2.13336e-20)
(-0.0128193 -0.0150308 0)
(1.08632 -0.0565022 0)
(1.01504 -0.00268594 0)
(0.88997 -0.0545308 2.48653e-23)
(1.02175 -0.00444413 5.76583e-21)
(1.03007 -0.0291872 5.34941e-22)
(1.01991 -0.0486057 -1.03846e-21)
(1.03661 -0.0443049 4.4134e-21)
(1.0345 -0.0254292 5.1954e-21)
(0.0750636 0.0299817 1.28348e-21)
(1.01144 0.00231565 1.97301e-21)
(1.01328 -0.00242228 0)
(1.09686 -0.0565061 2.35882e-20)
(1.00287 -2.77826e-05 -1.48032e-22)
(1.00132 -4.72599e-05 9.56297e-22)
(1.02424 -0.0170649 1.93259e-21)
(1.00824 -0.000802704 -5.2811e-25)
(0.0725331 0.092147 0)
(1.03943 -0.0351172 -5.16764e-21)
(1.07322 -0.0668941 1.88583e-20)
(1.01067 -0.0154244 -5.8871e-22)
(1.03039 -0.0260946 1.64957e-23)
(1.00868 -0.000938095 3.55713e-23)
(0.867392 -0.0333257 4.53238e-21)
(1.00464 -0.000189625 0)
(1.01233 0.00349201 3.56765e-22)
(1.00597 0.000120316 1.18984e-22)
(1.01358 -0.00501625 1.27905e-23)
(1.0101 -0.000772659 0)
(0.648836 -0.0423097 -2.60171e-20)
(1.01112 -0.00310976 -5.23484e-22)
(1.00702 0.000233477 -1.07995e-23)
(1.04731 -0.109283 2.75601e-21)
(1.02972 -0.00352122 -3.15514e-21)
(0.449124 -0.0117042 -1.97483e-20)
(1.00241 2.31179e-05 0)
(1.01649 -0.00251835 -5.94139e-22)
(1.07655 -0.0514594 0)
(0.955516 0.00613625 0)
(0.888095 -6.03916e-05 6.08913e-22)
(1.00659 -0.000287905 2.25381e-23)
(0.946016 -0.0123054 1.22317e-21)
(0.655499 -0.0999285 1.8745e-21)
(1.03005 -0.0121412 -5.97951e-23)
(0.747848 -0.0519707 1.87935e-20)
(1.06978 -0.0252497 1.46338e-22)
(1.00796 -0.000725757 0)
(1.00388 -0.00257754 6.61813e-22)
(0.043102 0.100692 0)
(0.954637 -0.00706929 -1.42173e-21)
(1.03188 -0.0271261 4.06784e-21)
(1.00699 -0.000333291 0)
(1.00741 0.000331417 -3.97643e-23)
(0.925154 0.102884 6.72602e-21)
(1.03478 -0.0421855 -3.67299e-21)
(1.01477 -0.0524534 0)
(1.02501 -0.0261403 0)
(1.00335 8.53311e-05 0)
(1.01828 -0.000396506 -3.18235e-22)
(1.01603 -0.00264036 0)
(1.08546 -0.0514622 3.10044e-20)
(0.900659 0.155241 4.93152e-21)
(1.04915 -0.0632887 -2.30531e-21)
(0.781333 -0.0732257 0)
(1.02737 -0.0067495 -8.72482e-21)
(1.04968 -0.0611157 2.38403e-21)
(1.07417 -0.0568949 0)
(0.704361 -0.0491334 1.97587e-20)
(1.02499 -0.0239082 0)
(0.177216 0.0135761 -3.07602e-21)
(1.09019 -0.0894319 2.27633e-20)
(1.0302 -0.00320654 -2.8021e-21)
(0.34195 -0.0354474 0)
(0.979196 0.0180543 -1.41442e-20)
(0.620108 -0.142945 0)
(0.265407 0.00264423 0)
(0.675042 -0.0565118 2.20896e-20)
(0.969934 0.0912415 -2.84783e-22)
(1.03784 -0.0396691 -6.9496e-21)
(1.00805 -0.000763773 5.16087e-23)
(1.02169 -0.0127257 9.32497e-22)
(-0.0663401 0.0219197 2.57596e-20)
(0.225454 0.0143491 2.24392e-20)
(1.01235 -0.00324802 0)
(1.002 2.92397e-06 4.81376e-24)
(1.07186 -0.0522485 -2.49314e-22)
(0.940568 -0.055974 0)
(1.00781 0.000292166 0)
(-0.0252082 0.0150277 -2.26651e-20)
(1.00883 -0.000518281 -1.23032e-22)
(1.02111 -0.00709848 0)
(0.0452777 0.103007 -2.30936e-20)
(0.434772 -0.0085726 -1.83337e-20)
(0.969197 0.0696394 9.93057e-22)
(1.00871 -0.00134727 0)
(1.02024 -0.000743902 -6.78783e-21)
(-0.0187568 -0.00735424 1.329e-20)
(1.08695 -0.065778 -2.96145e-20)
(1.08336 -0.0567021 -1.58064e-20)
(1.01671 -0.00630954 -6.49445e-22)
(0.590226 -0.126596 0)
(1.00425 -0.0404698 2.31139e-21)
(0.551068 -0.139125 0)
(1.06449 -0.0492305 -2.70765e-21)
(1.06601 -0.0399181 1.96166e-20)
(1.02709 -0.0126933 -3.36147e-21)
(1.02947 -0.00431099 0)
(0.561669 -0.158057 -4.71037e-22)
(1.07934 -0.040824 0)
(0.341862 -0.00722039 0)
(1.009 -0.0126208 2.09552e-21)
(1.06271 -0.0343801 0)
(0.0983276 0.0809413 -4.37189e-20)
(0.604778 -0.143387 0)
(0.481205 -0.0146481 -1.87942e-20)
(1.02428 -0.00431977 0)
(1.06422 -0.0297914 1.51124e-20)
(1.00876 -0.00156204 0)
(1.03041 -0.036653 5.61087e-21)
(1.0201 -0.0137084 -1.10341e-21)
(0.332673 0.125635 0)
(1.0102 -0.000101886 -3.69019e-21)
(0.46532 -0.0251325 -3.17257e-20)
(1.00762 0.000273815 -5.29836e-23)
(1.07566 -0.0511081 -1.19397e-20)
(1.01435 -0.00487046 2.23516e-21)
(1.01166 -0.0439129 -8.36468e-22)
(1.06507 -0.0329785 1.8583e-20)
(1.06293 -0.0297963 1.44058e-21)
(0.641505 -0.0824479 -2.12948e-20)
(1.0703 -0.0404717 -2.57915e-23)
(1.01212 -0.0384409 1.89201e-22)
(1.00276 -6.54243e-05 1.29468e-23)
(1.07468 -0.0517775 0)
(0.895663 0.0166791 -7.48304e-21)
(1.02008 0.0187053 2.23035e-21)
(1.02908 -0.0205505 -7.84751e-23)
(0.424378 -0.00772933 0)
(1.01238 0.000330968 -1.37765e-22)
(0.356455 0.0205819 0)
(0.909768 0.0911661 -1.52467e-22)
(1.0246 -0.0105592 0)
(0.693415 -0.0444159 1.61518e-20)
(-0.0212647 -0.0648984 5.82712e-21)
(0.462986 -0.0138232 1.56649e-20)
(0.984148 0.0862033 1.84292e-21)
(1.00816 -0.0101934 -1.25588e-21)
(1.01235 -0.0035405 -9.02855e-24)
(0.559469 -0.0298645 0)
(1.01504 -0.000214898 6.09919e-21)
(0.829956 -0.200188 -7.74561e-22)
(0.469376 -0.0197734 0)
(1.01067 -0.0027462 -2.34278e-22)
(1.04677 -0.0109316 1.05003e-20)
(1.0163 -0.0841337 0)
(0.879974 0.112132 -6.95834e-21)
(0.180414 0.0531124 -6.51111e-22)
(1.02579 -0.00833141 0)
(1.00531 -6.40129e-05 -2.59998e-22)
(0.510798 -0.167619 0)
(0.482179 -0.0203095 0)
(1.07047 -0.0687322 -2.88462e-20)
(1.03161 -0.0261547 -4.29047e-21)
(1.01608 -0.00555488 2.00889e-22)
(0.921411 0.107526 1.49804e-22)
(0.0127126 0.0991916 4.5553e-20)
(1.07394 -0.0579578 0)
(1.00708 0.000232291 5.78712e-24)
(1.03841 -0.0400236 7.26257e-21)
(1.00772 -0.000963626 -3.85389e-22)
(1.00526 -0.000160991 -1.31118e-21)
(1.00015 0.0304608 -4.16704e-23)
(1.00166 5.97401e-06 2.56364e-22)
(0.851916 -0.0133103 -3.92148e-21)
(1.02255 0.0208121 1.96381e-21)
(1.02107 -0.00737399 8.11986e-22)
(1.01744 -0.00144293 -1.6607e-22)
(1.01254 -0.00359855 -5.91435e-23)
(1.02481 -0.0174688 0)
(0.372777 -0.00686679 -9.67493e-21)
(0.596218 -0.0827613 -2.47268e-20)
(1.04957 -0.0322982 0)
(0.172969 -0.00632419 8.88518e-22)
(1.01439 -0.00474412 -2.3401e-21)
(1.04771 -0.0325378 1.84322e-21)
(1.01213 -0.00336716 0)
(1.00784 -0.00102506 -2.70491e-23)
(1.02096 -0.0101059 0)
(1.02062 -0.00727181 -7.74673e-22)
(0.414726 -0.0112772 -2.07482e-20)
(1.02261 -0.0045089 0)
(1.07423 -0.0445654 -9.71026e-22)
(1.0244 -0.00468007 2.34117e-21)
(1.03279 -0.0275255 4.21908e-21)
(0.991086 0.0321621 8.98638e-23)
(-0.0101002 -0.0283865 1.20054e-20)
(1.00548 -0.000293305 -8.63103e-22)
(0.600953 -0.0986886 -2.68816e-21)
(1.0159 -0.0553318 1.06345e-22)
(1.09437 -0.0766521 0)
(1.04011 -0.0355679 4.24719e-21)
(1.04454 -0.0361364 0)
(0.333448 -0.00570815 -9.95689e-21)
(1.05256 -0.0266686 -4.37301e-21)
(1.00601 -0.0218116 6.66674e-22)
(0.348413 0.122235 -2.58898e-22)
(0.874253 -0.116642 2.64271e-21)
(-0.0298042 0.0876174 -2.59479e-20)
(1.04656 -0.041597 0)
(0.953108 0.0511299 -2.8115e-21)
(1.0188 -0.0110426 -7.0808e-22)
(1.06952 -0.0393997 9.01238e-21)
(1.06403 -0.0478115 1.3671e-20)
(0.168022 0.0327115 0)
(1.00586 -0.000194596 -1.01016e-22)
(0.22004 0.053909 -2.07945e-20)
(1.01025 -0.00241571 1.9209e-22)
(1.01076 -0.00274714 0)