/*--------------------------------*- C++ -*----------------------------------*\
| =========                 |                                                 |
| \\      /  F ield         | OpenFOAM: The Open Source CFD Toolbox           |
|  \\    /   O peration     | Version:  v2012                                 |
|   \\  /    A nd           | Website:  www.openfoam.com                      |
|    \\/     M anipulation  |                                                 |
\*---------------------------------------------------------------------------*/
FoamFile
{
    version     2.0;
    format      ascii;
    class       volVectorField;
    location    "300";
    object      U_0;
}
// * * * * * * * * * * * * * * * * * * * * * * * * * * * * * * * * * * * * * //

dimensions      [0 1 -1 0 0 0 0];


internalField   nonuniform List<vector> 
13851
(
(1.01684 -0.0118793 0)
(0.594349 -0.169667 -3.34181e-21)
(1.03614 -0.0483102 4.74264e-21)
(1.01622 -0.0109466 0)
(1.05506 -0.0607689 0)
(0.975198 -0.00138774 0)
(1.031 -0.0023944 0)
(1.04397 -0.0430052 7.17742e-21)
(1.00905 -0.000965776 4.68234e-23)
(1.04429 -0.038599 -3.251e-21)
(0.98583 0.0572153 0)
(0.441594 0.0967986 -5.11235e-21)
(0.994673 -0.0948624 -1.00386e-20)
(0.0579455 -0.124501 -1.49175e-20)
(1.01955 -0.000635242 2.12385e-23)
(1.0341 -0.0360435 -9.42769e-24)
(1.04041 -0.0246856 3.5589e-21)
(1.01818 -0.0154579 3.26439e-22)
(1.06669 -0.101464 -1.00334e-20)
(1.00893 -0.000977861 -1.08345e-22)
(1.01625 -0.0107483 7.46325e-23)
(1.03741 -0.0498605 1.59452e-21)
(1.00269 4.94996e-05 1.00307e-22)
(1.00318 -9.65589e-05 1.45366e-23)
(1.00191 -1.84045e-05 0)
(1.04298 -0.0428969 -7.1541e-22)
(1.04998 -0.0190417 0)
(-0.00206168 -0.0401454 1.56269e-20)
(1.01715 -0.0117746 8.52552e-24)
(1.02319 -0.0194765 -7.251e-22)
(0.967602 0.00813076 0)
(1.04084 -0.0256524 0)
(1.03672 -0.0470416 -8.16369e-21)
(0.887975 -0.117097 0)
(1.00396 -0.000105505 -1.88713e-23)
(1.08802 -0.0567619 -9.40722e-21)
(1.0986 -0.0565681 -4.84143e-20)
(1.01832 -0.0806904 0)
(1.04502 -0.0367502 1.21617e-21)
(0.878983 -0.0945058 4.35687e-22)
(1.01563 -0.00703695 3.03846e-22)
(1.0081 0.00034618 -5.88464e-23)
(0.029648 0.108239 2.9895e-20)
(0.935566 0.108282 0)
(0.925792 0.0960342 0)
(0.213785 -0.0446745 -2.43402e-21)
(0.90177 0.129133 -1.05837e-21)
(0.953909 -0.0831068 5.39294e-21)
(1.05087 -0.0196426 -1.44953e-20)
(1.00411 0.0269434 -1.67807e-21)
(1.07164 -0.0548414 2.99445e-20)
(1.07495 -0.06873 2.51461e-20)
(-0.0273477 0.0390479 0)
(1.01917 -0.00059349 -4.61135e-21)
(1.01121 -0.000733967 0)
(1.00833 0.00037561 0)
(1.0044 -6.49084e-06 1.11428e-23)
(-0.0552697 0.016082 -2.94995e-20)
(1.02313 -0.0188387 -1.26561e-21)
(1.03172 -0.0049657 -3.53782e-21)
(1.01392 -0.07845 0)
(0.475559 -0.161497 2.74868e-21)
(1.02977 0.00499304 2.87325e-21)
(1.05829 -0.0654851 8.97172e-22)
(0.95303 -0.0703639 4.25554e-21)
(1.01584 -0.0132198 -5.2735e-22)
(1.0921 -0.0566844 0)
(0.90508 0.135527 -5.86777e-22)
(1.06079 -0.0350995 7.89515e-22)
(1.01851 -0.0148592 -3.47076e-22)
(0.333373 -0.00360819 3.86653e-20)
(1.02896 -0.0578843 0)
(0.561991 -0.173717 5.17192e-21)
(1.01912 -0.000620874 4.1276e-21)
(1.01226 -0.00122912 8.88204e-22)
(1.01109 -0.00127555 1.5444e-22)
(1.03902 -0.0496117 0)
(0.453889 -0.00918601 3.46687e-20)
(1.05545 -0.0462677 -1.46779e-20)
(0.318327 -0.00690719 8.78223e-21)
(1.03451 -0.00895469 -7.91258e-21)
(0.901069 -0.0913854 -6.16741e-22)
(1.02134 -0.00477414 -8.57652e-21)
(0.178057 0.0334741 0)
(1.02617 0.00841486 -4.03791e-21)
(0.505144 0.0717481 4.96884e-21)
(0.993292 0.00643114 -3.19773e-21)
(0.907552 -0.131687 7.03762e-21)
(1.04684 -0.0245312 0)
(1.01331 0.000120263 0)
(1.08774 -0.0567752 0)
(1.0277 -0.0146648 0)
(0.908269 0.131704 -9.07619e-22)
(1.05049 -0.0288419 0)
(1.04737 -0.0237956 4.86401e-21)
(1.00264 -1.20378e-05 -4.71235e-23)
(1.05658 -0.0620228 0)
(0.661242 -0.0813381 3.28523e-20)
(1.00117 0.0325165 1.58405e-21)
(1.00189 6.14532e-06 0)
(-0.0621035 -0.0758171 5.44992e-21)
(1.06264 -0.0473186 -8.57141e-21)
(1.01894 -0.0118319 0)
(1.05677 -0.0120126 2.24603e-21)
(1.00306 6.38332e-05 0)
(1.00401 0.0204955 2.08647e-21)
(1.06583 -0.0496529 0)
(1.00737 0.000330934 3.61776e-23)
(0.922924 -0.056672 0)
(0.973618 -0.0103942 -2.8653e-21)
(1.00202 -2.86258e-05 -5.33504e-23)
(1.01368 0.000207143 0)
(1.02539 -0.0132684 3.21204e-23)
(1.00018 4.01319e-05 0)
(1.00276 -4.64264e-05 0)
(0.799307 -0.203021 7.80418e-22)
(0.689449 -0.0855806 -8.51941e-21)
(1.00681 0.000200793 0)
(1.00481 -0.000258452 -2.83126e-23)
(1.00928 -0.000504444 9.97434e-22)
(0.0177899 0.122026 1.19587e-21)
(1.05568 -0.0123936 -3.49347e-21)
(0.964957 -0.0982414 0)
(0.877519 -0.185136 -4.22286e-21)
(0.996278 -0.108425 -5.81788e-21)
(1.01753 0.000788417 1.43715e-22)
(1.0004 -0.142943 -7.657e-21)
(1.05883 -0.047 2.41797e-21)
(1.01591 -0.0101231 -1.65869e-23)
(1.04918 -0.0778927 -1.35046e-20)
(1.01548 -0.00681487 8.63522e-22)
(1.00824 -0.00123552 1.61221e-22)
(0.353702 -0.00804968 -2.67465e-20)
(1.02133 -0.00448614 6.86361e-21)
(0.796034 -0.199223 2.4164e-21)
(1.00797 -0.00055387 4.66997e-22)
(1.00679 0.000176947 1.14323e-22)
(1.03811 -0.0572082 3.65353e-21)
(0.0421143 -0.145623 0)
(0.357633 0.0892824 1.4336e-20)
(-0.0861702 -0.075639 4.43431e-22)
(1.01078 -0.000697571 -1.70783e-21)
(1.01719 -0.00184763 5.8217e-22)
(1.01088 0.000421644 0)
(1.03328 -0.0200188 -1.83996e-21)
(0.927187 0.12457 3.17861e-21)
(1.01223 -0.00380917 -8.67337e-23)
(1.0459 -0.0781931 2.01698e-20)
(1.03025 -0.00236238 8.6345e-21)
(0.932002 0.0645182 3.41941e-21)
(1.0844 -0.0490265 -3.70109e-20)
(1.00975 -0.000646812 -1.71101e-21)
(0.0636592 -0.119556 -1.76006e-20)
(1.00434 -2.65576e-05 -2.27676e-22)
(1.04053 -0.0165754 0)
(1.03255 -0.0197739 7.34197e-21)
(1.01142 -0.00323962 0)
(1.025 -0.0181173 2.89353e-21)
(1.07389 -0.0701163 -2.50766e-20)
(1.0703 -0.0546688 -2.78745e-20)
(1.01069 0.000695698 -4.9192e-25)
(1.05732 -0.026484 0)
(-0.0520598 0.0187721 1.63922e-20)
(1.0081 -0.00116728 -1.78305e-22)
(1.02278 -0.0268006 0)
(1.00949 0.000400969 -1.82078e-22)
(1.01244 -0.00624975 8.89775e-23)
(1.06206 -0.0354342 4.31476e-22)
(1.01595 -0.00988736 0)
(0.566298 -0.0998151 0)
(0.437654 -0.00689691 -4.18667e-20)
(1.00663 -0.00029056 0)
(1.01156 -0.00337967 8.36407e-22)
(0.315598 0.0712447 -1.60162e-20)
(1.00791 -0.00106566 0)
(0.93588 -0.0224962 6.62899e-21)
(1.05774 -0.0462872 7.29947e-21)
(1.0161 -0.000553044 0)
(1.0677 -0.102317 -1.76237e-20)
(1.00801 0.000412847 0)
(1.04059 -0.0272106 -4.23624e-21)
(1.00798 -0.0568506 0)
(1.02124 -0.00384828 0)
(1.03674 -0.0516927 -3.56659e-21)
(1.00652 0.000174781 -4.68065e-25)
(1.00274 7.96574e-07 0)
(1.01647 -0.0137308 0)
(1.01143 -0.000816588 -4.8504e-22)
(1.05081 -0.0647495 0)
(1.04096 -0.0615254 2.22759e-21)
(0.902965 0.13755 1.25337e-21)
(-0.0360852 0.0365626 0)
(1.01471 0.000302711 -4.82723e-22)
(1.05686 -0.0362748 -3.22162e-21)
(0.500153 -0.154766 -9.11537e-22)
(1.03899 -0.0161826 4.45838e-23)
(1.0164 -0.00187741 5.47498e-22)
(0.867102 0.0418226 -1.38036e-21)
(1.01605 -0.000826215 0)
(1.01123 -0.00132951 -1.54344e-22)
(1.01751 0.00134735 -1.44315e-22)
(0.398001 -0.190627 7.22572e-20)
(1.00234 -0.000108826 9.11475e-22)
(1.01783 -0.00551198 0)
(1.04103 -0.0498107 -5.79931e-22)
(1.02167 -0.00405219 -7.87174e-21)
(0.270047 -0.0482219 -2.25263e-21)
(1.04264 -0.0247152 8.00169e-21)
(0.474783 -0.0195943 -2.49881e-20)
(1.00915 0.000541315 -1.75914e-23)
(0.721724 -0.0481078 -2.9426e-20)
(1.0188 -0.0114973 0)
(0.883643 0.070588 -2.34098e-21)
(1.00764 0.000379325 -1.50657e-23)
(1.01046 0.000467083 0)
(1.02258 -0.00920197 -8.07261e-22)
(1.01659 0.00602708 2.38092e-21)
(0.132419 -0.0213512 2.60918e-21)
(1.01966 -0.00138913 5.59756e-21)
(0.48972 -0.0218499 2.48e-20)
(1.04254 -0.0253376 -1.46969e-20)
(1.03535 -0.00928152 1.12339e-20)
(0.753824 -0.0614913 0)
(1.06492 -0.074094 -4.48502e-22)
(0.62721 -0.0402243 0)
(1.00187 6.39977e-06 2.19327e-22)
(1.05143 -0.0321047 0)
(1.00238 3.65866e-05 3.99937e-23)
(-0.0646035 0.0693556 2.22049e-20)
(1.00788 0.000408307 6.57118e-23)
(1.04249 -0.0421567 -5.26844e-21)
(0.935582 0.00925072 -7.22184e-21)
(1.00649 -0.000261465 -4.83149e-23)
(1.0143 0.000153862 0)
(1.07249 -0.0510731 1.58179e-20)
(1.004 -0.0191818 8.66426e-22)
(0.322368 -0.0504051 9.08877e-21)
(0.949492 -0.0787521 -5.17285e-21)
(1.01087 0.000451693 0)
(1.01815 -0.00563893 1.25885e-21)
(0.974417 0.0178981 0)
(1.0017 0.0718429 0)
(1.01317 0.000715277 0)
(1.04315 -0.050442 6.46195e-22)
(1.004 8.47831e-05 -4.9991e-23)
(0.573728 -0.0342967 2.614e-20)
(1.06174 -0.048315 0)
(0.876419 -0.064752 -2.78034e-21)
(1.03146 -0.0201903 3.65449e-21)
(1.03434 -0.027037 0)
(1.00828 -0.00290498 -6.32484e-22)
(1.00098 0.0775945 0)
(1.02941 -0.0126427 0)
(1.03222 -0.0204737 -1.90358e-21)
(1.07141 -0.045625 -1.88439e-20)
(1.0921 -0.055242 0)
(1.03707 -0.0615296 -2.34568e-21)
(1.02001 -0.0569272 -1.58416e-20)
(0.412857 0.00121999 8.29318e-22)
(1.02247 -0.00138874 0)
(1.01049 0.000450542 0)
(1.0194 -0.0145972 0)
(0.829157 -0.0495409 0)
(1.01282 0.000358841 -2.78179e-22)
(1.00959 -0.112748 0)
(1.03839 -0.0163452 -1.39885e-20)
(1.02943 -0.0121514 -3.74418e-21)
(1.05043 -0.0281109 0)
(0.790991 -0.064582 0)
(1.03189 -0.00957479 1.03976e-22)
(1.00847 -0.00110439 4.2287e-23)
(1.03985 -0.0168582 -1.42239e-20)
(0.923544 -0.0156645 -1.80874e-21)
(1.05544 -0.0447684 -1.44514e-20)
(1.03316 -0.0354498 -5.3398e-21)
(1.0084 -0.00134226 -3.67586e-22)
(0.90143 -0.0782785 1.12057e-21)
(1.02742 -0.0218414 -3.15824e-22)
(0.637579 -0.0438496 0)
(0.995078 0.0310633 -3.7555e-21)
(1.0133 0.000774605 0)
(1.0088 0.000500073 0)
(1.00328 5.97022e-05 0)
(1.07114 -0.0445888 6.33547e-21)
(0.80363 -0.045614 0)
(0.878776 0.0753355 5.78551e-21)
(1.01011 -0.00121075 1.65053e-22)
(1.02039 -0.000261711 -1.48171e-21)
(0.911166 -0.00814472 1.58242e-21)
(0.900661 -0.0452613 6.19771e-22)
(1.04601 -0.0821491 1.21928e-20)
(1.02367 -0.0186134 1.65698e-21)
(1.03196 -0.00541042 0)
(1.05961 -0.0381893 0)
(0.903281 -0.0680331 -2.1625e-22)
(1.02761 -0.110245 1.87419e-20)
(1.02539 -0.0269456 0)
(0.519131 0.0633077 -4.92772e-22)
(1.00867 -0.00150649 -1.96907e-22)
(0.594246 -0.0364555 -2.48252e-20)
(1.05711 -0.025783 1.3081e-20)
(1.03935 -0.0245649 3.6654e-21)
(0.651133 -0.0453996 1.98539e-20)
(1.02007 -0.0104455 1.30397e-21)
(0.997766 0.0183322 0)
(0.663723 -0.043569 1.04624e-20)
(1.00983 -0.00117504 0)
(1.06761 -0.0415425 -9.46593e-21)
(1.04958 -0.0293574 0)
(1.02352 -0.0180117 -7.63778e-22)
(0.0778 -0.153524 -4.86591e-21)
(1.02488 -0.0273347 -3.19143e-21)
(1.02782 -0.0124587 -6.70262e-21)
(0.72812 -0.0664064 9.97988e-21)
(1.00847 0.000362405 7.84044e-23)
(1.03493 -0.0277332 -1.74715e-21)
(1.01829 0.00276835 -5.8527e-22)
(0.68202 -0.0467651 -1.74324e-20)
(1.08522 -0.0553719 0)
(1.01992 -0.00153334 0)
(1.06626 -0.0472737 0)
(1.02036 -0.00101642 0)
(0.46516 -0.00600471 -9.37026e-21)
(1.00535 -0.00548225 -7.42432e-22)
(1.00286 2.27667e-05 -5.32184e-23)
(1.01282 -0.00386456 1.55318e-22)
(1.08459 -0.0553885 0)
(1.05121 -0.0309183 -1.57117e-20)
(1.04138 -0.0155281 -8.94585e-21)
(1.02024 -0.000155352 -1.46377e-21)
(1.02012 -0.0103416 0)
(1.02724 -0.0122913 5.80127e-21)
(0.965663 0.069511 2.57546e-21)
(0.177154 -0.0705052 0)
(0.562508 -0.136404 3.99536e-20)
(1.02146 -0.0113656 6.2193e-22)
(0.693347 -0.047847 -8.48978e-21)
(0.744042 -0.107984 0)
(1.01946 -0.000618411 -2.34836e-21)
(1.05618 -0.0371808 -3.30461e-21)
(1.04245 -0.0827832 -1.2292e-20)
(1.03407 -0.0106857 5.27021e-22)
(0.992619 -0.0135521 9.69377e-22)
(1.07547 -0.0646525 0)
(1.06174 -0.10575 5.38558e-21)
(1.01593 -0.00827201 0)
(0.767071 -0.0703224 1.04633e-20)
(0.63511 -0.0396074 0)
(1.01953 -0.000513501 0)
(1.00302 0.0175046 5.26185e-22)
(1.00538 0.02217 -3.7384e-22)
(0.985864 -0.0310642 0)
(1.04184 -0.0151713 9.04172e-21)
(0.988388 -0.0126676 -9.58814e-21)
(-0.0717083 0.0622757 -2.72884e-20)
(1.01179 -0.0035269 -2.63729e-22)
(0.778611 -0.0326015 -5.78282e-21)
(1.01274 -0.00378622 1.06584e-22)
(1.02022 -0.000942576 1.32393e-21)
(1.00459 0.000100017 6.87013e-23)
(1.00754 0.000353711 -1.73208e-23)
(1.01091 -0.0029718 -3.2955e-22)
(0.668638 -0.042874 3.40494e-20)
(0.888946 0.0635919 0)
(1.02011 -0.00743846 1.59545e-21)
(1.06726 -0.0402058 -7.50483e-22)
(1.00925 0.0004299 0)
(0.487487 0.0671017 0)
(1.03041 -0.0404269 -3.06729e-21)
(0.819136 0.0885537 -7.99788e-22)
(0.576233 -0.110619 -2.22565e-20)
(1.02007 -0.00768224 1.58023e-21)
(1.01337 0.00939706 -6.80108e-21)
(1.04769 -0.0299766 -6.97053e-21)
(0.833281 0.0706266 -1.66771e-23)
(1.01468 -0.00609247 -4.89905e-22)
(1.00683 0.000205497 0)
(1.01294 -0.0120959 0)
(-0.000310952 -0.0555972 5.95095e-21)
(1.01185 -0.00100876 0)
(0.11108 -0.13928 0)
(1.03282 -0.0141202 0)
(1.07648 -0.0655216 0)
(0.535631 -0.0946382 0)
(0.988636 0.0514743 -4.2765e-22)
(0.983126 0.0434015 -1.8306e-22)
(1.01396 0.00334857 -7.88533e-22)
(1.00881 -0.00152467 2.95103e-22)
(1.01842 -0.000358229 -4.91001e-21)
(1.0213 -0.0123255 0)
(1.06734 -0.0466733 0)
(0.120776 -0.1038 1.64864e-20)
(1.0639 -0.0347963 0)
(0.666614 -0.0431923 1.85524e-20)
(0.657566 -0.043052 1.08439e-20)
(1.00922 0.000419579 -1.11791e-22)
(1.0229 -0.00141754 -6.34808e-21)
(0.557749 -0.130002 -1.76337e-20)
(0.348541 -0.00700239 0)
(0.94741 0.0210103 1.11435e-20)
(0.709887 -0.0812809 0)
(1.01168 -0.0132473 3.48174e-22)
(1.04816 -0.0309593 0)
(1.00186 -8.33255e-06 -2.75554e-23)
(0.80727 -0.104289 0)
(1.00785 -0.000581365 -9.57396e-23)
(1.03499 -0.0356043 3.45687e-21)
(1.01452 0.00258522 1.3384e-21)
(1.02853 -0.00365295 0)
(1.00268 3.31046e-05 9.67728e-24)
(1.00969 -0.00110644 2.11494e-22)
(1.00949 0.0004117 -1.161e-22)
(1.05997 -0.0643636 -2.02363e-21)
(0.99673 -0.026616 3.56197e-21)
(0.510536 -0.0103871 -3.83865e-20)
(1.01924 -0.0134929 4.05107e-22)
(1.06672 -0.0487103 0)
(1.00553 -0.0159593 -2.30999e-21)
(1.01693 0.056567 3.44024e-21)
(1.03312 -0.0285474 5.1698e-23)
(0.964975 -0.0238406 0)
(1.03884 -0.0238118 1.04642e-20)
(1.02198 -0.0292914 8.23494e-22)
(1.00679 0.000176969 -9.68763e-23)
(1.00945 -0.00107286 -3.63565e-23)
(1.00196 -9.32594e-06 0)
(1.01018 -0.0804857 0)
(0.892915 0.140924 1.80799e-21)
(1.06008 -0.0746675 1.56973e-20)
(1.00756 -0.0167897 1.49619e-21)
(0.480011 -0.00999337 3.09051e-20)
(0.898235 -0.125985 1.61688e-21)
(0.997351 0.00995766 2.06463e-21)
(1.00845 -0.000528123 1.63337e-21)
(1.07376 -0.0510589 0)
(1.01451 -0.00585348 4.92479e-22)
(1.01308 0.053187 -5.10665e-21)
(1.00315 5.42881e-05 0)
(0.876037 0.00528923 6.72613e-21)
(0.954676 0.030831 0)
(1.03801 -0.0443473 3.10646e-22)
(0.470557 -0.0174911 0)
(1.01683 -0.000862826 -3.30962e-22)
(1.01086 -0.022521 7.18878e-22)
(0.933833 0.0551145 3.21383e-21)
(0.0967035 -0.0313371 1.36984e-20)
(1.00683 0.000182924 1.0155e-23)
(1.04875 -0.0329065 0)
(1.05654 -0.0470006 7.95209e-21)
(1.03242 -0.0148949 -1.11944e-22)
(1.0072 -0.000469694 -4.07751e-23)
(1.0266 -0.0125411 8.24464e-21)
(1.0841 -0.0479885 -2.35921e-20)
(1.07466 -0.0676846 0)
(1.0177 -0.0108808 0)
(0.363242 0.130902 0)
(1.00239 2.24749e-05 -4.69903e-22)
(1.01309 -0.00402609 2.02404e-23)
(0.0269781 0.110846 5.72795e-22)
(1.02163 -0.0269114 5.67571e-22)
(1.00853 0.000471807 -2.66903e-23)
(0.832266 -0.126278 0)
(1.00868 -0.00145273 -6.22918e-22)
(1.01648 -0.0116517 6.02854e-23)
(1.00778 -0.00068724 -5.44492e-23)
(1.01451 -0.0373607 -1.90502e-22)
(1.02407 -0.0164862 -1.90586e-21)
(1.00888 0.000516108 1.87221e-23)
(1.01674 -0.00118697 -3.01022e-22)
(0.754478 -0.0728878 4.07284e-21)
(1.02172 -0.00510208 0)
(1.06378 -0.0371899 0)
(1.00828 -0.000634528 -6.07604e-22)
(1.01714 0.00200154 -6.10981e-22)
(1.02254 -0.0432585 -1.40878e-23)
(0.999915 1.50866e-06 0)
(1.01419 -0.00605683 7.37737e-22)
(1.00065 5.12235e-05 0)
(1.00053 -1.29406e-05 -1.13572e-23)
(0.927525 0.065856 5.18339e-21)
(1.03008 -0.0116605 0)
(0.986715 0.00698463 -1.1708e-21)
(1.0212 -0.00354281 -1.59019e-21)
(1.00268 1.83797e-05 -1.07654e-22)
(-0.0837141 -0.136628 -1.45622e-20)
(0.456067 -0.015467 8.72483e-21)
(1.02251 -0.00420465 -1.90023e-21)
(1.01847 0.00355648 0)
(1.03403 -0.0289713 -7.30258e-21)
(0.98153 0.0843362 -3.29956e-22)
(0.163205 0.0284466 0)
(1.01317 -0.00412698 0)
(0.896549 0.0939953 -1.20733e-21)
(1.015 -0.00632432 0)
(1.04831 -0.0596259 0)
(1.02965 -0.00479012 0)
(-0.0755139 0.0818123 2.25064e-20)
(1.00649 0.000137682 -8.27121e-23)
(-0.0235416 0.05191 2.63228e-20)
(1.03092 -0.0649724 2.50272e-21)
(1.00816 0.000342773 6.72689e-23)
(1.021 0.00275569 1.09358e-21)
(0.60088 -0.0731117 -2.41253e-20)
(1.04184 -0.0421811 1.21457e-20)
(0.897113 -0.0912976 2.63153e-21)
(1.00603 -0.000319526 7.02334e-22)
(0.878904 -0.150464 3.75848e-21)
(1.01022 -0.000600339 -2.47684e-22)
(1.00749 -0.000843315 1.03729e-22)
(1.00859 -0.00144458 -1.51606e-22)
(1.02875 -0.00215236 0)
(0.372471 -0.0116481 0)
(1.0683 -0.0528818 -1.7169e-21)
(1.08077 -0.0619523 2.1897e-20)
(1.08927 -0.0882112 3.03317e-22)
(1.02137 0.00475704 5.08525e-21)
(1.01099 0.000702732 0)
(0.857114 -0.118025 0)
(0.900702 0.139838 9.03147e-21)
(1.04159 -0.0274068 4.62407e-21)
(1.05657 -0.0271526 1.66432e-22)
(0.986204 0.0723843 3.81203e-22)
(0.888285 -0.187441 2.03773e-21)
(0.764864 -0.0505237 0)
(1.01717 -0.000382211 0)
(-0.0830253 0.0746835 8.96548e-21)
(0.242654 -0.0224799 -4.99035e-21)
(0.318762 -0.182133 -3.20389e-20)
(1.02375 -0.0276867 2.30971e-21)
(1.02259 0.00382423 -2.13474e-21)
(0.852402 -0.123684 9.13812e-21)
(1.01606 -0.0263329 -4.28516e-23)
(1.08578 -0.0696274 -1.24439e-21)
(0.864942 0.0348506 -2.82793e-22)
(0.745262 0.0121285 9.88711e-21)
(1.02456 -0.0183315 -3.08789e-21)
(0.714391 0.0064372 -1.01669e-20)
(0.994985 -0.0576157 -4.56983e-22)
(1.00671 0.000158791 -9.49858e-23)
(1.02196 -0.0212876 1.34492e-22)
(1.06971 -0.0531465 0)
(0.430881 -0.00984286 1.46708e-20)
(1.03101 -0.0207475 1.85241e-21)
(1.01772 -0.00387905 -2.21754e-21)
(1.0112 -0.00311329 5.23814e-22)
(1.01656 -0.00656937 1.92728e-21)
(1.05293 -0.0639083 0)
(1.008 -0.0263815 -4.22351e-22)
(0.950891 -0.140426 -6.2328e-21)
(0.36851 0.115099 -3.23725e-21)
(1.00718 -0.000381213 -8.46787e-23)
(0.0294329 0.110563 2.35108e-20)
(0.500037 -0.0189064 1.58468e-20)
(1.0016 0.0464307 1.0322e-21)
(0.905198 0.114461 -2.33311e-21)
(1.06254 -0.0368382 -4.53118e-22)
(1.00801 0.000410739 1.32432e-23)
(1.00931 -0.00101808 0)
(1.00235 -0.0238179 0)
(0.827126 -0.11532 0)
(1.04139 -0.0170359 2.89491e-21)
(1.08317 -0.05282 1.23684e-20)
(1.08717 -0.0578201 0)
(1.00829 0.000381799 0)
(1.00021 -0.0177271 -1.67578e-21)
(0.913414 -0.184642 -2.08903e-21)
(1.00322 -0.0331283 -5.91735e-21)
(1.07132 -0.0669365 -9.36094e-22)
(0.382661 -0.0129727 0)
(0.994108 -0.0570074 1.64593e-20)
(1.01516 -0.00656168 1.05186e-21)
(1.02896 -0.00339257 0)
(0.577003 -0.113282 2.57926e-21)
(0.646107 -0.042311 1.21976e-20)
(1.08371 -0.0571867 1.78248e-20)
(1.06485 -0.0340131 -2.58376e-20)
(1.03706 0.00703123 0)
(1.00781 0.000381892 -2.0738e-23)
(1.01435 -0.00403146 1.38556e-21)
(0.839595 0.00293088 0)
(1.00798 0.000361995 -1.03725e-22)
(1.03027 -0.0204132 -1.7303e-21)
(1.00795 0.000411176 0)
(1.0088 -0.00119885 -4.03088e-22)
(0.975729 -0.058527 -4.43501e-21)
(1.0565 -0.0643046 -1.19817e-20)
(1.00912 -0.0146529 0)
(1.00796 0.000367101 1.04395e-22)
(0.164535 -0.140374 -2.32088e-21)
(0.874168 0.0776239 3.41559e-21)
(1.00889 -0.00163867 0)
(1.00477 -1.17741e-05 0)
(1.01293 0.000429991 2.93952e-22)
(1.01903 -0.00045281 9.37015e-21)
(-0.010377 -0.0454834 0)
(0.87205 -0.0215847 -9.69471e-22)
(0.884737 0.0212383 2.43815e-21)
(0.261597 -0.200799 0)
(0.868176 -0.151777 -4.36071e-21)
(1.06423 -0.0322102 1.49344e-20)
(0.410769 -0.00654705 2.64291e-20)
(0.452653 -0.0161204 -1.59077e-20)
(1.0167 -0.00906701 3.06258e-23)
(1.06 -0.0359735 -1.32707e-20)
(1.00811 0.000422444 -1.33427e-23)
(1.01869 0.00207595 0)
(1.03752 -0.0371105 -7.17853e-21)
(0.806458 -0.0842156 -3.002e-20)
(0.768302 -0.0559121 0)
(1.08233 -0.0527443 1.30932e-20)
(1.04415 -0.0317494 0)
(1.00855 -0.000881852 7.72471e-23)
(1.03132 -0.0357677 -3.56391e-21)
(1.01556 -0.00306549 0)
(0.896813 -0.108907 -4.30412e-21)
(1.06694 -0.0565853 0)
(1.02081 -0.00333114 7.66802e-21)
(1.02053 -0.010874 -6.18013e-22)
(1.00711 -0.000471564 -7.09367e-23)
(1.05174 -0.027035 -4.70534e-21)
(1.05819 -0.0764638 -2.81306e-20)
(1.03093 -0.00480337 9.93e-21)
(1.0142 -0.00565406 1.51068e-21)
(1.03179 -0.0406743 0)
(1.02838 -0.00773389 1.81339e-21)
(1.0533 -0.0616275 1.01955e-20)
(1.01057 -0.0735213 0)
(1.06512 -0.0723848 3.15923e-21)
(1.02914 -0.0360978 -1.65393e-21)
(1.08427 -0.0570339 0)
(1.00834 -0.000847145 -7.80969e-23)
(0.969972 0.0230985 -4.62449e-22)
(1.00743 -0.00455596 2.62419e-23)
(0.182675 -0.179411 0)
(1.01898 -0.0114872 -8.26825e-24)
(1.00266 -3.77275e-05 -1.69008e-22)
(0.951359 -0.0560048 1.70171e-20)
(1.02092 -0.0156143 -1.58424e-21)
(0.510728 -0.075664 0)
(0.603524 -0.0364585 -2.37052e-20)
(0.0182939 0.0369688 3.95073e-20)
(0.809148 -0.1356 3.60638e-21)
(1.00774 -0.00058599 4.38426e-23)
(1.00488 -0.0575761 0)
(1.01365 0.000736728 0)
(1.00871 -0.00132161 4.00803e-22)
(1.00643 0.000141703 4.6261e-23)
(1.00885 -0.00132821 1.19459e-21)
(1.01391 -3.9965e-05 0)
(1.01981 -0.0127231 -3.3838e-22)
(1.01508 -0.0352419 4.32016e-22)
(1.00769 0.000349338 -1.02287e-22)
(0.678441 -0.0781044 -3.73874e-21)
(1.03505 -0.0657843 -2.60719e-21)
(0.644191 -0.0857497 0)
(1.01062 -0.00263695 0)
(1.00609 0.000142019 3.27711e-23)
(1.00391 5.24413e-05 3.47622e-22)
(1.03982 -0.0794518 0)
(0.490472 -0.145119 1.69541e-21)
(1.07639 -0.0442994 3.39115e-20)
(1.05154 -0.0276125 1.40205e-20)
(1.01387 0.000586506 0)
(1.00245 6.40877e-06 -1.89781e-22)
(1.00596 -0.000228784 -4.16763e-23)
(1.0118 -0.00335158 -4.62428e-22)
(1.0913 -0.0656868 2.56888e-20)
(0.282194 0.154163 0)
(1.02786 -0.00746022 -1.83596e-21)
(1.00767 0.000353368 0)
(1.02909 -0.00182056 0)
(1.01174 -0.00337616 3.37323e-22)
(0.987104 -0.000726517 2.44788e-21)
(-0.0413386 0.0223198 -2.24138e-21)
(1.03237 -0.0362649 2.35192e-21)
(0.636802 -0.0915963 0)
(0.890594 -0.164359 2.1888e-22)
(1.01403 -0.00541825 -4.94839e-22)
(1.0797 -0.0623071 -1.2923e-20)
(0.069714 -0.0462585 -2.76826e-20)
(1.06044 -0.0373102 0)
(0.430831 0.0967939 -2.82417e-22)
(1.03387 -0.00919477 7.6173e-21)
(1.01912 -0.0149757 -2.13067e-23)
(1.07537 -0.0440172 -3.0483e-20)
(1.01959 -0.0139267 0)
(0.874825 0.0774415 4.34667e-21)
(1.02207 -0.00398319 1.69021e-21)
(0.86789 -0.164979 -1.15647e-21)
(1.00299 4.05773e-05 0)
(1.07095 -0.0253996 7.97936e-21)
(0.492576 -0.0211839 2.87569e-20)
(1.01174 -0.00116561 -7.5654e-22)
(1.02034 -0.0140262 -2.16481e-21)
(1.03984 0.00174408 3.20369e-21)
(1.00768 -0.000924825 -2.14371e-22)
(1.0402 -0.0263267 0)
(0.873071 -0.0172363 -6.00487e-21)
(0.249154 0.0143608 1.4208e-20)
(1.06546 -0.0562386 -9.39431e-22)
(1.02834 -0.111167 0)
(0.981874 0.0664463 -8.12262e-22)
(1.00768 0.00038249 3.31478e-23)
(1.01039 -0.00251945 0)
(-0.102295 -0.146373 -4.59543e-20)
(1.08698 -0.0575606 6.05497e-21)
(1.00071 -0.0204666 1.28584e-21)
(0.623891 -0.0387856 3.90007e-20)
(1.00912 -0.000541607 1.23343e-22)
(1.01525 -7.14998e-05 0)
(1.00671 0.000154922 -7.5785e-24)
(0.856436 -0.136511 0)
(1.08525 -0.058128 0)
(1.02577 -0.0245832 -2.4877e-21)
(1.01636 -0.00914774 0)
(1.02912 -0.0387185 1.39563e-22)
(1.04773 -0.0207631 0)
(1.00413 6.19974e-05 -2.5442e-22)
(0.0700045 0.0876567 -5.03068e-20)
(1.08514 -0.0484533 7.60607e-23)
(0.568555 -0.0318174 0)
(1.00844 0.000367978 3.26748e-24)
(1.0279 -0.00702925 3.39352e-21)
(0.427657 -0.00819716 -2.1358e-20)
(-0.0126512 -0.0155143 0)
(1.08635 -0.0565081 0)
(1.01503 -0.00268857 0)
(0.889881 -0.054563 2.50731e-23)
(1.02175 -0.00444418 5.75842e-21)
(1.02989 -0.0299231 5.29534e-22)
(1.02017 -0.0483826 -1.03589e-21)
(1.03677 -0.0443008 4.41561e-21)
(1.03449 -0.0254339 5.18655e-21)
(0.074234 0.0283145 1.28615e-21)
(1.01149 0.00237895 1.97389e-21)
(1.01326 -0.0023928 0)
(1.09695 -0.0565293 2.35976e-20)
(1.00287 -2.77848e-05 -1.4886e-22)
(1.00132 -4.72636e-05 9.53091e-22)
(1.02424 -0.0170616 1.92674e-21)
(1.00824 -0.000803098 -5.17058e-25)
(0.0722914 0.0919417 0)
(1.03944 -0.0351391 -5.16096e-21)
(1.07317 -0.0669008 1.88427e-20)
(1.0106 -0.0153639 -5.9295e-22)
(1.03012 -0.0262947 2.5899e-23)
(1.00868 -0.000938487 3.63847e-23)
(0.866481 -0.0325688 4.51759e-21)
(1.00464 -0.000189627 0)
(1.0124 0.00354509 3.56946e-22)
(1.00597 0.000120426 1.19037e-22)
(1.01358 -0.00501657 1.27432e-23)
(1.0101 -0.000772646 0)
(0.648779 -0.0424041 -2.60425e-20)
(1.01112 -0.00311013 -5.19651e-22)
(1.00702 0.000233453 -1.08034e-23)
(1.04646 -0.109748 2.7094e-21)
(1.02972 -0.00352006 -3.15219e-21)
(0.449028 -0.0117282 -1.97707e-20)
(1.00241 2.31148e-05 0)
(1.01648 -0.00253508 -5.95216e-22)
(1.07655 -0.0514527 0)
(0.956415 0.00596906 0)
(0.888074 0.00143126 6.09674e-22)
(1.00659 -0.000287963 2.17196e-23)
(0.945842 -0.0115581 1.22827e-21)
(0.655069 -0.100345 1.87075e-21)
(1.03005 -0.0121412 -5.97174e-23)
(0.7478 -0.0520628 1.88086e-20)
(1.06978 -0.0252412 1.46287e-22)
(1.00796 -0.000726111 0)
(1.00387 -0.00242035 6.61649e-22)
(0.0429573 0.100578 0)
(0.954562 -0.00638266 -1.42616e-21)
(1.03188 -0.0271308 4.05777e-21)
(1.00699 -0.000333283 0)
(1.00741 0.000331703 -3.9773e-23)
(0.925381 0.101456 6.77169e-21)
(1.03499 -0.0421922 -3.68597e-21)
(1.01455 -0.0524195 0)
(1.025 -0.0261293 0)
(1.00336 0.000258446 0)
(1.01829 -0.000396462 -3.17829e-22)
(1.01601 -0.00265263 0)
(1.08548 -0.0514513 3.10038e-20)
(0.900953 0.155368 4.95014e-21)
(1.04915 -0.0632031 -2.30117e-21)
(0.780368 -0.0719349 0)
(1.02737 -0.00674923 -8.7151e-21)
(1.04968 -0.0610392 2.37974e-21)
(1.07416 -0.0568921 0)
(0.704246 -0.049112 1.97763e-20)
(1.02498 -0.0238982 0)
(0.177159 0.0155124 -3.07435e-21)
(1.09004 -0.0895029 2.27347e-20)
(1.0302 -0.00320531 -2.79956e-21)
(0.3428 -0.0369589 0)
(0.979689 0.0185206 -1.41609e-20)
(0.619367 -0.142861 0)
(0.266949 0.0049186 0)
(0.674981 -0.0567324 2.21033e-20)
(0.970506 0.091298 -2.91257e-22)
(1.03785 -0.0397253 -6.93941e-21)
(1.00805 -0.000764154 5.23257e-23)
(1.02173 -0.0127827 9.37226e-22)
(-0.0660044 0.0209154 2.56906e-20)
(0.225871 0.0131931 2.2535e-20)
(1.01235 -0.00324816 0)
(1.002 2.93084e-06 4.82686e-24)
(1.07186 -0.0522379 -2.49765e-22)
(0.940319 -0.0553119 0)
(1.00781 0.000292082 0)
(-0.0251144 0.0143141 -2.26225e-20)
(1.00883 -0.000518154 -1.23423e-22)
(1.02111 -0.00709828 0)
(0.0449384 0.102746 -2.31499e-20)
(0.434691 -0.00859375 -1.83549e-20)
(0.969652 0.0699956 9.9993e-22)
(1.00871 -0.00134751 0)
(1.02024 -0.000743606 -6.77992e-21)
(-0.018567 -0.00793636 1.32602e-20)
(1.08695 -0.0658516 -2.96194e-20)
(1.08338 -0.0567122 -1.58065e-20)
(1.01668 -0.00632453 -6.52845e-22)
(0.589472 -0.127067 0)
(1.00468 -0.0400726 2.29924e-21)
(0.550375 -0.138588 0)
(1.0645 -0.0492113 -2.70627e-21)
(1.06601 -0.0399051 1.96085e-20)
(1.02709 -0.0126932 -3.35609e-21)
(1.02947 -0.00430995 0)
(0.561692 -0.156802 -5.11587e-22)
(1.07934 -0.0408118 0)
(0.341707 -0.00721904 0)
(1.00889 -0.0125266 2.10557e-21)
(1.06272 -0.0343699 0)
(0.0981116 0.0806976 -4.38533e-20)
(0.604003 -0.143383 0)
(0.481145 -0.0146942 -1.88177e-20)
(1.02428 -0.00431951 0)
(1.06422 -0.0297826 1.5106e-20)
(1.00876 -0.00156226 0)
(1.03038 -0.0366798 5.58804e-21)
(1.0201 -0.0137125 -1.09631e-21)
(0.333387 0.125391 0)
(1.0102 -0.000101865 -3.68568e-21)
(0.465187 -0.0251302 -3.1758e-20)
(1.00762 0.000273701 -5.30001e-23)
(1.07566 -0.0511007 -1.19362e-20)
(1.01435 -0.00487087 2.22953e-21)
(1.01201 -0.0436307 -8.2661e-22)
(1.06508 -0.0329686 1.85752e-20)
(1.06293 -0.0297878 1.43972e-21)
(0.641195 -0.0828941 -2.12812e-20)
(1.0703 -0.0404593 -2.5728e-23)
(1.01202 -0.0383577 2.21086e-22)
(1.00276 -6.54516e-05 1.22771e-23)
(1.07468 -0.0517694 0)
(0.89641 0.0134214 -7.49907e-21)
(1.02058 0.0186367 2.21859e-21)
(1.02908 -0.0205494 -7.84333e-23)
(0.424309 -0.00774696 0)
(1.01238 0.000328359 -1.3779e-22)
(0.357943 0.0227635 0)
(0.910208 0.0921764 -1.57075e-22)
(1.0246 -0.010559 0)
(0.693332 -0.0444548 1.61662e-20)
(-0.020133 -0.066276 5.87215e-21)
(0.462895 -0.0138534 1.56826e-20)
(0.984702 0.0859876 1.8762e-21)
(1.00808 -0.0100905 -1.26139e-21)
(1.01235 -0.00354124 -8.7706e-24)
(0.559456 -0.0300114 0)
(1.01504 -0.000214868 6.09164e-21)
(0.829194 -0.199882 -7.77286e-22)
(0.469244 -0.0197901 0)
(1.01067 -0.00274668 -2.32514e-22)
(1.04677 -0.010929 1.04941e-20)
(1.01626 -0.0837065 0)
(0.880345 0.113542 -6.95815e-21)
(0.180479 0.0549414 -6.48487e-22)
(1.02579 -0.00833148 0)
(1.00531 -6.40944e-05 -2.60792e-22)
(0.510709 -0.168309 0)
(0.482058 -0.0203338 0)
(1.07042 -0.0687283 -2.88177e-20)
(1.0316 -0.0261581 -4.28049e-21)
(1.01606 -0.00556626 2.02039e-22)
(0.921906 0.108205 1.54332e-22)
(0.0120514 0.098604 4.56908e-20)
(1.07393 -0.057956 0)
(1.00707 0.00023223 5.78902e-24)
(1.03843 -0.0400804 7.25193e-21)
(1.00772 -0.00096352 -3.81855e-22)
(1.00526 -0.000160993 -1.30665e-21)
(1.00045 0.0306472 -4.07299e-23)
(1.00166 5.9583e-06 2.57004e-22)
(0.852422 -0.0127386 -3.88322e-21)
(1.02283 0.0194322 1.97696e-21)
(1.02107 -0.00737374 8.10634e-22)
(1.01744 -0.001469 -1.66246e-22)
(1.01254 -0.00359935 -5.71464e-23)
(1.02481 -0.0174654 0)
(0.372625 -0.00687086 -9.6855e-21)
(0.595866 -0.083409 -2.47074e-20)
(1.04958 -0.0322969 0)
(0.172854 -0.00435405 9.01159e-22)
(1.01439 -0.0047445 -2.33411e-21)
(1.04772 -0.0325389 1.84174e-21)
(1.01213 -0.00336778 0)
(1.00784 -0.00102497 -2.69992e-23)
(1.02096 -0.0101054 0)
(1.02062 -0.0072715 -7.73383e-22)
(0.414583 -0.0112867 -2.07706e-20)
(1.02261 -0.00450889 0)
(1.07424 -0.0445538 -9.70738e-22)
(1.0244 -0.00467986 2.33841e-21)
(1.03278 -0.0275317 4.20979e-21)
(0.991358 0.0324306 8.48046e-23)
(-0.00982133 -0.0286571 1.19751e-20)
(1.00548 -0.00029334 -8.59487e-22)
(0.600961 -0.100218 -2.63964e-21)
(1.01566 -0.0553134 1.21404e-22)
(1.09431 -0.0767606 0)
(1.04012 -0.0355894 4.24163e-21)
(1.04456 -0.0361451 0)
(0.333289 -0.00570741 -9.9675e-21)
(1.05257 -0.026665 -4.37025e-21)
(1.00605 -0.0216756 6.74885e-22)
(0.349268 0.121693 -3.28845e-22)
(0.873108 -0.116083 2.67765e-21)
(-0.0298923 0.0869207 -2.59478e-20)
(1.04659 -0.0415937 0)
(0.953242 0.0497585 -2.82413e-21)
(1.0188 -0.0110446 -7.05046e-22)
(1.06952 -0.0393875 9.00887e-21)
(1.06404 -0.0477928 1.3664e-20)
(0.168089 0.0346373 0)
(1.00586 -0.000194645 -9.91587e-23)
(0.22066 0.0556782 -2.07314e-20)
(1.01025 -0.00241615 1.90451e-22)
(1.01076 -0.00274764 0)
(0.0989358 -0.104224 0)