/*--------------------------------*- C++ -*----------------------------------*\
| =========                 |                                                 |
| \\      /  F ield         | OpenFOAM: The Open Source CFD Toolbox           |
|  \\    /   O peration     | Version:  v2012                                 |
|   \\  /    A nd           | Website:  www.openfoam.com                      |
|    \\/     M anipulation  |                                                 |
\*---------------------------------------------------------------------------*/
FoamFile
{
    version     2.0;
    format      ascii;
    class       surfaceScalarField;
    location    "100";
    object      ddtCorrDdt0(phi);
}
// * * * * * * * * * * * * * * * * * * * * * * * * * * * * * * * * * * * * * //

dimensions      [0 3 -2 0 0 0 0];
oriented        oriented;


internalField   nonuniform List<scalar> 
55332
(
0.000328434
-0.000521711
0.000193276
-8.53981e-06
2.16786e-07
8.32317e-06
1.72008e-05
1.29415e-05
-3.01425e-05
-1.10292e-05
3.43123e-05
-2.32825e-05
-0.0368252
0.0143761
0.0224491
6.08481e-05
-5.9542e-05
-1.30599e-06
-4.16222e-05
0.000227783
-0.000186161
-0.00676111
0.00915807
-0.00239696
-3.3059e-05
3.96049e-05
-6.54645e-06
-0.000752185
0.000686987
0.000623251
-0.000156027
-0.000467225
-0.0277456
0.0126609
0.0150847
-0.00165851
-0.000265801
0.00192431
2.93815e-05
5.49848e-06
-3.48797e-05
0.000443363
-0.000432232
-1.11358e-05
-0.00128827
-0.000978767
0.00226706
-1.58571e-05
3.30571e-05
-0.0239871
0.0108424
0.0131447
-3.25885e-05
2.76249e-05
4.96358e-06
9.91267e-06
-4.58892e-05
3.59782e-05
6.98105e-05
9.43683e-05
-0.000164178
-0.0275302
0.0316715
-0.00414136
-2.77377e-05
4.26111e-05
-1.48715e-05
0.017898
-0.0129702
-0.00492773
-0.0112926
-0.0255326
-1.80458e-05
2.18998e-05
-3.85415e-06
-5.58537e-05
-0.000418761
0.000474616
9.11445e-05
-6.09945e-05
-0.000338576
0.000343322
-4.76919e-06
-9.58898e-06
-1.27314e-06
1.08616e-05
-0.0293269
0.0121933
0.0171336
0.000193128
-2.71253e-05
-0.000166002
-0.000472563
0.000827866
-0.000355301
0.00663813
-0.000687967
-0.00595018
-0.000362918
-0.000700143
0.00106307
-0.0225722
-0.0476583
0.0702304
-0.000597188
0.000541331
0.0148448
-0.00265567
-0.0121891
-2.4361e-05
-8.22779e-06
0.000199303
-2.45466e-05
-0.000174755
0.0128007
-0.0197679
0.00696723
5.39646e-05
-7.45532e-05
2.05882e-05
-0.00553608
0.00424782
3.0832e-05
0.000162297
-0.000252063
-0.00015246
0.000404505
0.033113
-0.0240044
-0.00910859
-0.000481263
0.000229209
-0.0085646
-0.0191811
-8.67057e-06
3.31749e-05
-2.45043e-05
-0.000137938
-0.000201905
0.000339847
0.000485619
-0.000316525
-0.000169093
3.20782e-05
-3.8406e-05
6.32766e-06
-1.6124e-05
2.87809e-05
-1.26577e-05
-0.000149822
0.0001182
3.16217e-05
-8.05074e-05
-4.32675e-05
0.000123777
-0.00665017
0.00869046
-0.00204024
-9.54394e-08
3.21735e-05
0.000119673
8.17173e-05
-0.000201387
0.00934129
-0.0162703
0.00692902
-0.0143278
-0.0149991
-0.00722222
0.000461082
0.000495397
-8.90299e-05
-0.000406377
-9.28828e-05
0.000162695
4.48723e-06
-2.25329e-05
0.00256279
0.00595508
-0.00851814
0.0244001
-0.0147947
-0.00960541
0.021397
-0.0352991
0.0139021
-0.00444855
0.00313918
0.00130938
-0.0173772
0.0249007
-0.00752344
0.000614888
-0.000372169
-0.000242735
-2.88139e-05
4.45295e-06
0.0186602
0.0015896
-0.0202499
-0.0012896
0.000446293
0.000843317
-3.97264e-05
1.19906e-05
0.000212603
-3.30552e-05
-0.000179549
-0.00520502
-0.000399594
0.00560461
0.000291149
0.00503657
-0.00532782
0.00104799
-0.00145645
0.000408468
-0.000255465
0.00077011
-0.000514648
-0.0012695
0.00149036
-0.000220875
0.000561024
-0.000206798
-0.000354252
-3.44672e-05
2.8424e-06
3.16254e-05
-0.00031969
0.000632983
-0.000313279
-0.000503451
8.55293e-05
0.00041792
0.000561787
3.30685e-05
-0.000594902
-0.000672276
0.00176896
-0.00109668
0.000933066
-0.00112685
0.000193787
0.0342734
-0.00116036
-0.000225865
0.000184243
-0.00360867
0.00793793
-0.00432925
1.81608e-05
5.92641e-06
-2.40872e-05
0.000606916
0.000154997
-0.000761905
-0.000835482
-2.78919e-05
-1.67332e-06
2.95652e-05
0.00205741
-0.00337958
0.00132218
-0.116913
0.104753
0.0121606
4.45294e-05
-3.46172e-05
0.00751386
0.0168861
-0.0112006
0.000138257
-9.95239e-06
0.000222555
-0.00578192
-0.0272679
0.0330488
0.000940056
-0.00759021
1.79905e-06
-1.54295e-05
1.36294e-05
-2.38941e-05
1.01014e-05
1.37929e-05
-0.000378515
3.99393e-05
2.52488e-05
-3.93228e-06
-2.13166e-05
-0.000152697
0.000107556
4.51401e-05
-2.28613e-05
-0.00017095
0.000193797
-0.00769824
-0.00570497
6.24417e-05
-5.69786e-05
-5.46283e-06
-0.000288611
0.0114833
-0.0111947
4.06334e-05
-0.000161907
0.000121269
5.55093e-06
-4.0018e-05
-0.000111404
0.000152038
0.00178649
0.0168737
-3.37947e-05
2.27654e-05
0.000258649
0.000302376
0.000834678
9.83879e-05
-0.000238883
-2.79565e-05
0.000266841
7.08674e-05
-3.37873e-05
-3.70819e-05
0.0146149
-0.0190867
0.00447186
0.00149665
-0.000448655
1.26857e-05
1.01396e-06
-1.37004e-05
7.45676e-05
0.000411053
0.0086668
-0.00272474
-0.00594204
0.000182082
3.34949e-05
-0.000215574
8.94805e-05
-0.000742019
0.00065254
-9.02012e-09
1.26943e-05
0.000670526
-6.36025e-05
0.0362514
-0.0420332
0.000297309
0.000434145
-0.000731456
-2.58761e-05
3.83191e-05
-1.24433e-05
-3.09365e-05
3.0445e-06
0.00783938
0.0332779
-0.0411174
2.36864e-05
-1.67701e-05
-6.91603e-06
0.0519707
-0.0219304
-0.0300402
-0.000384948
5.93787e-05
0.00032557
-0.0145335
0.0208864
-0.00635288
0.000191272
0.0165491
-0.0167404
0.0416167
-0.0272405
0.00372263
-0.00663416
0.00291151
-0.00122806
0.015843
0.00344367
-0.00503865
0.00159499
-0.011616
-0.105297
-2.19288e-05
-1.35674e-05
3.54928e-05
-0.00023037
3.06487e-05
0.000199724
3.86011e-05
3.22654e-05
8.17933e-05
-7.09133e-05
-1.08807e-05
-0.000169157
-6.12138e-05
0.000571251
4.36351e-05
-4.32687e-05
-0.000109426
-1.82492e-05
-1.09985e-07
1.83593e-05
-2.64738e-05
1.0044e-05
1.643e-05
-6.22445e-06
0.0001668
-0.000160573
0.000129861
0.000365531
4.49439e-05
-3.63307e-05
-8.61011e-06
0.0072851
-0.0246624
1.03698e-06
6.86259e-06
-7.89922e-06
7.80988e-05
-0.00483526
0.00475723
-0.00190736
-0.00384678
0.00575414
0.000183929
-2.38738e-05
-0.000160054
-0.000125174
-4.45009e-06
0.000129625
-0.000765824
0.000473208
0.000292607
0.000572401
-0.0147629
0.0247692
-0.0100062
-6.63778e-05
3.25909e-05
0.00063377
-0.000731804
9.80159e-05
0.000677362
-0.000837609
0.000160231
-9.48314e-05
-0.000144049
-0.00228114
0.00265494
-0.000373805
0.00511099
0.00355586
-2.70709e-05
-5.9884e-06
0.00466066
-0.001217
8.46308e-07
1.05776e-05
-1.14232e-05
-0.000742625
0.000701615
0.00978086
-0.00254567
-0.00723557
-0.00335711
0.00114372
0.0022134
0.000360533
0.00134845
-0.00170898
3.43983e-05
-2.60726e-05
-8.32616e-06
-0.000668315
0.000666814
-0.000152322
0.000146098
-0.0018693
-0.00427347
0.00614278
-0.00535813
0.00174947
0.00783286
-0.0081612
0.000328293
0.000178437
3.64681e-06
0.00155144
-0.00109284
-0.000458578
6.57853e-05
4.23115e-05
-0.000108097
-9.8293e-05
-0.000653882
0.0321062
-0.0117321
-0.0203741
-0.000633107
0.000157749
0.000475357
-0.000161345
-7.81191e-06
-0.00200077
0.00228859
-0.00028782
-0.00530221
0.0034329
3.87947e-05
-2.31164e-05
-1.56777e-05
-0.000145393
-1.59533e-05
-0.000512249
0.000192568
0.000628939
-5.27155e-05
-0.000576236
-0.0179453
0.0481905
-0.0302453
0.0104605
-0.00693685
-0.00352361
2.47509e-05
-2.21771e-05
-2.57146e-06
2.58682e-05
-6.19459e-07
0.000859694
-0.000603403
-0.000256292
-0.000102176
2.68099e-05
7.53661e-05
-3.37419e-05
2.21777e-05
1.15631e-05
-0.00398418
0.00908686
-0.00510282
-0.0183782
-0.00545525
0.0238334
-3.45901e-05
-1.44421e-06
3.60343e-05
-7.54072e-06
8.66806e-06
-1.127e-06
0.000460011
0.000189036
-0.000649028
-0.000659983
2.68757e-05
-2.05087e-05
-8.16671e-05
-3.47914e-05
3.65405e-05
-1.74875e-06
0.00909559
-0.09038
0.0812843
8.35196e-05
-7.39198e-05
-9.59704e-06
-3.96897e-05
-0.0016335
0.00167319
7.44049e-06
-5.02635e-05
4.2823e-05
-1.33623e-06
-3.45014e-05
3.58376e-05
9.25957e-05
-0.00196763
0.00208214
-0.000114558
-3.59264e-05
3.14547e-05
-2.89042e-05
3.30107e-05
-4.1061e-06
0.0173114
0.000623247
0.0101377
0.0180446
-0.00164886
-0.0163956
-0.00231024
-0.00139259
0.00370281
-4.68569e-05
0.000629413
-0.000582594
1.84768e-05
-7.42365e-06
-1.10534e-05
-0.000331936
0.000327214
4.72216e-06
3.74032e-05
6.51353e-05
-0.000129835
-0.000255114
-9.02865e-06
-1.74451e-05
1.02147e-05
1.34718e-05
-3.62356e-05
-0.00100157
0.000301423
0.0083728
0.00208773
2.78896e-05
-8.31683e-06
-1.95726e-05
-3.48353e-05
1.2532e-05
2.23044e-05
0.000223373
0.000433738
-0.000657119
-0.000101625
-4.37676e-05
0.000759803
-0.000126041
-6.52854e-05
-8.4537e-05
-3.70807e-05
2.6132e-05
1.09486e-05
3.86775e-05
0.000523046
0.00149972
5.17232e-05
-8.95117e-08
-3.44119e-05
-0.00160368
0.000931408
0.000512685
-0.00248031
-7.82266e-06
2.33101e-05
-1.54862e-05
-4.04163e-05
6.25356e-05
-2.21234e-05
0.00237073
-0.00230086
-6.98707e-05
0.000129466
-0.000734792
0.00060532
-3.48953e-05
-3.14821e-05
-0.000127312
2.56857e-05
6.98856e-05
1.19071e-05
4.04778e-07
1.13803e-05
-1.17835e-05
-2.6208e-05
8.17014e-06
1.80384e-05
0.00326408
-0.00120667
-2.67921e-05
1.80458e-05
8.74679e-06
-0.0827502
0.0918458
0.000265715
0.000177646
-0.00593344
0.00288874
0.00304473
-1.04999e-05
-2.22916e-05
3.27916e-05
-0.103974
0.0923581
-1.31849e-05
-2.17118e-05
3.49002e-05
-5.17591e-05
1.48373e-05
3.692e-05
0.00629985
-0.00504251
-0.00125732
-0.000107118
6.85589e-05
3.85616e-05
0.00688092
0.00362284
-0.0105038
-0.00064241
0.00217321
-0.0015308
0.0161828
-0.00237573
0.000653355
1.24154e-05
-0.000665718
0.00640706
0.00023107
0.000705544
-5.21515e-05
-0.00255417
-0.000825405
-0.000145266
0.000101997
-3.70588e-05
-1.05132e-05
-1.83618e-05
2.88751e-05
-2.72454e-05
-7.98713e-05
-0.00193122
0.000723116
0.00120811
-9.0812e-05
0.000419247
8.9456e-06
1.8944e-05
0.00290156
-0.00270145
-0.00020005
4.72252e-06
-3.36269e-05
2.5699e-05
-1.52778e-05
-1.04215e-05
0.00159619
-0.00123566
0.0171145
0.0245022
-5.89935e-05
-0.000757243
0.000816241
-0.000138536
1.33622e-05
7.85057e-05
5.01512e-06
0.00568767
-0.00636035
0.000672656
-0.00054973
0.000502871
-1.14854e-05
4.11876e-05
-2.97012e-05
0.000783941
-0.000106582
-2.86045e-05
8.1154e-06
2.04883e-05
1.70574e-05
-3.11027e-05
1.40474e-05
4.14202e-05
6.73542e-07
-1.89229e-05
-0.00153455
-0.0286096
0.02669
0.00191961
-0.102054
-0.0019201
-0.000605402
5.56532e-05
-5.84015e-05
-0.000442375
0.000500775
0.00214043
-0.00154919
-0.000591239
-0.0155709
-0.00447791
0.0200486
2.8312e-05
9.02996e-06
-3.73414e-05
0.000340416
-0.000512771
0.000172369
0.0037119
-0.0179984
0.0142861
-0.00576232
0.00832494
-3.21026e-05
0.000661038
0.000710477
-0.000620997
0.0248956
-0.0332437
0.00834804
0.00134302
-0.001961
0.000617993
-0.00116366
0.00250667
3.54781e-06
-4.84128e-05
4.48664e-05
-0.000668083
0.000362345
0.000305742
-0.0209182
-0.00241965
0.0233381
-0.000102954
-0.000675738
0.00018631
0.000489407
-0.000653516
8.61727e-05
0.000567335
5.90327e-06
-9.29969e-06
3.39581e-06
0.000204204
-0.000728303
0.000524094
0.00222837
0.0158161
0.0160936
-0.0344717
-0.000232768
-0.00150191
-0.00294665
-0.000740646
8.81514e-06
-8.2285e-05
5.50382e-05
-0.0420589
-0.00761575
0.0496747
-0.00693013
0.00243718
0.00449282
0.00224696
0.0108042
-0.0130513
-0.00130918
-3.05664e-05
1.44435e-05
2.6261e-06
-8.49107e-05
-2.16695e-05
-3.00908e-05
-1.94042e-05
3.31129e-05
-1.37081e-05
-1.26912e-05
-1.85638e-05
3.12555e-05
-1.32319e-06
-6.21743e-06
0.0127891
-0.0183252
9.63804e-06
3.53074e-05
0.0191495
-0.0110418
-0.0081077
-7.59503e-06
-2.29718e-05
0.00534399
-0.00177633
-0.00356758
0.00102106
0.00111936
-0.00051437
-0.000202777
0.000717154
3.93977e-05
4.96553e-05
-8.90543e-05
-0.00959201
0.0223811
0.00355567
-0.00164885
-0.00190684
-0.0263343
0.0118008
0.000467374
-0.00497151
0.00450413
-0.000133774
1.24967e-05
0.00012128
1.86522e-05
-2.91522e-05
0.00852198
-0.00575311
-0.00276893
-0.0204886
0.0129202
0.00756835
-2.26588e-05
-4.62816e-06
2.72874e-05
-3.24083e-05
7.18056e-05
0.000202671
-0.000686495
0.000483819
0.00933814
0.00855985
-0.000394514
6.9768e-05
-0.00040173
0.104746
-0.0822905
-0.0224552
-0.000140846
-0.000592163
0.000175572
0.000416596
0.00807129
-0.00538796
-0.00268337
2.76901e-05
6.70941e-06
0.0106753
-0.0172574
0.00658214
-3.71065e-05
2.56218e-05
-0.000756532
0.00671153
2.10263e-05
-2.86226e-05
0.0622053
-0.0339588
-0.0282465
-0.00223249
0.000231771
-0.00976646
0.00733569
0.00243088
-0.000443901
-5.95512e-05
1.1431e-05
-3.05815e-05
1.91506e-05
0.00620671
-0.00248413
-0.00417571
0.00226832
-0.000862501
0.0359168
-0.0350538
-0.00427545
0.00494392
-0.00066848
-0.000156167
0.000198628
-4.24627e-05
-0.000421237
0.000421224
2.17722e-06
7.28269e-06
-9.46201e-06
-0.0136708
-0.0857757
0.0994466
-0.0100734
0.00636712
0.00370624
-0.0039469
0.00321316
0.000733713
4.40912e-05
0.000179356
-0.000223447
-6.27295e-05
3.26915e-06
5.94603e-05
0.000306626
-0.000155521
-0.000151105
-0.00367754
0.00575538
-0.00207778
-0.00202161
0.00438442
-0.00236271
-0.00769163
0.0329153
-0.0252236
-3.88079e-05
0.000407194
-0.0003684
-3.13057e-05
2.26353e-05
-0.000174305
-0.000270535
0.000444819
-0.0109385
0.000865107
-0.00522767
6.45145e-06
0.00522123
0.000624792
-0.000357373
-0.000267423
0.000196676
-1.39003e-05
-0.000182791
1.21521e-05
-4.68045e-05
3.46511e-05
-0.000160964
-0.000659571
0.000820536
0.000921884
0.00714939
5.13658e-05
-0.0001347
-0.000658638
-8.20201e-05
-0.000400757
-0.00123274
0.000178579
0.000128047
0.00277862
-0.0012357
-0.0015431
-0.000804734
0.000219181
0.000585559
-0.000142669
-0.000449493
2.59316e-05
1.28691e-05
-3.88009e-05
1.27222e-05
-2.77769e-05
-0.000105997
0.00027007
5.83326e-05
-0.000328406
-0.00054818
0.000603905
-5.57226e-05
-0.000141568
0.00033796
-0.00019639
0.000574465
-0.00285559
-0.0034091
-0.0016324
0.0050415
-0.000368047
0.000329236
0.00978078
-5.07548e-05
5.43035e-05
-4.72285e-05
-2.6762e-05
7.39909e-05
0.0384361
0.0237692
0.0394006
0.0125701
0.000566894
-0.00036269
1.53588e-05
-5.84769e-06
-9.51183e-06
5.2251e-06
-1.39555e-05
8.73044e-06
2.61349e-05
-8.88641e-05
2.19916e-05
-9.80295e-06
-1.21894e-05
-0.0103397
-0.00079991
0.0111396
1.40292e-05
-9.66142e-06
1.48866e-05
-4.89674e-05
7.8933e-05
-2.99673e-05
1.69599e-05
-2.69125e-05
9.95281e-06
0.0112651
-0.00192379
-0.000484464
0.000310165
-2.08001e-05
6.55601e-06
1.42425e-05
0.000158116
-8.57829e-05
-7.23332e-05
0.000203889
6.61823e-05
9.28308e-05
0.0189518
-0.0240497
0.005098
1.69287e-05
-5.90823e-06
1.82832e-05
-1.23762e-05
-0.000384776
0.00163529
-0.00125052
-0.00757693
0.00245305
0.00512389
0.000234945
0.000353644
0.000571011
-0.000924706
-0.00365767
-0.00327265
0.000787558
7.21361e-05
-0.000810908
-0.000478684
5.49821e-05
-8.70084e-05
3.20232e-05
3.33098e-05
0.0112721
0.0230013
3.96667e-05
-0.000142868
0.000103207
7.83422e-05
-4.29007e-05
-3.54401e-05
0.000213388
-0.000727764
0.0191633
-0.0464317
-7.15215e-06
7.55654e-06
-5.47883e-06
6.51603e-06
2.01533e-05
8.36293e-05
-0.000103783
0.00501859
-0.00808813
0.0030693
-4.04739e-05
4.90791e-05
-8.60538e-06
0.00016915
0.000311191
-0.000480341
0.00252351
0.000378139
1.22145e-05
2.09673e-05
-3.31817e-05
-0.000252398
0.000421546
6.98085e-05
0.00893082
-0.000992936
-1.62791e-06
-0.000116234
0.000117859
1.5129e-05
-2.7532e-05
1.24025e-05
0.00301082
-0.0135603
0.0105494
-2.45367e-05
1.86288e-05
1.5505e-06
-1.24126e-05
-0.040586
0.0248814
0.0157046
0.000174511
-5.48369e-05
-8.80071e-06
-0.00164974
-0.000373034
-0.0416859
-6.90714e-06
-1.38937e-05
-6.60663e-05
-0.00186515
-0.000168253
-0.00589748
0.00606573
-0.00956422
-0.00967992
0.0192442
1.50182e-05
-1.32196e-05
9.00884e-05
-6.46024e-06
-0.0073886
-0.0131001
0.0110328
-0.00853179
-0.00250104
-5.32614e-05
-0.00022104
0.000274295
-0.00295629
0.00178245
0.00117382
-4.07414e-05
4.81809e-05
0.000833862
-0.00478623
0.00395235
2.966e-05
-1.45302e-05
-0.00402797
0.00171769
0.0131374
-0.00939
-0.00374756
-0.00338044
0.0102613
8.8017e-06
2.93838e-05
-3.81852e-05
-0.000109805
0.000149471
0.0011913
-0.000322896
-0.000868407
0.0008753
-4.73128e-05
-0.000827986
0.00041296
-0.00468841
5.08655e-05
-5.49449e-05
4.0805e-06
0.0135344
-0.013343
0.0258083
-0.0354003
-0.0555774
0.0330052
-0.0224625
0.00154429
0.0335468
-0.0371373
0.00359034
0.000118773
-0.000258986
0.00014021
3.44597e-05
-0.000114965
-8.00597e-05
0.000198824
-2.28525e-05
2.5733e-05
-2.87847e-06
4.03343e-05
-5.08222e-05
1.04882e-05
4.65051e-05
-6.7014e-05
-0.00909548
0.0121062
3.99525e-06
-3.15011e-06
1.8306e-05
1.04583e-05
-2.8764e-05
0.00844178
0.000716264
-0.000517174
-0.00399901
0.00383075
0.00079462
-0.000440982
-1.41779e-05
2.63926e-05
1.2609e-05
-6.47821e-06
-6.13069e-06
0.0353889
9.47456e-05
8.90549e-06
-0.000103647
-0.0171301
0.00756587
0.000344994
-0.000117683
-0.000227308
0.000313494
-6.4563e-05
-0.000248933
-4.37966e-06
-7.44156e-06
1.18214e-05
-0.01163
0.0374383
-0.000339884
-0.00161689
0.00195677
-0.0665884
-0.00852321
0.0751113
-0.000880132
0.000821143
-3.1438e-06
1.01366e-05
-6.99513e-06
-3.23257e-05
4.11275e-05
-0.00121185
0.00193497
1.6982e-05
-5.73987e-05
6.07994e-05
-9.93314e-06
0.00864224
-3.2262e-05
3.69846e-05
0.00233219
-0.000497746
-0.00183445
0.103423
-0.079075
-0.0243475
0.0401629
-0.0152674
0.00633958
-0.00497594
-0.00136365
-0.00029252
0.00116782
-0.0239493
0.00421981
0.0197294
0.00123891
0.000255598
-0.00149451
-0.00622612
0.00547002
0.00109143
-0.000132406
-0.000959031
-0.000952177
0.00076148
0.000190705
0.0206973
-0.022449
0.00175188
4.92092e-05
1.16399e-05
1.9599e-05
1.10319e-05
-3.06295e-05
-6.1111e-05
4.38604e-05
1.72509e-05
0.000507696
0.0267194
-0.0452599
0.0185405
-0.0368797
-0.0141211
0.0510009
2.99147e-05
4.84817e-06
-3.4763e-05
-7.39131e-05
-0.000347314
8.75245e-06
3.85659e-06
-2.51589e-05
6.45554e-06
1.87035e-05
0.00810651
-0.0158046
-0.000839629
-0.000723044
0.00156266
0.0378631
-0.0587577
0.0208944
-0.0583637
0.021484
-0.00915087
-0.000615595
-1.99466e-06
-3.02673e-05
-2.19283e-05
6.84336e-05
-0.00416412
0.00214263
-0.0302177
0.038057
0.00205379
0.000363451
0.00026134
-9.16263e-06
6.22854e-07
0.000234339
-0.000560651
0.000326343
0.0378036
-0.0110842
-0.00289719
-0.00214145
4.57933e-06
-3.04556e-05
0.00594907
0.0147484
0.0183632
-0.0051554
-0.0132075
-0.00030636
-0.000369381
0.0150138
0.000342372
-0.015356
-1.56797e-05
2.94015e-05
-1.37211e-05
0.00929339
-0.000851625
0.000154904
-3.13964e-05
-0.000123508
-4.02968e-05
4.29215e-05
0.000125863
-0.000210057
8.41926e-05
-0.000187987
-0.000333724
-1.18717e-05
4.44796e-06
-0.00735095
0.00841203
-0.00106106
0.00402112
0.0190869
-0.023108
0.0706329
-0.051212
-0.0194209
-0.0497148
0.0323585
0.0173563
-5.30628e-05
0.000252367
0.000134112
0.000103525
-0.000237641
-0.00367412
0.0279296
-0.0242555
7.66766e-06
2.12642e-05
-2.8932e-05
0.0191419
-0.000778724
3.20383e-05
-2.71545e-05
-4.88208e-06
-0.00785923
0.0292563
-0.00592284
0.0170322
-0.0111092
-0.0234045
-0.0005448
-0.00589291
0.0114995
-0.00560665
0.000201554
0.000346754
-0.00054831
1.31118e-05
2.46311e-05
-3.77426e-05
1.22397e-05
-1.12261e-05
0.00015397
-0.000178517
3.48253e-05
-2.62644e-05
-8.56125e-06
-0.00405506
0.0376017
0.000203425
-0.000253095
0.000476461
1.66139e-06
2.88415e-05
-3.05034e-05
0.000495622
-0.000177697
-0.00031789
0.0164944
-0.0783715
0.0618771
-1.31457e-05
3.55632e-06
1.02591e-05
1.79655e-05
-2.82249e-05
-0.000604146
0.000908559
-0.000304408
1.21073e-05
1.12038e-05
1.19788e-05
1.00128e-05
4.65955e-05
-7.79098e-05
3.13112e-05
0.00408463
-0.0102569
0.00617228
3.63539e-05
-2.32418e-05
0.0298889
-3.27835e-05
1.71038e-05
0.00163919
0.000829856
-0.00246909
0.0208159
-0.00186409
0.0025243
-0.00426506
0.0017408
-4.50431e-06
2.19527e-05
-1.74475e-05
0.000107241
-6.83189e-05
2.80227e-05
0.00158758
-0.00114129
0.00223334
-0.00799579
7.68105e-06
0.000145247
-0.000152931
0.0179293
-0.0845177
-0.000111948
0.000320914
-0.000208965
0.0380309
-0.0131427
-0.0248883
2.79609e-05
4.07762e-06
0.00177991
0.000157316
-0.00193715
-0.000276401
0.0002764
0.0024671
-0.000827897
0.0714291
-0.0335661
-0.00116055
0.00146519
-0.000304652
0.00811251
-0.00312191
-0.00499073
0.000418212
-8.91123e-05
-0.000329099
-4.05744e-05
0.00010733
-6.67565e-05
0.00329047
0.00948583
-0.0127764
0.000196675
0.000103052
0.000234906
-0.00072558
-0.0268046
-1.87453e-05
3.06301e-05
-1.18831e-05
-0.00277219
0.00268497
8.72027e-05
-1.41219e-05
1.41124e-05
-0.000105346
0.000156712
0.00300207
-0.000940968
-0.0020611
0.00223702
-0.00194592
-1.75757e-05
-6.31834e-06
-0.00207095
-0.00048321
2.99479e-05
0.00292012
0.0102172
0.01078
0.027251
-0.000495616
0.000181035
0.000314566
-3.95191e-05
3.16347e-05
7.88535e-06
-0.0270537
0.0215985
0.0161714
-1.01635e-05
1.78558e-05
-7.69293e-06
-0.000172557
-0.000128707
0.000301266
-0.000517269
-0.000136236
0.0203561
-0.00755533
0.000521741
-0.000122701
-0.000399042
-0.00139805
-0.00155832
-3.83441e-05
0.00177893
-0.00093031
-0.000848623
-0.000556725
0.000209003
0.000347722
0.00979257
0.00505229
9.25814e-05
-8.92061e-05
-3.37514e-06
3.42507e-05
-2.17008e-05
-1.25493e-05
5.08469e-05
-3.36208e-05
-1.72209e-05
-6.95365e-06
9.12938e-06
0.00165142
0.00112709
0.000138878
-0.000138882
-3.12486e-05
-8.26996e-06
-8.53094e-06
2.8131e-05
-7.35936e-05
0.00473426
0.0301433
-0.00478847
-0.0253549
-8.14234e-06
3.75237e-05
-0.000530658
-0.000235174
0.000583669
-0.000123641
2.05889e-05
9.88921e-06
-3.04768e-05
0.000758403
-0.000562254
-0.000196153
-6.66162e-05
3.88834e-05
2.77326e-05
-6.67294e-06
-2.1932e-05
-8.53429e-05
7.01828e-05
1.51624e-05
0.0224517
-0.000333956
-0.0030231
-0.0246279
0.00122335
3.65718e-05
1.42751e-05
0.00129114
-0.000996665
-0.000294478
-0.000724909
0.00179899
-0.00107408
0.000474953
0.000101672
-0.000576633
-3.60062e-06
9.08008e-07
-3.21563e-05
-0.0160404
-0.0336743
4.06092e-05
-1.94829e-05
-2.11265e-05
-2.57685e-05
-3.53425e-05
-0.00374944
0.000316337
0.00343303
-2.38083e-05
1.14933e-06
-6.47953e-06
-2.03123e-05
-0.00179812
-0.00223962
0.00403761
-4.12811e-06
2.2289e-05
-0.000350172
0.000232489
2.15139e-05
-2.73256e-05
5.81204e-06
0.000109194
0.000362118
-0.000471313
-9.70182e-05
0.000127587
-3.05623e-05
-0.000231873
0.000200466
3.14007e-05
-1.42997e-05
4.59345e-05
0.000882767
-0.00160767
-6.33413e-06
2.78481e-05
-8.36256e-05
-0.000177019
0.000260632
0.0111694
-0.0145568
0.00338746
2.19517e-05
-1.65185e-05
-5.4338e-06
0.0211833
-0.000457654
0.000363299
9.43537e-05
1.09148e-05
7.15628e-05
0.000698864
-0.000770429
-0.000236969
0.0156133
-0.022194
0.00658079
0.00119718
-0.00306579
0.00186862
4.63009e-06
-1.58765e-05
1.12462e-05
-2.75704e-05
-7.66944e-07
2.83349e-05
7.90239e-05
-2.50593e-05
5.26007e-05
-0.00380209
0.0158803
0.0240869
-0.00298006
-8.08973e-05
0.00306094
0.000111787
-0.00043855
0.000326766
0.000908687
-0.00613638
-8.03183e-05
3.13503e-05
-0.000663036
0.000317471
0.000345559
4.38699e-05
1.86647e-05
-3.55239e-06
3.18639e-05
0.00394323
-0.00279952
0.00118902
0.00227422
-0.00346324
0.00343276
-0.0280606
0.000304848
-4.61428e-05
-0.000258703
-0.00018143
-4.4435e-05
7.96728e-07
2.78542e-05
-2.86511e-05
8.92782e-06
2.04735e-05
0.0048725
-0.00492988
5.73844e-05
-0.00784275
0.00635517
0.00148757
0.000557202
0.000201199
-0.00364403
0.00227022
0.00137376
-0.000119455
0.00024532
0.000366632
-0.000536856
0.000170234
-0.000829647
0.000225501
7.44552e-05
-3.70485e-05
0.00759599
0.0206247
-0.0282207
0.0151174
-0.0160027
0.000885467
-0.00029869
-1.78368e-05
0.00194973
0.000421005
-2.63266e-05
2.84643e-05
-2.13823e-06
0.0135236
0.0015939
-0.000525129
0.000634323
0.000932072
0.0102372
-0.0197717
0.00857129
-0.0128625
0.00634207
0.00652056
4.55637e-05
-3.43354e-05
-1.12272e-05
-0.0014419
-0.00125962
0.00342367
-0.00355044
0.00012675
2.87623e-05
-5.96073e-06
-2.28005e-05
-3.72138e-06
-1.71646e-05
2.08882e-05
-0.00525196
4.69295e-05
-1.91144e-05
2.93742e-05
0.00340265
-3.27869e-05
1.8957e-05
1.38298e-05
0.000366683
-0.000585245
0.000218561
0.00606046
-0.0216315
-2.53399e-05
-4.12759e-05
0.0010067
0.000580869
0.000626035
-0.00128101
0.000654976
0.00387547
-0.00233364
-0.00154184
1.34296e-05
-4.25734e-05
2.91444e-05
0.000573774
0.000844792
-0.00141856
2.00001e-05
-2.03853e-05
3.85845e-07
-2.18968e-05
-5.7537e-06
2.76513e-05
2.38118e-05
-1.73566e-05
0.00229903
-0.00120789
-0.00109114
-5.52917e-05
2.9523e-05
-1.45818e-05
-2.24989e-05
-1.67781e-06
4.05593e-05
0.0305969
-0.031743
0.0011462
-1.77552e-05
-1.50287e-05
0.000705669
-0.00109044
0.00513379
-0.0022926
-0.00284122
-0.00613494
0.00245739
0.00149718
0.00237831
0.000627046
-0.00110854
0.000481505
-1.21934e-05
1.68233e-05
-3.87658e-05
0.000456976
-2.21907e-05
2.98586e-05
3.20741e-05
-7.36258e-05
4.15527e-05
-4.44029e-05
4.53361e-05
-9.32301e-07
-0.00494831
0.00541567
3.12242e-05
-3.29037e-05
2.16636e-06
-3.70038e-05
3.48372e-05
5.15212e-05
-9.20953e-05
0.0255942
-0.0296052
0.00401099
0.00455218
-0.0022107
-0.00234165
-2.59995e-05
-4.32336e-06
3.03248e-05
0.000219085
6.95557e-05
-0.000288644
6.55646e-05
-2.17034e-05
-0.096421
-0.000125935
0.000133616
0.0217321
-0.0199316
-0.00180027
0.001082
9.43229e-06
0.000105769
0.000527211
-0.00128133
-0.00293121
0.00421254
6.51092e-07
1.87854e-05
-1.94364e-05
-3.19418e-05
1.61591e-05
1.57837e-05
1.47374e-05
-2.80383e-05
1.33023e-05
-0.00532364
-0.00753877
7.94075e-06
1.97497e-05
-0.00013005
0.000316346
-0.000186296
0.001739
-0.00302033
2.98118e-05
0.00336692
-0.00339674
-0.0134409
-0.00317624
0.0166171
0.00120619
-1.49007e-05
-0.00679297
0.00338802
0.00340494
0.000283072
-0.000180021
2.10757e-05
-2.47954e-05
-0.00287062
0.00600987
-0.000141747
1.581e-05
-0.012534
0.00219419
0.0227239
-1.62077e-05
6.04394e-06
-0.00231468
-0.00361878
2.50977e-05
-1.36666e-05
-0.00369325
0.00452711
-3.50203e-05
4.60583e-05
-1.10368e-05
-0.0148884
0.0109042
-9.6132e-05
-0.000185276
0.000281398
0.00174263
-0.00817315
0.00643052
0.00228539
0.00284839
0.000385099
0.000799881
-0.00118498
-3.06792e-05
1.29244e-05
-4.33306e-06
-5.07826e-06
9.40941e-06
0.000639372
-0.000463793
0.0256707
-0.000319713
-0.000632468
0.000582329
-0.00010913
-3.03464e-05
3.79356e-05
-7.58992e-06
0.000277416
-0.000709172
-0.000417687
1.65894e-05
-4.69362e-05
2.66605e-05
9.64296e-07
0.000741553
-0.000700139
-0.000123734
-2.14405e-05
0.000145177
-0.009194
0.0112806
-0.00208664
-1.0633e-05
-1.00911e-05
2.07249e-05
0.00100028
0.000778645
-0.0038101
0.00100639
0.00280371
6.6512e-06
-3.26504e-05
1.37901e-05
-0.000333547
0.0218804
-0.0215469
9.18657e-05
-0.000119643
0.0269616
-0.0108681
-0.012966
0.0433194
-0.0303534
-0.000657335
0.0007289
0.000596318
0.00356814
-0.00416447
-0.00044258
-0.00229354
0.00273612
-0.000156305
7.0523e-05
0.000122418
-6.16298e-06
-0.000116256
-2.65461e-05
-0.00057886
0.000605406
-0.0164013
-0.00731929
0.0237206
0.000576734
-0.000737704
0.00258625
-2.6109e-05
2.41593e-06
2.36927e-05
0.00179097
-0.00714873
-6.11311e-05
4.35048e-05
1.76262e-05
-0.000328369
0.00220706
-0.0018787
2.19565e-05
6.54613e-06
-2.85025e-05
0.029531
1.05474e-05
-0.0295415
0.0139291
-0.0129249
-0.00100423
0.0607561
-0.0233504
-0.0374057
-0.00306092
-0.00956262
0.0126236
0.000141919
4.20073e-05
0.0216581
-0.00819007
-0.013468
0.0233691
0.0373869
0.000302592
-0.000496667
0.000194051
0.00909796
-0.00487625
-0.00422165
0.000476453
0.00278762
0.0140327
0.0261302
4.83385e-05
-4.66776e-05
0.000200915
0.000428485
-0.00191915
0.0235773
0.00717562
-0.00215681
1.62815e-05
8.37811e-05
-0.000100065
0.00411033
-0.00294868
-0.00116165
-0.000354663
0.000425938
-7.12749e-05
-0.0747845
0.021209
0.0535755
-4.41135e-05
2.12187e-05
2.28949e-05
1.17598e-05
4.40494e-05
-5.58082e-05
-2.03516e-05
1.34443e-05
-1.99405e-05
-4.59081e-05
6.58515e-05
-3.55439e-05
4.73037e-05
3.40815e-05
-2.85847e-05
2.16544e-06
-9.12057e-06
-9.6398e-06
-2.2302e-05
9.63807e-06
-4.51512e-05
3.5514e-05
0.000260859
-0.00181005
-0.053556
-0.0212285
-0.000294922
-5.97425e-05
-2.22554e-05
1.64505e-05
5.80556e-06
-7.31136e-05
-0.00620878
0.00628191
-0.000240797
8.84754e-05
2.51067e-05
-8.14701e-06
1.85022e-06
-2.94221e-05
1.423e-06
2.73404e-05
0.00366984
0.00485208
0.00495519
0.000388818
2.6346e-07
-2.58839e-05
2.56198e-05
0.000101487
0.00443651
-0.00547828
0.00104175
-8.92718e-06
4.59311e-06
0.000192893
-0.000193259
3.65945e-07
0.00954999
-0.00391934
-0.00563064
-2.50946e-07
-5.00123e-05
-0.00108202
-8.85134e-05
0.00117054
-0.00133412
0.000692094
0.000642021
0.0104793
-0.00639476
0.000751674
-0.000778223
-2.37656e-05
-9.97718e-06
-6.8811e-06
2.02403e-05
-1.3359e-05
0.000158006
-0.000327099
-0.00464693
0.000269896
-0.000200156
-1.32718e-05
-8.98342e-06
-0.00065007
0.000657259
-7.19039e-06
0.0170311
-0.00607355
-0.0109576
2.35718e-06
2.17077e-05
-2.40646e-05
0.000893184
-0.000827826
-6.53926e-05
-9.80786e-05
0.000285783
-0.000187703
-0.0032072
-0.00409722
0.00730437
-7.58943e-05
0.000210003
-2.72864e-05
2.96431e-05
0.000123701
0.000769457
-2.52548e-05
-3.55926e-06
-3.02392e-05
-0.000216
0.000246199
-0.0349089
0.0129786
0.00147816
0.000908295
-0.00238646
-0.000918895
-0.00041522
-0.0027228
0.00239443
-0.00136619
0.00302327
-0.00165708
-4.89273e-05
2.64362e-05
2.24901e-05
0.000518582
-0.00046002
-2.88325e-05
-1.4053e-05
4.28878e-05
0.000237743
-0.000335822
9.89964e-05
-0.000197028
9.80416e-05
-0.000120891
0.000751066
-0.000630176
0.00462597
-0.00402964
-0.0167676
0.00318531
-0.00199629
-1.63292e-05
-1.62793e-05
3.26097e-05
-5.37149e-05
7.3479e-05
-1.97636e-05
0.00973026
-0.0146647
0.00493449
0.000250309
6.31888e-05
1.43456e-05
-3.06742e-05
0.00014082
4.4273e-06
0.000183505
-6.1118e-05
-0.000122385
-0.00142521
0.000343192
-0.000389183
1.54779e-05
1.87733e-05
-0.000146138
0.000175166
-8.59415e-05
-8.92203e-05
-0.0166214
0.0070665
0.00955495
-4.18097e-05
0.000133674
0.00059049
-0.00156109
0.000970571
-0.00148369
0.00141763
-0.0493074
0.0487066
0.000600661
-0.00762205
-0.0416853
0.00522313
0.00387484
-1.09643e-05
2.87573e-05
-1.77929e-05
3.91905e-06
-3.0028e-05
-0.00865401
0.00288234
0.00577171
-2.63691e-05
3.02875e-05
3.55191e-05
4.28247e-05
-1.6189e-05
-6.53149e-06
2.27203e-05
6.67041e-05
-3.46292e-05
0.00075128
0.000539857
0.00112197
0.00348799
-0.00460998
-5.07877e-05
5.40567e-05
0.00514499
-0.00583295
-0.0364409
0.0184955
-1.84243e-05
2.77654e-05
-9.34062e-06
0.00389928
0.00502002
-0.00891927
-2.22824e-05
-4.37567e-05
6.60394e-05
2.47688e-06
2.87739e-05
-3.12508e-05
0.000434893
-0.00341499
0.00735835
-0.0313628
0.000403114
-0.00134844
0.000519489
0.000167412
-8.99116e-05