/*--------------------------------*- C++ -*----------------------------------*\
| =========                 |                                                 |
| \\      /  F ield         | OpenFOAM: The Open Source CFD Toolbox           |
|  \\    /   O peration     | Version:  v2012                                 |
|   \\  /    A nd           | Website:  www.openfoam.com                      |
|    \\/     M anipulation  |                                                 |
\*---------------------------------------------------------------------------*/
FoamFile
{
    version     2.0;
    format      ascii;
    class       volScalarField;
    location    "100";
    object      omega;
}
// * * * * * * * * * * * * * * * * * * * * * * * * * * * * * * * * * * * * * //

dimensions      [0 0 -1 0 0 0 0];


internalField   nonuniform List<scalar> 
37190
(
0.0273584
0.0242654
0.0243402
0.0240379
0.115674
0.02454
0.0317438
0.0805058
0.0228201
8.45829
27.4451
1.98029
0.189706
0.0254537
7.539
0.391951
0.0243446
0.210772
0.0234763
0.0257638
0.0291995
0.489836
0.0242947
2.34653
0.14779
0.0248961
3.59145
0.0270688
7.93509
0.0246653
0.91349
0.0256261
0.0276151
0.0834235
0.0282595
0.621168
3.61688
0.279105
0.0234653
0.0268764
0.890074
0.0222934
0.395471
0.0255382
3.50562
0.0589363
3.4901
1.98967
0.0224574
0.0300015
0.0243653
0.0220842
0.0247465
0.0320187
0.0250991
0.0863394
0.022089
0.0255972
0.321888
0.910378
0.0779008
5.14459
0.0293909
0.0249903
5.48478
1.57025
0.381865
2.73026
3.08811
3.01869
0.0234562
0.133044
0.0285048
0.0242847
0.024478
0.042096
2.24895
3.66594
0.0275264
3.83526
3.45238
0.024054
3.17955
0.0245057
10.312
0.0390739
3.14661
0.269903
0.0323919
0.68613
0.023514
8.20355
0.0277567
0.0241375
0.0521677
0.975851
0.0258347
1.52553
1.01103
0.0244421
1.63144
0.0840109
0.0248073
0.0222933
11.198
0.0243395
0.02509
9.879
4.37451
0.0246913
0.467097
0.0249609
0.0240446
0.0249548
0.10852
0.0240381
3.42197
3.00789
0.029217
0.0261404
0.0815906
3.61733
0.0247666
0.0244901
6.423
0.0298932
5.68001
0.0247795
10.2621
1.61444
3.58316
0.0248398
0.0242679
0.620105
0.0243724
1.49192
0.0251037
0.371428
1.3749
0.17065
3.00124
0.0799657
0.076954
0.98172
0.0260393
0.0235091
0.0261515
0.0272011
0.0234456
3.0386
0.0250958
0.0238096
0.0222308
0.0367346
4.71555
0.0242481
3.01209
0.0249088
0.0428497
5.32502
0.0257153
0.0282265
0.0263492
0.0276677
3.3117
0.0262485
8.22183
7.43317
0.0292876
3.14286
6.14647
0.02281
0.0843407
0.0234612
8.17725
21.9177
0.148271
0.0515935
0.0248977
7.64599
0.036727
0.0792109
0.651562
2.83906
0.029921
10.0163
0.0250157
9.60822
1.70473
0.0430634
0.0233787
0.234019
0.0777348
0.0248738
0.0233346
3.23763
3.53154
2.30295
2.98268
0.0250759
0.0245256
0.0801052
0.0249427
0.0244373
0.513167
0.481729
0.0240262
0.0246452
7.81606
0.042593
0.0249361
0.0239893
1.39281
0.025296
3.77997
0.0260824
0.0241515
0.0249857
23.2901
0.024032
0.0271766
0.023993
1.70948
33.0226
3.26094
1.01141
0.256057
3.33073
0.0248611
4.44381
7.54803
0.0249453
0.022223
0.0243867
0.0239852
0.0284133
2.98445
0.0222016
0.024933
0.0573709
0.0232765
11.485
0.0318518
0.0223462
8.76066
10.7978
0.0241818
0.0395769
25.5388
0.025745
0.0265672
0.0288671
0.0598674
0.0262462
0.0232307
0.0271854
0.0233007
0.0245122
0.0524656
0.0221644
1.40771
7.50463
0.0352854
0.0220816
0.963483
0.0276278
0.0244074
0.135147
0.0233536
0.057347
0.0292056
0.024865
0.47674
10.4819
0.0817974
8.03169
0.0524708
0.0250447
10.351
0.0224049
0.0234023
0.069401
0.0273206
0.0222054
2.80894
0.0239899
0.0245247
0.0503493
0.140065
0.0283479
0.0282983
0.0253361
0.0702905
3.27156
0.0225855
8.85351
0.0234572
0.0261004
5.92494
0.0238042
0.0733373
0.130678
0.951093
3.24127
0.0264816
0.0317244
2.13802
0.0244907
3.53885
3.46294
4.62716
3.57579
4.51223
0.836192
0.0293495
0.0299616
0.0245544
0.0252689
3.45577
0.025043
3.59493
3.68347
0.0245882
0.0347659
0.960736
0.489061
0.0297637
2.72824
10.421
0.0233716
0.820914
3.3653
2.37289
3.83017
0.0247438
0.0234157
0.0244026
0.0248139
0.0242355
0.0246331
0.408469
0.0242594
4.31312
0.024728
3.11167
0.034024
3.7997
0.0229697
0.411222
2.76288
0.378325
0.0385134
0.0264476
0.0220772
0.307242
0.18056
0.0235248
0.0229478
3.59827
2.35369
3.57291
4.25206
1.08897
3.56981
3.64039
2.77134
0.0249213
2.36026
0.0225797
6.62892
0.0247249
0.346322
0.216599
6.73332
0.0246352
0.0223018
2.99436
6.86285
1.61424
0.0455527
0.024996
33.1536
0.0245305
1.40987
0.237455
9.72634
0.0237737
0.0228644
0.0230804
0.122703
0.250528
1.77574
0.0258154
0.0224455
3.43855
0.25305
10.6911
3.49691
26.6735
0.0228877
6.06479
2.78981
0.0225932
8.27728
3.7775
0.0230786
0.684167
2.60707
3.75292
0.0234501
0.0248935
0.026343
0.0252967
11.9229
0.0425882
3.14239
0.0396835
0.0258148
41.0685
0.0245383
0.0227698
0.341716
1.45276
0.0340261
0.0246974
0.0221688
0.0228523
0.0249496
5.42678
9.37031
0.0221725
0.0235046
0.0235013
0.315249
3.37457
0.0248636
0.0316581
0.0252108
0.0318799
3.73871
0.0251002
0.0246066
3.66908
0.0480999
6.70448
41.1608
3.36557
0.0837022
0.0285259
0.0270068
9.63421
0.306916
0.0507147
0.0266101
3.60793
1.62205
0.0232753
0.0246949
0.023048
7.39408
0.0225256
0.066638
2.78983
0.0248147
0.0682007
0.0230142
0.622569
0.0580959
0.024214
0.293414
0.0245849
0.0247522
0.12294
0.0255524
0.178824
0.719099
0.0248596
0.0680094
0.0247006
0.0729858
4.33363
0.0247952
0.0230882
0.173951
0.0557481
0.0435799
3.17845
0.0261774
3.93267
0.0242142
0.252291
2.90331
0.0545415
0.0230374
0.0505906
0.0272393
0.0257844
0.0471248
0.0246046
1.38796
0.420993
0.612386
3.40826
1.79004
0.0248741
0.025095
0.0248072
0.0263952
0.0262368
0.0249308
0.32698
0.0234771
0.0242192
0.0885266
7.79105
0.0674801
16.5001
0.0247724
0.024677
1.63068
0.0264967
4.28992
0.0421965
0.0319513
0.0246347
0.420055
0.0403801
1.34842
0.0284023
0.0246805
0.0230347
0.0729831
0.0264746
0.0246118
0.54208
0.02399
0.042041
1.07908
0.907521
0.0617844
0.026408
0.870777
0.037249
9.05795
0.0395031
4.05901
1.89352
0.0245468
0.0237549
0.0228135
4.21767
0.398716
0.422925
0.0220821
26.9417
0.0246822
0.0273638
4.34803
0.0297427
1.46783
0.420579
7.2593
0.0239882
0.0248725
0.251919
0.626364
2.75315
3.54786
0.0244661
3.33919
0.400937
0.0879485
0.0253913
1.90147
3.76828
3.54332
3.51232
0.0233796
0.0880758
0.0298205
0.0233812
0.0265572
0.0273418
0.0248679
10.2784
0.380034
0.472016
0.342712
0.0270396
0.0511131
1.56374
0.023152
3.83361
0.0238679
0.368553
2.52582
0.874156
2.8111
0.0270213
0.024362
0.0247563
0.0268767
0.0248862
1.72341
0.0425711
0.0576418
0.0233725
3.02717
0.568693
0.0246562
0.0231775
4.2667
0.0259139
0.0249484
0.0269047
5.70188
0.024352
1.10243
0.0233798
0.321622
3.73448
0.0358793
0.0235464
0.0264957
0.0234304
0.0291796
4.17966
0.0295198
1.31766
0.0251634
2.28408
0.0238769
0.197843
35.1175
0.289356
1.49381
3.55856
0.0480729
0.0252012
0.0237977
2.95389
33.8779
0.0430754
0.271091
0.0242241
3.25146
0.0247907
0.0226435
0.040149
2.21582
0.0222775
0.0546093
2.89453
2.90964
2.20434
3.40087
0.0241345
0.47902
2.40553
0.0250641
0.0263865
3.63818
0.826786
0.0439695
3.13812
0.0276358
0.028112
0.0278346
0.22216
0.0266104
0.0247869
0.0235845
0.0245333
0.807555
33.1664
0.0241554
0.0237648
0.0730561
1.81976
0.0254914
0.0263421
9.36952
0.0240585
0.055431
0.0246987
0.0234493
0.0251815
1.82167
0.14144
0.879757
0.0235623
0.027308
0.0733571
7.55041
0.0245933
0.0241476
0.34469
0.024511
0.0227945
0.166725
0.0235161
0.0221547
0.252739
0.0235212
0.0421958
0.0223014
0.0244315
0.053686
0.0754727
0.0241445
0.0704438
0.0223013
3.8869
0.0708159
0.0232693
1.78013
0.0249383
0.0242259
3.71319
3.4205
3.51011
0.0440343
0.0233136
0.0253504
0.022318
0.161589
0.581859
13.137
0.0413786
10.3627
0.0235404
3.63099
0.0265416
0.0244899
0.14969
0.0460273
0.885325
0.0252792
0.0323697
0.0224075
0.0233928
0.0516766
0.205905
0.0560139
6.17451
0.0267136
3.58363
3.85988
7.22501
0.393921
0.377398
0.0243741
0.0298536
0.0234255
0.378718
0.0247038
0.0671129
0.995253
7.31488
0.0241851
2.84595
0.0424203
0.0239137
0.0253205
0.0449557
0.0231798
0.117907
0.0225421
0.0267966
2.13008
0.024685
0.0291935
0.0272854
0.03144
0.0229465
0.0670674
0.0255486
0.0236133
0.0273876
0.086037
0.0227777
0.0223398
0.0247105
1.6058
0.0233676
3.72405
0.0360927
0.117148
0.0307286
0.0375979
0.0233242
0.0253195
0.0231548
0.0249039
0.0225651
0.0391011
0.0247112
0.0250111
0.0237977
0.36461
0.18188
0.0240955
0.0253725
0.022831
1.40946
0.0291226
3.40507
0.0404
3.15084
0.0375551
0.0240568
0.0248902
0.0249238
7.21474
0.0249244
0.026337
0.0387958
0.0350801
2.36945
0.0271965
0.0478257
0.0430775
0.0260307
2.81785
0.0289917
5.3044
0.381005
0.025157
0.0359809
0.022288
3.90644
0.0242051
0.414462
3.53123
1.11869
0.0348053
0.0273298
0.023365
0.024568
3.52301
1.1184
4.12489
0.0260829
0.0261934
0.0252867
3.20876
0.0261852
0.0234845
8.59365
0.0375887
0.0984802
0.0249162
0.028223
0.0360642
0.0240694
0.0247625
0.797748
0.0262801
0.489847
0.496621
3.42049
0.0809266
0.0386768
0.0316847
0.0308522
3.9409
3.17565
9.29912
0.254602
0.023481
0.712771
0.0244948
0.0310723
0.0237468
1.86546
0.456179
0.395877
4.87145
0.025652
0.38631
0.388376
8.5897
0.158357
0.0518617
0.968596
0.023387
3.36227
0.395363
9.98295
0.0258879
0.0339987
0.0245225
0.638228
0.0221413
0.0235095
0.0248746
0.0246424
0.0235102
0.0254041
0.0245246
0.0248754
0.0245449
0.0334343
0.648708
0.0243798
0.0235599
3.47936
0.0367824
0.0235134
0.0253117
0.0239223
0.528565
3.15894
0.0252181
0.0266153
0.0637668
0.0245634
0.0324094
0.172605
0.0260134
2.36918
0.0326398
5.79065
3.60856
0.024435
0.0228734
0.0242919
2.88079
3.74927
0.0235551
0.0257904
8.54092
0.0230849
3.40154
0.032189
0.411712
0.0521085
0.0230829
3.39822
0.0234475
3.23893
1.58474
0.0658265
0.0312873
0.0316996
0.0767576
0.0260818
7.77804
0.0226947
0.0322037
7.99672
0.0387723
0.0802345
0.305338
0.047408
0.0227299
0.0228714
2.62535
0.0319787
0.0227182
0.0296218
0.029914
2.93611
3.55856
0.0249172
3.63165
0.0486027
3.50846
0.0262816
17.0296
0.0645769
0.630093
0.640972
0.1588
0.0227228
0.0234708
0.24255
0.0234583
0.0266019
0.0253132
0.0248683
0.0274992
0.0585055
0.0228908
0.0801488
2.21913
0.0233965
0.255944
0.0227317
0.0233682
14.6976
0.0650303
3.92053
8.12972
0.0314691
0.0494488
0.0453653
0.0228483
1.02709
0.248706
0.0246386
3.41435
0.0237568
0.0245611
0.0264601
0.0233485
0.192533
0.616259
0.0241231
6.73496
0.0229968
2.2886
3.12481
2.77109
3.57576
0.552706
0.0292827
0.0267512
0.0345444
0.0254458
0.0244883
0.0735362
0.0250777
3.60816
0.0229852
0.0245163
0.0242053
0.0237098
0.368961
0.0239655
0.0361849
34.4331
0.0246606
0.0347144
0.0233433
0.0225201
0.0251412
2.33152
0.197546
0.0239939
0.024685
3.65161
0.0241346
3.28684
0.172456
0.024622
0.439374
0.0259804
0.0238138
0.0238573
0.0226908
0.402275
0.0322232
0.0287781
0.0440256
0.0449992
3.07731
0.0227542
0.428912
0.0245976
0.0274128
0.0251002
0.0327231
0.0248128
1.96155
0.50617
0.291749
0.0225571
0.0868688
0.0249356
3.87419
0.0993739
0.0246244
0.0263081
0.087566
0.0243172
8.47213
0.205835
0.0233933
0.0252862
0.025136
0.0242484
0.026075
0.0240545
0.0260375
0.0244716
0.0255064
0.0260045
0.0233455
0.0536656
0.0241671
23.2989
0.0236943
0.0248257
0.34252
0.0246197
0.0263795
0.0246258
0.0253812
0.0245542
0.0242844
0.0262488
0.150418
2.24742
0.0234155
0.82291
2.78734
2.32155
0.0233064
3.6432
0.0253756
4.32031
0.406249
1.60964
0.0317495
3.64308
10.0447
0.0289871
0.0302698
0.0267157
1.51567
0.0223611
0.0335486
3.81392
0.378133
0.0237594
0.0231607
0.0238482
0.0670057
3.87636
4.64304
3.59749
3.24147
0.0231581
6.11004
0.468962
0.393708
0.0571508
0.0481987
0.023731
0.025938
3.64086
3.33171
0.0265009
0.0243075
0.0450888
0.023341
7.24072
0.0260843
0.0243266
0.0356024
0.0630807
0.022935
0.131716
0.0946901
1.5765
0.0229235
25.5221
0.0232946
3.38627
0.508201
0.057255
0.0241963
0.324815
0.0238586
0.0241961
0.0824216
3.66492
0.0227759
0.026311
0.389001
0.0313287
0.025954
0.0223973
1.48431
3.56437
2.84692
0.174671
3.97716
21.3293
0.0311356
2.59759
0.025761
0.0241151
1.23723
2.28681
0.118696
0.023514
0.0383913
3.57807
1.8454
0.0868671
0.0991822
0.277551
0.0355742
0.0270196
0.0361647
0.920218
0.0239485
0.0446035
0.0245485
3.33736
2.95005
0.0221065
0.0242989
0.0354765
0.350553
0.0231029
0.0245414
0.024596
1.9566
1.44515
0.0822623
4.02955
0.0248714
0.0232845
0.0295894
0.0241106
0.53872
9.21379
0.0806242
0.479669
0.0245786
0.0406795
0.0232654
0.0234001
0.0239241
0.0237391
0.0296419
3.88091
0.0248916
0.0292512
0.49596
0.0422385
11.9707
0.1035
0.0227259
0.0239642
0.075527
0.022895
0.676964
0.0227564
0.0234923
0.0227729
0.0992998
0.0228841
0.0266337
1.92078
0.128964
0.37236
0.0245848
0.026418
0.0236573
0.0237869
0.0232164
1.86087
0.0391277
0.0263184
0.242914
0.0283208
0.0244982
0.378472
0.180272
0.0232152
0.0270523
3.47411
0.0372158
0.0944876
0.0244639
3.6072
0.0233727
0.024669
0.059864
0.0242159
0.308616
0.0824807
0.0222118
0.0230936
2.74467
9.95908
0.0239739
0.0239693
0.025728
0.0227544
0.0221294
0.0233665
0.0300155
0.480067
0.112489
0.0239779
0.0227458
0.0252331
1.6069
0.398303
0.0240774
0.0321393
1.48731
3.48919
0.0251151
5.08637
0.0227181
0.0387717
0.0745101
0.0930108
0.0257296
0.0241222
0.0220875
11.2748
0.0695333
0.0262327
0.0257251
0.460932
0.0260822
0.0244347
0.0225569
0.452024
0.0247711
0.0985495
0.167321
0.0229721
0.0242106
3.0758
0.0514529
0.0234203
24.2944
0.0241962
0.497497
0.0233527
0.0676238
0.351624
0.0253369
0.213568
1.57389
0.0246322
0.0244048
0.0244736
0.0372514
0.035164
8.79713
0.0234173
0.0701327
0.0270377
0.083674
0.02492
0.127895
0.0228247
0.49396
0.0261354
0.0245472
3.73318
0.0347003
0.0242891
0.0228354
0.0267385
0.658634
0.0386836
0.0251265
0.0242483
0.0243135
0.0337466
9.99311
0.0326952
3.32072
0.024783
0.0531069
0.02334
1.54468
0.0224051
0.36267
0.0302393
0.0250175
4.11086
3.30459
0.0244648
0.204509
0.0236767
8.16535
4.01236
0.0229361
1.53259
0.0231039
0.0264851
0.463365
0.110108
0.381481
4.02214
0.0225052
1.40058
0.0242414
0.0242518
3.28401
3.73247
0.0225606
0.0512649
0.0248655
0.0367555
0.0244927
0.0411443
0.02385
0.0524301
0.0245522
0.0241643
0.0494988
0.0254938
0.0721472
1.29439
0.657534
0.0244712
0.0237506
0.0723505
0.0690242
0.295356
0.0236499
3.20011
0.0248209
0.0231436
10.1646
0.0240421
1.41474
0.0224733
0.0279318
4.87656
0.0231283
0.0237738
0.0240651
0.0251621
0.0250758
2.37749
0.0256277
0.985287
0.261222
0.0280475
9.01854
26.3342
0.0237238
0.0245678
12.2729
6.18643
0.0263869
0.0255004
0.650684
3.67795
0.0242365
0.0377312
0.0224201
0.0243059
1.09346
2.28147
0.058896
0.304618
0.025439
0.0254909
0.365926
0.041723
0.0222903
1.91743
0.0448943
0.0525746
11.0979
0.0232999
0.195593
0.0242742
0.0250186
0.0230783
0.0388144
0.0364308
0.0496115
0.0261397
0.0265516
0.0521151
1.53552
0.0245071
8.86028
0.459354
1.65
0.0227653
0.0229644
3.77488
0.0242337
0.375101
0.0248054
0.0703086
0.179271
0.0245124
0.638756
0.0241563
0.578123
0.0536247
0.118217
1.50375
0.024979
0.0248352
9.65533
0.0245616
0.625647
0.0457072
0.234842
0.109322
0.0251812
0.0774323
0.0262476
0.0295721
0.0351909
22.8604
0.0236099
0.0232978
4.25763
6.10588
0.0460678
3.67532
0.0261387
0.0234597
3.45072
0.044723
1.57836
0.359155
3.83477
0.0254988
0.0347249
0.02503
3.41735
0.0262327
0.372479
0.0229072
0.0234928
0.0251596
3.73385
0.5762
0.0303243
0.0324267
0.0282814
0.0222869
0.0739052
0.0222063
2.93102
4.02167
2.73093
0.0222195
0.0264277
3.53568
0.0323251
2.28779
0.0226534
0.0229128
0.0887596
2.75828
0.0259064
4.52184
2.66417
0.0255355
1.67369
0.142086
0.0269635
0.0246289
0.721261
0.402325
0.0231021
0.0416767
3.24631
0.0234878
1.56675
0.0516712
2.99707
3.33817
0.0252118
0.0241356
0.0227959
0.0227853
8.86084
0.0259596
0.0234293
2.37425
0.0238814
0.0425628
0.0257626
0.253329
0.0474742
0.0824764
0.0236262
0.0274457
0.122006
0.0437505
0.0248395
0.0244082
0.0478091
1.29658
0.0242384
0.128719
3.03143
3.23222
0.321238
0.0237629
0.0283909
14.4835
3.79902
0.0247005
0.0245362
9.13701
0.653264
1.83036
0.0268685
0.473893
1.45283
0.0238809
1.33959
0.12933
0.0251962
0.024356
0.0229027
11.7183
0.0242366
8.88836
0.206289
3.55801
0.236183
6.07011
3.28277
2.62863
6.15629
0.0242014
8.10525
0.0767378
0.024671
0.040124
0.0390532
0.127796
2.64119
0.0240519
0.0257925
0.0238501
0.341688
0.023504
0.0232784
0.0252032
0.0271805
0.0259577
1.47603
0.0467116
0.0225027
0.027218
0.0270252
0.0788208
0.0251927
0.130175
0.0261771
3.08486
3.26571
0.0234748
2.86823
0.238522
2.95142
3.49666
0.0270298
10.6551
0.0241603
1.55444
2.95567
0.0242219
0.0238381
0.0245107
0.0240505
0.0270804
0.0308549
0.0240934
0.48551
0.0249709
3.15948
0.0271793
2.75378
0.02327
0.0240672
0.387591
0.0238744
0.0244566
0.0242582
0.058162
0.0261025
0.0251081
0.0268114
0.0238177
0.0618218
0.0230957
0.0708376
0.0244792
0.0354803
3.64327
0.0250633
0.11685
0.0764997
0.0241762
6.7162
0.0233978
3.48451
1.91525
32.1683
0.0559344
0.0235525
0.0822715
0.0939811
0.024628
0.03214
0.0361273
0.038763
0.0269311
0.0237614
0.387706
20.0916
0.0246493
2.98857
0.115208
0.0232814
0.0237671
0.0227324
0.0810174
0.606153
0.217384
0.0240019
0.0235458
0.353974
0.0359684
2.14911
8.0248
0.0241894
0.0253271
0.0232995
1.45077
2.38004
0.0231346
0.032698
0.582345
3.62716
0.0315094
0.0277288
0.0225377
0.0248719
3.46768
0.269339
0.0241743
3.36254
0.0236199
0.627907
1.03698
0.0374849
0.24167
0.513428
0.0247893
0.498227
0.0367191
5.42205
26.3928
0.0232824
2.37216
3.38612
0.116785
0.476104
0.0279183
4.15102
1.99925
0.0327215
0.0229695
0.188582
0.384426
0.560469
0.06862
0.0250105
0.260837
0.0241703
3.18387
3.46629
0.11053
0.0277207
0.0250007
0.0242355
9.48952
0.0233844
4.32179
14.2463
0.052449
0.0240713
9.40674
0.023965
0.0512079
2.81038
0.55814
0.0254746
0.0246493
0.0245492
0.0245316
0.0429272
0.0242813
0.0416066
0.0349318
0.0246364
0.02243
0.122779
0.199619
0.0233831
0.0233572
0.0244964
0.0252906
0.0275283
1.41391
4.31282
5.55791
14.6111
0.0244561
0.0239904
0.0506858
0.0624005
0.0233692
0.0807058
7.72675
9.91848
1.5709
1.10309
0.0526302
0.0319362
3.33376
0.0236256
0.374675
0.150805
0.0226551
0.558247
0.0256248
0.0756359
2.98267
0.0554563
0.0312945
13.1916
0.0241179
0.0238869
0.0223907
0.0290296
0.0240799
0.025001
0.0242202
2.76296
0.0294996
0.0243494
0.031692
0.0261984
0.589256
1.52759
1.95182
0.024526
0.0233194
2.60105
0.0874955
0.667272
0.0241571
0.0263841
0.0243565
0.0253771
7.52737
0.0283381
0.0237006
0.0242028
0.11688
0.0236869
0.0368305
0.0234295
0.0233847
0.0252589
0.102558
0.0516681
0.0287548
0.0234326
0.330158
0.0451621
8.88668
3.35036
0.0249948
0.155034
0.16205
0.0476593
3.64545
0.0254088
0.594281
0.0251275
0.0489789
3.86063
0.0232753
0.0241453
2.41857
0.0223824
0.341437
3.68354
0.0234679
0.0619403
0.0229853
0.0241485
3.6953
0.0228502
0.0234079
0.023338
0.0225878
0.029861
0.0241032
3.36563
0.0233504
0.295025
9.82444
0.0251829
0.0239631
0.0234872
0.0233547
0.0262114
8.08948
0.0229581
0.0593173
0.0291444
3.74788
3.3124
0.0254688
0.0400416
0.042657
0.0224327
0.0231368
0.508892
0.0222815
0.0225388
6.36328
2.69266
3.48624
0.0246094
2.74674
0.533768
0.0224783
0.0406331
0.0243675
0.0243535
0.0226455
0.0240585
3.89295
0.0243478
0.0243875
0.310097
0.0259268
9.70186
0.0258576
0.0247181
1.40081
0.0231298
10.0462
0.0227311
0.0254189
3.4535
0.024222
0.0232878
0.0240859
6.44727
0.454038
0.0246425
0.0242175
0.0226802
0.0296859
0.604278
0.126386
0.0245511
12.3607
1.00496
0.0241362
1.57974
0.022423
0.228324
0.470076
0.0225801
0.028116
2.40899
0.0317242
9.09243
0.0487469
0.0408615
10.7024
0.0270222
1.32911
0.0237787
0.327119
0.024442
3.81054
0.025262
0.0280442
0.0324744
0.0233288
8.2147
0.532362
8.79415
0.186022
0.0230435
3.92793
0.0223585
0.0239608
3.5978
0.0228209
2.89246
6.48801
0.0224679
0.0266785
0.0425748
0.143099
0.0232961
0.0785612
0.036916
0.613163
3.68811
0.0245357
0.0242419
0.0239495
0.0223609
3.275
0.0747067
0.349037
0.0234444
29.125
3.34547
0.0222587
0.0226913
11.9271
0.768977
3.80359
0.217331
10.2986
0.191959
0.0591196
0.0502863
0.457608
3.75582
0.0260673
0.0391082
0.0237497
0.0267764
0.204742
1.62703
0.0252362
0.160798
0.451761
0.0237103
0.0249601
0.025101
0.0266362
0.0240594
1.00355
1.03522
5.10557
0.0228935
0.789733
0.0347512
0.135209
0.0785517
0.0652435
9.01097
0.0234385
0.0243403
0.192338
0.0230315
2.37519
0.0515482
0.024469
0.0223416
1.84465
0.0241911
0.0250801
0.023446
0.028893
0.0483461
0.0368953
0.026675
0.0241366
0.0244947
0.259435
0.0232743
0.251494
0.0242451
0.0242504
0.0223985
3.69165
1.29141
4.40728
0.0264255
0.0275905
0.0253357
3.95758
1.63876
0.0240693
3.6102
0.0244592
0.0232204
0.056126
1.97232
0.338966
3.02914
0.109606
0.0782532
0.0239582
0.0246218
0.270254
7.88421
0.042574
0.0221307
0.223078
3.41484
0.0234055
0.0231965
25.9188
0.0253843
1.90685
1.60454
3.42483
0.022983
0.0261582
0.0239565
3.34391
0.0252723
0.0230553
0.0267801
3.79824
1.21863
3.97311
6.09151
0.0254002
0.0232144
0.0238462
3.39863
0.0234229
0.0251647
0.0323454
0.0233907
2.5752
0.0241259
0.0228322
0.0230196
0.039793
0.0244981
0.291
0.0246862
0.0243399
1.64516
0.0243326
0.179584
8.81125
0.0727958
0.0252849
2.29877
0.519744
0.0246368
1.82501
0.0226209
0.242259
0.0397344
0.255574
0.0833706
0.0631165
0.113046
0.0237581
0.0223684
0.0245455
0.0230081
0.0345504
8.66802
0.0377135
1.3832
0.0223031
3.66445
1.73299
0.0248919
1.59219
0.023395
0.103473
0.0248093
3.02302
0.0223343
8.9999
0.0228375
0.0239731
0.03402
5.06199
0.846393
0.0243341
3.81605
4.44357
0.0228696
0.402412
0.0369064
0.0559579
0.483884
0.0240633
2.46976
0.0239773
0.0240901
3.03558
0.038035
0.0227917
0.0239564
0.0231826
0.0230879
0.0251254
7.05224
1.16622
0.84576
0.0237584
0.0244473
0.0779881
6.22777
6.28985
1.97327
0.575126
0.0251522
0.0234951
0.0236501
0.0283822
0.0245366
0.0228832
0.628721
3.89537
9.71248
0.0243303
0.0238944
0.355675
0.0237399
0.0237647
0.0244633
0.0261434
0.212362
6.83959
0.0241064
0.02308
0.0353568
0.0242389
3.76955
0.030271
0.406135
0.024926
0.0515646
0.0239928
0.0226118
0.130112
0.0260713
0.377838
0.023388
0.514406
0.0252537
3.88586
0.0236723
4.11623
0.0235454
0.0833785
0.0238817
0.0236971
0.0243503
0.0591991
0.468327
0.0240768
0.0253093
0.0232695
3.39875
0.0553339
0.354503
0.0271097
0.025778
0.0393022
0.114236
0.0384853
6.98348
0.0241975
0.0247554
8.07332
0.513894
0.0222943
0.228094
0.0262598
0.0232384
0.700337
0.0237808
0.533661
0.0245689
8.84218
0.0237255
2.14259
2.51476
0.0225676
0.0247923
0.022431
0.0250094
0.492067
0.932609
0.488838
11.2625
0.0237219
0.120875
0.0244542
1.59014
0.0223845
0.459448
0.0231859
0.130024
0.0238525
0.023751
0.0252191
6.73377
0.389384
0.621385
0.0505058
0.0447661
0.423342
0.0916715
1.20427
0.0242188
0.0260066
0.0266874
0.02333
0.0228891
0.0470007
0.568164
1.06164
0.0294059
0.0244853
3.55977
0.0245305
0.0722781
0.371543
1.64593
0.0271752
0.0231447
0.0233399
0.0249157
0.0243566
2.88186
0.0493404
0.0237318
0.0264721
0.0483149
0.027183
2.36875
12.3284
0.844052
0.0241563
0.457545
1.59129
0.0486221
1.086
0.0236378
0.0235457
1.82219
3.41968
0.620869
0.023277
0.0258871
0.0226516
3.53038
3.43484
0.0232882
0.0269516
0.0236766
0.0244953
1.07314
3.57486
0.0235975
0.0233195
0.0278083
0.0245508
0.0232567
0.0313312
0.0237581
0.025547
0.0232948
2.55291
0.0233512
0.0764541
0.0231614
0.266011
0.0233331
0.0327356
0.0238454
0.0238373
0.0232512
0.0241851
3.47637
0.0255589
0.03429
0.0257687
6.675
0.0251903
0.99446
0.0236636
26.7157
0.0400158
3.67679
0.419082
1.15409
5.99025
0.557203
0.0226541
2.35464
0.024676
0.0280133
0.506506
0.0837686
0.0406091
3.641
0.0810352
0.026097
0.0285294
24.2542
0.0235472
0.0245454
0.0245799
0.036284
0.0239049
0.022715
0.567942
0.0248116
0.0239351
0.0241171
9.9499
0.0250513
0.0301839
3.36255
3.42261
0.505954
0.0449103
1.8271
0.0269754
4.6313
0.0228708
0.0285228
0.0374489
0.0248694
0.0232327
1.44296
3.44229
0.0511766
0.0324052
0.0251896
0.0248789
1.638
0.0313212
3.38549
0.0251407
0.0242264
0.0243007
0.0241756
0.0247666
0.0236443
0.0313841
0.0246183
0.0246293
0.0290482
0.0248603
0.0239414
0.0249015
1.07867
2.89734
0.0260623
0.0982315
2.30743
0.0707407
0.0341245
1.47675
0.0392637
0.0234845
0.0243574
0.164444
0.0232032
0.0227195
0.0261028
1.04888
0.0227247
0.023555
0.0260269
0.0270348
0.0241149
0.0285236
0.026028
0.495987
4.57818
0.553079
0.0227233
0.0233963
2.35187
2.33754
0.067826
1.41154
3.43097
0.0295982
0.0249328
0.0245476
4.00101
0.391062
0.0239442
0.0380965
0.507756
1.2412
1.84847
2.8765
0.0247919
0.0467399
0.0261944
0.0682878
0.024151
3.70744
0.164286
0.0256122
0.0240812
0.0248777
0.0598264
0.0221036
0.0227282
0.0618659
0.219169
11.9216
3.86827
2.2643
0.0241563
2.21407
2.60033
2.04801
3.37719
0.53715
2.99788
1.63652
0.0246203
0.389528
0.198805
0.023986
3.92125
0.0245053
2.88959
0.0237489
0.0407979
0.0915877
3.00805
0.0239154
0.0384761
0.028116
0.0524624
0.0237165
0.024225
0.374844
3.89084
0.026842
0.128831
0.0233942
0.038735
0.0245237
0.0370731
1.63252
0.431697
3.69712
3.02427
8.29867
0.0268722
3.70334
0.0260478
0.0223622
2.78449
0.453458
0.0231962
0.0252464
0.024786
0.0251495
0.187516
0.023716
2.41484
0.0709096
0.450237
0.024886
0.0376586
0.0402118
3.28753
0.0564597
0.123572
0.37548
1.59821
0.0271151
8.96919
3.83081
0.0239489
0.462396
0.024205
0.0249462
0.0477699
0.022804
0.0237704
3.88941
0.0237274
11.3796
0.02313
2.42108
2.85364
0.0288641
3.22254
0.0565756
0.0223546
3.00437
2.38938
0.768583
0.0246984
0.0249088
0.175856
0.544663
3.52387
0.0232652
0.0319664
0.0258529
0.0250611
0.0367528
0.0550924
0.024906
0.0246783
0.0242076
0.0537218
0.0245084
0.159238
0.0242407
0.0225576
3.8778
0.0251227
0.025613
0.251878
0.0288547
0.0271862
0.0252975
0.0250559
2.78537
0.0249159
0.0246953
0.0236984
0.0284711
0.0227895
0.12133
3.42555
0.027132
0.0242902
0.023751
3.89216
8.19369
0.0367228
7.89203
0.171993
0.0337187
0.0239315
0.44915
9.10396
0.0246361
4.91901
0.0235129
0.167585
0.691834
3.34823
3.68256
0.0239153
0.658204
0.0245902
0.0254416
0.0238194
0.468563
0.024961
3.36666
0.0782419
0.0253734
0.0272559
0.0238823
0.0254767
0.0232364
0.0237185
0.0244248
0.0244274
0.0226728
3.28593
6.07775
0.33382
0.50071
0.128988
0.0247976
0.0242178
0.0240988
0.0248964
0.213873
0.0268906
0.0225501
0.0232494
0.0220965
1.55848
5.53808
0.0417016
0.0225303
3.28807
1.6941
1.45888
0.030106
0.0267208
0.0772013
0.0247243
0.537113
0.0708654
0.0252415
3.47617
0.0235213
0.0253075
3.5595
0.308786
0.0244618
0.0408779
0.0244628
0.0282708
0.324203
0.387372
0.0278723
2.33801
0.364775
7.57192
0.0232844
0.0242195
0.18206
10.8568
2.16207
0.0234206
0.0244852
0.0247803
0.0231383
0.0950739
0.0223757
1.83735
0.0421373
0.0231712
0.025191
0.0250924
0.0247646
0.0748261
0.0248456
0.216911
0.0254223
2.68803
12.9622
3.00188
0.309457
3.47868
0.0238873
3.232
7.0456
0.030001
0.0246684
0.0244783
0.027009
3.04201
0.0247271
0.0231812
0.0251842
0.126487
0.446785
0.0405805
0.0249525
5.1868
0.0711744
0.0227567
8.66881
0.396844
4.40759
0.0234093
0.0262656
0.0340461
0.0755027
0.0252063
0.0749073
0.0231961
0.0238598
0.0249125
3.712
2.58349
0.0244334
0.474818
0.0262116
0.025198
0.0527535
2.24861
3.17224
0.0248238
0.390282
0.0500897
0.0252351
0.0238428
0.345567
6.01755
0.0334372
0.435627
0.296821
0.024574
0.0244442
0.0298199
4.38899
0.0250204
1.55083
10.8459
0.0238988
0.349713
0.297217
0.0246538
3.59375
0.0248372
0.254862
0.0245497
0.0411913
0.0509319
0.0723884
0.172789
0.87562
1.61362
2.96309
0.0245872
0.0235172
0.0678227
0.0237557
0.137397
0.0242333
0.0244388
0.0232368
1.97844
0.0363663
3.25638
0.174151
0.0350767
10.6093
0.4701
0.0239072
0.883908
7.09157
0.0222281
3.62341
0.488234
0.0283194
0.0221928
3.54901
3.38466
0.0231025
0.0248881
0.0512248
0.0276632
0.0250687
0.0266408
3.39802
0.0240683
0.319185
3.25193
0.0237167
0.026899
0.0240526
0.04923
3.22334
10.6469
0.197746
9.80233
3.42121
0.0222727
2.53383
0.0237445
5.97537
0.0231134
0.0240651
2.15587
0.0269304
0.0243749
3.05995
0.024547
0.113291
0.910995
0.0315054
0.0771083
0.353947
0.0392158
3.36713
0.0244578
0.0360348
0.0342169
10.0902
0.024271
2.34077
0.0258995
0.0883232
4.34883
0.412534
0.0259453
0.0892272
0.0245414
0.0250142
0.0233318
0.0252577
0.0522386
0.112649
0.0233401
0.0225213
0.0242314
0.0229642
0.0258767
0.0313865
3.38262
0.0437294
0.0237895
0.0504006
0.0245406
0.359269
1.56275
0.0240617
3.5942
0.492953
0.0231475
0.0229753
3.42297
0.520613
0.29946
0.0264609
2.32234
0.0247318
3.43056
0.0245041
11.6623
0.0355642
1.24815
0.774965
0.0237056
0.0510694
0.0315258
3.37205
0.0245381
0.106416
0.0331868
0.0250202
0.268067
2.65162
3.23388
0.0268469
0.0441179
0.0252275
0.02631
4.73737
0.351034
2.29671
22.8254
5.88272
6.75917
0.642356
4.10391
0.0230892
2.17384
1.61963
0.602489
0.618861
0.250027
0.0233555
0.0238102
0.0233387
0.0230662
0.921004
3.26205
0.0234963
0.0376474
0.0239716
0.0559308
0.0495637
24.5614
0.0237943
0.0236962
0.0256106
0.0224359
0.0594381
0.0295812
0.0410721
3.31357
6.04419
0.0234159
5.61293
0.0233076
0.037934
0.0230538
0.0232891
0.0234663
2.22836
0.0743775
0.0256221
0.0242357
1.14178
0.0633303
0.124498
0.0244545
0.0667467
0.0249601
2.48868
0.0522657
0.0248883
0.0399443
0.0801909
0.0282787
0.0246959
1.0381
0.105029
0.0222033
0.0237291
0.050198
11.452
0.02595
0.0426391
0.0234014
0.0379373
0.0232557
0.0254177
3.35872
0.0223563
0.024888
0.383054
0.395618
0.34591
0.0244681
0.187701
0.0645738
0.0726762
0.286172
3.28608
0.059068
5.22975
3.45619
4.27384
0.0381617
2.69468
1.91619
3.7221
1.75622
0.0330806
0.0237584
0.0246421
0.0245398
0.0239711
0.0303311
0.0346724
0.0237853
0.0696504
0.655827
36.4646
3.66028
0.025103
0.378523
0.0252754
5.9819
0.0249017
0.0235508
0.0224446
0.0221845
0.0256126
0.0258337
0.0232572
2.85096
3.40088
3.61762
0.0285443
0.0268842
0.0233088
11.346
0.0224192
0.629642
0.023335
3.54397
0.0390212
0.0228276
0.0234929
2.87419
3.8719
0.0352505
3.54382
3.77572
0.0237545
0.0237886
0.0234069
0.0363159
0.636741
0.0258352
0.0250819
0.566715
0.0237598
3.14709
0.0268382
0.0243529
0.0231197
0.0694369
0.0258731
0.023786
0.349616
0.0650883
0.201315
0.0246348
3.37419
2.64614
0.0821755
0.0237313
0.0259276
0.0245377
3.44055
0.0228642
0.628607
0.0237867
3.20202
2.39181
0.110167
0.0243813
0.0850402
0.0246002
0.0281901
2.80204
0.0228751
0.0232602
0.203993
0.868001
0.331376
0.0280827
6.43676
0.0243737
0.0238817
0.0227924
0.0252647
0.598958
0.0238465
0.866389
0.0690613
13.7351
1.07101
0.0850208
0.0508918
0.0233172
4.21565
0.0248123
0.024324
0.0225531
0.0735603
0.0245928
0.0281169
0.0339553
0.0243267
0.0235225
1.1559
0.0576991
0.0253867
0.023965
0.0245491
0.0235661
0.0230723
2.51549
0.0283885
0.386233
0.025224
0.0241619
0.0353483
0.181249
0.553779
0.024507
3.00488
0.0241978
0.0245211