/*--------------------------------*- C++ -*----------------------------------*\
| =========                 |                                                 |
| \\      /  F ield         | OpenFOAM: The Open Source CFD Toolbox           |
|  \\    /   O peration     | Version:  v2012                                 |
|   \\  /    A nd           | Website:  www.openfoam.com                      |
|    \\/     M anipulation  |                                                 |
\*---------------------------------------------------------------------------*/
FoamFile
{
    version     2.0;
    format      ascii;
    class       volVectorField;
    location    "100";
    object      U;
}
// * * * * * * * * * * * * * * * * * * * * * * * * * * * * * * * * * * * * * //

dimensions      [0 1 -1 0 0 0 0];


internalField   nonuniform List<vector> 
37190
(
(1.01806 -0.0191062 -3.95015e-23)
(1.0058 3.33004e-05 -1.55429e-22)
(1.01704 -0.00347908 0)
(1.0112 -0.00302118 0)
(0.993967 -0.141263 0)
(1.01747 -0.00970392 7.4506e-22)
(1.0545 -0.0335976 -4.87795e-21)
(0.968647 -0.0764764 -5.50067e-22)
(1.01095 0.00137528 0)
(0.452578 0.00246843 1.58507e-23)
(0.329857 -0.00350818 -1.05675e-20)
(0.960911 -0.166991 1.84691e-20)
(1.07583 -0.094565 1.44873e-20)
(1.04268 -0.010375 5.08242e-22)
(0.232315 -0.00555034 -2.01e-20)
(0.858095 0.180319 0)
(1.01708 -0.00339848 6.28371e-22)
(0.84553 -0.13058 -6.69393e-21)
(1.00749 -0.000300829 -6.39506e-22)
(1.03743 -0.0182869 2.70766e-21)
(1.04746 -0.030377 -3.30879e-21)
(0.865326 -0.157771 -8.27168e-22)
(1.01442 -0.006878 4.23011e-22)
(0.462775 0.348972 0)
(1.0094 -0.138023 0)
(1.00228 3.01609e-05 -5.86212e-22)
(0.463549 -0.0383557 -5.08647e-21)
(1.05771 -0.0135123 -9.16425e-21)
(0.30031 -0.0054452 0)
(1.02559 -0.00158427 7.81849e-22)
(0.920548 0.0964704 1.41554e-22)
(1.01775 -0.0144101 -4.73576e-23)
(1.01215 -0.0134844 1.21783e-21)
(1.05423 -0.0910644 0)
(1.01203 -0.0146691 0)
(0.853561 0.16092 -2.53887e-21)
(0.468751 -0.0397556 1.45521e-20)
(0.885773 -0.310276 2.32185e-21)
(1.0074 -0.000269495 5.96747e-22)
(1.0237 -0.0230507 0)
(0.772275 0.313698 0)
(1.01578 0.00172838 -8.34788e-24)
(0.862347 0.178633 -1.41166e-21)
(1.01781 -0.0142939 0)
(0.332744 -0.0212892 -6.4392e-21)
(0.932314 -0.142507 -2.74522e-23)
(0.335363 -0.0223627 1.76432e-20)
(0.926088 -0.162962 0)
(1.01352 0.00172476 -2.17053e-22)
(1.03221 -0.0345362 -3.64472e-21)
(1.0167 0.00198251 -3.98918e-22)
(1.01239 0.000922221 2.04901e-23)
(1.02915 -0.00661499 -1.03343e-21)
(1.06913 -0.0258436 0)
(1.01259 -0.0069503 -1.02098e-21)
(1.01389 -0.107271 0)
(1.01251 0.000961118 3.84811e-24)
(1.017 -0.0138206 0)
(1.05468 -0.0122824 -9.06522e-24)
(0.93454 0.0975784 0)
(0.971564 -0.073387 1.9315e-21)
(0.255032 -0.00858739 8.88023e-21)
(1.04834 -0.030684 -1.92367e-21)
(1.00165 5.63776e-05 5.8033e-22)
(-0.0475682 -0.20009 2.58888e-20)
(0.976572 -0.317874 1.39559e-20)
(0.841263 -0.00233315 0)
(0.547066 -0.238477 0)
(-0.00983743 -0.0266301 2.66849e-20)
(0.590074 -0.0582944 1.34356e-20)
(1.00742 -0.000231401 0)
(1.09446 0.0128428 0)
(1.01355 -0.0161569 0)
(1.01436 -0.00673966 0)
(1.01444 0.000119753 1.27913e-22)
(1.01188 -0.0158885 1.15186e-21)
(0.225833 0.356158 1.16466e-20)
(0.860111 -0.0847378 -9.9764e-21)
(1.0114 -0.0124978 0)
(0.860942 -0.0726276 0)
(0.349313 -0.02308 1.9114e-20)
(1.01149 -0.00290453 8.15554e-24)
(0.619777 -0.0677516 0)
(1.02087 0.000415852 -1.51537e-23)
(0.515365 -0.0137581 -6.78917e-21)
(1.01689 -0.0470498 -2.99819e-22)
(1.03156 -0.101324 1.48229e-20)
(0.912596 -0.15304 2.84415e-23)
(1.05483 -0.0343936 0)
(0.903772 0.300451 1.10149e-22)
(1.0073 -0.000505024 0)
(0.360536 -0.00707634 0)
(1.01237 -0.014145 -1.57536e-21)
(1.0044 0.000106794 0)
(1.03171 -0.0662419 0)
(0.911111 -0.0265085 0)
(1.03741 -0.0190373 -4.73231e-21)
(0.999091 -0.31758 1.10981e-20)
(0.973249 0.335083 -8.88429e-21)
(1.01426 0.000208962 0)
(0.528894 -0.104339 -8.35786e-21)
(1.01837 -0.103101 4.0427e-23)
(1.03158 -0.00389014 4.04253e-21)
(1.01089 0.000389607 1.11569e-22)
(0.290788 -0.00482053 5.53594e-21)
(1.00452 5.3136e-05 0)
(1.01843 -0.0133512 1.35828e-21)
(0.334183 0.00406333 2.8853e-23)
(0.698191 0.099315 -2.32398e-20)
(1.01748 -0.0109548 1.92459e-22)
(0.899812 0.288226 -3.75485e-21)
(1.01207 -0.00183274 6.87005e-22)
(1.01133 -0.00277075 3.23304e-22)
(1.01205 -0.00200808 1.63706e-21)
(1.08785 0.00550418 4.11197e-22)
(1.01123 -0.00311892 3.13477e-22)
(0.360104 -0.0255292 -2.22382e-20)
(1.05491 -0.102274 1.30635e-20)
(1.03166 -0.0324774 -5.47861e-22)
(1.04561 -0.0168074 0)
(1.07509 -0.0631312 0)
(0.888926 -0.0865916 -8.1034e-21)
(1.03006 -0.0023986 -4.1372e-21)
(1.01669 0.00192337 3.7515e-22)
(0.45937 -0.382252 1.79379e-20)
(1.04603 -0.032733 0)
(0.393746 -0.0120534 6.86144e-21)
(1.03054 -0.00225747 3.33403e-21)
(0.345664 -0.00470483 0)
(0.540463 -0.137267 1.06766e-21)
(0.442041 -0.0356336 5.90531e-21)
(1.00976 -0.000618779 2.59995e-22)
(1.00396 0.000117087 0)
(1.08688 0.0335957 -6.36003e-22)
(1.00389 4.1718e-05 0)
(0.745718 0.176084 1.66061e-21)
(1.01302 -0.000412287 -7.03439e-22)
(1.06315 -0.0266898 -3.75426e-22)
(1.15577 -0.151268 -5.45692e-21)
(0.9929 -0.165213 -1.43501e-21)
(0.718169 -0.159802 -1.85687e-22)
(1.07006 -0.070096 0)
(1.02087 -0.00976685 0)
(0.893056 -0.0550861 0)
(1.03831 -0.0200844 0)
(1.01609 0.00307978 4.17079e-22)
(1.04621 -0.016389 0)
(1.05599 -0.0162684 6.15638e-21)
(1.01594 0.00301481 -2.36118e-22)
(0.579447 -0.0531104 -7.55846e-21)
(1.0182 -0.0133062 -7.94165e-22)
(1.00711 9.72119e-06 9.36677e-25)
(1.01108 0.000496625 -6.91031e-23)
(1.06814 -0.0352613 2.48995e-21)
(0.264837 -0.0101062 0)
(1.01402 -0.00620413 0)
(0.00126021 -0.0105975 -1.27891e-20)
(1.01763 -0.00019813 0)
(1.0308 -0.00182949 0)
(0.0142962 -0.250138 0)
(1.01613 -0.0132965 1.44602e-22)
(1.03206 -0.0298628 4.38655e-21)
(1.01403 -0.00336964 0)
(1.01152 -0.0131719 0)
(-0.00838445 -0.02556 1.91054e-20)
(1.04591 -0.0176149 -2.81908e-21)
(0.422247 0.00228794 -2.02034e-21)
(0.449052 -0.0097514 -2.06565e-20)
(1.03247 -0.0330476 0)
(0.852897 -0.130226 0)
(0.435726 -0.385196 0)
(1.01094 0.00136518 0)
(1.01874 -0.0120906 8.28593e-24)
(1.01023 0.00031899 -1.06212e-21)
(0.44365 0.00136174 -8.86998e-21)
(-0.0267446 -0.0667778 6.93173e-21)
(1.03544 -0.075971 4.62725e-21)
(1.05032 -0.0488938 1.64215e-21)
(1.03255 -0.00847281 -2.30172e-21)
(0.447578 0.000904468 -9.63107e-21)
(1.06764 -0.035723 -2.97118e-21)
(1.03949 -0.0954773 2.79936e-21)
(0.892863 0.303025 -6.92172e-21)
(0.463221 -0.204569 -2.09917e-21)
(1.04687 -0.0325123 -6.77552e-21)
(0.0636766 0.0880607 0)
(1.01762 -0.012576 0)
(0.442208 0.00142061 4.18129e-21)
(0.936872 -0.292456 -4.25661e-22)
(1.05579 -0.0451174 -3.94594e-21)
(1.01596 0.00308452 4.88274e-22)
(1.06692 -0.102072 8.28554e-21)
(1.04143 -0.0915183 -2.45809e-21)
(1.03176 -0.00869449 4.57612e-21)
(1.01582 0.00300995 0)
(0.636686 -0.0718438 1.0526e-20)
(0.590818 -0.0616666 -4.85965e-21)
(0.699338 -0.0564478 -2.28638e-20)
(0.74168 -0.124581 0)
(1.01585 -0.000623717 2.67686e-22)
(1.00384 3.19345e-05 0)
(1.07143 -0.0635678 8.74411e-21)
(1.01716 -0.0120814 3.55867e-22)
(1.0157 -0.00857376 3.58804e-24)
(0.880337 -0.337912 -6.21228e-21)
(1.07964 0.00634301 8.3325e-22)
(1.01026 -0.00111406 -4.44901e-22)
(1.01788 -0.000227922 0)
(0.341698 -0.00728904 -2.29643e-20)
(1.05515 -0.0447091 0)
(1.01695 -0.0120451 -1.28527e-22)
(1.01027 -0.00134338 -5.42555e-22)
(0.938695 0.0526892 0)
(1.03015 -0.0163807 2.71118e-21)
(0.883798 -0.076423 0)
(1.04943 -0.012715 5.75593e-21)
(1.01011 -0.000893248 -4.38469e-22)
(1.01753 -0.012384 3.04175e-23)
(0.515753 -0.136202 3.3181e-20)
(1.01017 -0.00104913 3.78728e-22)
(1.05862 -0.0135827 7.23922e-21)
(1.01061 -0.00189435 8.29764e-22)
(0.964422 -0.296809 -1.05018e-20)
(0.225346 -0.00173758 1.05632e-20)
(0.00500355 -0.00502932 1.60363e-20)
(1.10051 -0.241139 0)
(1.03558 -0.107302 1.33589e-21)
(0.594568 -0.0614199 7.18503e-21)
(1.03331 -0.00269859 -1.63e-21)
(0.613509 -0.0592186 9.13812e-21)
(0.364941 0.00625333 -4.7953e-21)
(1.01302 -0.000351283 3.41927e-24)
(1.01112 0.000501382 7.77139e-23)
(1.00379 3.85402e-05 -6.05375e-22)
(1.01019 -0.00127641 4.4623e-22)
(1.01241 -0.0153254 -1.82383e-22)
(0.717095 -0.125188 0)
(1.01218 0.000930916 5.5488e-23)
(1.01472 -0.000715468 -5.19279e-22)
(1.06441 -0.05259 0)
(1.01584 0.00304422 -1.48343e-23)
(0.411539 0.00140828 -3.52913e-21)
(1.06809 -0.0257875 -4.02263e-21)
(1.01047 0.000711069 0)
(0.523434 -0.0144012 -5.61663e-21)
(0.097616 0.0313143 -2.28438e-20)
(1.00991 -0.000820412 5.21338e-22)
(1.01746 -0.0489331 -5.48962e-23)
(0.283733 -0.0678813 2.41124e-20)
(1.0148 -0.000478199 1.03725e-21)
(1.04283 -0.0218249 -2.20259e-21)
(1.01088 -0.00450474 1.05456e-21)
(1.06314 -0.0538123 0)
(1.04532 -0.0180276 0)
(1.01567 0.00296938 -4.02731e-22)
(1.05659 -0.0157243 -2.74228e-21)
(1.01205 0.00118768 7.13321e-22)
(1.01544 -0.00901397 -3.37883e-22)
(1.02938 -0.0680813 -1.18885e-21)
(1.01144 0.000497202 -6.74814e-23)
(0.965902 -0.01194 3.05709e-21)
(0.231627 -0.00473582 0)
(1.0217 -0.0202523 1.12602e-21)
(1.01218 0.00081422 0)
(0.894503 -0.130447 0)
(1.03739 -0.0280675 3.1379e-21)
(1.01859 -0.00350282 0)
(1.02849 -0.0125374 6.88488e-24)
(1.01482 0.00219202 -2.27297e-24)
(1.05619 -0.0164349 9.21141e-22)
(1.01156 0.00269156 2.40401e-22)
(1.03348 -0.00242186 -5.30429e-21)
(0.932356 0.320936 5.37823e-21)
(0.426209 0.000417078 6.64677e-22)
(1.05001 -0.0929905 -1.76867e-21)
(0.441045 0.00108928 1.23373e-21)
(1.03413 -0.0667238 0)
(1.01801 -0.0129111 -4.43758e-22)
(0.430608 0.000988964 9.36495e-21)
(1.01083 0.0009855 -4.76925e-22)
(1.01505 0.0021995 0)
(1.05016 -0.0506763 -3.39639e-21)
(1.01842 -0.0194884 0)
(1.0121 0.000919539 0)
(0.651964 -0.172858 0)
(1.01051 -0.00182366 -5.82717e-22)
(1.00386 2.35537e-05 5.25469e-22)
(1.04982 -0.0490113 0)
(0.975968 -0.168586 1.47276e-21)
(1.01796 -0.0157508 0)
(1.03279 -0.0302104 -4.99236e-21)
(1.03075 -0.0167201 -4.23814e-21)
(0.981714 -0.071484 0)
(0.573751 -0.0572537 -8.79014e-21)
(1.01063 0.00131834 2.09226e-22)
(0.433529 -0.0049716 2.06716e-20)
(1.00705 -0.000290929 1.78744e-22)
(1.01006 -0.000475088 0)
(0.444113 0.00306963 4.24458e-21)
(1.00759 6.3219e-05 1.76171e-24)
(0.979285 -0.0752328 0)
(0.888493 -0.197217 -6.38858e-22)
(0.878103 -0.161569 6.0845e-21)
(0.568515 -0.0555977 0)
(1.01097 -0.00707445 5.35351e-22)
(1.01595 -0.00185193 0)
(0.282663 0.326532 2.13292e-21)
(1.02061 -0.00326766 -2.48573e-23)
(0.324527 -0.020227 0)
(0.61954 0.0882547 0)
(-0.0615172 -0.19803 -9.64108e-21)
(0.607433 -0.0633304 -1.39023e-22)
(0.405134 -0.0160213 1.09463e-20)
(0.826193 -0.195393 -9.38143e-22)
(1.01199 0.00604184 -4.79668e-22)
(1.01121 0.00501033 5.07979e-22)
(1.01923 -0.00968138 -2.62632e-23)
(1.01373 0.00190666 0)
(-0.0336337 -0.0872692 -8.93272e-21)
(1.0178 -0.0128856 4.12848e-22)
(0.547134 -0.053248 -3.96249e-23)
(0.603402 -0.0608106 0)
(1.01993 -0.000334049 1.90998e-21)
(1.03344 -0.0435021 0)
(1.09259 -0.247097 0)
(1.08143 -0.00884432 0)
(1.03276 -0.0338273 2.77236e-21)
(0.566772 -0.230273 1.83451e-20)
(0.410235 0.00271434 9.70478e-21)
(1.01502 0.00215355 -6.20992e-22)
(0.905645 -0.285531 0)
(0.0465207 -0.283997 1.3864e-20)
(0.297746 0.356543 -3.22388e-20)
(0.856092 -0.073604 0)
(1.02903 -0.00687004 1.16895e-21)
(1.01522 0.00215191 5.37545e-22)
(1.01838 -0.00347705 4.08497e-22)
(1.00524 -0.000197925 0)
(1.01469 -0.00216604 -2.18411e-22)
(1.01795 -0.000271093 -8.81695e-22)
(0.856858 0.170739 6.86986e-22)
(1.01419 -0.00639149 0)
(0.532593 0.103934 -7.77702e-21)
(1.02852 -0.00684605 0)
(0.521253 -0.283777 0)
(1.01465 -0.00198793 0)
(0.415562 -0.0204007 0)
(1.01516 0.0026929 2.76107e-22)
(0.860977 0.161045 0)
(0.586291 -0.222506 5.41915e-21)
(1.0674 -0.0157186 5.2706e-22)
(0.998296 -0.0013954 8.50021e-22)
(1.02925 -0.0231786 0)
(1.01226 0.000843673 1.01322e-24)
(0.98662 -0.0878268 1.90085e-21)
(0.906218 -0.167064 5.01301e-22)
(1.00757 -0.000534992 -3.0067e-22)
(1.015 0.00263756 -5.84165e-23)
(0.45434 -0.0375574 1.1177e-23)
(0.463776 0.353388 0)
(0.448536 -0.0369113 -2.65539e-23)
(0.620045 -0.0691564 0)
(0.883825 0.215433 4.11967e-21)
(0.321174 -0.0195465 0)
(0.30572 -0.017339 -2.23143e-20)
(0.517354 -0.211205 0)
(1.03309 -0.00860207 0)
(0.58845 0.350496 -5.98257e-21)
(1.01054 0.00129172 -4.28603e-22)
(-0.0402776 -0.188514 -3.36962e-20)
(1.02838 -0.00703897 0)
(0.899619 -0.0405782 3.28189e-21)
(1.06716 -0.100317 -6.88187e-21)
(-0.0855234 -0.404915 -2.57639e-20)
(1.02105 0.000298098 0)
(1.01071 0.000489991 1.05026e-23)
(0.716081 -0.157021 -4.30331e-21)
(0.0171978 -0.250542 2.29953e-21)
(0.593055 -0.199895 -5.03137e-21)
(1.00696 -0.00885553 -7.35621e-23)
(1.01268 -0.0054025 -6.17699e-22)
(0.192604 -0.001591 0)
(1.01941 -0.00110528 -1.58015e-21)
(0.977772 -0.114304 0)
(1.03333 -0.0247603 -5.64683e-23)
(0.17336 -0.109782 3.33883e-21)
(1.01619 0.00283836 1.37913e-22)
(1.01487 0.0024566 -1.41651e-22)
(1.01925 0.00145362 -1.47257e-23)
(1.04347 -0.0314494 3.93208e-21)
(1.02056 -0.0987001 0)
(0.882559 -0.255112 3.24493e-21)
(1.01432 -0.00401552 0)
(1.01333 0.00167871 3.09313e-22)
(0.398156 -0.0250188 0)
(1.03801 -0.0225232 -1.36877e-22)
(-0.00652766 0.235985 0)
(0.482309 -0.0438883 -1.95307e-20)
(0.25256 -0.00314179 0)
(1.01097 0.0014512 1.45137e-22)
(0.426067 -0.0116782 7.92454e-21)
(0.492547 -0.214536 1.25282e-21)
(1.01782 0.00188962 6.20553e-24)
(0.420498 0.00284811 -3.16053e-21)
(0.876161 -0.0767129 -9.45931e-21)
(1.01928 0.00148693 1.72679e-23)
(1.07924 -0.11382 -2.45053e-20)
(1.08367 -0.102431 -2.1628e-20)
(0.294729 -0.0157013 1.48715e-20)
(1.00884 7.91922e-05 -9.14341e-22)
(1.03229 -0.00880817 -4.66241e-21)
(1.02893 -0.0227626 -7.8476e-23)
(1.01375 -0.00446235 -8.92762e-22)
(0.381681 0.00419798 0)
(1.06452 -0.0429341 0)
(0.857264 -0.127431 0)
(1.03384 -0.0243036 0)
(1.01436 -0.00413286 -4.23107e-22)
(-0.0208238 -0.0200836 1.50989e-20)
(1.019 -0.00942948 0)
(1.01428 0.00225004 0)
(0.918811 -0.042343 9.55138e-22)
(0.720437 0.183018 -1.73058e-21)
(1.03359 -0.0424701 -1.55252e-21)
(1.02676 -0.00124278 0)
(1.01168 0.000724889 -7.42221e-24)
(1.01493 0.00243233 -5.07687e-22)
(1.0022 4.29159e-05 0)
(0.159377 -0.40711 -1.17382e-20)
(0.218718 -0.00284225 1.49379e-20)
(1.01171 0.000738652 0)
(1.01258 0.00137294 0)
(1.00863 -7.91465e-05 0)
(1.05089 -0.0181351 -2.61408e-23)
(0.408776 -0.0276921 -3.09733e-21)
(1.03336 -0.00360021 0)
(1.06653 -0.0264147 0)
(1.01359 -0.00444706 8.36707e-22)
(1.06753 -0.0265873 0)
(0.278108 -0.0191815 0)
(1.01579 -0.000556134 -1.38652e-21)
(1.01509 -0.00936276 0)
(0.920531 -0.0828721 4.02116e-21)
(0.982709 -0.0254338 -1.23458e-21)
(0.34741 0.00576258 2.94361e-21)
(0.62915 -0.0484876 2.0909e-21)
(0.0469016 -0.283455 -1.37634e-20)
(1.07156 -0.0646915 1.09321e-20)
(1.01417 -0.0162963 0)
(1.0473 -0.0219419 0)
(0.432822 0.000284906 1.16009e-20)
(0.906044 -0.145367 2.73009e-22)
(1.08018 -0.0439291 -1.62441e-20)
(1.04608 -0.0201875 0)
(0.426432 -0.0230406 3.77333e-21)
(0.502972 -0.0751926 1.07331e-20)
(1.01191 0.00117928 -6.94872e-22)
(1.01788 -0.000159863 0)
(1.0154 0.00281113 -2.34626e-23)
(-0.0264481 -0.218941 -3.42326e-20)
(1.01087 0.00125681 -1.79479e-22)
(1.07511 -0.0558879 1.05354e-20)
(0.64485 -0.179219 0)
(1.016 -0.0109105 -8.52759e-23)
(1.07592 -0.0566504 -1.28507e-20)
(1.01519 0.00273844 -6.26087e-22)
(0.906857 0.296499 1.94949e-21)
(1.08629 -0.0460647 -3.15183e-21)
(1.01445 -0.00265795 0)
(0.894917 -0.305258 3.60317e-21)
(1.01518 -0.00927883 0)
(1.02935 -0.00157839 0)
(0.955901 -0.19514 1.56312e-21)
(1.01689 -0.0135538 0)
(1.07598 -0.0930601 -7.26525e-21)
(0.893762 -0.303079 6.63632e-22)
(1.03316 -0.00393735 -4.65394e-23)
(1.05028 -0.0500475 0)
(1.02687 -0.00101618 3.01981e-21)
(1.03019 -0.0162393 -8.862e-22)
(0.557933 0.15723 0)
(1.03114 -0.0036368 0)
(1.01545 0.00285347 -1.18392e-22)
(0.918049 -0.165518 2.72735e-22)
(1.05411 -0.032165 1.03044e-21)
(1.06775 -0.043098 0)
(0.868362 -0.12272 0)
(1.04991 -0.0132635 0)
(-0.205474 -0.261177 -1.61383e-20)
(1.01439 -0.00255116 0)
(1.03438 -0.104845 0)
(0.479099 -0.158833 -7.79937e-23)
(1.05367 -0.0210527 0)
(1.01032 0.00111668 -6.1128e-22)
(1.07931 -0.0442148 1.70468e-20)
(1.01274 -0.00638588 -1.30071e-21)
(1.01588 0.00253171 0)
(1.00838 -0.0107821 6.47737e-23)
(1.01736 -0.0102985 7.65013e-22)
(1.15687 -0.137277 -6.35102e-21)
(0.855902 0.142256 -2.58452e-21)
(0.852293 0.198329 0)
(-0.0327708 -0.0721652 2.66166e-20)
(0.43042 0.0442053 -1.16687e-21)
(1.01407 -0.0012602 1.04313e-21)
(1.01256 -0.00669557 3.29292e-22)
(1.01388 -0.00119247 -3.03562e-22)
(1.0129 -0.000401583 0)
(1.04112 -0.0203044 -4.64781e-22)
(1.0168 -0.0117672 1.36821e-22)
(0.892025 -0.297431 -8.08564e-21)
(1.01042 0.000338559 4.22248e-22)
(1.01423 -0.00197162 -7.8823e-22)
(0.960875 -0.0785123 -1.47319e-21)
(0.396078 0.00435465 0)
(1.03046 -0.0126712 9.95508e-22)
(0.63818 -0.0692875 -1.4558e-20)
(1.01588 -0.0106537 0)
(1.02659 -0.0023409 -3.70064e-21)
(0.576416 -0.165716 1.07827e-20)
(1.03049 -0.0234904 -1.90847e-21)
(0.543545 0.178053 0)
(1.06307 -0.042979 7.51126e-21)
(1.04673 -0.0366987 1.64491e-21)
(1.02449 -0.00180253 0)
(0.861251 0.125414 3.32201e-21)
(1.01031 -0.045505 2.60839e-23)
(0.729686 0.172912 -1.18142e-20)
(1.01781 -0.0160114 0)
(1.01517 -0.00975292 0)
(1.0104 0.0011557 8.9609e-22)
(1.04942 -0.0509031 3.5002e-21)
(1.04204 -0.021499 -2.06063e-21)
(1.0176 -0.010394 -2.39882e-23)
(0.898663 0.296302 -6.47494e-21)
(1.0105 -0.00167377 -5.96804e-22)
(1.01791 -0.00493295 -3.50477e-22)
(0.91941 0.242943 4.55308e-22)
(0.811337 -0.178749 0)
(1.01031 -0.0165139 4.84734e-22)
(1.01549 0.00297946 0)
(0.995066 0.0987463 -1.1329e-22)
(1.01549 -0.0432227 0)
(-0.0287382 -0.185772 7.49638e-21)
(1.02039 -0.000756263 -8.53558e-25)
(0.423879 -0.019126 1.42558e-20)
(0.974753 -0.207014 0)
(1.0177 -0.00976907 4.67212e-22)
(1.00848 -0.00148324 0)
(1.0134 0.00218737 0)
(0.40583 -0.0171444 -8.09673e-21)
(1.02315 0.0395721 -4.98157e-21)
(0.941178 0.0795827 -1.13753e-20)
(1.01265 0.0010112 -5.22932e-24)
(0.282813 -0.00341818 5.28644e-21)
(1.02668 -0.00211491 -3.13514e-22)
(1.03804 -0.0269533 0)
(0.69112 0.117494 0)
(1.01068 -0.0166653 4.52677e-22)
(0.677062 -0.155627 0)
(0.934349 0.0534823 8.27093e-21)
(-0.0902979 -0.408267 4.00304e-20)
(1.01041 -0.00161569 8.58394e-22)
(1.01667 -0.0115009 2.94025e-22)
(1.01831 -0.0964281 4.01966e-23)
(1.08944 0.0087722 1.40862e-21)
(0.569859 -0.234822 -1.94088e-20)
(0.502186 -0.0461547 -2.49246e-21)
(1.00505 3.65897e-05 1.09193e-22)
(0.634327 -0.0694478 -1.22961e-21)
(1.02781 0.0610025 2.95582e-22)
(1.02339 -0.0100886 0)
(1.00871 -0.000434471 0)
(0.994549 -0.199968 0)
(0.301829 -0.116503 -2.73291e-20)
(0.527803 -0.0506972 -1.04406e-20)
(0.125823 -0.220479 -6.71333e-20)
(1.00657 -8.45891e-05 -4.89964e-22)
(0.956214 -0.0739699 0)
(1.05728 -0.0276701 -6.86853e-22)
(1.01518 0.00212343 3.65885e-22)
(1.02173 -0.0206696 -6.94558e-22)
(1.01803 -0.0187681 4.79156e-23)
(1.03352 -0.00299649 0)
(-0.0346578 0.201235 0)
(0.864612 0.0236014 2.69336e-22)
(0.849978 -0.0106674 1.9154e-21)
(0.99051 -0.00023047 -4.19991e-21)
(1.02396 -0.0237402 0)
(1.07627 -0.045947 4.65756e-21)
(0.739707 -0.0498734 -5.13131e-21)
(1.00717 0.000308557 0)
(0.35833 -0.105475 -2.14358e-20)
(1.00933 -0.00238046 2.35642e-22)
(0.83829 0.0130562 -1.45151e-23)
(1.00265 0.0627649 0)
(1.01168 0.0912576 -3.45683e-22)
(0.838094 0.0254233 -4.19948e-21)
(1.01695 -0.014957 -2.54511e-22)
(1.01727 -0.00656775 -1.30378e-21)
(1.02967 -0.00215461 2.98232e-21)
(1.02312 -0.0226997 0)
(1.01093 -0.000723391 0)
(0.440814 0.022215 1.7717e-21)
(1.06391 -0.0433475 -5.53588e-21)
(1.0654 -0.0525772 0)
(1.01225 0.00121679 4.51908e-22)
(0.594802 -0.0598506 -4.18435e-21)
(0.860702 -0.112233 -2.22634e-22)
(1.02522 -0.0016665 2.07085e-21)
(1.00708 0.000231631 3.35518e-22)
(0.456014 -0.0182809 -8.537e-21)
(1.01481 -0.000506802 -2.36986e-21)
(1.00219 4.4442e-05 0)
(1.04581 -0.0221101 -1.45203e-21)
(-0.19475 -0.0607783 7.51427e-21)
(1.0171 -0.00643215 -6.45897e-22)
(0.937928 0.225554 -1.2942e-20)
(1.00652 -7.37763e-05 -1.5292e-22)
(1.09154 -0.106102 0)
(0.288763 -0.0444775 0)
(1.02724 -0.0110915 0)
(1.00769 -0.000622296 6.25137e-22)
(1.02992 -0.0235953 0)
(1.01537 0.00211858 -3.00162e-22)
(1.01331 -0.0170208 0)
(-0.067043 -0.208464 1.12384e-21)
(1.05502 -0.0277899 0)
(0.731342 0.208361 1.15143e-20)
(1.01368 -0.00133036 0)
(0.440773 0.170437 -2.4964e-21)
(1.00944 -0.00246004 -4.70157e-22)
(1.06902 -0.0976105 2.20368e-20)
(0.134373 -0.00199336 2.40579e-20)
(1.0881 -0.104751 -1.2761e-21)
(0.696134 -0.115603 1.00688e-21)
(0.927372 -0.0893248 -4.31114e-21)
(1.04578 -0.025324 1.23348e-21)
(1.01294 0.000626341 2.49459e-22)
(1.01267 0.000894106 3.54594e-22)
(0.464336 -0.122493 5.14772e-22)
(0.172809 -0.001676 0)
(1.06542 -0.0434487 -5.23385e-21)
(0.878559 -0.168404 -5.045e-22)
(1.01453 -0.00234368 8.55428e-22)
(0.591211 -0.240968 0)
(1.03093 -0.00252189 1.13707e-21)
(1.01801 0.00179992 -5.86618e-24)
(0.999334 -0.0209488 -2.43686e-21)
(0.229336 0.354392 -8.77155e-21)
(1.01094 0.000381119 -5.26483e-23)
(1.03542 -0.0682745 1.72565e-21)
(1.06125 -0.101652 7.40267e-21)
(0.445589 -0.167852 8.66963e-23)
(0.424088 0.170283 -8.86551e-22)
(0.371644 -0.0269741 0)
(1.01119 -0.00411961 0)
(1.07979 0.0218624 -4.5643e-22)
(0.613133 0.33128 -1.23127e-21)
(1.00202 1.87769e-05 -1.81688e-22)
(1.01874 -0.017156 0)
(0.581407 -0.0581561 -5.40875e-21)
(0.769339 0.328202 -2.90495e-21)
(1.05918 -0.0451526 4.80515e-21)
(0.889265 -0.121938 1.24503e-20)
(1.0381 -0.027959 0)
(1.01274 -0.00782358 0)
(1.01753 -0.0197976 0)
(0.88014 -0.305689 -7.21319e-21)
(1.03171 -0.0241528 4.05009e-21)
(1.01353 -0.0007933 1.84658e-21)
(1.01055 0.000254052 2.32749e-22)
(1.01928 -0.000971255 0)
(1.07693 -0.114745 2.75013e-20)
(0.148273 -0.00192807 0)
(1.01126 -0.00413798 0)
(1.00858 -0.0015538 2.36402e-22)
(1.01633 -0.0107418 -3.64468e-22)
(0.823846 -0.214148 1.67408e-22)
(1.04336 -0.0104394 3.67044e-21)
(1.0144 -0.00328687 -1.4145e-21)
(0.327521 -0.00400639 2.36992e-20)
(1.01071 -0.00242174 4.22919e-22)
(1.06225 -0.0514041 -3.03564e-21)
(1.02721 -0.00784607 0)
(1.00698 -0.000263164 0)
(1.03051 -0.0151547 -1.02887e-21)
(0.858863 -0.225738 1.63939e-20)
(1.03739 -0.0749434 -2.45527e-21)
(1.01602 0.101174 0)
(1.01036 0.000232533 -9.4091e-22)
(1.01237 0.0022932 8.82857e-22)
(1.04994 -0.0525462 -3.39505e-21)
(0.554626 -0.0207386 -1.13331e-20)
(1.02012 -0.000286946 0)
(1.01122 -0.00405322 -1.66659e-23)
(0.972992 0.00607465 -8.79654e-23)
(1.01611 -0.00928303 7.20652e-22)
(1.01342 0.0021915 0)
(1.02638 -0.0756555 -5.89737e-22)
(1.00754 -0.000491845 3.4519e-22)
(1.01148 0.000494963 -2.34686e-23)
(1.01999 -0.105937 -4.2417e-21)
(1.0073 -0.000540455 -3.16668e-22)
(1.0625 -0.043314 0)
(1.01111 0.000912354 1.24745e-22)
(1.01672 0.00391962 2.73224e-22)
(1.08467 -0.0438332 0)
(1.09144 -0.0536592 -1.39481e-20)
(1.01125 -0.00420319 -1.70619e-22)
(1.05067 -0.0521664 -1.10573e-21)
(1.01102 0.000878331 -6.94853e-23)
(0.343066 -0.0169369 -1.82045e-20)
(1.06633 -0.00349167 0)
(1.00692 3.55204e-05 0)
(0.915535 -0.263775 2.36676e-20)
(1.01512 -0.000431972 4.60478e-22)
(1.01456 -0.00248124 0)
(0.479032 -0.0243236 -7.77101e-21)
(0.360178 -0.0250671 -8.19834e-21)
(0.286688 0.0939074 -4.93004e-21)
(0.996659 -0.0375826 0)
(1.00809 0.000132294 3.28074e-22)
(1.04206 -0.00867076 0)
(1.01595 0.00172098 0)
(1.02633 -0.0729852 3.20812e-21)
(0.853932 0.228111 -2.02762e-21)
(0.0627223 -0.184882 0)
(1.0603 -0.0432068 4.44579e-21)
(-0.0148131 0.224477 -1.35341e-20)
(1.01278 0.00141643 4.25406e-22)
(0.529626 -0.0495179 0)
(1.04339 -0.021287 0)
(1.0208 -0.00341585 4.79108e-24)
(1.03245 -0.075587 0)
(1.02342 0.011089 0)
(1.03133 0.092301 0)
(1.01246 -0.00350603 1.49899e-21)
(1.05436 -0.0346416 0)
(1.01313 0.0015973 3.70844e-24)
(1.00656 -9.98425e-05 1.09072e-21)
(1.00472 0.0138674 6.32538e-22)
(1.00437 -0.00745684 0)
(1.06293 -0.0519741 0)
(0.132339 0.0728583 -8.24403e-20)
(1.02133 -0.0209236 7.20397e-22)
(0.315153 -0.0187859 0)
(0.467191 -0.0221866 -3.85708e-21)
(0.364259 0.00699494 -1.79065e-23)
(1.07082 0.00242662 8.61771e-22)
(0.890112 -0.180589 1.14585e-21)
(1.01686 0.00177754 6.96641e-23)
(1.00986 -0.00512545 -3.79449e-22)
(1.00693 -0.000184279 -4.90772e-24)
(0.902749 -0.175774 -1.64861e-21)
(1.01684 0.00431716 0)
(1.06398 -0.00757517 0)
(0.953747 0.34289 -1.06631e-20)
(-0.0621748 0.0336761 -1.85262e-20)
(1.01305 -0.0053673 3.5627e-22)
(0.664475 -0.166949 3.07769e-21)
(1.00264 -0.00526651 -2.3937e-21)
(1.00963 -0.00257338 1.26267e-24)
(1.01457 -0.00053308 -2.3403e-23)
(1.01452 -0.0179863 -1.20587e-21)
(1.00718 0.000253035 3.46816e-22)
(1.02514 -0.0128357 3.121e-22)
(1.01054 0.00026864 0)
(1.0132 -0.0129065 4.80908e-22)
(0.288656 0.320931 -4.32668e-21)
(1.02681 -0.00774325 1.69831e-21)
(1.01254 -0.0169585 0)
(1.01684 0.00270177 4.52617e-23)
(1.02565 -0.00638023 0)
(1.01142 0.00158203 -3.35486e-22)
(1.05198 -0.0523611 4.86222e-21)
(1.00168 -2.57964e-05 7.53328e-22)
(1.00701 -0.000507823 2.27322e-22)
(1.03875 -0.0268174 4.10875e-21)
(1.04819 -0.0574811 0)
(1.01323 0.00213658 0)
(1.01052 0.000716723 -1.37451e-22)
(1.0276 -0.00771755 -3.68017e-21)
(0.80579 0.161142 0)
(1.00652 -6.29237e-05 -4.62897e-22)
(0.894826 -0.0792391 5.74992e-21)
(1.03232 -0.00939116 0)
(1.04645 -0.0328566 -3.01909e-21)
(1.02427 -0.00631285 -1.22641e-21)
(1.03568 -0.0475099 -8.78468e-23)
(1.00819 0.000128443 -1.16404e-21)
(1.0129 0.000487462 3.75193e-22)
(1.00727 0.00033219 0)
(1.02163 -0.0131762 0)
(1.01066 0.00129424 -2.0555e-22)
(0.997987 -0.0048525 -1.31837e-21)
(1.02766 -0.00751652 6.25665e-21)
(1.01574 -0.0113864 -6.08726e-23)
(1.01265 0.00081811 1.08398e-22)
(1.01234 0.0933118 3.83965e-21)
(1.02443 -0.0813527 0)
(1.01086 -0.00274317 -2.26092e-22)
(1.01383 -0.00442887 0)
(1.01358 0.00223935 2.19333e-22)
(0.955312 -0.0493754 6.00823e-21)
(1.05476 -0.0268307 0)
(-0.0593029 -0.145397 1.17085e-20)
(1.02007 -0.000381286 -3.34152e-24)
(0.606025 -0.0632202 0)
(1.00542 -0.000738269 0)
(1.01071 -0.00341303 0)
(1.03284 -0.0076371 0)
(1.00459 -0.000134669 0)
(-0.0622029 0.0122605 3.87786e-21)
(1.03351 -0.00827538 3.51349e-21)
(1.01736 -0.0149398 6.59533e-23)
(1.00606 -0.00288556 -6.6111e-22)
(1.0051 0.00683974 -8.04106e-22)
(0.530836 0.356467 -1.5093e-20)
(1.01228 -0.00597533 4.09626e-22)
(0.985789 0.00439532 -1.29284e-21)
(1.06606 -0.0429669 -8.64826e-23)
(1.01334 -0.000414477 -1.82414e-21)
(0.525533 -0.256482 1.52208e-20)
(1.05389 -0.0266572 0)
(0.213677 -0.395795 2.00254e-20)
(0.924141 0.313036 0)
(1.00138 5.31804e-05 0)
(1.0245 -0.0202582 0)
(1.01075 0.00052409 2.72949e-23)
(-0.199244 -0.247184 2.07427e-20)
(1.01336 -0.00563756 0)
(0.880202 -0.328268 5.69454e-21)
(0.365994 -0.021843 0)
(0.960173 -0.039047 0)
(1.02992 -0.00963713 -1.57285e-21)
(1.01589 0.000756183 0)
(1.00659 -5.94958e-05 0)
(1.02009 -0.000754699 0)
(0.320141 -0.0196447 -7.19807e-21)
(0.901766 0.192472 0)
(0.423849 -0.017958 7.26025e-21)
(1.01381 -0.00371543 9.27713e-22)
(1.0351 -0.0220303 0)
(1.01369 -0.00445719 1.12271e-22)
(1.01795 -0.101442 0)
(1.03544 -0.0217959 0)
(1.0075 -0.00034087 0)
(0.428524 0.00131842 0)
(1.07297 -0.0340456 -6.52329e-21)
(0.943582 -0.073718 0)
(1.00434 -0.000128002 6.35615e-23)
(1.01205 -0.00765251 -1.87025e-21)
(1.01376 -0.0290914 0)
(1.01076 -0.00274468 4.53347e-22)
(1.02976 -0.00177805 1.10188e-21)
(0.937794 -0.34234 3.67723e-21)
(1.02814 -0.0222137 -1.49975e-21)
(1.07811 -0.0236527 0)
(1.08622 0.0244957 1.0673e-22)
(0.48865 -0.02866 0)
(1.06587 -0.0656602 0)
(1.00251 -0.0137135 4.2778e-22)
(1.06595 -0.0271901 0)
(1.05999 -0.0287776 -3.92073e-21)
(0.455732 -0.0209752 0)
(-0.082543 -0.149387 4.20318e-21)
(0.41457 -0.00801632 -1.8674e-20)
(1.01739 -0.103153 -6.73393e-21)
(1.00871 6.51466e-06 3.8522e-22)
(0.887383 0.302919 9.31853e-21)
(1.02155 -0.00585643 1.32287e-21)
(1.01796 -0.0134936 0)
(1.00829 -0.00141868 4.09733e-22)
(0.761107 -0.172018 8.64432e-21)
(0.879568 -0.268822 -3.73888e-21)
(0.863881 -0.112986 5.9611e-21)
(-0.0445331 -0.326287 0)
(1.01599 -0.0129884 -4.31599e-22)
(0.915188 -0.155104 0)
(0.872544 -0.118313 -3.08286e-21)
(0.308867 -0.00609959 -8.14777e-21)
(1.05079 -0.0140962 9.43113e-22)
(1.02701 -0.0665909 1.71167e-21)
(0.796822 -0.178595 -1.05587e-21)
(1.01228 0.00122822 1.42326e-24)
(0.598666 -0.0625512 -2.28853e-20)
(0.906661 -0.149432 0)
(-0.018798 -0.20811 1.20305e-20)
(1.0244 -0.0194577 1.14966e-21)
(1.00914 0.00912326 2.73616e-22)
(1.01906 0.00297815 1.86449e-22)
(0.89438 -0.217779 7.21684e-21)
(1.01324 0.00119499 0)
(1.01156 0.000950685 8.39802e-22)
(1.03361 -0.00432341 3.46817e-21)
(1.01859 -0.0107945 0)
(1.01162 0.00100467 -7.38952e-22)
(1.04228 -0.00979633 -1.99356e-21)
(1.01908 -0.00100233 2.05249e-21)
(1.03234 -0.00766007 0)
(1.01672 -0.00967564 0)
(1.01674 -0.00272166 -3.34851e-22)
(0.88477 -0.20592 -1.49199e-20)
(1.01907 0.0028023 -1.93565e-22)
(1.00765 -0.000701802 8.49445e-23)
(-0.135602 -0.253843 1.61666e-20)
(1.06674 -0.0361779 2.25647e-20)
(1.00875 -9.22561e-05 0)
(1.04137 -0.00873036 0)
(1.00971 -0.00260602 2.31601e-24)
(0.984953 -0.0919879 8.09637e-22)
(0.499295 -0.295276 0)
(1.04068 -0.00720124 -4.11464e-21)
(1.0311 -0.0242529 0)
(0.990258 -0.0696344 0)
(1.01989 -0.000773402 -9.55506e-22)
(1.05956 -0.0324206 3.38022e-21)
(1.05625 -0.00647878 -1.53881e-22)
(1.04853 -0.0127397 -5.53364e-21)
(1.10372 -0.0910446 -6.4552e-21)
(1.01914 0.000338747 4.51804e-22)
(-0.174333 -0.0252532 8.55001e-21)
(0.465538 -0.0242968 1.349e-20)
(1.0155 -0.00848077 -4.96627e-22)
(1.00953 0.000172462 7.47019e-23)
(1.01655 0.0021701 0)
(0.532462 -0.265438 0)
(0.6224 -0.0795609 0)
(1.0076 -0.000670435 0)
(1.02116 -5.62781e-05 3.51059e-23)
(-0.143215 -0.145112 2.25329e-20)
(1.01045 0.0010446 -6.84154e-22)
(0.889078 -0.100201 0)
(1.03859 -0.0385133 4.20776e-21)
(0.90516 -0.319065 -9.48427e-21)
(1.07711 -0.0464314 0)
(1.01053 0.00108054 8.46587e-22)
(0.895764 -0.100137 0)
(1.00734 -0.000205796 -1.71657e-22)
(0.611939 -0.0723386 -2.95148e-21)
(0.751551 0.148954 -2.57125e-21)
(1.05134 -0.0473402 0)
(1.01976 0.000371495 -2.08214e-22)
(1.0181 -0.0148859 2.53383e-21)
(1.05105 -0.0450906 5.19558e-21)
(1.03626 -0.0210373 0)
(0.39486 0.00452556 3.83191e-21)
(1.01063 0.00131348 0)
(1.038 -0.0389126 -4.33805e-21)
(0.278845 -0.0052024 -2.40385e-21)
(1.04573 -0.045024 -7.63378e-22)
(1.06512 -0.0685819 0)
(0.905185 -0.310857 1.24505e-20)
(1.02247 0.0129709 -1.9179e-22)