/*--------------------------------*- C++ -*----------------------------------*\
| =========                 |                                                 |
| \\      /  F ield         | OpenFOAM: The Open Source CFD Toolbox           |
|  \\    /   O peration     | Version:  v2012                                 |
|   \\  /    A nd           | Website:  www.openfoam.com                      |
|    \\/     M anipulation  |                                                 |
\*---------------------------------------------------------------------------*/
FoamFile
{
    version     2.0;
    format      ascii;
    class       surfaceScalarField;
    location    "300";
    object      ddtCorrDdt0(phi);
}
// * * * * * * * * * * * * * * * * * * * * * * * * * * * * * * * * * * * * * //

dimensions      [0 3 -2 0 0 0 0];
oriented        oriented;


internalField   nonuniform List<scalar> 
55332
(
-0.000117383
0.000187485
-7.01017e-05
6.22821e-06
-1.14e-06
-5.08856e-06
-3.64512e-06
-4.40549e-06
8.0509e-06
6.92203e-06
-1.07753e-05
3.85277e-06
-0.009909
0.0149269
-0.00501767
-1.72526e-05
6.02503e-06
1.1227e-05
9.18465e-06
-5.07879e-05
4.16042e-05
0.00263255
-0.00327046
0.000637908
5.11267e-06
-6.42717e-06
1.31499e-06
-4.65219e-05
2.74879e-05
0.000135484
-4.13418e-05
-9.41428e-05
0.0130866
-0.00273994
-0.0103466
-1.70175e-05
0.00015568
-0.000138634
-2.83833e-05
2.00588e-05
8.32444e-06
-0.000316305
0.000253651
6.25876e-05
-0.0300176
-0.0161228
0.0461404
4.6851e-06
-8.32998e-06
0.0145453
-0.00606593
-0.00847952
2.19398e-06
-7.82997e-06
5.63611e-06
4.09554e-06
8.30509e-06
-1.24021e-05
-1.31642e-05
-2.29361e-05
3.60976e-05
0.0210047
-0.0216661
0.00066147
-6.6142e-06
-6.48567e-06
1.30987e-05
-0.00457818
0.00498798
-0.000409726
-0.0119501
0.00204122
4.13914e-06
-5.31122e-06
1.17172e-06
0.000323647
-6.04757e-05
-0.000263159
-4.50879e-05
1.8254e-05
-0.000178312
0.000237018
-5.87089e-05
1.48474e-05
-1.35196e-05
-1.32655e-06
0.0125585
-0.00879258
-0.00376547
-5.89442e-05
8.48801e-06
5.04562e-05
0.000240334
-0.000371335
0.000131003
-0.00169142
-0.000276836
0.00196826
0.000127423
0.000345404
-0.000472829
-0.00782989
-0.0365135
0.0443432
0.000259573
6.40708e-05
0.016837
0.0179646
-0.0348016
7.82144e-06
-5.62749e-06
-7.5567e-05
2.74409e-05
4.81256e-05
-0.00901909
0.00890968
0.000109451
-1.91572e-05
-8.55957e-06
2.77171e-05
0.0104148
-0.0404324
-9.1061e-06
-4.9838e-05
0.00036061
-6.65391e-05
-0.000294104
0.00813895
0.00723791
-0.0153769
0.000279607
8.10139e-05
0.00168972
0.0113968
5.14357e-06
-1.2691e-05
7.54674e-06
4.1424e-05
5.20025e-05
-9.34304e-05
0.000321168
-0.00051428
0.000193105
6.29144e-06
5.97786e-06
-1.2269e-05
8.46216e-06
-1.36247e-05
5.1627e-06
5.69302e-05
-4.69633e-05
-9.96744e-06
3.40891e-05
3.95838e-05
-7.36732e-05
0.00196251
-0.00303387
0.00107135
1.03892e-05
-4.0975e-06
-5.47158e-05
-1.79226e-05
7.26377e-05
0.000731621
-0.0120096
0.011278
0.00364156
0.00891685
0.00248273
0.000149803
-0.000280221
-9.60089e-06
0.000289781
2.21783e-05
-3.53434e-05
-1.05597e-06
5.19436e-06
-0.000779431
-0.00115432
0.00193379
-0.0137785
0.0065354
0.00724319
-0.0324964
0.0410476
-0.0085512
0.000818744
0.000151825
-0.000970629
0.00194978
-0.00573145
0.00378177
0.000123793
-5.68186e-05
-6.69745e-05
2.14612e-06
5.6751e-06
-0.00335966
-0.0022218
0.00558142
0.000558608
-0.000155154
-0.000403457
5.18842e-06
-1.18037e-05
-6.4332e-05
0.000254256
-0.000189925
0.000563235
-0.00381894
0.0032557
0.00554595
-0.00228703
-0.00325888
-0.000155326
6.46776e-05
9.06471e-05
0.000142425
-0.000353675
0.000211249
-0.000174613
1.51339e-05
0.000159481
-0.000243052
-6.26298e-05
0.000305631
5.05389e-06
6.40025e-06
-1.14543e-05
-7.43307e-05
0.00017278
-9.84523e-05
-0.00014972
0.00077794
-0.00062822
-1.35242e-05
9.76829e-06
3.72716e-06
0.000150045
-0.000505295
0.000355237
-0.000250457
0.000115749
0.000134705
-0.0110266
0.0191657
5.00182e-05
-4.08306e-05
0.0118839
-0.0207368
0.00885297
-8.2574e-06
2.69913e-06
5.55811e-06
0.000158986
1.71602e-05
-0.000176145
0.000367755
4.51255e-06
1.90714e-07
-4.70344e-06
-0.000532567
0.000946705
-0.000414171
0.0209473
-0.00140117
-0.0195461
-8.17518e-06
1.22717e-05
-0.00775838
-0.00602024
0.0260929
-0.0101933
-0.000204107
0.000139775
-0.00307965
0.0107696
-0.00768989
-0.000584504
0.00254702
2.00639e-05
-1.74895e-06
-1.83156e-05
1.17051e-05
-8.61604e-06
-3.08897e-06
-0.00021751
3.91967e-05
-4.09681e-06
1.1807e-07
3.97871e-06
4.29641e-05
-2.04057e-05
-2.25589e-05
-8.99508e-05
0.000277512
-0.000187592
0.00273311
0.000599774
-1.06146e-05
1.73281e-05
-6.71254e-06
0.00196631
-0.00219805
0.000231814
8.60504e-05
6.38447e-05
-0.000149898
-7.65636e-06
1.27102e-05
0.000118537
-3.24871e-05
0.0010056
-0.00436527
1.06309e-05
-3.70923e-06
-0.000301254
5.82055e-05
-8.36836e-05
-0.000166774
6.42291e-05
8.64133e-06
-7.28699e-05
-2.05457e-05
-3.95332e-06
2.44999e-05
-0.00179982
0.00545683
-0.00365693
-2.64443e-05
-0.000128878
-1.82823e-05
1.74068e-05
8.76585e-07
-0.000287505
0.000608668
-0.00130734
-0.00066902
0.00197644
-3.57617e-05
-1.59907e-05
5.17509e-05
-7.87706e-06
-0.000138286
0.000146162
-1.70472e-05
-1.23524e-06
0.000166535
-7.54749e-06
-0.0124203
0.00934067
-0.000278053
6.17644e-05
0.00021629
6.52586e-06
-1.15063e-05
4.98063e-06
4.97655e-06
-4.64102e-07
0.00834735
-0.0144636
0.00611635
-6.10717e-06
4.27732e-06
1.82991e-06
-0.00683487
-0.00570128
0.0125362
-4.02911e-05
0.00029856
-0.000258271
0.000257011
0.0153451
-0.0156021
-0.0030183
-0.00379606
0.00681435
0.0163985
-0.00147152
-0.000864842
0.000979529
-0.000114709
0.00374777
-0.00554756
0.00194137
-0.00505217
0.00311078
0.0185617
0.00238558
9.44139e-06
-2.20501e-06
-7.2332e-06
-0.000238187
0.000202943
3.52402e-05
2.49049e-06
-2.30358e-05
-2.53052e-05
3.86164e-05
-1.33113e-05
-7.18697e-05
-0.000166316
8.92646e-05
3.45284e-05
1.85627e-05
2.44023e-05
5.97675e-06
-5.81929e-07
-5.39471e-06
1.00431e-05
-9.07956e-06
-9.63415e-07
1.3343e-05
-5.55313e-05
4.21906e-05
3.09852e-05
-0.000311187
-1.44573e-06
1.30233e-05
-1.1579e-05
-0.0046275
0.00657724
-2.37917e-06
-1.5483e-06
3.92671e-06
-0.000177786
0.00160216
-0.00142437
0.000436046
0.00102965
-0.00146568
-9.23833e-05
2.49001e-05
6.74823e-05
3.45235e-05
-1.33922e-06
-3.31838e-05
0.00039578
-0.000162612
-0.000233164
-0.000228909
0.00122289
-0.00443364
0.00321073
1.6546e-05
-2.04982e-05
9.32197e-05
-0.000124706
3.14912e-05
7.46651e-05
-8.18451e-05
7.16922e-06
2.40141e-05
4.02143e-05
0.000230953
-6.83135e-05
-0.000162636
0.000208911
-0.00151625
5.93443e-06
-8.21656e-07
0.00523399
-0.00329261
3.94062e-06
-1.40322e-05
1.00911e-05
-6.64997e-05
5.12704e-05
-0.00159009
0.000289692
0.00130043
0.000531449
-0.000383617
-0.000147837
-6.19024e-05
-0.000292639
0.000354541
-1.83201e-05
1.11268e-05
7.19443e-06
-5.36867e-05
4.17723e-05
4.872e-05
-3.53748e-05
0.0001442
0.00161583
-0.00176002
0.0121378
-0.000253836
-0.000871067
0.00217966
-0.00130861
-4.08802e-05
5.11718e-06
-0.000787055
0.000513434
0.000273624
-1.38301e-05
-1.55092e-05
2.93417e-05
-1.20904e-05
-3.44338e-05
-0.0159162
0.00519479
0.0107214
0.000113598
-1.77053e-05
-9.58971e-05
-0.000193316
0.000121447
-2.67407e-05
-0.000177632
0.000204376
0.00141842
-0.00127421
-1.63796e-05
1.01609e-05
6.22103e-06
-8.0779e-05
-0.000112537
-0.000154268
7.99357e-05
-6.24759e-06
0.000154225
-0.000147976
0.00359016
-0.0114239
0.0078338
-0.00187328
0.00127595
0.000597361
-8.70452e-06
6.23741e-06
2.46541e-06
-4.38904e-06
2.92228e-07
-6.60902e-05
2.87126e-05
3.73842e-05
3.01243e-05
-9.4119e-06
-2.071e-05
1.32542e-05
-4.55731e-06
-8.69579e-06
-0.0246351
0.0435182
-0.0188829
0.0144864
-0.0146469
0.000160461
9.79627e-06
-2.12697e-07
-9.58432e-06
2.80568e-06
-5.0923e-06
2.28618e-06
0.000172971
3.2786e-05
-0.000205753
0.000129179
-1.55777e-05
4.18799e-06
2.59378e-05
9.68579e-06
-9.62881e-06
-5.65075e-08
0.025751
0.00263927
-0.02839
-1.3188e-05
1.81461e-06
1.13727e-05
0.000198312
-0.000125211
-7.31002e-05
-2.63752e-05
3.35568e-05
-7.18164e-06
-2.38306e-07
9.76043e-06
-9.523e-06
-2.32415e-05
0.000372817
-0.000820438
0.000447625
9.55745e-06
-2.59509e-05
7.02558e-06
-9.14973e-06
2.12396e-06
-0.00938086
0.000135484
-0.00450854
0.00346116
-0.00647036
0.0030095
-0.000187815
0.000525283
-0.000337468
5.75896e-05
0.000144219
-0.000201811
-5.18603e-06
-9.78748e-06
1.49727e-05
1.46658e-05
-7.95524e-05
6.48513e-05
0.000300939
-0.000266135
-0.000228765
0.000188474
7.36246e-06
2.68063e-06
-2.51589e-06
-3.59118e-06
9.47315e-06
0.000434926
-8.95233e-05
-0.00162165
-0.00025163
-8.63214e-06
1.00042e-05
-1.37241e-06
8.78508e-06
-3.49178e-06
-5.29448e-06
-6.34713e-05
-3.91793e-05
0.000102656
-0.00015136
7.05833e-05
0.000118301
-2.50792e-05
2.085e-05
3.60801e-05
7.42337e-06
-4.17193e-06
-3.25107e-06
-2.67722e-05
1.32389e-05
-0.000559922
-0.00022713
5.32725e-07
9.22672e-06
0.000452334
-0.000302292
0.000295281
7.7534e-05
4.23354e-06
-9.5848e-06
5.35091e-06
1.26147e-05
-1.56243e-05
3.00742e-06
0.000399384
0.00106369
-0.00146308
-4.65916e-05
0.000117392
-7.07976e-05
2.00459e-05
-3.49911e-06
-7.57078e-05
-7.5653e-05
-3.37287e-05
8.42349e-06
2.68596e-05
-2.77331e-05
8.73038e-07
1.25554e-05
-1.44495e-05
1.89387e-06
-0.000955399
0.000422822
1.10963e-05
-2.74795e-06
-8.34861e-06
0.028567
-0.00281589
-0.000159435
-0.000156926
0.00249143
-0.00251634
2.48987e-05
1.18329e-05
-5.11982e-06
-6.7132e-06
0.0277814
-0.00921985
5.79107e-06
1.10454e-05
-1.68387e-05
9.27652e-06
-8.07445e-06
-1.19995e-06
0.00565152
-0.00646424
0.000812726
-0.00010015
8.5699e-05
1.44512e-05
-0.00125218
-0.0017436
0.00299579
-0.000922121
0.00206205
-0.00113994
0.0147292
0.0209397
6.38549e-05
-3.5861e-06
-6.02631e-05
-0.00206115
0.000369732
5.82308e-05
5.6276e-06
0.000762255
0.000184439
4.08066e-05
-2.22432e-05
-8.26552e-06
4.73092e-06
1.75293e-06
-6.48384e-06
4.63518e-07
-0.000100614
0.000340187
-0.000165334
-0.00017486
3.6166e-05
-0.000153549
-1.00956e-05
1.46346e-06
-0.00054438
0.000197359
0.000346998
-1.92011e-06
8.94589e-06
-5.31979e-06
3.26327e-06
2.05646e-06
-0.000342852
0.00028095
0.0185626
-0.00216411
1.06952e-05
0.000309278
-0.000319977
3.61346e-05
-1.61076e-06
-4.21542e-06
-8.97381e-06
-0.00211356
0.00215311
-3.95762e-05
-0.00011055
0.00016814
8.5289e-06
-7.06437e-06
-1.46453e-06
8.05067e-05
-5.85448e-06
3.77962e-06
3.63245e-06
-7.41244e-06
-6.32486e-06
1.3132e-05
-6.80596e-06
-6.987e-06
1.05304e-06
4.92377e-06
0.000369169
0.00450145
-0.017776
0.0132746
0.0158035
0.0119779
-0.000172873
6.23211e-05
4.84248e-05
0.000219096
-0.000267522
0.00195201
-0.00245785
0.000505835
0.00690613
-0.00489254
-0.00201348
9.74235e-07
-7.30747e-06
6.33324e-06
-0.000336135
0.000266762
6.93786e-05
-0.00116875
0.00402994
-0.00286118
0.00110789
-0.00188732
-0.000154159
0.000147915
0.0001448
-0.000152679
-0.0204802
0.0187204
0.00175968
0.00149064
-0.00177523
0.000284581
-0.000770451
0.00226108
1.88287e-05
-1.32565e-06
-1.75038e-05
-0.000412567
0.000755022
-0.000342453
0.00246013
0.00130122
-0.00376175
2.52978e-05
6.90751e-06
-0.000195399
0.000188493
3.74425e-05
-0.000187633
0.000150194
-9.7599e-06
3.76358e-06
5.9945e-06
-4.37117e-05
0.000193928
-0.000150218
0.00757429
-0.00411333
0.0140106
0.000475806
6.54363e-05
0.000891224
-7.25072e-05
-0.000120734
-3.96632e-06
-8.85466e-05
8.90073e-05
0.0374529
-0.00994932
-0.0275038
0.00196835
0.00115439
-0.00312276
0.00395459
-0.00454035
0.000585859
2.36943e-05
1.2213e-05
-3.74951e-06
3.89806e-05
-0.000127528
7.57092e-06
1.70699e-06
4.49205e-06
-8.1363e-06
3.64398e-06
9.87077e-06
-6.92043e-07
-9.17818e-06
-1.66074e-06
4.46624e-06
-0.0281935
0.0386083
9.17833e-06
-1.06251e-05
-0.00394024
0.00627036
-0.00233011
7.18014e-06
5.03433e-06
4.68476e-05
-0.000609342
0.000562498
0.00222261
-0.0002706
-0.000160634
-4.5011e-06
0.000165135
-2.69921e-05
5.0144e-05
-2.31514e-05
0.00725676
-0.0354503
-0.000548703
-0.000272257
0.000820891
-0.014581
0.014838
0.00466406
-0.000947581
-0.00371647
2.99638e-05
-6.3438e-06
-2.36196e-05
4.60046e-06
7.23262e-06
-0.00134694
0.000501685
0.000845187
0.01111
-0.00649975
-0.00461029
8.08379e-06
-2.91946e-06
-5.16371e-06
-3.66444e-05
9.65276e-06
-0.000320223
0.000239356
8.08981e-05
-0.00357426
-0.00100392
-6.06372e-05
-0.00015807
0.000172739
-0.0290864
0.0180202
0.0110661
-5.65309e-05
0.000245474
5.08277e-05
-0.000296286
-0.00184682
0.000517192
0.00132963
-1.19359e-05
-6.38429e-06
-0.00500728
0.0083519
-0.00334452
6.73353e-06
1.79523e-06
0.000274682
-0.00142898
-3.02358e-06
1.02058e-05
0.00692668
0.00402569
-0.0109524
0.000185481
-0.000212219
0.000784939
0.00177774
-0.0025627
0.00065136
-0.000801081
-8.57362e-06
8.63633e-06
-6.26978e-08
-0.00106117
0.000196298
0.00101828
-0.000582236
0.00326505
-0.0126797
0.00941459
-0.00238374
0.0038467
-0.00146297
4.10841e-05
-0.000101448
6.03628e-05
-0.000191217
0.000191217
3.4561e-06
-9.35594e-06
5.89968e-06
-0.02435
0.0292333
-0.00488349
-0.00611295
0.00849979
-0.00238683
-0.000581285
-0.000354263
0.000935505
0.000285209
-7.79959e-05
-0.000207214
-3.58814e-05
2.12789e-05
1.46025e-05
5.46322e-05
-0.000236256
0.000181624
0.000962159
-0.00100418
4.20261e-05
-0.000235256
-0.000422836
0.000658074
0.00351006
-0.0160626
0.0125526
0.000109911
-0.000239102
0.000129192
1.18463e-05
-6.70316e-06
-0.000232994
-2.19849e-05
0.000254979
-0.0100905
0.00397757
0.00118786
-0.00010247
-0.00108539
-3.21729e-05
-0.000185092
0.000217265
0.000217423
-5.64741e-05
-0.000160949
6.55789e-08
2.47437e-06
-2.53971e-06
-8.97126e-06
-0.000102017
0.000110984
-0.00112338
-0.00072345
-0.000107202
7.62703e-06
-0.00012183
1.106e-06
-0.000158423
3.32112e-05
-0.000193036
0.000247668
5.97537e-05
-0.000161032
0.000101288
0.000228953
-6.27547e-05
-0.000166201
-4.51724e-05
0.000290684
-5.65837e-06
-1.15519e-07
5.77287e-06
-5.25228e-06
1.23885e-05
1.75753e-05
-0.000140793
-6.50012e-05
0.000205793
-0.000197666
0.000227352
-2.96874e-05
5.05475e-05
-7.89622e-05
2.84162e-05
0.000113992
0.000116968
0.000911979
0.00100286
-0.00191483
0.000242997
-0.000133086
-0.00159007
1.67175e-05
2.1107e-06
-1.71369e-05
2.42805e-06
1.47091e-05
0.0116331
-0.00470635
-0.0100085
0.00317371
-0.000149419
0.000105707
-5.27896e-06
-9.09933e-06
1.43792e-05
-7.32261e-06
9.16112e-06
-1.8384e-06
-5.74857e-06
-3.01327e-05
-5.20586e-06
2.17528e-06
3.03047e-06
-0.00172532
0.0032452
-0.00151984
-3.89081e-05
1.16491e-06
-8.48748e-06
-4.56132e-05
3.41995e-05
1.14126e-05
2.5515e-06
4.85934e-06
-7.41149e-06
0.00901551
-0.0082839
-0.000241274
8.28516e-06
6.67084e-06
1.00811e-05
-1.67531e-05
-5.83173e-05
2.68629e-05
3.1454e-05
-0.000132716
-8.0772e-06
-3.74675e-05
-0.00643904
0.00384912
0.00258998
-4.47105e-06
-1.55789e-05
1.07901e-05
4.78878e-06
0.000182282
-9.26607e-05
-8.96173e-05
0.00371951
-0.00146016
-0.00225918
-0.000282377
-9.22434e-05
-0.000222867
0.00031515
0.00335864
-0.00139029
-4.94631e-05
-1.66288e-05
0.000375425
0.000183187
-2.1318e-06
2.0915e-05
-1.87851e-05
-2.41478e-06
-0.0125688
0.00154221
4.76315e-05
8.01673e-06
-5.56432e-05
-1.81122e-05
1.83687e-07
1.7933e-05
8.76694e-08
-0.000160724
-0.00120651
0.0119761
3.12704e-05
-4.41201e-06
1.37681e-06
-3.75628e-06
-5.10093e-05
6.73266e-05
-1.63168e-05
-0.000985684
0.00183764
-0.00085193
7.53579e-06
-3.03768e-06
-4.49802e-06
-5.16543e-05
9.3325e-06
4.23205e-05
-2.36979e-05
-0.000520736
-1.48796e-05
-4.49503e-06
1.9376e-05
-2.18765e-05
-2.97761e-05
-8.64647e-07
-0.00749083
-0.013246
-6.7587e-05
4.17514e-05
2.58322e-05
2.57943e-06
6.03094e-06
-8.6104e-06
-0.0512682
-0.0112562
0.0625247
-8.75714e-06
-6.82123e-06
-1.62081e-05
1.56441e-05
-0.0193574
-0.00403912
0.0233964
-6.5384e-05
1.06684e-05
-0.00012515
0.000108159
1.78228e-05
0.037435
-1.30367e-05
1.97068e-05
4.11644e-05
0.000299019
-0.00451063
0.00156773
0.0029429
0.0069607
-0.00177873
-0.00518196
5.51891e-08
2.00086e-05
6.86335e-06
6.04634e-05
0.00450591
0.00660414
-0.00386583
0.00177154
0.00209431
3.86305e-05
2.80241e-05
-6.66528e-05
3.40067e-05
-0.000134667
0.000100664
1.36151e-06
-2.77365e-05
0.00147608
0.00106705
-0.00254314
-7.88826e-06
1.04677e-05
0.000394074
-0.000581889
-0.00299199
0.00265398
0.000337963
0.00202072
-0.00327288
5.43002e-06
-7.3191e-06
1.88911e-06
5.72487e-05
-9.61494e-06
-0.000886235
0.000590965
0.000295268
0.00123046
-0.000869102
-0.00036136
0.00155636
-0.00394011
-1.69481e-05
9.20651e-06
7.74205e-06
-0.00549312
0.00247479
-0.0239039
0.0311606
-0.0516446
0.0438147
0.00386789
-0.00140779
-0.0113272
0.0081084
0.0032189
-0.000290425
0.000177861
0.000112561
-4.26116e-05
7.67003e-05
-0.000126212
-0.000164214
7.51642e-06
-7.84874e-06
3.32839e-07
-1.30101e-05
1.44827e-05
-1.47154e-06
-1.92934e-05
2.34829e-05
-0.0471119
-0.00415603
-1.01863e-05
1.41254e-05
-9.17218e-07
-9.54823e-06
1.04657e-05
-0.00264775
-0.00062269
-0.000221384
-0.00260831
-0.00190232
-0.000293646
0.000201419
1.63001e-06
-1.65092e-05
-4.38498e-06
-8.69724e-06
1.30837e-05
-0.00915531
-1.44262e-05
-2.06542e-06
1.64908e-05
0.00469773
0.00226296
-7.61887e-05
4.27168e-05
3.34737e-05
-6.45869e-05
1.21167e-06
6.337e-05
-1.02115e-05
1.40702e-05
-3.85808e-06
0.000867884
-0.0247717
3.77768e-05
0.000523386
-0.000561179
0.00210243
0.015868
-0.0179705
0.0003493
-0.000338608
-1.40041e-05
1.32359e-05
7.66418e-07
6.28696e-06
-8.57358e-07
0.000159418
-0.000324758
-2.32563e-06
1.4941e-05
-7.98658e-06
-8.96167e-06
-0.0055245
8.27204e-06
-1.01919e-05
0.00306252
-0.00189687
-0.00116565
-0.0323813
0.0115538
0.0208275
-0.02479
0.00430967
0.0037086
-0.00441046
0.000701832
0.000608151
0.000622304
0.00833666
-0.000376629
-0.00795979
-0.000403208
-1.87589e-05
0.000421958
0.00132279
-0.00104811
-0.000714794
-0.00182131
0.0025361
-0.000177745
0.000172572
5.1698e-06
-0.0117033
0.0102468
0.00145653
-2.52472e-06
-1.47287e-05
1.04513e-06
-9.85438e-06
8.80967e-06
-1.50964e-06
1.02006e-05
-8.69153e-06
0.000140298
0.0187688
-0.0201839
0.00141509
-0.0209941
0.00373554
0.0172586
-9.70163e-06
1.01712e-05
-4.69314e-07
-5.07823e-05
-0.000140437
-1.18857e-05
7.50167e-06
1.14877e-05
1.23739e-06
-1.27274e-05
-0.000819825
0.00355295
0.000423097
0.000271097
-0.000694187
-0.0135986
0.014038
-0.000439356
-0.0246763
0.00368215
-0.00134715
0.00213207
2.92535e-07
7.97997e-06
4.12597e-06
-2.3418e-05
0.000379506
-0.000614792
0.0137875
-0.00544006
0.000342505
0.000210984
-0.00024316
6.35597e-06
-1.28003e-07
9.68731e-05
-0.000177555
8.07015e-05
0.0129622
0.00580663
-0.00446786
-0.000584315
-2.45207e-06
8.97802e-06
-0.00612607
-0.00557717
-0.00279211
-0.00140996
0.00420205
0.000197681
-0.000190774
-0.00107905
-0.00245898
0.00353812
1.76429e-06
-7.79365e-06
6.02954e-06
-0.0033929
0.000745169
-4.05323e-05
-4.28848e-07
4.09603e-05
-6.34261e-05
0.000102405
-4.24244e-05
8.17297e-05
-3.93057e-05
7.14662e-05
0.000116019
7.49978e-06
-1.72879e-05
0.00133463
-0.00142555
9.09321e-05
0.00773793
-0.0333812
0.0256433
0.034814
-0.0214455
-0.0133686
0.00281634
0.00790613
-0.0107224
-2.20231e-06
-7.33643e-05
-6.27931e-05
2.51298e-05
3.76642e-05
-0.00140303
-0.00962003
0.0110235
1.02104e-06
-5.74464e-06
4.72458e-06
-0.00608477
0.00329269
-4.04668e-07
9.11334e-06
-8.70821e-06
0.00229926
-0.0347957
0.00234761
-0.00294499
0.000597457
0.00817988
0.000156833
0.0019786
-0.00280529
0.000826669
-5.94141e-05
-0.000156294
0.000215704
1.22112e-05
-1.47001e-05
2.48892e-06
2.30059e-07
1.7177e-05
-3.86871e-05
6.61283e-05
-1.39422e-05
8.72753e-06
5.21539e-06
-0.00307048
-0.0082567
-2.5641e-05
1.11267e-05
-7.45958e-05
-3.41492e-05
2.57304e-05
8.42028e-06
9.49823e-05
-7.06042e-05
-2.43777e-05
-0.00257197
0.00217328
0.000398663
3.36092e-06
1.14868e-05
-2.4681e-07
-5.35484e-06
5.60263e-06
-0.000100622
0.00012647
-2.58612e-05
-3.96897e-06
-5.61616e-06
-2.62092e-06
-2.58479e-06
-1.83288e-05
1.82942e-05
3.16062e-08
-0.000565084
0.00196953
-0.00140448
-1.13032e-06
1.33414e-05
-0.0225006
7.97437e-06
-6.21023e-06
-0.000294215
0.000152304
0.000141909
-0.00387123
-0.00256778
-0.000909345
0.00141816
-0.000508821
-1.17149e-06
-6.09066e-06
7.2623e-06
-2.07696e-05
-0.000138881
7.54536e-05
-0.000682104
0.00052695
-0.000881105
0.00198901
8.00772e-06
-4.3482e-05
3.54743e-05
-0.0176371
0.0197395
0.000395208
-0.000305912
-8.93001e-05
-0.0115726
0.00166729
0.00990532
-7.72871e-06
7.32345e-06
1.57317e-06
-0.000179086
0.000177518
0.000228035
-0.000228109
-0.000144361
-0.00014986
-0.013981
0.000382408
0.00014549
-1.25859e-05
-0.000132901
-0.00282418
0.00182557
0.00099862
0.00012869
-0.000347141
0.000218452
2.70818e-05
4.23901e-05
-6.94733e-05
-0.000390621
-0.0030112
0.00340179
0.000217424
-4.8114e-05
-3.08477e-05
0.00789026
0.0131145
-1.64325e-06
-7.99398e-06
9.63735e-06
0.000176443
-0.000804083
0.000627632
1.40259e-06
-1.84497e-05
-0.000106092
-1.11071e-06
-0.000999703
0.000397241
0.000602472
0.00497116
0.000574789
6.73192e-06
4.9734e-06
0.000533216
0.000229027
0.000145268
0.000404117
-0.00339611
-0.000547494
-0.0110251
0.000247671
-0.000296217
4.8517e-05
8.78995e-06
-1.57872e-05
6.99626e-06
-0.00363236
-0.0110145
-0.00859585
2.42657e-06
-4.02147e-06
1.59506e-06
4.97141e-05
5.44608e-05
-0.000104177
-0.0001576
0.00019504
0.00112646
-0.0101455
-9.30187e-05
9.39971e-06
8.36187e-05
8.21379e-05
-4.81272e-05
1.72782e-05
-0.00100146
0.000114752
0.000886714
0.000198401
-6.94646e-05
-0.000128937
0.0320551
-0.0152181
-1.48892e-05
1.20975e-05
2.79076e-06
-1.12528e-05
9.06039e-06
2.19115e-06
-2.46948e-07
1.40028e-05
-1.37565e-05
7.83832e-06
-4.38151e-06
-6.5004e-05
0.000124761
-0.000250103
0.000250115
1.46404e-05
-5.85109e-06
1.04917e-05
-9.44617e-06
0.00185439
0.00337959
-0.0149656
0.00298436
0.0119812
-1.46587e-05
-1.37247e-05
0.000191594
0.000204189
0.000199482
-2.65123e-05
5.33724e-06
1.35327e-06
-6.69026e-06
-0.000123501
7.46677e-05
4.8833e-05
8.49616e-06
-1.1031e-05
2.5351e-06
-3.3581e-06
7.13731e-06
1.19852e-05
-1.17947e-06
-1.08058e-05
-0.0114555
0.000210702
0.000320745
0.0082516
-7.20532e-05
-1.06017e-05
1.03548e-05
-0.00078668
0.000204309
0.000582367
0.0001536
-0.000290663
0.000137058
1.17091e-06
-4.94632e-05
4.82935e-05
-5.37972e-06
4.71528e-06
9.92459e-06
0.0123946
-0.00957824
-1.49447e-05
4.74683e-06
1.01975e-05
-5.49611e-06
3.9868e-06
0.000349014
0.000201559
-0.00055059
2.85382e-06
5.23035e-06
9.38569e-06
1.71062e-06
-0.000288441
0.000641096
-0.000352636
-9.16228e-07
-7.34153e-06
7.7854e-05
-3.51367e-05
-6.72707e-07
5.54357e-06
-4.86851e-06
0.000574774
-0.000105366
-0.000469411
-2.07646e-05
-3.64239e-05
5.719e-05
-4.61203e-05
5.387e-05
-7.73867e-06
-4.8962e-06
-1.0892e-05
-0.000116657
0.000270253
4.41102e-06
-5.08358e-06
-0.000232613
-4.40002e-06
0.000237002
-0.00236679
0.00403825
-0.00167146
-5.00441e-06
1.9618e-06
3.04242e-06
-0.0108679
-0.00037586
-0.000121458
0.000497316
-9.53157e-06
-1.5119e-05
0.000108606
-9.34874e-05
-5.35923e-05
-0.00629921
0.00375805
0.00254118
-0.000490458
0.000979827
-0.000489372
-4.92179e-06
5.49141e-06
-5.69926e-07
2.33214e-05
-2.0305e-05
-3.0161e-06
1.13908e-05
-3.05479e-05
-0.000311221
0.000660226
0.0426207
0.00978878
0.000381319
0.000269533
-0.000650844
-8.26652e-06
8.2131e-05
-7.38649e-05
9.51517e-05
0.00109271
-3.61404e-05
-9.47299e-06
5.04868e-06
-0.000212495
0.000207439
-1.57189e-05
9.66592e-08
7.42179e-06
-6.44748e-06
-0.000527027
0.000143391
-0.00334325
0.00164455
0.00169871
-0.000418452
0.00866988
-0.000101969
-9.37003e-05
0.000195667
3.90133e-05
1.10077e-05
6.1474e-06
-1.09777e-05
4.82922e-06
-5.35116e-06
-2.4427e-06
0.00511139
-0.00112915
-0.00398225
0.013727
-0.00986556
-0.00386141
-7.18919e-05
-5.16093e-05
0.00109218
-0.000282701
-0.000809475
5.08034e-05
-9.32287e-05
-0.000308762
0.000240887
6.78725e-05
-0.000108614
7.98926e-06
0.000134972
0.000165968
-0.00570307
0.0160361
-0.0103331
0.0406339
-0.0157457
-0.0248882
-6.40331e-05
-0.000450248
-0.00156716
0.00196654
2.48159e-06
-8.07211e-06
5.5899e-06
0.0196456
0.0209884
-0.000101482
0.000676258
0.000737101
-0.00310389
0.0157193
0.0103736
0.00198867
-0.00104465
-0.00094401
-1.27e-06
1.21195e-05
-1.08508e-05
-0.000119945
0.000317324
-0.00112586
0.00105794
6.79238e-05
-1.03881e-05
9.54109e-06
8.474e-07
2.95581e-08
4.84744e-06
-4.87579e-06
-0.00331385
0.00387708
5.44674e-06
-5.69286e-06
0.00118367
8.5275e-06
-1.3834e-06
-7.14397e-06
-0.000181722
0.000254267
-7.2544e-05
0.00282718
0.004079
-2.31718e-06
1.08135e-05
-0.000483437
-0.000198667
-0.00102913
0.000861295
0.00016783
-0.00191176
0.00060577
0.00130596
-7.96158e-07
-1.78738e-06
2.58401e-06
-0.000113485
-0.000121044
0.000234526
-6.6727e-06
6.61978e-06
5.04652e-08
2.92455e-06
3.90726e-06
-6.83221e-06
-9.47345e-06
1.07101e-05
-0.000319102
0.000215173
0.000103928
-1.85691e-06
-3.63894e-06
3.30705e-06
4.11652e-06
-7.62768e-06
-3.4019e-06
-0.0119142
0.00320223
0.00871196
5.99138e-06
1.98266e-06
0.000122719
5.95646e-05
-0.0024578
0.00204307
0.000414748
0.00115224
-0.000190087
-0.0011258
-0.000785973
-0.000158935
0.000292273
-0.000133341
2.30768e-07
-5.15262e-06
0.000369778
-0.000241089
6.14794e-06
-5.12632e-06
1.74113e-06
2.01196e-05
-2.18609e-05
7.39759e-06
-1.57495e-06
-5.82299e-06
0.00320793
0.00145612
-1.07344e-05
3.10789e-06
-5.1707e-06
2.87455e-05
-2.35715e-05
8.22373e-05
-5.51558e-05
-0.0191105
0.00485927
0.0142512
-0.000559392
4.40116e-05
0.00051538
-8.90617e-06
-2.53901e-06
1.14456e-05
-8.93841e-05
-6.90745e-05
0.000158458
-3.24886e-07
1.0525e-05
0.00421716
3.91682e-05
-3.11595e-05
-0.00261149
0.00168213
0.000929187
-0.00312205
0.00240725
3.469e-05
0.000138092
-0.00022569
-0.00289462
0.00312031
1.11767e-05
-1.05073e-05
-6.69965e-07
1.86215e-05
-1.46786e-05
-3.94436e-06
-3.39831e-06
7.20779e-06
-3.80959e-06
0.000761712
0.00122699
3.97706e-06
-1.59138e-05
5.53362e-05
-0.000110312
5.49743e-05
0.00213683
-0.00236252
0.00319443
-0.00299219
-0.000202227
0.00474778
0.00115235
-0.00590002
-0.000528619
-0.000357624
0.00311936
-0.00165137
-0.001468
-7.09796e-05
2.28671e-05
-6.5271e-06
6.55744e-06
0.00117974
-0.00102799
3.25007e-05
6.66739e-06
0.00120535
-0.0029306
0.0379555
3.60996e-06
-1.1833e-06
-0.00042649
0.00291793
-5.92956e-06
-2.64393e-06
0.0024535
-0.000977427
1.22014e-05
-1.79249e-06
-1.04097e-05
-0.0374894
0.0128543
-0.000259587
8.29071e-06
0.000251289
-0.00101052
0.00199334
-0.000982791
-0.00171854
-0.000739272
0.00126168
-6.10176e-05
-0.00120066
7.40999e-06
-1.41878e-06
1.06884e-05
-5.37587e-06
-5.31147e-06
-0.000241513
0.000292365
-0.0175327
-3.49887e-05
-0.000142759
-0.00030331
0.000140702
-2.71029e-06
3.42231e-07
2.36995e-06
-0.000154385
-7.31768e-05
0.000188924
-4.60131e-06
1.89244e-06
-1.4045e-06
-6.42502e-06
9.59145e-05
-0.0001029
3.55852e-05
2.23547e-05
-5.79398e-05
0.00278795
-0.00424655
0.00145863
4.26393e-06
2.30106e-06
-6.56566e-06
-0.00019118
-0.000810271
0.00145428
-0.000101295
-0.00135298
-2.74405e-07
-8.63149e-06
-1.59782e-05
-0.00972261
0.00237006
0.0073525
-1.14545e-05
2.38433e-05
-0.00123404
0.0152446
-0.0184251
0.00147145
0.0169533
-0.000115214
0.000100095
0.000279777
-0.00110554
0.000825764
0.00023042
0.000660512
-0.000890933
5.54653e-05
-2.86022e-05
-3.12124e-05
-5.94725e-06
3.71591e-05
-3.30481e-05
-7.03668e-05
0.000103404
0.00116483
0.00221545
-0.00338034
7.99623e-05
-8.89174e-05
-0.000711287
4.8871e-06
3.17835e-06
-8.06597e-06
0.00575524
0.00638259
5.69774e-06
-9.31246e-06
3.61368e-06
0.00133446
-0.00161335
0.000278893
3.04834e-07
-9.58448e-06
9.28004e-06
-0.0144429
0.00236765
0.0120753
0.0235632
-0.00663648
-0.0169267
0.0477306
-0.0150241
-0.0327065
0.00230248
-0.000107269
-0.00219522
-6.53151e-05
-2.70687e-05
0.00619867
-0.0217837
0.015585
0.0168199
0.0309107
0.000191378
-0.00024866
5.72794e-05
-0.00170835
0.00046014
0.0012482
-0.000167917
-0.000787488
-0.0213901
-0.00339984
-4.76391e-06
-2.93874e-05
-1.55919e-05
0.00015981
0.0138749
-0.00767618
-0.00146098
0.000475276
3.3752e-06
-3.32243e-05
2.98471e-05
0.0011861
-0.00282891
0.0016428
-0.00040043
-0.00032997
0.0007304
-0.0385858
0.016882
0.0217039
-5.00621e-06
1.43805e-05
-9.37455e-06
-1.24596e-05
2.42639e-05
-1.18043e-05
4.74132e-06
-1.77788e-05
2.13844e-05
-3.27021e-06
-1.8116e-05
-2.43661e-05
1.19058e-05
-4.92289e-06
2.49819e-05
2.50079e-06
5.33795e-06
1.02661e-05
8.35606e-06
-8.60509e-06
1.54848e-05
-6.87988e-06
-0.000994971
-0.00146287
-0.0295427
-0.00904312
0.000292666
-0.000693095
9.21585e-06
-6.27327e-06
-2.9425e-06
0.0014028
0.00115454
-0.00255732
6.58986e-05
-1.71771e-05
-4.55535e-06
7.10637e-06
1.9016e-05
4.30546e-06
-9.05555e-06
-1.3328e-06
-0.000265692
-0.00108127
-0.000643654
0.000690494
-2.04013e-05
2.46501e-05
-4.24794e-06
-1.69543e-05
-0.00159682
0.00180403
-0.00020723
6.24471e-06
4.44315e-06
-5.12604e-05
4.72268e-05
4.03447e-06
-0.00175709
0.00127388
0.000483226
2.15521e-05
1.20045e-05
0.000174449
3.06531e-05
-0.00020512
0.000262681
-0.00195663
0.00169397
-0.0017783
0.0012132
0.000110739
-0.000143789
2.22005e-06
1.10335e-05
1.64433e-06
-8.71787e-06
7.0737e-06
0.000414116
-0.000221016
0.000570383
-0.00020722
4.91518e-05
6.19887e-06
3.01713e-06
-2.83879e-05
-0.00100667
0.00103506
-0.00179607
-3.57682e-05
0.00183183
9.57307e-06
-9.71669e-06
1.43643e-07
-0.000121507
8.8619e-06
0.000112642
1.73626e-05
-7.58261e-05
5.84614e-05
-0.0428593
-0.007659
0.0505186
-3.61883e-05
-2.66035e-05
8.96716e-06
6.05676e-07
-0.000149737
2.82283e-05
7.66499e-06
-5.51902e-06
-0.000158963
0.000124358
3.46117e-05
0.00504838
-0.0107497
-0.000244989
-0.000227352
0.000472325
-0.00122288
0.00148556
0.00184244
-0.000507976
0.000362322
-0.000581548
0.000219253
4.72456e-06
-7.49287e-06
2.77039e-06
0.000208144
-0.000219462
5.42901e-06
-3.7665e-07
-5.05238e-06
-7.26224e-05
8.99835e-05
0.000241978
-0.000265993
2.40153e-05
4.3816e-05
-0.000181876
0.000138066
-0.000983754
0.00126353
-0.0541154
-0.000727453
-0.00261579
-4.16743e-07
5.90894e-06
-5.4919e-06
-1.50673e-05
-2.2422e-06
1.73104e-05
-0.00840242
0.00885128
-0.000448748
-6.19124e-05
-2.67462e-06
-5.53575e-06
5.11941e-06
-3.37753e-05
-9.70643e-06
-4.61171e-05
2.38712e-05
2.22446e-05
0.00016206
1.23741e-05
-3.86818e-05
-3.94024e-06
-7.3153e-06
-4.20018e-05
-5.32732e-05
6.43148e-05
-1.10374e-05
0.00536472
-0.0025049
-0.00285982
1.86714e-05
-3.01256e-05
-0.00042322
0.00061321
-0.000189955
0.000270983
-0.00022982
-0.0563214
0.0341456
0.0221757
-0.0218985
-0.0344229
-0.00135789
-0.000350475
5.15695e-06
-4.91081e-06
-2.45861e-07
-2.14245e-06
7.02838e-06
0.00177337
-0.00119321
-0.000580172
5.4192e-06
-7.56228e-06
2.91773e-06
-2.10275e-05
4.54877e-06
2.73664e-06
-7.28472e-06
-1.87129e-05
2.04535e-05
-0.000939878
0.000153196
-0.000268335
-0.001208
0.00147632
-2.04343e-06