/*--------------------------------*- C++ -*----------------------------------*\
| =========                 |                                                 |
| \\      /  F ield         | OpenFOAM: The Open Source CFD Toolbox           |
|  \\    /   O peration     | Version:  v2012                                 |
|   \\  /    A nd           | Website:  www.openfoam.com                      |
|    \\/     M anipulation  |                                                 |
\*---------------------------------------------------------------------------*/
FoamFile
{
    version     2.0;
    format      ascii;
    class       volScalarField;
    location    "300";
    object      nut;
}
// * * * * * * * * * * * * * * * * * * * * * * * * * * * * * * * * * * * * * //

dimensions      [0 2 -1 0 0 0 0];


internalField   nonuniform List<scalar> 
37190
(
0.00571102
0.00593303
0.00583161
0.00582899
0.00947776
0.00592415
0.00264512
0.00264636
0.00583886
0.00174974
0.000205098
0.0138641
0.00105922
0.00483957
0.00230866
0.0111155
0.00583103
0.00330635
0.00582393
0.00537347
0.00320358
0.0201465
0.00588046
0.0142587
0.00613639
0.00598715
0.0127093
0.00291401
0.00183038
0.00585582
0.00333202
0.00591043
0.00567183
0.00144958
0.00559541
0.0075044
0.0127424
0.00992211
0.00582264
0.00577484
0.0025393
0.00586253
0.0107823
0.005919
0.0095328
0.0188161
0.00983433
0.0154826
0.00583722
0.00427585
0.00587612
0.00578863
0.00590117
0.00211822
0.00593607
0.00191349
0.00578962
0.00591171
0.00756337
0.00343762
0.00271189
0.00438591
0.00316441
0.00597106
0.00327788
0.0189314
0.0127915
0.00624221
0.00956558
0.0095812
0.00582235
0.00309506
0.00556702
0.00587654
0.00590557
0.00571684
0.0151393
0.00650841
0.00568218
0.00782089
0.0100221
0.00582677
0.0113895
0.00591049
0.00107698
0.00444244
0.00346808
0.0191163
0.00287127
0.00335069
0.00582067
0.0016938
0.00565738
0.00599126
0.00270629
0.0148686
0.00477527
0.0179808
0.0209963
0.00590711
0.0156829
0.00196154
0.00589968
0.00581593
0.00112806
0.00594738
0.00595317
0.00166021
0.00716896
0.0059534
0.00358578
0.00591443
0.00582581
0.00591532
0.0031688
0.00583111
0.0105163
0.0025898
0.00459419
0.00393577
0.00316272
0.0068834
0.00588257
0.00587189
0.00192082
0.00328234
0.00296866
0.00588516
0.0011306
0.0157039
0.0127802
0.00594469
0.005978
0.0048779
0.00601607
0.00135355
0.00587534
0.0119818
0.00047483
0.0137071
0.0109841
0.00317105
0.00565834
0.0158031
0.00512511
0.0059149
0.00404116
0.00305231
0.005918
0.00914021
0.00595329
0.00593647
0.00579495
0.00249501
0.00515166
0.0058668
0.00950666
0.00588429
0.00348232
0.00301933
0.00589786
0.00494605
0.00579925
0.00566689
0.00998108
0.00388496
0.00178786
0.00178872
0.00457784
0.0100997
0.00203722
0.00583754
0.00576667
0.00588207
0.00181805
0.000379652
0.00134482
0.00186645
0.00593479
0.00199377
0.00214151
0.00168763
0.0033597
0.0068536
0.00286902
0.000767563
0.00595631
0.00135354
0.0195212
0.00233844
0.00591991
0.000909393
0.00155197
0.0059327
0.00592152
0.0115761
0.0120288
0.0182671
0.0102332
0.00592982
0.00593654
0.00235698
0.00595843
0.00591247
0.0104748
0.00567485
0.00582787
0.00584509
0.00187523
0.00223889
0.00595838
0.00582075
0.00988118
0.00593858
0.00688936
0.0035007
0.00584963
0.00595762
0.000380321
0.00583019
0.00265167
0.00581974
0.019003
9.90644e-05
0.01008
0.00464216
0.000332946
0.0117509
0.00590666
0.00332974
0.00236348
0.00588975
0.00579386
0.00601223
0.00582137
0.00557891
0.0104177
0.00579484
0.00592333
0.00229961
0.00592261
0.00113261
0.00221039
0.00579166
0.00138745
0.000904087
0.005856
0.0043787
0.00029344
0.00599906
0.00407122
0.00561629
0.00239135
0.00393949
0.00592396
0.00280391
0.00590894
0.00593498
0.00278326
0.00579403
0.0114623
0.00228803
0.00513445
0.00578666
0.0163228
0.00441469
0.00583455
0.00526626
0.00593176
0.00298711
0.00573865
0.00590629
0.0164827
0.00117696
0.00147563
0.00186277
0.00277852
0.00595511
0.0012142
0.00579759
0.00592963
0.00173422
0.00571567
0.00579437
0.0105516
0.00581955
0.00602379
0.00202144
0.0158315
0.00557404
0.00463622
0.00593532
0.00289064
0.0115612
0.00581249
0.00129468
0.00581624
0.00606012
0.00305348
0.00593401
0.00277675
0.0215796
0.0162711
0.0114213
0.00579514
0.00590312
0.0165366
0.00583939
0.00948735
0.00998996
0.00419292
0.011982
0.00435916
0.0206917
0.00581572
0.00582359
0.00591348
0.00583868
0.00970573
0.00595508
0.0122842
0.0120199
0.00583071
0.00389644
0.0044595
0.00581207
0.00476774
0.00689079
0.00125181
0.00593171
0.0151561
0.00468759
0.0148421
0.00791586
0.00590156
0.00592946
0.00583417
0.00601815
0.00582207
0.00584476
0.0104847
0.00586987
0.00565113
0.00589883
0.0019105
0.00595152
0.00608797
0.00591524
0.0101858
0.00648271
0.0128625
0.00562443
0.0058226
0.00578652
0.00173878
0.00185105
0.00582552
0.00591378
0.012765
0.0142135
0.0127249
0.00352487
0.0170956
0.00914224
0.00888986
0.00826343
0.00593715
0.0131442
0.0058108
0.00250069
0.00589905
0.010571
0.000922618
0.00637904
0.00591409
0.00580206
0.0109491
0.00222972
0.0160887
0.0060597
0.00593988
0.000116894
0.00582928
0.0163373
0.00564764
0.000442144
0.00590159
0.00590359
0.00591649
0.000942991
0.000581177
0.0197039
0.00585667
0.0058343
0.00849927
0.00589311
0.000628858
0.0123133
0.000225832
0.00584608
0.00249334
0.00730509
0.00591614
0.00181632
0.0075401
0.00591647
0.000750833
0.001245
0.00824075
0.00584876
0.00593559
0.00583664
0.00590638
0.00114167
0.00241945
0.00998339
0.00392493
0.00585522
0.000114589
0.00590868
0.00588631
0.0105897
0.00170948
0.00372018
0.00586098
0.00578861
0.00590339
0.00599317
0.00452681
0.00156219
0.00578855
0.00592938
0.00584668
0.00707973
0.00910159
0.00591091
0.00232682
0.00591261
0.00235505
0.00677753
0.00592929
0.00595233
0.00598687
0.00425026
0.00289473
0.000111755
0.00471017
0.00226875
0.00556457
0.00352711
0.00133162
0.0192394
0.00173856
0.00384671
0.00681055
0.0154893
0.00590502
0.00585177
0.00592098
0.00214372
0.00580875
0.00249667
0.01048
0.0059605
0.00232001
0.0059177
0.00310594
0.00173885
0.00582331
0.00698206
0.00595087
0.00587588
0.0187253
0.00591474
0.00111692
0.0136374
0.00591084
0.00178214
0.00586064
0.00571921
0.00601861
0.00589502
0.00592119
0.00136429
0.00332985
0.00226688
0.00981396
0.00394159
0.00808895
0.0058228
0.000465508
0.00874372
0.0032615
0.00585135
0.0019891
0.00569492
0.00584222
0.00605508
0.00594143
0.000687395
0.00993903
0.00799083
0.00983015
0.0141083
0.00590558
0.00593644
0.00591115
0.00604983
0.00442647
0.00595926
0.00634769
0.0058888
0.00582186
0.00249627
0.0020511
0.00568224
0.0004681
0.00596006
0.00586297
0.0160315
0.00581682
0.00710895
0.00254735
0.00308218
0.0058509
0.00976368
0.00435088
0.0140109
0.00557136
0.00595753
0.0058515
0.00186733
0.0041316
0.00594054
0.00316706
0.00581947
0.00592582
0.0184736
0.0205316
0.00619181
0.00583926
0.00381373
0.00461222
0.00158537
0.00493664
0.00527119
0.0151229
0.00592329
0.00583449
0.0058811
0.00493824
0.0129463
0.0110521
0.00579062
0.000220561
0.00586274
0.00425193
0.0070985
0.0054256
0.0181804
0.0112616
0.00698055
0.00581936
0.00595964
0.000580456
0.00489262
0.00592863
0.0124004
0.00592216
0.0117403
0.0127455
0.00558109
0.0060217
0.0134742
0.00427376
0.0122845
0.00531157
0.00580984
0.00252435
0.00267543
0.00593169
0.00581325
0.0057119
0.00590908
0.000839653
0.0130164
0.0113656
0.0105693
0.00575516
0.00222306
0.00337176
0.00580957
0.00451563
0.00584537
0.0129164
0.00157661
0.00393918
0.00644789
0.00574702
0.00586043
0.00587959
0.0057751
0.00593922
0.0143932
0.0022566
0.00211947
0.00591667
0.00870692
0.0062168
0.00585449
0.00580953
0.00446653
0.00600616
0.00599588
0.0037933
0.00617389
0.00585852
0.0189642
0.00581002
0.000277495
0.00633915
0.00401119
0.00582785
0.0056606
0.00592868
0.00548545
0.00490877
0.00282508
0.013039
0.00587495
0.0129982
0.00584786
0.00100668
0.000129369
0.000378731
0.0183006
0.0066087
0.00340334
0.00586215
0.00593935
0.00890424
0.000125201
0.00216332
0.0205536
0.00582229
0.00267812
0.00588873
0.00591844
0.00444957
0.0152083
0.00581348
0.00218531
0.00233009
0.00749012
0.013525
0.0107654
0.00590264
0.00561729
0.0124037
0.00599095
0.00583062
0.0121407
0.00405262
0.00231407
0.0094218
0.00431165
0.00561026
0.00565056
0.0082307
0.00539978
0.00591182
0.0058975
0.00582869
0.000996598
0.000144409
0.005909
0.00583598
0.00582919
0.0194733
0.00431223
0.00580004
0.00134042
0.00591718
0.00226614
0.0059004
0.00581528
0.00594539
0.0195987
0.0014041
0.00388311
0.0058912
0.00568836
0.00183057
0.00161106
0.00583145
0.00590969
0.010385
0.00592901
0.00587831
0.00121447
0.00582516
0.00579352
0.00030463
0.00582065
0.0021975
0.00579213
0.0058548
0.00185074
0.00182243
0.00590267
0.00183121
0.00579166
0.00663494
0.00335896
0.00581023
0.0195085
0.00586674
0.00582269
0.00581535
0.0103162
0.00887926
0.00412826
0.00583014
0.00487682
0.00586762
0.00124346
0.0083512
0.000976532
0.00233597
0.000806964
0.00593251
0.0124202
0.00411593
0.00584083
0.00133209
0.0055662
0.00396155
0.00589368
0.00278852
0.00582637
0.00581018
0.00545105
0.0113129
0.00232846
0.00242468
0.00579336
0.00920088
0.00543085
0.00234997
0.014377
0.0119258
0.00587713
0.00555768
0.00581373
0.0123129
0.00584861
0.00335797
0.0202105
0.00184609
0.00585927
0.0108291
0.00412068
0.00583162
0.00597017
0.0057668
0.00581115
0.00535448
0.0058832
0.0057705
0.0167662
0.00589755
0.00548678
0.00569955
0.00533996
0.0058593
0.00194567
0.00606997
0.0058146
0.00383519
0.00188786
0.00587343
0.00579138
0.00590103
0.00172778
0.00580975
0.00644825
0.00511941
0.00101825
0.00538677
0.00318993
0.00583201
0.00585329
0.00581118
0.00595833
0.00581032
0.00562059
0.00590056
0.00595295
0.00593865
0.011466
0.00106306
0.0059208
0.0059005
0.00588601
0.0148879
0.00286092
0.00931359
0.00501328
0.0112203
0.00616486
0.00589474
0.00592982
0.00602649
0.0018158
0.00593608
0.00583168
0.00606334
0.00554514
0.0137425
0.00570129
0.00451438
0.00239676
0.00603225
0.00410363
0.0029224
0.00423938
0.014517
0.00597592
0.00510055
0.00579698
0.00777631
0.00586153
0.00957712
0.00833554
0.00319926
0.00516363
0.00586092
0.0058098
0.00583135
0.00983563
0.018146
0.00499066
0.0058302
0.00522155
0.00590769
0.00407129
0.00584851
0.00582444
0.00170694
0.00207914
0.00235041
0.00603849
0.00560285
0.00480105
0.00591456
0.00587876
0.0192891
0.00584394
0.0058458
0.00595386
0.00696956
0.00115918
0.00456138
0.00233081
0.00262361
0.00525991
0.00909624
0.0013259
0.00037723
0.00584729
0.00346688
0.00585916
0.00536439
0.00582914
0.0190281
0.0118547
0.0115112
0.00492083
0.00590256
0.0104481
0.0118761
0.0016888
0.00083217
0.00305544
0.0199291
0.00591843
0.0117961
0.0101339
0.00127057
0.00588836
0.00585807
0.00589733
0.00700372
0.00580422
0.00591838
0.00591576
0.00594164
0.00591812
0.00499402
0.00582791
0.00592917
0.00593221
0.00591576
0.00642288
0.00589838
0.00582625
0.00765898
0.00217861
0.00584951
0.00508198
0.00583181
0.0031767
0.00174892
0.00515213
0.00564896
0.00307618
0.00583071
0.00254918
0.000801903
0.00363405
0.000760324
0.00583499
0.00558771
0.00632126
0.00591324
0.0059249
0.00587914
0.0033053
0.00451152
0.00582607
0.00589034
0.006489
0.00585767
0.00853654
0.00338599
0.0103155
0.00200936
0.00585789
0.00777784
0.00582141
0.00633098
0.0013733
0.00155602
0.00584373
0.00532339
0.00131835
0.00474555
0.00208154
0.0058234
0.0037147
0.0018909
0.00243797
0.00121863
0.00908735
0.00555215
0.00581005
0.00589437
0.0118805
0.00308839
0.00580858
0.00279769
0.00328838
0.000793872
0.0127223
0.00592895
0.00881234
0.00201095
0.00727247
0.00584447
0.000340126
0.001815
0.00636437
0.00594584
0.000829263
0.0058121
0.00584741
0.000634533
0.00584452
0.00379679
0.00604779
0.00595811
0.0056709
0.00325676
0.0059077
0.00136094
0.0184704
0.00581124
8.27575e-05
0.00587909
0.00590106
0.000606074
0.0183323
0.00812878
0.0017217
0.0023578
0.00485484
0.00404542
0.0058416
0.0187129
0.00611637
0.00585311
0.00784599
0.00583026
0.00592985
0.00581782
0.00589527
0.000973715
0.004907
0.00590342
0.00272777
0.00584666
0.00942136
0.00895765
0.00910552
0.012429
0.0100834
0.00550301
0.00577423
0.00593662
0.00586785
0.00585703
0.00165765
0.005948
0.00687083
0.0058438
0.00592823
0.00594236
0.00591321
0.0104166
0.00592231
0.00215949
0.000132989
0.00595049
0.00599743
0.00581566
0.00580875
0.00594743
0.0128695
0.00204385
0.00592836
0.00595463
0.00850433
0.00589115
0.0116563
0.0011553
0.005885
0.0111073
0.00608772
0.00593118
0.00584511
0.00582327
0.0100554
0.0059256
0.00554907
0.00336362
0.00442446
0.00727866
0.00588484
0.011353
0.00594287
0.00568692
0.00585022
0.00246187
0.00587985
0.000528457
0.00632055
0.00129122
0.00580993
0.00190965
0.0058671
0.00194001
0.00176446
0.00594671
0.00583723
0.00197465
0.00585161
0.00128428
0.00255987
0.00581048
0.00586404
0.00605148
0.00583622
0.00586775
0.00582788
0.00480528
0.00585551
0.00602849
0.00528444
0.00581752
0.00180216
0.00592926
0.000301406
0.00584028
0.00587937
0.00986988
0.00588513
0.00479499
0.00584964
0.00587265
0.00586055
0.00593611
0.00610715
0.00131375
0.000597035
0.00581301
0.00231511
0.00761415
0.0012939
0.00590785
0.00482787
0.00603029
0.00234396
0.0188814
0.00199539
0.00500022
0.00831667
0.00129998
0.005711
0.00274063
0.00373601
0.00404868
0.00588001
0.00602498
0.00380329
0.00870596
0.00592476
0.00586833
0.00584321
0.00295011
0.00517126
0.00360731
0.00781211
0.0114725
0.00586818
0.00255402
0.00745682
0.00877383
0.00333645
0.00364333
0.00591995
0.00491269
0.0117231
0.00295706
0.00580504
0.00585153
0.00356892
0.00583676
0.00190524
0.00586734
0.00585371
0.00482287
0.00158794
0.00583825
0.00148255
0.00203771
0.0165448
0.00583558
0.000240048
0.00581787
0.00881103
0.00650466
0.00616463
0.00593438
0.0114808
0.00592688
0.00586178
0.00224971
0.0084359
0.00583764
0.00584093
0.0129321
0.00520661
0.00609076
0.00582366
0.00257344
0.00878057
0.00670424
0.000842815
0.00506521
0.000312628
0.00523002
0.0122129
0.00585386
0.00590409
0.0125816
0.008726
0.0070464
0.00582197
0.00591813
0.00446264
0.0155745
0.00191607
0.0027225
0.00623796
0.00448512
0.00574679
0.00394717
0.00224585
0.00592421
0.0044617
0.00601806
0.00935591
0.00844883
0.00579128
0.00584991
0.00213851
0.00642107
0.00588046
0.00585836
0.00601563
0.0178631
0.00336131
0.00149795
0.00854839
0.00592187
0.00588816
0.00549012
0.0059288
0.007747
0.00113024
0.00150835
0.0102449
0.00601956
0.00383891
0.00588244
0.00583538
0.00590922
0.00591889
0.00547401
0.0040784
0.00584513
0.00545423
0.00667151
0.00408641
0.000873184
0.0212917
0.00581426
0.00591348
0.00178992
0.00583305
0.0205013
0.00581776
0.00585009
0.00589849
0.00173603
0.00583061
0.00396244
0.0152116
0.00151408
0.0187503
0.00602325
0.00582943
0.00583857
0.00589989
0.00587596
0.0193273
0.00273512
0.00432972
0.000764061
0.00393691
0.00589985
0.0118785
0.000991884
0.00587609
0.00575072
0.0123405
0.00214619
0.0020424
0.00591739
0.0118599
0.00583897
0.00585768
0.00238503
0.0058642
0.0081244
0.00206686
0.00581879
0.00587962
0.00985184
0.00127597
0.0058522
0.00584979
0.00590492
0.00589791
0.00580137
0.00583612
0.00539416
0.0116396
0.00720473
0.00593005
0.00581601
0.00590187
0.00159939
0.0124566
0.00592196
0.00249829
0.00358945
0.00863236
0.00604456
0.00350209
0.00587799
0.00197578
0.00139633
0.00183426
0.00590464
0.00592881
0.00579033
0.000877217
0.00195617
0.00584918
0.00589704
0.00597845
0.00584471
0.0059552
0.00585825
0.0117081
0.00591524
0.0023293
0.0011903
0.00590862
0.00593286
0.00817637
0.00351496
0.00581166
0.000240748
0.00594348
0.00487389
0.00580952
0.00175338
0.00622418
0.00587192
0.000944511
0.0192749
0.00594086
0.00596139
0.00584021
0.0021349
0.00410102
0.00663563
0.00584028
0.00209307
0.00575501
0.00204334
0.00593438
0.00152112
0.00582376
0.00594088
0.00586129
0.00583003
0.00723989
0.00413561
0.00589208
0.00582592
0.00574097
0.00266365
0.00449104
0.00593905
0.00583494
0.00589553
0.00262871
0.0012216
0.002972
0.007857
0.00586586
0.00223849
0.00580951
0.0183492
0.0057997
0.00854948
0.00542588
0.00595129
0.00372287
0.00961091
0.00588551
0.000908257
0.00581505
0.00193938
0.00709008
0.00585673
0.00362482
0.00592626
0.00579463
0.00539254
0.00168824
0.00882401
0.00862496
0.00580873
0.00141806
0.00582282
0.00591633
0.00986403
0.00719501
0.00586194
0.00353586
0.00596026
0.00467121
0.00590635
0.00427896
0.00594897
0.00357274
0.0058306
0.00586022
0.00200726
0.00592611
0.00248875
0.000417314
0.00940078
0.00583938
0.00591681
0.00192219
0.00190929
0.00679313
0.00583843
0.0110502
0.00596001
0.00586796
0.00147878
0.00582468
0.00340585
0.00584003
0.00515216
0.00560838
0.00586325
0.00593602
0.00592724
0.00593702
0.0059333
0.0177424
0.00588593
0.00184181
0.000320839
0.00297797
0.000546569
0.000284447
0.00591116
0.0060209
0.000939792
0.00208183
0.00581526
0.00592591
0.00616356
0.00841899
0.0058668
0.00191304
0.00582869
0.00589636
0.000488517
0.0116053
0.0023335
0.0214218
0.00587663
0.0059636
0.0117229
0.00644108
0.00579161
0.0184667
0.00491096
0.00179548
0.00104954
0.00588835
0.0010702
0.00588751
0.00594289
0.00592128
0.00193312
0.00471043
0.00372863
0.00412452
0.00580954
0.00182051
0.018944
0.00593516
0.00136442
0.0111104
0.0171852
0.00583621
0.00590729
0.00586129
0.00582207
0.0119176
0.00590062
0.00193487
0.0180467
0.00590475
0.00665256
0.00585716
0.0184947
0.00349555
0.0016027
0.0179746
0.00590088
0.00590993
0.00148916
0.00591559
0.00642679
0.00435572
0.00094155
0.00180167
0.00587736
0.00291453
0.00584632
0.0035118
0.00463786
0.000314885
0.00581412
0.00588809
0.00366305
0.00305383
0.00372599
0.00858576
0.00585734
0.00584824
0.0075172
0.0022675
0.0140883
0.00850504
0.00987977
0.00596545
0.00210367
0.0059571
0.012011
0.00436692
0.0119527
0.00590874
0.00588433
0.00587389
0.00652444
0.00984332
0.00571663
0.00528475
0.00558963
0.0057924
0.00143266
0.00583753
0.00526183
0.00427454
0.00965403
0.00581951
0.00580002
0.00880525
0.00272376
0.0152859
0.00590718
0.00590876
0.00216294
0.00663671
0.00588675
0.00520832
0.0117487
0.00607539
0.0171198
0.00138585
0.00612057
0.00584165
0.0211234
0.0118659
0.00580704
0.003872
0.00847778
0.00588535
0.0182589
0.00342272
0.00530738
0.00892017
0.00596169
0.0059329
0.00582161
0.0058197
0.0015076
0.00580677
0.00584281
0.0149762
0.00591526
0.00230178
0.00585399
0.00052062
0.00371333
0.00148135
0.00594164
0.00577084
0.000917966
0.00212612
0.0059516
0.00593424
0.00430023
0.0133071
0.0059118
0.00164295
0.00815519
0.00860796
0.0121176
0.00584597
0.00557849
0.000916119
0.00540216
0.00602118
0.00582992
0.00144702
0.00766694
0.0162335
0.00377521
0.0055409
0.017719
0.00593404
0.00192621
0.00104546
0.00589842
0.00587364
0.00584869
0.000969728
0.00582225
0.00169916
0.000686492
0.00588012
0.000862295
0.00477672
0.00636158
0.000571527
0.00255252
0.00594194
0.00151964
0.00288654
0.00592344
0.00231828
0.00388848
0.00152174
0.0121745
0.00582448
0.00581183
0.00591087
0.00842072
0.00591408
0.0058105
0.00605099
0.00570323
0.00610912
0.0180146
0.00369066
0.0058085
0.00576969
0.00389273
0.00241018
0.00603587
0.00149698
0.00585403
0.0084227
0.0116207
0.00591564
0.00553281
0.000910656
0.00960838
0.00685479
0.00571849
0.00127714
0.00593836
0.00224813
0.00867739
0.00582199
0.00589955
0.00589709
0.00582349
0.00449536
0.00252447
0.00589865
0.00587809
0.0059411
0.0117395
0.00448806
0.00533646
0.00581186
0.0058213
0.0143447
0.00591661
0.00588606
0.00588347
0.00321751
0.00583718
0.00589687
0.00585255
0.00591499
0.00312418
0.00580682
0.0189438
0.00585705
0.00207423
0.0108618
0.00590184
0.00104134
0.00232159
0.0058629
0.00501839
0.00583845
0.00824861
0.0188839
8.22665e-05
0.00231258
0.00589282
0.00226943
0.00175756
0.00584023
0.00245954
0.00362295
0.00448049
0.00572166
0.00583842
0.0127961
0.000324921
0.00585479
0.00948415
0.0201136
0.00581346
0.00584054
0.00581221
0.00139149
0.00946555
0.000961486
0.00592707
0.00589415
0.0100882
0.00404823
0.0168821
0.00187477
0.00589563
0.00596932
0.00583271
0.017674
0.0147979
0.00588504
0.00245994
0.0105543
0.00800891
0.00239446
0.00567411
0.00588528
0.00591635
0.0121293
0.000362727
0.00592818
0.0116985
0.00584878
0.00684873
0.00146608
0.00471045
0.000394764
0.00403184
0.00587452
0.00611582
0.00208113
0.00769392
0.000217192
0.00581476
0.0115595
0.0109864
0.00720494
0.0193719
0.00565823
0.00658082
0.0177819
0.00212847
0.00590626
0.0101498
0.0128585
0.00945766
0.00181457
0.00595274
0.000447069
0.00589149
0.0102671
0.009898
0.00217188
0.00566384
0.00593967
0.00588036
0.00158421
0.00590128
0.00443572
0.000714581
0.00229352
0.00589954
0.0014521
0.00593213
0.00217972
0.0079918
0.00882585
0.00410206
0.00595705
0.0058534
0.00587614
0.00494153
0.0058483
0.00218068
0.00554704
0.00588635
0.00582713
0.000923779
0.00425424
0.005901
0.00581434
0.00588163
0.00601325
0.00568242
0.00205426
0.00590776
0.00747876
0.000704012
0.00592874
0.00593168
0.0035877
0.00475677
0.00581724
0.00216147
0.00227656
0.00140128
0.00247542
0.0181412
0.00183576
0.00277906
0.0117178
0.00584852
0.0118676
0.00131175
0.00586337
0.00892187
0.00588695
0.00249754
0.0070804
0.00526545
0.00242168
0.000804173
0.00592894
0.00593264
0.00581023
0.00299623
0.00590525
0.00587667
0.00582181
0.00946484
0.00546052
0.00584272
0.00277022
0.00582859
0.00464941
0.0176276
0.0173675
0.00582736
0.00581588
0.0116175
0.00219294
0.0193411
0.0059315
0.00422883
0.00590429
0.00583136
0.00109627
0.00254852
0.00584295
0.00593414
0.000964069
0.0058549
0.00338481
0.00581121
0.00584149
0.00599424
0.00097662
0.00213402
0.00561979
0.00581411
0.00527318
0.00563007
0.00173404
0.010785
0.00587647
0.00418179
0.00124441
0.00386873
0.00855141
0.00606853
0.0046871
0.00595759
0.00384925
0.00462921
0.00581641
0.00585478
0.00698522
0.00580941
0.00864378
0.00900184
0.00591238
0.00175674
0.00592493
0.00589855
0.00239304
0.00588914
0.00581058
0.00581736
0.00584903
0.00252474
0.00597222
0.0100267
0.00581577
0.0177947
0.00120353
0.00588719
0.00595834
0.0059176
0.00583385
0.00585252
0.00186293
0.00592339
0.00193719
0.00549491
0.00943605
0.00758608
0.00469555
0.00564948
0.00231063
0.00581799
0.00580972
0.0116347
0.00585637
0.00588752
0.00577782
0.00161922
0.00653495
0.00584852
0.0113744
0.0107871
0.00582683
0.00229004
0.00591066
0.00582337
0.00586273
0.00582223
0.00994965
0.00583286
0.00592647
0.0113842
0.00372505
0.00136351
0.00608777
0.00596012
0.0157613
0.00580975
0.00129405
0.0058006
0.0059282
0.0107103
0.00583167
0.00581158
0.00589919
0.00259905
0.0113527
0.00588852
0.00583133
0.00586999
0.00320255
0.00776571
0.00153248
0.0059954
0.000842865
0.0194623
0.00591658
0.0171351
0.00581696
0.000343371
0.00544005
0.00584825
0.00428612
0.00619217
0.00497373
0.00152547
0.00321357
0.00439746
0.00101182
0.00365264
0.00124844
0.00591124
0.00637465
0.00588244
0.00607179
0.00500531
0.00270046
0.00232937
0.0059116
0.00210697
0.0109651
0.00162062
0.0010611
0.00580406
0.00526427
0.00579198
0.00584522
0.00788917
0.00583676
0.00905172
0.00547967
0.00582546
0.00401045
0.00320157
0.00137691
0.00581189
0.00235045
0.0022764
0.00485165
0.00975653
0.00582733
0.0059453
0.00583887
0.00585492
0.00847271
0.00132831
0.0102303
0.00591003
0.000229605
0.0117761
0.00580574
0.00587073
0.000960409
0.00387924
0.0123125
0.000961263
0.00126399
0.00103325
0.00175338
0.00551514
0.0113444
0.0124645
0.00588024
0.00559587
0.00589756
0.00386135
0.000884769
0.0168953
0.00594264
0.00126125
0.0115315
0.00585398
0.00593195
0.00595019
0.00579136
0.00582345
0.019707
0.000339892
0.00290748
0.00589743
0.00424679
0.00209835
0.00163965
0.00157241
0.00208957
0.00152623
0.00584594
0.00582323
0.00108258
0.00580382
0.0139711
0.00222011
0.00585056
0.00581278
0.015897
0.0059358
0.00594851
0.00590986
0.00340973
0.00205398
0.00465521
0.00579691
0.00585489
0.00593103
0.000276557
0.00582644
0.000580272
0.00582455
0.0058842
0.00579572
0.00472907
0.000426017
0.00449275
0.00581009
0.00567451
0.00607614
0.0080963
0.00365814
0.00589877
0.00666458
0.00584913
0.00581226
0.00433123
0.0182952
0.0110155
0.00848037
0.00215792
0.00242839
0.00583996
0.00585402
0.000250467
0.00174905
0.00221317
0.00579095
0.00114461
0.0116404
0.00590373
0.00592221
0.000439308
0.00586835
0.0169316
0.00201729
0.0120617
0.00590851
0.00611017
0.00591457
0.00909966
0.00593951
0.00580428
0.00414447
0.00793469
0.0195892
0.00758525
0.00293776
0.00457161
0.00581241
0.00593986
0.0105659
0.00590884
0.00551702
0.00232021
0.00583528
0.000240797
0.00585274
0.0058486
0.00580389
0.00449071
0.00592055
0.0110365
0.00591544
0.00582315
0.0155213
0.00593652
0.00113353
0.00156531
0.0013749
0.00590289
0.0133449
0.00511906
0.00584262
0.000440358
0.00585612
0.000370388
0.00623891
0.00744993
0.00188484
0.00179492
0.00171848
0.00584073
0.00588034
0.00601383
0.00580377
0.00486709
0.00146877
0.00230771
0.0153464
0.00580587
0.0123493
0.000255156
0.00593565
0.00206297
0.00581037
0.000906975
0.00603268
0.0070292
0.00581037
0.00162209
0.00583936
0.00582123
0.00211883
0.00261163
0.00289118
0.00600575
0.00685766
0.00295182
0.00589673
0.00618473
0.00216365
0.00434371
0.0137267
0.00591601
0.0175464
0.00582154
0.00592207
0.00780326
0.00488102
0.00584132
0.00592324
0.00592233
0.00580604
0.0059401
0.00224362
0.000314582
0.00364754
0.00589688
0.00588704
0.00240842
0.00314618
0.0027587
0.0172936
0.00877816
0.00591558
0.00583727
0.0058147
0.00418461
0.00582691
0.00584589
0.00487284
0.00651065
0.00647104
0.00589987
0.00582768
0.00401801
0.00596464
0.00584318
0.00583584
0.00404861
0.000889586
0.00321248
0.00585083
0.00580589
0.0035859
0.00587071
0.00812732
0.00273597
0.00614887
0.00589443
0.00180829
0.00590082
0.00585535
0.00149678
0.00583105
0.000378002
0.00583833
0.00451361
0.00594076
0.00381045
0.00585866
0.00256081
0.00582587
0.0018422
0.00593356
0.00585827
0.00589874
0.00536465
0.0122102
0.0059137
0.0059992
0.00581658
0.0119561
0.00185199
0.00912919
0.00319418
0.00389427
0.00483156
0.0146017
0.00573757
0.00714949
0.00590126
0.00584529
0.0039796
0.0191095
0.00580346
0.000942755
0.00408793
0.00581363
0.00289631
0.00590267
0.00754555
0.0059367
0.00169785
0.00592129
0.0170781
0.00731931
0.00580954
0.00589099
0.0058316
0.00585976
0.0120949
0.0173279
0.00573196
0.000530289
0.00592249
0.00098944
0.00583483
0.0116558
0.00582155
0.00530041
0.00580965
0.00175749
0.00592807
0.00583224
0.00603819
0.00255536
0.00811645
0.0197731
0.00387649
0.00374681
0.00969222
0.00206415
0.0184944
0.00588011
0.00603736
0.00574642
0.00583479
0.00591245
0.0055256
0.00930998
0.0186063
0.00546818
0.00590075
0.0101841
0.00584126
0.00207646
0.00275631
0.0156789
0.00573788
0.00588948
0.00580928
0.00589467
0.00589847
0.00652766
0.00393456
0.0058159
0.00382596
0.00369477
0.00333762
0.0121508
0.00101089
0.00691576
0.00592153
0.0076419
0.0127494
0.00386959
0.00148112
0.00581449
0.00592181
0.0067439
0.0120162
0.00493505
0.00592928
0.00609625
0.00582188
0.00918534
0.0118597
0.00581798
0.00576556
0.00581508
0.00589356
0.000197317
0.0106039
0.00589427
0.00589039
0.00564284
0.00583939
0.00581502
0.00417676
0.00582422
0.0051231
0.00581648
0.00930851
0.0058367
0.00117773
0.0058097
0.000605236
0.00589482
0.00505248
0.00584594
0.00584582
0.00581521
0.00592827
0.00800418
0.00453842
0.0051797
0.00588384
0.00719569
0.00532143
0.0159688
0.00585529
0.000286512
0.00234722
0.0122683
0.00968983
0.0015384
0.00303062
0.00442358
0.00582161
0.0144173
0.00594265
0.00562547
0.00888362
0.00199559
0.00232781
0.0128407
0.00232953
0.00612327
0.00331505
0.000337824
0.0059229
0.00584086
0.00595175
0.00215547
0.00583063
0.0058065
0.00926618
0.00597928
0.00583528
0.00585284
0.00134445
0.00595134
0.00334369
0.0117357
0.011855
0.0100371
0.00462573
0.00540389
0.00576228
0.00190354
0.00591285
0.00577934
0.00465852
0.00593405
0.00581386
0.00112039
0.0121341
0.00372744
0.00256502
0.00541292
0.00594113
0.000570145
0.00243419
0.00566537
0.00594827
0.00586064
0.00586651
0.0059378
0.0058877
0.00591395
0.00544286
0.00584973
0.00594577
0.00553234
0.00601399
0.0059255
0.00595668
0.0165167
0.00913731
0.00605651
0.00274076
0.0021737
0.00147112
0.00492325
0.00216807
0.00448023
0.00592614
0.00586279
0.00123592
0.00581094
0.00580459
0.00607104
0.000667783
0.00580266
0.00582908
0.0058733
0.00572005
0.00587463
0.00555378
0.00603215
0.0081352
0.00356407
0.00530844
0.00580642
0.0059515
0.00393061
0.0131532
0.00207196
0.000586046
0.0114309
0.00284837
0.0059454
0.00584236
0.00159858
0.0121217
0.00583652
0.00449563
0.0113808
0.000422241
0.00860064
0.010981
0.00602887
0.00599371
0.0060446
0.00156424
0.0058819
0.0117672
0.00122276
0.00591296
0.00587776
0.00587059
0.00348719
0.00579299
0.00580451
0.00561447
0.000932114
0.000924537
0.0101145
0.0162979
0.00593961
0.0125079
0.0122793
0.00142763
0.011173
0.000210874
0.00971855
0.00458603
0.0058394
0.000777399
0.00102183
0.00592895
0.00334852
0.00589944
0.00889041
0.0059371
0.00230791
0.00206763
0.0113229
0.00593794
0.0059115
0.00576979
0.00210996
0.00596883
0.00586385
0.0121109
0.00710039
0.00577823
0.0194712
0.00581009
0.00222982
0.00584132
0.00238812
0.0164432
0.0101197
0.00505703
0.00901096
0.000471524
0.00576629
0.00759965
0.00585436
0.00581674
0.00849256
0.0117465
0.00581095
0.00561546
0.00588952
0.00592514
0.00637221
0.0058231
0.015153
0.00136863
0.0111717
0.00594997
0.005585
0.00445436
0.0064001
0.00179075
0.00453179
0.0127331
0.0170218
0.00573439
0.00163259
0.00769426
0.0059156
0.0121821
0.00590102
0.00593927
0.00487525
0.00584294
0.00583821
0.00742255
0.00589694
0.00108361
0.00588765
0.0153315
0.00746318
0.00554159
0.00769321
0.00215666
0.00581433
0.0103251
0.0119447
0.0210015
0.00591527
0.00594251
0.0175448
0.00857203
0.00857938
0.00582635
0.00257086
0.00609275
0.00592271
0.00235608
0.00233734
0.00594357
0.00587851
0.00585533
0.00211625
0.00596497
0.00125661
0.00586346
0.00584268
0.00927056
0.00605374
0.00591282
0.000492587
0.00302283
0.00573739
0.00594174
0.00595163
0.00830875
0.00592992
0.00588021
0.00589887
0.00250229
0.00580351
0.000900132
0.0104823
0.00379294
0.00584987
0.00582568
0.00592192
0.00318162
0.00462262
0.00191456
0.00117388
0.00498626
0.00583308
0.0119243
0.00139506
0.00589643
0.00801189
0.00584595
0.0012112
0.00322081
0.0088112
0.00272578
0.00588586
0.00679831
0.00593602
0.00595552
0.00593682
0.00636076
0.00595344
0.00519617
0.00242897
0.00593268
0.00569844
0.00588783
0.00592349
0.00587788
0.00585716
0.00593571
0.00588818
0.00582181
0.00905215
0.00315539
0.0128316
0.0061696
0.00150478
0.00589391
0.00588182
0.00587105
0.00588259
0.00626608
0.00572673
0.00584201
0.00588215
0.00578671
0.0145922
0.0028222
0.00194722
0.0058372
0.00607749
0.0160385
0.00206695
0.00280827
0.00579027
0.00542874