/*--------------------------------*- C++ -*----------------------------------*\
| =========                 |                                                 |
| \\      /  F ield         | OpenFOAM: The Open Source CFD Toolbox           |
|  \\    /   O peration     | Version:  v2012                                 |
|   \\  /    A nd           | Website:  www.openfoam.com                      |
|    \\/     M anipulation  |                                                 |
\*---------------------------------------------------------------------------*/
FoamFile
{
    version     2.0;
    format      ascii;
    class       volScalarField;
    location    "300";
    object      p;
}
// * * * * * * * * * * * * * * * * * * * * * * * * * * * * * * * * * * * * * //

dimensions      [0 2 -2 0 0 0 0];


internalField   nonuniform List<scalar> 
37190
(
-0.00705116
0.0002803
-0.0116192
-0.00568063
0.0098496
-0.00859273
-0.0378385
0.00205387
0.0010035
-0.0801634
-0.049937
0.0366623
-0.0562032
-0.029774
-0.0555927
-0.00973843
-0.0116826
-0.00376961
-2.13928e-05
-0.0246308
-0.0315281
0.00143668
-0.00669955
-0.00216616
0.0108812
0.000605791
-0.0575355
-0.0423245
-0.0481985
-0.0177022
-0.000412571
-0.0057729
0.00079906
0.000579796
0.00125876
-0.0135172
-0.0581433
-0.010926
-2.84259e-05
-0.0125929
-0.00893494
6.70146e-05
-0.00922109
-0.00601307
-0.0553749
0.00698962
-0.0555178
0.0376033
0.000712283
-0.0179256
0.00122099
5.96969e-05
-0.0197573
-0.052111
-0.000928345
0.00555088
6.0337e-05
-0.00473549
-0.00165231
0.000196081
0.00140506
-0.0554712
-0.0322939
0.000603928
-0.0866848
0.0374632
-0.00604359
-0.0610665
-0.0796345
-0.0549019
1.63078e-05
0.00980362
0.00133618
-0.00678919
0.00147062
0.0024438
-0.018638
-0.0537883
0.000864341
-0.0575474
-0.0563978
-0.00621334
-0.0544018
0.000319727
-0.054068
-0.0082703
-0.0551256
0.00512688
-0.038088
-0.00525462
-0.000334256
-0.0486762
0.000931809
0.000891617
-0.00729745
-0.00319576
-0.0245139
0.0380199
0.0213195
0.00145418
-0.00719677
0.00463852
-0.021757
0.000281314
-0.0483032
0.000753572
-0.00765185
-0.0715746
-0.0394038
-0.00780132
-0.0134037
0.00131791
-0.00609856
0.00132001
0.0093902
-0.0056124
-0.0552557
-0.0555679
-0.0178689
-0.031542
0.0137941
-0.055806
-0.0207226
0.0012156
-0.0594229
-0.029737
-0.0493306
-0.0210636
-0.0482405
-0.00840618
-0.058718
-0.00637246
0.000894287
0.00171237
0.000490341
-0.00776051
0.00172371
-0.00404151
0.0262016
0.0109497
-0.0672821
0.0141621
0.000805812
-0.00601103
-0.0250972
0.00120538
-0.0320886
-0.0405237
0.00118303
-0.0553966
-0.00738759
3.51771e-05
0.000316856
-0.0508043
-0.0556234
-0.0067825
-0.0799417
-0.0128905
0.00377956
-0.0998516
-0.00339641
-0.0186047
0.00149542
0.00101413
-0.0759798
-0.0317787
-0.0737111
-0.0515706
-0.0184284
-0.0606528
-0.0616252
0.00101332
0.00069221
0.000943753
-0.07727
-0.0775605
-0.0524485
-0.0259888
-0.0220551
-0.0782952
-0.0504158
0.00233832
-0.00818459
-0.074102
-0.030548
-0.0635645
-0.00688169
-0.0799871
0.03694
-0.0392438
0.0011761
-0.0553662
0.00102175
-0.0214492
0.0011607
-0.0541926
-0.0504156
0.0241937
-0.0704118
-0.0118624
0.000775665
-0.0554574
-0.00655811
-0.00706728
-0.0173075
-0.000477822
-0.00556716
-0.0129002
-0.0494048
-0.0384026
-0.00628536
-0.00555668
0.0211205
-0.0188663
-0.0583398
-0.0351847
-0.00555692
-0.00691764
-0.0579029
-0.00549082
-0.0430452
-0.00576193
0.0385916
-0.0495357
-0.0755817
0.0363027
-0.0562538
-0.0531697
-0.0230057
-0.057505
-0.072539
0.0016792
0.000305712
0.000375699
-0.00547202
0.00140178
-0.07172
0.000305279
-0.0110027
-0.0495328
0.00115635
-0.0730912
-0.0511329
0.000596971
-0.0530851
-0.0624224
-0.00548336
-0.00814007
-0.0626791
-0.0120224
-0.0286856
0.00253806
-0.049062
-0.0312249
0.00114772
-0.0411362
0.00113727
-0.00619442
-0.00616934
0.000167425
0.0215243
-0.0549752
0.00478571
4.89676e-05
-0.00688177
-0.0231587
-0.0128406
0.000297196
0.00114854
0.00800019
0.00170664
-0.0231391
-0.0011449
-0.0760681
0.0010244
-0.0766534
-0.00784801
-0.00730955
-0.0770223
0.00069845
0.00115481
-0.0390391
-0.0075408
0.000316613
-0.0592727
-0.00568281
0.000207168
-0.0253075
0.00916954
-0.000271848
-0.0190777
-0.019321
0.00068152
-0.0520597
0.000889502
-0.0500206
-0.000179541
-0.00889921
-0.0744384
2.00997e-05
0.00124356
0.00736087
-0.00935338
-0.0524082
0.000736333
0.00130768
-0.00439452
-0.0143733
-0.0558047
-0.0576462
-0.0868077
-0.0500769
-0.0497491
-0.00112243
0.00173335
0.00172155
-0.0106014
0.00154972
-0.0763671
-0.00704381
-0.0527771
-0.0527896
-0.014121
-0.016554
0.0390801
-0.000893999
-0.0184596
-0.0600117
-0.0731852
0.00114987
-0.00917227
-0.108428
-0.0128563
-0.058412
-0.0196435
0.00115425
-0.0127011
-0.00174449
-0.00999947
-0.0129442
-0.0101071
-0.00682805
-0.0413506
-0.0192626
-0.0569225
0.00126324
-0.0498207
0.00106866
-0.0093716
-0.0591027
-0.00391361
0.00254769
-0.0171297
3.29239e-05
-0.0624777
0.00888683
-0.000229709
0.00106639
-0.0581157
-0.00340026
-0.0584573
-0.0581392
-0.00796947
-0.0554561
-0.0566736
-0.0684061
-0.022412
-0.00621162
0.000877969
-0.085022
-0.0191416
-0.00675188
-0.0554012
-0.0730853
0.000394275
0.000415528
-0.0690699
-0.0996878
-0.00341642
0.00215562
-0.000255657
-0.0494123
-0.0138591
0.0201128
-0.000991869
-0.106045
0.00125775
0.00103033
0.000123453
-0.0356125
-0.0570039
0.0343726
0.00130791
0.000694069
-0.0515192
-0.000281314
-0.0687923
-0.0526231
-0.050517
0.00103763
-0.0496254
-0.0691694
2.41605e-05
-0.0730321
-0.0572695
7.93534e-05
-0.0536313
-0.0562252
-0.0569142
0.000602594
-0.0218327
-0.0169982
0.00102833
-0.0708011
-0.0477699
-0.0548195
0.00614722
0.00129006
-0.0769803
-0.010514
0.000981635
-0.00598665
-0.0101532
-0.017019
-0.0184834
0.000268933
0.00101333
0.000375428
-0.0698906
-0.0547597
0.000280898
0.00118681
0.000423075
-0.00151531
-0.0510557
-0.023
-0.0496954
0.000950469
-0.0506065
-0.0654549
-0.0120127
-0.00527377
-0.0575443
0.00490035
-0.0714479
-0.0613514
-0.107929
-0.055577
0.0012005
-0.0324871
-0.0773762
0.00270086
-0.0610778
-0.0316611
-0.0498966
-0.00783477
0.00113552
-0.0128767
0.00110258
-0.0878541
0.000826954
-0.0570955
-0.0617513
-0.00559753
-0.0575095
0.0010842
-0.008091
-0.0660511
-0.00960732
-0.0123731
-0.00546809
-0.0202308
0.00703849
-0.00477125
-0.0563538
-0.0127218
-0.022827
-0.0379043
-0.0185652
0.00227404
-0.0309655
-0.0214462
0.00111394
0.0104081
0.00925114
-0.0506875
-0.0564617
-0.0355434
-0.0834197
-0.00959502
-0.0562231
-0.0792122
0.00810875
0.0010283
-0.0603309
0.00257231
0.00141413
0.00208423
-0.00808994
0.0229782
-0.00882826
-0.0131651
-0.0766238
-0.0134907
0.00166235
-0.000804869
0.00161761
-0.0117873
-0.0274144
-0.00621663
-0.0102663
0.000964287
-0.00963595
0.00181262
-0.0707102
0.00209394
-0.0590161
-0.00558608
-0.0183926
-0.00349105
-0.0180977
-0.0288488
-0.046422
-0.029661
-0.0170078
-0.00773771
-0.00640077
-0.0180318
7.71524e-05
-0.00507428
0.00102866
-0.0394255
-0.0280387
-0.00833908
-0.0108213
-0.00573949
0.00104567
-0.00226547
-0.00511777
0.00208957
0.00139954
0.00264978
-0.00821925
-0.0847023
0.00036126
-0.0501454
0.0406875
-0.00882737
-0.00148241
0.00102334
-0.0494398
-0.00816327
-0.0111098
2.21197e-05
-0.0497302
-0.0184393
-0.0237793
-0.0365103
0.00225944
0.00499575
-0.0116709
-0.0714455
-0.00566068
-0.00623382
-0.0571192
0.00216366
-0.058789
-0.0544889
0.000248986
-0.0538617
-0.00746482
0.000625948
-0.00642978
0.0429196
-0.0823807
-0.0530973
-0.0926665
-3.15294e-05
0.00143821
-0.0408526
0.00115148
-0.0107893
-0.00685095
-0.0232143
-0.0709755
-0.0067136
-0.00812738
-0.00280966
-0.0128012
-0.0578988
-0.0157356
0.000666866
-0.0774331
-0.0020502
-0.00615721
-0.0291729
0.0028036
-0.0588396
-0.00174719
-0.0103412
-0.020465
-0.012102
-0.00750974
-0.0112686
-0.0473093
-0.0502037
0.00115974
-0.0550499
-0.00930403
-0.0174592
0.000617013
-0.0510018
-0.0123669
0.000290969
-0.031176
-0.0770019
-0.0102948
0.0015852
-2.03103e-05
-0.0553735
-0.0681976
0.00312712
-0.000285914
-0.0176337
0.00115827
0.0017631
-0.0882096
-0.0388217
-0.0155438
0.00177886
-0.0206393
-0.00202874
-0.0555362
-0.0540638
-0.0556375
0.00561632
-0.0557667
0.00785608
0.00167317
0.00128031
-0.0850843
-0.0501988
-0.048692
0.00216898
-0.00979229
-0.0555306
-0.0213249
5.24879e-05
-0.00286704
-0.0177412
0.000260038
-0.00722016
-0.0562591
-0.07971
-0.0169518
-0.0547347
-0.001844
-0.00160754
-0.0126358
0.000326706
-0.00705114
-0.052475
-0.0111683
-0.0430758
-0.0555063
-0.0237407
0.00293644
-0.00693485
-0.0121179
-0.0189848
-0.00973614
0.00093085
-0.0137773
-0.053463
-0.0526848
-0.00170913
-0.00149953
0.000939713
0.0301327
-0.0302438
0.00160224
-0.0481698
-0.000365581
-0.0476906
-0.0181261
-0.000173191
-0.0194198
0.0333772
-0.0519001
0.00282881
0.000898904
0.00207769
-0.0412272
-0.0560588
-0.0142326
-0.00161954
-0.00339786
-0.00707963
0.00101289
-0.0529993
-0.000194197
0.000149037
-0.0584115
-0.000371094
-0.0459974
0.000535672
0.00136071
-0.0649388
-0.068145
-0.00193126
-0.0409483
0.000534791
-0.0510977
0.00793847
0.00040601
0.0367176
0.00159485
-0.00977822
-0.0513245
-0.0547484
-0.0681134
-0.00361552
0.000623116
-0.0294146
8.56604e-05
-0.0524769
-0.00996962
-0.104252
-0.043798
-0.0693309
0.00120948
-0.0543409
-0.0292171
-0.0144674
-0.052322
0.00150346
0.0036376
0.00149892
-0.0375975
0.000644163
-7.01285e-05
0.00173607
-0.000833202
-0.0483624
-0.0639062
-0.0104735
-0.0560012
-0.0506186
-0.0720757
-0.0050303
-0.0142255
0.00121007
0.00252234
-7.9797e-05
-0.0129071
0.00135909
0.00803393
0.0180428
-0.0753673
-0.00605737
-0.0592414
-0.000634813
-0.00352129
-0.0113538
0.00246351
0.000632419
0.000335388
0.00010055
-3.56701e-05
-0.00188215
-0.0178986
0.00194758
0.00212428
0.00379807
0.0010668
-0.0413865
-0.00100773
-0.0013346
-0.0243649
-0.0448542
0.00100292
0.000584012
-0.0184685
-0.00197241
1.5785e-05
-0.0608288
0.00448964
-0.0343895
0.00365788
-0.0164662
0.000629893
0.00173119
0.000683951
-0.011693
0.000854685
0.00264684
-0.0185195
-0.00462756
0.00127658
0.00134125
-0.0543026
-0.000470974
0.000992966
0.00103406
0.0201444
-0.0386626
-0.0793043
0.000408419
-0.055646
0.00238069
-0.00142072
-0.0223216
-0.00158088
-0.0760181
-0.0228538
-0.00400759
0.00209046
0.00198507
-0.00190336
0.00254466
0.00308981
-0.0491522
-0.0113246
-0.0606429
-0.0378761
-0.0685535
-0.00252406
0.000362238
0.00487018
0.000429784
-0.0845462
-0.00628879
-0.0183256
-0.0517186
-0.0630536
0.0043688
0.00129786
4.42206e-05
-0.0142406
-0.0572767
-0.00375312
-0.0496105
0.00129673
-0.0221723
0.00093659
-0.0573423
-0.0224422
-5.76477e-05
-0.0741802
-0.0553508
0.00165028
-0.00109055
0.00296433
0.00527546
-0.00058276
-0.0205073
0.0291544
-0.0162944
0.000712143
-0.00399224
-0.0515562
-0.00872789
-0.00203926
-0.0491015
-0.043456
-0.0498996
-0.0834873
-0.0496071
-0.0580367
0.000502416
-0.00593318
-0.0143563
0.00405894
-0.00170797
0.0253386
-0.00852415
-0.0129724
-0.0820891
-0.00345785
-0.0090245
-0.0137532
-0.0492048
-0.0327502
-0.0062601
-0.00647277
0.00116013
-0.0518569
-0.00839237
-0.0865595
-0.0132711
0.00186607
0.00119667
-0.0168807
9.71449e-05
0.00113702
-0.0231884
-0.00930229
0.00114946
-0.0295143
-0.0136556
-0.0219405
-0.00763838
0.00118449
-0.0143313
0.00118953
-0.000390879
-0.0902548
-0.0494827
0.000439135
-0.0288658
-0.00364839
-0.0629661
-0.0572736
-0.0284396
-0.018528
-0.000236836
-0.014129
-0.0428086
-0.0311711
-0.0344291
-0.0604616
0.00107619
-0.0762731
-0.050931
-0.00683809
0.00019516
0.00126092
-0.0593573
-0.0573816
-0.000376867
0.000233373
-0.0711939
0.00103557
-0.052517
-0.021737
-0.0148728
-0.0584301
0.0010386
-0.0519541
1.95632e-05
-0.0562868
-0.00702842
-0.0308316
0.00105948
0.00427864
-0.0310942
-0.0232151
-0.071444
0.000958253
-0.0211813
-0.0504628
-0.0252936
-0.00746873
-0.0126472
0.00139191
0.000946367
0.00105445
-0.0493222
-0.0303514
0.0009403
-0.0396143
-0.0283276
-0.0598252
-0.0591187
-0.00996883
-0.0562595
-0.0613222
-0.0909563
-0.0158424
-0.0584176
-0.0378239
-0.0122045
-0.0104922
-0.0342177
0.000948502
0.000526346
-0.0484956
0.000514305
-0.0322351
-0.000314888
-0.011806
0.00212262
-0.00131814
0.00104614
-0.00102642
0.0235101
-4.6114e-05
-0.0569685
0.000966108
0.00112177
-0.104137
0.0059806
-0.0623247
-0.0793734
-0.0482249
0.00478179
-0.0035447
0.00103003
-0.0141885
-0.0146293
-0.0171927
-0.0502874
-0.00172675
-0.00844843
-0.0039749
0.00110752
-0.054805
-0.00603137
-0.00165859
-0.0712504
0.00103901
-0.0647684
-0.0845817
-0.0590343
-0.0540984
-0.00531714
0.00319514
-0.000108965
0.00183339
0.00167602
-0.0142121
-0.0388883
-0.00385783
-0.0556009
0.00103392
-0.00731254
-9.41295e-05
0.00091654
-0.0108028
0.000372683
-0.0488353
-0.0710842
-0.00797078
0.0019616
0.00029203
0.000823047
-0.0190056
-0.00705426
-0.000647805
0.000412838
-0.00752297
-0.077751
0.0011749
-0.0520782
-0.056258
-0.0166617
-0.0103901
-0.00375321
0.000188571
-0.00195328
0.00094897
-0.0215488
0.00141717
0.00299934
0.00361061
0.0043563
-0.0569727
0.000980013
-0.011786
-0.00754452
0.00211603
0.00156002
-0.043648
0.0015419
-0.0598485
0.000626049
-0.0616086
0.000860857
-0.0678094
0.00156532
-0.120135
-0.0452625
-0.00761285
-0.00521601
-0.0456843
-0.00985427
-0.0715376
-0.00471901
-4.82362e-05
0.00184503
-0.00110612
-0.00945175
-0.0147236
-0.00618014
-0.024553
-0.0138177
-0.00718801
-0.0229144
0.000320223
-0.0657385
-0.000706289
-0.0546197
-0.000710844
0.00153163
0.00198422
-0.0165392
-0.0263002
-0.0167727
0.00162055
-0.0158086
0.000445929
-0.00718205
-0.0535732
-0.0571639
-7.89058e-05
-0.00231365
-0.0589545
-0.0278231
0.00114558
-0.09532
-0.000293345
-0.0987211
0.00266325
0.000734134
-0.0007562
-0.0835463
-0.0927751
0.00175244
-0.0405236
-0.0317927
-0.0145999
8.51353e-05
0.00199033
-0.0570005
-0.0028608
0.00101012
0.00104558
-0.00195885
0.00041925
-0.0954094
-0.101085
-0.0538129
-0.054693
0.00104834
-0.0619885
0.000130754
-0.0021274
-0.00171877
-0.00726108
0.000968315
-0.0251687
-0.0509314
-0.0561171
-0.000795244
-0.00964588
0.00713856
0.000662774
-0.0500956
-0.0142887
-0.00992449
0.00497209
-0.0310136
0.00102292
-0.0610759
-0.0511625
-0.0124127
0.00101652
-0.0528058
0.000474042
-0.0507548
-0.00706578
0.00239204
-0.000579765
-0.00133958
0.000860968
-0.00609837
-0.0640847
-0.0836479
0.000993703
-0.0100539
-0.00680793
-0.00189522
-0.00383692
0.000633977
0.00621605
-0.0230691
-0.0575503
-0.0326951
-0.0509416
-0.0604214
-0.00222051
-0.0432084
0.0017736
-0.00155416
-0.0176248
-0.0669232
0.0166298
-0.000294221
0.00117456
-0.0571586
-0.0080962
-0.0671684
-0.000854684
-0.000672568
0.00342403
-0.00208013
0.00387146
-0.00520593
0.00048991
0.0040155
7.62653e-05
-0.0508145
-0.0841618
4.54377e-05
-0.00955235
-0.0537909
-0.000106278
0.00109172
-0.0155624
0.000352522
0.0142205
-0.0547994
-0.0375695
-0.0811113
-0.0101264
0.00110223
0.00323413
-0.000230226
-0.00981047
-0.0540919
-0.035866
-0.00898964
0.000313279
0.00596768
0.00108842
0.000508416
0.000167417
0.000956911
0.00332557
-0.0815247
0.00134673
-0.000503165
0.00164912
-0.000913495
-0.0480402
0.0107973
0.000953717
0.000123736
-0.0688981
0.00101102
0.00132171
0.000965951
0.000514967
0.000960282
-0.0456954
0.00100654
-0.0298371
-0.0115046
-0.0608712
0.0213678
0.000423736
-0.0101778
-0.000545192
0.00125511
0.0010562
0.0295584
-0.0260302
-0.0279914
0.0292929
-0.0243713
-0.0102246
0.00179697
-0.00725893
0.00106027
-0.00784685
-0.0593145
-0.053793
-0.0507482
-0.00715794
-0.0504498
0.00063096
-0.0179515
-0.0496158
-0.00633281
-0.0247935
-0.0635624
0.000100289
0.00110018
-0.0608047
-0.0499115
-0.00290434
-0.00300471
-0.011919
0.00095497
9.60655e-05
0.000599818
0.00247861
-0.00986127
0.0161771
0.000528138
0.000960448
0.00121513
-0.00381174
-0.00933055
-0.000271013
-0.0440921
-0.0637988
-0.052677
-0.00178393
-0.0496663
0.000950328
-0.0593568
-0.0302489
-0.0452106
-0.0115544
0.00139138
3.9894e-05
-0.0508967
-0.0416516
-0.0154769
-0.00361499
-0.00942899
0.00134527
0.000873625
0.000814982
-0.00840967
0.00158557
0.00210423
-0.0564079
0.00109346
-0.000829418
-0.0548984
-0.00471623
-0.00015802
-0.061069
9.0807e-05
-0.00613111
7.41549e-05
-0.0679027
0.000220244
0.00164208
-0.0555059
0.0120355
-0.00916373
0.000875612
-0.014185
-0.0532144
0.001968
-0.0702269
0.000548299
0.000325868
-0.0133679
-0.0653987
-0.0228162
-0.0636563
0.000988252
0.000968324
-0.0153774
-0.013998
-0.0510173
0.00162399
-0.00529452
0.000994753
0.00217919
0.00133899
-0.00761939
-0.024449
-0.00951414
-0.0055351
-0.0340763
-0.0496457
-0.0334442
-0.0510443
0.00123039
-0.0475805
0.000132425
0.00238346
0.000697467
0.00145211
0.00351222
-0.00388119
-0.0761056
-0.0507457
-0.010776
-0.0273125
-0.00187877
-0.0531572
-0.0564452
0.00105563
-0.0536948
0.00018164
0.000598558
-0.000399375
-0.0469215
0.00225095
-0.078443
0.000805312
0.0242207
-0.00988654
-0.00253701
-0.0596806
-0.0553892
0.000812402
-0.0055201
-0.00588571
-0.00817454
-0.00552701
-0.00634503
0.000267315
-0.0027167
-0.0141084
-0.00550231
-0.0616656
-0.00937636
-0.0513727
-0.0571661
0.00154628
-0.0140651
0.000905408
0.000672182
-0.0657116
-0.0224543
-0.000492294
-0.0592666
-0.00586708
0.00107756
-0.0709658
-0.00619524
0.0237779
0.000727892
-0.0185863
-0.0816543
0.00106593
0.00126329
0.0013674
-0.0249209
-9.16374e-05
0.0254537
-6.47155e-05
-0.000633602
-0.0574803
-0.0392788
-0.107195
-0.0537026
0.00086127
0.000368208
-0.0737699
-0.0647662
-0.000310471
-0.00960708
-0.0123417
-0.0223712
-0.00657526
-0.0594603
0.000664177
-0.00532577
0.0148553
-0.036455
-0.0484502
0.00371773
0.00161119
-0.000110535
0.00104781
0.00277256
0.000527628
0.020016
0.00457711
-0.0226076
-0.0489408
0.00107051
-0.0646929
-0.00545328
-0.00113013
0.00110806
-0.0598935
-0.00749351
-0.00334193
-0.0299981
-0.00670743
-0.0591795
0.00996615
-0.00599022
-0.0522173
-0.00939245
0.00920849
0.000994749
0.00109402
-0.0669066
-0.00988592
0.00167077
-0.0216228
-0.0663701
0.00888434
-0.0100935
-0.0142068
-0.00564161
0.0289267
-0.00239261
0.0121695
0.000538661
0.00120317
-0.0107714
-0.0737344
-0.00558988
-0.00820767
0.0049327
-0.0560289
-0.0472218
0.00177615
0.010721
-0.00656012
-0.0285663
0.00456465
-0.0429033
-0.00129897
0.00107578
-0.0752432
-0.0641487
0.00831315
-0.0535688
-0.00543555
0.00058086
-0.091205
-0.0438221
-0.000716764
0.00360637
-0.0375443
-0.00013396
-0.0541769
-0.00776265
-0.0516034
-0.0268972
0.0014023
0.00104562
0.000925745
0.00177506
-0.0589418
-0.0209943
0.00181547
0.00419255
0.000781926
0.000520162
-0.0111019
1.73157e-05
-0.0572642
-0.10133
-0.0610043
0.000114091
0.000687185
-0.078563
-0.0335936
-0.0160798
6.43851e-05
0.001042
-0.0511756
-0.0593133
-0.012865
-0.0404209
-0.0209595
-0.000999745
0.0094836
-0.0533545
-0.00873943
-0.0158895
0.00204993
-0.00882451
0.000726279
0.00667935
-0.0856177
0.000942093
0.00187007
0.0085188
-0.0571628
-0.0817897
-0.0109828
-0.000120389
0.000980255
0.000975165
-0.0484088
0.00138476
0.000557866
-0.0136866
0.000502198
-0.0437987
0.00169594
-0.0560077
0.00847393
-0.0369999
0.000202626
0.00154397
-0.0331244
-0.0500163
-0.00102185
0.000491768
0.00452484
-0.0168496
-0.00263882
0.0142703
-0.0887996
-0.0880691
-0.00125855
-0.000988608
0.000973715
-0.0723617
-0.0692296
0.000212323
-0.0139701
-0.0785205
0.00269349
-0.0030734
-0.0324802
-0.00301481
-0.000739673
0.00099659
0.0120985
-0.0338444
0.000826284
0.00129062
0.0010476
-0.0489652
-0.00996012
-0.0716889
-0.0318842
-0.0564523
-0.0461341
-0.0701587
-0.100459
-0.0590047
-0.104717
3.25606e-05
-0.073965
0.0110795
0.00151202
-0.0414232
0.00360489
-0.0631928
-0.0205604
-0.00637051
0.00134628
0.000511228
0.00290491
0.0010775
0.000385001
-0.0032244
0.00267106
-0.00406141
0.00161117
0.00789311
0.000798585
0.00151287
-0.0294932
-0.0511407
-0.000364539
-0.0646131
-0.00653153
-0.0873923
-0.0539034
0.00107391
-0.0714379
-0.0558065
-0.0636397
-0.0507725
0.00255786
-0.0712543
4.28601e-05
0.00678068
-0.0566466
-0.00968983
0.00124088
-0.011027
-0.0064387
-0.0248426
-0.0440582
-0.0015776
0.00141903
-0.0229414
-0.0413318
-0.0249678
-0.0565895
0.000426616
-0.00690709
-0.00607266
0.000541542
-0.0105404
-0.00541705
0.00901335
0.00147003
0.000886661
0.00139116
0.000704606
-0.000600224
0.000741016
0.00575839
-0.0139962
-0.0545153
-0.0385355
0.000886429
-0.00398146
-0.0484722
-0.00554375
-0.0684678
0.000564845
-0.071462
0.0244833
-0.0785058
-0.0530548
0.000927792
-0.0629269
-0.0458182
-0.0157052
-0.0447065
-0.0165395
-0.00696622
0.00197549
-0.00134157
-0.00711871
-0.0584674
-0.0174549
-0.0552543
0.0097005
0.000425293
-0.00128263
0.000950955
-0.0351721
-0.00957991
-0.0572164
0.000369531
0.000944036
-0.00325754
0.00269975
-0.000675768
-0.0920245
-0.00301942
-0.0101201
0.000688943
0.000782001
-0.0102236
0.00111494
-0.0443049
-0.00963257
-0.0800633
-0.0476474
0.00220669
7.53417e-05
-0.0230197
-0.0519449
-0.0554528
-0.00078999
-0.0535873
-1.55672e-05
-0.0104797
0.00145999
0.00513206
-0.0485456
0.000763213
-0.0128559
-0.00476719
-0.0550319
-0.078371
-0.0799448
0.000448211
-0.0364381
-0.0540102
0.000279027
0.000919545
0.00217004
-0.055996
0.0135348
-0.0515942
0.00109648
-0.000728966
-0.00273
-0.0173577
-0.0687365
-0.00435333
-0.055538
-0.0030121
-0.0778145
-0.0562275
0.00103256
-0.00679684
-0.000368473
-0.00519269
-0.0716454
0.0010902
-0.0504492
-0.0493533
-0.0468451
-0.0013125
-0.0498955
0.000639815
-0.0573545
-0.071393
-0.0160902
-0.0314056
-0.00528858
0.00133283
0.00118157
0.00476527
-0.00925336
-0.0497108
0.00193724
-0.0169635
0.000686086
-0.0369482
0.00857607
0.0010956
0.000206656
0.00118267
-0.00588378
0.00101625
0.012059
-0.0379034
-0.0773821
-0.0480121
0.00055002
0.00135115
-0.00492853
0.00521765
0.000233302
-0.0625448
-0.07192
-0.0706415
0.00619689
-0.016564
-0.0237015
-0.0399019
-0.0528709
-3.35539e-05
0.00145305
-0.0536568
0.000919969
-0.0118594
3.13696e-05
-0.05098
-0.0551095
0.00188502
-0.0467921
-0.0508254
0.00138218
0.000935272
0.000656327
-0.0373325
-0.00110146
0.00160356
-0.00972435
-0.059003
0.00220957
-0.0113159
-0.0384229
0.000227635
0.000762405
-0.00351879
0.00856717
-0.0135773
0.000373684
-0.028307
-0.0506292
-0.00081723
-0.000466524
-0.0268528
-0.0057843
0.00157608
-0.0609727
-0.0462513
-0.000653515
-0.000743117
-0.0332601
-0.000165212
-0.0169998
-0.000195742
0.000642076
-0.000108586
-0.024935
-0.0413711
0.00243658
-0.000120146
-0.0109467
0.00185187
-0.0717499
-0.038153
0.00157002
0.00893434
-0.0530508
0.008739
-0.0534713
-0.000743338
0.000907858
-0.00968017
0.00896376
-0.0947712
0.000500955
-0.00560771
-0.0609185
0.000645845
-0.0216858
-0.0530654
0.0011375
-0.0350351
0.0010313
-0.00227544
-0.119127
0.00103596
-0.000137526
0.000345384
0.000869411
-0.041596
0.000853084
-0.0803309
0.000265731
0.0201696
-0.0479733
0.00155704
0.000777047
0.00115415
0.000590691
-0.00945583
-0.0754351
0.00101602
-0.0666844
0.00195538
-0.0667448
-0.0516263
-0.0310317
0.000964513
-0.0430432
0.000710989
0.00069993
-0.00812995
7.00556e-05
5.46178e-05
-0.0746058
-0.0572287
-0.0913435
-0.016503
-0.0307543
-0.00789486
0.000763504
-0.0430474
-0.00540241
-0.0117408
0.000907679
-0.00667792
-0.0683122
-0.0116859
0.00041463
-0.0008945
-0.0341904
-0.0783821
-0.00241949
-0.00507992
-0.0145029
0.000712087
-0.0755499
0.000926468
-0.00553893
-0.0355767
-0.00915871
0.000379511
-0.00148345
-0.0747869
-0.00945091
-0.0171472
-0.00903604
0.000936328
-0.0323991
-0.0104538
-0.0697108
-0.000743299
-0.0477848
-0.0108736
-0.00112
-0.0072148
0.000698062
0.0301266
-0.00197757
0.000860473
-0.0240442
0.0111253
-0.00116121
-0.0502951
-0.00723466
-0.00292273
-0.0497513
-0.031802
0.0327461
0.000725868
-0.00798549
-0.0104033
-0.0588589
-0.0287612
-0.039856
-0.0508617
0.0011504
-0.0720226
-0.00609437
-0.0809275
-0.0553011
0.000767792
-0.0879667
0.000637179
-0.00321316
-0.0539956
0.000999753
-0.0633586
-0.0740702
0.000749993
-0.0271184
0.0043204
-0.0535724
0.000355885
-0.0489831
-0.0522841
0.00206527
-0.0806671
-0.013601
1.44706e-05
-0.00350046
0.000106137
-0.0854768
-0.029064
-0.0026325
0.00110822
-0.0709095
-0.0520123
0.000298619
0.000938431
-0.0497162
0.00934388
-0.0577653
-0.0569336
-0.052694
-0.0554886
-0.0675526
0.00131745
-0.0071301
-0.054813
0.000364304
0.00102896
0.000564032
-0.0262858
-0.0251768
0.00643232
-0.0189309
-0.0519993
-0.00994911
-0.000314683
0.00082566
-0.0182231
-0.000684246
-0.00660929
-0.0097568
-0.0620014
-0.054138
0.00106339
0.00901292
-0.0547953
0.0113597
0.000150024
-0.0434444
-0.0489105
0.000592293
-0.0116074
-0.0644696
0.000774544
-0.0033022
-0.0420601
-0.0139636
0.000553027
-0.00623914
-0.000497071
-0.00410579
0.00111392
-0.0314171
-0.0217673
-0.00753605
-0.00807235
-0.00542891
-0.00640764
-0.0601862
0.000652997
-0.0553853
-0.00977808
-0.00522589
0.000689624
-0.0911309
-0.0246207
-0.049853
-0.000118244
-0.00172285
-0.00155956
-0.0321672
-0.0190869
0.00115997
-0.0562772
-0.0137391
0.000563634
0.00271229
0.0191755
-0.00676987
-0.0863363
0.0015954
-0.0499766
-0.00353552
0.0013784
-0.0501831
-0.0504045
-0.0506231
0.000113157
0.0173342
-0.0536283
0.00112139
0.00110381
-0.0598204
0.00166823
0.0037049
0.000498735
-0.0517125
0.00110815
-0.00462546
0.000169805
-0.050535
-0.00552837
0.000755492
-0.0257313
-0.0861455
0.014987
-0.0387618
-0.0761632
-0.0297139
0.000581083
0.00129807
-0.0541869
0.00113456
-0.027214
-0.0526172
0.000530137
-0.061201
-0.00538545
0.00102659
0.000789046
-0.00160558
-0.00772603
0.001679
0.000490011
-0.0116144
-0.00720415
0.000576479
-0.061365
-0.047773
-0.0279352
0.00128842
-0.0281596
-8.29153e-05
-0.0160783
-0.0567601
0.000895239
-0.0496626
0.00251808
-0.017022
-0.067921
-0.0369015
-0.0550454
-0.00119657
0.00012645
0.000505355
0.000797479
0.00418753
-0.0502191
-0.0462915
-0.0158803
0.000495735
-0.0537773
-0.0618502
0.000737067
-0.00148777
-9.85783e-05
-0.0264153
-0.000579001
-0.0549082
0.000542972
-0.0523237
0.00101773
-0.00519784
-0.0544317
-0.105002
0.00995951
0.000720475
-0.0296167
-0.0950556
0.00105324
-0.00203989
-0.0518039
0.00238515
0.00252947
-0.000431929
0.0097189
-0.00530295
-0.000397123
-0.0564127
0.00299808
0.00100431
0.000413181
0.00109938
0.000743147
-0.0241502
-0.0793095
-0.0623441
0.00976012
0.000532209
-0.0100469
-0.0570638
-0.0546107
-0.0754465
0.00828533
-0.0111666
0.00104321
0.00023632
-0.00161565
-0.022371
-0.0135282
0.0010291
-0.00509159
-0.0868675
-0.0683822
-0.00556128
-0.00354655
-0.0162956
0.000899934
-0.00113428
-0.0138213
-0.0305427
-0.0293471
-0.0633871
-0.00516235
0.000748243
-0.0169504
-0.00622721
-0.0849196
-0.0410703
-0.00213985
0.00168321
-0.027128
0.00112615
0.000884174
-0.0640323
0.0011988
-0.0546318
0.000585927
-0.00416136
-0.00541492
-0.0898487
1.17171e-05
-0.0928676
-0.000337932
-0.0685915
0.000956838
-0.000115124
-0.00612523
0.00138511
-0.0141564
-0.000658658
-0.00751614
0.000519962
-0.0514744
-0.0650429
-0.00238288
-0.038341
-0.0334999
0.00300658
0.0083409
0.00236681
-0.0748412
-0.0027566
0.00138867
-0.1043
0.00206047
0.000486314
-0.055815
-0.0301324
0.0005433
-0.00372258
0.000559732
-0.00916507
-0.00772701
-0.0514515
0.00100347
0.000123968
0.0125341
0.000855741
0.00147894
0.00067316
0.00124124
-0.0123903
-0.00101221
-0.0029902
-0.0651163
0.00101328
-0.00510171
-0.0136464
0.00183228
0.00061254
-0.00111622
0.00060259
0.00999981
0.000885195
-0.00155743
-0.000178974
-0.0510489
0.00143203
0.00879252
0.00925711
0.00794274
-0.00688169
-0.0609736
0.0107144
0.00128687
-0.0116637
0.00215634
0.000657808
0.00102643
0.00125983
-0.00762275
-0.0156928
0.00211152
-0.00968832
-0.0289115
-0.0150508
-0.0599753
0.00396784
-0.00585478
-0.0141672
0.00111614
0.000115016
0.00165769
-0.00631022
-0.0578601
0.00888178
-0.00238509
-0.0320727
-0.00639551
-0.0330418
0.00717272
-0.0513285
0.000210504
-0.000997046
-0.00944169
-0.00169101
-0.00277352
0.00533532
-0.00154405
0.00114596
0.0410051
-0.0522965
0.00265506
8.07672e-05
-0.00427267
0.000922245
-0.0775584
-0.0517409
0.000500673
-0.0113723
-0.00183422
-0.0108539
-0.0599491
-0.0533343
0.00088578
0.00109259
0.00226267
-0.0151495
0.000521321
-0.0181214
-0.00209651
-0.0260601
0.000448575
-0.000747085
0.000643376
-0.0105225
0.000652856
-0.0581489
0.00109772
0.00352112
-0.00175493
-0.00168067
0.000541073
-0.000958586
-0.0879286
-0.0264949
0.00469408
-0.00143298
-0.0755702
-0.0279078
-0.023552
-3.51488e-05
-0.0712319
-0.036044
-0.0535738
-0.00596663
0.00623451
-0.0741928
-0.00296785
0.00092522
-0.00345648
0.000850538
0.00140845
-0.00847392
-0.064824
-0.0368384
-0.0595461
-0.0571101
-0.0047057
-0.0319874
-0.0713776
0.00115502
-0.0152111
0.000851156
-0.054065
-0.00349039
0.000936133
-0.00968435
0.000665269
-0.00356944
-0.00520665
-0.0864037
-0.00471571
-0.0288879
-0.0535543
-0.052505
-0.0114182
0.00313355
-0.0615629
-0.0118149
-0.110555
0.00100039
0.0016131
-0.0022691
-0.0211818
0.00056169
-0.0469915
-0.0505647
-0.00238246
-0.0422227
-0.0277069
0.000834621
-0.0576483
-0.0462449
-0.0565143
-0.0185796
-0.00688207
0.00134558
-0.000140402
-0.0207881
0.00121158
0.00221269
-0.016727
-0.00788086
0.00310215
-0.00189119
0.0005302
-0.00417337
-0.00342367
-0.0730729
-0.00853985
-0.000719774
-0.0543203
-0.0317803
-0.0090022
0.0193943
-0.00496662
0.0011687
0.00133269
-0.0526296
0.000583799
0.000932937
-0.00382529
0.0240098
0.000930215
-0.0002767
-0.0139446
0.00217921
0.00129727
-0.000281007
-0.0118056
-0.00924763
-0.0546619
-0.00871526
0.00093751
0.000693527
0.00844585
-0.00209024
-0.0436389
-0.0560648
-0.0574254
-0.0402475
-0.0206299
-0.0153311
-0.118866
-0.00898375
-0.00360595
-0.0107937
-0.00995333
0.0170606
0.0392936
-0.0659364
-0.000706108
0.00162124
-0.0126758
-0.0318463
-0.00342095
-0.0526632
-0.0533226
-0.00673547
0.00130289
0.00157179
-0.0012043
3.00156e-05
0.000934226
0.00181881
-0.0553558
-0.0481118
-0.0638513
-0.00539429
0.000100191
-0.0313815
-0.0152705
-0.0486555
-0.0536668
-0.0572153
-0.0550112
-0.0177782
-0.0155317
0.019518
-0.0562437
0.000491941
-0.0918606
-0.0105056
-0.0710716
0.0012649
-0.0422458
-0.0614684
-0.0617877
0.0010297
0.00262399
0.00160365
-0.0398913
0.000907051
-0.00653613
-0.0142158
-0.0840937
-0.0112167
0.0129274
-7.7724e-05
-0.0497287
-0.014965
-0.0481477
0.00149778
0.0029592
-0.0885752
-0.0863364
-0.105834
-0.00273629
-0.0796204
-0.000906246
0.000582319
-0.0633361
0.0023662
0.000599985
-0.025611
-0.0212354
-0.0128906
0.00101835
-0.00172135
-0.0092707
-0.0258458
0.00242891
-0.00097802
0.00278091
-0.00258015
-0.100166
-0.06602
0.00386905
-0.0148425
0.00601595
-0.00241189
-0.0724911
-0.0582859
0.000250201
0.00172772
-0.00289472
-0.0225713
0.00486838
0.0010126
-0.00142609
-0.083446
0.00123014
-0.0724763
0.0011085
-0.0102533
-0.0757868
0.00284281
-0.0903658
-0.00813912
0.000572249