/*--------------------------------*- C++ -*----------------------------------*\
| =========                 |                                                 |
| \\      /  F ield         | OpenFOAM: The Open Source CFD Toolbox           |
|  \\    /   O peration     | Version:  v2012                                 |
|   \\  /    A nd           | Website:  www.openfoam.com                      |
|    \\/     M anipulation  |                                                 |
\*---------------------------------------------------------------------------*/
FoamFile
{
    version     2.0;
    format      ascii;
    class       surfaceScalarField;
    location    "300";
    object      phi_0;
}
// * * * * * * * * * * * * * * * * * * * * * * * * * * * * * * * * * * * * * //

dimensions      [0 3 -1 0 0 0 0];
oriented        oriented;


internalField   nonuniform List<scalar> 
55332
(
-0.244331
0.257113
-0.0127813
0.347394
-0.0483813
-0.299013
-0.250832
-0.0334598
0.284292
0.0995319
-0.309974
0.210442
-0.254979
-0.0093189
0.264298
-0.318396
0.143869
0.174527
0.0350254
-0.169753
0.134728
0.0122455
0.132392
-0.144637
0.389062
-0.323237
-0.0658249
-0.0134526
0.01378
-0.00857757
0.0022055
0.00637207
0.0274786
0.0460867
-0.0735653
-0.0303102
-0.039167
0.0694772
-0.125523
-0.0954534
0.220976
0.00829056
-0.00633432
-0.00195624
0.376293
-0.323865
-0.0524278
0.0499251
-0.300757
-0.157949
0.189924
-0.0319753
0.234468
-0.388897
0.154429
0.172428
0.0817573
-0.254185
-0.141375
-0.033969
0.175344
-0.234093
0.164442
0.069651
-0.00680595
-0.259661
0.266467
0.0215944
-0.0136869
-0.00790751
-0.0111613
-0.243818
0.284912
-0.367128
0.0822163
-0.0224966
0.00563526
0.0168613
-0.0917818
0.183006
0.00732735
-0.00917222
0.00184487
0.210019
0.0639354
-0.273954
0.243232
-0.271687
0.0284553
-0.0780868
-0.15505
0.233137
-0.231922
0.273197
-0.0412748
0.163039
-0.144011
-0.019028
-0.0379529
-0.232063
0.270016
-0.306281
0.285179
0.0211016
-0.0157113
-0.00678526
0.118806
-0.178726
0.0599201
0.367582
-0.133114
-0.156556
0.260043
-0.103487
-0.0481857
0.20355
-0.155364
-0.218843
-0.142151
0.360994
0.28587
0.0904231
0.171044
-0.249131
-0.01491
0.00349215
0.0114178
0.19291
-0.266091
0.0731811
-0.0102611
-0.00464892
-0.0431528
0.0706314
0.0599391
-0.330091
0.270152
-0.160554
-0.072446
0.233
0.11294
-0.317393
0.204453
0.00198461
0.343734
-0.345718
0.289174
-0.192225
-0.0969495
0.131751
0.00244285
-0.134194
0.309041
-0.137775
-0.171266
-0.164189
0.181571
-0.0173818
0.263741
-0.261756
0.227202
-0.321155
0.0939524
0.390019
-0.144947
-0.245072
-0.0153304
0.258562
-0.138693
0.150939
0.00798695
0.000579179
-0.00856613
0.030441
-0.171816
-0.0774853
0.362397
-0.000929041
0.000445969
0.000483072
0.0146508
-0.0611548
0.0465041
0.27102
0.0336398
-0.30466
-0.0263918
0.00374429
0.0226475
-0.00349315
-0.00370707
0.00720022
-0.0151954
0.018713
-0.00351763
0.26334
0.104241
0.0982931
-0.224059
0.125766
-0.325341
0.113388
0.211952
0.226216
-0.233022
0.338558
-0.0339792
-0.304579
-0.356673
0.125269
0.231404
0.00535703
0.0170743
-0.0224314
-0.00559259
0.0285741
-0.0229815
-0.22245
0.288065
-0.065615
0.0441555
-0.0222067
-0.0219488
0.00866275
0.00372628
-0.012389
0.250743
0.0684931
-0.319236
-0.00463196
-0.0170769
0.0217089
-0.419559
0.259152
0.160408
-0.0128528
-0.000306758
0.0131595
-0.129565
0.199106
-0.0695409
-0.0120058
0.043487
-0.0314812
0.298253
-0.105344
0.147804
-0.112779
0.0130606
-0.228661
0.215601
-0.404173
0.186227
0.217946
-0.00904665
-0.00197656
0.0110232
-0.269875
0.311463
0.0208507
-0.332314
0.167916
-0.150252
-0.0176639
0.185807
0.0219084
-0.207716
-0.11187
0.284298
-0.0619169
0.0765677
0.0363418
-0.0965837
0.0410362
0.297522
0.057607
-0.0422584
-0.0153487
-0.0109062
-0.153283
-0.10014
0.266872
-0.166732
0.422363
-0.280155
-0.142207
0.00860769
-0.00128033
-0.344364
0.0337351
0.310629
0.329652
-0.101476
-0.228175
-0.00250394
0.00661041
-0.00410647
0.027924
-0.013529
-0.121262
0.284596
-0.163334
0.212931
-0.236928
0.0239971
-0.404296
0.195298
0.208998
-0.125562
0.376305
-0.220188
-0.184108
0.174062
-0.0757692
0.292863
-0.193331
0.0129869
-0.00432413
-0.0495334
0.0375275
-0.192204
-0.0334081
0.225612
-0.257005
0.133101
0.123904
0.259713
-0.163614
-0.0960996
-0.0373622
0.0317697
-0.145781
-0.117822
0.263603
-0.184097
0.297037
0.00752671
-0.0030713
-0.00445541
-0.228926
0.11084
0.118085
-0.00106882
0.0108954
-0.00982653
0.107947
-0.253728
-0.00980945
0.000762795
0.0306406
0.0269664
0.017125
-0.00520354
-0.0119215
0.242317
-0.383925
0.141608
0.352474
-0.0410103
0.30643
-0.285966
-0.0204642
-0.423663
0.275403
0.14826
-0.0308931
-0.162391
0.193284
-0.0311543
-0.232055
0.26321
-0.397789
0.144979
0.25281
-0.137091
0.0922422
0.0448492
0.236722
-0.246041
0.0583154
-0.0390456
-0.0192697
0.101825
0.157888
0.254749
-0.388041
0.133291
0.220272
-0.0344641
0.235337
-0.104682
-0.130654
0.0129759
0.30251
-0.315486
-0.16469
-0.0923147
-0.212408
0.0903549
0.122053
0.272549
-0.259573
-0.0198666
0.00467122
0.240959
0.0886929
0.353719
-0.017678
-0.336041
0.396119
-0.289999
-0.106119
0.137537
-0.117622
-0.0199147
-0.00150758
0.00949453
-0.178445
0.340703
-0.162259
-0.00667352
0.00318037
-0.0115222
-0.282651
0.294173
-0.196044
0.250078
-0.0540335
0.00151909
0.000399323
-0.00191841
0.211968
-0.317906
0.105937
-0.185801
0.033389
0.152412
0.301053
-0.0791048
-0.221949
0.0507462
-0.00499077
-0.00246045
0.00745122
0.22925
-0.0961493
0.00832087
-0.00948275
0.00116188
-0.00978768
0.0128737
-0.00308599
-0.0345316
-0.157672
-0.0457478
0.0119356
0.0338122
0.00218746
0.00533925
0.255854
0.133207
0.36093
-0.106181
0.0957129
-0.369378
0.273665
-0.0115198
0.011779
0.000963332
-0.000493055
-0.000470277
-0.0334461
0.0954919
-0.0620458
0.114819
-0.16332
0.0485006
-0.165874
0.269829
-0.103955
-0.0108139
0.0118349
0.121015
0.016522
-0.144829
-0.0136746
0.158503
0.220843
-0.207782
-0.00878317
-0.02938
0.0381631
-0.133813
-0.0951122
0.000868613
-0.00124638
0.000377767
0.13214
-0.279371
0.14723
-0.00112694
-0.0123257
0.00956992
-0.0545039
0.044934
0.122794
0.00271057
-0.125504
0.0185639
0.253985
-0.00753716
0.0543255
-0.0467883
-0.147279
0.00245001
-0.163248
0.260538
-0.0972894
0.27179
-0.253226
0.0180566
-0.0226885
-0.0134706
-0.00822406
0.0216947
0.0474231
-0.0498381
0.00241495
0.0526675
-0.0013815
-0.051286
-0.421523
0.300875
0.120647
-0.361093
0.0167291
0.0189768
-0.0945089
0.0755321
0.349846
-0.266148
-0.0836981
0.327299
-0.205168
-0.122131
0.177629
-0.0846014
-0.0930277
0.267656
-0.330092
0.0624355
0.373366
-0.0285408
-0.344825
0.320519
-0.353365
0.0328459
-0.00820023
-0.00256382
0.0107641
0.153128
-0.0303338
0.2809
0.068946
0.365998
-0.335863
-0.0301357
0.166273
-0.0104117
-0.155862
-0.180491
-0.0917488
0.272239
-0.0307698
0.0459006
-0.0151308
0.0694623
0.1277
-0.197162
-0.0269382
0.369119
-0.342181
-0.134008
-0.00155769
-0.0069012
0.00845889
0.346428
0.0863597
0.292243
-0.303751
0.0115078
-0.0515849
-0.00857757
-0.00869783
0.142678
-0.0817223
-0.0609556
0.0576463
-0.0740324
0.016386
0.00363606
-0.0254063
0.0217703
-0.280203
0.195278
0.084925
0.0159778
-0.0122204
-0.00375736
0.00839698
-0.00697039
0.239348
-0.270502
0.238495
0.157623
-0.199909
-0.223754
0.337457
-0.254009
0.0219461
0.00183633
0.0508312
-0.365525
0.319416
0.0461094
0.386501
-0.176327
-0.210174
-0.137681
0.0631212
0.0745599
0.00686871
0.264922
0.00984323
-0.00152236
0.169064
-0.0373127
0.424658
-0.259831
-0.164827
-0.00218144
-0.0106713
0.000965491
-9.68784e-05
0.0293309
0.339789
-0.181327
0.0517618
-0.00142505
-0.000132642
0.20655
-0.437748
0.231197
0.161593
-0.218334
0.0567408
0.0860906
-0.337814
0.251724
-0.1352
0.100045
0.0351558
0.115913
0.113337
0.305122
-0.298254
-0.0919123
-0.120496
0.249806
-0.349323
0.0995173
0.340075
-0.183606
-0.15647
0.139242
0.0286733
0.425896
-0.167022
-0.258874
0.151706
0.0145669
0.00415257
0.00413799
-0.322367
0.101747
0.22062
0.348306
-0.0161279
-0.332178
0.193555
0.0267163
-0.24909
0.120238
0.128852
0.324023
-0.313865
-0.0101579
0.363153
-0.12827
-0.234883
0.248864
0.101716
-0.35058
0.240862
-0.198512
-0.0423507
0.354334
-0.121063
-0.233271
0.186822
-0.0987069
0.00976752
0.000466203
-0.0102337
0.0616262
0.101413
0.0113604
-0.00159289
-0.0338334
-0.116418
0.349669
-0.10871
-0.000159362
0.095028
0.227839
-0.322867
0.343329
-0.0944658
0.110279
0.00507069
-0.11535
-0.0579319
-0.186399
-0.322042
-0.043483
0.0319221
-0.0189104
-0.0130117
-0.0155381
0.307781
-0.415249
0.29577
0.119479
-0.0516201
0.166439
-0.0197686
0.25649
0.288056
-0.231706
-0.0563503
-0.220366
0.034565
0.0457809
-0.226272
0.014077
-0.146903
0.132826
0.0199807
-0.0163446
0.112948
-0.327889
0.214941
-0.0115994
0.00181169
0.239049
0.093665
-0.332714
-0.194511
0.389997
-0.195487
0.000877965
0.0250231
0.328696
-0.124616
-0.146571
0.2131
-0.0665283
-0.0154781
0.209033
0.0202489
-0.000268238
-0.296503
0.24913
0.0473733
0.251972
-0.381761
0.12979
0.0345365
-0.0158901
-0.0186464
0.117328
-0.296928
0.1796
0.0131203
-0.00939628
-0.00372402
-0.0684151
0.0650939
0.00332123
-0.000895081
-3.39603e-05
0.0109919
-0.0244625
-0.0115325
0.0104637
0.210516
-0.142321
-0.0681947
-0.35673
0.112504
0.244225
-0.232092
-0.124638
0.166713
0.106112
-0.272825
0.12803
-0.375814
0.247784
1.99105e-05
0.00764801
-0.00766792
0.0702985
0.00778163
0.013164
-0.0209456
0.00690044
0.0155893
-0.0224897
-0.18267
0.311128
-0.128458
-0.0861602
-0.111402
0.197562
0.0809302
0.0617477
0.374424
-0.106768
-0.195085
-0.020214
-0.00617784
-0.0096622
0.000179445
0.250461
0.0928685
0.180566
-0.214667
0.0341007
-0.00484364
0.00110765
0.00373599
-0.00077977
0.0128756
-0.0120958
0.0133857
0.200626
0.0885479
0.336344
-0.0858833
0.292009
0.0320147
0.251699
-0.387961
0.136262
0.219632
0.107945
-0.327577
0.0393984
0.281121
0.370715
-0.0848456
0.11374
-0.292185
-0.00971408
0.0143415
-0.0046274
0.296477
-0.0958509
0.0164453
-2.11747e-05
-0.0164241
0.357464
-0.105493
0.0101306
0.00276109
-0.0128917
-0.0207504
-0.260178
0.280928
0.279398
0.0913174
0.0242879
-0.0036535
-0.0206344
-0.156374
-0.241416
-0.354812
0.128781
0.226031
0.0939468
-0.227776
0.133829
0.0177879
0.330518
-0.00984727
0.0790712
-0.0692239
-0.140205
0.160853
-0.0206475
0.376051
-0.190526
-0.185525
0.243221
-0.263972
0.0208627
-0.0136756
-0.0071871
0.0125716
0.00902279
0.00515137
0.00905153
0.00692626
-0.0791569
-0.0892095
0.168366
0.00285924
-0.00802904
-0.0026294
0.0106584
0.0297648
0.00433379
-0.0340986
-0.27105
0.105176
0.0336029
-0.0369988
0.00339587
0.314863
-0.201915
0.000542842
-9.68727e-05
0.0906309
0.205846
0.0968003
-0.312174
0.215374
-0.0632394
0.0557022
0.00111596
-0.00377533
0.00265937
-0.250635
-0.168924
-0.259213
0.382937
-0.123724
0.0365434
0.021772
0.00172119
-0.000202098
-0.0553416
0.0276438
0.0276978
-0.421237
0.197026
0.224211
0.163559
-0.343962
0.180403
0.00794938
-0.00794938
-0.135349
-0.184792
0.320141
-0.178006
0.148903
0.0291031
-0.362339
0.141933
0.220405
0.00635219
-0.00160429
-0.0047479
0.375997
-0.309314
-0.0666829
0.37749
-0.216403
-0.161087
0.398035
-0.364287
-0.0337479
0.0771409
-0.124433
0.0472925
0.0803804
-0.0115463
-0.0688341
-0.0500268
0.00678984
0.0432369
0.350741
-0.281444
-0.0692971
0.340538
-0.280599
0.0108023
0.00341367
-0.014216
-0.2375
-0.124839
-0.002377
0.000276758
0.00210024
-0.00332398
0.0154723
-0.0121483
-0.00720417
0.00172017
0.00548401
-0.273898
0.395012
-0.121114
0.00258334
0.00953153
-0.0121149
0.0319311
-0.00216635
-0.217943
-0.143934
-0.00845515
-0.00120705
0.0323047
0.0135959
0.0558267
0.342208
0.0458498
0.00244867
-0.0482985
0.0136056
-0.0517619
0.0381562
0.00213299
-0.010162
-0.35295
0.232784
0.120165
0.106581
0.22986
-0.135914
0.187109
-0.273191
0.0860823
-0.0084265
0.00939105
-0.000964544
0.151552
-0.120277
-0.0312746
-0.020655
-0.0250928
-0.228463
0.173356
0.0551074
0.298653
0.0520872
0.000963332
0.292973
-0.126261
0.383044
-0.12635
-0.256694
-0.233243
0.330044
-0.192288
0.161395
0.0938966
-0.180057
-0.354153
0.199847
0.154306
-0.234637
0.31843
-0.0837929
0.151935
0.225555
-0.438048
0.188708
0.249341
0.00362185
-0.00597005
0.0023482
0.00102453
0.0658507
-0.300488
-0.0887467
-0.24462
0.333366
-0.219707
0.369128
-0.149421
0.194624
0.195395
0.0143834
-0.00358107
0.302141
-0.167916
-0.134224
-0.119688
0.161507
-0.0418197
-0.107944
0.295053
0.0493761
-0.00473589
0.00827988
-0.00354398
-0.214972
-0.191324
-0.128865
0.320189
-0.0219589
-0.0203977
0.0423566
-0.225902
0.285712
-0.0598094
-0.00714361
0.00374333
-0.00823395
0.00449062
-0.0042352
-0.000608443
0.0822586
-0.0632817
-0.14933
-0.17601
-0.121745
0.21052
-0.0887745
0.000965101
0.169057
0.129196
0.129701
-0.0843516
-0.0453492
-0.223694
0.113945
0.109749
-0.00308607
0.0132167
-0.0341928
-0.00806556
0.381841
-0.132035
0.241666
-0.253188
-0.0157313
-0.304829
0.32056
0.000110682
0.000841969
-0.00095265
0.41304
-0.291457
-0.121583
-0.0679515
0.112078
-0.0441265
0.0097504
0.0221717
0.152025
-0.267003
0.114978
-0.106683
0.0387319
-0.275909
-0.234273
0.00561148
-0.0617472
-0.0376051
0.0993523
-0.0560889
0.254229
-0.19814
0.239432
-0.170128
-0.0693042
0.115883
-0.307207
0.113471
0.15254
-0.202603
0.258065
-0.0554619
-0.028661
0.255863
0.0348778
-0.065188
0.201519
-0.0209522
0.156619
0.145521
-0.0299804
0.14026
-0.237503
-0.0939242
0.331427
0.0171265
-0.00494267
-0.0121838
-0.262061
0.161921
-0.355859
0.0510303
0.02153
-0.161735
0.0734109
-0.242658
0.169247
0.142341
-0.0585395
-0.0838019
-0.0224404
0.0408083
-0.018368
0.188807
-0.119345
0.0023136
-0.00427886
0.00196526
-0.293704
0.237615
-0.018531
0.0761773
-0.00371089
-0.0352963
0.0390072
0.193005
0.047857
0.352828
-0.313014
-0.0398138
0.0591669
0.0705339
0.384296
-0.169165
-0.215131
0.252096
-0.378292
0.126196
-0.186324
-0.234913
-0.29439
0.133079
0.161311
-0.0611023
-0.0759891
0.365406
-0.0860078
-0.0644277
-0.241853
0.00663101
-0.0066111
0.0530381
-0.00178046
-0.0512576
-0.0501672
-0.201455
0.251622
0.12515
0.183891
-0.283662
0.233494
0.35168
-0.357399
0.00571942
-0.161236
0.25038
-0.0891436
0.139614
0.141286
0.0476247
0.191808
-0.225698
0.321411
-0.131242
-0.204694
0.335936
0.235
-0.102609
-0.00869722
-0.266502
0.0289988
-0.00970187
0.0134452
0.266423
-0.114398
-0.278022
0.16224
0.115783
-0.024701
0.287321
-0.190676
-0.0966452
0.00862842
0.00849804
-0.113888
0.137229
-0.0233405
-0.205118
0.168806
0.0363125
0.116221
0.176643
-0.292864
0.309618
0.0557873
-0.137707
-0.0515731
0.18928
0.119437
-0.101882
-0.0175557
0.107963
0.180093
-0.135398
-0.149787
0.285185
0.308452
0.0443762
0.105442
-0.100371
-0.0750685
0.236662
-0.147068
-0.147322
-0.0213423
0.325057
-0.340595
0.366572
-0.128109
-0.238463
-0.0920713
-0.0882508
0.180322
0.130855
0.0796601
0.404334
-0.207558
-0.196776
0.357525
-0.105429
0.272646
-0.00123607
-0.27141
0.0492482
0.148539
-0.197787
0.000511221
3.1621e-05
0.332674
-0.320853
-0.0118208
0.0156583
-0.0126468
-0.00301152
-0.0588393
-0.0091309
0.0679702
-0.106457
-0.211939
-0.22311
-0.113204
0.336314
0.340435
-0.0894776
-0.250957
-0.00877146
-0.330614
0.0560809
0.274533
0.32857
-0.347935
0.0193656
-0.390797
0.215733
0.175064
0.00183896
0.00611042
-0.17273
-0.105292
0.126954
-0.27399
0.147036
0.018077
0.00984693
-0.19672
-0.0552605
0.251981
0.0634416
0.0109142
-0.0743558
0.0524884
0.276081
0.00310923
-0.00199327
0.0492115
0.275846
0.264631
-0.125017
0.0243013
0.0560791
0.25535
0.0510798
0.004074
-0.0188457
0.0155218
0.363111
-0.0157173
0.000515575
0.0219322
-0.0224478
0.0168179
-0.347432
-0.118659
-0.269381
-0.069802
0.312119
-0.0719855
0.0131462
-0.00857657
0.0040342
0.00454237
-0.0104389
0.0182205
-0.00675296
0.00664623
0.000106731
0.237929
-0.374724
0.136795
0.102197
0.132803
-0.184426
0.0788733
0.105552
0.235288
0.101057
0.0944004
0.137177
-0.231577
0.0628342
0.194278
0.156848
0.0384301
-0.00237096
0.00240914
-3.81781e-05
-0.397589
0.167418
0.23017
0.0689435
0.225241
-0.294184
-0.120393
-0.215214
0.335607
-0.251381
0.0948252
-0.0789638
0.119
-0.0400361
-0.171955
0.203232
-0.0312771
0.149903
-0.365886
0.215983
-0.0105022
0.00192567
-0.162874
0.343217
-0.180343
0.363471
-0.0924511
0.0720959
-0.117601
0.0455048
0.253371
0.0192748
-0.0338968
-0.0474118
0.0813086
-0.261407
0.220348
0.0410596
0.0943778
-0.268403
0.174025
-0.264085
0.146263
0.164417
0.0956252
-0.408717
0.272366
0.136351
0.0551367
-0.00209862
0.0376635
-0.0859335
-0.0517476
-0.35049
0.123306
0.227183
-0.0143534
-0.00393339
0.0182868
0.27453
-0.0556013
-0.218928
0.314981
-0.104962
0.15639
-0.388036
0.231647
0.00938358
-0.0146859
0.00530229
-0.189143
-0.248605
-0.222141
-0.215908
-0.136608
0.205118
-0.0685102
0.00178854
-0.00206442
0.000275882
-0.166568
0.260946
-0.169163
0.410311
-0.172382
0.0474551
0.0147507
-0.0622059
-0.008014
0.0032781
-0.254183
0.0746234
0.179559
-0.161975
-0.186432
0.348406
0.0595457
-0.0976701
0.332958
0.316538
-0.20315
-0.00122157
0.000326488
-0.0353727
-0.143448
0.17882
0.112078
0.00735902
-0.206888
0.332983
-0.126095
0.00441163
0.0447576
-0.0491692
-0.310624
0.14775
0.0151161
0.0511542
-0.0662704
-0.0053387
0.0053387
0.0620587
-0.0146036
-0.0221299
0.0855715
0.0108686
-0.041164
0.0302954
0.0646937
0.167354
-0.232047
-0.220673
0.326298
-0.105625
-0.379643
0.182309
0.197334
-0.0452106
0.0461911
-0.000980584
-0.00720417
-0.161068
0.0407908
-0.0858693
-0.148224
0.0918948
-0.302763
0.210868
-0.0241185
0.0196101
0.0045084
0.257516
-0.14957
-0.401441
0.183498
-0.176662
0.229675
-0.053013
0.022278
-0.0169209
0.253559
0.168804
-0.12617
0.0923368
-0.0359278
-0.0336256
0.0299147
-0.0338373
0.0382489
-0.00934457
0.013473
-0.00412845
0.152675
-0.365356
0.212681
-0.0842365
-0.245855
0.0119903
0.209059
-0.347797
0.138738
0.101011
0.146645
-0.247656
0.0207106
-0.0138102
-0.174865
0.12668
-0.0914669
-0.0422683
0.133735
-0.039122
0.0166817
-0.122136
0.338884
-0.127644
-0.211241
0.207616
0.026256
-0.233872
-0.0558846
0.174691
0.287653
-0.09161
-0.196043
-0.395726
0.281631
0.114095
-0.131693
0.353809
-0.222116
0.188219
-0.323568
0.0479876
-0.00213781
0.0064975
-0.0064975
0.34426
-0.191586
0.100715
-0.323825
0.100463
0.260467
0.00850769
-0.0443139
0.0358062
0.0933873
-0.21891
0.0494667
0.251587
-0.00982269
0.00162246
0.154165
-0.349226
0.195062
-0.104141
-0.0113501
0.115491
0.0904652
-0.236231
0.145766
-0.0858804
0.32493
0.155708
0.0854089
-0.241117
-0.0415191
-0.0836579
0.0502117
0.299032
-0.0456611
-0.358386
0.226693
-0.263286
0.324041
-0.0607548
-0.0218241
-0.0868514
0.108675
-0.0109289
-0.00367919
0.0146081
0.127436
0.204633
0.139627
-0.33265
0.212257
-0.327144
0.2129
0.114243
0.0884394
0.251996
0.0746154
-0.0836686
0.00905311
0.118547
0.257504
0.277225
0.148671
0.0856884
-0.0723717
-0.0133167
-0.113929
-0.290244
0.131638
0.00559075
-0.208563
0.30489
-0.0963268
0.289578
-0.385325
0.0957471
-0.111857
0.0435638
0.0682927
-0.106089
0.0672825
0.038807
-0.127765
-0.237591
-0.109743
0.0879192
0.0987546
-0.307318
0.00945348
0.00137685
-0.0108303
0.133818
0.0553152
-0.189133
-0.38228
0.163939
0.218341
-0.0477141
-0.389758
0.326071
0.0636868
-0.201809
-0.00269538
-0.0113843
0.0140796
0.00364231
-0.033847
-0.00977154
0.0436185
-0.151064
-0.0303738
0.181438
-0.233238
0.36953
-0.136292
0.143709
0.0767309
-0.22044
0.199311
-0.418154
0.092665
-0.0180495
-0.224532
0.278588
0.00205236
-0.00018303
-0.00186933
0.0477453
0.0946692
-0.142415
-0.000385378
-0.00199162
0.244992
-0.333738
0.00569407
0.0144438
-0.0201378
-0.157337
-0.0609973
0.300622
-0.183294
-0.00143115
0.0969231
-0.262055
-0.0702323
0.332287
0.0601628
0.23887
0.142414
0.162112
-0.304526
0.11759
0.0302143
0.0631949
-0.32991
0.266715
-0.116905
-0.257819
-0.354256
0.11763
0.236626
0.0529929
0.283575
-0.336568
0.0197269
-0.123868
-0.00168332
0.000114787
0.00156854
0.223322
-0.128922
0.0115859
-0.00811077
-0.00347512
0.0143698
-0.00498625
0.00389973
0.00449725
0.397632
-0.200758
-0.196874
0.00285972
-0.264096
0.261236
-0.0735925
-0.2438
0.297556
-0.211466
0.266305
-0.386349
0.120045
0.257961
-0.255102
0.378246
-0.0886678
0.207238
-0.0734204
-0.0574223
0.0937642
-0.00198356
0.000646973
0.00133659
-0.201954
0.323241
-0.121287
0.000598361
-0.0195088
-0.238988
0.149585
0.0894029
-0.346245
0.24286
0.103385
-0.00996816
0.238345
-0.228377
-0.287715
-0.0689588
0.373107
-0.216717
0.244494
0.39631
-0.138728
-0.257582
0.251203
-0.301417
0.050214
0.0111257
0.0234108
-0.145618
0.236083
0.23387
0.0826679
-0.312858
0.325897
-0.0130399
0.0209726
-0.210308
0.189336
0.0882991
0.234444
-0.322744
0.028488
-0.115394
0.0869059
-0.337753
0.334765
0.00298809
0.124511
0.216578
-0.341089
-0.145765
-0.128225
-0.0941849
-0.0222222
0.116407
0.342005
-0.253566
0.198697
0.225961
-0.270161
0.0339302
-0.202167
0.012906
0.189261
0.152255
0.258056
-0.0329395
0.0109806
0.0399571
0.175448
-0.215405
0.134481
-0.0573401
-0.203612
0.224585
-0.0648399
-0.108024
0.172864
0.109749
-0.342987
-0.296632
0.0759593
0.383896
-0.233992
-0.104446
0.251825
-0.147379
0.390879
-0.323719
-0.0671608
-0.28279
-0.072022
-0.228014
-0.0421474
0.305294
-0.210492
-0.0948015
-0.255108
-0.124534
0.0976122
0.215261
-0.312873
-0.0209369
0.0777818
-0.0568449
-0.126004
0.34943
-0.223427
0.174209
-0.24485
0.0706402
-0.329613
0.240136
-0.0262994
0.143125
-0.178498
-0.00808069
-0.000323325
0.00840402
-0.0388567
0.37153
0.00584902
-0.0229259
-0.382999
0.181396
0.201603
0.160445
-0.348777
0.188332
0.238012
-0.0228928
-0.21512
-0.164983
0.37637
-0.211387
-0.00118865
-0.000794911
-0.220135
-0.0509151
-0.146776
-0.100347
0.247124
-0.210666
-0.172333
-0.336267
0.0949876
0.241279
-0.0228078
-0.00247269
0.0252804
0.224168
0.160127
0.0611228
0.193081
-0.254204
-0.110177
-0.0508911
-0.300025
0.290057
-0.0235541
0.0272983
0.182525
-0.039399
-0.00302099
0.00664284
0.0660394
0.305378
-0.0963195
-0.263642
-0.0587253
-0.290458
0.0312447
-0.000216706
0.00253031
0.327488
-0.202107
-0.125381
0.0750331
0.102596
0.0115634
0.00102563
-0.012589
0.0840298
-0.0127473
-0.0712825
-0.161748
0.201705
0.366877
-0.12258
-0.244297
0.399088
-0.246833
0.175917
0.135119
-0.311036
0.00864293
-0.0112723
-0.167408
0.00497011
0.0106882
-0.296231
0.217126
-0.180638
0.000880703
0.179757
-0.098982
0.0501349
-0.00664794
-0.217352
0.0367139
-0.13918
-0.249717
0.0100106
-0.00913267
-0.047889
0.138847
-0.0909585
-0.234369
0.0916001
0.142769
0.21673
0.126192
-0.342922
0.0838884
0.254996
-0.265862
0.0857046
0.180157
-0.325315
0.199312
-0.150615
0.0321816
0.0498288
-0.0820105
0.28666
-0.0567996
0.0904932
0.283931
-0.324403
0.0691373
0.255266
0.0119138
-0.0146091
0.178726
-0.107385
-0.071341
0.167998
0.0161252
-0.184123
0.117149
0.0443587
-0.157713
0.0733767
0.0843359
-0.000253857
0.00988356
-0.0096297
-0.00141835
0.00795255
-0.00653419
-0.00773316
0.0103165
0.0741421
0.367182
-0.239266
-0.127916
0.219616
0.00122719
0.137236
-0.265007
0.127772
0.064895
0.193502
-0.258397
-0.219768
-0.111433
0.3312
0.0059751
-0.0393196
0.0333445
0.247888
-0.28183
0.0339428
0.0463208
-0.266794
0.220473
-0.00543727
0.00581408
-0.000376812
-0.0656865
0.277655
0.398518
-0.2024
-0.196118
0.268907
-0.222586
-0.00739601
0.0105212
-0.00312519
-0.132597
0.054349
0.0782479
-0.0357022
0.174944
0.218446
-0.0875903
-0.309022
-0.0414681
-0.00960614
-0.0158002
0.188184
0.210334
-0.000387765
0.000498447
0.248689
-0.207994
-0.0406947
-0.135031
0.339067
-0.204036
-0.340366
0.0010707
0.339296
0.205894
-0.282183
0.0762896
0.0572445
0.287885
-0.345129
0.369026
-0.23915
-0.129876
0.283545
-0.126925
0.273829
0.0084795
-0.282309
0.312706
0.0563204
-0.236891
0.141438
-0.136872
0.325091
-0.0483152
0.286328
-0.218391
0.316056
-0.0976646
-0.115048
-0.266713
-0.0540861
0.25998
-0.00895505
-0.331411
0.357723
-0.332167
-0.0255565
0.00229036
-0.00347305
0.00118269
0.0756594
0.0453553
-0.357115
0.137407
-0.078838
0.222547
-0.226484
-0.119761
-0.0668236
0.0569764
0.0189312
-0.00248598
0.0831922
0.143703
-0.226895
0.0969766
0.020131
-0.160355
0.140224
0.307603
-0.131686
-0.113128
0.173958
-0.0608302
-0.119906
0.0726866
0.0472192
-0.080037
0.207737
-0.0424121
0.0572002
-0.0147881
-0.308143
-0.0350804
0.343223
0.00215075
-0.000362205
-0.0139112
0.0136573
0.161164
0.166135
0.0915962
-0.350864
0.259268
0.299981
-0.0955286
-0.0235752
-0.00494952
0.014001
0.319957
0.0377666
-0.421426
0.214125
0.207301
0.00144662
0.000903476
-0.0023501
0.386553
-0.329637
-0.0569167
-0.0388339
0.030629
0.00820491
0.196301
-0.026935
-0.169366
0.198555
-0.199088
0.000532846
-0.121785
0.0428208
0.323584
0.0629695
-0.0123207
-0.0265132
0.358826
-0.0954856
0.000440224
0.0115781
-0.0120183
0.0307314
-0.193122
-0.0541519
-0.0790755
0.133227
-0.327704
0.0195612
-0.167472
0.232367
0.089322
-0.131819
0.0424966
0.129695
-0.230723
0.101029
0.00842702
-0.0082872
0.388117
-0.110619
-0.277498
0.172608
0.0236939
-0.00786145
0.00916887
-0.00130742
-0.141108
-0.0308481
0.171956
0.0968831
0.0818432
0.0284266
-0.270923
0.00886817
0.229863
0.116838
-0.346701
0.0484859
-0.324141
0.275655
-0.00135955
-0.000884418
0.00224397
-0.0711863
-0.133932
-0.116668
0.346531
-0.171786
0.0283386
-0.0895737
-0.100485
0.190059
0.0158898
-0.0583019
0.00344942
-0.177027
-0.218699
0.00218961
0.0128429
0.0918856
-0.104728
-0.003174
-0.0382248
0.0413988
0.224476
0.0621843
-0.0143246
0.0082998
0.00602482
0.0953944
-0.125375
0.180231
0.0605288
-0.24076
0.27338
-0.0931495
-0.0765929
-0.0560039
0.12857
-0.320204
0.191634
0.214241
0.152942
0.0734969
0.0241424
-0.0976393
0.356925
-0.142685
-0.106973
-0.116721
0.231545
0.114792
-0.346338
-0.251455
0.147009
0.0321206
-0.295407
0.134306
0.0360838
-0.170389
0.0144756
-0.230878
-0.0110783
-0.132933
0.0373069
0.0101162
0.221109
-0.360961
0.139852
-0.104203
0.0253375
0.0788652
-0.161418
0.389935
-0.228516
0.155204
-0.316876
0.161672
-0.000228052
0.00228041
-0.0868701
-0.179221
0.021617
0.0276732
0.00942859
0.00435139
0.157659
-0.0405107
-0.21831
0.297421
-0.0791115
0.0317464
-0.182811
0.0874924
-0.335582
0.248089
-0.230465
0.153071
0.0773941
0.196603
-0.123998
-0.0726041
-0.171652
0.287873
-0.014085
0.010999
0.11195
-0.331717
-0.177553
0.321422
-0.228252
0.0814761
0.315637
-0.160433
-0.069564
0.0486272
0.254218
-0.00869837
0.361006
-0.156373
0.000862817
-0.00748689
0.00662407
0.197321
-0.331504
0.134182
-0.0077306
-0.00546387
0.0131945
0.00636135
-0.00777971
0.0206583
4.44396e-05
-0.0207027
-0.0131517
-0.294831
0.231242
0.0635887
-0.0147417
0.21544
-0.200699
0.00609798
0.245105
0.205715
-0.340746
0.23859
-0.285654
0.0470635
0.290768
-0.153532
0.115931
-0.0104893
0.175156
-0.29501
0.119854
-0.0264936
0.318154
-0.120832
-0.210519
-0.116625
0.117642
0.197119
-0.314761
0.134752
-0.352566
0.217815
-0.103693
-0.205265
0.36021
-0.154945
-0.0626345
0.138294
-0.00552717
0.00552717
0.176298
-0.297559
0.421095
-0.239699
0.163569
-0.402028
0.238459
0.16233
0.25071
0.25342
-0.0977126
0.0348302
0.00208392
-0.160033
-0.338517
0.133252
0.113403
0.171193
0.0090797
0.000607724
-0.00968742
0.23983
-0.313423
0.0173549
-0.0168394
-0.0364561
0.0713339
0.292133
-0.231771
-0.0603612
0.256531
-9.18539e-05
-0.25644
-0.356416
-0.0090455
0.365462
-0.311474
0.357044
-0.0455702
0.209767
0.13345
0.232265
0.155852
0.220234
-0.077556
-0.142678
0.100304
0.25716
0.226701
-0.241443
-0.204494
0.00844907
0.321205
-0.113427
-0.207778
-0.016855
0.0172952
0.221626
0.30902
-0.202473
-0.091295
0.293768
-0.289372
-0.0234854
0.32164
-0.193609
-0.163989
0.0508614
-0.341759
0.0554134
0.286345
-0.040595
-0.0163245
0.0569195
0.303971
-0.259695
-0.0442754
-0.000553838
0.079625
0.149312
0.241568
0.0926168
-0.0343835
-0.0582334
-0.23981
-0.149947
-0.0012459
-0.00208188
0.00332778
-0.135186
0.0784613
0.0567251
-0.309377
0.106904
-0.0433057
-0.173705
0.217011
0.0024726
-0.0966575
0.289658
-0.125913
-0.163744
-0.00195645
-0.000414514
0.0868341
0.10309
-0.151411
0.37252
0.125665
-0.332552
0.299146
-0.0824163
-0.170129
0.308414
-0.138286
0.271803
-0.221093
-0.0507097
0.267294
-0.198801
0.170154
0.0651828
-0.177037
-0.117783
0.29482
-0.0108749
0.255581
-0.244706
-0.0798251
0.20952
0.403291
-0.239722
-0.0446654
-0.0671911
0.135489
-0.338489
0.203001
-0.00559896
0.000260263
0.118056
0.203311
-0.321367
-0.0800292
-0.261729
-0.290555
0.073792
0.216763
0.0468787
0.245254
-0.27388
0.150093
0.123786
0.290981
-0.114338
0.274334
-0.0357435
0.163441
0.100767
-0.264208
-0.408052
0.294116
0.113936
0.28493
-0.295805
-0.095129
0.0649586
0.0301704
0.0141714
0.0401853
-0.0543567
0.335883
-0.0695783
-0.21479
0.233566
-0.0187764
-0.00523822
-0.0162494
0.0214877
-0.0444514
0.116547
-0.231785
-0.117539
-0.00502017
-0.00173279
0.315507
-0.083962
0.00672746
-0.0176144
0.010887
-0.131866
0.290872
-0.159006
0.228584
-0.184608
-0.0439757
-0.242094
0.204854
0.0372401
0.00191576
0.00542542
-0.00734118
-0.00155102
0.000250487
0.00130054
0.122243
-0.182788
0.134048
0.0487405
-0.0837682
0.197713
-0.0204565
-0.151498
-0.368914
0.160545
0.208368
0.178021
0.243074
0.0174095
-0.0147168
-0.00269274
0.412189
-0.196038
-0.216152
-0.153935
0.368572
-0.214637
0.38198
-0.320178
-0.0618025
-0.13369
0.343457
-0.126772
-0.0354614
-0.00273721
0.0381986
-0.00154447
0.00194379
-0.0226358
0.0356909
-0.0130551
0.01176
0.0084889
0.326803
0.0551773
0.00482588
-0.00263842
-0.249229
0.298263
-0.0490339
0.194355
0.217835
-0.0441991
0.178505
-0.147662
0.188948
-0.0412869
-0.348365
0.194431
-0.216553
0.0107218
-0.0252102
0.0144883
-0.00805502
-0.0160635
-0.179391
0.278337
-0.0989467
0.178007
0.111651
0.237888
-0.173194
0.230881
-0.360665
0.129784
0.00676812
-0.0125482
0.00578012
0.216428
0.0553747
-0.265746
0.139832
-0.0370154
-0.228846
0.078963
-0.133115
0.196131
-0.33074
0.134609
0.0484854
0.0183558
-0.0668411
0.116507
-0.0698327
-0.0466747
-0.065246
0.131305
-0.0660593
0.327452
-0.131321
0.00145322
0.00504428
0.380249
-0.163859
-0.216391
0.0108797
0.00350368
-0.188361
0.108754
0.0796073
0.21801
0.355025
-0.219537
-0.4192
0.187487
0.231713
0.37018
-0.158973
-0.211207
0.125534
0.0986876
-0.0686439
-0.0300437
-0.00355124
0.005467
0.408637
-0.116476
-0.292161
-0.156647
0.240994
-0.0843473
-0.233899
-0.163689
-0.18033
0.191346
-0.0110157
-0.317224
-0.0391924
0.323327
-0.260132
-0.0525578
0.200257
-0.147699
-0.00947474
0.0051648
0.00430994
0.0129887
-0.0182269
-0.0655568
0.00298557
-0.010268
-0.00405661
0.0294227
-0.209753
-0.00117672
-0.000182834
-0.308132
0.252142
0.0559908
0.227809
0.133197
-0.148251
0.0320473
0.116204
-0.0166016
0.00887098
0.176982
0.00413307
-0.181115
-0.185956
0.372183
0.251524
-0.00148157
0.0188911
-0.0129663
-0.0218632
0.0348295
0.0586764
0.0339404
0.184042