# y+ ()       
# Time        	patch         	min           	max           	average       
0             	walls	3.992551e+00	9.420799e+00	6.461852e+00
