/*--------------------------------*- C++ -*----------------------------------*\
| =========                 |                                                 |
| \\      /  F ield         | OpenFOAM: The Open Source CFD Toolbox           |
|  \\    /   O peration     | Version:  v2012                                 |
|   \\  /    A nd           | Website:  www.openfoam.com                      |
|    \\/     M anipulation  |                                                 |
\*---------------------------------------------------------------------------*/
FoamFile
{
    version     2.0;
    format      ascii;
    class       volScalarField;
    location    "100";
    object      ddt0(k);
}
// * * * * * * * * * * * * * * * * * * * * * * * * * * * * * * * * * * * * * //

dimensions      [0 2 -3 0 0 0 0];


internalField   nonuniform List<scalar> 
37809
(
-3.3694e-08
1.04849e-07
3.67744e-08
-0.000246107
2.21994e-09
-6.53225e-08
-6.0575e-08
0.00355171
-8.88209e-09
1.07935e-07
1.6212e-06
1.77192e-07
1.31139e-07
-7.91978e-08
-1.00926e-07
5.16849e-08
-8.60001e-09
-0.0104694
1.65563e-07
-1.69539e-08
5.21271e-08
0.00149205
0.00597351
6.68798e-06
-0.00109439
3.1219e-09
1.48804e-07
-0.00160322
1.96968e-08
-6.15298e-09
3.3688e-07
-0.00220598
-9.88207e-09
-1.86563e-06
1.79309e-07
-8.60727e-09
2.94796e-06
5.25194e-05
-0.0118033
-2.85583e-08
7.69849e-08
0.000167507
4.63967e-08
1.59907e-07
5.78265e-09
2.29354e-07
2.70223e-08
-2.9482e-07
3.39707e-08
-3.30692e-06
-0.00166121
0.0240332
-1.00767e-05
1.29727e-06
1.61075e-07
-6.54487e-11
1.94575e-06
7.81468e-08
6.05123e-06
-0.00162625
2.29156e-07
8.8016e-08
-0.00023758
1.37116e-07
-3.97601e-08
-1.08206e-07
1.52912e-07
-0.000922671
5.07193e-07
6.11932e-06
5.6273e-09
-9.76313e-09
0.0228923
3.20149e-06
-1.40104e-07
-8.24673e-05
-3.09683e-06
2.4706e-09
3.81104e-08
-8.45001e-09
9.08007e-08
-0.0107408
-4.16635e-08
-7.65113e-06
-0.00468005
-0.000816215
2.10268e-07
-0.00164779
5.37389e-07
2.96125e-06
1.09447e-09
-0.00164631
4.1436e-08
-1.38564e-07
8.69453e-08
5.19847e-08
-0.00386871
4.20646e-08
2.22435e-08
-0.000981519
1.75119e-08
2.24674e-06
-3.59119e-08
2.6072e-07
-0.000650131
8.76856e-08
0.00168448
-1.33238e-08
0.00720313
0.0163061
-2.07798e-08
3.43301e-06
-0.00832415
-3.42346e-08
-0.00181333
-0.00815535
-1.0211e-07
-9.14153e-09
0.0312595
-1.63804e-08
0.000567217
-3.26223e-06
0.00101532
6.75146e-09
2.08604e-08
-0.000477376
8.93647e-09
-4.90917e-08
1.05293e-09
2.2937e-08
4.08489e-08
-1.0341e-07
1.1529e-07
1.32425e-08
8.26625e-09
-2.94017e-08
2.28873e-07
-0.000358579
-0.000678193
1.01556e-08
1.97552e-07
0.000752166
-1.09368e-07
-1.88791e-08
3.38258e-08
-1.35887e-08
1.89409e-07
-2.47611e-07
1.15187e-08
7.5952e-09
6.87741e-06
-2.08279e-08
-5.32605e-09
5.42313e-06
3.47278e-09
6.27605e-07
6.80697e-09
-0.0659718
2.59976e-08
-2.89009e-08
-1.08528e-08
-0.00193521
-0.00199816
1.81264e-08
1.51806e-08
-8.64553e-07
-9.23716e-09
-0.00576773
-5.95515e-08
0.00580749
-6.25234e-08
-3.58423e-06
6.76463e-08
-1.56188e-08
-4.60562e-08
2.94045e-08
-9.21982e-09
-5.39556e-09
2.27366e-06
-2.89667e-08
-7.35165e-09
8.24365e-05
1.12578e-08
-9.67062e-09
3.0147e-08
2.84529e-08
-0.00192947
6.13231e-08
-0.000746532
-1.85781e-06
0.00400327
3.46547e-06
-2.54217e-08
-5.74065e-06
-9.93692e-08
-5.00184e-08
-5.20179e-08
5.33752e-06
2.35877e-07
-0.00168657
0.00506873
6.53529e-08
-3.51214e-08
-4.5106e-07
2.54207e-07
-1.07898e-07
-2.36185e-08
-0.00163903
-1.27046e-08
-0.00735134
-0.00395636
-8.34582e-06
0.000347992
-3.44774e-06
-9.67905e-09
2.63767e-08
0.0306436
5.67964e-06
-3.70176e-08
0.00546718
1.87555e-06
-4.61929e-08
2.5095e-07
1.90247e-08
-2.13897e-08
5.69312e-06
-2.31195e-08
-0.00327302
4.03856e-09
1.35559e-05
2.23677e-08
-5.63149e-08
-5.90285e-08
-2.637e-08
-2.68808e-07
-1.92988e-06
-0.00219647
2.31551e-08
-1.14927e-07
4.97648e-08
3.27348e-06
-9.61306e-08
8.45661e-06
-0.00402068
-1.00443e-07
4.06434e-08
3.49329e-06
0.000151242
-0.00490413
-1.19947e-07
3.01053e-08
-2.12796e-08
7.38568e-08
-0.00209447
2.63348e-08
3.1463e-08
-2.32567e-07
-4.80056e-09
5.30401e-07
1.58192e-07
-3.97502e-10
-4.33241e-09
5.80527e-07
-1.64476e-07
-0.0106123
2.82792e-09
-0.00656495
-7.53033e-06
1.91657e-09
-1.6634e-07
-7.65451e-09
1.84181e-08
7.19461e-09
-1.55254e-06
3.3268e-07
-0.0107698
-2.87248e-07
4.99019e-08
-6.28934e-08
-0.000997909
-8.39866e-06
7.45407e-09
7.64724e-07
-0.0035452
-6.18844e-06
-3.22914e-09
-0.00215082
8.94037e-08
-1.87885e-08
0.00485309
-7.37922e-08
3.88885e-08
-6.88798e-05
-0.000635863
1.03364e-07
-1.89492e-08
-0.00971827
2.52363e-08
2.19726e-08
-1.07516e-06
-0.00434885
2.11954e-08
4.94226e-08
2.12182e-08
2.02191e-08
-4.43939e-07
2.61538e-08
-1.1596e-08
-1.35727e-07
4.8087e-06
-6.36469e-07
2.67307e-09
-4.39912e-08
-5.20089e-06
2.69703e-06
-7.89817e-09
2.23043e-06
2.16649e-08
-0.00516158
-5.52586e-06
-7.33013e-07
-0.000112224
-0.00852834
9.45534e-06
-0.00304782
-3.5703e-08
1.09213e-07
-0.00410728
-2.43631e-08
-2.44109e-07
7.49993e-07
7.2411e-07
3.77151e-05
-4.00079e-08
8.42019e-09
5.35228e-09
-1.71331e-08
-5.06719e-06
-0.00199344
1.02797e-08
-0.00639295
-6.37598e-09
-0.000446873
-6.77758e-07
-6.93097e-09
1.86294e-08
-0.00475534
-0.00198957
9.88613e-08
7.59754e-08
1.0777e-06
2.01203e-07
3.26957e-08
-0.00110954
1.48801e-07
4.69857e-08
4.90719e-08
-0.00253977
0.000676022
1.86891e-08
-3.73014e-08
5.22368e-05
1.8966e-07
-3.29669e-08
-2.91506e-08
-8.64638e-07
7.94419e-09
4.71626e-06
-1.22883e-06
4.6491e-08
4.98476e-07
4.92786e-08
1.52792e-08
6.77567e-09
-1.39846e-06
5.65632e-09
-8.68945e-09
2.15853e-08
-3.63695e-06
-0.00184017
1.43288e-07
-9.39387e-08
0.000743316
3.66663e-06
-7.8173e-07
-3.51586e-08
-1.3766e-08
0.00427217
0.000711691
-0.00212263
1.56763e-08
1.63836e-06
0.00352012
5.47721e-07
4.47542e-06
4.34767e-09
1.0109e-08
1.05393e-08
-0.00048135
3.06105e-08
1.68164e-08
6.28666e-09
-2.16835e-07
-0.00331563
3.27537e-07
-0.00100231
-0.000125461
-7.31876e-09
2.8296e-07
0.00411625
2.31983e-08
4.97247e-07
1.48093e-07
-2.13827e-06
-0.000117146
7.87675e-09
2.86978e-08
-7.35352e-08
-4.25511e-07
1.20454e-05
2.18805e-08
-4.18573e-08
1.92047e-08
-0.000101288
0.00145251
-2.87101e-06
1.41317e-07
-3.32826e-08
-2.57927e-08
2.86526e-08
-4.00295e-08
-0.00201938
4.05884e-06
-6.42915e-07
-1.23699e-07
-5.88303e-07
-8.33058e-07
-0.000665936
1.82428e-07
0.0144919
1.51381e-07
-2.80726e-06
-1.52724e-08
-5.1668e-10
2.61938e-08
-2.06138e-08
3.1617e-09
-5.43172e-10
-2.63623e-08
-1.31978e-07
-1.67281e-08
2.91091e-07
0.00518237
2.01049e-08
-1.363e-07
1.19835e-08
-6.45178e-08
-2.38416e-07
3.30215e-09
-6.16595e-08
1.43271e-06
1.28459e-08
6.46685e-06
-2.5271e-08
1.74341e-07
0.000519312
-1.52882e-08
-3.17343e-08
-1.31661e-06
1.93689e-06
4.01497e-06
-2.48689e-08
5.3851e-05
2.16204e-06
-0.00165467
-1.19838e-08
2.34415e-08
-0.00404861
0.000321244
-1.49416e-08
-1.59221e-08
0.00100453
-0.00867129
1.87832e-09
-2.28355e-05
-6.90544e-08
-0.00021671
4.28471e-07
1.49993e-08
5.73013e-06
-1.77889e-08
1.19098e-08
-0.0085799
0.0130082
-2.20603e-08
1.11648e-08
-2.57692e-08
7.19915e-09
-0.00207165
-0.00121377
-1.24572e-08
0.00467917
0.000381807
1.92709e-08
4.94261e-08
-9.87516e-09
1.20576e-06
-0.00251093
0.00755402
0.0115669
-3.96403e-08
-0.0016341
1.80602e-09
-9.30748e-08
-1.64563e-06
4.30759e-09
-2.99124e-07
-0.0056205
0.0040874
5.68811e-07
5.74312e-06
-8.32078e-09
1.69957e-06
-0.000543543
9.2435e-07
-1.60354e-08
0.000423287
1.43106e-06
1.57155e-08
5.11095e-06
1.03537e-08
-8.76371e-07
8.19613e-09
5.41944e-06
-1.72817e-08
5.39581e-07
-1.0104e-06
-0.000388736
-6.98988e-09
7.01051e-08
-1.20394e-08
-9.35317e-08
-0.00258517
-0.00870393
-0.00197055
-6.94539e-06
-6.05411e-07
-1.77996e-07
5.49483e-06
-1.13003e-06
-0.00204127
-5.05697e-06
-1.03868e-08
5.70386e-07
-1.12939e-06
4.22866e-07
1.60849e-05
-6.61469e-07
1.57035e-06
-0.00262956
-0.00927907
-7.31125e-09
2.07878e-08
-0.00267876
9.36081e-09
-7.02726e-09
4.24642e-09
3.54072e-08
-2.0755e-07
0.000316197
0.0013911
-0.0674065
0.00146336
3.36943e-08
-2.4446e-08
0.000296043
3.58436e-08
1.07488e-07
7.46659e-07
0.000205575
-3.62934e-09
2.9227e-08
-2.84657e-07
-3.18738e-08
2.18314e-05
-0.000289922
-3.0633e-08
2.85154e-07
-1.81476e-06
1.07255e-06
-1.23147e-08
-3.42921e-08
2.95503e-06
1.38364e-09
-0.000114243
-1.07392e-05
-9.04753e-08
-1.4808e-07
2.42868e-08
-2.53006e-05
-2.14557e-07
1.22009e-06
1.92683e-07
2.57032e-08
8.52494e-08
1.25569e-05
7.52691e-08
3.71811e-08
1.71286e-09
1.07103e-07
-2.98618e-06
1.47574e-07
2.46851e-08
5.85902e-06
-3.95091e-07
-0.00498721
-9.87602e-07
0.00678853
-1.86639e-08
-0.00157781
7.85672e-06
0.00333857
-4.91178e-07
1.82591e-06
-0.000338679
-5.14651e-09
-2.6707e-07
6.29057e-06
1.30026e-06
-6.56775e-09
-1.45723e-07
0.029352
-1.36424e-07
-1.81171e-07
0.000414895
0.00138188
4.8298e-07
1.68801e-06
0.000475584
-2.46342e-08
9.85252e-08
-0.00957411
1.87101e-07
-7.15055e-06
-2.08398e-08
-1.17802e-09
-5.60747e-09
-2.91588e-06
9.70182e-07
2.57952e-06
-3.66825e-06
6.63893e-06
4.87244e-06
1.17387e-07
-6.23444e-06
4.76085e-07
3.97163e-07
-1.62219e-08
1.04003e-08
-9.70326e-05
2.38953e-09
-9.4882e-07
-5.80092e-08
-3.28961e-08
-8.27398e-09
3.22829e-08
-0.0076389
3.59428e-09
1.18982e-08
-7.68438e-10
-3.864e-07
-0.000370347
-9.858e-07
9.80718e-06
-8.26171e-09
9.62056e-09
5.58468e-06
-1.05318e-08
2.62776e-08
-0.00021544
1.13786e-08
-0.00167742
-2.62758e-06
-0.000143844
7.15762e-06
-1.49569e-08
3.90456e-09
-2.34489e-08
3.69916e-07
-0.00150106
0.000689296
4.77795e-08
4.27906e-07
-1.46789e-08
-0.00693198
1.23547e-07
-3.57728e-09
-1.86945e-08
-0.00140509
-2.64793e-06
2.78356e-08
-2.59801e-06
-0.00717146
3.07381e-06
3.44606e-08
0.00158224
-3.11435e-08
-1.00276e-05
-1.96552e-08
2.46267e-09
-5.42098e-08
0.00694083
-1.35904e-08
-2.49476e-08
-5.5122e-09
0.00171434
0.000571817
-0.0646442
-1.11993e-07
-9.62355e-09
-1.21024e-08
-1.808e-09
1.84953e-08
-5.17316e-06
3.49331e-07
1.91952e-08
7.0172e-09
2.31993e-08
-0.00535261
-0.00268242
-1.10119e-06
4.54294e-05
7.32428e-07
9.61844e-08
-3.97131e-08
8.34274e-11
-5.63932e-07
7.38406e-06
2.48225e-08
2.79542e-06
1.6062e-07
0.00146251
5.32951e-09
-0.00652009
-1.56074e-05
7.99582e-08
7.33492e-09
0.000231319
8.59545e-09
6.53249e-08
-0.00204686
-4.02739e-08
4.01858e-07
1.88256e-09
-0.0125882
1.35543e-08
-1.54523e-07
-0.00103924
4.72109e-06
-4.27005e-06
8.73276e-09
3.82296e-07
-3.75181e-08
6.94994e-09
1.27763e-09
-1.03298e-08
-4.41837e-07
3.33516e-08
-0.0716815
0.00358319
0.00246673
-2.15823e-09
1.08706e-07
-0.00111226
5.91494e-08
-1.65556e-08
-2.4114e-08
1.81535e-08
-3.46373e-08
-1.85193e-06
-0.00783754
-4.00083e-09
-2.23612e-09
-0.00434729
1.17589e-09
5.29127e-08
-1.92773e-06
3.20374e-06
5.74777e-06
-0.00401908
-3.12618e-06
0.00616174
-0.00229842
1.85061e-08
-0.0018722
1.10861e-07
-6.72764e-06
4.10775e-06
-2.39951e-09
5.95901e-07
0.0024612
-1.84073e-07
-1.15125e-10
-0.00187035
3.52542e-08
4.2622e-07
-0.000875052
-0.00235136
-1.7524e-07
0.000747394
0.00557304
-1.21133e-07
-5.08838e-06
1.63233e-08
9.91139e-07
0.00058291
-1.37358e-07
5.6241e-09
-0.000116494
-2.63322e-08
-1.30828e-05
-0.0121044
0.00888655
-3.25218e-09
0.00726772
-5.80501e-07
-1.75189e-08
1.02626e-08
1.48912e-08
6.33922e-09
-1.65503e-08
-7.62224e-08
-0.00578683
-4.30704e-08
-2.84266e-09
4.83539e-07
1.11383e-07
1.53057e-06
8.03321e-07
-8.02737e-08
-9.98191e-05
6.48316e-09
1.13803e-07
4.31473e-08
-1.16311e-08
5.69492e-06
-1.93624e-08
1.27612e-07
3.4772e-08
-3.90873e-07
-2.75198e-07
8.22857e-08
-1.10347e-08
5.32362e-07
2.51389e-10
-0.000972223
4.16893e-07
-2.69596e-07
-1.99124e-08
8.21472e-08
-6.27414e-08
1.06195e-08
-0.0060132
-5.98058e-07
-3.59733e-08
0.000353714
1.26488e-08
2.85975e-08
-5.07815e-10
6.40885e-07
2.58817e-08
6.7614e-06
-0.000415866
-1.52296e-07
-1.89377e-06
-0.00168286
-2.6993e-07
-2.74707e-08
-4.01672e-10
1.49974e-07
0.00274345
-2.1885e-08
-4.461e-09
2.30606e-08
-1.28914e-06
1.53459e-07
3.65819e-07
1.53261e-06
1.47083e-08
3.76059e-06
-0.00731633
-0.00124271
2.1039e-06
0.000624296
1.485e-06
-7.11803e-09
-3.03758e-05
-1.0448e-07
-0.0033942
-1.39864e-07
-0.00581315
2.25119e-06
8.87138e-08
-5.97381e-10
0.000362933
-0.0015659
-4.75567e-09
9.03702e-08
-1.1422e-08
-6.61158e-09
-8.20431e-09
-0.00213813
-2.73322e-09
-2.9673e-08
-0.00618287
6.78832e-09
7.19592e-06
1.26642e-06
-1.50081e-07
-2.65427e-07
-2.29734e-10
7.07322e-09
-0.00193411
-0.00397058
-1.07146e-07
2.39806e-07
5.90418e-07
1.23165e-09
-5.43917e-10
8.6981e-07
0.00792862
-2.17048e-08
4.71882e-07
-1.58084e-05
3.15038e-08
1.23397e-08
1.48521e-06
-3.20942e-06
-1.52904e-06
-7.60917e-09
7.68311e-07
1.67952e-06
-0.000885619
-2.11008e-08
-1.54798e-08
2.41073e-08
-7.51257e-08
6.52448e-07
-3.41065e-08
-8.95719e-06
-2.57511e-07
4.17393e-08
-0.00526638
-5.24474e-09
-0.00166209
1.32673e-10
0.00415287
1.15628e-08
-0.00163915
0.0012069
4.91587e-06
6.26351e-07
0.00726074
-4.95738e-07
-3.7476e-08
-3.91429e-07
9.65251e-08
1.13647e-07
-1.1706e-08
-2.00679e-09
7.09659e-06
4.21088e-08
0.0220177
-1.28796e-07
-0.0611523
2.61714e-08
-1.69157e-07
-2.94284e-08
8.10532e-08
-3.37375e-06
-1.63867e-08
4.39115e-07
-2.21775e-08
0.000109542
0.00674006
2.33414e-08
-0.00241906
1.89779e-06
-1.69282e-08
-0.00236765
-0.0080957
-0.00743576
-1.66455e-07
-0.00338237
-0.00685813
0.00166405
1.05405e-08
-7.77976e-08
-9.75186e-09
9.06292e-08
-2.84129e-10
-0.00110004
-0.00539929
4.09673e-09
-2.50673e-06
-7.34123e-08
2.02137e-08
-4.88031e-09
-0.00349126
1.55549e-06
-2.77513e-09
3.27028e-07
6.34101e-05
-2.02022e-08
-0.0462258
1.02725e-05
-5.63804e-05
-2.13731e-08
-0.00735692
4.73312e-06
0.00601849
-7.72373e-09
-0.00779471
-4.93518e-08
0.000492351
1.82018e-07
-6.39914e-09
-3.76533e-08
0.00651483
4.78371e-09
1.22005e-07
3.03409e-07
-2.14187e-07
3.25095e-08
9.58844e-08
-8.66942e-09
-1.27313e-08
9.00252e-08
-1.21505e-07
1.4163e-06
4.67742e-06
-4.85628e-06
-4.36502e-06
-8.03309e-09
-2.96852e-08
-0.00879495
-9.63235e-07
-0.00320211
3.47669e-08
1.2139e-08
-2.85125e-08
-0.00805643
4.90289e-08
2.55697e-08
-2.06998e-08
4.62929e-06
8.57601e-06
1.55442e-07
5.48096e-07
-1.97206e-07
-0.0254753
2.43809e-11
1.31985e-07
0.000607774
1.24167e-08
0.0015812
-8.68634e-07
-8.47928e-07
-1.59797e-08
-1.01857e-08
-3.08524e-06
-4.28549e-06
-3.2521e-06
2.25014e-07
3.17152e-08
-0.00264034
1.6421e-06
-0.00304457
0.0060895
1.74487e-08
-0.0027636
-2.26767e-08
2.17627e-07
5.9031e-08
-5.11569e-08
8.55109e-08
-0.00724168
-2.21114e-08
4.83358e-05
5.32694e-08
-6.98787e-10
-1.55278e-08
-4.22457e-06
-0.00281684
-3.02838e-09
-3.94472e-06
1.20327e-08
3.19824e-07
-0.00585575
-0.00155575
2.24135e-08
1.24991e-05
-4.72755e-10
5.15192e-08
5.17174e-09
2.0713e-08
2.51943e-08
-1.70728e-07
-0.00213377
-1.31805e-08
-0.00329792
-2.87681e-07
5.14098e-08
6.54482e-06
1.24959e-07
3.13006e-06
-3.27662e-07
-6.96374e-10
-2.64761e-07
5.79952e-08
-6.19391e-08
-5.30904e-07
-4.5643e-06
-2.12676e-05
-8.5387e-08
3.63917e-08
-6.80821e-06
-2.52204e-06
0.000107982
-2.14302e-07
-3.17244e-08
3.06196e-08
-2.14859e-08
-2.36972e-06
0.00087806
-2.81834e-06
2.60428e-06
-0.0609301
0.0195518
9.32974e-05
-1.5496e-08
-0.00199934
-2.34717e-05
9.87888e-09
1.35416e-08
9.57205e-09
1.58784e-08
-5.57529e-09
1.38576e-08
1.05085e-06
1.43923e-06
-0.00232112
0.00806241
-5.1843e-06
3.4647e-06
2.98435e-07
1.53648e-06
-1.8865e-08
-1.09349e-08
-2.23828e-07
1.97805e-08
1.32695e-07
2.56455e-07
4.75633e-07
-1.50739e-08
-2.15917e-09
-1.73117e-08
1.66003e-07
6.18221e-09
-1.6836e-08
1.065e-09
-2.92391e-07
5.41377e-09
-5.80585e-07
7.23394e-07
-8.3914e-09
1.53103e-07
1.67392e-08
-6.62976e-09
-2.1327e-08
1.7606e-07
1.00457e-08
-2.06646e-08
-0.00202497
-3.58306e-08
-4.21584e-05
1.39598e-05
-1.56785e-08
-2.16518e-08
-2.38796e-08
-2.34637e-08
-0.000832325
0.000519308
-0.0016512
1.79297e-08
-2.53397e-07
-6.4845e-08
-2.13973e-08
-0.00253477
-3.9481e-06
-1.4893e-08
1.5379e-08
-4.52671e-08
0.000347184
-1.58557e-08
-1.29442e-07
-8.36385e-09
-1.1565e-06
-6.47351e-09
2.83122e-08
2.22489e-07
2.23398e-08
4.27951e-08
-7.37968e-08
-8.49464e-09
-1.0374e-08
-2.13361e-08
8.12842e-08
-8.98746e-09
-0.00398024
6.7022e-06
-1.52753e-07
3.32813e-08
2.44264e-05
3.18861e-06
-2.74346e-06
3.13278e-08
4.87562e-09
0.0212583
3.93205e-08
4.54298e-08
-2.11169e-08
-1.83657e-08
-0.00420131
7.57805e-07
-1.36656e-08
2.2165e-08
7.47592e-08
2.76178e-07
-9.74151e-07
-3.84687e-06
1.21531e-07
-0.000119126
-0.00245102
-8.42326e-09
9.49388e-08
-4.18696e-07
0.00316577
-0.00277089
-4.46216e-08
6.45488e-08
7.90634e-07
-2.58483e-07
9.06196e-07
-2.12988e-08
-0.00102847
-5.87059e-09
-0.00161136
-2.51755e-09
2.36827e-08
-7.12553e-09
1.99537e-08
1.7977e-08
-3.59945e-08
3.04721e-08
-0.00857639
-4.19752e-10
1.86046e-07
2.01326e-08
-1.97486e-08
2.68392e-08
9.67437e-09
0.000353054
5.42393e-08
1.68178e-08
-3.24241e-05
9.27512e-07
2.88549e-07
-8.11574e-06
-4.01431e-06
-2.01975e-07
6.37707e-09
6.24948e-07
-3.70727e-06
-1.57793e-06
4.84369e-06
1.20975e-05
-1.51819e-08
0.00408058
3.12409e-07
1.31018e-08
-1.69557e-07
3.68371e-06
0.00155711
0.0330337
-4.00299e-08
1.6298e-06
3.4221e-08
1.28049e-08
1.67653e-05
-3.62795e-06
2.32994e-08
1.22719e-07
-6.62016e-09
-6.40452e-08
-4.07547e-08
-3.41456e-09
5.8038e-07
-7.61749e-08
1.26561e-07
5.86031e-05
0.00715635
-3.23528e-08
3.55659e-06
-3.48704e-08
1.59405e-08
-2.41067e-08
3.18551e-08
-1.38932e-08
1.01358e-07
7.01633e-06
1.48701e-07
4.31282e-08
-0.00523116
9.75563e-09
0.00459239
-1.75051e-08
-2.74855e-08
-3.52153e-07
6.80513e-07
4.5414e-08
6.33559e-05
-1.51135e-07
-2.60629e-08
1.3813e-08
5.34493e-08
-4.4908e-07
-3.48202e-07
1.20263e-08
0.0076147
1.02407e-07
-0.00275859
1.73512e-08
-2.29453e-07
7.68173e-06
6.72028e-05
7.43405e-09
1.13837e-06
-0.0110224
1.49582e-07
-2.66907e-07
-9.53446e-09
5.15494e-07
-6.35044e-08
2.57334e-06
5.87126e-06
-2.56588e-08
6.81759e-08
1.00429e-06
-4.59301e-08
-1.64603e-08
-3.11892e-11
3.86648e-08
0.00205667
0.000307892
-0.001337
6.98475e-06
-0.0018822
2.0783e-08
-2.59688e-06
1.31302e-06
3.90307e-08
1.9494e-08
-1.63402e-06
0.000752542
1.80808e-08
6.27188e-07
-1.05977e-07
-1.05378e-07
-5.6968e-09
-1.2202e-05
-1.33182e-07
-1.65806e-07
-5.54376e-06
3.97012e-08
-2.77922e-08
-4.14947e-09
2.9589e-06
-0.00384125
-1.17073e-07
9.56402e-08
-1.94105e-08
-0.0019378
6.39987e-09
-3.5085e-06
4.17681e-09
-3.06007e-07
-1.33432e-07
1.34172e-05
-2.22133e-09
4.01951e-06
2.37595e-08
2.11317e-08
3.36527e-08
5.51683e-06
2.60995e-07
7.19984e-06
-0.00524917
-4.18697e-08
-9.49455e-09
-7.33102e-07
7.55683e-06
-1.69237e-08
-9.55399e-08
1.19497e-08
-3.59506e-08
-2.34134e-07
2.64559e-08
6.44709e-06
8.07374e-09
3.90987e-06
4.82091e-08
-0.0026419
1.57758e-07
6.69391e-07
-3.13992e-06
-2.83745e-07
-3.6514e-07
0.000315374
3.78404e-08
-9.77754e-09
-1.07187e-05
-6.14621e-09
-2.59709e-06
1.86358e-07
-4.81701e-08
-0.00290732
-0.000561878
-3.36576e-05
-0.00195741
-3.91553e-06
5.44226e-07
-0.0032188
-2.7169e-07
-9.80367e-09
8.91983e-08
-9.77923e-09
-0.00639089
-0.0111605
-0.00264387
-0.00824821
-2.445e-08
-5.28606e-09
4.67371e-08
-4.59764e-08
1.01971e-06
-2.82443e-06
-0.00222979
-0.000850729
-8.00743e-09
-9.93332e-07
9.41701e-08
-0.00203383
6.8913e-08
-1.07222e-07
-3.31371e-08
2.72998e-08
-7.95659e-08
-1.47104e-07
-1.21475e-08
5.66206e-06
-4.24579e-09
-3.04901e-09
4.27371e-08
-5.86198e-09
4.81118e-08
2.42753e-08
6.91866e-06
7.09226e-08
1.2457e-07
-0.00637025
-2.21198e-07
-4.41381e-09
2.74991e-09
4.98411e-07
0.0017574
-0.000345382
-2.6434e-09
-0.0220475
-1.12027e-08
1.81369e-05
8.848e-08
-4.44811e-08
-8.74606e-09
-1.49252e-08
-8.80636e-09
-2.49095e-08
2.87081e-06
-0.00217201
-0.00301593
-2.91661e-07
-3.90348e-06
-2.48902e-08
-3.00816e-05
-2.97175e-09
1.13781e-08
-4.67969e-07
-0.00793252
-7.54368e-08
-5.21098e-09
1.03947e-08
-0.00228931
8.62085e-07
-1.09983e-09
-0.00377878
-1.88316e-08
-4.31546e-09
-4.04008e-08
1.96168e-08
-1.70259e-08
1.74966e-05
3.18295e-07
0.000399842
-3.00323e-06
-9.47863e-07
-5.36967e-10
-2.77776e-07
-2.89144e-06
6.77785e-09
-5.80412e-09
-0.00444951
-3.51267e-08
2.87341e-08
5.2594e-08
-0.00303761
9.06648e-07
4.30833e-07
-3.96962e-10
7.04271e-07
-1.16431e-07
1.03287e-07
1.69609e-05
-1.86518e-08
0.00951586
-1.48404e-06
-3.69078e-09
-7.49242e-06
6.4063e-06
2.60261e-06
5.57209e-09
-0.00273893
-1.78983e-08
-0.0015321
1.3834e-06
-4.46774e-10
-0.00322447
-2.17254e-07
2.16901e-07
-0.00183374
-6.56722e-07
-8.67674e-07
4.20787e-07
6.5185e-06
-6.18944e-09
-3.31752e-05
-6.74585e-08
-0.0216962
-1.96068e-07
6.34629e-08
3.06496e-08
3.19275e-08
-3.71887e-07
1.65996e-06
2.80441e-06
5.94329e-08
6.18389e-08
-3.42187e-07
1.75739e-07
3.16862e-05
-4.67534e-05
-6.49897e-07
0.00114623
5.39234e-08
0.000134565
1.33899e-07
-3.58414e-08
-2.50092e-08
-3.04839e-08
-3.16426e-06
-1.59703e-08
6.49345e-08
4.83715e-07
-2.36442e-07
7.09032e-06
6.65477e-08
-6.47225e-09
-0.000932789
-0.000594271
-0.00177632
3.27237e-07
0.00678838
1.85025e-07
1.92768e-06
-0.00118536
1.05955e-08
-0.0107197
-9.60517e-08
9.94081e-09
0.000170763
2.52303e-08
-3.65496e-08
-0.00355569
1.33731e-08
3.38596e-08
5.14535e-06
2.75053e-05
8.37915e-08
-2.11567e-07
-6.96767e-06
-2.28044e-08
2.25912e-07
-7.67238e-08
-5.45511e-06
-0.00125711
-5.03158e-07
-9.78042e-08
4.94748e-08
-7.2973e-08
-1.38563e-08
-1.12083e-08
-0.00228729
3.54095e-05
1.09264e-07
-8.60125e-07
1.47835e-08
1.99278e-08
-3.18521e-07
-1.72083e-08
-0.00569494
-1.23772e-06
5.01625e-08
5.13977e-07
-1.69561e-08
-3.90219e-05
9.31215e-05
-0.00195342
-1.8787e-07
-6.40685e-08
-8.79795e-07
2.63624e-05
-0.0498311
1.70722e-05
-0.00943615
8.91506e-06
-4.63841e-08
-5.9084e-07
-9.4287e-09
3.25037e-07
-2.07062e-08
6.53945e-06
2.1885e-06
0.00427676
-2.70424e-08
-2.10105e-09
-3.17604e-08
-0.000315572
-3.55068e-08
0.0103306
-1.67427e-06
1.32152e-08
5.71772e-06
-4.20816e-08
-6.18589e-06
8.63127e-07
9.1467e-08
-3.27822e-09
3.14655e-07
1.12607e-06
1.88245e-05
8.02873e-07
-1.76799e-07
5.34474e-07
9.03347e-10
-7.6034e-09
3.99082e-07
-0.0105974
-0.000214563
-3.41786e-08
-5.50265e-06
-4.62335e-07
1.45876e-08
6.21236e-06
4.69509e-08
1.45755e-07
1.11323e-07
2.71809e-08
-2.36455e-08
-3.44499e-07
3.04642e-06
0.00804226
-1.0881e-06
2.96104e-06
-6.9132e-09
1.49338e-08
-1.65218e-08
2.648e-08
2.41835e-08
-9.52655e-07
-1.8413e-07
-4.79978e-05
6.90603e-09
9.09486e-09
-2.57939e-07
4.36301e-06
-9.42533e-09
-3.14334e-07
-0.00340406
4.26674e-06
2.34918e-08
4.49471e-08
4.56874e-07
-5.8179e-09
1.51967e-08
-1.2566e-08
1.93513e-06
-3.70965e-09
9.9878e-08
1.05466e-06
-1.22716e-07
7.41759e-08
-0.00273785
2.21078e-08
2.7259e-08
-1.26857e-06
1.78218e-08
7.98609e-09
-2.15872e-08
1.33861e-05
-1.56173e-08
7.68314e-09
-0.00968828
-7.68586e-09
7.46395e-09
-0.00136144
1.75972e-08
9.88582e-06
6.18007e-08
-2.50403e-08
-0.00130237
2.37524e-07
-0.00076908
0.00430119
-0.00148724
-2.99274e-08
1.04543e-05
3.11061e-08
3.46262e-06
3.15149e-08
-3.54e-06
4.26651e-08
7.8725e-06
4.85623e-05
-2.94838e-05
3.75113e-07
-3.5145e-08
3.66638e-08
-1.21381e-08
-4.50475e-07
4.06587e-07
4.45183e-08
0.000231064
3.09879e-06
0.0356355
-2.70862e-07
-7.65685e-09
-0.0556345
1.3241e-06
1.99699e-07
1.5005e-08
-6.14239e-05
6.90828e-09
9.92069e-09
0.00386819
3.0124e-08
-3.39874e-08
6.99733e-09
-6.66345e-09
1.46843e-08
-0.000842101
0.00150291
8.11134e-08
-1.72696e-06
-1.20792e-08
1.03596e-06
-6.17168e-08
8.3335e-06
-2.68118e-08
9.8997e-07
-9.65236e-08
9.9958e-09
-8.60628e-08
0.00881685
-1.61809e-06
-2.526e-08
1.4446e-06
-1.17951e-07
-4.53337e-07
-0.00161393
2.68005e-07
3.5727e-06
9.05783e-08
-7.5488e-05
3.15577e-09
-1.32517e-05
1.72672e-06
-3.32252e-08
2.73393e-06
-2.56818e-08
1.04994e-08
-2.1611e-07
7.9274e-07
0.000610042
-1.01376e-08
1.21894e-07
1.11778e-07
-1.23002e-05
-2.75396e-08
4.38745e-07
-2.50276e-10
-3.14107e-07
2.53739e-07
5.92854e-07
-3.22687e-07
1.2325e-05
2.87455e-08
7.00171e-09
-4.26073e-06
-1.69231e-07
2.81145e-08
1.39043e-08
9.50194e-08
2.59676e-08
-5.52041e-09
-6.85789e-09
1.20847e-07
-0.0013562
2.39732e-08
9.40436e-06
4.86149e-07
-7.05542e-09
3.65279e-08
-5.94929e-08
-3.01536e-08
0.00523904
2.85707e-06
-1.65452e-07
2.25257e-06
-2.33799e-06
2.59547e-08
1.95264e-08
4.65398e-08
9.53283e-08
-0.0072751
-0.000151305
-0.00233702
-0.0171572
1.83786e-08
-0.00682654
-0.00163456
-2.08623e-08
-7.0861e-08
-1.54219e-05
-2.98109e-05
-0.0177247
-0.00737635
-2.27813e-08
-2.42934e-08
-7.00049e-07
-1.01573e-05
0.00369604
-2.78406e-06
0.0252174
4.52662e-08
-1.07772e-05
-3.1645e-08
3.8162e-08
-3.89411e-08
4.20864e-06
-4.47261e-08
-1.18815e-05
-2.70829e-06
-2.23059e-07
7.07923e-08
-2.27509e-08
-5.31988e-06
0.00870598
3.98294e-06
0.000345093
-6.88853e-07
-2.95382e-08
2.36736e-08
1.37996e-08
6.99456e-07
-1.22497e-05
3.33362e-08
-3.92206e-07
-1.1905e-08
2.07842e-06
6.35889e-06
-0.000222893
-9.44596e-08
-3.32338e-08
3.67475e-05
2.7238e-08
-0.000543037
1.37571e-07
-1.98382e-08
-3.42863e-08
2.26245e-08
-0.000226025
-1.16772e-08
0.00382508
2.74702e-08
-1.05542e-08
-1.48818e-08
0.0103143
-1.07699e-07
0.00506108
-9.5317e-07
-7.81303e-09
4.12727e-06
-1.61937e-07
-2.70116e-08
-1.12597e-08
-3.88163e-08
-1.80574e-07
-0.00145857
-2.65043e-06
8.84914e-09
4.25154e-08
-2.94283e-08
4.37368e-08
-1.07425e-08
-3.64698e-08
9.23389e-07
1.24695e-07
1.52258e-08
1.14267e-07
7.81862e-10
2.50995e-08
-4.80167e-08
-4.40249e-08
8.34756e-08
-1.38725e-06
-1.62353e-08
-2.33024e-07
5.96995e-06
5.19923e-09
1.92723e-08
7.74025e-07
0.000886963
2.37615e-08
8.32645e-09
2.25513e-06
-4.57136e-07
1.40555e-08
-5.34929e-09
2.15052e-05
-1.44681e-07
-7.55412e-07
-2.34939e-08
-1.47045e-08
-4.27332e-08
-2.33093e-06
3.51196e-08
2.30268e-06
-2.79467e-08
-2.52396e-07
0.00741664
-3.43134e-08
1.04074e-05
2.26994e-08
-4.86948e-08
-7.37179e-07
7.41107e-08
-2.29189e-08
0.00382503
-0.00131077
-0.00155639
2.51902e-08
2.5117e-07
-1.79199e-08
-0.00193075
6.38349e-06
-8.67282e-08
5.75059e-06
2.3677e-08
-3.85534e-08
5.1906e-07
-3.58602e-08
3.00882e-07
-9.36865e-08
-5.43204e-07
3.13325e-06
3.0016e-08
-1.45777e-08
-0.00354166
2.36722e-08
-4.49895e-09
1.25579e-06
8.29331e-09
-1.09685e-05
-1.24239e-05
-0.00406814
5.47218e-08
1.03277e-07
-4.25607e-09
-3.3364e-09
9.64754e-07
3.06556e-08
-6.93941e-08
-1.6438e-08
-2.41036e-08
5.69107e-07
2.81907e-06
3.37352e-08
-2.81477e-08
7.56506e-07
-4.42821e-07
2.65489e-08
-0.00351885
1.89077e-07
1.39024e-08
-7.32503e-09
-2.88539e-08
1.86649e-08
6.03223e-08
-3.51449e-07
-0.00113119
-1.99967e-07
2.93723e-08
1.41013e-07
8.77172e-07
5.72894e-07
1.065e-06
-2.19498e-09
1.00252e-08
7.36715e-08
8.2867e-09
-1.7091e-06
1.14523e-08
-2.46218e-08
-2.89326e-08
9.81905e-06
3.21051e-07
-2.0932e-08
-1.8961e-09
-2.76485e-06
7.56829e-07
-5.87259e-06
-1.7864e-07
6.19339e-06
4.38281e-07
-1.62541e-08
3.68604e-08
-7.32491e-09
7.23436e-09
-3.09348e-07
0.000117043
-1.18936e-07
-2.8958e-08
0.00026715
9.16137e-07
-2.97837e-08
-1.86936e-07
0.00385833
7.19809e-07
-3.03475e-08
8.39569e-07
1.06573e-08
-0.00177762
-2.44006e-05
5.76874e-08
-0.00128868
-3.42597e-09
4.9326e-08
1.82364e-07
-5.46562e-07
1.8754e-06
1.22578e-08
2.79511e-07
-0.00431699
-7.96249e-07
-1.21128e-08
-0.00284499
5.55263e-08
-2.66021e-08
5.35897e-08
1.16595e-06
1.57974e-07
-3.70518e-06
-1.04725e-06
-1.12773e-06
0.00368567
-0.00126812
2.71927e-06
0.00117703
6.13804e-08
2.16122e-07
3.74092e-08
-2.42261e-08
1.18879e-07
-0.00182815
-2.59349e-08
6.67654e-06
0.0181054
-0.00367332
-0.00541837
5.95197e-08
-2.9733e-07
-1.70481e-08
6.42681e-06
-2.13647e-08
0.0114988
-4.12702e-08
5.14712e-08
-0.00729156
1.75059e-08
1.71304e-06
-1.26569e-05
5.03896e-07
3.68623e-08
-0.00338775
-1.39589e-06
3.82628e-08
4.90727e-08
0.000939248
-2.11894e-08
2.65342e-08
0.0280084
3.85622e-07
-5.02163e-08
-0.00678764
-2.08521e-08
0.000855722
-4.09612e-06
3.66061e-08
3.55838e-06
-9.82696e-09
-1.29027e-08
-1.83284e-07
2.53035e-08
-1.85651e-05
-1.13276e-05
2.83865e-08
-2.48381e-08
1.63897e-08
0.00108172
9.34947e-09
-2.52023e-08
-0.00559013
-1.78763e-08
1.62209e-07
9.89227e-05
-1.65641e-07
3.23059e-07
1.30584e-08
-0.000693244
-4.37435e-05
1.35032e-06
9.6901e-08
-1.42636e-06
1.03826e-07
-2.59244e-06
-4.48057e-05
0.000560254
6.23154e-06
-1.64573e-07
-6.96202e-08
-2.66067e-06
-9.01543e-08
-0.00201517
2.28441e-08
-5.15054e-07
-0.0015908
6.38252e-06
-8.33541e-06
3.60331e-08
-0.00345122
6.08355e-08
-1.22763e-06
3.75018e-06
-3.17285e-07
8.96327e-08
-3.16476e-08
-9.89964e-05
-2.59678e-08
-0.00698153
7.12562e-08
-1.73436e-08
-1.48406e-09
-7.24661e-09
-3.33641e-07
3.42316e-08
-0.0021547
5.4097e-08
-0.00876614
-1.21593e-08
1.11757e-07
-3.15807e-08
6.35774e-08
0.00143912
-5.77995e-08
-7.91802e-09
-0.0517061
7.64529e-07
0.00408163
-1.08808e-08
-0.00131032
0.0380686
-0.00730664
2.7634e-08
-2.4527e-09
6.36767e-05
-3.50224e-06
-1.26358e-08
-2.98529e-08
0.000607068
-2.98244e-08
-1.0974e-08
-1.90816e-06
-3.82227e-07
-6.37705e-08
-2.36591e-08
0.0228013
5.05342e-08
-2.25361e-08
3.19946e-08
-2.14322e-08
0.00449825
3.17427e-08
-4.29755e-08
6.08252e-06
9.84901e-08
-7.84775e-09
4.74174e-08
-1.11541e-08
5.99252e-09
6.67162e-09
0.00376281
-2.75653e-06
-0.00605638
9.15777e-09
-8.96645e-09
8.16888e-09
-2.33928e-06
-2.74514e-06
5.7452e-07
-1.0314e-06
4.19146e-08
-1.4259e-07
9.14675e-06
-1.83504e-08
8.93925e-08
8.64368e-08
-2.56113e-08
1.40436e-08
0.00687943
2.31953e-07
5.17472e-06
2.8719e-08
-3.20953e-06
0.000650899
2.65921e-07
4.96903e-07
-1.22658e-06
1.22296e-07
1.49137e-06
-3.84317e-07
6.58907e-07
-0.00347506
1.92708e-06
-1.86094e-08
-2.75395e-07
-0.00191817
-0.00172052
3.88407e-05
-2.12785e-07
-0.000630457
4.72587e-07
1.2913e-08
1.20177e-08
0.00204992
0.000669342
1.54196e-06
7.99093e-05
3.79031e-08
6.19813e-06
-0.00165493
-0.00182506
-0.0071712
-1.51284e-08
-0.00221416
-5.15637e-06
-2.53876e-08
-1.46137e-06
3.17403e-07
-6.26856e-07
2.08393e-08
1.32937e-07
7.89093e-07
-6.24174e-09
-1.27161e-06
7.1799e-07
-5.0697e-05
-3.65167e-08
-4.04924e-08
3.9063e-08
6.82511e-06
-1.72689e-05
6.7047e-09
-1.21731e-05
9.23971e-07
0.00163623
3.62282e-07
1.09672e-08
0.000147153
2.45983e-08
-0.00605517
6.68615e-07
-1.00931e-07
-5.51655e-09
5.31416e-06
-1.55921e-08
3.43835e-05
7.68593e-09
-0.00178438
2.57576e-08
-3.15616e-08
2.82797e-05
2.07361e-06
4.43747e-08
9.23128e-09
-2.26138e-05
-3.27117e-06
6.00063e-05
3.41074e-08
-0.0011502
-3.16747e-08
1.68104e-07
1.10491e-08
-3.04157e-09
8.93525e-08
0.00162368
9.5893e-06
-0.00681349
1.54361e-08
-2.76043e-07
-3.71645e-08
4.93257e-06
4.13776e-07
-7.3851e-07
-1.95491e-07
0.00095431
-2.19729e-08
-0.00234134
2.71571e-08
1.13209e-08
-2.04253e-08
2.18832e-08
1.812e-07
-1.7119e-08
1.82395e-06
-4.17346e-08
0.00126026
5.99379e-06
0.00882976
2.01376e-07
-1.15011e-07
-2.91723e-07