/*--------------------------------*- C++ -*----------------------------------*\
| =========                 |                                                 |
| \\      /  F ield         | OpenFOAM: The Open Source CFD Toolbox           |
|  \\    /   O peration     | Version:  v2012                                 |
|   \\  /    A nd           | Website:  www.openfoam.com                      |
|    \\/     M anipulation  |                                                 |
\*---------------------------------------------------------------------------*/
FoamFile
{
    version     2.0;
    format      ascii;
    class       surfaceScalarField;
    location    "100";
    object      ddtCorrDdt0(phi);
}
// * * * * * * * * * * * * * * * * * * * * * * * * * * * * * * * * * * * * * //

dimensions      [0 3 -2 0 0 0 0];
oriented        oriented;


internalField   nonuniform List<scalar> 
56329
(
3.12866e-05
-1.58057e-05
-1.54814e-05
0.000753815
-0.000585841
-0.000167971
8.30348e-05
-9.91896e-05
1.61612e-05
-0.0017976
-0.000135366
0.00193297
-2.82028e-05
4.66997e-05
-1.85001e-05
-1.61102e-05
1.62067e-05
-9.58521e-08
2.60297e-05
-2.19464e-05
-4.0836e-06
-0.00406506
0.00627301
-0.00220852
-7.88853e-05
2.46776e-05
5.4207e-05
-0.000387523
0.000415902
-2.83767e-05
0.000577502
-0.00135217
0.000774672
-0.00015385
2.8267e-05
0.000125655
-9.78652e-05
7.84882e-06
9.00184e-05
0.000393287
-0.000553546
0.000160249
5.69687e-05
3.09981e-05
-8.7966e-05
5.42409e-05
-4.53645e-05
-8.87554e-06
-3.67599e-06
-1.58698e-06
5.26291e-06
-0.000902788
0.00149584
-0.000593004
-2.15072e-05
-0.00013235
-6.57137e-05
2.20979e-05
4.36179e-05
4.24298e-05
1.18091e-05
0.00359044
-0.000179227
-0.00341089
0.0539489
-0.0590192
0.00507027
-4.23178e-05
0.000782089
-0.000739771
-0.00028351
-0.000230811
0.000514328
1.4297e-05
7.00783e-06
-2.13019e-05
9.96227e-05
-7.50818e-05
-2.4545e-05
-0.000679576
0.00112977
-0.000450126
-0.000320085
0.000166678
0.000153411
-2.45794e-05
3.52332e-05
-1.06539e-05
-0.00157625
0.00175689
-0.000180636
0.00024168
-0.000493824
0.000252159
-1.49044e-05
1.21843e-05
2.72049e-06
0.00746497
0.00410113
-0.0115663
-0.000126562
3.59045e-05
9.06557e-05
-2.30874e-06
-0.000277257
-1.49172e-05
0.00029217
-0.00118016
-0.000525919
0.001706
-0.0242739
0.0224612
0.00181266
-1.56147e-05
6.23925e-05
-4.67779e-05
-8.09748e-05
6.11747e-05
1.98e-05
-0.0147407
0.0188621
-0.00412138
5.9404e-05
-1.90721e-05
-4.03365e-05
-0.000408228
0.000504105
-9.58786e-05
1.29641e-06
1.55773e-05
-1.68741e-05
6.07791e-06
0.000100552
-0.000106628
1.39766e-05
2.03391e-05
-3.43191e-05
-7.47125e-05
-0.000103175
0.000177887
2.38431e-05
6.20642e-07
-2.44672e-05
-0.00127193
0.00273786
-0.00146592
0.00125975
-0.000659843
-0.000599866
0.0795653
-0.00766171
-0.0719033
0.0176813
-0.0102163
-0.00623615
0.0103372
-7.55037e-05
-5.10479e-05
8.08289e-05
-6.59041e-06
-7.42387e-05
-0.000675596
-0.00077947
0.00145508
-8.50863e-05
0.000116327
-3.12574e-05
0.000602134
-0.00222577
0.00162362
-5.72898e-05
-0.000539746
0.00059702
0.000116658
-0.000110582
-0.000212715
-9.60902e-05
0.000308804
0.000138883
-0.00193645
6.94327e-05
-0.000477659
-0.000422932
-0.000367105
0.000790033
0.000105306
-4.83385e-05
0.000292832
0.000460982
-1.62894e-05
0.000707253
-0.000690981
0.00018868
-0.000403941
0.000215262
0.00442493
-0.00141101
-0.00301392
9.00966e-05
-9.26782e-06
8.25404e-06
-1.52387e-05
6.9827e-06
0.0134574
0.066108
-0.000699803
0.000728737
5.08706e-06
-2.53282e-06
-2.55484e-06
0.00238988
0.0125309
-0.0149208
-0.00253739
0.00126546
7.54018e-06
-1.57057e-05
8.16615e-06
-5.1412e-05
1.65071e-05
3.49036e-05
1.47148e-05
-6.06855e-06
-8.64634e-06
-0.000458868
0.000528304
-0.00162378
0.000721039
1.90709e-05
-6.70812e-07
-1.84041e-05
0.0087708
0.00891053
-0.00356341
0.017902
-0.0143387
0.000170148
-9.96142e-05
-7.0537e-05
0.000580202
0.0005822
-0.000393516
-0.000360171
8.29076e-05
1.90624e-05
-4.7606e-06
0.000122903
0.000100768
-0.000223714
-0.000111833
0.000159542
-4.77052e-05
5.09771e-07
4.57707e-06
-0.000277309
6.45948e-05
-2.50896e-05
1.50523e-05
1.00362e-05
-0.000179953
0.000455256
-0.000275319
-1.54539e-05
-9.63623e-06
-7.88384e-06
9.34818e-06
-0.00049215
0.000208618
-3.22581e-05
2.64998e-05
5.75879e-06
0.000868551
-0.00154414
-1.42368e-05
3.60677e-05
-2.18298e-05
0.000208789
-0.000631724
0.0116953
-0.0152586
-0.000129521
-1.37251e-05
0.00014324
0.00317667
0.000414074
1.9703e-05
-1.48204e-05
-4.88328e-06
0.00455597
-0.00869632
0.00414042
0.0575227
0.015612
-0.0731352
-4.87556e-05
3.34661e-06
4.54096e-05
-0.00067334
-2.6472e-05
-0.00125093
0.00166662
-0.000415645
-5.06928e-05
3.50765e-05
0.000400961
-0.00052246
0.00012147
0.000210759
-0.00146168
-9.59548e-05
6.81548e-05
2.77989e-05
1.19868e-05
2.4728e-05
-3.67149e-05
0.00361076
0.0366563
-0.0402669
2.36325e-05
-2.63218e-05
2.68842e-06
0.0133414
-0.0212809
0.00793943
-0.0040009
0.00200482
0.00199606
0.000625171
0.00239511
-0.00302027
-1.41381e-05
1.54336e-05
5.50389e-05
1.02217e-06
-5.60635e-05
0.00547204
-0.0113226
0.00585061
-7.54897e-06
1.83981e-05
-1.08496e-05
-2.12416e-05
6.86412e-05
-4.73981e-05
4.33429e-05
-1.74628e-05
-2.58817e-05
3.45718e-05
-1.93374e-05
-1.52348e-05
-8.70134e-05
8.50234e-05
1.98658e-06
5.85358e-05
4.67699e-05
-4.95209e-05
-4.83429e-05
3.992e-06
5.10443e-05
-1.895e-05
1.14005e-05
1.25183e-05
-2.94665e-05
1.69461e-05
-0.00050341
0.000695858
-0.000192449
0.0118113
-0.00633924
-0.000529739
7.61494e-05
0.000453579
-6.60481e-05
1.07482e-05
5.53009e-05
-0.000176065
0.000154596
0.00478593
-0.0195266
0.000602163
-0.000208878
2.29702e-05
-2.26942e-05
-2.75019e-07
1.98416e-05
1.47298e-05
-3.20912e-05
7.8292e-06
2.42627e-05
-2.58401e-05
-0.000150212
-4.72108e-05
-6.17469e-05
0.000108953
-1.34218e-05
3.958e-05
-2.61585e-05
-7.42634e-06
-1.15237e-05
-0.000509344
0.0013761
-0.000866758
2.47146e-05
-1.74462e-06
1.04646e-05
-1.35252e-05
3.05996e-06
0.00148783
-0.000353465
-0.00113437
2.99207e-05
-0.00127876
-0.000297491
-1.9358e-05
1.19312e-05
0.0126184
0.0182046
-0.0308229
1.83282e-05
-4.97991e-06
-1.33481e-05
-2.42748e-05
1.06804e-05
1.35938e-05
-9.56671e-06
1.35762e-05
-4.01028e-06
-0.00322045
0.00226984
0.000950655
0.000505206
-0.000263513
3.45552e-05
-5.61161e-06
-2.89467e-05
2.22725e-05
1.73068e-05
0.000754761
-0.000715685
-3.908e-05
-1.2909e-05
3.34231e-06
-0.0073767
-0.0142594
0.0216361
-7.59672e-05
5.47248e-05
0.0553134
-0.0700836
0.0147701
-1.6883e-05
7.72687e-07
-0.00114828
0.00315547
-0.00200719
-4.19679e-06
-1.74971e-05
2.16899e-05
2.2722e-05
9.09356e-07
0.000510407
9.17498e-05
4.34836e-05
-4.24635e-05
-3.47725e-05
-4.41131e-05
-2.31648e-05
7.10708e-05
-4.79076e-05
0.000792335
0.000814163
-0.00160647
2.64697e-05
-1.39532e-05
-0.000200436
7.49718e-05
0.000125463
0.0121367
0.00672535
3.26895e-05
5.84099e-06
-3.8532e-05
-0.000115812
-8.46245e-05
4.00414e-05
9.58999e-06
-4.96321e-05
9.78576e-07
-2.07938e-05
1.98153e-05
-0.000259408
-0.000220644
0.000480032
-2.3027e-05
1.88293e-05
-0.000401984
-0.00012775
-0.000258335
0.00127697
-0.00101863
-0.0627979
-0.0172162
0.000537206
0.000133099
-0.000670305
-3.21826e-05
-3.35336e-05
0.00632834
-0.00656503
0.000236558
1.53898e-05
-8.84027e-06
-6.54986e-06
1.93071e-05
-1.98033e-05
4.93765e-07
-3.70764e-06
2.30135e-05
7.15184e-05
0.00141631
0.000121401
4.87458e-05
0.000511708
-0.00117153
0.0133718
-0.0761697
-0.000439841
-1.9023e-05
-3.7783e-05
5.14455e-06
3.26418e-05
-0.000388271
-0.00035162
0.000739879
-8.66764e-06
0.00012533
-3.74197e-05
-1.71198e-05
-7.15461e-06
5.01575e-05
-0.00032706
0.000276884
1.12121e-05
-2.35924e-05
1.23789e-05
-0.00153277
0.000616205
0.000916541
0.0203079
-0.0136841
-0.00662379
0.00668404
-0.00701165
0.00032745
-0.00405845
-0.000301411
0.00435989
0.00158957
-4.13387e-06
4.57544e-07
7.65936e-06
1.06689e-05
-0.0450788
0.0486893
0.000954807
-0.000852139
-0.000102666
1.705e-05
-0.0154425
0.00015204
-0.000323392
0.000171353
-7.95259e-06
-2.98311e-05
0.000128641
-0.000137299
2.10174e-05
-2.01341e-05
-8.82969e-07
9.84077e-07
4.97488e-07
-1.48144e-06
0.000116557
0.000838253
9.06289e-06
-2.17986e-05
1.27351e-05
-0.000262301
-0.00041561
0.000677906
2.17943e-05
-1.56763e-05
-6.11794e-06
-0.00143175
0.00109985
0.000331847
-1.48391e-06
3.43622e-05
-3.28797e-05
-4.4112e-05
3.61603e-05
6.98475e-06
-6.98495e-06
3.33142e-05
-2.81724e-05
-0.000755376
0.000231674
-0.00301281
0.00278115
0.000576238
2.11691e-05
-0.000597475
1.94471e-05
1.5709e-06
5.41376e-05
0.000156704
-0.000210846
1.07627e-05
-1.20131e-05
1.25037e-06
-0.000208778
0.000745985
3.07862e-06
-8.18092e-07
-2.26074e-06
-0.00574171
0.0174372
-0.000357217
0.000177266
-0.000183488
0.000426811
-0.000243318
-8.29504e-05
-4.06255e-06
-0.00069458
2.12495e-05
0.00835848
-0.0141001
-0.000452078
0.000219847
0.000232212
0.000395111
-0.000154725
-0.000240389
-4.68353e-06
3.6702e-05
-3.2019e-05
2.18413e-05
-1.27772e-05
-0.00017407
-0.000103241
-0.00262684
-0.00059357
2.70059e-05
9.71992e-06
-3.6726e-05
-5.51727e-08
4.00969e-05
-0.00109106
0.00131609
-0.000225036
5.00439e-05
-2.33955e-05
-2.6648e-05
-0.00033779
0.000479863
-0.000142076
2.41192e-05
-0.000179931
0.00014006
3.98707e-05
5.04982e-05
-7.36634e-05
-0.000610502
0.000272711
-1.43149e-05
-0.000110008
0.000124312
0.00099575
-0.00153789
0.000542203
8.18166e-05
-7.138e-05
-1.04301e-05
0.00121876
-0.00109713
-0.000121627
0.00839748
-0.00171339
1.72869e-05
-9.74654e-06
-3.97786e-05
-9.55731e-05
0.000135352
5.91659e-05
-1.73173e-06
-5.74349e-05
-3.67556e-05
-3.20617e-05
6.88184e-05
-0.000116278
-6.36526e-05
-0.00457499
0.00186661
0.00270836
0.000838464
-0.000501299
-0.000337158
-0.000628014
6.15406e-05
-0.000136257
-5.85365e-05
1.31697e-05
-1.70998e-05
-1.49744e-06
1.85978e-05
-9.93908e-06
0.000717186
-0.000683336
-2.76176e-05
-2.84531e-06
3.04622e-05
0.00106095
-0.000832993
-0.000227946
0.00284812
0.0202878
-0.0231359
-0.0150285
0.00494685
0.0100817
2.33586e-05
2.66845e-05
-0.000312837
0.000889038
-0.000251513
7.74414e-05
1.14531e-05
1.95753e-05
-3.10283e-05
-0.0161347
3.3314e-05
-8.65568e-05
5.32413e-05
3.41186e-05
-7.11171e-06
0.0141693
-0.00612787
-0.00804143
0.000296008
-0.000376156
8.02363e-05
-0.000399207
1.1687e-05
-2.31994e-05
3.46519e-05
0.000380161
0.000351889
-0.000732079
2.44158e-05
8.93746e-06
-3.33535e-05
-1.22805e-05
3.66944e-05
0.00190688
0.00343635
-0.00534321
0.00447381
0.0158341
-7.81767e-06
4.0506e-05
-4.75934e-05
-1.09447e-05
-0.000245239
-7.48591e-05
4.46154e-06
3.0093e-05
-0.000122809
0.000277886
-0.000155076
-2.98869e-05
3.8824e-05
-3.15917e-06
1.14128e-05
-8.39302e-05
-1.35953e-05
9.75215e-05
0.00301504
-0.0045257
0.00151066
-0.00011395
-0.000417886
0.000531832
6.97327e-05
1.20823e-05
-7.32463e-07
0.00451224
-0.00860452
0.00409226
0.000301643
-0.000316558
-2.68046e-05
1.76063e-05
9.19645e-06
-0.00762846
-0.0037756
0.0114041
-2.26489e-05
6.93189e-07
2.19552e-05
0.015775
-0.0150227
-0.000752447
0.00783324
-0.00332099
-0.000597098
0.000483151
0.00513855
0.00903071
0.0010329
0.000633745
-0.00104137
-0.000390401
0.000592243
-0.000268382
-0.000323889
8.56603e-06
2.75015e-05
7.65867e-05
-0.000132275
5.56915e-05
0.000177321
0.000500372
-0.000677674
-2.25456e-05
1.39882e-05
8.55547e-06
-0.000140607
9.33964e-05
0.00162934
-0.000588108
-0.00104123
0.000622859
0.00100648
0.00154977
-0.000449932
-3.53401e-05
9.29654e-06
2.60418e-05
2.03053e-05
-3.02763e-06
-1.72782e-05
-4.77444e-05
5.17359e-05
-2.30365e-05
2.50172e-05
-1.98179e-06
-0.00343117
-0.000185512
0.0036167
-4.11795e-05
0.0005105
-0.000469329
2.01556e-05
-9.7742e-05
7.75906e-05
-0.000161516
0.00138027
-1.78991e-05
-8.9065e-06
-0.000432905
0.000265109
0.000167815
0.000377497
0.0005504
-0.000927987
4.73362e-05
2.99131e-05
-7.72515e-05
6.56857e-06
-7.39409e-05
6.73696e-05
-0.000180348
-0.000271725
0.000667813
-0.000662734
-5.09086e-06
-4.54457e-05
0.000122033
-9.4353e-05
9.27045e-06
0.00125443
-0.000467257
-0.000787174
-7.04342e-05
0.000105426
-3.49952e-05
-2.21571e-06
2.60561e-05
0.000665328
-0.000675283
-3.56191e-06
-8.79879e-05
9.15477e-05
4.52061e-05
-5.55063e-05
1.02976e-05
-4.76346e-05
3.44262e-05
1.32084e-05
0.000165912
0.000306606
-0.000472504
-0.0197248
0.0324168
-0.012692
0.000265813
-7.09698e-05
-0.000194843
5.04858e-05
-3.11477e-05
-1.93381e-05
0.0264062
-0.0298619
0.00345575
-0.000192305
0.000215661
-2.33526e-05
1.83056e-05
3.21797e-05
7.65862e-05
1.58529e-05
-9.24397e-05
0.000741177
1.35838e-05
-0.00017172
6.33086e-05
0.00010841
-0.00113693
-3.15613e-05
0.00116848
-0.000451491
-0.000528056
0.000979537
-5.74575e-06
1.90279e-05
-1.32825e-05
-0.00245976
0.00217236
0.000287394
-1.54155e-05
9.66967e-06
2.83445e-05
-3.39576e-05
-1.34762e-05
-5.88224e-06
0.000757414
0.00033109
-0.00108852
-9.67483e-05
0.00015
2.20754e-05
-3.43554e-05
-0.00187052
-0.00213038
0.000261295
-0.000520721
-8.14842e-05
-9.26149e-06
9.07446e-05
5.38665e-06
-5.38691e-06
0.030015
-0.0271668
-0.000532775
-0.000161823
-0.00327536
0.00518223
0.000103133
-1.65124e-05
-8.66255e-05
-2.03472e-06
1.24994e-05
-0.0177718
0.0258909
-0.00811899
0.0100332
-0.00233115
-0.00770202
-0.000324159
0.000478653
-0.000154509
-3.0697e-05
3.85061e-05
-7.81007e-06
-0.00255512
9.53555e-05
0.00225427
-0.00631951
0.00124765
-0.000582319
-0.000665334
-0.00247648
-0.00592153
0.00839798
2.72414e-05
3.69272e-05
-6.41703e-05
-3.34225e-07
-3.03631e-05
-3.72691e-05
6.45091e-05
-0.000136895
2.25509e-05
1.47246e-05
-3.72769e-05
5.84049e-06
-4.31092e-05
4.33022e-05
-2.32608e-05
-2.00408e-05
-0.000315789
0.000252898
6.28978e-05
-0.000467514
0.000205204
-0.000399575
0.000222861
0.000176702
0.000149999
0.00710648
0.0103829
-0.0174894
5.09795e-06
-2.96777e-05
2.26429e-05
0.000151302
-0.000173931
-0.00445582
-0.0182463
0.0227024
3.66159e-05
-3.21632e-05
-0.000259141
0.00044551
-0.000186369
0.000584364
-0.000750048
0.000165695
0.0028396
-0.00260792
-0.00505504
-0.0113849
0.01644
4.64537e-05
-7.18438e-06
-3.92716e-05
-1.8606e-05
4.11557e-05
0.000711809
-0.000201407
-0.000475227
2.14259e-05
0.000453816
0.0069895
-0.00267227
-0.00431729
4.20822e-05
1.90303e-05
-6.11167e-05
0.000113512
-5.69951e-05
-5.65192e-05
-3.60436e-05
3.45586e-05
-0.00605353
0.00844339
-0.00654865
0.0149242
-0.00837553
0.00026066
0.00157192
-0.00183257
-8.48765e-05
3.40112e-06
3.37673e-05
-2.81688e-05
-5.60029e-06
-1.62701e-05
-6.27798e-06
-4.34839e-05
8.55672e-05
-1.57345e-06
-0.000489344
0.000165176
-0.00470872
-0.00445978
0.00916847
-0.00267088
-0.00190412
0.000328073
-0.000228737
-9.93212e-05
-0.000124614
-0.000359794
0.000484401
-0.0012112
0.000690463
0.00052074
-0.000303661
-7.24974e-05
-0.000355429
0.00038183
-2.64023e-05
-0.00388011
0.0614026
0.000124434
0.000386222
-0.00159337
0.00120715
-4.93886e-06
-6.52781e-05
7.02148e-05
-1.18023e-06
3.82552e-07
7.98472e-07
-2.16703e-05
-1.90027e-05
3.72386e-05
-1.82373e-05
-2.23623e-05
8.42623e-05
-6.94318e-06
-1.69238e-05
2.38661e-05
-0.000257637
-0.000295921
-3.60505e-07
-1.26913e-05
1.30471e-05
8.43713e-05
-0.000222716
0.000138341
0.0110356
-0.0115836
0.000548001
3.32581e-05
-7.28726e-05
3.96162e-05
1.9612e-05
-0.000103544
1.61874e-05
-3.28532e-05
1.66657e-05
1.69632e-05
9.0662e-06
-0.000337414
0.000611711
-0.000274308
-5.0885e-05
2.25135e-05
2.83705e-05
6.12727e-05
0.000266801
0.000444632
-0.000514906
7.02691e-05
0.000103742
-8.35842e-05
-0.0109448
-3.39955e-05
0.00011058
0.000101053
-1.29113e-05
-8.8143e-05
0.00695925
0.0081854
-0.0151446
-8.089e-06
2.31564e-06
5.77401e-06
-9.10962e-06
0.000112242
-0.00119376
0.000742264
-0.00142997
-0.00189902
0.00332901
0.00363565
0.001409
-0.00504465
1.37097e-05
-2.06532e-05
0.000538501
-0.00171868
-0.000670319
0.00124782
0.000333212
-0.000283065
-1.22774e-05
1.19142e-05
-2.22981e-05
3.6273e-05
0.0339137
0.0525437
-0.0864575
-0.0080878
0.00773789
0.000349957
5.49289e-05
-5.98674e-05
-6.01511e-05
1.58356e-05
4.43164e-05
-0.018852
0.0123034
-7.47436e-05
0.000454874
-1.37143e-05
4.22646e-05
-2.85502e-05
0.000583439
0.00820044
-0.00878387
5.03432e-08
-1.71498e-05
-0.000307148
0.000174905
0.000132263
-0.000400766
2.87441e-05
0.00037202
3.92885e-05
-3.32086e-05
-6.07868e-06
0.000865647
-0.000880556
1.4903e-05
-2.47859e-05
2.09139e-06
-1.8586e-05
3.47738e-05
0.000337334
-0.000412097
0.065118
-0.0155072
-0.0496107
2.08361e-05
-9.62435e-06
3.12769e-05
-6.80305e-05
-1.46926e-06
1.5179e-05
1.24936e-05
-3.72167e-05
2.47209e-05
-0.000567768
0.000377839
0.000189716
-0.00157611
0.000301432
0.00127464
-1.54674e-06
3.0002e-05
-2.84564e-05
0.00330167
0.00143252
-0.00473422
0.00243497
-0.0105228
1.67738e-05
-5.05368e-05
3.37625e-05
-4.65293e-06
-2.69e-05
2.53527e-05
-0.000933533
-0.000617105
0.00155064
0.000482087
-1.11279e-05
-0.00047097
-0.00395255
0.00850862
0.0558594
0.00925883
3.49709e-05
7.85395e-05
-0.000374485
0.000317182
-2.75262e-05
-7.63513e-07
3.84213e-06
0.00998859
-0.00940514
2.95876e-05
-0.00134245
0.000251382
0.00599946
-0.0161819
0.0101825
-0.00291067
0.0329255
0.000637788
0.000423168
1.35089e-05
7.21995e-07
-2.76227e-05
0.0002898
-0.000137761
0.0157444
3.05799e-05
-0.0047554
-0.00341853
0.00817394
-2.19917e-05
-4.33129e-06
0.0206765
-0.00733512
6.29991e-05
-0.000384689
0.000321696
1.32139e-05
2.60744e-05
0.00398843
-0.000973375
2.40136e-05
-3.50611e-06
-2.05079e-05
-0.000655187
-0.000556017
-6.28204e-05
-3.2293e-06
-0.0019592
-0.00243334
0.00439258
-4.80038e-06
-1.99862e-05
0.000586301
0.000661354
-0.000728863
0.00129851
-0.00056964
-0.000101424
-0.000230444
0.000331936
-2.57435e-05
2.64646e-05
-0.000132507
2.9839e-06
8.7999e-06
-3.88938e-05
3.00935e-05
-0.000335891
0.00021787
0.000118028
0.000547951
-6.58827e-05
-0.0122481
0.0182476
-0.000477445
-0.000438349
0.000915721
-0.00657585
0.00329357
0.00328225
0.000237965
0.00014321
-0.000381165
-3.30342e-05
-0.00011484
0.000147865
-0.003619
0.00160272
0.00201628
0.000921385
-5.08083e-05
-0.000870584
-0.000790301
-0.00318242
-0.00339343
-1.90093e-05
-1.34632e-05
3.24716e-05
0.000377098
-0.000242348
-0.00013474
0.00013346
0.000787923
-0.000363508
-3.72574e-05
-0.00921512
-0.000542504
-0.0014491
-0.000443151
0.00189225
-0.0172897
0.0220757
-0.000662245
0.000801398
-0.000139177
4.42699e-05
-8.71297e-06
-3.55568e-05
2.32207e-05
-9.48325e-07
-0.000335147
0.000501059
2.69218e-05
4.16974e-05
-6.86201e-05
-1.10904e-05
1.96738e-06
9.12209e-06
8.31799e-06
1.91473e-05
6.94049e-07
-0.000157123
0.000124089
0.00031723
-0.000161784
-0.000155438
-0.00256982
0.00319441
0.00263464
-0.0265198
0.0238853
0.00346721
-0.00029056
-4.45102e-05
2.32162e-05
2.12941e-05
6.75802e-05
-3.5946e-05
-3.16348e-05
0.0279329
-0.0124026
-0.0155303
-4.12733e-05
-1.01375e-05
-5.60786e-05
8.14823e-05
-2.54016e-05
-0.000584702
0.000632105
-4.73955e-05
0.0298956
-0.00196269
-2.94508e-05
-1.42719e-05
4.37228e-05
-3.45711e-05
-0.000249167
0.000213986
3.51804e-05
6.79715e-05
-5.57858e-06
0.00618886
-0.0138173
-0.000268308
0.000166902
-2.58087e-05
-2.48836e-05
0.000151285
-0.00576625
0.00309535
0.00275671
-0.00471598
-2.32912e-05
-2.86098e-05
3.30278e-05
-4.4189e-06
-0.00101887
0.000554286
1.9679e-05
-3.11804e-05
1.15011e-05
0.011367
-0.00250682
-0.00886015
0.00736115
0.00103632
-7.67679e-05
-0.000259121
0.000192461
-0.000138323
-3.17122e-06
4.02232e-05
-3.70543e-05
-0.00143606
0.000910133
-9.85222e-05
-0.000217262
0.000270997
0.00119055
-0.00146155
-4.6611e-06
0.000105715
1.3401e-05
-5.68842e-05
0.000143887
-0.000229631
8.57411e-05
-0.0130649
0.00800989
-0.000107625
-1.80518e-05
3.0721e-05
-1.26689e-05
-5.25232e-05
7.03413e-05
-1.78163e-05
-0.00447812
-0.00235887
0.00683698
0.00182468
-0.00156402
-9.73676e-05
9.38061e-05
5.37312e-06
3.12422e-05
-8.70132e-05
0.00451194
-0.000121681
-0.000115181
0.00023686
0.000666163
-0.000328819
-0.00116469
0.000435831
0.00892062
-0.0266925
5.29281e-07
-3.92825e-07
-1.36578e-07
0.000266346
0.000863449
0.00615465
0.000834785
-0.0175744
-0.0106461
0.0282205
0.00139148
-0.00154081
0.000149328
-0.000219038
-0.000843416
0.00106245
-0.000190012
-0.000117217
-1.23956e-05
5.45474e-09
1.23902e-05
-0.000122641
6.08912e-05
0.00420255
-0.0066791
0.00132156
0.000117294
-0.00143885
-1.27887e-05
4.09502e-05
-2.81611e-05
0.000335423
-0.000532067
0.000196642
-0.0578664
0.0734784
0.000152683
3.17259e-05
9.2959e-05
-0.000124689
7.93626e-05
0.000237861
-0.0318931
0.0133472
0.00101967
-0.000499611
-0.000520062
0.000721657
-0.000940693
-7.37069e-06
2.82455e-05
-2.08737e-05
0.000528721
-0.000578904
5.01857e-05
0.000176274
-0.000838532
-7.0103e-05
-3.33142e-07
0.00538474
0.000847752
-0.00623246
5.85608e-05
-1.20428e-05
-4.65201e-05
5.79192e-05
1.60657e-06
-5.95249e-05
8.91996e-06
4.96401e-05
0.000912957
0.00096459
-0.00187754
-0.00094707
0.00121809
-0.00114429
0.00193662
-0.00495452
0.00334528
0.00160925
-0.00113957
0.001246
-0.000106447
-0.0010654
6.44104e-05
-7.69124e-05
1.24981e-05
-0.00558721
0.00190915
0.00367806
0.00358868
-0.00120427
-0.00238441
-0.000191741
0.000245825
-5.40875e-05
2.80638e-05
-2.79854e-05
-7.87108e-08
1.26358e-05
5.76197e-06
0.00855038
0.00281656
-6.73921e-05
1.48671e-05
0.000789583
0.000338942
-0.00112852
7.61863e-05
-6.54099e-05
-1.07775e-05
-3.15033e-05
3.03476e-05
1.15417e-06
-3.89613e-05
2.61725e-05
-2.02209e-05
2.72908e-05
-7.0742e-06
-0.000464206
-0.00106857
1.73545e-05
2.8732e-05
-4.60868e-05
1.51843e-05
-5.52664e-06
-9.65921e-06
-8.59572e-06
-8.70631e-06
1.7302e-05
4.67444e-05
-0.000168422
-0.00524213
0.0045113
0.000730894
-0.000375109
0.00127491
6.29291e-05
-0.00133781
-2.69756e-05
-1.19809e-06
1.15781e-06
3.96715e-08
0.00202725
-0.00142512
-9.17094e-06
-2.97233e-05
6.50534e-05
-5.16535e-05
-0.0116695
0.018776
-2.19869e-05
2.26798e-05
-0.000412005
0.000411465
4.57913e-07
0.00199572
-0.00108276
-0.00597233
0.0179968
-0.0120244
0.000583407
-0.000625725
-7.37061e-06
5.41735e-06
1.95362e-06
2.00753e-05
3.80924e-06
-2.38873e-05
-2.88853e-05
2.15128e-05
-0.00017085
-2.08916e-05
-0.0698973
-0.0746619
1.18085e-05
-0.000375218
0.000116073
-2.64006e-05
3.26984e-05
-6.29893e-06
-0.00120016
0.000564558
0.000635579
7.00971e-05
-5.68561e-06
6.42011e-05
-2.36536e-05
-4.05493e-05
-7.48549e-06
1.15339e-07
0.0259963
-0.000817686
-0.0251786
-0.000415095
-0.000973765
0.00138884
-2.92164e-05
3.45834e-05
-0.000202718
0.0018826
-0.0016799
0.0290167
-0.0186096
-0.000418528
-0.000600311
8.57627e-08
0.000673737
0.00279357
-4.631e-05
3.65286e-05
9.78206e-06
0.00826644
-0.000905291
7.23032e-05
-3.2949e-05
2.49263e-05
-2.36683e-05
-1.25816e-06
1.01202e-05
6.60654e-05
-0.0280438
0.0235882
3.60128e-06
0.00030513
7.67009e-05
-2.98847e-05
4.1407e-06
-0.0174671
-0.014426
-0.0208813
0.071334
-0.0504527
0.0211751
-0.0185406
7.56266e-06
7.82673e-06
7.83669e-06
6.22577e-05
-7.01017e-05
2.42784e-05
-3.06792e-05
6.39583e-06
6.95883e-05
-1.16655e-05
-1.31376e-05
3.52123e-05
0.00807146
-0.00477788
-0.000584606
0.000793397
-1.81003e-05
-1.4157e-05
1.41825e-05
-3.00427e-05
1.58606e-05
4.3282e-05
0.00345411
-0.0207438
-0.000424869
-0.000169487
0.000594364
-0.00278105
-0.0029852
-0.00687916
0.00739085
-0.000511687
0.00018461
0.000648528
-0.000833139
4.53963e-05
2.56888e-05
-7.10899e-05
-2.29824e-05
2.92478e-05
-6.26566e-06
3.10077e-05
1.12562e-05
-0.000119346
-0.000309182
0.000428518
0.000532701
0.000752623
-0.00128533
9.9517e-06
-3.3887e-05
2.39338e-05
0.000919058
-0.00142841
-0.000191019
2.86707e-05
0.000162354
0.00298508
-0.00499168
0.0020066
2.85848e-05
3.56137e-05
-0.00101417
0.00100702
7.11182e-06
0.00264214
0.00812127
-0.0107634
0.000106851
3.69076e-05
-0.000143758
3.20766e-05
-3.2412e-05
-0.000354079
0.000192306
1.18614e-05
1.87368e-05
-3.05978e-05
-4.23814e-05
5.85274e-05
-1.61447e-05
-0.000134195
-0.00249621
0.0026305
-8.25592e-05
1.2491e-05
7.00661e-05
0.000152941
-0.000224486
7.15458e-05
-1.17157e-05
4.37915e-05
-0.0118883
-0.0123855
5.74624e-05
-6.97472e-05
1.22839e-05
-0.000192436
-0.000197158
0.000389593
-0.00136316
-0.000212976
0.00233927
-0.0082607
0.00376597
0.00430548
3.30606e-05
-2.1199e-05
-0.000510898
-7.371e-05
4.20701e-05
-2.85636e-05
-1.35074e-05
-3.24388e-05
4.82041e-06
-5.89226e-05
-2.92206e-05
8.81459e-05
-6.21646e-06
1.13462e-05
-5.13016e-06
-0.000237989
2.78179e-05
1.65887e-05
-4.44057e-05
-0.0175795
0.0301979
-0.00162659
-0.0175676
-0.0190937
2.08983e-05
-7.98197e-05
-3.7056e-06
0.000125765
-0.000122064
-0.000639926
0.000789914
-4.15303e-05
-8.50529e-07
-5.59906e-07
2.32808e-05
8.91085e-06
-3.75215e-05
-3.63756e-05
2.32377e-05
0.000309484
-4.35234e-06
-0.00638048
0.00359941
0.00062582
2.72708e-05
-0.000653113
-2.23362e-05
-7.54889e-06
-3.09959e-05
8.65917e-06
-0.000391243
0.000210885
3.203e-05
-7.75238e-06
7.67979e-06
-4.9208e-05
0.00085221
-0.00111053
0.00239978
-0.000628128
-0.00177165
-0.000733044
-0.000147525
-0.0186493
0.00119767
0.000723323
-0.00192098
-0.00245027
-0.00624603
-0.00276107
6.88506e-05
-1.13886e-05
0.000457355
-5.63926e-05
-0.000110064
0.000106358
-0.00118032
-0.00388535
0.00074795
0.0031374
-4.15605e-05
3.64241e-05
5.13668e-06
-0.000232359
-0.0002678
0.000500154
0.0258731
-0.0287839
-0.000129155
-1.0553e-05
5.39275e-05
-0.000465783
-5.4037e-05
1.27631e-05
-0.000271937
3.32035e-05
0.00023874
0.000413061
0.000144612
-0.000557699
0.00889052
0.0109294
-0.0198198
0.000124413
-0.000316849
-0.00922267
-0.0595293
9.52574e-05
-7.56481e-05
-0.0015489
-0.00285802
0.00440691
-1.37958e-05
4.3039e-05
-2.92427e-05
-0.000945773
0.00337028
-0.00242453
-0.0206308
0.00177878
-2.46852e-06
-6.43534e-08
2.15449e-05
-1.4701e-06
-0.0117366
0.00160138
0.0101353
-3.70788e-05
8.90906e-06
0.00855418
-0.00242305
-0.00613115
0.00395949
0.0185017
0.0781846
-0.022325
-7.90085e-05
7.62822e-06
0.0145975
0.0635872
-0.000500383
0.000877829
8.58394e-06
1.11176e-05
-1.51162e-05
3.38534e-05
3.03156e-05
-4.41121e-05
1.79937e-05
-2.28609e-05
4.86576e-06
-5.58637e-05
6.36933e-05
-0.00120448
0.00212952
-0.000925036
-0.0414157
0.0753294
-6.91803e-05
3.17022e-06
6.60096e-05
-1.14681e-05
-9.26809e-07
0.00287902
-0.00106968
-0.00180933
6.33542e-05
-7.48195e-05
1.14572e-05
-0.0013402
-1.19715e-05
0.000667172
-0.00111729
0.000450119
-4.43768e-05
1.56382e-06
4.28137e-05
-0.0168284
0.00509185
2.31355e-05
-5.14292e-06
-1.35592e-05
-9.4584e-06
8.96382e-06
4.93969e-07
-1.07791e-05
9.75761e-06
1.02107e-06
-0.000854289
0.000121233
4.14109e-06
-3.15733e-06
0.000215267
0.000110236
-0.000325503
-1.66919e-05
-0.000219419
0.0016109
0.00118201
-0.00140142
-3.45588e-05
-4.6416e-05
-6.35985e-06
1.17776e-05
0.00201841
0.00157026
4.91979e-06
-7.2688e-06
2.34828e-06
0.000586099
-0.000173045
-8.42149e-05
-0.00018772
-0.00041624
5.89977e-05
0.000357246
-2.40077e-05
-2.19321e-05
4.59402e-05
-0.000121756
8.12491e-05
4.05066e-05
-4.26531e-05
-3.37015e-05
0.00110379
-0.00126536
-0.000479144
2.80329e-05
9.3667e-06
-3.74e-05
-0.004537
0.000478563
3.80179e-05
-1.78583e-05
-2.01598e-05
5.2813e-08
-7.9365e-06
7.35988e-06
4.69468e-06
-1.20565e-05
0.00137537
-0.000789069
4.36834e-06
-0.000598542
0.00123072
-0.000632208
-0.00385243
0.0298487
0.000281322
-0.000220045
-0.00294413
-3.37703e-05
0.000701581
-5.31149e-05
-0.000363136
6.44635e-05
-1.92334e-06
-6.25407e-05
-7.8977e-05
-2.89524e-08
-7.61272e-05
0.000104417
0.00847172
-0.0101972
0.00172547
-5.9244e-06
-4.28317e-05
-1.03309e-06
-1.47375e-07
3.06123e-05
-2.06619e-05
-0.000436348
2.83878e-05
-0.000104511
0.00021183
-5.88876e-05
0.000257929
-0.00129934
-2.20205e-05
-4.77253e-05
0.00070271
-0.00140906
0.000706334
-0.000519939
-0.000680249
-0.00575949
0.000517377
0.00025942
-6.73457e-05
-0.000192075
0.00252202
0.0725302
0.00132612
0.000276564
-0.00160268
2.54444e-05
-1.24941e-05
-1.29485e-05
-0.00436063
-0.0106679
9.42316e-05
-2.60784e-05
0.0501471
-0.0183145
-0.0318327
-1.52686e-05
-8.89161e-05
0.000104183
-0.000516052
0.0016198
-0.0041789
0.00323313
4.38606e-05
1.46675e-05
1.87488e-05
-2.06721e-05
1.91927e-06
0.00570402
0.00276755
-0.0084716
0.0177283
0.0324188
6.37845e-06
-7.39693e-06
1.01719e-06
-0.000129896
0.000116168
-2.30928e-06
-8.47031e-06
-1.68893e-05
5.69008e-05
-4.00144e-05
-3.68066e-05
-2.3077e-05
5.98845e-05
-0.0472397
-0.0226576
2.33604e-05
-2.34671e-06
-2.1013e-05
-1.56819e-05
-2.84755e-06
1.85293e-05
0.000391611
-0.000459613
6.80177e-05
1.71928e-05
5.94137e-06
-0.000694159
-0.000836242
0.00153041
0.000459116
-0.00139265
-0.000373335
0.00155534
0.000467443
-0.00029784
-0.000169585
7.07428e-06
-2.1553e-06
2.25178e-05
-5.32622e-06
-0.000472624
6.20448e-05
0.000410592
0.000681978
-0.000504667
9.11225e-05
0.0001902
-0.000922444
0.000598678
0.000323769
-1.47878e-05
0.000411055
-0.000396263
-3.46486e-06
2.22125e-05
0.000237986
-2.2718e-05
0.00156627
-0.000943422
-0.00134139
-0.00430021
0.00564165
-5.72422e-05
6.05886e-05
0.000213151
0.00605083
-0.012522
0.00647124
-0.00282907
0.00703156
2.43186e-05
1.36988e-05
0.00183586
-0.00112842
-0.000707436
0.00205861
-0.000860942
-0.00128217
-0.000141688
0.00142387
4.46462e-05
-8.14523e-05
-0.000538661
-4.60386e-05
-0.000359546
8.2231e-05
0.00027732
2.2209e-05
0.000305084
-0.000327273
-1.03326e-06
1.56245e-06
5.76057e-07
-1.53948e-05
1.27253e-05
-3.50249e-05
3.58731e-06
3.39659e-06
0.000288128
-0.000703281
0.000415152
3.75172e-05
-9.48519e-06
0.00221412
0.00634005
-0.000105631
-0.000143536
-3.16579e-05
4.81657e-05
0.0132997
-7.48826e-06
4.88847e-05
-4.13925e-05
0.000497276
-0.000234319
-0.000262975
-1.23754e-05
-3.61318e-06
1.59887e-05
0.00383429
0.000776657
-0.00461134
9.91935e-06
5.26428e-06
-0.000204168
-0.0139437
0.00852494
0.00541877
-0.000564441
-0.00139888
0.00196332
-0.000322375
0.00402871
-0.00535903
0.00133035
-0.000125661
-0.00027299
0.000398663
-4.32658e-05
4.32646e-05
6.88564e-05
-0.000544061
-8.14264e-05
0.000119845
-0.00031947
-0.00433136
0.00465084
1.67313e-05
-3.10129e-05
1.42817e-05
2.88186e-06
-1.5259e-05
-0.000592052
0.00112474
-5.07301e-05
-0.0760779
0.0759921
8.58337e-05
0.000318347
0.0227845
-0.00160945
-4.63239e-05
1.70331e-05
2.9291e-05
0.000413359
-0.000143308
-0.000270082
1.28204e-06
3.29166e-05
-3.41998e-05
5.21168e-05
6.42008e-05
0.00379192
-0.00487551
0.0010835
-0.000358941
0.000177213
0.000181736
0.000437353
-1.47383e-08
1.13536e-05
-1.13392e-05
0.0190468
-0.00691004
0.0349587
-0.049814
0.0148547
-0.00152906
0.00287509
-0.00134603
-0.000150972
-0.000324248
0.000475212
-0.00618806
0.00335897
-2.65162e-05
4.52525e-06
-0.000449099
9.2884e-06
0.000439808
0.000617877
7.921e-06
-0.00111268
9.85396e-05
5.79785e-05
0.000355365
0.000530724
-0.000520277
-1.03124e-05
-0.00134405
0.000879858
0.0651422
-0.0613378
-0.00380486
2.66751e-05
-2.6628e-06