/*--------------------------------*- C++ -*----------------------------------*\
| =========                 |                                                 |
| \\      /  F ield         | OpenFOAM: The Open Source CFD Toolbox           |
|  \\    /   O peration     | Version:  v2012                                 |
|   \\  /    A nd           | Website:  www.openfoam.com                      |
|    \\/     M anipulation  |                                                 |
\*---------------------------------------------------------------------------*/
FoamFile
{
    version     2.0;
    format      ascii;
    class       volScalarField;
    location    "100";
    object      omega_0;
}
// * * * * * * * * * * * * * * * * * * * * * * * * * * * * * * * * * * * * * //

dimensions      [0 0 -1 0 0 0 0];


internalField   nonuniform List<scalar> 
37809
(
0.0230904
0.0774887
0.0288871
0.623796
0.0237307
0.0245685
0.0236977
2.84805
0.0252986
0.0369467
0.0287329
0.0295051
0.0244051
0.027681
0.0257055
0.0264304
0.0244477
3.79077
0.0294591
0.0246849
0.0264262
3.02035
0.471783
0.02707
3.21613
0.0256574
0.0290398
3.03664
0.0347582
0.0226594
0.0291936
3.06697
0.0245865
0.0566996
0.0295952
0.02459
0.0919637
0.373148
0.79501
0.0233957
0.0222787
0.217634
0.0264974
0.03829
0.024537
0.0304009
0.0257298
0.026799
0.0263772
0.0947295
3.24158
1.09817
0.0605365
0.0544702
0.0293168
0.0238555
0.134937
0.028474
0.196409
2.95995
0.0303689
0.0348613
0.559067
0.0383149
0.0268578
0.0257065
0.0748876
4.40827
0.0365218
0.064682
0.0238648
0.0248826
1.10367
0.155288
0.0241661
0.41117
0.0922093
0.0229071
0.0262441
0.0256019
0.0389581
3.7424
0.0248145
0.0599065
0.886655
5.3437
0.0248996
3.15891
0.0365797
0.0919721
0.0256841
3.13836
0.0331293
0.0242848
0.0343574
0.0229143
3.246
0.0229025
0.0220579
3.28626
0.0248807
0.137933
0.0231084
0.0267096
0.423979
0.025506
3.02483
0.0241402
2.63328
2.09554
0.0241836
0.154286
4.01815
0.023395
2.92295
3.95007
0.0255952
0.0236593
2.06597
0.0250742
0.130201
0.0423807
2.93594
0.0244983
0.0233494
0.352447
0.0228001
0.026387
0.022808
0.0228609
0.0286423
0.0256486
0.0243577
0.0233512
0.0227994
0.0239535
0.040041
0.395279
3.55559
0.0270384
0.0298068
0.190836
0.0279922
0.0250185
0.0228729
0.0239066
0.0297831
0.0267055
0.0228256
0.0227973
0.323043
0.0250181
0.0253463
0.170823
0.0228182
0.0290104
0.0227987
2.61547
0.0220824
0.0238938
0.0246001
3.73797
3.04899
0.0256569
0.0228366
0.0568391
0.0246078
0.461163
0.0263855
0.462082
0.0245189
0.0982244
0.025021
0.0250768
0.0280049
0.0233298
0.0253352
0.0244223
0.0462426
0.0239468
0.0240326
0.209291
0.0237696
0.0240255
0.0244858
0.0230105
2.92058
0.0250246
3.42275
0.0837884
0.606388
0.104607
0.0246985
0.149203
0.0241532
0.0248018
0.0247999
0.166405
0.0249866
3.48874
0.582689
0.0389701
0.0247299
0.0270375
0.0307439
0.0256529
0.0238458
2.98232
0.0230605
4.06548
0.338537
0.160749
0.509138
0.0966943
0.0245884
0.0220944
2.17501
0.144993
0.0231036
0.478702
0.0765112
0.0247813
0.0307079
0.0259558
0.0250309
0.147487
0.0239071
3.2043
0.0227865
0.342647
0.0259189
0.0247801
0.0251662
0.0247315
0.0268503
0.087586
3.03863
0.0259591
0.0257214
0.0229761
0.101227
0.0241251
0.113846
3.2611
0.0386393
0.0287389
0.14579
0.0854374
3.3417
0.0398634
0.024397
0.0238958
0.0342559
3.79479
0.0250209
0.0244801
0.0530416
0.0245004
0.0251045
0.0292527
0.0239964
0.0243935
0.0250508
0.0259935
3.64491
0.0247902
3.15195
0.16446
0.0229078
0.0254222
0.0240755
0.024947
0.0239065
0.0467046
0.0419357
3.7206
0.0267934
0.026471
0.0244405
4.11564
0.155599
0.0246264
0.0269702
2.28572
0.148665
0.0244922
3.0588
0.033874
0.0236407
0.483498
0.0264994
0.0254255
0.0627483
3.37327
0.0369692
0.0236523
3.09637
0.0243803
0.0243666
0.0563556
0.384271
0.0238116
0.0264645
0.0347252
0.0256615
0.0274058
0.0243813
0.0249649
0.0257793
0.0527989
0.0291915
0.0247883
0.024816
0.0621393
0.0881728
0.0236105
0.0912147
0.0230295
0.60943
0.0605837
0.029554
0.070706
4.02978
0.339867
3.15212
0.0231225
0.0361966
3.26921
0.02456
0.0267056
0.0483346
0.0495508
0.339968
0.0227779
0.0247747
0.0233856
0.0250082
0.139182
2.96846
0.0250231
3.10518
0.0236096
3.6875
0.0802122
0.0232751
0.0248242
3.33571
3.62595
0.0357373
0.0285703
0.027966
0.0253434
0.026291
3.69711
0.0378762
0.0251125
0.0221603
3.13769
0.505165
0.0241803
0.022823
0.290321
0.0320073
0.0228377
0.0233001
0.055635
0.0239232
0.154393
0.0655928
0.0230132
0.0324805
0.0229979
0.025604
0.0227989
0.0715612
0.023904
0.0241729
0.0243667
0.0420362
2.94257
0.029073
0.0253437
2.21652
0.145649
0.056503
0.0233283
0.0260704
0.518093
0.278313
3.01453
0.0234224
0.0317524
2.82969
0.0454376
0.0678034
0.0233089
0.0234132
0.0233404
3.58037
0.0240906
0.0233402
0.0239904
0.0287334
3.20321
0.0267106
4.87717
0.134929
0.0227459
0.0311071
0.799209
0.025723
0.0269355
0.0426313
0.0886097
0.216696
0.0229318
0.0240787
0.0283392
0.0472808
0.232738
0.0238753
0.0233644
0.0258468
0.392042
0.410427
0.0989522
0.0289015
0.0227605
0.024568
0.0238874
0.0227661
3.01391
0.0503693
0.0489222
0.0296915
0.0287893
0.030878
3.33294
0.0248332
2.10515
0.0248025
0.0296363
0.023525
0.0247975
0.0230242
0.0227755
0.0237273
0.0233085
0.0236348
0.0276603
0.0247109
0.0251632
1.57768
0.0248675
0.0257769
0.0240671
0.0238007
0.0278204
0.0244766
0.0295751
0.0783141
0.0249822
0.053097
0.0233393
0.0247928
0.0459705
0.0235651
0.0233682
0.0678028
0.0333535
0.0554903
0.0236233
0.333879
0.0289494
2.97363
0.0247045
0.0256669
0.778343
0.215295
0.0235218
0.0266936
0.40284
2.89245
0.0239728
0.196079
0.0245564
3.56369
0.0357611
0.0240765
0.142865
0.0250353
0.0240676
2.74708
1.22167
0.0230745
0.0249817
0.0236164
0.0226945
3.15359
1.57677
0.022682
2.40605
0.276507
0.0228661
0.0229916
0.0226786
0.0286255
3.05854
2.61536
1.21411
0.0234083
2.98708
0.024484
0.0243312
0.195434
0.0239826
0.0529855
0.438535
2.09324
0.0272383
0.14527
0.022671
0.0739612
0.594929
0.0463525
0.0250935
0.139855
0.0756728
0.0240725
0.0532409
0.0245725
0.0309169
0.027109
0.0353624
0.0250349
0.046676
0.0599287
3.64562
0.0226697
0.0255134
0.0239225
0.0384544
3.08523
0.561599
3.05261
0.0541173
0.0281468
0.0261212
0.0320817
0.0590121
3.03657
0.0541782
0.0242278
0.0256385
0.0589992
0.0355999
0.0496192
0.0290541
0.0563906
0.46787
3.49913
0.023946
0.0228424
3.14984
0.0249791
0.0235476
0.0227858
0.0228812
0.0262634
4.28228
2.9402
2.34049
3.03759
0.0244208
0.0262609
0.481929
0.0262358
0.0281007
0.0381992
0.479925
0.0237052
0.0243954
0.023223
0.0234162
0.0982653
3.79935
0.023365
0.0311321
0.0493582
0.0370266
0.0239132
0.0228224
0.186306
0.0226384
0.310951
0.175268
0.0385765
0.0256256
0.0229512
0.480386
0.0289653
0.0292121
0.0248344
0.0238554
0.0333597
0.173281
0.0337488
0.0261253
0.0247069
0.0432508
0.0994334
0.0378703
0.0257297
0.0646271
0.0271992
2.17616
0.0589239
0.688955
0.0251244
2.98461
0.225508
0.594313
0.0576184
0.0396855
3.42136
0.024203
0.0267624
0.061147
0.0483163
0.0236873
0.0410207
2.09381
0.0254913
0.0260449
4.70839
0.355655
0.0441515
0.0388198
5.5761
0.0242504
0.0406718
3.49586
0.0253127
0.139639
0.022922
0.0252531
0.022938
0.08997
0.0289033
0.0478462
0.0471336
0.0276436
0.160569
0.028305
0.0506497
0.0707716
0.0253219
0.0251385
0.0228061
0.267953
0.0246836
0.0571493
0.0258338
0.0263631
0.023677
0.0261974
4.07813
0.0237606
0.0228331
0.0229195
0.027198
3.0735
0.0582396
0.311596
0.0236692
0.0244647
0.194279
0.023929
0.0238534
0.136128
0.0230448
3.173
0.0859813
0.134724
0.0270694
0.0235699
0.0237828
0.0242448
0.0252423
0.629582
0.625316
0.0265148
0.0269364
0.0226982
3.69697
0.0284549
0.0246954
0.0235819
0.445303
0.0290942
0.025787
0.10718
2.36677
0.179508
0.0287421
3.0336
0.0231439
0.174212
0.0271622
0.0230659
0.0257665
1.09922
0.0226909
0.0245934
0.022666
0.3965
0.600713
2.29934
0.0242319
0.0247385
0.0246428
0.0252194
0.0243537
0.0575578
0.0266747
0.0249476
0.0226128
0.0229473
0.819285
3.44162
0.0515428
0.0550684
0.0264497
0.0277333
0.0238488
0.0239653
0.0284332
0.195626
0.025709
0.300743
0.0315878
1.57585
0.0246797
3.93879
0.154251
0.022692
0.023403
3.92286
0.0240813
0.0242099
5.72031
0.0231728
0.0516691
0.0233974
0.812025
0.0249287
0.0244763
1.26344
0.070888
0.0575751
0.0240775
0.0265981
0.0233012
0.0244766
0.0291565
0.0245322
0.0273853
0.0244367
2.59028
0.631214
0.493762
0.0291664
0.0253234
4.27368
0.0242085
0.0250559
0.0228078
0.0243537
0.0246211
0.0522771
3.4924
0.0226548
0.022652
3.2961
0.0246032
0.0241727
0.0843537
0.0516822
0.142863
2.34267
0.0917356
2.62853
5.06351
0.024898
2.90435
0.0252742
0.146552
0.0331571
0.023961
0.0272126
2.01593
0.0260853
0.0239686
3.19116
0.0262896
0.0327867
3.49704
0.471888
0.0244832
0.113063
0.553218
0.0256926
0.0461679
0.0237937
0.0502879
0.393678
0.0243582
0.0237759
0.0745472
0.0227489
0.215174
0.737169
1.20988
0.0247535
1.21044
0.0801509
0.0241688
0.0240728
0.0237804
0.0237499
0.0247138
0.0609383
0.772949
0.0256881
0.0241743
0.0676155
0.0280782
0.028704
0.0270942
0.0248294
0.071764
0.0237492
0.028226
0.0235377
0.0245461
0.139843
0.0247279
0.0236695
0.0244327
0.0575656
0.0565119
0.0222991
0.0235625
0.0725039
0.0249327
3.37981
0.0324388
0.0428839
0.0229069
0.0347655
0.0264928
0.0240775
3.1215
0.0286778
0.0246245
0.535522
0.0243762
0.0220686
0.0246961
0.046799
0.022075
0.176083
0.455588
0.0292248
0.0535366
3.5478
0.0428941
0.0230985
0.0247604
0.0292562
2.50477
0.0241871
0.0249043
0.0257103
0.0690951
0.0291436
0.0512062
0.324443
0.0249303
0.273855
3.72672
3.27464
0.0799481
0.617913
0.0293836
0.0238577
0.156093
0.0256012
0.491924
0.0260202
3.07115
0.0507772
0.0242577
0.0238122
0.346092
0.503742
0.0250368
0.0254405
0.0245502
0.023414
0.0240851
0.620733
0.0253184
0.0230954
3.45896
0.0237368
0.216369
0.0285729
0.0565337
0.0500651
0.0250774
0.023735
2.89871
3.26069
0.0290854
0.0448677
0.0351311
0.0238066
0.0235777
0.050019
2.65586
0.0241503
0.0272044
0.101189
0.059823
0.0243691
0.138692
0.0919506
0.0946622
0.0241221
0.0376404
0.0770793
3.20237
0.0250473
0.0242399
0.0256585
0.0249908
0.0254809
0.0246177
0.219403
0.0233212
0.0263289
0.571094
0.02483
3.17404
0.0235635
2.73323
0.0228413
3.07958
0.288231
0.178364
0.0255613
2.61686
0.029986
0.0266156
0.0473019
0.035511
0.0999835
0.0233473
0.0235732
0.188912
0.0264067
1.08152
0.0396502
2.41995
0.0234776
0.0410976
0.0227981
0.0284828
0.187962
0.0361961
0.0453601
0.0235989
0.247973
0.921014
0.0661155
3.03862
0.0546979
0.0250891
2.98392
3.4732
3.96217
0.0409971
3.34307
4.09834
2.05364
0.0245367
0.023898
0.0242267
0.0274032
0.0226404
3.32964
0.371054
0.0227056
0.0576539
0.0379542
0.0249197
0.0224823
1.16684
0.0496331
0.0249302
0.0315644
0.0513097
0.0233169
2.17852
0.314452
0.149453
0.0233084
0.41843
0.0416176
0.77371
0.0230517
3.98805
0.0370398
0.213196
0.0400523
0.0230555
0.0227848
2.56662
0.0249833
0.0285821
0.0650501
0.041538
0.0262805
0.0275556
0.024074
0.0242928
0.02869
0.0243881
0.0544378
0.0558692
0.0472233
0.139171
0.0242988
0.0634646
2.85479
0.0315239
3.18295
0.026268
0.0240164
0.0367855
0.756363
0.0221654
0.025733
0.0362123
0.220391
0.0347237
0.0322751
0.0350823
0.0530995
2.48969
0.0249739
0.0287427
0.453519
0.0228229
1.39501
0.031493
0.0569462
0.0267694
0.0247088
0.0303429
0.0463903
0.240941
0.030145
0.0242412
3.07119
0.0771413
3.48394
0.879907
0.0249487
0.435806
0.0247026
0.0301255
0.0226611
0.0369556
0.0273785
4.11515
0.0239965
0.482194
0.0232647
0.0248278
0.023343
0.0523375
3.26197
0.0248681
0.0489214
0.0246773
0.0429909
3.43687
4.63404
0.0233693
0.0441654
0.0228856
0.0232669
0.0237586
0.0256027
0.0248577
0.0287102
2.96867
0.0260799
0.412766
0.049171
0.0229912
0.0449384
0.025607
0.161248
0.0254155
0.024975
0.0277429
0.0222713
0.0382148
0.0280948
0.146066
0.105217
0.024735
0.0229674
0.0481984
0.0904885
0.0600029
0.0647303
0.0251593
0.0220778
0.0261902
0.0612675
0.457004
0.030085
0.0479108
2.11337
2.22117
0.069141
0.0250275
2.9614
0.118069
0.0231159
0.0243854
0.0244615
0.0231234
0.0224676
0.0263761
0.113483
0.0998179
3.19168
2.57494
0.122253
0.0965167
0.0267068
0.0782972
0.0265937
0.0227269
0.0460877
0.0250669
0.0288353
0.0266703
0.0539075
0.0227072
0.0260209
0.0253562
0.024815
0.0235667
0.0251224
0.0237115
0.0267084
0.022617
0.0283536
0.0264796
0.0235915
0.0379961
0.0351695
0.025483
0.0235895
0.0319936
0.0236996
0.0235893
2.94345
0.0251272
0.125284
0.0991091
0.0229322
0.0228256
0.023055
0.0246931
0.619552
0.504011
3.07961
0.024898
0.0470981
0.0247869
0.0230481
3.21401
0.0509444
0.0228309
0.0236661
0.0239919
0.275722
0.0231275
0.026005
0.0235822
0.0656166
0.0241064
0.026314
0.0409177
0.0234622
0.023355
0.0236797
0.0242172
0.0227892
0.023634
0.0329167
0.0227137
3.11926
0.0277609
0.0261031
0.0240979
0.163622
0.0530168
0.0301774
0.0234133
0.0250275
1.05105
0.0235021
0.0233557
0.0232988
0.0250078
3.28045
0.0281959
0.0236518
0.022571
0.0332661
0.0308686
0.0572756
0.125145
0.0300519
0.392614
2.99897
0.0262348
0.0251572
0.0272907
2.33454
3.41
0.0231468
0.0246195
0.038971
0.0609085
0.0514258
0.0232912
3.35412
0.0228861
4.26192
0.0238226
0.0220975
0.024703
0.0240588
0.0225539
0.0238901
0.0220789
3.98126
0.0246991
0.0247014
0.0225641
0.0227312
0.0341256
0.0261993
0.392547
0.0227572
0.0261484
0.390825
0.111475
0.0270816
0.0620342
0.18208
0.0254206
0.0237743
0.0480515
0.102284
0.0686995
0.0565107
0.0408602
0.0236589
2.93516
0.0308701
0.0240215
0.0260831
0.247755
0.436475
2.07034
0.0239917
0.056307
0.0338367
0.0249026
0.0326812
0.101666
0.0225814
0.0254059
0.0247032
0.0255139
0.0230672
0.0256962
0.0257204
0.0250155
0.0223531
0.146661
0.435267
0.0239828
0.176453
0.0230676
0.0225493
0.0236412
0.0289296
0.0241155
0.0736875
0.0688472
0.0290263
0.0291358
3.03737
0.0225272
2.83144
0.0235728
0.0246786
0.0269895
0.0253659
0.0286547
0.312873
0.0258642
0.0239414
0.0225398
0.0227465
0.030194
0.0254229
0.0225353
2.70331
0.0357424
3.09739
0.0240533
0.0632426
0.0766559
0.305131
0.0225191
0.0279281
3.57611
0.025207
0.0273873
0.024218
0.107245
0.0247733
0.0461851
0.178922
0.023933
0.0281826
0.0266591
0.0231462
0.0233303
0.0352185
0.0227396
0.42853
2.50833
3.3752
0.231877
2.89902
0.0248675
0.0843241
0.0482638
0.0244745
0.0235163
0.0687307
0.24136
0.0249512
0.0357885
0.0250669
0.025072
0.0235467
0.0617853
0.0243255
0.0656673
0.0388104
0.0244697
0.0361577
0.0238275
0.0996425
1.17005
0.0259176
0.0251995
0.0233266
3.02878
0.025331
0.0266429
0.0247825
0.0512969
0.0587826
0.441124
0.024713
0.132762
0.0235102
0.0248227
0.0242485
0.0556555
0.0419424
0.332471
2.56504
0.023327
0.023939
0.0796374
0.205052
0.0250872
0.0685088
0.0235341
0.0367944
0.0250579
0.024072
0.165502
0.023998
0.13373
0.0328562
3.02928
0.0391615
0.0358471
0.0297142
0.0434774
0.027064
0.476541
0.024292
0.0227244
0.150596
0.0236953
0.0365638
0.0712461
0.0231203
3.1295
0.380061
0.289703
2.95119
0.127845
0.0273972
3.04876
0.0436395
0.0224442
0.0351346
0.0224514
3.48369
3.53165
3.74278
3.88691
0.0245699
0.0288937
0.0244727
0.0243887
0.0399907
0.0380109
3.65511
5.31153
0.0250864
0.0572891
0.0256004
3.03685
0.0246317
0.0248767
0.0239156
0.0244171
0.0238468
0.0241569
0.0261558
0.207938
0.0238722
0.0352632
0.0242876
0.0240073
0.032844
0.0258203
0.181709
0.0246462
0.0295047
2.63716
0.0263096
0.0227374
0.0257071
0.035396
0.543697
0.77057
0.0227464
2.05755
0.0245372
0.0354579
0.0273128
0.0230931
0.0250872
0.0227242
0.0239978
0.0245753
0.0304411
2.92959
3.14046
0.0886323
0.106447
0.0264602
0.0387467
0.0247325
0.0248599
0.033407
3.79546
0.100012
0.0257222
0.0237509
3.10142
0.0263332
0.0233852
3.60367
0.0267847
0.0240815
0.0231524
0.0244427
0.0227769
0.0354666
0.0265912
0.207259
0.0879788
0.0330214
0.0229213
0.0255507
0.038414
0.0255669
0.0252183
3.31092
0.0227909
0.0248052
0.0227755
3.28584
0.026656
0.0324848
0.0262029
0.0260955
0.0258486
0.0279394
0.10615
0.0243402
2.06866
0.0966887
0.0238187
0.165632
0.16484
0.0876544
0.0253626
0.773036
0.0255418
5.31547
0.0756917
0.0270369
1.97088
0.0275113
0.0426379
3.14506
0.0515609
0.0544348
0.0472481
0.18393
0.0233802
0.109891
0.025631
1.8288
0.0418748
0.0227664
0.023283
0.0272883
0.0257001
0.0792495
0.0299843
0.0229082
0.0337804
0.0253581
0.0416695
0.136364
0.0838707
0.0516344
0.355046
0.0227592
0.343353
0.0276795
0.0242263
0.0256551
0.0231058
0.0911285
0.0237609
0.0228831
0.0697065
0.0255521
0.198029
0.0229083
0.0269668
3.46382
0.601667
3.0459
0.0257828
0.400631
0.0331713
0.14056
3.54363
0.0237523
3.64464
0.0386832
0.0246837
0.131184
0.0242346
0.0246512
3.57226
0.0243779
0.0244164
0.0919739
0.34848
0.0273682
0.0275965
0.167033
0.0283551
0.0280483
0.0256325
0.0502444
3.61254
0.0277257
0.0255564
0.0242794
0.0248338
0.0230467
0.0230549
2.94394
0.302911
0.0360504
0.0555809
0.0230777
0.0249805
0.0460066
0.0254994
2.85849
0.0268106
0.0242976
0.029508
0.0235715
0.215501
0.345533
3.16689
0.0261882
0.0255569
0.0321645
0.23388
1.95089
0.136984
3.70945
0.0343666
0.0257544
0.0281851
0.0249006
0.104858
0.0224502
0.184067
0.0461806
1.40187
0.023043
0.0251412
0.023126
3.52781
0.0239138
0.65565
0.0843763
0.0244437
0.18158
0.0242076
0.136833
0.0390609
0.0285822
0.0241689
0.0251777
0.0274662
0.035692
0.0324935
0.0278175
0.0338091
0.022908
0.0228009
0.0266962
3.62786
3.65801
0.0247933
0.126963
0.0482838
0.0234547
0.156073
0.0285344
0.025189
0.0245896
0.0228924
0.0262907
0.0459779
0.0542273
1.85935
0.063636
0.237537
0.0261187
0.0297209
0.0251113
0.0228993
0.0246631
0.0557675
0.0284252
0.0412354
0.0249364
0.0253428
0.0274654
0.0474933
0.0227338
0.0314079
3.4399
0.0471511
0.0249251
0.0244614
0.0347909
0.0227387
0.023734
0.0240461
0.078637
0.0227284
0.0279082
0.040856
0.0245539
0.0555221
0.692566
0.0234455
0.0258302
0.0268062
0.0249511
0.0249513
0.0239154
0.10767
0.0255841
0.0276431
3.68647
0.0246141
0.0250789
3.86351
0.023703
0.0432855
0.0221798
0.0227279
3.32532
0.0304731
3.23887
2.92517
5.15332
0.0227798
0.0314789
0.0235548
0.180801
0.023541
0.113665
0.0230045
0.098005
0.335979
0.115192
0.0441129
0.024022
0.0226943
0.0245549
0.0319646
0.0327478
0.0221812
0.339067
0.100383
1.73295
0.0271059
0.0235701
2.29443
0.0347301
0.0457707
0.0237351
0.0412862
0.0231169
0.023394
2.79546
0.0273699
0.0240263
0.024469
0.0259814
0.0242746
3.22124
0.676569
0.0324776
0.033297
0.024593
0.299029
0.024814
0.350188
0.0247794
0.0420612
0.100235
0.0249798
0.028492
0.536564
0.156034
0.0242747
0.029422
0.0243447
0.0275433
2.99908
0.0280375
0.0986935
0.0351371
0.220344
0.0247819
0.204326
0.031708
0.024779
0.0532182
0.0237277
0.0244328
0.0271598
0.0395952
0.390438
0.0254447
0.0291194
0.028336
0.18746
0.024237
0.0532811
0.0230345
0.0269046
0.0305001
0.0262173
0.025477
0.226625
0.025878
0.0246572
0.122874
0.0259767
0.025035
0.0228155
0.0258798
0.0240731
0.0259193
0.0238534
0.0296283
3.44746
0.0244606
0.0340191
0.0254833
0.0227314
0.0272985
0.024234
0.0242474
0.806433
0.0496363
0.0708239
0.143442
0.106397
0.0244594
0.0257981
0.0229148
0.0276311
2.74159
2.96273
3.01092
1.5963
0.0246383
3.728
3.69199
0.0237473
0.024695
0.283728
0.219328
1.60768
0.743135
0.0224603
0.0236071
0.0286872
0.203923
2.69157
0.0842356
1.44399
0.0229203
0.159946
0.0230853
0.0272286
0.0240676
0.124058
0.0241024
0.0859266
0.0370207
0.0542114
0.0342321
0.0250418
0.0498815
2.67571
0.0380628
0.39819
0.0285162
0.0241562
0.0249239
0.0249517
0.0553729
0.144535
0.026876
0.0444569
0.0245084
0.0799987
0.0332821
0.109073
0.0256594
0.0246549
0.175077
0.0249044
3.42578
0.0406843
0.0233733
0.0241778
0.0221126
0.134157
0.0232752
2.86377
0.0244077
0.025097
0.02662
0.774995
0.0257728
2.81686
0.0560574
0.0250871
0.12409
0.0259443
0.0250217
0.0245065
0.0241597
0.0260569
3.25309
0.0377816
0.0233936
0.0244756
0.023301
0.0244703
0.0242658
0.023329
0.0272858
0.0299156
0.0242709
0.0397435
0.0230426
0.0224027
0.0266591
0.0266249
0.0253603
0.0678197
0.0229326
0.0430218
0.0330595
0.0225115
0.0237009
0.130745
0.782789
0.0473256
0.0274677
0.0411474
0.0305409
0.0255648
0.0245455
0.111355
0.0273301
0.0304442
0.0361911
0.0254002
0.0253945
0.0811997
0.0270799
0.0418228
0.0233335
0.0480057
2.59292
0.0261571
0.314921
0.0234349
0.0240997
0.0530022
0.027547
0.0245566
2.45748
4.08792
2.92619
0.0246102
0.0250624
0.0235895
2.96917
0.18625
0.0389839
0.0529387
0.0234382
0.0233638
0.058406
0.0261374
0.025033
0.0282675
0.0279079
0.12343
0.0234782
0.0245876
0.767595
0.0234571
0.0251575
0.0468304
0.0234388
0.0405426
0.0935438
0.693972
0.0249877
0.0281101
0.0235301
0.0235254
0.0285447
0.0244148
0.0245577
0.0253155
0.0246006
0.0257138
0.0334657
0.0238046
0.0233356
0.0563291
0.0706316
0.0232112
2.23694
0.0247347
0.025772
0.0254164
0.0239427
0.0246233
0.0266101
0.0253634
3.32014
0.0270026
0.0232004
0.0457719
0.0473318
0.0258532
0.0269034
0.0260743
0.025231
0.0328225
0.0228701
0.0807083
0.022816
0.0230788
0.0246214
0.0805183
0.0315595
0.0242206
0.0230701
0.0377986
0.188754
0.145249
0.0309585
0.133196
0.0338964
0.0233711
0.0228925
0.0244982
0.0228796
0.0267952
0.309705
0.0245301
0.0242459
0.184633
0.0271538
0.0242458
0.0292342
2.35131
0.0369713
0.0246273
0.0460233
0.0249821
2.95234
0.0803515
0.0250827
3.59125
0.0247074
0.0233071
0.0247659
0.0317261
0.0292375
0.0231233
0.0249077
3.29565
0.0302143
0.0245601
0.44685
0.0246053
0.0239144
0.0335275
0.0465965
0.0465819
0.245412
0.0322124
0.128246
0.491003
3.19121
0.239881
0.608004
0.0221479
0.0249571
0.0234152
0.0239972
0.037632
2.93718
0.024227
0.214275
2.23559
3.14831
2.93413
0.0251299
0.027288
0.024547
0.053658
0.025014
0.738614
0.0250142
0.0232338
3.75641
0.0244177
0.140879
0.0980536
0.276912
0.0270172
3.08735
0.0269705
0.0235448
0.0233084
0.391925
0.0245515
0.0244386
2.19638
0.046188
0.0247324
0.772172
0.0242903
0.384239
0.114043
0.0246469
0.265611
0.0242372
0.0228015
0.0313746
0.025823
0.0396317
0.0664155
0.0240793
0.0246524
0.0258264
0.401149
0.0349876
0.0245956
0.54064
0.0227211
0.0313577
0.292665
0.0273811
0.0251162
0.0228316
3.48244
0.0421785
0.0544973
0.0276547
0.0297409
0.0281934
0.080925
0.113065
2.91832
0.18967
0.0410068
0.0381851
0.105067
0.0249842
0.478194
0.0234406
0.0816102
2.97094
0.186652
0.072479
0.0230043
3.28961
0.0266049
0.0269568
0.291417
0.0252032
0.0253108
0.02506
0.113525
0.0239902
0.632465
0.0226165
0.0245431
0.0233809
0.0224581
0.0252995
0.0244829
2.99445
0.0242374
0.986965
0.02357
0.0282624
0.0233679
0.022641
0.397425
0.0247309
0.0255316
2.51096
0.0255062
2.81967
0.025477
3.29197
1.78941
0.651016
0.0244288
0.0224901
0.0400679
0.0668022
0.0224392
0.0228308
0.516953
0.0242513
0.0252991
0.0982473
0.0449514
0.0248029
0.024231
1.06677
0.0229972
0.0233381
0.0244506
0.0250408
0.51366
0.0248576
0.0234094
0.256347
0.0243556
0.0242532
0.0229695
0.0266074
0.025359
0.0236759
2.48804
0.0433753
0.433582
0.0240026
0.0242439
0.0244158
0.103828
0.0429297
0.0263928
0.237207
0.0244445
0.0401112
0.0404535
0.0271231
0.0276796
0.0286963
0.0228359
0.024498
2.11891
0.0249522
0.191042
0.025831
0.0416862
0.263478
0.0437241
0.0260375
0.0293541
0.0285059
0.028091
0.0272097
0.0267214
2.99753
0.0547989
0.0252785
0.054554
2.9648
0.726772
0.107052
0.0419553
3.1077
0.034427
0.0234059
0.0236389
1.19746
0.286644
0.035304
0.337268
0.0261077
0.155987
3.09685
1.56449
3.04487
0.0250659
2.96948
0.141052
0.0229533
0.0776248
0.0448761
0.0330591
0.0244569
0.0287874
0.0288262
0.0224756
0.0606548
0.0328369
2.94891
0.0240165
0.0555465
0.0235151
0.2179
0.0737091
0.024513
0.0825604
0.0269636
0.405856
0.0453385
0.0236357
0.163335
0.0242441
3.4612
0.0270865
0.0249303
0.0239562
0.178965
0.0243401
0.300321
0.0244118
2.93969
0.0226906
0.0242543
0.104511
0.0261275
0.0244559
0.0240087
0.286136
0.0425446
0.0353656
0.0260729
3.97517
0.0233257
0.032297
0.0246176
0.0239628
0.0450414
0.405519
0.0947457
3.8179
0.0226982
0.0278976
0.0248265
0.187703
0.02716
0.0530177
0.0415299
0.340582
0.023944
2.95882
0.0242001
0.0248341
0.0245656
0.0258429
0.0457448
0.025141
0.027825
0.0229748
2.51654
0.147431
2.57473
0.0331963
0.0394723
0.0267219
2.06257
0.0234399
0.0235274
0.242345
0.0229957
0.235873
0.0245663
0.026374
0.0902646
0.027094
0.107067
0.0884339
3.70895
0.0234144
0.0224923
0.1881
0.0239719
0.0398759
0.116708
0.0330467
2.33551
0.0247164
2.8994
0.138552
0.0237715
3.10899
0.078498
0.0300236
3.18502
0.0569767
0.128501
0.160496
0.0262272
0.756186
0.0736643
0.0320471
0.0227756
3.04367
0.0244156
0.503919
0.0248072
0.419233
0.0257449
0.024901
0.0249611
0.0244942
3.39828
0.0244187
0.0242514
0.0572053
0.0241598
0.0319168
0.0265836
0.0258175
0.0370665
0.0249452
0.0446452
0.0245539
0.0234714
0.0244943
0.046856
0.024517
0.0838869
0.108704
0.0227308
0.0249541
0.0229343
0.184124
0.024591
0.0229262
0.0227586
0.0229315
0.607479
0.0235513
0.0232991
0.499782
0.243892
0.0449451
0.0419019
0.0249569
0.0269975
0.108716
0.0245233
0.0361976
0.026366
0.0245453
0.0286502
0.0268184
0.0244518
0.0269562
0.318617
0.0227702
0.0224988
0.177874
0.0295823
0.0574711
0.02425
0.0256297
0.421569
0.0239003
0.0250854
0.0227425
0.040711
3.86368
0.233701
2.67009
0.0291859
0.0245719
0.0245717
2.24802
0.0245543
0.127905
0.568985
0.0404237
0.0815119
0.0244224
0.0253948
0.0292675
0.0239483
0.0235892
0.0439838
0.246883
0.0239422
0.0388724
0.0235902
0.0244936
0.0250327
0.0251439
0.720752
0.0244126
0.0288188
0.0409448
0.0241178
0.0624193
0.0260526
0.0453268
0.0247069
0.484786
0.0239385
0.0260462
0.0235576
0.0361937
0.030062
0.057504
0.024833
0.0231415
0.0457166
0.141991
0.0246269
0.0250336
0.335679
0.0276655
0.025078
0.391132
3.32899
0.026658
3.80682
0.0246451
0.0837618
0.248498
0.0227138
0.029584
0.0667352
0.0872827
0.0268202
0.259732
2.95095
0.023044
0.40674
0.0254555
3.23949
0.0231678
2.92932
0.0312884
0.0238976
0.023128
0.0246326
0.0244348
0.0324355
0.0307852
0.863035
0.0239398
0.0354541
0.0255525
0.0237151
0.024659
1.5622
1.20398
2.63303
0.0280839
0.679636
0.0246624
0.0260306
0.308074
2.9903
0.0252597
0.174252
0.0402722
0.0231368
0.0332826
0.0254284
0.0252666
0.0250964
0.0396827
0.0242705
0.107663
0.0266977
0.046751
0.0237294
0.0245695
0.0323892
0.0244694
0.042309
0.231455
0.291172
3.27101
0.0240898
0.0242873
0.0248821
0.202359
0.0797967
0.0242691
0.0264237
0.0294906
0.122037
0.0245952
3.55182
0.0244462
0.0245892
0.0234531
0.0292718
0.161811
3.08465
0.128725
0.034244
0.0268932
0.0299173
0.774215
0.024802
0.0827947
0.0246074
0.0272012
0.0242983
0.0240926
0.0249926
0.0246038
0.0484943
1.09324
0.0294256
0.0250735
0.0287161
2.96914
0.1184
3.41774
0.0715503
0.481991
0.405709
1.26864
2.97974
0.0261076
0.0241555
0.320442
0.0252346
0.0615617
0.0242647
3.03197
0.02209
0.400311
0.0244869
0.0257498
0.0331734
0.02397
0.182314
0.0610996
0.0256604
0.0237807
0.0224359
0.0246313
0.0280528
0.0242417
3.26219
0.0224305
0.0248039
0.0228622
0.0367529
0.0313028
0.0699192
0.0330998
0.125035
0.0291459
0.0331561
0.176135
0.0228765
0.0230505
0.023943
0.0256262
0.0728757
0.0271091
0.471956
0.100274
0.0239335
0.379845
0.0244679
3.43874
0.0313201
0.382011
0.0334672
0.502516
0.0498388
0.026186
0.0248121
0.0239341
0.145461
0.13009
0.0251206
3.66462
0.0251953
0.292787
0.027208
2.51122
0.0716037
0.0264948
0.501917
0.0235694
0.494095
0.0271443
0.0962964
0.0253063
0.0257234
0.0305568
3.78999
0.0248417
0.0330898
0.0240401
0.674378
2.03773
0.0263838
0.0281377
2.26971
0.0260323
0.0256914
0.0251102
0.0434998
0.0494607
0.0256067
0.0268962
0.0246825
0.0263334
0.0250234
0.0268376
0.0252225
2.5466
0.022943
0.0292685
0.0500861
0.0252296
0.0241637
0.0237803
0.486024
0.0315805
0.0332875
0.0224364
0.0663468
3.44576
0.0224594
0.0231557
0.024187
0.0298718
0.0510934
0.0245678
0.0267934
0.0291584
2.93614
0.0903822
0.0266709
0.023932
0.0275756
0.031815
0.0264028
0.0254471
3.14314
0.0269129
0.0260254
0.78699
0.030334
1.82725
3.19766
0.0258783
2.01526
0.0436762
0.0269398
0.0725651
3.07597
0.0252436
0.0232378
0.0245961
0.0262384
0.0238918
0.055077
0.0737676
3.11162
0.0231394
0.0832723
0.0920613
0.0335738
0.111493
0.0256573
0.0225103
0.0314547
0.357871
0.0307067
0.0345398
0.0240254
1.88891
0.0244505
0.0285582
0.229274
0.0290196
0.0329001
0.0252318
0.0245836
0.076836
0.0245734
0.0231741
1.19771
0.0240636
0.0248383
3.92381
0.0253168
0.0463098
2.38384
0.0227124
3.01341
0.0314637
0.0279361
0.0466441
0.0246703
0.0338329
0.0434611
0.0245201
0.0334665
0.0493863
0.0235252
0.0522843
0.0437397
0.188342
0.0464471
0.0240354
0.0279797
0.0231093
0.876869
0.31382
0.0231372
0.0264558
0.0248129
0.026508
0.0716051
0.0336148
0.0230541
0.0273006
0.0247794
0.0316885
0.0231555
0.0232379
0.0262938
0.0624876
0.0241437
0.266511
0.0988902
0.0241587
2.71036
0.0226264
0.0430922
0.11956
0.0380126
0.0224771
2.79121
0.0263533
0.142688
0.029229
0.0260786
0.200627
0.0267684
2.44015
0.0237857
0.0712767
0.024439
0.0325729
0.0261834
2.08335
0.0891439
0.0230905
0.0230811
0.0275828
2.89472
0.0224743
0.0256902
0.0263164
0.0225886
0.522708
0.024598
0.0224449
0.0457425
0.0240214
0.0236674
3.07718
0.0766514
0.0249576
0.314815
0.0424826
0.0242537
0.024643
3.64309
0.0224318
0.133763
0.0263293
0.0368625
0.0244109
0.0239127
0.0230958
0.103472
0.426533
2.65307
0.03134
0.0243135
0.0955943
3.33632
0.0247481
0.0263067
0.0241616
2.78525
0.0250345
0.309206
3.61597
1.29135
0.0240055
0.296329
0.0245765
0.0704827
0.0247301
0.0230612
0.069409
0.0327183
0.024126
0.0451911
0.112348
0.0726645
0.0345813
0.142559
0.0261915
2.93642
0.160924
0.0243197
0.0239653
0.305464
0.0459325
0.0611442
0.0230907
0.0412971
0.0227386
0.0228975
0.048772
0.0298787
0.0264923
0.100458
0.023689
0.0291563
0.0236372
0.774306
0.0229192
0.0239152
0.0354098
0.101998
0.0256238
3.23937
3.06775
0.0264988
0.0227348
0.024282
0.0266984
0.0934494
0.0244196
2.9486
0.18203
0.102883
0.0236282
0.0259804
2.58672
0.500413
0.695368
0.1445
0.0225864
0.184042
0.0660864
0.0515305
0.0227164
0.0230483
0.0242047
0.084672
0.0268953
2.33426
0.0244994
0.0230385
0.0240659
3.66007
0.0279946
0.0328858
0.0226025
0.0231685
0.0227732
0.0492458
0.051874
0.0223808
0.0419808
0.17312
0.274287
0.0234757
0.188178
0.0241026
2.94825
3.47
0.0227757
0.0230083
0.0491682
0.0247042
0.122848
0.0822159
0.0244071
0.0273551
0.0255726
0.0313031
0.024415
0.0297323
0.790617
0.0298877
0.0230857
0.809
0.330406
0.0571148
0.0226841
0.0229056
0.0234784
0.105347
0.0260316
0.0277417
0.0245091
0.025871
0.0225967
0.10488
0.0228826
0.0231542
0.0227214
0.0229861
0.0254495
0.0258044
0.046047
0.0260259
3.75371
0.0228916
3.90024
0.0381074
0.303224
0.496915
0.024551
3.00385
0.028885
0.0254681
0.0437894
0.0356918
0.0560122
0.0245921
0.107316
3.81419
0.403207
0.0291038
0.0390781
1.144
2.19658
0.0245226
0.0242326
0.0259988
3.18258
0.0237988
0.0249434
0.655582
0.0250411
0.0225376
0.165921
0.0734698
0.0997519
0.112654
0.0373809