/*--------------------------------*- C++ -*----------------------------------*\
| =========                 |                                                 |
| \\      /  F ield         | OpenFOAM: The Open Source CFD Toolbox           |
|  \\    /   O peration     | Version:  v2012                                 |
|   \\  /    A nd           | Website:  www.openfoam.com                      |
|    \\/     M anipulation  |                                                 |
\*---------------------------------------------------------------------------*/
FoamFile
{
    version     2.0;
    format      ascii;
    class       surfaceScalarField;
    location    "100";
    object      phi;
}
// * * * * * * * * * * * * * * * * * * * * * * * * * * * * * * * * * * * * * //

dimensions      [0 3 -1 0 0 0 0];
oriented        oriented;


internalField   nonuniform List<scalar> 
56329
(
-0.29926
0.356298
-0.0570381
-0.0109363
0.0717411
-0.0608047
0.066682
-0.145181
0.0784988
0.0491565
0.000958991
-0.0501155
0.367705
-0.2925
-0.0752048
0.361809
-0.354923
-0.00688585
-0.415056
0.337842
0.0772139
0.0468736
-0.0152034
-0.0316702
-0.135064
0.206239
-0.0711745
-0.136106
0.0655716
0.0705341
-0.245865
0.303873
-0.0580075
0.183404
-0.111091
-0.0723122
0.199347
-0.320801
0.121454
0.0751203
-0.228037
0.152917
0.223746
-0.118315
-0.10543
0.172882
-0.132675
-0.0402071
0.283036
0.110202
-0.393238
-0.00478251
0.031794
-0.0270115
0.085463
0.0979406
-0.174664
0.239677
-0.0650128
0.132449
0.0404334
0.00952241
-0.0339542
0.0244317
-0.269568
-0.0229665
0.292534
0.376408
-0.105805
-0.270603
-0.0139184
-0.00160006
0.0155185
0.281551
0.0799428
-0.361493
0.0375191
-0.129152
0.0916332
-0.000901504
-0.020445
0.0213465
-0.148327
0.075713
0.0726138
0.335134
-0.414958
0.0798235
0.282929
-0.0219833
-0.260945
0.000547723
-0.017576
0.0170283
-0.409909
0.309992
0.0999168
0.186672
-0.00209786
-0.184574
-0.0234265
-0.0864947
0.109921
-0.101736
0.0729084
-0.0162875
-0.0566209
-0.00544647
0.0477046
-0.0422582
0.231691
-0.232805
0.00111424
0.395013
-0.351804
-0.0432093
-0.168052
-0.183489
0.351541
0.12733
-0.0745489
-0.0527813
0.172521
-0.06899
-0.103531
-0.12628
0.0541968
0.0720835
0.153628
0.224299
-0.377928
0.180749
-0.0866106
-0.0941386
-0.0647781
0.178498
-0.11372
-0.199665
0.0785384
0.121127
-0.0417784
0.143378
-0.101599
-0.0304345
0.0765291
-0.0460945
-0.0225039
0.00252847
0.0199754
-0.197945
0.23336
-0.0354152
0.325373
-0.138701
-0.204414
0.202317
-0.120175
0.0967482
0.314473
-0.340931
0.0264584
-0.0520645
0.0700289
-0.0179643
-0.115741
0.162276
-0.0465349
0.0569902
0.000644874
-0.0576351
-0.0216095
0.0210796
0.000529903
0.0887619
0.0919873
-0.0337197
-0.0707298
0.104449
-9.62652e-05
0.0492527
-0.0612089
-0.0650714
0.192596
-0.265569
0.0729733
0.148374
0.0753712
0.0680022
-0.0789386
-0.000208167
0.0131257
-0.0129175
0.13315
-0.0344815
-0.0986688
-0.141064
0.0512818
0.0897818
0.0033247
0.311148
0.362609
-0.424831
0.0622221
-0.264652
0.066707
0.0634005
-0.0173818
-0.392147
0.335902
0.0562448
0.226856
-0.345717
0.118861
-0.0807673
0.0503328
-0.269116
0.349059
-0.0799432
-0.1714
0.0678571
0.103543
0.399588
-0.165965
-0.233623
-0.124904
0.0636953
-0.0387888
0.0340063
0.253923
-0.0656555
-0.188267
0.163137
0.162236
0.0121209
-0.162506
0.150385
0.0892436
0.201549
-0.290793
-0.0234054
0.0406349
0.0925155
0.0713798
0.00152864
0.332874
-0.051323
-0.021057
0.0207186
0.00033838
-0.0112696
0.116125
-0.104855
0.00202264
-0.39417
-0.108178
0.0744585
0.274401
-0.407771
0.13337
-0.0370358
0.0228866
0.0141492
0.346939
-0.0725379
-0.17709
-0.184072
-0.0167938
0.00287541
-0.434286
0.35642
0.0778663
-0.0676472
0.0155827
0.377802
-0.293792
-0.0840103
0.276174
-0.0835782
-0.162586
0.174707
-0.248973
0.148157
0.100816
-0.0283992
0.0379216
-0.435215
0.356744
0.078471
0.0660334
-0.0123823
-0.0536511
-0.172759
0.135151
0.0376079
-0.3528
0.26365
0.0891493
0.00871157
0.0546889
-0.00504363
0.0305869
-0.0255433
0.288416
0.106597
-0.0011438
-0.0157745
0.0169183
0.0316599
-0.0367036
-0.148225
0.222039
-0.0738145
-0.290465
0.363616
-0.0731505
-0.136241
-0.00366565
0.139907
0.210177
-0.150171
-0.0600058
-0.14531
-0.0231662
0.168476
-0.209506
0.0893015
0.120205
0.0396352
-0.0411851
0.0015499
-0.160118
0.313746
-0.398872
0.353041
0.0458312
-0.239619
0.37078
-0.131161
-0.0420467
-0.294185
0.336232
0.220188
-0.111478
-0.108711
-0.288687
0.388721
-0.100035
-0.214884
0.353414
-0.13853
-0.0877317
0.133753
-0.0460208
0.220478
-0.0721036
0.302728
-0.103381
-0.290516
-0.108357
0.296377
-0.338424
0.333083
-0.273261
-0.0598224
-0.134327
0.0619539
0.0723732
-0.329752
0.0901326
-0.0144162
-0.00151485
0.015931
-0.0999491
-0.0470527
0.147002
0.178506
-0.0930434
0.0408707
0.0864596
0.218227
-0.143107
0.22265
-0.160411
-0.0622392
-0.363241
0.148357
-0.339859
0.264028
0.0758316
0.0778223
0.100684
-0.20463
0.139733
0.0648966
0.360652
-0.249463
-0.111189
-0.0460142
0.342392
-0.0182616
-0.0324526
0.0507142
0.190472
0.0321775
0.278377
-0.385176
0.106799
-0.0276514
-0.0247458
0.0523972
0.0719653
-0.0188031
0.301732
0.300303
-0.346317
0.0255539
0.0378936
-0.0634475
-0.199486
0.361979
-0.162492
0.398495
-0.161783
-0.236712
-0.207651
0.32727
-0.11962
0.0303517
-0.011096
-0.0192557
0.0165191
-0.0159714
0.171667
-0.0695118
-0.102155
-0.358629
0.109166
0.0531905
-0.103135
0.0499445
-0.316231
0.108581
0.136147
-0.18555
0.049403
0.0876613
0.132527
-0.250446
0.00393957
0.246507
0.3447
0.017109
-0.016461
0.0764092
-0.0599482
0.292305
-0.0621443
-0.230161
0.139889
0.0702878
0.0807791
0.137448
0.0160935
0.336948
-0.211928
0.0768637
0.196355
0.10123
-0.297585
0.0467821
-0.135608
0.0888261
0.305972
0.0271114
0.379832
-0.168163
-0.21167
-0.119643
0.0450937
-0.147227
-0.168932
0.31616
0.14844
0.231392
0.303641
-0.168988
-0.134653
-0.312612
0.369242
-0.0566299
7.88131e-05
-0.0172697
0.0171909
0.259915
0.0323902
-0.0154435
0.00102735
0.0816158
-0.00782786
-0.073788
0.193615
-0.275505
-0.0255432
-0.0407984
0.0663416
-0.259699
0.0850352
0.0375949
-0.0870656
0.0494707
-0.395184
0.302159
0.0930248
0.269366
-0.195394
-0.0739725
0.0516929
0.217673
0.0383742
-0.0660255
-0.192882
0.282126
-0.0147236
0.0172521
0.265334
-0.071719
-0.0587317
-0.0661725
0.123058
-0.309858
0.1868
0.159735
-0.256703
0.0969684
0.175976
-0.0872145
0.0722533
0.315683
0.0828118
-0.0242171
0.00608637
0.0181308
-0.286435
0.365806
-0.0793713
-0.0359187
0.0306849
0.00523388
0.0105535
0.249389
-0.259943
0.0270767
-0.0814327
0.0543561
-0.0828569
0.0845396
-0.00168276
0.0600681
0.334424
-0.0513875
0.194415
-0.393902
0.015795
-0.152036
-0.0594293
0.0719316
-0.0125023
0.0785423
-0.261802
-0.0150702
0.0739332
-0.058863
0.320567
-0.197509
0.0793154
0.0966609
0.316348
-0.303753
-0.0125948
0.0158545
-0.320048
0.304194
0.0136819
-0.0731111
0.26372
-0.349189
0.0854688
-0.0350637
0.0337966
0.00126708
-0.290623
0.379807
-0.0891837
0.0395244
0.0104302
-0.0499546
-0.0417284
0.147422
-0.105693
0.118609
0.201958
-0.417151
0.417151
-0.094434
-0.215424
-0.105834
-0.0757425
-0.0349969
0.110739
0.0225093
-0.0274824
0.00497313
0.284351
0.0319968
0.183773
-0.267084
0.0833107
-0.277098
0.362701
-0.0856033
0.0560285
-0.0815716
0.301244
-0.367785
0.0665415
0.00791734
-0.170504
-0.0207806
-0.0162552
-0.0562135
0.123406
-0.0671927
-0.129181
0.0414494
0.0719569
-0.0632453
-0.182037
0.189955
-0.0261291
0.0326292
-0.00650013
0.0979719
0.0113917
-0.109364
-0.144003
0.281748
-0.137745
0.366114
-0.102394
-0.0380449
-0.0701332
0.00892652
0.0214251
0.248879
0.10403
-0.352909
0.19068
0.112961
-0.123437
0.0552741
0.0681627
0.206004
-0.289164
0.0831604
0.425211
-0.182963
-0.242248
-0.0826555
-0.0484338
-0.241873
0.290307
0.320059
-0.123705
0.156004
0.269207
0.0632054
-0.204088
0.140882
0.00877578
-0.0410385
0.0322628
0.283733
-0.126366
-0.157367
0.0438854
0.00807736
-0.0519627
0.0826856
-0.055609
-0.364595
0.0954796
-0.211333
0.2879
-0.0765671
0.354059
-0.274968
-0.0790916
0.097919
-0.248893
0.150974
0.248488
-0.296921
0.0353025
0.11226
-0.147563
0.0530478
-0.12311
0.0700617
-0.030013
-0.111824
-0.0878419
-0.176251
0.0435762
0.357239
0.0206222
-0.377862
-0.000339898
0.0134656
-0.0438378
-0.238713
-0.095869
0.334582
-0.233435
0.331855
-0.0984207
0.0815949
-0.0727217
-0.00887313
0.152296
-0.0721338
-0.0801617
0.29473
-0.0887265
0.0282092
-0.00569992
-0.11004
0.0719951
-0.274091
0.369973
-0.0958822
-0.265628
-0.17111
0.0658612
0.105248
0.333774
-0.0848953
-0.0190415
0.19869
-0.179648
0.00360026
-0.0168916
0.0132913
-0.0853815
-0.0507242
-0.372365
0.0982746
-0.00790002
0.0427945
-0.0348945
0.122861
0.157862
-0.280723
-0.165684
0.288545
0.223038
-0.135895
-0.0871429
0.276283
-0.26573
0.157259
-0.304487
-0.132633
-0.0436187
-0.10574
-0.0425871
0.0647053
0.106962
-0.19807
0.141446
0.0566244
-0.148489
0.30635
-0.000636039
0.363245
-0.2055
0.0836844
0.121816
-0.170995
0.0776436
0.0933513
0.0293357
-0.163768
0.134432
0.0935492
0.190184
0.0585291
0.132677
-0.208693
0.0760158
-0.0828614
0.0665739
-0.0886388
0.314856
-0.226217
0.0510823
-0.163364
0.112281
0.375804
-0.29839
-0.0774135
-0.183139
0.19676
-0.013621
0.195756
-0.0630794
-0.123476
0.152811
-0.187853
0.168811
0.0330928
-0.00250588
-0.0123818
0.0519061
-0.0100144
0.0292979
-0.0192835
-0.350269
0.0564766
-0.070194
-0.0438824
0.114076
0.0404722
-0.0330894
-0.00738287
-0.197947
0.283651
-0.0857036
-0.10145
-0.103179
0.0389915
-0.110382
0.0713909
0.105273
-0.0662817
-0.0396661
0.0500962
0.308415
0.0326351
-0.341051
0.363221
-0.155598
-0.207623
0.0541952
-0.344711
-0.151785
0.229556
-0.0777708
-0.0964244
0.0458993
0.050525
-0.00243491
0.0177334
-0.0152984
0.157499
-0.254651
0.0971521
0.0505357
-0.0066503
-0.320166
0.231527
-0.0154849
0.0143227
0.00116218
-0.095615
0.0818642
0.0137508
-0.286338
0.366733
-0.0803959
-0.174507
-0.0753756
0.249883
0.00641967
-0.0325488
0.00289544
0.0147082
-0.0176036
-0.130274
0.0600796
-0.133583
0.0178414
-0.248068
0.321901
-0.0738329
0.222248
0.00407545
-0.226324
-0.136221
0.094443
0.0135942
-0.0139341
0.114786
-0.100207
-0.0145794
-0.26263
0.253843
0.0087867
0.0469399
0.294886
-0.341826
0.0177422
0.000619759
-0.018362
0.235565
-0.342755
0.10719
-0.394349
0.237179
0.15717
-0.274198
0.382804
-0.108607
0.268809
0.0241364
-0.292945
-0.142203
0.0551856
0.0870169
-0.357029
0.0828314
-0.274676
0.370289
-0.0956135
0.107879
-0.0546883
0.406307
-0.247809
-0.158498
0.0143396
0.0457247
-0.0600642
0.0427498
-0.0947187
0.0519689
0.318745
-0.386891
0.0681457
0.196267
-0.282534
0.0862677
0.372299
-0.0535539
0.104778
-0.17429
0.362813
-0.0625105
-0.0293618
0.0897364
-0.0603746
0.238145
-0.245909
0.127003
-0.292687
-0.110963
-0.0985434
0.0160118
-0.015933
-0.0153949
-0.106713
0.122108
0.341783
-0.341783
0.00284059
0.0787543
0.0135034
0.0584535
0.126924
0.096114
-0.275163
0.37118
-0.0960173
-0.0564518
0.334829
-0.198533
0.0970594
0.101474
0.253863
-0.361644
0.107781
-0.0159915
0.0166794
-0.000687906
0.208107
0.100263
-0.30837
0.302397
-0.106131
0.0442052
0.00266844
0.0462748
-0.11861
0.0723356
-0.00471796
0.160021
-0.155303
-0.299514
0.365418
-0.0659041
0.34851
-0.140403
-0.361385
0.0618715
-0.0118847
0.232257
0.0658462
-0.298103
-0.314078
-0.047307
0.339696
-0.293393
-0.0463025
0.0761001
-0.181455
0.105355
-0.0128563
-0.0222074
-0.149958
0.262337
-0.112378
0.0018785
-0.125739
0.18463
-0.0588916
-0.0151541
0.350288
-0.16134
0.0620132
0.099327
-0.135751
0.148267
-0.0125161
0.174857
-0.110151
-0.25594
0.0863627
0.169578
0.123936
-0.0579549
-0.0659813
0.0134826
-0.0892251
-0.0431146
0.120613
-0.0774988
-0.298734
0.380146
-0.0814122
-0.0730957
0.305353
0.226108
-0.145329
-0.120372
0.0651843
0.0551877
0.0621524
0.0125559
-0.0747083
0.336773
-0.322471
-0.0143021
-0.258838
0.354112
-0.0952738
-0.157934
0.116206
0.314004
-0.0871478
-0.0325591
-0.250732
0.283291
0.0816634
-0.0203849
-0.0612785
-0.100844
0.0854488
-0.368449
0.309569
0.0588798
-0.305804
0.107857
0.316511
0.0202618
-0.0600338
-0.0177329
0.0017414
0.0288489
-0.212599
0.18375
0.141868
-0.106566
-0.103568
0.141473
-0.0379046
0.038533
-0.172573
0.13404
-0.222089
0.106574
0.115514
-0.00313358
-0.013758
0.443989
-0.193688
-0.2503
-0.11076
-0.0619992
0.261026
0.0720396
-0.254583
0.182543
0.375247
-0.246948
-0.128299
0.286031
-0.354754
0.0687224
0.0631918
0.0740692
-0.341412
0.267343
0.198772
0.0790805
0.265197
-0.348708
0.0835111
-0.167904
-0.0601335
-0.0851613
-0.155534
0.240695
0.272845
-0.078364
-0.194481
0.0740481
-0.0859846
0.0119365
0.0846145
-0.248518
0.163903
-0.077103
-0.128397
0.0183052
-0.240009
0.221704
-0.249453
-0.165603
-0.115637
0.250976
-0.135339
-0.212041
0.290673
-0.0786323
0.046011
-0.149579
-0.0928198
0.0468264
0.0459934
0.260356
-0.102857
-0.175565
-0.365489
0.0908138
-0.233955
0.276678
-0.0427233
0.299964
-0.179417
-0.120547
-0.335301
0.0809866
0.254314
-0.366551
0.0913881
-0.0655542
0.108304
0.0606294
-0.270013
0.209384
-0.172681
0.124748
0.0479329
0.374831
-0.109634
-0.0536969
0.0482505
-0.00499641
-0.240869
-0.0107437
-0.0134734
-0.241668
0.156507
-0.175906
0.111128
-0.292002
0.229936
0.0620666
-0.278003
-0.081914
0.359917
0.236581
0.138666
-0.0803349
-0.075075
0.15541
0.246053
-0.278613
-0.0383813
0.0304813
-0.267607
0.36286
-0.0952531
0.123977
-0.0512188
-0.0727586
0.00117853
0.356061
0.00171017
0.00876412
-0.0104743
-0.0998203
0.118641
-0.0188206
0.360086
-0.212666
-0.14742
-0.0577657
0.071843
-0.0140774
-0.223293
0.0628829
-0.24393
0.262235
-0.00225708
-0.0361242
0.0814075
-0.120795
0.0393876
-0.351004
0.0645699
0.244162
-0.146243
0.307886
0.0669456
-0.292028
0.369524
-0.0774959
-0.00714648
0.0191903
-0.0120439
0.0411658
-0.0525184
0.0113527
-0.0511509
-0.301194
0.352344
-0.0607717
0.0643303
-0.00355857
-0.353905
0.0759019
-0.297774
0.379355
-0.0815816
0.0952008
0.288759
-0.33991
0.333911
-0.122788
-0.211123
-0.0215296
0.0271594
-0.00562973
0.0600034
0.00602993
-0.0749813
0.156389
-0.363549
0.104711
-0.00174543
-0.0198641
0.0826895
-0.0648138
0.366058
0.0655207
0.0584567
0.0720887
-0.0787012
-0.0447356
0.26142
-0.109547
-0.151873
0.0774437
-0.0746031
-0.3274
0.0939655
0.0141659
-0.050063
0.338822
-0.0819221
0.0668519
-0.188553
0.00541406
0.0479852
-0.225876
0.17789
-0.201811
0.0516405
0.0315801
-0.17689
-0.0578025
0.0876636
-0.0298611
0.173525
0.186561
-0.112013
-0.0589818
0.402009
-0.168368
-0.233642
-0.13084
-0.0912485
-0.153999
0.0540501
0.000763769
-0.242042
0.241278
-0.0934065
-0.129887
0.11278
-0.0665052
-0.0134576
0.0732378
-0.0597802
-0.0145089
0.00050093
0.014008
0.295
-0.345063
-0.14965
-0.0993225
0.281232
-0.373609
0.0923772
-0.0956471
0.0903767
0.00527034
0.00581618
-0.0273458
0.16032
0.101101
-0.0266463
0.0287452
-0.00209883
-0.20239
0.109924
0.092466
0.200225
-0.0759561
-0.124269
0.0289349
-0.186224
0.157289
0.0599857
0.222381
-0.282367
0.105246
-0.0500067
-0.0552395
0.00156285
-0.129002
-0.0733876
-0.0846291
-0.227487
0.312116
-0.202013
-0.0561643
0.258178
0.0525891
0.0526571
0.00980558
-0.109626
-0.164614
-0.125235
-0.0698318
0.137377
-0.067545
0.127885
-0.087014
-0.0307291
0.0363156
-0.00558651
0.377379
-0.284804
-0.0925746
-0.0919506
-0.266678
-0.00132528
0.0190675
0.23114
-0.0994607
-0.13168
-0.0830849
-0.213378
0.296463
0.0721901
-0.0935346
-0.269707
-0.151284
0.180219
-0.00676758
-0.00366809
0.0104357
0.0397255
-9.0306e-05
0.0515588
-0.0949207
0.0433619
0.00452079
-0.03292
-0.245139
0.276079
-0.03094
-0.0336293
-0.10665
0.140279
-0.386566
0.212087
0.17448
-0.119554
-0.0518463
-0.0501444
0.14082
-0.0906758
0.0756633
0.0466531
-0.122316
-0.273092
-0.113474
-0.400475
0.309852
0.0906226
-0.292491
0.0510837
0.284631
-0.335714
-0.0406519
-0.311152
0.160826
-0.109744
-0.0152778
0.000768881
-0.0549723
0.343388
-0.0820248
0.0228099
0.119058
0.211251
-0.210487
-0.0586276
0.275103
-0.337397
0.0622943
0.0312873
0.0220429
-0.29963
0.370347
-0.0707175
0.0958924
-0.0410453
-0.0548471
0.115454
-0.0327686
0.0204927
-0.11614
-0.0909563
0.274729
0.350206
-0.300439
-0.0497672
0.0487267
-0.00102205
-0.0856784
0.161778
0.170465
-0.261894
0.0914292
-0.297622
0.0636673
0.376591
-0.0600804
0.0378752
-0.111878
0.0740025
0.076438
-0.119553
-0.0721649
-0.152459
0.112895
0.0395642
-0.0411919
0.209813
-0.168621
0.0592627
-0.235844
0.176581
0.0768812
0.00478219
0.0334401
0.0813461
0.0675897
0.107267
-0.0142399
-0.126824
-0.204799
0.0853762
0.119422
-0.0406378
0.0383808
-0.0827962
0.0693387
-0.0980193
-0.100514
0.350374
0.00517777
-0.355551
-0.021286
0.00084098
0.0880759
-0.0259234
0.179175
0.0265627
-0.205738
0.123559
-0.0626452
-0.0609133
-0.0232036
0.115703
-0.092499
0.012543
-0.0108328
0.378266
-0.00408248
-0.374184
0.0175326
0.122201
-0.154122
0.149404
0.0690687
-0.136112
0.0670429
0.312626
0.00459876
-0.317225
0.0497255
-0.115901
0.0661759
0.170862
-0.0357107
-0.302289
-0.0759407
0.205974
-0.130034
0.00450719
-0.0112748
-0.206082
0.120534
0.0456301
-0.118037
0.0724064
-0.115841
0.0926379
0.0774302
0.182437
-0.259867
0.126597
-0.0592883
-0.0673083
0.00386675
-0.0345958
-0.00366112
0.22591
0.0424071
0.0499616
-0.0923687
-0.307547
0.380224
-0.0726775
-0.0429628
0.166392
-0.123429
-0.385234
0.0776874
-0.0255933
0.081878
-0.0562847
0.258143
-0.0876778
0.126014
-0.0792315
-0.201514
0.0831266
0.118388
-0.357999
0.233767
0.124232
0.0527137
0.0181145
-0.131484
0.113369
-0.196659
0.138422
0.058237
0.0168362
-0.0948989
0.0780628
0.217398
0.0600429
-0.277441
0.147629
-0.221765
0.074136
-0.35013
0.0559444
0.0541797
0.0417127
-0.222894
0.181702
0.033826
0.0558427
-0.0896687
-0.0546571
-0.121549
0.176206
-0.360107
0.360996
-0.000888708
-0.0421163
0.354743
0.0417088
0.093172
-0.134881
-0.0261962
-0.00972249
-0.251598
0.336411
-0.0848131
-0.390279
0.12826
0.262019
0.240505
0.124367
-0.364871
-0.134569
-0.0702292
-0.00537574
-0.0299807
0.0353565
-0.0489702
-0.0403256
-0.00812868
0.0484543
-0.332582
0.380664
-0.136988
-0.243675
-0.00702586
0.0640161
-0.278384
-0.0952249
0.0637601
0.312831
-0.1785
0.0527611
0.0538092
-0.352199
0.0101568
0.0060588
-0.0162156
0.0625143
-0.0881076
0.0993174
0.0814535
-0.180771
0.300325
0.0760828
-0.244219
0.347978
-0.103758
0.34091
-0.0523602
-0.28855
-0.192424
0.269855
-0.0514661
0.268864
-0.0496773
-0.0701485
0.0398878
-0.100448
-0.155492
0.355411
-0.290339
-0.0650718
-0.0354096
0.00322467
0.0321849
0.102679
-0.084565
0.159927
-0.237751
0.0778241
-0.354242
0.110023
0.00691932
-0.272412
0.265493
0.0623552
-0.254635
0.19228
-0.0974392
0.165029
-0.0773277
0.0615973
0.0157304
0.0709558
-0.0470648
0.0589549
-0.0276676
-0.0624991
0.0386703
-0.0341495
0.267737
0.106259
-0.373996
0.0621049
0.0533494
0.114595
0.0447589
-0.363649
0.0985001
0.265149
-0.175914
0.121257
0.0129169
-0.148668
0.0542171
-0.396276
0.202588
0.36466
-0.0696603
-0.133679
-0.0724025
-0.267817
0.0762166
0.1916
0.0858643
-0.0343054
-0.198131
-0.197052
0.200707
0.0463038
-0.247011
-0.113313
-0.185988
0.299302
0.125215
-0.168178
-0.153183
0.280186
0.222249
-0.112325
0.175325
0.100849
-0.231998
-0.202288
-0.276835
0.365199
-0.0883637
0.0514724
0.0355933
0.0922913
0.0165661
-0.023485
0.00691895
0.130919
-0.108109
-0.230101
0.338794
-0.108693
-0.396359
0.252194
0.144165
0.0432908
0.093812
-0.137103
0.330601
-0.406059
0.0754575
0.0906987
0.272162
0.0499402
-0.181695
0.131755
-0.0233594
-0.0362148
0.0595742
0.16987
-0.138181
-0.0316891
-0.0588597
0.0405981
-0.0840274
-0.055983
0.14001
0.0838705
-0.00939978
-0.0744707
0.244212
-0.0842856
-0.00430041
0.0254745
-0.0211741
0.0469733
-0.124074
0.0771006
-0.23321
0.360193
-0.126982
0.374134
-0.0256234
0.0072552
-0.0109233
-0.0273084
0.252004
-0.224696
0.30111
-0.188727
-0.112383
0.0174393
0.00549124
-0.0229306
0.295848
-0.377079
0.0812305
0.0811739
0.0138782
-0.095052
0.291187
0.082946
0.0562557
0.175435
0.17516
-0.260739
0.0855789
-0.38298
0.250062
0.132918
-0.00901242
0.0501782
-0.0137225
0.173743
0.0957356
0.126514
0.246317
-0.273625
-0.0774168
0.252742
-0.300476
0.380656
-0.0801798
-0.346536
0.107823
-0.141787
0.0601273
0.0816602
-0.177181
0.322832
-0.145651
-0.112694
0.302986
-0.102348
-0.200638
-0.0372876
0.0628415
0.013925
-0.156079
-0.119754
-0.0697156
-0.0720719
0.181392
0.0506256
-0.232018
-0.013087
0.0149655
0.231234
0.0698763
-0.0683882
0.208277
-0.0659863
0.341089
-0.307444
0.154261
-0.228316
-0.16796
0.0150968
0.115822
0.02866
0.00556216
-0.0342222
0.294968
0.0696918
0.369321
-0.0743533
-0.0260789
0.0324986
0.158977
-0.272291
-0.0750083
0.306242
0.0795472
0.0020686
-0.0873973
-0.0344885
0.121886
0.0519949
0.0198482
-0.0609601
0.086468
-0.0133462
-0.0731219
-0.052087
0.0397047
0.0263659
0.248906
-0.0737463
0.0158493
-0.0169931
-0.051226
0.232618
-0.0446585
0.0612072
-0.274853
0.213646
-0.352835
0.118409
0.234427
-0.246068
0.182964
0.0631041
0.00154494
0.0758987
-0.123019
-0.262137
0.0171576
-0.00700084
-0.174715
0.0551608
0.0822777
-0.133901
0.0516238
0.0133684
0.00127122
-0.0146396
0.0940953
-0.0318304
-0.062265
-0.245522
-0.137458
0.190417
0.217406
0.131709
-0.208812
-0.152943
-0.0420374
0.19498
0.249527
0.0777
-0.327227
-0.14651
-0.00900922
0.155519
-0.0906745
0.336728
0.389576
-0.0536733
0.252487
0.0884235
0.239339
-0.237596
-0.00174278
0.376444
-0.0668746
0.0763498
-0.0123503
-0.0639995
-0.0509425
-0.181863
0.0707826
-0.145764
-0.306817
0.180451
0.153585
-0.082802
-0.065839
-0.029776
-0.183675
-0.251541
-0.000591474
0.252595
0.336093
-0.0865669
0.161443
-0.300154
0.138711
-0.0562139
0.256921
-0.109269
0.0471055
0.062163
-0.249826
-0.0421762
0.056982
-0.17579
0.118808
0.333772
0.0444946
0.0385327
-0.104227
0.0656942
0.0390789
-0.136364
0.0972848
0.114606
0.189266
-0.240752
0.31784
-0.0770882
0.113539
-0.260419
0.14688
0.0307438
0.208595
0.310711
-0.149268
-0.0924049
-0.333941
0.27257
0.0613705
-0.295556
0.277193
0.0183635
0.0678256
-0.0158307
-0.269597
0.285452
-0.258416
0.333501
-0.0750852
0.0578464
0.0721931
0.0513654
0.1175
-0.0453072
-0.304428
0.136376
0.0920584
0.255919
0.0835602
-0.066724
0.209761
-0.336867
0.127106
0.0151888
-0.00182033
0.133845
-0.0515678
-0.109784
0.0486351
0.0611493
0.0491944
0.291072
-0.340266
-0.0697635
-0.0508031
0.120567
-0.0834483
-0.244521
0.0421087
0.00842701
-0.122632
-0.0568037
0.204786
-0.147982
-0.0210485
-0.0618084
0.277754
0.00583431
-0.283588
-0.359022
0.181932
0.24696
-0.0725518
-0.174408
0.0440842
0.0686958
0.177907
0.0248072
-0.0653825
0.0405753
0.256868
-0.249948
-0.120146
0.166157
-0.120798
0.016249
-0.0133536
-0.0524722
-0.0573122
-0.27789
0.384398
-0.106508
-0.18294
-0.123877
-0.0092492
-0.101842
0.0465289
-0.000896238
-0.0456327
-0.174382
-0.178417
-0.0519387
0.33797
0.158249
0.0116209
-0.094916
-0.111386
0.102137
-0.0155899
0.0967638
-0.0506227
0.038241
-0.13691
-0.123829
0.00947097
0.0439649
-0.0534358
-0.0287486
-0.00666094
0.0231982
-0.028574
-0.0844741
0.029046
0.0554282
-0.245452
0.0156545
-0.311682
0.106348
0.205334
0.328598
-0.279208
-0.0493907
0.0427481
0.109547
0.159537
0.0625018
0.0526511
-0.270646
0.217995
-0.181958
0.0568482
0.125109
0.0488581
-0.00674944
0.0199769
-0.166487
-0.289866
0.101139
0.354356
-0.288089
-0.0662674
0.214204
-0.339939
0.125735
0.26202
-0.209369
0.298976
-0.356735
0.0577593
-0.0747653
0.222922
-0.050391
-0.245165
0.28431
-0.372562
0.0882516
-0.227577
0.294754
-0.0671769
0.215336
-0.265013
0.343619
0.00329757
-0.346916
0.251493
0.104973
-0.356466
0.0280467
-0.0285077
0.000460997
0.295911
0.0148005
0.00828172
0.0465154
-0.0547971
0.120382
0.21353
0.075566
0.0419343
0.0595015
0.0402889
-0.0997904
0.310965
-0.101204
0.310626
-0.0147155
0.00202469
-0.0193504
0.0173257
0.0157933
0.0246789
-0.105136
-0.0150098
-0.0518139
0.117968
-0.0661542
-0.132465
0.0426381
0.0898273
0.068848
0.285508
0.0849418
-0.343358
0.0332002
0.072073
-0.0584641
0.0609908
-0.00252668
-0.0715694
0.33522
-0.159706
0.0471072
-0.157001
0.109894
-0.0160782
-0.138044
0.302763
-0.0250092
-0.014186
-0.0569221
0.0711081
0.0785824
0.00788567
-0.0633243
0.0798195
-0.0164952
-0.294065
0.0664884
-0.0519184
0.127582
0.0835576
-0.0545777
-0.0289799
-0.0146677
0.0160573
-0.00138958
0.316522
0.0338516
-0.0042085
0.360953
-0.0620362
-0.113869
-0.331325
-0.085827
-0.375202
0.146979
0.228222
0.154583
-0.211387
0.00920249
0.0671473
0.30267
-0.251586
-0.0852183
0.153075
0.167727
0.22762
-0.0316294
-0.195991
-0.0193446
0.0194362
-9.16001e-05
0.0862545
-0.371317
0.285062
-0.0588258
0.055431
0.00339481
-0.195344
-0.194935
-0.0149706
-0.166876
-0.195144
0.36202
-0.0566025
0.0681257
-0.0115232
-0.219198
-0.0622245
0.00123415
0.0609904
-0.110741
0.161373
-0.050632
-0.36413
0.36413
-0.0498435
-0.0705285
0.0465108
0.0713417
0.109767
-0.0479664
-0.0618002
0.356504
-0.087494
-0.26901
0.346567
-0.260312
0.0332689
-0.0566282
-0.154208
0.167568
0.00813013
-0.175699
0.118465
0.0357309
0.0501333
-0.377441
0.301913
0.0755283
0.126296
-0.0835648
-0.0427307
-0.0747878
-0.270093
0.344881
0.0676575
0.0946187
0.0093275
-0.0612858
0.0519583
-0.13773
0.065451
0.0722791
-0.0729803
0.290416
0.0400243
-0.330441
-0.0744044
-0.0452382
0.0412153
0.0907605
-0.131976
-0.107065
0.0419147
0.0651507
-0.00094805
-0.0175694
0.0185174
0.153613
-0.169691
-0.128878
-0.0729331
-0.0207371
0.00256087
0.0181763
0.03663
-0.00797001
-0.0234631
0.0191627
0.0572465
0.0690491
0.00418512
-0.0217366
0.0175514
-0.0307774
0.0045812
-0.0370382
0.140749
-0.103711
0.310792
0.091217
-0.0241357
0.361978
0.228399
-0.313028
0.0433023
0.0959534
-0.139256
0.0696917
-0.00217594
0.0148611
-0.0126851
0.0727366
-0.288454
0.215717
-0.36481
0.0727818
-0.0135032
0.140427
0.0616953
-0.117909
-0.100163
-0.139554
0.239717
-0.366035
0.314418
0.0516179
-0.261344
0.190673
0.0706707
-0.0550546
0.124123
0.263182
0.0686611
-0.331843
-0.138644
0.0549498
0.0836937
-0.0984201
-0.24145
0.33987
0.21401
-0.344816
0.130806
-0.031617
0.0684025
-0.0367855
-0.0450585
0.00473294
-0.0634175
-0.122132
0.32001
-0.106
0.280988
-0.208252
0.0498475
0.194259
-0.244107
-0.31133
0.206529
0.104801
-0.424469
0.22076
0.20371
-0.00102668
-0.0224364
0.0956274
-0.0101433
-0.0854842
0.345906
-0.0920427
-0.0752315
-0.0590956
-0.207902
-0.216568
-0.356617
0.281829
-0.00591859
-0.0563059
0.301902
-0.362095
0.0601924
0.02457
-0.118633
0.094063
0.200977
-0.117767
-0.0832103
0.119215
-0.0556658
-0.0635491
-0.121006
-0.0537089
-0.0932734
0.136576
0.0937887
0.26027
-0.335558
0.168906
0.166652
0.0914292
-0.145577
0.0541478
0.352562
-0.0504033
-0.136515
0.0666834
0.120644
-0.0147074
-0.105936
-0.133375
-0.0681396
-0.0640547
-0.0323697
-0.220929
-0.114629
-0.110812
0.0482744
0.0625371
0.0356596
0.0112438
-0.0469035
0.233716
-0.127142
-0.0228707
-0.0945127
-0.378707
0.214115
0.164592
-0.120849
0.0553066
0.0655424
0.261186
0.0149153
-0.276102
0.28145
-0.23451
0.0403172
-0.0727308
-0.0649992
0.0113754
0.0533194
-0.0646948
-0.181413
0.137335
-0.0638064
-0.0735289
-0.0905552
-0.0419102
0.0427982
0.0551384
-0.0979367
0.0236042
0.230859
-0.0818903
-0.148969
0.116617
-0.0920466
-0.0217415
0.278609
0.285811
-0.394477
0.108667
0.062822
0.109039
0.124677
-0.0717527
-0.0313824
-0.150771
0.0704359
-0.085082
-0.156586
0.258236
-0.186196
0.04883
-0.201773
-0.052362
0.0637375
0.171099
-0.0932767
-0.017359
-0.240329
0.257688
-0.0202458
0.0192978
0.0257551
-0.00558285
0.0221489
0.156606
-0.151031
-0.0978617
-0.0146305
-0.257782
0.113895
-0.190779
0.0768838
0.0744419
0.0966571
-0.409213
0.176003
-0.0076312
0.103259
-0.153299
0.0623103
0.0909891
-0.0239388
-0.00683863
0.280676
0.0757093
-0.356385
0.0418501
-0.0508626
-0.378096
0.102074
0.276022
0.198542
0.029078
0.289475
0.0670297
0.0900888
-0.1514
0.0613114
0.00604485
0.0148373
-0.0208822
-0.0378911
0.0269661
0.162244
-0.18921
0.175938
0.0682748
-0.067757
0.120805
0.0314721
-0.00342543
0.0199159
-0.0191946
-0.000721332
0.0464421
-0.360521
0.238867
-0.337287
-0.352328
0.0545541
-0.128709
-0.249387
0.0196788
-0.312179
-0.173114
0.111078
0.0700353
-0.244543
-0.0451053
-0.13635
0.0144838
-0.0169187
0.0382947
-0.155001
0.116706
0.261653
-0.043782
0.103283
-0.360517
0.104114
0.256403
-0.184598
0.234446
-0.245336
0.187533
0.0578027
0.0313539
0.279507
-0.216355
-0.0631519
0.0874521
0.143407
-0.0104287
-0.137368
0.147797
-0.390488
0.206999
-0.12156
0.0539354
0.0676247
0.0500993
-0.184046
0.133947
0.0814198
-0.0355205
0.150013
-0.102906
-0.109805
0.27325
-0.163445
0.0549337
-0.355373
-0.159695
0.186661
-0.0912518
0.0289364
0.0623154
-0.323731
0.0822808
0.0676532
0.133324
0.44203
-0.27436
-0.16767
-0.133755
-0.225267
-0.148035
0.114406
-0.13127
0.243363
-0.265105
0.274252
-0.17357
-0.100682
0.041521
0.0844926
-0.0460195
-0.0489012
-0.137161
0.121975
0.0151858
-0.327771
0.0976699
-0.220173
-0.0169204
0.0152439
0.00167651
0.040743
-0.141416
0.100673
-0.361696
0.160907
0.200789
0.262241
-0.3068
0.0445592
-0.199524
0.287543
-0.088019
-0.236088
-0.125608
0.393388
-0.326921
-0.0664674
0.342621
-0.399896
0.0572749
-0.0395847
-0.0230443
0.0626291
0.0482329
0.0615338
0.0124352
-0.0195817
-0.0538271
-0.00109817
0.0549252
0.0221814
0.0605677
-0.0827491
-0.0527685
-0.0200672
0.0728357
-0.318923
0.0956138
0.223309
-0.0321657
-0.0606541
-0.173035
0.0979596
-0.386126
0.0992977
0.286828
0.0438357
-0.101477
0.0576412
0.0057646
0.350655
0.0126549
0.103962
-0.225531
-0.0933914
0.0712528
0.0244113
-0.0956641
-0.35572
0.0653816
0.328019
0.128338
-0.204005
0.0756668
0.0624349
0.239167
-0.301602
0.2718
0.0747669
0.19927
-0.221139
-0.179336
-0.144631
0.19997
-0.0553391
-0.374273
0.0974377
-0.131596
-0.24938
0.227457
-0.309609
0.0821516
-0.0159752
-0.0842315
-0.0413388
0.117052
0.293142
0.106446
-0.0833748
-0.270867
-0.0808809
-0.0613216
0.149051
-0.297712
0.148661
0.355395
-0.0649788
-0.0164208
-0.000700583
0.0171213
0.174163
0.267867
-0.105694
0.146437
0.0356452
0.125181
-0.285387
0.334581
-0.352483
0.0921366
0.260347
0.0639808
0.237044
-0.301025
-0.1037
0.217595
0.287122
-0.0717867
0.28235
-0.0467845
0.0189732
0.171195
0.0777117
-0.0575565
0.101392
0.12762
-0.206138
0.0785188
-0.212445
0.276426
0.0184801
0.156197
-0.066108
-0.251326
-0.101158
0.303749
-0.154698
0.351223
-0.1397
-0.344475
0.0665848
-0.0626162
-0.119341
0.314259
-0.0868012
-0.0412832
-0.0534356
-0.346537
0.158165
-0.114728
-0.0434368
-0.0593993
0.121353
0.3312
-0.0577569
-0.273444
-0.361447
0.0983116
0.263135
-0.315785
-0.00376944
0.319555
0.0861374
0.236601
-0.322738
0.341456
-0.267386
0.0881536
0.281819
0.0403492
-0.112779
0.0724302
-0.248814
-0.166143
0.00183405
0.0427416
-0.0445756
-0.219675
-0.138325
-0.120759
0.177608
-0.230914
0.29676
0.123411
0.0358414
-0.123239