/*--------------------------------*- C++ -*----------------------------------*\
| =========                 |                                                 |
| \\      /  F ield         | OpenFOAM: The Open Source CFD Toolbox           |
|  \\    /   O peration     | Version:  v2012                                 |
|   \\  /    A nd           | Website:  www.openfoam.com                      |
|    \\/     M anipulation  |                                                 |
\*---------------------------------------------------------------------------*/
FoamFile
{
    version     2.0;
    format      ascii;
    class       surfaceScalarField;
    location    "100";
    object      phi_0;
}
// * * * * * * * * * * * * * * * * * * * * * * * * * * * * * * * * * * * * * //

dimensions      [0 3 -1 0 0 0 0];
oriented        oriented;


internalField   nonuniform List<scalar> 
56329
(
-0.29926
0.356298
-0.0570379
-0.0109421
0.0717455
-0.0608035
0.0666814
-0.14518
0.0784987
0.0491703
0.000959977
-0.0501302
0.367705
-0.2925
-0.0752047
0.361809
-0.354924
-0.00688585
-0.415056
0.337842
0.0772139
0.0469047
-0.0152513
-0.0316534
-0.135064
0.206239
-0.0711749
-0.136103
0.0655685
0.0705343
-0.24587
0.303883
-0.0580133
0.183405
-0.111092
-0.0723131
0.199348
-0.320801
0.121453
0.0751173
-0.228033
0.152916
0.223745
-0.118315
-0.10543
0.172882
-0.132675
-0.0402071
0.283036
0.110202
-0.393238
-0.00477559
0.0317826
-0.027007
0.0854631
0.0979416
-0.174663
0.239676
-0.0650131
0.132449
0.0404334
0.00949508
-0.0339528
0.0244577
-0.26998
-0.0225156
0.292495
0.376408
-0.105811
-0.270597
-0.0139163
-0.00159829
0.0155146
0.28155
0.0799428
-0.361493
0.0375184
-0.129152
0.0916334
-0.000896386
-0.0204536
0.0213499
-0.148324
0.0757117
0.0726126
0.335134
-0.414958
0.0798235
0.282941
-0.0219967
-0.260944
0.000545865
-0.0175723
0.0170264
-0.409908
0.309992
0.0999168
0.186615
-0.00212956
-0.184485
-0.0234255
-0.086495
0.109921
-0.101736
0.0729105
-0.0162874
-0.0566231
-0.00543744
0.0477086
-0.0422712
0.231876
-0.232977
0.0011012
0.395013
-0.351804
-0.043209
-0.168051
-0.183489
0.35154
0.127442
-0.0746926
-0.0527494
0.17252
-0.0689898
-0.10353
-0.126277
0.0541929
0.0720842
0.153628
0.224299
-0.377928
0.180749
-0.0866113
-0.0941378
-0.0647782
0.178498
-0.11372
-0.199665
0.0785392
0.121126
-0.0417786
0.143378
-0.101599
-0.0304249
0.0765082
-0.0460833
-0.0225134
0.00253341
0.01998
-0.198557
0.233421
-0.0348636
0.325238
-0.138623
-0.204367
0.202237
-0.120174
0.0967486
0.314472
-0.340931
0.0264589
-0.0520594
0.0700348
-0.0179754
-0.115741
0.162275
-0.0465346
0.0569857
0.00066183
-0.0576475
-0.0216091
0.0210837
0.000525394
0.088761
0.0919882
-0.0337181
-0.070729
0.104447
-9.7281e-05
0.0492675
-0.0612094
-0.0650677
0.192599
-0.265566
0.0729673
0.148374
0.0753716
0.068
-0.0789421
-0.000208048
0.0131203
-0.0129122
0.133149
-0.0344784
-0.0986704
-0.141097
0.0512924
0.0898049
0.00332401
0.311148
0.362609
-0.424831
0.062222
-0.264756
0.0661986
0.0634058
-0.0173873
-0.392147
0.335903
0.0562448
0.226838
-0.345813
0.118975
-0.080748
0.0503231
-0.269116
0.349059
-0.0799432
-0.1714
0.067857
0.103543
0.399588
-0.165965
-0.233623
-0.124901
0.0636913
-0.0387764
0.0340008
0.253923
-0.0656555
-0.188267
0.16307
0.162168
0.012149
-0.162643
0.150494
0.0892423
0.20155
-0.290792
-0.0234098
0.0406304
0.0925185
0.0713825
0.00152801
0.332873
-0.051323
-0.0210579
0.0207179
0.00034005
-0.0112688
0.116123
-0.104855
0.00202264
-0.39417
-0.108176
0.074458
0.274402
-0.407772
0.13337
-0.0370344
0.0228832
0.0141512
0.346939
-0.0725378
-0.17709
-0.184072
-0.0167901
0.00287382
-0.434286
0.35642
0.0778663
-0.0676538
0.0155944
0.377802
-0.293792
-0.0840102
0.276172
-0.0835734
-0.162675
0.174824
-0.248972
0.148157
0.100815
-0.0284234
0.0379185
-0.435215
0.356744
0.078471
0.0659987
-0.0123159
-0.0536828
-0.173198
0.135034
0.0381648
-0.352799
0.26365
0.089149
0.00871671
0.0546891
-0.00503407
0.0305742
-0.0255401
0.288416
0.106597
-0.00114683
-0.0157705
0.0169173
0.0316584
-0.0366924
-0.148224
0.222039
-0.0738147
-0.290466
0.363616
-0.0731502
-0.13627
-0.0039448
0.140215
0.210176
-0.150171
-0.0600058
-0.145411
-0.0230039
0.168415
-0.209476
0.0892863
0.12019
0.0396305
-0.0412034
0.0015729
-0.160118
0.313746
-0.398873
0.353041
0.0458316
-0.239661
0.370867
-0.131205
-0.0420467
-0.294185
0.336232
0.220188
-0.111478
-0.10871
-0.288687
0.388721
-0.100035
-0.214884
0.353414
-0.138529
-0.0877311
0.133752
-0.0460208
0.220477
-0.072104
0.302729
-0.103381
-0.290516
-0.108357
0.296378
-0.338424
0.333083
-0.27326
-0.0598225
-0.134323
0.0619486
0.0723746
-0.329842
0.0901807
-0.0144122
-0.00151544
0.0159276
-0.0999485
-0.0470527
0.147001
0.178508
-0.0930445
0.0408333
0.0866087
0.218222
-0.143105
0.22265
-0.16041
-0.0622392
-0.363241
0.148357
-0.339859
0.264028
0.0758314
0.0778225
0.100685
-0.204629
0.139734
0.0648958
0.360652
-0.249463
-0.111189
-0.0460141
0.342392
-0.0182577
-0.0324631
0.0507208
0.190472
0.0321776
0.278377
-0.385176
0.106799
-0.0276627
-0.0247432
0.0524059
0.0719651
-0.0187933
0.301734
0.300303
-0.346317
0.0254569
0.037755
-0.0632119
-0.199486
0.361979
-0.162492
0.398495
-0.161783
-0.236712
-0.20765
0.32727
-0.11962
0.0303762
-0.0111132
-0.019263
0.0165153
-0.0159694
0.171667
-0.0695118
-0.102155
-0.358629
0.109166
0.0531848
-0.10313
0.0499448
-0.316231
0.108581
0.136203
-0.185441
0.0492382
0.0876618
0.132527
-0.250868
0.00447481
0.246394
0.3447
0.017109
-0.0164523
0.0763851
-0.0599328
0.292305
-0.0621442
-0.230161
0.139889
0.0702878
0.0807752
0.137447
0.0160932
0.336948
-0.211928
0.076864
0.196355
0.101229
-0.297584
0.046776
-0.135614
0.0888384
0.305971
0.0271115
0.379834
-0.168163
-0.211671
-0.119735
0.045042
-0.147227
-0.168932
0.31616
0.148441
0.231393
0.30364
-0.168988
-0.134652
-0.312612
0.369242
-0.0566301
8.07741e-05
-0.017268
0.0171872
0.259915
0.03239
-0.0154405
0.00102833
0.0816178
-0.00783762
-0.0737802
0.194094
-0.275373
-0.0255473
-0.0407994
0.0663467
-0.259699
0.0850355
0.0375468
-0.0870154
0.0494687
-0.395184
0.302159
0.0930249
0.269366
-0.195393
-0.0739725
0.0516929
0.217673
0.0383736
-0.0660363
-0.192883
0.282125
-0.0147275
0.0172609
0.265231
-0.0711372
-0.0587283
-0.0661723
0.123058
-0.309858
0.1868
0.159738
-0.2567
0.0969628
0.175976
-0.0872154
0.0722535
0.315683
0.0828119
-0.0242175
0.00608882
0.0181286
-0.286435
0.365806
-0.0793714
-0.0359071
0.0306802
0.00522688
0.0103985
0.249494
-0.259892
0.0270258
-0.0813792
0.0543534
-0.0828261
0.0845422
-0.00171607
0.0600558
0.334424
-0.0513875
0.194415
-0.393902
0.0161376
-0.152408
-0.0594365
0.0719381
-0.0125015
0.0785422
-0.261684
-0.0150714
0.0739357
-0.0588643
0.320567
-0.197509
0.0793144
0.096662
0.316347
-0.303753
-0.0125948
0.0158545
-0.320048
0.304194
0.013681
-0.0731175
0.26372
-0.349189
0.0854687
-0.0350617
0.0337998
0.00126193
-0.290623
0.379807
-0.0891837
0.0395353
0.0104217
-0.049957
-0.0417284
0.147422
-0.105693
0.118609
0.201958
-0.417152
0.417152
-0.0944342
-0.215424
-0.105829
-0.0757442
-0.0349739
0.110718
0.0225049
-0.0274825
0.00497766
0.284351
0.0319968
0.183773
-0.267085
0.0833124
-0.277098
0.362701
-0.0856033
0.0560301
-0.0815773
0.301244
-0.367785
0.0665416
0.00796182
-0.170637
-0.0207779
-0.0162565
-0.0562121
0.123403
-0.0671909
-0.12918
0.0414494
0.0719622
-0.0632454
-0.182101
0.190062
-0.0261257
0.0326275
-0.00650187
0.0979689
0.0113929
-0.109362
-0.144003
0.281748
-0.137745
0.366114
-0.102394
-0.0380436
-0.0701324
0.00894646
0.0214298
0.248879
0.10403
-0.352909
0.19068
0.11296
-0.123428
0.0552641
0.0681644
0.206003
-0.289164
0.0831606
0.425213
-0.182966
-0.242247
-0.0826557
-0.0484324
-0.241874
0.290307
0.320059
-0.123704
0.156009
0.269205
0.0632055
-0.204087
0.140881
0.00876816
-0.0410268
0.0322587
0.283732
-0.126365
-0.157367
0.0438761
0.00808569
-0.0519618
0.0826216
-0.0555957
-0.364595
0.0954797
-0.211333
0.287901
-0.0765681
0.354059
-0.274968
-0.0790912
0.0979193
-0.248893
0.150974
0.248488
-0.296921
0.0353374
0.112246
-0.147583
0.0530414
-0.123106
0.0700643
-0.0300082
-0.111824
-0.0878409
-0.176251
0.0435761
0.35724
0.0206222
-0.377862
-0.000339816
0.0134601
-0.0438324
-0.238713
-0.095869
0.334582
-0.233443
0.331862
-0.0984189
0.081572
-0.0728761
-0.00869591
0.15241
-0.0721712
-0.0802389
0.29473
-0.0887267
0.0282115
-0.00570666
-0.110038
0.0719945
-0.274091
0.369973
-0.095882
-0.265505
-0.17111
0.0658619
0.105248
0.333774
-0.0848953
-0.0191495
0.198736
-0.179587
0.003598
-0.0168888
0.0132908
-0.0853785
-0.0507243
-0.372365
0.0982743
-0.00790287
0.0427918
-0.0348889
0.122861
0.157862
-0.280723
-0.165684
0.288545
0.223023
-0.135921
-0.0871022
0.276249
-0.26585
0.15726
-0.304487
-0.132632
-0.0436187
-0.105738
-0.0425865
0.0647053
0.106962
-0.198069
0.141444
0.0566255
-0.148488
0.30635
-0.000636015
0.363245
-0.2055
0.0836845
0.121815
-0.171018
0.0776781
0.0933399
0.0293366
-0.163765
0.134428
0.0935487
0.190184
0.0585291
0.132642
-0.208627
0.0759847
-0.0828637
0.0665763
-0.0886386
0.314856
-0.226217
0.0511409
-0.163335
0.112194
0.375804
-0.29839
-0.0774137
-0.18326
0.196875
-0.0136149
0.195696
-0.0630542
-0.123471
0.152808
-0.187892
0.168742
0.0330849
-0.00251073
-0.0123738
0.0519091
-0.0100189
0.0292999
-0.019281
-0.350269
0.0564764
-0.0701946
-0.0438814
0.114076
0.0404709
-0.0330932
-0.00737772
-0.197947
0.283651
-0.0857037
-0.101449
-0.10318
0.038979
-0.110378
0.0713988
0.105268
-0.0662894
-0.0396779
0.0500996
0.308416
0.032635
-0.341051
0.36322
-0.155598
-0.207622
0.0541956
-0.344711
-0.151785
0.229556
-0.0777708
-0.0963982
0.0459009
0.0504974
-0.00243458
0.0177295
-0.0152949
0.157499
-0.254651
0.0971515
0.0505369
-0.00666079
-0.320166
0.231528
-0.0154816
0.0143207
0.0011609
-0.0956179
0.08186
0.0137579
-0.286338
0.366733
-0.0803953
-0.174507
-0.0753751
0.249882
0.00642101
-0.0325467
0.00289035
0.0147133
-0.0176036
-0.130273
0.0600787
-0.133582
0.0178413
-0.248078
0.321905
-0.0738269
0.222249
0.00407464
-0.226324
-0.136221
0.0944428
0.0135891
-0.013929
0.114786
-0.100206
-0.0145802
-0.26263
0.253844
0.00878663
0.0469403
0.294885
-0.341826
0.017741
0.000617405
-0.0183584
0.235715
-0.343003
0.107288
-0.394351
0.23718
0.157171
-0.274198
0.382805
-0.108606
0.268607
0.0243645
-0.292972
-0.142201
0.0551839
0.0870171
-0.357029
0.0828312
-0.274676
0.370289
-0.0956128
0.107873
-0.0546884
0.406309
-0.24781
-0.158499
0.0143482
0.0457249
-0.0600731
0.0427533
-0.0947147
0.0519614
0.318745
-0.386891
0.0681458
0.196285
-0.282551
0.0862654
0.372299
-0.053554
0.104778
-0.17429
0.362813
-0.0625105
-0.0293676
0.0897339
-0.0603663
0.238145
-0.24591
0.127003
-0.292686
-0.110949
-0.0985271
0.0160098
-0.015929
-0.0153943
-0.106713
0.122107
0.341783
-0.341783
0.0026106
0.0789614
0.0135075
0.0584547
0.126949
0.0960746
-0.275164
0.37118
-0.0960167
-0.0564518
0.334829
-0.198399
0.0968613
0.101538
0.253786
-0.361627
0.107841
-0.0159891
0.0166758
-0.000686711
0.208107
0.100263
-0.30837
0.302417
-0.106131
0.0441881
0.00271664
0.0462652
-0.118606
0.0723407
-0.00469871
0.160066
-0.155367
-0.299514
0.365418
-0.0659036
0.34851
-0.140403
-0.361385
0.061871
-0.0118836
0.232257
0.0658461
-0.298103
-0.314079
-0.0473067
0.339696
-0.293393
-0.0463024
0.0761025
-0.181457
0.105355
-0.0128527
-0.022209
-0.149955
0.262335
-0.11238
0.00187736
-0.125793
0.184551
-0.0587583
-0.0151541
0.350288
-0.16134
0.062012
0.0993283
-0.135718
0.148407
-0.0126893
0.174856
-0.110151
-0.255938
0.0863593
0.169579
0.123932
-0.0579491
-0.0659825
0.013461
-0.0892051
-0.0430755
0.1207
-0.0776244
-0.298734
0.380146
-0.0814119
-0.0730955
0.305352
0.226103
-0.145327
-0.120368
0.0651842
0.0551842
0.062099
0.0125765
-0.0746755
0.336773
-0.322471
-0.0143017
-0.258839
0.354113
-0.0952734
-0.157934
0.116206
0.31405
-0.0872121
-0.0325109
-0.250845
0.283356
0.0816614
-0.0203969
-0.0612645
-0.100843
0.0854488
-0.368449
0.30957
0.0588798
-0.305804
0.107857
0.316511
0.0202612
-0.0600337
-0.0177292
0.00174013
0.0288852
-0.212565
0.18368
0.141889
-0.106551
-0.103571
0.141475
-0.0379039
0.0385339
-0.17257
0.134036
-0.222079
0.106569
0.11551
-0.00313126
-0.0137575
0.443992
-0.193691
-0.2503
-0.110732
-0.0624665
0.261025
0.0720367
-0.25457
0.182534
0.375247
-0.246948
-0.128299
0.286031
-0.354754
0.0687224
0.063192
0.0740694
-0.341412
0.267343
0.198772
0.0790798
0.265197
-0.348708
0.0835109
-0.167902
-0.0601313
-0.0851613
-0.155534
0.240695
0.272844
-0.0783623
-0.194482
0.0739639
-0.0858968
0.0119329
0.0846142
-0.248517
0.163903
-0.0771031
-0.128397
0.0183051
-0.240009
0.221704
-0.249453
-0.165603
-0.115635
0.250972
-0.135337
-0.212041
0.290673
-0.0786325
0.0460105
-0.149581
-0.0928232
0.0468304
0.0459929
0.260355
-0.102856
-0.175482
-0.365489
0.090813
-0.233955
0.276678
-0.0427227
0.299911
-0.17948
-0.120431
-0.335301
0.0809865
0.254314
-0.366551
0.0913872
-0.0655451
0.108298
0.0606404
-0.269999
0.209359
-0.172709
0.124737
0.0479714
0.374831
-0.109634
-0.053701
0.0482636
-0.00499134
-0.240878
-0.0107462
-0.0134712
-0.241668
0.156507
-0.175905
0.111127
-0.292262
0.229535
0.0627265
-0.277941
-0.0819731
0.359914
0.23658
0.138667
-0.0803344
-0.0750751
0.15541
0.246197
-0.278708
-0.0383807
0.0304778
-0.267607
0.36286
-0.0952529
0.123973
-0.0512811
-0.0726914
0.00117853
0.356061
0.00171252
0.00876281
-0.0104753
-0.0998172
0.118641
-0.0188234
0.360085
-0.212666
-0.14742
-0.0577723
0.0718497
-0.0140775
-0.223293
0.0628828
-0.24393
0.262235
-0.0022596
-0.0361211
0.0809121
-0.120676
0.0397638
-0.351005
0.06457
0.244162
-0.146242
0.307886
0.0669455
-0.292028
0.369524
-0.0774961
-0.00714215
0.0191875
-0.0120453
0.0411778
-0.0525208
0.0113429
-0.0511508
-0.301194
0.352345
-0.0607969
0.0643193
-0.00352244
-0.353924
0.0759822
-0.297774
0.379355
-0.0815818
0.0952008
0.28876
-0.33991
0.333918
-0.122783
-0.211135
-0.0215333
0.0271594
-0.00562616
0.0600338
0.00596492
-0.0754045
0.156317
-0.36355
0.10471
-0.00174262
-0.0198665
0.0826897
-0.0648138
0.366058
0.0654443
0.0585282
0.0720884
-0.078691
-0.0447375
0.261374
-0.109423
-0.151951
0.0774649
-0.0748543
-0.327405
0.0939622
0.0141658
-0.050063
0.338823
-0.0819243
0.0668529
-0.188674
0.00541419
0.0480218
-0.22585
0.177828
-0.201811
0.0516405
0.0314223
-0.176833
-0.057803
0.0876665
-0.0298636
0.173525
0.18656
-0.112044
-0.0589745
0.402009
-0.168368
-0.233642
-0.130835
-0.0912443
-0.153999
0.0540501
0.000778884
-0.242024
0.241245
-0.0934065
-0.129887
0.112775
-0.0665102
-0.013452
0.0732279
-0.0597758
-0.0145082
0.000502699
0.0140055
0.295
-0.345063
-0.149649
-0.0993226
0.281232
-0.373609
0.0923769
-0.0956445
0.090375
0.00526943
0.00581202
-0.0273453
0.160413
0.100961
-0.0266427
0.0287485
-0.00210578
-0.202339
0.109899
0.0924408
0.200224
-0.0759572
-0.124266
0.0289352
-0.186223
0.157288
0.0600134
0.222369
-0.282382
0.105239
-0.0500063
-0.0552329
0.00156885
-0.128978
-0.0733616
-0.084629
-0.227487
0.312116
-0.202016
-0.0561624
0.258179
0.0525881
0.0526511
0.00980835
-0.109626
-0.164544
-0.125231
-0.0698207
0.13738
-0.0675594
0.128016
-0.0871829
-0.030724
0.0363094
-0.00558547
0.377379
-0.284804
-0.0925744
-0.0919507
-0.266678
-0.0013227
0.0190637
0.23114
-0.099461
-0.131679
-0.0830848
-0.213378
0.296463
0.0721901
-0.0935347
-0.269707
-0.151283
0.180218
-0.00677003
-0.00366686
0.0104369
0.0397452
-0.000114696
0.0515386
-0.0947186
0.04318
0.00449439
-0.0329178
-0.245139
0.276079
-0.0309402
-0.0336298
-0.106649
0.140279
-0.386779
0.212181
0.174599
-0.119554
-0.0518462
-0.050144
0.14082
-0.0906756
0.0756677
0.0466483
-0.122316
-0.273321
-0.113459
-0.400475
0.309853
0.0906222
-0.292491
0.0510856
0.284629
-0.335715
-0.0406524
-0.311152
0.160779
-0.109638
-0.0152758
0.000767604
-0.0549721
0.343389
-0.082026
0.0228539
0.119035
0.21123
-0.210451
-0.0586274
0.275103
-0.337397
0.0622944
0.031295
0.0220387
-0.29963
0.370347
-0.0707176
0.0958057
-0.0410263
-0.0547794
0.115398
-0.0327763
0.0204933
-0.116138
-0.0909577
0.27473
0.350206
-0.300439
-0.0497669
0.0487376
-0.00102901
-0.0856776
0.16178
0.170463
-0.261903
0.0914404
-0.297622
0.0636665
0.376591
-0.0600799
0.0378741
-0.111876
0.0740019
0.0765378
-0.119613
-0.0721641
-0.152459
0.112895
0.0395643
-0.0411915
0.209813
-0.168621
0.0592971
-0.235826
0.176529
0.0768673
0.00479417
0.0334409
0.0813453
0.0675897
0.107267
-0.0142391
-0.126858
-0.204798
0.0853771
0.119421
-0.040643
0.0383834
-0.0827873
0.0693353
-0.0980891
-0.10031
0.350374
0.00517777
-0.355551
-0.021288
0.000834454
0.0880289
-0.02593
0.179309
0.026646
-0.205955
0.123548
-0.0626334
-0.0609144
-0.0232019
0.115709
-0.0925072
0.0125445
-0.0108319
0.378266
-0.00408248
-0.374184
0.0175335
0.1222
-0.154154
0.149455
0.0690586
-0.136112
0.0670538
0.312626
0.00459845
-0.317225
0.049723
-0.115897
0.0661744
0.171305
-0.0362709
-0.30229
-0.075941
0.205974
-0.130033
0.0045066
-0.0112766
-0.205838
0.120432
0.0456223
-0.118033
0.0724104
-0.115847
0.0926451
0.0774302
0.182437
-0.259867
0.126593
-0.0592839
-0.0673087
0.00386543
-0.0345894
-0.00366058
0.22591
0.0423662
0.049955
-0.0923211
-0.307547
0.380224
-0.0726772
-0.0429632
0.166392
-0.123429
-0.385234
0.0776871
-0.0256003
0.0818707
-0.0562703
0.25815
-0.087687
0.126022
-0.0792463
-0.201476
0.0831011
0.118375
-0.357991
0.233758
0.124233
0.0527218
0.018114
-0.131483
0.113369
-0.196616
0.138407
0.0582091
0.0168088
-0.0948897
0.0780809
0.2174
0.060041
-0.277441
0.147629
-0.221765
0.074136
-0.35013
0.0559444
0.0541142
0.0416915
-0.222893
0.181702
0.03382
0.0558401
-0.0896601
-0.0546577
-0.121548
0.176206
-0.360107
0.360995
-0.000888716
-0.042116
0.354743
0.0417089
0.0931718
-0.134881
-0.0261927
-0.00971433
-0.251598
0.336411
-0.0848128
-0.390279
0.12826
0.262019
0.240505
0.124367
-0.364872
-0.13457
-0.0702279
-0.00533584
-0.0300152
0.0353511
-0.0489673
-0.0403353
-0.00812913
0.0484645
-0.332582
0.380664
-0.136989
-0.243675
-0.00704131
0.064027
-0.278384
-0.0952246
0.0637596
0.312832
-0.178411
0.0526181
0.0538094
-0.352199
0.01016
0.00605567
-0.0162156
0.062499
-0.0880994
0.0993625
0.0813164
-0.180679
0.300321
0.0760876
-0.244219
0.347978
-0.103758
0.34091
-0.0523602
-0.28855
-0.192424
0.269854
-0.0514648
0.268864
-0.049145
-0.069579
0.0398877
-0.100446
-0.155493
0.355411
-0.290339
-0.0650718
-0.0354004
0.00322034
0.03218
0.102679
-0.0845649
0.159926
-0.237751
0.0778244
-0.354242
0.110023
0.00672014
-0.272405
0.265685
0.0623584
-0.254628
0.19227
-0.097439
0.165029
-0.0773262
0.0615829
0.0157432
0.070735
-0.0469229
0.0589581
-0.027663
-0.0624991
0.0386652
-0.0341708
0.267737
0.106259
-0.373996
0.0620418
0.053356
0.114595
0.0447591
-0.363649
0.0985003
0.265149
-0.175914
0.121256
0.0131305
-0.148849
0.054217
-0.396278
0.202587
0.36466
-0.0696603
-0.133546
-0.0722923
-0.267657
0.0756723
0.191984
0.0857021
-0.0341635
-0.198131
-0.197052
0.200707
0.0463033
-0.24701
-0.113314
-0.185988
0.299302
0.125214
-0.168177
-0.153183
0.280186
0.222187
-0.112289
0.17533
0.100843
-0.231998
-0.202288
-0.276835
0.365199
-0.0883638
0.051472
0.0355663
0.09245
0.0165694
-0.0234838
0.00691442
0.130941
-0.108087
-0.230049
0.338738
-0.108689
-0.39636
0.252189
0.144171
0.0432905
0.0938118
-0.137102
0.330601
-0.406059
0.0754576
0.0906985
0.272162
0.0499411
-0.181692
0.131751
-0.0233634
-0.0362206
0.059584
0.16987
-0.138181
-0.0316893
-0.0588667
0.040609
-0.0840259
-0.0559832
0.140009
0.0838479
-0.00936172
-0.0744862
0.244212
-0.0842858
-0.00429266
0.0254668
-0.0211741
0.0469526
-0.124135
0.0771829
-0.233211
0.360192
-0.126981
0.374133
-0.0256231
0.00725793
-0.0109248
-0.0273085
0.252004
-0.224695
0.301111
-0.188728
-0.112383
0.0174405
0.00551015
-0.0229507
0.295849
-0.377079
0.0812299
0.0811727
0.0138799
-0.0950526
0.291188
0.0829457
0.0563451
0.175531
0.17516
-0.260738
0.0855788
-0.382978
0.250064
0.132915
-0.00900199
0.0501798
-0.0137406
0.173806
0.095707
0.126481
0.246317
-0.273625
-0.0774129
0.252743
-0.300476
0.380656
-0.0801797
-0.346535
0.107823
-0.141787
0.0601275
0.0816595
-0.177181
0.322832
-0.145651
-0.112692
0.302985
-0.102348
-0.200637
-0.0371534
0.0626104
0.0139367
-0.155946
-0.119609
-0.0697158
-0.0720713
0.181392
0.0506246
-0.232017
-0.0130821
0.0149595
0.231234
0.0698763
-0.0683882
0.208277
-0.0659864
0.341089
-0.307444
0.154261
-0.228319
-0.16796
0.0151455
0.115795
0.0286552
0.00556192
-0.0342172
0.294968
0.0696918
0.369322
-0.0743534
-0.026076
0.032497
0.158977
-0.272291
-0.0750084
0.306243
0.0795407
0.0020771
-0.0874157
-0.0344836
0.121899
0.0520005
0.0198493
-0.0608184
0.086459
-0.0133517
-0.0731072
-0.0520684
0.0397525
0.026387
0.248906
-0.0737463
0.0158458
-0.0169926
-0.0512252
0.232618
-0.0446493
0.0612369
-0.274859
0.213622
-0.352835
0.118409
0.234426
-0.246067
0.182966
0.0631003
0.00134626
0.0761186
-0.123018
-0.262137
0.0171573
-0.00699729
-0.174714
0.0551607
0.0822797
-0.133902
0.051622
0.0133653
0.00127012
-0.0146354
0.0940288
-0.0319156
-0.0621132
-0.245523
-0.137456
0.190487
0.217861
0.131709
-0.208812
-0.152931
-0.0420156
0.194946
0.249527
0.0776996
-0.327226
-0.146503
-0.00903491
0.155538
-0.0905187
0.336716
0.389576
-0.0536733
0.252486
0.0884235
0.239429
-0.237609
-0.00182007
0.376444
-0.0668746
0.0762846
-0.012332
-0.0639526
-0.0509728
-0.182004
0.070188
-0.145592
-0.306817
0.180451
0.153472
-0.0832842
-0.0658352
-0.0297827
-0.183675
-0.251541
-0.000591358
0.252595
0.336093
-0.0865665
0.161443
-0.300154
0.138711
-0.0562134
0.256921
-0.109259
0.0470892
0.0621701
-0.249511
-0.0427505
0.0569825
-0.17579
0.118807
0.333772
0.0444946
0.0385108
-0.104219
0.065708
0.0390784
-0.136363
0.0972847
0.114617
0.189266
-0.240757
0.317848
-0.0770916
0.113539
-0.260419
0.14688
0.0308723
0.208557
0.310711
-0.149268
-0.0924048
-0.33394
0.27257
0.0613705
-0.295556
0.277193
0.0183635
0.0678321
-0.0158316
-0.269597
0.285452
-0.258418
0.3335
-0.0750828
0.0578465
0.0721947
0.0513531
0.117491
-0.0452965
-0.304427
0.136376
0.0920584
0.255919
0.0835447
-0.066736
0.209761
-0.336867
0.127106
0.0151843
-0.00181901
0.133846
-0.0515663
-0.109781
0.0486346
0.0611465
0.0491945
0.291072
-0.340267
-0.0697625
-0.0508037
0.120566
-0.0834479
-0.244521
0.0421003
0.00843663
-0.122629
-0.0568039
0.204785
-0.147982
-0.021014
-0.0618122
0.277754
0.00583445
-0.283588
-0.359022
0.181932
0.24696
-0.0725518
-0.174408
0.0440737
0.0687018
0.177906
0.0248118
-0.0653919
0.0405801
0.256897
-0.250176
-0.120148
0.166159
-0.120776
0.0162493
-0.0133589
-0.0524718
-0.0573094
-0.27789
0.384398
-0.106508
-0.182939
-0.123877
-0.00924861
-0.101843
0.0464643
-0.000818316
-0.0456459
-0.174382
-0.178417
-0.0519387
0.33797
0.158249
0.0116211
-0.0949127
-0.111387
0.102138
-0.0155915
0.0967642
-0.0506247
0.0382509
-0.13691
-0.123829
0.00946558
0.0439756
-0.0534412
-0.0287447
-0.00665573
0.0232422
-0.0285781
-0.0844761
0.0290465
0.0554296
-0.245472
0.0151003
-0.311692
0.106346
0.205346
0.328598
-0.279208
-0.0493906
0.0427809
0.109629
0.159537
0.062502
0.0522687
-0.270506
0.218237
-0.181957
0.0568489
0.125109
0.048862
-0.00676176
0.0200088
-0.166512
-0.289867
0.101139
0.354356
-0.288089
-0.0662674
0.214161
-0.339961
0.1258
0.261884
-0.209615
0.298976
-0.356735
0.0577593
-0.0747643
0.222921
-0.050391
-0.245165
0.28431
-0.372562
0.0882519
-0.227576
0.294754
-0.0671774
0.215695
-0.26484
0.343619
0.00329759
-0.346916
0.251493
0.104973
-0.356466
0.0280436
-0.0285041
0.000460505
0.29591
0.0148005
0.00828698
0.0465218
-0.0548087
0.120378
0.21354
0.0755688
0.0419225
0.0594979
0.0402912
-0.0997891
0.310965
-0.101204
0.310626
-0.0147155
0.00202827
-0.0193509
0.0173226
0.0157881
0.0246827
-0.105137
-0.0150113
-0.0518069
0.117963
-0.0661566
-0.132465
0.042635
0.0898303
0.068848
0.285508
0.0849399
-0.343358
0.0331882
0.0720802
-0.0584539
0.0610238
-0.0025699
-0.071569
0.335219
-0.159707
0.0470613
-0.156906
0.109844
-0.0160563
-0.138097
0.302763
-0.0250093
-0.0142
-0.0569135
0.0711135
0.0785667
0.00789229
-0.0633146
0.0798207
-0.0165061
-0.294066
0.066489
-0.0519143
0.127582
0.0835604
-0.0545783
-0.028982
-0.0146679
0.016055
-0.00138708
0.316522
0.0338515
-0.0042085
0.360953
-0.0620363
-0.113869
-0.331325
-0.085827
-0.375204
0.146984
0.228219
0.154583
-0.211387
0.0091858
0.0670988
0.302671
-0.251585
-0.0852181
0.153075
0.167625
0.22762
-0.0316298
-0.19599
-0.0193483
0.0194379
-8.965e-05
0.0862546
-0.371317
0.285062
-0.0588551
0.0554252
0.00342997
-0.195344
-0.194935
-0.0149691
-0.166769
-0.195209
0.361978
-0.0565983
0.0681365
-0.0115382
-0.219195
-0.0622553
0.00127516
0.0609801
-0.11074
0.161375
-0.050635
-0.36413
0.36413
-0.049844
-0.0705244
0.0465114
0.0713408
0.109769
-0.0479333
-0.0618356
0.356504
-0.0874938
-0.26901
0.346567
-0.260312
0.0332734
-0.0566368
-0.154208
0.168154
0.00754574
-0.1757
0.118462
0.0355573
0.0501448
-0.377441
0.301913
0.0755281
0.126292
-0.0835637
-0.0427286
-0.0747878
-0.270093
0.344881
0.0676571
0.0946182
0.00929846
-0.0612485
0.0519501
-0.137727
0.0654496
0.0722777
-0.0729836
0.290416
0.0400242
-0.33044
-0.0745496
-0.045185
0.0409443
0.0911446
-0.132089
-0.107054
0.0418928
0.0651609
-0.00094688
-0.0175669
0.0185138
0.15366
-0.169716
-0.128878
-0.0729331
-0.0207337
0.00256078
0.0181729
0.0366253
-0.00797004
-0.0234546
0.0191619
0.057246
0.0690463
0.00418106
-0.0217326
0.0175515
-0.0307672
0.00457448
-0.0375329
0.141216
-0.103684
0.310792
0.091217
-0.0241357
0.361978
0.228399
-0.313028
0.043302
0.0959533
-0.139255
0.0696918
-0.00217153
0.014861
-0.0126895
0.0725112
-0.288291
0.21578
-0.36481
0.072782
-0.0134392
0.140388
0.0616939
-0.117906
-0.100162
-0.139554
0.239716
-0.366036
0.314418
0.0516178
-0.261594
0.190833
0.0707605
-0.0550682
0.124127
0.263182
0.0686611
-0.331843
-0.138644
0.0549485
0.0836952
-0.0983907
-0.241415
0.339806
0.21401
-0.344816
0.130806
-0.0315227
0.0681707
-0.036648
-0.0450679
0.00473257
-0.0632609
-0.12218
0.32001
-0.106
0.280828
-0.208317
0.0498953
0.194216
-0.244112
-0.311453
0.206121
0.105332
-0.42447
0.22076
0.20371
-0.00102016
-0.0224344
0.0956252
-0.0101424
-0.0854827
0.345868
-0.0920813
-0.0752322
-0.059091
-0.207902
-0.216568
-0.356617
0.28183
-0.00595779
-0.0562975
0.301902
-0.362094
0.0601924
0.0245695
-0.118633
0.0940635
0.200952
-0.117791
-0.0831609
0.119211
-0.0556638
-0.0635469
-0.121006
-0.0537088
-0.0932732
0.136575
0.0937883
0.26027
-0.335558
0.168906
0.166652
0.0914288
-0.145576
0.0541475
0.352562
-0.0504033
-0.136518
0.0666968
0.120663
-0.0147051
-0.105958
-0.133347
-0.0681294
-0.0640225
-0.0323757
-0.220929
-0.114629
-0.110801
0.0482541
0.0625465
0.0356553
0.0112498
-0.0469051
0.233705
-0.127136
-0.0228716
-0.0945125
-0.378707
0.214115
0.164592
-0.120846
0.0553052
0.0655411
0.261561
0.0144203
-0.275981
0.28145
-0.23451
0.0403173
-0.0727295
-0.0649978
0.0114006
0.0533043
-0.0647049
-0.181383
0.137334
-0.0638048
-0.0735289
-0.090558
-0.0419073
0.042801
0.055135
-0.097936
0.0235192
0.230859
-0.0818901
-0.148969
0.116617
-0.0920471
-0.0219097
0.278806
0.285811
-0.394477
0.108667
0.0628339
0.109032
0.124673
-0.0717517
-0.0313779
-0.15077
0.070436
-0.085082
-0.156586
0.25822
-0.186184
0.0488055
-0.201736
-0.0523454
0.0637459
0.171101
-0.0932781
-0.0173588
-0.240328
0.257687
-0.0202422
0.0192953
0.0257574
-0.00557718
0.0221465
0.156682
-0.151031
-0.097862
-0.0144358
-0.25797
0.113895
-0.190779
0.0768837
0.0744421
0.0966584
-0.409213
0.176002
-0.00763156
0.103257
-0.153299
0.06231
0.0909888
-0.023936
-0.00683124
0.280676
0.0757093
-0.356386
0.0418637
-0.0508656
-0.378097
0.102074
0.276022
0.198542
0.0290784
0.289475
0.0670294
0.090046
-0.151371
0.0613248
0.00604041
0.0148381
-0.0208785
-0.0378911
0.0270256
0.16219
-0.189216
0.175937
0.0682752
-0.0677596
0.120801
0.0314686
-0.00342492
0.0199258
-0.0192029
-0.000722954
0.0464418
-0.36052
0.238844
-0.337235
-0.352328
0.0545544
-0.128709
-0.249387
0.0196785
-0.312179
-0.173114
0.111078
0.0700348
-0.244542
-0.045107
-0.13635
0.0144808
-0.0169154
0.0382952
-0.155001
0.116706
0.261813
-0.0437838
0.103282
-0.360517
0.104114
0.256403
-0.184547
0.234442
-0.245335
0.187533
0.0578016
0.0313507
0.279506
-0.216353
-0.0631529
0.0874519
0.143407
-0.0104272
-0.137369
0.147796
-0.390488
0.206998
-0.121557
0.0539335
0.0676233
0.0501
-0.184044
0.133944
0.081394
-0.0354931
0.14991
-0.102849
-0.109805
0.273249
-0.163445
0.0549334
-0.355373
-0.159649
0.186675
-0.0912478
0.0289452
0.0623026
-0.323659
0.0822443
0.0676892
0.133263
0.44203
-0.27436
-0.16767
-0.133754
-0.225267
-0.148035
0.114406
-0.13123
0.243429
-0.265338
0.274235
-0.173561
-0.100674
0.0415155
0.0845068
-0.0458731
-0.0488454
-0.137451
0.121977
0.015474
-0.327713
0.0976644
-0.220173
-0.0169164
0.0152408
0.00167566
0.0406756
-0.141306
0.10063
-0.361696
0.160907
0.200789
0.262241
-0.3068
0.0445593
-0.199524
0.287543
-0.0880192
-0.236089
-0.125608
0.393389
-0.326921
-0.0664674
0.342621
-0.399895
0.0572748
-0.0395953
-0.0230377
0.062633
0.0481988
0.0615701
0.0124364
-0.0195786
-0.0537873
-0.00116237
0.0549497
0.0221829
0.060542
-0.0827249
-0.0527712
-0.0200681
0.0728393
-0.318925
0.0956099
0.223315
-0.0321687
-0.0606545
-0.173034
0.0979592
-0.386126
0.0992976
0.286828
0.0438372
-0.101475
0.0576381
0.00576459
0.350655
0.0126544
0.103962
-0.225538
-0.0933873
0.0712518
0.0244131
-0.0956648
-0.355721
0.0653816
0.328019
0.128337
-0.204005
0.0756672
0.0624366
0.239164
-0.301601
0.2718
0.074767
0.199269
-0.221139
-0.179336
-0.14463
0.199969
-0.0553394
-0.374273
0.0974378
-0.131592
-0.249376
0.227457
-0.309609
0.0821514
-0.0159745
-0.0842316
-0.0413379
0.11705
0.293142
0.106446
-0.0833748
-0.270867
-0.0808809
-0.0613201
0.149051
-0.297712
0.148661
0.355395
-0.0649787
-0.0164166
-0.000701545
0.0171182
0.174163
0.267867
-0.10564
0.146316
0.0356997
0.12508
-0.285387
0.334582
-0.352483
0.0921364
0.260347
0.0639811
0.237044
-0.301025
-0.1037
0.217595
0.286971
-0.0712766
0.28253
-0.0468152
0.0189752
0.171194
0.0777115
-0.0575533
0.10139
0.127619
-0.206138
0.0785189
-0.212445
0.276426
0.0184768
0.156169
-0.0661228
-0.251326
-0.101158
0.303748
-0.154698
0.351224
-0.139763
-0.344475
0.0665842
-0.0626168
-0.119341
0.314258
-0.086801
-0.0412865
-0.0534282
-0.346537
0.158165
-0.114728
-0.0434368
-0.0594011
0.12135
0.3312
-0.0577569
-0.273443
-0.361447
0.0983116
0.263135
-0.315785
-0.00376943
0.319555
0.0861372
0.236601
-0.322738
0.341456
-0.267387
0.0881534
0.281819
0.0403483
-0.112778
0.0724295
-0.248814
-0.166144
0.00184824
0.0427348
-0.0445831
-0.219674
-0.138316
-0.120759
0.177607
-0.230913
0.29676
0.12349
0.0358352
-0.123251
0.198799
0.0754364
0.123255
-0.382344
0.259089