/*--------------------------------*- C++ -*----------------------------------*\
| =========                 |                                                 |
| \\      /  F ield         | OpenFOAM: The Open Source CFD Toolbox           |
|  \\    /   O peration     | Version:  v2012                                 |
|   \\  /    A nd           | Website:  www.openfoam.com                      |
|    \\/     M anipulation  |                                                 |
\*---------------------------------------------------------------------------*/
FoamFile
{
    version     2.0;
    format      ascii;
    class       volVectorField;
    location    "100";
    object      U_0;
}
// * * * * * * * * * * * * * * * * * * * * * * * * * * * * * * * * * * * * * //

dimensions      [0 1 -1 0 0 0 0];


internalField   nonuniform List<vector> 
37809
(
(1.00918 -0.00105964 0)
(1.08098 0.0620786 -6.6651e-21)
(1.05878 0.0268224 -3.43019e-21)
(1.09117 0.0380178 -7.30744e-21)
(1.01129 -0.000827953 0)
(1.00253 -4.75608e-05 -5.57745e-22)
(1.00572 -0.000126021 2.6546e-22)
(0.831518 0.0569825 1.5168e-20)
(1.02895 0.0168474 -1.51099e-21)
(1.04023 0.0477222 -2.81798e-21)
(1.01512 0.00574122 0)
(1.03193 0.0316853 0)
(1.01163 0.000466389 7.61437e-22)
(1.015 0.0205593 -4.37352e-22)
(1.02494 0.0195869 -7.55267e-22)
(1.04404 0.0208991 1.57644e-21)
(1.00329 -4.56219e-05 3.97082e-22)
(0.87541 0.048118 -3.49612e-21)
(1.03148 0.0315046 0)
(1.02591 0.0084722 0)
(1.04375 0.0211571 -1.93114e-21)
(0.856414 0.0388876 1.23911e-20)
(0.868279 -0.0752938 1.30105e-21)
(1.02447 -0.00191638 1.94397e-25)
(0.487898 0.0141652 1.94328e-21)
(1.0022 6.4084e-05 1.77726e-22)
(1.03882 0.0321799 3.3754e-21)
(0.593816 -0.0207471 0)
(1.05165 0.0441107 0)
(1.00839 -0.000340682 2.97667e-22)
(1.00726 0.00151683 2.28131e-21)
(0.57066 0.0219016 -5.25159e-21)
(1.01952 0.000484909 9.4903e-22)
(1.03015 0.0603053 0)
(1.03802 0.0333263 -7.99708e-22)
(1.01948 0.000386799 0)
(1.08591 0.0585553 0)
(1.0661 0.056658 -7.07769e-21)
(0.914244 -0.240402 0)
(1.01171 -0.00150619 0)
(1.01461 -0.00144846 5.31267e-23)
(0.919045 -0.0590462 -3.04155e-21)
(1.04606 0.0205899 -3.60283e-21)
(1.03718 0.0492123 1.07778e-21)
(1.01734 0.000724637 2.16832e-21)
(1.03579 0.0348201 -2.87139e-21)
(1.03732 0.0182528 0)
(1.02337 0.0229642 6.96111e-23)
(1.03564 0.022828 0)
(1.03018 0.110681 -2.5013e-21)
(0.569995 -0.032108 -8.86191e-21)
(1.01991 0.230944 1.79062e-20)
(1.02563 0.0687018 -7.2409e-22)
(1.02828 0.0559191 0)
(1.03811 0.032829 3.47884e-21)
(1.01137 -0.000445554 -3.94881e-22)
(1.09629 0.0700389 8.7704e-21)
(1.05041 0.0287806 -2.44285e-21)
(1.10857 0.0650805 0)
(0.587687 -0.00650843 5.83242e-21)
(1.03526 0.034678 2.57058e-21)
(1.04572 0.0446173 1.00582e-22)
(1.09213 0.0386261 7.73953e-21)
(1.03823 0.0493962 -1.08754e-21)
(1.01016 0.00568054 -7.65462e-22)
(1.02458 0.0195643 -4.11037e-22)
(1.08041 0.0617861 0)
(0.45999 0.00550698 0)
(1.03043 0.0432954 -6.27536e-22)
(1.01081 0.0103171 3.76857e-21)
(1.01147 -0.00050565 -3.244e-22)
(1.00399 0.000107053 4.86903e-22)
(1.03588 0.206857 -1.16666e-20)
(1.08288 0.0662871 0)
(1.00568 -5.20485e-05 -2.10661e-23)
(1.04535 -0.0354743 -1.2381e-22)
(1.03063 0.108297 -4.39482e-21)
(1.0066 -0.000378642 0)
(1.04491 0.0193064 -1.70667e-21)
(1.01628 0.000337519 7.68707e-22)
(1.03871 0.0504851 2.3046e-21)
(0.906112 0.0478845 0)
(1.03166 0.00559768 0)
(1.01828 0.0690196 0)
(0.999079 -0.0847879 -4.82067e-21)
(0.446143 0.00433228 -3.77166e-21)
(1.01145 0.004132 4.74037e-22)
(0.573708 -0.0260127 5.51864e-21)
(1.02955 0.0429329 8.29054e-22)
(1.08564 0.0585384 3.02986e-21)
(1.00113 -2.08489e-06 0)
(0.550115 -0.00715474 -3.6926e-22)
(1.06357 0.0369417 0)
(1.00491 -2.25223e-05 0)
(1.04575 0.0438608 0)
(1.0094 -0.00106854 2.95428e-22)
(0.761936 0.0280528 0)
(1.0093 -0.00105702 0)
(1.01125 -0.000567999 0)
(0.479465 0.0131057 0)
(1.00503 0.000275656 4.33926e-22)
(1.09698 0.069011 -1.49425e-20)
(1.00918 -0.00103884 2.09813e-22)
(1.0103 0.00533489 1.51107e-21)
(1.00442 -0.0766834 -3.21018e-22)
(1.01713 0.0154247 0)
(0.876319 0.0435781 -1.20615e-20)
(1.00386 -9.88908e-05 0)
(0.896518 0.168869 -3.31673e-20)
(0.975209 -0.0981028 5.26541e-21)
(1.01091 0.0019914 -1.71148e-22)
(1.0827 0.0656311 0)
(0.853941 0.0634233 3.76107e-21)
(1.01182 -0.00155945 0)
(0.578792 0.00864653 -3.19836e-21)
(0.885335 0.0637504 3.51571e-21)
(1.0236 0.01879 -1.1182e-21)
(1.00742 0.00104707 0)
(1.11421 -0.0714523 0)
(1.0384 0.00697647 8.79536e-22)
(0.89126 0.00475097 8.79465e-22)
(1.00873 0.0436807 0)
(0.782089 0.0215894 -1.95447e-20)
(1.01737 0.000825071 -1.75442e-21)
(1.01247 -0.00165679 -3.445e-22)
(1.02665 -0.0351684 8.13403e-25)
(1.00726 -0.00052421 3.26171e-22)
(1.02952 0.022989 8.78427e-22)
(1.00886 -0.001043 0)
(1.00907 -0.00103628 0)
(1.05686 0.0266694 -3.32581e-21)
(1.02429 0.0191903 2.84926e-22)
(1.01156 0.000439951 4.79315e-22)
(1.01233 -0.00165491 3.54351e-22)
(1.00717 -0.00048739 6.49426e-22)
(1.00942 0.00302855 -4.08909e-22)
(1.03373 0.0505317 2.43453e-21)
(1.02354 -0.0410404 0)
(0.456104 0.0117669 0)
(1.05451 0.0193366 0)
(1.03116 0.0319684 0)
(0.927462 -0.0711882 -8.31895e-21)
(1.01465 0.020983 -1.01254e-21)
(1.0363 0.0080143 6.48734e-21)
(1.00919 -0.00104143 -3.79522e-22)
(1.00892 0.00223404 1.39319e-22)
(1.03078 0.0318183 0)
(1.02436 0.0230131 0)
(1.00886 -0.00101438 -9.90274e-22)
(1.00714 -0.000472063 -6.52772e-22)
(1.07114 0.0526202 2.63958e-23)
(1.03622 0.00828487 -2.93912e-21)
(1.01657 0.000382097 1.02948e-21)
(1.09551 0.0569645 0)
(1.00894 -0.00105388 1.69487e-22)
(1.00781 0.00100565 -1.34397e-21)
(1.00706 -0.000435689 6.41614e-22)
(0.602037 0.259548 -4.79543e-21)
(1.01109 -0.00054528 -9.93926e-24)
(1.00484 -0.000106366 0)
(1.02121 0.000827972 0)
(0.597958 -0.0547404 7.3475e-21)
(0.556073 0.0203365 1.62036e-22)
(1.04153 0.0155473 1.37361e-21)
(1.00896 -0.0010265 4.31135e-22)
(1.06099 0.0680573 3.70802e-21)
(1.02146 0.000782269 0)
(0.861005 0.0290073 -8.78445e-22)
(1.02915 0.0229945 8.00243e-22)
(0.855396 -0.0631604 -1.11822e-22)
(1.00306 -8.52897e-05 5.2313e-22)
(1.02532 0.11443 2.52567e-21)
(1.01442 0.0105782 7.61743e-22)
(1.03827 0.00738214 9.78602e-22)
(1.01412 0.0205959 2.58761e-21)
(1.01237 -0.00162064 -4.62952e-23)
(1.02927 0.0171419 1.88734e-21)
(1.01179 0.0059003 -5.21656e-22)
(1.01407 0.0346386 0)
(1.00933 0.00293439 -9.62761e-23)
(1.01421 -0.00243628 2.78831e-22)
(0.904285 -0.0595536 6.28614e-21)
(1.01157 -0.000928626 5.51735e-22)
(1.01434 -0.00244767 2.51865e-22)
(1.02079 0.00612593 -1.55637e-21)
(1.0097 -0.00113075 3.54189e-22)
(0.580766 0.0118942 -6.88817e-21)
(1.01429 0.0104571 -3.38544e-22)
(0.461645 0.0127087 -6.99071e-22)
(1.07638 0.0795159 1.67712e-20)
(0.839027 -0.0306326 3.78878e-21)
(1.08502 0.0590166 9.94622e-21)
(1.02625 0.00858935 0)
(0.975984 0.143504 3.62102e-22)
(1.00504 -5.16192e-05 -2.67061e-22)
(1.03115 0.00589782 0)
(1.03108 0.00617836 0)
(1.09467 0.0573246 1.1614e-20)
(1.01145 0.00408569 5.13662e-22)
(0.552441 -0.0374113 -3.5348e-21)
(0.839253 -0.0633136 -5.50571e-21)
(1.03977 0.0506838 0)
(1.0133 0.00838674 -7.75163e-22)
(1.0104 0.00664194 8.88711e-22)
(1.03494 0.0353908 -1.20864e-21)
(1.02392 0.0191788 2.78971e-22)
(1.0051 -0.000119569 -1.13233e-22)
(0.571371 -0.00285109 -5.82593e-21)
(1.00943 -0.00113128 -7.97652e-22)
(0.757687 0.0589078 0)
(0.97363 -0.0188832 -7.5285e-22)
(0.963311 0.146349 -5.97006e-22)
(1.13981 0.126956 -1.42064e-20)
(1.02569 0.112052 1.88512e-21)
(1.00262 -6.55027e-05 -8.43236e-22)
(1.01099 -0.000512055 0)
(1.07935 -0.0977099 3.69699e-22)
(1.08272 0.0582829 1.18761e-21)
(1.00927 -0.00107156 -2.01565e-22)
(0.851727 -0.0318987 0)
(1.08445 0.0567013 0)
(1.01331 0.00846143 1.52469e-21)
(1.03442 0.0352411 -2.15129e-21)
(1.00185 7.39165e-05 -4.09089e-23)
(1.00142 -3.38533e-05 0)
(1.08231 0.0583809 -2.46537e-21)
(1.00896 0.00256315 7.39153e-22)
(0.783916 0.0285231 9.24708e-21)
(1.00707 -0.000420232 -1.64755e-22)
(1.06406 0.0618941 0)
(1.04445 0.0165753 3.18686e-21)
(1.01322 0.00833422 7.7646e-22)
(1.00111 -2.1204e-05 0)
(1.0134 0.00851992 0)
(1.01045 0.00626689 6.93332e-22)
(0.998113 0.0903572 -1.32016e-22)
(0.716969 0.0207628 7.7673e-22)
(1.00248 7.04987e-05 1.09637e-22)
(1.01375 0.00891692 7.46963e-22)
(1.00997 -0.00116303 1.89193e-22)
(1.08475 0.0590687 1.21819e-20)
(1.00593 -2.301e-05 -9.20738e-24)
(0.991053 -0.0662922 2.78667e-21)
(0.763249 0.0289189 4.88797e-21)
(1.05047 0.0504753 -5.80828e-21)
(1.05754 0.0269262 3.99234e-21)
(1.08352 0.0651391 -1.09437e-20)
(0.994558 -0.0583592 2.34989e-21)
(0.795279 0.0310248 2.30956e-21)
(1.05909 0.0504688 -2.35032e-21)
(1.01837 0.00574882 -6.63306e-22)
(1.00886 0.00246368 -5.79962e-22)
(1.04681 0.043613 -4.31027e-23)
(0.603133 -0.0569605 7.62898e-21)
(1.00907 0.000629844 -2.55264e-23)
(1.02058 0.00617021 8.4687e-22)
(1.02606 0.064055 0)
(1.02087 0.00388201 6.79806e-22)
(1.01745 -0.00292608 9.12519e-22)
(1.03877 0.0327218 -3.69355e-21)
(1.01339 -0.00179062 0)
(1.0117 0.00574118 -1.54344e-22)
(1.01763 -0.00265912 0)
(1.02148 0.0197922 6.35979e-23)
(0.948181 0.0490225 -1.8015e-21)
(1.01816 0.0123612 2.40759e-22)
(1.01048 0.0396938 -2.01337e-21)
(0.960022 0.150411 5.8259e-22)
(1.00662 -0.000398674 8.75254e-23)
(1.01361 0.00879293 1.99693e-23)
(1.0105 0.00182781 0)
(1.02548 0.0141264 1.53632e-21)
(1.01325 -0.00174441 -5.44012e-22)
(1.03599 0.0280803 1.66414e-21)
(1.02989 0.0514184 7.25364e-22)
(0.919392 0.0490938 -1.78801e-21)
(1.0237 0.0230334 0)
(1.04473 0.0210675 -3.68296e-21)
(1.00331 -0.000100724 5.21243e-22)
(0.467243 0.00593684 -7.17173e-21)
(0.972419 0.148032 -8.119e-22)
(1.01563 0.000842503 0)
(1.0126 -0.00276886 4.55311e-22)
(0.629908 -0.131081 -5.07103e-21)
(0.990483 -0.0451692 0)
(1.0206 0.00382941 7.68571e-23)
(0.730365 0.0226921 -2.69487e-21)
(1.04681 0.0428849 -5.95942e-23)
(1.00744 0.000909786 0)
(0.860024 -0.0492274 -1.20866e-21)
(1.02874 0.0233889 4.61028e-24)
(1.00812 0.000442434 0)
(0.968188 0.00503442 2.9518e-22)
(0.457614 0.0149724 2.15017e-21)
(1.04115 0.0478607 6.60749e-22)
(1.00754 0.000967867 0)
(1.04122 0.0361085 -4.19239e-21)
(1.01795 0.00521926 -8.4737e-22)
(1.01762 0.00506561 -8.00044e-22)
(1.04723 0.0338341 -7.20102e-22)
(0.96643 -0.0204301 1.04193e-23)
(1.0117 -0.000929932 0)
(1.04501 0.0207173 3.65149e-21)
(1.05242 0.0438657 3.38539e-21)
(1.04115 0.0158743 -1.29155e-21)
(1.02193 0.0238572 -1.17693e-22)
(1.01799 0.00538826 1.22112e-21)
(1.00323 5.8896e-05 -9.9289e-22)
(1.02238 0.0193312 -1.59299e-22)
(1.03474 0.0188054 0)
(1.01758 0.0253465 0)
(1.01793 0.0122627 6.1107e-23)
(1.03164 0.0058814 1.0832e-21)
(0.999571 0.070302 0)
(1.08597 0.0582466 0)
(1.00672 0.000760164 0)
(1.06228 0.0858009 0)
(1.00969 -0.00114796 1.92324e-22)
(0.879163 -0.26817 -7.0589e-22)
(0.997315 0.0659256 0)
(1.01747 0.0257723 0)
(0.962968 0.00584669 -3.08179e-22)
(0.838996 0.063453 1.09606e-21)
(1.06535 0.0609824 0)
(0.741165 0.0260432 -3.20789e-23)
(1.00929 -0.00104418 0)
(1.07544 0.036263 0)
(0.846807 0.0332182 2.40762e-21)
(1.02245 0.00321682 4.52738e-22)
(1.0247 0.023141 0)
(1.01826 0.0512894 0)
(1.0169 0.0519398 -2.43488e-22)
(1.06295 0.0613961 7.32332e-21)
(1.01 -0.00144271 0)
(1.01668 0.000600681 0)
(1.01246 -0.00170492 0)
(1.03674 0.00698651 -7.88149e-22)
(1.06753 0.136885 5.69714e-21)
(0.565725 0.0153588 1.38464e-21)
(1.01918 0.0143422 -1.19828e-22)
(1.02775 0.0407513 -2.06915e-21)
(1.00666 0.000742528 -9.47872e-22)
(0.441962 0.0118932 5.23134e-21)
(1.08033 0.067918 1.47369e-21)
(1.0131 -0.00182289 -5.41023e-22)
(1.0167 0.0117963 0)
(0.780439 0.0302158 0)
(0.542343 0.048605 0)
(1.07533 0.0353764 0)
(1.05113 0.0291027 7.13708e-22)
(1.00922 0.00131865 1.30308e-21)
(1.01468 0.0120161 0)
(1.03557 0.0223964 0)
(0.479539 0.0071219 1.03892e-20)
(1.0786 0.0368624 1.93275e-20)
(1.01393 0.00996216 0)
(1.01268 -0.00111364 -2.14376e-23)
(0.589288 0.0254715 0)
(0.990817 -0.116431 0)
(1.01481 -0.0025968 0)
(1.01016 -0.00146925 -9.44995e-22)
(0.89226 0.0103276 0)
(1.04081 0.0391336 3.87895e-21)
(1.01027 -0.0014825 8.77013e-22)
(1.01337 -0.00203414 -7.25219e-22)
(1.05997 0.0672974 -3.61764e-21)
(1.01384 -0.00228027 0)
(1.09391 0.0587956 4.50868e-24)
(1.06558 0.0735476 -4.1896e-21)
(1.01009 -0.00119075 6.69499e-22)
(1.0093 -0.00754344 8.76867e-22)
(1.00998 -0.00116695 -6.82185e-22)
(1.04129 0.015082 -2.6853e-21)
(1.00703 -0.000418624 -8.1032e-22)
(1.06859 0.0764583 4.51464e-21)
(1.01394 -0.00229739 0)
(1.01464 -0.00260789 -5.06436e-22)
(1.01758 0.00489342 7.99542e-22)
(1.01076 0.0437797 0)
(0.567278 0.0107181 -3.21622e-21)
(1.04043 0.0322901 0)
(1.00163 -2.0718e-05 0)
(0.623042 -0.154097 4.29845e-21)
(1.08342 0.0645937 1.33455e-20)
(1.04696 0.0365157 2.04426e-21)
(1.01367 -0.00227726 0)
(1.0152 0.000173696 0)
(1.16336 0.124154 0)
(1.04846 0.0142421 0)
(0.569879 0.0187822 -4.14772e-23)
(1.00745 0.000132424 -5.03687e-22)
(1.01073 -0.00683012 0)
(0.82957 0.0606465 0)
(1.02332 0.0519745 -1.06554e-22)
(0.999068 -0.0335702 5.16159e-23)
(1.01314 -0.00174243 0)
(1.00737 0.000107924 -7.38439e-22)
(1.01328 -0.00172268 -1.82891e-22)
(0.445012 0.0130236 -7.0912e-21)
(1.0112 0.00442961 -9.56259e-23)
(1.01318 -0.00167836 -7.04002e-22)
(1.00998 0.00272561 -1.37695e-22)
(1.02633 0.0275552 -1.96075e-22)
(0.776389 0.0281412 -3.18205e-21)
(1.01383 0.0161218 7.48413e-22)
(0.460337 0.00354463 0)
(0.893855 0.047889 -1.59971e-21)
(1.00822 -0.00031102 -3.05156e-22)
(1.03348 0.035671 -1.5394e-21)
(1.13945 -0.0426504 5.01042e-22)
(1.04137 0.0163777 -1.34899e-21)
(1.01289 0.0154324 0)
(1.03262 0.0536056 -1.79952e-21)
(0.999082 0.0936178 0)
(0.93893 -0.0466831 -9.93436e-21)
(1.01051 -0.00138203 -3.34033e-22)
(1.01105 0.00427531 -1.9153e-22)
(1.0137 0.0210119 -2.11671e-21)
(1.05981 0.0588918 1.46148e-21)
(1.07705 0.187199 -3.21903e-22)
(1.01156 -0.000666336 -3.56818e-22)
(1.01403 -0.00251957 0)
(1.04412 0.0161488 0)
(1.04671 -0.0287264 0)
(0.985216 -0.136382 -5.28849e-22)
(1.07779 0.092941 -9.38646e-23)
(1.04034 0.0318279 0)
(1.01004 -0.00144568 5.47243e-22)
(1.02275 0.00323703 1.04495e-21)
(1.01167 -0.000737064 7.31265e-23)
(1.00992 -0.00141966 0)
(0.561393 0.0183273 -6.90666e-22)
(1.03294 0.0452649 -1.57486e-21)
(1.03772 0.0273855 0)
(1.02642 0.0288027 -1.43291e-22)
(1.01835 0.0249637 -1.77696e-21)
(1.01415 0.0270222 6.53821e-23)
(0.460294 0.0161989 0)
(1.01663 -0.00298473 4.37474e-22)
(0.960425 -0.124607 -4.36806e-21)
(1.01681 -0.00279741 -4.1664e-22)
(1.01363 0.0134114 0)
(1.01209 -0.0013785 -2.80086e-22)
(1.00195 -5.15598e-05 2.14018e-22)
(1.0098 -0.00115808 -1.84323e-22)
(1.01065 -0.00158826 0)
(1.01136 -0.000860829 -2.97505e-24)
(1.01324 -0.00180048 0)
(1.00758 0.000833257 0)
(1.01553 0.020854 -7.67469e-22)
(1.02804 0.00257497 0)
(1.01143 0.00423455 -5.53353e-22)
(0.926282 0.31584 -3.60749e-21)
(1.02112 0.0137053 -4.25624e-22)
(1.02277 0.0194296 3.91591e-22)
(1.01128 0.00292235 -6.26772e-23)
(1.00546 -0.000106001 2.059e-22)
(1.01621 0.0218072 4.31733e-22)
(1.02023 0.00395426 -7.78015e-23)
(1.02663 0.028751 4.36294e-22)
(1.0826 0.0585363 0)
(1.01897 0.0139655 1.75872e-22)
(1.03555 0.0500052 -1.03134e-21)
(1.01351 -0.00200915 1.09796e-21)
(1.01143 0.00370275 0)
(0.94114 0.00536412 0)
(1.00704 0.000589362 -5.15749e-22)
(1.01379 -0.00226319 0)
(1.06612 0.0750018 -7.37982e-21)
(1.02279 0.0133632 0)
(1.03902 0.0186882 2.22239e-21)
(1.00747 0.000784241 4.96445e-22)
(1.06422 0.0572165 -6.40308e-21)
(1.01474 0.00523491 -9.87748e-22)
(0.572771 -0.000309352 3.32024e-21)
(1.02768 0.0024279 0)
(1.03714 0.0178083 0)
(1.01007 -0.0280297 0)
(1.04401 -0.000817163 0)
(1.01209 -0.00142707 0)
(1.05577 0.0154135 -6.82968e-23)
(0.976442 -0.146668 0)
(1.06188 0.0358132 -4.71502e-21)
(1.00975 0.00256581 1.39279e-22)
(0.89139 0.0697735 0)
(1.00279 -7.1396e-05 -7.67724e-22)
(0.427862 0.0157396 -2.72594e-21)
(1.03185 0.0429177 6.98181e-22)
(1.01134 0.0033056 0)
(1.08321 0.0577531 -7.59139e-21)
(1.03683 0.0079902 -5.86327e-21)
(1.01125 0.00282267 4.5662e-23)
(1.06892 0.0357937 4.62144e-21)
(0.72681 0.0530037 0)
(1.00953 -0.00115448 8.43734e-22)
(1.02557 0.0145042 -1.09058e-21)
(1.0075 0.000748611 -9.47967e-22)
(1.01 -0.00134538 0)
(0.554951 0.0270735 -4.00485e-21)
(1.06117 0.0605117 0)
(1.00814 -0.000830016 0)
(1.12363 0.112757 1.07391e-20)
(1.04703 -0.00413579 0)
(1.01215 -0.00192245 7.16417e-22)
(1.01008 -0.00118304 0)
(1.00802 -0.00078012 0)
(1.00907 -0.000268816 0)
(0.710664 0.0229049 5.37955e-21)
(0.904963 0.178457 1.0306e-20)
(0.726758 0.0380039 1.30955e-21)
(1.01413 -0.00252802 0)
(0.577636 -0.00574121 8.06411e-22)
(1.0205 0.00400878 -7.51559e-22)
(1.00494 -8.7571e-05 0)
(0.889867 0.060952 -5.75399e-21)
(1.00988 0.00270884 -9.10509e-24)
(1.02768 0.0646651 -1.86623e-21)
(0.924016 -0.00399211 -2.83168e-21)
(0.586836 -0.166176 1.67197e-21)
(1.01214 -0.00291308 -9.21966e-22)
(1.08283 0.0577849 6.65945e-21)
(1.00799 -0.000756164 1.42879e-22)
(1.08433 0.0563374 0)
(0.870648 -0.26359 0)
(1.03548 0.0360304 0)
(1.03893 0.00695469 9.36966e-22)
(0.884846 0.01585 0)
(1.08277 0.057571 -7.31829e-21)
(1.01123 0.00329553 4.3777e-25)
(1.03307 0.0175117 1.51582e-21)
(1.01679 0.000772645 1.30378e-21)
(1.01487 0.027377 8.85099e-22)
(1.05515 0.0194944 0)
(1.02183 0.0174856 0)
(1.03698 0.00769752 1.85004e-21)
(1.02215 0.0528012 6.99382e-25)
(1.03344 0.0751664 -4.99576e-22)
(0.438702 0.0126319 2.86306e-21)
(1.00789 -0.000709761 1.41629e-22)
(1.01739 0.0156485 0)
(1.0091 0.00237401 2.39114e-22)
(1.05734 0.0486656 -1.45717e-21)
(0.721995 0.0226604 -5.51339e-21)
(0.921613 -0.0143917 1.43293e-21)
(0.736053 0.0223286 0)
(1.01081 0.0608716 -1.43065e-21)
(1.02082 0.0247613 0)
(1.021 0.0200261 2.00342e-23)
(1.02608 -0.00102851 -6.15437e-22)
(1.05792 0.071504 -3.54039e-21)
(0.72327 0.0212897 0)
(1.01424 0.0611175 -1.28438e-21)
(1.01424 0.00290504 0)
(1.01141 0.00299812 -6.54098e-22)
(1.05673 0.0720761 0)
(1.03252 0.0427844 3.81548e-22)
(1.03834 0.0399628 0)
(1.01829 0.0254093 0)
(1.00615 0.0472573 0)
(0.922024 -0.087123 -6.14141e-21)
(0.900879 0.0371619 -1.1244e-20)
(1.00939 0.00256366 5.55546e-22)
(1.00893 -0.00100932 1.0658e-21)
(0.598853 0.0259224 4.7923e-21)
(1.0265 0.0142061 0)
(1.00635 0.000484146 1.04867e-21)
(1.0071 -0.000440117 0)
(1.00917 -0.00103406 2.41921e-22)
(1.02095 0.0203513 0)
(0.381644 0.0121365 0)
(0.796545 0.0273643 1.35746e-20)
(0.688523 0.0735512 -7.60779e-21)
(0.887705 0.0444665 0)
(1.019 0.00577213 -2.33065e-22)
(1.03098 0.0225785 -1.34063e-21)
(0.995474 -0.0845298 -4.05237e-22)
(1.04529 0.0189724 5.45903e-21)
(1.04291 0.0291751 -3.91274e-21)
(1.02629 0.0428304 6.22173e-22)
(0.983079 -0.0792018 4.67189e-23)
(1.0079 0.00127711 9.04357e-22)
(1.01831 0.00556467 -8.61949e-22)
(1.01969 -0.00194401 0)
(1.01179 -0.0014942 -3.3653e-22)
(1.06708 0.0910929 2.57938e-22)
(0.430996 0.0117288 0)
(1.01171 -0.00155203 -4.34993e-22)
(1.03402 0.0358198 5.7333e-22)
(1.03905 0.0295847 0)
(1.02292 0.0194315 -1.84145e-21)
(1.00899 0.00225575 -1.33831e-22)
(1.01091 -0.00168412 0)
(1.07959 0.0676366 -3.90152e-21)
(1.00796 -0.000653673 0)
(1.04394 0.239549 4.44462e-21)
(0.95141 0.153314 -7.42105e-22)
(1.05808 0.0488833 1.22175e-21)
(1.01372 0.00884461 0)
(1.0105 -0.00133602 0)
(1.06697 0.0554334 0)
(1.02618 0.0277668 -6.65094e-23)
(1.01722 0.00544182 -1.28647e-21)
(1.01144 0.00381296 0)
(1.01157 -0.000770251 0)
(1.04777 0.041913 0)
(0.944085 -0.0374654 0)
(1.04779 0.0426251 3.07436e-21)
(1.03702 0.0212617 0)
(1.01889 0.0119055 2.93529e-23)
(1.0358 0.0281735 1.65213e-21)
(1.07727 0.0949679 -6.72268e-21)
(1.07825 0.0374865 -9.56853e-23)
(1.04098 0.0166871 1.35175e-21)
(1.00922 0.0126878 -2.13273e-21)
(1.02238 0.0235705 4.3366e-23)
(1.08485 0.0364732 4.47731e-21)
(1.03387 0.0740751 4.21113e-22)
(1.17216 0.109876 0)
(1.001 -3.71658e-05 -1.0632e-21)
(0.599241 -0.0157252 0)
(1.07137 0.185185 0)
(0.847319 -0.263973 0)
(1.02395 0.0689106 7.11656e-22)
(1.0203 0.032804 5.82177e-22)
(0.438106 0.0178133 0)
(1.00342 -8.64431e-05 -3.07086e-22)
(1.0242 0.0231416 7.11152e-23)
(1.0013 -0.0293913 0)
(1.0141 0.0446208 -3.07145e-22)
(1.0077 0.0011925 2.44243e-22)
(1.04579 0.0542249 -4.88053e-23)
(1.03084 -0.0534595 -3.02326e-21)
(1.01366 0.00890482 -1.6532e-21)
(1.02254 0.0203602 2.66821e-22)
(0.369944 0.00994029 6.90309e-23)
(0.937507 0.296366 0)
(1.02561 0.0519248 0)
(1.02101 0.0330782 0)
(0.360993 0.00824765 2.66782e-21)
(1.01469 0.00500711 0)
(1.0364 0.0522938 1.14409e-21)
(0.915065 0.0358201 1.11608e-20)
(1.0146 0.0117739 -2.7163e-22)
(0.987151 0.140261 0)
(1.01079 -0.00151819 1.09894e-24)
(1.02998 0.0162048 1.27191e-21)
(1.0109 -0.0015241 0)
(1.06712 0.0950106 0)
(1.01713 0.00610443 -1.17643e-21)
(1.01281 0.0341966 0)
(1.00012 0.0486011 0)
(1.01982 0.00116814 -4.84921e-22)
(1.09473 0.0583593 -7.44057e-21)
(1.04075 0.0300874 7.98405e-22)
(0.994809 0.050605 0)
(0.993899 0.0569748 3.55432e-22)
(1.01142 0.00362593 -1.7575e-21)
(1.03988 0.00736324 4.47251e-21)
(1.00729 -0.000538331 8.7393e-25)
(1.03524 0.244182 6.79547e-21)
(1.01889 0.0116839 0)
(1.03632 0.0723184 1.96823e-21)
(1.02794 0.0205395 -8.06501e-22)
(1.00727 0.000377115 1.56233e-22)
(1.00762 0.00112809 -2.32101e-22)
(1.03589 0.0218876 5.53106e-23)
(0.770107 0.0604002 -3.75506e-21)
(1.00847 0.00144724 2.93864e-22)
(1.00711 -0.00048771 7.34499e-22)
(1.00661 -0.000412727 -1.1398e-21)
(1.02272 0.0236782 5.05628e-23)
(0.720173 -0.00873953 0)
(1.03591 0.0735862 -2.19135e-21)
(1.08248 0.0449696 1.97205e-21)
(1.00751 0.00110987 0)
(1.00292 -5.44416e-05 -8.13872e-22)
(1.10847 0.0667342 0)
(1.00917 0.00239785 0)
(1.01167 -0.000837055 2.52029e-22)
(0.890472 0.0582907 4.41565e-21)
(1.0098 -0.00117572 -2.06758e-22)
(0.529096 0.0271969 0)
(1.06607 0.0932012 4.31382e-21)
(0.896643 0.0781121 3.18793e-21)
(1.02446 -0.00148347 0)
(1.00726 0.000581075 0)
(1.00766 0.00133957 3.61951e-22)
(1.01457 0.00490427 7.20799e-22)
(1.01148 0.00346443 1.22175e-21)
(0.835788 0.100435 0)
(0.835855 0.0190418 2.44531e-21)
(1.04566 0.0209403 0)
(1.01317 0.0158548 -9.54387e-22)
(1.00809 -0.000828229 -1.50984e-22)
(0.761018 0.0413756 6.88638e-21)
(1.04083 0.0305433 1.01186e-21)
(1.02567 0.00920985 0)
(1.00736 0.000613331 0)
(0.971163 -0.0628515 0)
(1.01598 0.0123899 1.01701e-21)
(1.04118 0.017179 -1.47012e-21)
(1.08388 0.0928403 2.01443e-21)
(0.641383 0.317152 -2.61009e-21)
(1.08009 0.0670705 0)
(1.05809 0.0264093 0)
(0.908594 0.048872 0)
(1.00931 -0.000999018 -4.93831e-23)
(0.945025 0.148797 0)
(1.05928 0.0165052 1.60456e-21)
(1.00982 -0.00119185 2.0174e-22)
(1.02793 0.0201633 8.80461e-24)
(1.13572 -0.0582458 -3.49534e-22)
(1.00818 -0.00085448 -1.43742e-22)
(1.0161 -0.00282137 0)
(1.00786 -0.000682392 0)
(0.953424 0.29781 1.36065e-21)
(0.83765 0.013857 1.02959e-21)
(0.710219 0.0515779 8.35441e-21)
(1.00476 -4.6994e-05 1.66307e-22)
(1.01706 0.0114792 2.8909e-24)
(1.01329 0.0082352 -7.07935e-22)
(1.02992 0.01589 2.28942e-21)
(1.01728 0.0047473 0)
(1.00964 0.0651669 1.85223e-21)
(1.01016 0.00472753 -1.08415e-23)
(1.00486 0.000265074 0)
(1.00817 -0.000687921 0)
(1.01062 -0.00138344 0)
(0.931173 -0.0998717 0)
(0.579692 0.0391368 0)
(1.04111 0.0293282 -1.7656e-21)
(1.02237 0.0232311 3.50587e-22)
(1.01939 -0.00181738 6.69943e-24)
(1.04342 0.0278359 -3.87868e-21)
(1.00491 -0.000147416 0)
(1.00965 0.00254625 0)
(1.01905 0.0246141 0)
(1.08517 0.0518626 6.18608e-21)
(1.0365 0.0183063 1.0482e-21)
(1.07236 0.053567 -9.3131e-21)
(1.04257 0.0383465 0)
(1.14522 0.120549 -1.58874e-20)
(1.0253 0.00907559 0)
(0.732363 0.0520437 -7.60881e-21)
(0.960323 -0.0294241 0)
(1.01792 -0.00172658 2.1645e-23)
(1.00733 7.5337e-05 -7.46575e-22)
(0.389658 0.0140838 2.69237e-21)
(1.0115 0.00262076 -2.56392e-23)
(1.01139 0.000346447 -7.35461e-22)
(0.564097 -0.0780867 0)
(1.01309 -0.00214409 -8.32253e-22)
(1.07762 0.0516714 0)
(1.00738 3.80994e-05 1.3511e-21)
(0.92588 -0.243937 0)
(1.02232 0.0143266 -3.02452e-22)
(1.01379 -0.0015634 -3.1326e-25)
(1.06559 0.0593446 0)
(1.00273 -0.0375667 4.23766e-21)
(1.00597 0.065348 1.7725e-21)
(1.01147 0.00249531 2.33655e-23)
(1.01031 0.0044449 4.24728e-22)
(1.01137 -0.00149252 -2.02774e-22)
(1.01592 0.00096277 0)
(1.06575 0.0230582 -1.9669e-23)
(1.01867 0.000791794 1.27889e-21)
(1.02228 0.023906 1.11245e-22)
(1.01945 0.00573414 5.62923e-22)
(0.61658 0.239229 6.06976e-21)
(0.964173 0.326807 -3.58765e-21)
(0.963322 0.313727 4.25486e-21)
(1.06617 0.0225498 5.76865e-21)
(1.01679 0.014302 0)
(0.472645 0.00461431 7.28227e-21)
(1.01148 0.000278615 0)
(1.03771 0.00739483 0)
(1.01082 -0.0016526 -2.8884e-22)
(1.01724 0.00457647 -3.87472e-22)
(1.01597 -0.00296574 -5.42734e-22)
(1.04242 0.0321088 0)
(0.866933 0.0353682 0)
(1.00794 -0.000701505 -1.42679e-22)
(1.00791 -0.000669094 1.39953e-22)
(0.757215 0.0294021 4.1724e-21)
(1.01329 0.00816182 0)
(1.01139 0.000283427 0)
(1.07633 0.0807236 -1.36952e-20)
(1.01043 0.0288965 0)
(1.08339 0.0573823 -1.13036e-20)
(0.626324 0.33424 0)
(1.06173 0.100089 -2.01018e-21)
(0.871451 0.163559 0)
(0.587794 -0.0705421 -7.99226e-21)
(1.02203 0.0140201 0)
(0.591853 0.0100088 -6.59697e-21)
(1.01663 0.0139429 1.76661e-23)
(0.984066 0.145394 9.18018e-22)
(1.02811 0.00506624 0)
(1.00958 0.00263326 -1.93227e-22)
(1.01213 0.0150661 0)
(0.586285 -0.193052 -9.18987e-21)
(1.0214 0.0200951 0)
(1.00968 0.00266878 0)
(0.53961 0.0291126 1.10057e-21)
(1.04596 0.0191627 -3.59625e-21)
(1.03121 0.0373573 2.78589e-21)
(0.468183 0.0100888 2.95952e-21)
(0.76036 0.0823513 8.53523e-21)
(1.01379 -0.0013598 -5.28193e-22)
(0.938526 -0.00354567 -1.27961e-21)
(0.844101 -0.111583 -1.48139e-21)
(1.02285 0.0191092 -6.21004e-22)
(0.99537 0.0418315 -1.80906e-21)
(1.00867 0.00164984 -6.20382e-22)
(1.03676 0.0240383 -1.00187e-21)
(0.979425 -0.14207 2.735e-21)
(1.00469 -4.47199e-05 0)
(1.00762 0.00133594 -4.06125e-22)
(1.06595 -0.0175845 -7.25707e-22)
(1.00995 -0.00141331 -5.48805e-22)
(0.983761 0.196296 4.28673e-21)
(0.897988 -0.24865 -2.94369e-22)
(0.727201 0.067567 0)
(1.01821 0.0121195 -1.39939e-22)
(0.732486 0.0501257 -2.20731e-21)
(1.08031 0.066982 0)
(1.00359 -9.74919e-05 0)
(1.01135 0.00265438 0)
(1.00856 0.00158396 8.87216e-22)
(1.00741 0.00114596 -4.15244e-22)
(1.01686 0.0111981 1.70116e-23)
(1.01247 0.0656541 3.64528e-22)
(1.01427 -0.0752922 -4.74903e-21)
(1.02828 0.0197433 0)
(1.00386 -0.000104758 -1.43969e-22)
(0.998273 0.0586507 0)
(1.04133 0.0292535 -1.63431e-21)
(1.01578 0.0057569 9.46126e-22)
(1.01551 -0.00355519 0)
(1.01316 0.00823323 -2.42033e-22)
(1.07219 -0.0122813 1.20188e-21)
(1.00735 0.00109597 3.81232e-22)
(1.0414 0.0298167 1.72371e-21)
(1.00815 0.000378799 5.52629e-22)
(1.01889 0.00071705 -1.78688e-22)
(1.08375 0.0574042 1.08536e-20)
(1.00243 -4.36377e-05 0)
(1.02086 -0.00187641 -6.74955e-25)
(1.01931 0.00584974 0)
(1.02207 0.0682323 -1.98864e-21)
(1.02175 0.0660323 6.57705e-22)
(1.01477 -0.00148147 -2.53649e-23)
(1.00728 0.000557703 -2.58579e-22)
(0.991471 0.057389 -4.06707e-21)
(1.00328 8.79881e-05 4.43582e-22)
(0.476393 0.0109603 7.76376e-22)
(1.03107 0.0366641 -9.28644e-22)
(1.05624 0.0551695 7.32932e-22)
(1.01223 -0.00198862 -1.50959e-22)
(1.07489 0.0336011 -1.70203e-21)
(1.02909 0.0234081 -1.11749e-21)
(1.01139 0.00278337 0)
(1.01645 0.0408823 -6.76109e-21)
(1.01896 0.0250252 9.39997e-22)
(1.02516 0.00608531 0)
(1.14331 0.123924 1.83364e-20)
(1.01705 0.00229572 -3.01729e-23)
(1.01128 -0.000611705 0)
(1.01443 0.00952115 3.20507e-22)
(1.02083 0.0517787 5.01559e-22)
(1.01113 -0.000535972 0)
(1.08571 0.0536902 5.49667e-21)
(0.965525 -0.0722335 -4.03739e-22)
(1.02656 0.0283062 8.52229e-24)
(1.04437 0.0318523 0)
(0.524683 0.0460358 -4.42045e-21)
(1.05713 0.0548011 2.32024e-21)
(1.01238 -0.00184763 -3.44683e-22)
(1.01847 0.0122273 -1.42215e-22)
(1.03243 0.0313934 0)
(0.76375 0.208329 1.28398e-20)
(1.0109 0.00207325 1.82518e-22)
(1.00138 -5.40531e-05 -1.9448e-22)
(1.03627 0.0185147 1.20046e-21)
(1.06779 0.0752944 3.87381e-21)
(1.03255 0.0310805 0)
(1.07697 0.051548 0)
(1.06708 0.0614566 0)
(1.0226 0.0143256 1.87763e-21)
(1.07339 0.0556762 0)
(0.772516 0.0423917 -7.07958e-21)
(0.705422 -0.018428 0)
(1.08617 0.0570555 4.50162e-21)
(0.9494 0.0532681 0)
(1.01003 -0.00293828 0)
(1.00838 0.0015715 -1.16821e-22)
(0.999159 -0.0497149 0)
(1.02324 0.0187811 2.81198e-22)
(0.891928 0.0266172 3.55026e-22)
(1.02506 0.0209779 -4.0508e-22)
(1.03354 0.0418023 1.278e-20)
(1.03657 0.0222828 0)
(1.01149 0.000351997 -6.12835e-24)
(1.00795 0.00155601 0)
(1.04717 -0.0133134 2.15134e-22)
(0.882411 0.0217499 0)
(1.00283 7.64648e-05 9.46137e-22)
(1.01706 0.0150257 2.87565e-22)
(1.01887 0.000654538 0)
(1.01244 -0.00173895 -5.8884e-22)
(1.01172 0.00019189 0)
(0.835321 0.109088 -1.47665e-21)
(1.00567 0.000314889 -1.81319e-22)
(1.00956 -0.00115316 2.11204e-22)
(0.805595 0.0329631 0)
(1.00727 0.00104909 -4.82237e-23)
(1.09173 0.0496364 0)
(1.00964 -0.00107226 6.96938e-22)
(1.01989 0.0653698 0)
(1.06707 0.0577659 1.9239e-21)
(1.00248 -6.03514e-06 4.73489e-22)
(1.00724 0.00105636 0)
(0.614586 0.0113683 7.05708e-21)
(0.852055 0.0332256 5.65745e-21)
(1.02679 0.0281965 0)
(1.02838 0.054628 0)
(1.0291 0.0400531 -1.5392e-21)
(1.00791 0.00155745 0)
(1.02061 -0.00194767 0)
(1.01555 0.050657 -4.47625e-24)
(1.0683 0.136623 9.05953e-21)
(1.01078 0.00191117 3.09531e-22)
(1.01243 0.0155509 0)
(0.982064 0.119046 -1.22101e-21)
(0.996231 -0.0252693 7.37852e-22)
(1.01689 0.0022479 0)
(1.09863 0.0769772 0)
(1.06076 0.101713 2.62261e-21)
(1.08326 0.0775779 0)
(1.01183 0.000169185 -3.57227e-22)
(1.02628 0.0417912 -5.8752e-22)
(1.08331 0.0573906 -5.73987e-21)
(0.477472 0.0195534 3.01402e-23)
(1.00146 -4.71605e-05 7.11673e-22)
(1.00334 -0.000102106 0)
(1.03752 0.0175632 0)
(1.00176 -2.02594e-05 4.70984e-22)
(1.01847 -0.00232477 0)
(1.02497 0.00586061 0)
(0.977257 0.198226 -4.23293e-21)
(1.02001 -0.00196053 0)
(1.04512 0.019883 0)
(0.867695 0.0155667 1.88327e-21)
(1.02744 0.0113641 4.22938e-22)
(0.556657 -0.0174042 -6.28859e-21)
(1.00757 0.000529068 7.72195e-22)
(1.08281 0.0946919 0)
(1.00707 -0.000481452 0)
(0.555006 -0.00438922 3.45434e-21)
(1.03266 0.0111972 0)
(1.10615 0.0689701 0)
(1.01834 -0.00269244 4.79492e-22)
(1.09286 0.130517 0)
(1.025 0.0281053 0)
(1.00095 8.414e-06 -6.20461e-23)
(1.06071 0.0584617 -1.39923e-21)
(1.07739 0.0334979 6.81586e-21)
(0.964067 0.0535643 9.05244e-22)
(1.00705 -7.28904e-05 -2.66052e-22)
(1.00771 0.000533719 -2.7607e-22)
(1.08505 0.0525827 -6.47592e-21)
(1.04582 0.0201092 0)
(0.97398 0.238309 -1.00247e-20)
(1.05818 0.0501676 -1.17712e-21)
(0.688216 0.0437606 7.93407e-21)