/*--------------------------------*- C++ -*----------------------------------*\
| =========                 |                                                 |
| \\      /  F ield         | OpenFOAM: The Open Source CFD Toolbox           |
|  \\    /   O peration     | Version:  v2012                                 |
|   \\  /    A nd           | Website:  www.openfoam.com                      |
|    \\/     M anipulation  |                                                 |
\*---------------------------------------------------------------------------*/
FoamFile
{
    version     2.0;
    format      ascii;
    class       volVectorField;
    location    "400";
    object      ddt0(U);
}
// * * * * * * * * * * * * * * * * * * * * * * * * * * * * * * * * * * * * * //

dimensions      [0 1 -2 0 0 0 0];


internalField   nonuniform List<vector> 
27915
(
(-0.000343937 -0.000627473 1.31969e-21)
(-0.00413663 -0.000368101 -2.94741e-21)
(-0.00589774 -0.000488161 0)
(2.09344e-06 -1.79168e-05 -1.64932e-22)
(0.000137345 5.35262e-05 -3.73897e-24)
(0.000825919 -0.000324232 7.42064e-22)
(-2.98446e-05 -2.8836e-07 1.30814e-22)
(-0.0025236 -0.00320967 8.49197e-22)
(0.000100631 -1.41485e-05 0)
(-0.00255941 0.00302569 3.7353e-22)
(0.00240444 0.00112741 6.01462e-22)
(0.0415567 0.103784 0)
(-0.0267427 -0.0358068 -3.75613e-24)
(-3.23889e-05 2.21888e-06 -1.02457e-22)
(-0.00079215 0.000424228 -1.04771e-23)
(9.06344e-06 1.53703e-06 -2.92096e-23)
(0.0166821 0.0309557 7.08767e-22)
(8.21195e-06 -7.67221e-06 -7.32002e-23)
(0.00319844 -0.000609011 0)
(-0.00285098 -0.00294712 2.66916e-22)
(-0.0245666 -0.0736145 2.45927e-22)
(-0.000161506 -5.70783e-06 0)
(-0.0639954 -0.108053 2.42563e-21)
(1.91685e-05 9.15219e-06 5.16647e-22)
(8.44866e-06 8.56688e-07 2.64892e-23)
(7.21612e-06 1.10439e-05 2.1535e-22)
(-0.0271386 0.0584479 1.90349e-21)
(0.000133117 3.96602e-05 -2.1458e-23)
(-0.00682143 -0.000168162 0)
(0.000204207 0.000199173 -2.43481e-25)
(1.81193e-05 -1.9259e-05 0)
(0.00267346 -0.00303607 0)
(6.86669e-06 1.05264e-05 7.32528e-23)
(2.66377e-06 -1.42939e-05 5.5811e-23)
(-0.0187087 -0.0406551 -2.52888e-22)
(3.60159e-06 -1.5263e-05 0)
(9.43334e-06 7.34143e-07 -7.62669e-23)
(6.70547e-06 1.03416e-05 -2.30947e-22)
(-0.022017 -0.000326132 2.27736e-21)
(-2.44544e-05 -6.25777e-05 -1.12483e-22)
(0.000963898 -0.000538691 4.41069e-22)
(8.96631e-06 7.12116e-07 8.29589e-23)
(0.00505138 -0.00782401 0)
(1.79464e-05 -1.16205e-05 -8.14066e-23)
(0.0381747 -0.0802524 1.20101e-21)
(-2.61209e-05 -6.83702e-05 -6.34591e-23)
(1.70491e-05 1.93706e-05 -8.1082e-23)
(-0.00577221 0.00504579 1.06675e-21)
(1.35416e-05 -1.30839e-06 1.82162e-23)
(-2.60866e-05 -0.000128107 3.7289e-22)
(-0.00292842 -0.00326933 0)
(0.0188275 0.0108582 5.14251e-23)
(0.00611771 -0.0916717 -1.11419e-20)
(0.00027326 0.000133905 0)
(0.000112355 0.00025806 1.99578e-22)
(1.63348e-05 1.87516e-05 0)
(8.29647e-06 1.01361e-05 0)
(-0.036129 -0.021947 9.34852e-22)
(-0.0377831 -0.0118223 -9.60457e-22)
(1.81698e-05 -1.82501e-05 1.17184e-22)
(0.049861 0.00109805 0)
(-0.00190534 -0.00125072 1.34594e-21)
(0.0340514 -0.0799205 -1.15359e-21)
(0.00170252 8.74418e-05 0)
(1.36384e-05 -1.06932e-06 -1.45847e-22)
(-0.0236615 -0.00227894 -1.14755e-21)
(0.036821 0.107111 5.92198e-22)
(-0.00322448 -0.00299304 1.7877e-21)
(-0.0164269 -0.0397952 -1.81257e-21)
(1.42766e-05 2.3676e-06 0)
(-0.0058087 0.00896898 -7.57346e-23)
(2.1737e-05 1.45843e-05 -3.38394e-22)
(8.27975e-06 -1.21048e-05 1.78286e-22)
(0.00884733 -0.166116 0)
(-0.00185839 0.00287875 0)
(-0.0103074 0.0165927 1.01218e-22)
(0.000210223 0.000180874 2.21291e-22)
(1.7104e-06 -1.59253e-05 1.55139e-22)
(0.00148659 0.0135682 -2.50481e-22)
(-0.000621687 -0.0146204 1.77096e-22)
(0.00075263 -0.000309382 6.08669e-22)
(-0.000144062 -4.06521e-05 1.46366e-22)
(0.000443038 0.00057053 0)
(0.00316367 -0.0059398 3.56453e-21)
(-0.0992989 -0.0173779 0)
(-0.0248044 -0.090142 0)
(1.47914e-06 -8.54373e-06 0)
(0.00510936 -0.00752972 1.62071e-23)
(0.0797502 -0.00194813 3.27789e-23)
(-0.00102581 -0.012057 3.36155e-22)
(0.000122778 -7.1756e-05 -3.01429e-22)
(-0.000106234 -0.172975 1.18466e-22)
(-2.59616e-05 -0.000105763 -6.27761e-23)
(-0.0354768 0.0877281 3.09248e-21)
(-0.0053625 -0.000486279 5.9678e-22)
(-0.00570158 -0.000515449 0)
(0.0220953 0.044861 1.79833e-21)
(-0.00370922 0.00254287 -1.96066e-22)
(-0.00197584 -0.000974031 -6.02663e-22)
(4.98396e-06 5.58856e-06 -6.04594e-23)
(-3.11632e-05 0.000273834 0)
(7.12397e-06 1.00426e-05 1.31725e-23)
(-0.00377489 0.00238927 -1.20107e-22)
(-0.000721736 0.00126189 3.94644e-22)
(0.00225265 -0.000680867 0)
(-0.000145301 -1.77036e-05 1.17463e-22)
(-0.0834897 0.018858 1.05118e-20)
(0.0186701 -0.00390343 -1.80184e-22)
(6.86827e-06 8.88146e-06 4.26769e-23)
(-0.0049896 0.000707066 -3.05879e-22)
(-0.0330097 -0.0187477 -5.32755e-21)
(0.000933757 -0.000379769 8.3761e-24)
(0.0247146 -0.0041587 4.11547e-24)
(-0.06637 0.0275906 -3.38662e-21)
(0.0172312 -0.00478573 -7.21457e-24)
(0.0199723 0.00906684 -3.86099e-23)
(-0.00955307 0.0752785 0)
(0.00229787 -0.00292061 0)
(-0.000523872 0.00135786 -2.2562e-22)
(1.4135e-05 -5.45814e-07 2.78072e-23)
(0.000107643 -6.32317e-05 -2.27286e-22)
(0.0208325 -0.00307708 5.8195e-22)
(7.69066e-06 9.4426e-06 0)
(-0.000161065 2.36463e-05 4.54381e-22)
(-1.55284e-07 6.35164e-07 0)
(-0.0112034 -0.0675291 -2.36657e-21)
(-0.0216179 -0.0658361 1.65415e-21)
(0.00667721 0.000145944 0)
(1.87236e-05 9.858e-07 0)
(-1.92416e-05 6.55313e-05 1.08466e-22)
(-0.00236212 -0.000614758 0)
(-0.0257966 0.0551907 1.08979e-22)
(-0.0264253 0.0866686 0)
(0.00425463 -0.00841102 0)
(0.0283258 0.087512 -3.45821e-21)
(-0.0104491 -0.0149508 -2.63405e-21)
(0.127893 -0.0499414 3.6965e-22)
(-1.41074e-07 -7.24543e-07 -7.32501e-23)
(3.12738e-05 0.000108272 1.4802e-22)
(7.97445e-05 -6.59965e-05 1.20926e-22)
(9.32213e-06 -1.70164e-07 0)
(9.6537e-05 0.000261795 -2.32181e-22)
(1.02769e-05 -1.02098e-06 3.80512e-23)
(-0.00410134 -0.0155898 0)
(-0.0435873 -0.028023 0)
(-0.00335673 -0.00314218 -9.99087e-22)
(-0.00555159 0.000226089 1.01957e-21)
(-0.00500932 0.00456061 9.0177e-22)
(-0.0138521 0.0144718 0)
(0.000392255 0.000603937 4.87637e-22)
(-0.00769418 0.0691588 0)
(-8.85545e-08 7.98595e-07 7.44575e-23)
(-0.0036657 0.0312777 -2.30694e-21)
(-0.0311409 -9.73877e-05 0)
(0.0222661 0.0303011 0)
(0.00301428 -0.0163339 0)
(-0.00457787 -0.0184418 1.14941e-22)
(4.2766e-06 -4.97349e-09 -7.78247e-24)
(5.76917e-06 7.09533e-07 0)
(1.54793e-05 -1.16275e-07 1.05058e-23)
(-0.0191882 0.0138541 -5.73735e-21)
(-0.00832518 -0.0017938 1.43986e-21)
(-5.79683e-05 -3.83327e-05 -1.91752e-22)
(-0.00822793 -0.00898269 -2.06715e-22)
(0.00398618 -0.106394 4.67484e-23)
(3.79585e-06 2.83008e-05 0)
(-0.000863017 0.0325772 4.91395e-24)
(-0.0826943 -0.1083 -2.6187e-22)
(-0.00213341 0.00300736 -1.7856e-22)
(9.03829e-06 -2.10393e-07 6.48047e-23)
(-0.00278321 -0.00538263 6.22909e-22)
(4.21917e-06 -1.88567e-05 5.07086e-22)
(-5.27019e-07 6.38073e-07 0)
(-0.00653301 0.00463217 0)
(-1.86137e-05 8.21823e-06 -6.4113e-23)
(0.0196709 -0.00473033 7.85115e-21)
(-0.00507525 0.000584177 -1.96602e-22)
(-0.000322964 0.00113334 -1.3741e-23)
(4.18462e-06 2.05158e-06 2.33453e-22)
(-0.0100031 -0.00104755 0)
(0.081003 -0.00579497 -3.25286e-21)
(0.00319513 -0.00861242 -2.43155e-22)
(1.22272e-05 -1.00605e-06 0)
(-0.00323549 -0.00337584 0)
(-0.0119848 -0.0144233 0)
(-0.0513735 -0.0127192 -1.57816e-21)
(2.50204e-06 1.49751e-06 0)
(1.48468e-05 9.62284e-07 0)
(-0.00597729 -0.000720631 3.91924e-22)
(1.00163e-06 -6.96029e-06 1.44689e-22)
(-0.00570793 -0.00302442 0)
(0.00453809 0.000337537 2.77733e-22)
(-0.0222523 0.0219268 -2.58167e-21)
(-0.000180363 0.00116286 2.55372e-22)
(1.3005e-05 1.8534e-05 -6.40664e-24)
(8.11902e-06 5.03745e-07 -2.26571e-23)
(-0.0548789 -0.00628258 1.83179e-21)
(-0.010466 -0.0100198 3.16756e-23)
(3.24092e-06 -9.79444e-07 7.76441e-23)
(0.000644185 0.00033529 0)
(0.00434426 -0.0982131 8.61675e-21)
(0.00671131 0.0612767 1.12532e-21)
(4.21758e-06 4.13826e-07 0)
(5.53418e-06 8.84726e-08 7.6297e-23)
(0.0158263 -0.00404124 -9.89803e-24)
(-0.00549089 0.000315654 -7.39638e-22)
(-0.00175291 0.00905502 2.45099e-21)
(0.0110209 0.00121371 -5.2319e-22)
(-0.041988 -0.0318485 0)
(0.00011814 -1.5759e-05 0)
(0.000557319 0.00051073 -2.14193e-22)
(0.0821303 0.030448 -2.02313e-21)
(1.76205e-06 -4.31068e-07 0)
(2.95287e-06 3.49501e-06 1.14685e-22)
(-1.24821e-06 1.2441e-07 3.42823e-23)
(1.51982e-05 7.89766e-07 7.88357e-25)
(0.00993812 0.000309338 5.22263e-22)
(0.0269397 0.0274343 -5.35177e-23)
(-8.82524e-06 8.76446e-05 -5.936e-23)
(-0.000118722 -8.62804e-06 0)
(2.69749e-05 2.0971e-05 -9.79088e-23)
(-0.00304558 0.000282856 -1.35501e-23)
(0.000124897 0.000273666 -1.15513e-22)
(1.42046e-05 5.32806e-07 0)
(0.00201986 -0.00102063 0)
(-0.063534 0.0406394 0)
(1.93076e-05 -5.49519e-06 0)
(-0.042206 -0.0840404 -6.78014e-22)
(2.05299e-05 0.00013069 1.55771e-22)
(3.54994e-06 4.3386e-06 1.01972e-22)
(-0.00334808 0.000301303 -2.84724e-22)
(-0.00257437 0.00782193 2.68389e-22)
(0.0876918 0.0205743 2.38412e-21)
(-0.0924826 -0.11461 0)
(-0.0171651 -0.0759451 -3.96071e-22)
(0.00277591 -0.000819091 4.39689e-22)
(0.0772069 -0.0151942 1.35914e-21)
(1.60526e-05 -5.02178e-07 0)
(1.09947e-05 -1.52025e-06 0)
(-2.91139e-05 -3.23592e-05 0)
(-0.0529968 -0.120864 -7.67258e-22)
(0.000521511 7.78345e-05 0)
(-0.00367024 0.0094767 -9.14746e-23)
(0.0092376 0.0568888 -2.93091e-21)
(1.93147e-05 9.90968e-07 2.78867e-22)
(3.57528e-06 2.50617e-06 0)
(-0.0279926 0.0062877 0)
(0.00412941 0.000152554 -4.40868e-21)
(0.00237711 -0.00164069 2.56434e-22)
(-0.02234 0.0247608 0)
(5.08609e-05 0.000230444 7.51144e-22)
(5.34038e-05 -0.00866749 0)
(-9.46571e-06 2.94716e-05 0)
(1.7458e-05 -1.9115e-05 0)
(-0.00011518 8.63595e-06 0)
(0.0266868 0.040524 0)
(-0.000270872 -0.000595188 -1.33237e-21)
(-0.000110699 4.85248e-05 1.61873e-23)
(0.00178446 0.00253546 -1.70614e-21)
(-0.080166 0.0251756 -1.40187e-20)
(-0.00390642 0.00136243 0)
(-0.00417583 -0.00186505 -1.36591e-21)
(-0.00138242 -0.0218696 8.18642e-23)
(-0.00510337 -0.0287266 4.90938e-22)
(0.000850966 -0.0233302 1.71683e-24)
(0.00328796 0.00334631 0)
(1.38968e-05 2.87519e-06 -1.15074e-23)
(-0.00535457 -0.00337087 6.45922e-22)
(-0.000249051 -0.00837413 0)
(-0.0461848 -0.0110541 0)
(-0.00139295 -0.00127214 -4.79981e-22)
(0.00275285 -0.00124842 0)
(-0.00867636 -0.00442772 1.39486e-21)
(0.00604013 -1.36299e-05 -9.00017e-21)
(0.00224162 -0.00133209 -3.54753e-22)
(1.44467e-05 4.37274e-06 0)
(-0.00121007 0.00124228 1.47601e-22)
(0.000464248 7.42358e-05 -3.57373e-22)
(9.66493e-06 1.25971e-05 0)
(-0.000131686 3.05143e-05 -6.69171e-22)
(1.24067e-05 8.80613e-05 0)
(4.31512e-06 -1.82622e-06 0)
(1.66021e-06 -1.58441e-05 -1.19048e-22)
(-0.00099526 0.00770971 1.96915e-22)
(0.017359 -0.0842624 0)
(-0.00510585 0.000362384 -8.91976e-22)
(0.0247919 0.0284207 -2.28371e-20)
(-0.0363552 -0.0985294 6.03377e-22)
(0.000233505 0.000180198 -2.20646e-22)
(-0.00521923 -0.0019844 0)
(-0.0399161 -0.0197452 0)
(1.40613e-05 -1.22386e-06 7.3655e-23)
(-0.0109897 -0.00314491 -1.51173e-21)
(1.79278e-05 -1.42988e-06 0)
(-0.00101169 0.0014511 4.9406e-23)
(-0.00373477 -0.00157106 0)
(9.41059e-05 -0.120769 -1.92091e-22)
(0.112108 -0.0760614 4.22079e-22)
(-0.00419972 0.00509433 -8.53179e-22)
(3.45236e-06 2.94281e-06 -6.67163e-23)
(0.0257614 -0.0417795 -4.77496e-22)
(0.00807274 0.00149965 -1.65254e-23)
(8.61473e-05 1.11008e-05 -2.68989e-22)
(2.81464e-06 -7.3706e-07 -5.21109e-23)
(-0.0125015 -0.0980182 -2.75191e-23)
(0.00809438 -0.00484177 -5.08805e-22)
(0.000709558 0.000351963 0)
(-2.42547e-06 8.77916e-08 0)
(0.00214069 0.0114683 -9.99657e-22)
(-0.00134739 -0.00195444 1.26582e-23)
(-0.0448187 -0.109597 -6.0829e-22)
(1.47952e-05 5.31281e-05 -1.02314e-22)
(-0.0341551 -0.0484115 -4.77382e-21)
(-9.63549e-05 7.02284e-05 2.42365e-22)
(-0.0452771 -0.12492 9.08761e-22)
(3.12167e-06 7.67017e-07 7.14773e-23)
(4.46915e-06 4.11639e-06 -3.12667e-23)
(0.00280362 -0.00686681 0)
(0.00609167 0.000273454 0)
(-0.00338965 0.000483312 0)
(0.00220951 0.00859741 1.18706e-22)
(1.75473e-05 1.27323e-05 0)
(1.36386e-05 7.10181e-06 4.60664e-23)
(3.66798e-05 3.36135e-05 0)
(-0.00115296 -0.018319 -3.89725e-22)
(0.00742645 0.000630898 0)
(0.0025963 -0.010203 0)
(-0.0069117 -0.000209395 4.52749e-22)
(1.88386e-05 1.63479e-05 2.64188e-22)
(3.85325e-05 6.45828e-06 2.3837e-23)
(1.95523e-05 6.83069e-06 5.3729e-23)
(0.000594341 0.0094235 -2.08916e-22)
(3.36148e-05 3.3724e-05 0)
(9.72216e-05 2.18146e-06 3.38494e-22)
(0.12188 0.0164426 -4.172e-21)
(-1.04998e-05 7.26048e-06 0)
(0.0230845 0.0203172 0)
(9.06393e-06 5.4077e-06 0)
(0.0890867 -0.0113777 -5.83365e-22)
(0.009012 1.40215e-05 9.96255e-21)
(0.000240953 0.000161284 4.31364e-22)
(0.0116894 0.0257838 0)
(0.00586162 0.000210002 -1.38468e-22)
(0.0249872 -0.0987828 -2.54689e-21)
(-8.11732e-06 7.12968e-06 0)
(0.00078064 0.00101894 0)
(1.34529e-05 5.20517e-05 -9.37218e-23)
(-0.00804539 -0.0748615 -7.85195e-21)
(-0.00501809 0.000464734 6.9014e-22)
(1.5008e-05 4.42765e-06 -5.14159e-23)
(3.83536e-05 3.35121e-05 -1.2325e-22)
(-2.51549e-05 -3.50431e-05 0)
(-0.00884706 -0.0500143 1.2154e-21)
(0.000723119 -0.017004 1.19648e-22)
(0.000207658 0.00180635 0)
(-0.00915067 -0.0125443 -3.16664e-21)
(-0.00431643 -0.00679335 -7.87612e-23)
(1.09311e-05 2.65833e-08 1.10697e-22)
(-4.51062e-05 -1.98427e-05 1.2836e-22)
(0.00600674 -0.076055 -7.43743e-22)
(-0.00141805 0.00101883 1.41397e-21)
(-0.00119605 -0.00155079 7.73129e-22)
(0.000240282 2.40642e-05 -1.79651e-22)
(4.519e-06 2.43072e-08 1.43736e-22)
(0.000155099 0.000803924 -2.03547e-22)
(0.0125309 0.0189993 8.13429e-21)
(0.00330134 -0.00395426 0)
(1.62762e-05 1.09949e-05 3.57692e-24)
(1.75839e-05 -1.84215e-05 1.70157e-23)
(-9.41367e-07 -2.62881e-05 -4.83029e-25)
(-0.00695971 -3.55411e-05 -3.90989e-22)
(-1.469e-05 9.2712e-06 -1.13393e-22)
(-0.0039038 0.00236771 0)
(1.74812e-05 -2.00308e-06 4.23455e-24)
(-0.00309708 -0.00371931 4.79243e-22)
(-1.88994e-05 8.33182e-06 -6.94646e-23)
(1.59707e-06 1.74393e-06 0)
(0.000881312 -0.00103384 1.34364e-24)
(0.00295353 -0.00580168 4.00409e-22)
(-1.25305e-05 3.3813e-05 -7.48865e-24)
(0.00122246 -0.000462705 0)
(-0.00163126 -0.00541369 -1.63011e-21)
(-0.00346847 -9.99126e-05 -8.25331e-22)
(0.0124672 0.123386 -4.35783e-21)
(-0.00306848 -0.0168529 1.10918e-21)
(0.00148929 0.00251515 4.46467e-22)
(-0.0148081 0.208688 0)
(-0.00203619 -0.00559446 1.91123e-21)
(9.09529e-05 -7.55768e-05 -1.28594e-22)
(-0.00248735 -0.0144264 -8.32442e-22)
(8.39938e-06 4.18139e-05 -2.49202e-22)
(-0.00414518 0.00808926 0)
(-0.00491534 -0.000180165 0)
(1.30169e-05 9.39425e-06 2.83359e-23)
(-0.00275521 0.00323187 2.79978e-22)
(-0.00336426 -0.000415502 2.23644e-21)
(0.00298059 -0.00359962 2.67457e-22)
(6.45954e-06 1.36407e-06 -7.15167e-24)
(3.55703e-06 1.97758e-07 -1.38081e-22)
(0.0783751 0.000229962 0)
(-4.58937e-05 -2.5669e-05 -2.04747e-23)
(-0.00231874 -0.000904326 -3.95699e-22)
(-0.00333083 -0.000778491 -1.42479e-21)
(2.31102e-05 6.51532e-05 -2.72813e-22)
(0.0385306 -0.0451272 1.3113e-21)
(-0.00277517 0.00201979 0)
(0.00832783 0.0201597 -1.70578e-21)
(8.85918e-06 8.93949e-06 5.47355e-23)
(0.0218833 0.0944427 -2.25757e-21)
(-0.00263292 0.00933121 -3.85797e-21)
(-0.0058767 -0.000854729 -3.75752e-22)
(0.00293837 -0.00657364 -3.71058e-22)
(1.32785e-05 9.08961e-06 -2.33396e-23)
(1.16813e-05 2.38472e-06 1.04687e-24)
(0.0477597 0.0940011 7.67707e-21)
(3.00887e-05 2.79483e-05 -2.67218e-24)
(0.0141125 -0.00387219 -2.50208e-22)
(0.000229623 -0.00197828 -5.95962e-22)
(-0.00297751 -0.000245056 1.01246e-21)
(-0.00354076 0.00219539 1.265e-22)
(0.026572 0.0217428 4.29902e-23)
(3.65143e-06 -2.49793e-06 -5.98582e-23)
(-2.69416e-06 0.000284065 -6.16252e-22)
(-0.00380348 -0.00550421 0)
(-0.00619554 0.000579109 -4.3135e-21)
(0.000116745 -0.00276031 7.77225e-23)
(1.62887e-05 1.27373e-05 -3.07079e-23)
(0.00676025 -0.00277709 0)
(-0.00304701 -0.00459606 0)
(-0.000563391 6.54426e-05 -1.62163e-22)
(-0.00236058 -0.0201853 0)
(0.00038522 -0.00237768 0)
(-0.046031 0.0604323 1.56499e-21)
(0.000411747 0.000431045 3.68805e-22)
(2.26524e-05 1.65924e-05 2.31128e-22)
(-1.58584e-05 -3.0994e-05 0)
(1.81132e-05 9.55292e-06 1.36327e-22)
(1.10325e-05 -6.16636e-07 1.19688e-22)
(0.00187264 -0.0151581 0)
(0.000220354 -0.00371627 3.40539e-22)
(-0.0456552 -0.00626773 0)
(0.0166815 0.0291304 -1.28973e-21)
(0.00818552 0.0104221 0)
(-0.00374982 0.00707962 7.5106e-22)
(2.0707e-06 1.67369e-06 1.46224e-22)
(-0.00130014 0.00336527 -2.56599e-22)
(-0.0058482 -0.000550768 0)
(2.23561e-05 6.40997e-05 -1.37152e-22)
(0.00134933 -0.0103816 0)
(9.61069e-06 2.15051e-05 0)
(-0.022848 -0.0880562 0)
(-0.00433582 -0.0173929 7.7851e-22)
(1.34163e-05 -8.37818e-06 5.30462e-23)
(1.19424e-05 -1.21903e-06 1.60139e-24)
(-0.0295198 -0.0202578 5.03892e-21)
(-0.029725 -0.0789657 -1.58447e-22)
(-0.0352841 -0.0450631 9.9518e-21)
(0.000339937 0.000894707 3.81348e-22)
(5.90272e-05 0.000483966 0)
(-0.00538947 -0.000525171 2.09148e-23)
(1.35701e-05 5.69238e-06 -4.08361e-23)
(4.33554e-06 8.70236e-07 2.02916e-22)
(0.00858342 0.0348656 -3.36864e-22)
(-0.00321114 -0.00197019 1.95713e-22)
(-0.006924 2.05379e-05 -6.9687e-22)
(-0.00808195 0.00288161 4.99148e-22)
(-9.66451e-07 -1.02952e-07 9.93205e-23)
(1.93254e-05 -4.28673e-06 9.91583e-23)
(0.0501807 -0.00259143 1.11429e-21)
(-0.0225161 0.0310809 -2.1273e-22)
(1.7758e-05 -1.28361e-05 8.69802e-23)
(-2.04052e-05 0.000264534 0)
(0.0101325 -0.01083 0)
(-4.89682e-05 3.51733e-06 -3.05733e-22)
(-0.00763074 -0.0115194 1.15833e-22)
(-0.0026659 -0.00456823 6.00021e-25)
(1.8126e-05 -1.36147e-05 9.60026e-23)
(1.9659e-05 2.81333e-06 0)
(0.0102648 -0.00355171 0)
(-0.00525488 -0.00308129 0)
(0.0476328 -0.0386095 0)
(-0.00168804 -0.00361652 4.77647e-22)
(0.033941 0.0340348 -1.49803e-20)
(-0.0459526 -0.0366622 5.90476e-22)
(-0.00290355 0.0285198 -4.46886e-21)
(-0.000124464 5.33541e-05 7.21428e-22)
(-0.00305165 7.58323e-05 0)
(0.00886769 -0.00965699 -5.54506e-22)
(0.00480997 -0.0085453 0)
(2.93275e-05 1.22285e-05 -1.66957e-22)
(0.0540436 -0.048421 -4.05982e-21)
(-0.0292846 0.0165505 -3.13563e-22)
(0.00139681 -0.00959207 0)
(-0.00061917 -0.00197646 -1.43901e-23)
(-0.0066909 0.000127602 0)
(0.00218734 0.00100886 -1.5951e-21)
(-0.00390705 4.93186e-06 4.88622e-22)
(-0.0258686 -0.0178918 0)
(-0.000733649 -0.0141649 0)
(-0.00639615 -0.000436442 4.03078e-22)
(1.97036e-05 4.52685e-06 0)
(0.000430785 -0.00173859 -1.93016e-22)
(0.0089274 -0.00157188 1.57447e-21)
(0.0625218 0.113918 6.31899e-22)
(-0.00823378 0.00019688 -9.11803e-22)
(-0.00702102 -0.000171118 1.8275e-22)
(2.54763e-06 -1.44528e-05 1.67528e-22)
(-0.00104166 -0.00225021 -2.68013e-22)
(0.00551171 0.000158582 2.15938e-22)
(0.080215 0.117976 0)
(1.21456e-05 8.73577e-06 0)
(0.00160517 0.00926655 -1.80708e-21)
(-0.000105147 -0.00348432 5.97103e-22)
(0.0035007 -0.00113055 0)
(0.00575338 0.000274298 0)
(-0.00726769 0.00276003 1.29376e-22)
(0.00189775 -0.0209798 -2.66592e-22)
(2.23733e-05 1.32104e-05 1.21322e-22)
(-0.00370569 0.00192938 3.52999e-23)
(0.00126482 -0.000340626 -3.97465e-22)
(4.39203e-06 -1.87405e-06 6.51191e-23)
(1.257e-05 -9.90739e-06 3.31485e-23)
(-5.72514e-05 -3.0499e-05 0)
(-0.00689663 0.00884555 4.42419e-21)
(1.81413e-05 1.09098e-05 0)
(-0.0064336 -0.0442437 -3.35219e-23)
(0.000259557 0.000117716 0)
(-0.00372152 -0.00274921 -3.25016e-23)
(-0.0276211 -0.0428961 1.66488e-23)
(-0.0061498 -0.000567801 0)
(3.94554e-06 -2.94075e-06 6.24912e-25)
(0.0774684 -0.0080284 -2.0338e-21)
(-0.00191107 0.0009168 -5.61682e-22)
(0.00825674 0.0137183 -6.26795e-22)
(-0.00351905 0.00475174 0)
(-0.01226 -0.00990859 -8.06955e-22)
(-0.00544595 -0.000404682 -4.87864e-22)
(4.79926e-05 0.000154915 -3.05861e-22)
(-0.00240459 -0.000428049 9.8772e-22)
(1.87402e-05 9.88689e-06 -1.40472e-22)
(1.68421e-05 -1.9248e-05 0)
(-0.00298931 -0.0113268 -1.35167e-23)
(1.29882e-05 2.63501e-06 0)
(-0.0311968 -0.0278499 -1.01449e-21)
(-0.000511458 -0.000183734 0)
(0.0697794 -0.00504143 3.06188e-22)
(-4.81066e-05 -7.10596e-06 1.76668e-22)
(-0.00410455 -0.00208947 0)
(1.13596e-05 1.27781e-05 0)
(-0.00245017 0.199304 -4.20027e-21)
(1.79441e-05 -1.83111e-05 -2.01976e-23)
(-1.68529e-05 -3.98984e-05 1.58807e-22)
(0.00415008 -0.00724743 2.0722e-22)
(-0.0324326 -0.114896 -3.21353e-22)
(0.00913765 -0.00481037 0)
(-0.00790248 -0.00426682 -1.33294e-22)
(0.0272975 -0.0708925 1.05617e-21)
(-0.006032 -0.00183996 0)
(-0.0466245 -0.0202983 -1.06013e-21)
(9.47257e-06 -1.35841e-05 -7.19913e-23)
(0.00545867 0.000319005 -5.93902e-23)
(-0.00227765 0.00292839 -4.1032e-22)
(-0.00405968 -0.00239574 1.44603e-21)
(0.000355942 0.000575662 -5.83463e-22)
(1.29637e-05 3.5777e-06 0)
(-2.04251e-05 -3.57558e-05 -2.08169e-22)
(0.0103893 -0.0028069 -1.80094e-22)
(2.10287e-05 1.12679e-05 -2.54334e-22)
(-0.00311085 -0.0204516 0)
(9.84868e-06 4.732e-05 0)
(-0.00417012 -0.000856799 2.68401e-21)
(-0.00169848 -0.0110467 7.61147e-21)
(-0.00488192 -0.00263084 2.30964e-21)
(-0.00579812 -0.00263141 0)
(2.76786e-06 9.41541e-06 6.86133e-23)
(-0.00132993 -0.165822 -3.79142e-22)
(0.00420863 0.0265273 0)
(-0.0197637 -0.00824099 5.26681e-21)
(0.0415786 -0.0452095 -1.79687e-22)
(2.8489e-05 1.09506e-05 -9.59427e-23)
(-4.20026e-07 -1.522e-06 1.4307e-22)
(-0.00366474 -0.000112532 -1.79549e-21)
(0.00161139 -0.00300483 8.17406e-22)
(-0.00404389 -0.00223836 0)
(-0.0364187 -0.0499292 9.14294e-22)
(6.19979e-06 -1.12771e-06 9.32668e-24)
(-0.0062863 -0.000554192 0)
(4.22203e-06 -1.62723e-05 7.39382e-23)
(4.94192e-06 -2.01691e-07 1.48175e-22)
(-0.00427595 -3.89931e-05 0)
(4.23343e-06 -5.39388e-07 0)
(6.71572e-06 3.9535e-05 -2.9684e-22)
(0.120071 -0.0537682 -2.9244e-21)
(0.00189799 -0.00318485 0)
(-0.0917734 -0.0249064 -7.85182e-21)
(4.20319e-05 1.34979e-06 0)
(0.0122136 -0.0354116 -3.05136e-21)
(0.0248648 0.0512746 -1.73852e-21)
(-1.25061e-05 -3.15836e-05 -1.2285e-22)
(5.55548e-07 -4.28571e-06 3.46037e-24)
(-0.00542067 -0.0189116 -9.88223e-23)
(2.989e-05 2.62915e-05 -1.07354e-22)
(1.35533e-05 -7.39687e-06 5.64635e-23)
(1.37273e-06 3.40319e-06 1.14196e-22)
(0.0860566 0.0138288 -5.08262e-22)
(1.95775e-05 1.21331e-07 9.70226e-23)
(-0.00672818 0.0029075 1.08011e-22)
(1.48218e-05 3.82643e-07 0)
(1.28142e-05 -2.25415e-06 5.39271e-23)
(-0.00440864 0.000332642 5.32699e-22)
(0.0555335 -0.0176595 -2.28303e-22)
(1.4135e-05 -5.77108e-06 -5.15815e-23)
(-0.0053472 0.00458191 2.39336e-22)
(0.0264366 -0.0881636 3.51115e-21)
(-0.00705428 -6.10789e-05 -6.66555e-24)
(1.75361e-05 4.60217e-06 -1.03594e-22)
(1.93655e-05 7.72622e-06 -1.56178e-22)
(0.0168861 0.0135008 -1.02629e-20)
(-4.31072e-05 0.000265446 0)
(0.00151471 -0.154055 -6.71917e-22)
(5.84896e-06 8.73844e-06 -5.22853e-23)
(-1.1244e-05 8.46197e-05 4.22655e-22)
(8.4269e-07 -5.68289e-06 2.67195e-23)
(-0.000679535 0.000314271 8.38938e-24)
(2.40561e-05 1.87866e-05 -2.19508e-22)
(-0.000856786 -0.000289583 0)
(0.000701391 -0.00040773 -6.14765e-22)
(0.00336275 -0.000662849 1.15699e-23)
(9.98244e-06 1.40217e-05 1.12272e-22)
(4.46873e-06 -6.33067e-07 1.48208e-22)
(-0.0509063 -0.00913744 0)
(-0.00369167 -0.0162543 0)
(-0.00395575 0.00143542 7.8936e-23)
(-0.00360698 0.00637736 6.3061e-24)
(-0.00282715 -0.014832 -3.32408e-21)
(-0.00332972 0.00849153 2.88153e-22)
(0.0056899 0.000133854 6.89518e-23)
(1.9843e-05 9.8527e-06 9.65718e-23)
(0.039844 -0.0431513 0)
(0.0133795 -0.0110123 1.64511e-22)
(0.0578361 0.0468456 0)
(8.52946e-06 4.17881e-05 1.34572e-22)
(0.0597042 0.133718 1.26186e-21)
(1.13507e-05 5.0607e-05 0)
(2.21859e-05 1.55816e-05 2.46624e-22)
(1.71444e-05 7.59155e-06 0)
(-0.00785536 0.00303439 -6.28048e-22)
(1.61769e-05 -1.13778e-06 0)
(-1.4794e-05 8.81899e-06 0)
(-1.87745e-05 0.000412265 -4.40674e-22)
(-0.0515369 -0.0149535 7.31911e-22)
(-0.0297303 0.0627223 1.45315e-21)
(0.0030756 -0.00958527 1.70746e-22)
(-0.0841017 -0.0645579 2.25402e-21)
(-0.00375878 -0.0026651 0)
(0.000260939 2.23688e-07 0)
(-0.0272446 -0.0120909 9.58146e-21)
(0.0786551 0.00236934 -5.89311e-21)
(-0.0712777 -0.0378349 1.05266e-21)
(1.84887e-06 8.32268e-06 -1.41405e-22)
(2.18488e-05 6.72103e-05 4.41269e-22)
(0.03663 -0.0501023 -2.68424e-21)
(3.11444e-06 9.1647e-06 -1.02151e-22)
(0.0528982 -0.0372304 1.6208e-22)
(0.0029475 -0.000773923 0)
(9.27359e-06 1.77881e-07 0)
(-0.0355163 -0.0176693 7.37963e-22)
(0.0154274 -0.00321786 1.56062e-22)
(0.000134524 0.000274462 -1.42461e-22)
(0.000457271 -0.000784833 -3.07977e-22)
(1.23626e-05 -1.00628e-05 2.32644e-24)
(7.81962e-05 0.000143259 0)
(0.000139864 -6.29669e-05 3.23962e-22)
(1.41549e-05 -1.66897e-06 6.13688e-23)
(8.90185e-08 9.16209e-06 0)
(4.27929e-06 -2.5661e-07 2.18829e-23)
(1.22574e-05 9.87405e-06 0)
(-0.0233136 0.117019 -1.22568e-22)
(9.9387e-06 4.35028e-05 1.26496e-22)
(0.00495517 0.000314342 0)
(4.29373e-07 9.31722e-05 3.74336e-22)
(0.000546607 -0.000728294 3.47905e-22)
(0.014722 -0.00912306 1.68021e-22)
(-0.000145114 -4.58291e-05 -2.61686e-22)
(0.00102086 0.000590295 0)
(0.00697524 0.079082 -4.88876e-22)
(-0.0361717 -0.0112168 -7.25238e-22)
(1.48745e-05 1.6487e-06 6.19359e-23)
(1.64596e-05 1.21795e-05 0)
(1.166e-05 1.71455e-06 0)
(-0.000999584 0.00037437 -9.90219e-25)
(-0.0110956 -0.0144278 9.35543e-22)
(1.83599e-05 1.99113e-05 -5.03403e-23)
(2.70077e-06 2.5464e-05 -1.52267e-23)
(-0.00525838 -0.00570489 3.10537e-22)
(1.12136e-05 -1.07572e-05 -1.06996e-22)
(-0.00294433 -0.124401 -1.23911e-20)
(-0.0486015 -0.0266245 -3.71202e-21)
(0.00280532 -0.000950112 0)
(7.51885e-05 1.82353e-05 3.0781e-23)
(-0.00482194 0.0279919 4.33061e-21)
(-0.0429462 0.0300981 0)
(-0.00155687 -0.00399962 -1.55119e-21)
(2.26142e-06 -5.22728e-07 0)
(-0.00132013 -0.0296513 -2.41962e-22)
(8.47578e-05 2.19731e-05 1.38432e-24)
(-0.000902358 -0.00692185 0)
(0.00245504 -0.000942466 0)
(0.000822314 0.000303587 -2.52209e-22)
(-2.33082e-05 0.000400035 9.20703e-22)
(9.88315e-06 4.31357e-05 -1.21834e-22)
(2.9521e-05 6.62559e-05 1.57156e-22)
(1.18222e-05 -1.32737e-06 -1.35059e-22)
(0.00132379 0.000986362 -1.18092e-22)
(-0.00525285 -0.00391574 -6.09257e-22)
(-0.0260985 -0.0792504 0)
(-0.00406366 -0.000162005 0)
(1.72382e-05 5.35009e-06 1.56788e-23)
(-7.10246e-05 5.94906e-05 -2.44818e-22)
(-0.00464003 0.00202439 0)
(0.00735555 -6.66756e-05 -3.50071e-21)
(1.54559e-05 5.37412e-05 -2.39344e-24)
(-0.0444756 -0.110471 4.10572e-20)
(7.75076e-06 2.90287e-06 0)
(0.0229881 0.0105841 0)
(0.00342217 -0.000656802 -1.84619e-23)
(-0.0038684 -0.0501942 1.64878e-21)
(7.28678e-05 0.000125336 2.65017e-22)
(0.0197105 0.0258605 0)
(-0.00879282 0.00578581 0)
(7.48727e-07 1.33915e-06 1.03332e-22)
(0.000540429 0.000186168 9.02414e-24)
(-0.0233978 -0.0231716 0)
(4.9221e-06 5.73177e-06 0)
(0.00143273 0.000806572 -2.73939e-22)
(0.00478337 0.000393058 0)
(-6.94027e-05 -0.000108305 -1.61736e-22)
(0.000222365 0.000108914 3.87246e-22)
(0.0047531 -0.0189049 7.22685e-22)
(0.00565944 0.0031703 9.75937e-23)
(-6.65931e-05 7.09934e-05 4.0285e-22)
(-2.21095e-07 -1.08678e-05 2.7902e-22)
(0.0822109 0.0403665 2.17689e-21)
(-0.0864396 0.12191 3.19106e-22)
(-0.0749342 0.0751271 0)
(-0.000144628 -0.00165229 7.5824e-22)
(6.30944e-05 0.000233924 -6.05903e-22)
(1.09276e-05 9.70858e-06 5.94669e-24)
(0.0526717 -0.0569039 9.42786e-22)
(1.04542e-06 -1.85446e-05 2.17052e-22)
(8.45698e-06 4.77734e-08 3.06282e-23)
(-8.22196e-05 -9.57082e-05 3.67142e-24)
(-1.86116e-06 3.68756e-06 1.81545e-23)
(5.8594e-05 -2.89445e-05 7.41182e-23)
(8.08104e-05 -0.000442507 1.76303e-22)
(0.0673595 -0.0588325 -9.6486e-22)
(0.000602314 0.00122186 0)
(-0.0201627 0.0298631 1.75189e-22)
(1.85565e-05 -1.47396e-05 -1.90326e-22)
(-0.0190643 -0.0381776 0)
(-0.000115876 -1.64414e-05 -3.86077e-22)
(-0.00221361 0.000692482 2.17949e-22)
(-2.42125e-06 2.45786e-07 -1.33927e-22)
(0.0537361 -0.0432367 0)
(2.46526e-05 1.73123e-05 1.02114e-22)
(-0.00563811 -0.00038907 5.35831e-22)
(-2.38311e-05 0.000249569 2.19659e-22)
(0.00268974 -0.0145536 -1.40817e-21)
(-0.000980217 0.00286677 -1.69843e-22)
(0.00305067 0.000181068 0)
(-0.0168631 0.0126727 6.17673e-21)
(-0.00480367 -0.00244441 1.75859e-23)
(-0.0212716 -0.00596638 -5.16962e-21)
(0.0121288 -0.0395792 4.14819e-21)
(9.79927e-06 3.20645e-05 8.91175e-23)
(0.079431 0.0471335 3.97698e-21)
(-1.56414e-06 -6.6231e-06 3.47979e-23)
(7.13192e-05 0.000131249 -5.33169e-22)
(0.0291543 -0.0387339 7.24578e-22)
(1.95283e-05 4.94096e-05 0)
(1.89992e-05 1.81644e-05 -1.28995e-22)
(0.000503585 0.000478503 4.15407e-22)
(1.37016e-05 2.9763e-06 0)
(0.0999354 -0.0868304 0)
(4.66341e-06 4.04126e-06 1.21241e-22)
(4.77419e-06 5.40922e-07 3.07035e-24)
(-2.11687e-05 0.000229677 0)
(0.000329258 0.0046078 0)
(-5.43172e-05 7.16073e-05 -1.2451e-22)
(-0.00185569 -0.00485021 1.90181e-21)
(0.00023451 0.000125165 -2.03648e-22)
(-0.0027973 -0.00486285 0)
(-0.00233076 -0.00302729 0)
(3.36016e-06 4.0709e-06 0)
(1.84954e-05 -9.28048e-06 0)
(0.0697295 0.117537 -4.04858e-22)
(-0.00264048 -0.00553527 -8.85204e-22)
(6.97931e-05 -2.50315e-05 0)
(-7.77075e-06 0.000273212 5.28697e-22)
(1.80283e-05 -1.65864e-05 -1.92288e-22)
(-0.12973 0.0597662 1.48662e-20)
(0.00257009 0.000138667 0)
(0.000627072 -0.000409347 5.61239e-22)
(4.12187e-06 -1.31768e-05 -4.92937e-22)
(-5.12089e-07 -1.063e-05 8.25197e-23)
(5.36901e-05 -0.00039583 5.01359e-22)
(0.00578274 -0.00305064 9.77406e-23)
(1.44008e-05 9.45531e-06 1.48642e-22)
(-0.00354848 -7.82502e-05 6.82742e-24)
(-0.000513874 0.00541048 0)
(6.26371e-06 -6.00291e-07 0)
(-0.000649843 -0.000477998 1.75559e-22)
(-0.00468515 -0.00101121 -1.22013e-21)
(-0.0159862 -0.0299902 3.07922e-21)
(1.69216e-05 -1.58665e-05 -4.55624e-23)
(1.74669e-05 5.69093e-05 2.00148e-22)
(-0.00657042 -0.0207654 1.19409e-21)
(0.00355137 -0.000832986 2.18501e-21)
(-0.00285048 -0.171255 -1.66046e-22)
(-0.000514644 -0.00366152 -3.94547e-22)
(2.02759e-05 2.17657e-05 1.45776e-22)
(-0.0265052 -0.0678982 -1.28851e-21)
(-0.0141944 -0.00105726 9.67077e-22)
(-0.0476131 -0.10608 0)
(1.1565e-05 6.18907e-06 -5.44941e-24)
(4.01045e-05 0.000445073 0)
(0.00501121 0.000421702 0)
(0.00194768 -0.00071977 2.95906e-22)
(1.95612e-05 -1.01005e-05 -3.23883e-23)
(-0.000991479 0.00839955 -3.71667e-21)
(0.00417953 -0.000954487 -1.76308e-21)
(0.000863491 0.00477266 -1.41089e-22)
(-0.000834344 -0.000449238 0)
(-0.0352926 -0.0636587 -4.46868e-22)
(7.09595e-05 0.000405964 1.91995e-22)
(-0.000339346 0.000177602 0)
(1.4536e-05 1.20671e-05 -5.01841e-23)
(0.00418805 -0.0542308 2.61308e-22)
(0.000364915 0.000926513 0)
(0.0029751 -0.00225546 0)