/*--------------------------------*- C++ -*----------------------------------*\
| =========                 |                                                 |
| \\      /  F ield         | OpenFOAM: The Open Source CFD Toolbox           |
|  \\    /   O peration     | Version:  v2012                                 |
|   \\  /    A nd           | Website:  www.openfoam.com                      |
|    \\/     M anipulation  |                                                 |
\*---------------------------------------------------------------------------*/
FoamFile
{
    version     2.0;
    format      ascii;
    class       volScalarField;
    location    "400";
    object      ddt0(omega);
}
// * * * * * * * * * * * * * * * * * * * * * * * * * * * * * * * * * * * * * //

dimensions      [0 0 -2 0 0 0 0];


internalField   nonuniform List<scalar> 
27915
(
1.75148e-05
-3.97451e-06
0.00852384
-7.70442e-07
-1.95736e-06
2.44784e-05
1.00189e-06
0.00227522
1.20856e-06
-0.0364617
1.55551e-05
-0.122485
-0.0198553
9.64768e-07
4.57843e-05
-1.60333e-07
0.257914
-1.68599e-06
1.39407e-05
0.00212594
0.0262806
-4.39245e-06
-0.00156375
-1.76839e-06
-1.61412e-07
8.6753e-08
0.11841
-9.88548e-07
-0.0303373
9.70058e-06
-2.55071e-07
-2.83115e-05
-3.27648e-07
-2.22104e-07
0.0112971
-1.90631e-07
2.86452e-07
4.95046e-08
0.000818049
1.36492e-06
-2.10046e-06
1.54035e-07
0.0693263
8.44566e-08
-0.125728
1.74319e-06
-6.48131e-09
0.000256661
7.33853e-07
3.37882e-06
0.00785228
0.00100929
-0.296559
1.33916e-05
1.38921e-06
-5.28223e-08
2.34065e-07
-0.0052426
-0.00531338
-1.51086e-07
0.181693
5.86532e-05
-0.106458
0.107315
-1.63672e-08
0.000698966
-0.111547
0.00738816
0.010618
3.58724e-08
0.00393845
-1.86755e-06
-1.62798e-06
0.0433489
-0.0307816
0.0281494
7.84368e-06
-3.69293e-08
-0.00100018
0.00167391
2.38914e-05
3.62347e-07
2.48313e-05
-0.0251364
0.0646494
0.0209982
-2.07619e-07
0.0806454
0.0795236
0.000735842
4.13896e-06
0.122875
3.17294e-06
0.462431
-0.0348932
0.00834482
0.0337601
-0.0307889
4.85754e-05
-2.43929e-07
-1.52753e-05
6.84038e-08
-0.0290233
1.31209e-05
-4.90828e-05
-2.9591e-07
0.14777
-0.000951374
5.5926e-08
-0.00462158
0.0381388
-4.36054e-06
0.0454006
0.0158469
-0.000889521
0.00062265
0.121517
-1.3338e-05
8.59598e-06
5.4992e-07
3.8911e-06
0.0305007
-4.76058e-07
-5.4429e-06
-9.90423e-08
-0.00271685
0.0253831
-0.0113944
-1.21281e-06
-2.7367e-06
5.59408e-05
0.0915887
0.458015
0.124762
-0.0948633
-0.000343115
-0.317467
-1.00478e-07
-3.90783e-06
4.08438e-06
3.1907e-06
1.76582e-06
2.94184e-07
-0.0182008
0.0532857
0.0106758
-0.0105644
0.000217142
0.013526
2.81165e-05
0.151344
-9.22048e-08
0.0377264
0.542987
0.368834
0.00507377
-0.027582
-3.46013e-07
6.0795e-07
2.89222e-09
-0.0032632
-0.328922
1.01481e-06
-0.0123355
-0.0453348
-1.11265e-07
0.038209
-0.0972382
-0.0348429
5.61551e-07
4.26583e-06
-1.3856e-06
-1.59693e-07
0.000305751
8.52456e-07
-0.139029
-0.00259547
2.94884e-06
4.17871e-07
-0.806215
0.156217
-0.00178495
5.92272e-07
0.0123398
-0.000288372
-0.207201
3.34318e-07
5.76489e-07
-0.0054286
-2.16442e-07
0.00554878
-5.58543e-05
-0.046328
-1.99098e-06
6.96204e-07
-3.52425e-07
-0.179255
-0.0555675
-1.54746e-07
2.33388e-05
-0.289914
0.10158
-3.03951e-07
6.5512e-07
-0.0717848
-0.00647175
0.000272286
0.00187666
-1.64806
7.15973e-07
2.61747e-05
-0.152208
-4.67819e-07
3.69501e-08
-3.04899e-07
2.89139e-07
0.00140946
0.235692
-3.47579e-06
-1.07697e-06
-1.57284e-06
-0.000750588
3.21252e-06
5.37704e-07
0.0760801
0.177442
2.4338e-07
0.038089
-4.09894e-06
8.54662e-07
-0.015218
0.00228743
-0.163172
-0.096355
0.00849943
4.01972e-05
-0.0370758
6.36071e-07
4.78007e-07
1.26437e-06
0.0845242
-4.44662e-06
0.00326457
0.103657
-1.16917e-06
2.61399e-07
0.483764
0.0296343
-4.55077e-05
0.0194116
1.89831e-07
0.0159895
4.76828e-07
-1.23275e-07
-1.55598e-06
0.0241409
1.86061e-05
-1.4752e-06
8.67576e-05
0.151686
0.00104547
-0.00022611
-0.00314497
-0.0104804
-0.00271252
0.211005
2.14879e-07
0.000885296
0.0165266
0.0729575
7.93724e-06
0.0578069
0.110603
0.265377
-3.99389e-05
2.21837e-07
2.46587e-05
-3.04963e-06
3.8891e-07
-5.38016e-06
-3.21931e-06
-3.15455e-07
-6.60208e-08
0.00219732
-0.0485516
-0.00221544
0.221262
0.0524285
9.18386e-06
-0.0110539
0.0106801
-1.80001e-06
-0.0630494
3.08551e-07
2.0608e-05
-0.000145632
0.0197837
-0.104571
0.000165395
-8.63709e-08
-0.00575983
0.000622971
-3.69491e-07
-1.91518e-07
0.0212991
-0.137287
2.42452e-05
-4.05102e-07
0.0315011
-2.23249e-06
0.0625141
1.07907e-07
-0.0116276
-1.96557e-06
0.0742316
-5.2446e-08
-2.007e-07
-0.0132262
-0.000180274
-0.0112001
0.00719864
5.52223e-07
2.33015e-07
-1.37859e-06
-0.00189562
0.000515387
0.106202
-0.0226047
-5.55267e-07
-1.33303e-07
3.68602e-07
0.00898086
-1.71533e-06
-6.66179e-09
-0.0971905
5.45707e-07
-0.00786129
7.38873e-07
-0.0907819
0.294729
8.80344e-06
-0.0570803
0.00608392
-0.48329
6.86218e-07
5.77542e-05
1.04951e-07
0.0217452
-0.00405745
-1.88657e-06
-1.24416e-06
1.48883e-06
0.0173156
-0.00116666
0.000111099
-0.009605
0.000377524
-2.12301e-07
2.91822e-07
-0.0596422
0.000118773
-8.46478e-06
8.26174e-07
1.94689e-07
8.07239e-06
0.233785
-0.000123058
5.30157e-07
-3.64134e-07
-2.061e-08
0.00324414
7.06951e-07
0.000192909
3.80631e-07
0.012469
8.91949e-07
9.21681e-07
-0.000335072
-0.000190658
1.75956e-07
2.06636e-05
-0.000453374
8.92338e-05
0.142591
-0.0206853
8.7002e-05
0.178708
-0.000539679
4.17403e-06
0.00748749
6.27571e-08
0.014527
-0.00225405
2.81323e-07
-0.0411208
6.58691e-06
-0.000104078
-3.5148e-07
6.36471e-07
0.022318
4.8479e-07
6.07243e-05
-0.0570768
2.63235e-07
-0.0304166
-0.000279865
0.00171274
2.44282e-07
-0.0849199
0.000331897
0.00264049
-0.000251838
2.43475e-07
3.8867e-07
-0.219042
-1.75791e-06
-0.000652296
-1.82652e-05
3.58199e-05
-0.000582389
0.00711018
1.50885e-07
-9.75151e-06
-0.00352034
-0.0195751
-5.07492e-05
3.41298e-07
-0.1183
-0.00788426
2.48643e-06
-0.0156236
-3.1901e-05
0.275603
2.16035e-05
-3.13521e-07
1.52604e-06
-8.0006e-07
-5.92223e-07
0.00134222
-0.000505746
0.073227
0.00610448
0.000194588
0.000321617
2.14245e-07
-0.000879112
-0.0270946
3.3319e-07
0.043532
6.98233e-07
0.0284853
-0.0258975
7.51512e-08
-1.02357e-06
0.0250096
0.0622484
0.0184145
2.42507e-05
1.45782e-05
-0.0381027
2.2389e-07
2.73519e-07
0.171758
-0.000330707
-0.0168169
0.0249188
-2.35623e-07
2.22321e-07
0.139179
-0.00446943
7.5643e-08
-1.22912e-05
0.0034919
-8.13696e-07
-0.0043561
2.47901e-05
1.22152e-07
3.32066e-07
-0.000269976
0.000211037
0.108251
0.000106296
-0.974687
-0.016917
-0.16041
-6.17573e-06
7.55064e-05
0.000995185
-0.00139345
-4.4576e-07
0.188282
0.011767
0.00562818
-4.70005e-05
0.00838842
2.45356e-05
9.60234e-07
0.0117586
-0.0159521
-0.0123128
3.61718e-07
-1.3151e-05
-0.0144189
0.218276
0.0248976
-0.0157857
-8.48843e-07
-4.76369e-05
0.0229823
0.186927
-4.22498e-07
0.000279204
-0.00047388
0.0447195
0.00379181
0.0559718
0.00705264
2.38507e-07
0.000188311
2.44577e-05
4.04197e-07
5.24393e-08
8.86836e-07
0.0106138
4.7464e-07
-0.0742821
1.22898e-05
0.00860316
-0.00358465
-0.0107072
-2.9439e-07
0.238785
0.00985781
0.000421791
0.000133761
-0.0093858
0.00664384
-4.80287e-06
4.40702e-05
-7.78905e-07
-4.40549e-07
0.00128231
3.26728e-08
-0.0103645
4.78051e-06
-0.0346621
-3.72975e-07
0.00602416
4.05615e-07
0.00573389
-2.61286e-07
-7.18348e-07
-0.000239311
0.066163
-0.000499381
-0.00080318
-0.0993058
-0.0043075
-0.0148085
-7.05665e-07
0.00248838
-0.0330957
-0.000249677
2.52214e-05
4.14098e-08
-1.04831e-06
-0.0566522
3.6233e-07
-0.0156877
-3.57076e-07
-9.50094e-06
-0.0732626
0.000199147
-0.00062984
-1.69044e-07
0.0184671
0.033952
-0.16094
0.138361
-3.31089e-07
3.4883e-08
4.27537e-05
1.57826e-05
0.007378
-0.0184189
3.20625e-07
-0.00820361
-1.55598e-07
-4.73841e-08
-0.0119848
6.1419e-07
-1.31726e-07
-0.560384
9.88905e-06
-0.0280853
2.93126e-07
-0.152655
0.0662125
1.69139e-06
-1.81832e-07
-0.0274378
-1.5328e-06
1.64014e-07
-3.14172e-07
-0.305982
3.02566e-07
0.069166
3.23961e-06
-3.27127e-08
-0.0104366
-0.478854
1.89029e-07
0.110874
-0.474417
-0.0417821
-1.75776e-06
4.20564e-07
0.00807502
-1.59092e-05
-0.017569
-1.34941e-07
-5.27852e-06
-1.77092e-07
-6.49475e-06
-1.82908e-06
5.94174e-06
2.53173e-05
9.53433e-05
3.36854e-07
1.95492e-07
-0.0210438
-0.0300946
-0.000495823
0.000355532
-0.077971
0.00333734
0.0152561
4.13274e-07
0.0921834
0.00649285
0.611262
4.41544e-08
0.195078
-2.73255e-07
-2.25699e-07
3.00847e-07
0.0314636
4.79208e-07
7.84627e-07
-2.52522e-06
-0.0227887
0.275678
0.105127
-0.462157
0.00735941
1.77785e-06
0.13325
-0.0423607
-0.920583
1.54407e-07
1.28976e-07
-0.038987
-2.40297e-07
-0.544564
-0.000292439
6.07567e-07
0.00711158
-0.000665007
3.81065e-06
2.82585e-05
7.08354e-09
-4.45383e-06
3.95137e-06
-6.10305e-08
5.64839e-08
6.40481e-07
-3.08555e-07
-0.00165439
2.15446e-07
0.0169597
-5.25291e-06
3.15457e-05
0.00870279
1.56124e-06
3.90067e-05
0.953153
0.00301818
5.40718e-08
-1.05306e-06
-1.48957e-07
3.83403e-05
-0.0636804
-1.98336e-07
-1.53186e-07
0.000581628
-3.87507e-09
-0.163438
0.05213
0.0675461
1.27186e-07
-0.107762
0.0903509
0.000109555
-4.30722e-07
-0.0085939
-6.49886e-08
0.0164595
-4.58482e-05
2.44257e-05
-5.51818e-06
2.30449e-07
9.4424e-07
-2.47043e-07
-0.000451012
0.00743333
0.00551899
0.000107837
2.66181e-07
-2.02977e-06
-0.0307529
0.0431248
3.09e-07
0.147002
6.52334e-07
0.520458
-0.000148669
-0.525089
2.02821e-06
0.00473611
-0.00287956
4.7828e-08
-0.000307351
-0.779578
-2.01258e-07
-0.000451823
0.00492351
2.95884e-06
1.02495e-05
-0.00663606
0.163317
-6.0281e-06
-3.12498e-07
-0.252932
0.562721
0.352413
-0.000313286
2.77939e-06
3.16209e-08
-0.118077
-7.03038e-07
-4.73981e-07
2.85517e-06
-1.69475e-07
1.28219e-06
1.29988e-05
-0.254858
8.26815e-05
-0.0054293
-5.77511e-08
0.0227893
8.35234e-07
0.00723128
-4.48362e-07
0.377981
-1.64943e-06
0.00792729
-1.2861e-05
0.00786927
0.268219
0.118506
0.00155234
-4.73487e-05
-0.116912
-0.200221
3.54507e-07
-0.212805
-2.58572e-07
1.84397e-06
-0.00704818
8.49679e-07
-4.78747e-07
2.49457e-05
5.44597e-08
0.0195519
-2.61092e-07
6.11529e-07
-9.72717e-06
0.000194644
-2.38808e-06
9.67809e-05
1.02294e-05
-0.00679405
-0.00315035
1.175e-07
1.48863e-07
0.218877
-0.000348825
1.05318e-06
-1.14244e-05
-2.15596e-07
0.0864371
0.178591
2.48134e-05
-1.56974e-06
-3.30276e-07
1.26429e-05
-0.106498
-4.00397e-07
-0.00038661
-6.88675e-06
5.0264e-07
4.07092e-06
-0.0273642
-0.634452
1.2936e-09
3.49491e-07
-0.0237894
0.0532286
0.0408408
-0.000490253
-1.68074e-07
-1.07444
0.000665873
0.159537
-4.94707e-07
-0.000152681
-6.49736e-05
-3.2333e-05
5.48179e-07
-0.0313986
0.0381061
0.00141128
4.66663e-06
-0.00382257
-0.000145611
1.1262e-05
-3.49028e-07
-0.697634
-3.40171e-05
-0.000431142
-0.110367
-6.15225e-06
-0.0317019
0.191776
-0.145766
-0.228725
-0.0563434
-5.07111e-06
9.06025e-07
-3.94574e-05
0.0657904
-0.0114656
1.37939e-07
0.786583
4.50954e-07
-2.12779e-07
0.701046
3.87614e-07
-0.000582094
7.74307e-08
-0.00632619
3.51705e-05
4.2717e-07
6.02592e-07
-0.00599003
0.0716919
0.000194866
0.00382874
-0.624865
-0.143908
-0.000261522
1.14313e-05
3.33135e-07
4.37843e-07
1.90481e-05
0.29206
-0.245864
1.94055e-07
5.91705e-05
3.91009e-06
0.040792
-0.0250424
-0.0449003
-2.96532e-07
0.000113442
2.01388e-05
2.4073e-07
-1.66333e-07
0.160105
0.00574601
-0.00614004
2.47918e-05
-0.000417115
-0.0104859
0.000676683
-0.0435221
5.20941e-08
1.72445e-06
-5.80864e-05
3.09651e-06
-0.000149823
2.66257
7.52427e-05
3.64628e-06
0.0001135
0.294809
-2.00469e-08
-1.46221e-08
3.99162e-09
-0.0903129
4.34916e-07
0.694976
-4.75806e-07
-1.22601
-0.000420609
5.63537e-07
-6.94046e-07
0.019331
1.47382e-05
0.183796
2.14297e-07
1.23701e-06
-0.000135176
-0.00412732
0.981579
-2.10992e-06
4.40423e-07
1.05269e-06
0.000854503
-1.87084e-07
0.0678083
-2.69813e-08
4.14702e-06
1.4057e-06
0.0370718
0.00375577
0.970486
9.89676e-06
-0.125437
2.84016e-06
-4.99586e-09
5.1657e-07
3.76398e-05
3.80573e-06
0.15321
-2.68768e-05
0.081747
-2.7946e-07
1.55285e-06
6.20781e-07
5.0911e-07
-5.71322e-07
-0.174706
-1.11991e-07
-2.04766e-07
-0.014854
0.158252
-1.05135e-07
2.00657e-05
1.57694e-06
0.619556
-2.00064e-05
-0.00571934
-7.19998e-05
-0.0850892
-0.000270742
3.39472e-07
3.79269e-06
-5.09106e-05
-0.0227324
0.0320814
4.118e-08
0.0835751
-0.261097
-0.0260061
1.36776e-05
5.08664e-06
3.14481e-06
-0.000228535
1.84447e-05
-5.73818e-06
-0.104634
1.9183e-07
-1.46568e-05
-0.00497133
1.02115e-05
-6.20518e-06
-0.0298433
0.0824019
0.203207
-0.0223627
0.0283401
3.48477e-07
0.12403
-0.0362181
-0.486576
3.04619e-05
0.00697003
-0.0350808
-0.0909352
-0.157112
1.83735e-05
-0.00098474
-0.342833
-1.19507e-06
2.51275e-05
2.40788e-05
1.08123e-05
0.0980928
2.94103e-05
6.15364e-07
3.58016e-06
-0.0647917
-1.22548e-07
-4.5623e-07
0.0278659
-0.000599623
5.16447e-07
0.0218513
5.09435e-07
-0.000266813
1.42257e-07
-0.112471
0.000263988
0.243933
5.98417e-06
0.000189339
3.24259e-06
0.00216297
-1.70632e-06
-3.62862e-07
9.32877e-07
-1.77902e-07
4.89288e-05
0.0137157
-0.01215
-0.000925409
-0.0445543
-6.90097e-07
0.0159208
-0.115666
-1.82019e-07
-1.34002e-06
0.064839
7.94318e-08
0.00350617
-6.84443e-07
2.17233e-05
8.15988e-08
-0.00487058
0.000750605
3.26774e-06
1.32799e-05
0.0546405
-2.68019e-06
-9.10201e-08
2.74511e-07
-0.000427315
0.0104241
-7.85384e-06
0.0708811
-6.66622e-08
-1.83704e-07
4.21792e-07
4.37369e-07
1.2028e-05
-5.94728e-07
-4.0587e-06
1.1388e-06
-2.59518e-07
-3.19833e-07
-1.87747e-07
0.000109213
2.40171e-05
0.12093
3.09007e-05
-0.0432203
0.0160568
-0.000144306
0.000303146
8.8227e-07
-0.125939
-0.0357571
-1.68024e-05
4.66596e-06
-4.99524e-05
-0.00068463
-0.0860198
-8.59796e-05
0.0379454
-0.173948
-1.3147e-06
-0.294074
5.14052e-05
0.544611
-2.74911e-06
-0.000842247
-1.90805e-06
-0.120261
-2.89242e-08
-2.52662e-05
0.908056
2.13153e-07
0.450655
0.000100721
-0.00124446
6.95603e-07
-1.41764e-05
-0.000321213
-0.02506
-1.66486e-05
-1.63543e-07
0.0843572
-3.92489e-05
-6.35405e-06
-6.31593e-08
-0.000181088
6.20835e-06
-0.00012631
-1.51705e-08
0.00561119
-0.000281304
-0.000309394
-0.00227279
-0.196235
-1.21068e-07
0.124909
-5.50059e-07
7.63885e-07
-5.51743e-08
0.0107675
1.35552e-07
-5.85091e-06
5.94328e-05
-5.76417e-06
0.0498556
0.0329051
7.0011e-08
2.06203e-07
-3.26359e-07
0.000167183
2.22525e-08
0.0175491
2.87219e-07
0.000136918
8.99507e-08
0.000171597
4.24595e-07
0.0125625
0.0928636
0.0950685
-0.004095
0.130186
-8.42337e-06
0.00843633
0.172437
0.0606879
1.85516e-05
-0.00017672
6.58983e-07
-0.118992
-3.82411e-06
-3.04876e-07
0.000623474
3.25963e-05
3.66519e-05
-0.0214349
4.73282e-07
-0.218854
-8.78527e-05
-0.00297888
-0.128817
-4.77272e-07
0.213278
0.00431886
1.41018e-06
-1.32415e-05
6.50917e-05
-5.21072e-07
2.5688e-07
-0.00170842
0.16586
-0.07209
8.53634e-07
0.131541
-1.12045e-06
0.00930485
-1.31765
-0.0236741
-0.715776
0.0283454
0.000811826
0.016015
-0.065375
-0.005577
-0.00620023
-0.160318
2.72098e-09
7.34478e-07
-0.172031
-0.000664826
5.17068e-07
4.14954e-07
-3.19595e-07
1.55961e-06
-0.1491
-2.58497e-05
0.115334
-0.280324
2.85234e-06
-7.67756e-06
1.64395e-06
-1.43575e-07
-0.00322866
-1.00874e-05
0.00101494
-2.59417e-07
-2.7472e-07
2.73575e-05
-0.000226338
0.200231
-5.39195e-05
0.00824556
-1.40406e-08
3.58705e-05
-0.0898543
-2.04622e-06
-0.00253625
-0.00266599
0.000620602
-0.00681353
-0.0533458
1.40644e-06
5.37433e-08
-0.000182392
-2.17752e-07
2.03313e-07
-0.000379461
-0.0109679
4.69428e-07
-1.07638e-06
-4.35659e-06
4.49513e-07
0.0435477
5.97808e-05
0.000319183
0.0821164
-4.14627e-05
-0.000356996
-0.0200964
-0.0209427
1.85504e-06
1.01258e-05
-0.000141745
1.97335e-07
5.82036e-07
-0.00731284
-9.79705e-06
-6.33216e-08
-0.959299
-7.07454e-08
0.0471032
5.2706e-07
3.25446e-06
-5.7849e-07
0.000328584
-0.0421641
8.8664e-08
0.0625193
0.245881
-6.11399e-07
-0.000268548
-0.00259397
0.0159638
1.08765e-06
-6.93015e-06
-0.000401664
-0.00996353
0.0336819
0.00010644
3.03377e-06
1.1105e-06
0.0363325
0.230104
0.00583738
-0.000427478
0.146487
2.65092e-07
-0.0357344
-0.00246299
-0.000453565
8.45698e-05
2.2374
5.28692e-08
-0.106498
9.20248e-06
-6.90669e-06
-0.00269494
-0.00336724
1.9713e-07
0.362523
5.65907e-07
-3.77129e-05
4.43677e-06
-0.0662249
2.3453e-07
0.000460211
0.380839
-5.9787e-08
4.63469e-06
-0.00530823
-0.0084716
-0.0831791
0.0465308
-0.000994872
1.2706e-05
5.33758e-05
0.124279
-2.87247e-06
1.47511e-08
6.16557e-06
-0.0426805
0.00734489
-0.745656
0.00433896
6.49121e-08
-3.39896e-07
2.84131e-06
-2.74003e-07
-0.00063283
-0.00168627
-0.00048037
9.46901e-05
-3.53748e-08
0.067496
-3.96852e-07
0.11683
-0.0540434
-0.000385089
-1.51535e-06
7.73058e-07
0.0223818
3.49185e-06
9.20041e-05
1.98941e-05
-0.000212277
-5.83932e-08
0.135307
-0.000495995
5.8781e-07
0.000160959
0.275143
-0.000222445
-0.124571
-8.43222e-06
0.00886673
-0.00347853
-1.61219e-07
-4.20957e-06
-1.0138e-06
0.133093
-0.887757
-0.000263194
0.112407
-0.108262
-2.38874e-07
5.31675e-07
5.7047e-06
-4.68868e-06
0.00664614
0.285811
2.3898e-06
0.000329044
6.3478e-05
2.35111e-05
4.25986e-07
6.97175e-06
-0.00883432
-3.86518e-07
3.6057e-06
-3.22297e-05
-6.38509e-07
2.05552e-06
6.01434e-07
-0.000574129
3.88296e-07
-0.094244
-0.000401005
2.89922e-05
1.78534e-06
6.65848e-05
-1.89604
4.83855e-08
0.0051558
-0.0017692
0.373733
0.00103623
0.38893
0.173756
3.19375e-08
0.131518
0.036066
6.57736e-07
-1.07023e-05
0.186129
-0.000257879
-0.00995359
-8.74537e-08
1.23543e-06
0.0587677
-2.1706e-06
-0.00014378
0.307859
0.000185281
-0.0922852
1.7567e-07
-0.000299293
0.010845
7.77964e-05
-0.163078
0.134376
-0.0896201
-0.001105
-0.006771
7.67871e-05
-0.0597235
0.00304296
-1.56321
0.226816
-0.0315274
-0.00425859
-2.19187e-07
0.00136498
1.04018e-05
-0.00916654
-0.000355047
-0.0129637
2.88549e-07
-0.0162787
5.69377e-07
3.72094e-06
5.87834e-05
-0.000131662
1.41019e-05
4.95659e-07
-2.69922e-06
1.08261e-06
0.151241
-1.01473e-05
0.0380997
4.0681e-06
0.163312
1.35437e-06
-1.36348e-07
-0.110604
-2.59961e-06
-0.108428
0.000545095
-1.48549e-05
-0.82175
0.000160929
0.540482
2.41053e-05
-0.0917918
4.43011e-05
-5.67815e-07
-2.28809e-07
2.75889e-05
-1.93805
0.0586936
0.00560004
-3.92528e-07
-6.66881e-08
0.444673
4.31706e-06
0.00138004
-1.8191e-07
1.81988e-05
-6.1956e-07
-3.18286e-05
0.0235434
-1.96752
-4.00581e-07
-1.4593e-06
0.10903
5.56678e-07
0.0155034
0.0440399
4.89319e-05
0.00882211
2.52855e-05
-3.2351e-05
0.0187492
-0.000133158
-0.207655
0.000415752
7.07171e-05
0.225212
0.0746651
1.04045e-06
4.98997e-07
6.08944e-07
-3.31431e-07
0.000137485
-0.0221119
0.123592
7.34455e-07
1.08205e-06
-1.4712e-06
-3.22717e-05
4.50979e-06
1.93279e-05
0.316944
-1.41585e-05
5.47035e-07
-0.0211788
-0.11065
0.00302966
0.141629
0.143058
-2.94888e-07
0.159529
0.00980997
0.00404959
-0.0149236
-4.54786e-06
-0.00697774
-0.000512537
-1.22906e-07
-0.205445
-0.387046
4.72e-08
-0.046007
2.84074e-07
4.19533e-07
-0.0152016
0.000132779
0.17129
0.118125
-2.07552e-06
-0.00152321
-0.000206895
5.64522e-07
-0.00841066
-0.132502
5.36792e-07
1.41297e-07
-3.44602e-07
-5.34286e-07
6.49802e-07
-0.0820585
-7.83166e-06
-1.42278e-07
0.000879444
-0.00720377
0.0827604
0.00121932
7.6973e-05
-0.00487839
0.00130566
-0.0126336
2.86073e-07
8.27734e-07
-3.63748e-07
-3.56685e-07
-0.000652309
-7.57575e-05
-8.46859e-09
-5.2771e-05
-0.0159671
4.69635e-06
6.26889e-07
1.46696e-05
-3.10048e-07
0.0264632
-0.0193995
8.24418e-06
-6.63167e-07
-3.45552e-07
-2.44361e-06
-2.56549e-05
-2.41328e-07
4.17887e-06
1.22462e-06
-0.0516005
-1.80719e-07
0.0891439
-5.69034e-07
-0.168105
6.15545e-06
-1.42164
-0.0722067
-0.670367
-0.00853617
-0.105486
0.000205572
-0.14884
0.0602513
-0.000317344
2.42982
-0.000219661
-0.098996
0.0101558
0.0931239
-2.81252e-07
-0.0216818
-3.85399e-07
0.0962139
0.0199117
-0.00172999
5.39322e-06
8.17117e-08
2.99614e-06
-1.32904e-05
-1.84005
-0.0684831
-1.67862e-05
-0.124753
-0.00858375
-0.0358786
-2.15159e-07
0.00083171
-0.000258123
-0.000184081
-0.00741329
0.00577149
0.00102437
9.49909e-07
0.00141053
0.000951753
-0.00354853
-1.34497e-06
-5.44959e-07
4.63933e-07
0.027732
-0.0733814
4.92482e-07
-1.42027e-06
0.000130182
-2.63682e-07
-2.06249
0.0057674
-0.000100112
0.800749
-5.86993e-07
0.00184852
0.90657
0.143595
1.04185e-06
0.00013632
0.239924
-0.135357
5.0014e-07
-0.11399
-0.114784
7.39143e-06
4.47379e-05
0.159748
-0.00028537
0.00501658
0.193037
9.12149e-08
-4.5484e-07
1.33204e-05
-6.43668e-08
4.07868e-07
7.32491e-06
0.000255041
1.96868e-06
1.56697e-07
2.66457e-07
-2.75164e-05
-8.81052e-07
-0.0042035
2.17029e-07
0.00894995
6.66634e-06
0.00111222
-7.87091e-07
1.17012e-05
0.0550556
-2.60534e-05
5.63008e-07
-1.63978e-05
2.63395e-05
7.93941e-05
-0.183606
-0.203892
0.00777927
-0.13291
0.182798
-0.0562472
0.0548685
-0.000134804
4.70229e-05
3.69644e-07
6.12679e-07
-0.00398157
-1.36735e-06
-6.29705e-07
8.34083e-07
-2.62658e-07
-4.11297e-08
1.9316e-06
3.35797e-06
3.17535e-05
-0.00173531
0.000101637
-3.42864e-06
-2.10804e-06
9.88314e-06
-0.0334426
-0.000372319
0.000111407
-0.000431926
-8.74564e-07
0.0231748
-2.95789e-07
-4.80633e-05
2.5403e-06
-8.10263e-06
-1.08946e-07
-0.0141476
-0.0364984
-7.56678e-05
6.76618e-07
8.10653e-06
0.097318
1.6451e-07
0.000335819
1.38514e-05
-0.00158103
-0.118918
-0.000387531
-0.000179517
-0.000192166
-1.21682e-06
-0.0477851
9.98326e-05
0.170115
3.35938e-05
0.111121
-0.253446
-0.145722
1.28307e-07
-2.8968e-06
3.45962e-07
0.159729
3.96087e-09
0.00160601
-7.02285e-05
-1.90768e-08
0.0780659
0.0478671
7.75956e-07
1.51422e-06
0.105052
-1.31914
-0.0165886
-2.17886e-05
-0.185934
-2.03116e-07
0.0722578
-0.000581268
2.95962e-05
-3.37446e-05
0.00238664
-1.29213e-06
-0.0135598
1.73267e-06
1.37944
0.00486867
0.0571879
3.93462e-06
-6.75776e-05
1.56554e-06
3.09549e-07
5.67048e-07
8.14643e-05
-1.30957e-06
0.00471878
0.000124256
-3.59506e-07
1.65403e-06
0.0125338
6.71154e-07
1.29518
0.574717
0.00334528
0.0631129
-0.000692645
-0.00176283
-1.1567e-05
-3.25747e-05
6.05113e-07
0.081883
0.127501
-0.0438023
0.0718049
-0.10683
0.000240399
-0.0532861
-3.18233e-07
0.0312475
0.260025
0.0043614
-7.36387e-08
-0.251845
0.042618
0.0058955
8.8915e-06
-7.14916e-05
-0.0273465
1.22896e-07
-0.0373255
4.24199e-06
0.00067408
3.07648e-07
4.23653e-05
2.36713e-07
1.42925e-07
-3.57254e-07
2.58539e-05
1.29889e-08
0.102915
9.50823e-07
-3.06612e-07
-0.0168544
-1.17208e-07
2.48985e-05
3.57012e-05
3.07729e-06
-0.162431
-2.03702e-05
-5.60867e-06
-3.66e-08
-2.42114e-07
-0.0140304
-4.35368e-07
7.69549e-07
-0.00015531
-0.148229
1.20562e-06
-0.000569613
3.06604e-07
-0.000592247
1.30175e-05
-8.60793e-07
0.159899
0.000215618
-0.00492971
9.17972e-07
-0.000503051
-1.93236e-06
0.00762407
0.00320643
2.16334e-08
-0.313546
0.0222269
-3.17043e-07
-0.0500759
1.02684e-05
5.40475e-07
-0.000226689
2.60522e-05
1.64396e-07
8.2239e-06
-0.000352103
3.93024e-06
0.000139372
8.6519e-05
-0.000421256
-1.943e-07
0.000364572
6.75201e-05
0.0113516
-0.00121997
-4.66127e-07
1.38679
1.99976e-07
2.58509e-07
0.000231537
0.0729718
-0.0629082
0.000176811
-0.0550072
0.000967266
1.34166e-05
5.55007e-06
-0.000462315
0.203833
-2.11047e-05
-0.00153881
-7.92704e-06
1.14616e-07
0.0481777
-0.000335862
-0.000784006
-7.82676e-05
-0.000728926
-1.57162e-07
0.00192035
-2.61135e-07
0.000707372
0.0757809
-0.0293888
6.89779e-06
-2.27678e-05
-0.00846128
1.07588e-05
-0.0345871
-0.023957
-1.68379e-07
-0.00113102
0.0164258
8.24077e-06
-0.217406
7.1853e-06
-0.168483
-0.782793
-1.35542e-06
0.0014195
3.44191e-06
2.39068e-07
2.47707e-05
-5.60886e-05
1.05315e-07
-3.72925e-07
-0.000566109
1.04457e-06
-0.0307048
-0.00862945
1.07283e-06
0.0784733
-1.63649e-07
-5.37088e-06
-2.44974e-07
-8.0718e-08
-8.17774e-05
1.32127e-05
-0.000973144
-2.6354e-07
6.44818e-08
-0.000173799
0.00222313
6.63034e-05
-0.0416359
-0.581627
-0.00671228
2.5232e-05
3.9306e-06
0.0367927
1.62617e-05
1.83636e-06
-1.06529
0.000402102
-6.54465e-06
2.87514e-05
-9.3182e-07
0.0326769
5.98281e-05
1.37023e-07
0.0125912
0.16292
2.12145e-07
-1.79234e-07
-0.0793383
0.284339
4.54082e-07
-9.41617e-07
0.0200179
-0.000374855
0.0170588
-1.1814e-07
-0.505822
-1.90755e-05
2.11184e-05
-0.0256169
-0.0555121
1.45456e-05
-0.0967766
5.12781e-07
-0.0702823
2.50984e-06
0.0110767
0.113298
5.55821e-08
0.0132037
-1.44833e-05
-6.35641e-07
0.00190525
-0.137654
0.409809
-0.0323318
8.63432e-07
-0.000220521
-0.000213749
0.00043679
3.85806e-06
6.34017e-05
2.39054e-05
-0.0337961
-0.0312872
0.364212
0.00534686
1.10573e-05
-0.000433506
-0.00540498
5.21662e-06
1.03107e-08
-3.02835e-05
-0.0167816
0.000319831
0.0273357
0.901237
-0.0290384
1.37079e-05
-1.95269
-0.000164761
-0.000355062
-0.0266689
-0.0798054
0.358107
-0.000718777
6.06765e-07
0.00818594
-1.48208e-07
0.0774103
1.55171e-06
8.07672e-07
8.85271e-06
0.0778064
0.474556
-0.00668619
-4.71978e-05
0.083642
6.77489e-07
7.4256e-05
-2.75837e-07
-0.000449083
0.0447913
-0.00539141
-0.153832
0.0221213
-0.116174
0.113591
-2.83744e-06
-0.0191723
1.90797e-07
0.007543
0.0426886
8.94309e-06
4.46193e-05
0.192301
0.000252189
1.58658e-07
7.65306e-07
-0.00520316
-1.18062e-07
8.12895e-07
-0.000912117
-0.00252019
1.44476e-07
-0.000289488
0.000623459
-0.078802
1.02625
2.23081e-06
-2.28992e-06
0.0731143
6.40125e-07
0.0305798
7.86151e-05
-0.000502246
-3.51088e-05
3.63034e-05
-2.41322e-06
-1.61968e-07
-0.0752346
4.28441e-05
2.57735e-05
3.27159e-06
0.0513803
0.00145405
0.391213
-0.034098
1.24535e-06
0.124187
9.02106e-07
-6.3463e-07
-3.59515e-05
-0.083621
-1.06952e-06
-1.60001e-06
-0.00022267
-0.000127511
-0.0302309
2.01755e-05
-0.046742
0.115188
-1.14421e-06
0.0936475
2.17969e-05
-0.000883097
0.0249254
1.36435
6.67465e-07
0.32117
0.881463
0.0513147
-0.0356155
-0.729479
6.86656e-06
1.24494
0.0181371
0.0104013
-0.000161351
3.57776e-05
5.96525e-07
-0.000551
3.85573e-07
0.00917086
4.39455e-05
-2.82514e-07
-1.88696e-05
-0.00213893
0.0305688
-2.65367e-05
-0.0116602
-0.000395796
-0.0150239
-0.128119
0.0850823
2.63583e-05
-0.0229478
-1.18233e-07
-0.0261033
-0.000362014
0.0287948
2.66613e-07
-0.000198643
2.43692e-07
1.39853
0.00180498
-0.170239
-0.00110249
1.17636
0.00015735
0.114861
7.31555e-07
-0.327331
0.0821192
2.91745e-07
-7.1974e-05
-0.130625
2.76449e-05
-1.87264e-07
-0.000164247
-0.0129871
2.76828e-07
2.32646e-08
-3.68601e-07
-0.0136329
2.52891e-05
-0.000316871
-0.00313888
-6.49394e-05
0.000649597
1.84675e-07
-3.42671e-06
2.78256e-06
0.40392
0.407533
2.62208e-07
3.71611e-06
9.57018e-07
-0.000147449
-3.53142e-06
-0.0822701
-1.4337e-05
0.0791209
0.22205
4.05203e-06
0.000690408
0.00702082
-2.72851e-07
-6.98554e-08
-0.000206568
-0.0495895
-1.14949e-06
0.00250763
0.0573506
-1.51692
-0.302163
0.00591386
-0.000153692
3.5711e-06
-0.0766471
-3.10285e-07
-0.000239544
7.97555e-07
-0.0339256
2.95175e-07
0.0102223
-1.75884e-06
-1.0275
7.07745e-07
-0.807828
-1.44436e-07
7.64847e-07
1.52963e-05
3.60851e-06
1.20001e-06
2.43999e-05
0.0096683
-3.07304e-07
-0.0309938
1.36378e-06
0.0155533
0.60081
0.0504627
0.895089
-7.54808e-08
-7.89617e-06
-0.00565792
0.00629023
-8.7799e-07
9.55362e-05
3.22803e-05
0.480216
-4.11485e-07
-0.0777623
-0.000485979
1.54079e-06
0.0785424
0.0355971
-3.54159e-06
0.105369
6.38152e-05
0.0050964
-0.0533435
-3.62534e-07
-1.00374e-05
-0.0119639
-6.83984e-07
0.83585
0.000537667
0.165968
-0.127462
1.26917e-05
-0.002717
-1.76665e-07
-0.000660207
-1.39012e-07
2.54435e-05
0.0101647
6.12514e-07
-0.00633348
7.43265e-08
-3.56084e-06
-0.000503689
1.51775e-06
-0.00615986
0.0754208
0.770813
-0.00858261
-0.0760738
-4.35649e-07
4.03346e-06
0.0122748
0.0123185
-1.69001e-07
-0.0936542
1.37555e-06
-1.795e-07
0.0040286
-0.039905
7.21379e-08
4.3313e-05
3.24773e-06
5.48891e-07
0.0911351
-1.00644e-05
0.0600302
4.55397e-05
-1.62652
-0.00035268
0.0027548
3.18452e-07
-0.0951065
-0.26681
0.00344838
6.00782e-05
-0.0559597
1.47532e-07
-0.018835
0.104646
1.28419e-06
-0.000397306
-0.000388269
-3.72108e-05
1.56581e-05
-6.98341e-05
-0.387062
-0.0662671
-0.0131079
1.975e-07
-0.00743018
-3.51812e-07
0.00274987
-0.00030793
-0.000629827
0.0121547
4.30797e-06
-0.0585942
-0.000249467
1.30446e-05
-0.182558
-0.112901
-0.00486523
-0.00037732
3.55022e-06
-0.000493287
0.00176955
7.6121e-05
0.0012704
-0.247859
-0.00349821
-0.02954
2.31248e-05
-1.23465e-07
3.57577e-06
-2.31822e-05
-0.000256999
2.63756e-06
-6.43667e-06
-2.87212e-06
0.000799322
-0.139936
0.0754178
-5.76893e-08
0.0215251
-0.000696407
0.153934
-1.17432e-05
-0.00778208
0.000229264
-0.076544
-0.289667
2.68939e-08
0.442416
0.0104707
1.06626e-06
-3.03643e-07
-0.0106496
-0.00553459
-0.107132
-0.000213906
-3.34949e-08
-3.93671e-06
-0.135559
0.000109275
2.38988e-05
-0.0771811
1.62884e-06
0.0017692
0.175944
0.180303
-1.87087e-06
0.0753567
3.08808e-05
3.91354e-05
-0.561032
6.22678e-08
3.38231e-07
-5.40451e-06
-0.00205063
0.00896108
0.0010836
5.59226e-06
-0.00964538
-2.68506e-07
-0.0220427
0.126355
1.26566e-06
6.1083e-06
2.50735e-05
-0.0118289
-0.0138528
-0.0208816
2.06462e-05
-0.121585
-0.577306
-0.0300841
-2.10582e-07
-0.0519717
-3.27776e-06
1.94226e-06
2.87248e-07
-0.106711
0.000215083
-0.0307207
-0.000674078
-0.16856
-0.0550881
-3.38142e-06
0.0127807
5.87017e-05
2.19759e-07
-0.165419
2.66997e-05
0.00433177
-0.0110272
-9.34788e-07
-1.00373e-06
7.77102e-08
0.014675
-0.0776484
-0.0998952
-0.000574748
-0.000359996
-0.00816649
0.10681
0.259292
-0.0649478
0.00309359
2.57819e-07
-0.0770721
4.07245e-07
-8.80061e-08
0.00055994
0.221429
4.85821e-06
3.1397e-06
-0.105563
0.0157688
-2.58959e-07
-0.00496759
-2.03027e-06
0.00232152
4.34296e-07
-0.114448
-0.0878325
-0.0355612
2.10035e-07
1.24444e-05
-0.00775998
-0.0222777
0.0157942
0.00669662
-0.070574
0.0350783
-0.253191
0.0043417
-0.0586222
2.29295e-05
-0.247681
0.101954
-0.000646282
-2.20381e-07
-7.51118e-06
0.0116642
1.56426e-06
-5.92602e-07
0.0032515
7.0196e-08
-0.0152746
-4.47427e-08
-0.182733
-0.070714
0.107832
9.60809e-07
4.81246e-06
-0.040899
2.42378e-07
-0.0146327
5.82373e-06
-0.2798
0.0830172
0.2271
7.13262e-05
-0.000633248
-0.348905
-0.000445004
-4.63599e-07
-6.10923e-08
-0.0541027
-0.083622
-0.0572332
0.198578
1.56873e-05
-3.37353e-05
-2.76191e-07
-0.000383292
1.4772e-05
0.0225051
-0.00164906
-0.000177136
1.18064e-05
4.42041e-05
-0.000439422
-3.75944e-05
-0.0139166
-0.162575
7.21813e-07
1.87996e-06
-4.72512e-07
0.0024276
1.53385e-07
-0.105761
-4.80644e-06
0.102908
-2.89739e-07
0.0198043
0.0300767
2.74489e-07
5.45891e-07
-0.000833857
-0.000651833
-9.13828e-05
0.105471
-1.96889e-08
0.0595612
0.0945203
1.29754e-07
-0.0135217
-0.120856
-0.000497579
3.87804e-05
0.00652461
0.0110461
0.464464
0.00291568
0.0782521
1.3236e-06
0.0162647
1.32748e-06
2.31815e-07
0.00678225
0.0411603
0.074278
-0.0834223