/*--------------------------------*- C++ -*----------------------------------*\
| =========                 |                                                 |
| \\      /  F ield         | OpenFOAM: The Open Source CFD Toolbox           |
|  \\    /   O peration     | Version:  v2012                                 |
|   \\  /    A nd           | Website:  www.openfoam.com                      |
|    \\/     M anipulation  |                                                 |
\*---------------------------------------------------------------------------*/
FoamFile
{
    version     2.0;
    format      ascii;
    class       volScalarField;
    location    "400";
    object      ddt0(k);
}
// * * * * * * * * * * * * * * * * * * * * * * * * * * * * * * * * * * * * * //

dimensions      [0 2 -3 0 0 0 0];


internalField   nonuniform List<scalar> 
27915
(
1.13284e-07
7.19573e-07
0.000281483
-9.9912e-09
-2.32772e-08
3.03466e-08
1.52004e-08
0.000296306
1.15716e-08
0.000426605
-1.69268e-07
-0.00528056
-0.000935581
1.44862e-08
-7.06333e-07
-2.21452e-09
0.00242924
-1.76224e-08
-1.30276e-06
0.000296289
0.0010693
-1.00099e-08
0.00607222
-2.05141e-08
-2.34303e-09
1.14561e-09
0.00240692
-1.85895e-08
0.000104083
1.19351e-08
-2.79984e-09
-2.58939e-08
-4.8395e-09
-2.89949e-09
-0.000503674
-2.30738e-09
3.44527e-09
7.54663e-10
3.77439e-06
1.5992e-08
-1.00501e-07
2.47937e-09
2.56016e-05
1.08701e-09
-0.00242764
1.86112e-08
8.01232e-10
1.98378e-06
4.52335e-09
3.99568e-08
0.000304793
-2.5454e-06
-0.00157571
1.37428e-08
9.83453e-09
-7.92118e-10
3.17138e-09
-0.000654324
-0.000645534
-2.7695e-09
0.000114235
4.63064e-07
-0.00437919
4.39138e-05
-2.35601e-09
3.80164e-06
-0.00455994
0.000304845
-0.00049852
1.05848e-10
-5.60131e-05
-2.10988e-08
-1.6871e-08
0.00332456
0.000301479
0.000163506
1.21059e-08
-1.75625e-10
-0.00083863
1.66818e-05
2.94074e-08
1.16478e-08
-7.36854e-09
0.000340525
0.00870866
0.000392032
-2.64397e-09
4.44193e-05
-0.00474623
-9.59981e-06
3.34171e-08
0.0034561
3.77554e-08
0.00489166
0.000132602
0.000311596
6.59628e-05
0.000519567
4.8338e-07
-3.12152e-09
-1.08169e-08
1.05071e-09
0.000484323
1.23231e-07
-5.66783e-07
6.09292e-09
0.00386707
-2.28579e-06
7.82025e-10
0.000426725
-0.00112067
-1.24988e-07
0.000222516
0.000234572
-2.05363e-06
-2.57066e-06
-0.000827458
1.20574e-08
9.27254e-08
4.39729e-09
3.44628e-08
0.000145461
-6.02228e-09
-1.31286e-08
-1.88957e-10
-0.00296904
-0.00177827
-4.30508e-05
-1.63117e-08
-3.26188e-08
6.62725e-07
0.00226725
0.00420157
7.76666e-05
-0.00330828
1.04747e-06
-0.0174459
-1.21325e-09
-4.3964e-08
3.61488e-08
1.2963e-08
8.89573e-09
-1.34294e-10
-7.82353e-06
-0.000405613
0.000315276
1.39924e-05
1.65957e-06
0.000112416
-4.21176e-09
-0.00101028
-1.11666e-09
1.44428e-05
-0.000181874
0.000332696
6.22188e-06
-0.000492725
-4.32819e-09
6.33965e-09
-4.30069e-09
8.40734e-06
-0.00027827
1.28689e-08
-2.43847e-06
-0.000532185
-1.59262e-09
-1.07418e-05
0.00185413
0.00035863
5.4735e-09
8.25614e-07
-1.34051e-08
-7.11966e-10
2.48917e-06
1.28021e-08
0.000384725
0.000411482
2.79048e-08
5.46139e-09
-0.000140941
-0.00511074
-1.7985e-05
4.45607e-09
0.000328706
1.17325e-06
-0.000744143
4.78658e-09
6.15241e-09
0.000204929
-2.60398e-09
0.00161441
-3.38467e-07
-1.56029e-05
-1.39328e-08
9.62146e-09
-3.27894e-09
-0.00078197
-0.000126711
-2.68784e-09
-2.63568e-09
-0.00162087
-0.00131966
-3.80818e-09
5.93019e-09
0.00043703
2.59462e-05
-1.50183e-06
9.35542e-06
0.000529214
2.32608e-09
-6.92839e-09
-0.00741642
-4.58682e-09
1.68103e-09
-2.95935e-09
-3.99814e-10
7.09512e-06
0.000129778
-3.88442e-08
-6.68558e-09
-1.83435e-08
-1.84756e-06
9.14237e-09
5.83877e-09
-0.000203785
0.00100115
3.11143e-09
-0.00466622
-4.58859e-08
1.09974e-08
-3.7398e-05
-8.49415e-06
-0.00839112
0.00213257
0.00023052
1.22596e-06
-0.00940477
1.44649e-09
5.82524e-09
1.62495e-08
-0.00184385
-8.72634e-08
-2.3156e-05
-0.00142797
-1.54889e-08
3.97849e-09
9.68932e-05
1.20294e-05
-4.5039e-07
5.26229e-06
8.10937e-09
0.000220177
6.81031e-09
-1.89115e-09
-8.6029e-09
4.39413e-05
9.823e-08
-1.11291e-08
-2.05119e-07
0.0038447
0.000164877
6.77723e-07
-5.34227e-06
-4.05435e-05
-4.03674e-06
0.000358585
2.81772e-09
0.00151983
0.000236425
-0.000208953
6.2579e-08
-0.000235154
-0.000391641
0.000144814
-4.31633e-07
2.83748e-09
2.98794e-07
-6.94317e-08
5.63062e-09
-2.08863e-08
-3.87926e-08
-3.63977e-09
-1.39595e-09
-1.77255e-08
-0.00293995
0.000432642
-0.000131331
0.00112667
1.27416e-08
0.0013055
2.08121e-05
-1.9943e-08
-0.000331281
7.32495e-12
2.26827e-07
6.18347e-07
0.00298198
-0.0225263
1.09458e-06
9.93975e-10
-4.51821e-06
3.72784e-06
-3.60385e-09
-2.9214e-09
0.000543588
-0.000538913
-4.0733e-09
-4.72711e-09
-0.000749186
-3.93308e-08
-0.000425702
2.05856e-09
0.000121243
-1.7409e-08
0.000420497
1.17333e-10
-2.62211e-09
0.000316371
-3.99556e-05
-2.22627e-05
2.45527e-05
8.76206e-09
2.96553e-09
-1.55247e-08
-6.00077e-06
3.00545e-06
4.61172e-05
0.000130237
-7.47902e-09
-8.19188e-10
4.72661e-09
3.06539e-05
-1.85838e-08
-3.41155e-10
-0.0155898
9.67245e-09
-1.02977e-05
1.0302e-08
-0.0111296
0.000151215
1.30738e-08
0.000485827
-2.32937e-05
-0.00152093
9.45844e-09
5.79399e-07
1.95807e-09
-0.00330432
0.00045493
-2.07759e-08
-1.35383e-08
1.93168e-08
-0.00306823
-1.09717e-06
-3.34416e-08
8.46164e-06
-4.45976e-06
-2.80961e-09
2.93881e-09
-0.00088044
1.49764e-07
8.87716e-09
-8.81046e-09
2.81371e-09
-4.2477e-07
0.000320161
-5.74133e-07
7.32349e-09
-4.98889e-09
-3.89091e-10
0.000123495
1.12299e-08
3.76403e-07
-2.72997e-10
0.000410206
1.2373e-08
1.27504e-08
-2.89285e-07
-6.23021e-07
2.8885e-09
1.22083e-08
-8.04928e-08
1.04198e-06
0.00583033
-0.00021957
-1.88363e-07
0.00409339
-2.45437e-08
3.52191e-08
0.000194274
8.30472e-10
0.00026243
0.000505719
3.6043e-09
0.000495891
6.37331e-07
-6.24821e-07
-1.79246e-09
6.50638e-09
-0.00491301
6.26142e-09
6.63242e-07
0.000175647
6.43869e-09
1.70631e-05
-1.59463e-07
-4.06692e-06
3.29277e-09
-0.00296971
-1.27573e-06
0.000228824
-7.73327e-07
3.40572e-09
4.11655e-09
-0.00814633
-1.92837e-08
-1.5136e-06
-1.69704e-07
5.93471e-07
9.97425e-08
-4.44407e-05
6.47412e-10
-4.35154e-09
0.00117156
0.000310878
-3.7879e-07
4.79699e-09
-0.00062032
0.000879492
3.28834e-08
-0.000598194
-3.63407e-07
0.00223226
4.6108e-10
-4.82961e-09
1.99684e-08
-1.073e-08
-2.53391e-09
-4.33945e-06
-1.00664e-07
-0.00021633
8.96237e-06
-1.78358e-06
-6.83042e-07
3.33259e-09
-4.85119e-06
0.000174864
5.6199e-09
1.25228e-05
1.12742e-08
0.00104933
-0.000433033
8.18714e-10
-5.47867e-09
-0.00125066
0.00146289
-9.30425e-05
1.20696e-07
2.81272e-10
0.00015677
3.08132e-09
1.21604e-09
0.00325523
-1.70199e-06
8.94851e-05
0.00217939
-2.29581e-09
2.95265e-09
8.14377e-05
5.43833e-05
9.98013e-10
-5.96743e-09
-1.84574e-06
-1.05145e-08
1.87026e-05
8.48844e-07
1.59902e-09
4.24754e-09
-2.95413e-06
1.12967e-06
0.0002416
5.34369e-07
0.00013358
-0.00132051
0.00125232
-2.28962e-08
8.98579e-07
-5.73858e-06
-1.24108e-05
-5.87882e-09
0.000652486
0.000249282
-7.29328e-06
-9.74888e-08
0.000107067
-1.29704e-07
2.23905e-07
-0.00142452
6.89862e-05
0.000166093
4.63175e-09
-9.2006e-08
0.000318971
0.00456831
0.000280005
0.000132906
-1.17928e-08
-1.32899e-07
-1.26409e-05
0.000611005
-5.56923e-09
-1.30585e-06
-9.76915e-08
-0.000226986
-3.30993e-05
0.00216735
-0.000197741
1.71299e-09
4.94693e-07
8.51859e-09
1.02812e-09
5.9291e-10
1.0408e-08
0.000474019
7.56956e-09
-0.00146809
1.35975e-08
0.000458233
-0.000596119
0.000185969
-3.41767e-09
-0.00558428
-2.80794e-05
-2.10539e-06
7.48669e-07
4.13378e-06
0.000354941
-5.26408e-08
5.25984e-07
-9.76635e-09
-5.28557e-09
3.65891e-06
3.75672e-11
-0.000815194
5.75955e-08
-0.00803742
-5.66102e-09
0.000489975
6.21817e-09
0.00358231
-3.12356e-09
-4.94076e-09
-1.70391e-07
0.00215852
-4.0458e-06
5.46423e-06
-0.00572031
0.00155414
3.46515e-05
-9.61848e-09
-2.0592e-05
0.000363274
6.30779e-07
-3.93103e-09
2.72537e-10
-6.60465e-09
0.000399016
4.00626e-09
-0.000679129
-2.23237e-09
7.32484e-07
-0.000593647
1.05214e-06
0.00156138
-2.19439e-09
0.00120104
0.000650232
-0.000349883
0.000247698
-5.15373e-09
-9.12691e-10
6.73681e-07
1.03864e-07
0.000468434
-0.00171597
2.91105e-09
0.000188819
-2.20294e-09
-1.27486e-09
-4.76519e-06
6.15729e-09
-1.22065e-09
-0.0125011
9.08646e-08
0.00704755
3.88897e-09
0.000294312
0.000141411
2.21796e-08
-2.22356e-09
-0.000638195
-1.79028e-08
2.19185e-09
-4.75021e-09
-0.0158067
3.93614e-09
0.00212116
1.42514e-08
-2.44043e-09
-1.29276e-05
-0.0114807
2.49086e-09
0.00178071
-0.00141004
9.72455e-05
-2.04991e-08
5.56035e-09
0.000305009
-1.11154e-08
0.000370401
-1.72122e-09
-3.5617e-08
-2.15802e-09
-5.32902e-07
-2.05202e-08
9.30087e-08
4.27817e-08
1.24186e-06
3.62577e-09
2.73581e-09
2.97171e-06
-6.91841e-05
0.000194041
-3.39897e-07
-0.000656723
0.000262516
-1.35405e-05
5.53026e-09
0.000120986
1.59564e-05
0.00209663
6.59612e-10
0.00617959
-2.36936e-09
-4.05382e-09
3.90265e-09
0.0021722
6.89513e-10
1.10685e-08
-1.39046e-08
-9.38278e-07
0.00155917
6.04781e-05
0.00117278
0.000482956
-4.17138e-09
-0.000381404
-0.00460443
0.000247113
2.00934e-09
7.47586e-09
3.4823e-05
-3.7182e-09
-0.00804447
-1.12286e-06
6.35043e-09
-0.00020489
-1.74504e-06
9.5598e-09
7.59065e-08
1.69011e-11
-5.08828e-08
3.01898e-08
-2.05992e-09
9.07852e-10
6.1421e-09
-4.06521e-09
-0.00120618
2.943e-09
8.58997e-06
-3.53441e-08
7.48599e-08
2.59692e-05
1.76393e-08
9.0041e-08
0.00632345
-0.000310273
-6.26808e-10
-1.46545e-08
2.13586e-10
-4.97154e-07
-8.26764e-05
-3.26165e-09
-1.7633e-09
4.36985e-07
-8.26777e-11
-0.00265031
-0.000199844
-0.000192504
1.08637e-09
0.00132796
0.00131165
5.38622e-07
-4.37833e-09
-2.95873e-05
-1.73802e-09
0.000289026
-4.93579e-07
-6.32104e-09
-1.64915e-08
3.07758e-09
8.16052e-09
-3.25515e-09
-8.18637e-07
0.00157167
0.000377074
-2.41745e-06
3.64792e-09
-2.50339e-08
0.000716148
-0.000118058
4.33986e-09
0.00356469
8.84086e-09
0.00365433
-1.45645e-06
-0.011114
1.27549e-08
3.51206e-06
0.000406238
1.44177e-09
-3.25783e-07
0.00109247
-2.81613e-09
-8.00793e-07
7.33054e-06
3.63431e-08
1.3832e-08
2.80984e-05
6.13928e-05
-3.38578e-08
-4.34739e-09
-0.00656696
0.00723684
0.00554722
5.03363e-08
8.04132e-09
2.27129e-10
-0.0002642
-1.01068e-08
-5.28343e-09
3.33752e-08
-2.23479e-09
1.64069e-08
1.19886e-07
-0.000602751
6.1816e-07
0.000416848
-7.72157e-10
-0.000658626
6.00911e-09
-4.32396e-05
-4.47038e-09
0.00174737
-1.96643e-08
0.000320489
-7.17553e-09
5.15455e-05
0.00102455
4.12582e-05
-1.49278e-06
-1.90166e-06
-0.000276983
0.000366777
4.829e-09
-0.0058007
-3.21656e-09
1.29067e-08
-8.81742e-06
1.12673e-08
-6.59886e-09
-3.82005e-09
4.03982e-10
-0.0183866
-3.58839e-09
6.42804e-09
-3.40874e-09
-3.55569e-07
-2.70239e-08
5.90603e-07
1.33001e-08
0.000814916
0.000292878
1.48783e-09
1.86193e-09
0.0043248
4.51288e-08
1.30768e-08
-6.07585e-09
-2.97771e-09
0.0122073
4.61751e-05
4.22124e-08
-1.54331e-08
-4.16854e-09
1.192e-07
-0.000667362
-5.32105e-09
5.67251e-07
-7.18295e-07
4.04903e-09
8.83759e-08
0.000219246
0.00167659
4.1629e-11
4.77185e-09
-0.000896047
-0.000185946
0.00148818
2.45117e-08
-1.06647e-09
0.000599946
2.77263e-06
0.00405227
-6.85411e-09
-1.63306e-07
-3.70319e-07
-4.36749e-07
7.37248e-09
-5.67708e-05
-0.00021545
7.01337e-06
1.0118e-07
-0.00117993
-1.52786e-07
-3.26759e-07
-4.64092e-09
-0.0104462
-3.24185e-07
-1.25624e-06
0.000384505
-3.47902e-08
-0.000912814
0.00430716
-0.00454617
-0.0011206
-0.0011164
-5.60464e-08
1.11309e-08
-1.67268e-07
-8.8104e-05
4.5671e-05
1.6992e-09
0.0017967
5.40624e-09
9.31281e-09
0.00393049
5.41031e-09
2.75313e-07
8.11359e-10
7.37977e-05
1.06027e-06
5.84737e-09
5.41199e-09
7.10219e-05
-0.000562991
-1.09192e-06
-0.000785579
0.00146788
0.00044384
7.4118e-08
1.2995e-08
5.23305e-09
5.61147e-09
2.66589e-07
0.00081016
-0.000724962
2.52275e-09
3.30963e-07
8.47976e-09
0.00183099
-0.0173547
0.000204662
-3.14315e-09
1.67019e-07
6.3839e-08
4.0187e-09
3.76118e-10
0.0064599
0.000199979
0.000567301
2.18591e-08
-6.59102e-07
0.000491201
2.69068e-06
-0.000877459
1.15163e-09
1.09453e-08
-9.02306e-07
1.32765e-08
-1.5903e-07
0.00108191
1.38415e-07
7.54025e-09
1.21605e-07
0.000308364
5.38192e-10
6.76193e-10
4.86846e-11
-0.00187767
3.93513e-09
0.000692358
-3.06546e-08
0.000298194
1.66012e-07
5.44277e-09
-9.36503e-09
-0.000771415
7.44873e-08
0.00155546
2.90287e-09
6.4232e-08
-7.06598e-06
-8.47267e-06
0.00619715
-9.17546e-09
5.66107e-09
8.85994e-09
-1.66199e-07
-2.24897e-09
0.0027888
9.03354e-10
1.42131e-10
1.62906e-08
-0.000200153
-0.00147567
0.00635492
1.03667e-08
-0.00928378
6.89371e-09
6.26312e-09
5.75544e-09
-1.71843e-07
8.80071e-09
0.000357138
-3.84962e-07
0.000928541
3.21929e-09
1.78467e-08
5.25078e-09
6.83161e-09
-7.73335e-09
-0.0114749
-1.37766e-09
-2.84227e-09
0.000556553
0.00760017
-2.84475e-09
6.4085e-08
5.59713e-09
0.00237707
-2.92282e-07
0.00169425
-8.54817e-07
-0.000849189
-3.31273e-06
3.75854e-09
8.11605e-09
-2.26738e-06
-0.000292749
-1.11124e-05
4.81473e-10
0.00141944
-0.00783162
-0.00150698
-8.31551e-10
1.55986e-07
9.24675e-09
-2.64187e-06
1.84477e-08
-3.58925e-08
0.000435071
2.6929e-09
-2.10517e-07
0.00293361
1.07588e-08
9.32921e-10
0.000660882
0.00162667
-0.000522442
-0.000613787
-0.00087358
5.06254e-09
0.0026272
-0.000274191
0.000469189
-2.5388e-06
2.05805e-05
0.000353258
0.000408884
-0.000281862
5.35139e-08
0.000437989
-0.0071292
-1.29537e-08
-4.0232e-09
-4.123e-09
5.68296e-07
-1.89156e-05
3.92425e-07
5.84166e-09
4.81653e-08
-0.00115936
-1.80364e-09
-2.86732e-09
8.7032e-05
-5.32649e-06
5.94037e-09
0.00126859
7.04727e-09
-1.33198e-06
1.88998e-09
-0.00272814
-1.23465e-06
0.00100904
8.19997e-08
-1.57919e-06
8.10584e-09
-5.30831e-05
-5.63002e-09
-4.06345e-09
1.14894e-08
-2.4457e-09
1.59275e-08
2.12462e-05
-1.22327e-05
-6.51245e-07
0.000185137
-9.59132e-09
0.00106158
-0.00277355
-2.16647e-09
-1.48795e-08
0.00435657
1.8468e-09
8.73454e-06
6.64994e-09
3.99429e-10
1.26464e-09
-1.53624e-06
-1.35219e-05
7.20006e-09
3.11417e-09
-0.000918589
-1.56169e-08
-1.21259e-10
3.74952e-09
-5.92109e-07
2.77165e-05
-1.23639e-07
-0.000680933
-6.83862e-10
-2.3472e-09
5.20839e-09
5.56003e-09
1.89149e-08
-8.45132e-09
-3.03646e-08
8.76535e-08
-3.57524e-09
-2.03736e-09
-3.06591e-09
-3.04863e-08
-9.25542e-10
-8.32381e-06
1.03058e-07
0.000591962
0.000153754
-1.75186e-06
-1.33906e-06
1.24838e-08
0.000565571
0.000356938
-1.19924e-08
9.51822e-08
-6.33478e-08
-1.0766e-05
0.000491956
-9.60152e-07
-0.000101339
3.02207e-05
-3.40836e-09
-0.00706228
1.85919e-08
0.00877337
1.03339e-08
-2.71385e-06
-2.02512e-08
-0.00278312
-1.3553e-09
-2.70677e-07
0.00538461
2.82062e-09
0.00113856
1.10611e-06
4.16767e-07
9.80605e-09
-4.94803e-07
-2.59864e-07
-0.000526624
4.55042e-07
-1.85912e-09
0.00164866
-3.85219e-07
-3.10406e-08
3.27706e-10
-7.04652e-07
1.06025e-07
-1.7806e-06
-5.16604e-10
-0.00030072
-2.96009e-07
-3.15675e-07
-3.15896e-06
-0.00132427
-1.46857e-09
0.00161765
-4.22476e-09
1.0876e-08
-7.12873e-10
0.000444372
1.09118e-09
-2.85772e-08
7.07727e-08
-3.61689e-08
-0.000724679
0.000863796
9.61485e-10
4.10931e-09
-3.82521e-09
-4.61349e-07
3.44171e-10
0.000435981
3.9827e-09
6.00612e-07
-1.02516e-09
1.52312e-06
5.4481e-09
0.000399303
0.00160975
0.00184894
0.000388477
0.00290289
-3.02895e-07
0.000151341
-0.000739415
-4.6987e-05
7.75501e-08
-9.97719e-07
8.93638e-09
-0.00147439
-2.94391e-08
-4.25988e-09
3.95505e-06
9.35114e-08
9.29406e-09
0.00268789
5.5011e-09
-0.00144018
-1.01297e-06
0.000481638
0.000316903
-6.05524e-09
0.0013249
0.000134966
1.71921e-08
-7.38504e-09
8.27439e-07
-7.13876e-09
1.10701e-08
4.87926e-05
5.01622e-05
-0.0145692
8.07802e-09
0.000102831
-1.56737e-08
0.000135284
-0.00144488
-0.000724004
-0.00136129
-5.03573e-05
4.87079e-06
0.000269473
0.00352158
-6.50895e-06
1.45259e-05
-0.000186841
1.50279e-10
9.69783e-09
-0.00415235
-1.26541e-06
7.37449e-09
5.2115e-09
-3.75975e-09
9.27592e-09
-0.00215078
-6.06583e-07
-0.000710079
-0.00709682
3.09768e-08
-9.00126e-08
9.69781e-09
-1.57408e-09
-6.83175e-06
-1.87062e-08
-6.38921e-05
-3.99891e-09
-3.20403e-09
-4.13375e-07
-0.000110596
-0.002646
-3.00885e-07
1.37462e-05
-3.8881e-10
-6.94057e-07
-0.00191568
1.37183e-07
-1.7903e-06
9.3537e-06
2.39317e-06
-1.82873e-05
-0.000711439
1.33706e-08
7.25027e-10
-9.96547e-08
-5.10062e-09
2.58296e-09
-5.58147e-06
8.11154e-06
3.26914e-09
-1.31347e-08
-4.15139e-08
5.54313e-09
0.00027832
9.86472e-08
-8.50497e-06
0.000459854
-5.53997e-07
-2.78711e-07
-0.000373446
-0.000298125
6.08071e-09
6.84957e-08
-6.64913e-07
2.5655e-09
5.97144e-09
0.00136163
-1.41935e-07
-6.95492e-10
-0.00114657
2.81608e-10
-0.000588918
7.09448e-09
3.60758e-08
-2.49023e-09
-8.19393e-07
-0.000504499
-6.6887e-10
2.52456e-05
0.00114305
-4.60455e-09
-5.83238e-08
0.00011166
0.000187557
9.79932e-09
-8.14964e-08
-3.31298e-06
0.00137359
0.000696067
5.86216e-07
9.65791e-09
1.41959e-08
0.000492593
0.00067267
1.56345e-05
-2.67337e-06
-0.000124305
3.42871e-09
-0.000575653
7.7331e-07
7.25549e-07
4.13627e-07
-0.000588266
1.03234e-09
-0.00443091
3.64576e-08
-2.82179e-07
2.63215e-06
0.00158524
1.13655e-09
0.000968761
6.44433e-09
-1.05376e-05
-2.01956e-08
-0.00114641
8.09915e-10
2.08663e-06
0.00453202
-1.28202e-09
6.69624e-08
4.05655e-06
0.000441391
-0.00168213
5.86627e-06
4.56066e-06
2.15368e-08
7.30868e-08
0.00201301
3.30427e-09
-2.60227e-09
1.09057e-08
0.00438103
0.000168824
-0.00171997
2.06522e-05
1.40099e-09
-5.58457e-09
1.2624e-08
-3.74247e-09
-1.17302e-07
0.000107251
-3.43905e-06
-4.53196e-08
-2.54106e-10
0.000753674
-4.45562e-09
0.000455909
-0.000608291
7.49321e-07
2.9386e-08
1.03457e-08
-0.000839965
4.25777e-08
1.1724e-08
8.30595e-09
-2.11403e-07
-6.59787e-10
0.00147704
1.61382e-06
5.51273e-09
5.33634e-07
0.0059115
6.4651e-09
-0.000659849
-1.2673e-07
-7.27883e-05
4.39293e-05
-2.15029e-09
-4.02485e-08
-9.67259e-09
0.00245291
0.000550334
-2.85447e-07
0.00142241
-0.000782032
7.12129e-09
6.99132e-09
4.29636e-08
-3.38133e-08
-0.000607559
0.000588194
1.30677e-07
2.68826e-06
9.92435e-07
-1.53046e-07
5.16452e-09
1.4908e-08
-9.27419e-05
-5.11356e-09
8.71301e-09
-4.72642e-07
-8.85843e-09
-1.15976e-08
7.78794e-09
-8.10458e-08
5.28471e-09
-0.00171906
-5.83188e-07
1.42826e-07
1.17333e-08
8.41e-07
-8.46815e-06
5.73369e-10
-2.92351e-05
-3.88008e-06
0.00243875
6.24035e-06
0.00447813
-0.00698777
2.97099e-11
0.00122451
0.00107469
7.06079e-09
-1.67482e-08
0.000218795
-1.5423e-07
8.70171e-06
-1.15164e-09
1.45795e-08
0.000203833
-4.14556e-08
2.41967e-08
0.000524513
-1.14515e-06
0.00313667
3.56558e-10
-0.00115252
-0.000230215
3.98632e-07
-0.00580388
0.000469961
-0.022465
-8.68666e-07
0.000811846
6.61236e-07
-0.00149644
6.44823e-05
-0.00390845
0.00105304
-8.13322e-05
-0.000158894
-2.98199e-09
7.24828e-06
1.42379e-08
0.00205493
-3.12316e-07
-0.000709076
4.13147e-09
-0.000128509
7.57194e-09
4.99196e-08
2.73376e-07
-1.40415e-07
8.49387e-08
5.53669e-09
-3.06428e-08
1.56506e-08
0.00073747
-6.33355e-08
0.000156719
7.98364e-08
0.003315
2.44375e-08
-1.64561e-09
-0.00266265
-1.4119e-08
-0.000203592
-3.72082e-06
-1.44606e-07
0.000458748
-5.65513e-07
0.00721044
-7.68289e-09
-0.00298188
1.77909e-07
9.52838e-09
-3.07043e-09
5.49752e-08
0.000140747
0.00260544
3.62242e-05
-1.09596e-10
-2.40933e-10
0.00242249
5.1017e-08
0.0012229
-2.73141e-09
-3.69911e-07
-8.34553e-09
5.1931e-07
0.000124629
0.00220349
-3.49763e-09
-3.4245e-08
0.00180484
7.85652e-09
-0.000712788
0.000919911
6.17114e-07
1.98846e-05
-7.89835e-09
-4.71996e-08
-0.000952484
8.78776e-08
-0.0105871
2.89112e-06
-2.10511e-07
-0.0016601
-0.00441985
1.39065e-08
6.89346e-09
6.7572e-09
-4.26895e-09
7.87714e-06
-0.000535766
0.00191517
1.0336e-08
9.47008e-08
-8.63816e-09
3.03227e-07
4.14826e-08
5.74474e-08
0.000226174
2.31611e-07
6.92342e-09
9.07736e-05
0.00204899
-4.03062e-06
0.000852432
0.00165939
-3.97157e-09
4.36773e-05
-0.000546699
-0.00011291
0.000281455
-3.27872e-08
-1.00425e-05
-4.89524e-06
-1.94005e-09
-0.00675075
0.000347854
5.90799e-10
0.000696909
2.06059e-09
5.47628e-09
-0.000911753
8.64689e-07
0.00175263
0.000939597
-2.62576e-08
0.000297571
-2.70831e-06
8.04094e-09
0.000651115
0.00475964
7.21578e-09
1.81018e-09
-4.6163e-09
-3.55239e-09
1.24346e-08
0.000195449
1.85918e-07
-1.7557e-09
2.37419e-06
-0.00167731
0.00466223
4.96007e-06
7.99607e-07
-3.69608e-05
2.04487e-06
0.000663222
3.84495e-09
1.11381e-08
-1.0053e-09
-1.14538e-09
-4.70191e-06
-5.53539e-07
3.56752e-10
6.99335e-07
-0.00094697
-4.83275e-08
8.81862e-09
9.14611e-10
4.13993e-09
-0.000610344
0.00227643
1.3045e-08
-6.74255e-09
-4.16616e-09
-2.22429e-08
-3.17657e-07
-3.11152e-09
4.02334e-08
1.56268e-08
-0.00131623
-2.75039e-09
0.000332993
-7.73724e-09
-0.00324866
1.08908e-08
0.00266336
0.000292116
-0.0026399
-0.000297801
-0.00379885
-1.15256e-06
0.00114583
0.00128203
-2.38339e-07
-0.00049277
-1.87327e-06
-0.000127042
0.000225808
0.000175018
-3.81103e-09
-0.000925168
-4.80661e-09
4.21616e-06
-1.46391e-05
-3.4142e-06
7.97697e-08
7.77603e-08
3.83822e-08
-1.24572e-07
0.00225795
0.00113236
-1.97887e-07
-0.00765262
2.8709e-06
0.000549341
-2.76693e-09
-4.32103e-06
1.15177e-07
-3.23384e-07
-1.03009e-05
0.000516202
7.7545e-06
1.05244e-08
-2.40643e-06
2.39353e-06
0.000143626
-1.7674e-08
-8.14405e-09
5.10945e-09
0.00653393
-0.00127911
4.69554e-09
-1.33099e-08
1.18609e-06
-3.40478e-09
0.000584496
3.50032e-05
7.85501e-08
0.012688
-7.83582e-09
7.48177e-05
0.00941209
0.000297352
1.27605e-08
-5.92362e-07
0.00390523
0.00140038
4.9067e-09
-0.00454462
-0.0133175
1.06874e-08
5.58691e-08
0.00432038
-2.77749e-06
0.000483805
0.000682275
-7.70998e-10
-6.04948e-09
2.03602e-08
-1.01996e-09
5.40499e-09
1.25033e-08
-1.50955e-06
2.57034e-08
2.05503e-09
3.44379e-09
-3.44247e-07
-1.24736e-08
-4.22385e-06
2.12159e-09
0.000470538
9.55256e-08
4.83751e-06
-1.07158e-08
1.96329e-08
-0.000593127
-9.04753e-07
7.06743e-08
-2.06181e-07
-3.07277e-08
-7.77692e-08
-0.000132541
-0.00609624
0.000451949
-0.000364034
0.0124573
-0.000737585
0.00123458
-4.57525e-06
1.94401e-07
5.3409e-09
5.20648e-09
0.000976331
-1.84065e-08
-6.38219e-09
1.20604e-08
-2.45503e-09
-5.33135e-10
2.46003e-08
3.41581e-08
2.93297e-07
0.000902976
-8.41475e-07
-2.26596e-08
-2.66261e-08
1.42308e-08
-0.000306783
-2.37751e-06
2.73154e-08
-2.39069e-06
-9.47877e-08
0.0006708
-3.87109e-09
1.79281e-07
1.56383e-07
-4.06234e-09
8.53913e-08
-1.15118e-05
8.70783e-05
-1.65511e-06
5.12381e-09
2.10965e-07
0.00336703
1.23719e-09
-2.12227e-06
2.95328e-08
-1.84733e-05
0.00290984
-6.09922e-07
-1.15922e-06
1.36567e-08
-1.25015e-08
-0.00103991
2.34617e-08
0.00070631
-1.32485e-05
0.00140285
-0.019715
-0.00403537
1.42588e-09
-1.22406e-08
4.50109e-09
0.000579984
-6.05928e-10
1.69431e-05
-5.2784e-07
9.38362e-09
0.000150951
0.000601339
1.03428e-08
2.15351e-08
1.54783e-05
0.00027413
0.000191282
-1.59425e-07
0.000582996
-2.2988e-09
2.17022e-05
-9.92691e-07
1.55633e-07
-3.73191e-07
-0.00646085
1.25979e-07
0.000196814
1.14415e-08
-0.000491139
0.00170076
-4.78122e-07
1.12296e-08
-5.02e-07
9.45633e-11
2.33304e-09
6.55993e-09
9.49795e-07
-1.39549e-08
0.000249491
7.43022e-07
-7.85078e-09
2.52556e-08
0.000212953
9.21637e-09
0.00797828
0.00526332
2.3565e-06
0.00220148
5.34795e-07
-3.34892e-06
-1.76551e-07
-1.2499e-06
8.03521e-09
0.00207513
0.0069862
-0.0130383
2.07077e-05
-0.0022331
-1.88272e-06
0.00381225
-3.62145e-09
0.00165617
-0.000834044
1.38771e-05
4.12449e-09
-0.00621971
-0.000586658
0.000745749
1.05108e-08
-8.05129e-08
-0.00167638
1.73349e-09
-5.04623e-07
1.04879e-08
4.07982e-06
5.33986e-09
5.98908e-08
3.18144e-09
1.48883e-09
-3.57196e-09
-2.44189e-08
1.15797e-09
0.000627674
1.0264e-08
-2.74707e-09
0.00286124
-1.51702e-09
1.74011e-08
1.29394e-07
3.65e-08
0.00074644
-6.20605e-07
-8.40698e-08
-2.56685e-10
9.46536e-09
0.00104764
-5.8268e-09
1.0426e-08
-1.58741e-07
0.0002439
1.27506e-08
6.5579e-07
4.33087e-09
6.61038e-07
1.08384e-07
-9.5836e-09
0.00166808
2.44691e-06
0.000295029
9.50717e-09
-7.22798e-07
1.08052e-08
0.000130942
-6.15857e-06
5.83673e-11
-0.00891818
6.78936e-05
-3.19001e-09
0.00134577
1.40317e-09
1.94932e-09
-2.28219e-07
3.87277e-07
2.12259e-09
1.34565e-08
3.06055e-07
1.24394e-08
-2.46929e-07
-1.7939e-08
1.96438e-07
-2.63345e-09
-1.37815e-06
3.80422e-07
0.0015193
-2.78622e-06
-5.94901e-09
0.000422765
2.05618e-09
3.24671e-09
1.65499e-07
-7.00896e-05
-0.00116569
-1.55423e-06
-0.00106124
9.48261e-06
-1.77662e-07
8.36505e-08
-8.06422e-07
0.00141192
-2.50141e-07
-7.98599e-07
-1.06781e-07
1.71952e-09
0.00117031
-1.73215e-06
-7.56178e-06
-5.13411e-07
0.000466101
-1.42151e-09
1.02926e-05
-6.62326e-08
-9.77154e-07
0.0013334
-0.00167371
7.91007e-08
-2.73414e-07
0.000483837
1.58123e-08
0.000102447
-0.00170853
-1.76493e-09
-3.00371e-06
5.23312e-05
9.36969e-08
7.76569e-05
1.28779e-08
-0.00590859
-0.000100638
-1.48849e-08
8.45326e-06
3.46574e-08
3.41444e-09
2.00031e-08
7.21237e-05
1.3695e-09
-1.08715e-09
0.00192278
1.3907e-08
9.50374e-06
0.000588538
1.36283e-08
-0.000281145
-2.525e-10
-2.21292e-08
-3.33313e-09
-1.08753e-09
1.12405e-06
1.15903e-07
-1.51051e-06
-1.69378e-09
4.41512e-10
2.30575e-07
0.000531969
3.98623e-07
-6.45949e-05
0.000781313
-2.2886e-05
8.02764e-08
9.06311e-09
0.000148295
-2.42269e-08
1.4903e-08
-0.00076314
1.21783e-07
3.68401e-09
1.17504e-07
-4.51297e-09
-2.39689e-05
-4.76997e-07
-8.27497e-10
0.000344249
0.000701033
3.1036e-09
-2.30219e-09
-0.00113604
0.00858875
3.05044e-09
-4.42707e-09
7.67869e-05
-7.18588e-07
0.00169502
-1.40343e-09
0.00205497
-2.22192e-07
6.9954e-07
-1.54053e-06
-0.00294119
-1.56842e-06
-0.000906957
6.34851e-09
0.000499871
1.30278e-08
0.000209674
0.000770696
4.25299e-10
0.000332676
-2.16542e-07
-8.31732e-09
8.69786e-06
-0.000197665
0.011428
-0.000782625
-2.27005e-08
-1.61925e-06
-8.80028e-07
3.15951e-06
1.10822e-08
1.85177e-07
3.44272e-07
9.81392e-05
0.000472252
0.00886329
0.00026549
1.56679e-08
-3.47941e-06
0.00342342
9.8617e-09
8.26077e-11
-3.27203e-07
0.000611648
2.60326e-06
-0.00549596
0.00927775
-0.000317478
1.07871e-07
0.000118401
-2.11558e-06
-3.42299e-07
-0.000804902
-0.000845565
0.00895762
-1.43469e-06
8.16179e-09
0.000178405
-1.75584e-09
0.000250769
1.80447e-08
1.0845e-08
-1.25501e-07
0.000474151
0.00148525
-3.82446e-06
-5.73023e-08
0.000979118
8.92758e-09
-8.37632e-08
-3.15132e-09
-7.20952e-07
0.00359312
-7.79382e-06
0.000329302
0.00202333
5.18818e-05
0.00165046
-1.88503e-08
0.000236887
-1.47062e-09
0.000212475
0.00107681
6.1843e-08
-1.61277e-07
0.00134589
7.74671e-08
2.20826e-09
9.8422e-09
-2.16014e-05
-1.5757e-09
1.76635e-08
-1.694e-06
4.49198e-06
2.06771e-09
4.31039e-07
3.59071e-06
-0.00239358
-0.000259138
2.61344e-08
-2.82527e-08
0.000793441
8.53505e-09
3.04571e-06
1.39246e-08
0.000159786
-7.01538e-07
-2.73575e-08
-3.03624e-08
-1.91171e-09
0.00506037
1.66535e-08
5.12751e-08
4.936e-08
0.0004497
-1.97865e-05
0.00595769
-0.00085293
5.22653e-09
0.00130128
1.20292e-08
-1.16342e-08
-2.92268e-07
-0.00262064
-1.45855e-08
-1.16917e-08
0.00128248
-7.9347e-07
-0.000103438
1.02458e-07
0.00445813
0.000226329
1.21452e-08
-0.000248936
3.2279e-07
-1.66899e-05
0.000575615
-0.000540325
7.02678e-09
0.00416858
0.00643865
-0.0083119
-0.000202899
-0.000284729
6.00323e-08
0.00389217
-6.6596e-06
9.89324e-05
-5.26754e-07
1.17557e-07
7.84965e-09
-3.39543e-07
4.93868e-09
-0.00156112
2.13221e-07
-3.29466e-11
-2.15429e-07
-7.19452e-07
0.000506953
1.11715e-07
-0.000290989
-4.85774e-07
-9.07226e-05
-0.000717776
0.0032794
3.88964e-07
1.47899e-05
-1.77564e-09
-0.000933847
0.000109966
0.00119915
3.53485e-09
-7.63134e-07
3.29417e-09
0.00763383
9.29915e-06
-0.000763387
-1.80979e-06
-0.00339027
-1.2873e-06
0.00300793
1.01918e-08
-0.0118663
0.000443418
-1.7051e-10
-2.5012e-08
0.00284966
1.68912e-07
-2.01131e-09
-1.68936e-06
-0.000376486
3.69509e-09
4.78642e-10
-5.12447e-09
-0.000551279
-1.63401e-08
-2.7033e-07
2.29049e-05
-3.46407e-07
4.05784e-06
2.5249e-09
-2.60026e-08
5.17039e-08
0.00359451
0.0071512
3.26539e-09
1.18716e-08
1.26673e-08
7.97278e-08
-2.16091e-08
-0.00669009
-2.03664e-07
0.00029373
0.00119791
3.63845e-08
-3.93978e-06
3.06239e-05
-4.12966e-09
-6.33561e-09
-1.57262e-06
0.00539897
-1.56349e-08
0.000343144
0.00119831
-0.00830925
-0.00200974
0.000163326
-5.88708e-07
3.61728e-08
-0.00249461
2.853e-09
-1.22933e-06
1.05171e-08
-3.80447e-05
4.75117e-09
0.00249217
1.12155e-08
0.00216937
6.25557e-09
0.00229983
-1.29348e-09
6.11671e-09
7.65561e-07
1.17321e-08
1.59545e-08
2.85286e-09
0.000125688
3.68394e-09
-0.000110776
1.27975e-08
2.98159e-06
0.00347757
-0.000321037
0.00720294
-8.49998e-10
8.10249e-10
0.00077094
0.00143001
-1.16734e-08
1.53345e-06
1.55859e-06
0.00415562
-8.51645e-10
-0.00279695
-1.48852e-07
2.12558e-08
0.00181153
0.0014746
-4.2801e-09
-0.000296553
-5.4533e-07
0.000300489
0.000752252
-4.60693e-09
-9.80851e-08
-0.000537436
-9.2591e-09
0.00267763
3.47256e-06
0.000808172
-0.00456009
1.36545e-07
-8.29719e-06
-2.00582e-09
-6.99204e-07
-1.73211e-09
-1.13322e-08
-0.000670648
5.08044e-09
0.00130848
1.08486e-08
-4.24716e-08
-6.09178e-06
1.61499e-08
0.000762524
0.000473304
0.00568459
-7.74956e-06
-0.00343789
-5.38648e-09
-1.04224e-07
-0.000203356
-0.000179508
-2.09211e-09
-0.000118677
1.64251e-08
-5.67277e-09
0.000630567
-0.00101088
1.34003e-09
3.83627e-07
3.36713e-08
7.5093e-09
-0.00023327
-4.39207e-09
0.000338045
1.94672e-07
0.00252396
3.06261e-07
8.62286e-06
3.95918e-09
-0.00224459
0.000505516
8.02678e-06
-1.95131e-07
-0.00287609
1.90492e-09
-0.000112353
-0.00872758
1.85921e-08
2.34804e-07
-8.15806e-07
-4.01439e-08
7.72663e-08
-7.69975e-07
-0.00020215
0.00313746
-4.37825e-05
2.65604e-09
3.87273e-05
-4.64632e-09
3.46138e-05
-2.02136e-07
5.03854e-07
0.00211511
4.83237e-08
-0.00135365
-9.94313e-08
3.01354e-08
0.000452235
0.00313243
0.000104831
-1.30316e-06
3.6423e-08
-1.09325e-06
6.59613e-05
5.19473e-07
-2.19589e-05
-0.0072777
0.000254845
-0.00175407
2.11166e-07
-1.58253e-09
1.24168e-08
-1.75569e-07
-1.68479e-06
2.93257e-08
2.27281e-09
-2.81637e-08
1.00096e-05
-0.00165159
0.000139585
-8.35092e-09
0.000613617
-8.00278e-06
0.00169406
-7.95398e-08
-7.41019e-06
-1.80401e-07
0.00318146
-0.00177452
2.36216e-10
0.00296301
0.000167796
1.21586e-08
-2.30233e-09
0.00032285
0.000301867
-0.00247134
-5.54695e-06
-4.65911e-10
-2.03891e-08
-0.00183512
5.64783e-07
-2.48572e-09
-0.00857128
2.09625e-08
1.13363e-08
0.00703464
0.00449678
-1.69636e-08
0.000354676
3.66867e-07
-3.24905e-08
0.00138154
8.67072e-10
4.35835e-09
-3.08896e-08
-7.7302e-05
0.00029501
-3.30221e-06
1.2959e-08
-0.000182832
6.95963e-09
-0.000221505
0.00281686
5.80791e-09
1.64387e-07
-2.59382e-07
0.00028302
-0.000210234
0.000686211
1.30494e-08
-0.00524526