/*--------------------------------*- C++ -*----------------------------------*\
| =========                 |                                                 |
| \\      /  F ield         | OpenFOAM: The Open Source CFD Toolbox           |
|  \\    /   O peration     | Version:  v2012                                 |
|   \\  /    A nd           | Website:  www.openfoam.com                      |
|    \\/     M anipulation  |                                                 |
\*---------------------------------------------------------------------------*/
FoamFile
{
    version     2.0;
    format      ascii;
    class       volScalarField;
    location    "400";
    object      k;
}
// * * * * * * * * * * * * * * * * * * * * * * * * * * * * * * * * * * * * * //

dimensions      [0 2 -2 0 0 0 0];


internalField   nonuniform List<scalar> 
27915
(
0.000158006
0.000192987
0.0270392
0.000139262
0.000145542
0.000162458
0.000132753
0.0235616
0.000144643
0.0415995
0.000174481
0.0428937
0.00469769
0.000132659
0.000136843
0.00013908
0.00329623
0.000147266
0.000204254
0.0236196
0.00449002
0.000152261
0.0194592
0.000146418
0.000139091
0.000136568
0.0225447
0.000145397
0.012916
0.000157052
0.00014395
0.000173494
0.000135844
0.000135445
0.0280725
0.000135482
0.000152905
0.000136566
0.000194065
0.000145665
0.000155051
0.000152405
0.000210798
0.000140103
0.0158406
0.000145913
0.000141779
0.00016929
0.000148564
0.000141832
0.0253566
0.000199734
0.0200477
0.000157219
0.000158114
0.000141739
0.000142679
0.00499389
0.00509624
0.000143789
0.000258467
0.00016371
0.0167358
0.00582866
0.000145501
0.000196539
0.0433418
0.0253463
0.0280576
0.000143615
0.000304432
0.000146637
0.000147319
0.00521378
0.040222
0.00100986
0.000156815
0.000133922
0.00753562
0.000233159
0.00016198
0.000147354
0.000165338
0.0204522
0.0306103
0.0106405
0.000135025
0.000252123
0.0234051
0.000210846
0.00014858
0.00463317
0.000141535
0.0223186
0.0122135
0.0285777
0.000250404
0.0403135
0.000163352
0.000128872
0.000162051
0.000136423
0.0397847
0.000148841
0.000159336
0.000147309
0.0264653
0.000196817
0.000136422
0.0347437
0.024745
0.000154758
0.000426749
0.00396016
0.000196131
0.000199235
0.0249625
0.000172667
0.000148739
0.000148716
0.000148335
0.000355839
0.000135999
0.000152212
0.000146701
0.0206698
0.0340986
0.0142524
0.000144523
0.000142765
0.000163555
0.0216536
0.0218667
0.000416063
0.0265023
0.000191826
0.0132444
0.000135111
0.000143022
0.00014786
0.000169488
0.000158245
0.000155514
0.00367158
0.0277879
0.0267446
0.0133114
0.000168259
0.00116981
0.000165595
0.0241067
0.000134922
0.000141622
0.0134096
0.00028583
0.0278653
0.0148894
0.000140628
0.000143803
0.000151036
0.00015497
0.00920335
0.000139996
0.000210515
0.00450665
0.000144429
5.96511e-05
0.0249826
0.0412187
0.000152707
0.000166431
0.000147717
0.000146502
0.00017049
0.000132024
0.0111883
0.0341564
0.00014808
0.000141054
0.0043249
0.0225273
0.000178624
0.000156659
0.0280304
0.00019199
0.000455938
0.000143294
0.000141966
0.0188933
0.00013497
0.0251775
0.00017869
0.000555977
0.000148001
0.000129557
0.000146878
0.000548917
0.000278724
0.000151014
0.000163582
0.0205632
0.0232921
0.000140275
0.000148714
0.0117876
0.0150622
0.000191365
0.000186753
0.0132813
0.000144965
0.000164797
0.0259237
0.00015045
0.000144472
0.000147265
0.000157941
0.000181185
0.000167061
0.000142933
0.000146977
0.000146018
0.000147649
0.000158514
0.000143289
0.0112456
0.00306392
0.000140327
0.00612326
0.00014341
0.000135574
0.0132778
0.00022187
0.0251151
0.0250795
0.00465867
0.00014809
0.0298834
0.000158415
0.000156839
0.000139247
0.00689015
0.000152445
0.000271361
0.0225788
0.000144314
0.000140643
0.0127204
0.00553993
0.000160399
0.000451117
0.000157734
0.0301954
0.000130807
0.000144119
0.000146947
0.000238676
0.000157801
0.000143759
0.000178533
0.026183
0.0301235
0.000195721
0.000207899
0.000237288
0.000207178
0.000958655
0.000138155
0.0260863
0.0307154
0.0263371
0.000148532
0.0133161
0.0134704
0.00487166
0.000159988
0.00013818
0.000149673
0.00015207
0.000137516
0.000151797
0.0001428
0.000129186
0.000133796
0.000206112
0.0105742
0.0342579
0.00786206
0.0170595
0.00015718
0.0318812
0.000239804
0.000146886
0.0098294
0.000146963
0.000149571
0.00019472
0.00979837
0.0244056
0.000167434
0.000146718
0.00024112
0.000169102
0.000141597
0.000151042
0.0103938
0.0151938
0.000164021
0.000141514
0.0088238
0.00015021
0.0115369
0.000147219
0.0271369
0.000143702
0.00968226
0.000149456
0.000128915
0.0222809
0.0156118
0.016359
0.000227245
0.00012869
0.000138366
0.000146321
0.000196248
0.000166591
0.000281483
0.0142179
0.00014306
0.000137795
0.000140635
0.000250263
0.000146778
0.000141746
0.0096988
0.000131337
0.00020067
0.000137682
0.0277759
0.00442481
0.000157033
0.00686717
0.0133107
0.018604
0.000131231
0.000142021
0.000147042
0.0338994
0.0349338
0.000146846
0.000146199
0.00013941
0.0206905
0.000193329
0.000176432
0.000157581
0.000180711
0.00014135
0.000139409
0.00442006
0.00018378
0.000148986
0.000150097
0.000133891
0.000140403
0.00374167
0.000165753
0.000138512
0.00014359
0.000139657
0.0167937
0.000131641
0.000189778
0.00014978
0.0322936
0.000131922
0.000135633
0.000193919
0.000168213
0.000130872
0.000165364
0.000203773
0.000165389
0.0198105
0.0138939
0.000178519
0.00485633
0.000203676
0.000148147
0.00505871
0.000145078
0.0115776
0.0351196
0.000138552
0.0426556
0.000191925
0.000164651
0.00015936
0.00014406
0.024322
0.00013951
0.000163985
0.0119293
0.000148898
0.000208295
0.00015206
0.00020181
0.000142685
0.0264464
0.000191805
0.0212688
0.000169911
0.000138568
0.00013946
0.0413095
0.000146589
0.000192473
0.000149452
0.000191122
0.000155367
0.00013075
0.000145095
0.000161434
0.025991
0.0117609
0.000151751
0.000138448
0.0148861
0.0318131
0.000144028
0.0249722
0.00015063
0.00235428
0.000163104
0.000139149
0.000139191
0.000143271
0.000156395
0.000238114
0.000200935
0.0253848
0.000204825
0.000193049
0.000191148
0.000143322
0.000152783
0.014552
0.000148703
0.000211552
0.000129747
0.025449
0.0124611
0.000137726
0.000158441
0.0241233
0.00392754
0.0276776
0.000141034
0.000166053
0.012593
0.000138322
0.000168399
0.0063104
0.000152852
0.0147041
0.0237553
0.000147531
0.000140274
0.000246899
0.0040195
0.000140137
0.000161166
0.000248638
0.000139603
0.000210598
0.000164918
0.000140305
0.000140488
0.000175055
0.000172235
0.000602492
0.000169848
0.00767198
0.0112
0.00586521
0.000151756
0.00016426
0.000224586
0.000182028
0.00013743
0.000785273
0.00306512
0.0002056
0.000149478
0.0181913
0.000173364
0.000155361
0.0216425
0.0232075
0.0161717
0.000140581
0.000148859
0.0106987
0.0229299
0.0113007
0.0149564
0.000139199
0.000150743
0.0131481
0.0251328
0.000140108
0.000190417
0.000199741
0.0138341
0.0154893
0.0165204
0.0285206
0.000138971
0.000189755
0.000165649
0.000147407
0.000137672
0.00013991
0.0118231
0.000128521
0.00402541
0.00015681
0.033309
0.00485007
0.0170795
0.000129218
0.0220957
0.0227928
0.000195376
0.000166555
0.000171357
0.0307438
0.000143634
0.000190124
0.000143183
0.000143506
0.000210277
0.000145246
0.00488464
0.000144126
0.029996
0.000139532
0.0338994
0.000137859
0.00570577
0.000143648
0.000149506
0.00018193
0.0151728
0.000173587
0.000182836
0.00984032
0.0293353
0.000230809
0.000140693
0.0147242
0.0408201
0.000196683
0.000165301
0.000145628
0.00014952
0.0112507
0.000138964
0.0243238
0.000147513
0.000193737
0.0160393
0.000171133
0.0274571
0.000135147
0.00429467
0.00766371
0.00155753
0.000476669
0.000137393
0.000143154
0.000192072
0.000171223
0.0334656
0.0109608
0.000151829
0.0180313
0.00013558
0.000143852
0.0057779
0.0001401
0.000145413
0.00770318
0.00017208
0.0292339
0.000137959
0.0203184
0.00029065
0.00013938
0.000134886
0.0151324
0.000146173
0.000137956
0.000135182
0.00805114
0.000140431
0.0140453
0.000170994
0.000147868
0.0140353
0.00294049
0.000137997
0.00912069
0.0183035
0.0130106
0.000146502
0.000140807
0.00422884
0.000162056
0.00459588
0.000128735
0.000150034
0.0001349
0.000136091
0.000146522
0.000145373
0.000161584
0.000149708
0.000137567
0.000133583
0.000235356
0.00660353
0.0311903
0.000190791
0.0163487
0.0108522
0.0124138
0.000140874
0.000437578
0.000280946
0.000976169
0.000145214
0.0226399
0.000147535
0.000139081
0.000128035
0.0214023
0.000157075
0.000131593
0.000167627
0.000230118
0.00164095
0.000370896
0.014089
0.0338159
0.000150256
0.0152113
0.0251863
0.0127346
0.000132119
0.000149217
0.000188473
0.000135293
0.001268
0.000203431
0.000152607
0.00394195
0.00019345
0.000158472
0.000161179
0.000137586
0.000143487
0.000148824
0.000143348
0.000132284
0.000140823
0.000139979
0.0155425
0.000145045
0.0123814
0.000149971
0.000161533
0.000284916
0.000141491
0.000143084
0.00257281
0.0039642
0.000145119
0.00013933
0.000148816
0.00013727
0.000668332
0.000142452
0.000144371
0.000179117
0.000137563
0.0256935
0.0278209
0.0115716
0.000143978
0.00658153
0.0215743
0.000170763
0.000150305
0.000232709
0.000144329
0.0309149
0.00015989
0.000164449
0.000167939
0.000144907
0.000148908
0.000141413
0.000195703
0.0233157
0.0245693
0.000155052
0.000127986
0.00014332
0.0402194
0.0131312
0.000146862
0.0270238
0.000137195
0.0021229
0.000206128
0.00412654
0.000152847
0.000202774
0.0127221
0.00014447
0.00018678
0.0134354
0.000128878
0.000195688
0.0148249
0.000141584
0.000155992
0.0259609
0.000271124
0.000150873
0.000133309
0.0371923
0.0220341
0.00468076
0.000193535
0.000157658
0.000138833
0.000428339
0.000139403
0.000148256
0.000141431
0.000132661
0.000141092
0.000150963
0.00157564
0.000142668
0.00344763
0.000143178
0.0283891
0.000140979
0.0196529
0.000142087
0.00166739
0.000146141
0.029284
0.000160794
0.0280593
0.00284377
0.00631624
0.000211198
0.000162375
0.00119982
0.0196061
0.000143609
0.0377993
0.000132966
0.00015299
0.000236097
0.000146243
0.000142974
0.000164223
0.000144043
0.0288914
0.000128959
0.000144382
0.000159786
0.000185041
0.000143242
0.000172798
0.000156376
0.0320296
0.0222843
0.000132392
0.000140163
0.0235185
0.000203565
0.000141328
0.000161126
0.00014325
0.0294655
0.00713688
0.000161119
0.000147645
0.000133233
0.000150557
0.0149732
0.000142108
0.000149419
0.000164886
0.000137919
0.000145214
0.0163353
0.0137831
0.000140141
0.000146845
0.0192741
0.0118543
0.00428578
0.000199657
0.000142511
0.0221363
0.000182989
0.0273301
0.000140165
0.000177967
0.000179629
0.000158608
0.000141214
0.00904965
0.0141035
0.000167301
0.000145674
0.0110847
0.000178382
0.000134646
0.000142068
0.00384399
0.000155706
0.000205024
0.0186632
0.000150856
0.0162571
0.0212717
0.0282308
0.00541159
0.0114402
0.00014372
0.000146028
0.000149937
0.012947
0.0256258
0.000132205
0.0136145
0.000142124
0.000150014
0.00306875
0.000130769
0.000202248
0.000132304
0.00980605
0.000159078
0.00013803
0.000140709
0.0153833
0.00921279
0.000167799
0.0101929
0.0136897
0.0151257
0.000192555
0.000157393
0.000130679
0.00014315
0.000142915
0.000551815
0.0058729
0.00014027
0.00014559
0.000150967
0.026886
0.0148755
0.0135674
0.000143357
0.000184349
0.000158233
0.000140465
0.000148235
0.020171
0.0278396
0.0361232
0.000163081
0.000194106
0.036379
0.000181799
0.0082853
0.000136753
0.000170026
0.000162409
0.000169853
0.000178773
0.00409471
0.00018419
0.000150742
0.000182888
0.000798045
0.000149598
0.000136696
0.000138814
0.00396256
0.000149401
0.0131076
0.000132553
0.0226604
0.000198679
0.000144495
0.000140741
0.0285155
0.00015682
0.00666263
0.000142878
0.000139086
0.000183987
0.000156972
0.0273364
0.000139157
0.000143095
0.000148857
0.000193126
0.000144607
0.0293625
0.000144322
0.000139004
0.000145109
0.0137862
0.0206404
0.00259882
0.000157471
0.0269146
0.000158971
0.000149005
0.000152737
0.000175215
0.000150877
0.000372075
0.000149056
0.00915922
0.000148618
0.000145332
0.00014892
0.000146808
0.000140277
0.0105364
0.000139973
0.00012891
0.037455
0.0206522
0.00014046
0.000158564
0.000150299
0.00109532
0.000148624
0.00372608
0.000161859
0.00718617
0.000155473
0.000157161
0.000150864
0.000156106
0.000782804
0.000203374
0.000138707
0.000343673
0.00364224
0.0107417
0.000166293
0.000139531
0.000156954
0.000167636
0.000167318
0.00015044
0.0168507
0.000143023
0.000140038
0.0281991
0.000157437
0.000159184
0.0401318
0.00387771
0.0153809
0.0208766
0.0172815
0.000144868
0.0260616
0.000332267
0.000142904
0.000181908
0.00022916
0.0194619
0.018058
0.00107897
0.000157307
0.0342172
0.00240575
0.000147187
0.000164481
0.000164075
0.000191021
0.00696753
0.000141175
0.000147523
0.000144215
0.00704853
0.000139934
0.000140224
0.000274926
0.000193885
0.000141769
0.0071187
0.000146546
0.000206166
0.000140176
0.00272156
0.000189897
0.00307783
0.000145369
0.000191915
0.000158807
0.0153448
0.000150644
0.000150474
0.000146512
0.000141939
0.000173659
0.00022401
0.000189608
0.000191338
0.0133733
0.000140487
0.0265339
0.00318181
0.000129814
0.000132283
0.00967239
0.000139611
0.000216849
0.000158223
0.00016289
0.000137504
0.000181937
0.000196583
0.000158502
0.000163658
0.0261305
0.000149693
0.000147312
0.000136139
0.000193068
0.000236237
0.000152848
0.00847683
0.000143464
0.000128852
0.000144732
0.000143021
0.000155779
0.000143013
0.000149165
0.00014583
0.000133039
0.000158474
0.000129742
0.000176484
0.000163936
0.00654625
0.000161446
0.043031
0.0304783
0.000164686
0.000190631
0.000154527
0.00597055
0.0112367
0.000161533
0.000145498
0.000178101
0.000179467
0.0196972
0.000160482
0.0134148
0.00653263
0.000150692
0.0378264
0.000174071
0.022445
0.00015418
0.000154221
0.000147123
0.00265492
0.000155747
0.000204961
0.0267164
0.000127891
0.00131605
0.000165898
0.000193057
0.000137791
0.000134905
0.000204285
0.0191037
0.000165582
0.000129052
0.00851064
0.000156151
0.000151286
0.000145466
0.000172488
0.000146237
0.000163677
0.000130046
0.000690368
0.000186347
0.000184481
0.000202381
0.0215266
0.000129992
0.00206501
0.000147722
0.000151823
0.000142066
0.0331856
0.000151647
0.000151316
0.000165105
0.00015041
0.0272611
0.00238155
0.000140245
0.000152943
0.000142504
0.000185764
0.00013871
0.0111685
0.000136113
0.000190464
0.000145343
0.000145795
0.000142961
0.031771
0.0220835
0.00261444
0.0343096
0.0263331
0.000149902
0.0210083
0.0161069
0.010594
0.000157598
0.000184626
0.000137234
0.0257875
0.000149157
0.000135072
0.000154742
0.000161673
0.000173259
0.00571282
0.000141811
0.0209431
0.000160486
0.035017
0.0191511
0.000155788
0.00495555
0.00254354
0.000139822
0.000160895
0.000164012
0.000140823
0.000151382
0.0264791
0.000313715
0.0280489
0.00014775
0.00776501
0.000145171
0.00299077
0.0237379
0.0111497
0.0162331
0.000211179
0.000157667
0.0304212
0.0231759
0.000160302
0.000218866
0.0144431
0.000139866
0.000137147
0.0219139
0.000176897
0.000131036
0.000144045
0.000142438
0.000149341
0.00232961
0.000140594
0.00653584
0.0384652
0.00014241
0.000151723
0.000149284
0.000128962
0.000165762
0.000167403
0.000400722
0.000135068
0.000142878
0.000165263
0.00264936
0.0248738
0.000177897
0.000211838
0.000144158
0.000149337
0.00373634
0.00014713
0.000200482
0.000201771
0.000178833
0.000224002
0.0165267
0.000141202
0.000154083
0.000180478
0.000150825
0.000142438
0.000211372
0.000152446
0.0001519
0.000145131
0.000146552
0.00014417
0.000918326
0.000183625
0.000208482
0.00090256
0.000149943
0.000194844
0.00253542
0.0145649
0.00015057
0.000152573
0.000151758
0.000142432
0.000152872
0.0303271
0.000147029
0.00013986
0.0250709
0.000147307
0.0210041
0.000130997
0.000142356
0.000158535
0.000191184
0.00171866
0.000142903
0.000130643
0.00427137
0.000147893
0.000192452
0.00537393
0.0300342
0.000151675
0.000151542
0.000179647
0.0315141
0.0343068
0.000171709
0.000157024
0.000139434
0.0010753
0.00187354
0.0147598
0.000150003
0.0145586
0.00014033
0.00466617
0.000188654
0.000199092
0.000165934
0.011904
0.000145561
0.0271767
0.000152996
0.0001499
0.000188106
0.0295382
0.000151943
0.000620049
0.000141461
0.000207718
0.000153816
0.00423956
0.000140957
0.000178579
0.00381478
0.000145258
0.000144506
0.000235269
0.0356772
0.00373378
0.000232182
0.000187115
0.000155523
0.000149712
0.00823232
0.000150063
0.000147461
0.000157132
0.0227765
0.0262589
0.0161364
0.000196599
0.000145829
0.00015574
0.000152977
0.000131348
0.000189204
0.0308961
0.000185675
0.000175975
0.000139113
0.00217514
0.000143317
0.000583566
0.0162391
0.000197825
0.000150053
0.000137526
0.0145816
0.000143905
0.00017534
0.000167686
0.00018395
0.00013913
0.00896783
0.000175652
0.000148544
0.000190476
0.0282383
0.000191624
0.0163604
0.000146943
0.0286004
0.00356675
0.000128801
0.000146569
0.000137987
0.022495
0.0136163
0.000182463
0.00618615
0.00471689
0.000149434
0.000144022
0.000139953
0.000149603
0.0291762
0.00148005
0.000146451
0.000192104
0.000158006
0.000164598
0.000144451
0.000153299
0.00426783
0.000150382
0.000150945
0.000149813
0.000140327
0.000144847
0.000139549
0.000189076
0.000143559
0.00222486
0.000192253
0.000142737
0.000171128
0.000163829
0.0128891
0.000140035
0.0129449
0.000160626
0.00197829
0.000162283
0.00388357
0.0246511
0.000144263
0.00164754
0.00425894
0.000142325
0.000166821
0.000367257
0.000191287
0.0146972
0.000143268
0.000146505
0.000326552
0.000150759
0.000179973
0.00117924
0.000189853
0.0328692
0.000143248
0.010828
0.0293726
0.000143901
0.0281508
0.00103155
0.0229986
0.00019327
0.0308485
0.000142571
0.00313414
0.0150996
0.000537822
0.022769
0.000823941
0.00427283
0.000142994
0.000165317
0.000155319
0.0157076
0.000192841
0.00402947
0.000134288
0.0102335
0.000144053
0.000136074
0.000144568
0.000176817
0.0001571
0.000152722
0.00014287
0.000132935
0.0014719
0.000152141
0.00180101
0.000147832
0.00508134
0.00013799
0.000128767
0.0273415
0.00014991
0.00081194
0.000200453
0.000152796
0.0142447
0.000185332
0.00418438
0.000164691
0.0258121
0.000143683
0.000150264
0.00013719
0.000160352
0.0137879
0.0164989
0.00300377
0.000153771
0.000133981
0.0248192
0.000145451
0.0231938
0.000144249
0.00014546
0.000142483
0.000167327
0.000656926
0.0128808
0.000147768
0.000150646
0.00343995
0.000128705
0.00992623
0.00274647
0.000163058
0.00022284
0.000164621
0.000177085
0.0282886
0.000150491
0.00676879
0.000191864
0.00014505
0.0233563
0.0162541
0.000142626
0.000144688
0.00014363
0.000149735
0.000232025
0.00467073
0.00974875
0.000135661
0.000141027
0.000144017
0.000148211
0.000147747
0.000157746
0.000600934
0.000144684
0.000144548
0.00513848
0.0312873
0.000207301
0.000656268
0.00700486
0.00014082
0.000327593
0.0294402
0.0280533
0.00425636
0.000149535
0.000221468
0.000199885
0.000143334
0.00384541
0.00586537
0.000130263
0.0435763
0.000152007
0.000143236
0.00391568
0.00014363
0.00651916
0.00138214
0.000139688
0.0228409
0.000165434
0.000152582
0.0243366
0.0141073
0.000141305
0.000140253
0.000142818
0.000147946
0.000154372
0.0124837
0.000147271
0.000139587
0.000213928
0.021773
0.00660611
0.000184672
0.000143296
0.00416047
0.00020204
0.0372588
0.000142127
0.000139675
0.000149703
0.000151248
0.00021237
0.000162715
0.000130186
0.000193761
0.00373338
0.000145272
0.000137666
0.0001655
0.00014879
0.0104481
0.0149107
0.000155599
0.000154945
0.000135692
0.000148924
0.000150795
0.000142318
0.000147414
0.000146586
0.00340218
0.000144211
0.000372079
0.00014228
0.00242406
0.000152348
0.0118688
0.0207129
0.0173448
0.00296247
0.0267534
0.000189139
0.015258
0.00336691
0.000193072
0.011296
0.000151685
0.000519043
0.0274415
0.00033761
0.000135038
0.00372896
0.000142708
0.000178528
0.0278025
0.000206185
0.000144927
0.000140665
0.000144288
0.000152541
0.0120903
0.00823865
0.000149293
0.0275461
0.000180401
0.0413643
0.00013711
0.000201756
0.000192501
0.000170061
0.000230515
0.0342291
0.000152441
0.00014677
0.000199416
0.000193601
0.0319649
0.000142499
0.000136061
0.000149236
0.0159866
0.00422473
0.000145539
0.000147905
0.000144695
0.000142282
0.0138689
0.00299581
0.000178575
0.00613155
0.000142435
0.0291388
0.00432793
0.000380865
0.000153718
0.000185308
0.00479874
0.017537
0.000137568
0.0271374
0.0267702
0.000157423
0.000147235
0.0400783
0.000159071
0.0338883
0.00926773
0.000148104
0.000140853
0.000155904
0.000150228
0.000143275
0.000154347
0.000191339
0.000139896
0.00014247
0.000152989
0.000151211
0.000139102
0.0161801
0.000159485
0.0335803
0.00014604
0.000183093
0.000140784
0.000155338
0.0229385
0.000157394
0.000145214
0.000153889
0.000167355
0.00017516
0.0149066
0.00252696
0.0131148
0.0141963
0.0284471
0.0122245
0.00343544
0.000193893
0.000168035
0.000136992
0.000145605
0.00410557
0.000142758
0.00015462
0.000137018
0.000145811
0.000140088
0.000139707
0.000146769
0.000143307
0.0206626
0.000151365
0.000149362
0.000140011
0.000155411
0.00457575
0.000156367
0.000177191
0.000178935
0.00015548
0.0042641
0.000141561
0.000166726
0.000141862
0.000161443
0.000146573
0.000218281
0.0118558
0.000191968
0.00015164
0.000142392
0.00543117
0.000147322
0.000195443
0.000142839
0.000210739
0.0170083
0.000197407
0.000153021
0.000190472
0.000147479
0.00325776
0.00017628
0.00051903
0.000223192
0.00235694
0.0158388
0.027496
0.000142396
0.000139534
0.000145589
0.00851147
0.00014329
0.000251881
0.000182492
0.000149986
0.0273273
0.0129312
0.000140668
0.000136581
0.000277399
0.00773921
0.004541
0.000143427
0.0066964
0.000131771
0.000252809
0.000175116
0.000169127
0.000155632
0.0194414
0.000141448
0.0202998
0.000170297
0.0121005
0.0261239
0.000188936
0.000156808
0.000162111
0.000138617
0.000164894
0.00014255
0.000164448
0.00014886
0.0226632
0.000142865
0.000148933
0.000136931
0.0318992
0.00013937
0.0290509
0.00325038
0.000197008
0.0135335
0.000193257
0.000204838
0.000149988
0.000158275
0.000141277
0.0126717
0.0199136
0.0288227
0.000209382
0.00185858
0.00019377
0.0272375
0.000129377
0.0164974
0.0164039
0.000258822
0.000148653
0.00291946
0.00529657
0.00321062
0.000145163
0.000177961
0.0106632
0.000134187
0.0241164
0.000150901
0.000176591
0.000153091
0.000181875
0.000127902
0.000132437
0.000129333
0.000166811
0.00014681
0.001065
0.000147809
0.000139161
0.00582498
0.000143047
0.000164271
0.00016165
0.000144439
0.013016
0.000163368
0.000150543
0.000142521
0.000150109
0.00823618
0.000142642
0.000139474
0.000178359
0.0133303
0.000153488
0.000200038
0.000134325
0.000200141
0.000151611
0.000151634
0.00677038
0.000176366
0.0218918
0.000147874
0.000196473
0.000153461
0.0200839
0.0149587
0.000148895
0.0381881
0.000382479
0.000139369
0.00744365
0.000163409
0.00015874
0.000184787
0.000148892
0.000141611
0.000155204
0.000197642
0.000153152
0.000185113
0.000174347
0.00019861
0.000132718
0.000190904
0.000145357
0.0211667
0.000185251
0.000142538
0.0147656
0.000141551
0.000139021
0.000237284
0.0110907
0.00298463
0.000205773
0.0030343
0.000241894
0.000142914
0.000145794
0.000197467
0.00439199
0.000150017
0.000194889
0.000151043
0.000145243
0.0433905
0.000173561
0.000185789
0.000182137
0.0344918
0.000129609
0.00017633
0.000154095
0.000205736
0.00843388
0.00664551
0.000145057
0.000150404
0.0360115
0.000155543
0.0125311
0.00629455
0.000144556
0.000184709
0.000307871
0.000137853
0.01505
0.000154485
0.02406
0.0260887
0.000147085
0.000172151
0.000146905
0.000142674
0.00016397
0.029892
0.000132459
0.00015638
0.030218
0.000145745
0.000105244
0.0365445
0.000145547
0.0136261
0.000144219
0.000150793
0.000134983
0.000141171
0.000193559
0.000151181
0.000193797
0.000155799
0.000145861
0.000191673
0.0347776
0.00015465
0.00051143
0.0134447
0.00429023
0.000146814
0.000151126
0.000402899
0.000142324
0.000148169
0.0247018
0.000197195
0.000158542
0.000146332
0.000154284
0.000194697
0.000143741
0.000142869
0.0326414
0.000781055
0.000130499
0.000141377
0.00211074
0.0318104
0.000147971
0.000152434
0.000295259
0.000198351
0.0195614
0.000137386
0.0142763
0.000153965
0.000153625
0.0246649
0.00932908
0.000191342
0.00427678
0.000141879
0.0118617
0.000153089
0.00309469
0.000720397
0.000145345
0.0287499
0.000150442
0.000136073
0.000178192
0.000701969
0.00640653
0.0114526
0.000144424
0.000192916
0.000177957
0.000157266
0.000150662
0.000147702
0.000149528
0.0237182
0.0403676
0.0318471
0.0233132
0.000155605
0.000169633
0.018469
0.000157252
0.000141027
0.000155242
0.0378864
0.000155762
0.0200993
0.00421906
0.00852822
0.000158527
0.0144297
0.000167021
0.000193809
0.00728487
0.0169704
0.00579464
0.000192268
0.000144503
0.0233995
0.000136843
0.0245401
0.000136232
0.000140787
0.000148588
0.000612395
0.000796057
0.015225
0.000170723
0.00984494
0.000143944
0.000174624
0.000136627
0.000195101
0.0193891
0.000232332
0.0197583
0.0208482
0.00506577
0.00306933
0.000149184
0.0181419
0.000147941
0.0262192
0.00279561
0.000156035
0.000144267
0.00437362
0.000196549
0.000130472
0.000144125
0.0165746
0.000137327
0.000147616
0.000194129
0.000236897
0.000133148
0.000196662
0.000175785
0.00720809
0.0116823
0.000145689
0.000139261
0.00183276
0.000144365
0.000203053
0.000174549
0.0125928
0.000162733
0.000168052
0.000139595
0.00012884
0.0142955
0.000173677
0.000182029
0.00015228
0.00882071
0.000208769
0.0040744
0.00315526
0.000150704
0.00169596
0.000142728
0.000166991
0.000157854
0.0262468
0.000136982
0.000138358
0.0253745
0.00020366
0.0249988
0.000158076
0.023966
0.000374337
0.000153579
0.0117902
0.000150718
0.0001965
0.00261583
0.0150931
0.000143657
0.00461307
0.00293326
0.024614
0.0123591
0.0153214
0.00015562
0.0245487
0.000187136
0.00260001
0.000182441
0.000161914
0.000130541
0.000187724
0.000140727
0.00905345
0.000161197
0.000149891
0.000149668
0.000212469
0.00203225
0.000142269
0.00426267
0.000192263
0.000260254
0.0166803
0.00911133
0.000149851
0.0128835
0.0001326
0.00353347
0.0304448
0.0265816
0.000143949
0.00020301
0.000143519
0.028278
0.00017079
0.000844925
0.000167427
0.0167059
0.000190393
0.0307414
0.000137591
0.00857146
0.000698402
0.000147386
0.000184311
0.0271131
0.00014695
0.000145108
0.000166835
0.00294895
0.000143422
0.000142441
0.000140768
0.00421938
0.000165541
0.000191902
0.000240207
0.00016339
0.000156203
0.000127851
0.000137064
0.000135872
0.00274554
0.0290898
0.000141439
0.000156346
0.000144829
0.000189649
0.000149634
0.0119555
0.000149796
0.0259638
0.00367945
0.000147714
0.000201903
0.000221204
0.000140701
0.000131403
0.000203922
0.0143177
0.000139452
0.000786671
0.0430189
0.000478251
0.0225347
0.0196306
0.000182788
0.000146916
0.0263565
0.000143822
0.000201732
0.000135267
0.0133356
0.000138076
0.0195404
0.000153509
0.0125996
0.000136134
0.0137242
0.000130938
0.000147664
0.000206016
0.000152433
0.000136969
0.000165745
0.0192617
0.000143981
0.0136399
0.000152608
0.0125655
0.00232633
0.0111825
0.0302616
0.000145587
0.000159121
0.0237684
0.0220323
0.000145131
0.000164769
0.000177888
0.00259482
0.000147767
0.0260983
0.00018744
0.000137619
0.0422737
0.0273234
0.000151057
0.0131739
0.000183803
0.00610959
0.0124634
0.000144755
0.000141583
0.00414246
0.000142854
0.0241686
0.000153225
0.010625
0.0264841
0.00013765
0.000208529
0.000130134
0.000207049
0.000145408
0.000165042
0.0290013
0.000145666
0.0276859
0.000151247
0.000146003
0.000204042
0.000147481
0.0312119
0.0012426
0.0297426
0.000222713
0.00882917
0.000154558
0.000141605
0.0302274
0.0297787
0.000136903
0.000906733
0.000146828
0.00013171
0.0248216
0.0036856
0.000159421
0.000140066
0.00014429
0.000134636
0.0117887
0.000144433
0.000601095
0.000167731
0.0121813
0.000197625
0.00023351
0.000141405
0.00319717
0.0119371
0.000205571
0.000148112
0.00927319
0.000128409
0.0217339
0.0235679
0.000137177
0.000186987
0.000171479
0.00016672
0.000157036
0.000158783
0.00810876
0.027505
0.000251018
0.000143028
0.0129269
0.000148403
0.0181682
0.000192038
0.000201124
0.0287615
0.000144688
0.00276981
0.000191318
0.000155934
0.0135353
0.027802
0.03207
0.000209599
0.000146944
0.000206682
0.00254223
0.000164955
0.00176056
0.0286978
0.0205339
0.0109292
0.000138606
0.000135047
0.000152833
0.000154657
0.000144456
0.000144185
0.000158239
0.00014944
0.000184963
0.0158483
0.000337663
0.000156902
0.0126572
0.000170575
0.00800261
0.0001524
0.000237122
0.000191737
0.0241991
0.0222724
0.000140084
0.0211105
0.0316981
0.000146517
0.000150173
0.0195192
0.0232093
0.00309812
0.000201244
0.000141109
0.000151698
0.00147271
0.000141819
0.000163719
0.0289572
0.000136585
0.000187021
0.0219877
0.0288751
0.000147915
0.000958558
0.000162892
0.000168824
0.0271099
0.000128468
0.000140734
0.000137422
0.00289589
0.0271432
0.000208128
0.000145334
0.00428412
0.000149277
0.000583156
0.00930784
0.000150813
0.000137914
0.000143456
0.0355091
0.00430552
0.0385651
0.000145533
0.0263206
0.0138909
0.00629395
0.000141434
0.000945276
0.00014594
0.000136526
0.000140748
0.012791
0.000189449
0.0148945
0.0001645
0.0178162
0.000129955
0.000147061
0.0276113
0.000164089
0.000143033
0.0180384
0.000160817
0.0342261
0.00419967
0.000146816
0.000136828
0.000145388
0.0320718
0.0227922
0.0167688
0.000190746
0.00018655
0.010037
0.0160158
0.00187213
0.00263255
0.000212124
0.000144705
0.00946435
0.00013792
0.000132546
0.000233708
0.0239833
0.000140311
0.000146744
0.00119446
0.000250755
0.000158305
0.0158128
0.000148774
0.000184586
0.000147886
0.0186378
0.0280476
0.000230357
0.000139063
0.000145807
0.0303113
0.0192953
0.0308441
0.000229741
0.0431277
0.0274729
0.039996
0.00226564
0.0271526
0.000146489
0.0023256
0.0305073
0.000179714
0.000140959
0.000151901
0.0317434
0.00014764
0.000137825
0.0219682
0.00014396
0.0216819
0.000128762
0.0182939
0.0126528
0.0130852
0.000138149
0.000144866
0.000152897
0.000130188
0.00383228
0.000152279
0.00334397
0.0177373
0.000897651
0.000189289
0.000180167
0.00459768
0.000199592
0.000145007
0.000150695
0.000270946
0.0247972
0.00277989
0.00412747
0.000170525
0.000166024
0.000128966
0.000197809
0.000148267
0.00259479
0.000192309
0.000204111
0.000144996
0.000161499
0.000202694
0.000174527
0.0373666
0.0179473
0.000137149
0.000149762
0.00014243
0.0179657
0.000144568
0.0110324
0.000159708
0.0352083
0.000135218
0.0287985
0.0136024
0.000131937
0.000143236
0.000191198
0.000190832
0.000177545
0.00594222
0.000136848
0.0136305
0.00881403
0.000140115
0.0158462
0.0019554
0.000189543
0.000162697
0.0339242
0.029252
0.0159108
0.00226797
0.00943776
0.000136062
0.00389146
0.000142966
0.000134595
0.0196109
0.00524268
0.0274501
0.00195213
0.00165866
0.000204786
0.000154036
0.000146283
0.000139265
0.0288673
0.000134902
0.000186894
0.00369053
0.028222
0.000128081
0.000136081
0.041485
0.000158708
0.0266325
0.000148832
0.000151897
0.000148845
0.000137375
0.000185908
0.00486239
0.00381056
0.0278237
0.000270201
0.00184639
0.00231194
0.0033345
0.0259164
0.000139487
0.00021177
0.000143514