/*--------------------------------*- C++ -*----------------------------------*\
| =========                 |                                                 |
| \\      /  F ield         | OpenFOAM: The Open Source CFD Toolbox           |
|  \\    /   O peration     | Version:  v2012                                 |
|   \\  /    A nd           | Website:  www.openfoam.com                      |
|    \\/     M anipulation  |                                                 |
\*---------------------------------------------------------------------------*/
FoamFile
{
    version     2.0;
    format      ascii;
    class       volScalarField;
    location    "400";
    object      k_0;
}
// * * * * * * * * * * * * * * * * * * * * * * * * * * * * * * * * * * * * * //

dimensions      [0 2 -2 0 0 0 0];


internalField   nonuniform List<scalar> 
27915
(
0.000158005
0.000192981
0.0270369
0.000139262
0.000145543
0.000162458
0.000132753
0.0235592
0.000144643
0.0415961
0.000174483
0.0429367
0.00470527
0.000132659
0.000136849
0.00013908
0.00327655
0.000147266
0.000204265
0.0236172
0.00448142
0.000152261
0.0194101
0.000146418
0.000139091
0.000136568
0.0225252
0.000145397
0.0129151
0.000157052
0.00014395
0.000173495
0.000135844
0.000135445
0.0280765
0.000135482
0.000152905
0.000136566
0.000194034
0.000145665
0.000155051
0.000152405
0.000210583
0.000140103
0.0158599
0.000145913
0.000141779
0.000169274
0.000148564
0.000141832
0.0253541
0.000199755
0.0200604
0.000157219
0.000158114
0.000141739
0.000142679
0.00499917
0.00510145
0.000143789
0.000257537
0.000163706
0.0167707
0.00582831
0.000145501
0.000196509
0.0433791
0.0253438
0.0280616
0.000143615
0.000304891
0.000146637
0.000147319
0.00518701
0.0402196
0.00100856
0.000156815
0.000133922
0.00754239
0.000233026
0.000161979
0.000147354
0.000165338
0.0204494
0.03054
0.0106374
0.000135025
0.000251764
0.0234435
0.000210925
0.00014858
0.00460525
0.000141535
0.0222787
0.0122124
0.0285752
0.000249867
0.0403093
0.000163348
0.000128872
0.000162051
0.000136423
0.0397808
0.00014884
0.000159341
0.000147309
0.026434
0.000196835
0.000136422
0.0347403
0.0247541
0.000154759
0.000424941
0.00395854
0.000196148
0.000199256
0.0249691
0.000172667
0.000148738
0.000148716
0.000148335
0.000354657
0.000135999
0.000152212
0.000146701
0.0206938
0.0341134
0.0142528
0.000144523
0.000142766
0.00016355
0.0216352
0.0218324
0.000415416
0.0265289
0.000191817
0.0133846
0.000135111
0.000143023
0.00014786
0.000169488
0.000158245
0.000155514
0.00367162
0.0277912
0.026742
0.0133113
0.000168246
0.00116894
0.000165595
0.0241147
0.000134922
0.000141506
0.013411
0.00028313
0.0278653
0.0148933
0.000140628
0.000143803
0.000151036
0.000154903
0.00920559
0.000139996
0.000210533
0.00451099
0.000144429
5.97381e-05
0.0249677
0.0412158
0.000152707
0.000166424
0.000147717
0.000146502
0.00017047
0.000132024
0.0111852
0.0341531
0.00014808
0.000141054
0.00432603
0.0225687
0.000178769
0.000156659
0.0280278
0.000191981
0.000461917
0.000143294
0.000141966
0.0188916
0.00013497
0.0251644
0.000178693
0.000556108
0.000148001
0.000129557
0.000146878
0.000555234
0.00027974
0.000151014
0.000163583
0.0205762
0.0233027
0.000140275
0.000148714
0.0117841
0.0150619
0.000191377
0.000186677
0.0132769
0.000144965
0.000164797
0.0259833
0.00015045
0.000144472
0.000147265
0.000157941
0.000181128
0.00016601
0.000142933
0.000146978
0.000146018
0.000147663
0.000158514
0.000143289
0.0112473
0.0030561
0.000140327
0.00616031
0.00014341
0.000135573
0.0132781
0.000221943
0.0251825
0.0250624
0.00465692
0.00014808
0.0299594
0.000158415
0.000156839
0.000139247
0.00690433
0.000152446
0.000271557
0.0225902
0.000144314
0.000140643
0.0127196
0.00553983
0.000160402
0.000451079
0.000157734
0.0301936
0.000130807
0.000144119
0.000146947
0.000238318
0.0001578
0.00014376
0.000178535
0.026152
0.0301222
0.000195715
0.000207942
0.000237617
0.000207211
0.000955734
0.000138155
0.026074
0.0307135
0.0263388
0.000148531
0.013318
0.0134735
0.00487049
0.000159991
0.00013818
0.000149671
0.000152071
0.000137516
0.000151797
0.0001428
0.000129186
0.000133796
0.000206115
0.0105983
0.0342544
0.00786311
0.0170502
0.00015718
0.0318707
0.000239635
0.000146886
0.00983208
0.000146963
0.000149569
0.000194715
0.00977441
0.0245879
0.000167425
0.000146718
0.000241158
0.000169071
0.000141597
0.000151042
0.0103895
0.0151982
0.000164021
0.000141514
0.00882986
0.00015021
0.0115399
0.000147219
0.0271359
0.000143702
0.00967832
0.000149456
0.000128915
0.0222783
0.0156121
0.0163592
0.000227047
0.00012869
0.000138366
0.000146321
0.000196296
0.000166567
0.000281117
0.0142168
0.00014306
0.000137795
0.000140635
0.000250016
0.000146778
0.000141746
0.00982359
0.000131337
0.000200753
0.000137681
0.0278656
0.00442359
0.000157033
0.00686324
0.0133109
0.0186162
0.000131231
0.000142017
0.000147042
0.0339266
0.0349302
0.000146846
0.000146199
0.00013941
0.0207154
0.000193338
0.000176432
0.000157511
0.000180747
0.00014135
0.000139409
0.00442722
0.000183779
0.000148986
0.000150097
0.000133891
0.000140407
0.00373909
0.000165757
0.000138512
0.00014359
0.000139657
0.0167927
0.000131641
0.000189775
0.00014978
0.0322903
0.000131922
0.000135633
0.000193921
0.000168218
0.000130872
0.000165364
0.000203774
0.00016538
0.0197636
0.0138957
0.00017852
0.00482325
0.000203676
0.000148147
0.00505711
0.000145078
0.0115755
0.0351155
0.000138552
0.0426516
0.00019192
0.000164656
0.00015936
0.00014406
0.0243617
0.00013951
0.00016398
0.0119279
0.000148898
0.000208158
0.000152061
0.000201843
0.000142685
0.0264702
0.000191815
0.021267
0.000169917
0.000138568
0.00013946
0.0413756
0.000146589
0.000192485
0.000149453
0.000191117
0.000155366
0.00013111
0.000145095
0.000161434
0.0259815
0.0117585
0.000151754
0.000138448
0.0148911
0.031806
0.000144028
0.024977
0.000150633
0.00233625
0.000163104
0.000139149
0.000139191
0.000143272
0.000156395
0.000238151
0.000200936
0.0253866
0.000204751
0.000193064
0.000191154
0.000143322
0.000152822
0.0145506
0.000148703
0.000211457
0.000129747
0.0254404
0.0124645
0.000137726
0.000158441
0.0241334
0.00391567
0.0276784
0.000141034
0.000166053
0.0125917
0.000138322
0.000168399
0.00628407
0.000152866
0.0147034
0.0237377
0.000147531
0.000140274
0.000246236
0.00401909
0.000140137
0.000161166
0.000248653
0.000139603
0.000210447
0.000164911
0.000140305
0.000140488
0.000175079
0.000172226
0.000600586
0.000169843
0.0076709
0.0112108
0.00585508
0.000151756
0.000164253
0.000224631
0.000182127
0.00013743
0.000779996
0.00306309
0.000205662
0.000149478
0.0181905
0.000173365
0.00015536
0.021654
0.0232069
0.0161703
0.000140581
0.00014886
0.0106962
0.0228939
0.0112985
0.0149554
0.000139199
0.000150744
0.0131482
0.0251287
0.000140108
0.000190428
0.000199742
0.0138359
0.0154895
0.0165029
0.0285222
0.00013897
0.000189751
0.000165649
0.000147407
0.000137671
0.00013991
0.0118193
0.000128521
0.00403731
0.00015681
0.0333053
0.0048549
0.017078
0.000129218
0.022141
0.022793
0.000195393
0.000166549
0.000171326
0.0307409
0.000143634
0.00019012
0.000143183
0.000143506
0.000210249
0.000145246
0.00489124
0.000144126
0.0300611
0.000139532
0.0338955
0.000137859
0.00567686
0.000143648
0.000149506
0.000181931
0.015155
0.000173619
0.000182792
0.00988693
0.0293228
0.000230518
0.000140693
0.0147243
0.0408171
0.000196678
0.000165301
0.000145628
0.00014952
0.0112475
0.000138964
0.0243293
0.000147513
0.000193732
0.0160441
0.000171125
0.0274444
0.000135147
0.00428498
0.00765845
0.00156035
0.000474764
0.000137394
0.000143154
0.000192067
0.000171223
0.0334618
0.0109747
0.000151829
0.0180298
0.00013558
0.000143852
0.00577794
0.0001401
0.000145413
0.00780296
0.00017208
0.0291771
0.000137959
0.020316
0.000289499
0.00013938
0.000134886
0.0151375
0.000146174
0.000137956
0.000135182
0.00817938
0.000140431
0.0140281
0.000170993
0.000147868
0.0140354
0.00303284
0.000137997
0.00910635
0.0183148
0.0130099
0.000146502
0.000140807
0.00422637
0.000162056
0.00459312
0.000128735
0.000150035
0.0001349
0.000136095
0.000146523
0.000145372
0.000161583
0.000149698
0.000137567
0.000133583
0.000235336
0.00660406
0.0311887
0.000190793
0.0163539
0.0108501
0.012414
0.000140874
0.000436663
0.000280813
0.000959006
0.000145214
0.0225905
0.000147535
0.000139081
0.000128035
0.0213848
0.000157075
0.000131593
0.000167627
0.000230119
0.00162836
0.000370407
0.0140795
0.033812
0.000150256
0.0152144
0.0252236
0.0127326
0.000132119
0.000149217
0.000188188
0.000135293
0.00133175
0.00020344
0.000152607
0.0039436
0.000193464
0.000158472
0.000161179
0.000137586
0.000143487
0.000148824
0.000143348
0.000132284
0.000140823
0.000139979
0.015552
0.000145045
0.0123813
0.000149972
0.000161533
0.000284702
0.000141491
0.000143084
0.00252116
0.0039667
0.000145119
0.000139331
0.000148816
0.000137274
0.000668996
0.000142452
0.000144371
0.000179115
0.000137563
0.0257149
0.0278226
0.0115732
0.000143978
0.00657079
0.0215638
0.000170759
0.000150305
0.000232947
0.000144329
0.0309126
0.000159894
0.000164449
0.000167939
0.000144907
0.000148908
0.000141413
0.00019571
0.0233029
0.0245662
0.000155071
0.000127986
0.00014332
0.0402136
0.0131321
0.000146862
0.026995
0.000137194
0.00209289
0.000206139
0.00421635
0.000152847
0.000202745
0.0127188
0.00014447
0.000186783
0.0134265
0.000128878
0.000195694
0.0148248
0.000141584
0.000155992
0.0259606
0.000270653
0.000150873
0.000133309
0.0372456
0.021975
0.00463596
0.000193535
0.000157658
0.000138833
0.00043045
0.000139403
0.000148256
0.000141431
0.000132661
0.000141092
0.000150962
0.00158041
0.000142663
0.0034443
0.000143178
0.0283944
0.000140979
0.0196533
0.000142087
0.001653
0.000146141
0.0292814
0.000160794
0.0280588
0.00283551
0.00631591
0.00021121
0.000162391
0.00120206
0.0196031
0.000143609
0.0378468
0.000132966
0.00015299
0.000236169
0.000146242
0.000142974
0.000164223
0.000144043
0.0290404
0.000128959
0.000144382
0.000159786
0.000185043
0.000143242
0.000172794
0.000156375
0.032023
0.0222819
0.000132392
0.000140163
0.023484
0.000203565
0.000141328
0.000161126
0.00014325
0.029367
0.00713651
0.000161119
0.000147645
0.000133233
0.000150556
0.0149786
0.000142108
0.000149414
0.000164891
0.000137919
0.000145213
0.0163336
0.0137695
0.000140141
0.000146845
0.0192813
0.0118558
0.00427382
0.000199656
0.000142511
0.0221314
0.000182966
0.0272975
0.000140165
0.000177968
0.000179632
0.000158612
0.000141214
0.00905007
0.0141053
0.000167245
0.000145673
0.0110943
0.000178383
0.000134649
0.000142068
0.00392793
0.000155709
0.000205034
0.0186601
0.000150856
0.0162645
0.0212374
0.0282676
0.00542085
0.0114495
0.000143721
0.000146027
0.000149938
0.0129477
0.0256254
0.000132205
0.0135998
0.000142124
0.000150014
0.00303695
0.000130769
0.000202246
0.000132304
0.00980543
0.00015907
0.00013803
0.000140709
0.0153828
0.00921735
0.000167808
0.0101992
0.0136779
0.0151221
0.000192554
0.000157393
0.000130679
0.00014315
0.000142913
0.000545199
0.00587875
0.00014027
0.000145588
0.000150967
0.026871
0.0150154
0.0135658
0.000143357
0.000184347
0.000158232
0.000140464
0.000148235
0.020119
0.027838
0.0361186
0.000163081
0.000194112
0.036375
0.000181777
0.00829238
0.000136753
0.000170026
0.000162417
0.000169853
0.000178774
0.00408598
0.000184188
0.000150742
0.000182887
0.000795526
0.000149598
0.000136696
0.000138814
0.00397783
0.000149401
0.0131015
0.000132553
0.0226583
0.000198677
0.000144494
0.000140741
0.0285217
0.000156819
0.00665001
0.000142878
0.000139086
0.000184045
0.00015704
0.0272863
0.000139157
0.000143095
0.000148857
0.000193128
0.000144607
0.0293401
0.000144322
0.000139004
0.000145109
0.0137878
0.0206524
0.00254693
0.000157471
0.0269894
0.000158971
0.000149005
0.000152737
0.000175216
0.000150877
0.000369156
0.00014906
0.00915171
0.000148618
0.000145332
0.00014892
0.000146808
0.000140277
0.0106299
0.000139973
0.00012891
0.0374505
0.0205909
0.00014046
0.000158564
0.000150299
0.00107589
0.000148626
0.00371244
0.000161866
0.00719303
0.000155499
0.000157161
0.000150864
0.000156124
0.000785164
0.000203459
0.000138707
0.000332119
0.00370553
0.0107542
0.000166293
0.00013953
0.000156954
0.000167658
0.000167318
0.000150441
0.0168472
0.000143023
0.00014004
0.0281755
0.000157437
0.000159184
0.0401265
0.00386461
0.0153851
0.0208815
0.0172886
0.000144868
0.0260403
0.000334475
0.000139036
0.000181929
0.000228992
0.019459
0.0180546
0.00108125
0.000157307
0.0342136
0.00246285
0.000147187
0.000164481
0.000164075
0.000191017
0.00696768
0.000141172
0.000147523
0.000144215
0.00705791
0.000139934
0.000140224
0.000274217
0.000193929
0.000141769
0.00710844
0.000146546
0.000206177
0.000140176
0.00274358
0.000189907
0.00306969
0.000145368
0.000191928
0.000158807
0.0153453
0.000150644
0.000150474
0.000146512
0.000141939
0.000173659
0.000223837
0.000189706
0.000191344
0.0133718
0.000140488
0.0265252
0.0032043
0.000129814
0.000132283
0.00963742
0.000139611
0.000216777
0.000158223
0.00016289
0.000137504
0.000181949
0.000196692
0.000158502
0.000163658
0.0261379
0.000149693
0.000147312
0.000136139
0.000193073
0.000236012
0.000152849
0.00848233
0.000143464
0.000128852
0.000144732
0.000143021
0.000155779
0.000143013
0.000149166
0.000145829
0.000133039
0.000158474
0.000129742
0.000176484
0.000163936
0.00654631
0.000161445
0.0430262
0.030477
0.0001647
0.000190641
0.000154527
0.00596597
0.0112339
0.000161533
0.000145497
0.000178101
0.000179553
0.0196931
0.00016049
0.0134156
0.00653239
0.000150692
0.0378836
0.000174071
0.0223733
0.00015418
0.000154242
0.000147123
0.00267732
0.000155747
0.000204963
0.0266727
0.000127891
0.00130682
0.000165889
0.000193054
0.000137791
0.000134909
0.000204287
0.0191079
0.000165579
0.000129052
0.00849721
0.000156154
0.000151287
0.000145466
0.000172494
0.000146237
0.000163691
0.000130046
0.000692827
0.000186349
0.000184484
0.000202407
0.0215373
0.000129992
0.0020519
0.000147722
0.000151823
0.000142066
0.033182
0.000151647
0.000151316
0.000165104
0.00015041
0.027267
0.00237461
0.000140245
0.000152943
0.000142504
0.000185767
0.00013871
0.0111649
0.000136113
0.000190459
0.000145343
0.000145782
0.000142961
0.0317677
0.0220706
0.00259949
0.0343064
0.0263096
0.000149905
0.0210071
0.0161128
0.0105944
0.000157597
0.000184634
0.000137234
0.0257995
0.000149157
0.000135072
0.00015471
0.000161672
0.000173259
0.00569118
0.000141811
0.0209547
0.000160494
0.0350131
0.0191484
0.000155788
0.00494483
0.00254233
0.000139822
0.000160895
0.000164005
0.000140823
0.000151382
0.0264787
0.000313321
0.0281668
0.00014775
0.00776417
0.000145171
0.00298965
0.0237498
0.0111556
0.016244
0.000211605
0.000157627
0.030419
0.0231475
0.000160354
0.000218749
0.0144446
0.000139866
0.000137147
0.0219471
0.000176907
0.000131036
0.000144045
0.000142438
0.000149341
0.00234704
0.000140598
0.00654158
0.0385227
0.000142409
0.000151724
0.000149284
0.000128962
0.000165816
0.000167403
0.000401255
0.000135068
0.000142878
0.000165266
0.00265025
0.0248958
0.000177899
0.000211726
0.000144158
0.000149342
0.00375189
0.000147129
0.000200496
0.000201695
0.000178814
0.00022415
0.0165324
0.000141202
0.000154083
0.000180479
0.000150825
0.000142438
0.000211417
0.000152381
0.0001519
0.000145131
0.000146552
0.00014417
0.000916078
0.000183624
0.00020855
0.000898819
0.000149947
0.000194846
0.00253832
0.0145673
0.00015057
0.000152573
0.000151763
0.000142432
0.000152872
0.0303161
0.00014703
0.00013986
0.0250804
0.000147307
0.0210089
0.000130997
0.000142355
0.000158535
0.000191191
0.00172172
0.000142903
0.00013044
0.00426216
0.000147893
0.000192453
0.00537299
0.0300327
0.000151675
0.000151543
0.000179673
0.031503
0.0343015
0.000171704
0.000157024
0.000139434
0.00107132
0.00186812
0.0147596
0.000150025
0.0145595
0.00014033
0.00467082
0.000188647
0.000199087
0.000165931
0.0119087
0.000145561
0.0272124
0.000152996
0.000149902
0.000188084
0.0295254
0.000151943
0.000612108
0.000141461
0.000207802
0.000153816
0.00424887
0.000140957
0.000178563
0.00377817
0.000145258
0.000144506
0.000235233
0.0356736
0.00374744
0.000232127
0.000187078
0.000155523
0.000149711
0.00821605
0.000150063
0.000147461
0.000157131
0.0227412
0.0262576
0.0161501
0.000196431
0.000145829
0.00015574
0.000152977
0.000131348
0.000189205
0.0308953
0.000185703
0.000175975
0.000139113
0.00216892
0.000143318
0.000579874
0.016244
0.000197819
0.000150052
0.000137526
0.0145884
0.000143904
0.00017534
0.000167686
0.000183951
0.00013913
0.00895589
0.000175639
0.000148543
0.000190471
0.0281905
0.000191624
0.0163657
0.000146944
0.028601
0.00356637
0.000128801
0.00014657
0.000137987
0.0224751
0.0136118
0.000182465
0.00617464
0.00472321
0.000149434
0.000144022
0.000139953
0.000149603
0.0291811
0.00147526
0.00014645
0.000192083
0.000157998
0.000164599
0.000144451
0.000153299
0.0042686
0.000150382
0.000150945
0.000149817
0.000140327
0.000144847
0.000139549
0.000189076
0.000143558
0.00223852
0.000192258
0.000142736
0.000171128
0.000163822
0.0128891
0.000140035
0.0129451
0.000160657
0.00195853
0.000162232
0.00384733
0.0247086
0.000144263
0.0016376
0.00425039
0.000142325
0.000166821
0.000365478
0.000191288
0.0146971
0.000143268
0.000146505
0.00032489
0.000150759
0.000179973
0.00117501
0.000189862
0.0328439
0.000143248
0.0108373
0.0293745
0.000143899
0.0281977
0.00102778
0.0231801
0.000193277
0.0308419
0.000142565
0.00314623
0.015099
0.000567909
0.0227613
0.000824594
0.00427412
0.000142994
0.000165258
0.000155319
0.015691
0.000192843
0.00403521
0.000134288
0.0102345
0.000144052
0.000136073
0.000144566
0.000176818
0.000157099
0.000152722
0.00014287
0.000132934
0.00146599
0.000152141
0.00179972
0.000147832
0.00505467
0.00013799
0.000128767
0.027363
0.000149911
0.000813584
0.000200483
0.000152797
0.0142409
0.000185336
0.00412566
0.000164691
0.025836
0.000143681
0.000150264
0.00013719
0.000160351
0.0137868
0.0164779
0.00300347
0.000153771
0.000133981
0.0247995
0.000145451
0.0231839
0.000144249
0.000145463
0.000142483
0.000167323
0.000655921
0.012863
0.000147768
0.000150646
0.00342538
0.000128705
0.00993199
0.00273898
0.000163053
0.000222681
0.000164621
0.000177085
0.0282962
0.00015049
0.0068525
0.00019184
0.000145052
0.0233705
0.0162906
0.000142626
0.000144688
0.00014363
0.000149735
0.000231961
0.00467509
0.00973329
0.000135661
0.000141027
0.000144017
0.000148209
0.000147747
0.000157745
0.000599131
0.000144682
0.000144547
0.00513775
0.0312707
0.000207336
0.000649315
0.00699146
0.00014082
0.000327276
0.0294446
0.0280542
0.0042542
0.000149535
0.000221549
0.000199924
0.000143334
0.00389999
0.00586254
0.000130263
0.0435707
0.000152007
0.000143236
0.00392306
0.000143623
0.00650506
0.00137451
0.000139688
0.0228385
0.000165456
0.000152582
0.0243313
0.0140689
0.000141305
0.000140253
0.000142818
0.000147946
0.000154372
0.0124821
0.00014727
0.000139587
0.000213907
0.0217865
0.0065686
0.000184632
0.000143289
0.0041608
0.000202023
0.0372535
0.000142127
0.000139675
0.000149703
0.000151248
0.000212408
0.00016272
0.000130186
0.000193755
0.00374103
0.000145273
0.000137666
0.0001655
0.000148789
0.010453
0.0148923
0.000155599
0.000154945
0.000135692
0.000148924
0.000150798
0.000142318
0.000147413
0.000146586
0.00341285
0.000144211
0.000369361
0.00014228
0.00244995
0.000152348
0.0118472
0.0207106
0.017366
0.00296487
0.0267839
0.000189149
0.0152489
0.00335651
0.000193074
0.0113
0.0001517
0.000520071
0.0274397
0.000336174
0.000135038
0.00373644
0.000142708
0.0001785
0.0278026
0.000206212
0.000144926
0.000140665
0.000144288
0.000152542
0.012072
0.00822948
0.000149294
0.0276077
0.000180376
0.0413599
0.00013711
0.000201791
0.0001925
0.000170063
0.000230599
0.0342249
0.000152379
0.00014677
0.000199435
0.000193582
0.0319638
0.000142499
0.000136061
0.000149236
0.0159337
0.00423515
0.000145539
0.000147905
0.000144685
0.000142282
0.0138641
0.00299552
0.000178574
0.00602839
0.000142435
0.0291382
0.00425127
0.000378426
0.000153718
0.000185313
0.00476724
0.0175255
0.000137568
0.027174
0.0268776
0.000157423
0.000147234
0.0400436
0.000159093
0.0338844
0.00926221
0.000148104
0.000140853
0.000155904
0.000150228
0.000143275
0.000154347
0.000191351
0.000139896
0.00014247
0.000152989
0.000151214
0.000139103
0.0161801
0.000159485
0.0335765
0.000146039
0.000183054
0.000140784
0.000155337
0.0229434
0.000157401
0.000145214
0.000153891
0.000167355
0.00017516
0.0149077
0.00257633
0.0131111
0.0141992
0.0283465
0.0122305
0.00342543
0.00019393
0.000168034
0.000136992
0.000145605
0.00409782
0.000142758
0.00015462
0.000137018
0.000145811
0.000140088
0.000139706
0.000146768
0.000143305
0.0206552
0.000151372
0.000149362
0.000140011
0.000155411
0.00457826
0.000156387
0.000177191
0.000178955
0.000155481
0.00425885
0.000141561
0.000166724
0.000141861
0.000161443
0.000146573
0.000218373
0.0118551
0.000191981
0.00015164
0.000142391
0.0054041
0.000147322
0.00019546
0.000142839
0.000210889
0.0169846
0.000197412
0.000153031
0.000190472
0.000147479
0.00326617
0.00017628
0.000513268
0.000223299
0.00234547
0.0159981
0.0275287
0.000142396
0.000139534
0.000145589
0.00850676
0.00014329
0.000251743
0.000182497
0.000149986
0.0273261
0.0129263
0.000140668
0.00013658
0.000277288
0.007737
0.00453954
0.000143428
0.00669171
0.000131771
0.000252639
0.000175123
0.000169126
0.000155635
0.0194935
0.000141447
0.0202982
0.000170297
0.0121045
0.0261101
0.000188942
0.000156808
0.000162115
0.000138617
0.000164894
0.00014255
0.00016444
0.00014886
0.0226612
0.000142859
0.000148933
0.000136931
0.0318974
0.00013937
0.0289865
0.00320752
0.000196989
0.0135157
0.000193252
0.000204866
0.00014999
0.000158285
0.000141277
0.0126549
0.019857
0.0289279
0.000209222
0.00187667
0.000193785
0.0272068
0.000129377
0.016484
0.0164106
0.000258711
0.000148653
0.00296943
0.00530131
0.00320465
0.000145163
0.000177962
0.0106768
0.000134187
0.0241164
0.000150901
0.000176558
0.000153091
0.000181875
0.000127902
0.000132437
0.000129333
0.000166811
0.00014681
0.00105989
0.000147809
0.000139161
0.00580221
0.000143047
0.000164271
0.000161649
0.000144439
0.01301
0.000163373
0.000150544
0.000142521
0.000150109
0.00822771
0.000142642
0.000139474
0.00017836
0.0133284
0.000153488
0.000200033
0.000134325
0.000200136
0.00015161
0.000151634
0.0067569
0.000176346
0.0218894
0.000147874
0.000196479
0.000153461
0.0200828
0.0149587
0.000148895
0.0382602
0.00038194
0.000139369
0.00743276
0.000163409
0.00015874
0.000184789
0.000148889
0.000141611
0.000155204
0.00019764
0.000153151
0.000185115
0.000174348
0.000198609
0.000132718
0.000190915
0.000145354
0.0211543
0.000185273
0.000142538
0.0147622
0.000141551
0.000139021
0.000237285
0.0110912
0.00299405
0.000205785
0.00304287
0.000241817
0.000142915
0.000145793
0.000197474
0.0043806
0.000150019
0.000194896
0.000151044
0.000145243
0.0433815
0.000173575
0.00018585
0.000182142
0.034488
0.000129609
0.000176247
0.000154095
0.000205744
0.00842288
0.00665902
0.000145056
0.000150406
0.0360076
0.000155543
0.0125303
0.00630832
0.000144556
0.000184733
0.000307453
0.000137852
0.0150493
0.000154485
0.0241073
0.0260898
0.000147085
0.000172083
0.000146905
0.000142674
0.00016397
0.0298914
0.000132459
0.00015638
0.0302025
0.000145745
0.000105167
0.0365397
0.000145547
0.0136284
0.000144219
0.000150794
0.000134983
0.000141171
0.000193549
0.00015118
0.000193809
0.000155799
0.000145861
0.000191671
0.0347733
0.000154647
0.00051195
0.0134384
0.00429047
0.000146814
0.000151126
0.000401701
0.000142324
0.000148169
0.0247081
0.000197194
0.000158542
0.000146331
0.000154284
0.000194896
0.000143745
0.000142869
0.0326386
0.00077538
0.000130499
0.000141377
0.00211966
0.0317411
0.000147971
0.000152434
0.000294638
0.000198357
0.0195477
0.000137386
0.0142597
0.000153967
0.000153619
0.0246649
0.00935284
0.000191355
0.00428411
0.000141878
0.0118577
0.000153089
0.00309298
0.00071415
0.000145345
0.0287472
0.000150444
0.000136073
0.000178123
0.000703567
0.00631382
0.0114589
0.000144425
0.000192929
0.000177964
0.00015724
0.000150662
0.000147701
0.000149525
0.0237174
0.0403638
0.0317756
0.0233111
0.000155605
0.000169661
0.0184414
0.000157252
0.000141027
0.000155244
0.0378815
0.000155741
0.0201438
0.00414346
0.00853076
0.000158527
0.0144288
0.000167038
0.000193811
0.00729141
0.0169772
0.00572198
0.000192279
0.000144503
0.023398
0.000136843
0.0245382
0.000136232
0.000140787
0.000148589
0.00060855
0.000783888
0.015225
0.000170724
0.00983703
0.000143944
0.000174624
0.000136627
0.000195107
0.0193602
0.000232395
0.0197557
0.0208318
0.00506535
0.00305597
0.000149185
0.01814
0.000147941
0.0262175
0.00278697
0.000156035
0.000144269
0.00436288
0.000196548
0.000130472
0.000144125
0.0165748
0.000137327
0.000147616
0.000194143
0.000236858
0.000133148
0.000196659
0.000175756
0.00722764
0.0116844
0.000145688
0.000139261
0.00182638
0.000144365
0.000203026
0.000174549
0.0125915
0.000162739
0.000168053
0.000139596
0.00012884
0.0142545
0.000173677
0.000182029
0.000152279
0.00881709
0.000208927
0.00402607
0.00316214
0.000150704
0.00168541
0.000142728
0.000166992
0.000157856
0.0262678
0.000136982
0.000138358
0.0253641
0.000203667
0.0249997
0.000158075
0.0239299
0.000372485
0.000153579
0.0117922
0.000150716
0.000196635
0.0026111
0.0150974
0.000143657
0.00457949
0.00288073
0.0246811
0.0123607
0.0153236
0.00015562
0.0245172
0.000187192
0.00259917
0.000182446
0.000161913
0.000130541
0.000187727
0.000140727
0.00906592
0.000161195
0.000149891
0.00014967
0.000212475
0.00202819
0.000142268
0.00426506
0.000192267
0.000260985
0.016686
0.00908481
0.000149848
0.0128834
0.0001326
0.00354101
0.0304439
0.026572
0.000143949
0.000203016
0.000143519
0.0282163
0.000170715
0.000850893
0.000167441
0.0167332
0.000190404
0.0307173
0.000137591
0.00866737
0.000694796
0.000147386
0.000184311
0.02709
0.000146948
0.000145108
0.000166849
0.00295198
0.000143422
0.000142441
0.000140768
0.00422388
0.000165542
0.000191904
0.000240024
0.000163393
0.000156171
0.000127851
0.000137064
0.000135872
0.00271642
0.029032
0.000141439
0.000156346
0.000144829
0.000189648
0.000149634
0.0120103
0.000149798
0.0259615
0.00366973
0.000147714
0.000201935
0.000220956
0.000140701
0.000131403
0.000203935
0.014274
0.000139452
0.000783903
0.0430097
0.000542339
0.0225509
0.0196292
0.000182793
0.000146915
0.0263766
0.000143822
0.000201742
0.000135267
0.0133359
0.000138076
0.0195203
0.000153509
0.012582
0.000136133
0.0137056
0.000130938
0.000147664
0.000206009
0.000152433
0.000136969
0.000165745
0.0192607
0.000143981
0.0136407
0.000152608
0.0125655
0.002298
0.0111851
0.0302036
0.000145587
0.000159121
0.0237622
0.0220207
0.000145131
0.000164757
0.000177875
0.0025611
0.000147767
0.0261208
0.000187441
0.000137619
0.0422594
0.0273116
0.000151057
0.0131763
0.000183807
0.00610757
0.0124568
0.000144755
0.000141583
0.00414681
0.000142854
0.0241468
0.000153197
0.0106185
0.0265207
0.000137648
0.000208595
0.000130134
0.000207054
0.000145408
0.000165043
0.0290067
0.000145666
0.0276753
0.000151247
0.000146003
0.00020409
0.000147481
0.0312058
0.00123877
0.0296969
0.000222775
0.00885698
0.000154558
0.000141606
0.030229
0.0297801
0.000136903
0.000907582
0.000146828
0.00013171
0.0248165
0.00369381
0.000159421
0.000140063
0.00014429
0.000134636
0.0117906
0.000144433
0.000598346
0.000167729
0.0121608
0.000197622
0.000233441
0.000141405
0.00321532
0.0119331
0.000205505
0.000148113
0.00929657
0.000128409
0.0217347
0.0236384
0.000137177
0.000186985
0.000171486
0.000166721
0.000157036
0.00015879
0.00811038
0.0274797
0.000251362
0.000143028
0.0129266
0.000148403
0.0181679
0.00019204
0.00020112
0.0287444
0.000144687
0.00278069
0.000191319
0.000155934
0.0135317
0.0277768
0.0320692
0.000209612
0.000146944
0.000206691
0.00254168
0.000164951
0.00176079
0.0287564
0.0205318
0.0109435
0.000138604
0.000135047
0.000152833
0.000154658
0.00014447
0.000144184
0.000158239
0.000149441
0.000184881
0.0158611
0.000336518
0.000156902
0.0126522
0.00017064
0.0079889
0.000152401
0.000237182
0.000191738
0.0241734
0.0222867
0.000140084
0.0210862
0.0316967
0.000146516
0.000150174
0.0195166
0.0232069
0.00311813
0.000201292
0.000141109
0.000151698
0.00148747
0.000141815
0.000163719
0.0290263
0.000136585
0.00018702
0.0219309
0.0288386
0.000147915
0.000955674
0.000162889
0.000168824
0.0270991
0.000128468
0.000140734
0.000137422
0.0028965
0.0271408
0.000208156
0.000145334
0.00428562
0.000149277
0.00058496
0.00928509
0.000150813
0.000137913
0.000143458
0.0355069
0.00430723
0.0385596
0.000145533
0.026363
0.013872
0.00628233
0.000141434
0.000951516
0.00014594
0.000136525
0.000140748
0.0127899
0.000189446
0.0148715
0.00016451
0.0178327
0.000129989
0.000147061
0.0276194
0.00016408
0.000143033
0.0180128
0.000160817
0.0342218
0.0041928
0.000146816
0.000136828
0.000145388
0.0320692
0.022721
0.0168444
0.000190757
0.000186556
0.0100442
0.0160397
0.00185479
0.00265344
0.000212083
0.000144705
0.00948793
0.00013792
0.000132546
0.00023368
0.0240074
0.00014031
0.000146743
0.00119184
0.000250311
0.000158305
0.0158093
0.000148775
0.000184511
0.000147886
0.0186151
0.0280466
0.000231621
0.000139063
0.000145807
0.0303034
0.0193055
0.0308414
0.000229568
0.0431556
0.0274653
0.040056
0.00226473
0.0271231
0.000146491
0.00237381
0.0304858
0.000179759
0.000140959
0.000151901
0.0317401
0.00014764
0.000137825
0.0219662
0.00014396
0.0216916
0.000128762
0.0182905
0.0126578
0.0130876
0.000138149
0.000144865
0.000152894
0.000130188
0.00383928
0.000152279
0.00339993
0.0176772
0.000889081
0.000189285
0.00018019
0.00460229
0.000199595
0.000145007
0.000150695
0.000272418
0.0247295
0.00279097
0.00411601
0.000170524
0.000166024
0.000128966
0.000197803
0.000148266
0.00259064
0.000192275
0.000204119
0.000144996
0.000161497
0.000202701
0.000174527
0.0373608
0.017944
0.000137149
0.000149761
0.00014243
0.0179587
0.000144568
0.010986
0.000159715
0.035194
0.000135218
0.0287905
0.0136036
0.000131937
0.000143236
0.000191201
0.000190842
0.000177546
0.00591302
0.000136848
0.0136271
0.00881823
0.000140115
0.0158468
0.00195531
0.000189552
0.000162693
0.0339202
0.0292347
0.0159165
0.0022665
0.0094409
0.000136062
0.00389304
0.000142966
0.000134595
0.0196111
0.00522463
0.0274469
0.0019658
0.00167498
0.000204866
0.000154031
0.000146283
0.000139265
0.0288728
0.000134902
0.000186901
0.00372721
0.0282135
0.000128081
0.000136081
0.0414795
0.000158708
0.0266416
0.000148832
0.000151897
0.000148846
0.000137375
0.000185911
0.00490582
0.00383678
0.0277965
0.000269854
0.0018483
0.00232519
0.00331267
0.0259474
0.000139487
0.000211774
0.000143514
0.000142804