/*--------------------------------*- C++ -*----------------------------------*\
| =========                 |                                                 |
| \\      /  F ield         | OpenFOAM: The Open Source CFD Toolbox           |
|  \\    /   O peration     | Version:  v2012                                 |
|   \\  /    A nd           | Website:  www.openfoam.com                      |
|    \\/     M anipulation  |                                                 |
\*---------------------------------------------------------------------------*/
FoamFile
{
    version     2.0;
    format      ascii;
    class       volScalarField;
    location    "400";
    object      nut;
}
// * * * * * * * * * * * * * * * * * * * * * * * * * * * * * * * * * * * * * //

dimensions      [0 2 -1 0 0 0 0];


internalField   nonuniform List<scalar> 
27915
(
0.00556315
0.00193048
0.00881131
0.00586252
0.00595536
0.00322855
0.00586174
0.00764907
0.00594793
0.0123307
0.00228617
0.0165887
0.0124135
0.00586037
0.00589257
0.00582346
0.00218836
0.00594839
0.00133145
0.00759807
0.0114459
0.00588706
0.0122164
0.00593774
0.00582302
0.00581715
0.009575
0.00595423
0.00155456
0.00292889
0.00587454
0.00219421
0.0058384
0.0058156
0.0103554
0.00581543
0.00603861
0.00581641
0.00207327
0.00594678
0.00576088
0.00602788
0.000490612
0.00582777
0.0107006
0.00595118
0.00584652
0.00432558
0.00601433
0.00593786
0.00860807
0.00103811
0.00823008
0.00337858
0.00289406
0.00584479
0.00582508
0.0131635
0.0134522
0.00587057
0.000662139
0.00506194
0.0115477
0.000137734
0.00588775
0.00230392
0.0167778
0.00851336
0.010317
0.00584971
0.0047607
0.00594144
0.00594847
0.0100839
0.012215
0.00563243
0.00321584
0.00581714
0.00142137
0.00675072
0.00359373
0.00595548
0.00275569
0.00619919
0.00729186
0.0160249
0.00580904
0.000516288
0.00812994
0.00631732
0.00595785
0.00923345
0.00593259
0.00902531
0.00135495
0.00951146
0.00233535
0.0121071
0.00510545
0.00579065
0.00252666
0.00581375
0.0120608
0.00583184
0.00551369
0.00595611
0.0096569
0.00133226
0.00581311
0.0112997
0.00884275
0.00577429
0.00615388
0.00629179
0.00111613
0.00114073
0.0124242
0.0023575
0.00583469
0.00599893
0.00595809
0.0062506
0.00584134
0.00589062
0.0059859
0.0167582
0.0194245
0.00194386
0.00589733
0.00593837
0.00507104
0.00914905
0.00903998
0.000569609
0.0147891
0.00181081
0.00676762
0.005814
0.00594116
0.00595966
0.0040843
0.00286748
0.00605435
0.00170597
0.00980194
0.00920097
0.00152608
0.00441285
0.00618696
0.00259376
0.0117939
0.00581119
0.000394075
0.00600325
0.000403763
0.010203
0.00528003
0.00594259
0.00595113
0.00597379
0.000795778
0.000615251
0.00591153
0.00591288
0.0109525
0.00585684
0.000203148
0.0167598
0.0123291
0.00600288
0.00518741
0.00595238
0.00597049
0.00422709
0.00584556
0.00135487
0.0111735
0.00585883
0.00596405
0.000137601
0.00854419
0.00574129
0.00607136
0.00975325
0.00162523
0.00251674
0.00598133
0.00593589
0.00442797
0.00580919
0.00714775
0.00194706
0.000654543
0.00586011
0.00582873
0.0059511
0.00217872
0.0042072
0.00599862
0.00299581
0.0083755
0.0115045
0.00595648
0.00599734
0.00136181
0.00206245
0.00199857
0.00575852
0.00225265
0.00595282
0.00275454
0.0135159
0.00600572
0.00585345
0.00597688
0.00604661
0.00575035
0.000358625
0.00593895
0.00595607
0.00593286
0.00592151
0.00295122
0.0059294
0.00121177
0.00500713
0.00582962
0.0077865
0.00594681
0.00584295
0.00145307
0.0053643
0.0129862
0.016502
0.0117756
0.00583192
0.0159193
0.00605075
0.00605493
0.00589422
0.00847316
0.00587313
0.00499784
0.0110528
0.005893
0.00594945
0.00579108
0.000111197
0.00546265
0.000483172
0.00263337
0.0106229
0.00585831
0.00587794
0.0059567
0.0024162
0.00511126
0.00594611
0.00218011
0.00976048
0.00937406
0.00173779
0.00391663
0.00367982
0.00384218
0.00072623
0.00581887
0.00723951
0.0107143
0.00969114
0.00583894
0.00184977
0.00175786
0.000106223
0.00548856
0.00581878
0.00580559
0.00588632
0.00584247
0.00590163
0.00594007
0.00579305
0.00581532
0.00553289
0.0157288
0.0112233
0.00195485
0.0188549
0.00342377
0.00929335
0.002072
0.00594345
0.000752814
0.0059342
0.00580616
0.00182469
0.0144961
0.0123261
0.00447156
0.00589225
0.00153136
0.00571345
0.00592796
0.00597501
0.0155922
0.00726193
0.0028981
0.0059549
0.00230556
0.00580528
0.0137928
0.00592174
0.00972282
0.00594722
0.0116344
0.0059966
0.00579039
0.00734895
0.0023049
0.00230523
0.00542716
0.00580538
0.00582075
0.00593984
0.00394538
0.00571706
0.000423141
0.00203478
0.00587089
0.00588626
0.00583089
0.00529192
0.00594637
0.00593016
0.00633462
0.00583229
0.00104122
0.00584901
0.0143643
0.000160782
0.00333187
0.00259535
0.00157258
0.00706335
0.00582929
0.00590674
0.00591754
0.0192257
0.0113645
0.00594422
0.00593912
0.00589634
0.0168318
0.00391981
0.00249609
0.000374341
0.00602142
0.00582823
0.00590159
0.0109718
0.00284719
0.00583126
0.00593823
0.00584229
0.00591975
0.000850302
0.00516366
0.00586419
0.00586783
0.00586582
0.00321742
0.00583787
0.00218144
0.00597359
0.0109437
0.00584397
0.00584566
0.0019558
0.00474074
0.00586123
0.00288352
0.00129734
0.00486193
0.0178345
0.00492939
0.00223316
0.00850196
0.0013006
0.00595994
0.00229316
0.00587416
0.00435609
0.011384
0.00582455
0.0123702
0.00203926
0.00522862
0.00606474
0.00598227
0.00816919
0.00590296
0.00502557
0.001423
0.00593788
0.000990314
0.00589472
0.00138677
0.00582525
0.0148831
0.00193727
0.00588048
0.00494619
0.00582395
0.00594258
0.0158428
0.00594372
0.00118397
0.00582671
0.00211738
0.00590622
0.000764612
0.0059791
0.00220003
0.00764425
0.0038853
0.00578381
0.00586168
0.00714882
0.00954194
0.00592547
0.00822898
0.00579809
0.00497323
0.00284622
0.00587398
0.00589082
0.00587328
0.00602876
0.00660655
0.00147996
0.00936452
0.0028
0.00141945
0.00199809
0.00597275
0.00586105
0.00236736
0.00593818
0.000507344
0.00583228
0.0195679
0.00422941
0.00581649
0.00606576
0.0085174
0.0105288
0.00980865
0.00591616
0.00260205
0.001496
0.0058205
0.00606734
0.00332989
0.00577518
0.00208022
0.00609426
0.00595385
0.00582783
0.000725275
0.0129478
0.00582927
0.00234799
0.00647053
0.00590797
0.00626853
0.0052536
0.0058327
0.00582957
0.0051547
0.00314929
0.00601475
0.0030074
0.000992286
0.0170737
0.00167576
0.00590461
0.00495484
0.00625472
0.00582493
0.00587626
0.00616045
0.0125708
0.000800129
0.00582291
0.00375207
0.00223674
0.00593784
0.00769903
0.00706652
0.00297057
0.00583067
0.00584075
0.00101172
0.0189293
0.00295089
0.00233823
0.00586199
0.00579866
0.00137195
0.0201133
0.00584924
0.00181431
0.00154075
0.00201005
0.00224965
0.00502093
0.0103837
0.0058728
0.00218885
0.00263748
0.00601811
0.00581574
0.00591068
0.00477134
0.00580165
0.0105499
0.0033322
0.0110867
0.012602
0.00346129
0.00579276
0.00682693
0.00520138
0.00122328
0.004562
0.00063128
0.0103134
0.00594544
0.00221552
0.00587176
0.00586642
0.00647296
0.00587683
0.0128538
0.00592663
0.016294
0.00590629
0.0111754
0.0058496
0.00954923
0.00586792
0.0059521
0.00154349
0.0171908
0.00520695
0.0060856
0.0148662
0.00783539
0.00194827
0.0058543
0.00199177
0.0122827
0.00168328
0.00276508
0.00588148
0.00595133
0.00120725
0.0058734
0.00806192
0.00592308
0.00188285
0.00787143
0.00338607
0.00746973
0.00582259
0.0103059
0.00308352
0.000970242
0.00515547
0.00587584
0.00597
0.00202298
0.00230395
0.0111238
0.0166749
0.00599439
0.00387866
0.005817
0.00593895
0.000113292
0.00594221
0.00587997
0.00420159
0.00208206
0.00635545
0.00589094
0.0068528
0.00221652
0.00589359
0.00580782
0.00533889
0.00593576
0.00581997
0.00581967
0.0108432
0.00582927
0.00436625
0.00609408
0.00592497
0.00161842
0.00611045
0.00581995
0.0029885
0.00705329
0.00144661
0.00593767
0.00583438
0.000985218
0.00223177
0.010938
0.00578963
0.00594398
0.00580789
0.00589643
0.00594113
0.00590324
0.0031635
0.00582203
0.00584208
0.00583724
0.00188552
0.00274385
0.00984129
0.0020339
0.00798433
0.00349225
0.0013467
0.00583496
0.00473608
0.00647354
0.00232267
0.00587708
0.019381
0.0059242
0.00587294
0.00578834
0.00621373
0.00603553
0.00583734
0.00243259
0.00186716
0.00436332
0.000532541
0.00196683
0.0111498
0.00593406
0.00745716
0.00910116
0.00156736
0.00579996
0.00580459
0.00094521
0.00582529
0.00318194
0.00136814
0.00601468
0.0123487
0.00111985
0.0028001
0.00350427
0.00581562
0.005948
0.00595467
0.00585266
0.0058007
0.00595741
0.00584716
0.0155544
0.00587501
0.00128092
0.00594619
0.00341266
0.00639938
0.0059366
0.00589486
0.00329187
0.0124771
0.005876
0.00587299
0.00595125
0.00587375
0.000578201
0.00585964
0.0058548
0.00606987
0.00581525
0.0096342
0.0102499
0.00129652
0.00593763
0.00195235
0.00850209
0.00284409
0.00600336
0.00364039
0.00594415
0.0107366
0.00548915
0.0027604
0.00239879
0.00587212
0.00594045
0.00582894
0.00181646
0.00662238
0.019281
0.00581419
0.0057881
0.00594234
0.0118065
0.00163452
0.00591521
0.00915394
0.00583972
0.00463131
0.00124888
0.00542028
0.00370695
0.00287238
0.00527323
0.00598374
0.00217629
0.00258099
0.0057906
0.00182071
0.00192997
0.00593457
0.00361708
0.00961006
0.000438609
0.00592695
0.00581049
0.0143128
0.00806215
0.00457864
0.00197907
0.00293504
0.0058235
0.000735327
0.0058649
0.00597109
0.00593424
0.00580255
0.00592214
0.00590654
0.00138015
0.00590477
0.011351
0.00585569
0.0088953
0.00593084
0.00359764
0.00597552
0.00436029
0.00593365
0.00976277
0.00238668
0.010222
0.00124326
0.00026675
0.00116753
0.0058418
0.00102882
0.00640878
0.00584617
0.0146133
0.00580377
0.00328414
0.00149845
0.00590626
0.00586975
0.00285926
0.00585609
0.0147643
0.0057914
0.0059404
0.00239669
0.00230826
0.00594335
0.00244684
0.00352489
0.00965992
0.00692317
0.00580706
0.00582791
0.0194045
0.00130109
0.00592503
0.00236926
0.00585911
0.00884234
0.000328449
0.00315957
0.00595296
0.00580827
0.00591509
0.00721437
0.00584847
0.00598122
0.00474501
0.00593935
0.00591102
0.00314366
0.00345607
0.00583111
0.00591494
0.00654312
0.00135748
0.0102577
0.00154478
0.00586203
0.00647134
0.0022764
0.00679701
0.00584934
0.00210098
0.00174808
0.00556322
0.00584996
0.00173789
0.00215096
0.00587662
0.00589944
0.0167864
0.00219523
0.00591092
0.0058484
0.00580877
0.0057035
0.00128413
0.00548934
0.00592895
0.00575822
0.0183267
0.0103657
0.00414597
0.00780315
0.00594589
0.00590157
0.00581621
0.00143321
0.00811234
0.00580053
0.00285141
0.00595771
0.00460545
0.00336482
0.00582139
0.00136489
0.00580071
0.00233368
0.00598486
0.00585331
0.00592626
0.00225607
0.00287313
0.00590974
0.00335932
0.00403571
0.00302099
0.00205105
0.0035202
0.00581843
0.00583979
0.00589334
0.00223065
0.000697367
0.00582931
0.00589315
0.00591772
0.0149064
0.00974362
0.00200076
0.0058622
0.0027952
0.00391197
0.00594872
0.00593886
0.0180302
0.00857559
0.0114899
0.00276361
0.00193173
0.0115904
0.00257217
0.00167192
0.00584095
0.00577466
0.00505951
0.00607874
0.0020749
0.000406934
0.0026867
0.0059208
0.00283349
0.000567189
0.00599847
0.00584078
0.0058225
0.010492
0.00597158
0.00281796
0.00589597
0.0050988
0.00159568
0.0059476
0.00585455
0.0101158
0.00525124
0.00246714
0.00582742
0.00592603
0.00552537
0.00572517
0.00521119
0.00593079
0.00583887
0.00594244
0.00557948
0.00594604
0.0134158
0.00598167
0.00593207
0.00593784
0.00199148
0.00734001
0.00335077
0.00333098
0.0139913
0.00276922
0.00590518
0.00601203
0.00210534
0.00591989
0.00215456
0.00583158
0.0040086
0.00593508
0.00594192
0.00595849
0.00591637
0.00585121
0.0135595
0.00582967
0.00579019
0.0117096
0.0184683
0.00592368
0.00449504
0.0059386
0.00251426
0.00584573
0.0120521
0.00512228
0.00111157
0.00575005
0.0060238
0.00591626
0.00580404
0.00494546
0.000657111
0.00582052
0.00511778
0.00805456
0.0158075
0.00254212
0.00592446
0.00289403
0.00527516
0.00260966
0.00593652
0.00409868
0.00582973
0.0059141
0.0130617
0.00306259
0.00249926
0.0118911
0.00977289
0.00734662
0.00591461
0.00650144
0.00587274
0.0102321
0.00372139
0.00128609
0.0050261
0.0044173
0.00556565
0.00485976
0.000758557
0.00445348
0.0112357
0.00595278
0.00594479
0.00288238
0.00305442
0.00213169
0.000323134
0.00591063
0.00594444
0.00592177
0.00295408
0.00582917
0.00591973
0.00400875
0.00506288
0.00594874
0.00164936
0.00591003
0.00124098
0.00585668
0.00831741
0.00149115
0.00149634
0.00591409
0.00131274
0.00283195
0.00219454
0.00593481
0.00598608
0.00592423
0.00587437
0.0027578
0.00255207
0.00553674
0.00133146
0.00189283
0.00585437
0.0148037
0.00925478
0.00580323
0.00589157
0.01445
0.00586382
0.00455025
0.00284791
0.00287484
0.00588018
0.00593936
0.00618324
0.00276886
0.00263222
0.008884
0.00594984
0.00592128
0.00581607
0.00201276
0.00428359
0.0058581
0.00225211
0.00583237
0.00579003
0.00587005
0.0058387
0.00432533
0.00586895
0.00595531
0.00588204
0.00580485
0.00605691
0.00580252
0.0025874
0.00283673
0.000280952
0.00367222
0.0122805
0.0106499
0.00504018
0.00165441
0.00349307
0.00211045
0.00294626
0.00222959
0.00590731
0.00231749
0.00593108
0.0154173
0.00530313
0.00175281
0.000294765
0.00593324
0.0145336
0.00257125
0.00802213
0.00299666
0.00585164
0.00594733
0.00783685
0.00606693
0.00122273
0.00611227
0.00578718
0.00112113
0.00481228
0.00421325
0.00585072
0.00591433
0.00127952
0.00621542
0.00522643
0.00579635
0.0136403
0.00567185
0.00591796
0.00590676
0.00536937
0.00587497
0.00511033
0.00580727
0.00461293
0.00216902
0.00201166
0.00405737
0.0088685
0.00580697
0.00801724
0.00592495
0.00590241
0.00587639
0.0110481
0.00593169
0.00591572
0.00471166
0.00593848
0.00930845
0.00860111
0.00583218
0.00594269
0.00595445
0.00226199
0.00582012
0.00421834
0.00581631
0.00213365
0.00599438
0.00588362
0.00583774
0.0108539
0.00879421
0.00915321
0.0111712
0.0102088
0.0057867
0.0052345
0.00757767
0.000964529
0.00503302
0.0052022
0.00583966
0.00998226
0.005956
0.00581554
0.005883
0.00349999
0.00262289
0.00947675
0.00594174
0.00870298
0.00530868
0.0113768
0.01452
0.00604129
0.00204157
0.00993246
0.00590724
0.00247431
0.00494897
0.00585371
0.00416715
0.00974855
0.000448439
0.014301
0.00594701
0.0025504
0.00591608
0.0124466
0.00527414
0.00430226
0.00550733
0.00068101
0.0058852
0.0106514
0.0150537
0.00572729
0.00621433
0.0067608
0.00584818
0.00584316
0.011278
0.00530349
0.00582596
0.00587093
0.00594569
0.00593908
0.00588216
0.00591104
0.00126263
0.0147895
0.00594196
0.00589866
0.0059415
0.00579547
0.00573062
0.002356
0.00450598
0.00581772
0.00585147
0.00468484
0.0113437
0.0191544
0.001756
0.00267542
0.00585212
0.00583088
0.0101249
0.00589147
0.00405466
0.00619557
0.00267592
0.00377821
0.00806242
0.00593242
0.00600752
0.00169291
0.00599217
0.00582463
0.00325082
0.000501323
0.00600032
0.00591626
0.00595621
0.00587417
0.00859552
0.0028346
0.00618857
0.00703188
0.00580143
0.0018848
0.00989212
0.00515443
0.00593372
0.00586118
0.00576449
0.00582482
0.00600432
0.00815154
0.00589052
0.00584749
0.00509527
0.00592128
0.00780525
0.00582533
0.00594196
0.00605432
0.00199676
0.00313104
0.00598145
0.000226247
0.0019259
0.00592575
0.00206477
0.00225431
0.0106121
0.00590778
0.00590502
0.00508564
0.00916242
0.0203407
0.00266324
0.00289816
0.00589893
0.00878851
0.00112295
0.0018588
0.00587847
0.00722321
0.00582798
0.0111864
0.0056239
0.00150301
0.00462208
0.00298006
0.00588476
0.0157706
0.00584742
0.00578572
0.00564566
0.00859624
0.0059645
0.00214092
0.00595498
0.00618972
0.00581549
0.0107572
0.00594753
0.00312022
0.00799983
0.00587652
0.00592189
0.000461325
0.0114791
0.0101122
0.000614241
0.0061077
0.0043392
0.00584181
0.00285755
0.00588194
0.00591806
0.00290522
0.0146473
0.00777111
0.0053259
0.00570021
0.00591047
0.00601751
0.00391322
0.00587322
0.00142146
0.00942692
0.00516296
0.00248271
0.00582934
0.00645267
0.00598562
0.00372343
0.00798624
0.00159683
0.00588509
0.00584638
0.00563301
0.00593005
0.00243963
0.00254788
0.00210798
0.00582904
0.00304618
0.00598803
0.00599032
0.00213201
0.00695643
0.00212636
0.0078335
0.0058938
0.0103916
0.00184209
0.00578998
0.00595605
0.00591959
0.00962493
0.00185218
0.00155257
0.00129052
0.00233076
0.00535571
0.00586942
0.00593174
0.00595025
0.00961943
0.000810578
0.00586571
0.00207155
0.00586169
0.0047755
0.00598238
0.00583676
0.0138522
0.00602482
0.00536136
0.00580101
0.0058509
0.00589749
0.00585851
0.00146812
0.00584598
0.00707838
0.00207469
0.00590008
0.00612441
0.00499995
0.00151207
0.00585297
0.00147558
0.00580625
0.00475047
0.00588511
0.00798092
0.0179915
0.00585497
0.00759058
0.012046
0.0059573
0.00235332
0.000820607
0.00215876
0.00188728
0.00585814
0.00592131
0.00387749
0.00592498
0.00166183
0.000709888
0.00206405
0.0173308
0.00587779
0.0163831
0.0104729
0.0058999
0.0100146
0.00375622
0.0115866
0.00129545
0.00891883
0.00588969
0.0112089
0.00236637
0.00134302
0.0184778
0.000759936
0.0137287
0.00585346
0.00587175
0.00388869
0.00781053
0.00204072
0.013251
0.00582123
0.00380405
0.00586923
0.00591729
0.00587393
0.00198015
0.00555504
0.00597822
0.0059373
0.00586568
0.00411478
0.00588903
0.00101415
0.00585402
0.00859854
0.0059241
0.00579032
0.0104348
0.00594755
0.000839138
0.00136193
0.00585892
0.00469786
0.00167127
0.00495897
0.00265172
0.0138554
0.00588584
0.00444784
0.00581718
0.00357649
0.0020067
0.00735292
0.0124408
0.00600006
0.0058198
0.00826237
0.00588581
0.00689361
0.00585147
0.00586405
0.00585309
0.00514316
0.00516803
0.00293831
0.00592691
0.005927
0.00926045
0.00580657
0.00325963
0.0102386
0.00502973
0.000409253
0.00276433
0.00245522
0.00964164
0.00589241
0.00446608
0.00197208
0.00587434
0.0183337
0.0163747
0.00587595
0.0058704
0.00597641
0.00603311
0.00222776
0.0111055
0.00329037
0.005844
0.00592343
0.0059481
0.0058177
0.00596037
0.00417364
0.000468503
0.00589393
0.00586775
0.000190471
0.0172834
0.000946393
0.00546256
0.0024471
0.00585085
0.000498293
0.0101295
0.0102853
0.0137138
0.0059523
0.00147349
0.00316854
0.00594396
0.00831334
0.00162997
0.00581218
0.0121689
0.00600035
0.00584034
0.012734
0.00588164
0.00235304
0.00742613
0.00591359
0.00731619
0.00530867
0.00573651
0.00763962
0.0128544
0.00585265
0.00583067
0.00585137
0.00592794
0.00342508
0.00495816
0.00583815
0.00586511
0.00464178
0.0178237
0.00862177
0.00258089
0.00588755
0.0133899
0.0046129
0.0115026
0.00596936
0.00585468
0.00595914
0.005983
0.00322672
0.00533467
0.00580995
0.00188292
0.0121629
0.00588379
0.00585822
0.00246231
0.00593483
0.0165695
0.00746814
0.00360273
0.00604163
0.00583479
0.00595688
0.00583783
0.00583882
0.00595941
0.0059224
0.0117339
0.00585031
0.00387907
0.00588454
0.00749328
0.00515911
0.00339154
0.00692969
0.0057836
0.0123472
0.0151521
0.00162513
0.0160012
0.0108527
0.00201855
0.00227025
0.00576297
0.000659329
0.00974226
0.00222225
0.00581585
0.0120384
0.00584951
0.000414755
0.00973248
0.00117459
0.00591204
0.00592691
0.00594949
0.00587081
0.00301569
0.00228453
0.00590069
0.0145652
0.000554839
0.0121867
0.00581585
0.00130015
0.00205603
0.00541175
0.00153134
0.0110564
0.000692516
0.00592919
0.00122872
0.00626276
0.00994276
0.0058944
0.00584141
0.00599181
0.015378
0.0107892
0.00596382
0.00595457
0.00588393
0.00583843
0.00258669
0.0124466
0.00176841
0.00515022
0.00585298
0.00861681
0.00417855
0.00213884
0.00340703
0.00173048
0.00650082
0.0121749
0.00592464
0.0152763
0.0136746
0.00303303
0.0058361
0.0174255
0.00564277
0.0111873
0.00403988
0.00596006
0.00585333
0.0039974
0.00596395
0.00584115
0.00397275
0.00197424
0.00590355
0.0058335
0.00600965
0.00581754
0.00586874
0.00232512
0.00607288
0.0110757
0.00587313
0.00298434
0.00585748
0.00392464
0.0084321
0.00543411
0.00588407
0.00581117
0.00263151
0.00232728
0.00691151
0.00683128
0.00563385
0.00671896
0.00859522
0.00520055
0.0109862
0.00305668
0.00272052
0.00584384
0.00599526
0.013296
0.00590001
0.00603726
0.00590691
0.00595482
0.00583064
0.00590117
0.00595788
0.00588982
0.00639605
0.00582492
0.00595364
0.00592028
0.00383112
0.0110109
0.00566268
0.00266251
0.0052539
0.00574188
0.0121015
0.00583065
0.00516948
0.00591059
0.00253448
0.00588298
0.00578704
0.00474134
0.0011821
0.00603754
0.00590083
0.00903612
0.00594327
0.00122202
0.00590399
0.000906961
0.0114818
0.00170879
0.00573924
0.00222813
0.00594951
0.0108582
0.00267709
0.00388208
0.00464299
0.0067132
0.00802562
0.0101421
0.0058325
0.00593355
0.00594903
0.00349214
0.00594609
0.00452535
0.00178882
0.00544856
0.00922203
0.00582862
0.00587208
0.00590154
0.000512993
0.000415809
0.0108823
0.00589364
0.000362398
0.00586044
0.000474813
0.00532652
0.00258113
0.00571292
0.0143709
0.00591624
0.00667015
0.0061124
0.00405318
0.00649411
0.000539259
0.00312154
0.00536483
0.00592742
0.00610881
0.00596211
0.00490449
0.00595808
0.00668827
0.00588517
0.00595691
0.00590889
0.0105792
0.00585154
0.00473855
0.00434634
0.00292745
0.00431617
0.00157357
0.00121403
0.00587941
0.00540498
0.00585023
0.00412937
0.0182206
0.0148761
0.000408458
0.0082861
0.00125971
0.0101873
0.00579606
0.00532554
0.00745388
0.0044512
0.00593699
0.00677191
0.000853102
0.0106119
0.00589226
0.00244102
0.0163969
0.00582239
0.00898152
0.00591801
0.00362742
0.00597322
0.00278168
0.00578798
0.00581574
0.00579492
0.00259519
0.00592286
0.0069958
0.00593539
0.00589556
0.0112294
0.00585338
0.0030949
0.00373168
0.00594889
0.00369136
0.00493082
0.00586097
0.0058631
0.00437798
0.00334603
0.00584932
0.00585267
0.00205791
0.00590335
0.00364504
0.00146227
0.0058231
0.00146576
0.00589015
0.00601993
0.00250214
0.00480929
0.00674929
0.00593584
0.00177385
0.00312432
0.00467214
0.00201188
0.00597154
0.0146816
0.00492841
0.00589836
0.00199313
0.00274053
0.00607811
0.00231135
0.00581098
0.00584483
0.00379603
0.00165327
0.00386413
0.00271441
0.00242774
0.00160089
0.00580347
0.00174727
0.00586409
0.00638698
0.00391959
0.00584752
0.00229746
0.00584358
0.00583263
0.00213342
0.00092896
0.0104249
0.0012623
0.0104455
0.00463079
0.00590354
0.00590589
0.00170591
0.00178441
0.00587305
0.00422957
0.00584478
0.00594256
0.0178442
0.0053365
0.00509629
0.00160321
0.0112927
0.00581397
0.00584581
0.00580447
0.00105348
0.013823
0.0147744
0.00591844
0.00585706
0.0115421
0.00402937
0.00148297
0.0141153
0.00585935
0.00351771
0.00516946
0.00592388
0.0068064
0.00386961
0.0124692
0.00575355
0.00594459
0.00584784
0.00595714
0.00582505
0.00281087
0.00892435
0.00580738
0.00602496
0.00787586
0.00589819
0.000352089
0.0115215
0.00589413
0.00200417
0.00590404
0.00584477
0.00581098
0.0058281
0.000871631
0.00590087
0.00117477
0.00602478
0.00593336
0.00211504
0.0112729
0.00584322
0.000589231
0.00170188
0.0138732
0.00584545
0.00534509
0.00513085
0.00591182
0.00594706
0.00566076
0.00150507
0.00253815
0.00586363
0.00601485
0.000672921
0.00590868
0.00596964
0.0108227
0.00379863
0.00581585
0.00583167
0.00704811
0.00775913
0.00596177
0.00599485
0.00536247
0.00164865
0.00596087
0.00581598
0.00435874
0.00580718
0.00592937
0.009162
0.0160596
0.00123577
0.00197199
0.00586795
0.00293779
0.0039941
0.0126329
0.00706247
0.00594078
0.0100493
0.00586426
0.00583435
0.00582256
0.000591484
0.00820016
0.00444747
0.00590863
0.00511115
0.00528767
0.00583421
0.00592416
0.00582606
0.00584049
0.00869783
0.0121499
0.0068582
0.00713824
0.00384476
0.00530917
0.0169326
0.00289397
0.00582678
0.00573701
0.0116883
0.00582174
0.015377
0.00408096
0.00327663
0.00495204
0.00236823
0.0048543
0.00196151
0.00320812
0.00813917
0.00615844
0.00115364
0.00586797
0.00657718
0.00581368
0.00919302
0.00590115
0.0058748
0.00583691
0.00684294
0.00222863
0.00199554
0.00205599
0.00443611
0.00586444
0.00240923
0.00584098
0.00186503
0.0175601
0.00156556
0.00642973
0.00631072
0.000188395
0.00886346
0.00595603
0.00409632
0.00594422
0.00802396
0.00849211
0.00570268
0.00588541
0.00164576
0.00154175
0.00581537
0.0058678
0.00250214
0.00581506
0.00595399
0.00116773
0.004684
0.0058267
0.0017093
0.00369313
0.0120981
0.0043344
0.00594188
0.00590823
0.00673747
0.00586544
0.000978665
0.00249076
0.00518394
0.00500544
0.00259565
0.00591545
0.00579077
0.0136285
0.00260916
0.00258994
0.00576239
0.00070264
0.000877111
0.00827712
0.0106783
0.00593184
0.00761029
0.00587577
0.00240995
0.00553237
0.0160815
0.00586088
0.00592622
0.00734
0.0013424
0.00938362
0.00489277
0.0150999
0.00217245
0.00329208
0.00142914
0.00583837
0.00599097
0.0100695
0.0025443
0.00597549
0.00837451
0.00335827
0.00797638
0.00465732
0.00518718
0.00572607
0.00655493
0.000717083
0.00970652
0.00156886
0.00367921
0.0058519
0.00140311
0.00583204
0.0152215
0.00440524
0.00594479
0.00588775
0.0010479
0.00778159
0.00591107
0.0138629
0.00207834
0.00456801
0.00793424
0.00474085
0.00582923
0.00544805
0.00580258
0.0115021
0.00928552
0.010596
0.00585159
0.00138206
0.00584216
0.0048746
0.00585892
0.00569641
0.00563121
0.00499218
0.00189868
0.0140085
0.00585542
0.00987254
0.00658068
0.0059409
0.00256698
0.0128052
0.00584849
0.00594252
0.00491249
0.0122746
0.00584052
0.00586197
0.00585082
0.0137627
0.00267471
0.00210876
0.00207352
0.00531203
0.00588666
0.00578716
0.00591862
0.00591588
0.00541729
0.00582389
0.00584236
0.00323841
0.0058832
0.00229525
0.0059512
0.0151613
0.00588533
0.00970354
0.00151876
0.00596095
0.00124508
0.00569194
0.00594777
0.00587386
0.00134826
0.0137756
0.00587485
0.00840351
0.0177361
0.000853323
0.00860212
0.00466768
0.0015823
0.00595737
0.0162993
0.00594691
0.00145549
0.00588388
0.00127117
0.00592187
0.0175654
0.00334391
0.00392503
0.0059028
0.00359416
0.00584844
0.00595956
0.000899691
0.00429505
0.00587427
0.00268135
0.00434225
0.00594748
0.0061898
0.00386968
0.00130329
0.00372162
0.000994322
0.00550345
0.00588404
0.00250834
0.00727703
0.00643976
0.00591725
0.00524226
0.00475888
0.00534589
0.00593009
0.0141139
0.0014517
0.00591737
0.0174457
0.0103671
0.00583306
0.00186967
0.00169122
0.0074671
0.0027141
0.00593529
0.0058901
0.013556
0.00585778
0.00672388
0.00588616
0.00497936
0.0143095
0.00592129
0.000959443
0.0058266
0.00118031
0.00590614
0.00271386
0.0101605
0.00600449
0.0203212
0.00421671
0.00595522
0.0048128
0.0059353
0.00947176
0.00879304
0.00533575
0.00145361
0.0154904
0.00602768
0.00589514
0.0103994
0.0104856
0.00581459
0.00725479
0.00592477
0.00587873
0.00994243
0.0122875
0.00610288
0.00590386
0.00591812
0.00582393
0.0014074
0.00590028
0.00678479
0.00282574
0.00332583
0.00165511
0.00221185
0.00584222
0.0103275
0.00269698
0.00451019
0.00584798
0.0145585
0.00578906
0.00677463
0.00769356
0.00591818
0.00153113
0.00538536
0.00204863
0.0051552
0.00549751
0.00059467
0.0128722
0.00449923
0.00582991
0.00155453
0.00596088
0.00319928
0.00210252
0.00141498
0.00729186
0.00595214
0.0104144
0.00215944
0.00433626
0.00522575
0.0163982
0.00988257
0.00100128
0.00595765
0.00120211
0.00953323
0.00475074
0.00713155
0.0102858
0.00565746
0.0162438
0.00591661
0.00580964
0.00395231
0.0057653
0.00589415
0.00594436
0.00256568
0.0059512
0.00541134
0.0107975
0.00225871
0.00606208
0.00539016
0.0058254
0.00288736
0.00587729
0.00159654
0.00194555
0.0155718
0.00866702
0.00582903
0.00894083
0.0104123
0.00592321
0.00598899
0.00643891
0.00782017
0.0101727
0.000781839
0.00582791
0.00579282
0.00737637
0.00589075
0.00288232
0.0154721
0.00590837
0.00295727
0.0193334
0.0156796
0.00595902
0.00762907
0.00502339
0.00255341
0.00643109
0.00578978
0.00583044
0.00592399
0.0121324
0.00893686
0.000898946
0.00588589
0.0138965
0.00532637
0.00498647
0.00437871
0.00592945
0.00591614
0.00589401
0.0112954
0.0139129
0.0116514
0.00587746
0.00938881
0.0037652
0.0109463
0.00583199
0.00408389
0.0059567
0.00590573
0.00582904
0.00573979
0.00220822
0.0162988
0.00565622
0.00915473
0.000279833
0.00587212
0.00946381
0.00528446
0.00583042
0.015702
0.00341201
0.0109237
0.0135602
0.00589143
0.005857
0.00588114
0.0108529
0.0160974
0.0169351
0.00120048
0.00131946
0.00407883
0.0164931
0.00786536
0.00761424
0.00450546
0.00589589
0.0162731
0.00592225
0.00580134
0.00222575
0.0186711
0.00593126
0.00595712
0.00489504
0.00410092
0.00609331
0.0053635
0.00595929
0.00543835
0.00587145
0.0165088
0.0174028
0.0024473
0.005833
0.00587047
0.00897164
0.00674356
0.0107161
0.00426053
0.0168565
0.0104165
0.0153946
0.00825011
0.011481
0.00585239
0.00646685
0.0137577
0.00515701
0.00585325
0.00589898
0.010823
0.00593788
0.00591942
0.00635971
0.00596446
0.00715992
0.0057929
0.00551743
0.00566973
0.00198642
0.00592387
0.00595116
0.000403307
0.0058406
0.0126643
0.00517887
0.00849423
0.0166702
0.00397726
0.00228273
0.00341997
0.000522179
0.00155891
0.00591656
0.00600108
0.00225684
0.016965
0.0104432
0.00167065
0.00243445
0.00225497
0.00579101
0.00159772
0.00590442
0.00997363
0.00529299
0.00132581
0.00589055
0.00527408
0.00140287
0.00193433
0.0113958
0.00507205
0.00584269
0.00594593
0.00588692
0.00589919
0.00594639
0.00993245
0.00586038
0.0149258
0.00582175
0.0170677
0.0018401
0.00580087
0.0059259
0.00135174
0.00121676
0.00229324
0.00992261
0.00582092
0.00657077
0.0026981
0.00582639
0.00259046
0.00282162
0.00124741
0.0050695
0.0109297
0.00810303
0.00695869
0.00831272
0.00321397
0.00589959
0.0109101
0.00593332
0.00581595
0.00369418
0.00908368
0.0103164
0.00479644
0.00769551
0.000988806
0.00568595
0.00590573
0.00585657
0.00986502
0.00580785
0.00133847
0.00902001
0.00794602
0.0057919
0.00581173
0.0119794
0.00251042
0.00869677
0.00593603
0.00588999
0.00591788
0.00591424
0.00260142
0.0107834
0.00720048
0.0153201
0.00530566
0.00752558
0.0094501
0.00733857
0.0138896
0.00582467
0.0010828
0.00593308
0.00585766
0.0111293
0.000696335
0.0172373
0.00413132
0.00325003
0.00163092
0.00581446
0.0179059
0.0141566
0.00582658
0.00354976
0.00507628
0.00580879
0.00590109
0.0043143
0.00223927
0.00585286
0.0112269
0.0150882
0.0121984
0.00580405
0.00174443
0.00641375
0.0130076
0.0158896
0.0057896
0.00695359
0.00342439
0.00538383
0.00725102
0.00603805
0.00390543
0.00549389
0.0119799
0.00130488
0.00595528
0.00246298
0.00122702
0.0132302
0.00249666
0.00592791
0.00606181
0.00592316
0.00594485
0.00591985
0.00582895
0.00592736
0.0099622
0.00590114
0.00155781
0.0059221
0.00581565
0.00592437
0.00259318
0.00580248
0.00669897
0.0159124
0.008765
0.00590567
0.00687752
0.00712731
0.013727
0.00954913
0.00295572
0.00285709
0.00589726
0.00984394
0.00894434
0.0160356
0.00578755
0.00205212
0.0164742
0.00589953
0.00586995
0.00230928
0.00595764
0.00582393
0.0109149
0.00331727
0.00427506
0.00224628
0.0157396
0.00590051
0.00871337
0.00582101
0.00076438
0.00590358
0.00594742
0.0168733
0.00300166
0.00581115
0.00413494
0.00685278
0.0115927
0.00539346
0.00595
0.00791754
0.0012464
0.00300648
0.00871643
0.0121059
0.00710773
0.00594096
0.0014408
0.00589995
0.00594118
0.012923
0.00930849
0.000864899
0.00998414
0.0142102
0.00594281
0.00235996
0.00458301
0.0108617
0.00578934
0.00593282
0.0059313
0.00697131
0.0111552
0.0172825
0.00257359
0.00213957