/*--------------------------------*- C++ -*----------------------------------*\
| =========                 |                                                 |
| \\      /  F ield         | OpenFOAM: The Open Source CFD Toolbox           |
|  \\    /   O peration     | Version:  v2012                                 |
|   \\  /    A nd           | Website:  www.openfoam.com                      |
|    \\/     M anipulation  |                                                 |
\*---------------------------------------------------------------------------*/
FoamFile
{
    version     2.0;
    format      ascii;
    class       volScalarField;
    location    "400";
    object      omega;
}
// * * * * * * * * * * * * * * * * * * * * * * * * * * * * * * * * * * * * * //

dimensions      [0 0 -1 0 0 0 0];


internalField   nonuniform List<scalar> 
27915
(
0.0284023
0.0999684
3.06869
0.0237546
0.0244389
0.0314668
0.0226473
3.08033
0.0243182
3.37366
0.0446708
2.58572
0.378434
0.0226366
0.0232229
0.0238828
1.50626
0.0247573
0.153408
3.10864
0.39228
0.0258637
1.59288
0.0246588
0.0238864
0.0234769
2.35454
0.0244191
8.30848
0.0281715
0.024504
0.0422349
0.0232674
0.02329
2.7109
0.023297
0.0253212
0.0234794
0.0679725
0.0244947
0.0269144
0.0252833
0.429662
0.0240405
1.48035
0.0245183
0.0242502
0.0391369
0.0247017
0.023886
2.94567
0.119213
2.43591
0.0281867
0.0289194
0.0242506
0.0244938
0.379373
0.378841
0.0244932
0.390352
0.0323412
1.44927
29.7086
0.0247124
0.0711916
2.58328
2.97723
2.71956
0.0245508
0.063947
0.0246804
0.0247658
0.517038
3.29284
0.179294
0.0280038
0.0230221
5.30167
0.0345384
0.0311403
0.0247426
0.0344005
3.29917
3.18515
0.664
0.023244
0.488338
2.55546
0.0333759
0.0249386
0.501781
0.0238572
2.47289
9.01396
3.00455
0.107223
3.32975
0.0319956
0.0222551
0.0321015
0.0234656
3.29868
0.0255222
0.0288983
0.0247324
2.74056
0.0939827
0.023468
3.07474
2.79834
0.0268011
0.0693464
0.629417
0.0900829
0.115517
2.00919
0.0412594
0.0254922
0.0247904
0.0248964
0.0569288
0.0232822
0.0258398
0.0245078
1.23341
1.75544
7.33202
0.0245065
0.0240412
0.0322528
2.36676
2.41889
0.730436
1.79201
0.0668432
1.95703
0.0232389
0.0240731
0.0248101
0.0279318
0.0290345
0.0256864
2.15219
2.7402
2.90671
8.72259
0.0381294
0.189077
0.0346961
2.044
0.0232176
0.359378
2.23373
0.707914
2.73109
2.81995
0.0236644
0.024164
0.0252831
0.194741
14.9587
0.0236818
0.0356027
0.411473
0.0246598
0.293633
1.49062
3.34321
0.025439
0.0320836
0.0248164
0.0245376
0.0403328
0.0225854
8.25784
3.05692
0.0252748
0.0236507
31.4307
2.61112
0.0311121
0.025803
2.87396
0.0668184
0.181162
0.0239568
0.0239165
4.2668
0.0232338
3.33609
0.0507402
0.849413
0.0252556
0.0222273
0.0246808
0.251945
0.0662493
0.0251748
0.032647
2.45516
2.02462
0.02355
0.0247967
8.65581
7.30302
0.0957511
0.0324307
4.21698
0.0243523
0.0338224
1.91801
0.0250512
0.0246815
0.0246391
0.0261205
0.0315085
0.465837
0.024067
0.0246769
0.0246117
0.0249343
0.0291763
0.0241658
9.28034
0.611912
0.0240714
0.786395
0.0241155
0.0232029
9.13772
0.0413605
1.93398
1.51978
0.395619
0.025393
1.87718
0.026181
0.0259026
0.0236244
0.813174
0.0259564
0.0542956
2.04281
0.024489
0.0236396
2.19656
28.7054
0.0293628
0.933657
0.0287727
2.84248
0.0223285
0.0245186
0.0246691
0.0987813
0.0282739
0.0241771
0.0516244
2.68255
3.2135
0.112626
0.053081
0.0644837
0.0530782
1.32004
0.0237425
3.34697
2.86677
2.71764
0.0254381
7.19878
7.66291
29.4576
0.0291493
0.0237471
0.0257809
0.0258345
0.0235373
0.0257212
0.0240401
0.0223002
0.0230075
0.0372521
0.672283
3.0524
4.02182
0.904778
0.0282212
3.43054
0.115735
0.024714
13.0569
0.0247654
0.0257607
0.106714
0.675932
1.98
0.0374442
0.0249001
0.157455
0.0295971
0.0238863
0.025279
0.666601
2.09226
0.0329823
0.0237643
3.82719
0.0258747
0.83644
0.0248607
2.65834
0.0241628
0.832212
0.0249234
0.0222636
3.03184
6.7733
7.09648
0.0418718
0.0221673
0.0237712
0.0246338
0.047538
0.0291393
0.665223
6.98743
0.0243676
0.0234095
0.024119
0.0472914
0.0246835
0.0239026
1.53108
0.022519
0.154357
0.0235393
1.93368
27.5206
0.0281041
2.64595
8.46425
2.63387
0.0225123
0.024044
0.0248485
1.76323
3.07394
0.024704
0.0246163
0.0236436
1.22926
0.0464812
0.048569
0.420957
0.0300113
0.0242527
0.0236223
0.402856
0.0645477
0.0255495
0.0252764
0.0229176
0.0237177
4.40041
0.0320998
0.02362
0.0244706
0.0238086
5.21961
0.0225495
0.0869966
0.0250737
2.95088
0.022574
0.0232024
0.0991509
0.0333173
0.0223285
0.0338587
0.15707
0.034017
1.1108
2.81859
0.0517559
0.571201
0.156601
0.0248571
2.20601
0.0246977
2.6578
3.08498
0.0237875
3.44826
0.0941153
0.0314903
0.0262766
0.0240811
2.56578
0.0236339
0.0326302
8.38322
0.025076
0.210332
0.025796
0.144603
0.0244942
1.77694
0.099008
3.61685
0.0343518
0.0237928
0.023468
2.60747
0.0246628
0.0799958
0.0256494
0.0902634
0.0263056
0.171002
0.0242671
0.0315148
3.29094
2.43786
0.0262372
0.0236192
2.08232
3.33403
0.0243066
3.03467
0.0259793
0.47339
0.0323736
0.0236891
0.0236285
0.0243938
0.0259415
0.0360421
0.13577
2.71074
0.0731515
0.0960901
0.0956657
0.0239959
0.0260675
6.14692
0.0250418
0.41698
0.0222463
1.30055
2.76819
0.0236786
0.0261206
2.81676
0.373029
2.67418
0.0238388
0.0354616
8.41775
0.0237647
0.0277549
1.89508
0.0264671
7.06852
3.48887
0.024779
0.0240697
0.340421
0.310439
0.0240403
0.0313525
0.0384262
0.0236297
0.0335962
0.0313914
0.0240548
0.0240991
0.0339604
0.0405076
0.100169
0.0378258
5.68294
0.655981
3.50003
0.0257013
0.0331515
0.0359066
0.0312498
0.0233873
0.12747
0.243828
0.224427
0.0256706
4.84835
0.0431353
0.0261646
2.81107
3.08891
5.44397
0.0241106
0.0254863
10.5748
1.21135
2.59226
6.39647
0.023746
0.0259962
9.58351
1.24956
0.0239532
0.0889985
0.129639
6.88247
6.8852
3.2903
2.74668
0.0236634
0.0866913
0.034217
0.0244938
0.0236722
0.0236707
2.36865
0.0221525
0.381558
0.027969
3.00441
0.384866
4.93442
0.0223069
2.71025
4.38206
0.108104
0.0365093
0.271444
2.98094
0.0241586
0.0858146
0.024385
0.0244622
0.0324854
0.0247151
0.380013
0.0243184
1.84093
0.0236244
3.03341
0.0235672
0.597511
0.0244803
0.0251182
0.0538881
0.882611
0.0333375
0.0300441
0.661927
3.43177
0.118469
0.0240324
7.3925
3.32338
0.116845
0.0344285
0.0247605
0.0251239
9.31934
0.0236598
3.01713
0.0249048
0.102896
2.03766
0.0393307
3.38783
0.0232108
0.41672
2.48538
1.6053
0.0924589
0.0233828
0.0239789
0.0949452
0.0395072
3.00846
0.657321
0.0253285
4.64884
0.0233076
0.0242218
30.1907
0.023577
0.0247303
1.8334
0.0404653
2.89282
0.0234189
2.96498
0.131129
0.0236495
0.0232249
2.83436
0.0246259
0.0237039
0.0232285
0.742507
0.0240907
3.21678
0.028059
0.0249568
8.67226
0.481222
0.023711
3.05193
2.59503
8.9939
0.0246733
0.024134
4.29229
0.0321265
0.420177
0.0222354
0.0252414
0.0232271
0.0230802
0.0246624
0.024626
0.0308219
0.0257141
0.0235476
0.0228846
0.124822
2.40667
3.16933
0.0938052
2.04759
3.10752
9.21799
0.024143
0.0923923
0.0433991
0.420279
0.0247086
1.16815
0.0249038
0.0236816
0.0221194
3.44436
0.0260251
0.0225433
0.0373436
0.123245
0.376079
0.696464
7.1633
3.03287
0.0253209
2.03983
2.51358
8.12485
0.0227794
0.0251538
0.199397
0.0232251
0.3985
0.148692
0.0253724
0.31922
0.0831137
0.0291228
0.0304417
0.023658
0.0241236
0.0249929
0.0244927
0.0228048
0.0236383
0.0239396
0.99923
0.0246885
9.66606
0.0252214
0.0307291
0.0445224
0.0238337
0.0242727
0.781566
0.317718
0.024697
0.0237239
0.0250059
0.0233701
1.15588
0.0243107
0.0246586
0.0295092
0.0236556
2.6669
2.71426
8.92513
0.0242485
3.37108
2.53753
0.0387575
0.0250368
0.0639242
0.0242809
2.8794
0.0291283
0.0333394
0.03775
0.0246772
0.0250668
0.0242605
0.107739
3.28087
1.27428
0.0266678
0.0221119
0.0241184
3.40655
8.03366
0.0248279
2.53025
0.0234933
0.45838
0.16505
0.761316
0.0262344
0.069888
2.19827
0.0241437
0.073781
3.1369
0.0222565
0.107479
7.68139
0.0238576
0.0275513
2.70142
0.618146
0.0254554
0.0229428
2.59854
2.73303
1.0223
0.0977909
0.0287025
0.0238401
0.582514
0.023769
0.0248289
0.023833
0.0228626
0.0238245
0.0255586
1.14165
0.0241615
0.30373
0.024451
2.76362
0.0237705
5.46273
0.0237782
0.382404
0.0246292
2.99956
0.0311019
2.74498
2.28735
23.6785
0.17212
0.0277954
1.16621
3.05925
0.0245646
2.58663
0.0229102
0.0263091
0.157561
0.0247606
0.0243577
0.0332865
0.0245972
1.95684
0.0222674
0.0243051
0.0303278
0.0675463
0.0241013
0.0409539
0.0277416
3.31572
3.21879
0.0227985
0.0240503
1.21201
0.156457
0.0238528
0.0313103
0.024449
3.33232
21.7291
0.0304981
0.024802
0.0229384
0.025453
2.07547
0.0242984
0.0249814
0.0347493
0.0232212
0.0245667
5.19627
2.94652
0.0240332
0.0248261
2.91212
8.7326
0.417811
0.129246
0.0243108
3.42066
0.0540229
2.55517
0.0239625
0.0530825
0.052254
0.0285102
0.0241392
5.20726
6.55686
0.0284689
0.0246928
0.660335
0.0536838
0.0227793
0.0242918
0.661756
0.0273002
0.159659
3.39991
0.025444
2.82329
1.16069
2.72349
1.30526
1.4661
0.0241714
0.0247438
0.0257791
9.0336
3.1321
0.0227919
4.77466
0.0238554
0.0253603
0.912012
0.0224635
0.148179
0.0228082
4.20197
0.0265801
0.0235815
0.0237433
6.81865
3.20654
0.0283937
3.0342
2.9401
5.00687
0.0938811
0.028318
0.0224595
0.0245129
0.0242502
0.247379
8.42154
0.024063
0.024705
0.0255111
1.80365
1.52669
6.78114
0.0244544
0.0659519
0.0285639
0.0236126
0.0249601
1.11873
3.24638
3.14392
0.0320111
0.100483
3.13872
0.0525148
4.95557
0.0234128
0.0278165
0.0320998
0.0279421
0.0544372
10.0623
0.0656276
0.0254597
0.0623017
1.40702
0.0249393
0.0234037
0.023841
0.377674
0.0250186
4.65146
0.022482
3.56873
0.12451
0.0242946
0.0240396
2.8189
0.0277521
2.70054
0.0245182
0.0234704
0.0332986
0.0274178
3.24429
0.0234634
0.0245074
0.0250498
0.0346137
0.0243199
2.18865
0.0241275
0.0234326
0.024438
6.92257
2.81204
0.775588
0.0284485
1.92367
0.0295439
0.0251071
0.0254053
0.0459001
0.0254864
0.172692
0.0255602
2.28489
0.0250406
0.0244588
0.0249929
0.0248139
0.0239739
0.777054
0.0240104
0.0222635
3.19866
1.11825
0.0237116
0.0287507
0.0253089
0.435645
0.0254244
0.309164
0.0315991
6.46491
0.0270385
0.02609
0.0254857
0.0268961
0.158287
0.309497
0.0238306
0.0671529
0.452196
0.679531
0.035781
0.0235517
0.0282595
0.0317784
0.0356317
0.0253415
4.11124
0.0245334
0.0236787
2.1589
0.0284051
0.0298621
3.37493
0.396783
2.09361
2.96264
2.6581
0.0246678
2.54704
0.0892855
0.111116
0.0361927
0.0518778
3.49679
3.71581
1.4224
0.028055
3.0454
0.404139
0.024759
0.0335892
0.033007
0.0896104
21.5624
0.023885
0.024817
0.0243534
2.38603
0.0240059
0.0236876
0.0685815
0.0382954
0.0238318
4.31605
0.0247961
0.166132
0.0239344
0.327212
0.0841526
2.0569
0.02458
0.0897335
0.0293859
6.99229
0.0253832
0.0251374
0.0247309
0.0241625
0.0448304
0.087776
0.0342454
0.0698692
7.06523
0.023997
1.79238
0.343802
0.0223693
0.0224528
0.669368
0.023809
0.0476565
0.0290814
0.0321531
0.0233843
0.0306324
0.0317928
0.0292098
0.0331257
2.78281
0.0251591
0.0248784
0.0234074
0.0959217
0.0551494
0.0260917
3.76395
0.0245979
0.0222542
0.0246559
0.0244954
0.0273712
0.0243677
0.0250474
0.0247924
0.0229187
0.0261642
0.0223596
0.0487461
0.033074
23.3002
0.0306006
3.504
2.86185
0.0326746
0.0889425
0.0269851
2.82903
2.86848
0.0317219
0.0246301
0.0524083
0.0302587
1.2776
0.0302617
7.65334
22.1622
0.0253979
2.60268
0.0454458
2.79788
0.0269096
0.0263551
0.0247377
0.338773
0.0256714
0.167626
3.15675
0.0220989
1.17386
0.0344739
0.045195
0.0235512
0.0228098
0.159657
2.93768
0.0316817
0.0222643
0.623934
0.0275308
0.0255639
0.024627
0.0321244
0.0248916
0.0320286
0.0223936
0.149659
0.0725478
0.0678384
0.0498799
2.42731
0.0223854
0.257571
0.0249322
0.0257223
0.0241757
3.00373
0.0255655
0.0255786
0.0350418
0.025328
2.77667
0.276889
0.0240467
0.0257364
0.0239323
0.0701837
0.0238329
2.6476
0.0234019
0.0892667
0.0242466
0.0247797
0.0244891
2.92715
2.51115
0.285631
3.07126
2.57947
0.0259046
4.01343
2.12558
10.9836
0.0281663
0.03549
0.0235003
2.58333
0.0250432
0.0232261
0.0263033
0.0308038
0.0443161
0.602824
0.0238668
2.40643
0.0302309
3.07792
1.31894
0.0257872
2.42732
0.256083
0.0236696
0.0311906
0.0331406
0.0240571
0.0257495
2.71621
0.699571
1.96132
0.0248444
3.04462
0.0245384
0.240288
4.38348
2.5916
2.94755
0.310096
0.0267904
2.85606
1.53955
0.0279892
0.0352196
2.1363
0.0239161
0.0234714
1.94307
0.0333548
0.0224917
0.0245354
0.0239565
0.0251455
0.396047
0.0237849
5.17639
2.60084
0.0239668
0.0257217
0.0251257
0.0222522
0.0289256
0.0371507
0.0889311
0.0232167
0.0244175
0.0352762
0.233552
1.2986
0.0493798
0.0791792
0.0246335
0.0256113
0.369024
0.0249733
0.0491173
0.032567
0.0487012
0.0592878
2.04985
0.0238018
0.0256484
0.0516582
0.0251703
0.0244544
0.0638451
0.304087
0.0253152
0.0245309
0.0246049
0.0245431
0.106838
0.0641686
0.0336883
0.128353
0.0258459
0.103376
0.256307
2.82571
0.0253753
0.0260311
0.0263263
0.0244527
0.0254604
3.41234
0.0249602
0.0239179
4.57406
0.0248775
2.69102
0.0224874
0.0239577
0.0261855
0.0957474
0.548912
0.023891
0.577436
2.21785
0.0249577
0.0932076
2.38384
2.83018
0.0256737
0.0256633
0.0353243
3.4395
1.68661
0.0397809
0.0283078
0.0236372
0.122352
1.66841
7.94049
0.0255174
2.01553
0.0240787
0.41713
0.0335451
0.132463
0.0359003
3.99454
0.0247352
1.72326
0.0261647
0.0259086
0.0333187
3.43617
0.0254745
0.289618
0.0237551
0.0335585
0.0264494
0.394115
0.0237001
0.0484546
0.476858
0.0247183
0.0244021
0.509985
3.108
0.369236
0.377999
0.0306359
0.0272319
0.0256276
2.8809
0.0255125
0.0249172
0.0282691
1.555
3.37905
3.0298
0.0344898
0.024673
0.0258812
0.0262723
0.0223639
0.0648808
3.27744
0.0359628
0.0478997
0.0238642
0.337091
0.0239436
0.156728
2.03339
0.123886
0.0254971
0.0235234
2.58859
0.024267
0.0471435
0.0361016
0.0655221
0.0238685
2.94396
0.0293338
0.0247973
0.0893408
2.81771
0.0901183
2.08852
0.0249318
2.75225
1.93625
0.0222454
0.0246085
0.0233103
2.33716
7.35151
0.0551566
4.79353
2.02375
0.025217
0.0245377
0.023594
0.0251423
2.94712
1.82592
0.0249674
0.0658325
0.0269558
0.0344672
0.0241461
0.0262644
0.308097
0.0249605
0.0255319
0.0258253
0.0239838
0.0245608
0.0238199
0.0646012
0.0245568
0.314317
0.092666
0.0241923
0.0279419
0.0327661
5.4834
0.0239255
8.77275
0.0276644
0.416441
0.0275751
0.486607
1.37015
0.0246394
0.21705
0.353556
0.0238908
0.036546
0.447543
0.0886096
7.78749
0.0244562
0.024742
0.0842175
0.0254446
0.0506403
1.66117
0.0870154
1.89658
0.0243711
0.660922
2.80464
0.0243905
2.81098
0.274624
1.98494
0.0736379
3.31072
0.0242068
0.279612
6.38091
0.400457
1.23224
1.08422
0.311234
0.024429
0.0281546
0.0271925
2.01108
0.0944964
0.304088
0.0230686
2.69016
0.0245437
0.022996
0.0246118
0.0509682
0.0279082
0.0255464
0.0240631
0.0226631
0.35771
0.0258346
1.77587
0.0252531
0.590954
0.023293
0.0222383
2.62021
0.0252054
0.967588
0.147183
0.0260793
3.03217
0.0676753
0.8438
0.0335361
1.86297
0.0244116
0.0254377
0.0235835
0.0299563
4.90206
2.24386
0.241445
0.0256283
0.0230215
2.74843
0.0247122
3.22552
0.0246518
0.0248054
0.0243433
0.0325338
0.127114
4.38375
0.0249318
0.0254168
0.371467
0.0221654
3.0452
0.268248
0.0324189
0.544504
0.0336036
0.0508713
2.84358
0.0255398
1.5156
0.0654239
0.0246922
1.27395
0.992632
0.0242729
0.024647
0.0240328
0.0248189
0.104152
0.420578
2.96282
0.0232136
0.0238084
0.0242122
0.0254759
0.0247882
0.0282901
1.28267
0.024548
0.0246342
26.9778
1.81025
0.219043
0.120139
2.86252
0.0240682
0.657429
2.90638
2.72751
0.310371
0.0251223
0.120506
0.0578943
0.0241142
0.462559
3.59845
0.0224121
3.58095
0.025333
0.0245253
0.307498
0.0244201
2.77053
0.186118
0.0236215
3.12197
0.0311629
0.0265984
3.18216
1.09747
0.0241438
0.0240544
0.0244076
0.0249575
0.026915
2.27848
0.0252257
0.0237995
0.0460875
1.22157
0.766212
0.0568363
0.0243388
0.310718
0.043799
3.23916
0.0238094
0.023857
0.0251216
0.0252797
0.0658161
0.0305014
0.0224074
0.102905
0.306948
0.0246903
0.0234996
0.0349134
0.0250706
0.630565
1.99657
0.0273576
0.0256463
0.0232557
0.0250003
0.0258307
0.0243744
0.0247363
0.0247511
0.289945
0.0246501
0.0959196
0.0241786
0.323498
0.0259497
3.49955
2.98901
2.99897
0.23993
1.76565
0.0802884
0.953552
0.310237
0.0956489
4.97568
0.0263207
0.78723
2.66408
0.151922
0.023219
0.309756
0.0243966
0.430442
2.67613
0.114762
0.0245139
0.0237333
0.0242521
0.025983
4.00914
3.60628
0.0253009
1.89122
0.325141
3.39421
0.0235752
0.155178
0.0936275
0.0314243
0.150532
3.09585
0.180823
0.0247537
0.129772
0.030913
3.2149
0.0241754
0.0232924
0.0249067
1.03958
0.391571
0.0244037
0.024839
0.0245915
0.0243699
4.27826
0.240693
0.0486245
1.19054
0.0243355
3.38163
1.03575
0.178071
0.0266144
0.0671349
0.738175
1.44042
0.0232197
1.77644
1.95765
0.0284337
0.0252282
2.29998
0.0281902
3.02917
2.29406
0.0248495
0.0240637
0.0273977
0.0251893
0.0245286
0.0267675
0.0949106
0.023697
0.0244227
0.0254572
0.0259923
0.0237023
6.9588
0.0262619
3.03189
0.0248658
0.0550107
0.0240349
0.027165
2.72038
0.0289641
0.0246792
0.0264816
0.0360891
0.0463383
2.15678
0.36991
2.09027
2.11287
3.30964
2.35063
0.312706
0.0546295
0.0361418
0.0234422
0.0242866
0.308783
0.0241961
0.025611
0.0231963
0.0244862
0.0240262
0.0236744
0.0246344
0.0243313
3.12605
0.0259859
0.0250875
0.0236494
0.0272473
0.415564
0.0276137
0.050221
0.0340576
0.0270783
0.352361
0.0242788
0.0322519
0.0240013
0.0314975
0.0249148
0.0377189
2.33141
0.0867705
0.0251162
0.0241309
0.601051
0.024788
0.108271
0.0241937
0.232358
1.48133
0.115524
0.0266623
0.0854852
0.0247884
0.300029
0.048691
0.133699
0.0480708
0.35109
1.97353
2.71109
0.0244142
0.0235161
0.0244728
2.43733
0.0240982
0.0556599
0.0581354
0.0253481
2.6901
2.02897
0.0239555
0.0231432
0.540747
8.63675
0.417282
0.0243358
18.478
0.0224848
0.532438
0.0328762
0.0372063
0.0272421
1.35283
0.0239084
3.04338
0.027861
2.98544
3.37701
0.350362
0.0280901
0.0302174
0.0233858
0.0269928
0.0239093
0.0335301
0.0249845
3.3885
0.0242754
0.0250017
0.0231737
3.01527
0.0238176
3.98619
0.747843
0.0651482
3.13553
0.0690995
0.110622
0.0255108
0.0292832
0.024149
3.06868
1.09292
1.93751
0.512616
0.224301
0.0995693
2.34586
0.0223215
3.09779
2.20072
0.0581466
0.0250384
0.431113
6.20861
0.302548
0.0246363
0.0524068
0.650316
0.0230467
2.68512
0.0254986
0.047603
0.0256296
0.0599139
0.0220978
0.0227721
0.0223184
0.0355184
0.024787
0.152234
0.0249029
0.0236044
0.518725
0.0244383
0.032978
0.0307226
0.0242801
2.47101
0.033132
0.0256857
0.0243082
0.0253884
2.46148
0.0243862
0.0238308
0.0537049
2.22357
0.0265185
0.1368
0.0230677
0.136544
0.0257397
0.0251886
2.70583
0.0366719
3.24357
0.0249121
0.110761
0.0265885
4.29865
7.43516
0.0249341
2.60109
0.0776071
0.0236285
3.73466
0.0329247
0.0261167
0.0678047
0.0256225
0.0242285
0.0271714
0.119547
0.0263268
0.0681964
0.0454197
0.124063
0.0228688
0.0913182
0.0247876
3.21424
0.0437202
0.0243758
6.42693
0.0242233
0.023835
0.111041
11.9388
0.286298
0.163014
0.29049
0.0522359
0.0242081
0.0246861
0.115755
2.46131
0.0255432
0.0460777
0.0258424
0.0244412
2.43163
0.0325234
0.0364557
0.0573711
3.05434
0.0222926
0.0301635
0.0265476
0.195292
0.610134
0.449799
0.0245093
0.0256791
3.12002
0.0272806
8.45001
0.445939
0.0246709
0.0436605
0.0595558
0.0232707
2.21115
0.0268478
1.92956
4.33298
0.0247426
0.0294384
0.0246604
0.0244931
0.0327327
3.34949
0.0228087
0.0259554
3.53374
0.0247101
0.298913
3.17184
0.0246935
6.79889
0.0244272
0.0257997
0.0232289
0.0242224
0.214534
0.0256201
0.0803712
0.0258596
0.0245832
0.0906239
3.08506
0.0264666
0.867962
7.89995
0.309245
0.025116
0.0255824
0.0785248
0.0240744
0.0249146
4.15017
0.13102
0.0293768
0.0249559
0.0256505
0.289331
0.0243271
0.0239326
3.016
0.205615
0.0224385
0.024243
0.299476
3.85345
0.02482
0.0254275
0.0550603
0.120311
3.20248
0.0236221
2.76216
0.0265128
0.0259091
2.69208
0.580903
0.0850291
2.16876
0.0241785
2.72743
0.0263333
0.24497
0.102004
0.0244656
2.8609
0.0256541
0.0233228
0.0306036
1.18679
0.781269
2.57509
0.024443
0.0377441
0.0336551
0.0269558
0.0254319
0.025352
0.0256019
2.72691
3.32246
3.76601
3.26596
0.0273182
0.031951
1.09073
0.0284085
0.0242032
0.0270597
3.2414
0.0267552
1.3071
1.03384
2.60275
0.0286582
5.07107
0.0344068
0.098806
2.27076
2.08503
0.940927
0.0779636
0.0246258
3.55768
0.0235381
2.66943
0.0230857
0.0239645
0.0254566
0.0894929
0.357196
7.6295
0.0415238
2.21927
0.0245453
0.0455223
0.0233911
0.10461
1.10416
0.129434
3.07297
3.30005
26.8891
0.34629
0.0250476
4.42882
0.0248882
3.26762
0.329201
0.0273617
0.0245127
2.6575
0.127484
0.0224357
0.0245619
6.6242
0.0236158
0.0247929
0.0828124
0.0505758
0.0228514
0.115054
0.0467624
0.595802
2.69526
0.024519
0.0235707
0.272026
0.0246129
0.20748
0.0458883
2.36636
0.0325112
0.0369972
0.0235984
0.0222491
1.04894
0.0449197
0.0603605
0.0264265
12.5537
0.238019
0.492249
0.295484
0.0254059
0.222851
0.024291
0.0366613
0.0285328
1.63212
0.0233723
0.0233467
3.28756
0.151714
2.66409
0.0284426
1.58717
0.172312
0.026607
8.2499
0.0258152
0.0327994
0.259777
5.93211
0.0240411
0.550846
0.873443
2.97197
2.6537
2.95371
0.0271775
3.25922
0.259282
0.267862
0.0571248
0.0309527
0.0223075
0.0630444
0.02413
0.594781
0.0304107
0.0252138
0.0254202
0.202757
0.261161
0.0240682
0.307488
0.0925081
0.0569732
2.10232
1.92188
0.0257069
2.3648
0.022852
0.307204
3.27874
2.44444
0.0246001
0.14689
0.0245662
3.79533
0.0291505
0.148326
0.0297319
3.34642
0.0899432
2.19448
0.0234981
0.868213
0.106129
0.0248088
0.0659502
2.11735
0.0251261
0.0244187
0.0339614
0.240249
0.0245564
0.0242991
0.0240595
0.306582
0.0344161
0.0910024
0.115845
0.0307585
0.0265351
0.0220923
0.0231581
0.0229674
0.50681
3.0877
0.0242092
0.0278308
0.0246174
0.0826269
0.0251435
0.788552
0.0254524
2.67571
2.42266
0.0247803
0.16216
0.0388627
0.0236561
0.0223709
0.151248
1.03936
0.0237371
0.0936121
2.42551
0.560458
2.61967
4.20564
0.058285
0.0246611
1.61703
0.0241843
0.138601
0.0229894
10.4908
0.0233163
1.11243
0.0265894
3.21007
0.0230625
3.08118
0.0223884
0.0247776
0.228986
0.026053
0.0233168
0.0350109
4.43588
0.0242087
2.2036
0.0261647
9.64138
0.625084
11.2464
4.34548
0.0247427
0.0298064
3.18029
3.23089
0.0245267
0.0314309
0.0373802
0.485387
0.0249182
1.84913
0.0623683
0.0232568
2.42315
2.6356
0.0258967
7.0461
0.0625841
0.8182
4.59209
0.0243888
0.0240374
0.305581
0.0243871
2.95213
0.0260315
2.13381
1.85081
0.0232465
0.217344
0.0223345
0.175418
0.0246197
0.0339427
2.85432
0.0242595
1.36242
0.025711
0.0245168
0.0423956
0.0248482
3.29526
0.141316
4.61407
0.122829
0.569979
0.0256414
0.0240206
2.90664
2.83994
0.0235447
0.124984
0.024782
0.0224045
2.49653
0.299947
0.0261223
0.0237245
0.0243811
0.0231178
8.37623
0.0244791
0.0885944
0.0357742
3.66263
0.119403
0.105572
0.024204
0.309578
3.03896
0.0455793
0.025327
0.63696
0.0221814
3.04241
3.06333
0.023179
0.0607493
0.0318418
0.0367597
0.0278819
0.0288828
13.6357
2.13677
0.0557913
0.0245335
8.31565
0.0248962
5.67883
0.0913369
0.142139
3.61431
0.0243085
0.26596
0.0885962
0.0273904
2.27543
1.69543
3.24511
0.209331
0.0246648
0.171932
0.26667
0.034722
0.24687
2.62286
3.62953
0.672827
0.0234266
0.0232454
0.0262096
0.0268254
0.0245084
0.0242557
0.0292052
0.025111
0.0341806
1.46778
0.149494
0.0258825
2.09352
0.0292812
2.7716
0.0259304
0.143376
0.0985513
1.55404
2.56979
0.0240321
2.36114
3.04428
0.024736
0.0250749
3.03145
2.96788
0.304552
0.22393
0.0242126
0.0261872
0.199652
0.0240749
0.0327783
1.87157
0.0231172
0.0568575
1.13729
1.84158
0.024822
0.125645
0.0324267
0.037844
4.14455
0.0221888
0.0241378
0.0231975
0.238691
3.03722
0.211628
0.0246919
0.308288
0.0251778
0.116948
2.1257
0.0254346
0.0233115
0.0243394
3.14368
0.309463
3.30993
0.0247613
2.53177
2.9196
0.574985
0.0242514
0.231465
0.0245001
0.0231175
0.024146
2.22848
0.0857929
0.91384
0.0290831
1.94612
0.464403
0.025044
2.88955
0.0310512
0.0245322
1.14879
0.0302553
3.1332
0.309706
0.0249202
0.0233614
0.0247211
2.95513
1.4159
0.990178
0.075582
0.0643651
2.46074
0.97106
0.238022
0.345741
0.0470815
0.0245434
0.581597
0.0232884
0.0228474
0.104743
1.28451
0.0236562
0.0246333
0.244015
0.0611461
0.0259801
2.94822
0.0249651
0.0339415
0.0251873
1.12896
1.61168
0.094127
0.0238407
0.0248374
3.34144
2.85849
2.87829
0.0539231
2.55851
2.63744
2.59806
0.274619
2.30393
0.0250306
0.359619
2.21746
0.0348484
0.0240822
0.0257503
2.93297
0.0248641
0.0232835
3.45428
0.0241363
2.91045
0.0222275
3.31566
2.23163
6.58731
0.0233207
0.0243424
0.379109
0.0222902
0.302605
0.0259152
0.393675
1.06401
0.225696
0.0829224
0.0428406
8.8048
0.128033
0.0245087
0.0251112
0.120056
1.46167
0.266192
2.47058
0.038745
0.0359958
0.02227
0.123807
0.0251112
0.260165
0.0363327
0.153951
0.024615
0.0306213
0.144485
0.0434478
3.27899
3.53846
0.0234736
0.0251872
0.0241942
3.04546
0.0243118
1.11074
0.0272522
2.35889
0.0232263
1.68731
7.39221
0.0227443
0.0241712
0.0688885
0.0742854
0.0518299
0.598857
0.0235096
1.99524
3.26676
0.0240483
6.11716
0.693005
0.0723332
0.0320934
3.10386
3.61
2.28647
0.272831
2.93648
0.023063
0.356683
0.0240955
0.0231424
5.30859
0.577153
2.66083
0.406996
0.215536
0.207105
0.0270906
0.0247696
0.0237793
2.92622
0.0232274
0.0658905
0.409149
3.31197
0.0221139
0.0234149
3.46304
0.0293963
2.89506
0.0250727
0.025789
0.0251517
0.0232279
0.071464
0.450917
0.529209
1.81616
0.0509269
0.245349
0.244647
0.45438
1.86588
0.0239475
0.195577
0.0241888
0.024379
0.442677
12.4002
1.69596
0.0623815
0.0267183
0.128682
0.023556
1.45019
0.363369
0.0241152
3.13211
0.0346681
0.0260826
0.0225199
3.06516
0.0530742
0.0236507
3.12135
0.572603
3.28981
0.0222914
3.03381
3.43132
0.305819
1.68832
0.0222122
2.83456
1.91042
0.0680367
0.327848
3.65252
0.0269275
0.0417458
0.237261
0.0796585
0.0250252
0.0402768
0.0725336
2.11179
0.0445197
0.0241239
0.026022
0.0235556
0.0249314
0.0266299
0.0248423
0.023995
2.89438
0.0238108
0.128238
0.0245283
0.0235643
0.0235155
0.0444276
0.0251457
2.43625
0.57921
3.4042
0.0231731
3.50546
2.14609
1.98969
3.12651
0.0288049
0.65078
0.0252598
2.53198
3.44088
1.04546
0.0266632
0.0413158
1.72579
0.0246021
0.0259458
0.0499605
0.023762
0.0225597
2.63477
5.19503
0.0254501
0.0513353
1.67387
0.0242665
3.53189
2.18245
0.281319
0.023895
0.0244745
0.615951
0.0268839
0.0234101
0.0261538
2.24772
0.471356
2.30885
0.0250728
1.93667
0.164941
0.0349223
2.46842
3.44235
2.10458
0.0234167
0.176725
0.0245107
0.0241488
0.310388
2.074
1.28343
0.273201
0.966311
0.0252418
0.0604795
3.78048
2.9258
0.02218
0.0236383
0.0235105
2.94085
0.299646
2.5156
0.0613845
0.0894835
0.022922
0.0509928
3.09022
2.96592
0.0243439
0.128801
0.473466
0.179059
0.0259639
0.301977
0.0252008
0.0262321
0.0234788
3.17478
0.0241589
0.023768
0.294308
7.12775
1.76889
0.261611
0.023316
2.29565
0.0657336
0.0250296
0.0621718
0.0500519
3.99165
0.458956
2.10845
0.0777335
0.0251334
1.11826
2.48599
0.0300086
0.0222772
0.191135
2.9772
0.0471225
0.0236673
0.0228516
0.0292763
0.0243937
3.34234
0.0246267
0.0244355
0.0378942
0.0249479
3.52894
0.0429833
3.49328
0.0240116
2.20399
0.035868
1.80732
0.0580711
0.0241717
3.28887
0.0238269
0.0251823
0.0273537
0.0356469
0.250245
0.024223
0.213291
0.112394
0.0288056
0.0242013
2.69852
0.0288074
0.0605618
26.5295
0.085308
0.313428
0.0244755
0.312806
0.026247
0.40823
3.1053
0.304835
3.31811
0.0288374
0.0283605
0.0961382
0.116372
0.024496
0.024244
2.20234
0.0323258
3.04718
2.94806
1.80732
2.69537
0.0241389
0.0252143
0.60844
3.10526
0.0261796
0.0236502
0.0230851
1.58485
0.024308
0.0221862
0.0826149
0.028494
0.0825357
0.023198
3.88717
0.256732
0.262896
0.63294
2.30646
0.0377301
0.0231427
4.63724
1.50735
0.136222
0.0245204
0.0243657
0.0241146
0.151726
0.2618
0.0287548
0.0243126
0.0374114
3.15941
0.0231184
0.0234493
1.94529
0.0250124
0.0251733
0.107409
0.0245364
0.0303835
3.41767
0.0249937
7.26036
0.200585
0.575334
0.0251431
0.0283115
0.0657617
0.0792171
3.1374
0.0230388
0.0229998
0.034569
2.59083
0.0243566
2.24344
0.0231416
0.0231198
0.029541
0.025235
0.0341042
3.17107
2.94165
0.213096
3.20512
0.0270718
0.0245365
0.164664
3.12303
0.271846
3.29163
0.0238534
0.0223048
4.64454
0.0379196
0.0239669
0.253092
2.67804
0.160906
0.0500185
3.23295
0.498306
0.0279599
2.65968
0.0235993
3.60581
0.0711824
1.99129
0.296995
0.245787
0.0235957
0.0297674
2.11918
0.024349
0.0247049
0.0286564
0.0246461
0.232107
0.023521
0.0248996
0.022365
0.0233227
0.0249398
0.0236357
2.8496
0.0251796
0.0280515
1.1328
0.0553462
0.356102
0.02226
0.0318679
0.0243173
1.63291
0.0418084
7.13696
8.59145
0.0237539
0.0241657
0.0240906
0.0356215
0.0239324
0.0235518
2.29108
0.0233111
2.06555
0.023239
0.265734
0.0252214
3.59998
0.0253014
4.19871
0.023225
0.0249099
5.60816
0.0322571
0.240222
0.042851
0.53496
0.0863051
0.326726
1.84919
0.0364942
2.41933
0.0248035
2.94933
0.0254176
0.0245703
3.55638
5.20697
0.0238283
0.0308154
0.0248212
0.0712072
3.22863
2.89432
2.45209
0.400132
0.0242349
2.36604
0.0235025
2.30813
0.0257831
0.0347832
0.210889
0.0242181
0.0266848
0.024434
0.0226013
0.0316385
3.41265
0.023527
1.40527
0.0223985
0.0330442
0.0237597
2.52929
2.57568
0.104576
0.458185
0.0243677
1.9888
0.0249298
0.0232194
0.0382164
0.0245003
0.0234472
3.22397
8.46749
0.0619189
0.0290209
3.18546
0.063741
0.026497
0.0331276
0.0536895
0.0238624
9.3929
0.0245291
0.0286657
0.0243549
0.0271729
2.55581
0.0254508
0.0300161
0.0230896
0.0240699
0.026914
0.199343
0.0311266
0.024277
0.1182
0.0241401
0.0245506
0.024092
0.0235479
0.266648
3.35809
0.0245949
0.0233099
0.260216
0.0789978
0.024714
3.07282
0.109264
2.97256
0.0443483
0.034382
0.043343
4.40825
0.0241272
0.0222891
0.024105
0.0385528
3.31643
0.788456
0.0242313
0.235654
0.0251035
0.0240941
0.0230898
0.0234008
0.0260921
0.0559613
1.67153
0.0353601
0.031799
0.039359
0.0264111
0.0373087
2.56681
0.306437
0.0348262
0.0872541
0.400145
2.66405
0.0313956
0.0240835
0.0237988
0.0243129
1.67111
0.597021
0.0250283
0.0250803
0.123703
0.457565
0.336314
0.371531
0.0511155
0.075874
0.0355866
2.68688
0.0237814
7.92532
3.58238
2.91333
0.0242726
0.398387
0.023743
0.0247431
0.0239476
0.0829609
0.0252615
0.0371
0.0352504
0.26631
3.84707
0.0252562
0.0249465
0.0476982
0.02328
0.212818
0.474162
2.6086
2.48807
0.0434718
0.0240366
0.0235218
0.0243119
0.058229
0.0273776
0.0224749
5.4047
3.28511
0.063399
0.0265035
0.0239628
0.554432
0.0653402
2.68169
0.0277761
0.0257809
0.0230428
0.305977
0.0240213
0.113679
0.0241635
4.79807
2.90863
0.0245461
0.0241486
2.34997
0.0798661
1.88937
0.047815
3.68754
0.303082
0.326236
0.035284
0.0690588
0.0494341
0.0477068
2.09986
0.0359614
0.0607385
2.51118
0.0273939
0.0263222
0.0248616
0.0271088
3.23375
0.025177
0.0899294
2.17508
0.123415
0.0237767
3.38817
0.0232966
10.2141
3.53905
0.0231242
2.27112
0.144854
0.0246112
0.0240338
0.076608
2.93263
0.0592349
0.0970515
3.41384
0.0921831
0.0230756
0.0259479
3.11423
0.0229277
0.0356624
9.99216
0.762527
0.0301258
0.299997
2.72209
0.0269931
0.0271023
0.0777946
2.9967
0.0403947