/*--------------------------------*- C++ -*----------------------------------*\
| =========                 |                                                 |
| \\      /  F ield         | OpenFOAM: The Open Source CFD Toolbox           |
|  \\    /   O peration     | Version:  v2012                                 |
|   \\  /    A nd           | Website:  www.openfoam.com                      |
|    \\/     M anipulation  |                                                 |
\*---------------------------------------------------------------------------*/
FoamFile
{
    version     2.0;
    format      ascii;
    class       volScalarField;
    location    "400";
    object      p;
}
// * * * * * * * * * * * * * * * * * * * * * * * * * * * * * * * * * * * * * //

dimensions      [0 2 -2 0 0 0 0];


internalField   nonuniform List<scalar> 
27915
(
-0.0127588
-0.0442143
-0.0635328
1.47153e-05
1.19098e-05
-0.0223096
0.00099766
-0.0711302
2.42907e-05
-0.0663421
-0.0249891
0.0243011
0.000719036
0.000981089
0.000201631
-0.00338702
-0.0312369
-0.0118353
-0.0630113
-0.0699567
0.00468006
-0.0113722
-0.0246257
-0.0104923
-0.00347809
1.5413e-06
-0.0467018
-2.014e-05
-0.0625285
-0.0330144
-0.0130354
-0.0123757
0.00100612
0.000670544
-0.0392101
0.000642616
1.23711e-05
-4.03782e-05
0.0102172
-0.00301203
-0.000712377
-0.000127548
-0.0585344
-0.00557781
-0.00451431
-0.00295078
-0.00848539
0.00185709
-0.00174482
0.00129936
-0.0696904
-0.0206333
-0.0961567
-0.0300677
-0.0394324
-0.0085547
-0.013099
0.000841787
-0.000486563
-0.0131076
-0.00971165
-0.00613897
-0.00029631
-0.0609198
-0.0113841
0.0114919
0.0294554
-0.069856
-0.0413443
-0.012207
0.000949098
-0.0102891
-0.0121577
-0.0134405
-0.0680348
5.26468e-05
-0.0323059
0.00106942
-0.0909606
0.00277523
-0.0222958
-0.00124674
-0.0340563
-0.0791512
-0.0265771
0.00372147
0.000675119
-0.0591622
-0.0641726
0.00255514
-0.00398173
-0.0100417
0.00125009
-0.0490033
-0.0655185
-0.0643687
-0.00255105
-0.0648918
-0.00602018
0.000479113
-0.0513594
-4.36454e-05
-0.0649551
0.00209573
0.00065835
-0.00110116
-0.0319474
-0.00961985
-7.74953e-05
-0.0628913
-0.0278067
-0.00102766
0.000685192
0.00377421
-0.00888484
-0.019053
-0.0289461
-0.0124602
0.0020661
-0.00198381
-0.00411533
0.000580146
0.0010174
-0.0109217
0.00101171
0.00600798
0.0302674
-0.063095
-0.0105311
0.000906513
-0.00489928
-0.0464115
-0.0525319
-0.0593734
-0.0149619
0.00930506
0.034585
0.000678856
0.00105507
-0.00409521
-0.0118413
-0.0404293
-0.00132436
-0.0497093
-0.0245489
-0.0678713
-0.0613301
0.00132195
0.0002842
-0.0348576
-0.0299911
0.000699356
-0.0376848
-0.0901722
-0.0314258
-0.0698407
-0.0475724
0.00050456
0.000683705
-0.0115987
-0.0365296
-0.0759238
0.00116359
0.00259152
-0.0146922
-0.0178568
-0.0372605
-0.0094542
-0.0660748
0.000132301
0.00500764
-0.0126747
0.0009575
0.00211233
0.000947507
-0.0903625
-0.0640821
0.00198233
0.000803773
-0.0774584
-0.0740194
0.00226094
-0.00136733
-0.0692687
0.0102143
0.0110925
0.0010378
2.93285e-05
-0.0642733
0.000694918
-0.0642094
-0.019673
-0.0372868
0.00195049
0.000121356
-0.00390638
0.0108252
0.0021703
0.000561924
-0.029781
-0.0943212
-0.0286388
0.000522363
0.000926247
-0.0912041
-0.0610899
-0.0334203
0.00142982
-0.112679
0.000122249
-0.0322372
-0.00183351
0.000642764
-0.0129638
0.00103353
-0.0114502
0.0016433
-0.0302527
0.00097948
-0.00124734
-0.00958252
0.00059156
-0.039173
3.8077e-05
-0.0718357
0.00382652
-0.00602048
-0.00402956
0.00112545
0.0011024
-0.0623127
0.0010095
0.00242599
-0.0127144
0.0034659
0.00151148
0.010038
-0.0115718
-0.00141907
0.0010488
-0.00249336
-0.00320643
0.000658406
-0.030733
-0.0104247
0.000786496
-0.0914857
-0.0616229
0.00154044
-0.0382207
-0.0425073
-0.0686553
0.000175274
-0.0132091
-0.00115325
-0.00311304
-0.013339
0.00101831
-0.0288247
-0.0342425
-0.064313
-0.046002
0.00924542
0.0116068
0.00930122
-0.0683049
-0.00192306
-0.061669
-0.0701136
-0.0282704
0.00204836
-0.0720916
-0.0764252
-0.100387
0.00121012
-0.00202817
0.00215689
-0.00339995
0.000433977
-0.0109126
0.000988872
0.000558231
0.00106871
0.000899607
0.00506823
-0.0621831
-0.101064
0.0063905
-0.0319377
-0.0654229
0.0208735
-0.0111614
-0.0696439
-0.00622731
0.00213747
-0.0461996
0.00247644
0.039925
0.00116913
-0.012933
0.0171936
0.00157537
0.00103646
0.000578041
0.00316647
-0.0961335
-0.0293352
0.000899636
-0.0908162
0.00217389
0.00165587
-0.0224641
-0.0310179
0.00104152
-0.000522217
0.00070974
0.000465665
-0.0778984
-0.0621039
-0.0635866
0.000809022
0.000128761
-0.0021584
-0.00884499
0.00940823
0.00156373
-0.0569625
-0.0628294
-0.00910459
0.00119259
-0.00683861
0.000932577
-0.00913421
0.00108571
0.0127425
0.000884665
-0.0268933
0.000598985
0.01169
-0.0954503
-0.0312603
-0.0984976
-0.0617148
-0.109113
0.000874271
0.00127882
-0.0220944
0.0301005
-0.0637897
-0.010828
-0.00858337
0.00104861
0.00351061
0.00904025
-0.0349634
-0.044939
0.00215702
-0.0098454
0.0011351
-0.0130177
-0.042704
0.00207543
-0.00440125
0.00101016
0.00127021
-0.099056
0.00329246
0.000619279
-0.0126075
-0.000182313
-0.0613391
0.000904357
-0.0400656
-0.00614503
-0.0665385
0.000925285
0.00111727
-0.0578166
0.0045821
0.000148447
-0.0210063
-0.0516057
-0.00262298
-0.00267783
-0.0509286
-0.0297524
-0.011632
-0.0511048
-0.00395048
-0.0536224
-0.0190768
-0.0881629
-0.0639514
-0.00206595
-0.0667752
-0.0452234
0.00302589
-0.012721
0.000991665
-0.0610573
0.00112975
-0.00516755
-0.0679405
-0.0254241
0.017814
0.00133797
-0.0306614
-0.0130015
-0.0150813
-0.0339728
-0.0647251
0.00483434
-0.0021644
0.00022416
0.0278852
-0.00938321
-0.0100762
0.00210515
-0.0452668
0.00124367
-0.027627
0.000408303
-0.0491547
-0.0628814
-0.0927629
0.00226508
0.000579691
-0.0955952
-0.0629715
0.00161205
-0.0540848
0.00226768
0.000999586
-0.0336084
0.000588479
0.00100545
-0.00962953
-0.0101598
0.00248548
-0.0544065
-0.0293223
0.000135393
-0.0260621
-0.0354136
0.000948937
0.00117326
-0.0645593
-0.0247427
-0.0549505
0.000147469
0.0170699
-0.0497811
-0.00149036
-0.0100869
-0.0294337
0.00160527
-0.0289614
0.00127932
-0.0434826
-0.0650888
-0.00205646
-0.0127675
-0.0327648
0.00177614
-0.0610718
-0.0647279
0.00104072
-0.00612496
-0.00822547
-0.00254388
-0.00546985
-0.0505138
0.00161703
0.00117468
0.00262444
0.00458412
-0.00544104
-0.00655961
0.00366024
-0.000198347
-0.000442601
-0.00526429
-0.105422
0.00252137
-0.0947118
-0.0105552
-0.00314389
0.0016331
0.00232182
0.00116321
-0.000862636
0.0010455
-0.0548124
0.00215617
-0.0613371
-0.0253475
0.00142952
-0.0305736
-0.0584794
-0.063721
-0.00664484
0.00210723
-0.0905484
0.00833397
-0.0916654
-0.0622495
6.61977e-05
0.00219107
-0.0606073
0.0149295
-0.00243191
-0.0304656
-0.0539084
-0.0717091
-0.0617698
-0.063229
-0.064928
0.000646413
-0.0407738
-0.0216781
0.00041002
-0.00140854
0.00117077
-0.088706
0.000124416
-0.0134808
-0.0297156
-0.064722
0.00201469
-0.0638239
0.000575981
-0.0785038
-0.0643002
-0.0274428
0.000718122
-0.0429968
-0.0641509
0.00118749
-0.0461255
-0.00961088
-0.0124143
0.00256197
-0.0123472
0.000725026
0.00163057
0.00745718
0.00114836
-0.0651282
0.000502791
-0.0136886
-0.0128964
-0.0142704
-0.00565812
0.00443167
0.00382034
0.00201918
0.00715746
-0.0641718
0.0219808
-0.00316748
-0.0610664
-0.0666892
-0.0466923
-0.0355327
-0.0124973
-0.0139615
-0.0905158
0.000682899
-0.0522378
-0.0237279
-0.044768
-0.0921348
-0.00083407
-0.0661434
0.000918307
-0.0148365
-0.0971572
-0.0371888
0.00266342
0.00117002
0.000951647
-0.044322
-0.0117499
-0.0650112
0.00383759
0.000386299
-0.0637862
0.000639219
0.000539381
-0.0620584
0.000947513
-0.0199091
0.0321803
-0.0114626
-0.0282018
0.00121793
-0.0699327
-0.00388569
0.00100312
0.000679059
-0.0479496
-0.00932338
-0.00146499
0.000859726
-6.30845e-05
-0.00638015
-0.0638179
-0.0118795
-0.0113107
-0.0623718
-0.00423969
-0.00155016
-0.0692215
-0.10858
-0.0608742
-0.0107783
-0.00680678
-0.0997625
-0.0523068
-0.0150304
0.000406067
-0.00947028
0.000659373
0.000208632
-0.00994337
0.00176974
-0.021518
0.00147063
0.000416219
0.00100385
0.0188344
-0.049822
-0.0645151
-0.035869
-0.0923282
-0.087163
-0.0617283
-0.00694636
0.00337346
0.00257829
-0.012468
-0.0194347
0.00831166
-0.0235931
0.000601896
0.000121075
-0.0639347
-0.0116215
0.000901791
-0.0488017
0.0205316
-0.000106327
-0.0575909
-0.116751
-0.066079
-0.00410855
-0.0890349
-0.055021
-0.105113
0.00104553
-0.0265897
0.0200465
0.000928086
-0.00357708
-0.0624199
8.30008e-05
-0.000766121
-0.0106581
-0.0383469
-0.0176033
-0.00137712
0.0011808
-0.00401074
-0.0113943
0.00105332
0.000939021
-0.00243026
0.00303367
-0.0189172
-0.0611164
-0.00918154
-0.0183116
0.00252145
0.00134161
0.0014119
-0.0203348
-0.00092249
-0.0121541
0.00045358
-0.00833169
0.000247564
-0.0435426
-0.00864295
-0.0177081
0.0021338
-0.00130241
-0.0741057
-0.0250841
-0.0715426
-0.000399629
-0.0935113
-0.0383181
-0.00501345
0.000532123
0.0117387
-0.000330888
-0.0685356
0.0010547
-0.0281755
-0.0496188
-0.0185683
-0.0240984
-0.00999975
-0.0672852
-0.0631678
0.013937
0.00167733
0.000102763
0.000963184
-0.0667194
-0.0651017
-0.0216681
-0.0368893
0.000545199
-0.0154217
-0.0630475
0.0175922
-0.0326421
-2.2977e-05
-0.089109
0.00102503
-0.0614838
-0.111452
0.000464662
-0.066634
-0.0611692
0.00129063
-0.0295138
-0.0714104
-0.0678779
-0.0101482
0.00107037
-0.0211615
-0.0513751
-0.000408673
-0.0538709
-0.0416331
-0.0028142
0.0211648
2.10246e-05
-0.00413744
0.00128489
0.00106163
0.00106691
-0.00135241
0.0233796
0.0012792
-0.00152712
-0.0130304
-0.0369875
0.00129706
-0.0638596
0.000921319
-0.0120046
-0.00989357
-0.064139
-0.0505949
-0.0699795
-0.0666677
-0.0616849
-0.0367013
0.00186433
-0.0371149
-0.0689019
-0.0157702
-0.0181367
0.0010545
-0.0333649
0.0148247
-0.0197296
-0.00891312
-0.0327213
-0.0123287
0.0378036
0.000494624
0.000714746
-0.0497483
-0.0323678
0.000974049
-0.00368282
-0.0300827
-0.0644215
-0.0703218
0.00102371
-0.00576343
0.00792426
-0.0504274
0.00108453
-0.0493195
-0.0127221
-0.0399686
-0.0586688
-0.0214582
-0.0122861
0.00106198
-0.00151768
-0.0946949
-0.00946622
0.000654173
0.000456266
0.00065444
0.00175301
-0.0665463
-0.118415
-0.005204
-0.021574
-0.0456848
-0.0714727
-0.0164763
-0.0531619
-0.00856281
-0.0214224
0.00651324
-0.0347627
-0.00258477
-0.0632352
-0.019355
0.000398105
-0.00550212
-0.0865645
-0.0709217
0.00114321
0.00179058
0.00393317
-0.0618223
0.000174134
-0.00924446
0.0166802
-0.00361977
-0.0601569
-0.0813111
-0.00981312
-0.0434655
0.00174742
-0.0658096
0.0208896
0.0168049
0.00124644
-0.0193467
0.00212794
-0.0645786
-0.0613288
0.00104286
-0.138637
0.000795148
-0.0293752
0.000172266
0.000811845
-0.0498677
0.00104814
-0.0867554
0.00147456
0.000550968
0.00126554
-0.0616827
-0.0896948
0.00196966
-0.0918042
-0.114658
-0.0867263
-0.0534417
-0.0308119
0.000802243
-0.0147567
0.00144213
-0.00926422
-0.0903537
-0.00584003
0.00128375
-0.0215987
-0.0143036
0.00894464
-0.067496
-0.01273
-0.0432263
-0.0177002
0.00022621
-0.00828929
-6.45246e-05
-0.0624444
-0.0643623
-0.0227806
-0.0642685
-0.0637991
0.0057199
-0.0915333
0.00080462
-0.00968556
-0.00045034
-0.0116275
-0.0617254
-0.0892346
-0.0461773
-0.0223357
-0.0426769
-0.0671421
0.000791133
0.000808125
-0.0028952
-0.0102448
0.000826218
-0.136659
0.000185267
-0.0200582
-0.0525929
-9.96297e-05
-0.00330618
-0.0374195
-0.0140636
-0.0672974
-0.0130317
0.00126707
0.00263315
0.000625301
-0.0351864
0.00134261
-0.0146011
-0.0236091
0.00255239
0.000865121
-0.0358974
0.000997998
0.00133627
-0.00334863
-0.0703957
-0.0316575
-0.0197397
-0.03502
0.00623706
-0.0419725
-0.0263385
0.000134681
-0.0255268
-0.0216132
-0.00692241
0.0019881
-0.0947103
-0.0256891
-0.00329567
0.000908279
-0.0210665
-0.00260111
-0.00138068
-0.00495111
0.000474178
-0.0639176
0.00550346
0.00125671
-0.018035
-0.0169349
-0.0128502
0.00192829
-0.00454443
-0.00070182
-0.0911962
0.00191171
-0.00133382
-0.0222214
0.00173439
0.000825282
-0.0568312
-0.00285126
0.000424826
-0.00881581
0.00469179
-0.044296
0.00126936
-0.040047
0.00358565
-0.0187125
-0.00978973
-0.0856331
-0.0130056
0.00126934
-0.0378379
-0.0344407
-0.0488573
-0.0677407
-0.0158307
-0.0881934
-0.0475757
-0.0315699
-0.0183978
-0.0362017
0.000790198
0.000668662
0.00347487
0.0018932
-0.0805439
-0.0838014
-0.0351477
-0.018108
-0.0663852
-0.00877759
-0.0128431
-0.0336669
-0.0284059
-0.0460846
-0.0626633
0.00128687
-0.0158587
0.00163912
-0.0351668
-0.00479039
0.00122877
8.67233e-05
0.00431627
0.000180233
-0.0887377
-0.020709
-0.0606345
-0.00175594
-0.0112763
-0.0273323
-0.0679174
0.00175123
-0.0252145
-0.0411041
-0.0621938
-0.0132021
0.000667305
-0.0162695
-0.00376922
-0.0440243
-0.00148129
0.00194863
0.00248742
-0.0663836
-0.00267057
-0.0148757
-0.0109889
0.000677432
0.000181153
0.00201069
-0.000271427
0.00232099
-0.043368
-0.0326594
0.00117823
0.0020271
0.00178795
-0.0420548
-0.0419947
-0.0261437
-0.0124392
-0.023036
0.00029411
-0.0644337
0.00121521
-0.00321065
-0.0900303
-0.0145746
0.000443381
-0.0180558
-0.0144223
-0.0251852
-0.00933876
-0.00883027
0.00171559
0.00105795
-0.0108866
0.000663168
-0.0358193
-0.0340593
-0.0613762
-0.0161522
-0.0665064
-0.0685344
0.00129169
-0.0300104
-0.0368301
-0.0979276
-0.0923866
-0.052369
0.00177042
-0.0537118
0.00179127
-0.000920253
-0.000949528
-0.063661
-0.0613737
-0.0136087
-0.0140748
-0.0438444
-0.0533135
-0.041288
0.00125044
-0.0114015
-0.00950594
-0.00110811
-0.0530917
-0.0406955
7.21318e-05
-0.0289971
-0.00283896
0.0090968
0.000573672
0.00013089
-0.0526371
-0.0483489
0.00442563
0.000401046
0.00225414
-0.00324102
-0.0101926
-0.0140539
0.00440853
0.00176673
0.000984873
0.000712811
0.000520675
-0.0609329
-0.0664688
0.00953142
-0.0854981
0.000691611
-0.00238261
-0.0244785
-0.0149287
-0.00386395
-0.0669891
0.000412124
-0.0105421
0.000235121
-0.00948631
-0.0257333
-0.000801872
-0.00526682
6.3526e-05
0.000411082
-0.0323432
-0.00295604
-0.0882035
0.00032747
-0.0421803
0.000449597
0.00128829
-0.0142409
-0.0667322
-0.0395719
-0.00319251
-0.0634295
-0.0346044
0.00201841
-0.0621677
-0.0874826
-0.0632951
-0.0147322
0.00471723
0.000518436
-0.0679654
-0.0085376
0.000811983
0.00127063
-0.016851
-0.0452676
-0.0166657
0.000186782
-0.088553
-0.000748794
-0.0645771
-0.00656231
-0.000748642
-0.0680887
-0.00914895
0.00112121
-0.0515824
-0.00208327
-0.00363959
-0.031861
-0.0709266
-0.0657323
0.0206972
-0.0161598
-0.0999528
-0.0092864
0.000578952
-0.0188709
-0.0927681
-0.126511
-0.0687054
0.00122483
-0.0698479
-0.0198196
0.000777202
0.00253207
-0.0981467
-0.00202457
0.000686782
-0.00404335
0.00454444
0.000836633
-0.0145293
0.000405077
-0.0240132
0.004742
0.0012778
-0.0881388
-0.0108625
0.00130522
-0.00491582
-0.0235424
0.000378772
0.00113751
-0.0502846
0.000624031
0.000847891
-0.0123889
0.000546349
0.000501024
0.0143664
-0.0189164
-0.000651129
-0.0172005
0.00158008
-0.0109314
0.00122728
0.00973761
0.00234304
0.00497852
0.0112519
-0.0910114
0.00130572
-0.000133428
-0.00607959
-0.00491452
-0.0129076
0.00486387
-0.0437419
0.000394065
-0.0090863
-0.000681352
-0.0146026
0.00191025
-0.0463355
0.0023595
0.00129603
0.00208873
-0.0578091
-0.00830969
-0.0501447
-0.0171783
-0.00137779
0.00227638
-0.0130031
0.000261878
-0.0665157
0.00186335
-0.00213457
-0.016884
-0.0229281
-0.0304675
0.000821109
0.00130268
-0.00866451
-0.0346985
-0.00703095
0.000951074
-0.0385803
-0.0648346
-0.0251923
-0.0550042
-0.0522085
-0.0714251
-0.0152768
-0.00511411
0.00377398
-0.0633289
0.0285154
-0.00403679
-0.0409791
0.00108266
0.00208375
-0.0657786
-0.06095
0.00124438
-0.0895595
-0.00629999
-0.0165014
0.00191272
-0.0454957
0.000614259
-0.0921342
-0.0200147
-0.0055784
-0.00117782
0.00205229
0.0017892
-0.0636539
0.000412354
-0.00927271
0.000711418
0.00262149
-0.00114999
-0.014541
0.0010044
0.00445223
-0.0197658
-0.0196022
0.00168442
-0.0463334
-0.0638479
-0.0122052
-0.0577924
0.00212303
-0.0234239
0.00143961
-0.0644843
0.000917238
-0.0115568
-0.0360513
-0.023667
-0.0635474
-0.12752
0.001018
-0.00770615
-0.000751996
-0.031978
0.000101154
0.00284902
-0.0643297
0.00440653
-0.034387
-0.00263051
-0.00906739
0.000901322
0.000345723
-0.0913149
-0.0465425
0.000804418
0.000575676
-0.0330327
0.00160385
-0.0388919
-0.0195793
-0.0594996
-0.00274342
-0.069376
0.00198962
0.000868511
-0.0414468
-0.0222866
-0.0542893
-0.0946413
0.0018623
-0.0671231
-0.0516055
0.000431191
-0.000788013
0.00130674
-0.0482151
-0.113001
-0.00657897
-0.0898038
-0.03539
-0.0281719
-0.0145739
0.00136497
-0.00917455
-0.0550191
-0.0676488
0.0017428
0.0100671
0.00155679
0.000168711
0.00102823
-0.00133108
-0.00818964
-0.000835172
-0.0241345
0.00210873
-0.00272786
0.00160736
-0.000529707
0.00389339
-0.0156692
-0.0106973
-0.0638331
0.00141456
-0.00974404
-0.0029638
-0.1065
-0.00185453
-0.061967
0.00123876
-0.00324127
0.00109858
-0.0197423
0.0174025
-0.0173944
-0.00135792
-0.00236713
0.00069758
-0.0500826
-0.0137059
-0.0566169
-0.0617026
-0.0130072
-0.0170301
-0.00123495
-0.00454396
-0.00506997
-0.0650697
-0.0321807
0.0115113
-0.00624147
0.00464289
-0.064027
0.00126931
-0.070208
0.00321666
0.0352778
0.00308089
-0.0646223
0.00133769
-0.00699053
-0.0612329
0.0156579
0.00524487
-0.0451845
-0.00409466
-0.0125528
0.00115894
-0.0274539
-0.0295111
-0.0586619
-0.00825553
0.00105888
-0.0508569
-0.0148044
0.00119086
0.00141832
-0.0624874
-0.0134573
0.000252378
0.000902738
0.00101794
0.00460836
-0.0082237
-0.0527387
0.00198612
-0.0181921
0.0013144
0.000398204
-0.0638586
-0.0124414
-0.036172
-0.0331582
-0.00531834
-0.132768
-0.0283248
-0.0220099
-0.0272913
-0.0172747
0.00139917
-0.030905
-0.000614829
-0.020425
-0.115769
-0.0450752
0.000928322
-0.0129518
0.0010744
-0.0538856
0.00167752
-0.0624205
-0.0173947
0.00148723
-0.0102203
0.00493276
0.000613501
-0.147515
-0.0243543
-0.00442568
-0.0130446
0.000106117
-0.0915595
-0.00936945
-0.00252768
-0.038233
-0.031264
-0.0533412
-0.036406
0.00123292
0.0100018
0.0105076
0.00142559
0.00696496
-0.00244844
-0.00600515
-0.0178732
0.0010227
-0.000877176
0.0174585
-0.0167553
-0.0652656
0.0011016
0.00139414
0.00106422
0.00163686
-0.00346941
-0.0183351
-0.065417
0.0012364
-0.0175495
-0.0686981
0.00839984
-0.0539275
-0.00126573
-0.0674218
-0.00408809
-0.068766
-0.0563321
-0.0671148
-0.0101988
-0.00886677
0.0139584
0.00391996
0.000495323
-0.0112202
-0.0999425
0.000738599
-0.0668526
0.000330762
-0.0149301
-0.0124522
0.00134117
-0.0649935
-8.00529e-05
0.00123814
-0.0712735
0.00347962
0.00213889
-0.0613379
-0.0197848
-0.00537321
-0.00555181
-0.0121291
-0.0250774
-0.0369306
-0.0949193
0.00165083
-0.000142822
0.00294882
0.00817263
0.000999717
0.00665526
0.00130639
-0.0029266
0.00225908
-0.0642392
0.000797747
-0.00106514
-0.00895272
-0.00869269
0.00387244
0.00245281
0.000731241
-0.0456086
-0.0111336
0.00159348
0.00085292
-0.0431346
-0.0262823
0.000788957
-0.0253608
-0.0298608
-0.000596932
0.000980833
-0.00706908
0.00167958
-0.0119767
-0.00360569
-0.0173597
-0.00717493
-0.0172139
-0.00159633
-0.00324175
-0.0104838
-0.0227007
-0.146094
-0.0785183
-0.122309
-0.000215993
-0.00837342
-0.0269736
-0.0212622
-0.00090734
-0.0571825
-0.0941808
0.00171643
-0.0359162
-0.0264139
-0.00402122
0.00082693
-0.0120732
-0.0119374
-0.0598999
-0.0261151
-0.00442154
0.00171939
0.00138167
0.000836355
-0.00567588
-0.14886
-0.0882812
0.00109252
-0.000760534
-0.0450034
-0.0659497
-0.000610067
-0.0315245
-0.0526652
0.00434099
0.00888845
-0.0654207
-0.0368265
-0.0162318
-0.0303842
0.00237125
-0.0646387
-0.00248685
0.00100219
0.000816597
-0.00363651
-0.0110884
0.000974671
-0.0129182
0.00130633
-0.0117955
-0.119826
0.000831555
-0.00549469
-0.0260191
-0.00999134
-0.0655624
-0.0240051
-0.00664044
-0.0353209
-0.0275325
0.000512903
-0.0136029
0.000645671
-0.00905091
0.0152402
-0.0366206
0.00160053
0.0227343
0.00245859
-0.0646063
-0.0958161
-0.00629256
-0.00379835
-0.0235929
0.000693716
-0.015092
-0.0284022
-0.0328631
0.00104119
-0.0130429
-5.6666e-07
0.00181243
0.000411757
-0.0621816
-0.00241527
-0.0663703
0.00169225
0.00613321
-0.00304604
-0.0247
-0.0297344
0.00291164
0.00159228
-0.00336836
-0.0265679
-0.0319208
-0.0995611
-0.0109564
-0.0895691
-0.0970691
-0.0431222
-0.0936803
-0.000875868
0.0036542
-0.0119424
0.000760008
0.000873144
-0.00608016
-0.00240627
-0.000808897
0.00127812
0.000867576
-0.00503706
0.001042
-0.00383693
0.00141489
-0.0613495
0.00157149
-0.0112651
0.00126568
-0.0282504
-0.0128875
0.00242967
-0.0393472
0.00435073
-0.00051662
-0.00154047
-0.0102281
0.0044374
0.00141051
-0.0480089
0.00187242
0.00206313
-0.0923013
-0.0207659
-0.00176893
0.00141695
-0.0205111
-0.0146932
-0.0263933
0.00140742
-0.0627468
-0.0159432
-0.0595771
0.00228656
-0.0544558
-0.0129813
-0.00976333
-0.0395901
-0.00330388
0.00338117
-0.0108475
0.0357403
-0.0685553
-0.0128907
0.00135259
-0.00249149
-0.0972466
0.000554439
0.00419096
-0.0202197
-0.0290995
-0.024872
-0.0901934
-0.0010988
0.00126492
-0.0659045
-0.103869
-0.012958
0.00127963
-0.101697
0.00037029
-0.0563884
0.00463274
-0.0118287
-0.00274493
0.00145189
0.00140311
-0.0572439
-0.00978894
-0.0919519
-0.0628604
-0.0597597
-0.0363167
0.0021754
0.00132454
-0.0106639
0.000725962
-0.0022498
-0.00636507
-0.0651596
0.00138267
-0.0057943
0.00127868
-0.0669827
-0.000861964
-0.0255469
-0.019457
0.000781062
-0.0643792
0.00966301
-0.00274097
0.00180682
0.00298348
-0.00568735
-0.0647566
0.00668332
0.0179694
-0.0555284
0.00361119
-0.0257053
-0.0339022
0.000602355
-0.0623776
-0.0861001
0.00320293
-0.0254225
-0.0103199
-0.0850613
-0.00180832
0.00162865
-0.0555653
0.00270827
0.00108518
-0.0681725
-0.00306538
0.00406192
5.95624e-05
-0.0470947
5.46808e-05
0.000999008
0.000589352
-0.027139
-0.00796257
0.000197807
-0.0217294
0.000631075
-0.00992338
-0.0128035
-0.0228485
-0.0147952
0.00091871
-0.100112
-0.000216305
0.00207949
-0.00828862
-0.0300537
-0.0947238
-0.0116899
-0.000900197
-0.0629162
-0.0976868
-0.0348087
-0.0469136
0.00107007
-0.046086
-0.00131038
-0.00389858
-0.0662958
0.00659283
-0.0717932
-0.0221046
-0.0619192
-0.0396847
-0.061855
-0.061011
-0.00500606
-0.00268005
0.00082195
0.000627192
-0.0895536
-0.0423567
-0.0056524
-0.0599665
0.00168331
-0.00804251
-0.0293574
-0.0512435
-0.0310691
-0.0361607
-0.0358579
-0.0518168
0.00106443
-0.031313
0.00139513
-0.0629507
0.00654595
-0.0115254
-0.113346
-0.00804731
-0.00206533
0.0206754
-0.0642185
-0.00894269
-0.0699211
-0.00859733
0.00420181
0.00144892
0.00182437
-0.0619482
-0.0635477
0.0013901
0.00896486
0.00217243
-0.00260172
0.0320732
0.00423923
0.00420273
-0.0195562
-0.0642599
0.000366409
0.00134367
-0.00128768
-0.0435819
0.000985639
-0.00634468
0.00173295
0.00152816
-0.0630568
-0.0263218
-0.0620633
-0.00532625
-0.0181841
0.00638548
0.00128737
0.00125378
-0.100888
-0.0291753
-0.00357682
-0.0141398
-0.0124509
0.00141804
-0.00399759
-0.0131402
-0.0224004
-0.0642398
0.0010244
-0.013049
-0.0637497
-0.0184114
-0.0360779
-0.0643865
-0.018054
-0.0737189
-0.00426015
0.00135693
0.000733195
-0.00924346
-0.0471646
-0.00147657
-0.0052782
-0.0127067
0.000817529
-0.0520222
-0.0650121
0.00158882
-0.0435483
-0.10845
-0.00627028
0.00160687
-0.0239929
0.000338639
0.00141461
-0.0191404
-0.0161861
-0.0372651
-0.0471136
0.00165122
-0.00978093
-0.0625922
0.000632621
0.000964806
-0.0671798
0.00147133
0.00077255
-0.00937645
-0.0112157
-0.0158078
-0.00604283
-0.00948058
0.000474982
-0.0600268
-0.0623686
-0.000967436
-0.119905
-0.00339933
0.00128292
-0.0691992
-0.00589313
-0.0220074
-0.0352642
-0.00458646
-0.0962575
-0.0325343
0.000630255
-0.0002358
0.000784981
-0.069161
0.00191299
0.000880282
0.000978433
-0.0348375
-0.0261467
-0.0927799
0.00158722
0.00463548
0.0045957
0.00146244
-0.00329061
0.00162036
0.00233249
-0.0724632
-0.0646562
-0.0187674
-0.0658139
-0.027118
0.00392247
-0.0104656
-0.0399028
-0.00893606
-0.00307546
-0.0638312
0.00152247
0.00534631
-0.0227268
-0.0513458
-0.0126999
-0.123574
0.00176594
-0.0585578
-0.0343577
-0.0917582
-0.0250904
-0.00809425
-0.0173588
-0.0625664
-0.000461935
-0.0290941
0.00124972
-0.0010268
0.00150035
-0.000529069
-0.012311
-0.0624601
-0.0566378
-0.0934591
-0.0152419
-0.0313996
0.000836317
-0.0647625
-0.00649462
0.0162479
-0.0751824
-0.0640014
-0.0634669
-0.0125162
-0.0116163
-0.0670118
-0.00698964
-0.0627171
-0.00108048
-0.0136112
0.00145012
-0.06947
-0.0371048
0.000757834
-0.0155392
-0.0629165
-0.000961988
-0.00121767
-0.0067099
0.00491049
0.00102171
-0.0498591
0.00366879
0.00356925
-0.0934214
-0.00489691
0.0012303
-0.000106813
-0.0170427
-0.00280344
-0.0394068
-0.0889327
-0.000499246
-0.030655
0.00125527
0.000412329
-0.0138708
-0.0449542
-0.0478634
0.00198921
-0.0966203
-0.0628107
-0.0133299
-0.0077921
-0.0162882
-0.00126581
-0.00645477
-0.0482635
-0.00361619
0.00123874
0.001075
0.00131677
-0.0635442
-0.0575253
-0.064304
-0.0140922
-0.018894
-0.00479296
-0.0381254
-0.0738755
0.00151924
0.00224661
-0.00985867
-0.109224
0.000967313
-0.0199603
-0.0200193
-0.0785805
-0.0889732
-0.128857
-0.0136439
-0.0521018
-0.0591849
-0.00986807
-0.0163502
-0.0154501
0.000171735
0.000215047
-0.00693801
-0.000238937
-0.0111285
-0.0128898
0.00123159
-0.050093
-0.000687554
0.00139362
-0.00998837
-0.0630733
0.00588438
-0.0948554
-0.020316
0.00240536
-0.0891436
0.00105711
-0.0105414
-0.0645216
-0.0476534
-0.0166003
-0.0574448
-0.0155968
-0.0297803
0.00113554
0.00337164
0.00291564
-0.120251
-0.0322453
-0.0317531
0.000818444
0.0158241
0.000552804
-0.00600909
-0.0512322
-0.0360938
0.00166576
-0.00247951
0.00192303
-0.000627887
-0.0153579
-0.00812667
-0.00392813
-0.00983083
-0.0294659
-0.0579942
0.0218112
0.00313681
0.00120488
6.07155e-05
0.00126057
0.00118741
-0.00214661
-0.0199335
-0.00781284
-0.0356409
-0.0162239
-0.0538058
-0.0112868
-0.00427813
0.00167336
-0.0268696
-0.064872
-0.00392237
-0.0343304
0.000518998
0.000445522
0.000147451
-0.0655861
-0.0102173
0.000433524
0.0027455
0.0302907
0.0146559
-0.089947
-0.0623507
-0.0174718
-0.00358176
0.00263934
0.000943979
-0.0625157
0.00121363
-0.0626104
0.00131063
-0.00874515
-0.0392958
-0.140094
0.00124171
-0.127398
0.000320138
-0.0061114
-0.0579769
-0.0292582
0.00120615
-0.0394943
-0.0619981
0.00101812
-0.0897611
-0.0337608
-0.0611009
-0.0148474
-0.0770891
-0.0177395
-0.0201623
-0.0479089
-0.0621224
-0.0627425
-0.00881853
0.00485226
0.00681449
-0.00463251
-0.00906901
-0.0187383
0.00128676
0.00129937
0.0235495
-0.0231302
0.00148702
-0.0744641
-0.0251455
0.00703808
-0.14084
-0.00257742
0.00143172
-0.00882257
-0.0110216
-0.0546636
0.00122163
-0.0931609
-0.0111748
0.00127445
-0.0565598
0.000385921
-0.0557111
-0.0137456
-0.0298663
-0.0506968
0.000938445
0.0149038
-0.0318638
-1.31826e-05
0.00355909
-0.019393
-0.0625779
0.00109003
-0.0187345
0.0122152
-0.00831748
-0.000351075
0.00140708
-0.0631346
-0.0646281
-0.000468883
0.00278341
-0.0183015
0.000226504
-0.0616094
-0.00704736
-0.0024498
0.00136481
0.00164064
0.00104176
-0.0724868
0.00157858
0.00142003
-0.0111135
-0.147214
-0.0504827
0.0186825
-0.00760153
-0.00684358
-0.0976186
0.00210611
0.00148366
0.00427269
0.000282724
-0.0571013
-0.0844441
0.00128253
0.00298479
0.00428124
-0.0569284
-0.0147296
-0.000861473
-0.0797663
-0.0376373
0.0050207
-0.0140428
-0.0606071
-0.00621924
-0.0617849
-0.0572437
-0.0483284
-0.0649734
0.000673637
-0.00812875
-0.0558479
-0.0209508
-0.0991564
-0.00834016
-0.0655796
-0.0523837
-0.00318825
-0.0575004
-0.00778201
-0.000191937
-0.000299095
-0.0487418
-0.0672548
0.00438349
0.00129522
0.000618137
-0.0305371
-0.00565855
0.00126878
0.000161241
-0.0471943
-0.00666659
0.00333979
-0.00955997
-0.0016349
-0.00716944
-0.0897577
0.00211948
-0.0653716
-0.00784655
0.0156742
-0.0368322
-0.0180175
-0.0892992
-0.00528648
-0.0510318
-0.0656647
-0.0165664
0.000748374
-0.0591628
-0.0763364
-0.00544588
-0.0608101
-0.00904113
0.00179288
0.00311889
0.00134763
-0.0307353
0.00462411
0.00126231
0.00153533
0.00902707
-0.00180616
-0.00801256
0.0010898
-0.00166969
-0.0310799
-0.0126629
0.000267234
-0.0072401
0.0012698
-0.000192256
-0.0646031
-0.053347
0.00161913
-0.00888538
-0.0275571
0.000469826
-0.0421168
-0.0160745
0.0012813
0.00143623
-0.0643201
-0.0107313
-0.0641882
0.00158923
-0.051179
-0.123553
0.000940766
-0.00954916
0.00365306
1.60158e-05
0.0012634
-0.00754729
-0.0953577
-0.0394623
-0.015002
0.00278035
-0.000763901
-0.0371905
0.00195274
-0.0375092
0.0045501
-0.0141284
-0.019222
-0.0204681
-0.0656889
-0.00868965
0.00192974
0.00104751
-0.0196335
-0.0680953
-0.0215328
0.0145362
-0.0114852
-0.0107483
-0.0336004
-0.00540751
-0.00402358
-0.00850271
0.00208579
0.00157422
-0.0106572
0.00130693
0.00104591
0.018205
0.0113086
0.00137495
-0.00425818
-0.00791582
0.000468687
-0.00532188
-0.0580409
-0.00692011
0.00188515
0.000731358
-0.0152674
0.00593739
0.00807192
-0.00211761
0.00159185
-0.0629451
-0.0385827
-0.0687703
0.00134883
0.0233191
-0.0208939
0.00180737
-0.0103646
-0.0380075
0.00146968
-0.00946265
-0.033856
0.00393635
-0.00411341
-0.00977823
-0.0664645
-0.0195801
0.00130147
-0.0654053
0.000437183
-0.03968
0.000387636
-0.0789455
-0.0941264
-0.0738125
0.00131238
0.000777189
-0.037533
0.00013115
-0.0100121
-0.0221204
0.00134295
-0.00124407
-0.00078643
-0.0454179
0.00446346
-0.0876565
-0.0554585
-0.00815724
0.000529068
0.0100073
-0.0158291
-0.00756059
-0.0657196
-0.0126616
-0.0560993
0.000498571
-0.0456822
0.00190437
-0.00905097
0.00329178
-0.059085
0.00157822
-0.00847981
-0.0591064
-0.0112701
-0.0641697
-0.0814083
0.000649855
-0.0178235
-0.00334575
-0.0607808
-0.000176775
-0.0193153
0.00168712
-0.0215892
0.00088451
0.0160807
-0.0671318
0.00105037
0.000169992
0.00362432
-0.00821903
-0.0569034
-0.00267696
-3.53211e-05
-0.0902262
-0.088644
-0.00586441
-0.0639649
0.017229
-0.0111132
-0.00237798
-0.06613
-0.0642647
-0.0860329
-0.0105575
-0.0883069
0.00124377
-0.0019492
0.000544107
0.000952385
-0.0639355
0.000191911
-0.0236782
0.00465923
0.00340298
-7.30792e-05
0.00241482
-0.0200353
-0.000329863
-0.0490363
0.000656462
-0.0121057
0.0044989
-0.0628215
6.72772e-05
0.00012578
-0.0650355
-0.0428249
-0.0363021
-0.0257325
-0.00328929
0.000753559
0.00129251
-0.0360646
0.000229772
0.00570886
-0.00774349
0.000872128
0.000407164
0.00299962
-0.0012329
-0.0137632
-0.00426766
-0.044918
0.000385091
-0.0107802
0.00334138
-0.0917105
0.0163231
0.000693172
-0.0389976
0.0180953
-0.000535431
-0.00910214
-0.0101317
-0.00716143
-0.0875229
0.00343605
0.00166608
0.000219825
-0.135988
-0.0554258
0.000244453
-0.0650345
-0.00403692
-0.0661344
0.000499709
-0.0988682
-0.0623745
-0.0112406
-0.00430931
0.000365106
-0.0875938
-0.0411807
4.73946e-05
-0.00844031
-0.0627531
-0.0281163
0.00122683
0.00113067