/*--------------------------------*- C++ -*----------------------------------*\
| =========                 |                                                 |
| \\      /  F ield         | OpenFOAM: The Open Source CFD Toolbox           |
|  \\    /   O peration     | Version:  v2012                                 |
|   \\  /    A nd           | Website:  www.openfoam.com                      |
|    \\/     M anipulation  |                                                 |
\*---------------------------------------------------------------------------*/
FoamFile
{
    version     2.0;
    format      ascii;
    class       surfaceScalarField;
    location    "400";
    object      phi;
}
// * * * * * * * * * * * * * * * * * * * * * * * * * * * * * * * * * * * * * //

dimensions      [0 3 -1 0 0 0 0];
oriented        oriented;


internalField   nonuniform List<scalar> 
41499
(
-0.245014
0.0108678
0.234146
-0.08061
-0.0312666
0.111877
-0.00292189
-0.0129805
0.0159024
0.427876
-0.281538
-0.146338
0.315834
-0.335148
0.0193144
-0.00670482
-0.142467
0.149172
0.497388
-0.302334
-0.195054
-0.0241655
0.0142297
0.00993573
-0.080427
-0.258677
0.339104
-0.0101196
-0.0128619
0.0229815
-0.0698444
-0.0991464
0.168991
0.0452268
-0.00903016
-0.201152
0.448258
-0.247106
0.263951
0.233437
-0.192532
-0.224561
0.417093
-0.305507
0.368408
-0.0629004
-0.040296
-0.10871
0.149006
-0.363502
0.19469
0.168812
0.0675672
0.0181318
-0.085699
-0.0144498
-0.00971562
-0.369951
0.157059
0.212893
0.33477
-0.138312
-0.196458
0.120484
-0.0825966
0.24999
-0.370853
0.120863
-0.401412
0.0959051
-0.302406
0.408107
-0.105701
0.00123787
0.0564908
-0.0577287
0.329557
-0.0137232
0.0140674
-0.0138113
-0.000256066
0.216115
-0.220189
0.00407365
-0.138681
-0.188938
0.327619
0.00139856
0.13446
-0.135859
-0.281745
-0.111225
0.39297
-0.478301
0.36987
0.108431
-0.046318
0.0221646
0.0241535
-0.396192
-0.0821093
-0.483883
0.313287
0.170595
0.0753139
-0.37772
-0.100986
-0.107695
0.208681
-0.194193
-0.146535
0.340728
-0.252032
0.00785794
0.244174
-0.282955
-0.200928
-0.0884017
0.0484432
0.0399585
0.197173
-0.408404
0.211232
0.105219
-0.126629
0.0214095
-0.309988
0.115795
-0.126973
-0.201299
0.328272
0.0228143
-0.199086
0.176271
-0.494315
0.294334
0.199981
0.066445
0.259554
-0.325999
-0.027139
0.0126891
0.182288
-0.0658936
-0.116394
-0.0104825
0.00614227
0.00434019
0.0639357
-0.227148
0.163212
-0.21244
0.171588
0.0408528
0.219622
-0.346596
0.2315
0.117447
-0.348946
0.445408
-0.326085
-0.119323
0.0488177
0.39659
0.199417
-0.338098
0.114105
-0.163892
0.0497864
0.267169
-0.0379814
-0.229187
-0.0130864
0.118306
0.0080946
-0.0080946
0.365247
0.0124772
-0.377724
0.0800849
-0.181071
0.0421741
-0.0150092
-0.0121297
-0.0165876
-0.0297304
0.283628
-0.470951
0.187323
0.42439
-0.154534
-0.269856
0.335491
-0.0855006
-0.143282
-0.22022
0.316427
-0.302761
-0.0136664
0.00947778
-0.0179381
0.00846034
-0.445702
0.162208
0.283494
0.203298
0.0128175
0.290823
0.107643
-0.398466
0.0018281
0.00312969
-0.00495779
0.0947467
-0.408068
0.313321
0.170285
-0.17699
0.381867
-0.219242
-0.162625
-0.182046
0.0238219
0.158224
-0.00180489
0.0189295
-0.0171246
-0.0142855
0.0224106
-0.00812506
-0.32555
0.186457
0.139093
0.495164
-0.167976
-0.327188
-0.052654
-0.0357477
-0.027111
0.0340062
-0.00689523
0.406684
-0.311937
0.0277273
-0.229897
0.20217
0.298816
0.0176109
-0.303904
0.370349
0.0858516
-0.0403655
-0.0454861
-0.0142112
0.0161018
-0.00189055
-0.0180254
0.0151035
0.222773
-0.0858654
-0.136908
0.0302659
-0.00971643
-0.0205495
0.199094
0.0680751
0.0823987
-0.401929
0.31953
0.0296527
-0.195711
0.166058
-0.31264
0.387954
0.0237345
0.00653145
0.463265
-0.212758
-0.250507
0.245594
0.0137854
-0.259379
0.20705
0.174817
0.0655444
-0.051985
-0.0135594
0.0820053
-0.148615
0.06661
-0.449101
0.136461
0.0258411
-0.010461
-0.0153801
-0.0674029
0.0227623
0.0446406
0.0495185
-0.30155
-0.015701
0.307524
-0.291823
0.362081
-0.186153
-0.175928
-0.0856743
0.16768
0.050371
0.131917
-0.0348737
0.054033
-0.0191593
0.156538
-0.155139
0.22378
0.239484
-0.275814
-0.218502
0.282361
-0.254633
-0.303656
0.287955
-0.447741
0.165996
0.143367
0.191403
-0.527566
0.227313
0.300253
0.125018
-0.00763762
-0.11738
-0.160835
0.103637
0.0571979
0.000945135
-0.0129774
0.0935209
0.193123
-0.286644
0.320259
-0.423182
0.102923
-0.236055
0.0445801
0.191475
-0.0708358
0.0720736
0.0587909
0.0270607
-0.00572065
0.0541639
-0.051054
0.0622294
-0.0111754
0.221649
-0.139223
-0.0824264
-0.062163
0.128956
-0.0667933
0.479627
-0.36331
-0.116317
-0.0990027
-0.277571
0.376574
-0.066343
0.295439
-0.229096
0.43162
-0.43162
-0.0393754
-0.173065
-0.209819
0.457045
-0.247225
0.0243455
-0.0795997
0.0552541
0.0549372
-0.0230243
-0.0319129
-0.000118493
-0.0148907
-0.0109633
0.000163161
0.0108002
0.21603
-0.193216
-0.302658
-0.143044
-0.180536
-0.00150982
0.0238085
-0.0586822
0.32004
0.159587
0.161276
-0.0722791
-0.0889974
0.00303723
0.001113
-0.00415023
0.0438095
0.0643566
-0.108166
-0.0351352
0.0157772
0.019358
-0.0528999
0.0785074
-0.0256075
-0.376825
0.410107
-0.0332819
-0.429187
0.0709784
0.358208
0.315327
0.16253
-0.477857
-0.040868
0.119877
-0.0790091
-0.00500656
0.0160642
-0.0110577
0.443995
-0.318122
-0.125873
0.238599
-0.388426
0.149828
-0.370555
0.304987
0.065568
-0.225816
-0.142967
0.368783
0.100412
0.0608648
0.0838814
-0.0140413
-0.0698401
0.0214065
-0.0119287
0.398793
-0.432374
0.0335808
0.0868896
-0.2895
0.202611
0.347178
-0.169582
-0.177595
-0.269965
-0.257601
-0.201698
0.00261204
0.458669
-0.20455
-0.25412
-0.0256829
0.00963134
0.0160515
0.0199706
0.00587048
0.475937
-0.252156
-0.461075
0.213167
0.247908
-0.00995617
0.0049496
-0.00205454
-0.0250564
-0.43048
0.311214
0.119265
0.35763
-0.369339
0.011709
0.0209579
-0.0210764
0.08762
0.134029
0.295761
-0.0790513
-0.21671
-0.46837
0.327206
0.141164
-0.305973
-0.154731
0.460704
-0.00422227
-0.0122699
0.0164922
0.135461
0.359704
0.0537304
-0.0406982
-0.0130322
0.0572845
0.10806
-0.165344
0.124027
-0.0300213
-0.0940061
0.230049
0.245887
-0.271247
-0.149513
0.420761
-0.511766
0.332245
0.179521
0.237441
0.0583197
-0.178897
0.417495
0.245071
-0.453932
0.208861
0.15325
-0.195555
0.0423049
-0.00492147
-0.005561
-0.0517211
0.0755296
-0.386583
0.0097575
0.302151
-0.455899
0.153748
-0.0111778
-0.0145051
-0.0026652
-0.00829814
-0.0912331
0.146716
-0.0554825
0.254392
-0.359999
0.105607
-0.00774328
-0.00812658
0.0158699
0.256415
-0.336842
-0.151687
0.195212
-0.0435246
0.0669572
0.0145949
-0.0815521
-0.463836
0.339179
0.124657
0.256392
-0.375164
0.118772
0.263112
-0.431182
0.168069
-0.407335
0.0018399
0.405495
-0.130381
0.384773
-0.0725724
0.116382
0.397315
-0.0770566
0.414227
-0.207177
0.278737
-0.343446
0.0647085
-0.260101
-0.154309
0.414409
0.231482
-0.0598947
-0.405222
0.0992497
-0.0133535
-0.0003719
0.0137254
0.141965
0.220116
-0.175385
0.42454
-0.249155
-0.168456
0.236554
-0.0680981
0.280367
-0.379369
0.340243
-0.464373
0.12413
0.00713159
-0.00998654
0.00285495
-0.131351
0.468493
-0.337142
0.0941169
-0.0271597
0.0142998
0.0695816
-0.279236
-0.0907154
-0.195447
-0.239768
0.435215
-0.0425778
-0.0370085
0.0795863
-0.405868
-0.00146737
0.430952
-0.0733214
-0.417996
0.319917
0.0980793
-0.00920003
-0.159256
-0.00373875
-0.205584
0.209323
0.293039
0.0127257
-0.0644468
-0.176202
0.269723
-0.341398
-0.119677
7.02654e-05
0.00296696
0.0096445
-0.0096445
-0.185666
-0.0731977
0.258864
0.0190218
0.105006
0.227105
-0.0818122
-0.145292
-0.0277744
0.0253269
0.00244748
0.351372
0.0172439
-0.368616
-0.34529
0.156352
0.209817
0.20441
0.0758507
0.146922
-0.0102049
-0.234809
0.423188
-0.253622
-0.169565
-0.183826
0.128358
0.0554682
0.0128962
0.0526482
0.0154214
-0.0166241
0.00120267
-0.0413678
-0.0679435
0.109311
-0.230637
-0.0390553
0.269692
-0.308324
0.119362
0.188963
0.0304633
-0.2611
-0.0249797
0.0722294
-0.0472496
-0.431512
0.0869516
0.34456
0.0377308
0.0159996
-0.025084
-0.00269037
0.0634603
-0.00500576
-0.0584545
-0.402414
0.14976
0.252654
-0.0146328
-0.00841976
0.0148159
-0.00286043
-0.0119555
-0.315107
0.12944
-0.277236
-0.154276
0.419705
-0.268523
-0.151181
0.250983
-0.254721
-0.409552
0.113578
0.295974
0.340087
-0.19672
0.119744
-0.499
0.36775
0.13125
0.454033
-0.16321
0.316916
0.151577
-0.2957
-0.00737639
0.303076
-0.0251316
0.0228242
0.00230741
0.00071126
5.10091e-05
-0.000762269
-0.119404
0.218493
-0.099089
0.24483
-0.0415319
0.0378482
-0.0521393
0.0142911
0.113699
-0.174547
0.0608476
0.348293
-0.1976
-0.150693
0.00764449
0.398024
-0.106508
-0.291515
0.206947
0.0688378
-0.110206
-0.248879
0.32943
-0.0805512
0.1104
-0.123721
0.0133216
0.0492952
0.166735
-0.152942
0.409334
-0.182224
0.0422043
0.140019
0.238749
-0.36913
0.251469
0.117777
-0.369247
0.342373
-0.0973015
-0.127122
-0.198428
4.76488e-05
0.0051601
-0.00520775
0.198842
-0.0455919
0.462836
-0.349991
-0.112845
0.00482649
-0.00299839
0.127246
-0.419345
0.292099
-0.17337
-0.0651204
0.238491
0.0770401
-0.257494
0.180454
0.0291974
0.0101521
-0.0393494
0.212385
0.210803
-0.18257
0.461361
-0.219704
-0.241657
-0.147883
0.436108
-0.288226
-0.0223653
0.0205604
-0.0115115
0.0115765
0.0116409
-0.00450932
-0.447604
0.141297
0.306307
0.0849612
0.318638
-0.403599
0.471882
-0.132211
-0.339671
0.318143
-0.0882379
-0.229905
-0.300698
0.261643
-0.0739252
0.312674
-0.0842211
0.0602079
0.0240132
0.00360528
0.0104621
0.363309
-0.319751
-0.0435578
0.311664
0.0267851
-0.338449
0.434005
-0.264519
-0.169486
-0.130687
-0.24515
0.323299
-0.0781484
0.350351
-0.0988821
0.0935297
-0.189387
-0.0561674
-0.287086
0.343253
0.0541556
-0.133122
0.0789666
-0.4288
0.18112
0.24768
0.0503444
-0.0929222
0.00388208
0.0109339
0.197058
0.0477715
-0.00145514
0.00101047
0.000444678
-0.0118832
0.000371622
0.0071664
-0.00698137
-0.000185027
0.29372
-0.349887
-0.410955
0.12224
0.288715
0.267028
-0.189987
-0.0789665
-0.0818688
-0.005161
0.156436
0.191856
0.229553
0.0885893
-0.293989
-0.124007
0.0103012
0.114717
-0.259725
-0.040973
-0.176906
0.114903
0.0620033
-0.0956502
0.0371355
0.0585147
0.418303
-0.142681
-0.275622
-0.290368
0.416293
-0.125925
-0.456834
0.23658
0.220254
-0.0833172
-0.287238
-0.0801114
-0.031635
0.111746
-0.275168
0.239258
-0.288405
0.0491472
0.469395
-0.32033
-0.149065
0.296206
-0.39347
0.097264
0.00133215
0.000402904
-0.00173506
-0.122011
0.248377
-0.126366
-0.348982
0.352822
-0.00384009
0.189736
-0.318525
0.128789
-0.317781
0.406496
-0.0887152
0.00332083
0.00998521
-0.013306
-0.180472
0.500986
-0.320514
-0.132456
0.113372
0.0190839
0.409506
-0.011482
-0.00876884
-0.0188178
0.0275867
0.278198
0.382123
-0.0418804
0.0425017
0.0610409
-0.103543
0.16385
0.0901308
-0.253981
-0.0869863
0.438358
-0.211359
0.16408
0.0472792
0.093613
-0.0795372
-0.0140758
0.046016
-0.227726
0.18171
-0.147525
0.0803705
0.067154
0.0738185
-0.0283986
-0.0454198
-0.0945513
-0.0892751
-0.19517
0.279739
0.0775233
0.0160896
0.216018
0.0752298
-0.0247014
-0.0505283
-0.183116
0.325906
-0.14279
0.00246342
-0.00198055
-0.000482871
-0.0088564
-0.0161226
0.024979
-0.376255
-0.0192579
0.395512
0.0149109
-0.0250306
-0.0387953
0.107015
-0.0682194
-0.255027
0.133017
-0.0147069
0.294825
-0.280118
-0.417851
0.426779
-0.00892823
0.0220043
0.0120019
-0.174943
-0.281891
-0.0369612
-0.0155117
0.015409
0.000102735
0.173108
-0.294037
0.120929
0.180857
-0.0819607
-0.0988964
-0.104605
0.407635
-0.30303
-0.0978654
-0.0403444
0.13821
-0.144639
0.376138
-0.048572
-0.00248197
0.0262679
-0.117501
0.013236
-0.0174583
-0.088707
0.252557
-0.00406287
-0.372192
-0.345844
0.450501
-0.104657
0.0212443
0.0689193
-0.314069
-0.0638253
0.168399
-0.104574
-0.0159789
-0.380847
0.396826
-0.11131
0.0725143
0.307158
-0.411763
-0.074034
0.12819
-0.327481
0.417762
-0.0902812
-0.152679
0.188961
-0.0362816
0.034705
-0.0525369
0.0178319
0.00312011
0.00154307
-0.00466318
-0.326758
0.41605
-0.089292
0.0368251
-0.385807
-0.00384532
0.00389297
0.0444633
-0.0185266
-0.0259367
-0.424335
0.313352
0.110983
0.0601086
-0.0514783
-0.00863034
-0.342737
0.348612
-0.219766
-0.128846
0.198037
-0.0485525
-0.149484
0.451625
-0.168464
-0.283161
-0.386607
0.0926183
0.0791408
0.207013
-0.286154
-0.391447
0.336408
0.0550387
-0.287678
-0.12039
0.0513492
0.0424272
-0.0937764
-0.00682303
0.0702833
0.240647
-0.0759559
-0.164691
0.0316414
0.10739
-0.139031
-0.113318
0.141988
-0.0286696
-0.231812
-0.236558
-0.421366
0.126139
0.295227
-0.0127546
-0.00145657
0.31833
-0.145222
-0.0198433
-0.0593643
0.0792077
0.19468
-0.465927
0.106129
-0.0968197
-0.00930916
-0.0531305
0.000230642
0.438742
-0.157769
-0.280973
0.0356989
-0.427146
-0.023515
-0.0438879
-0.181515
0.338574
0.0426959
-0.0134985
0.391303
-0.0950973
-0.173666
0.0472864
0.12638
0.00675898
0.00934277
0.194646
-0.339736
0.325029
0.0755963
-0.115892
-0.153219
0.42796
-0.274741
-0.00349057
-0.00917932
0.0126699
-0.0407024
0.0528093
-0.0121069
0.370135
-0.107023
-0.414182
0.238797
-0.0160292
0.130134
0.167314
0.27767
-0.444983
-0.203457
0.40063
-0.156179
0.185831
-0.0553713
-0.26872
0.324091
-0.399274
0.408646
-0.00937228
-0.408206
0.143104
0.265102
0.28993
-0.203041
0.406162
-0.197592
-0.20857
-0.289494
0.463577
-0.174083
0.323951
-0.0566891
-0.267262
0.0535957
-0.18113
0.127534
-0.0841604
0.319044
-0.234884
-0.0579049
0.183539
-0.125634
-0.000687508
0.00139877
-0.344185
0.164051
0.180134
-0.0013369
0.000405964
0.000930934
0.134765
0.205322
0.238449
-0.192433
0.279137
-0.334509
-0.354843
-0.0756371
0.462786
-0.134596
-0.32819
-0.334824
0.250664
0.319305
0.0942644
-0.41357
0.056972
-0.0768154
0.284174
-0.417147
0.132973
0.00997795
-0.0134685
0.0748286
-0.144673
-0.197913
0.448706
-0.250793
-0.0725783
0.0490632
-0.0337896
-0.0218958
0.0556854
0.0105174
-0.0136277
0.00311032
0.144511
-0.0760206
-0.304827
0.020713
-0.0168309
0.108732
0.0536227
-0.162354
0.00568348
-0.00256337
-0.0122515
-0.00155985
0.217333
0.210542
-0.135171
-0.0107288
0.0116049
-0.000876058
0.0702692
0.239629
-0.380838
0.141209
0.155277
-0.109601
-0.0456765
0.105606
-0.0542564
0.0145619
-0.0147728
-0.00978078
-0.0381969
-0.01366
0.0518569
-0.00931405
-0.0240751
0.0333891
0.448012
-0.155541
-0.292471
-0.0905859
-0.0418702
-0.18983
-0.0215286
-0.537187
0.209706
0.288784
0.149958
0.269052
-0.000888876
0.00224629
-0.00135742
-0.301211
0.386172
0.385006
-0.34538
-0.147681
0.211616
-0.0262388
0.0252303
0.0010085
0.159638
-0.360791
-0.014776
0.00250609
-0.126965
-0.372035
-0.0201415
0.018087
0.00434952
0.0077212
0.153044
-0.0466202
-0.106424
0.222608
-0.173313
-0.0697078
-0.0214638
0.0911716
0.00502559
0.0144697
-0.0194953
0.373108
-0.0927414
0.0444548
0.0718839
-0.116339
0.276717
-0.197576
-0.0818407
0.271577
0.26357
0.143113
-0.514838
0.264839
0.249999
0.122174
-0.142065
0.403979
-0.261913
-0.0773478
0.0403393
-0.358989
-0.0402855
0.0304986
-0.00942845
-0.0210702
-0.0823084
0.404218
-0.321909
0.083433
-0.278603
-0.119108
0.288709
-0.272177
-0.0165323
0.0337932
-0.171256
0.137463
-0.184524
0.246759
0.0771927
-0.414912
0.148041
0.266871
-0.267619
-0.0280806
0.0272508
-0.0535715
0.0263207
0.185509
-0.0718098
-0.398578
0.21675
0.181828
-0.0106227
0.00854465
0.0386353
-0.106579
-0.0537555
-0.126781
-0.212598
-0.30224
0.0840744
0.204635
0.0139849
0.0067281
0.286792
0.16122
0.0134879
0.0466207
0.337477
-0.19798
-0.139498
-0.113174
0.0325642
-0.0061971
0.000925569
0.00527153
0.193553
-0.139957
0.00374548
-0.0444437
-0.118269
-0.282954
0.401223
-0.366152
0.267228
0.098924
-0.00139623
-5.89097e-05
0.0851638
-0.00102324
-0.0841406
0.0654098
0.178797
-0.244207
0.291878
0.170908
-0.404469
0.400793
0.00367614
0.0757481
-0.0165695
-0.144444
0.161013
0.0223773
0.00812136
-0.140404
-0.203781
-0.391166
0.420613
-0.0294466
-0.00425858
-0.233407
-0.162785
0.40205
-0.398033
-0.00401763
-0.00936329
0.00936329
-0.363156
0.347318
0.015838
0.134523
0.173788
-0.308311
0.0563641
-0.118527
0.139968
-0.0126848
-0.00160074
0.415966
-0.104302
0.0226908
-0.0224309
-0.000259885
-0.236872
0.151006
-0.0938006
-0.292806
-0.387364
0.395925
-0.00856199
0.0458694
0.032638
0.347657
-0.416559
0.121152
0.295408
0.163587
0.260668
-0.424255
0.239509
-0.120444
0.259832
0.203745
0.0232536
-0.0614506
0.0905406
0.341079
0.367086
-0.0107981
0.010912
-0.000113878
-0.30757
0.245975
0.0615957
-0.362417
-0.0541428
-0.0712571
0.0480119
0.0232452
0.00600873
0.00115766
0.0117737
-0.0084529
-0.214417
-0.313366
-0.0864816
0.399848
0.00143838
-0.000106224
-0.122379
-0.073332
-0.077804
-0.288348
-0.438679
0.135641
0.303038
0.338543
-0.142723
-0.19582
0.0271372
-0.414501
-0.380964
0.188432
0.0856518
0.249839
-0.404112
0.140402
0.26371
0.0166184
0.153666
0.204901
-0.400348
-0.0616359
-0.347916
0.197491
0.271904
-0.181319
-0.00774892
0.189068
-0.0425574
0.0669029
0.0178902
-0.00246876
-0.106555
-0.00676267
-0.00453163
-0.00166546
0.00195254
0.000510883
0.00182412
-0.0213034
-0.292063
-0.190133
0.255543
-0.455798
0.187078
0.0234194
-0.272711
0.249292
-0.322226
0.13911
0.158747
-0.0884782
0.207473
0.130005
0.172144
0.279482
0.406429
-0.0910855
-0.315344
-0.0543624
0.2139
-0.165152
0.0488841
0.116268
0.00418995
0.106942
0.241671
-0.0381076
-0.0461135
-0.0207193
0.00106498
0.0196543
-0.00386156
-0.0150758
0.254334
-0.00486677
0.00271146
0.0021553
0.0327799
-0.0107756
-0.00356189
0.0189585
-0.0153966
-0.457424
0.167818
0.289606
-0.112802
-0.183896
0.296698
0.0491002
0.131757
0.267377
-0.385646
-0.125309
-0.182261
-0.0278395
0.0954067
0.36041
0.0383825
0.26821
0.0454135
-0.313624
-0.1495
0.102178
0.129305
-0.197757
0.19084
0.00691688
0.447387
-0.158603
0.267254
0.105854
0.0760362
-0.305933
-0.260067
0.272544
0.0860627
0.269355
-0.355418
0.0169433
-0.3801
-0.169989
0.409618
0.0191162
0.192901
0.133005
-0.00976116
0.00973922
2.19356e-05
0.111077
0.227466
-0.0333126
-0.164444
-0.280774
-0.175023
0.0922743
-0.350059
0.257784
0.423826
-0.145037
-0.278789
-0.240595
0.269231
-0.0286358
-0.0581897
0.3264
0.388832
-0.105203
0.155995
-0.405545
0.24955
0.385854
-0.404456
0.0186025
0.238983
-0.463544
-0.096568
0.070265
0.0263031
0.137002
0.211585
-0.348587
0.0418574
-0.267673
0.275304
0.142999
0.12228
0.325107
0.00752209
-0.00786942
0.000347328
0.0426119
0.0123252
-7.0903e-05
-0.128282
-0.215495
0.343777
-0.000961385
-0.000375513
0.0843525
-0.0185923
-0.0657602
0.112434
-0.170339
-0.245441
-0.218394
-0.066555
-0.241769
0.195192
-0.323474
0.0310119
-0.0109154
-0.0200965
-0.0695127
-0.123254
0.189157
-0.0659026
-0.147701
-0.0174508
0.335515
-0.142614
0.298563
-0.0639495
-0.234613
-0.342631
0.052263
0.106229
-0.0533478
-0.0528809
-0.0170881
0.0548189
0.103014
0.00311491
-0.419315
0.278778
0.140537
0.14588
0.260549
0.46211
-0.249725
-0.0215754
0.0295909
-0.00801548
-0.010255
0.011393
0.350893
-0.0838652
-0.000763917
-0.00293246
0.00369637
-0.423587
0.211458
0.212129
0.218719
-0.276694
0.0579747
-0.0582123
0.0763441
-0.246503
0.194777
0.0517267
-0.23426
0.207716
0.0265433
0.068911
0.171736
-0.00288828
0.00199941
-0.469176
0.15146
0.317716
0.072855
-0.124597
0.0517424
0.00169008
-0.00943335
-0.347964
0.430362
0.0661619
0.0400669
-0.00951653
0.359805
-0.248229
-0.111577
-0.0681283
-0.150569
0.218698
-0.0345915
0.0248226
0.00976892
-0.0728552
0.0478755
0.359077
-0.150303
-0.208774
0.0698304
0.298524
-0.368354
0.0204118
0.00125448
-0.0216663
-0.0531545
0.0371785
0.015976
0.241423
-0.111023
-0.1304
0.0529815
-0.108936
0.0559548
0.0510398
0.176065
-0.208312
0.342074
-0.133761
0.0492113
0.107436
-0.156648
-0.307088
0.0255504
-0.273985
-0.237781
0.0958663
0.263939
-0.294727
0.451727
-0.157
-0.365628
0.305137
0.0604916
0.0491831
-0.251845
0.202662
0.154276
-0.105065
-0.106055
-0.3049
0.418155
-0.250841
0.146436
0.194081
-0.340517
-0.014889
0.0370536
0.0676215
-0.337037
0.269415
0.0108739
0.276313
0.186523
0.267746
-0.049027
-0.257794
-0.0129998
-0.189263
0.0330838
-0.0140282
-0.021107
0.0257923
-0.0682613
0.0424689
0.00683209
0.0012625
-0.102777
0.0619091
-0.170944
-0.236818
0.407762
0.106041
-0.0208768
0.00127035
0.0214204
0.361704
-0.159549
-0.202155
-0.00334528
0.0237571
-0.287453
0.445148
-0.157696
-0.224443
-0.0098168
-0.0751888
-0.107035
0.137718
-0.282755
0.145038
0.257802
0.105507
-0.187739
0.0360522
-0.206112
0.0149752
0.0954244
-0.391099
-0.0108295
-0.00657987
-0.422607
0.0378956
0.145777
0.054388
0.0821172
-0.136505
0.201502
0.260607
0.0751375
-0.183418
0.108281
-0.215809
0.0332759
0.0111874
0.0146775
-0.000447734
-0.4428
0.150269
0.292531
-0.22909
-0.179314
-0.0378958
0.146627
0.0443115
0.0332118
-0.35007
-0.0155587
0.0331523
0.118154
-0.335696
0.217541
0.039038
-0.041309
0.00227098
-0.00376721
-0.00432738
0.178009
-0.161391
0.203895
0.309122
-0.239292
-0.205511
0.254694
-0.00539883
0.0015535
0.381739
-0.195552
-0.186187
0.199576
-0.459677
-0.236955
0.197338
0.0396168
-0.453415
0.18028
0.273135
0.295558
-0.433635
0.138076
0.00254676
0.0128476
-0.0153944
-0.00978601
0.011806
-0.00201995
-0.238564
0.402242
-0.163678
0.270013
0.0808797
0.0465185
-0.0675427
0.0210242
-0.0144722
-0.000300641
0.374619
-0.107391
0.062223
0.0433826
0.276321
-0.139319
0.0335747
-0.0206043
-0.0129704
0.150215
-0.198066
0.0478503
0.00435882
-0.00512274
-0.231271
-0.149567
0.0189733
0.109255
0.153585
-0.0963
0.202862
-0.189076
0.19492
-0.388919
0.193999
-0.00274257
0.00231253
0.000430035
-0.0133352
0.427105
-0.140295
-0.28681
-0.108554
-0.327736
0.187332
0.0924048
-0.128058
0.0356537
0.336212
-0.364054
0.0278423
0.219196
0.162544
-0.178945
-0.0675585
0.194111
0.0565668
-0.250678
-0.0514135
-0.031001
0.0824145
-0.00555662
0.0249055
-0.0193489
0.153056
0.206021
0.0703412
-0.0238226
-0.0906164
-0.0569081
-0.0139223
0.00774502
0.00617729
0.163242
0.0284351
-0.191677
-0.0523553
0.215597
-0.112043
0.379296
-0.146677
0.284394
-0.12973
-0.287417
0.0118496
-0.00815208
0.0173683
-0.0511579
-0.369307
-0.0881166
0.0270489
-0.00911426
-0.0179347
0.363295
-0.150128
0.294432
-0.184991
-0.109441
0.0874146
0.154008
-0.0800817
-0.278276
0.358358
0.0976872
-0.0533756
0.325997
-0.239935
-0.0016028
-0.00113976
-0.39887
0.200956
0.324165
-0.406474
0.315377
-0.247755
0.0137711
-0.0101794
-0.00359171
-0.00291703
0.00452141
-0.00160438
0.236908
-0.407853
-0.0024637
0.00536437
-0.00290066
-0.00809593
0.00498202
-0.0161598
0.116195
-0.0632136
-0.0300899
0.276232
-0.356314
0.139746
-0.275888
0.136142
-0.42739
0.149877
0.277513
0.0585526
0.149492
-0.208044
0.00403538
-0.000905684
0.195449
-0.112587
0.389357
-0.27677
-0.123936
0.219913
-0.0959768
0.0274207
-0.009148
-0.0182727
0.141295
-0.0477654
-0.00194238
-0.0135693
0.337844
-0.21969
0.0536039
-0.133715
-0.115642
-0.124842
0.240484
-0.382744
0.0369
0.336913
0.0489409
0.133993
-0.00942603
-0.00800303
0.0174291
-0.027048
0.0181916
0.0685291
-0.210996
-0.047483
-0.0523722
0.0998553
-0.00957219
-0.014759
0.0243312
-0.0630158
0.213231
0.00471808
-0.00123555
-0.00348253
0.384268
-0.0465622
-0.337706
0.458425
-0.458425
0.0263272
-0.211473
0.185146
-0.107091
-0.324529
0.12945
-0.0370448
-0.000444784
0.000877257
-0.000432473
-0.0691973
0.12979
-0.0605923
0.177778
0.0605872
-0.238365
0.0878684
-0.119503
0.0252796
0.0469497
0.309192
0.152169
0.281493
0.102775
0.0956071
-0.303919
-0.187676
0.371976
-0.184301
0.382828
0.00742188
-0.39025
0.0086158
0.0184331
-0.197746
-0.21354
0.411286
0.0103769
0.0231978
0.107538
-0.0453152
-0.369812
0.111135
-0.151029
-0.247549
0.0354331
-0.0503221
0.213031
-0.236032
0.0230003
0.0634652
-0.0376728
-0.145495
0.368472
-0.222976
-0.10917
0.384156
-0.274985
0.250851
0.0588453
-0.309697
-0.200192
0.399769
0.00236749
-0.00131934
-0.00104816
0.396087
-0.136371
-0.259716
0.302137
-0.162391
0.236813
0.0617499
0.309623
-0.0587718
-0.324647
0.419421
-0.0947731
0.0163043
-0.0119108
-0.00439357
-0.241863
0.133664
0.262424
-0.166402
0.322687
-0.156285
0.0137552
-0.013205
-0.0472138
-0.0253645
-0.217176
0.211328
-0.1319
-0.0794285
0.041533
0.0525838
0.205985
-0.162833
-0.0431519
0.167133
-0.279935
-0.303462
-0.128911
0.0863541
-0.185501
-0.22428
0.100344
-0.13863
0.197183
-0.0613093
-0.240966
0.302275
-0.000844309
0.00142814
-0.00058383
-0.161512
0.288836
-0.127323
-0.312937
-0.0766409
0.378792
0.111851
0.158162
-0.297241
0.06597
0.126174
0.405497
-0.239664
-0.165833
-0.495846
0.0165258
-0.026098
0.0902976
0.0684498
0.0575791
0.257798
0.0625042
-0.178146
-0.0773963
-0.194049
0.271446
-0.201757
-0.0709542
-0.298372
0.237063
-0.112089
0.415561
-0.303472
0.213752
-0.187425
-0.000239718
-0.390037
-0.345301
0.135481
-0.0465019
-0.295207
-0.124108
0.465542
-0.163558
-0.301984
-0.079714
0.0416064
-0.321028
0.416635
0.234325
-0.311053
0.0767284
-0.287342
-0.0133405
0.300682
-0.256255
-0.00640597
-0.16726
0.267236
-0.376407
-0.221389
0.176516
0.0448728
-0.304226
-0.0444718
0.348698
-0.186648
0.0280221
0.158626
0.358004
-0.204949
0.0193035
-0.0143214
-0.359731
0.214235
0.303626
0.089551
-0.393177
0.0133972
0.00290714
0.0755689
0.135759
0.186697
-0.148801
-0.0222213
0.000645913
0.137054
0.237565
-0.00307813
-0.00178864
-0.0408616
0.0543496
0.0125836
0.0693104
-0.081894
0.190419
0.145096
-0.0689909
0.00366092
0.06533
0.310241
0.0721414
-0.382382
0.310543
-0.0762175
0.323321
-0.242757
-0.0805632
0.08315
-0.325877
0.242727
0.0200836
-0.00115411
0.025681
-0.00637758
0.0267336
0.079307
-0.067407
0.214903
-0.147496
0.0140647
0.00875947
-0.284088
-0.00325324
-0.107439
0.324726
-0.217288
-0.163917
0.0755879
-0.0668548
0.0105896
-0.287453
0.409694
-0.188138
0.327783
-0.139645
-0.295361
-0.128974
0.0633932
-0.0909797
0.0275865
0.312991
0.0925057
-0.243201
0.300781
-0.118611
-0.200218
0.318829
-0.26645
0.350065
-0.0836145
-0.459549
0.252665
0.206884
-0.00018196
-0.000144709
0.00032667
0.279279
-0.167428
0.0267601
-0.0781736
-0.147416
0.355763
-0.208346
0.216159
-0.273741
0.0575818
0.0263315
-0.141236
0.114904
-0.0429816
-0.134973
0.396642
-0.261669
-0.110793
0.142435
0.16661
-0.0115777
0.0124741
-0.312787
0.172844
0.139943
-0.0640596
0.403238
0.143688
-0.31515
0.171462
-0.337684
0.274108
0.0635762
0.0988087
-0.140879
0.04207
-0.171384
0.247235
-0.134748
-0.208686
0.343433
-0.0465505
0.17177
-0.125219
0.0137196
-0.0111728
0.115356
-0.330818
0.215462
0.00625883
0.0211618
0.264127
-0.0479676
0.411942
-0.143079
-0.268863
0.24487
-0.442616
0.202308
-0.0177734
-0.300007
0.344834
-0.261684
-0.189291
0.107479
0.157236
0.0408002
0.318663
-0.342813
0.208066
-0.039644
-0.273336
0.31298
-0.197467
0.034634
-0.162929
0.156332
0.00659686
-0.0303389
0.0531011
-0.0650529
0.275303
-0.21025
0.3349
-0.127428
0.345499
-0.353712
0.00821283
0.0581758
-0.105659
-0.0920729
-0.233804
0.0740321
-0.279616
0.00190946
0.34677
0.307959
0.128149
0.335917
-0.145498
0.163567
0.13857
0.0810106
-0.221044
0.140033
-0.0430334
0.31471
-0.116897
-0.197813
-0.391513
0.294708
0.0968052
0.0390977
-0.326551
-0.20376
-0.218903
0.422663
0.145329
0.266612
-0.0994198
-0.0774861
-0.21247
-0.00149808
-0.00814643
-0.237068
0.193641
0.0434277
-0.0116576
0.0265685
-0.0163651
-0.0129832
0.0293483
-0.224564
-0.0489781
0.273542
0.0853103
0.0699668
-0.198203
0.191994
0.00620951
0.00180588
-0.000795417
0.00587127
-0.000187785
0.0448769
-0.29795
-0.135684
0.000827944
-0.119929
0.119101
0.285414
-0.325058
-0.00454353
0.0774161
-0.0728726
0.285359
-0.167592
-0.117767
0.00813964
-0.00128189
-0.0080814
-0.184708
-0.128079
0.0221683
-0.0255136
0.147093
-0.048284
-0.0172679
-0.0358866
0.229959
-0.0394163
-0.300693
-0.120673
-0.223186
0.0255862
-0.128989
-0.213762
0.342751
0.346286
0.110758
0.024133
-0.0740721
0.0499392
0.00256499
-0.000197497
0.0603335
0.352987
-0.413321
0.0308415
-0.139551
-0.0490058
-0.17872
-0.289743
0.189696
0.100047
-0.324479
-0.104321
0.437365
-0.101153
-0.0554042
-0.0664691
0.223372
-0.255227
0.0318546
0.41102
-0.133574
-0.277446
0.335116
-0.148659
-0.0575414
0.251653
-0.328882
0.178579
0.368164
-0.220432
-0.147732
0.249469
-0.347674
0.0982056
-0.28948
-0.102033
0.0194309
-0.243995
0.482984
-0.262968
-0.220017
0.162884
-0.0246022
0.0974571
0.110055
0.305678
-0.176643
-0.129036
0.0087234
-0.00535014
-0.00337326
0.339905
-0.102425
0.415441
-0.313016
0.34391
-0.205666
-0.138245
-0.235517
0.2372
-0.00168272
-0.266112
-0.0715718
-0.0289097
0.0201409
0.0131671
-0.333248
0.320081
-0.194116
-0.0494501
0.228985
-0.179535
0.215282
-0.0533631
-0.119504
-0.281144
0.400648
0.167598
0.00738438
-0.349023
0.341639
-0.466795
0.255941
0.210854
0.131745
-0.0773569
0.000791177
-0.32182
0.000265743
0.0139156
0.331583
0.127245
-0.0812322
-0.0460125
0.2925
0.125262
0.411021
-0.12596
-0.285061
0.322811
-0.159244
-0.0248802
0.00606232
0.0707955
0.013557
-0.422892
0.320467
-0.00760819
0.0219624
-0.0143542
-0.0560947
-0.413538
0.148686
0.264852
-0.00435852
-0.0103349
0.0146934
-0.00595298
0.00287485
0.00257923
-0.0107313
0.1854
0.0423463
-0.227746
-0.379513
0.133027
0.246486
-0.181584
-0.242004
-1.83078e-05
0.0075404
0.155346
0.159364
0.437122
-0.29502
-0.142102
-0.442428
0.136622
0.305805
-0.0462283
0.115962
0.0286594
-0.144621
0.27751
-0.194077
-0.157069
-0.302479
0.00380193
0.127019
0.15834
0.0221225
-0.00805782
0.0759616
-0.0805051
0.208542
-0.385161
0.176619
-0.0220894
-0.0465531
0.0686426
0.319776
-0.364556
0.0447802
0.0757843
-0.393906
0.0597956
-0.234704
0.174908
-0.357157
0.207454
0.149704
-0.211256
0.219104
-0.00784774
-0.0188143
0.0122384
0.061244
-0.0734824
-0.0488188
-0.0439085
0.0927273
0.0529803
-0.241118
0.00101441
-0.000963399
0.302309
-0.0740418
-0.228267
0.445983
-0.126678
0.0258681
-0.0154912
-0.00482789
0.00236419
-0.00320408
0.00353091
-0.000326829
0.0250148
0.049546
-0.0745609
-0.126354
-0.316074
0.00592786
0.0874725
-0.0738292
-0.0136434
-0.405613
0.20542
-0.144636
-0.00363662
-0.00192032
0.00555693
-0.341675
0.00986186
0.331813
-0.30682
0.404126
-0.0973061
0.0269602
0.0639949
-0.0909551
0.347857
-0.098388
0.517765
-0.224045
0.0313584
-0.255602
0.224244
-0.192493
-0.274301
0.278087
-0.232705
-0.0453817
0.370145
-0.146587
-0.223558
-0.0898441
0.00210624
-0.00497822
0.00287198
-0.0044926
0.0266609
0.358987
-0.0645981
-0.294389
-0.108022
0.250489
-0.142467
0.206567
0.0715201
0.128672
0.282348
0.120565
-0.414192
0.293627
-0.0420144
-0.105687
0.279017
-0.433551
-0.19911
0.362697
-0.20138
0.355054
-0.153674
-0.196664
-0.0402911
-0.343164
0.475275
-0.132111
-0.145166
0.182575
-0.0745159
-0.24734
0.146041
-0.349658
0.203617
-0.139501
0.407536
-0.268035
0.0764507
0.274436
-0.387023
0.108413
0.197266
-0.262608
0.405713
-0.257818
0.194802
-0.140656
0.260018
0.00595637
-0.00222882
-0.00372754
-0.244763
0.0997348
-0.38269
0.182871
-0.149078
-0.378432