/*--------------------------------*- C++ -*----------------------------------*\
| =========                 |                                                 |
| \\      /  F ield         | OpenFOAM: The Open Source CFD Toolbox           |
|  \\    /   O peration     | Version:  v2012                                 |
|   \\  /    A nd           | Website:  www.openfoam.com                      |
|    \\/     M anipulation  |                                                 |
\*---------------------------------------------------------------------------*/
FoamFile
{
    version     2.0;
    format      ascii;
    class       surfaceScalarField;
    location    "400";
    object      phi_0;
}
// * * * * * * * * * * * * * * * * * * * * * * * * * * * * * * * * * * * * * //

dimensions      [0 3 -1 0 0 0 0];
oriented        oriented;


internalField   nonuniform List<scalar> 
41499
(
-0.245014
0.0108666
0.234148
-0.0806132
-0.0312671
0.11188
-0.00292183
-0.012982
0.0159039
0.427876
-0.281538
-0.146338
0.315833
-0.335148
0.0193146
-0.00670422
-0.142466
0.14917
0.497388
-0.302334
-0.195054
-0.0241664
0.0142295
0.00993691
-0.080427
-0.258677
0.339104
-0.0101212
-0.0128614
0.0229825
-0.0698449
-0.0991428
0.168988
0.0452149
-0.00909176
-0.201334
0.448408
-0.247074
0.263951
0.233437
-0.192534
-0.224561
0.417095
-0.305507
0.368408
-0.0629004
-0.0402483
-0.108725
0.148973
-0.363502
0.19469
0.168812
0.067566
0.018131
-0.0856969
-0.0144496
-0.00971677
-0.369928
0.156872
0.213055
0.33477
-0.138312
-0.196458
0.12065
-0.082563
0.24999
-0.370853
0.120863
-0.401412
0.0959051
-0.302406
0.408107
-0.105701
0.0011845
0.0565447
-0.0577292
0.329556
-0.0137233
0.0140695
-0.0138133
-0.000256156
0.216115
-0.220189
0.00407394
-0.138681
-0.188938
0.327619
0.00140396
0.134454
-0.135858
-0.281745
-0.111225
0.39297
-0.478301
0.36987
0.108431
-0.0463332
0.022189
0.0241442
-0.396192
-0.0821093
-0.483883
0.313287
0.170595
0.0753139
-0.37772
-0.101007
-0.10771
0.208717
-0.194193
-0.146535
0.340728
-0.252029
0.0078566
0.244173
-0.282955
-0.200928
-0.0883976
0.0484379
0.0399597
0.197173
-0.408404
0.211232
0.105309
-0.126607
0.0212984
-0.309988
0.115795
-0.126973
-0.201299
0.328272
0.0228059
-0.19909
0.176284
-0.494315
0.294334
0.199981
0.0664455
0.259554
-0.325999
-0.0271403
0.0126907
0.182258
-0.0658718
-0.116386
-0.010452
0.00609704
0.00435496
0.0639353
-0.227148
0.163212
-0.21244
0.171588
0.0408523
0.219622
-0.346595
0.2315
0.117447
-0.348946
0.445567
-0.326137
-0.11943
0.0488545
0.396713
0.199417
-0.338098
0.114055
-0.163831
0.0497764
0.267174
-0.0379844
-0.22919
-0.0129604
0.118269
0.00809396
-0.00809396
0.365247
0.0124772
-0.377724
0.0800982
-0.181105
0.0420747
-0.0150093
-0.0121311
-0.0166095
-0.0297237
0.283628
-0.470951
0.187323
0.424397
-0.154511
-0.269886
0.335491
-0.0855006
-0.143282
-0.22022
0.316734
-0.302615
-0.014119
0.00947704
-0.0179383
0.00846127
-0.445731
0.162168
0.283563
0.203298
0.0128171
0.290823
0.107643
-0.398466
0.00182863
0.00313303
-0.00496166
0.0947869
-0.408081
0.313295
0.170284
-0.176988
0.381868
-0.219242
-0.162625
-0.182045
0.023821
0.158224
-0.00180246
0.018927
-0.0171246
-0.0143262
0.0224831
-0.00815694
-0.325666
0.186336
0.13933
0.495164
-0.167976
-0.327188
-0.0526481
-0.0357496
-0.027058
0.0339665
-0.00690851
0.406701
-0.311914
0.0277275
-0.229897
0.202169
0.298666
0.0180679
-0.303904
0.37035
0.0859003
-0.0403412
-0.0455591
-0.0142127
0.0161035
-0.00189083
-0.018027
0.0151051
0.222713
-0.085759
-0.136954
0.0302681
-0.00971792
-0.0205501
0.199096
0.0680779
0.0823986
-0.401929
0.31953
0.0296523
-0.195711
0.166059
-0.31264
0.387954
0.0237356
0.00653246
0.463267
-0.212756
-0.250511
0.245588
0.0137867
-0.259375
0.20705
0.174818
0.0656004
-0.0520397
-0.0135608
0.0819982
-0.148594
0.0665957
-0.449101
0.136461
0.0258432
-0.010462
-0.0153812
-0.0674181
0.0227548
0.0446633
0.049519
-0.301548
-0.0156868
0.307449
-0.291762
0.362254
-0.186194
-0.17606
-0.0856601
0.167658
0.0503529
0.131905
-0.0349561
0.0540593
-0.0191033
0.156538
-0.155134
0.223779
0.239488
-0.275814
-0.218502
0.282361
-0.254633
-0.303606
0.287919
-0.447741
0.165996
0.143367
0.191403
-0.527566
0.227313
0.300253
0.125011
-0.00753342
-0.117478
-0.160873
0.103584
0.0572885
0.000944971
-0.0129755
0.0935209
0.193123
-0.286644
0.320259
-0.423182
0.102923
-0.23606
0.0445819
0.191478
-0.0708845
0.072069
0.0587543
0.027146
-0.00572476
0.0541627
-0.0509709
0.0622356
-0.0112647
0.221667
-0.139251
-0.0824164
-0.0620331
0.128757
-0.0667242
0.479627
-0.36331
-0.116317
-0.0990023
-0.277571
0.376573
-0.0663431
0.295439
-0.229096
0.43162
-0.43162
-0.039375
-0.173065
-0.209819
0.457045
-0.247225
0.0243356
-0.0795982
0.0552626
0.0549577
-0.023015
-0.0319426
-0.000117225
-0.014892
-0.0109649
0.000163208
0.0108017
0.216034
-0.193228
-0.302718
-0.143013
-0.180536
-0.00150901
0.0237532
-0.0587093
0.32004
0.159587
0.161287
-0.0723042
-0.0889832
0.00302499
0.00111489
-0.00413988
0.0437658
0.0643735
-0.108139
-0.0351341
0.0157703
0.0193639
-0.0528942
0.078511
-0.0256168
-0.376825
0.410107
-0.0332819
-0.429187
0.0709784
0.358208
0.315327
0.16253
-0.477857
-0.0408852
0.119899
-0.0790141
-0.00500709
0.0160667
-0.0110596
0.443995
-0.318122
-0.125873
0.238586
-0.388441
0.149856
-0.370616
0.30474
0.065876
-0.225816
-0.142967
0.368783
0.10039
0.0608972
0.0838676
-0.0138976
-0.06997
0.0214072
-0.0119302
0.398793
-0.432374
0.0335808
0.0869036
-0.289512
0.202608
0.347178
-0.169582
-0.177595
-0.269965
-0.257601
-0.201709
0.00261897
0.458669
-0.20455
-0.25412
-0.0256753
0.00962763
0.0160477
0.0199722
0.00587105
0.475938
-0.252159
-0.461075
0.213167
0.247908
-0.00995778
0.00495069
-0.00202355
-0.0250344
-0.430476
0.311187
0.119289
0.35763
-0.369339
0.011709
0.0209597
-0.021077
0.0876108
0.134057
0.295878
-0.0790631
-0.216815
-0.46837
0.327206
0.141164
-0.305973
-0.154731
0.460704
-0.00422241
-0.0122715
0.0164939
0.135461
0.359704
0.0537329
-0.0407016
-0.0130312
0.0572833
0.108055
-0.165339
0.12406
-0.0300419
-0.0940182
0.230052
0.245886
-0.271247
-0.149513
0.42076
-0.511766
0.332245
0.179521
0.23754
0.058338
-0.178946
0.417532
0.245071
-0.453932
0.208861
0.15325
-0.195554
0.0423042
-0.00487924
-0.00557276
-0.0517797
0.0755329
-0.386583
0.0097575
0.302151
-0.455899
0.153747
-0.0111741
-0.0145013
-0.00266563
-0.00829926
-0.0912263
0.146717
-0.055491
0.254367
-0.359966
0.105599
-0.00773623
-0.00815073
0.015887
0.256415
-0.336842
-0.151687
0.195211
-0.0435236
0.0668362
0.0146522
-0.0814884
-0.463836
0.339179
0.124657
0.256392
-0.375164
0.118772
0.263112
-0.431182
0.168069
-0.407335
0.0018399
0.405495
-0.130375
0.384742
-0.0725861
0.116352
0.397315
-0.0770563
0.414227
-0.207177
0.278737
-0.343446
0.0647085
-0.260107
-0.154313
0.414419
0.231482
-0.0598943
-0.405222
0.0992497
-0.0133531
-0.000371673
0.0137248
0.141925
0.220329
-0.175385
0.42454
-0.249155
-0.168405
0.236699
-0.0682938
0.280367
-0.379369
0.340243
-0.464373
0.12413
0.00713214
-0.00998742
0.00285528
-0.131326
0.468491
-0.337165
0.0940159
-0.0271797
0.0141601
0.0697074
-0.279362
-0.0905655
-0.195445
-0.239761
0.435206
-0.0425428
-0.0369469
0.0794897
-0.405868
-0.00146737
0.430951
-0.0733214
-0.417996
0.319917
0.0980794
-0.00895699
-0.159448
-0.00373896
-0.205583
0.209322
0.293071
0.0126696
-0.0644493
-0.176202
0.269723
-0.341398
-0.119677
6.2369e-05
0.00296262
0.00964302
-0.00964302
-0.185659
-0.0731991
0.258859
0.0190461
0.105014
0.227104
-0.0818118
-0.145293
-0.0277717
0.0253273
0.00244447
0.351372
0.0172438
-0.368616
-0.34529
0.156352
0.209817
0.20441
0.0757609
0.146952
-0.0102039
-0.23481
0.423188
-0.253622
-0.169566
-0.183825
0.128354
0.0554706
0.0128905
0.0527099
0.0154223
-0.0166254
0.00120312
-0.0413673
-0.0679472
0.109315
-0.23068
-0.0390142
0.269694
-0.308357
0.119432
0.188925
0.0304112
-0.261092
-0.024981
0.0722283
-0.0472474
-0.431512
0.0869516
0.34456
0.0377341
0.0159988
-0.0250851
-0.00268659
0.0634949
-0.00501741
-0.0584775
-0.402419
0.149765
0.252654
-0.014632
-0.00841977
0.0148132
-0.00285947
-0.0119537
-0.315101
0.129441
-0.277236
-0.154276
0.419709
-0.268524
-0.151185
0.250982
-0.254721
-0.409552
0.113578
0.295974
0.340087
-0.19672
0.119744
-0.499
0.36775
0.13125
0.454033
-0.16321
0.316936
0.151555
-0.295514
-0.00763112
0.303145
-0.0251336
0.022826
0.00230762
0.000702085
6.42979e-05
-0.000766383
-0.119691
0.218632
-0.0989404
0.244829
-0.0415315
0.0378511
-0.052142
0.014291
0.11371
-0.174606
0.0608963
0.348292
-0.1976
-0.150693
0.00764695
0.398024
-0.106508
-0.291515
0.206952
0.0688409
-0.110208
-0.248624
0.329512
-0.0808887
0.11019
-0.123566
0.0133756
0.0492859
0.166748
-0.152942
0.409334
-0.182193
0.0422468
0.139946
0.238731
-0.369107
0.251469
0.117777
-0.369246
0.342373
-0.0973015
-0.127396
-0.19827
5.08734e-05
0.00515801
-0.00520889
0.198841
-0.0455911
0.462836
-0.349991
-0.112845
0.00482998
-0.00300135
0.127252
-0.419351
0.292099
-0.173691
-0.0649459
0.238637
0.0770399
-0.257494
0.180454
0.0292359
0.0101292
-0.0393651
0.212385
0.210803
-0.182648
0.461361
-0.219704
-0.241657
-0.147883
0.436108
-0.288226
-0.0223634
0.0205609
-0.01151
0.0115748
0.011642
-0.00450984
-0.447589
0.141269
0.30632
0.0849612
0.318638
-0.403599
0.471882
-0.132211
-0.339671
0.318142
-0.0882378
-0.229905
-0.300677
0.261663
-0.073924
0.312656
-0.0842189
0.0602113
0.0240075
0.0036059
0.0104636
0.363308
-0.319751
-0.0435578
0.311664
0.0267851
-0.338449
0.434005
-0.264519
-0.169486
-0.130653
-0.24515
0.323298
-0.0781483
0.350351
-0.098882
0.0934429
-0.189167
-0.0561674
-0.287086
0.343253
0.0541753
-0.133108
0.0789329
-0.4288
0.18112
0.24768
0.0502635
-0.0928063
0.00388133
0.0109319
0.197058
0.0477711
-0.00144691
0.00101221
0.000434699
-0.0118815
0.000371529
0.00717327
-0.00694124
-0.000232023
0.29372
-0.349887
-0.410952
0.122237
0.288715
0.267027
-0.189988
-0.0790866
-0.0817862
-0.00516145
0.156436
0.191856
0.229553
0.0885892
-0.293989
-0.124008
0.0102359
0.114775
-0.259738
-0.0409392
-0.176906
0.114901
0.0620053
-0.0956565
0.0371297
0.0585268
0.418325
-0.14271
-0.275615
-0.290368
0.416293
-0.125925
-0.456834
0.23658
0.220254
-0.0835693
-0.287047
-0.0801115
-0.0316365
0.111748
-0.275168
0.239258
-0.288405
0.0491471
0.469395
-0.32033
-0.149065
0.296208
-0.393469
0.0972615
0.00132548
0.000405433
-0.00173092
-0.122
0.248367
-0.126368
-0.348982
0.352822
-0.00384006
0.189736
-0.318525
0.128788
-0.31778
0.406496
-0.0887153
0.00332128
0.00998667
-0.013308
-0.180472
0.500986
-0.320514
-0.132461
0.113374
0.0190864
0.409506
-0.0114819
-0.00876758
-0.0188199
0.0275875
0.278198
0.382123
-0.0418804
0.0425005
0.0610411
-0.103542
0.163832
0.0901394
-0.253971
-0.0869862
0.438358
-0.211357
0.164078
0.0472795
0.0936113
-0.0795392
-0.0140721
0.0460173
-0.227732
0.181715
-0.147474
0.0805469
0.0669271
0.0738156
-0.0283888
-0.0454268
-0.094553
-0.0892717
-0.195628
0.279604
0.0775256
0.0160857
0.216017
0.075228
-0.0246934
-0.0505346
-0.183116
0.325906
-0.14279
0.00246394
-0.0019832
-0.000480737
-0.00885682
-0.0161239
0.0249807
-0.376255
-0.0192578
0.395512
0.0149106
-0.0250318
-0.0387955
0.107017
-0.0682218
-0.255018
0.133019
-0.0147069
0.294825
-0.280118
-0.417851
0.426779
-0.00892823
0.0219545
0.0120119
-0.174943
-0.281891
-0.0369637
-0.0155126
0.01541
0.000102585
0.173108
-0.294037
0.120929
0.180783
-0.0818867
-0.0988967
-0.104601
0.407641
-0.30304
-0.0978424
-0.0403647
0.138207
-0.144639
0.376138
-0.0485926
-0.00237829
0.0262773
-0.117504
0.0132377
-0.0174601
-0.0887188
0.252551
-0.00406289
-0.372192
-0.345844
0.450501
-0.104657
0.0211586
0.0689193
-0.314069
-0.0638216
0.168382
-0.10456
-0.0159846
-0.380844
0.396828
-0.111312
0.0725162
0.307173
-0.411773
-0.0740004
0.128176
-0.32748
0.417762
-0.0902813
-0.152679
0.188961
-0.0362812
0.0347085
-0.052538
0.0178296
0.00311984
0.00154512
-0.00466496
-0.326752
0.416051
-0.0892996
0.0368251
-0.385807
-0.00384349
0.00389436
0.0444637
-0.0185249
-0.0259388
-0.424337
0.313353
0.110984
0.0601156
-0.051475
-0.0086406
-0.342737
0.348675
-0.219928
-0.128747
0.198036
-0.0485516
-0.149484
0.451625
-0.168464
-0.283161
-0.386607
0.0926184
0.0791408
0.207013
-0.286154
-0.391447
0.336408
0.0550387
-0.287642
-0.120439
0.051352
0.0424245
-0.0937765
-0.00682086
0.0703158
0.240598
-0.0758832
-0.164715
0.0316269
0.107394
-0.139021
-0.113326
0.14199
-0.0286645
-0.231812
-0.236558
-0.421368
0.126129
0.295238
-0.0127562
-0.0014565
0.31833
-0.145222
-0.0198373
-0.0593683
0.0792057
0.19468
-0.465927
0.106114
-0.0969221
-0.0091922
-0.0531364
0.000242207
0.438742
-0.157769
-0.280973
0.0356989
-0.427146
-0.0235075
-0.0439107
-0.181777
0.33865
0.0427132
-0.0134773
0.391301
-0.0950934
-0.173666
0.0472857
0.12638
0.00675987
0.00934365
0.194646
-0.339736
0.325029
0.0756224
-0.115871
-0.153231
0.427973
-0.274742
-0.00349108
-0.00918077
0.0126718
-0.0407065
0.0528133
-0.0121068
0.370135
-0.107023
-0.414182
0.238797
-0.0160265
0.130081
0.167223
0.277807
-0.44503
-0.203457
0.40063
-0.156179
0.185831
-0.0553264
-0.268718
0.324045
-0.399274
0.408646
-0.00937226
-0.408239
0.143145
0.265094
0.289941
-0.203038
0.406162
-0.197592
-0.20857
-0.289494
0.463577
-0.174083
0.323929
-0.0566926
-0.267237
0.0536031
-0.18114
0.127536
-0.0842385
0.318946
-0.234708
-0.0579122
0.183543
-0.125631
-0.000676521
0.00137861
-0.344338
0.16419
0.180148
-0.00132782
0.000400808
0.000927007
0.134765
0.205322
0.238454
-0.192437
0.279142
-0.334468
-0.354816
-0.0756601
0.462786
-0.134596
-0.32819
-0.334685
0.250446
0.319452
0.094215
-0.413667
0.056976
-0.0768134
0.284172
-0.41715
0.132979
0.00997935
-0.0134704
0.0748265
-0.144671
-0.197921
0.448719
-0.250799
-0.0725903
0.0490828
-0.0337959
-0.0218882
0.0556841
0.0105189
-0.0136295
0.00311059
0.144511
-0.0760168
-0.304827
0.0207098
-0.0168284
0.108785
0.053355
-0.16214
0.00568574
-0.0025659
-0.0122533
-0.00155996
0.217333
0.210542
-0.135179
-0.0107274
0.0116033
-0.000875952
0.0699973
0.239629
-0.380838
0.141209
0.155277
-0.109593
-0.0456845
0.105606
-0.054254
0.0145613
-0.0147718
-0.00977949
-0.0382004
-0.0136598
0.0518602
-0.0093037
-0.0240815
0.0333852
0.448012
-0.155541
-0.292471
-0.0905876
-0.0418731
-0.189828
-0.0215288
-0.537187
0.209706
0.288784
0.149958
0.269052
-0.000885447
0.00224633
-0.00136088
-0.301211
0.386172
0.385099
-0.345336
-0.147681
0.211616
-0.0262393
0.0252317
0.0010076
0.159554
-0.360888
-0.0147777
0.0025062
-0.126965
-0.372035
-0.0201065
0.0180829
0.00434999
0.00772132
0.15303
-0.0466009
-0.106429
0.222609
-0.173323
-0.0697208
-0.0214579
0.0911787
0.0050258
0.0144712
-0.019497
0.373108
-0.0927408
0.044455
0.0718855
-0.116341
0.276717
-0.197576
-0.0818406
0.271577
0.263551
0.14315
-0.514838
0.264839
0.249999
0.122271
-0.142067
0.403981
-0.261914
-0.0772619
0.040315
-0.358989
-0.0402854
0.0304998
-0.00942801
-0.0210718
-0.0823083
0.404218
-0.321909
0.082791
-0.278419
-0.119107
0.288709
-0.272177
-0.0165322
0.033802
-0.171253
0.137451
-0.184637
0.24673
0.0771994
-0.414942
0.148061
0.266881
-0.267618
-0.0278953
0.0272516
-0.053575
0.0263234
0.185578
-0.0718685
-0.398578
0.21675
0.181828
-0.0106214
0.00854585
0.0386341
-0.106581
-0.0537561
-0.12678
-0.212598
-0.30224
0.0840743
0.204635
0.0139818
0.00672793
0.286792
0.16122
0.0134992
0.0466164
0.337477
-0.197979
-0.139498
-0.113177
0.0325643
-0.00619368
0.000925971
0.0052677
0.193562
-0.139959
0.00374445
-0.0444461
-0.118269
-0.282954
0.401223
-0.36629
0.266877
0.0994131
-0.00139436
-5.25452e-05
0.0851811
-0.00103086
-0.0841502
0.0654881
0.178643
-0.244131
0.291878
0.170908
-0.404469
0.400793
0.00367614
0.0757503
-0.0165748
-0.144439
0.161014
0.0223788
0.00812106
-0.140589
-0.203749
-0.391166
0.420613
-0.0294466
-0.00425883
-0.233407
-0.162785
0.40205
-0.398033
-0.00401763
-0.00936476
0.00936476
-0.363156
0.347318
0.0158379
0.134523
0.173788
-0.308311
0.056351
-0.118384
0.139963
-0.0127433
-0.00158287
0.415966
-0.104302
0.0226728
-0.0224277
-0.000245109
-0.236805
0.151046
-0.0938008
-0.292806
-0.387363
0.395925
-0.008562
0.0458816
0.0326294
0.347657
-0.416559
0.121152
0.295408
0.163587
0.260668
-0.424255
0.239308
-0.120345
0.259832
0.203745
0.0232538
-0.0614542
0.0905406
0.341079
0.367086
-0.0107994
0.0109132
-0.000113843
-0.30739
0.245845
0.0615453
-0.362417
-0.0541427
-0.07126
0.0480118
0.0232482
0.00598811
0.00118516
0.0117755
-0.00845424
-0.214417
-0.313366
-0.0864816
0.399847
0.0014372
-0.000111718
-0.122379
-0.0733317
-0.0782536
-0.288037
-0.438679
0.135641
0.303038
0.338543
-0.142722
-0.19582
0.0271372
-0.414501
-0.380967
0.188432
0.0856517
0.249839
-0.404115
0.140403
0.263712
0.0166191
0.153665
0.204893
-0.400337
-0.0616358
-0.347916
0.197491
0.271904
-0.181407
-0.00773981
0.189147
-0.0425652
0.0669008
0.0178917
-0.00246939
-0.106557
-0.00676843
-0.00452607
-0.00166761
0.00195455
0.00050939
0.00182385
-0.0213033
-0.292063
-0.189993
0.255481
-0.455741
0.187023
0.0235315
-0.27266
0.249128
-0.322226
0.13911
0.158576
-0.0885783
0.207472
0.130005
0.172144
0.279482
0.406429
-0.0910854
-0.315344
-0.0543664
0.2139
-0.165152
0.0488836
0.116268
0.00417101
0.106824
0.241851
-0.0381025
-0.0461163
-0.0207401
0.00103695
0.0197032
-0.00386051
-0.0150757
0.254333
-0.00485542
0.00270318
0.00215224
0.0327357
-0.0107812
-0.00354839
0.0189774
-0.015429
-0.457424
0.167818
0.289606
-0.112802
-0.183896
0.296698
0.0490297
0.131754
0.267377
-0.385646
-0.12517
-0.18222
-0.0278386
0.0954045
0.36041
0.0383825
0.268324
0.0453864
-0.31371
-0.149482
0.102177
0.129305
-0.197757
0.190838
0.00691812
0.447387
-0.158603
0.267254
0.105854
0.076036
-0.305933
-0.260066
0.272544
0.0860626
0.269356
-0.355418
0.0169433
-0.3801
-0.169989
0.409618
0.0189166
0.192901
0.133005
-0.00975995
0.00973807
2.18816e-05
0.111076
0.227467
-0.0333136
-0.164443
-0.280754
-0.174987
0.0922745
-0.350059
0.257785
0.423822
-0.145033
-0.278789
-0.240684
0.269149
-0.0284651
-0.0581752
0.326499
0.388832
-0.105203
0.155995
-0.405545
0.24955
0.385854
-0.404456
0.0186025
0.238987
-0.463548
-0.0965732
0.0702775
0.0262957
0.137002
0.211585
-0.348587
0.0418573
-0.267673
0.275305
0.143021
0.12228
0.325107
0.00759214
-0.00789732
0.00030518
0.042644
0.0123137
-7.0698e-05
-0.128282
-0.215495
0.343777
-0.00095777
-0.000370045
0.0843981
-0.018622
-0.0657761
0.11243
-0.170342
-0.245441
-0.218394
-0.0666238
-0.241733
0.195192
-0.323474
0.0310107
-0.0109124
-0.0200983
-0.0695128
-0.123254
0.189156
-0.0659017
-0.147701
-0.0174503
0.335515
-0.142614
0.298563
-0.0639493
-0.234613
-0.342631
0.052263
0.106228
-0.053348
-0.0528798
-0.0170869
0.054821
0.103106
0.00300792
-0.41933
0.278788
0.140542
0.14588
0.260549
0.46211
-0.249725
-0.0215763
0.029593
-0.00801668
-0.0102534
0.0113912
0.350893
-0.0838653
-0.000716227
-0.00299698
0.0037132
-0.423587
0.211458
0.212129
0.218666
-0.276684
0.0580181
-0.0582109
0.0763419
-0.246531
0.194695
0.0518366
-0.234259
0.207716
0.0265431
0.0688534
0.171745
-0.00288661
0.00200116
-0.469176
0.15146
0.317716
0.0728545
-0.124597
0.0517424
0.00170279
-0.00943902
-0.347964
0.430362
0.0661608
0.040067
-0.00951547
0.359805
-0.248228
-0.111577
-0.068128
-0.150569
0.218697
-0.0345874
0.0248267
0.0097607
-0.0728529
0.0478719
0.359077
-0.150303
-0.208774
0.0698304
0.298524
-0.368354
0.0203403
0.00127352
-0.0216138
-0.0532592
0.0371585
0.0161007
0.241512
-0.110972
-0.13054
0.0529829
-0.108937
0.0559537
0.0510394
0.176065
-0.208312
0.342074
-0.133761
0.0491121
0.107446
-0.156558
-0.307088
0.0255503
-0.273985
-0.237781
0.0958666
0.263939
-0.294727
0.451727
-0.157
-0.365628
0.305137
0.0604916
0.049184
-0.251845
0.202661
0.154144
-0.105031
-0.10605
-0.304902
0.418179
-0.250956
0.146436
0.194081
-0.340517
-0.0148703
0.0370593
0.0676216
-0.337037
0.269416
0.0108746
0.276313
0.186523
0.267592
-0.0489257
-0.257794
-0.0130012
-0.189263
0.0330834
-0.0140316
-0.0211025
0.0257943
-0.0682621
0.0424679
0.00683148
0.00126247
-0.102794
0.0619089
-0.170961
-0.236819
0.407779
0.106057
-0.0208755
0.00125494
0.0214178
0.361704
-0.159549
-0.202155
-0.00334666
0.023687
-0.287453
0.445148
-0.157696
-0.224443
-0.00981656
-0.0752141
-0.106979
0.137717
-0.282755
0.145038
0.257802
0.105507
-0.187738
0.0360514
-0.206112
0.0148506
0.0953398
-0.391099
-0.0108295
-0.00657987
-0.422607
0.0378953
0.145777
0.0543933
0.0821135
-0.136507
0.201502
0.260608
0.075147
-0.183422
0.108275
-0.215809
0.033278
0.0111857
0.0146782
-0.000448764
-0.4428
0.150269
0.292531
-0.22909
-0.179314
-0.0376811
0.146466
0.0443164
0.0332092
-0.350069
-0.0155588
0.033152
0.118154
-0.335695
0.217541
0.0390871
-0.0414198
0.00233269
-0.00376687
-0.00432709
0.178009
-0.16139
0.203895
0.309122
-0.239292
-0.20551
0.254694
-0.0053987
0.00155521
0.381739
-0.195552
-0.186187
0.199583
-0.45969
-0.236953
0.197346
0.039607
-0.453415
0.18028
0.273135
0.295559
-0.433637
0.138078
0.00254668
0.0128489
-0.0153956
-0.0097987
0.0118055
-0.00200675
-0.238564
0.402241
-0.163678
0.270013
0.0808798
0.0465299
-0.0675434
0.0210135
-0.0144713
-0.000300456
0.37478
-0.107903
0.0622259
0.0433801
0.276321
-0.139319
0.0335869
-0.0205891
-0.0129978
0.150233
-0.198088
0.0478544
0.00441966
-0.00513589
-0.231271
-0.149567
0.0189728
0.109255
0.153579
-0.0962953
0.20286
-0.189073
0.19492
-0.388919
0.193999
-0.0027447
0.00231479
0.000429904
-0.013334
0.427096
-0.140277
-0.286819
-0.108556
-0.327868
0.187279
0.0924051
-0.128058
0.0356533
0.336213
-0.364055
0.0278418
0.219195
0.162544
-0.178866
-0.0676655
0.194112
0.0565649
-0.250677
-0.0514132
-0.0309991
0.0824123
-0.0055472
0.0248941
-0.0193469
0.153056
0.206021
0.0703429
-0.023813
-0.090438
-0.057036
-0.0139695
0.00777719
0.0061923
0.163351
0.028431
-0.191782
-0.0523802
0.215731
-0.112042
0.379296
-0.146677
0.284394
-0.129736
-0.287414
0.0118478
-0.00815078
0.0173621
-0.051158
-0.369307
-0.0881166
0.0271028
-0.00919686
-0.0179059
0.363295
-0.150128
0.294432
-0.18499
-0.109441
0.0873259
0.154186
-0.0800817
-0.278276
0.358358
0.0976892
-0.0533728
0.325997
-0.239935
-0.0016028
-0.0011419
-0.398885
0.200964
0.324165
-0.406474
0.315377
-0.247755
0.0137732
-0.0101809
-0.00359225
-0.00291827
0.00452464
-0.00160637
0.236912
-0.407872
-0.00246614
0.00536791
-0.00290177
-0.00809591
0.00498321
-0.0161573
0.116195
-0.0632125
-0.0300895
0.276232
-0.356314
0.139746
-0.275888
0.136142
-0.427386
0.149876
0.27751
0.0584287
0.149527
-0.207956
0.00403943
-0.000906392
0.195449
-0.112581
0.389357
-0.276777
-0.123936
0.219913
-0.0959768
0.0274355
-0.00906187
-0.0183736
0.141124
-0.0476814
-0.00194213
-0.0135705
0.337844
-0.21969
0.0536053
-0.133717
-0.115643
-0.124841
0.240484
-0.382744
0.0369
0.336913
0.0489409
0.133902
-0.00942689
-0.00800403
0.0174309
-0.0270498
0.0181929
0.0685283
-0.210994
-0.0474829
-0.0523713
0.0998543
-0.00957315
-0.0147599
0.0243331
-0.0630212
0.213254
0.00472218
-0.00123723
-0.00348495
0.384268
-0.0465623
-0.337706
0.458425
-0.458425
0.0263195
-0.211471
0.185151
-0.107091
-0.324529
0.12945
-0.0370444
-0.000443518
0.000870667
-0.000427149
-0.0691982
0.129791
-0.0605927
0.177778
0.0605872
-0.238365
0.0878686
-0.119505
0.0252812
0.0469471
0.309192
0.152169
0.281493
0.102775
0.0956071
-0.303919
-0.18773
0.371934
-0.184204
0.382828
0.00742188
-0.39025
0.00870599
0.0183968
-0.197746
-0.21354
0.411287
0.0103494
0.0232375
0.107539
-0.0453132
-0.369812
0.111135
-0.151029
-0.247549
0.0354547
-0.050325
0.213031
-0.236032
0.0230012
0.0634675
-0.0376732
-0.145495
0.368472
-0.222976
-0.109168
0.384154
-0.274986
0.250818
0.0588523
-0.30967
-0.200199
0.399782
0.0023205
-0.00125342
-0.00106708
0.396086
-0.13637
-0.259716
0.302137
-0.162391
0.236813
0.0617497
0.309601
-0.0587836
-0.324647
0.419421
-0.0947731
0.0162633
-0.0118755
-0.0043878
-0.241863
0.133663
0.262423
-0.166402
0.322687
-0.156285
0.0137542
-0.0132037
-0.047233
-0.0253573
-0.217152
0.211328
-0.1319
-0.0794281
0.0415313
0.0524846
0.205985
-0.162833
-0.0431514
0.167133
-0.279935
-0.303462
-0.128911
0.0863544
-0.185497
-0.22428
0.100344
-0.138655
0.197083
-0.0613071
-0.240963
0.30227
-0.000848448
0.00142366
-0.000575211
-0.161512
0.288836
-0.127323
-0.312937
-0.0766409
0.378792
0.11185
0.158162
-0.297241
0.06597
0.126047
0.405497
-0.239664
-0.165833
-0.495846
0.0165268
-0.0260999
0.0904312
0.0681444
0.0575792
0.257798
0.0625031
-0.178146
-0.0773964
-0.194049
0.271446
-0.201652
-0.0710074
-0.298368
0.237061
-0.111879
0.415473
-0.303594
0.213749
-0.187429
-0.000239478
-0.39005
-0.345301
0.135481
-0.0465019
-0.295214
-0.124116
0.465585
-0.163555
-0.30203
-0.0797124
0.0416099
-0.321028
0.416635
0.234146
-0.31096
0.0768149
-0.287252
-0.0133542
0.300606
-0.256255
-0.00640536
-0.16726
0.267237
-0.376405
-0.221389
0.176516
0.0448724
-0.304205
-0.0444735
0.348679
-0.186646
0.0280231
0.158623
0.358004
-0.204949
0.0193011
-0.0143179
-0.359731
0.214235
0.303628
0.089549
-0.393177
0.0133845
0.00287878
0.0755686
0.135759
0.186697
-0.148802
-0.0222228
0.000646491
0.137541
0.237239
-0.00306933
-0.00178608
-0.0408511
0.0543502
0.012587
0.0693302
-0.0819173
0.190419
0.145096
-0.0690333
0.00364565
0.0653876
0.310273
0.0721399
-0.382413
0.310428
-0.0762827
0.323289
-0.242732
-0.0805574
0.0831184
-0.325792
0.242674
0.0200823
-0.00115528
0.0256736
-0.00637244
0.0267335
0.0793231
-0.0674077
0.214903
-0.147496
0.0140658
0.00876015
-0.284043
-0.00320958
-0.107439
0.324726
-0.217288
-0.163918
0.075587
-0.0668567
0.010588
-0.287454
0.409691
-0.188138
0.327783
-0.139645
-0.295362
-0.128975
0.0634094
-0.0909947
0.0275853
0.312991
0.0925056
-0.243202
0.300781
-0.118518
-0.200207
0.318725
-0.266409
0.350038
-0.083629
-0.459549
0.252665
0.206884
-0.000176144
-0.000150093
0.000326237
0.279279
-0.167428
0.0267583
-0.0781715
-0.147417
0.355763
-0.208346
0.216187
-0.273745
0.0575585
0.0263205
-0.141227
0.114907
-0.0429809
-0.134975
0.396643
-0.261668
-0.110794
0.142421
0.16661
-0.0115761
0.0124723
-0.312787
0.172844
0.139943
-0.0640596
0.403238
0.143688
-0.31515
0.171462
-0.337684
0.274108
0.0635762
0.0988096
-0.140879
0.0420692
-0.171405
0.247166
-0.134752
-0.208708
0.34346
-0.046569
0.171769
-0.1252
0.0137206
-0.0111739
0.115356
-0.330818
0.215462
0.00617778
0.0212577
0.264092
-0.0479052
0.411942
-0.143079
-0.268863
0.24487
-0.442616
0.202117
-0.0177733
-0.300007
0.344763
-0.261644
-0.189291
0.107479
0.157236
0.0407995
0.318663
-0.342832
0.20808
-0.0396097
-0.273348
0.312958
-0.197467
0.0346335
-0.162929
0.156331
0.00659748
-0.0303627
0.0531175
-0.0650529
0.275303
-0.21025
0.3349
-0.127428
0.345499
-0.353712
0.00821282
0.058175
-0.105658
-0.0920186
-0.233773
0.074032
-0.279615
0.0019117
0.34677
0.307959
0.128149
0.335917
-0.145498
0.163567
0.13857
0.0810105
-0.221043
0.140033
-0.0430334
0.31471
-0.116896
-0.197813
-0.391516
0.294712
0.096804
0.0390977
-0.326551
-0.20376
-0.218903
0.422663
0.145329
0.266612
-0.0994215
-0.0774844
-0.212469
-0.00149781
-0.00814521
-0.237068
0.193639
0.0434291
-0.0116594
0.02657
-0.0163686
-0.0129782
0.0293468
-0.22456
-0.048972
0.273532
0.0853029
0.0699743
-0.198203
0.191993
0.0062098
0.00180056
-0.000788352
0.00587662
-0.000190883
0.0448766
-0.29795
-0.135687
0.000827627
-0.119928
0.119101
0.285423
-0.325032
-0.00475893
0.0775526
-0.0727937
0.285358
-0.167588
-0.11777
0.00813839
-0.00128209
-0.00808267
-0.184708
-0.128079
0.0221039
-0.0254506
0.147093
-0.0482835
-0.0173807
-0.0358786
0.229959
-0.0394161
-0.300705
-0.120663
-0.223186
0.0255862
-0.129012
-0.213787
0.342799
0.346286
0.110758
0.0241379
-0.0740736
0.0499357
0.00249585
-0.000175349
0.0603335
0.352987
-0.413321
0.0308033
-0.139528
-0.0490086
-0.178724
-0.289771
0.189689
0.100082
-0.324479
-0.104321
0.437366
-0.101153
-0.0554013
-0.0664679
0.223369
-0.255236
0.0318671
0.41102
-0.133574
-0.277446
0.335292
-0.148956
-0.0575392
0.251652
-0.328882
0.178579
0.368164
-0.220432
-0.147732
0.249448
-0.347674
0.0982252
-0.289484
-0.102033
0.0194266
-0.243986
0.482984
-0.262968
-0.220017
0.162867
-0.0246023
0.0974568
0.110055
0.305703
-0.176625
-0.129078
0.00869501
-0.0053671
-0.00332791
0.339905
-0.102279
0.415327
-0.313048
0.34391
-0.205665
-0.138245
-0.235517
0.2372
-0.00168294
-0.266112
-0.0715718
-0.0289105
0.0201429
0.0131671
-0.333248
0.320081
-0.194116
-0.0494411
0.228984
-0.179543
0.215282
-0.0533777
-0.119408
-0.28124
0.400648
0.167598
0.00738438
-0.349023
0.341639
-0.466795
0.255941
0.210854
0.131746
-0.077353
0.000791153
-0.32182
0.00026313
0.0139156
0.331583
0.127249
-0.0812341
-0.0460145
0.2925
0.125262
0.411014
-0.125953
-0.28506
0.322811
-0.159244
-0.0248813
0.00606135
0.0708091
0.013589
-0.422772
0.320493
-0.00760904
0.0219642
-0.0143552
-0.0561428
-0.413534
0.148687
0.264846
-0.00435906
-0.0103363
0.0146954
-0.00593586
0.00286652
0.00257883
-0.0107296
0.185399
0.0423474
-0.227747
-0.379495
0.133044
0.246451
-0.181584
-0.242004
2.98577e-05
0.00756228
0.155346
0.159364
0.437122
-0.29502
-0.142102
-0.442414
0.136613
0.305801
-0.0462298
0.115962
0.0286588
-0.144621
0.277314
-0.194523
-0.157069
-0.302479
0.00381577
0.127022
0.158336
0.0221242
-0.00805836
0.0758847
-0.0806436
0.208542
-0.385161
0.176619
-0.0220916
-0.0465527
0.0686443
0.319842
-0.364494
0.0446522
0.0757844
-0.393907
0.0597949
-0.234709
0.174915
-0.357157
0.207454
0.149703
-0.211256
0.219104
-0.00784755
-0.0188171
0.0122391
0.0612402
-0.0734793
-0.04876
-0.0438329
0.0925929
0.0529803
-0.241118
0.00101832
-0.000954026
0.302309
-0.0740417
-0.228267
0.446067
-0.126614
0.0258564
-0.015507
-0.00483041
0.00236427
-0.00323127
0.00350145
-0.000270178
0.0250159
0.0495424
-0.0745583
-0.12634
-0.316074
0.00592554
0.0874634
-0.0739853
-0.0134781
-0.40563
0.205431
-0.144688
-0.00363888
-0.00191758
0.00555646
-0.341675
0.00986189
0.331813
-0.30682
0.404126
-0.0973062
0.0269993
0.0638921
-0.0908914
0.347863
-0.0984149
0.517765
-0.224045
0.0313583
-0.255602
0.224243
-0.192493
-0.274301
0.278087
-0.232705
-0.0453815
0.370272
-0.146663
-0.223609
-0.0898413
0.00210905
-0.00498288
0.00287383
-0.00448069
0.0265846
0.358987
-0.0645984
-0.294388
-0.108022
0.250489
-0.142466
0.206567
0.07152
0.128672
0.282348
0.120556
-0.414205
0.293649
-0.0420149
-0.105686
0.279062
-0.433573
-0.19911
0.362697
-0.20138
0.355054
-0.153674
-0.196672
-0.040281
-0.343198
0.475355
-0.132157
-0.144941
0.182569
-0.0745137
-0.247288
0.146041
-0.349658
0.203617
-0.139501
0.407543
-0.268041
0.0763616
0.274445
-0.387025
0.108455
0.197248
-0.2626
0.405745
-0.25784
0.194819
-0.140616
0.260048
0.00595005
-0.002229
-0.00372106
-0.244763
0.0997348
-0.38269
0.18287