/*--------------------------------*- C++ -*----------------------------------*\
| =========                 |                                                 |
| \\      /  F ield         | OpenFOAM: The Open Source CFD Toolbox           |
|  \\    /   O peration     | Version:  v2012                                 |
|   \\  /    A nd           | Website:  www.openfoam.com                      |
|    \\/     M anipulation  |                                                 |
\*---------------------------------------------------------------------------*/
FoamFile
{
    version     2.0;
    format      ascii;
    class       volVectorField;
    location    "400";
    object      U;
}
// * * * * * * * * * * * * * * * * * * * * * * * * * * * * * * * * * * * * * //

dimensions      [0 1 -1 0 0 0 0];


internalField   nonuniform List<vector> 
27915
(
(1.03091 -0.0253948 -5.09035e-21)
(1.06569 -0.0552683 1.50284e-20)
(0.463452 -0.0210673 0)
(1.01031 -0.0022565 3.76072e-24)
(1.01405 -0.00568255 1.86677e-24)
(1.04078 -0.033435 -4.82964e-21)
(1.01014 0.00045162 -1.79477e-22)
(0.503084 -0.0230357 6.11066e-21)
(1.01344 -0.00501628 0)
(0.501679 -0.0374356 1.07469e-20)
(1.04482 -0.0470852 -3.229e-21)
(0.377197 0.0860232 0)
(0.965242 0.0516121 2.37097e-22)
(1.01016 0.000461627 1.42712e-22)
(1.01605 0.00252448 7.28767e-23)
(1.01098 -0.00247552 7.45358e-22)
(1.03563 -0.118839 5.28429e-21)
(1.02509 -0.0116425 5.51294e-22)
(1.08224 -0.0588125 0)
(0.499707 -0.0225534 1.94452e-21)
(0.917939 0.0496112 3.04979e-22)
(1.02807 -0.0182943 0)
(0.724686 0.0555689 -2.80104e-21)
(1.02329 -0.0107602 -3.87422e-21)
(1.01102 -0.00242093 -6.7594e-22)
(1.0077 -0.00094826 7.2032e-24)
(0.826748 -0.0428138 -5.96432e-21)
(1.01392 -0.00556066 1.85044e-24)
(0.38006 -0.00540916 0)
(1.05112 -0.0237078 3.18213e-24)
(1.02358 -0.00722347 0)
(1.02922 -0.0427551 0)
(1.00847 -0.000466642 -9.07102e-23)
(1.00722 -0.000529357 -5.69604e-23)
(0.624963 -0.0590511 -2.57079e-22)
(1.0072 -0.000542111 0)
(1.00308 -7.67751e-05 -1.45912e-24)
(1.00766 -0.000934385 -7.72489e-24)
(1.01619 -0.00600199 1.84091e-21)
(1.01622 -0.00824841 4.14932e-22)
(1.01797 -0.0156547 -1.75096e-22)
(1.00302 -6.86287e-05 2.36771e-23)
(1.08171 -0.0655591 0)
(1.01334 -0.00336021 1.05589e-21)
(0.63821 0.163636 5.53337e-22)
(1.01631 -0.00843682 1.87829e-22)
(1.01747 -0.00546965 9.46767e-22)
(1.02532 -0.0195331 3.24279e-22)
(1.00712 -0.000423888 1.95881e-22)
(1.01202 -0.00141644 -3.58776e-22)
(0.511473 -0.0258065 0)
(1.04283 -0.0849902 -1.93982e-21)
(-0.124291 -0.0768818 -3.54854e-20)
(1.04808 -0.025202 0)
(1.05765 -0.0226355 -3.36064e-21)
(1.01741 -0.0052784 0)
(1.01989 -0.000639336 0)
(0.973986 0.0681555 1.37331e-22)
(0.98467 0.0674239 1.54602e-23)
(1.02348 -0.00694423 -1.6674e-21)
(1.02019 -0.126675 0)
(1.02551 -0.026555 -1.78068e-21)
(0.606541 0.168379 -3.1567e-22)
(0.186628 0.00202658 0)
(1.0179 -0.000784885 2.82336e-21)
(1.01344 -0.00448829 -9.2196e-22)
(0.387085 0.0746875 -1.96495e-21)
(0.508706 -0.0255389 1.44669e-20)
(0.624904 -0.0614766 4.20749e-21)
(1.01898 -0.000725437 0)
(1.02853 0.0070622 7.55224e-23)
(1.02324 -0.0110391 2.45861e-21)
(1.0254 -0.0116614 -1.44498e-21)
(0.84935 -0.036376 0)
(0.463148 -0.0331366 0)
(1.03672 0.0117149 2.04113e-25)
(1.05025 -0.0235478 -2.78565e-21)
(1.00733 -0.000165 -2.34512e-22)
(0.00423057 -0.137517 7.08888e-21)
(1.00037 0.000608367 -5.68675e-22)
(1.04082 -0.032816 -4.09658e-21)
(1.01596 -0.00828324 -2.38847e-22)
(1.05358 -0.0355002 0)
(0.516345 -0.0338018 1.76524e-20)
(0.216229 0.08515 0)
(0.862763 0.0713988 0)
(1.00676 -0.000407068 0)
(1.08165 -0.0655631 9.44645e-21)
(0.382762 0.195446 4.25591e-22)
(1.00321 0.00121053 -7.89354e-22)
(1.01871 -0.0115751 7.79366e-22)
(0.845085 -0.0103987 1.67442e-22)
(1.01186 -0.00140469 6.01604e-23)
(0.696997 -0.0358612 -8.7807e-21)
(0.404605 -0.00638153 5.55481e-21)
(0.476633 -0.0231637 0)
(1.06688 -0.0406995 -5.09043e-22)
(0.525331 -0.0392858 -4.48152e-21)
(1.02551 -0.0259212 7.56386e-22)
(1.00697 0.000305259 8.40194e-23)
(1.07001 -0.0229126 0)
(1.00751 -0.000867107 1.68553e-25)
(0.520066 -0.0374964 -2.63004e-21)
(1.01665 -0.00196704 -5.10113e-22)
(1.01738 -0.0184501 0)
(1.01587 -0.00814754 -1.45232e-22)
(0.659749 0.0108809 -5.84342e-21)
(1.0211 -0.0763018 -2.03598e-21)
(1.00747 -0.000847919 6.4302e-24)
(0.504695 -0.0322946 -4.87393e-21)
(0.804454 -0.0425725 3.37022e-21)
(1.01838 -0.015737 -4.59261e-23)
(1.01925 -0.0298942 -9.44256e-25)
(1.03745 0.0598818 -1.85648e-21)
(1.02003 -0.0736537 -4.78853e-22)
(1.03975 -0.0851453 1.48568e-21)
(0.466437 -0.0857556 0)
(1.0295 -0.0419047 0)
(1.01674 -0.00213089 2.62677e-22)
(1.00712 -0.00041557 4.22305e-22)
(1.01867 -0.011381 6.56856e-22)
(1.01891 -0.0258056 -1.93593e-22)
(1.00863 -0.000492962 0)
(1.02762 -0.0181354 -1.9824e-21)
(1.00183 3.50971e-05 0)
(0.530535 0.159299 -8.9178e-22)
(0.738327 0.0629344 1.45791e-21)
(0.361691 0.0027871 0)
(1.02198 -0.00881585 0)
(1.01242 -0.00255921 -8.14035e-23)
(1.02494 -0.025016 0)
(0.857746 -0.0470655 1.23277e-21)
(0.695541 -0.0436538 0)
(1.08027 -0.0667004 0)
(0.385069 -0.11384 -2.02566e-21)
(1.00213 -0.0245911 -3.10436e-21)
(0.758237 -0.120736 2.61349e-22)
(1.00624 -0.000228858 1.1353e-22)
(1.01261 -0.00245694 -1.22956e-22)
(1.01836 -0.0108774 -3.45592e-22)
(1.00802 -5.91808e-05 0)
(1.05867 -0.0223519 3.90922e-21)
(1.00379 -0.000143707 2.17082e-22)
(1.03963 -0.0663431 0)
(0.70729 -0.0371073 0)
(0.5176 -0.0270159 -8.20771e-21)
(0.317528 -0.0055294 1.6742e-20)
(1.02519 -0.0201355 1.76782e-22)
(1.03435 0.0160174 0)
(1.05452 -0.0356339 -4.66596e-21)
(0.504877 -0.0874486 0)
(1.00623 -0.000222361 -1.15401e-22)
(1.08199 -0.0707663 4.89117e-21)
(-0.0760975 -0.0417286 0)
(1.07278 -0.106794 0)
(0.59433 -0.0573825 0)
(0.938091 -0.0654591 -5.10936e-22)
(1.00307 7.28216e-05 1.03298e-23)
(1.00208 3.46447e-05 0)
(1.01715 -0.000652743 -1.97398e-22)
(1.07045 -0.055819 7.87669e-21)
(0.439445 0.00103893 -9.73629e-21)
(1.01122 -0.00109429 2.17386e-22)
(1.00786 0.0106186 5.19442e-22)
(0.887342 -0.111562 -1.52719e-23)
(1.0276 -0.00122424 0)
(1.0832 -0.0737857 1.15066e-22)
(0.47219 -0.0955493 5.86326e-23)
(0.481304 -0.0356735 -5.52296e-21)
(1.00163 -6.3663e-05 -2.13698e-23)
(1.00979 -0.00856868 1.38221e-21)
(1.02616 -0.0121309 -4.26251e-21)
(1.00182 3.88517e-05 0)
(1.02481 -0.0191683 0)
(1.00953 0.000416356 8.58512e-23)
(0.476507 -0.0564366 2.6426e-20)
(0.501302 -0.0313753 -3.07658e-21)
(1.01629 -0.00231218 1.4756e-23)
(1.0033 3.6315e-05 -2.71624e-22)
(0.382825 -0.00384487 0)
(0.384094 0.198949 -6.06898e-21)
(1.00697 -0.00432639 4.13458e-22)
(1.00457 -0.000305948 0)
(0.530834 -0.0295724 0)
(1.00218 -0.0221358 0)
(1.00819 0.0475675 -2.57421e-21)
(1.00323 2.53838e-05 0)
(1.0027 4.29936e-05 0)
(0.433368 -0.0110791 4.0293e-21)
(1.00677 -0.000397896 -1.74594e-22)
(0.870989 -0.0620571 0)
(1.03851 -0.051793 -1.32551e-21)
(1.07961 -0.0552474 3.22723e-21)
(1.01632 -0.00245513 -2.65982e-22)
(1.00983 0.00066849 1.05394e-23)
(1.0097 -0.000660935 6.18714e-22)
(1.0136 0.0518689 2.35659e-21)
(1.00724 0.0133459 -3.992e-23)
(1.0019 -4.00119e-05 -9.39345e-23)
(1.0489 -0.0343304 0)
(-0.127417 -0.0688875 2.73556e-20)
(0.556572 -0.094449 4.90406e-21)
(1.00343 4.78565e-05 0)
(1.0019 -4.27432e-06 -1.61361e-22)
(0.478956 -0.0499359 7.75124e-23)
(0.325134 -0.00637017 -1.21637e-20)
(1.05956 -0.0606493 -7.18198e-21)
(1.0206 -0.0137947 3.52811e-22)
(0.239013 -0.0462604 0)
(1.01358 -0.00514206 0)
(1.05161 -0.0353528 1.84024e-21)
(0.534338 -0.166991 -3.8991e-22)
(1.00211 -1.2097e-05 0)
(1.01964 -0.000180554 -2.89613e-21)
(1.00165 4.10926e-06 -4.45869e-23)
(1.01569 -0.000315968 -1.48607e-23)
(1.01885 -0.0124783 -3.53027e-22)
(1.06895 -0.105378 3.59424e-21)
(1.01255 -0.00253579 4.90872e-23)
(1.01576 -0.00793788 0)
(1.02219 -0.0103694 7.04804e-22)
(1.01755 0.0057533 1.0514e-22)
(1.05752 -0.0235464 1.87681e-21)
(1.00213 1.75881e-06 0)
(0.428387 0.00388685 0)
(1.05188 0.0522928 0)
(1.01389 -0.00361796 0)
(0.771655 0.172441 -4.59299e-22)
(1.01283 -0.00249889 -1.36189e-22)
(1.00868 -0.000360526 -1.40211e-22)
(0.284043 -0.00236667 -5.36264e-21)
(1.02656 0.00337459 -2.38912e-22)
(0.55811 -0.168501 -6.58898e-22)
(0.501065 -0.0786175 0)
(0.914484 0.0343185 -4.64784e-22)
(1.01527 -0.00332651 -3.76094e-22)
(0.488584 -0.175213 -2.50123e-21)
(1.01501 -0.000381843 0)
(1.00327 -0.000128753 0)
(1.01067 -0.00114383 0)
(0.752167 0.149961 -4.23575e-22)
(1.02011 -0.0153165 0)
(1.02895 0.00473264 7.87983e-23)
(0.594342 -0.0934206 -1.2141e-20)
(1.0217 -0.00859966 -2.62429e-21)
(1.00339 4.89092e-05 0)
(-0.0706147 -0.0331096 0)
(0.217596 0.000284289 2.15042e-20)
(1.01568 -0.0180814 1.33283e-22)
(1.0785 -0.0563382 0)
(1.06063 -0.0199297 -1.48226e-20)
(0.603048 -0.0462171 0)
(1.01102 0.00082853 0)
(1.02394 -0.00742374 0)
(1.01567 -0.00782694 0)
(1.06288 -0.0469284 0)
(1.03144 -0.0253095 5.33079e-21)
(1.01291 -0.00282851 -1.51843e-23)
(1.05004 -0.0504706 8.7804e-21)
(0.67932 0.00753759 7.3742e-21)
(0.40139 -0.020208 0)
(1.06681 -0.0562944 7.61761e-21)
(0.987895 -0.0101888 4.79587e-22)
(0.979262 -0.0034046 4.16113e-21)
(0.986274 -0.0125664 2.28767e-23)
(1.09176 -0.0654561 0)
(1.00938 -0.00178892 -1.1256e-22)
(0.859034 -0.0609689 1.10883e-20)
(0.609261 -0.0464872 0)
(0.773589 -0.029881 0)
(1.01393 0.000404844 4.37554e-22)
(0.439301 0.00490844 0)
(0.479838 -0.000230312 -9.08081e-21)
(0.309505 -0.000768598 -3.28608e-20)
(1.01626 -0.0179636 -2.17361e-22)
(1.00946 -0.00179813 0)
(1.01685 -0.00151732 -2.41645e-22)
(1.02018 -0.015121 5.83591e-22)
(1.00893 -0.00128294 0)
(1.02739 -0.0175711 3.16043e-21)
(1.01247 -0.00247217 0)
(1.00709 0.000312988 0)
(1.00721 -0.000151671 1.80914e-22)
(1.02629 0.00155458 -1.58426e-22)
(0.865882 0.0206715 0)
(0.511355 -0.0313962 -1.36463e-20)
(-0.0149925 0.0162264 -2.78542e-20)
(0.774052 0.111991 2.54019e-21)
(1.04999 -0.024436 2.77731e-21)
(0.785865 -0.0562381 0)
(0.991843 0.0112564 0)
(1.02424 -0.0112666 -5.64252e-22)
(0.452468 0.0030267 1.0244e-20)
(1.01219 -0.000792757 0)
(1.01707 -0.0016539 -6.89458e-23)
(1.06701 -0.0558532 0)
(0.833422 0.0272348 9.10809e-23)
(0.689232 -0.0980721 2.39127e-21)
(1.02565 -0.0204173 -1.67256e-22)
(1.01932 -0.000204557 1.68783e-21)
(0.959826 -0.0766664 1.94295e-21)
(1.0197 -0.0102375 1.00726e-23)
(1.01177 -0.00194319 2.2136e-22)
(1.00103 2.77794e-05 6.62178e-23)
(0.856587 0.0541977 1.58743e-22)
(-0.039951 -0.121489 -1.94804e-20)
(1.04851 -0.0350345 0)
(1.00327 4.7788e-05 0)
(0.00746188 -0.131992 2.16993e-20)
(1.0134 0.000314841 -6.29334e-24)
(0.752737 0.135927 -1.27077e-22)
(1.03504 -0.00482491 1.93555e-21)
(0.590879 -0.0475791 4.13931e-21)
(1.01291 -0.00276595 -2.17699e-22)
(0.744481 0.133613 -1.09375e-22)
(1.00178 -1.71625e-07 -1.80495e-22)
(1.00669 0.000243084 4.15767e-23)
(0.527296 -0.0369376 0)
(0.355818 0.00479032 0)
(0.302406 -0.00566523 0)
(1.02753 -0.00195803 -6.49062e-23)
(1.00855 0.000493281 0)
(1.0097 -0.00195466 8.00926e-22)
(1.02171 -0.0106666 0)
(0.992313 -0.0108855 -2.28973e-21)
(1.01829 -0.00935792 0)
(1.07907 -0.0663646 0)
(0.391148 -0.00673033 5.07597e-21)
(1.01946 -0.00725825 -2.6092e-21)
(1.01034 -0.000553518 -3.04114e-23)
(1.01476 -0.0038484 -6.96357e-22)
(1.02849 -0.000100638 1.68069e-22)
(1.02228 -0.0111496 0)
(1.01188 -0.0019393 -2.77991e-22)
(0.759106 0.18423 1.83138e-21)
(1.00912 0.000417279 0)
(1.05317 -0.096008 0)
(1.00923 -0.00125902 0)
(0.538332 -0.172811 7.59432e-22)
(0.37204 -0.0198384 3.39838e-20)
(1.04921 -0.0243805 -5.08342e-21)
(-0.0175662 0.0319485 0)
(0.342429 0.00349816 6.67086e-22)
(-0.101471 -0.0750897 -6.74013e-21)
(1.00893 0.000404128 0)
(1.01628 -0.0005693 0)
(1.03444 -0.00473334 1.75639e-21)
(0.728163 0.0522462 -7.39819e-21)
(0.517052 -0.0328079 1.05716e-20)
(1.0239 -0.0112358 4.50831e-22)
(1.0214 -0.0105224 7.881e-22)
(1.01074 -0.00119016 0)
(0.537364 0.171887 4.27523e-22)
(0.993822 -0.0133787 4.68701e-22)
(1.05609 -0.0466484 0)
(1.07027 -0.062778 1.08022e-20)
(1.00949 0.00517461 2.12721e-22)
(1.01741 -0.00335363 -1.90093e-21)
(1.01093 -0.00099995 -1.63426e-22)
(0.8911 -0.133873 1.19339e-21)
(1.06393 -0.0496585 -9.7378e-21)
(1.01362 0.000130025 -6.97331e-22)
(1.02006 -0.0134734 4.34166e-22)
(1.00561 1.59764e-05 -1.78187e-22)
(1.01539 0.000118863 1.77557e-22)
(-0.00806802 0.055466 1.85358e-20)
(1.01197 -0.0187908 0)
(1.00987 -0.0014883 -2.1092e-24)
(1.02284 -0.00686704 -2.39946e-22)
(1.01065 -0.00260929 -8.81827e-25)
(0.384412 -0.00738587 -4.95581e-21)
(1.00928 0.000405977 1.53813e-22)
(1.06294 -0.0547889 0)
(1.01151 -0.000673964 -7.36373e-23)
(0.583386 -0.0384655 5.11201e-21)
(1.00952 0.000428321 9.51808e-23)
(1.00882 -0.000348419 0)
(1.07727 -0.0534871 3.56721e-23)
(1.00942 -0.0177804 1.04762e-21)
(1.0112 0.000856339 1.37308e-23)
(1.03965 -0.0366802 0)
(1.07018 -0.0598614 1.60221e-20)
(1.02377 -0.0237825 4.25082e-22)
(0.60744 0.134646 3.79117e-22)
(0.95317 -0.0675699 -7.73905e-21)
(1.051 -0.0500076 -2.31124e-21)
(0.833498 -0.0041867 0)
(1.06968 -0.0598924 -1.76906e-20)
(1.01842 -0.0111241 3.67506e-22)
(1.03498 -0.0673545 9.17549e-21)
(1.02979 -0.00285048 5.76971e-21)
(-0.0333919 -0.0540049 0)
(0.546569 -0.0356591 0)
(1.00989 -0.0021864 4.49165e-22)
(0.524151 -0.0399876 8.12572e-21)
(1.06637 -0.0545494 -1.28034e-20)
(1.01274 -0.0183856 3.85859e-22)
(1.01663 -7.48935e-05 1.61321e-22)
(1.00261 2.00153e-05 1.6491e-22)
(0.350165 0.19757 0)
(1.01094 -0.00103307 2.57466e-23)
(1.02495 -0.0255648 3.97893e-22)
(0.424983 -0.00640762 -1.07455e-20)
(1.03916 -0.00687752 4.88315e-21)
(0.957443 -0.0938393 -2.5743e-21)
(1.01884 0.00351896 0)
(1.06133 -0.0778052 6.31122e-21)
(1.01979 -0.000640788 -1.30382e-21)
(0.366534 -0.104933 1.35123e-21)
(1.06043 -0.0606517 1.12302e-20)
(0.445521 -0.0138447 -3.86657e-21)
(1.00814 -0.0177552 -9.7057e-22)
(1.00993 -0.0021793 -3.46558e-22)
(1.00363 7.75366e-05 -4.44712e-25)
(0.387155 0.0990107 -1.06168e-20)
(1.02238 -0.0109518 1.49894e-23)
(1.02276 -0.0684527 2.7109e-21)
(1.01313 -0.00177264 4.79257e-22)
(1.0664 -0.054037 -6.01716e-21)
(1.01942 0.00442531 -1.22396e-22)
(1.05697 -0.0988563 -3.19544e-21)
(1.00482 -0.000114239 5.2847e-23)
(1.06778 -0.0235671 1.37585e-20)
(0.853764 -0.0608859 0)
(0.091638 -0.0872074 2.706e-20)
(1.01253 -0.00163701 -6.37154e-23)
(1.00979 -0.00150257 1.67371e-23)
(-0.0389494 -0.119739 0)
(0.764772 -0.0565787 0)
(1.01397 -0.000427988 1.67216e-22)
(0.821562 -0.0663827 0)
(1.01283 -0.00194587 0)
(1.07121 0.0305601 3.4988e-22)
(1.05275 -0.0328737 -3.61161e-21)
(1.01028 -0.00172951 -1.24404e-22)
(1.01058 -0.00121758 0)
(1.0201 -0.00746702 -1.37745e-21)
(1.01477 -0.00060277 -2.19217e-21)
(0.999564 -0.00245232 0)
(1.07305 -0.0585129 -5.77293e-21)
(0.797329 -0.0309129 0)
(1.0491 -0.0390009 3.55275e-23)
(1.05048 -0.0705943 0)
(1.06094 -0.0583793 -2.1736e-21)
(1.00314 1.91064e-05 -1.70275e-22)
(1.02046 0.00179239 2.15362e-22)
(0.415979 -0.00701325 0)
(1.03836 -0.00682272 2.44523e-21)
(1.07663 -0.0655519 0)
(1.01001 0.000685434 0)
(0.543786 0.111551 0)
(0.964106 -0.0661478 -4.51211e-21)
(1.00876 -0.00144015 3.04182e-22)
(1.01383 -0.000487943 -2.92947e-24)
(0.811556 -0.0463758 -3.91022e-21)
(0.910783 0.0601952 -8.12993e-23)
(0.612496 -0.0465627 -8.27892e-21)
(1.0157 -8.2303e-05 -3.37061e-22)
(1.06298 -0.0333115 0)
(0.412393 -0.00687293 -1.15426e-22)
(1.00961 -0.00193519 -5.40443e-22)
(1.01363 -0.000152565 -4.61e-21)
(1.00487 -0.116572 -3.41335e-21)
(1.01426 0.00364747 -3.41322e-22)
(0.362383 -0.00420578 -9.69963e-21)
(0.906367 -0.0635271 1.41099e-20)
(1.00108 4.33506e-05 -1.25782e-22)
(1.01386 -0.00344279 -1.30645e-21)
(1.01545 -0.122794 6.76582e-22)
(1.03298 0.0329447 3.5656e-22)
(1.01335 -0.00349913 -1.12819e-21)
(1.06902 -0.0221105 0)
(1.00512 -0.0134771 0)
(1.01117 -0.000916538 4.00039e-22)
(1.00496 0.00917848 -5.2721e-22)
(1.01087 -0.0087021 -2.13431e-23)
(1.01357 -0.00384156 -1.18248e-21)
(1.01439 -0.00365864 0)
(1.01224 -0.0182691 0)
(1.01973 -0.0254497 0)
(0.977146 -0.0818546 0)
(1.02305 -0.0312914 -5.11283e-22)
(0.0127484 0.0111793 -2.51724e-20)
(0.928443 0.0876413 2.4347e-22)
(-0.0143643 0.0350138 -8.07419e-21)
(1.027 -0.0174243 -3.19157e-21)
(1.02422 -0.0237 0)
(1.00673 -0.0120267 3.46969e-22)
(1.00709 -0.00644891 0)
(1.01003 -0.000564104 2.12746e-22)
(0.976289 -0.096104 -2.84792e-22)
(0.997981 0.0699844 -1.24613e-22)
(1.07309 -0.0647779 0)
(1.01318 -0.000632296 5.08807e-24)
(0.375811 -0.00756985 0)
(1.04509 -0.0461902 8.64932e-21)
(1.01674 0.00493455 -4.66546e-22)
(0.853694 -0.0490284 0)
(0.861288 -0.0664616 0)
(0.412144 -0.00779158 4.27197e-21)
(1.01459 -0.0038539 0)
(1.01328 -0.00208197 1.5596e-22)
(0.465938 -0.0358189 5.99215e-21)
(0.62175 0.127799 2.29757e-22)
(0.106043 -0.0773545 5.69344e-21)
(0.389461 -0.00635993 2.20538e-21)
(1.01027 -0.00219674 -9.63999e-24)
(1.01308 -7.54937e-05 2.36276e-22)
(0.330863 0.00363684 -1.02807e-21)
(0.650389 0.0724139 0)
(1.01184 -0.00380428 0)
(1.05597 -0.0626669 6.24008e-21)
(1.0727 -0.0579437 -9.49617e-21)
(0.437349 0.00536548 0)
(0.350689 0.00462575 0)
(0.968422 -0.0639155 3.95688e-21)
(0.616558 -0.062691 -3.82698e-21)
(1.01018 -0.00162102 -6.85116e-23)
(1.06332 -0.0544581 -3.90684e-23)
(1.04049 -0.0371364 2.35735e-21)
(1.00408 -0.000105727 -5.7644e-23)
(1.00869 -0.00142777 1.5318e-22)
(1.01119 -0.00105282 0)
(-0.0391116 -0.0440104 1.09153e-20)
(1.00837 0.000472902 0)
(0.903816 -0.151508 2.28443e-22)
(1.04752 -0.0243946 0)
(0.584012 -0.0383418 -3.72214e-22)
(0.953413 0.0544142 -1.475e-22)
(0.421482 -0.00902113 0)
(1.00704 0.000300519 -1.28956e-24)
(0.360759 0.202805 -4.13641e-21)
(0.314215 -0.0105871 -1.30515e-20)
(1.054 -0.0733218 2.60005e-21)
(1.02554 -0.0208136 0)
(1.06645 -0.0604566 2.31293e-21)
(0.493566 -0.0267993 -6.50012e-21)
(1.01299 -0.00249027 2.60954e-22)
(1.06703 -0.0533214 -6.64436e-21)
(1.01991 -0.00728191 1.41933e-21)
(1.02253 -0.00676254 0)
(1.00432 0.00367595 1.27836e-23)
(1.01887 -0.000574324 0)
(0.973624 0.0560459 -1.49028e-22)
(1.01359 -0.000609274 0)
(0.460385 -0.176551 8.71817e-23)
(1.01106 -0.000944716 -2.29095e-22)
(0.578874 -0.0385718 0)
(1.00929 -0.00136209 0)
(0.836465 0.0307696 3.52661e-21)
(1.02311 -0.00676375 2.36073e-22)
(1.0289 -0.0143996 -1.18897e-21)
(1.01904 -0.0470067 -5.11763e-22)
(0.754758 0.11117 -8.49115e-22)
(1.01068 -0.0167649 0)
(1.01292 0.00939387 3.99374e-22)
(0.87891 0.00904464 -8.23905e-22)
(0.8258 -0.058907 0)
(0.99218 0.0170408 -1.19154e-21)
(1.01282 -0.00449454 1.05864e-21)
(0.340784 0.00482533 2.90052e-22)
(0.48255 -0.035435 -1.17703e-20)
(1.06719 -0.0567235 -8.06206e-21)
(1.0551 -0.0350201 5.58255e-21)
(1.01894 -0.000562568 0)
(1.02863 -0.0145022 1.67666e-21)
(0.482966 -0.0422508 -1.56146e-22)
(1.01017 -0.00159219 1.57499e-22)
(0.830991 -0.0675297 0)
(1.03643 -0.00359706 0)
(1.06609 -0.0556154 -1.36191e-20)
(-0.0744974 -0.0969982 3.71534e-20)
(1.02067 -0.0253961 -3.76171e-22)
(0.847742 -0.0605235 0)
(1.00757 -0.000402052 -8.74771e-23)
(0.877775 -0.0173162 1.34574e-21)
(-0.0250879 0.0248721 0)
(1.05187 -0.0548194 -7.40074e-21)
(0.944652 -0.0859268 9.17761e-23)
(1.00997 -0.000545993 1.23173e-22)
(1.00266 2.36726e-05 -1.78456e-22)
(1.06577 -0.054703 9.85329e-21)
(1.02883 -0.0394612 -2.53958e-21)
(0.574685 -0.0375779 0)
(0.916942 0.080047 1.12395e-21)
(1.00134 -2.38717e-05 -8.27046e-24)
(0.423238 -0.00989564 0)
(1.00728 -0.000572941 -7.24153e-23)
(1.00188 2.2519e-05 -1.85913e-22)
(0.222771 -0.00144556 0)
(1.00409 4.13171e-05 0)
(1.031 -0.00250848 6.77723e-21)
(0.817483 -0.110569 1.03513e-20)
(1.02838 -0.0406247 0)
(0.148535 0.100144 3.86099e-21)
(1.01048 -0.000544909 0)
(0.513872 -0.0755479 -1.1032e-20)
(1.07466 -0.0402546 4.92075e-22)
(1.01066 -0.00126743 1.1134e-22)
(1.00656 -0.000342351 -4.30126e-24)
(0.936944 -0.0652879 4.3956e-22)
(1.02209 -0.010567 7.19695e-22)
(1.00906 -0.0017042 3.11274e-22)
(1.0074 -0.000421505 -1.44764e-22)
(0.844501 0.136772 -7.89773e-23)
(1.01422 -0.00364508 -1.22462e-21)
(0.99134 -0.0642722 3.63919e-21)
(1.01188 -9.13727e-05 0)
(1.01728 -0.000595169 -1.05074e-21)
(0.302714 -0.00526377 9.72986e-21)
(0.875444 -0.15479 8.26147e-22)
(1.00911 -0.00171554 -2.71944e-22)
(1.03097 -0.065179 1.4376e-20)
(-0.0989261 -0.0839732 9.34721e-21)
(0.370074 -0.00447219 2.42677e-23)
(1.02362 -0.0108529 8.442e-22)
(1.01501 -0.00423542 1.88042e-21)
(-0.00863652 0.0495026 -2.32518e-20)
(1.07093 -0.0224941 0)
(0.881006 -0.0528085 1.6175e-21)
(1.00677 0.000258615 7.11507e-23)
(1.02494 -0.0150287 -1.93662e-21)
(1.00653 -0.000346932 -3.16289e-23)
(1.01559 0.00232192 -7.17914e-23)
(1.02285 -0.0109028 1.51172e-21)
(1.01415 -0.000181963 0)
(1.03989 -0.0323678 3.78008e-21)
(1.01584 -0.00400082 4.01478e-24)
(1.00901 -0.0013246 -4.57742e-23)
(1.00564 1.61787e-05 -1.81341e-22)
(1.00444 0.0220216 0)
(1.01404 -0.066664 0)
(0.412317 -0.021995 1.58835e-21)
(1.06091 -0.0578105 -2.03331e-23)
(-0.0804631 -0.0960346 -1.63822e-20)
(-0.027704 -0.0561346 9.53078e-22)
(0.333666 0.00242998 -3.30954e-22)
(1.01522 -0.00436618 -1.16294e-21)
(0.947893 -0.0764105 0)
(1.00539 -0.0180362 -7.74757e-23)
(1.07557 -0.107948 0)
(1.0303 -0.00283074 -3.07766e-21)
(0.627224 0.0748276 9.31877e-22)
(1.03632 -0.00399249 0)
(1.01023 -0.00169259 -1.36947e-22)
(1.00735 0.000328039 0)
(0.930686 -0.0628132 -1.81699e-20)
(1.01578 -0.000316393 0)
(1.00928 0.000415219 0)
(1.06831 -0.0331044 7.59441e-21)
(0.998293 0.0235392 8.48239e-22)
(1.07865 0.0183674 -1.90162e-22)
(1.07935 -0.0660076 -5.45071e-21)
(0.418255 0.00901838 1.68035e-20)
(0.590658 -0.0392163 0)
(1.01986 -0.0134974 0)
(-0.0877858 -0.0615203 2.35776e-20)
(0.360629 0.192548 -9.34903e-21)
(0.343166 -0.0142104 -1.54609e-20)
(1.00619 1.80663e-06 1.77778e-22)
(1.04068 -0.00687152 -8.33683e-21)
(0.951474 -0.0900646 5.91608e-21)
(1.00773 -0.000424296 1.29706e-22)
(0.88503 -0.154978 4.58219e-22)
(1.0816 -0.0584103 0)
(1.00218 -4.77908e-05 0)
(0.978603 0.0686722 -2.04956e-22)
(1.02342 -0.0708653 -2.2977e-21)
(1.05672 -0.0237714 2.21959e-21)
(1.03584 -0.030882 1.6096e-21)
(1.00857 -0.00132148 -1.12411e-23)
(1.0129 -0.00243979 0)
(1.0189 -0.0118875 -8.37004e-22)
(1.01812 -0.000892421 -1.21003e-21)
(1.00628 -5.79528e-06 0)
(1.00376 2.83935e-05 -2.65297e-23)
(1.01169 -0.00366727 0)
(0.64995 -0.137516 2.69403e-22)
(1.02965 -0.00321699 -2.83546e-21)
(0.323491 0.00443236 0)
(1.0246 -0.0148736 -1.65682e-21)
(1.03659 -0.031464 -1.81797e-21)
(1.00801 -0.0196002 -1.48749e-22)
(1.01216 -0.000995087 3.01453e-22)
(1.01559 -0.00120231 0)
(1.05779 -0.123222 -1.54604e-21)
(0.987399 0.065939 2.01437e-22)
(1.01866 -0.000641655 -1.21611e-21)
(1.01039 -0.00191516 0)
(1.01397 -0.000777771 0)
(1.01622 0.00281387 1.48212e-24)
(1.06215 -0.0624968 -2.77226e-21)
(1.01841 -0.00646681 5.35006e-22)
(1.02732 -0.00102842 4.0565e-22)
(1.01083 0.00628675 -8.40841e-22)
(1.00851 -0.00130892 -4.70614e-22)
(-0.0803844 0.0992249 -3.46907e-20)
(0.702244 -0.0328355 1.85228e-21)
(0.426374 0.00385035 0)
(1.01337 -0.00505389 4.60494e-23)
(-0.0175029 0.0278054 7.85219e-21)
(0.874935 -0.0349097 0)
(1.02251 -0.0320681 1.52786e-21)
(1.00196 -9.17818e-07 0)
(0.977516 -0.00859321 -2.17392e-21)
(1.01351 -0.00517588 -1.47299e-23)
(0.60056 -0.044207 0)
(1.01681 -0.0186282 0)
(1.04727 -0.0357473 1.91728e-21)
(1.06919 -0.0329425 -1.62146e-20)
(1.02915 -0.00322256 2.73097e-21)
(1.03788 -0.00840609 -2.63424e-21)
(1.01763 -0.00347892 2.31727e-21)
(1.08699 -0.0525399 7.50159e-21)
(0.888318 -0.0617414 -1.05828e-20)
(0.543615 0.124574 0)
(1.0165 0.00467198 0)
(1.00734 0.000324336 -2.37391e-23)
(1.01271 -0.00272617 2.20503e-22)
(0.585915 -0.0431322 0)
(0.387429 0.00414186 1.78863e-20)
(1.03391 -0.00492434 -4.25512e-23)
(-0.0298712 0.0692037 -5.85853e-21)
(1.00874 -0.00112865 0)
(0.956862 -0.198417 0)
(1.0823 -0.0593952 8.63969e-21)
(0.931405 0.0458493 4.45877e-21)
(1.04923 -0.0145238 -4.86992e-21)
(1.04589 -0.0424937 0)
(-0.0465624 -0.0517928 0)
(1.00289 2.04793e-05 -1.3299e-22)
(1.08117 -0.0470843 -2.96819e-22)
(0.200605 -0.0631964 0)
(1.00686 0.000286685 0)
(1.08634 -0.0527669 1.71844e-20)
(0.333289 0.00527843 0)
(1.01195 -0.00127473 1.6578e-22)
(1.04717 -0.0230272 -4.66707e-21)
(0.572561 -0.0601072 4.73713e-21)
(1.09683 -0.0650512 6.23275e-21)
(1.02615 -0.0162592 -1.91532e-21)
(1.00693 -8.3965e-05 -3.97573e-22)
(0.185365 0.182659 2.90996e-21)
(0.516443 -0.0294881 9.48828e-21)
(1.06522 0.0260094 0)
(1.07347 -0.0541282 -1.20229e-20)
(1.05971 -0.0202571 1.14798e-20)
(1.01047 -0.00232834 -7.09017e-22)
(0.942179 -0.104837 -1.46678e-21)
(1.01045 -0.00232646 -4.94913e-24)
(1.00966 -0.000654859 -7.73234e-22)
(1.01191 -0.00121824 1.8741e-24)
(1.00648 -2.79354e-05 -2.34026e-23)
(1.01155 -0.00172415 -6.068e-23)
(1.01739 -0.0119527 -1.48068e-22)
(0.914824 -0.111302 1.4975e-21)
(1.01659 -0.000374873 0)
(1.03677 0.0260228 -4.12513e-22)
(1.02257 -0.00567824 3.21613e-21)
(0.650816 -0.058361 0)
(1.01193 -0.000963521 4.64957e-22)
(0.301192 -0.00820938 4.68878e-21)
(1.00313 3.50171e-05 1.67484e-22)
(0.956881 -0.193443 0)
(1.02257 -0.0105415 -7.35077e-22)
(0.479448 -0.0241086 7.08554e-21)
(1.06908 -0.0210566 -5.48831e-21)
(0.594407 -0.055581 -1.13671e-20)
(1.07217 -0.0658528 -7.11583e-21)
(0.278677 0.00279544 0)
(1.06656 -0.0567856 -9.35207e-21)
(1.01423 0.00555855 5.55465e-24)
(1.06036 -0.0546801 7.1924e-21)
(0.504521 -0.0791233 1.58215e-20)
(1.02469 -0.00230959 -2.29471e-21)
(0.185365 0.176187 3.93913e-21)
(1.00653 -5.9988e-05 -4.78728e-23)
(1.05007 -0.0143748 9.5523e-21)
(0.963695 -0.0831925 -1.71779e-21)
(1.03164 -0.00602872 0)
(1.01919 -0.00716416 1.26065e-21)
(1.05199 -0.0345498 -3.81855e-21)
(1.01904 -0.000681016 0)
(0.649037 -0.0984131 0)
(1.007 0.000309089 -1.67143e-22)
(1.00173 2.60918e-05 -3.52871e-24)
(1.06809 -0.0194219 0)
(1.05533 -0.0551517 0)
(1.01268 -0.00267326 1.02325e-22)
(1.02066 -0.0323228 -1.35417e-21)
(1.04784 -0.0235676 2.45439e-21)
(0.758354 -0.0564984 0)
(0.49618 -0.021231 0)
(1.00591 3.03104e-06 0)
(1.01352 -0.00340165 0)
(0.62869 0.109498 -4.87081e-23)
(1.06915 -0.0597504 7.3251e-21)
(1.01165 -0.00178496 0)
(1.06789 -0.0224199 -1.18123e-20)
(1.02245 -0.00605482 2.99942e-21)
(0.407614 0.0581992 -1.04037e-20)
(0.259577 0.000574459 0)
(1.03975 -0.0314674 -3.70548e-21)
(1.02575 -0.0120942 3.92512e-21)
(1.0068 -7.50788e-05 -1.16167e-22)
(1.0174 -0.0117131 -4.97815e-22)
(-0.0439749 -0.116108 1.37083e-21)
(1.01854 -0.00561309 -1.89544e-21)
(1.01724 0.00643313 -4.31399e-23)
(1.02567 -0.0221033 0)
(1.00424 7.21343e-05 0)
(1.01377 -0.00051341 -1.70318e-22)
(0.440195 -0.00920681 -1.00367e-20)
(0.185389 -0.0751518 -8.82302e-21)
(1.01322 -0.00361855 5.82805e-22)
(1.03384 -0.00522418 -3.67772e-21)
(0.890007 -0.0649419 -3.73889e-21)
(0.423885 0.00427378 -1.31201e-20)
(0.887764 0.0123032 1.6349e-21)
(1.072 -0.0580327 5.21559e-21)
(1.01843 -0.00661471 -1.46651e-21)
(0.451538 -0.0397145 6.18807e-24)
(1.01712 -0.0142825 7.24082e-22)
(-0.0178323 0.0761946 0)
(1.01197 -0.00385814 2.71708e-22)
(1.08262 -0.0378152 0)
(1.03808 -0.0528646 0)
(1.01745 -0.0179353 5.97114e-23)
(1.0148 -0.00526538 3.16407e-22)
(-0.0172753 -0.0713522 -1.52314e-20)
(0.433822 0.00506166 1.06209e-20)
(1.02243 -0.000665527 1.0554e-22)
(1.014 -0.000251486 0)
(0.893196 0.0837259 -5.11161e-22)
(1.08131 -0.0388536 -5.39019e-21)
(1.01448 0.00170644 0)
(1.01833 -0.00562822 6.57622e-22)
(0.923138 0.0361699 1.92478e-21)
(1.02282 -0.0189003 0)
(1.07887 -0.0596181 0)
(0.515878 -0.065612 -1.42123e-20)
(1.02579 -0.0161395 -1.85193e-21)
(0.919661 -0.0646563 3.5396e-21)
(0.60522 0.152801 6.04333e-22)
(-0.0147713 0.168177 0)
(0.9964 0.0585663 5.66605e-21)
(0.969217 0.0632539 -3.75306e-21)
(1.01305 -0.00244186 0)
(1.03111 -0.00595936 0)
(1.01303 -0.0010054 -5.90683e-22)
(0.37653 0.00399359 -1.0848e-20)
(0.833532 -0.0649666 -3.33647e-21)
(1.00622 1.64534e-07 8.57844e-23)
(0.429707 0.128992 -1.64318e-20)
(1.00269 7.80422e-05 1.65044e-22)
(1.04424 -0.00739076 -2.37093e-21)
(1.07889 0.0151873 -5.21571e-22)
(1.00863 0.00040032 0)
(1.06884 -0.0592635 -1.21675e-21)
(1.0062 -1.89892e-06 1.16575e-22)
(-0.0213633 -0.065321 -9.6599e-23)
(1.01644 0.00577406 4.98613e-22)
(1.00948 -0.001407 0)
(1.01174 -0.000974776 -7.08391e-23)
(0.350421 -0.00595309 -9.05681e-21)
(0.0200908 -0.121707 -1.31935e-20)
(1.01337 0.0062777 -3.71528e-22)
(0.00158025 -0.131958 1.29821e-20)
(0.183559 -0.072896 0)
(0.500782 -0.0500425 0)
(1.07307 -0.0535087 -8.63003e-21)
(1.0489 -0.0251775 5.86271e-21)
(1.00845 0.000386806 0)
(1.0232 -0.00258319 -1.22953e-21)
(1.01499 -0.00145618 0)
(1.08471 -0.0694732 0)
(0.00484748 -0.138878 0)
(1.01371 -0.00358665 -1.19662e-21)
(1.01802 0.0012794 0)
(1.03701 -0.0157911 -2.74308e-23)
(0.210347 0.016723 1.265e-21)
(0.70163 0.193691 -1.17304e-21)
(0.433455 -0.00773383 9.54089e-21)
(1.0226 -0.00634109 -7.36986e-22)
(1.06449 -0.0499571 9.96076e-21)
(1.03568 -0.0272798 2.77218e-21)
(1.00315 6.26989e-05 0)
(1.01428 -0.000857179 0)
(0.609649 0.123807 -7.71989e-22)
(0.415833 -0.0192041 1.59515e-21)
(0.566841 -0.0382883 0)
(1.04146 -0.0340926 5.2464e-21)
(1.08387 -0.0521745 5.34614e-21)
(0.525186 -0.034543 1.08086e-20)
(1.0188 -0.0148762 -1.34916e-22)
(-0.000825544 -0.138668 0)
(1.00874 -0.000849749 0)
(1.00624 -0.00016232 3.40489e-24)
(1.02442 -0.0219259 3.21552e-23)
(1.01221 -0.000187667 0)
(1.08115 -0.0394687 -5.85853e-23)
(-0.007564 0.0222267 1.76868e-20)
(1.06688 -0.0489819 -5.6362e-21)
(1.03762 -0.0148465 5.86199e-21)
(1.06383 -0.0489411 9.96585e-21)
(1.09076 -0.0656953 0)
(1.00186 4.28631e-06 -7.51168e-23)
(1.00867 -0.000818569 0)
(1.01048 -0.00226791 6.33411e-22)
(0.889763 -0.154079 -5.18711e-21)
(1.00117 -1.1414e-05 0)
(0.408594 0.149934 -2.04699e-21)
(1.01263 0.00115312 0)
(0.444082 -0.0335692 0)
(1.07162 -0.057473 4.92325e-21)
(1.01343 -0.00505349 0)
(1.01296 -0.00457874 3.92567e-22)
(0.679458 -0.0592068 0)
(1.03195 -0.0245128 4.6803e-22)
(1.0472 -0.0660159 0)
(1.01982 -0.000472658 -1.53471e-21)
(1.01434 -6.7163e-06 0)
(1.01185 -0.0153934 -2.08671e-22)
(1.01819 0.00754516 1.54184e-22)
(-0.0159906 -0.0176887 4.2954e-21)
(1.01271 -0.000256813 -2.69859e-22)
(1.02293 -0.00252945 4.95739e-22)
(1.03734 -0.00858078 -1.32031e-21)
(1.00958 -0.0161096 3.90199e-22)
(1.00189 2.41479e-05 -8.04379e-23)
(0.0573458 0.162986 3.90297e-21)
(1.0028 4.35046e-05 1.31e-22)
(1.01261 -0.000257333 -3.96646e-22)
(1.01617 -0.00802981 -4.55943e-22)
(0.42823 0.0046289 -1.18695e-20)
(0.862958 -0.0517756 0)
(1.07068 -0.112473 0)
(1.05315 -0.0235588 2.17922e-21)
(0.529151 -0.172615 1.33441e-21)
(1.06037 -0.0229243 0)