/*--------------------------------*- C++ -*----------------------------------*\
| =========                 |                                                 |
| \\      /  F ield         | OpenFOAM: The Open Source CFD Toolbox           |
|  \\    /   O peration     | Version:  v2012                                 |
|   \\  /    A nd           | Website:  www.openfoam.com                      |
|    \\/     M anipulation  |                                                 |
\*---------------------------------------------------------------------------*/
FoamFile
{
    version     2.0;
    format      ascii;
    class       volVectorField;
    location    "400";
    object      U_0;
}
// * * * * * * * * * * * * * * * * * * * * * * * * * * * * * * * * * * * * * //

dimensions      [0 1 -1 0 0 0 0];


internalField   nonuniform List<vector> 
27915
(
(1.03092 -0.0253897 -5.09445e-21)
(1.06573 -0.0552652 1.50446e-20)
(0.463499 -0.0210634 0)
(1.01031 -0.00225636 1.28532e-24)
(1.01405 -0.00568298 1.60553e-24)
(1.04077 -0.0334324 -4.83234e-21)
(1.01014 0.000451623 -1.78552e-22)
(0.503104 -0.0230098 6.10341e-21)
(1.01344 -0.00501617 0)
(0.501699 -0.0374601 1.07407e-20)
(1.0448 -0.0470944 -3.23129e-21)
(0.37686 0.0851862 0)
(0.965457 0.0519024 2.32716e-22)
(1.01016 0.00046161 1.4199e-22)
(1.01606 0.00252108 7.28683e-23)
(1.01098 -0.00247553 7.47807e-22)
(1.0355 -0.11909 5.2783e-21)
(1.02509 -0.0116424 5.51775e-22)
(1.08222 -0.0588077 0)
(0.49973 -0.0225297 1.94223e-21)
(0.918136 0.050207 3.02435e-22)
(1.02807 -0.0182943 0)
(0.725206 0.0564431 -2.79907e-21)
(1.02329 -0.0107603 -3.87793e-21)
(1.01102 -0.00242094 -6.78161e-22)
(1.0077 -0.000948349 1.1182e-23)
(0.82697 -0.0432862 -5.99557e-21)
(1.01392 -0.00556099 6.69592e-25)
(0.380115 -0.00540782 0)
(1.05111 -0.0237094 3.18334e-24)
(1.02358 -0.00722331 0)
(1.0292 -0.0427306 0)
(1.00847 -0.000466727 -8.97361e-23)
(1.00722 -0.000529242 -5.60715e-23)
(0.625114 -0.0587226 -2.56187e-22)
(1.0072 -0.000541988 0)
(1.00308 -7.6781e-05 -3.29882e-24)
(1.00766 -0.000934469 -1.19919e-23)
(1.01637 -0.00599861 1.83492e-21)
(1.01622 -0.0082479 4.16343e-22)
(1.01797 -0.0156504 -1.76557e-22)
(1.00302 -6.86343e-05 2.56766e-23)
(1.08167 -0.0654959 0)
(1.01334 -0.00336012 1.05796e-21)
(0.637904 0.164288 5.16728e-22)
(1.01631 -0.00843627 1.88605e-22)
(1.01747 -0.00546981 9.47928e-22)
(1.02537 -0.0195737 3.20823e-22)
(1.00712 -0.000423878 1.97167e-22)
(1.01202 -0.0014154 -3.55966e-22)
(0.511497 -0.0257801 0)
(1.04268 -0.0850785 -1.93886e-21)
(-0.124341 -0.0761428 -3.54707e-20)
(1.04807 -0.0252031 0)
(1.05765 -0.0226376 -3.36167e-21)
(1.0174 -0.00527855 0)
(1.01989 -0.000639418 0)
(0.974278 0.0683344 1.29792e-22)
(0.984975 0.067521 2.52106e-23)
(1.02348 -0.00694409 -1.66864e-21)
(1.01978 -0.126685 0)
(1.02552 -0.0265448 -1.78375e-21)
(0.606268 0.169029 -2.94534e-22)
(0.186614 0.00202588 0)
(1.0179 -0.000784877 2.82566e-21)
(1.01363 -0.00446909 -9.19092e-22)
(0.386786 0.073824 -1.97625e-21)
(0.508732 -0.0255148 1.44501e-20)
(0.625036 -0.061155 4.211e-21)
(1.01898 -0.000725456 0)
(1.02858 0.00698994 7.39961e-23)
(1.02324 -0.0110392 2.46099e-21)
(1.0254 -0.0116613 -1.44616e-21)
(0.849276 -0.035038 0)
(0.463163 -0.0331599 0)
(1.03681 0.0115812 3.34935e-24)
(1.05025 -0.0235492 -2.78674e-21)
(1.00733 -0.000164872 -2.32184e-22)
(0.00421882 -0.137628 7.09722e-21)
(1.00037 0.000726454 -5.66928e-22)
(1.04081 -0.0328136 -4.09885e-21)
(1.01596 -0.00828291 -2.40761e-22)
(1.05357 -0.0355048 0)
(0.51632 -0.0337539 1.76296e-20)
(0.217029 0.0852955 0)
(0.862961 0.0721285 0)
(1.00676 -0.000406998 0)
(1.08161 -0.0655023 9.4418e-21)
(0.382117 0.195464 4.25199e-22)
(1.00322 0.00130794 -7.86646e-22)
(1.01871 -0.0115745 7.81248e-22)
(0.845084 -0.00900357 1.67488e-22)
(1.01186 -0.00140384 5.96808e-23)
(0.697287 -0.0365712 -8.83349e-21)
(0.404648 -0.00637763 5.5485e-21)
(0.476679 -0.0231595 0)
(1.0667 -0.0410628 -5.12272e-22)
(0.525361 -0.0393064 -4.47837e-21)
(1.02553 -0.0259132 7.57723e-22)
(1.00697 0.000305214 8.35885e-23)
(1.07001 -0.0229148 0)
(1.00751 -0.000867188 4.27796e-25)
(0.520096 -0.0375157 -2.62812e-21)
(1.01666 -0.00197721 -5.06391e-22)
(1.01736 -0.0184447 0)
(1.01587 -0.00814739 -1.46874e-22)
(0.660424 0.0107313 -5.91638e-21)
(1.02095 -0.0762708 -2.02697e-21)
(1.00747 -0.000847991 7.35503e-24)
(0.504735 -0.0323003 -4.8694e-21)
(0.80472 -0.0424201 3.39944e-21)
(1.01837 -0.0157339 -4.59671e-23)
(1.01905 -0.0298613 -9.16857e-25)
(1.03799 0.0596614 -1.83286e-21)
(1.01989 -0.0736155 -4.76384e-22)
(1.03959 -0.0852191 1.48494e-21)
(0.466517 -0.0863639 0)
(1.02948 -0.0418812 0)
(1.01674 -0.00214184 2.60847e-22)
(1.00712 -0.000415565 4.24717e-22)
(1.01867 -0.0113805 6.58361e-22)
(1.01874 -0.0257813 -1.90144e-22)
(1.00863 -0.000493038 0)
(1.02762 -0.0181356 -1.98432e-21)
(1.00183 3.50917e-05 0)
(0.530625 0.159849 -8.91016e-22)
(0.738498 0.0634684 1.45138e-21)
(0.361637 0.00278592 0)
(1.02198 -0.00881586 0)
(1.01242 -0.00255974 -8.0222e-23)
(1.02496 -0.025011 0)
(0.857956 -0.0475116 1.23448e-21)
(0.695759 -0.0443557 0)
(1.08024 -0.0666325 0)
(0.384843 -0.114548 -2.01249e-21)
(1.00221 -0.0244701 -3.10434e-21)
(0.757204 -0.120333 2.59138e-22)
(1.00624 -0.000228852 1.11789e-22)
(1.01261 -0.00245782 -1.21537e-22)
(1.01836 -0.0108768 -3.46439e-22)
(1.00802 -5.91794e-05 0)
(1.05867 -0.022354 3.91041e-21)
(1.00379 -0.000143699 2.18922e-22)
(1.03966 -0.066217 0)
(0.707641 -0.03688 0)
(0.517627 -0.0269906 -8.19817e-21)
(0.317573 -0.00553123 1.67275e-20)
(1.02523 -0.0201722 1.73964e-22)
(1.03446 0.015901 0)
(1.05452 -0.0356388 -4.66826e-21)
(0.504942 -0.0880076 0)
(1.00623 -0.000222367 -1.13632e-22)
(1.08203 -0.0710191 4.90919e-21)
(-0.0758469 -0.0417302 0)
(1.0726 -0.10704 0)
(0.594305 -0.0572509 0)
(0.938128 -0.06531 -5.1116e-22)
(1.00307 7.28214e-05 1.0271e-23)
(1.00208 3.46391e-05 0)
(1.01715 -0.000652742 -1.97551e-22)
(1.0706 -0.0559305 7.91507e-21)
(0.439512 0.00105324 -9.75167e-21)
(1.01122 -0.00109398 2.15439e-22)
(1.00792 0.0106914 5.14752e-22)
(0.887309 -0.110707 -1.55636e-23)
(1.0276 -0.00122447 0)
(1.08321 -0.0740492 1.15475e-22)
(0.472857 -0.0946766 5.94123e-23)
(0.481321 -0.0356979 -5.51996e-21)
(1.00163 -6.36612e-05 -1.96276e-23)
(1.00981 -0.00852511 1.38092e-21)
(1.02616 -0.0121307 -4.26585e-21)
(1.00182 3.88465e-05 0)
(1.02486 -0.0192055 0)
(1.00953 0.00041629 8.53845e-23)
(0.476349 -0.0563989 2.63835e-20)
(0.501343 -0.0313801 -3.0737e-21)
(1.01629 -0.00232133 1.46511e-23)
(1.0033 3.62983e-05 -2.69819e-22)
(0.382906 -0.00383656 0)
(0.383439 0.198998 -6.04174e-21)
(1.00694 -0.00425689 4.12205e-22)
(1.00457 -0.00030594 0)
(0.53086 -0.0295452 0)
(1.00227 -0.022019 0)
(1.0086 0.0476718 -2.56552e-21)
(1.00323 2.53714e-05 0)
(1.0027 4.2986e-05 0)
(0.433416 -0.0110734 4.02479e-21)
(1.00677 -0.000397839 -1.71938e-22)
(0.871035 -0.0620328 0)
(1.03848 -0.0517959 -1.32624e-21)
(1.07979 -0.0554241 3.24511e-21)
(1.01632 -0.00246452 -2.64116e-22)
(1.00983 0.00066834 1.05059e-23)
(1.0097 -0.000660939 6.20474e-22)
(1.01404 0.0519216 2.34497e-21)
(1.00732 0.0134271 -4.01259e-23)
(1.0019 -4.00041e-05 -9.2182e-23)
(1.04889 -0.0343332 0)
(-0.127453 -0.0680951 2.73439e-20)
(0.55652 -0.0949442 4.90236e-21)
(1.00343 4.78527e-05 0)
(1.0019 -4.27518e-06 -1.5956e-22)
(0.478829 -0.0499037 7.88704e-23)
(0.325178 -0.00637273 -1.21532e-20)
(1.05958 -0.0607225 -7.19739e-21)
(1.02051 -0.0138048 3.51787e-22)
(0.239352 -0.0460046 0)
(1.01358 -0.00514194 0)
(1.0516 -0.0353569 1.8412e-21)
(0.533676 -0.16724 -3.65389e-22)
(1.00211 -1.20935e-05 0)
(1.01964 -0.000180582 -2.89794e-21)
(1.00165 4.10804e-06 -4.41704e-23)
(1.01569 -0.000315975 -1.48728e-23)
(1.01877 -0.0124811 -3.52065e-22)
(1.06873 -0.1056 3.59515e-21)
(1.01255 -0.0025365 4.84706e-23)
(1.01576 -0.00793781 0)
(1.02219 -0.0103695 7.0553e-22)
(1.01757 0.00575111 1.05194e-22)
(1.05752 -0.0235486 1.8774e-21)
(1.00213 1.75497e-06 0)
(0.42837 0.00389507 0)
(1.0524 0.0519667 0)
(1.01389 -0.00361792 0)
(0.771999 0.173126 -4.56377e-22)
(1.01283 -0.00249995 -1.34784e-22)
(1.00868 -0.000360562 -1.38823e-22)
(0.28407 -0.00236913 -5.35887e-21)
(1.02658 0.00331148 -2.3543e-22)
(0.557402 -0.16867 -6.90944e-22)
(0.501812 -0.0776932 0)
(0.914621 0.0349325 -4.613e-22)
(1.01525 -0.00331998 -3.71812e-22)
(0.48796 -0.175094 -2.5374e-21)
(1.01501 -0.000381839 0)
(1.00327 -0.000128741 0)
(1.01067 -0.00114356 0)
(0.752596 0.150944 -4.18072e-22)
(1.0201 -0.0153171 0)
(1.02898 0.00465621 7.74945e-23)
(0.59427 -0.0938803 -1.21344e-20)
(1.0217 -0.00859967 -2.6268e-21)
(1.00339 4.88891e-05 0)
(-0.0703895 -0.0331631 0)
(0.217563 0.000283053 2.15249e-20)
(1.01566 -0.0180682 1.32809e-22)
(1.07868 -0.0565379 0)
(1.06063 -0.0199316 -1.48266e-20)
(0.603048 -0.0461472 0)
(1.01102 0.000828293 0)
(1.02394 -0.00742358 0)
(1.01567 -0.00782701 0)
(1.06266 -0.0472567 0)
(1.03144 -0.0253047 5.33496e-21)
(1.01291 -0.0028289 -1.49883e-23)
(1.05003 -0.0504911 8.78856e-21)
(0.679969 0.00733672 7.47069e-21)
(0.401421 -0.0202191 0)
(1.06684 -0.0562792 7.62479e-21)
(0.987905 -0.0100122 4.80075e-22)
(0.979303 -0.00317246 4.16584e-21)
(0.986266 -0.012378 2.2874e-23)
(1.09174 -0.0654832 0)
(1.00938 -0.00178894 -1.13245e-22)
(0.859077 -0.0609418 1.10786e-20)
(0.609263 -0.0464197 0)
(0.773962 -0.0297903 0)
(1.01394 0.000415164 4.35782e-22)
(0.439278 0.00491849 0)
(0.479908 -0.000194858 -9.0954e-21)
(0.309457 -0.000768094 -3.28249e-20)
(1.01624 -0.0179529 -2.16803e-22)
(1.00946 -0.00179817 0)
(1.01686 -0.00152733 -2.39905e-22)
(1.02018 -0.0151216 5.85135e-22)
(1.00893 -0.00128305 0)
(1.02739 -0.0175714 3.16339e-21)
(1.01247 -0.00247288 0)
(1.00709 0.000313003 0)
(1.00721 -0.000151544 1.79117e-22)
(1.02629 0.00149233 -1.56422e-22)
(0.865741 0.0213508 0)
(0.511397 -0.0313992 -1.36332e-20)
(-0.0151976 0.0159992 -2.77895e-20)
(0.774343 0.112791 2.52881e-21)
(1.04999 -0.0244375 2.77839e-21)
(0.785907 -0.0562222 0)
(0.992165 0.0114172 0)
(1.02424 -0.0112666 -5.64766e-22)
(0.452556 0.0030518 1.02601e-20)
(1.01219 -0.000792746 0)
(1.01708 -0.0016656 -6.8435e-23)
(1.06704 -0.0558405 0)
(0.833418 0.0282093 9.36507e-23)
(0.688324 -0.0974598 2.39688e-21)
(1.02568 -0.0204583 -1.6459e-22)
(1.01932 -0.000204581 1.68888e-21)
(0.959617 -0.0763298 1.95674e-21)
(1.01964 -0.0102498 1.00418e-23)
(1.01177 -0.00194328 2.19043e-22)
(1.00103 2.77853e-05 6.50509e-23)
(0.856685 0.0549901 1.58942e-22)
(-0.0400157 -0.121452 -1.94967e-20)
(1.04851 -0.0350373 0)
(1.00327 4.77873e-05 0)
(0.00744501 -0.132086 2.17264e-20)
(1.01341 0.000330672 -6.31804e-24)
(0.753099 0.136818 -1.22741e-22)
(1.03504 -0.00482534 1.93633e-21)
(0.591154 -0.0471876 4.15498e-21)
(1.01291 -0.00276651 -2.14839e-22)
(0.744846 0.134627 -1.16905e-22)
(1.00178 -1.77749e-07 -1.77935e-22)
(1.00669 0.000243051 4.13532e-23)
(0.527274 -0.0368823 0)
(0.355769 0.00478809 0)
(0.302433 -0.00566918 0)
(1.02751 -0.00202756 -6.40839e-23)
(1.00855 0.000493178 0)
(1.0097 -0.00195472 8.05162e-22)
(1.02171 -0.0106669 0)
(0.992322 -0.0107375 -2.29203e-21)
(1.01823 -0.00936322 0)
(1.07905 -0.0662822 0)
(0.391204 -0.00672868 5.07046e-21)
(1.01946 -0.00725838 -2.6121e-21)
(1.01034 -0.000553571 -3.01388e-23)
(1.01476 -0.00384845 -6.97417e-22)
(1.02848 -0.00017679 1.65944e-22)
(1.02228 -0.0111498 0)
(1.01188 -0.00193932 -2.75066e-22)
(0.758125 0.184099 1.86813e-21)
(1.00913 0.00041722 0)
(1.05299 -0.0961728 0)
(1.00923 -0.00125906 0)
(0.537612 -0.172722 7.71478e-22)
(0.371968 -0.0198385 3.39449e-20)
(1.04921 -0.0243819 -5.08549e-21)
(-0.0176624 0.0317391 0)
(0.342381 0.00349645 6.677e-22)
(-0.101672 -0.0742945 -6.74079e-21)
(1.00893 0.000404071 0)
(1.01627 -0.000577557 0)
(1.03444 -0.00473377 1.75712e-21)
(0.728224 0.0528526 -7.36984e-21)
(0.517092 -0.0328118 1.05615e-20)
(1.0239 -0.0112359 4.51231e-22)
(1.0214 -0.0105227 7.89023e-22)
(1.01074 -0.00118988 0)
(0.537435 0.172296 4.28468e-22)
(0.993815 -0.0132413 4.68776e-22)
(1.05609 -0.0466631 0)
(1.07034 -0.0626764 1.08157e-20)
(1.00953 0.0052296 2.11398e-22)
(1.0174 -0.00335363 -1.90282e-21)
(1.01093 -0.000999788 -1.61984e-22)
(0.891051 -0.133263 1.19589e-21)
(1.06394 -0.0496667 -9.74553e-21)
(1.01363 0.000142591 -6.94547e-22)
(1.02006 -0.0134736 4.35072e-22)
(1.00561 1.59756e-05 -1.76663e-22)
(1.01538 0.000112362 1.76146e-22)
(-0.0081696 0.0553129 1.85109e-20)
(1.01194 -0.0187589 0)
(1.00987 -0.00148839 -2.07261e-24)
(1.02284 -0.0068669 -2.40129e-22)
(1.01065 -0.00260908 -8.75032e-25)
(0.384468 -0.0073856 -4.95057e-21)
(1.00928 0.000405902 1.52992e-22)
(1.06298 -0.054808 0)
(1.01151 -0.000673948 -7.37647e-23)
(0.583411 -0.0384355 5.1063e-21)
(1.00952 0.000428254 9.46815e-23)
(1.00882 -0.000348434 0)
(1.07726 -0.0534788 3.56516e-23)
(1.00939 -0.0177336 1.0484e-21)
(1.0112 0.000856067 1.37048e-23)
(1.03964 -0.0366765 0)
(1.07019 -0.0598176 1.60279e-20)
(1.0238 -0.0237816 4.2705e-22)
(0.607337 0.133653 4.01096e-22)
(0.953195 -0.0674337 -7.73874e-21)
(1.05098 -0.050028 -2.3134e-21)
(0.833615 -0.00587027 0)
(1.0697 -0.0598471 -1.76977e-20)
(1.01842 -0.0111235 3.68407e-22)
(1.035 -0.0672379 9.1736e-21)
(1.02979 -0.00285082 5.77231e-21)
(-0.0333584 -0.0540719 0)
(0.546609 -0.0356577 0)
(1.00989 -0.00218648 4.51619e-22)
(0.524173 -0.0400137 8.12107e-21)
(1.06639 -0.0545459 -1.28158e-20)
(1.01271 -0.0183566 3.85755e-22)
(1.01663 -7.49046e-05 1.61425e-22)
(1.00261 2.00136e-05 1.63459e-22)
(0.349532 0.197569 0)
(1.01094 -0.00103286 2.5515e-23)
(1.02497 -0.0255574 3.98773e-22)
(0.42501 -0.00640135 -1.0733e-20)
(1.03916 -0.00687805 4.88492e-21)
(0.957131 -0.0934759 -2.59513e-21)
(1.01886 0.00350273 0)
(1.06127 -0.0779684 6.3248e-21)
(1.01979 -0.00064086 -1.30467e-21)
(0.36636 -0.105697 1.3449e-21)
(1.06045 -0.0607271 1.12546e-20)
(0.445568 -0.0138378 -3.86225e-21)
(1.00811 -0.0177022 -9.71293e-22)
(1.00993 -0.00217938 -3.48481e-22)
(1.00363 7.75173e-05 -4.36986e-25)
(0.386766 0.0982528 -1.07078e-20)
(1.02238 -0.010952 1.49892e-23)
(1.02265 -0.0684218 2.70429e-21)
(1.01313 -0.00175666 4.77414e-22)
(1.06643 -0.0540349 -6.02282e-21)
(1.01945 0.00440767 -1.20951e-22)
(1.05676 -0.0990327 -3.19625e-21)
(1.00482 -0.000114219 5.14346e-23)
(1.06778 -0.0235694 1.37617e-20)
(0.853795 -0.0608416 0)
(0.0916887 -0.0872128 2.71093e-20)
(1.01253 -0.00161471 -6.34976e-23)
(1.00979 -0.00150267 1.64116e-23)
(-0.0390035 -0.119718 0)
(0.764797 -0.0565418 0)
(1.01398 -0.000428498 1.66267e-22)
(0.821581 -0.0662196 0)
(1.01282 -0.00192666 0)
(1.07158 0.0300733 3.39529e-22)
(1.05275 -0.0328773 -3.61332e-21)
(1.01028 -0.00172965 -1.21955e-22)
(1.01058 -0.00121733 0)
(1.0201 -0.0074671 -1.37889e-21)
(1.01477 -0.000602765 -2.19426e-21)
(0.999549 -0.00232995 0)
(1.07305 -0.0584829 -5.7738e-21)
(0.797698 -0.0308609 0)
(1.04897 -0.0392368 3.718e-23)
(1.05041 -0.0706788 0)
(1.06097 -0.0584364 -2.1783e-21)
(1.00314 1.90928e-05 -1.68672e-22)
(1.02048 0.00176524 2.13153e-22)
(0.416026 -0.00700882 0)
(1.03836 -0.00682324 2.44614e-21)
(1.07662 -0.065468 0)
(1.01001 0.00068526 0)
(0.543969 0.112266 0)
(0.964141 -0.0660072 -4.51277e-21)
(1.00876 -0.00144009 3.06532e-22)
(1.01383 -0.000487934 -2.92036e-24)
(0.811794 -0.0462113 -3.93656e-21)
(0.911022 0.0608348 -7.99749e-23)
(0.61278 -0.0461982 -8.31165e-21)
(1.0157 -8.95431e-05 -3.34448e-22)
(1.06298 -0.0333154 0)
(0.412437 -0.00686871 -1.15489e-22)
(1.00961 -0.00193524 -5.4348e-22)
(1.01363 -0.000152572 -4.61296e-21)
(1.0048 -0.116855 -3.41013e-21)
(1.01429 0.00366348 -3.38759e-22)
(0.362438 -0.00420596 -9.6898e-21)
(0.906432 -0.0635505 1.41016e-20)
(1.00108 4.33512e-05 -1.24595e-22)
(1.01386 -0.00344275 -1.30874e-21)
(1.01505 -0.122774 6.62989e-22)
(1.03316 0.0326946 3.61383e-22)
(1.01335 -0.00349903 -1.13039e-21)
(1.06902 -0.0221126 0)
(1.00504 -0.0133898 0)
(1.01118 -0.000916564 3.9658e-22)
(1.00502 0.00927173 -5.24409e-22)
(1.01089 -0.00866511 -2.14021e-23)
(1.01357 -0.00384145 -1.18481e-21)
(1.01439 -0.00365867 0)
(1.01216 -0.0182407 0)
(1.01977 -0.0254246 0)
(0.97676 -0.0815425 0)
(1.02306 -0.0312621 -5.1184e-22)
(0.0124732 0.0109044 -2.51228e-20)
(0.928813 0.0879398 2.37539e-22)
(-0.0143414 0.0347827 -8.0632e-21)
(1.027 -0.0174248 -3.19471e-21)
(1.02424 -0.0237006 0)
(1.00666 -0.0119489 3.43618e-22)
(1.00705 -0.00637999 0)
(1.01002 -0.000564203 2.10776e-22)
(0.975851 -0.0957126 -2.73829e-22)
(0.998218 0.0698524 -1.23087e-22)
(1.07307 -0.0647004 0)
(1.01318 -0.000616309 5.09813e-24)
(0.375864 -0.0075709 0)
(1.04507 -0.0461984 8.65543e-21)
(1.01677 0.00493462 -4.61434e-22)
(0.853902 -0.0488831 0)
(0.861294 -0.0663473 0)
(0.412196 -0.00778807 4.2672e-21)
(1.01459 -0.00385394 0)
(1.01328 -0.00206793 1.55333e-22)
(0.465866 -0.0358062 5.98398e-21)
(0.621242 0.126882 2.26016e-22)
(0.106111 -0.0773567 5.70402e-21)
(0.389517 -0.00635857 2.20303e-21)
(1.01027 -0.00219663 -7.20492e-24)
(1.01308 -5.72818e-05 2.35412e-22)
(0.330818 0.00363555 -1.02898e-21)
(0.649738 0.0714634 0)
(1.01184 -0.00380435 0)
(1.05596 -0.0627418 6.25103e-21)
(1.0727 -0.0579155 -9.49813e-21)
(0.437321 0.00537459 0)
(0.350643 0.00462353 0)
(0.96848 -0.063938 3.95461e-21)
(0.616542 -0.0625218 -3.82191e-21)
(1.01018 -0.00162113 -6.72618e-23)
(1.06335 -0.0544736 -3.92982e-23)
(1.04048 -0.0371336 2.35869e-21)
(1.00408 -0.000105711 -5.61313e-23)
(1.00869 -0.00142769 1.5449e-22)
(1.01119 -0.00105257 0)
(-0.0390563 -0.044084 1.09059e-20)
(1.00837 0.000472814 0)
(0.903868 -0.151154 2.2941e-22)
(1.04752 -0.0243955 0)
(0.584042 -0.0383197 -3.71807e-22)
(0.953635 0.0547618 -1.43559e-22)
(0.421531 -0.00901657 0)
(1.00703 0.000300543 -1.28539e-24)
(0.360134 0.202873 -4.11915e-21)
(0.31423 -0.0105945 -1.30439e-20)
(1.05393 -0.073433 2.60388e-21)
(1.02557 -0.0208519 0)
(1.06655 -0.0603765 2.31695e-21)
(0.49361 -0.0267962 -6.49341e-21)
(1.01299 -0.00249153 2.58111e-22)
(1.06705 -0.0533179 -6.64974e-21)
(1.01991 -0.00728199 1.42082e-21)
(1.02253 -0.00676238 0)
(1.00435 0.00376751 1.28996e-23)
(1.01887 -0.000574345 0)
(0.973876 0.0562721 -1.40846e-22)
(1.01359 -0.000607773 0)
(0.459821 -0.176514 8.51857e-23)
(1.01106 -0.000944656 -2.27102e-22)
(0.578907 -0.0385551 0)
(1.00929 -0.00136219 0)
(0.836482 0.0291645 3.52963e-21)
(1.02311 -0.0067636 2.36248e-22)
(1.0289 -0.0143993 -1.18987e-21)
(1.01901 -0.0469482 -5.11269e-22)
(0.755017 0.112102 -8.43433e-22)
(1.01061 -0.0167263 0)
(1.01298 0.00942856 3.96092e-22)
(0.878688 0.00961516 -8.38995e-22)
(0.825849 -0.0588923 0)
(0.992555 0.0172062 -1.18852e-21)
(1.01282 -0.00449443 1.06251e-21)
(0.34074 0.00482274 2.90302e-22)
(0.482568 -0.0354587 -1.17636e-20)
(1.06722 -0.0567041 -8.06966e-21)
(1.05509 -0.0350248 5.5853e-21)
(1.01894 -0.000562597 0)
(1.02863 -0.0145019 1.67785e-21)
(0.482882 -0.0422283 -1.56365e-22)
(1.01017 -0.00159229 1.54956e-22)
(0.831016 -0.0673644 0)
(1.03643 -0.00359744 0)
(1.06613 -0.0556083 -1.36338e-20)
(-0.0744831 -0.0969109 3.7154e-20)
(1.0207 -0.0253747 -3.80603e-22)
(0.847788 -0.0605023 0)
(1.00757 -0.000402128 -8.64684e-23)
(0.877785 -0.0159779 1.34581e-21)
(-0.0251251 0.0246578 0)
(1.05203 -0.0547522 -7.43152e-21)
(0.944315 -0.0855623 9.45115e-23)
(1.00997 -0.000546082 1.22063e-22)
(1.00266 2.36848e-05 -1.77039e-22)
(1.0658 -0.054702 9.86344e-21)
(1.02882 -0.039437 -2.54044e-21)
(0.574718 -0.0375599 0)
(0.917234 0.0804522 1.11439e-21)
(1.00134 -2.38627e-05 -8.02943e-24)
(0.423289 -0.0098912 0)
(1.00728 -0.000572809 -7.12462e-23)
(1.00188 2.25207e-05 -1.84779e-22)
(0.222806 -0.00144525 0)
(1.00409 4.13212e-05 0)
(1.031 -0.0025088 6.78016e-21)
(0.816514 -0.110135 1.0413e-20)
(1.02837 -0.040599 0)
(0.149273 0.100351 3.91405e-21)
(1.01048 -0.00054492 0)
(0.513773 -0.0752629 -1.10081e-20)
(1.07446 -0.0406698 4.95198e-22)
(1.01066 -0.00126718 1.10196e-22)
(1.00656 -0.000342316 -4.23492e-24)
(0.936987 -0.065135 4.39753e-22)
(1.02209 -0.0105672 7.20467e-22)
(1.00906 -0.00170414 3.13653e-22)
(1.0074 -0.000421532 -1.4296e-22)
(0.843807 0.136661 -7.86088e-23)
(1.01422 -0.00364508 -1.22667e-21)
(0.991394 -0.0642958 3.63724e-21)
(1.01188 -9.13759e-05 0)
(1.01728 -0.000595151 -1.05158e-21)
(0.302749 -0.00526647 9.72237e-21)
(0.874996 -0.154645 8.2382e-22)
(1.00911 -0.00171549 -2.74063e-22)
(1.03101 -0.0652162 1.43703e-20)
(-0.0991401 -0.0832633 9.34829e-21)
(0.37013 -0.00447171 2.43039e-23)
(1.02362 -0.010853 8.44977e-22)
(1.01501 -0.00423548 1.8833e-21)
(-0.00877308 0.0493941 -2.32203e-20)
(1.07093 -0.0224963 0)
(0.880993 -0.0515668 1.61937e-21)
(1.00677 0.000258545 7.07765e-23)
(1.02494 -0.0150294 -1.93868e-21)
(1.00653 -0.000346886 -3.11136e-23)
(1.0156 0.0023194 -7.17568e-23)
(1.02285 -0.010903 1.51326e-21)
(1.01415 -0.000179597 0)
(1.03988 -0.0323645 3.78223e-21)
(1.01582 -0.00399557 4.01869e-24)
(1.00901 -0.00132471 -4.44541e-23)
(1.00564 1.61835e-05 -1.79789e-22)
(1.00485 0.0220971 0)
(1.01407 -0.0665325 0)
(0.412349 -0.0220066 1.58713e-21)
(1.06094 -0.0578619 -2.03718e-23)
(-0.0804397 -0.0959168 -1.63826e-20)
(-0.0276773 -0.0562052 9.52775e-22)
(0.33362 0.00242889 -3.31248e-22)
(1.01522 -0.00436626 -1.16474e-21)
(0.94757 -0.0760627 0)
(1.00528 -0.0179475 -7.6615e-23)
(1.07511 -0.10833 0)
(1.0303 -0.00283108 -3.07905e-21)
(0.626739 0.0737499 9.23991e-22)
(1.03632 -0.0039929 0)
(1.01023 -0.00169271 -1.3437e-22)
(1.00735 0.000327977 0)
(0.930749 -0.0628378 -1.81592e-20)
(1.01578 -0.000316384 0)
(1.00928 0.000415148 0)
(1.06831 -0.0331077 7.59659e-21)
(0.998709 0.0236617 8.46261e-22)
(1.07889 0.0178614 -1.99358e-22)
(1.07932 -0.0659302 -5.44879e-21)
(0.418934 0.00953831 1.68307e-20)
(0.590688 -0.0391949 0)
(1.01986 -0.0134974 0)
(-0.0875655 -0.0614249 2.35471e-20)
(0.359993 0.19253 -9.29818e-21)
(0.343741 -0.0139063 -1.54904e-20)
(1.00619 1.7385e-06 1.76195e-22)
(1.04068 -0.00687207 -8.3397e-21)
(0.951176 -0.0896609 5.96216e-21)
(1.00773 -0.000424369 1.2821e-22)
(0.884603 -0.154673 4.53902e-22)
(1.08157 -0.0584041 0)
(1.00218 -4.77921e-05 0)
(0.97889 0.0688166 -2.13013e-22)
(1.0233 -0.0708398 -2.29178e-21)
(1.05672 -0.0237736 2.22031e-21)
(1.03584 -0.0308757 1.61056e-21)
(1.00857 -0.0013214 -1.12426e-23)
(1.0129 -0.00244096 0)
(1.0189 -0.011887 -8.39029e-22)
(1.01812 -0.000892407 -1.211e-21)
(1.00628 -5.87016e-06 0)
(1.00376 2.83955e-05 -2.6301e-23)
(1.01169 -0.00366735 0)
(0.650137 -0.138465 2.69194e-22)
(1.02965 -0.00321735 -2.83679e-21)
(0.323451 0.00442981 0)
(1.0246 -0.0148743 -1.65866e-21)
(1.03658 -0.0314581 -1.81906e-21)
(1.00789 -0.0195268 -1.47562e-22)
(1.01217 -0.000994712 2.99227e-22)
(1.01558 -0.00120712 0)
(1.05774 -0.123867 -1.53812e-21)
(0.987691 0.0660312 2.09355e-22)
(1.01866 -0.000641669 -1.217e-21)
(1.01039 -0.00191526 0)
(1.01397 -0.000777784 0)
(1.01622 0.00281087 1.48921e-24)
(1.06224 -0.0623795 -2.77602e-21)
(1.01841 -0.00646697 5.35624e-22)
(1.02732 -0.00102862 4.05845e-22)
(1.01087 0.00633298 -8.35298e-22)
(1.00851 -0.00130883 -4.74708e-22)
(-0.0803583 0.100232 -3.46345e-20)
(0.702637 -0.0326192 1.87167e-21)
(0.426351 0.003858 0)
(1.01337 -0.00505405 4.76873e-23)
(-0.0174646 0.0275783 7.8417e-21)
(0.875282 -0.0351522 0)
(1.02252 -0.0320357 1.52955e-21)
(1.00196 -9.1355e-07 0)
(0.977525 -0.0083537 -2.17649e-21)
(1.01351 -0.00517606 -1.47176e-23)
(0.600567 -0.0441512 0)
(1.01679 -0.0186206 0)
(1.04726 -0.0357497 1.91835e-21)
(1.06919 -0.0329457 -1.62191e-20)
(1.02915 -0.00322291 2.73224e-21)
(1.03788 -0.00840663 -2.63527e-21)
(1.01763 -0.00347891 2.31958e-21)
(1.08698 -0.0525479 7.50139e-21)
(0.888361 -0.0617099 -1.05732e-20)
(0.543823 0.125218 0)
(1.01653 0.00467341 0)
(1.00734 0.000324292 -2.36305e-23)
(1.01271 -0.00272665 2.17609e-22)
(0.585952 -0.0431486 0)
(0.387369 0.00414239 1.79053e-20)
(1.03391 -0.00492477 -4.25424e-23)
(-0.0295149 0.0701048 -5.89358e-21)
(1.00874 -0.00112867 0)
(0.956681 -0.198516 0)
(1.08227 -0.0593899 8.6378e-21)
(0.931435 0.0462553 4.45411e-21)
(1.04923 -0.0145248 -4.87144e-21)
(1.04573 -0.0427033 0)
(-0.0464915 -0.0518416 0)
(1.00289 2.04683e-05 -1.31843e-22)
(1.08116 -0.0470858 -2.9685e-22)
(0.200795 -0.0630104 0)
(1.00686 0.000286639 0)
(1.08633 -0.0527734 1.71839e-20)
(0.333251 0.00527525 0)
(1.01195 -0.00127386 1.64485e-22)
(1.04717 -0.0230281 -4.66897e-21)
(0.572522 -0.0599549 4.72981e-21)
(1.09679 -0.0650769 6.2304e-21)
(1.02615 -0.0162597 -1.9172e-21)
(1.00693 -8.38778e-05 -3.93708e-22)
(0.1847 0.182336 2.88135e-21)
(0.517147 -0.0304773 9.54298e-21)
(1.06583 0.0254041 0)
(1.07347 -0.0541148 -1.20261e-20)
(1.05971 -0.020259 1.1483e-20)
(1.01047 -0.00232842 -7.11845e-22)
(0.941753 -0.104379 -1.48064e-21)
(1.01045 -0.00232631 -1.69149e-24)
(1.00966 -0.000654859 -7.7529e-22)
(1.01191 -0.00121747 1.88267e-24)
(1.00648 -2.79658e-05 -2.31827e-23)
(1.01155 -0.00172391 -6.0046e-23)
(1.01739 -0.0119491 -1.48998e-22)
(0.91428 -0.110828 1.51166e-21)
(1.01659 -0.000384763 0)
(1.03693 0.0257824 -4.18961e-22)
(1.02257 -0.00567812 3.21852e-21)
(0.650969 -0.0580525 0)
(1.01193 -0.000963384 4.61435e-22)
(0.30121 -0.00821497 4.6859e-21)
(1.00313 3.50149e-05 1.66269e-22)
(0.95645 -0.193103 0)
(1.02257 -0.0105416 -7.35835e-22)
(0.479493 -0.0241055 7.07826e-21)
(1.06908 -0.0210586 -5.48946e-21)
(0.594385 -0.0554637 -1.13518e-20)
(1.07218 -0.0658761 -7.11243e-21)
(0.278653 0.00279397 0)
(1.06669 -0.0568877 -9.39356e-21)
(1.01427 0.00557843 5.45063e-24)
(1.06054 -0.0546313 7.22249e-21)
(0.504423 -0.0788046 1.57875e-20)
(1.02469 -0.00230985 -2.29598e-21)
(0.184721 0.175808 3.88753e-21)
(1.00653 -5.9935e-05 -4.74099e-23)
(1.05007 -0.0143758 9.55535e-21)
(0.963458 -0.0828809 -1.73377e-21)
(1.03164 -0.00602912 0)
(1.01919 -0.00716431 1.26207e-21)
(1.05199 -0.0345537 -3.82045e-21)
(1.01904 -0.000681041 0)
(0.648227 -0.0977138 0)
(1.007 0.000309056 -1.6628e-22)
(1.00173 2.60876e-05 -3.50544e-24)
(1.06809 -0.0194238 0)
(1.05533 -0.0551889 0)
(1.01268 -0.00267384 1.00919e-22)
(1.02068 -0.0322835 -1.35577e-21)
(1.04784 -0.0235687 2.45538e-21)
(0.758377 -0.0564592 0)
(0.496198 -0.0212066 0)
(1.00591 2.99721e-06 0)
(1.01352 -0.00340157 0)
(0.628124 0.108552 -4.61008e-23)
(1.06918 -0.0597056 7.32862e-21)
(1.01165 -0.00178476 0)
(1.06789 -0.0224221 -1.1815e-20)
(1.02245 -0.00605469 3.00173e-21)
(0.40866 0.0577223 -1.05311e-20)
(0.259557 0.000573336 0)
(1.03974 -0.0314641 -3.70754e-21)
(1.02575 -0.0120941 3.92835e-21)
(1.0068 -7.49939e-05 -1.15034e-22)
(1.0174 -0.0117099 -5.00674e-22)
(-0.0440211 -0.116085 1.37172e-21)
(1.01854 -0.00561316 -1.89746e-21)
(1.01726 0.00643387 -4.31702e-23)
(1.02568 -0.022147 0)
(1.00424 7.2139e-05 0)
(1.01377 -0.000509528 -1.69421e-22)
(0.440233 -0.00919867 -1.00251e-20)
(0.185519 -0.0749109 -8.84089e-21)
(1.01322 -0.00361843 5.84012e-22)
(1.03384 -0.00522464 -3.67925e-21)
(0.89006 -0.064774 -3.7419e-21)
(0.423856 0.00428049 -1.31361e-20)
(0.887787 0.0136868 1.63319e-21)
(1.07201 -0.0580031 5.21692e-21)
(1.01843 -0.00661489 -1.46824e-21)
(0.451752 -0.0391655 6.22641e-24)
(1.01723 -0.0142736 7.21352e-22)
(-0.0174538 0.0770574 0)
(1.01197 -0.00385819 2.72896e-22)
(1.08262 -0.0378187 0)
(1.03804 -0.0528682 0)
(1.01743 -0.0179295 5.9045e-23)
(1.0148 -0.0052653 3.17013e-22)
(-0.0172672 -0.0714222 -1.52307e-20)
(0.433788 0.00506934 1.06338e-20)
(1.02242 -0.000704112 1.04598e-22)
(1.01401 -0.000247831 0)
(0.89348 0.0842421 -5.06756e-22)
(1.08131 -0.0388569 -5.39106e-21)
(1.01449 0.00170501 0)
(1.01833 -0.00562832 6.58337e-22)
(0.923103 0.0366084 1.92638e-21)
(1.02281 -0.0189078 0)
(1.07884 -0.0595999 0)
(0.515761 -0.0654657 -1.41864e-20)
(1.02579 -0.0161402 -1.85388e-21)
(0.91972 -0.0644949 3.54347e-21)
(0.605 0.15195 6.08521e-22)
(-0.0149036 0.168798 0)
(0.996974 0.0585106 5.61829e-21)
(0.969818 0.0631966 -3.71962e-21)
(1.01305 -0.00244319 0)
(1.03111 -0.00595974 0)
(1.01304 -0.000988108 -5.88436e-22)
(0.376472 0.0039933 -1.08591e-20)
(0.833533 -0.0648569 -3.33378e-21)
(1.00622 8.95766e-08 8.50082e-23)
(0.429909 0.130295 -1.64231e-20)
(1.00269 7.80325e-05 1.63952e-22)
(1.04424 -0.00739134 -2.37168e-21)
(1.07941 0.0145377 -5.5326e-22)
(1.00863 0.000400307 0)
(1.06886 -0.0592224 -1.2175e-21)
(1.0062 -1.97124e-06 1.15513e-22)
(-0.0213488 -0.0653893 -9.68822e-23)
(1.01648 0.00577703 4.93043e-22)
(1.00948 -0.0014071 0)
(1.01174 -0.000974667 -7.02893e-23)
(0.350472 -0.00595463 -9.04818e-21)
(0.0200814 -0.121793 -1.32113e-20)
(1.01342 0.00630498 -3.68656e-22)
(0.00155982 -0.132043 1.29963e-20)
(0.183704 -0.0727041 0)
(0.500687 -0.0499887 0)
(1.07307 -0.0534967 -8.63255e-21)
(1.04889 -0.0251788 5.86511e-21)
(1.00845 0.000386795 0)
(1.0232 -0.00258338 -1.23026e-21)
(1.01498 -0.00145624 0)
(1.08431 -0.0699051 0)
(0.00483105 -0.139013 0)
(1.01371 -0.00358659 -1.19884e-21)
(1.01802 0.00126381 0)
(1.03701 -0.015791 -2.74513e-23)
(0.210648 0.0156002 1.25129e-21)
(0.700775 0.193606 -1.19715e-21)
(0.433487 -0.00772641 9.52977e-21)
(1.0226 -0.00634094 -7.37556e-22)
(1.0645 -0.0499639 9.96863e-21)
(1.03568 -0.0272753 2.77388e-21)
(1.00315 6.2684e-05 0)
(1.01428 -0.000857203 0)
(0.60941 0.122779 -7.96086e-22)
(0.415876 -0.0192102 1.59369e-21)
(0.56688 -0.0382872 0)
(1.04145 -0.0340906 5.24934e-21)
(1.08385 -0.0521774 5.34606e-21)
(0.525225 -0.0345508 1.07989e-20)
(1.01891 -0.0148744 -1.34283e-22)
(-0.000845974 -0.13877 0)
(1.00874 -0.000849583 0)
(1.00624 -0.000162317 3.3974e-24)
(1.02442 -0.0219565 3.30021e-23)
(1.01221 -0.000187668 0)
(1.08115 -0.039472 -5.8555e-23)
(-0.00754597 0.0220162 1.76659e-20)
(1.06689 -0.0489845 -5.63977e-21)
(1.03762 -0.0148466 5.86473e-21)
(1.06384 -0.0489494 9.97324e-21)
(1.09074 -0.0657208 0)
(1.00186 4.2791e-06 -7.42206e-23)
(1.00867 -0.000818398 0)
(1.01048 -0.00226798 6.35943e-22)
(0.889634 -0.153787 -5.18662e-21)
(1.00117 -1.14159e-05 0)
(0.40868 0.151197 -2.04366e-21)
(1.01263 0.00115267 0)
(0.44429 -0.0330251 0)
(1.07162 -0.0574456 4.92476e-21)
(1.01343 -0.0050535 0)
(1.01296 -0.00457861 3.93922e-22)
(0.679595 -0.0589243 0)
(1.03195 -0.0245089 4.68379e-22)
(1.04723 -0.0660394 0)
(1.01982 -0.000472722 -1.53568e-21)
(1.01433 -1.03743e-05 0)
(1.01177 -0.0153541 -2.08808e-22)
(1.01823 0.00754178 1.54238e-22)
(-0.0157276 -0.0166145 4.32219e-21)
(1.01271 -0.000257831 -2.6717e-22)
(1.02293 -0.00252963 4.96042e-22)
(1.03734 -0.00858131 -1.32085e-21)
(1.00949 -0.0160551 3.90444e-22)
(1.00189 2.41422e-05 -7.98532e-23)
(0.0573113 0.162561 3.90441e-21)
(1.0028 4.34947e-05 1.29788e-22)
(1.01261 -0.000258028 -3.92671e-22)
(1.01617 -0.00802938 -4.57418e-22)
(0.428192 0.004635 -1.18836e-20)
(0.863142 -0.0516237 0)
(1.07057 -0.113078 0)
(1.05315 -0.0235606 2.18001e-21)
(0.528461 -0.172709 1.37929e-21)