/*--------------------------------*- C++ -*----------------------------------*\
| =========                 |                                                 |
| \\      /  F ield         | OpenFOAM: The Open Source CFD Toolbox           |
|  \\    /   O peration     | Version:  v2012                                 |
|   \\  /    A nd           | Website:  www.openfoam.com                      |
|    \\/     M anipulation  |                                                 |
\*---------------------------------------------------------------------------*/
FoamFile
{
    version     2.0;
    format      ascii;
    class       volScalarField;
    location    "200";
    object      ddt0(omega);
}
// * * * * * * * * * * * * * * * * * * * * * * * * * * * * * * * * * * * * * //

dimensions      [0 0 -2 0 0 0 0];


internalField   nonuniform List<scalar> 
53008
(
-0.0105551
-0.000147197
-0.0245754
7.77515e-07
-0.00372625
4.71604e-07
3.12523e-06
-4.57275e-07
-0.0003656
-2.00294e-06
3.63669e-07
0.0015752
-4.37809e-06
0.287943
0.0576056
1.12819
-7.34368e-07
-0.367964
0.000103333
2.3807e-06
-1.70598e-05
0.0560457
-1.40836
-0.677374
-1.91639e-06
5.53413e-06
-0.303557
-1.07405e-05
0.166851
8.06442e-07
0.00021868
2.3196e-06
0.75256
-0.00154016
-5.42151e-07
-5.32971e-07
3.3165e-06
-0.0231732
-7.89584e-05
0.017127
-0.107032
1.73058
3.21609e-06
-6.82679e-07
3.05229
0.0766891
0.0127532
-0.000376726
-0.0214201
0.0302883
-1.79958e-05
0.045568
4.21011e-06
-1.98829e-05
-0.00143226
0.00294787
-0.766548
0.000124744
4.3082e-06
-1.98896e-07
5.95959e-07
-1.35113e-07
9.81647e-06
-1.8399e-05
4.28689e-06
2.53647
0.139859
0.000579684
-7.84068e-06
9.13738e-07
1.51756e-06
1.70897e-07
-0.00121148
-2.49713e-07
0.000691238
-1.18647e-05
-4.6609e-07
-1.29425e-06
1.99486e-05
-3.10551e-06
-1.99798e-06
-2.6945e-06
0.00254951
0.00023091
-6.14036e-07
-2.47116e-05
0.00103906
0.00087006
0.000144314
9.4301e-07
-8.33223e-07
1.3442e-07
6.05853e-06
-6.22014e-07
0.000858414
0.182834
-2.52331e-06
-8.86662e-07
-3.4638e-06
7.37653e-07
5.29886e-07
-3.85863e-07
-1.66199
-1.0423e-05
1.50523e-06
0.0374712
-0.0336548
0.972278
4.59444e-06
0.181837
-0.0048108
0.130049
-0.312387
-1.63669e-06
-1.02632e-05
-4.35904e-07
-0.0269203
-4.97319e-05
0.00105847
0.0998201
-8.19562e-07
3.89936e-06
-0.0215477
-0.00010039
5.38052e-07
1.56546
0.615541
0.00549075
-0.0371669
0.000101747
-7.95639e-07
-8.63224e-07
-0.339025
0.000779521
0.13612
9.161e-07
1.67251e-06
5.88743e-05
0.122585
-1.25028e-06
1.88004
0.136281
-0.00226714
1.17296e-07
3.08406e-07
0.000201375
-0.000872612
-0.000144964
5.22962e-06
-2.0045e-06
-0.0328487
-1.10899e-06
-0.000518088
-0.572347
0.126044
-1.34004e-05
-0.017296
-1.22203
5.02215e-07
4.1955e-06
-4.24773e-06
2.08554e-09
-2.09822e-07
-2.03857e-06
9.61696e-09
-0.283438
-0.00115723
1.30424
-6.18447e-07
-2.01132e-07
-0.000280051
-0.818799
3.56356e-06
0.18069
-1.945e-06
-9.34024e-07
5.41322e-06
-2.3914e-07
-0.00122535
-1.14449e-05
-5.46329e-05
-0.000351247
3.38328e-06
4.32079e-07
0.630107
-1.38034e-06
-3.7286e-08
-0.02833
0.00587601
-0.0356167
-6.37687e-07
-0.229123
0.000554436
0.012875
0.0485892
-6.46392e-07
0.0510303
-0.0131308
-6.25551e-07
1.2928
-1.6555e-06
2.82076
0.001566
-2.85498e-07
0.0063546
-0.00110877
-6.29357e-07
3.90371e-06
-0.0730219
-0.177219
-0.000418169
0.00096281
0.0768611
5.3938e-06
-0.858775
-2.17535e-05
0.331951
0.000920271
0.136373
0.132334
0.00102167
-1.96915e-05
-2.44845e-06
-0.0532487
0.00119121
0.0264008
-0.000111089
0.0682826
-9.61261e-05
-1.00497e-05
2.25704e-06
0.0273839
1.74674e-06
0.856272
1.38314e-06
-0.670438
1.39079e-07
6.3276e-06
0.000416849
-1.81749e-06
-0.00976591
-0.00100702
0.00125851
0.0968733
4.49823e-07
0.107792
-1.51266e-06
3.38246e-07
-1.06326e-05
-3.24232e-05
0.0167011
-0.0344103
0.00112407
-3.9627e-06
1.47526e-06
-4.76572e-07
0.0838002
0.00170359
0.000535238
-0.0298721
0.13314
0.000914439
1.48752e-07
4.1782e-06
-0.0833672
-1.57879e-07
0.125995
0.130803
-1.40603e-05
-0.000363733
0.00115408
3.79645e-06
2.34179e-06
0.00100829
6.02809e-05
-0.00400775
-2.53474e-05
-0.518048
-1.80821e-07
5.15831e-07
-3.18171e-05
-0.0826678
0.0113495
0.0403831
0.00594253
4.5302e-07
-0.000697349
0.132168
0.891133
0.039455
-0.151325
-0.118294
-0.0281549
0.00129547
-2.06602e-06
4.08399e-07
-0.0243389
-4.36801e-06
-0.0283198
-0.109213
0.123379
-1.94033e-06
-1.85499e-06
-2.53163e-06
1.55145
0.00271284
-1.20713e-05
-1.49742e-06
-0.00360808
-0.0305619
-0.0815785
8.74849e-08
-1.26516e-07
2.22561e-06
0.000500417
-8.77197e-07
-3.85043e-06
-0.0289037
0.110244
1.6279e-06
0.000959821
2.26861e-06
0.125061
3.43034e-07
-5.0604e-05
-0.819589
0.110285
9.96651e-08
0.629029
-1.18675e-05
0.0416858
0.0521636
1.55686e-06
-0.000326024
-0.246728
-1.9902e-05
0.0192919
0.000187647
-2.31591e-06
-1.12711e-05
0.000194986
-9.54869e-05
0.0272821
-0.147058
0.0413482
2.57777e-06
0.000322015
-8.07241e-07
4.50536e-06
-0.00214555
-2.11256e-07
-7.78141e-08
-0.154777
-0.739771
-1.72581e-06
-0.253745
-0.00407188
-1.36178
-0.45817
0.001147
-0.0663044
1.97811e-06
-0.371924
6.28565e-07
0.00397203
5.18821e-07
-0.000169987
0.229625
0.459694
-0.00469772
-0.12375
-1.76382e-06
-0.00133771
5.66744e-05
2.84702e-06
0.000672219
-2.26033e-06
0.0882021
-0.0135588
2.89342e-06
-2.43334e-07
6.44262e-07
-1.73082e-06
0.0920287
-1.73033e-05
-5.45314e-07
0.00254593
0.494765
-0.114697
0.350104
-0.0568242
-0.0632058
-0.61891
1.72784e-06
-0.78117
-0.0382747
0.040573
5.39614e-07
1.11034
-3.07001e-06
-1.20379e-05
4.12239e-06
-0.304781
0.183749
1.25942e-06
1.36629e-05
1.77836e-06
-0.00282398
-0.00121504
-2.26323e-07
0.000577958
2.3502e-06
0.9988
-0.024873
0.000554001
-5.78506e-07
-0.0500492
-1.06572e-05
-2.74522e-06
2.85528e-07
-1.95577e-07
-0.00307512
4.09803e-06
8.84731e-07
-0.000183519
-1.83344e-05
-9.94988e-07
0.450055
-0.0012845
-4.78927e-07
0.00937615
-5.71055e-05
4.88814e-05
-0.0013225
-1.90193e-07
-2.339e-06
0.0896071
9.8178e-06
-0.031882
0.223793
0.537368
-0.00550267
-0.000936983
0.878203
-0.0386367
-3.06111e-06
-1.38425e-06
0.000133115
0.163502
1.19398e-06
0.0472134
0.388841
-2.96005e-07
3.88183e-06
0.0162849
0.0246783
0.771722
0.155228
2.0533e-06
0.424078
9.57842e-07
2.80672e-06
2.96549e-06
1.04309e-06
-2.74479e-06
-0.0912607
-0.0359497
0.164688
-0.00126287
1.40413
0.000593425
0.815952
0.00757068
0.809976
9.21075e-07
0.0326284
2.62796e-06
0.0566176
1.03572
0.0462305
1.11496e-07
1.06658
-0.0329704
3.25268e-05
5.61914e-06
-9.07392e-07
0.131874
2.16166e-06
-0.608695
0.044694
2.09945e-06
-5.59431e-07
-0.0101689
1.12124e-06
-0.601496
-1.09448e-06
-2.29016e-08
-1.3055e-05
7.34881e-06
-7.54437e-05
0.247978
-0.00210617
1.34887e-05
-3.1668e-06
0.177595
0.0253139
0.000550675
-1.65657e-06
3.65127e-06
-0.0257484
-0.000402357
-1.65884e-06
-0.00965274
1.0891
-2.732e-07
-0.00135235
-0.000880814
-1.5145e-06
-3.59445e-07
4.07961e-06
0.010659
0.614776
-5.15124e-07
0.000324568
-0.0183587
-1.84788e-06
0.133619
-7.43487e-08
0.000134757
8.26501e-06
4.66362e-05
6.55879e-08
0.0215691
-0.252378
1.83261e-08
0.448319
-1.09811e-06
-0.0330279
-7.76407e-05
3.88903e-06
-0.000954619
-1.18694e-07
-2.4619e-06
-6.09026e-07
0.000154264
-1.09797
4.1143e-06
-0.0583308
-0.225612
-0.0123972
-1.01618e-05
-6.42246e-07
-1.59394e-06
-3.79844e-06
6.99859e-07
-0.00105252
-0.228461
-0.0284622
-9.17354e-06
0.295699
-3.94228e-06
-0.0267021
-1.71061e-06
0.121592
-1.54679e-07
-0.0314255
-1.9455e-06
-0.00802927
5.18571e-05
0.120053
-1.28399e-06
1.16362e-05
-2.5998e-05
0.000485646
-3.1392e-05
0.0951058
1.53498e-07
2.39077e-07
-5.84001e-06
-1.10665e-05
-0.0192855
1.06752e-05
0.000124089
1.04632
-0.0320145
8.98378e-06
-0.0702721
0.0211862
-0.06922
-0.0893442
8.19356e-08
0.519866
0.132503
0.34679
4.63166e-07
-0.272016
-1.36717e-07
-3.21618e-07
-0.0123345
-0.167128
0.0204905
-0.117954
-0.101261
-8.44282e-08
-0.000210703
-0.038514
-0.0867805
-0.125095
2.31564e-06
2.58799e-06
-0.000118502
-3.53671e-06
-1.19051e-06
7.8083e-07
7.15267e-06
4.82898e-07
0.00617701
-6.59249e-07
0.0273115
1.94859e-07
-0.00128006
3.88403e-06
0.172805
-0.221209
-0.085018
0.0133056
-1.21415e-06
-2.24695e-05
2.59655e-06
1.62421e-05
1.559e-05
2.23428e-06
1.3104
0.477532
-1.37609e-06
9.14943e-05
0.0434512
-6.83852e-07
-0.0988855
0.702241
-0.0363933
2.35969e-06
0.000323979
2.33148e-06
-1.31127e-06
-0.104369
4.21259e-07
-2.37672e-06
3.99082e-06
-0.00150015
-6.91759e-07
-1.6877e-05
0.0934272
-9.96981e-07
0.00030158
1.16948e-05
5.89569e-06
0.860705
0.0030248
0.654394
-3.77361e-06
-1.23426e-06
4.55017e-06
2.98252e-06
2.87698e-06
-0.20728
6.04086e-05
-0.0218777
-0.075152
-1.46341e-06
1.54061
-0.365265
-2.64196e-08
4.04085e-06
-9.66569e-05
-6.80916e-07
0.0352188
0.000124899
1.31082e-06
0.840129
0.0503121
-0.0297501
-3.38597e-05
2.27027e-05
4.30417e-06
1.13922e-06
0.690496
7.11729e-06
-0.632885
4.20012e-06
-0.108586
0.000670655
3.43661e-06
-6.69929e-07
0.000330656
3.74159e-06
-0.000764358
-4.48329e-06
0.0948354
2.75871e-07
6.99184e-06
-0.0290687
-0.000132922
5.17656e-05
2.74857e-06
-3.7779e-07
6.8168e-05
4.2354e-07
-7.9519e-05
0.0495861
-1.95667e-06
-0.270719
-0.000675759
-8.6569e-06
-1.27082e-06
-0.431316
0.0264801
1.47407e-05
-0.0871464
-0.186925
-2.65093e-05
0.000834813
5.36738e-06
4.06592e-06
5.34579e-06
1.41042
-0.000177887
4.4101e-06
-0.110533
0.000142379
-0.00604561
0.10016
0.0148552
-7.55845e-06
-4.25614e-07
0.00135109
-4.56009e-06
-0.0372648
0.000554114
7.83204e-06
-0.0756931
-3.21465e-07
-0.000730635
0.00109409
8.32591e-07
0.238647
5.81664e-06
3.16169e-07
6.434e-06
-0.0207094
1.59729e-05
-9.17671e-07
-0.000177181
0.0884692
-0.338474
0.00127008
3.32047e-08
4.45825e-05
-0.598013
-1.24322e-05
-1.19845e-05
-0.000175985
0.0017718
0.373994
-0.142463
-5.64692e-07
-0.0280596
-0.282032
0.000547699
-0.000116592
-0.111236
0.00106523
-0.669481
1.75904
-5.44764e-06
2.50132e-05
-0.00305021
0.0316671
3.70514e-07
0.0678556
-0.0335641
-1.49758e-06
-0.489357
-0.000143177
-0.000783291
3.28434e-06
1.87822e-06
4.78109e-07
0.00389163
-0.0703649
0.405762
1.25509
-0.000937394
-0.0289252
1.04804
-2.94811e-07
0.13349
-0.0648013
-0.259537
-0.037879
6.84104e-07
0.501552
3.6627e-07
6.03815e-07
1.74577e-06
0.00616646
-1.37513e-05
-1.37933e-08
-6.96257e-06
9.39231e-07
1.80478e-06
2.68856e-06
-0.000244883
0.0616594
0.000510435
2.30107e-05
-0.0831228
0.233752
3.96891e-06
0.000291089
6.81172e-07
-2.92321e-07
0.352994
-1.79763e-06
0.00050338
-2.56725e-07
0.000578654
-9.40798e-05
-0.0637391
3.45896e-06
-0.0333975
-3.13209e-07
0.0378018
-9.84352e-07
0.898115
1.0198e-06
-0.0195337
0.247306
0.000702027
-0.2398
4.32359e-07
1.2842e-06
-0.113578
1.28818e-06
0.322688
-1.09119e-06
0.0443202
0.00125717
-0.0243887
-0.0251937
0.00072101
-7.49829e-07
1.04204e-06
-0.000441533
0.000246899
-0.0270355
-1.14335
1.15801e-06
-3.66838e-06
0.110197
-1.86059e-06
2.66157e-06
3.02404e-06
-0.0411176
0.00116856
-0.327714
-0.0324462
5.38017e-06
-0.122134
-0.119259
8.76965e-05
0.166685
0.000701019
0.00124144
-7.19558e-07
5.46282e-07
0.350313
-1.46382e-05
-5.09078e-06
-1.17214e-05
-0.20271
1.04791
-3.0105e-06
3.85268e-07
0.736553
4.82294e-06
-4.30772e-07
-3.16642e-06
-0.0136682
-1.34502e-06
0.00325611
-1.02936e-06
2.66678e-06
0.000437229
6.89175e-07
-0.0284424
0.125248
-0.0221074
0.356957
0.570877
0.055355
-3.56171e-06
5.69675e-08
4.63789e-07
-2.37763e-06
-7.22173e-07
-0.000115872
-0.561152
2.14653e-06
-0.0363361
0.00109069
-1.29375e-05
-9.23245e-05
-0.0641459
-9.96114e-06
6.94401e-06
-7.94872e-07
-5.03062e-07
-0.0850423
0.0469394
-0.100173
0.000483822
-1.09239e-06
2.71114e-06
4.64251e-06
-2.7227e-06
-0.0789235
-2.01318e-06
-0.0444709
0.0147103
6.92607e-07
0.790565
-3.00222e-07
3.39936e-06
0.000117489
1.01192e-06
-2.08675e-06
-1.00751
0.174283
2.18295e-05
0.000109996
-0.0274563
0.0852081
0.000215338
0.00111087
1.73205e-06
-0.295409
4.18516e-06
4.75638e-06
1.40101e-06
-0.000908647
1.2647e-06
-2.20477e-06
-1.73462e-06
5.0895e-06
1.89847e-05
-1.68274e-05
3.65228e-06
-1.73988e-06
1.04153e-06
5.78681e-06
1.10646e-06
-2.34153e-06
2.93912e-06
1.34691e-05
0.0441592
0.000236266
-1.39423e-05
-2.69197e-05
2.6873e-07
-1.83178e-06
-0.380171
4.65621e-06
-8.10494e-07
-0.118252
4.93584e-07
-0.104041
-0.163703
0.347687
0.0418678
0.000481545
-0.195553
-2.31208e-06
-1.23588e-07
-3.71064e-07
-0.334253
3.66359e-07
-0.0766407
-0.441473
-0.000352575
0.0523343
0.000329022
2.16663e-06
0.0660444
0.00140316
2.53355e-07
-0.0431027
-0.00953792
0.349093
-1.77115e-06
-0.000160681
1.53793
1.85461e-06
0.0353759
-0.000316375
-0.00357552
1.51041
-1.13853e-06
0.11338
2.67215e-06
0.0312247
4.57585e-06
-0.0372285
-4.74967e-06
4.26613e-06
5.6021e-07
0.176934
0.0453379
2.10359e-06
-3.66907e-06
-1.21935e-05
5.21361e-06
-0.233749
-0.000174187
-2.89224e-06
0.000255207
1.62613e-06
-4.45733e-07
3.30256e-06
-0.000289895
-5.05068e-06
1.41977
0.0432958
0.000664153
2.06751e-06
0.000175836
0.639703
1.55594
-0.0235787
0.376151
-0.0580337
3.54782e-06
-8.99717e-06
-9.83945e-07
0.977208
-1.63808e-05
-0.0210905
9.45723e-08
1.00037e-06
0.00836859
-4.09244e-07
0.79401
0.587673
-0.0812041
0.0867058
-4.65938e-06
-0.000931101
0.119708
0.111592
-0.211778
1.63124e-06
3.03528e-06
6.17823e-06
-4.77264e-06
-1.38479e-05
-3.90094e-07
0.0956963
-0.00354007
0.458972
-0.860221
-0.000256872
-0.00872003
0.00024268
0.0533811
1.14101e-06
-0.0636884
-0.0357733
0.0028041
-0.0203708
-2.47677e-06
-2.22538e-05
1.29409
4.07589e-07
2.00889e-06
-1.84153e-05
7.92094e-06
-1.14972e-07
-0.046475
1.32685
-0.435728
-2.15298e-05
4.53825e-07
-2.1108e-05
0.108979
-1.55434e-06
5.47958e-06
-3.21211e-07
1.37547e-07
1.26188
0.58966
0.0978584
1.82285e-06
6.37448e-05
-0.00162504
-4.68317e-06
1.28251e-06
7.20853e-06
6.76815e-07
-0.237651
-1.15308e-05
2.01702e-06
-1.46348e-07
-0.0458746
4.62712e-05
4.39029e-06
-6.03419e-06
0.0741344
-0.00997814
-0.200379
-0.0299965
0.000464325
1.12052
0.358475
-0.00571744
0.0198147
1.88694e-06
1.92557e-06
4.66278e-06
-4.34304e-07
1.10948e-05
0.0363508
-3.50396e-07
6.12549e-07
0.00108196
9.39829e-07
-0.505983
-0.00805948
-1.56426e-05
0.00360522
0.00321454
0.000515749
-0.102668
0.000879484
1.51402
0.363379
-2.91611e-05
-0.00013087
-6.29641e-06
-0.019006
0.000694086
0.242423
1.99497e-06
3.5983e-06
0.00478398
0.000165933
2.64236e-06
-0.0139093
-5.79949
0.840041
-1.86995e-05
-0.00114047
0.0614823
1.1785
-0.0283409
5.83635e-06
0.0113725
5.49697e-07
0.611016
4.96105e-07
-0.0782547
-0.000790835
0.681242
4.97534e-06
-0.116626
0.17437
0.000438317
-6.12504e-07
0.0310993
-7.17662e-06
-2.37012e-05
-2.42481e-05
7.8675e-08
3.4967e-06
0.032714
-1.02178e-07
-1.58565e-06
0.00159118
1.35558e-06
1.34918e-06
0.182466
-1.94062e-05
-2.70471e-05
-0.00163487
0.000993664
-0.000221837
-0.00162872
0.0174493
-0.00107755
-1.0604
0.0160459
6.11056e-07
-4.71896e-07
0.000813832
1.90242
-0.0561689
-2.59353e-06
0.0731229
-0.000278907
0.000679012
2.32702e-06
5.49034e-06
-0.345922
1.91589e-05
0.695899
-0.126734
0.519133
9.58591e-07
-7.96206e-06
1.64615e-06
1.45133e-06
0.0731511
-9.0874e-06
-8.91494e-07
-1.05173e-05
3.5034e-07
-0.0225756
0.00586658
-3.28477e-06
-1.17948e-05
2.2825e-06
-0.140624
0.0899813
-0.184391
-0.256691
-0.127465
-2.02204e-06
-0.000368938
-1.60319e-06
-1.2233e-06
0.152521
7.9441e-05
0.0446954
1.49379e-06
-1.20018e-06
-3.58719e-08
0.219831
-9.70557e-07
-0.273076
-1.41121e-05
-0.000584302
-0.000352897
6.84616e-07
-0.10165
1.5948e-06
-0.00116763
-8.27915e-07
3.21686e-07
6.41373e-06
0.000242347
-0.119304
-0.0385334
4.93974e-08
1.11843e-06
0.582437
-0.0173388
0.0248378
5.39681e-07
0.120015
-1.81156e-05
0.087038
-2.83352e-06
-0.185313
-0.0128948
-0.0649
-0.803436
0.000226084
0.00074449
-1.98256e-06
2.12671e-07
6.39421e-06
-0.00183649
0.135807
0.000136831
0.699176
1.01363e-06
0.165193
-1.14635e-06
0.134476
-2.32085e-05
9.49712e-06
-0.121349
-4.07069e-06
-2.17569e-05
-0.168802
-0.307375
-9.17538e-06
3.99802e-06
-8.37022e-07
-2.87776e-05
0.0495495
-0.0697702
-3.55743e-06
-0.00707502
0.000655919
4.33281e-07
0.0222765
-3.00529e-05
0.000889725
1.69493
-0.000432417
-3.48898
0.000365809
3.83481e-06
1.48142e-06
-0.554403
-0.00797073
7.02618e-06
0.0826632
-2.36308e-05
2.28127e-06
-1.28896e-05
0.277209
-3.8641e-07
-9.77872e-05
1.15131e-07
-1.77178e-06
-3.06475e-07
-2.30538e-07
1.82704e-05
2.81714e-08
-0.0124345
-0.0152331
0.000937867
2.3197e-05
5.35316e-06
-3.15531e-05
0.112979
3.00299e-06
-0.0216378
1.30294e-05
-6.39967e-06
1.52121
0.0298079
0.000177536
-0.426899
-9.01099e-07
0.000637053
-0.178431
0.000167251
0.16691
0.000227017
0.146364
-2.34895e-06
-1.37794e-06
-0.0722758
-0.00122097
-0.00360579
-0.00889628
-0.120998
0.88592
7.06413e-06
6.19007e-05
-0.00706548
0.0369264
0.206365
4.07174e-06
-1.2542e-06
0.0230548
0.265225
1.4603e-06
1.81025e-07
-0.0794656
-6.3439e-07
-0.0393277
-0.0234335
4.80603e-06
2.44292e-07
0.000391264
-0.0548672
-0.0126447
2.86206e-06
-0.00940788
0.0732152
-0.02262
-1.29377e-06
1.08564e-06
0.000126385
-0.130875
0.189731
-0.785685
-0.138897
0.101933
7.48352e-06
-1.08195e-07
6.88666e-07
3.01133e-06
-0.0860411
0.0406104
0.0232982
1.33521e-06
1.83609e-05
-0.000748181
-1.19211e-05
-0.000443351
-3.17717e-08
-0.233984
-0.000110556
-0.0611417
-2.02939e-06
-0.0397597
-0.0199354
-0.0994025
-0.00504727
-6.78161e-06
-3.2272e-07
0.0746865
8.50753e-06
0.222942
-7.42619e-07
-0.0136425
-6.7353e-07
0.378828
0.00101588
8.83564e-06
1.71679e-05
-7.9272e-06
3.46295e-06
-9.24461e-05
0.000142935
3.2809e-06
3.17433e-06
-3.755e-06
5.93034e-06
-1.37778e-06
3.9275e-07
0.0621261
-0.0160511
-0.10785
-0.13397
0.0652093
0.000200949
-2.2067e-05
-0.159281
8.26827e-07
-0.0806312
1.94455e-06
4.18039e-05
-0.834985
0.669507
1.05362e-06
0.000422219
-0.00263441
0.0571321
0.0421586
0.00232791
1.35005e-06
-2.95632e-05
9.42651e-06
-0.0480608
1.82495e-07
0.36398
-7.96571e-07
-0.199396
1.39811e-06
-0.00108848
0.000612652
2.93224e-06
-1.08798e-05
-0.000257386
-0.650626
0.298213
8.5638e-07
-6.93209e-08
0.0389596
0.0962369
0.166883
-2.53089e-05
1.13785e-06
-0.00138182
-0.00146794
4.42511e-06
2.14599e-08
-9.56623e-08
2.72229e-06
-0.082329
0.000375942
9.50619e-07
-0.000250179
-0.00108941
-1.32941e-05
-1.20804e-05
0.00383257
0.0250397
-2.7427e-06
-3.64043e-05
-1.14476e-07
-7.45637e-07
0.0083935
-0.0225806
-0.00919546
-9.70108e-07
-9.69929e-05
-1.17813e-06
-3.00682e-05
7.2664e-06
-1.70851e-05
-3.88201e-06
1.18309e-06
4.26066e-06
-0.0323932
-0.000106057
0.141413
0.00268141
9.75164e-06
-0.000981336
0.000736413
-0.00117338
0.0614696
2.20206e-06
0.00203771
-0.00914479
-0.00505821
0.000622323
0.0164598
0.117529
2.69386
3.69688e-06
-0.0663086
-7.58318e-06
-0.337285
-0.375181
-5.51671e-07
-0.0459319
-0.0364477
-0.213427
-0.0143209
-0.0188211
2.26177e-06
-1.2804e-05
-1.39954e-05
0.571355
-0.0861863
-6.2047e-05
3.56372e-07
1.75871e-06
2.89458e-06
-2.032e-06
0.703639
-0.09517
-1.06822e-06
1.17081e-06
-2.74095
-1.52454e-06
0.00408919
4.01899e-06
0.580335
-0.0104201
-7.16438e-06
0.00251698
1.90056e-06
-1.59816e-07
0.101936
-0.0707438
0.174257
-6.64935e-07
-0.0169013
-1.91896e-05
-1.89926e-05
4.64196e-06
-1.12107e-06
2.05846e-06
-4.22156e-06
3.11075e-06
-0.182157
-0.19494
-0.117919
-1.64045
0.0436462
5.50725e-07
0.395143
3.98771e-06
1.37208
-1.18251
-0.177135
-0.0228635
5.90209e-07
-9.73716e-07
-4.07344e-06
0.00883202
2.28834e-05
-1.9522e-07
0.00293489
1.48605e-06
2.58079e-07
-0.00105453
1.11066
1.0854e-05
-1.11648e-06
-0.315885
1.1144
1.75449e-06
1.19582e-05
0.000200422
1.05619e-06
0.0681925
-0.00310344
-0.0199847
-0.427861
-2.02479e-06
-0.00802876
-3.44115e-05
0.012955
1.35641e-06
1.05925e-06
1.12164e-06
-1.14874e-05
5.26827e-07
-0.610182
-0.0372496
1.41116e-06
0.0940796
1.96062
-1.50197e-06
-1.43126e-05
-0.977141
0.374488
3.82015e-06
5.62147e-07
3.97468e-05
9.4011e-06
-1.41343e-05
-3.27902e-06
0.0070857
-0.0190316
0.00529399
0.898495
-1.72863e-05
-1.4586e-06
0.0132505
0.0842344
0.00884384
-2.09323e-07
-0.170282
-1.6901e-05
4.57843e-07
0.0851368
-2.05221e-06
1.30431e-06
5.82075e-08
0.000578612
0.644002
0.0442712
-0.0325777
-3.44587e-06
-0.166538
1.42786e-06
-0.724159
1.4573e-06
0.99828
-0.0210371
0.000202199
0.183602
5.95321e-06
2.75961e-07
-0.0184254
-0.00118718
-4.90707e-05
-4.08052e-06
-0.473469
-0.000888241
-0.00252331
-1.07088e-06
1.97747e-06
-0.000313327
-2.17118e-06
0.0408999
-0.168448
-1.04453e-05
-6.54189e-07
3.9511e-05
0.000181795
-2.28822e-06
0.227418
-4.86218e-07
-3.63898e-06
0.0501841
-6.82242e-07
-9.47877e-05
2.54054e-07
-7.95746e-07
-8.68246e-07
1.3137
-0.0298046
-0.00722006
4.68637e-06
-0.0177789
0.0562525
0.0378425
2.21241e-06
-0.00953748
-0.000125061
-1.92736e-06
0.0129156
3.75666e-07
5.05662e-06
1.27248e-06
-1.24602e-06
-0.0811688
2.79031e-06
-1.82184e-06
8.73354e-06
-7.14226e-08
0.0151091
0.196732
-0.00106409
8.13565e-06
0.00883776
3.64432e-07
0.0406217
1.60223e-06
-0.00101924
0.130521
0.0425278
-0.164492
-0.000107766
-0.0137159
-0.674053
-1.92541e-06
-3.003e-06
0.210329
-0.00819161
-0.0766603
-0.000186969
0.0322363
-6.09949e-06
-3.01027e-05
-0.422429
-0.0279739
0.000177153
1.36512
-0.0646802
7.29281e-07
-8.22262e-08
0.332197
-0.43983
-0.000121653
1.55723e-05
3.20177e-06
0.00130122
-0.0870145
-0.0599843
0.022578
0.0351544
0.0385647
0.00132281
8.65109e-06
-0.605858
0.14234
6.21388e-07
-2.68372e-08
-0.00142225
-4.36243e-06
0.152177
2.91369e-06
0.000268483
-1.67581e-05
1.14511e-05
-7.71604e-07
-0.528301
-0.00112973
2.34441
6.74091e-06
0.0787871
-0.000849849
-1.87985e-06
-0.0036133
-2.1577e-07
5.05114e-07
0.434966
3.48595e-06
-0.109635
2.40272e-06
-1.17476e-05
0.000353217
0.093576
8.71347e-06
-0.620064
0.121766
-0.231767
2.22503e-06
8.10095e-06
-0.127018
2.30884e-05
0.0319847
8.42979e-07
-4.56757e-07
-0.0324368
4.07207e-06
-7.61267e-07
7.25262e-06
-2.05038
-1.61619e-05
-0.0250179
-1.70971e-05
-5.3904e-07
-6.85897e-06
3.69728e-06
-0.129132
-0.000153113
-2.93639
-0.0731981
0.377566
-4.19986e-06
-2.14591e-07
-5.65894e-06
0.0040675
1.73178e-06
-0.166259
2.5775e-06
0.000990874
-9.8254e-06
-0.00101354
2.98729e-06
-0.0397813
-0.0538618
-1.55952e-08
0.664671
0.282198
-2.21855e-07
-5.82508e-08
-0.19516
-8.4275e-05
-2.45035e-05
-0.996824
4.02818e-06
-3.7822e-07
-1.33543
0.00369987
-1.03146e-06
0.0305722
-4.03093e-05
-0.0284564
1.00474
-0.0740879
0.000379374
-0.0359722
-0.00010848
2.09033e-06
-0.0742645
-1.93601e-06
1.10958e-06
-1.93049
8.40357e-06
1.02862e-06
-0.000204219
1.09365
-0.0696975
4.33199e-07
-0.000714537
2.82122e-08
1.3968e-06
0.315738
1.57332e-06
-0.00630948
-0.00964668
-0.161761
0.0786112
-0.0119684
0.000639329
-0.000109967
-0.14387
3.2227e-07
0.186828
0.128584
1.10104e-06
1.18291e-06
0.474256
-0.000223742
0.0220961
1.63416e-06
-1.04426e-06
-0.0278787
5.30591e-06
0.129724
4.03069e-06
-0.015628
0.142055
0.000220656
1.24658e-06
-3.37588e-07
1.19057
0.18782
3.91626e-06
2.28246e-06
-1.1962e-05
4.16326e-06
-0.0689279
-1.22823e-05
-0.000339229
4.32736e-06
0.000598994
-2.46067e-07
0.582109
-0.236475
-0.00113882
-0.575024
0.000376943
-4.80958e-07
3.81105e-06
6.56712e-07
-0.190945
-3.99427e-06
-1.60406e-06
-0.116956
-4.84433e-08
-0.584477
3.68068e-07
1.44069e-05
-0.220601
1.13196e-06
-0.22616
5.49923e-06
0.00018225
-4.9723e-06
5.72869e-08
-5.28902e-07
1.15659e-05
5.61806e-06
-0.0303052
-0.0759128
-0.327565
-0.0674527
-2.45838e-07
0.0560416
-4.58691e-07
2.08313e-06
-2.95491e-06
0.984981
0.696228
2.03664e-07
-2.85536e-07
1.32329
1.63634e-06
8.29737e-07
0.062345
-0.250834
-6.51353e-06
2.5487e-06
-0.0383158
-0.572293
-3.30498e-06
-0.473028
-1.29378e-05
4.25433e-06
0.000172703
0.0767504
-1.42081e-05
-2.4756e-06
0.135916
-0.0779949
-0.000182898
-1.70323e-06
-2.41771
-0.000415048
-0.23727
0.0957307
6.132e-06
0.000380387
-1.61786e-06
0.387143
0.411238
-6.17765e-07
0.0466078
0.0465261
-1.23021e-05
4.18669e-06
-0.000201495
-0.61663
0.132321
-1.09228e-06
-0.29989
5.09366e-07
1.82321e-06
0.499483
2.40541e-06
-5.36807e-07
-4.00348e-07
0.00109079
0.000630807
5.33698e-06
-0.00217728
3.91359e-06
-2.94682e-06
0.0576463
-0.00310566
0.000129141
0.459854
-0.00853137
-0.000112413
0.00519836
-0.159503
0.637865
-9.68115e-06
-0.0737766
1.55035e-06
0.185131
-0.0945848
-3.70325e-07
0.0168314
-6.83611e-05
-0.0107468
3.96642e-06
0.000987615
-1.73958
1.71994e-06
0.0436607
1.05317e-08
2.39298e-06
5.20663e-06
-5.62877e-07
-0.0121795
2.46606e-06
2.22996e-06
0.09463
0.731419
-1.84867e-06
0.000137028
-2.76801e-06
-3.24564e-07
0.000589872
-0.0315887
9.15938e-07
0.00191839
1.3418e-06
0.000352979
-7.45175e-05
0.00164659
0.193745
-0.180134
4.41765e-07
-0.0466361
-0.0117904
3.75992e-06
-0.528286
-0.50682
-0.244369
-3.39349e-06
-5.4503e-07
8.34531e-06
2.25391e-06
-0.000152952
0.043937
-0.0646698
8.93503e-07
4.96896e-07
2.66334e-05
-0.0112349
-2.235e-07
-0.0561868
0.580733
-1.14231e-05
-0.0462259
-3.71539e-07
0.0767342
-0.00178295
1.55096e-06
0.220873
0.323773
-0.0311364
-0.0267512
-3.06649e-06
2.86391e-07
0.0568964
4.02427e-07
-1.13357
1.69499e-06
0.000272533
-0.00154043
0.0859803
-6.80812e-06
0.0996962
0.044993
-0.0402798
-0.0288854
-6.73584e-07
0.43583
-0.0438146
-0.0315516
-4.83008e-07
8.6455e-07
4.32664e-07
2.4479e-07
2.59207e-06
-4.08148e-07
-0.00500378
2.48339e-06
-5.74565e-06
0.162954
0.000814534
0.00079854
-0.000487011
4.36524e-06
0.0243593
-1.50488e-05
-9.94584e-08
-0.00198904
0.0600169
1.3609e-05
3.6782e-05
-0.0198236
-0.0266021
0.749529
-1.03525e-05
-0.0766807
0.00763872
-5.6537e-06
0.056836
0.000757128
-0.413508
-8.414e-06
-1.72968e-05
0.45668
0.162071
0.000828921
-0.00365918
0.632982
0.408749
-1.62552e-05
3.6543e-06
7.39708e-07
-0.0446451
0.000535066
-0.085595
3.78428e-06
0.16302
4.8695e-06
0.0269796
7.11951e-07
0.000270541
-0.000669561
-0.0011032
-0.0179822
4.41215e-07
0.0209315
-0.0379664
-0.0266295
-9.87964e-06
-0.000523767
-1.60898e-05
0.0121035
-0.0609624
1.32951e-06
-6.52615e-07
0.215684
0.480256
1.76823
0.402315
-0.0769649
-6.74793e-07
0.00333625
0.157463
-2.38223e-07
-3.29677e-07
-0.000567272
-0.000121426
-0.106768
6.1883e-07
-2.34333e-05
1.56257e-06
-0.813234
-0.0220872
1.74263e-06
-5.67391e-07
4.65185e-07
8.8623e-05
0.000984429
-0.389193
0.00350833
-4.34673e-07
2.50213e-06
-2.61686e-07
-0.0567592
1.79735e-05
-4.79212e-07
0.0106258
0.0296211
-1.10412e-05
-9.07462e-07
-3.82802e-06
1.85441e-06
-0.213709
6.18096e-07
-0.00048537
1.73039e-06
-5.80288e-08
-0.000948796
0.158095
-0.0601876
0.300907
-0.14213
-0.0452138
4.77694e-06
1.59746e-06
-0.00779723
4.8599e-05
-5.19086e-07
0.00126311
0.00111354
2.77989e-07
2.8412e-06
0.141573
-3.35101e-05
6.70337e-07
9.39685e-06
0.0346228
2.20498e-06
0.00348808
5.99599e-06
6.11919e-07
0.00488256
-6.80451e-07
-4.05257e-06
-0.311465
0.000101308
-9.10929e-07
-3.25522e-07
-0.0258352
4.76327e-05
0.0376595
0.027243
-2.40235e-06
3.50216e-07
-0.0542816
-0.0026168
-3.73695e-06
-0.198075
-0.00791286
-3.91514e-05
-0.00098637
-0.0325419
0.568421
0.0231273
8.84201e-07
0.00419296
6.44752e-07
0.00127359
-9.81588e-06
-0.00172246
0.777867
-0.231906
0.000699446
0.0668628
0.424586
0.141754
6.64558e-05
5.72455e-07
0.0334905
0.137825
-8.30857e-06
3.84198e-06
1.04162
2.7777e-07
5.48306e-06
0.0761429
1.09846e-06
1.4681e-05
-5.91578e-06
-0.000546684
-0.00128081
-0.00422842
0.000303618
-4.63517
1.95071e-05
4.68144e-06
-1.48737e-06
-3.88168e-06
1.91706e-06
-0.139077
1.78233e-05
0.000462987
2.71182e-07
3.05109e-05
4.14265e-05
0.337086
0.0025633
4.42864e-07
3.73941e-05
1.75318e-06
-2.48807e-05
7.26103e-07
4.09849e-06
4.7598e-07
-3.74356e-07
0.489262
-1.43896e-06
1.48983e-06
5.78006e-06
0.0198264
3.93703e-06
1.01937e-06
-1.6643
-0.0184737
6.18105e-07
-5.16772e-06
-1.27486e-06
1.26633e-06
0.0342276
0.241913
-0.0585384
9.70314e-06
0.000112507
-3.86002e-06
0.00131269
3.01985e-06
-7.959e-07
-4.85235e-07
-1.30218e-06
-0.0132846
1.24775e-06
-0.00408495
-1.70258e-05
0.718864
5.34206e-06
1.36024
1.554e-06
-3.23227e-07
-0.216356
-1.93253e-06
1.05457e-06
0.000254888
0.00277127
2.1072e-06
5.11085e-06
-0.03296
0.00104716
-0.00402642
-6.62566e-06
0.489903
-7.25339e-06
3.59908e-08
0.000833733
1.1033
0.0838726
1.47335e-05
-0.406178
0.0483013
-1.62897e-06
-1.69632e-05
0.00534372
0.00157445
3.03317e-06
0.000799382
-4.09452e-07
-0.00323907
-0.000470121
4.81679e-06
0.036745
-0.189393
3.03772e-06
0.0559466
0.00065038
-1.39488e-07
-2.96578e-07
-4.0513e-06
5.74458e-06
-3.19456e-06
0.00205386
0.00152862
-1.4093e-06
0.00120801
-0.258208
0.000678023
-0.00786433
2.37956e-06
1.97811e-06
0.00304145
-4.41059e-05
-0.286032
7.5561e-07
8.64468e-06
0.0827275
4.50329e-06
-0.0717256
0.0217814
-0.0563725
0.0208909
-3.30328e-06
-1.02812e-05
2.67454e-07
2.9594e-06
-1.83608e-05
8.19239e-06
1.32494e-06
-0.00113133
1.69289e-06
-0.000513905
-5.2396e-05
-3.05321
9.24863e-06
3.57857e-06
2.84531e-06
0.000693019
-2.34747e-07
-0.379776
0.000709114
-1.37276e-05
0.00067349
-0.21177
-0.0917645
-0.000604412
3.21361e-05
-0.982005
5.79064e-06
-0.0284062
-1.30222e-06
1.0355e-06
-0.802525
-1.05145e-05
-0.0324866
9.9524e-06
0.00140515
4.45118e-05
5.82365e-06
3.39194e-06
0.000138659
3.5442e-06
-0.00705322
8.85025e-07
0.0116527
-0.204341
5.21947e-06
-0.00364008
-0.00268656
0.0001652
0.00022509
-2.0296
-0.490366
-5.03086e-07
-1.34413e-05
-0.0110349
-0.611089
-2.95671e-06
0.995461
0.00210119
0.000569882
1.12837e-05
-9.99978e-06
0.488671
-0.0169786
4.11903e-06
0.196284
0.0550534
0.00192197
-0.0210999
0.00116457
0.485565
-0.0158464
-0.101507
0.000849147
0.0155124
4.51022e-07
2.66705e-06
-0.000177041
1.06248
-2.55448e-08
-2.58753e-05
-3.44397e-07
-3.56212e-06
-2.47032e-07
0.000201204
-1.9992e-06
-0.187359
-0.015063
2.3097e-06
0.0550337
-1.3967e-06
-1.8675e-06
-0.17428
0.000188681
-0.000734217
-0.354432
1.90576e-05
0.000272191
-4.55849e-07
0.000458943
-2.92241e-05
1.29977
0.0579302
-2.81736e-07
2.70184e-06
0.000148869
-4.07746e-07
-2.74372e-06
-0.0957021
-3.01581e-07
0.294334
-0.00159182
-0.086845
-1.43109e-05
0.000485258
3.89392e-07
0.00822226
0.236134
0.00226853
0.000839259
0.0526046
0.0767906
4.82519e-05
0.0223151
0.00469899
9.12286e-05
0.0015828
-5.22769e-07
-0.13097
-0.0787114
-7.7844e-05
0.00914104
2.12179e-06
-0.0745443
0.0018582
-1.03292e-05
-2.39548e-07
-0.358438
-3.04372e-07
1.42081e-05
-0.000571076
1.16834e-06
-1.32848e-06
0.000553827
0.318575
0.37535
9.40595e-06
4.77623e-05
1.62503e-06
-1.70257e-07
-0.000198157
1.63759e-06
-5.65298e-06
6.68563e-06
-1.14081e-07
2.51995e-07
-1.92823e-06
9.05582e-06
6.13902e-06
4.67848e-06
0.00804055
0.0578986
0.0803364
2.06725e-07
0.952143
2.81329e-06
0.00130164
-1.31983e-06
6.52706e-06
-5.89135e-07
-1.20017e-05
1.90918e-06
6.25964e-05
-0.0823417
0.0572149
0.000882464
3.11099e-06
-7.43305e-06
-0.0608085
0.0258339