/*--------------------------------*- C++ -*----------------------------------*\
| =========                 |                                                 |
| \\      /  F ield         | OpenFOAM: The Open Source CFD Toolbox           |
|  \\    /   O peration     | Version:  v2012                                 |
|   \\  /    A nd           | Website:  www.openfoam.com                      |
|    \\/     M anipulation  |                                                 |
\*---------------------------------------------------------------------------*/
FoamFile
{
    version     2.0;
    format      ascii;
    class       surfaceScalarField;
    location    "200";
    object      ddtCorrDdt0(phi);
}
// * * * * * * * * * * * * * * * * * * * * * * * * * * * * * * * * * * * * * //

dimensions      [0 3 -2 0 0 0 0];
oriented        oriented;


internalField   nonuniform List<scalar> 
78975
(
-0.00635067
-0.00224768
0.00859836
-0.00167894
-0.000375689
0.00205462
-9.05407e-05
6.05787e-06
8.4489e-05
1.81904e-05
-2.0595e-05
2.40553e-06
0.00296073
-0.00915072
0.00619
-9.82457e-06
-7.48088e-06
1.73061e-05
2.39369e-05
1.36327e-05
-3.757e-05
-3.07948e-06
-3.89317e-06
6.97268e-06
-0.00135662
0.00132602
3.05853e-05
-1.45556e-07
6.32328e-07
-4.86869e-07
1.5771e-05
-2.26508e-05
6.8798e-06
0.000527116
-0.00120804
0.000680927
-4.24301e-05
-5.91897e-05
0.000101619
-0.00345369
0.000671294
0.00278235
-0.00579972
0.00696745
-0.00116772
0.0135416
0.00674217
-0.0202839
1.25551e-05
-1.70184e-05
4.46323e-06
0.0102056
-0.0237866
0.0135809
0.000113135
-2.27342e-05
-9.04004e-05
4.30523e-05
-2.35301e-05
-1.95214e-05
0.000123956
-0.000240829
0.000116872
0.00401713
-0.00360178
-0.000415274
0.00107902
0.0106007
-0.0116798
0.00358818
0.000193394
-0.00378158
-2.56169e-06
2.41602e-06
-5.95265e-05
0.000297684
-0.000238157
0.0245989
-0.0143933
-9.6206e-05
6.4486e-05
3.172e-05
0.0129349
-0.00516458
-0.00777047
2.08889e-05
-0.000101295
8.1009e-05
2.02863e-05
2.94678e-05
1.35843e-05
0.00369677
-0.00245974
-0.001237
0.00180766
-0.00496937
0.0031617
-1.27934e-05
6.78443e-06
6.00902e-06
-6.46989e-06
-6.32347e-06
-9.07329e-06
1.77011e-05
-8.62775e-06
-0.00852582
0.0134392
-0.00491334
-0.00179582
-0.000218979
0.00201479
-7.55103e-05
-0.000434188
0.000509699
-0.0109764
0.00852837
0.00244811
0.0014855
0.000669537
-0.00215504
-4.02906e-05
7.5044e-05
-9.25544e-06
5.28425e-05
-4.3587e-05
0.00147649
-0.00129852
-0.000177933
0.00413447
-0.000117282
0.000155463
-4.92603e-05
-0.000106202
0.0116084
-0.0086477
0.00618402
-0.0147099
-1.20983e-05
-6.72403e-05
-9.59727e-05
0.000197231
-0.000101258
2.5101e-05
2.73488e-05
-5.24487e-05
2.69423e-05
-1.68122e-05
-1.01304e-05
0.000730196
-0.000851734
0.000121538
-0.000387772
-0.00277999
0.00316776
-0.000591296
6.79608e-05
0.000523338
0.00190413
-0.00672777
0.00482364
-0.000793619
0.000151726
0.000641894
-2.71341e-05
1.13385e-07
2.70211e-05
4.31359e-08
5.00169e-08
-9.31796e-08
1.95665e-05
1.058e-05
-3.01465e-05
-6.18432e-06
-1.94356e-05
2.56198e-05
0.000128509
5.88474e-06
-0.000134393
-0.000191773
9.58014e-05
-2.11552e-05
-5.97873e-06
0.00132267
0.000162828
0.000449509
-0.000264463
-0.000185045
-2.61214e-05
6.6454e-05
-4.03328e-05
8.65275e-05
-6.4455e-05
-2.20732e-05
-2.12313e-05
-1.28646e-05
3.40956e-05
3.10795e-05
-1.83254e-06
-2.92474e-05
1.11226e-05
-1.50078e-05
3.88062e-06
-0.00139593
-0.000735405
0.00213134
1.49838e-05
-3.6167e-06
-1.13678e-05
-3.98078e-06
-4.8881e-05
5.28583e-05
-0.000121689
9.58066e-05
2.58818e-05
-6.20393e-06
3.12446e-06
-1.13374e-05
1.13017e-06
1.02076e-05
0.000234601
-0.000294127
1.13484e-05
-3.27251e-05
2.13766e-05
-4.66376e-06
2.10206e-06
1.56465e-05
2.7537e-05
-4.31835e-05
-6.85603e-05
-0.000522738
-8.75575e-05
-1.37379e-05
-1.72479e-05
3.40117e-06
1.38462e-05
0.000154242
-0.000354519
0.000200274
-0.000251297
0.000177988
7.33079e-05
0.000140312
-0.00010391
-3.64029e-05
-0.000401418
0.00080802
-0.000406602
2.93274e-05
-1.12153e-06
-2.82062e-05
-2.94729e-06
8.35494e-06
-5.4077e-06
-8.63485e-06
3.0805e-05
-2.21701e-05
4.30335e-05
-6.72779e-05
2.42446e-05
-1.26217e-05
-4.62556e-06
5.26987e-05
8.76143e-05
0.00909567
-0.0208438
0.0117482
1.6646e-06
8.61226e-06
-1.02778e-05
-7.03133e-06
4.08403e-06
-0.000121057
7.86273e-05
1.27103e-05
-3.39417e-05
-1.13321e-05
3.08985e-05
-2.38392e-07
2.81501e-07
-0.0131232
0.0142022
-7.15161e-05
-2.46901e-05
3.25823e-07
3.07535e-05
-0.001798
0.000961719
0.000836283
-0.00277467
0.00144839
0.0013263
-0.012066
0.0117231
0.000342884
6.45993e-06
-4.02592e-05
3.37995e-05
-0.0338304
0.0115109
0.0223195
5.90058e-05
-0.000124153
6.51471e-05
6.45537e-05
0.000366706
-0.00043126
0.0189072
-0.00712145
-0.0117857
4.09945e-05
-3.85611e-05
-2.43337e-06
1.82757e-05
0.000433658
-0.00045193
5.92202e-05
-3.81893e-05
-2.10313e-05
0.0287774
-0.0143525
-0.0144249
2.57011e-05
0.000704494
-0.000159541
-9.17566e-05
-0.00758696
0.0166827
-2.12765e-06
1.04929e-05
-8.36535e-06
-6.93123e-05
0.000153648
-8.43366e-05
-0.000249817
-0.000290946
0.000540771
0.00015679
-0.000287727
0.000130937
4.29696e-06
2.27553e-05
-2.70522e-05
0.00304814
-0.00876425
0.00571647
0.027661
0.0316129
-0.0592739
-0.00334725
-0.00125476
0.00460203
0.000112817
-7.35953e-05
-3.92243e-05
8.73906e-05
2.57438e-05
-1.77805e-05
-1.48963e-05
3.26767e-05
6.22732e-06
0.0102798
0.00572912
-0.0160089
-0.000566821
-0.00113809
0.00170491
0.000374379
7.51303e-05
2.81351e-05
1.19247e-06
7.39574e-06
2.03789e-07
-7.6e-06
8.95304e-05
0.00062109
-0.000710621
-0.000371849
0.000436403
1.20928e-05
-2.98732e-05
0.00368924
-0.0035963
-9.29597e-05
-0.000339388
0.000461115
-0.00012173
0.0035592
-0.00446652
0.000907326
-2.6197e-05
1.99852e-05
6.21183e-06
1.118e-05
-3.87577e-06
-7.30418e-06
0.000106688
-2.56787e-05
-0.00164941
-0.00100805
0.00265746
-6.34794e-05
-0.00161547
2.34103e-05
4.85836e-07
-2.38967e-05
1.80956e-05
-2.03626e-05
2.26714e-06
0.000337583
-3.09699e-05
-0.000306615
3.10306e-06
-4.8255e-05
4.51523e-05
-0.000451012
-0.000602926
0.00105394
-0.000291578
0.000773296
-0.000481715
0.00166459
0.00246986
-4.66149e-05
-2.4895e-05
7.1509e-05
0.00433567
0.00580419
-0.0101399
-0.00449366
-0.00127827
0.00577219
-1.65847e-05
6.75878e-06
4.38832e-05
-3.7423e-05
9.1819e-06
-1.51146e-05
5.93281e-06
3.38888e-05
-4.31442e-05
2.2834e-05
-1.33059e-05
-9.5281e-06
2.2737e-05
-1.75871e-05
-5.15022e-06
8.98662e-06
1.38474e-05
0.00319094
0.000397231
0.000739593
-0.000616093
-0.000123502
-0.00165461
-0.00507013
0.00672497
-1.47874e-05
1.05672e-05
4.2203e-06
9.41659e-06
-5.75081e-06
-3.66572e-06
0.00101858
0.000151769
-0.00117035
0.00154226
3.99665e-05
-3.4187e-05
-5.7798e-06
-0.0110362
-0.0126916
0.0237278
-4.58362e-07
-4.20549e-06
-1.55974e-05
2.5189e-05
-9.59228e-06
1.97736e-05
3.6365e-06
3.76729e-05
2.15471e-05
0.000649619
8.99745e-05
-5.8696e-05
-6.29928e-05
0.000359426
-0.000272904
-8.65231e-05
-0.00138415
2.75176e-05
1.41862e-05
5.26106e-06
-1.94472e-05
1.12966e-05
-1.8777e-05
-0.0213628
0.0081901
0.0131726
4.31238e-05
-2.12913e-06
-1.63986e-05
1.02796e-05
6.11905e-06
3.98577e-06
0.000333598
-0.000566952
0.000491442
-4.68625e-05
-0.000146403
0.000193265
3.90546e-06
1.78007e-06
-5.6852e-06
0.00341035
0.00252069
-0.00593104
0.000926252
-0.00180761
0.000881362
-0.00166789
-0.00110678
-6.62408e-05
9.13414e-05
-1.69577e-05
4.33639e-06
-0.00536481
0.0210268
-0.015662
0.00135992
-0.00142062
6.07028e-05
-2.91637e-06
-1.40412e-05
-0.00937371
-0.00638856
0.0157622
-8.14304e-06
-1.8165e-05
2.63082e-05
0.000683456
0.000793056
-0.000433808
0.000868927
-0.00043512
-1.41457e-05
4.9191e-06
9.22511e-06
-0.00423107
0.00465815
-0.00042706
-0.00497815
0.00385754
0.00112062
-7.43476e-08
3.98019e-06
-2.67237e-05
-9.47635e-05
0.000121487
-0.0256611
0.0260222
-0.000361185
-0.00771801
-0.0032584
-0.000583303
0.00160189
0.000172295
-0.000131496
-4.07996e-05
-0.033638
0.0100861
0.0235519
0.000128272
-0.000197584
0.00842878
0.00327678
-0.0117055
0.000257774
-0.000210313
-4.7461e-05
-0.00181263
-0.0016411
0.000163797
-0.000117638
-4.61592e-05
0.000105897
-0.000445285
0.000425955
3.51563e-05
-5.19801e-05
-7.88381e-05
0.000130818
5.28384e-05
0.000204936
-6.44579e-06
8.10992e-06
-0.000360778
0.0006895
-0.000328736
0.000430858
-3.23351e-05
-0.000398523
5.30201e-05
0.000238744
-0.000291766
-9.50493e-05
-0.000213319
0.00030837
-0.00337894
-0.00242078
0.000160926
-0.000255974
1.30589e-05
-2.16183e-05
8.55933e-06
4.21388e-06
-2.74157e-05
2.32018e-05
-0.0215334
0.0161686
-1.79921e-05
2.91895e-05
-1.11975e-05
-0.0197243
0.0473852
5.87201e-05
-4.36887e-05
-1.50325e-05
-0.000513323
0.000124666
0.000388664
2.51638e-05
-5.32802e-06
-1.9836e-05
0.000126925
-0.00264388
0.00210834
0.000535531
-2.95722e-05
-4.62185e-05
7.57907e-05
-0.0045436
0.000421087
0.00412251
-0.00218203
-0.00279611
0.00055439
-0.000121488
-0.000432902
0.0422688
-0.0151906
-0.0270782
-2.32604e-05
3.59704e-05
0.0206042
-0.0493009
0.0286967
-1.05757e-05
-7.61144e-07
6.47192e-06
-2.36602e-05
1.71885e-05
-7.51582e-06
2.05746e-05
-0.000233241
0.000120775
0.000112471
-0.0190312
0.0110309
0.0080003
-0.00914983
0.0183749
-0.00922517
-0.000243737
0.000193378
5.0361e-05
1.20818e-05
-2.89988e-06
1.35038e-05
-1.24617e-06
-1.22581e-05
-3.16084e-06
-3.04313e-06
-0.0255173
-0.00812073
-0.00105484
0.000621033
-8.47882e-05
5.25045e-05
3.22836e-05
0.00011334
-0.000282938
0.000169597
0.000511785
-9.64545e-05
-0.000415332
5.98875e-05
-3.24024e-05
9.14071e-06
1.38042e-05
1.31382e-05
0.00629059
-0.00286263
-1.26478e-05
-1.35494e-05
-0.000316613
0.000463267
-0.000146654
0.000472602
-7.07604e-05
2.41451e-05
-0.00327042
-0.000797821
0.00406824
-0.000555864
0.000653496
-9.76387e-05
0.000172201
4.53544e-05
-0.000217555
6.83372e-06
5.62019e-07
9.96085e-05
-0.000151588
-0.000287572
0.0012053
-0.00091772
0.00119704
0.000162885
0.000536573
-0.000518294
0.000809623
0.000254499
-0.00106406
-1.45821e-05
1.5742e-05
-1.16041e-06
-3.59872e-06
3.5987e-06
-8.83121e-05
-0.000144928
0.0124434
-0.00430218
7.11135e-05
-0.00123005
-0.000567962
0.00365242
0.000645997
-0.00429841
3.09595e-05
-2.03797e-05
-0.00221411
0.00136008
0.000854034
0.000152167
0.000359619
-0.00292465
0.00192502
0.000999632
6.9902e-06
-1.80588e-05
1.10782e-05
-0.00576713
-0.0228113
0.0285785
-0.0304039
0.0464318
-0.0160279
3.47547e-06
0.00010934
-0.00075769
0.000201823
1.53658e-05
7.37116e-06
5.65406e-05
-1.88679e-05
2.3931e-05
-0.000114468
-1.6427e-05
3.88144e-05
-2.23872e-05
0.0120367
-0.00770099
-0.0291661
0.0233989
-0.000430462
0.000113849
-2.25088e-05
2.13548e-07
2.22953e-05
-2.23832e-06
-2.02705e-05
-3.02836e-05
2.21795e-05
8.10479e-06
-0.00400698
0.00402242
-1.53544e-05
-0.000551716
-0.000440042
0.000991751
-8.03372e-05
8.82127e-06
-0.000295804
0.00016698
0.000128825
-0.0014746
0.00503379
0.0001082
-4.98265e-05
-5.83762e-05
-0.0390617
0.0264304
0.0126313
1.45937e-05
-3.47421e-06
1.80124e-05
-3.36099e-05
-3.54328e-05
7.27338e-06
2.81596e-05
-0.00199846
-0.000645413
-5.14675e-06
1.56526e-05
-1.05057e-05
-5.25192e-05
-0.0017433
0.000184911
-0.000231776
0.0107851
-0.018372
0.000143757
-0.000252128
0.000108372
5.46565e-05
1.09495e-05
-1.70546e-05
6.1051e-06
0.00328887
0.000780825
-0.0040697
9.39666e-06
1.03144e-06
-1.04281e-05
-0.000128861
0.000369047
-0.000240186
0.0111124
-0.00268359
-0.000725529
0.00456313
-0.00383759
-2.47881e-05
2.15703e-05
3.21797e-06
-0.0331558
0.0172405
0.0159153
6.13773e-06
-1.81842e-05
1.20464e-05
-0.0168653
0.0422426
-0.0253772
0.016005
-0.00521996
-1.28744e-06
3.21863e-05
-3.08989e-05
0.000184824
0.00112637
-0.0013112
-0.0169883
-0.00162357
0.0186119
-0.000229861
5.43964e-05
0.000175464
-0.000116397
0.000113281
3.11365e-06
3.16659e-05
7.5022e-05
5.15196e-06
-1.15979e-05
1.85639e-05
-1.24264e-05
-3.03245e-05
0.000113258
-8.29343e-05
-0.000150124
0.000306913
-6.24113e-05
4.06612e-05
2.17512e-05
-0.0530961
0.0226923
0.00180368
-0.00166282
-0.000140857
9.30823e-05
3.23943e-05
-0.000125476
7.65985e-05
-7.43738e-05
3.45131e-06
-1.08985e-05
7.44724e-06
1.28914e-05
-1.65187e-05
3.62745e-06
-0.00222547
0.00309003
-0.000864558
-2.78402e-05
2.16563e-05
5.44126e-06
3.97533e-06
0.00071144
0.0160645
-0.016776
6.20288e-05
0.000747623
-8.94914e-06
-1.62584e-06
0.00146414
-0.0184524
0.000148887
0.00033519
-0.000484076
0.00261801
-0.00274887
0.000130856
-0.00315543
-0.00233393
0.00548938
0.000109381
0.000321476
0.0026617
-0.0012133
-2.38524e-05
1.25916e-06
2.25934e-05
0.000140685
-0.00424267
0.004102
-3.04636e-05
8.48851e-06
2.19751e-05
0.000240396
-0.00193273
0.00169233
-9.70478e-06
-2.07588e-05
-0.000739631
0.000832949
-9.33175e-05
0.00750298
0.00543197
0.0141798
-0.00960454
-0.00457533
-0.00296768
-0.00194798
0.00491566
0.00606479
-0.0043594
-0.00170538
3.72689e-05
-5.08925e-05
1.36217e-05
0.00251043
-0.0028982
-0.000467401
0.000556931
1.38363e-05
2.37146e-05
-3.75509e-05
-6.95998e-05
6.5617e-05
-1.78657e-06
6.94033e-06
-7.76028e-05
7.76017e-05
-0.00312753
-0.00141607
2.43917e-05
-2.01777e-05
-1.65648e-06
1.44892e-05
-1.28326e-05
3.08418e-06
-4.31738e-05
4.00897e-05
1.84908e-05
-2.66326e-05
-0.0734009
-0.00293261
0.0763335
-0.000137423
-5.62234e-05
0.000193646
1.53339e-05
-1.21712e-05
-3.16248e-06
0.00162898
-0.00138858
-0.0271221
0.0273039
-0.000181825
0.0215612
-0.00861169
-0.0129496
0.0387311
0.030422
-0.0691531
-0.000194581
0.000615582
-0.00042099
0.00014952
-4.62212e-05
-0.0001033
0.000382794
-0.000208514
-0.000174312
-2.52572e-06
-8.1024e-06
1.06279e-05
-0.00340524
0.00530938
-0.000547964
0.000353391
0.0030677
0.000372968
-0.00344065
2.47812e-05
-2.4388e-05
-3.93383e-07
0.000877816
-0.000126319
-0.000751511
-7.20453e-06
5.20735e-05
-4.48689e-05
3.85183e-06
-8.41887e-05
1.37292e-05
-8.35234e-06
-5.37677e-06
0.0080397
0.0108676
-0.00848054
-0.0649203
-6.04716e-06
6.05516e-06
-7.97603e-09
4.01854e-05
-0.000401043
0.000360857
-2.57903e-05
-9.64245e-06
0.000787928
-0.00106121
0.000273282
-0.00195056
-9.08081e-05
0.00204137
-4.38286e-06
-9.76393e-06
0.000246948
-0.000343827
9.68786e-05
2.85694e-05
-2.60793e-05
-2.49075e-06
0.000213454
0.00460123
-0.00481468
-0.000530665
0.000280856
0.000100302
-4.05793e-05
-5.97238e-05
1.2874e-05
2.45982e-06
-0.0014314
-0.0005438
0.00197521
6.50477e-05
-8.06394e-05
1.55923e-05
1.67203e-05
3.09499e-05
-4.76744e-05
2.23246e-05
-1.48264e-05
1.317e-05
0.0700747
-0.0313436
-1.71469e-05
-2.47214e-06
1.9619e-05
-2.64572e-05
2.78113e-05
-1.3539e-06
-0.000406154
0.00147014
-0.00106399
-0.000284103
0.000155243
-2.08132e-05
2.72611e-05
-6.44707e-06
-0.00510715
0.00154586
0.00356131
-0.000407735
-0.00341242
0.00382015
1.65444e-05
-1.27038e-05
-3.84091e-06
0.0039915
-0.00321112
-0.000780329
0.000841283
-0.000815583
0.000560414
-0.000191368
0.000451594
-0.000163753
-0.000287843
-1.48772e-05
1.04939e-05
5.39886e-05
-0.0152153
0.0110015
0.00421395
-0.000156869
-0.000138936
-0.0177053
0.00855542
0.00246161
-0.00180858
-0.000653021
-0.0170195
-0.0161362
0.00237186
-0.00533954
0.002386
-0.00176804
-0.000617954
0.0021458
0.00155099
0.00247404
-0.00319955
3.19395e-05
-2.05927e-05
0.00052643
3.3984e-05
-0.00042337
-0.000643922
0.00106729
-0.0105327
-0.00468257
-2.86758e-06
-2.46212e-07
3.11379e-06
9.51185e-06
-2.52007e-06
-0.00350499
-0.00160209
-2.61626e-05
3.14277e-05
-5.26505e-06
1.30863e-06
-2.21333e-05
2.08246e-05
0.000389754
0.000324134
0.000335883
-0.000660017
-0.0129644
-0.00839849
-0.00186769
-0.00298146
0.0048492
4.8472e-06
-5.17845e-07
-4.32927e-06
0.000883204
-0.0100403
0.00915697
1.14313e-05
-2.81153e-05
1.66839e-05
-2.23383e-05
-7.90884e-06
3.02474e-05
3.77732e-05
-3.49342e-05
2.41799e-05
1.07545e-05
-1.12904e-05
2.41345e-05
-1.28444e-05
0.00433267
0.00026298
-0.00459565
-0.00117728
-0.016528
-0.0302036
-0.00362681
-0.000982813
0.000431095
-0.0044732
0.00752164
-4.27084e-05
-4.20795e-05
-0.0359138
0.0188942
0.0013109
-0.00337524
-0.00869077
1.67782e-06
-7.49095e-05
6.28098e-05
-2.38019e-05
3.07157e-05
-6.91633e-06
-0.000539175
0.000404843
0.000134331
-0.00291695
0.00165073
0.00126621
-2.50824e-05
-0.000118417
0.000143495
-2.11644e-05
2.54614e-05
-0.000193635
0.00107144
-0.0165261
0.0153488
0.000140862
-0.000410572
0.000269712
9.24613e-05
-0.000153829
6.1367e-05
-2.82805e-05
7.4675e-06
9.85525e-05
0.000327396
3.42079e-05
-3.50928e-05
8.85024e-07
-0.000717742
0.000204402
-0.0187986
0.00750541
0.0112932
5.7279e-07
4.27443e-06
-6.72164e-06
1.01729e-05
-0.00913836
-0.00989286
-3.41191e-06
5.44323e-07
-0.00431929
-0.0088039
-1.17301e-06
1.24788e-05
-1.13058e-05
-1.40583e-05
1.31152e-05
9.417e-07
0.000124435
8.17138e-05
-0.000206149
-5.97312e-05
0.00015219
0.00037685
-1.74246e-05
0.000155463
-0.00217173
-5.37437e-05
0.000206618
-0.000361242
0.000154624
-1.16463e-05
4.25939e-05
0.00381153
-0.000522653
-0.000264721
1.70684e-05
0.000247656
-0.000231146
-0.000146274
0.00037742
2.70035e-05
-5.10788e-06
-2.18959e-05
6.76309e-05
-2.31292e-05
-4.45018e-05
0.000949069
0.0110876
-0.00195813
-0.000255984
6.62756e-06
-6.55431e-06
-7.32029e-08
-2.75728e-05
8.65782e-05
-0.000512324
0.000766854
-6.37921e-07
-1.54934e-05
1.61315e-05
0.000390639
-0.000638064
0.000247422
0.000359195
-0.00184616
0.00148697
-2.80124e-05
1.94133e-05
8.59887e-06
5.45932e-06
-4.91241e-06
-5.46888e-07
-2.19621e-05
-1.63142e-05
3.8276e-05
0.0139738
0.00351499
-0.0174888
-0.0109267
-0.0069852
0.0179118
4.37333e-06
7.76451e-05
-1.04651e-06
-0.000832362
-0.0202176
0.02105
9.01416e-08
-9.03835e-06
0.000541116
-0.000420829
-0.000120296
-8.23134e-06
1.66108e-06
6.57031e-06
-0.000680701
-7.20393e-07
0.000681423
5.84899e-05
-5.07011e-05
-7.78862e-06
-0.00131383
0.00102625
-3.61321e-06
-8.98559e-06
1.25988e-05
-0.0019213
0.00917745
-0.00725606
0.00863445
-0.000324032
-0.00831044
-9.74103e-06
-1.50471e-05
0.00998732
-0.00910415
-1.16323e-05
1.04594e-05
0.00623828
-0.0227644
0.000182215
0.000659068
2.58346e-05
4.17964e-05
0.00415682
-0.00234916
-1.79603e-06
-1.30818e-05
-2.58768e-06
1.75873e-05
-1.49996e-05
4.74573e-06
2.16687e-05
-2.64144e-05
-0.000120136
9.31287e-05
2.70074e-05
0.00333421
-0.00346036
0.000126135
-3.18563e-05
9.89444e-06
0.000339944
-0.000463046
0.000123102
0.000157256
-0.000157253
-9.54394e-05
0.000351403
-0.000255969
7.49694e-05
-9.92136e-06
-2.04556e-05
1.85541e-07
2.02701e-05
1.85272e-06
4.77482e-06
-4.90758e-06
-1.72155e-05
2.21232e-05
-4.86831e-07
-3.11189e-06
0.000556201
0.0018298
-0.030018
0.0314822
-0.000165587
0.000103074
6.25122e-05
-4.3031e-05
6.24654e-06
3.67847e-05
0.0124019
-0.0048988
1.8909e-05
-1.5073e-06
-1.74016e-05
0.0192363
-0.012998
7.11684e-06
1.9887e-05
0.000767763
0.00169385
-8.29906e-07
-7.4014e-06
5.41987e-05
2.14641e-05
-7.56581e-05
-2.46151e-06
1.11254e-05
-8.6639e-06
-0.000229784
0.00024378
-1.39937e-05
9.56504e-05
-2.22629e-05
-7.33873e-05
9.14189e-05
-1.05021e-05
-0.000104047
5.53471e-05
4.87002e-05
0.000116224
-0.000441256
0.000325032
0.000327849
-8.09012e-05
-0.000137991
0.000292233
0.000190633
2.61425e-05
-0.000216775
7.55925e-06
1.56965e-06
-9.12886e-06
-2.73442e-06
-1.2272e-05
3.32402e-05
-7.55115e-05
4.2271e-05
0.00020469
-8.0255e-05
-0.000348314
-0.000165803
0.000514113
0.00031801
-0.000277826
7.16007e-05
-0.0007523
0.00963316
0.00208995
7.81321e-05
3.38954e-05
2.45944e-05
0.000130382
-0.000128326
-2.05782e-06
-0.000478988
-0.000503826
-0.032346
-0.0371185
0.0694645
-0.000274608
0.000354151
-7.95448e-05
2.29021e-05
2.26159e-06
0.0247645
-0.0147189
-0.0100456
0.00044466
0.00364716
-1.24435e-06
-5.50914e-06
6.75351e-06
-0.0156419
0.0123699
0.00327211
-8.27028e-06
-8.12829e-06
7.9106e-06
-1.43804e-05
7.68107e-05
8.55884e-05
-0.000162397
0.000945994
-0.000182486
-0.000763517
-0.000231436
0.00055557
0.0030382
-0.00377804
0.000739842
-0.025277
-0.000384027
1.28633e-05
1.62592e-06
-0.000629328
0.000208475
0.000420852
0.0428607
-0.0102438
-0.0326168
-0.0011943
0.00552698
0.00014274
-0.000417348
0.000299557
-0.000127356
4.76749e-06
0.000367401
-0.000257466
-0.00010994
1.97865e-05
-3.14369e-05
-6.20746e-06
-1.04155e-06
7.24902e-06
-2.43227e-05
2.7051e-05
-2.7281e-06
7.60315e-05
-0.000135764
-2.2789e-06
-1.43063e-05
0.000279582
-3.67572e-05
-0.000242826
-7.51786e-06
-7.26955e-06
-0.00995907
0.00803785
2.24496e-05
-8.79306e-07
-0.000225456
-1.35079e-05
4.43461e-06
0.00560068
-0.00259031
-0.00301048
-0.0366538
0.0066358
4.3642e-05
0.000283796
-0.000327445
-0.0189554
0.0395596
4.55397e-05
-2.44529e-05
-2.10869e-05
-4.61928e-05
-0.000183669
4.37608e-06
-3.81555e-05
3.37796e-05
0.000375464
2.95448e-07
-5.67277e-05
5.64318e-05
1.04189e-06
-2.71213e-05
0.00682959
-0.00848437
0.0198029
0.00496162
1.42249e-05
-3.10346e-05
1.68095e-05
0.000107716
-2.03254e-05
-0.000223783
-4.09382e-05
4.19157e-06
-1.39617e-05
9.77012e-06
0.0228601
0.0235717
0.0162236
-0.00268194
0.000119812
5.67872e-05
-0.0001766
3.98421e-05
-3.54659e-05
-0.00100379
0.00251004
-0.00150627
3.8044e-05
-3.98632e-05
1.81915e-06
1.82602e-05
9.57904e-06
-2.78385e-05
-0.000330962
0.000374594
2.94436e-05
-6.78236e-06
6.47239e-06
3.09974e-07
-2.22422e-05
4.9263e-05
-2.70203e-05
0.000247666
0.000203926
-0.000229861
1.11119e-05
0.000218749
0.000176795
0.00102383
0.00496872
-0.00599249
-1.40548e-05
-1.27823e-05
2.68373e-05
5.62096e-05
2.14352e-05
-1.74799e-05
0.000145989
0.000108169
0.000115098
-0.000223265
0.00382128
-0.00360782
0.000841165
-0.00593967
0.0050985
0.00796706
-0.010884
3.53302e-05
-1.55464e-05
-1.75396e-05
1.65623e-05
9.77517e-07
2.77442e-05
-5.25104e-05
2.47658e-05
1.10378e-05
-3.33759e-05
8.59478e-06
-8.94478e-06
3.50029e-07
0.00147096
0.00119076
-0.000430119
-0.000617906
0.00104803
-0.000147597
0.000260937
0.000523423
-0.00030417
-0.000219254
1.64022e-05
-2.0381e-05
3.97878e-06
-0.00954319
9.40159e-07
-0.000269523
0.000268589
-1.84794e-06
1.99482e-05
-1.81003e-05
1.33782e-05
3.51002e-07
2.22552e-05
-0.000761886
-1.61082e-05
-0.000213753
-0.0168566
0.0036926
0.013164
0.000488285
-0.000911655
5.04992e-06
4.82237e-06
-9.87234e-06
-0.0116519
-0.0242618
-0.000990944
0.00405866
-7.09855e-05
6.81173e-05
2.86851e-06
8.37172e-05
0.000808781
-0.000892498
-3.03013e-05
7.03804e-05
-4.00787e-05
-3.76866e-06
1.50968e-05
-1.14676e-06
-1.39501e-05
0.0117177
-0.00945846
-0.00225926
-1.88672e-05
-7.7958e-06
2.6663e-05
-0.00465931
0.00348222
0.00117703
7.30265e-05
2.00558e-05
-0.00805018
0.00444293
0.00360725
-2.6709e-05
7.52602e-06
1.91834e-05
1.27773e-05
4.92371e-06
-1.20035e-05
1.63776e-05
-4.37401e-06
0.00110454
-3.33142e-05
5.0104e-05
-1.67899e-05
0.00129418
-9.71335e-05
2.28104e-05
-3.92372e-05
0.000259475
-2.04536e-05
-0.000239021
1.54443e-05
-1.15041e-05
-3.93844e-06
3.24004e-05
1.03992e-05
-4.27996e-05
0.000299391
-0.000647707
-0.000244718
-0.000536572
0.000781292
7.01426e-05
2.55078e-05
9.2982e-06
1.29156e-05
-2.22138e-05
1.68284e-05
-1.24543e-05
-4.37466e-06
9.1356e-05
-6.11459e-05
-3.02102e-05
4.52381e-06
-5.49206e-06
9.68151e-07
0.000899428
-0.000717215
0.0111114
0.00512098
-0.0162323
-4.70258e-06
2.27983e-05
0.00347542
-0.0100528
0.00657741
0.00215275
-0.000548741
-0.001604
-2.93083e-05
-0.00011361
0.000142918
3.58147e-05
-2.10027e-05
-1.481e-05
0.000520876
-0.000812448
-2.46429e-05
-0.000129824
0.000154469
0.00023789
0.000280892
-0.00051878
0.000678497
-0.000298612
-0.000379887
-0.00057292
5.74093e-05
-0.000958753
0.00104247
0.0013149
-0.00188172
0.000121422
-2.18431e-05
-9.95782e-05
1.14745e-05
-1.94578e-05
7.98322e-06
1.34919e-05
-7.45325e-06
-6.03861e-06
0.00843187
-2.24984e-05
-0.00840942
-0.00102084
0.00061469
2.64858e-05
-4.27347e-05
1.62488e-05
0.00429515
0.00176964
-0.000781268
0.00037985
-0.0324217
0.0441746
-0.011753
-0.000230404
0.000283423
0.00943231
-0.041854
2.99487e-05
0.000121599
-0.00015155
4.12468e-06
0.000128323
0.000426068
0.000218734
0.000125477
-0.00034421
-0.0290932
0.014454
0.0146392
8.79299e-05
1.23714e-05
0.000129178
-5.31493e-05
-0.000212029
0.000226447
-1.44185e-05
-8.59385e-06
1.42075e-05
-5.61336e-06
-0.000585154
0.0029968
-0.00241165
0.000779853
-0.000807408
2.75524e-05
3.48866e-06
-0.0200796
0.036044
-0.0159644
5.85308e-05
-3.31291e-05
-2.54017e-05
4.68179e-06
-2.25617e-05
1.788e-05
2.22986e-06
4.0832e-05
-4.30619e-05
-5.23339e-05
0.000129147
4.81476e-05
-4.785e-05
4.7535e-07
0.000975108
-0.00104752
7.24108e-05
9.57675e-05
0.000163708
0.00779424
-0.0121135
0.000540422
0.000113072
-4.79067e-06
1.02319e-05
-2.06214e-05
8.51532e-05
-6.45318e-05
0.00670156
-0.00656086
-1.53916e-05
0.000111198
4.63426e-06
-1.26564e-05
8.02226e-06
-0.000130292
0.0011054
-8.17064e-05
0.00171069
0.00609635
0.00630562
0.00269467
-0.00122372
2.4465e-06
1.82785e-05
-8.9271e-05
0.00580358
0.00333668
-0.00914029
0.000164784
-0.000395929
-0.00163899
0.00060267
0.00103632
0.000226456
0.000452045
3.55089e-06
-0.000175316
0.000171765
6.00847e-05
-5.91439e-05
0.00114456
-0.000446475
-0.000698071
8.26506e-05
-3.53835e-05
-4.72672e-05
7.75511e-05
-1.94396e-05
-5.81107e-05
-0.000113412
-2.98325e-06
-0.0239368
-0.0234912
0.0474281
0.000113609
-9.79629e-05
-1.56466e-05
0.000107371
-7.07129e-06
-0.000100283
-7.89459e-05
0.000198757
-2.12226e-06
1.46775e-05
-0.00219807
0.000613085
0.00158498
0.000695667
-0.000940384
0.000384707
4.49077e-05
-3.73804e-05
-7.52676e-06
1.98477e-06
-6.50357e-07
-1.33436e-06
2.24195e-05
2.36163e-06
0.00606901
0.00493258
-0.0104962
0.00890429
0.00159195
0.0030413
-0.0152925
0.0122502
-0.00232291
0.00437059
-0.00204747
0.00113228
-0.0027817
-0.000183334
0.000523279
-0.0100285
0.000654786
4.62944e-06
0.00777804
-0.0188142
4.98435e-05
9.96757e-05
0.0146293
-0.00882574
0.0107219
-0.00465278
-3.06584e-05
2.84892e-06
2.78095e-05
0.00915392
-0.00305749
2.42858e-05
-1.78139e-05
-3.19459e-05
1.35869e-05
4.51337e-05
-0.00896248
-0.00983609
-1.91799e-05
0.000331776
-0.000312593
-5.29169e-06
8.1981e-06
-2.90626e-06
5.67191e-05
2.98082e-05
-3.93239e-06
1.94446e-06
1.98792e-06
5.30036e-05
-3.69731e-05
-1.60307e-05
3.66805e-05
-1.29657e-05
0.000611363
0.000487614
-0.00109898
-0.00116778
-0.00283915
0.000125761
0.000167852
-0.000293616
-0.000268473
0.000270036
-1.56311e-06
-0.0178368
0.0101589
0.00767781
-0.0106521
0.00650983
0.00414213
-2.74277e-05
1.86104e-05
8.81727e-06
7.91587e-05
-2.2949e-05
1.74645e-05
-2.87963e-05
-3.04459e-06
4.34421e-06
-1.29962e-06
-0.00297314
0.0121014
-0.00912627
-5.25897e-06
7.78607e-06
-2.52717e-06
0.00256267
0.00284137
-0.00540404
-4.00426e-07
1.35777e-06
-9.57283e-07
-0.000584678
0.000147268
0.00043741
0.000281646
0.000617781
0.00663177
0.00409019
2.93383e-05
1.0628e-05
2.31956e-05
8.50046e-05
2.52961e-06
0.0020051
0.0125783
-0.0145833
5.77523e-06
-1.98296e-05
0.0127363
-0.00310304
1.6337e-05
-1.24018e-06
0.0208143
0.00796311
-0.0286511
0.00857151
-1.24619e-05
-1.42463e-05
-0.0027794
0.0130592
1.70356e-05
-5.73839e-06
9.77857e-05
1.58233e-05
-0.0162015
3.64748e-05
-3.33906e-05
-0.0195243
0.0226667
-0.00314241
1.46036e-05
2.12117e-05
-5.34748e-05
-0.000485696
-9.28775e-05
0.0006333
0.000101782
-0.000125856
2.40728e-05
-0.00366688
0.000455754
0.000968966
0.000325214
-2.97621e-05
1.79282e-05
1.18339e-05
1.01968e-05
-2.50946e-05
1.48978e-05
0.000512196
-0.000963207
0.000180526
-0.0010785
0.00089799
-5.1869e-05
0.000153651
0.000546012
-0.000739659
-1.26084e-06
3.71417e-07
8.89482e-07
-4.39086e-05
3.67041e-05
0.00385823
0.0130923
-0.0169506
-4.95228e-06
1.59985e-06
3.35254e-06
2.39721e-05
1.0189e-05
-3.41609e-05
2.34844e-05
-0.00309945
-0.0259938
-0.000173533
-7.02033e-05
0.0127594
-0.00297018
-0.00978923
2.73312e-06
-0.000140759
0.000138024
2.9311e-05
2.92198e-05
0.000171648
0.000351775
3.73518e-06
-0.000215763
7.55577e-05
3.21584e-05
-0.00270729
-0.00733302
8.98836e-05
-0.00287599
0.00278611
0.00110013
-0.00118183
-1.94578e-05
-1.03042e-05
3.65183e-05
2.00222e-05
-0.0152505
0.0122771
-1.98942e-05
-5.08661e-05
-7.31373e-05
8.35755e-05
-1.04378e-05
-2.11933e-05
-1.09796e-05
3.21725e-05
-0.000282167
0.00369251
-0.0274825
0.00442795
0.0230541
-3.72753e-05
1.77375e-05
1.95378e-05
6.34772e-06
-7.59207e-06
0.00224709
-0.000596367
4.26799e-05
-1.67292e-05
-2.59507e-05
1.07927e-06
-4.2401e-06
-2.16288e-05
0.000177345
0.000102238
2.10754e-05
-2.33138e-05
0.00293865
0.00106941
-0.00400806
-2.50583e-05
-4.58985e-06
2.96482e-05
-1.85575e-06
1.28053e-05
-0.000995429
0.00139106
-0.000395636
0.00026288
-0.000251768
4.01546e-05
0.000166127
-0.000206283
-0.0137479
0.0176061
-0.00171295
0.000761235
0.000951717
-0.0226984
0.00317409
0.00564413
0.00350981
-0.00013838
0.000219497
-8.11205e-05
3.0497e-05
-1.27594e-05
-2.36913e-05
3.21799e-05
2.42781e-05
-1.02755e-06
-2.32505e-05
-1.97878e-05
2.00014e-05
1.45128e-05
-1.03212e-05
0.00426878
-0.00519831
0.000929537
-0.00971561
-0.00712946
0.0168451
3.40778e-05
1.30015e-07
-0.0209833
0.0118449
2.21616e-05
-2.79973e-05
7.05572e-05
-4.25593e-05
-0.000126801
-0.0630495
0.0646558
-0.00160633
-0.000152231
0.000122923
3.50586e-05
-2.65815e-06
-3.6812e-05
2.50242e-05
1.17886e-05
1.43353e-05
-2.53808e-05
1.10456e-05
0.00580286
-0.00410579
-0.00169706
0.0159789
0.000316283
-0.000677067
0.000288245
-0.000162486
-2.22081e-05
2.95804e-05
-1.59792e-05
-1.36012e-05
1.94122e-05
-4.89259e-05
2.95138e-05
-1.80466e-05
3.20248e-05
-1.39782e-05
0.0117143
0.00984696
-4.16994e-06
8.45787e-06
-4.28792e-06
-0.00238778
-0.0606618
0.00052407
-0.00100306
4.95579e-06
-2.1123e-05
1.61672e-05
-0.00172831
-0.00703569
1.57118e-06
-7.32189e-06
1.23923e-05
1.71881e-05
0.00281747
0.00150893
-0.00432641
7.94404e-05
0.000183439
3.10288e-05
5.59325e-06
-3.66241e-05
-0.000476596
0.00102261
-0.019508
-0.00370899
0.0232169
3.02358e-05
4.73156e-05
0.00103744
-0.000856912
4.73217e-05
-0.000212911
-0.0253676
0.0222682
-8.58452e-05
1.09734e-05
7.48709e-05
-0.000193526
0.000237644
-4.41182e-05
1.86203e-05
-9.11168e-06
-9.50856e-06
-0.00365268
0.00698941
-4.16234e-05
-1.00242e-05
5.16473e-05
2.23244e-05
-2.90627e-05
6.73844e-06
1.0942e-05
-1.34676e-05
0.00221581
-0.00280096
-2.06139e-06
2.64946e-05
-2.4433e-05
1.49853e-05
-1.97198e-05
4.73504e-06
-7.21272e-06
3.06323e-06
4.14951e-06
1.71815e-05
-5.74722e-05
-0.000241773
-2.67008e-05
-0.00011647
0.000237564
-0.000121095
1.15935e-05
3.60488e-05
-5.02003e-06
8.3642e-06
1.25563e-05
-2.0921e-05
2.50948e-05
1.75851e-05
-2.21066e-06
-1.7217e-06
3.3736e-05
-2.81445e-05
1.86564e-05
-3.26681e-05
1.40103e-05
-0.000140365
0.000156859
-1.64936e-05
-9.13233e-05
0.00279618
-0.00405094
6.9091e-05
-2.26736e-05
-4.64171e-05
-6.55395e-05
-8.83234e-05
0.000153863
1.0505e-05
-1.53476e-05
4.84284e-06
-1.75733e-06
-3.195e-06
0.00586784
0.00689162
2.17088e-05
4.06457e-05
-6.23527e-05