/*--------------------------------*- C++ -*----------------------------------*\
| =========                 |                                                 |
| \\      /  F ield         | OpenFOAM: The Open Source CFD Toolbox           |
|  \\    /   O peration     | Version:  v2012                                 |
|   \\  /    A nd           | Website:  www.openfoam.com                      |
|    \\/     M anipulation  |                                                 |
\*---------------------------------------------------------------------------*/
FoamFile
{
    version     2.0;
    format      ascii;
    class       volScalarField;
    location    "200";
    object      k;
}
// * * * * * * * * * * * * * * * * * * * * * * * * * * * * * * * * * * * * * //

dimensions      [0 2 -2 0 0 0 0];


internalField   nonuniform List<scalar> 
53008
(
0.000239203
0.000188268
0.0243962
0.000143904
0.000253823
0.000137242
0.000144114
0.000132478
0.000168163
0.000137721
0.000129855
0.000200521
0.000137958
0.0143716
0.00089494
0.000779967
0.000155782
0.00697091
0.000165904
0.000141224
0.000150262
0.0201401
0.0014447
0.0119775
0.000137616
0.000167852
0.00776766
0.000137494
0.0244167
0.000143869
0.000172099
0.0001412
0.023036
0.000253314
0.000132716
0.000132791
0.000151686
0.00521321
0.000166294
0.0286561
0.0340252
0.00814006
0.000132701
0.000138727
0.00675621
0.0202208
0.00534779
0.000259425
0.00520675
0.0175369
0.000163823
0.0346053
0.00015806
0.000164602
0.000193045
0.000242026
0.0171861
0.000151357
0.000139753
0.000147037
0.000141808
0.000139094
0.000151074
0.00016384
0.000139805
0.0111459
0.0410825
0.000190735
0.000151413
0.000140545
0.000142106
0.000143182
0.000174716
0.000143033
0.000184237
0.000161143
0.000132412
0.000139629
0.000167794
0.000145999
0.000137649
0.000138583
0.000239371
0.000172551
0.000142532
0.000160211
0.000195373
0.000187355
0.000168841
0.000141682
0.00013072
0.000141625
0.000148034
0.000142561
0.000187433
0.000413915
0.000140575
0.000130698
0.000137951
0.00014044
0.00014188
0.000146952
0.00104907
0.000137415
0.000142076
0.0208113
0.00589198
0.0370151
0.000153859
0.00627693
0.0291146
0.0410575
0.0119799
0.000138797
0.000159485
0.000146274
0.00652673
0.000164153
0.00019538
0.000356345
0.000130816
0.000151502
0.0173395
0.000170018
0.000133417
0.0175931
0.00611293
0.000217668
0.0130074
0.000165897
0.000131202
0.000130796
0.00793097
0.000178787
0.0409145
0.000141646
0.000151495
0.000150316
0.0403989
0.00013109
0.0122838
0.0420069
0.000203636
0.000160474
0.000127633
0.000171333
0.000176741
0.000188013
0.000159752
0.000144018
0.0214681
0.000139516
0.000186986
0.0156948
0.0205393
0.000158102
0.000276065
0.0285328
0.000137264
0.000154181
0.000135323
0.000138745
0.000129625
0.000144543
0.000129698
0.0136589
0.000214452
0.0189842
0.000131021
0.000136145
0.000184009
0.0278742
0.000148713
0.000729495
0.000137541
0.000135127
0.000159803
0.000146061
0.000214676
0.000160886
0.000178174
0.000167986
0.000135843
0.000137248
0.000627969
0.000138909
0.000129312
0.022244
0.0268437
0.0208983
0.000136337
0.0157677
0.000176658
0.00944747
0.0341749
0.000142629
0.0165853
0.000215715
0.00014265
0.00141049
0.000143777
0.00716166
0.000199263
0.000142916
0.000218062
0.000187747
0.000136316
0.000151224
0.0198548
0.0326635
0.000184909
0.000188897
0.00464163
0.000151776
0.0127325
0.000150828
0.0149982
0.000188145
0.0418032
0.0417754
0.000193541
0.000150579
0.000140461
0.0152214
0.000190949
0.0143488
0.000170911
0.000953609
0.00017012
0.00015219
0.000137191
0.0139841
0.0001469
0.00476014
0.000145806
0.000776058
0.000147923
0.000151505
0.000188838
0.000136665
0.000250303
0.000187012
0.000194548
0.0045297
0.000140356
0.00668985
0.000139753
0.000139528
0.000152241
0.000165358
0.0202697
0.00583588
0.00019366
0.000135113
0.000152489
0.000132415
0.00434901
0.000199151
0.000192341
0.0169896
0.0430699
0.00018822
0.000140283
0.000158332
0.00402283
0.000159952
0.0404912
0.0412813
0.000157813
0.000200999
0.000200637
0.000142449
0.000151475
0.000192802
0.000158652
0.000213784
0.000159975
0.00445574
0.000148212
0.000148202
0.00016511
0.00468251
0.000219462
0.0230768
0.000220509
0.000141738
0.000182615
0.0431815
0.0113637
0.034989
0.00871667
0.0197267
0.0112787
0.000200226
0.000144511
0.00014605
0.0245228
0.000138884
0.000274928
0.00880467
0.0401881
0.000134907
0.000134731
0.000144399
0.0139091
0.000230544
0.000137614
0.00016606
0.000209973
0.0298151
0.0199873
0.000143139
0.000135159
0.000134049
0.000188852
0.000143347
0.000167313
0.0227425
0.000355105
0.000145773
0.000188983
0.000129133
0.0107387
0.000130431
0.000139092
0.0125003
0.0179243
0.000140149
0.00376238
0.000152735
0.00561656
0.000313051
0.000137903
0.000167861
0.00603539
0.000150888
0.0131924
0.000170952
0.000140266
0.000152556
0.000171916
0.000169796
0.0131906
0.0195249
0.0262401
0.000137289
0.000175767
0.000130815
0.000136948
0.000198307
0.000139029
0.000136071
0.0280984
0.00471298
0.000139779
0.00633977
0.0245806
0.00766185
0.0175551
0.000190287
0.00426855
0.000150485
0.00595973
0.000135454
0.000195658
0.000135248
0.000177427
0.0236431
0.0309267
0.00022645
0.0206922
0.000147628
0.000192666
0.000150969
0.0001438
0.000183844
0.000140219
0.00430089
0.000250723
0.000137167
0.000138615
0.000136853
0.000143885
0.00879035
0.00013723
0.000142768
0.000186741
0.00522492
0.0196293
0.00906694
0.0139033
0.0139504
0.0054057
0.000132608
0.0173291
0.0137621
0.0224748
0.000139338
0.00371503
0.000137576
0.000137505
0.000136292
0.0108895
0.00776336
0.000149961
0.000148052
0.000133939
0.000215074
0.000194703
0.000142958
0.000185494
0.000141916
0.0199042
0.0161137
0.000194308
0.000142748
0.0047683
0.000152631
0.00014744
0.000141696
0.000138691
0.0110247
0.000136493
0.00014154
0.000162985
0.000139124
0.000143291
0.0220773
0.000225448
0.000142854
0.0197018
0.000164244
0.00014017
0.000215257
0.000142958
0.000147704
0.0280975
0.000165616
0.00599346
0.0238579
0.00601981
0.000226389
0.000197213
0.0231608
0.0193738
0.000145841
0.000141164
0.000158119
0.028693
0.000139062
0.0349166
0.0218385
0.000133062
0.000160875
0.0197999
0.0267171
0.000732935
0.0171154
0.000148207
0.040575
0.000134905
0.000149983
0.00014396
0.000142087
0.000161456
0.020118
0.00619968
0.00659838
0.000230078
0.0186377
0.00019176
0.0043358
0.00021907
0.0388609
0.000141578
0.0153437
0.000141737
0.0122964
0.00219044
0.0337916
0.000133409
0.003165
0.00630396
0.000168543
0.000152584
0.000143352
0.0419125
0.000142901
0.000337449
0.0426659
0.000148025
0.000130745
0.020333
0.000137626
0.000408213
0.000139295
0.000143042
0.000150448
0.000152335
0.000177496
0.00525443
0.000188118
0.000162335
0.000147473
0.00945482
0.00960527
0.000186225
0.000134881
0.00014864
0.00029619
0.000178781
0.000144171
0.0282855
0.0105164
0.000131516
0.000212785
0.000192205
0.000162024
0.000134147
0.000139752
0.0219032
0.00241634
0.000142831
0.00017576
0.00582672
0.000139869
0.0426241
0.000133961
0.00015815
0.000135993
0.000158623
0.000132505
0.000249735
0.0307416
0.000140193
0.0405063
0.0001394
0.00650906
0.000163854
0.000148622
0.000254866
0.000143
0.000134417
0.000134896
0.000170448
0.00978904
0.000139786
0.0183758
0.00473358
0.011056
0.000152447
0.000147646
0.000143372
0.000138093
0.000147455
0.000197582
0.00705725
0.0312892
0.000136676
0.0234893
0.000138512
0.0065278
0.000134816
0.0248536
0.000134033
0.0229191
0.000133504
0.0124921
0.000162545
0.0401042
0.000139511
0.000136801
0.000149492
0.000185218
0.000159856
0.0372223
0.000129056
0.000143229
0.000150846
0.000150246
0.0258959
0.000147399
0.000157599
0.0349591
0.0229367
0.00013586
0.0108121
0.000231538
0.0132672
0.0106491
0.000147789
0.00142059
0.0427247
0.0298646
0.000133552
0.00870028
0.000129262
0.000132773
0.0265159
0.000225022
0.0255129
0.0185123
0.0193105
0.000138535
0.000181754
0.00860405
0.0198404
0.0135738
0.00014239
0.000141885
0.000207542
0.000147249
0.000132864
0.000141436
0.000152004
0.000137318
0.0124832
0.000130979
0.000255247
0.000140117
0.000214484
0.000154299
0.0237367
0.00733515
0.0124532
0.00761065
0.000134791
0.000151226
0.00013948
0.000168535
0.000157458
0.000142067
0.0187099
0.00112541
0.000138407
0.000165118
0.010482
0.000143311
0.019785
0.000521514
0.0194156
0.000139445
0.00019192
0.000136367
0.00014355
0.0110093
0.000134924
0.000131693
0.00014577
0.000216517
0.000145612
0.000150251
0.0231768
0.000143094
0.000174768
0.000151366
0.000146131
0.0197367
0.000212519
0.00284098
0.000147276
0.000161629
0.000146492
0.000149959
0.000150619
0.00101683
0.000157548
0.0148819
0.0149099
0.000129504
0.0179142
0.00596057
0.000147236
0.000136274
0.000176658
0.000145605
0.000328323
0.000157896
0.000131844
0.00553003
0.020329
0.0234416
0.000158727
0.000156532
0.000136501
0.000154156
0.0344862
0.000134738
0.0155772
0.000137174
0.0245293
0.000187479
0.000151823
0.00013915
0.000191138
0.000144804
0.000212807
0.000139116
0.037249
0.000143277
0.000135406
0.0233415
0.000157653
0.000162537
0.000135655
0.000142942
0.000162964
0.000143383
0.000163962
0.0235114
0.000144009
0.014071
0.000197174
0.000138489
0.000144595
0.0165259
0.016572
0.000158695
0.0226661
0.0132377
0.000158816
0.000179945
0.000150494
0.000130086
0.000135099
0.035859
0.00016062
0.000151134
0.0192435
0.000168015
0.019146
0.0116754
0.018499
0.000162895
0.000142916
0.000193946
0.000156865
0.0141401
0.000195061
0.000151751
0.0107308
0.000142263
0.000198959
0.000201427
0.00014148
0.010222
0.000150662
0.000139713
0.000153995
0.0249962
0.000157179
0.000139187
0.000160432
0.0370005
0.000379093
0.000199538
0.000136031
0.000161704
0.00439377
0.000161163
0.000153143
0.000160456
0.000178856
0.0226279
0.000616997
0.000147806
0.0238831
0.00434802
0.000186236
0.000169054
0.0214426
0.000190525
0.00285281
0.00756618
0.00015114
0.000157827
0.0108843
0.021516
0.000151499
0.0354998
0.0205702
0.00016236
0.0103618
0.000158253
0.000197573
0.000145046
0.000139465
0.000139321
0.0273946
0.0132635
0.0290425
0.0129784
0.000177064
0.0202245
0.00258709
0.000134089
0.000631513
0.0138196
0.00471464
0.027076
0.000137653
0.0225827
0.000139426
0.000137908
0.000145583
0.0398293
0.0001488
0.000137224
0.00015129
0.000141882
0.000145668
0.000143665
0.000166052
0.0151276
0.000203653
0.000163003
0.00422163
0.0360774
0.000153222
0.000174392
0.000141953
0.00013224
0.0288469
0.000137459
0.000196905
0.000146304
0.000188865
0.000163603
0.0266416
0.00014863
0.0287183
0.000143004
0.022767
0.000143149
0.0329756
0.000155136
0.00702019
0.00929193
0.000187343
0.00910233
0.000137235
0.000151333
0.0199139
0.000136863
0.0303563
0.00014438
0.0131911
0.000198915
0.0296892
0.0194137
0.000210939
0.000140771
0.000139668
0.000186346
0.000209112
0.028696
0.00853058
0.000144001
0.000137666
0.0431925
0.000135331
0.000143413
0.000135833
0.0143055
0.000193736
0.0286311
0.0276345
0.000150575
0.0149031
0.0131077
0.000165035
0.0418048
0.000189961
0.000172949
0.000140783
0.00014587
0.0280695
0.000157794
0.000139269
0.000156315
0.0162739
0.00341766
0.000138326
0.000133611
0.00214965
0.000132015
0.000132346
0.000138597
0.012136
0.000134737
0.000226278
0.000137448
0.00012917
0.000194517
0.000145883
0.0145925
0.043156
0.0109053
0.0328581
0.0218441
0.0306452
0.000138352
0.000135451
0.00014006
0.000134901
0.000143347
0.00018943
0.0134207
0.000142799
0.0197078
0.000201576
0.000153139
0.000169756
0.0104607
0.000138698
0.000135141
0.000143918
0.000163203
0.0239442
0.0223862
0.0147884
0.000203671
0.000144123
0.000159274
0.000151497
0.000138479
0.0199894
0.000133388
0.010322
0.000230326
0.000147001
0.0166404
0.000136185
0.000159253
0.000185047
0.00014589
0.00014584
0.00929286
0.0248619
0.000157626
0.000207816
0.0316953
0.00879594
0.000171415
0.00019583
0.000128781
0.00382455
0.000145022
0.000134234
0.000132659
0.00019864
0.00014189
0.000134603
0.000133149
0.000132508
0.000163158
0.000151121
0.000145056
0.000145809
0.000144634
0.000132198
0.000141862
0.000145692
0.000141806
0.000151753
0.0342542
0.000212437
0.000153442
0.000165433
0.000154983
0.00013525
0.0290013
0.000148705
0.000132743
0.0185769
0.000136571
0.0151412
0.0127238
0.000307488
0.001715
0.000159472
0.0182997
0.000145522
0.000137672
0.000138781
0.00320598
0.000145966
0.0159308
0.0107421
0.00020914
0.0141016
0.000156522
0.000142745
0.0234522
0.000228461
0.000136459
0.0326319
0.000235378
0.0192508
0.00013823
0.000159037
0.0330049
0.000132119
0.000379939
0.000186171
0.000265975
0.0358161
0.000143002
0.0082891
0.000147272
0.000370852
0.000148663
0.013907
0.000139061
0.000151177
0.000133642
0.0383698
0.000142796
0.000142659
0.000135135
0.000156192
0.000134107
0.0167086
0.000159831
0.000138451
0.000193313
0.000138243
0.000140434
0.00013042
0.00016676
0.000151945
0.0027769
0.00028133
0.000177726
0.000142609
0.000159137
0.00241452
0.0118674
0.00754279
0.019857
0.0314128
0.000129731
0.000157269
0.000140611
0.0200291
0.000167738
0.00970442
0.000129855
0.000137735
0.0239446
0.000129704
0.00279084
0.00170933
0.0264989
0.00485203
0.000139031
0.000228425
0.000727289
0.035677
0.00552674
0.000138115
0.00015125
0.000151982
0.000137066
0.000153254
0.000136181
0.000598268
0.000199047
0.0114795
0.00133081
0.000208303
0.0322792
0.000172329
0.000335304
0.000137819
0.00285526
0.0175642
0.000203878
0.0219953
0.000161451
0.000160644
0.00789729
0.000127671
0.000136476
0.000148799
0.000159165
0.000129208
0.00523693
0.0111384
0.0215599
0.000167607
0.000131434
0.000149089
0.0381065
0.000137919
0.000133841
0.000147306
0.000129769
0.00644175
0.00178273
0.0152041
0.000132103
0.000162744
0.000202651
0.000151986
0.000137863
0.000146519
0.000157924
0.0288193
0.000161511
0.000136369
0.000131398
0.0237692
0.000161943
0.000156789
0.000161487
0.00512393
0.0077711
0.0128378
0.0233586
0.000186665
0.00380053
0.012606
0.000213297
0.0111841
0.000137698
0.000142511
0.00015491
0.000140406
0.000147983
0.0191794
0.000132212
0.000157912
0.000202876
0.000144479
0.0204967
0.0127692
0.000157518
0.000236253
0.000224073
0.000194306
0.0122267
0.000226905
0.0103457
0.00363476
0.000177077
0.000202868
0.000151139
0.0310444
0.000183965
0.00318632
0.000139248
0.000137417
0.0400701
0.000159136
0.00015365
0.0314357
0.000419933
0.0034194
0.000161808
0.000214081
0.0356227
0.0130969
0.00830425
0.000147839
0.011091
0.000151948
0.0224991
0.000133562
0.023481
0.000196702
0.0183647
0.000151267
0.020322
0.00156815
0.000178838
0.000147995
0.000271114
0.000151684
0.000149321
0.00017702
0.000129103
0.000151045
0.00791684
0.000147098
0.000138391
0.000200583
0.000138521
0.000141935
0.00126652
0.000149155
0.000164873
0.000222778
0.000197709
0.00020924
0.000235857
0.0113031
0.000192783
0.00916976
0.0214839
0.000131562
0.000139054
0.000176815
0.0241884
0.00430736
0.000134605
0.0359285
0.000166913
0.000174623
0.000143067
0.000151592
0.00994793
0.000156011
0.038774
0.0117346
0.0222911
0.000144428
0.00015172
0.000138199
0.000136682
0.0358863
0.000159558
0.000141415
0.000160434
0.000130345
0.0107205
0.000217558
0.000136702
0.000153042
0.000157489
0.0211886
0.0370581
0.00518313
0.000216179
0.00369031
0.000133372
0.000183159
0.000133127
0.000137818
0.0242206
0.000195057
0.0160961
0.000136626
0.000134889
0.000137862
0.00483526
0.000144787
0.0164649
0.000149689
0.000190709
0.000190301
0.000131626
0.00482379
0.000147233
0.0001943
0.000146574
0.000137197
0.000133735
0.000172267
0.0157144
0.0209572
0.000143087
0.000135259
0.0194008
0.00656732
0.000308177
0.000137212
0.0137852
0.000148967
0.032061
0.000134408
0.0049983
0.0182712
0.0257383
0.0114004
0.000193819
0.000176029
0.000161796
0.000143232
0.000146613
0.000201809
0.012687
0.00020508
0.0117239
0.000131645
0.0158973
0.000143174
0.0422568
0.000151035
0.000163194
0.0207645
0.000150941
0.000149084
0.00541655
0.00552342
0.000136582
0.000146275
0.000143316
0.000141896
0.0260875
0.0212224
0.000143397
0.000233191
0.000183443
0.000137053
0.0117597
0.000141901
0.000167194
0.033914
0.000182347
0.00474089
0.000171459
0.000151005
0.000150009
0.014272
0.000231258
0.000146561
0.000457602
0.000151063
0.000135639
0.0001487
0.0272628
0.000139509
0.000177605
0.000132161
0.000143786
0.000129755
0.000148251
0.000162722
0.000146487
0.0310659
0.000241341
0.000186773
0.000144377
0.00013301
0.000150029
0.0382752
0.000146192
0.0240836
0.000134883
0.000151039
0.0130487
0.0206561
0.000150611
0.0160843
0.000141322
0.000190302
0.0135816
0.000170788
0.0207811
0.000190145
0.0247593
0.000131632
0.00013926
0.00475148
0.000214476
0.000271919
0.0262153
0.0125353
0.00103131
0.000143621
0.00017006
0.00353456
0.00706934
0.0247606
0.000151022
0.000134911
0.000162622
0.020785
0.000147109
0.000142505
0.0245855
0.000140446
0.018019
0.00566326
0.000156963
0.000144857
0.000186481
0.00613075
0.000232983
0.000157545
0.00332862
0.0307978
0.0301233
0.000134979
0.000131228
0.000148883
0.00478315
0.00494147
0.0118581
0.0282971
0.00482915
0.000150759
0.000142123
0.000131532
0.000150584
0.0051206
0.0269223
0.00615001
0.000141906
0.000162716
0.000193311
0.000149524
0.000209784
0.00016438
0.00545235
0.000173804
0.039739
0.000133491
0.0216218
0.0329152
0.0144422
0.0249559
0.000138213
0.000142259
0.0285165
0.000153195
0.0202797
0.000140591
0.0332529
0.000146935
0.0219279
0.000189125
0.000136277
0.000155902
0.000150099
0.000129728
0.000164041
0.000151564
0.000135704
0.0001462
0.000138535
0.000148054
0.000144991
0.000133813
0.0359422
0.000265126
0.000137386
0.0190987
0.0247498
0.000191253
0.000166623
0.0122835
0.000142126
0.0264484
0.000137295
0.000157599
0.0121438
0.0183013
0.000147882
0.000178386
0.000255464
0.0258407
0.000412755
0.00785754
0.000140404
0.000149712
0.000151298
0.0172158
0.000139897
0.00082963
0.000132951
0.0174236
0.000140374
0.000190608
0.000185424
0.000145273
0.000165019
0.000208527
0.0116208
0.0216627
0.000138273
0.000131346
0.0230875
0.00505831
0.0185991
0.000150231
0.000144973
0.000174363
0.000213173
0.000136746
0.00014677
0.000142993
0.000154025
0.0280977
0.000171308
0.000145061
0.000176437
0.00376026
0.000153627
0.000153441
0.00390478
0.018596
0.000144617
0.000169301
0.000152394
0.000140568
0.000260659
0.000282249
0.00660828
0.000132836
0.000163723
0.000143534
0.000177971
0.000153058
0.000150389
0.000162932
0.000142127
0.000146261
0.0103815
0.000163331
0.0409372
0.000229695
0.000151056
0.000175656
0.00374068
0.00021606
0.0384626
0.000140391
0.00022901
0.000239985
0.000209528
0.000163094
0.0115798
0.0111542
0.0051679
0.000135578
0.0100901
0.000150082
0.0002794
0.00313916
0.000139499
0.0176618
0.000233302
0.00553014
0.0360922
0.00879504
0.000140166
0.000153565
0.000153529
0.0225984
0.0284918
0.000159592
0.000139627
0.000133634
0.000141679
0.000138122
0.0149124
0.0301655
0.000137852
0.000162877
0.00239911
0.00014499
0.000240529
0.000146105
0.00440312
0.000302984
0.000148808
0.000202181
0.000145482
0.000137834
0.0335888
0.0282063
0.0267542
0.000139429
0.000305208
0.000150867
0.000150468
0.000146215
0.000151586
0.000128904
0.000145298
0.000145304
0.0295506
0.0128273
0.00425517
0.011083
0.0206854
0.000140019
0.0295804
0.000146365
0.00409406
0.000681813
0.0299263
0.00031179
0.000137669
0.000145535
0.000145274
0.000257895
0.000156526
0.000134541
0.000203879
0.000131996
0.000140891
0.000183419
0.0201603
0.000163608
0.000159507
0.0120957
0.0202757
0.000146221
0.00016235
0.000171799
0.000144578
0.000244063
0.00024234
0.000303489
0.000364472
0.00014439
0.0225126
0.000159494
0.00456672
0.000134255
0.000145751
0.000131805
0.00013778
0.000135739
0.0145184
0.0199112
0.000147442
0.0241094
0.0238211
0.0001384
0.000150241
0.000304983
0.000824858
0.000157997
0.00014566
0.00017523
0.00015336
0.000153562
0.000138636
0.000238925
0.025434
0.0264315
0.0132764
0.000164452
0.000161593
0.00428091
0.00530849
0.000208154
0.000132089
0.0182197
0.00015039
0.000148614
0.0325168
0.000138019
0.000147319
0.000134803
0.000191484
0.03276
0.00394151
0.0222997
0.000141685
0.00457185
0.000141998
0.0173503
0.000134209
0.0214978
0.000243196
0.000190265
0.00586533
0.000153274
0.000137986
0.00030657
0.000190058
0.000160968
0.000146728
0.00336708
0.000232998
0.000235002
0.000150361
0.000144095
0.000168587
0.000140801
0.00775962
0.0193079
0.000149225
0.000138016
0.000157864
0.000153843
0.00014168
0.0257345
0.000148205
0.000150476
0.0242857
0.000151599
0.00020686
0.000137623
0.000140704
0.000137979
0.00622892
0.000328323
0.000287206
0.000152831
0.00988744
0.0295165
0.00604174
0.000133473
0.0324076
0.000162642
0.000140691
0.00987468
0.00013247
0.000146958
0.000144993
0.000129563
0.0160767
0.000141535
0.000141565
0.000151548
0.0001348
0.000229937
0.0282056
0.000190962
0.000146926
0.000208044
0.000133606
0.0263031
0.00013813
0.000212419
0.0275519
0.0241401
0.0085467
0.000156446
0.0334185
0.0163826
0.000138223
0.000143583
0.00394155
0.00530527
0.00626828
0.00018165
0.000254424
0.000157837
0.000158947
0.0121258
0.0238395
0.000159706
0.00398684
0.0119597
0.000145831
0.000134832
0.00300726
0.0030924
0.000157024
0.000152048
0.000131233
0.000196494
0.000224328
0.025723
0.0245035
0.0227471
0.0291636
0.00507007
0.000136753
0.00132536
0.0401523
0.000133414
0.000138914
0.000245801
0.000146567
0.00429833
0.000131101
0.000173532
0.000164439
0.000151361
0.000140381
0.00175127
0.000212859
0.00660748
0.000153723
0.0137149
0.000179184
0.000133252
0.000240641
0.000129196
0.00013803
0.00484918
0.00015426
0.00531627
0.000148956
0.000149469
0.000185709
0.0327962
0.000135591
0.00154954
0.0367164
0.00176498
0.000145065
0.000151523
0.00924103
0.000162391
0.0199962
0.000140066
0.00013673
0.0153686
0.000144271
0.000140652
0.000134998
0.00298693
0.000157507
0.000330167
0.000157234
0.000138806
0.000138206
0.000153258
0.00922959
0.000172707
0.0101718
0.0200743
0.0023884
0.000135325
0.000147419
0.000150864
0.000193222
0.000136093
0.026884
0.00014429
0.000188928
0.00014506
0.000192724
0.000151128
0.00534891
0.00514444
0.000138866
0.0114396
0.000634957
0.000143029
0.000138798
0.00406104
0.000206559
0.000149632
0.00214575
0.000132641
0.000132298
0.0168453
0.000244625
0.000141501
0.0229547
0.000169068
0.0266024
0.00482355
0.00388498
0.000176923
0.00538871
0.000163477
0.000145769
0.00476194
0.000138082
0.000145079
0.00374968
0.000153231
0.000137036
0.000207811
0.0217091
0.00507741
0.000135921
0.000169768
0.000143092
0.000147872
0.00756485
0.000146468
0.000359132
0.000241853
0.0216031
0.0169117
0.000237146
0.000175315
0.000171231
0.018217
0.00013596
0.000506014
0.00497654
0.000151713
0.000131567
0.00324032
0.000208453
0.0117847
0.000146589
0.000143055
0.00532032
0.000153508
0.0238293
0.000154156
0.00346682
0.0400991
0.000176239
0.000145674
0.00013135
0.00200307
0.000285831
0.000153218
0.000154222
0.000149663
0.000132466
0.0195917
0.000155518
0.000168206
0.000136971
0.000189763
0.000143297
0.00280115
0.00818471
0.000194368
0.000880198
0.000173438
0.0001471
0.000144235
0.000137715
0.0180962
0.000138302
0.000143873
0.00768414
0.000131547
0.0174336
0.000128362
0.000148039
0.028389
0.000139719
0.0285776
0.000147398
0.000171543
0.000164104
0.000137877
0.000131293
0.000136947
0.000133096
0.0218067
0.0159572
0.00838734
0.0401933
0.000132149
0.0238977
0.000131424
0.000156489
0.000143399
0.00389242
0.00373013
0.000147886
0.000142973
0.00290166
0.000136527
0.000144053
0.0427382
0.00498218
0.000157527
0.000143293
0.00949271
0.0118893
0.000143131
0.0412813
0.000149976
0.0001365
0.000158977
0.0289795
0.000150246
0.000161823
0.00467624
0.00456107
0.000187385
0.000140873
0.0266466
0.000182469
0.0151519
0.000420826
0.000133496
0.000185456
0.000135117
0.000354464
0.024534
0.00013459
0.0139983
0.0224331
0.000205624
0.00014599
0.000187025
0.0117332
0.0122232
0.00014311
0.00732108
0.000129489
0.000136178
0.0221011
0.000140983
0.000143302
0.000148444
0.000191272
0.0277511
0.000150582
0.000209905
0.000144494
0.000142907
0.0292245
0.000208676
0.000160322
0.0210107
0.000324046
0.000163106
0.000232621
0.0206611
0.00168999
0.000145048
0.00461512
0.000134467
0.00607195
0.0162712
0.000128702
0.000269332
0.000163221
0.000226088
0.000145049
0.000197285
0.00538458
0.00013449
0.0164234
0.000144379
0.000140984
0.000150483
0.000144657
0.0228049
0.000143177
0.000145731
0.000255847
0.0122393
0.000137487
0.000168933
0.000162143
0.000146606
0.00016796
0.0171887
0.000147563
0.000202335
0.000132985
0.000205165
0.000168545
0.000192844
0.0114434
0.0183494
0.000137492
0.00607935
0.0332811
0.00015624
0.0408576
0.0054738
0.00375205
0.000138081
0.000128668
0.00013695
0.000142422
0.00016473
0.000395723
0.0268757
0.000143879
0.000132262
0.000242992
0.000348818
0.000161841
0.00588046
0.0110507
0.000160487
0.00352661
0.000141489
0.00411634
0.000199875
0.000143653
0.017641
0.00625893
0.0192827
0.00502465
0.000163087
0.000146749
0.031717
0.000140005
0.0134506
0.000132409
0.000173453
0.000196963
0.0125579
0.000151012
0.00565189
0.00541757
0.000294771
0.000245061
0.000138937
0.0324243
0.0100679
0.0192001
0.000140279
0.000137063
0.000137519
0.000128366
0.000136214
0.000150615
0.000225858
0.000143013
0.000154144
0.0103097
0.000186139
0.000184907
0.000183477
0.000150424
0.0298033
0.000150523
0.000147419
0.000214492
0.0358966
0.000162648
0.000145605
0.00023797
0.0175306
0.0314517
0.000151564
0.00349329
0.000277319
0.000151119
0.0357375
0.000201199
0.0110588
0.000136228
0.000149277
0.00532103
0.0070547
0.000186421
0.000199312
0.0229991
0.0245342
0.000140445
0.000162854
0.000151699
0.000272094
0.000167382
0.00306573
0.000145734
0.0129413
0.000150484
0.0128689
0.000139897
0.000173737
0.00022805
0.000198837
0.0263451
0.00014099
0.0172881
0.0262845
0.0167091
0.00016413
0.000209341
0.000140419
0.00360143
0.00384591
0.000135999
0.000134609
0.0118428
0.0155433
0.0136952
0.00450773
0.0165415
0.000143362
0.000280178
0.00117341
0.000143835
0.000143321
0.000231564
0.000162766
0.00362395
0.00013359
0.000151276
0.000143429
0.0115611
0.0312021
0.000138528
0.000143341
0.0001441
0.000156315
0.00018128
0.000434214
0.000189747
0.000148557
0.000150139
0.000142973
0.0190607
0.00015229
0.000138871
0.00430707
0.000393548
0.000161638
0.000144642
0.000138609
0.000149342
0.00500334
0.000140975
0.000183647
0.000143227
0.000132593
0.000180899
0.0228436
0.0112814
0.00307578
0.00498751
0.0101068
0.000132407
0.000138336
0.000266679
0.000206373
0.000141625
0.000196461
0.000195174
0.000137636
0.000133302
0.00653112
0.000159878
0.000128176
0.000153071
0.0313149
0.000136542
0.000204462
0.000138947
0.000133804
0.000229328
0.000147092
0.000135319
0.0156577
0.000190456
0.00014411
0.000142915
0.0105529
0.000157346
0.00555568
0.00585101
0.000150544
0.000127656
0.021166
0.0079335
0.000150364
0.0322398
0.000241914
0.000165973
0.000201136
0.0161592
0.00140425
0.017123
0.00014451
0.00351735
0.000143787
0.000198723
0.000153659
0.00021284
0.00148583
0.00405715
0.000177586
0.00433233
0.0327447
0.0128998
0.000160035
0.000137931
0.0356775
0.00108123
0.000136209
0.000150328
0.025824
0.000131948
0.000159108
0.00519967
0.000139425
0.000155855
0.000144365
0.000184585
0.000195295
0.000246554
0.000170234
2.549e-05
0.000158767
0.000146469
0.000141853
0.000135313
0.000151743
0.00733599
0.000152266
0.000189378
0.000143832
0.00015833
0.000157875
0.00764558
0.000202336
0.000133757
0.0001571
0.000136516
0.000164004
0.000145478
0.000145034
0.000148433
0.000141668
0.0208804
0.000137541
0.000140875
0.000138713
0.0235199
0.000132285
0.000145389
0.0050304
0.0219681
0.000128186
0.000138814
0.000138053
0.000140691
0.00655357
0.00435024
0.000285369
0.00015609
0.000157923
0.000135137
0.000195582
0.000150233
0.000139419
0.000140285
0.000137637
0.000233346
0.00013862
0.000205029
0.0001506
0.000700212
0.000146928
0.00521288
0.000139169
0.000147414
0.000195575
0.000133263
0.000146017
0.000173285
0.000203239
0.000146085
0.000132761
0.0228941
0.000190324
0.0116074
0.000152187
0.00326569
0.000144756
0.000149076
0.000176386
0.00735713
0.00259758
0.000154947
0.00193124
0.0188403
0.000141006
0.000156681
0.0361205
0.000183756
0.000133123
0.000200536
0.000148484
0.000222285
0.000183455
0.000153846
0.00636388
0.000441226
0.000153701
0.00691847
0.000184102
0.000147084
0.000133173
0.000135115
0.000147577
0.000151772
0.000235946
0.000191997
0.000141962
0.000189146
0.00767353
0.000183588
0.000303237
0.000156487
0.000137419
0.000204126
0.000166046
0.0294178
0.000129568
0.000164021
0.035364
0.000134508
0.00445302
0.00589085
0.0047746
0.0163652
0.000135691
0.000148964
0.00013186
0.000145091
0.000166833
0.000151766
0.000140045
0.000195281
0.000132475
0.000164784
0.00017374
0.0248661
0.000150801
0.000152272
0.000155761
0.00018485
0.000132153
0.0100987
0.000178449
0.000161736
0.000189473
0.00850464
0.00492846
0.000164789
0.000177702
0.0100006
0.000146166
0.00026647
0.000144661
0.000139597
0.0120003
0.000151726
0.026385
0.000165643
0.000205839
0.000164132
0.000151336
0.000137171
0.000168105
0.000132083
0.000221573
0.000133934
0.00440181
0.0299847
0.000134991
0.000208062
0.000205548
0.000167948
0.000171702
0.032302
0.0138756
0.000128695
0.000150018
0.000301544
0.0129858
0.000135678
0.0196182
0.000202144
0.000169119
0.000136479
0.000152265
0.00361472
0.0222697
0.000144787
0.00500115
0.0356962
0.000202174
0.031681
0.00019522
0.00567471
0.0251035
0.0286457
0.000183421
0.00360697
0.000133548
0.000148007
0.000174278
0.0195407
0.000140084
0.000164403
0.000143238
0.000143639
0.000138921
0.000168681
0.000144648
0.000228136
0.00672023
0.000142242
0.0419412
0.00014456
0.000144652
0.00959155
0.000168746
0.000186026
0.00976111
0.00016204
0.000191783
0.00013228
0.000172151
0.000158512
0.0016933
0.000309177
0.00013794
0.000144471
0.000175605
0.000136163
0.00014776
0.00390467
0.000136134
0.00814507
0.000211416
0.0211802
0.00015378
0.000195618
0.0001336
0.0144426
0.00417485
0.000217721
0.000176334
0.00547474
0.0232551
0.000164457
0.0166859
0.000238416
0.000158129
0.000182714
0.00013109
0.0267358
0.00664771
0.0001688
0.000210417
0.000144262
0.00587808
0.000182074
0.000164115
0.000140694
0.0165887
0.000148323
0.000169396
0.000209528
0.000143751
0.000135732
0.000168859
0.0045688
0.0115386
0.000153052
0.00015627
0.00014706
0.000144458
0.000174904
0.000153534
0.00014946
0.000136822
0.000128547
0.000144883
0.000135744
0.000151531
0.000134563
0.000159734
0.00718976
0.00731166
0.0366311
0.000139826
0.0288156
0.000145791
0.000182301
0.000141702
0.000136767
0.000140382
0.000150128
0.00013622
0.000169998
0.0107091
0.0111684
0.000191109
0.000131966
0.000146769
0.00676164
0.000313682
0.0197894
0.000154888