/*--------------------------------*- C++ -*----------------------------------*\
| =========                 |                                                 |
| \\      /  F ield         | OpenFOAM: The Open Source CFD Toolbox           |
|  \\    /   O peration     | Version:  v2012                                 |
|   \\  /    A nd           | Website:  www.openfoam.com                      |
|    \\/     M anipulation  |                                                 |
\*---------------------------------------------------------------------------*/
FoamFile
{
    version     2.0;
    format      ascii;
    class       volScalarField;
    location    "200";
    object      nut;
}
// * * * * * * * * * * * * * * * * * * * * * * * * * * * * * * * * * * * * * //

dimensions      [0 2 -1 0 0 0 0];


internalField   nonuniform List<scalar> 
53008
(
0.00260607
0.0011218
0.00691944
0.00584235
0.00438774
0.00581222
0.00589085
0.00579775
0.0032963
0.00584991
0.00580273
0.00102959
0.00592421
0.00405191
0.00346737
0.00133482
0.00600661
0.00957832
0.00183739
0.00586863
0.0059028
0.00755378
0.00105247
0.00135397
0.0058473
0.0024587
0.0102802
0.00592511
0.00954314
0.00584107
0.00207306
0.00586875
0.00728792
0.0065474
0.005814
0.00581641
0.00601317
0.0101086
0.00563719
0.00811836
0.0144506
0.000436902
0.00590245
0.00590384
0.000754839
0.00773439
0.000165394
0.00431761
0.010093
0.00323059
0.002732
0.0112007
0.00605878
0.00489494
0.00523863
0.000838339
0.00363654
0.00583605
0.00591483
0.00598782
0.00584341
0.00582749
0.00592116
0.00248467
0.00591544
0.00113683
0.0116885
0.00196049
0.00591595
0.00585788
0.00584156
0.00582671
0.00587451
0.00582865
0.00245773
0.00268843
0.00579754
0.00585577
0.00251994
0.0059117
0.00584708
0.00591387
0.000857873
0.00210041
0.00582671
0.00536644
0.00190277
0.00250857
0.00450223
0.00582929
0.00579496
0.00584118
0.00596154
0.00582659
0.00250306
0.00334919
0.00587367
0.00579497
0.00592426
0.00585591
0.0058455
0.00598473
0.000942488
0.00592609
0.0058416
0.00702576
0.00236375
0.00964342
0.00342821
0.00902692
0.00978538
0.0119228
0.00695561
0.00590678
0.00542191
0.00592451
0.0186893
0.00494782
0.0019005
0.00342663
0.00579588
0.00587086
0.00469581
0.00204663
0.00585358
0.00442493
0.00575801
0.000515549
0.00158336
0.00205896
0.00583974
0.00579603
0.00449036
0.00224353
0.0118069
0.00582873
0.00597649
0.00583586
0.0119474
0.00583788
0.00145691
0.0117948
0.00516962
0.00606585
0.0057827
0.00207897
0.00238231
0.00105479
0.00606806
0.00586337
0.00475915
0.00592068
0.00100371
0.00269906
0.00701462
0.00459385
0.00284851
0.00717896
0.00581278
0.00367531
0.00587292
0.00590295
0.00579871
0.0058718
0.00580008
0.00199152
0.00109594
0.00581302
0.00579817
0.00581662
0.00121203
0.00671779
0.00546381
0.00612792
0.00584415
0.00587535
0.00607046
0.00592004
0.00109345
0.00301703
0.00171741
0.00331551
0.00586671
0.00581192
0.0016201
0.00590886
0.00579066
0.0051012
0.00717927
0.00473081
0.0058156
0.00374502
0.0029287
0.00354691
0.0109744
0.00582731
0.0155083
0.000944918
0.00582711
0.00179307
0.00586156
0.000964499
0.00132601
0.00582602
0.000508207
0.00508821
0.00581544
0.00588658
0.0180747
0.0137145
0.00114559
0.00236046
0.0120928
0.00585595
0.00414896
0.00588456
0.00416019
0.00243361
0.0118176
0.0119076
0.00202897
0.00589417
0.00587139
0.00424594
0.00207561
0.00207269
0.00186571
0.0037425
0.00192756
0.00547361
0.00588937
0.0137961
0.00591063
0.00477386
0.00595524
0.000476204
0.00593459
0.00587364
0.00115694
0.00592563
0.00659663
0.00490817
0.00178639
0.0119115
0.0058549
0.00825042
0.00585816
0.00582033
0.00527669
0.00248067
0.0115179
0.0112849
0.00198001
0.00586755
0.00594244
0.00579765
0.0115996
0.00114959
0.00196828
0.0035453
0.0116706
0.00242889
0.00585429
0.00606064
0.0125698
0.00605509
0.0119303
0.0119158
0.00474904
0.00571512
0.00144091
0.00591528
0.00598433
0.00208391
0.00537762
0.00101531
0.00523894
0.000108912
0.00596568
0.00586955
0.00249197
0.0140417
0.000538863
0.00774629
0.000523321
0.00584233
0.00591311
0.0117051
0.00155494
0.0115036
0.0108203
0.0180009
0.00104406
0.00145511
0.00587175
0.00592094
0.00704352
0.00591766
0.00280138
0.0107908
0.0119348
0.00585484
0.00585045
0.00592351
0.00175661
0.000865664
0.00592509
0.00290349
0.00508019
0.0106711
0.017902
0.00582673
0.00587681
0.00586698
0.00123015
0.00584187
0.00562125
0.00570616
0.00340603
0.00590752
0.00235509
0.00581997
0.00435633
0.00579997
0.00587857
0.0040972
0.00322329
0.00582877
0.00481954
0.00487395
0.0178966
0.00352054
0.00590429
0.00331739
0.0094722
0.00587646
0.001572
0.00206232
0.00586689
0.00586826
0.0021356
0.00193557
0.00149974
0.0183282
0.00879473
0.00592721
0.00171114
0.00580526
0.0058888
0.00602577
0.00582654
0.00581559
0.0112072
6.56199e-05
0.00585751
0.00967489
0.00602138
0.000788531
0.00340159
0.00214394
0.00198323
0.00595702
0.00768777
0.00586333
0.00599976
0.00585833
0.00153617
0.00896955
0.0117678
0.00501228
0.00881119
0.00596213
0.00526515
0.00583341
0.00588406
0.00235911
0.00586615
4.93538e-05
0.00633647
0.00588963
0.00583459
0.00591436
0.00586411
0.0116612
0.00591204
0.0058271
0.00602152
0.00425631
0.0118653
0.00752987
0.00389293
0.0017745
0.000223469
0.00581924
0.00384518
0.00386447
0.00823445
0.00582824
6.80539e-05
0.00592377
0.00592605
0.00587423
0.00632813
0.0103804
0.00595702
0.00586957
0.0058646
0.00100883
0.000703402
0.00582611
0.00220986
0.00587687
0.00480524
0.00441801
0.00189636
0.00582729
0.0147577
0.00587496
0.00596137
0.00584225
0.00583666
0.00901155
0.00588129
0.00582788
0.00583056
0.00588327
0.00585291
0.00639775
0.00589802
0.00582758
0.00651944
0.0049542
0.00587652
0.00117224
0.00582573
0.00596313
0.0127218
0.00307473
0.0115359
0.00723122
0.00653353
0.00496996
0.000649095
0.00740067
0.00385421
0.00590795
0.00587612
0.00541911
0.0128373
0.00592842
0.0113278
0.00625157
0.00584615
0.00606686
0.00703288
0.0072229
0.00163029
0.00278539
0.00593411
0.0101448
0.00587248
0.00485748
0.00588771
0.00584827
0.00606965
0.00846836
0.0119292
0.00938507
0.000865339
0.00521992
0.00200535
0.0053105
0.000530711
0.00942137
0.00582843
0.00234222
0.00587429
0.00138847
0.00230051
0.0108591
0.0058541
8.86642e-05
0.0120839
0.00254642
0.00589347
0.00585478
0.0119067
0.00585839
0.000372131
0.0185829
0.00593347
0.00580416
0.0117205
0.00591422
0.000690038
0.00584801
0.00582535
0.00590662
0.00590134
0.00163065
7.74965e-05
0.00591434
0.00516769
0.00596231
0.00395889
0.00073196
0.00228744
0.00586815
0.00596084
0.00275649
0.00590986
0.00591119
0.00938255
0.000777881
0.00580771
0.00112383
0.000804094
0.00607541
0.00580741
0.00591701
0.0125695
0.00551846
0.0058277
0.00183362
0.0175638
0.00585934
0.0118319
0.00580502
0.00554478
0.00592166
0.00538179
0.00581141
0.00370171
0.0129049
0.00582928
0.0101562
0.00585073
0.0124429
0.00500177
0.00596091
0.00659718
0.00582571
0.00584487
0.00585179
0.00208937
0.00110702
0.00591743
0.00278491
8.34354e-05
0.00118641
0.00588217
0.00593164
0.00591825
0.00590079
0.00588687
0.000604963
0.0102434
0.0112309
0.00592295
0.00885572
0.00590526
0.0124576
0.00586629
0.00793137
0.00580632
0.00616976
0.00582423
0.00140411
0.0018839
0.0119485
0.00585279
0.00592653
0.00587616
0.00213697
0.0053979
0.0117337
0.00580063
0.00582717
0.00593031
0.00591229
0.00585534
0.00588603
0.00555788
0.00916274
0.00610356
0.00592193
0.000852954
0.000872365
0.0106356
0.000765683
0.00593318
0.00501809
0.0118306
0.0122147
0.00580138
0.00505132
0.005789
0.00581651
0.0080393
0.000589063
0.00674847
0.00430334
0.0180807
0.00583329
0.00146711
0.00710322
0.00838291
0.00130588
0.00591563
0.00587727
0.00138475
0.00596066
0.00581529
0.0058271
0.00591044
0.0058129
0.00147227
0.00579736
0.00370445
0.00582881
0.00109462
0.00603606
0.00905714
0.0103181
0.00414818
0.00929261
0.00590364
0.00585887
0.00591488
0.00266733
0.00269593
0.00588001
0.00587036
0.00480645
0.00585721
0.00200875
0.000905143
0.00583941
0.0178599
0.00136443
0.00463527
0.00591443
0.00106634
0.00590651
0.00585805
0.00370473
0.00587234
0.00582373
0.0059284
0.00114937
0.00590383
0.00590381
0.00973232
0.00584741
0.0018705
0.00591652
0.00592141
0.0046837
0.00110058
0.00261297
0.00596137
0.00604757
0.00594241
0.00471272
0.00596424
0.000639459
0.00543581
0.00245904
0.0018066
0.00580057
0.00500109
0.00213594
0.00592292
0.00587491
0.00168809
0.00590376
0.0020557
0.00542782
0.00580928
0.00617562
0.00751409
0.00647131
0.00570588
0.00255933
0.00588046
0.00603314
0.0108617
0.00590691
0.00251411
0.00592605
0.0107312
0.00204852
0.00601768
0.00584625
0.000976288
0.00594289
0.000932547
0.00592128
0.011773
0.00582825
0.00591704
0.00559715
0.00561114
0.00219088
0.00586375
0.0058281
0.00210987
0.00591593
0.00500979
0.0131415
0.00586411
0.00607113
0.000620534
0.00592128
0.00593024
0.00319334
0.00301957
0.0056251
0.00676069
0.00106941
0.00570579
0.00210118
0.00592771
0.00584246
0.00588446
0.00797796
0.00582738
0.00412127
0.00819574
0.00456728
0.0131667
0.0011972
0.0128134
0.00287194
0.00582817
0.00183278
0.00571395
0.0125823
0.00180671
0.00591699
0.000857748
0.00582297
0.000855077
0.0013978
0.00582765
0.00974682
0.00384423
0.0058202
0.00338032
0.00720203
0.00269686
0.00584595
0.00562204
0.0118201
0.000828824
0.00149244
0.00581553
0.00247344
0.00602363
0.00282
0.00545445
0.00562237
0.00600837
0.00830358
0.000579052
0.00593416
0.00672306
0.00813062
0.00201538
0.00444588
0.00604664
0.00220937
0.00116909
0.00160213
0.00592458
0.00242171
0.000895321
0.0136012
0.00591883
0.0112769
0.0052725
0.00604716
0.00217574
0.00558062
0.000598345
0.0059461
0.00592737
0.00582832
0.0125854
0.00326458
0.0160362
0.00202773
0.00236574
0.00375058
0.00257461
0.00580636
0.00594503
0.00157437
0.00848521
0.0125589
0.00589773
0.00834552
0.00581859
0.0059035
0.00595237
0.0170868
0.00589416
0.00591785
0.00591907
0.00593445
0.00591503
0.00588136
0.00346724
0.00227574
0.00146658
0.00417888
0.00799049
0.0112065
0.00601685
0.00209654
0.00584677
0.00579755
0.0158667
0.00584116
0.00414405
0.00593865
0.00153047
0.00505177
0.0122867
0.00564927
0.0101946
0.00582868
0.0128777
0.00584904
0.010525
0.00604038
0.0196736
0.00910091
0.00225765
0.00511557
0.00581206
0.00592381
0.0181046
0.00591507
0.0171816
0.00592574
0.00173998
0.00152415
0.0105431
0.00613389
0.00104478
0.00582885
0.00582858
0.00107902
0.0011355
0.0101127
0.000481538
0.00592
0.00592384
0.0198971
0.0058311
0.00587453
0.00586767
0.0125998
0.00196841
0.0141692
0.00966343
0.00384806
0.00168147
0.00129015
0.00213769
0.0109247
0.00541315
0.00599137
0.00582879
0.00591724
0.015752
0.00503412
0.00593354
0.00425719
0.00318718
0.00499727
0.00590797
0.00580149
0.00239126
0.0058893
0.00579746
0.00591353
0.00150718
0.00584944
0.00617753
0.00589069
0.00582036
0.000786741
0.00589977
0.00235983
0.0197875
0.00390481
0.0177464
0.00789594
0.00958408
0.0059075
0.00586445
0.00582949
0.00585585
0.00584054
0.0017686
0.00555341
0.00585639
0.0114375
0.00139273
0.00585194
0.00202576
0.0138247
0.00591952
0.00591271
0.00591574
0.00607646
0.00993265
0.0126461
0.00414442
0.00147379
0.00592
0.00603708
0.00388225
0.00590161
0.0118622
0.00582295
0.0135069
0.000874825
0.00594311
0.0039363
0.00581677
0.00604731
0.00182521
0.00589978
0.00595208
0.000681915
0.0154551
0.00256531
0.00116277
0.0113731
0.00865355
0.00195767
0.00184984
0.00581178
0.0075449
0.00594901
0.00589635
0.00581951
0.000814378
0.00583602
0.0058599
0.00582021
0.00589874
0.00478616
0.00586415
0.00594738
0.00595237
0.00586048
0.00589261
0.00593693
0.00595019
0.00587811
0.00590927
0.0110706
0.000480031
0.00583551
0.00252513
0.00599381
0.00582964
0.0139404
0.0059636
0.00581391
0.00485567
0.00584935
0.00236753
0.00308986
0.00133018
0.00213297
0.00592495
0.0114641
0.00594709
0.00589719
0.00583825
0.00677145
0.00593148
0.0145601
0.00230805
0.00134878
0.00175122
0.00590609
0.00585628
0.00985612
0.0012111
0.00584704
0.0188702
0.00260612
0.00450197
0.00585476
0.00557678
0.00961241
0.00581275
0.00621129
0.00179145
0.00664496
0.00906042
0.00589334
0.00805195
0.00591476
0.00634726
0.00596341
0.00215951
0.00591788
0.0040627
0.00580352
0.0115189
0.000342111
0.0058548
0.00587071
0.00386489
0.00589513
0.00443213
0.00554485
0.00590149
0.00425006
0.00583613
0.00583177
0.00585328
0.00336939
0.00590228
0.0025733
0.00357023
0.00246086
0.00585455
0.00544021
0.00551006
0.00163757
0.0146895
0.00493437
0.0185798
0.00583389
0.00568995
0.00592274
0.00685692
0.00212808
0.00834606
0.00580365
0.00583175
0.0100953
0.00580104
0.00350215
0.00500888
0.0122451
0.0124528
0.00591782
0.00592826
0.00555631
0.00977336
0.000128182
0.00583476
0.00601246
0.00367773
0.00591323
0.00582317
0.00581538
0.00557678
0.00221912
0.0010467
0.00151007
0.00137504
0.0114183
0.00181107
0.00201297
0.00583317
0.00891064
0.00364277
0.000746517
0.0141513
0.00524623
0.00532792
0.00138611
0.00578304
0.00583631
0.00588796
0.00560138
0.00578763
0.0158873
0.00114915
0.00814999
0.00213228
0.005802
0.00588552
0.0118362
0.00590129
0.00588906
0.00595556
0.00580072
0.00668001
0.00522411
0.00167472
0.00581316
0.00210082
0.000623518
0.00590249
0.00583322
0.00591086
0.00303303
0.012948
0.00584016
0.00583432
0.00580423
0.0141633
0.00237385
0.00604876
0.00524257
0.000156479
0.0151639
0.00751422
0.00722144
0.0016488
0.00527718
0.00657087
0.0023486
0.000995322
0.00591836
0.00585314
0.00603595
0.00583148
0.005883
0.00389796
0.00579717
0.00303656
0.00133386
0.00585716
0.00768887
0.00158195
0.00476605
0.000791525
0.00123513
0.000810346
0.00105393
0.00088949
0.00138279
0.00572655
0.00177797
0.00571837
0.00549125
0.0110453
0.00270221
0.00238419
0.00593179
0.00590536
0.0172883
0.00547203
0.00599068
0.0111605
0.000353002
0.00386245
0.00520718
0.00121072
0.0114701
0.00178847
0.0105472
0.00596048
0.00108178
0.00598435
0.00635895
0.00580167
0.00969089
0.00451405
0.00302292
0.0039784
0.00431612
0.0059342
0.00248158
0.00598914
0.00364366
0.00570058
0.0058642
0.00166439
0.00580102
0.00417983
0.0155724
0.00594395
0.00585767
0.00109689
0.00583955
0.00583903
0.00552859
0.00588631
0.00237842
0.00668492
0.000648742
0.00533371
0.00689352
0.00910104
0.000778857
0.00121396
0.0122983
0.00580496
0.0058445
0.00547913
0.00685734
4.65229e-05
0.00585938
0.0116923
0.0036433
0.00547878
0.00586738
0.00372877
0.00446607
0.00264497
0.00969228
0.000965721
0.00633612
0.00585568
0.00504532
0.00583616
0.00583717
0.0116682
0.00538926
0.00585576
0.00296527
0.00579814
0.000893623
0.000525883
0.00592509
0.00533514
0.00293784
0.00497178
0.0117946
0.003185
0.000500259
0.00737418
0.00582347
0.00114173
0.00582054
0.00584378
0.0128082
0.000943117
0.00299915
0.00583619
0.00585274
0.00591733
0.00707628
0.00595486
0.00428411
0.00587678
0.00173649
0.00170009
0.00580648
0.0124705
0.00591854
0.000738884
0.00593813
0.00584512
0.00588949
0.00188444
0.00279758
0.00563428
0.0058258
0.00585745
0.00421613
0.018886
0.00155456
0.00584622
0.00148508
0.00586564
0.00939699
0.00584573
0.00943822
0.0030117
0.016831
0.00165275
0.000977144
0.00252035
0.00607312
0.00582769
0.00589104
0.000649809
0.00108646
0.0014819
0.00666208
0.00580467
0.00297808
0.00589732
0.0118452
0.00586963
0.00240075
0.00881839
0.00592921
0.00587839
0.00995669
0.00331044
0.00592333
0.00593969
0.0058407
0.0058892
0.0100354
0.00603974
0.00593572
0.00232679
0.00254454
0.00581183
0.0012666
0.00588889
0.00596735
0.00914281
0.00119589
0.000140644
0.00405745
0.00593252
0.00596798
0.00586722
0.0024653
0.00591203
0.00641015
0.00587083
0.00586455
0.00586787
0.0162505
0.00591986
0.00184312
0.0058227
0.00586086
0.00580279
0.00598753
0.00512192
0.00593052
0.0109914
0.000712595
0.00544325
0.00587769
0.00590608
0.00585272
0.0118048
0.00589548
0.0101766
0.00591262
0.005194
0.00193391
0.00391473
0.00587717
0.00271374
0.00585332
0.00188583
0.00795494
0.0020968
0.00725621
0.0011452
0.0154848
0.00582284
0.00591633
5.50186e-05
0.00120028
0.00674464
0.00756051
0.000999909
0.000791011
0.00587897
0.00246282
0.0100261
0.0162521
0.0149875
0.00593258
0.0058244
0.00031761
0.00649958
0.00591608
0.00588041
0.0107275
0.00582554
0.00494101
0.0171143
0.00604701
0.00591621
0.00161496
0.0149387
0.000750365
0.00265477
0.00949514
0.00818515
0.0107026
0.00582644
0.00583725
0.00587012
0.00969772
0.000155996
0.00373951
0.0147273
5.72316e-05
0.00592485
0.00582274
0.00580348
0.00597618
0.0101267
0.00893789
0.0148593
0.00583754
0.00513664
0.00462304
0.00592447
0.00132509
0.00606996
0.00223072
0.00176716
0.0188667
0.00582484
0.00563644
0.0116879
0.00139954
0.0146028
0.00592753
0.00582303
0.0103162
0.00325575
0.0063592
0.00582742
0.0117135
0.00591807
0.00633907
0.00232412
0.00592472
0.00237469
0.00591652
0.00583432
0.00560927
0.00583881
0.00589346
0.00589562
0.00590519
0.00596108
0.00587791
0.00580539
0.011781
0.00421304
0.000327792
0.0115725
0.00784773
0.0010022
0.00227138
0.00303532
0.00585046
0.0172668
0.00591156
0.00543605
0.00381151
0.00314831
0.00593209
0.00219084
0.00598144
0.00990826
0.0062983
0.0152618
0.00584192
0.00586143
0.00592883
0.00471241
0.00582011
0.00474258
0.00584394
0.00425309
0.00584168
0.00182839
0.00543708
0.00590879
0.00229288
0.00135704
0.00494926
0.00634532
0.00592378
0.00580244
0.00674926
0.013385
0.00525971
0.00586873
0.00586844
0.00585305
0.00105673
0.0058846
0.00591493
0.00582527
0.00345431
0.0137167
0.00407258
0.0058714
0.00152441
0.0103265
0.0050963
0.00449031
0.0107677
0.00395566
0.00592799
0.00435399
0.00599961
0.00582733
0.00384293
0.00410698
0.0190327
0.0058154
0.00506126
0.00585848
0.00171533
0.00334989
0.0059018
0.00282492
0.00584843
0.00593881
0.0135861
0.00510133
0.011597
0.00651528
0.0059209
0.00590097
0.010425
0.00117464
0.0158058
0.00592228
0.00655583
0.00252548
0.00233559
0.0059449
0.00126193
0.000839653
0.00049662
0.00589071
0.000715208
0.00591718
0.000447918
0.00134967
0.0058393
0.00482424
0.0007267
6.83611e-05
0.015481
0.00718727
0.00591776
0.00506874
0.00583057
0.00704298
0.0139817
0.00569177
0.00581879
0.00588084
0.0058755
0.00585393
0.0027134
0.0140775
0.00584374
0.00345921
0.000194826
0.00587853
0.00133711
0.00590433
0.00738444
0.00455313
0.00594079
0.000606467
0.00591109
0.00584005
0.00936293
0.013672
0.00941147
0.0058381
0.00133703
0.00587512
0.00589452
0.00593526
0.00591538
0.00581396
0.00595029
0.00595033
0.0136745
0.00112239
0.0114994
0.00149072
0.011644
0.00582935
0.0160844
0.00594162
0.00541455
0.000475289
0.0137996
0.00425599
0.00592037
0.00596292
0.00595043
0.00390094
0.00258827
0.00589957
0.00121199
0.00580705
0.00589071
0.00190476
0.00568122
0.00268532
0.00602996
0.0052763
0.00636409
0.00594279
0.00516681
0.00209821
0.00585889
0.000801454
0.00432269
0.00133799
0.00359059
0.00592439
0.0086809
0.00543205
0.0120605
0.00581959
0.00590755
0.00580925
0.00592568
0.00581255
0.00211792
0.00557961
0.00592404
0.01469
0.00644044
0.00591131
0.00590787
0.00110548
0.00477469
0.00571707
0.00588925
0.00179656
0.00316306
0.00542675
0.00591998
0.00129001
0.00749682
0.00703738
0.00299849
0.00264747
0.00606855
0.0114443
0.000175509
0.00151642
0.00582166
0.00451603
0.00590248
0.0059704
0.00957958
0.00585238
0.00592122
0.00580669
0.00192141
0.0103854
0.0113402
0.00630308
0.00593328
0.00935973
0.00587596
0.00340925
0.00581947
0.00553693
0.000822588
0.00100756
0.000197121
0.00350268
0.00584206
0.00284481
0.00179643
0.00533426
0.00595754
0.00156773
0.00597858
0.00440156
0.00594277
0.00589454
0.00321087
0.00588301
0.0212176
0.0183019
0.00593168
0.00584596
0.00566938
0.00584321
0.00593357
0.0087255
0.0059838
0.00533964
0.0074587
0.00591569
0.00142722
0.00581393
0.00582858
0.00584598
0.0064971
0.00241137
0.00454276
0.00361663
0.0128399
0.00771822
0.0145442
0.00587722
0.0116261
0.00562702
0.00588052
0.000751338
0.00581119
0.00595001
0.00586812
0.00580113
0.014784
0.00587214
0.00585374
0.00588263
0.00580784
0.000881758
0.0105799
0.0048745
0.00588877
0.00154061
0.00580133
0.00818643
0.00583859
0.00049762
0.0115667
0.00811784
0.0115827
0.00564539
0.0117456
0.00274844
0.00585525
0.0059023
0.0026161
0.0134182
0.000231002
0.00129782
0.00170716
0.00566493
0.00547911
0.00267887
0.00604052
0.00544311
0.00539834
0.00100579
0.00593894
0.00580876
0.0068073
0.00285389
0.00561346
0.00589824
0.00583181
0.00169901
0.000620436
0.0112358
0.0145628
0.0146304
0.0149606
0.0129425
0.00592711
0.00278382
0.0112659
0.0058011
0.0058429
0.00441312
0.00595589
0.010618
0.00582896
0.0016046
0.0026774
0.00590924
0.00591842
0.00202722
0.00580464
0.00116287
0.0033893
0.00145612
0.00588226
0.00582208
0.000811206
0.00578778
0.00584215
0.00413073
0.00338597
0.0102998
0.00599624
0.00592578
0.00172086
0.00918083
0.00591837
0.00324081
0.0101433
0.00538609
0.00594439
0.00588173
0.0123133
0.00236389
0.0067456
0.00583217
0.00592554
0.00272039
0.0059351
0.00582771
0.00591165
0.00144494
0.0051912
0.00240155
0.00486556
0.00582446
0.0059282
0.00601041
0.00545618
0.00178238
0.0012984
0.00539093
0.00626348
0.0058738
0.00592559
0.0059309
0.00145909
0.00583078
0.0107405
0.00589754
0.00233563
0.00589554
0.00496201
0.00601032
0.0162095
0.0101864
0.00581763
0.00631075
0.0047768
0.00582819
0.00581704
0.00869091
0.00144072
0.00585147
0.00105631
0.00586083
0.00579762
0.00269705
0.006683
0.00590276
0.00858762
0.00445641
0.0116181
0.00584072
0.0128583
0.00201459
0.0134688
0.00510985
0.00593297
0.0143536
0.00590433
0.00587102
0.000364346
0.00330593
0.00584344
0.00139462
0.00565855
0.0150974
0.00581578
0.00587215
0.00582624
0.00593134
0.00670625
0.00590195
0.00223848
0.000838137
0.0150362
0.00223072
0.000896752
0.00265995
0.00177604
0.0109269
0.00581583
0.00481477
0.000153273
0.00591111
0.00585738
0.00747436
0.00135761
0.00116735
0.00590398
0.00584542
0.0133602
0.00333699
0.00719067
0.00339993
0.01019
0.0113348
0.00232809
0.00591413
0.00580398
0.00415196
0.0015244
0.00602374
0.00600769
0.00587755
0.00585695
0.0115316
0.00437463
0.00317951
0.00588823
0.0013118
0.00583561
0.00154845
0.00989828
0.00074923
0.00126541
0.00310872
0.00592121
0.00593665
0.00583347
0.0038395
0.00590515
0.00586474
0.00284134
0.00580762
0.0042697
0.00578657
0.0058683
0.0145163
0.00583
0.0128954
0.00595577
0.00211568
0.00605666
0.00584012
0.00580323
0.00592502
0.00587444
0.00628232
0.00921645
0.00477141
0.0194308
0.00579699
0.0132241
0.00580621
0.00603579
0.00593378
0.00514264
0.00311618
0.00598354
0.00582751
0.00471637
0.00583459
0.0058962
0.018588
0.000135743
0.00567997
0.00587218
0.000624678
0.00385115
0.0059293
0.0105466
0.00591007
0.00587874
0.00543743
0.0105904
0.00590829
0.00607648
0.000134746
0.0117744
0.00617412
0.00593057
0.00406688
0.00112265
0.0134527
0.00199336
0.00588552
0.0019216
0.00582813
0.00137345
0.00918913
0.00580847
0.00175605
0.00816722
0.00147531
0.00593283
0.00616474
0.00376407
0.00100229
0.00584687
0.00906221
0.00579179
0.00583241
0.00609537
0.00586001
0.00583809
0.00599096
0.0021494
0.00837107
0.00424478
0.00519423
0.00594152
0.00593203
0.0150691
0.00518269
0.00548997
0.00524966
0.00291561
0.00514519
0.00511167
0.0147064
0.00288846
0.00589458
0.0118718
0.00586229
0.00803877
0.00944688
0.0057916
0.00595517
0.00444678
0.000916686
0.00594793
0.000706431
0.000468767
0.00586337
0.00320737
0.00591154
0.00585972
0.00592738
0.00591349
0.0050926
0.00586944
0.00593183
0.000765053
0.00168408
0.00584087
0.00449762
0.00606207
0.00592039
0.00477325
0.00357375
0.00598149
0.000770148
0.00587928
0.00585453
0.00210112
0.00554391
0.00809343
0.0113114
0.00581411
0.0161323
0.0117052
0.00605457
0.0107985
0.00811397
0.00789758
0.00590158
0.00578638
0.00592583
0.00588782
0.00386544
0.00551793
0.0118373
0.00589211
0.00581468
0.000825708
0.00228404
0.00604583
0.0156269
0.00593716
0.0029986
0.00998382
0.00590373
0.0112109
0.00521212
0.00591393
0.00439733
0.00903036
0.00638335
7.14469e-05
0.00607422
0.00592067
0.00992295
0.00582791
0.00359225
0.00582432
0.00176628
0.000756606
0.00120428
0.00592676
0.0143503
0.0174654
0.00591642
0.000805248
0.00590834
0.0169414
0.0140573
0.00468224
0.00582232
0.00584335
0.00581432
0.00578621
0.00590354
0.00593892
0.000918418
0.0059012
0.00409633
0.000661294
0.00136755
0.00150131
0.00116479
0.00435558
0.00869331
0.00588969
0.00592659
0.00578845
0.0117676
0.00245347
0.00587458
0.000688636
0.00374978
0.0101713
0.00590691
0.00985507
0.00688083
0.00592407
0.0117984
0.00158547
0.000919145
0.00592001
0.00585357
0.00810322
0.0092385
0.00258162
0.00221524
0.00781724
0.00888434
0.00590376
0.0032851
0.00601431
0.00113883
0.00501208
0.0092187
0.00592856
0.0122941
0.00403711
0.00144232
0.00582817
0.00207978
0.00596003
0.000771078
0.00889617
0.00585048
0.0035756
0.0117178
0.00940169
0.00223932
0.0012681
0.00590411
0.0102354
0.0108435
0.00583134
0.00580929
0.00828417
0.0025063
0.00198282
0.00665831
0.0034119
0.00588361
0.0014436
0.0040958
0.00589368
0.00594401
0.00630587
0.00562971
0.010132
0.00580327
0.00585965
0.00590885
0.00352662
0.0111479
0.00584201
0.00583918
0.00592211
0.00571439
0.0019137
0.00420039
0.00158705
0.00594171
0.00481778
0.00582716
0.00547509
0.00586955
0.00582535
0.0145744
0.00209196
0.00522276
0.00591349
0.0059128
0.00599063
9.53781e-05
0.0058508
0.00120656
0.00590458
0.00581264
0.00534754
0.0110195
0.0159172
0.00696775
0.00991659
0.0140798
0.00586025
0.00583775
0.00422631
0.00142883
0.00584458
0.00169607
0.00188324
0.0058146
0.00587439
0.000285322
0.00539904
0.00578487
0.00322241
0.00939453
0.00591025
0.00117852
0.00592762
0.00588373
0.00517192
0.00591774
0.00587094
0.00385716
0.000959231
0.00592632
0.00582644
0.00557182
0.00568953
0.0178813
0.0179925
0.00593952
0.00578344
0.013801
0.000261249
0.00544432
0.0136151
0.000836857
0.0023252
0.00578099
0.00913555
0.00278677
0.00583436
0.00591122
0.0100557
0.00593173
0.00611774
0.00583832
0.00112101
0.00114906
0.00817911
0.00243805
0.0121435
0.0169088
0.0124211
0.00582716
0.00583948
0.0157092
0.00409509
0.00592029
0.00445904
0.00899352
0.0057985
0.00559859
0.0130509
0.00593083
0.00576302
0.00590797
0.0010782
0.000620591
0.000967614
0.00420747
3.30945e-05
0.0056262
0.00594136
0.00585365
0.00586991
0.00600728
0.00028893
0.00586803
0.00131429
0.00589953
0.00564935
0.00567016
0.00414052
0.000622675
0.00580464
0.00572732
0.0058349
0.00278666
0.00590869
0.00594872
0.00596472
0.0058447
0.00475581
0.00584808
0.00586438
0.00592442
0.0143244
0.00585991
0.00587864
0.000590787
0.00538567
0.00578475
0.0059188
0.00584903
0.00584715
0.0141551
0.00370696
0.00277447
0.0028503
0.00558556
0.00587009
0.000913953
0.00593073
0.00591713
0.00582413
0.00589482
0.000776499
0.00584132
0.00246346
0.00586041
0.00165879
0.00591724
0.000166786
0.00592761
0.00597857
0.00087342
0.00582144
0.0059398
0.00209037
0.000674022
0.00589007
0.00586926
0.00514167
0.00221722
0.00597689
0.0058952
0.00294812
0.00590238
0.00598026
0.00552172
0.00496962
0.00454713
0.00293658
0.00541197
0.0029927
0.00592801
0.0056749
0.014612
0.00172756
0.00587033
0.00161142
0.00594154
0.000505728
0.00118588
0.00349511
0.0138881
0.00598489
0.00352458
0.000246635
0.00220739
0.0059202
0.00584895
0.0058667
0.00595758
0.00590862
0.000656403
0.00386939
0.00585564
0.00417946
0.00694895
0.00257937
0.00145519
0.00603612
0.00589393
0.000544608
0.00234982
0.0122659
0.00579144
0.00303302
0.0109585
0.00590182
0.00820972
0.000206769
0.0125724
0.00296673
0.00587667
0.00585869
0.00580895
0.00590495
0.00217191
0.00591726
0.00593221
0.000668586
0.00582643
0.00594487
0.00563519
0.00380116
0.00593849
0.00602019
0.00603841
0.00274551
0.00579712
0.000627091
0.00221241
0.00289436
0.00150838
0.010813
0.00990182
0.00593949
0.00564337
0.000587325
0.00592227
0.00304481
0.00587087
0.00582872
0.00364848
0.00590226
0.0117325
0.00522296
0.00623417
0.00230324
0.00381123
0.00590026
0.00444194
0.00585509
0.00237318
0.0058872
0.014764
0.0136282
0.00588266
0.00191245
0.00199743
0.00448701
0.00183457
0.00627371
0.00203169
0.00579089
0.00590807
0.00450103
0.00162982
0.00587555
0.00363573
0.000931516
0.00491474
0.00592421
0.00516926
0.00194663
0.00641378
0.00594569
6.88483e-05
0.0117829
0.000989473
0.0113135
0.000957154
0.0087062
0.00694808
0.0141923
0.00544905
0.0105554
0.00580144
0.00596355
0.00165993
0.0037738
0.00582009
0.0025079
0.00583489
0.00593943
0.00582422
0.00441774
0.00591588
0.00106113
0.0191592
0.00588403
0.0179727
0.00586905
0.00591567
0.00862631
0.00446467
0.00188493
0.00559933
0.0024252
0.000944055
0.00579726
0.00401231
0.00551995
0.00203674
0.00145708
0.00584287
0.00590149
0.00239786
0.00581435
0.00593796
0.0105296
0.00581507
0.00714382
0.00114648
0.00540708
0.00531758
0.00177488
0.00580134
0.00503898
0.00620797
0.00616197
0.0025067
0.0135514
0.0128763
0.00223296
0.00345624
0.000817721
0.00539894
0.00191132
0.0057987
0.0117987
0.0109893
0.00197279
0.0016448
0.00589813
0.014431
0.00191136
0.00238089
0.00592742
0.00701355
0.00598977
0.00439352
0.00126422
0.00593252
0.00590297
0.00498083
0.00213214
0.00594824
0.00318526
0.00573649
0.00591422
0.00592309
0.00164953
0.00366382
0.00595243
0.00592022
0.00578681
0.00590978
0.00590308
0.00592353
0.00590399
0.00606463
0.0198802
0.0204512
0.0117948
0.005819
0.0100485
0.00595618
0.00200325
0.00590703
0.00591978
0.00582476
0.00590581
0.00583236
0.00222872
0.000767234
0.000863655
0.00147249
0.00585318
0.00592746
0.0110584
0.00504368
0.00413633
0.00308691
0.00593642
0.00583724
0.0105437
0.00583423
0.000934666
0.00588685
0.00152594
0.00591058
0.00167368
0.0187388
0.00502395
0.00558105
0.000993863
0.00590539
0.00597149
0.0079189
0.0091538
0.00605452
0.00590546
0.00584598
0.00590793
0.01571
0.00265134
0.0105101
0.00583295
0.0122647
0.00592809
0.00593765
0.00593516
0.00153889
0.00558934
0.00151263
0.00903886
0.0110316
0.00230649
0.0106077
0.00582865
0.00571806
0.014327
0.00590908
0.00600751
0.00296489
0.00581661
0.00378244
0.00590767
0.00344103
0.00530614
0.00588318
0.000320872
0.00590915
0.00191268
0.00592687
0.00260116
0.00586743
0.00153225
0.000565946
0.00335248
0.00880593
0.00593185
0.00591661
0.00589614
0.00585766
0.00586186
0.00582469
0.00920466
0.00586033
0.0190673
0.0023645
0.00553708
0.00587626
0.0164832
0.00580438
0.00289172
0.000834539
0.00364507
0.00586482
0.00778383
0.00483127
0.0131574
0.00580206
0.00592383
0.0168164
0.0147261
0.0132667
0.00477869
0.00529966
0.00583474
0.0132159
0.00597561
0.00500338
0.00219774
0.00782281
0.000826334
0.00658352
0.00585378
0.0117146
0.00233248
0.0109201
0.00216848
0.00211096
0.0023718
0.00584293
0.0058785
0.0106948
0.00593111
0.00556698
0.00587129
0.0143398
0.00597139
0.00591429
0.00258122
0.000852175
0.00631808
0.00981621
0.00593057
0.00133324
0.00595306
0.00307037