/*--------------------------------*- C++ -*----------------------------------*\
| =========                 |                                                 |
| \\      /  F ield         | OpenFOAM: The Open Source CFD Toolbox           |
|  \\    /   O peration     | Version:  v2012                                 |
|   \\  /    A nd           | Website:  www.openfoam.com                      |
|    \\/     M anipulation  |                                                 |
\*---------------------------------------------------------------------------*/
FoamFile
{
    version     2.0;
    format      ascii;
    class       volScalarField;
    location    "200";
    object      omega;
}
// * * * * * * * * * * * * * * * * * * * * * * * * * * * * * * * * * * * * * //

dimensions      [0 0 -1 0 0 0 0];


internalField   nonuniform List<scalar> 
53008
(
0.0794313
0.0647623
3.52574
0.0246312
0.0578482
0.0236126
0.024464
0.0228499
0.0346884
0.0235424
0.0223783
0.141844
0.0232872
3.54687
0.258103
0.584323
0.0259351
0.72778
0.0356444
0.0240642
0.025456
2.57716
1.37268
8.84618
0.0235349
0.0362137
0.755594
0.0232052
2.55856
0.0246305
0.043063
0.0240597
2.76427
0.0386892
0.022827
0.0228304
0.0252256
0.515718
0.0294995
3.52979
2.35459
18.6313
0.0224824
0.0234978
8.95053
2.57705
32.3335
0.0600853
0.515879
5.42839
0.0326488
3.08956
0.0260877
0.033627
0.0368504
0.288697
4.72594
0.0259348
0.0236275
0.024556
0.0242681
0.0238686
0.0255143
0.0326797
0.0236339
9.80439
3.51478
0.084029
0.025594
0.0239925
0.0243268
0.0245734
0.0297415
0.0245397
0.065686
0.030648
0.0228394
0.0238446
0.0361223
0.0246966
0.0235414
0.0234336
0.279028
0.0436175
0.0244619
0.0298544
0.102678
0.0746859
0.0375017
0.0243052
0.0225575
0.024246
0.0248314
0.0244672
0.0748816
0.123587
0.0239331
0.0225537
0.0232858
0.0239827
0.0242717
0.0245545
1.11309
0.0231881
0.0243213
2.96215
2.49265
3.24379
0.0266175
0.695357
2.97532
3.44362
1.72233
0.023498
0.0286299
0.0246896
0.349222
0.0331768
0.102805
0.103993
0.0225706
0.0258058
3.69254
0.0389558
0.0227923
3.97591
1.06164
0.175827
8.21506
0.0356657
0.0224671
0.0225665
1.76622
0.0499946
3.46531
0.0243014
0.0253485
0.0257573
3.38138
0.022455
8.43141
3.56146
0.0393909
0.0264554
0.0220715
0.0419469
0.0397885
0.0643365
0.0263268
0.0245623
4.5109
0.0235643
0.0689588
5.81493
2.5897
0.0285148
0.0969155
3.11086
0.0236143
0.0267506
0.0230419
0.0235044
0.0223541
0.0246165
0.0223614
6.85852
0.195679
3.26581
0.022597
0.0234062
0.0577656
2.96751
0.0250829
0.119045
0.0235349
0.022999
0.0263248
0.0246723
0.196329
0.0304678
0.0512651
0.0346751
0.0231549
0.023615
0.387612
0.0235086
0.0223311
4.36054
3.73906
4.4175
0.0234434
3.04776
0.0476505
2.66358
3.11405
0.0244759
1.06945
0.228289
0.0244804
0.786632
0.0245288
7.42526
0.135308
0.0245306
0.182433
0.0368985
0.0234404
0.0256897
1.09848
2.38167
0.059539
0.0800253
0.383835
0.0259182
3.06884
0.0256312
3.60518
0.0773109
3.53738
3.5083
0.0953888
0.0255472
0.0239229
3.58494
0.0919966
6.92276
0.0400691
0.254806
0.0391559
0.0258781
0.0232947
1.01363
0.0248535
0.997127
0.0244837
1.62967
0.0249256
0.0257941
0.0649841
0.0230634
0.0379441
0.0367982
0.108906
0.38028
0.0239724
0.81085
0.0238562
0.0239725
0.0258921
0.0340318
1.75984
0.51714
0.0978076
0.0230272
0.0256611
0.0228395
0.374929
0.134826
0.08907
4.79214
3.69046
0.0774922
0.0239624
0.0261246
0.32004
0.0264161
3.39398
3.46441
0.0283503
0.0351698
0.139243
0.0240815
0.0253119
0.0925194
0.0295023
0.21056
0.0288663
40.9115
0.0248442
0.0252493
0.033779
0.333473
0.190437
2.97908
0.200337
0.0242605
0.0308831
3.68911
6.40285
3.04158
0.805582
1.09587
10.8028
0.137602
0.0246112
0.0246667
3.48161
0.0234694
0.0981401
0.815946
3.3673
0.023042
0.0230292
0.0243773
7.91817
0.266321
0.0232256
0.0344891
0.0413317
2.79399
1.11648
0.0245659
0.0229986
0.022848
0.0651417
0.0245378
0.0297644
3.9856
0.104258
0.0246758
0.0802446
0.0221879
2.46507
0.0224882
0.0236609
3.05095
3.91817
0.0240443
0.780652
0.0260577
0.313834
0.0889213
0.0233564
0.0348337
0.637168
0.0256767
8.39214
0.0415017
0.0239081
0.0259967
0.0426211
0.0387089
8.79523
1.06529
2.98362
0.0231625
0.0489428
0.0225339
0.0232557
0.0329098
0.0238613
0.0233976
2.50718
44.6376
0.0238632
0.655281
4.08222
9.71661
3.73833
0.0887554
2.15232
0.0252618
0.775222
0.0231018
0.0326109
0.0230864
0.0475668
2.63594
2.42324
0.0451789
2.34841
0.024761
0.0365926
0.02588
0.024439
0.0648461
0.023903
41.0972
0.0395682
0.0232895
0.0237574
0.0231391
0.0245365
0.753813
0.0232119
0.0245007
0.0310123
1.22757
1.65435
1.20413
3.57143
7.86156
15.0553
0.0227878
4.46129
3.56118
2.72937
0.0239074
38.4431
0.0232244
0.0232035
0.0232017
1.72081
0.747887
0.0251738
0.0252236
0.0228386
0.213191
0.0823519
0.0245374
0.0700706
0.0241483
4.14218
3.64729
0.0957825
0.0244965
0.323105
0.0259799
0.0247326
0.0242536
0.023762
1.22339
0.023208
0.0242867
0.0279536
0.0236475
0.0244821
2.70367
0.0382243
0.0245134
2.58928
0.0331525
0.0238525
0.183629
0.024539
0.0247695
2.20861
0.0341204
0.519549
3.29929
0.921371
0.0455516
0.10079
2.83003
3.42907
0.0246855
0.0240233
0.0291781
2.23512
0.0234569
3.08237
2.67519
0.0227606
0.0265171
2.57407
3.53997
0.449574
4.41139
0.0249754
3.44795
0.0229723
0.0253363
0.024451
0.0242956
0.0266006
2.37566
0.519705
0.703073
0.265882
3.57049
0.087293
0.816457
0.183819
3.5055
0.024291
6.55092
0.0241284
8.85609
0.952152
3.11183
0.022789
35.6964
0.521681
0.0368759
0.0258903
0.0244846
3.52007
0.0243926
0.906802
2.29598
0.0249475
0.0225261
1.73482
0.0232703
0.591581
0.0238192
0.0245552
0.0254711
0.0258137
0.0500536
38.3891
0.0318072
0.0314135
0.0247342
2.38825
13.1227
0.0726017
0.0229852
0.0249361
0.107452
0.0302513
0.0243895
3.01469
13.5193
0.022645
0.189338
0.0757208
0.0266688
0.0230993
0.0236188
1.74256
0.437866
0.0245091
0.0490037
0.331747
0.0238711
3.60247
0.0230768
0.0285224
0.0229654
0.029474
0.0228009
0.0674647
2.38216
0.0240497
3.5047
0.0238261
0.523112
0.0327592
0.0249328
0.0386326
0.0245463
0.0229975
0.0230522
0.0407057
8.84268
0.0236227
6.59835
39.3206
9.31889
0.0259167
0.0248913
0.0242254
0.0234025
0.025048
0.100727
0.688954
2.78599
0.0230757
2.65244
0.0234556
0.524003
0.0229814
3.13358
0.023084
3.71474
0.0229222
8.89686
0.0323327
3.35643
0.0238367
0.0230827
0.0254405
0.0692572
0.0296145
3.17227
0.0222487
0.0245794
0.0254365
0.0254126
3.77014
0.0250422
0.0283559
3.01137
3.75792
0.0229418
12.6761
0.265414
1.24744
13.908
0.0249089
0.283093
3.61136
2.33662
0.0230208
1.72238
0.0223289
0.0228269
3.29829
0.382001
3.52028
2.83968
1.06802
0.023749
0.0576092
1.21129
2.36677
10.3943
0.0240701
0.0241413
0.149877
0.0247035
0.0228474
0.0242722
0.0257179
0.0236229
8.47883
0.0225928
0.0689029
0.0240387
0.195943
0.0255629
2.62077
0.710904
3.0021
0.819
0.0228319
0.0258115
0.0235813
0.0368885
0.0285188
0.0241611
3.18718
0.234145
0.0236302
0.0348215
11.5805
0.024542
1.10779
0.38222
4.18867
0.0235771
0.0704622
0.0230876
0.0245048
2.97169
0.0229762
0.0226132
0.0245884
0.188378
0.0246641
0.0254499
2.38142
0.0244714
0.047389
0.0255836
0.0246784
4.06882
0.101374
1.08726
0.0247051
0.0267263
0.0246519
0.0253363
0.0252536
1.59013
0.0289833
6.0519
8.25303
0.0223261
3.58205
2.79061
0.0248586
0.023196
0.0464947
0.0246631
0.159714
0.0290901
0.0226955
0.895462
2.70545
3.62239
0.0278181
0.0281481
0.0232127
0.0255516
2.77051
0.0228102
6.19593
0.0231477
2.2858
0.0743756
0.0252295
0.0238016
0.0689932
0.0243659
0.204238
0.0234943
3.16394
0.0245832
0.0228841
3.71988
0.0280965
0.0323332
0.0231344
0.0245264
0.0328383
0.0242367
0.0327284
1.7891
0.0245577
2.3177
0.102978
0.0233883
0.0243826
5.1751
5.48822
0.0282119
3.35263
12.3785
0.0278342
0.0516833
0.0253882
0.0222657
0.0229586
4.05752
0.0275629
0.0256739
2.34798
0.0367867
1.45412
9.75224
1.44373
0.0318587
0.0245216
0.105821
0.027453
1.12381
0.0984415
0.0256467
12.5104
0.0244313
0.0851372
0.144103
0.0242773
1.04876
0.0255697
0.0240049
0.0267026
3.47071
0.0283518
0.0238092
0.0285363
3.13031
0.457387
0.133699
0.0233911
0.0316197
0.729422
0.0306339
0.0262028
0.0285388
0.0297677
2.72508
1.06553
0.0249076
3.55242
0.534771
0.0726074
0.0373074
3.5462
0.0862347
2.44021
4.72256
0.0255106
0.0288391
12.1569
1.58192
0.0255961
3.148
3.90141
0.0268489
4.76242
0.0283575
0.102871
0.0243934
0.0235289
0.0239042
2.17671
3.18838
1.81106
6.40042
0.0402325
5.39237
1.00485
0.0230934
0.106225
8.77785
0.55563
2.15592
0.0233399
2.70597
0.0239621
0.0233604
0.0244579
2.33099
0.0252453
0.0231881
0.0255597
0.0239083
0.0246267
0.0244272
0.0327865
6.64736
0.138863
0.0319105
0.528332
2.70887
0.0254655
0.0467775
0.0242789
0.0228097
1.81808
0.0235329
0.0418589
0.0246358
0.0822967
0.0323853
2.16833
0.0250658
2.817
0.0245345
1.76794
0.0244739
2.76032
0.0256832
0.356832
1.02099
0.0740765
1.77934
0.0236121
0.0255466
1.09994
0.0231381
1.76679
0.0243649
7.58116
0.130509
2.81598
2.59207
0.194811
0.0241507
0.0239627
0.0672337
0.184159
2.83763
16.8677
0.0243245
0.0232393
2.1708
0.0232085
0.0244126
0.0231495
1.13537
0.0984226
2.02067
2.8597
0.0255378
8.86313
10.1598
0.0347652
3.58814
0.0350926
0.0288664
0.024153
0.0246516
1.78196
0.028333
0.0234715
0.0275867
3.12339
0.683905
0.0234135
0.0230305
0.898958
0.0224161
0.0228282
0.0234372
8.05213
0.0230341
0.0366292
0.023333
0.0221927
0.101961
0.0247269
6.18372
2.18097
2.79277
1.85153
2.76649
3.19751
0.0234197
0.023097
0.0240262
0.0230369
0.0245435
0.0568325
2.41667
0.0243836
1.72308
0.144734
0.0261689
0.0387359
0.756668
0.0234307
0.022856
0.0243279
0.0268583
2.41066
1.77021
3.56827
0.138196
0.0243451
0.0263825
0.0257887
0.0234646
1.68514
0.0229072
0.764198
0.263282
0.0247348
4.22742
0.0234125
0.0263345
0.054062
0.0247281
0.0245023
13.6276
1.60865
0.028691
0.178478
2.78686
1.01646
0.0422558
0.105863
0.0221586
0.506906
0.0243775
0.0227656
0.0227956
0.0850635
0.0243129
0.0229702
0.022877
0.0224639
0.032016
0.0257702
0.02439
0.0244959
0.0246796
0.0224345
0.0238948
0.0244852
0.0241245
0.0256806
3.09416
0.157357
0.0262945
0.0343077
0.0258572
0.0232005
2.08038
0.0249354
0.0228319
2.82132
0.0233481
6.39537
3.14738
0.231162
0.804043
0.0269153
1.59625
0.0244695
0.0233453
0.023771
0.473455
0.0246087
1.09414
4.65419
0.155059
8.05245
0.0265017
0.0243747
2.37946
0.121349
0.0233381
1.72928
0.0757238
3.55494
0.0236098
0.0285177
3.43357
0.0227291
0.0611691
0.0543124
0.0400266
3.91929
0.024265
1.02945
0.0248991
0.0584271
0.0249291
6.43989
0.0234985
0.0256793
0.0230278
2.89883
0.257577
0.0243662
0.0230186
0.0275334
0.0227488
2.76538
0.0288252
0.0234603
0.0405432
0.0236874
0.0240808
0.0222815
0.0333139
0.0257434
1.07912
0.0787989
0.0488064
0.0243586
0.029252
0.438202
7.24697
0.51348
3.48529
1.6907
0.0222374
0.0276397
0.0237409
2.921
0.0367786
1.16275
0.0223746
0.0236181
2.37186
0.0223588
0.796894
0.34126
2.16405
0.389635
0.0234936
0.0385316
0.130894
3.65043
36.6771
0.023671
0.025156
0.0259498
0.0231795
0.026217
0.0234174
0.107278
0.0539811
10.9673
0.881293
0.151489
2.82698
0.0437372
0.166572
0.0236267
0.320433
4.82166
0.158079
1.5543
0.0307747
0.0301515
4.48472
0.0220769
0.0233839
0.0252717
0.0284152
0.0223248
0.329629
7.67745
2.64538
0.0366945
0.0226533
0.0253315
3.2195
0.023371
0.022727
0.0247342
0.0223713
0.964334
0.341251
9.0786
0.0227249
0.0326503
0.107415
0.0257494
0.0236342
0.024788
0.0286163
2.22577
0.0276553
0.0233737
0.0226383
1.67823
0.0318223
0.0259209
0.030803
32.7451
0.512474
1.70846
3.23463
0.0735602
0.720182
1.91847
0.0636848
11.2367
0.0232662
0.0243478
0.0256646
0.0240773
0.0251543
4.92037
0.0228063
0.0286018
0.152097
0.0246671
2.66577
8.07182
0.0281776
0.298479
0.115754
0.101928
11.601
0.255096
7.4817
0.634721
0.0493816
0.0354766
0.0255727
2.81064
0.065023
1.33643
0.0234749
0.0232699
2.31776
0.0290817
0.0256481
2.81669
1.1896
0.885294
0.031074
0.176821
3.1057
7.32297
0.787343
0.0248032
10.2526
0.025391
2.76592
0.0230213
2.423
0.0406115
6.07515
0.0257174
3.25679
0.264256
0.0538502
0.0247106
0.074407
0.0257348
0.0254632
0.049445
0.0222552
0.0256353
0.508388
0.0247475
0.0236256
0.142132
0.0237212
0.0243079
0.229086
0.0253394
0.033771
0.0333254
0.116888
0.0392298
0.0342144
1.24195
0.0770401
7.55359
1.74689
0.0226638
0.0237922
0.0322707
3.52737
41.9184
0.0229725
3.07285
0.0340088
0.0318727
0.0243835
0.02582
2.22745
0.0278206
3.3198
12.1512
2.72335
0.0246647
0.0257429
0.0236798
0.0234158
3.07555
0.0286269
0.0241497
0.0301109
0.0224806
11.9966
0.186502
0.0230717
0.0261654
0.02837
3.02242
3.14195
1.62735
0.432135
0.500437
0.0229025
0.0569597
0.0228719
0.0235837
1.89103
0.0765541
5.36689
0.0234102
0.0230471
0.0232981
0.683306
0.0243142
2.74766
0.0254713
0.0570932
0.058115
0.0226688
0.386815
0.0248765
0.0822677
0.0246836
0.0234721
0.0227073
0.0436681
5.61715
3.7196
0.0245609
0.0230918
4.60157
0.347735
0.198241
0.0234701
9.28248
0.0253965
3.40917
0.0229924
0.52958
3.91801
1.52921
6.89785
0.0740327
0.0485511
0.0266413
0.0245778
0.0248875
0.102772
11.6774
0.13839
1.75979
0.0226791
5.33811
0.0242778
3.56741
0.0257317
0.0325332
2.35468
0.0254573
0.0253613
0.544011
1.66848
0.0230583
0.0246268
0.0245374
0.0240943
2.59955
3.51379
0.0241584
0.0774065
0.0638949
0.0235817
9.28451
0.0240963
0.0280181
3.70936
0.0573461
26.9641
0.0422578
0.0254538
0.0251356
2.4325
0.0759151
0.0247904
0.0713872
0.025731
0.0231287
0.0253414
1.67765
0.0235662
0.0501269
0.0226976
0.0245334
0.0223608
0.0247599
0.0316948
0.0247006
2.82639
0.212758
0.0343128
0.0245635
0.0225209
0.025634
3.24235
0.0247973
2.36656
0.0228127
0.0255447
6.74731
5.27652
0.0256264
5.76004
0.024144
0.0828058
1.70731
0.0411069
2.59882
0.0849644
1.59894
0.0226061
0.0235382
40.2766
0.178688
0.0403162
3.4674
12.5364
1.30379
0.0244297
0.0384461
0.352538
0.43498
1.65208
0.0254563
0.0231631
0.237736
2.8263
0.024866
0.0242338
2.29182
0.0241087
3.64682
0.330907
0.0259571
0.0244848
0.0730346
0.410393
0.310493
0.0284157
0.35056
3.57704
2.81458
0.0231666
0.0224811
0.0253629
0.493224
31.677
3.17102
1.9214
40.3223
0.0254452
0.0244083
0.0226644
0.0251973
0.505654
3.01215
0.413883
0.0243093
0.0316775
0.0394692
0.0252384
0.158317
0.0270809
2.44421
0.0441431
2.10631
0.0229175
3.66885
2.81618
10.3193
1.70898
0.0233172
0.0244304
2.76425
0.0264255
2.90733
0.0241257
2.83884
0.0248282
2.64905
0.081375
0.0230014
0.0277545
0.0253695
0.0222354
0.0292446
0.0259581
0.0230262
0.024798
0.0234599
0.0248367
0.0246672
0.0230498
3.05087
0.06293
0.419127
1.65036
3.15376
0.0885154
0.0356226
3.17373
0.0242932
1.53175
0.0232248
0.0289915
3.18609
5.81307
0.0249292
0.0529239
0.0427094
2.60799
0.0655344
0.514851
0.0240339
0.0255419
0.025519
3.65329
0.0240369
0.174932
0.0227502
2.73215
0.0240297
0.0553065
0.0341035
0.0245858
0.0340449
0.153664
2.34798
2.62466
0.0233421
0.0226364
3.42075
0.377909
3.53615
0.0255985
0.0247038
0.0297902
0.201729
0.023238
0.0248136
0.0245469
0.0266725
2.04843
0.0420638
0.0247063
0.0468466
0.364138
0.0263792
0.0263156
0.362639
4.70112
0.0243957
0.0379231
0.0254007
0.0241221
0.0678282
0.0687243
0.347207
0.0228421
0.0323482
0.0245002
0.0510974
0.0263546
0.0254819
0.031888
0.0243018
0.024628
0.764126
0.0320173
3.52999
0.0352548
0.0255124
0.0297674
0.358817
0.183938
2.43345
0.0237056
0.0349323
0.0802246
0.0606309
0.0274343
9.17626
13.2843
7.81172
0.0230155
14.1079
0.0253638
0.623774
2.32587
0.0238897
3.66105
0.321043
38.2233
2.33139
1.2237
0.0236856
0.0263588
0.0263317
2.69921
2.0378
0.0280391
0.0239959
0.0227236
0.0241136
0.0235948
5.49586
2.14282
0.0235898
0.0317881
12.3141
0.0246644
0.134752
0.0247454
0.596271
0.0665441
0.0250485
0.144487
0.0246117
0.0236015
3.5775
2.06307
2.84273
0.0238826
0.228274
0.0256789
0.0255267
0.0246349
0.0256258
0.0221715
0.0244186
0.0244195
2.161
11.4285
0.370035
7.43466
1.77648
0.0240196
1.83907
0.0246339
0.756121
1.43452
2.16863
0.0732592
0.0232535
0.0244067
0.0244141
0.066111
0.0281547
0.0228052
0.0885925
0.0227303
0.0239175
0.0489655
3.54858
0.0329225
0.0264524
2.29246
3.18596
0.0246048
0.0314217
0.0425827
0.0246767
0.304526
0.0560623
0.226824
0.101507
0.0243721
2.59335
0.0293616
0.378652
0.0230695
0.024672
0.0226888
0.0232514
0.0233527
6.85501
3.41465
0.0248887
1.64121
3.69868
0.0234127
0.0254307
0.275883
0.172756
0.0276359
0.0247332
0.0445221
0.0264933
0.0263377
0.0234184
0.132718
3.39264
3.75588
4.42771
0.0331327
0.0266279
0.374063
30.2462
0.0905646
0.0226893
2.89071
0.0254792
0.0248919
3.39439
0.0235834
0.0248798
0.0232151
0.0864351
2.61294
0.347569
3.53791
0.0238798
0.488459
0.024166
4.4846
0.0230621
3.5426
0.295647
0.0848496
29.7551
0.0264029
0.0236195
0.107765
0.0561202
0.0301762
0.0246289
2.14774
0.0389721
0.0533906
0.0253016
0.0244455
0.0340372
0.0239334
0.365716
1.05497
0.0251574
0.0236088
0.027845
0.0263285
0.0238777
2.94934
0.0247677
0.0254039
3.25602
0.0256265
0.144939
0.0236713
0.0241405
0.0236024
0.958724
0.136156
0.0632227
0.0262256
0.770053
3.56127
0.415406
0.0227103
2.78748
0.0289038
0.0239249
13.1428
0.0227956
0.0246988
0.0247086
0.022334
1.08744
0.0241029
0.0241836
0.0257619
0.02321
0.260771
2.35752
0.0381646
0.0249502
0.0903011
0.0230302
3.21302
0.0236582
0.154503
2.38201
2.97371
0.737885
0.0277121
2.84518
5.45331
0.0236067
0.0243266
1.50665
0.39538
27.1351
0.0575679
0.149033
0.0278622
0.0290097
3.13508
3.71866
0.0293409
0.73853
11.8908
0.0245551
0.0232118
0.44177
1.08357
0.0279728
0.0257785
0.0225029
0.115652
0.361564
2.28939
1.68261
1.55478
1.94936
0.391739
0.0230725
0.476095
3.56404
0.0229981
0.0237748
0.0556979
0.0246087
0.404817
0.0224913
0.0454528
0.0331458
0.0256143
0.0237193
0.863877
0.0366704
5.68206
0.0265881
9.41881
0.0304617
0.0228873
0.296646
0.0223222
0.0236266
1.17393
0.0267768
0.516151
0.0248416
0.0252235
0.0700616
3.57225
0.0229101
0.478135
3.61977
0.327692
0.0244036
0.0257617
0.750491
0.0319634
2.96433
0.0240161
0.0230748
5.64941
0.0243081
0.0241351
0.022836
2.06716
0.0281644
0.137481
0.0280148
0.0238316
0.0233134
0.0254988
1.69158
0.0421618
7.83411
3.72372
0.381321
0.0230388
0.0248784
0.025437
0.0728702
0.0233404
2.50306
0.0244662
0.0808896
0.0246051
0.03884
0.0251447
0.329986
0.505031
0.0238698
1.81271
0.132925
0.0245409
0.0238606
0.467275
0.143372
0.0255716
2.03137
0.0226317
0.0228194
6.09255
0.036604
0.023972
2.67299
0.0379381
2.28973
0.825848
0.302137
0.050522
0.400088
0.0319926
0.0245694
0.33176
0.0233866
0.024711
10.2915
0.0264258
0.0234513
0.149009
3.53408
0.336311
0.023371
0.0289108
0.0245599
0.0249307
1.12803
0.0248169
0.160436
0.288561
1.43674
7.58128
0.150891
0.0475247
0.0405313
1.66716
0.0233775
0.105096
32.4684
0.0256657
0.0224617
0.433524
0.153544
10.0953
0.0248288
0.0244729
0.398223
0.0264964
3.31392
0.0267373
0.340217
3.53769
0.0464593
0.0246316
0.0226311
0.48244
0.187504
0.0254357
0.0256707
0.0254635
0.0226169
1.69896
0.0272075
0.0349622
0.0232618
0.0853499
0.0245556
1.809
0.826882
0.0814509
0.695582
0.0445746
0.0248428
0.0242957
0.0236078
2.97642
0.0234206
0.0245319
2.70441
0.0226507
3.89314
0.0221827
0.0252269
1.95566
0.0239655
2.2161
0.0247487
0.0421668
0.0270948
0.0236087
0.0226241
0.0231133
0.0226568
3.47112
1.73139
1.75783
2.06854
0.0227961
1.80713
0.022635
0.0259268
0.0241665
0.756891
1.19702
0.0247155
0.0245342
0.615233
0.0233995
0.0244315
2.29924
36.7031
0.0277339
0.024402
15.1962
3.08722
0.0241396
3.85296
0.0253764
0.0232193
0.0292375
2.73638
0.0254296
0.026631
34.7042
0.387371
0.0303501
0.0237537
5.11204
0.0578802
1.12631
0.211114
0.0226822
0.0693647
0.0231835
0.258083
2.6699
0.0231714
7.97148
2.74673
0.139376
0.0246071
0.0303379
3.11716
12.1952
0.0244763
0.807869
0.0223573
0.0233485
3.62588
0.0240585
0.0245461
0.0247781
0.0889885
3.31512
0.0255344
0.0404112
0.0243193
0.0240907
1.93937
0.040264
0.0292026
4.00229
0.111142
0.0317006
0.0455078
1.40491
0.585085
0.024607
0.388746
0.0229375
0.755333
1.72239
0.0222222
0.0452266
0.0306016
0.246636
0.0243866
0.116689
11.4867
0.0229373
5.12052
0.0244233
0.0240598
0.0253878
0.0244622
4.47805
0.0243937
0.0245676
0.334418
6.35086
0.0235388
0.0375605
0.0267472
0.0247629
0.0336386
4.80973
0.0246699
0.150101
0.0226192
0.0350438
0.0372807
0.0347848
1.41392
1.62221
0.023648
0.376844
2.84328
0.0258053
3.78364
0.674614
0.475088
0.0233973
0.0222364
0.0231107
0.0241893
0.0316425
0.0717159
2.27042
0.0244189
0.0227463
0.294283
0.15272
0.0267691
0.376303
1.86128
0.0301071
0.353233
0.023966
0.367172
0.0383482
0.0242906
4.01176
0.693098
2.61331
38.5314
0.0268491
0.0247859
3.19632
0.0240233
3.74434
0.0227338
0.0453536
0.0896844
10.4278
0.0254797
0.393851
0.310189
0.0498225
0.30433
0.0235154
1.9139
0.716201
4.10061
0.0240934
0.0234563
0.0236518
0.0221848
0.0230734
0.0253606
0.245921
0.0242346
0.0266435
15.5903
0.0605775
0.058687
0.0593972
0.0254729
3.4283
0.025557
0.0248741
0.0370551
3.05046
0.0321038
0.0247856
0.217859
4.6751
2.59973
0.0256587
0.354466
0.0403032
0.0255093
3.02901
0.126902
12.0316
0.0230114
0.0255018
0.656657
0.763619
0.0722108
0.0546459
2.9421
2.76151
0.023789
0.0317927
0.025223
0.199804
0.0333956
0.332556
0.0245818
1.05265
0.0255038
8.92238
0.0240035
0.0453786
0.0382633
0.086462
2.9614
0.0240988
4.83501
2.24313
1.77725
0.0332232
0.165082
0.0237832
0.35186
0.354674
0.0233221
0.0231714
1.42957
4.97668
6.90694
0.677009
4.84819
0.0243664
0.194083
0.286491
0.0244049
0.0241118
0.0367219
0.0289119
0.357675
0.0230197
0.0258165
0.0242736
3.27825
2.79893
0.0237124
0.0245482
0.0243325
0.0273547
0.0535196
0.103375
0.068377
0.0250024
0.0253753
0.0245356
2.6183
0.0259457
0.023839
0.295523
0.188124
0.0309487
0.0244597
0.0234423
0.0249292
38.6736
0.0240951
0.0578674
0.024257
0.0228111
0.0338284
2.07303
0.708757
0.44143
0.502946
0.717824
0.0225942
0.0236969
0.0630997
0.144435
0.0242318
0.115833
0.103637
0.0236707
0.0226921
22.8904
0.0296123
0.022157
0.0263857
3.33331
0.0231026
0.0891521
0.0234406
0.0227414
0.044341
0.0248561
0.023049
2.8029
0.0846587
0.0243169
0.0245287
1.89399
0.0276553
0.310698
0.325191
0.0253461
0.0220726
1.53366
30.3676
0.0253736
2.36794
0.289074
0.0347399
0.0347927
1.76882
0.503899
2.93486
0.0244468
0.349788
0.0242403
0.032483
0.0263191
0.189865
1.29309
0.496039
0.0485047
0.356762
1.93654
1.03854
0.0274636
0.0236203
2.27112
0.264031
0.0230071
0.0254431
2.8714
0.0227555
0.0284192
0.398413
0.0235084
0.027044
0.0244357
0.0614687
0.0865699
0.164084
0.04046
0.77022
0.0282192
0.0246525
0.0242333
0.0230519
0.0252599
25.3902
0.0259484
0.0838073
0.0243802
0.0280262
0.0278431
1.84652
0.145674
0.0230431
0.0274299
0.0233964
0.0328434
0.024621
0.0243807
0.0248852
0.0242387
3.4105
0.023519
0.0240221
0.0234137
1.64195
0.0225746
0.0247317
8.40585
3.44733
0.0221594
0.023453
0.0236028
0.0240615
0.462984
1.17353
0.102855
0.0277009
0.0282735
0.0230213
0.113881
0.0253312
0.0235619
0.0240868
0.0233489
0.152809
0.0237309
0.0560013
0.0256979
0.422123
0.0248305
31.2549
0.0234781
0.0246571
0.187921
0.0228918
0.0245827
0.0447376
0.153617
0.0248019
0.0226196
3.75425
0.0858388
1.94205
0.0258153
1.10772
0.024525
0.024928
0.0319441
1.48042
0.571256
0.0272465
0.356845
6.29544
0.0237863
0.0276095
2.47198
0.0588807
0.0226772
0.124446
0.0249908
0.203637
0.0595872
0.0266215
0.458226
0.0737233
0.026537
28.0515
0.0654348
0.0248444
0.0227687
0.0230308
0.0247712
0.0256866
0.197437
0.0413532
0.0242436
0.0404171
1.10427
0.0641402
0.208383
0.025925
0.0233154
0.1524
0.0347839
2.39834
0.0223723
0.0327295
3.22707
0.0227909
0.542408
28.4899
0.379769
5.51622
0.0230898
0.0254262
0.0226994
0.0245711
0.0358099
0.025648
0.0236075
0.0865077
0.0227369
0.0277187
0.0308312
4.84137
0.0253938
0.0252936
0.025795
0.067328
0.0227963
16.1041
0.0502975
0.031047
0.0850867
0.786518
0.497733
0.0277447
0.0314886
17.0274
0.0246807
0.0875161
0.0246405
0.0239498
3.28914
0.0257065
2.24888
0.0317144
0.0330179
0.0335842
0.0257588
0.0232482
0.037845
0.0225587
0.0676517
0.02275
0.298145
2.2002
0.0229472
0.0654444
0.0639151
0.0374297
0.0425888
4.54784
6.82957
0.0222237
0.025392
0.0669944
7.96762
0.0230919
5.39595
0.149985
0.0340187
0.0230375
0.0259043
1.85691
3.47216
0.0243515
38.7257
3.02949
0.150195
2.80028
0.11187
0.651801
3.61301
2.0184
0.0336611
0.341717
0.0230198
0.0248185
0.0438744
5.178
0.0240691
0.0331841
0.0245486
0.0241839
0.0238522
0.0381826
0.0244509
0.214994
0.350758
0.0241742
2.33361
0.0246309
0.0244523
1.1119
0.0377959
0.0515587
1.74326
0.0316838
0.0906279
0.0228178
0.0429056
0.0287161
0.831381
0.212189
0.0236082
0.0244805
0.0453796
0.0234184
0.024884
0.370826
0.0234106
1.14016
0.184404
2.97377
0.0264247
0.100336
0.0230292
2.86618
0.672499
0.035333
0.0491518
0.403998
1.80603
0.0338984
4.82777
0.291562
0.0292889
0.057932
0.0226068
2.266
0.604927
0.0375545
0.0904069
0.0244589
0.407324
0.0577693
0.0332209
0.0237362
2.36524
0.0247627
0.0385559
0.165737
0.0242311
0.0229938
0.0339017
2.14282
1.93984
0.0263896
0.0272414
0.0248655
0.024389
0.0446888
0.0264668
0.025109
0.0231109
0.0222137
0.0245158
0.0229955
0.0255813
0.0227919
0.0263386
0.361655
0.357517
3.10569
0.0240292
2.86766
0.0244772
0.0564899
0.0239886
0.0231034
0.024101
0.0254204
0.0233559
0.0384147
13.9581
12.9315
0.0933207
0.022546
0.0247608
0.611448
0.0621931
4.78429
0.0272246
0.0241678
0.0243152
1.11586
0.0233652
0.237083
0.0250403
0.133935
0.024799
0.0978959
0.340061
0.0252681
0.0251523
0.13443
0.0242508
0.0251091
0.499424
2.79854
0.0265462
0.025423
0.0237479
0.0245912
1.79491
0.0699947
0.79941
0.0233304
2.23335
0.0248738
0.0237818
0.0239438
0.132103
0.0295674
0.134963
2.87576
2.44624
0.0821329
0.37392
0.023943
0.0276634
0.471479
0.0257405
0.0249694
0.0291455
0.0226066
4.51501
0.0244346
0.16324
0.0285967
0.0247338
0.58003
0.0256886
0.0677666
0.0247637
0.0492337
0.0245614
0.0742429
0.117289
4.78416
0.333913
0.0237535
0.0244818
0.0257982
0.0223047
0.0244128
0.0245506
0.480919
0.0242115
2.27148
6.61339
0.0332135
0.0246984
1.05683
0.0230347
0.027457
0.289121
0.0259522
0.0257713
3.19216
0.0295537
1.69253
0.0227186
0.0247197
1.50789
1.07176
1.1023
2.71475
0.0305285
0.0236432
0.372492
0.0246197
3.32014
0.0644385
2.59735
0.152969
2.79405
0.0242269
3.49098
6.51474
0.36821
0.0452769
0.0546709
6.10227
0.0222716
0.0241792
2.83121
0.255872
0.0347088
0.0231723
1.08009
0.0246498
0.0249055
0.0578254
12.6368
0.368743
0.500796
0.0238889
0.152194
0.0244064
0.0287869
3.35431
0.0248026
2.25706
0.0821404
0.0243416
1.76656
2.35377
0.0711044
0.256902
0.0254232
0.0260748
0.0238617
0.0223189
0.0577091
0.0244097
0.0251005
0.143748
2.80084
0.0243034
0.0365002
0.0242168
0.0233861
0.0365941
2.341
0.0294385
0.0255015
0.0266676
0.024389
0.342683
12.17
0.0241154
0.0361606
0.0244739
0.271887
0.471047
0.547783
0.0361992
0.0666064
0.0271506
0.0241049
1.62823
0.0237319
0.155111
0.0267024
1.77307
2.99879
0.023876
0.0253813
0.0313447
0.216473
0.0420244
3.89937
0.0239241
0.0249081
0.0272516
0.0235689
0.137631
0.0523148
0.451808
1.50587
0.109679
0.0428693
3.52394
0.178163
0.0253144
0.023788
0.0255128
0.0254354
0.0237139
9.39307
1.05079
0.816369
0.34696
0.0255024
2.38786
0.026147
0.0230127
0.0256612
0.0244849
0.0706863
0.0243749
11.4299
0.0463528
4.48591
11.0053
0.0233358
0.0423368
0.0545477
3.27382
0.0244417
3.20721
0.0246441
34.9936
0.0240318
0.0244828
0.271289
3.21718
0.0233266
0.0240134
0.0242281
0.100598
2.03444
0.0264318
5.4815
0.0248252
0.0244408
2.80983
3.47149
7.24425
0.0773999
2.25305
0.0242102
0.0282381
0.201742
1.1048
0.639795
0.0226869
0.0234272
0.0249203
0.0220738
2.57001
2.88459
0.0276468
3.45503
0.03395
0.384867
2.69055
0.0248151
2.3155
0.0247173
13.2005
0.0241115
0.130853
0.0251502
1.05625
1.07575
0.0222595
0.292945
0.0236106
0.0244472
0.0454973
0.0232494
3.16504
0.0415377
0.0251864
0.0251263
0.0977224
0.711481
3.75945
0.0448492
0.0247621
0.0253467
0.0437619
0.0245478
0.0231404
0.0564011
3.38512
0.0251747
0.023566
0.0282693
1.97868
1.09182
0.0275609
0.0381485
0.0239027
0.0226365
0.0456302
15.3348
0.0239189
3.65491
0.0252377
0.0230274
0.0304368
2.00165
0.0384503
0.15833
0.0287298
1.97155
1.70917
1.50541
0.0227867
0.0245819
0.0303317
0.202507
0.0235211
0.0224634
4.8419
0.132664
0.45387
0.0476441
2.38102
5.9506
1.7303
0.026319
9.0542
0.0230407
0.0298887
0.0263941
0.0231923
3.49226
0.33044
0.396965
0.0474123
0.0321921
0.0235154
0.0256024
0.0248788
0.0903116
0.0263534
0.290061
0.0274748
0.0261489
2.85095
0.022454
0.0453633
1.93184
0.0241537
0.0246969
11.8949
6.18682
0.0235783
28.615
3.28015
0.0302166
0.0421966
1.70006
0.0247842
0.0240829
1.12278
0.0562438
0.0817881
0.0271819
3.68552
0.0241839
0.0236605
0.0246621
2.24259
0.0296734
0.0233262
2.1487
0.214449
0.0250049
0.0239496
1.71036
0.0233928
0.0869474
2.50171
0.0236278
3.70854
0.787675
0.0239251
10.6434
4.20567
0.0251758
0.0245941
0.333399
0.179396
0.0239137
0.47773
0.0242392
12.3915
0.0392734
0.0232169
0.235943
0.0272943
2.87266
0.0227107
0.0248852
3.30513
26.439
3.42405
0.0677121
0.0724044
3.46139
0.028259
0.0262262
0.0226772
0.0246388
3.74035
2.21216
0.042163
0.0275988
0.0632609
2.24471
2.0978
0.0255163
0.155281
0.0292117
0.601572
0.0285175
0.0226698
0.0253454
0.517975
0.0238984
0.0246389
0.0226664
0.0249574
0.0249376
0.0240523
0.0271997
0.0459893
0.0281509
1.85641
0.0417165
0.126162
0.0235407
2.28544
0.0231501
0.033922
0.293669
3.03376
0.0233199
2.83082
0.0309089
0.351931
0.339105
0.0252759
0.0241498
13.2562
0.396342
0.0374333
0.15665
0.027002
0.0233297
1.49073
0.0241219
0.0235884
0.0244519
9.39528
2.37579
0.0313978
0.0246429
0.0238932
0.0252436
0.0250458
0.803776
0.105712
0.0586501
0.0249702
0.0245818
0.028089
0.0245526
0.16051
0.0223407
0.90276
0.347477
0.0245132
0.0220778
0.0240787
0.0445639
0.0561681
2.97239
0.0259096
5.12122
0.0241013
12.331
0.0380996
0.0249705
0.0267144
3.07824
3.36982
0.087579
3.51135
0.0588115
0.155739
9.58321
3.46213
0.0241911
2.86736
0.0261226
0.0239336
0.0242995
0.0227317
0.024441
0.156629
0.0390523
1.54655
0.0245506
0.0254137
0.0244096
2.81842
0.0247135
0.0332587
3.56358
2.2085
3.33737
0.0347176
0.0247833
0.024447
7.37334
2.83345
0.318724
0.0288755
0.0261717
2.74494
0.0556823
3.4761
0.0399864
0.0247603
3.38972
0.0298964
0.0243077
0.0233257
0.0292914
1.56818
0.0258229
0.786205
0.0255564
0.0252407
1.89949
1.16237
2.96229
2.59091
0.0310784
0.02559
0.0845483
0.0571986
0.0243448
2.37497
0.0640298
3.72958
0.0227244
0.397179
0.0254004
0.0246567
0.0255568
0.0230864
0.0249125
4.95536
0.42821
3.47549
0.0504995
0.306417
3.18347
0.0244618
3.18785
0.0222962
0.0242445
2.70901
0.0902578
0.0378418
0.0232567
0.0251516
0.951563
0.0658163
6.16897
2.38681
0.0232903
0.752028
3.28539
0.0257042
0.0221719
0.379666
0.0233841
0.294545
0.0676543
0.0247123
0.0242172
0.0240144
1.06894
0.400928
0.204601
0.023921
0.38014
0.212679
0.139664
0.0237295