/*--------------------------------*- C++ -*----------------------------------*\
| =========                 |                                                 |
| \\      /  F ield         | OpenFOAM: The Open Source CFD Toolbox           |
|  \\    /   O peration     | Version:  v2012                                 |
|   \\  /    A nd           | Website:  www.openfoam.com                      |
|    \\/     M anipulation  |                                                 |
\*---------------------------------------------------------------------------*/
FoamFile
{
    version     2.0;
    format      ascii;
    class       volScalarField;
    location    "200";
    object      p;
}
// * * * * * * * * * * * * * * * * * * * * * * * * * * * * * * * * * * * * * //

dimensions      [0 2 -2 0 0 0 0];


internalField   nonuniform List<scalar> 
53008
(
0.0155499
0.000686597
-0.0403623
-0.0131984
0.00686874
0.00138373
-0.0060788
0.00231855
0.00445259
0.00265625
0.00118151
-0.0532623
0.00199366
-0.154866
-0.0240915
-0.00366436
-0.008721
-0.00480186
-0.0498966
0.000495663
0.00377094
-0.0858508
0.0403436
-0.0836984
0.00262869
-0.0145527
-0.00325651
0.00214712
-0.0790099
-0.0130558
-0.0505013
0.00059016
-0.10566
0.00455566
0.00228237
0.00228602
0.00102343
-0.000103044
0.00462703
-0.0409668
0.000900063
-0.156055
2.90293e-05
0.00291178
-0.154539
-0.0872851
-0.0385451
0.00673662
-0.000134257
-0.0925467
-0.0206475
-0.0527081
-0.000956476
-0.000388079
0.00775546
-0.0543305
-0.112289
0.00289037
0.0030086
0.00247195
-0.0055513
7.98829e-05
0.000675633
-0.0214417
0.00301714
-0.153546
-0.0410146
-0.0638809
-0.0112715
0.000644165
-0.00707615
-0.0106955
0.00384398
-0.0109528
-0.0559276
-0.0251321
0.00230989
0.00176135
-0.0138084
-0.0124047
0.00261492
0.00283162
-0.054445
-0.0512265
-0.0100643
-0.00541244
-0.0558358
-0.054983
-0.0024674
-0.00745212
0.00179522
-0.00523645
-0.00554483
-0.0101201
-0.0554303
-0.00616728
0.00188845
0.00178005
0.00197715
0.000613188
-0.00544426
0.0024043
0.0435939
0.00212416
-0.00696653
-0.0701047
-0.0724389
0.00132995
-0.0295772
-0.00830686
-0.0434133
-0.0413139
-0.0217026
0.00292281
0.00302658
-0.0102088
0.00200507
-0.000572015
-0.0554992
-0.00422872
0.00182164
0.00323023
-0.049569
-0.0269303
0.00208854
-0.129691
-0.0358464
-0.0253122
-0.0410678
-0.0491787
0.00119222
0.00181121
-0.00269843
0.00485196
-0.0432365
-0.0074072
0.00222477
0.00296623
-0.0410441
0.00116042
-0.135928
-0.0419072
0.00805133
-0.00302151
6.40118e-05
-0.0504007
0.00865357
0.0011815
-0.00119963
-0.0121157
-0.0382615
0.00296322
-0.0288955
-0.0436736
-0.0876955
-0.0133872
0.0171457
0.00208684
0.00138198
-0.02976
0.00245808
0.00292271
0.00113339
-0.0133925
0.00114224
-0.0852867
-0.0511558
-0.128482
0.0018812
0.00236582
-0.00781272
0.00207699
-0.0238766
-0.00045998
0.00258572
0.00237275
-0.00120427
-0.010077
-0.0512606
-0.0255307
-0.0364581
0.00414364
0.00262507
0.00134714
-0.0151371
0.00293459
0.00111884
-0.038676
-0.040847
-0.0382715
0.00225659
-0.108363
0.0043312
-0.0730241
-0.0521582
-0.0102623
0.00843948
-0.0571279
-0.0102844
-0.0183691
-0.0112738
-0.154863
-0.0524621
-0.0105389
-0.0304801
0.00746657
0.00226627
0.00286538
0.00144996
0.000302449
-0.00821589
-0.054065
-0.0227115
0.00345184
-0.13658
0.00408268
-0.152368
-0.0545824
-0.0427619
-0.04348
-0.0563014
0.00395433
0.00187907
-0.0448472
-0.0502966
-0.103704
-0.0282725
-0.0243237
-0.0284068
-0.0175908
0.00273266
0.00641552
-0.0193283
-0.0338547
0.00150599
-0.045917
-0.0193884
0.00307832
0.00700093
0.00192087
0.00323984
0.00760984
-0.0509955
-0.0208464
0.000701565
-0.00262616
0.00178353
-0.00198608
-0.0172696
-0.022877
-0.0468505
-0.00312522
-0.0542051
0.00245165
0.00165244
0.00230266
-0.0215101
-0.0523909
-0.0631944
-0.0452505
-0.0441427
-0.0549522
0.000680303
-0.000815107
-0.00861288
-0.00340442
-0.0425111
-0.0422342
-0.0133245
0.00485966
-0.0520478
0.00287624
0.00221624
-0.0562612
0.00672926
-0.0567652
0.00314883
-0.145991
0.000147145
0.00204635
-0.0231731
-0.00841273
-0.0332348
-0.0706038
-0.0372594
-0.00547286
0.00367688
-0.0449757
-0.0500463
-0.0502275
-0.00430415
-0.0125145
-0.0415323
-0.0520608
-0.013161
-0.00980337
-0.0405737
0.00285688
0.0184603
-0.00215017
-0.0416731
0.00250837
0.0025012
-0.000244582
-0.109439
-0.0515253
0.00213023
-0.015709
0.00815345
-0.0506699
-0.00579026
-0.0107067
0.00236331
0.00214891
0.00727004
-0.0119665
0.00451724
-0.0388218
-0.00344414
0.0036004
-0.0544844
8.58776e-05
-0.0826611
0.00157677
0.00021561
-0.13738
-0.112084
-0.0023099
0.00162529
-0.016661
-0.00540888
-0.00248147
0.00277355
0.0037212
-0.0279614
0.00391199
-0.092607
-0.0497053
0.00180781
-0.0168685
-0.048671
-0.0260328
-0.0912225
-0.0148258
-0.0736864
0.00194663
-0.0602677
0.00167779
0.00269955
0.00411451
7.43281e-05
0.00236034
0.0516077
-0.150043
0.00172599
-0.028287
-0.0398821
-0.0688853
-0.110345
-0.0501355
-0.0726839
-0.00640745
-0.0174303
0.00257119
0.00242192
0.00256496
-0.0116871
-0.0845705
-0.00225978
0.00817384
-0.0533239
-0.00106654
0.00765345
0.00297754
-0.00609542
-0.0553565
0.00180348
-0.0412589
0.00322336
0.00273179
0.0014453
0.00241304
-0.0113175
-0.0416536
0.00160433
-0.0104957
0.00243563
-0.0314385
-0.0341513
-0.0454267
-0.0463545
-0.0381945
-0.150591
0.00219892
-0.110349
-0.0454761
-0.0909337
-0.000341081
-0.0522111
0.00247254
0.00210779
0.00265991
-0.0208661
-0.0410596
0.00240803
0.00379928
0.00213448
-0.0536756
-0.00799004
-0.0105857
-0.0464454
-0.000102349
-0.145534
-0.0493359
-0.0638254
-0.0104761
-0.00937013
-0.0106101
-0.000853857
-0.00530383
0.00150666
-0.0477497
0.00266186
-0.00717433
0.00322888
0.000247321
-0.0104724
-0.097861
0.00514324
-0.0106375
-0.0837718
-0.000230658
0.00016118
-0.0554975
-0.0105221
-0.000871104
-0.0193523
-0.0157785
-0.00368604
-0.0801863
-0.000272785
0.0083347
-0.0268749
-0.106975
-0.106715
-0.012455
0.00018333
0.00688526
-0.0134662
0.00144637
-0.0505839
-0.0960809
0.00205608
-0.00241615
-0.0843264
-0.0442199
-0.0179779
-0.113393
0.00242053
0.0182706
0.00234543
-0.0248062
-0.00595798
-0.00577707
-0.00421653
-0.0592032
-0.00399136
-0.00789774
-0.0516147
-0.129011
-0.0631575
-0.000896752
-0.0277215
0.00507405
-0.00724866
-0.0919208
-5.55602e-06
-0.118601
-0.0131987
-0.0539549
0.00207086
-0.0457619
-0.00486376
-0.0124343
-0.00295867
-0.0105107
-0.0419301
-0.00746762
-0.0461923
0.0478314
0.00241189
0.00165859
-0.0445427
0.00142702
0.0403479
0.00161109
-0.0104718
0.00410599
-0.00298054
-0.0356743
-0.0383214
0.00423402
-0.00768718
-0.000691311
-0.0790711
-0.0449805
-0.0459274
0.00237053
-0.00780968
0.0183117
0.00344795
0.000679181
-0.0441486
-0.137607
0.00195426
-0.0513767
-0.00696346
-0.00449327
0.00253018
0.00300585
-0.0401286
-0.00414647
-0.0106176
-0.0595101
-0.0123602
0.00172956
-0.0440094
0.00251573
0.00642257
0.00179989
0.0065561
0.00224688
0.00225408
-0.00503708
-0.00238255
0.0164087
0.00167965
-0.0065929
-0.000371414
-0.00759199
0.00445755
-0.0105367
0.00246937
0.00252839
-0.0472593
-0.075932
0.00301057
-0.0389146
-0.0887922
-0.0465133
-0.0108474
-0.0184851
0.000736658
0.00282563
0.00207276
-0.0257632
-0.030356
-0.054752
0.00207721
-0.0850407
0.00286939
-0.0073357
0.00237058
-0.0767957
0.00251989
-0.0400878
0.00240438
-0.0959497
-0.0445568
-0.0428275
0.0016909
0.00184227
0.0041459
-0.045928
-0.00530295
-0.0434012
0.000501552
-0.0107801
-0.0109964
0.00400587
-0.0450341
0.00378121
0.00622756
-0.00718462
-0.0401066
0.00177512
-0.0366448
-0.0519509
-0.0484625
-0.0373314
-0.0190125
-0.00119422
-0.0439506
-0.0082891
0.00247838
-0.0123657
0.00110655
0.0022747
-0.0400862
-0.0476672
-0.0455701
-0.0836928
-2.36684e-05
0.00143747
-0.0330769
-0.0187131
-0.0560644
-0.0386693
0.00287647
1.05585e-05
-0.0568958
-0.00068361
0.00231156
-0.00692327
-0.00325845
0.00135865
-0.0463759
0.00187626
0.00160708
-0.00220408
-0.0512318
0.000989491
-0.106434
-0.0295654
-0.0513445
-0.00455772
0.00182209
0.004108
0.00298778
-0.0132124
-0.036589
-0.000101682
-0.128222
-0.000724925
0.0026239
-0.0489518
-0.0449618
-0.0118938
-0.0107551
-0.00409033
-0.0437647
0.00297882
0.00977324
0.00238461
-0.0107258
-0.051026
0.00234607
0.0017932
-0.00535035
-0.0553767
0.00351753
0.00382689
-0.0969124
-0.0104363
-0.0592308
0.000738514
0.00371953
-0.146961
0.0213035
-0.0153093
-0.000540518
-0.00832848
-0.00536752
-0.0251552
0.00233828
-0.0697531
0.00656962
-0.0453233
-0.0388312
0.00099528
-0.130885
-0.0488149
-0.0183943
0.00265501
-0.0115441
0.00351254
-0.000860646
0.00679401
0.00205805
-0.002441
-0.0896292
-0.0415192
0.00587443
-0.0420539
0.00266492
-0.000208181
0.00792093
0.00169341
-0.0998813
0.00192405
-0.0665641
-0.0607442
0.00120697
0.00165345
0.00862874
0.00158131
-0.0561655
0.00286831
-0.0429251
-0.0109681
0.00175878
-0.0438033
0.00580585
-0.0438825
0.00261085
-0.0107862
-0.0483286
0.000366312
1.94279e-05
-0.0421554
-0.01202
0.00357073
-0.0301243
0.00205181
0.000164861
-0.0425006
-0.0947994
0.0033994
-0.0499786
-0.0408056
0.00592729
0.00576074
0.000993845
0.000137417
0.00226795
-0.0565394
0.00329933
-0.0278849
-0.0494611
-0.00265624
-0.0479671
-0.103105
-0.048684
-0.0189718
-0.0107678
-0.0508961
0.000642029
0.0058937
-0.0635316
-0.00324579
-0.0362291
-0.00944048
0.0120248
-0.0524726
-0.00699443
0.0073176
-0.0294193
-0.00248425
-0.0311564
-0.0398272
-0.0366051
0.00159623
0.00614008
-0.0443249
0.0418738
-0.0518733
0.00237622
-0.0435443
-0.0166743
-0.0244783
-0.0167082
0.00613523
0.00257898
-0.0899861
-0.0696986
-0.0187961
-0.0415134
-0.0252848
-0.0457941
0.00287617
-0.0494443
-0.0536865
-0.0497217
-0.154456
-0.00999656
-0.0401062
-0.0927578
-0.045228
-0.00698782
-0.0488844
-0.0440643
-0.00881932
-0.051485
0.00591085
-0.0288514
0.00153567
0.00127937
-0.000266888
-0.0244003
-0.138337
-0.00160682
-0.144546
0.00856719
-0.039103
-0.0228057
0.00252287
0.000478484
-0.0386115
-0.0264903
-0.0274214
0.0027688
-0.0875161
-0.00194154
0.00277461
0.00143868
0.0527528
0.00405621
0.000577681
-0.0110125
0.00144882
-0.00896591
-0.00598779
0.00432816
-0.107893
-0.0537127
-0.00916053
0.00574225
0.0163019
-0.00162535
-0.0593719
-0.00553552
0.00225662
-0.00745206
0.00254412
0.00607129
0.00222003
-0.0450115
-0.000118408
-0.035011
-0.0234893
-0.0505949
-0.0109106
-0.042505
-0.0105127
-0.00900455
-0.000200652
0.00264266
0.00787993
-0.0602635
-0.000551993
0.00135129
-0.0069983
-0.00743743
0.00239432
0.0229919
0.00014029
-0.121758
-0.0517231
-0.0493
-0.0821909
-0.0556633
-0.00421971
-0.00105685
-0.028979
-0.0547338
-0.0485102
-0.0437948
0.0012884
0.00247622
0.0442042
0.00265633
-0.00637494
0.00262212
0.00620617
-0.0538861
-0.0235689
-0.0497565
-0.0289345
-0.0392128
-0.0373702
-0.0482721
0.022053
0.00611615
0.00249665
-0.00432512
-0.00964046
-0.00705745
-0.0126443
0.00265366
-0.0184244
-0.105546
-0.00636585
0.0028176
0.0024807
-0.0101897
8.96842e-05
0.0022951
0.00282657
-0.0458541
0.0025126
0.0032259
0.00277102
0.000119156
-0.0415874
0.00355528
-0.0435653
0.048894
-0.0670643
0.0281358
-0.092031
-0.0536571
0.00282105
0.00256242
-0.00197241
0.0025037
-0.0119817
0.005405
0.0584929
-0.0073817
-0.043637
-0.0524092
-0.0122848
-0.0277417
-0.0419753
0.00205075
0.0017383
-4.51461e-05
-0.00488493
-0.0865278
-0.0433543
-0.0462308
-0.0539647
-2.48322e-05
-0.00675343
-0.028631
0.00288828
-0.0387097
0.00238911
-0.0424554
-0.0522002
-0.000638547
-0.133327
0.00235405
-0.0065521
0.0048881
0.00356988
0.000775155
-0.0420654
0.0104664
-0.0396067
-0.0547171
-0.0546035
0.00735593
-0.0521574
-0.0544065
7.49551e-05
-0.0257914
0.00203015
0.00170973
0.00221512
0.0106699
-0.00721874
0.00238134
0.00234661
3.51615e-05
-0.00857116
0.00390417
0.00163347
0.000840976
-0.0152066
0.000111443
0.00143276
0.000595553
0.000314132
0.000636119
-0.0531954
-0.025161
-0.0129646
-0.0298144
-0.0093019
0.00264749
-0.0228335
-0.00267027
0.00229054
-0.0803599
0.00275796
-0.0969227
-0.138559
-0.00832508
-0.00842367
0.00267436
-0.0214008
0.000496793
0.00276527
0.00151373
-0.0245602
0.00213574
-0.0242922
-0.0499014
-0.0585286
-0.0901181
0.00263594
-0.00717785
-0.0975538
0.0247928
0.00274768
0.0225296
0.0152956
-0.134897
0.00262346
0.00593075
-0.0692812
0.00210713
0.00336705
0.00483032
0.00496994
-0.0546974
-0.000758405
0.00620058
0.00387141
0.00343736
-0.00255991
-0.0463972
0.00288582
-0.0276003
0.00249109
0.0178638
-0.0669296
-0.00709625
0.0024271
-0.0179659
0.00168294
-0.105826
0.0060378
0.00288098
0.00616856
0.0019219
-0.00270231
8.0432e-05
0.00463487
-0.00861623
-0.0277215
0.000439082
0.00488216
-0.00686884
0.00693629
-0.00414373
-0.152915
-0.024001
-0.134508
0.0215349
0.000135808
0.000896836
0.00307181
-0.124356
-0.0346396
-0.0435349
0.00116734
0.0020983
-0.0975502
0.00112316
-0.0256324
-0.00351206
-0.0366827
-0.0224099
0.00288631
0.0041961
0.0022278
-0.0423048
-0.0876895
0.00195365
0.00157645
-0.0299463
0.00156408
-0.0128836
0.00231628
0.00210466
0.0129524
-0.138021
-0.00667261
-0.0587424
-0.0489997
-0.0576028
-0.00257278
0.0021096
-0.00636528
-0.0433385
-0.0554168
-0.0395506
-0.00632423
-0.00496004
-0.154009
8.04984e-05
0.00266216
0.00409968
0.00351139
0.00109167
-0.0104199
-0.0491044
-0.109723
-0.033882
0.00199567
0.00410002
-0.0420124
0.00279757
0.00166208
0.000111731
0.00116929
-0.0210698
-0.00362846
-0.0877433
0.00210051
-0.0476014
-0.0106973
-0.00828712
0.00207592
0.00374358
-0.0293317
-0.0395053
0.00307516
0.00264923
0.00194769
-0.0242293
-0.0435905
-0.00236951
-0.00580098
-0.0397289
-0.0255099
-0.0294276
-0.0466871
-0.0439974
-0.0076232
0.00801724
0.0135617
-0.0916074
0.00132495
-0.00679772
-0.00188436
-0.00262978
0.00385278
-0.0919155
0.00225705
-0.0288741
-0.0529161
-0.0148308
-0.113965
-0.100299
-0.0125011
-0.0477443
0.0231449
-0.0421759
-0.0373037
-0.0527913
-0.0451533
0.00235245
-0.0368027
0.00464599
-0.0197368
-0.0492123
-0.0548229
0.00367485
0.00130795
0.00267047
0.0491127
0.00697468
-0.00649104
-0.04882
0.057179
-0.0279533
-0.00423887
-0.0573119
-0.0473456
-0.14848
0.00464054
-0.00548055
-0.0429278
0.00215307
-0.10158
0.00248213
-0.0854562
0.00659286
-0.159812
-0.0284318
-0.0964422
0.000270827
-0.0518055
0.00244115
0.00118071
-0.0196524
0.00419379
-0.0374648
0.00052178
-0.0270506
-0.0286337
0.00233848
0.00264155
-0.0531339
0.00186582
-0.0070261
0.000770856
0.00409952
-0.0297598
0.00351997
-0.0439281
0.00580317
0.00361464
-0.0461932
-0.00800223
-0.0703119
-0.0457389
0.00200872
0.00164127
0.00522384
-0.120379
-0.0446162
0.00239116
-0.042608
0.00343437
0.00527153
-0.00624302
-0.0291933
0.0164728
-0.0404206
0.0114494
-0.0372212
-0.0998051
-0.0147047
-0.0194689
0.00196421
0.00264913
-0.0426171
0.00331369
-0.00185059
-0.0227908
0.00156201
-0.0965819
-0.0352493
0.00196321
-0.0169489
-0.029378
-0.0918148
-0.0435946
-0.000288606
-0.0472135
0.00617561
0.00237848
-0.0118642
0.0023377
0.00249275
-0.0440612
0.0114152
-0.120571
0.00263558
0.0025263
0.000561328
0.00466645
0.00224649
-0.108769
0.00409954
0.00550909
0.00490971
0.00201589
-0.00818959
-0.0196211
-0.00979537
0.00225027
0.00267015
0.00160679
-0.0569749
-0.170695
-0.0436179
-0.0105462
0.00256847
-0.0797299
-0.0128657
0.0354378
0.00268715
-0.0878916
0.00420379
-0.0464181
0.00246527
-0.0291347
-0.108031
0.00804527
-0.0772119
0.0101436
0.00517895
-0.00332087
-0.0108766
0.00366973
-0.0103068
-0.0875252
-0.0581756
-0.0245424
0.00203965
-0.135623
-0.000654385
-0.0411714
0.00405622
-0.0356482
-0.0555819
-0.0098117
0.00413234
-0.0279327
0.00146025
0.00205098
-0.00498733
-0.0118822
0.00246902
-0.0894194
-0.0470242
0.00276583
0.013323
-0.0543558
0.00155055
-0.10964
0.00247088
0.00265128
-0.0685548
-0.0252819
-0.145842
0.00341228
-0.00613947
0.00241115
0.0360878
0.0138125
0.00374694
0.00214074
0.00413265
0.00259919
0.00423007
0.0153553
0.00296323
-0.0350226
0.00201821
-0.0114371
0.00112978
0.00243197
-0.00842514
0.00218217
-0.0497059
0.0045864
0.00564298
0.00257986
4.45241e-05
0.00422685
-0.0418939
0.00360585
-0.0932565
0.000168241
-0.0193749
-0.139193
-0.0883093
0.00270504
-0.0822016
-0.00195263
-0.0633321
-0.0319358
-0.0479187
-0.0884084
-0.0414607
0.010909
0.00178035
0.00294561
-0.0441426
-0.0568946
0.00516711
-0.039238
-0.0398092
-0.0444264
0.00252965
-0.00939266
-0.00535671
-0.0301126
-0.0081117
-0.00582368
0.00261638
-0.0646933
-0.0939437
-0.0194136
-0.000507402
-0.0712064
-0.0037645
-0.0444133
-0.0110938
-0.00189225
-0.00359863
-0.0434371
-0.00134506
-0.0473693
-0.0299312
-0.00413269
-0.0439626
-0.0491189
0.00262443
0.00127379
0.0026326
-0.00648751
-0.0433389
-0.139345
-0.0216959
-0.101669
0.00106055
-0.00918719
0.00200703
0.00233576
-0.00621536
-0.069114
-0.0275906
-0.00702521
-0.00787601
0.00661379
0.00330445
-0.0574418
-0.00492132
-0.0645518
-0.0329273
0.0196423
0.00240294
-0.0437945
-0.0567675
-0.0400016
-0.0249299
0.00255197
-0.00950256
-0.0863473
-0.0328538
-0.0925302
-0.00393939
-0.0655765
-0.0176274
-0.098284
-0.0532447
0.00182063
-0.0399069
0.00403587
0.000110419
0.00632809
0.00295914
0.00235019
0.00360689
0.00287663
-0.00579245
-0.0147134
0.00251121
-0.0447365
0.00740396
-0.0674952
-0.033055
-0.0705132
-0.0410787
-0.0332228
-0.142456
-0.00550115
0.0068128
0.00129834
0.00654562
-0.136895
-0.161355
-0.0199908
-0.0515195
0.00587603
-0.0931512
0.00284717
-0.0264298
-0.00107058
0.00418788
-0.00257946
-0.0461622
-0.00300065
-0.00387401
0.00203694
-0.103925
-0.000970335
0.00657461
0.0062089
-0.00818073
-0.0335002
-0.0574476
0.0375097
-0.0981508
5.71762e-05
0.00194729
-0.0670966
-0.018889
-0.137108
0.00416394
-0.0159315
0.00371046
-0.0534757
0.00268695
0.00218803
-0.0104712
-0.0284516
-0.0104175
0.00304895
-0.0160282
-0.0207173
-0.0104087
-0.0156295
-0.0169033
-0.0108164
-0.0956226
-0.000248393
0.00300075
0.00208894
-0.00382628
0.00269881
0.00718479
-0.0140426
0.00229759
0.000238308
-0.0105789
-0.037024
-0.0318724
0.00393955
-0.0182237
-0.00591212
-0.00525292
-0.0437829
0.000122052
-0.04182
0.00339528
0.000912191
0.00377014
-0.00883496
-0.0609772
0.0429792
0.00305387
0.00347874
0.0147581
0.0133796
0.00259321
-0.0438343
-0.08809
-0.14901
0.00234036
-0.100973
0.00410154
-0.0470698
-0.0609256
0.000594645
-0.0461412
-0.047639
-0.0459114
0.0483428
-0.0240085
0.00303542
-0.0159798
-0.0137574
-0.102283
-0.00909437
0.00601068
-0.00244492
0.0017331
0.000295253
0.00263347
-0.144969
-0.00267969
0.00247508
-0.014778
-0.0503891
-0.0145567
0.0243849
0.00365361
-0.0275269
0.00965121
0.00295843
-0.0510783
-0.00881857
0.00237607
-0.0445766
-0.00930049
-0.0923349
0.000592417
0.0453322
0.00384361
0.00385345
-0.00602636
-0.00756212
8.58606e-05
0.00354422
0.00157949
-0.030593
-0.0373954
-0.00132375
-0.185841
-0.0485867
-0.00185549
-0.00165981
-0.00486661
-0.0195617
-0.0490156
-0.0301142
0.00945722
3.87523e-05
0.0022434
0.00353216
0.00305996
-0.0424669
0.00181751
0.0173758
0.00212682
0.00247442
0.00613731
-0.120385
-0.0358442
-0.00838235
0.0126725
-0.124443
-0.00380513
-0.00707827
-0.049235
-0.0150682
0.0107043
0.00618572
0.0440442
0.0101624
-0.000112607
-0.108802
-0.00479767
-0.0165682
0.00255687
0.00358827
0.00204409
0.00217033
0.0023951
-0.0923747
-0.0465965
-0.0197134
-0.0135655
-0.123675
0.00282384
0.00390394
0.0103255
-0.00492659
0.00578399
-0.00738701
-0.0088789
-0.0334803
-0.013369
0.00203493
0.0238382
-0.0397955
-0.0403917
-0.150069
-0.0196105
-0.00490056
-0.0141701
-0.0894757
0.00594469
0.00200151
-0.0725216
0.00400578
-0.000410707
-0.0464008
0.0026128
-0.0194686
0.00249447
-0.0638221
0.00216913
-0.0190116
-0.0441627
0.00294035
-0.0232546
-0.000449672
-0.101389
0.00255112
-0.130845
-0.0518991
-0.0411384
-0.0432659
-0.0302574
0.00236928
0.0191041
0.00591763
0.00644485
-0.000766163
-0.061282
0.00445722
0.00665294
-0.00927827
-0.00499246
0.00647751
0.00220239
0.000823595
-0.0184249
0.00294864
0.00247365
0.00372895
0.00292453
0.00292978
-0.0911803
0.00247927
-0.0208194
-0.068839
-0.00720897
-0.0596935
0.00106967
-0.00411867
0.00249154
-0.0216534
0.0133205
0.0091087
-0.0294636
-0.0424774
-0.0439176
-0.0269041
0.00171841
-0.0735385
0.0062535
0.00215702
-0.110569
0.00223058
-0.00558066
-0.0159979
0.00101581
-0.0265789
0.000180101
-0.0026658
0.00266679
0.00250885
-0.0529077
-0.0395379
0.00676284
0.003712
0.00671332
0.00247701
-0.0539813
0.00214408
-0.0225494
-0.0438117
-0.0745193
-0.0350722
0.00567196
-0.0584082
-0.088397
0.00263693
-0.00118361
-0.000952988
-0.0202048
-0.0874575
-0.03386
-0.00131725
0.00147167
-0.00569323
-0.139451
-0.043718
0.00719426
-0.0192687
-0.0380378
0.00215879
0.00251697
-0.00258415
0.0288855
0.00579208
0.00114328
0.00140259
-0.0517133
-0.0472676
-0.0624631
-0.0210876
0.00610039
-0.019934
-0.0181052
0.00186948
-0.018224
-0.0403206
0.0024674
0.00168382
0.00685746
-0.000782082
-0.0198284
0.00138707
-0.0585679
-0.0203592
0.00141538
0.00305097
-0.00603011
0.00522542
-0.153596
-0.0310338
-0.0884548
0.00364131
0.00236161
-0.0480494
0.00107141
0.00234586
-0.030131
-0.0288329
-0.0141429
0.00241565
0.0030545
-0.0430548
-0.0441135
0.00175347
-0.0189938
-0.0421178
-0.0233772
0.00124338
0.00280877
-0.0374148
-0.0381123
-0.0683811
-0.00158185
0.00191777
-0.0466026
0.00165245
-0.00409591
0.00171431
0.0604627
-0.0117976
0.0139612
-0.0116617
0.000257625
0.00253176
-0.00184736
-0.0204719
-0.0258213
-0.190664
-0.0465806
-0.00234643
0.00245068
0.00235007
-0.0106049
0.00950299
0.00264264
0.0530276
-0.00527495
-0.0529243
0.00313949
0.00686479
0.00148078
-0.0100746
-0.00351605
-0.000771126
-0.0058336
-0.000885223
-0.0108813
-0.000695453
-0.0226564
-0.0603764
0.00422625
-0.049013
0.00160953
0.00226587
-0.124023
0.000593001
0.00256615
-0.0937333
0.00281511
-0.0605407
-0.00565198
0.00244732
-0.0558362
-0.0193195
0.000470982
-0.00398073
-0.00967913
0.00281367
-0.0161172
-0.0502254
-0.0325056
0.00267829
-0.0594074
-0.129421
-0.00972383
0.00242041
0.00388713
-0.0106289
-0.0202151
-0.0375012
-0.0185155
0.00744933
-0.052843
-0.0329842
-0.087315
0.032366
0.00486059
-0.0291826
-0.0355959
0.00240624
0.000664247
-0.0413736
0.00168479
7.31925e-05
-0.0286056
-0.0569381
-0.0914441
-0.0188283
-0.0105524
-0.0186078
-0.0303708
-0.0715636
-0.0293705
-0.0156128
-0.0408985
0.00446624
-0.00921835
0.00193667
-0.0140091
-0.00684648
0.00140152
0.00162136
0.00410794
0.00159319
-0.0414422
-0.0178391
0.00405507
0.00270109
-0.0446032
-0.011815
-0.0437999
-0.0202928
-0.00709433
0.0309897
0.00429719
-0.017918
0.00188045
0.00219195
-0.07234
0.00284732
-0.0111644
-0.0635263
0.00196799
-0.113711
0.000523544
0.00379409
-0.0219691
-0.000991619
-0.0404708
-0.00555505
-0.0480223
-0.00416822
0.0023534
0.00192563
0.00186493
0.00157646
-0.0465726
-0.0430393
-0.0061238
0.0202025
0.00224774
-0.0408872
0.00193794
0.000755687
0.00265119
-0.00416146
-0.0277356
0.00184787
-0.0107627
-0.0161224
0.00262489
-0.00436054
0.0498393
-0.0366087
0.00126833
-0.00625779
-0.0372245
-0.140492
0.00314869
0.0230128
0.00319557
0.00266867
0.00705642
-0.0891321
0.00398871
-0.00395104
-0.0405097
-0.0183354
0.00316507
0.000825623
-0.0779714
-0.0262213
-0.0414222
0.000121782
0.00155378
-0.0431927
0.00263443
-0.00577521
-0.10554
0.00253143
-0.0908661
-0.0890914
-0.0606683
-0.00543089
0.00325284
-0.141778
-0.0878078
-0.0106068
-0.0193588
0.00120625
0.00265402
-0.0898163
-4.3302e-06
-0.0118797
0.00239157
-0.0537898
-0.0395038
-0.0286596
0.0073085
0.00193279
0.00313828
-0.020062
0.00718589
0.00658177
-0.0814627
0.0199086
0.000386903
0.00540501
-0.0342739
-0.0146929
0.00310836
-0.0169351
0.00230671
0.00339786
-0.0414989
0.000639889
0.00291598
0.00492643
-0.0505386
0.0018037
-0.0445614
-0.0599227
0.00230536
-0.122627
0.000381827
-9.24424e-05
0.0012078
-0.00334772
-0.0403691
-0.00635737
-0.00415244
0.00684283
-0.0530756
0.00252877
-0.00300144
-0.00335188
0.00222387
0.00787336
-0.0452031
0.00240982
-0.0544238
7.10401e-05
0.00435222
-0.0255875
0.00449865
-0.0434479
-0.0275526
0.00126124
-0.016911
-0.0656561
-0.000839086
0.027861
-0.00337939
-0.0253132
0.00281187
0.000741267
0.00189358
5.16607e-05
0.00483644
0.00278722
-0.0573179
-0.00450298
0.00196773
-0.0505119
0.00804736
-0.00941522
-0.0166395
-0.00489844
-0.0221148
-0.0185587
0.00260177
-0.0202955
0.00782216
0.000410956
-0.13816
-0.0390019
-0.0815155
-0.0947787
-0.00444325
0.00213357
-0.0552794
-0.00204824
-0.145976
0.00208339
-0.0577999
-0.0122036
-0.0878882
-0.0112558
-0.0191992
-0.00376696
0.00407749
-0.0517003
0.00292491
0.0120756
-0.00651385
-0.0455014
-0.00377092
0.00266917
0.00123333
0.000540765
0.00237434
-0.0083536
-0.050683
0.000342608
-0.0227776
-0.0879225
0.00761002
0.00707351
-0.0240404
-0.0270876
-0.0410076
0.00360473
-0.0185459
0.005263
-0.0455771
-0.0361831
0.00290262
0.0040995
-0.045781
-0.0166784
-0.0144222
-0.0172728
0.000287187
-0.0103964
-0.0453458
-0.0546818
-0.181364
0.00203942
0.00424233
-0.0350214
0.00306531
-0.0533093
0.012486
-0.116208
-0.113505
0.00236372
-0.0154631
0.00177464
0.040032
0.00766628
0.00448731
-0.00512169
0.00913162
-0.0282299
-0.0919298
-0.0017061
-0.0519639
0.00481041
0.00877454
-0.0615405
-0.00139529
-0.102352
-0.051766
-0.0493013
-0.0327438
-0.052436
0.00235959
-0.0195356
0.00382824
0.00265747
0.00253757
-0.0438979
-0.123892
-0.133755
0.00233951
-0.046164
-0.00393587
0.0336503
-0.0227647
-0.00390872
0.00184984
0.00409487
0.00630588
-0.0101398
0.00248848
0.00417626
0.000267171
-0.139292
-0.0507243
0.00200031
-0.0119733
0.000340191
0.00556158
0.00626176
0.00494944
0.00622844
-0.0200073
-0.0250002
-0.0107047
-0.0796488
0.00253665
0.000248502
-0.0131935
0.00148234
-0.00469794
-0.00317514
0.00284448
0.0024247
-0.0887389
-0.00129187
-0.0129437
0.00024692
0.00225947
0.00717907
0.00437884
-0.0242659
-0.00155812
-0.0143369
-0.00663128
0.00148885
0.00193363
0.00666891
-0.0572585
-0.00459528
-0.0516483
-0.0542986
0.00109891
0.00168956
-0.0838332
-0.00478051
0.00041455
-0.0336069
-0.0414031
0.00238198
0.017626
0.00276876
0.00175335
0.00498237
0.00225374
0.00247208
-0.112007
-0.0397941
0.00326028
-0.0105946
0.0244958
0.00386374
-0.00622582
-0.0156975
-0.00944932
6.26603e-05
-0.00138789
-0.0421896
-0.0204514
-0.0038504
-0.053152
-0.0274394
0.00501743
-0.0485847
-0.0152659
-0.067554
0.00125968
-0.0181113
0.00325304
0.000625835
-0.00691788
-0.051475
-0.0478759
-0.0267114
0.00433817
-0.0196767
0.0112493
0.00752544
0.00309225
0.00230668
-0.000908577
-0.0225737
0.00202366
-0.0265934
-0.105607
0.00214568
0.0032047
-0.0238706
0.0028232
0.00554101
0.00318244
-0.0225676
-0.0140771
0.0344078
0.00209317
0.055996
0.00369462
-0.00563908
-0.00375562
0.00248248
-0.000802618
-0.0349353
0.00270346
-0.0438449
-0.000613483
0.0038582
0.00401985
0.013559
-0.051762
0.00250324
0.0057202
0.00263409
-0.0231418
-0.00956658
0.00187702
-0.000384748
-0.00474081
-0.129139
0.00266287
0.000665451
0.00275977
-0.0180497
0.00142689
-0.0166427
-0.0448803
-0.0430898
0.000430956
0.00205471
0.00254296
-0.0010423
-0.00898144
-0.0213995
0.0164412
-0.0335668
0.00598104
0.0024348
-0.0487148
0.00114871
0.00226072
-0.00349877
0.00278995
0.0286003
0.00188148
0.0142274
0.00416291
-0.0136885
0.00382246
-0.104117
0.00281429
0.00248262
0.0535878
0.00236722
-0.00343738
-0.0513177
-0.0546803
-0.0184385
0.00149969
-0.0427478
-0.0532882
0.0237827
-0.0088172
-0.0183948
0.00318172
-0.000215823
0.00458369
-0.0323596
0.00108784
-0.0378446
-0.0238919
-0.0880909
0.000826273
0.00449594
0.0444731
0.00853761
0.00167608
-0.0545876
-0.0197749
-0.0366579
-0.0249894
-0.0299859
-0.00632801
0.00419388
-0.028408
-0.0885466
-0.0590815
-0.0180759
0.00205717
0.00245918
-0.0056437
-0.00810217
0.000717999
0.00581009
-0.0038038
0.00575424
-0.00642067
-0.0538156
0.0370501
0.000744079
0.00275229
-0.0523765
-0.0269948
-0.00402969
0.00124606
-0.0152974
-0.0475887
0.00172788
0.00588076
-0.0926265
0.00379619
-0.0986377
0.00251735
0.00427641
0.00192317
-0.00804179
-0.0338376
-0.00293454
0.00145137
-0.0126195
0.0020866
0.00293158
0.00454502
-0.073936
-0.0019909
0.00137703
0.000874607
-0.0561177
0.00223772
-0.170484
0.00615394
-0.0237047
-0.0458637
-0.00251678
-0.00410593
0.00297438
0.00446996
-0.16766
0.00371996
0.0158547
-0.0142178
-0.000870089
-0.135573
-0.014753
-0.0529854
0.00665365
0.000524963
-0.0414248
-0.0295891
0.00266249
0.00139463
0.00140852
0.0140139
0.00176886
-0.0125207
-0.0310872
0.00226155
0.00932683
0.00923753
0.000307915
-0.0529424
-0.0367294
-0.041822
0.000657804
0.00331915
0.00923458
-0.0447919
0.00252656
-0.154827
-0.0542211
0.00764612
0.00181661
-0.0180281
-0.0728833
-0.0445258
0.00190867
-0.0393127
-0.0441609
-0.0540041
-0.0511477
-0.0478521
-0.0280244
-0.0390714
-0.0104473
0.00555961
-0.0167838
0.00245455
-0.00246359
-0.0198816
-0.154023
-0.00354134
-0.0228075
-0.0116655
0.00284169
1.53195e-05
0.000533626
-0.00263329
0.0439591
0.00213928
2.50007e-05
0.0549738
-0.0139671
-0.00276821
-0.00883461
-0.000839485
0.00621644
-0.0152186
-0.0374159
-0.0410512
0.00228464
0.0033879
-0.00606554
-0.0211279
0.0421491
0.00241265
-0.00531953
0.00437572
0.00229052
-0.0169769
-0.018162
0.00233216
-0.0436569
-0.0515986
-0.0948303
-0.0141126
-0.0645375
0.00246707
-0.0681319
0.00355002
0.00366756
0.00555541
-0.0260754
-0.0407806
-0.0420038
-0.163686
-0.0482702
0.00669537
0.00795266
0.0018952
-0.0556217
-0.0253906
-0.026276
0.00311764
-0.00505972
-0.00487578
0.00611622
-0.0321371
0.000558094
0.00941777
0.00240125
0.00293406
-0.0525705
0.00325223
6.0936e-05
0.00738937
-0.0761672
0.00597279
-0.0339852
0.00557774
-0.0195444
0.00154228
-0.0204944
-0.0278413
-0.0128791
0.00230605
0.000617283
0.000347524
0.000101348
-0.00259383
0.00169923
-0.00102796
-0.0121859
-0.000787326
-0.0433351
-0.00295831
-0.0862426
0.00177898
0.00836378
0.00260131
0.00229221
-0.00370537
0.00315863
0.00264704
-0.0102415
-0.0386693
-0.090223
-0.0471096
0.00138047
0.00389798
-0.0233496
0.0025266
-0.0388481
-0.0379431
0.00323202
-0.0071939
-0.00932098
0.00265703
-0.0586533
0.00378613
-0.061673
-0.0171774
-0.0485455
-0.0141933
-0.0244272
-0.0231205
-0.0523161
0.00036509
0.0023992
-0.0018668
-0.10539
-0.00295524
0.00324967
0.00195331
-0.00842781
-0.00874686
-0.0519831
0.00453245
0.00266851
-0.0505989
-0.0183685
0.0022635
0.0012735
-0.0573328
0.00648911
-0.0579869
-0.0962219
-0.045973
-0.053958
-0.0168432
-0.000777167
0.00580763
-0.0164685
-0.00230008
0.00179836
-0.0275463
0.00180946
-0.117193
0.000366262
0.00247055
0.00238724
-0.0166132
-0.0489326
-0.00775097
-0.0598058
0.00389934
0.00551131
-0.011919
0.00504054
-0.00202538
-0.14201
-0.00488453
0.000514533
-0.00341151
-0.00913276
9.74626e-05
-0.00771461
-0.0103393
-0.0165698
-0.00263588
0.0505677
-0.134995
0.00439087
-0.0157571
0.00404643
0.00249497
-0.0357596
-0.050322