/*--------------------------------*- C++ -*----------------------------------*\
| =========                 |                                                 |
| \\      /  F ield         | OpenFOAM: The Open Source CFD Toolbox           |
|  \\    /   O peration     | Version:  v2012                                 |
|   \\  /    A nd           | Website:  www.openfoam.com                      |
|    \\/     M anipulation  |                                                 |
\*---------------------------------------------------------------------------*/
FoamFile
{
    version     2.0;
    format      ascii;
    class       volVectorField;
    location    "200";
    object      U;
}
// * * * * * * * * * * * * * * * * * * * * * * * * * * * * * * * * * * * * * //

dimensions      [0 1 -1 0 0 0 0];


internalField   nonuniform List<vector> 
53008
(
(0.956421 -0.0463222 1.36561e-21)
(1.01171 -0.0498853 0)
(0.451038 -0.0125455 1.71701e-21)
(1.02418 -0.000846322 1.39361e-21)
(0.983202 -0.0528276 -1.59271e-23)
(1.00657 -0.000932296 1.62607e-24)
(1.01893 -0.009139 1.5446e-21)
(1.00535 0.000177715 -3.12815e-22)
(1.01727 -0.0331027 1.95577e-22)
(1.00786 -0.000777881 -9.52086e-22)
(1.00792 0.000821968 7.19606e-23)
(1.085 -0.0670185 -3.89834e-21)
(1.01347 0.00145072 1.31786e-22)
(-0.0154625 -0.102407 0)
(0.898912 -0.243737 1.46387e-21)
(1.12426 -0.0124793 -5.11159e-22)
(1.01494 -0.00042323 0)
(0.848985 -0.129416 8.51873e-22)
(1.07241 -0.0332101 -3.09274e-21)
(1.01093 -0.00473547 -3.92994e-23)
(1.01421 -0.00890333 -3.86708e-22)
(-0.051566 0.152347 1.64065e-20)
(0.851042 -0.130313 1.70502e-21)
(-0.016214 0.105789 -5.61653e-21)
(1.00774 -0.000777502 3.83273e-22)
(1.03524 -0.0402036 1.89207e-21)
(0.842787 -0.115999 -5.80457e-22)
(1.01249 0.00154537 -1.4094e-22)
(0.129303 -0.110827 8.04885e-21)
(1.02392 -0.000779994 2.45894e-21)
(1.07354 -0.0413914 0)
(1.01087 -0.00468993 -1.31235e-22)
(-0.159933 0.174393 1.44095e-20)
(0.999562 -0.0135815 3.93833e-22)
(1.00683 0.000398174 3.1439e-22)
(1.00696 0.000411976 0)
(1.00355 -0.000164405 8.47992e-23)
(1.02701 0.0602753 7.37907e-24)
(1.01583 -0.0108794 2.15959e-22)
(0.377741 -0.0189247 3.40779e-21)
(0.363429 -0.239459 -8.58378e-23)
(0.477051 0.0973376 0)
(1.01372 0.00223745 0)
(1.00966 -6.81876e-05 0)
(0.0100755 -0.130186 -1.09315e-20)
(-0.0573431 0.148604 -1.22282e-20)
(0.328212 -0.00159228 5.45609e-21)
(0.982849 -0.0588701 6.01748e-22)
(1.03426 0.0533835 0)
(0.373216 0.00900147 0)
(1.04168 -0.0371783 -2.64272e-21)
(0.734262 -0.0302055 0)
(1.00424 -0.00023699 -1.49663e-22)
(1.02693 -0.0298314 -8.87691e-23)
(0.996507 -0.00818095 8.65125e-22)
(1.07237 -0.0704656 -1.15166e-20)
(0.458207 0.0487902 4.25357e-21)
(1.01629 -0.00301191 -2.34299e-22)
(1.00992 -0.000559305 2.7181e-22)
(1.00176 3.45496e-05 1.66518e-22)
(1.01603 -0.00568593 0)
(1.00902 -0.00260458 -1.74964e-24)
(1.0162 -0.0135893 2.0846e-23)
(1.04251 -0.0372906 0)
(1.00995 -0.000580006 0)
(0.522859 0.109623 -7.30825e-21)
(0.578717 -0.0463968 0)
(1.08669 -0.0545986 0)
(1.02935 -0.0186906 -8.14478e-22)
(1.01027 -0.00400809 -1.13694e-22)
(1.01753 -0.00541072 0)
(1.01993 -0.000395176 3.25727e-21)
(1.00852 0.00347978 0)
(1.02047 -0.00109337 2.81829e-21)
(1.07959 -0.050697 -3.27034e-21)
(1.04623 -0.033735 -2.10218e-21)
(1.00536 0.000185559 0)
(1.00896 -0.00255504 1.44979e-22)
(1.03454 -0.0397894 2.62568e-22)
(1.02647 -0.00948299 0)
(1.00774 -0.000806217 4.12527e-22)
(1.01026 0.000231254 0)
(1.07298 -0.0698914 -5.05798e-23)
(1.07428 -0.0416217 0)
(1.01934 -0.00179785 8.53274e-22)
(1.02834 -0.028266 2.63012e-22)
(1.07961 -0.0565794 1.80799e-20)
(1.07889 -0.0530094 5.95335e-21)
(1.02684 -0.0323016 0)
(1.01697 -0.00379231 0)
(1.00638 0.000469424 0)
(1.01552 -0.00539136 -4.82918e-22)
(1.02094 -0.0133379 1.253e-21)
(1.01939 -0.00171729 0)
(1.07927 -0.0529237 0)
(1.03722 -0.131845 -1.37067e-21)
(1.00965 -0.00304308 1.56645e-22)
(1.00643 0.000482992 0)
(1.01353 0.00140471 0)
(1.01017 -0.00393106 1.63648e-22)
(1.01603 -0.00585263 -3.04734e-23)
(1.00167 3.29322e-05 0)
(0.857772 -0.117653 0)
(1.01251 0.00154898 1.36713e-22)
(1.01742 -0.00546654 1.30312e-21)
(0.958644 -0.0491465 -3.94964e-21)
(1.0793 -0.0663577 -6.22235e-21)
(0.0782759 0.0563015 -6.83186e-22)
(1.04921 -0.0190002 0)
(1.08673 -0.00929997 -6.72947e-22)
(0.518643 -0.0171995 -1.53503e-21)
(0.535356 -0.0443739 -7.52762e-21)
(0.638452 0.248761 0)
(1.00977 3.56518e-05 2.41911e-22)
(1.01492 -0.0215702 0)
(1.02452 -0.0107988 0)
(0.933586 0.00805716 0)
(1.02675 -0.0296917 9.19396e-23)
(1.07938 -0.0565162 -1.17913e-21)
(1.03129 -0.123021 1.31067e-21)
(1.00639 0.00046417 1.98932e-24)
(1.0148 -0.0105692 -3.33956e-22)
(0.941161 -0.072368 0)
(1.04804 -0.0462791 -4.64173e-21)
(1.00921 0.000753434 0)
(0.628923 -0.0501122 1.6782e-20)
(0.842551 0.203435 -4.66765e-21)
(1.0267 -0.133975 4.84229e-21)
(0.417052 -0.00294469 0)
(1.07167 -0.0332462 2.901e-21)
(1.00985 0.00128843 1.88332e-22)
(1.00644 0.000481514 2.51485e-22)
(0.662446 0.288441 0)
(1.02197 -0.0282199 0)
(0.56388 -0.0446087 0)
(1.01684 -0.00367724 -6.26073e-22)
(1.00006 3.83987e-06 3.33752e-22)
(1.01767 0.00127972 -2.41757e-22)
(0.520089 -0.04235 -2.58994e-21)
(1.00982 0.0013003 1.74861e-22)
(-0.0180315 -0.106175 0)
(0.554978 -0.0482126 -4.65959e-21)
(0.992892 -0.00495675 0)
(1.00694 -0.00033878 0)
(1.00808 0.000625915 9.84891e-24)
(1.07337 -0.0406069 3.66491e-21)
(1.00174 -0.0324269 -1.48774e-21)
(1.01189 -0.0482414 1.01726e-22)
(1.00309 -0.000163579 9.12364e-23)
(1.02425 -0.00573839 0)
(0.38486 -0.00999948 0)
(1.01015 1.99209e-05 -3.50937e-22)
(1.04818 -0.0712724 3.43298e-21)
(0.48064 0.0143514 0)
(-0.0680724 0.146174 7.22387e-21)
(1.03439 -0.0284534 -3.7381e-21)
(0.936626 -0.0484829 0)
(0.349061 0.122547 -1.30427e-23)
(1.00663 -0.000982201 0)
(1.04952 -0.0195713 3.56964e-21)
(1.00936 0.000642136 0)
(1.00962 -0.000112893 -4.05853e-22)
(1.00772 0.00078716 -7.98665e-23)
(1.02609 -0.00592621 0)
(1.00781 0.000811931 2.36485e-22)
(-0.0212847 0.100916 0)
(1.07778 -0.0537101 0)
(0.65282 -0.0851277 -1.2986e-20)
(1.00648 0.000461985 6.61369e-23)
(1.00616 -0.000508324 -1.96593e-24)
(1.0225 -0.0550363 1.81526e-22)
(0.365544 0.12573 1.47386e-22)
(1.04007 -0.00491043 -6.04907e-21)
(0.970742 -0.109382 -8.39763e-23)
(1.00763 -0.000802434 0)
(1.00955 0.000621101 -2.01785e-22)
(1.00386 -0.000180023 -2.68066e-22)
(1.02422 -0.0105836 -9.99478e-22)
(1.07757 -0.053965 0)
(1.04654 -0.0332631 4.86615e-21)
(1.05914 -0.0549855 7.27096e-21)
(1.01818 -0.0328181 6.62801e-22)
(1.0089 0.000206064 1.90073e-22)
(1.00655 -0.000896817 0)
(1.04241 -0.191965 -3.4342e-21)
(1.00984 9.55416e-06 2.04998e-22)
(1.00718 0.000631129 2.35321e-22)
(0.386568 -0.0110678 -3.93098e-21)
(0.3689 -0.0164542 0)
(0.404889 -0.0092751 1.81642e-21)
(1.00615 -0.000579749 2.04309e-22)
(0.164471 0.155326 0)
(1.0246 -0.0275254 0)
(1.05567 -0.0653352 0)
(0.750644 -0.031038 0)
(1.0196 -0.00174518 0)
(0.838447 0.163455 1.10939e-21)
(1.09336 -0.0594149 0)
(1.01961 -0.00165439 0)
(0.959537 -0.277015 -2.27462e-21)
(1.0232 -0.00601299 6.65438e-22)
(0.0162668 -0.120143 -1.27613e-20)
(1.08336 -0.0645607 -2.11804e-21)
(1.01972 -0.000884682 1.38369e-23)
(1.03569 -0.135286 0)
(1.00684 -0.0250385 7.92119e-22)
(1.00612 -0.000563522 0)
(1.01486 -0.0108508 3.62872e-22)
(0.927747 0.151415 -1.20023e-22)
(0.383922 -0.240158 1.50835e-22)
(1.02241 -0.0566967 5.23253e-22)
(1.07823 -0.0542073 0)
(0.906318 0.177716 0)
(1.01475 -0.0105059 -3.77978e-22)
(0.0788616 0.0618736 0)
(1.01426 -0.00897964 8.9298e-22)
(-0.0228105 -0.102096 -1.71269e-20)
(1.07858 -0.0536575 0)
(0.55435 -0.0474115 7.57912e-21)
(0.53772 -0.0464413 0)
(1.08001 -0.0559107 -6.59364e-22)
(1.01412 -0.00889534 0)
(1.00956 -0.00297222 -3.23312e-22)
(0.955985 -0.0674947 0)
(1.07641 -0.0576123 -6.47447e-21)
(0.44282 0.011446 -6.21007e-21)
(1.04967 -0.0473343 -3.18212e-21)
(0.903609 -0.245872 1.48869e-21)
(1.04976 -0.0462796 3.28899e-21)
(1.03616 -0.0193138 -1.95341e-21)
(1.00951 0.00014462 1.95821e-22)
(0.837675 0.179654 -5.25773e-22)
(1.03401 -0.00454635 -3.61939e-21)
(0.866599 0.236825 6.16308e-21)
(1.01301 -0.00734275 0)
(1.06614 -0.0553948 0)
(1.0348 -0.00775694 -1.68083e-21)
(1.0148 -0.0108307 4.19675e-22)
(1.00887 -0.0362008 -3.96935e-22)
(1.01258 0.00130811 -1.25434e-22)
(1.00236 0.00723741 0)
(1.00843 -0.0256562 -1.08936e-21)
(1.07824 -0.0582581 1.38527e-20)
(0.892916 0.170276 -3.29388e-21)
(1.01007 -0.00383292 9.36856e-24)
(0.81504 0.0199849 4.85326e-22)
(1.00906 -0.00262928 0)
(1.01005 -0.00130411 -2.99683e-22)
(1.03588 -0.0195289 0)
(1.04382 -0.0396428 5.4544e-21)
(0.66391 0.10448 2.95655e-21)
(1.03968 0.0625777 -6.40016e-22)
(1.07859 -0.0559202 0)
(1.00918 0.00062141 -1.82021e-22)
(0.999424 -7.94763e-06 2.33549e-22)
(1.00531 0.000180128 0)
(0.900321 0.183882 4.06365e-21)
(1.08348 -0.0655448 5.23271e-21)
(1.0859 -0.0557911 5.98568e-21)
(0.474858 -0.00451663 0)
(0.563699 -0.0526742 2.58302e-21)
(1.07889 -0.0535757 -6.73433e-21)
(1.00999 -0.0037494 0)
(1.00413 -0.000230811 0)
(0.890867 0.167732 -3.31417e-21)
(1.00679 -0.000305081 4.71815e-22)
(0.531987 -0.0427678 4.17061e-21)
(0.536113 -0.0449663 -4.33946e-23)
(1.03421 -0.0279642 1.85638e-21)
(1.01266 -0.0201577 4.66527e-22)
(1.08129 -0.0581252 -7.15352e-21)
(1.01254 -4.01756e-06 1.88664e-22)
(1.00037 1.76923e-05 -3.34442e-22)
(1.08 -0.0556706 4.95459e-22)
(1.01981 -0.00881161 2.33639e-21)
(1.09245 -0.0598329 -5.03721e-21)
(1.01487 -0.0222028 0)
(0.412241 0.026955 1.93335e-20)
(1.00579 -0.000351994 1.88499e-23)
(1.0003 4.52472e-06 3.63921e-24)
(1.04423 -0.0392036 -3.83381e-21)
(0.887598 0.163431 6.168e-22)
(1.0397 -0.1379 -1.11142e-21)
(0.935356 -0.0469991 1.36231e-20)
(1.04781 -0.138063 -4.80643e-22)
(1.01585 -0.00554062 3.10492e-23)
(1.01131 0.00759995 0)
(0.559373 -0.0529081 4.83889e-23)
(0.196018 0.0579428 -3.51551e-21)
(0.704904 -0.0284299 2.65959e-21)
(0.822892 -0.0811379 -4.63532e-22)
(1.00837 0.0986473 1.03312e-21)
(0.408359 -0.00304975 5.49381e-21)
(1.08153 -0.0586355 -6.16817e-21)
(1.02579 -0.0059488 9.02579e-22)
(1.02396 -0.0106832 1.09704e-21)
(0.453523 -0.0125208 2.22234e-22)
(1.01033 0.000262022 3.7647e-22)
(0.9343 -0.0416344 0)
(0.818122 -0.062271 5.81668e-22)
(0.529006 -0.041267 -5.39176e-21)
(1.00862 0.000459138 -3.97091e-22)
(1.00845 0.000440827 5.48394e-22)
(1.01374 -0.00755057 3.00854e-23)
(-0.0220197 -0.0188885 4.5701e-22)
(1.08213 -0.0482741 1.70639e-21)
(1.01273 0.00161494 0)
(1.03654 -0.0385016 -2.70473e-21)
(0.990911 -0.00276575 4.24171e-22)
(0.591174 -0.0101363 1.46393e-21)
(0.991699 0.117893 3.87821e-22)
(1.01995 -0.000495174 -4.63416e-22)
(1.00962 0.000619844 1.65607e-22)
(1.00965 0.000738383 3.17035e-22)
(1.00944 -0.0349006 6.84447e-22)
(1.02275 -0.00301175 -1.13738e-21)
(1.01693 -0.0115104 2.12163e-22)
(0.413284 -0.010913 -4.96157e-21)
(1.04248 -0.111368 8.04611e-22)
(1.01291 0.000158011 6.11739e-22)
(1.07855 -0.0541488 0)
(1.01048 0.00135392 1.42337e-23)
(1.03435 -0.129605 0)
(1.00708 0.000610181 -1.20467e-22)
(1.01554 0.00302995 -1.99927e-23)
(0.0847261 0.0760174 0)
(0.387891 0.257032 -6.66643e-21)
(1.01153 -0.00346754 -6.2046e-23)
(1.09068 0.0369856 0)
(1.03552 -0.0205623 0)
(0.892023 -0.0103294 -3.49853e-22)
(1.03605 -0.104388 -7.57295e-22)
(1.00998 0.000157004 0)
(1.01995 -0.0332065 3.63192e-22)
(0.888671 0.218706 6.47407e-21)
(1.01473 -0.00924297 0)
(0.359066 0.00494921 -1.74754e-20)
(1.07264 -0.0403519 3.58113e-21)
(1.00946 -0.0029392 -1.50689e-22)
(1.03564 -0.0201609 4.16429e-22)
(1.07173 -0.0421074 0)
(1.04714 -0.0457869 5.408e-21)
(0.343571 0.0040426 -5.15984e-21)
(0.98234 0.121221 4.64725e-22)
(0.901362 -0.0445009 8.13263e-21)
(1.01314 0.00125491 3.48672e-22)
(1.08332 -0.0413066 -2.28406e-21)
(1.0073 0.000675258 -1.19429e-22)
(1.00955 0.000145059 5.42106e-22)
(1.00464 0.0010393 1.6968e-22)
(1.00893 -0.00249663 0)
(1.00607 -0.000485571 -5.21418e-22)
(0.624032 -0.115605 5.91657e-21)
(0.331654 0.00149775 -1.21893e-20)
(1.00909 -0.00267582 2.04485e-22)
(0.881517 0.21347 -3.34213e-21)
(0.362191 -0.0139397 4.64581e-21)
(0.00468888 0.150008 -7.55971e-23)
(0.357341 0.088981 0)
(1.07607 -0.0574257 1.61873e-20)
(1.09368 -0.0697962 5.86627e-21)
(1.01312 -0.000717774 -1.23315e-22)
(0.846229 0.247133 3.12543e-21)
(1.00886 0.000351144 0)
(1.01695 -0.00816974 0)
(1.00868 0.00033695 -1.96155e-22)
(1.02961 -0.0498843 0)
(0.145798 -0.116409 0)
(0.0751182 -0.0323039 -2.22287e-23)
(0.990911 0.00692046 0)
(0.75205 -0.192645 -3.0101e-21)
(1.01625 -0.0109768 1.45167e-23)
(0.996693 -0.00621323 -1.79569e-21)
(1.01766 0.00168776 3.24017e-22)
(1.01868 -0.00874805 6.31825e-22)
(1.07905 -0.0504618 -2.9413e-21)
(1.0094 -0.00287906 2.87475e-22)
(0.243427 -0.000853506 6.48552e-21)
(1.00348 0.00806545 -1.57345e-22)
(1.00956 0.000137818 -4.06491e-22)
(1.00811 -0.00204328 -1.25476e-22)
(1.01093 0.000658755 0)
(1.02339 -0.00623942 -1.34534e-21)
(0.90054 -0.108742 -8.48521e-21)
(1.01343 0.00216589 0)
(1.01983 -0.00140823 -1.83416e-21)
(1.01702 -0.00725426 -5.55099e-24)
(0.90443 -0.257108 0)
(0.52312 0.0804994 1.84118e-21)
(0.910811 0.17287 -4.22958e-21)
(0.966818 -0.0701262 5.26495e-22)
(0.384779 -0.00413147 0)
(0.0141168 -0.0302209 3.28131e-20)
(1.0073 0.00042148 7.4465e-23)
(0.423117 0.0618681 9.13011e-21)
(0.96725 -0.0710506 4.21231e-21)
(0.941322 -0.0877832 -1.47912e-20)
(1.0095 -0.00288931 0)
(0.253239 0.00706537 7.50665e-21)
(1.01132 0.000752464 -1.96668e-22)
(1.01273 0.00159857 0)
(1.0091 0.000154425 0)
(0.67079 0.257551 -1.20668e-22)
(0.891896 -0.131759 1.00728e-20)
(1.00009 9.91487e-06 -3.31505e-22)
(1.01314 0.00086852 -7.01842e-22)
(1.00952 0.000749117 -5.14325e-22)
(1.08622 -0.053963 1.17091e-20)
(1.01527 -0.0756021 0)
(1.01977 -0.00080263 0)
(1.07152 -0.0571974 -6.77889e-22)
(1.01191 -0.00558205 -1.81459e-23)
(-0.145662 0.0226021 -3.68326e-20)
(0.952316 -0.0728205 2.64367e-21)
(1.08644 -0.0572228 -9.99316e-21)
(1.01982 -0.00148462 -5.47363e-22)
(0.896693 0.171494 -2.94162e-21)
(1.02946 -0.0205674 9.06664e-22)
(1.01596 -0.010606 1.83506e-22)
(1.01569 -0.00554344 9.56339e-22)
(1.00817 -0.00207551 1.22486e-22)
(0.902494 0.135073 8.69281e-21)
(1.00935 0.000192625 5.58189e-22)
(1.01652 -0.00362038 2.92009e-22)
(1.01566 0.00600733 4.90798e-22)
(1.0155 0.00283672 4.32007e-23)
(1.02179 -0.00555302 -1.18112e-21)
(-0.122444 0.138093 -1.88443e-20)
(1.00323 0.0101821 2.20936e-22)
(1.02003 -0.00130874 -2.78211e-21)
(-0.0283409 0.156195 -1.05132e-20)
(1.02654 -0.0298123 0)
(1.01555 0.00324222 0)
(1.07675 -0.0627271 7.60583e-21)
(1.01965 -0.000729623 1.63742e-21)
(1.0161 -0.0109029 -2.03362e-22)
(0.055575 -0.0543165 -1.13488e-21)
(1.03667 -0.0380796 0)
(1.04611 0.0536122 7.23695e-22)
(0.625929 0.0232069 -1.65597e-21)
(1.09141 0.03848 -6.07453e-25)
(0.992435 0.00960768 0)
(1.04138 -0.0934256 -2.22498e-21)
(-0.16563 0.167017 0)
(0.409017 0.240412 -1.80389e-20)
(1.0264 -0.00922721 -1.22112e-22)
(1.01548 0.00315254 -1.29404e-23)
(1.01746 -0.00685889 0)
(0.0625517 -0.0522686 1.14737e-21)
(1.00376 0.000101803 2.36758e-22)
(0.720541 -0.0298179 0)
(-0.112756 0.141466 3.70902e-21)
(1.00897 0.000764844 0)
(1.0053 -0.000278376 3.22758e-22)
(-0.0383861 0.152799 -1.03301e-22)
(0.860866 -0.0489925 5.51227e-22)
(1.05515 -0.194106 1.24974e-21)
(0.33056 0.279644 1.21884e-20)
(1.00026 1.54357e-05 -4.13653e-23)
(0.179205 0.0086111 9.05423e-22)
(1.00953 0.00059475 3.23177e-22)
(1.04214 -0.010048 6.29456e-22)
(1.01869 -0.00896543 -1.90965e-21)
(1.01657 -0.00614427 -1.07002e-21)
(1.0076 -0.000375985 0)
(0.799509 -0.183644 0)
(1.05004 0.0506729 -3.3628e-22)
(1.08615 -0.0157776 0)
(1.08221 -0.0489162 9.77853e-23)
(0.649866 -0.0632575 -1.57738e-20)
(1.08596 -0.0553568 0)
(1.10169 0.0200923 6.28369e-23)
(1.03016 -0.137585 -5.04141e-21)
(0.0991438 0.0649724 7.97948e-22)
(1.01667 -0.00372599 -6.30811e-22)
(0.362721 0.00714969 -5.95026e-21)
(1.0117 -0.00538841 -1.06311e-24)
(0.484084 0.0118343 6.25064e-21)
(0.812394 -0.305793 1.79682e-21)
(0.761647 -0.0308978 2.55952e-21)
(1.00924 0.000780851 0)
(0.285084 0.00173303 4.91351e-21)
(1.05592 0.0397355 0)
(1.03314 -0.0399337 1.50526e-21)
(1.02108 -0.0187521 0)
(1.02196 -0.00568142 -1.19197e-21)
(0.535672 -0.0471378 0)
(1.01894 -0.0069192 3.61031e-22)
(1.07111 -0.0555791 4.50436e-21)
(0.643739 0.0518301 -3.90652e-21)
(1.00045 3.17902e-05 0)
(1.00723 0.000662934 -2.87212e-23)
(0.626045 0.0974971 -1.01221e-22)
(1.0042 0.000127527 0)
(0.879324 -0.111708 0)
(1.00872 -0.00243487 3.31498e-22)
(1.01954 -0.000495193 -8.43651e-22)
(1.0133 -0.0083794 0)
(1.02091 -0.0183397 0)
(1.0582 -0.0543605 -2.01391e-22)
(0.223969 -0.0010739 -5.31191e-21)
(1.00558 -1.059e-05 -9.2697e-23)
(1.03031 -0.0307633 7.63608e-22)
(1.01582 -0.0105246 0)
(1.04601 -0.133574 0)
(0.436521 -0.00134682 0)
(1.0712 -0.0584536 0)
(1.00932 0.000620205 1.46075e-22)
(1.0237 -0.0142816 -1.87839e-21)
(0.925754 -0.0391358 -1.46025e-21)
(1.01232 0.00726062 8.65347e-24)
(1.0023 3.55267e-05 -1.00778e-22)
(0.510647 -0.015945 9.02844e-22)
(0.501275 0.0462423 1.73412e-20)
(1.00705 0.000530813 2.22808e-22)
(1.07855 -0.0538596 1.66262e-20)
(1.01601 -0.0687298 0)
(1.00868 -0.000428233 -3.71752e-23)
(1.00568 2.35205e-05 -2.02617e-22)
(1.00996 -0.000474356 5.60021e-22)
(0.560957 0.0505194 1.48643e-23)
(1.08484 -0.0528249 -8.80117e-22)
(1.02001 -0.00139414 2.86461e-21)
(1.08256 -0.0413503 0)
(0.926593 0.135256 8.97434e-22)
(1.00917 -0.00273853 -3.59533e-22)
(0.547401 -0.0487885 -2.60952e-21)
(1.00556 2.76442e-05 -8.00114e-23)
(1.01317 -0.00871902 0)
(1.01234 0.00117451 0)
(1.01998 -0.00941067 0)
(1.0067 0.000377781 2.14186e-22)
(1.05794 -0.0491684 -2.13063e-22)
(0.395045 -0.241907 -4.07097e-22)
(1.01164 -0.0035484 2.7278e-22)
(0.167989 0.0216418 -9.30367e-22)
(1.00878 -0.00246065 -3.49985e-22)
(1.0598 0.0319962 0)
(1.0263 -0.0296419 0)
(1.02342 -0.014182 1.15979e-21)
(0.998894 -0.0111418 -4.63656e-22)
(1.01967 -0.000644166 -8.28635e-22)
(1.00825 0.000470621 0)
(1.00847 0.000383055 5.63029e-22)
(1.07013 -0.0408839 8.37756e-21)
(-0.00612102 0.144488 -4.95375e-21)
(1.01 -0.000503403 0)
(0.332153 -0.00777472 0)
(0.175206 0.00037772 0)
(0.456863 -0.000450798 -5.65007e-21)
(1.02959 -0.0202372 0)
(1.03366 -0.00796161 0)
(1.00259 4.12143e-05 1.04814e-22)
(1.00976 0.000220587 -1.06084e-22)
(1.00051 8.93655e-06 -5.8304e-22)
(1.03915 -0.0944864 -2.13275e-21)
(0.880997 0.19517 0)
(0.619795 -0.0106659 1.40567e-21)
(1.01212 0.00144643 3.31628e-22)
(0.183694 -0.133398 -7.53135e-21)
(1.00982 0.000178266 -5.53815e-24)
(1.0641 0.0202178 0)
(1.0092 0.00060392 -1.98753e-22)
(0.626387 0.021447 0)
(1.00562 2.76233e-05 -3.30533e-22)
(0.447099 -0.0104298 -4.08224e-21)
(1.00726 0.000404784 5.30872e-22)
(0.392663 0.00552323 0)
(1.06668 -0.0300576 1.03981e-20)
(0.51867 -0.0413137 0)
(1.00888 -0.00252889 1.40501e-22)
(1.0129 0.001127 0)
(1.01261 -0.0036907 -3.98481e-22)
(1.07092 -0.0572319 1.16578e-21)
(1.02811 -0.0279512 0)
(0.627712 -0.0340511 0)
(1.00701 0.000379267 6.7448e-23)
(1.02007 -0.000353353 -1.83891e-21)
(1.02863 -0.0176457 -1.84614e-21)
(1.01319 -0.00823472 -8.43649e-24)
(0.865243 -0.0621372 0)
(1.01296 0.000607566 -3.32568e-22)
(1.01355 -0.00876148 -3.9023e-22)
(0.0484573 0.0567221 8.68964e-22)
(0.445299 -0.0107893 0)
(1.01229 0.00118017 -3.9082e-22)
(0.36171 -0.00169873 4.10379e-21)
(1.08313 -0.0487324 -3.92183e-21)
(0.912607 0.0957526 -4.9667e-21)
(0.311826 -0.00216341 0)
(1.03431 -0.00772173 0)
(1.06257 -0.0927437 -2.16181e-23)
(0.545664 -0.050401 -7.81423e-21)
(0.0628385 -0.0343009 4.5389e-22)
(1.00533 2.87676e-05 1.9264e-22)
(0.69705 0.277146 -1.25794e-21)
(1.0071 0.000608384 -1.52628e-22)
(1.007 0.000414779 3.49434e-22)
(0.458302 -0.0150239 -1.68292e-21)
(1.07453 -0.0511972 -5.43739e-21)
(0.873765 -0.0488272 0)
(0.0898851 0.158791 0)
(0.922112 0.162244 -7.5842e-23)
(1.00802 -0.00197878 -6.19392e-23)
(1.05516 -0.0609508 4.15509e-21)
(0.666774 -0.137999 1.48616e-21)
(0.796639 -0.187086 0)
(0.326899 -0.0042012 0)
(1.01251 0.000127035 1.79643e-22)
(1.01182 -0.00552144 -1.07802e-24)
(1.07892 -0.0611037 2.02242e-20)
(1.01571 -0.0102677 5.01851e-23)
(1.00684 0.000404362 0)
(1.01619 -0.00355067 0)
(1.02108 -0.0180882 0)
(1.00668 -0.00100529 0)
(0.452091 -0.00193248 -6.70424e-22)
(1.0064 0.000453964 -5.91015e-22)
(1.05762 -0.0545108 1.86324e-22)
(1.01143 -0.00347504 0)
(1.07823 -0.0536173 -1.27237e-20)
(1.00272 -0.000169199 0)
(-0.128046 0.201603 1.3416e-20)
(0.872424 0.183097 8.32693e-22)
(1.00298 -0.0434317 7.87781e-21)
(0.812551 -0.00497626 -3.66355e-22)
(1.01134 0.00120177 0)
(1.01485 -0.00926839 0)
(1.00994 -0.000320758 5.98123e-22)
(1.03382 -0.0403794 -1.83697e-21)
(1.05751 -0.0238405 0)
(1.01204 -0.00571302 1.95413e-23)
(0.643502 -0.0971075 0)
(1.05406 -0.0893585 2.17187e-22)
(1.00822 -0.00114253 4.38904e-22)
(1.07132 -0.0322864 -3.09942e-21)
(0.448685 -0.00169569 -8.86174e-22)
(1.02247 -0.00259037 2.4657e-21)
(1.01023 0.101341 0)
(1.11917 -0.0209531 4.79074e-22)
(0.470922 -0.00651335 9.98991e-22)
(1.0099 -0.000283636 -1.43057e-22)
(1.00467 -0.035334 1.83117e-21)
(1.01065 0.000627047 -1.84225e-22)
(1.02243 -0.0059412 1.19474e-21)
(1.01669 -0.0425245 -8.60031e-21)
(1.00947 0.000600102 0)
(1.00821 0.000834287 1.32052e-22)
(1.01937 -0.0108698 -1.29019e-21)
(1.07643 -0.0631882 -7.83536e-21)
(1.0135 -2.2684e-05 -2.93176e-22)
(1.01412 -0.00887376 2.76273e-23)
(0.636991 -0.154447 0)
(1.02146 -0.00494648 2.15526e-21)
(1.08206 -0.0404761 0)
(1.01623 -0.0138956 -9.60514e-23)
(1.01197 -0.000408578 8.12776e-22)
(-0.134306 0.00633629 2.7507e-20)
(1.00917 0.00257053 -3.08269e-21)
(0.802637 -0.300283 -2.03485e-21)
(1.01559 -0.0101705 -5.80813e-23)
(1.01277 -0.000294856 -1.18441e-21)
(1.01982 -0.0116045 -8.28665e-22)
(1.04247 -0.00967759 -5.82952e-22)
(1.00007 4.37004e-07 0)
(1.11042 -0.0707304 -6.43916e-21)
(1.01872 -0.00840807 0)
(0.465437 -0.00322397 7.08888e-21)
(0.324836 -0.0050803 0)
(1.00807 0.000922176 1.26017e-22)
(0.636979 -0.0744993 1.39309e-20)
(1.04149 -0.0440589 -7.86599e-21)
(1.03331 -0.00698867 -7.12241e-22)
(1.00913 0.000167124 0)
(1.02973 -0.0487148 -2.33198e-22)
(1.01366 -6.60463e-05 7.30949e-22)
(0.990968 -0.163251 -1.88722e-22)
(1.01773 -0.00719795 -1.09006e-21)
(1.00698 0.00043881 -1.46079e-22)
(1.10396 0.0177544 1.48654e-23)
(0.963789 -0.0930755 1.35409e-20)
(0.454255 -0.0112506 0)
(1.00881 -0.00489522 -1.02901e-21)
(1.06293 -0.0178597 3.80269e-21)
(1.00931 0.000176743 0)
(1.00505 -0.000291786 1.59211e-23)
(0.104684 -0.0152252 -9.90016e-22)
(1.01162 0.00118936 1.23225e-22)
(-0.0286554 0.0302003 0)
(1.01304 0.00122904 0)
(0.534206 -0.190664 0)
(1.08392 -0.0522242 7.65682e-21)
(1.00361 -0.000161023 -8.03834e-23)
(1.00858 -0.00233015 9.70478e-23)
(1.00615 -0.0364453 -1.50983e-21)
(1.01235 -0.00650743 4.41697e-22)
(1.09107 -0.0590224 8.90743e-21)
(1.01045 0.000277897 -4.54597e-22)
(0.616902 -0.0340046 -2.38315e-21)
(1.0204 -0.000378417 -2.00148e-21)
(1.01198 0.00118516 4.25875e-22)
(0.88721 -0.0627893 -4.97562e-21)
(1.01513 -0.0121456 -3.51905e-22)
(1.06596 -0.030158 -5.18636e-21)
(1.00881 0.000236685 -1.99918e-22)
(1.02024 -0.00120557 8.87753e-22)
(1.07041 -0.0287607 8.81778e-21)
(1.00292 4.63258e-05 2.50161e-23)
(1.02597 -0.0298035 9.56228e-24)
(0.527767 0.0129088 7.41463e-21)
(1.02415 -0.0058895 0)
(0.730547 -0.208973 -4.42198e-22)
(1.04629 -0.0941138 5.37369e-21)
(1.01387 0.00153423 -2.57956e-25)
(1.0135 -0.00744495 -3.16362e-23)
(0.488044 0.0184636 0)
(0.393348 0.00945647 0)
(1.01402 -0.0193657 0)
(0.540416 0.0150448 -6.82246e-21)
(0.281412 -0.00396624 1.45174e-21)
(1.00876 -0.00411424 -1.57284e-21)
(1.02153 -0.0271008 2.39484e-22)
(1.01578 -0.0125041 5.41232e-23)
(1.01137 0.00157503 0)
(1.01002 0.000602452 3.35138e-22)
(-0.0536931 0.220922 0)
(1.01579 0.00538792 -2.70751e-22)
(1.04615 -0.0118131 -2.94499e-21)
(0.779382 -0.194664 0)
(1.02718 -0.0319577 -6.54362e-23)
(0.776337 -0.00518147 5.26171e-21)
(0.431293 0.00869359 6.94138e-21)
(0.784208 -0.0256549 -5.24919e-21)
(1.03996 -0.0356699 -2.6622e-21)
(1.02022 -0.0013023 3.60691e-21)
(1.07789 -0.0581648 -2.90914e-23)
(1.01817 -0.02142 0)
(0.99771 0.10354 0)
(1.08609 -0.0577292 -7.569e-22)
(1.02088 -0.017686 0)
(0.34629 -0.000922719 -4.98482e-21)
(1.01823 -0.00122774 0)
(0.99341 -0.0448597 -2.43787e-21)
(1.08258 -0.0589379 0)
(1.01634 -0.0036696 -3.22482e-22)
(0.767033 0.142228 2.37329e-21)
(1.0475 -0.00849809 1.49986e-21)
(1.01061 -0.00138996 0)
(1.0509 -0.0183802 5.46103e-21)
(0.449398 -0.0134228 -1.75816e-21)
(1.05743 -0.0232269 -3.27631e-21)
(1.00862 -0.0023691 -1.01079e-22)
(1.0108 -0.0116283 -8.46408e-22)
(0.604772 -0.0326099 -1.39094e-21)
(0.882084 -0.10045 0)
(1.0808 -0.058114 1.0056e-20)
(1.00607 -0.000477453 1.77629e-22)
(1.0654 -0.028943 7.71847e-21)
(0.848076 0.24488 0)
(1.04552 -0.0337568 0)
(1.0358 -0.0213707 0)
(1.01046 -0.0111645 8.26156e-22)
(1.01567 -0.0066738 3.1455e-23)
(0.20587 -0.138978 0)
(1.11433 -0.0735566 5.90918e-21)
(1.0341 -0.00802659 -2.73735e-21)
(0.457687 -0.0117308 -1.97596e-21)
(0.895093 -0.233204 5.29707e-21)
(1.07109 -0.0589491 -4.02225e-21)
(1.02669 -0.0330128 6.09796e-22)
(0.529387 0.0160336 7.83994e-21)
(1.07811 -0.0550758 0)
(1.06165 -0.0441096 3.86057e-21)
(0.0424923 -0.0794621 1.93495e-20)
(1.02784 -0.018187 2.13512e-21)
(1.06127 -0.0227007 0)
(0.348552 0.00467353 2.86523e-20)
(0.823233 0.00304775 -5.66346e-21)
(1.02492 -0.0184947 0)
(0.711227 -0.032051 -4.74683e-21)
(0.478347 -0.00748217 0)
(1.01339 -0.000193466 -6.55366e-22)
(0.0698153 0.103581 1.46989e-20)
(1.01531 -0.0125846 1.11643e-21)
(1.04397 -0.0953618 -1.54596e-21)
(1.01253 -0.00673726 3.60968e-22)
(1.00361 0.000116116 5.89119e-23)
(1.00942 -0.00285387 0)
(0.0588632 -0.0687972 2.15228e-21)
(0.264508 0.0819337 -3.18357e-22)
(0.317642 -0.152463 6.63271e-22)
(0.289509 0.303335 -1.7875e-20)
(1.00271 -0.0340872 0)
(0.338144 -0.00887347 6.25295e-22)
(0.938295 -0.280443 0)
(1.00561 2.46248e-05 1.00523e-24)
(0.975199 -0.0983684 1.44742e-24)
(0.383544 -0.00397229 0)
(0.892943 -0.227286 -6.19467e-21)
(0.0660797 -0.0822427 0)
(1.00975 0.000165396 1.01241e-22)
(0.248144 -0.152714 -1.70498e-20)
(1.01003 -0.00140672 1.17844e-23)
(1.00994 0.000166943 0)
(1.01293 -0.00719807 1.09635e-22)
(0.686962 0.053773 -6.14561e-21)
(1.01213 -0.00305432 0)
(1.00483 0.000148195 0)
(1.02897 -0.0184129 -3.54927e-22)
(1.00272 7.4676e-05 -2.10928e-22)
(1.02286 -0.0104452 1.07905e-21)
(1.01845 -0.00857364 0)
(1.01527 -0.0296528 -4.33808e-22)
(-0.0281576 -0.00708843 -8.61627e-21)
(1.07772 -0.0573672 8.49811e-22)
(1.03139 -0.0322506 0)
(0.929709 0.0255601 0)
(0.199248 -0.0898452 0)
(1.00723 -0.000461976 -1.09779e-22)
(1.08227 -0.0400225 0)
(1.01621 -0.00598697 2.96886e-22)
(1.00531 0.000185075 0)
(0.299879 -0.170113 1.7954e-21)
(1.0075 -0.000825377 4.46796e-22)
(1.02258 -0.0344328 4.28784e-22)
(1.00103 3.14256e-05 -3.43681e-23)
(1.071 -0.0642605 -4.52042e-21)
(1.02571 -0.0295877 -9.43173e-24)
(0.0705857 -0.0904401 7.38786e-21)
(1.03958 -0.00503408 2.3724e-21)
(0.578841 -0.0083535 4.61214e-21)
(1.02044 -0.00119288 -3.06951e-21)
(0.549282 0.0334826 0)
(1.02164 -0.0050698 -1.41304e-21)
(0.0379718 0.0397291 0)
(1.0044 -0.000231536 2.71535e-23)
(0.92604 0.00625177 0)
(0.778416 0.161287 -1.21915e-21)
(1.08349 -0.0520838 -1.88709e-20)
(0.63881 0.292048 0)
(1.00649 -0.000838378 -5.3317e-23)
(1.02474 -0.0182595 -9.919e-22)
(0.986745 0.122275 0)
(1.01096 0.000644687 0)
(0.396828 -0.0141799 5.98105e-22)
(1.01338 -0.00729345 2.96595e-23)
(0.494657 0.0165679 -2.84621e-20)
(1.08038 -0.0582258 1.23206e-20)
(0.577209 -0.0132491 -5.74428e-21)
(-0.015776 0.155338 1.84541e-20)
(1.09003 -0.0594383 -2.35714e-21)
(1.01354 -0.00385918 4.07884e-22)
(1.01024 -0.00317166 -1.99713e-22)
(1.04868 -0.0696855 -6.98364e-21)
(1.08797 -0.0589605 2.62258e-21)
(0.566524 -0.0120333 -6.01744e-21)
(0.40501 -0.00464329 -4.88114e-21)
(1.00207 3.33597e-05 -2.02989e-22)
(1.01135 0.000776693 2.34504e-22)
(0.574871 0.0592181 -5.16819e-21)
(1.00708 2.09001e-05 0)
(1.01858 -0.00817987 -8.43379e-22)
(1.00894 0.000226903 -3.95512e-22)
(1.00921 0.100517 -8.63139e-22)
(1.07842 -0.0559881 9.22933e-21)
(0.279817 -0.177387 -2.73186e-21)
(0.5623 -0.00895983 -8.11745e-22)
(1.04689 -0.00846325 0)
(0.324136 -0.00536272 0)
(0.36143 -0.00188292 5.84252e-21)
(1.07064 -0.0322558 0)
(0.219453 0.00657467 0)
(1.01762 0.0113905 6.91586e-22)
(1.01558 -0.0057734 0)
(1.01363 -0.00382861 -8.87813e-22)
(1.02365 -0.0104796 -2.31034e-21)
(0.306089 -0.159693 -7.30885e-22)
(1.03362 -0.027884 6.31323e-22)
(1.01171 0.00091643 0)
(1.03873 -0.0265979 3.0055e-21)
(0.188117 0.150703 0)
(1.11738 -0.0274932 -2.90907e-22)
(1.01002 0.000228304 -3.05259e-22)
(1.00531 2.69374e-05 -1.81425e-22)
(0.79734 -0.304333 -1.16505e-21)
(1.01308 0.00201996 -1.70481e-23)
(1.00534 0.000188415 -3.2648e-22)
(1.01022 0.000241846 0)
(0.44803 -0.00344506 5.20694e-21)
(1.00839 0.000416532 -5.63048e-22)
(1.01795 -0.0190026 -4.30215e-22)
(1.00951 0.000177989 -1.90996e-22)
(1.01044 0.00134731 -2.25461e-24)
(1.06578 -0.083325 4.05255e-21)
(1.01363 0.000130461 0)
(0.453847 -0.00266333 0)
(0.561616 0.043848 1.23604e-20)
(1.03803 -0.0538735 -7.21003e-21)
(0.40283 -0.0273709 0)
(0.27178 -0.154972 2.06702e-20)
(0.826632 -0.0364436 -8.25443e-23)
(1.01 0.00023622 -9.93861e-23)
(1.00891 0.000380203 0)
(1.01122 -0.00346587 0)
(1.00866 0.000483907 0)
(1.02267 -0.00271837 -1.21817e-21)
(1.02529 -0.0564438 8.64027e-22)
(0.75058 -0.0587905 0)
(1.01872 -0.00678351 0)
(0.627973 0.110986 -2.92777e-21)
(1.08225 -0.0584666 4.40046e-21)
(1.03143 -0.0214157 -1.99376e-21)
(1.04899 -0.0456747 0)
(0.912726 0.0450001 2.55508e-21)
(1.01396 0.00162041 -5.46924e-22)
(1.01182 0.00118429 0)
(1.01326 -0.00706868 -5.14655e-24)
(1.00887 -0.000473226 0)
(0.772909 -0.153287 -1.41525e-22)
(0.574176 0.0478237 -5.52986e-21)
(0.959539 -0.0686832 4.60841e-21)
(1.07786 -0.0575189 0)
(1.01338 -0.00721854 -7.42346e-24)
(1.01184 -0.00051387 -1.18439e-21)
(1.04713 -0.0124516 -2.83285e-21)
(1.00966 7.37217e-05 5.14288e-22)
(0.556312 0.0865423 2.37959e-21)
(1.0072 0.000416969 1.68219e-22)
(0.903135 0.0241284 -2.89185e-21)
(1.08344 -0.0493892 -3.33761e-21)
(1.00716 -0.000490797 7.54038e-23)
(0.591849 -0.0448915 9.31835e-23)
(1.00616 -0.000516984 0)
(1.01183 -0.000510855 6.42859e-22)
(1.03061 -0.0503931 -3.06327e-22)
(1.01345 0.000162892 0)
(1.01369 -0.0079485 -7.20974e-23)
(0.429451 -0.00225673 4.35413e-21)
(0.382263 -0.000651082 0)
(1.0606 -0.0224359 0)
(1.08781 -0.0599641 0)