/*--------------------------------*- C++ -*----------------------------------*\
| =========                 |                                                 |
| \\      /  F ield         | OpenFOAM: The Open Source CFD Toolbox           |
|  \\    /   O peration     | Version:  v2012                                 |
|   \\  /    A nd           | Website:  www.openfoam.com                      |
|    \\/     M anipulation  |                                                 |
\*---------------------------------------------------------------------------*/
FoamFile
{
    version     2.0;
    format      ascii;
    class       volVectorField;
    location    "200";
    object      U_0;
}
// * * * * * * * * * * * * * * * * * * * * * * * * * * * * * * * * * * * * * //

dimensions      [0 1 -1 0 0 0 0];


internalField   nonuniform List<vector> 
53008
(
(0.956244 -0.0460491 1.36899e-21)
(1.01173 -0.0497795 0)
(0.451058 -0.0125244 1.72138e-21)
(1.02418 -0.000846806 1.39399e-21)
(0.982952 -0.052671 -1.61022e-23)
(1.00657 -0.000932301 1.62478e-24)
(1.01893 -0.00913892 1.54481e-21)
(1.00535 0.000177858 -3.12648e-22)
(1.01721 -0.0331114 1.9582e-22)
(1.00786 -0.000777903 -9.51667e-22)
(1.00792 0.000822386 7.19268e-23)
(1.08503 -0.0671252 -3.90216e-21)
(1.01347 0.00144777 1.31713e-22)
(-0.0158539 -0.101785 0)
(0.899039 -0.243618 1.46172e-21)
(1.12439 -0.0133065 -5.24667e-22)
(1.01494 -0.000423252 0)
(0.848359 -0.128986 8.58332e-22)
(1.0724 -0.0332152 -3.09338e-21)
(1.01093 -0.00473506 -3.92104e-23)
(1.01421 -0.00890831 -3.86609e-22)
(-0.0511967 0.153088 1.64303e-20)
(0.850401 -0.129493 1.71967e-21)
(-0.0161812 0.106803 -5.61799e-21)
(1.00774 -0.000777502 3.83103e-22)
(1.03524 -0.0401869 1.88999e-21)
(0.842162 -0.115474 -5.84832e-22)
(1.01249 0.00154577 -1.40855e-22)
(0.129644 -0.112053 8.03481e-21)
(1.02392 -0.000780471 2.45963e-21)
(1.07354 -0.0413977 0)
(1.01087 -0.00468945 -1.31024e-22)
(-0.159549 0.174824 1.44114e-20)
(0.999485 -0.0134795 3.93947e-22)
(1.00683 0.000397909 3.14217e-22)
(1.00696 0.000411691 0)
(1.00355 -0.000164416 8.47142e-23)
(1.02734 0.060113 7.74618e-24)
(1.01578 -0.0108844 2.16069e-22)
(0.377876 -0.0189016 3.41154e-21)
(0.362738 -0.239079 -1.13684e-22)
(0.477352 0.0977113 0)
(1.01372 0.00223861 0)
(1.00966 -6.70753e-05 0)
(0.00995014 -0.129839 -1.09268e-20)
(-0.0570043 0.149391 -1.22452e-20)
(0.328257 -0.00158882 5.4684e-21)
(0.98257 -0.058711 6.03797e-22)
(1.03458 0.0531827 0)
(0.373235 0.00901147 0)
(1.04168 -0.0371707 -2.64147e-21)
(0.734268 -0.0302134 0)
(1.00424 -0.000236959 -1.49841e-22)
(1.02694 -0.0298612 -8.88563e-23)
(0.996484 -0.00807831 8.6543e-22)
(1.07237 -0.0703816 -1.15227e-20)
(0.458958 0.048204 4.27051e-21)
(1.01627 -0.00301918 -2.34245e-22)
(1.00991 -0.000559053 2.71692e-22)
(1.00176 3.45504e-05 1.66433e-22)
(1.01603 -0.00568566 0)
(1.00902 -0.00260412 -1.70543e-24)
(1.0162 -0.0135849 2.08563e-23)
(1.04251 -0.0372834 0)
(1.00995 -0.00057988 0)
(0.522954 0.109955 -7.30479e-21)
(0.578774 -0.0463356 0)
(1.08669 -0.0545932 0)
(1.02935 -0.0186928 -8.14416e-22)
(1.01027 -0.00400739 -1.13515e-22)
(1.01753 -0.00541099 0)
(1.01993 -0.000395368 3.25834e-21)
(1.00854 0.00352553 0)
(1.02047 -0.00109346 2.81912e-21)
(1.07959 -0.0507014 -3.27162e-21)
(1.04623 -0.0337316 -2.10185e-21)
(1.00536 0.000185675 0)
(1.00896 -0.00255517 1.44893e-22)
(1.03455 -0.0397729 2.62283e-22)
(1.02647 -0.00948374 0)
(1.00774 -0.000806135 4.12344e-22)
(1.01026 0.000230268 0)
(1.07298 -0.0698107 -5.05863e-23)
(1.07427 -0.0416281 0)
(1.01934 -0.00179789 8.5351e-22)
(1.02835 -0.0282765 2.62867e-22)
(1.07963 -0.0565729 1.80914e-20)
(1.07889 -0.0530136 5.95627e-21)
(1.02687 -0.032304 0)
(1.01697 -0.00379263 0)
(1.00638 0.000469589 0)
(1.01552 -0.00539103 -4.83031e-22)
(1.02094 -0.0133379 1.25299e-21)
(1.01939 -0.00171732 0)
(1.07928 -0.0529271 0)
(1.03654 -0.131719 -1.35443e-21)
(1.00965 -0.00304289 1.56562e-22)
(1.00643 0.000483134 0)
(1.01353 0.0014016 0)
(1.01017 -0.00393038 1.63394e-22)
(1.01603 -0.00585233 -3.04804e-23)
(1.00167 3.29381e-05 0)
(0.857247 -0.116804 0)
(1.01251 0.00154902 1.3663e-22)
(1.01742 -0.00546676 1.3034e-21)
(0.958705 -0.0493347 -3.95925e-21)
(1.07935 -0.0666155 -6.23212e-21)
(0.077907 0.054996 -7.27102e-22)
(1.04921 -0.0190007 0)
(1.08695 -0.0101215 -6.72304e-22)
(0.518634 -0.0171756 -1.5392e-21)
(0.535439 -0.0443193 -7.53659e-21)
(0.638023 0.249609 0)
(1.00977 3.66276e-05 2.4179e-22)
(1.01491 -0.0215574 0)
(1.02452 -0.0107999 0)
(0.933643 0.00862692 0)
(1.02676 -0.0297202 9.203e-23)
(1.07941 -0.0565105 -1.17989e-21)
(1.0307 -0.122951 1.29514e-21)
(1.00639 0.000464392 1.98807e-24)
(1.0148 -0.0105694 -3.33917e-22)
(0.941145 -0.0722678 0)
(1.04802 -0.0462731 -4.63958e-21)
(1.00921 0.000754141 0)
(0.629223 -0.0511404 1.6803e-20)
(0.843128 0.205636 -4.64324e-21)
(1.02637 -0.133939 4.81156e-21)
(0.417027 -0.00293945 0)
(1.07167 -0.0332512 2.90158e-21)
(1.00985 0.00128916 1.8825e-22)
(1.00644 0.000481714 2.51352e-22)
(0.661615 0.288588 0)
(1.02205 -0.0282194 0)
(0.563945 -0.0445495 0)
(1.01684 -0.00367754 -6.26228e-22)
(1.00006 3.8346e-06 3.33572e-22)
(1.01768 0.0012611 -2.41601e-22)
(0.520177 -0.0422975 -2.59301e-21)
(1.00982 0.00130101 1.74787e-22)
(-0.0181079 -0.10522 0)
(0.555055 -0.0481562 -4.66446e-21)
(0.992884 -0.00483178 0)
(1.00694 -0.000338785 0)
(1.00808 0.000626073 9.84478e-24)
(1.07337 -0.0406131 3.66579e-21)
(1.00167 -0.0323636 -1.49022e-21)
(1.01191 -0.0481394 1.0423e-22)
(1.00308 -0.000163566 9.13268e-23)
(1.02425 -0.00573868 0)
(0.384945 -0.0099835 0)
(1.01015 2.11769e-05 -3.50765e-22)
(1.04812 -0.0712752 3.4286e-21)
(0.480624 0.0145169 0)
(-0.0677433 0.146982 7.23007e-21)
(1.03439 -0.0284531 -3.73679e-21)
(0.936421 -0.0481247 0)
(0.348978 0.121676 -2.22727e-23)
(1.00663 -0.000982216 0)
(1.04952 -0.0195718 3.56996e-21)
(1.00936 0.00064201 0)
(1.00962 -0.000111741 -4.05658e-22)
(1.00772 0.000787569 -7.98291e-23)
(1.02609 -0.00592637 0)
(1.00781 0.000812351 2.36375e-22)
(-0.0212466 0.101935 0)
(1.07787 -0.0537071 0)
(0.652681 -0.0860464 -1.29929e-20)
(1.00648 0.000462292 6.61023e-23)
(1.00616 -0.000508474 -1.96574e-24)
(1.02248 -0.0549651 1.80337e-22)
(0.365488 0.124868 1.25138e-22)
(1.04007 -0.00491177 -6.0502e-21)
(0.970293 -0.109032 -7.80618e-23)
(1.00763 -0.000802339 0)
(1.00955 0.0006204 -2.01668e-22)
(1.00386 -0.000179997 -2.68333e-22)
(1.02422 -0.0105847 -9.99578e-22)
(1.07765 -0.0539604 0)
(1.04653 -0.0332599 4.86532e-21)
(1.05912 -0.0549973 7.27002e-21)
(1.01813 -0.0328304 6.63563e-22)
(1.0089 0.000206476 1.89968e-22)
(1.00655 -0.000896838 0)
(1.04157 -0.19201 -3.39978e-21)
(1.00984 1.06345e-05 2.04897e-22)
(1.00718 0.00063145 2.35208e-22)
(0.386655 -0.0110506 -3.93829e-21)
(0.369035 -0.0164336 0)
(0.404942 -0.00925922 1.82067e-21)
(1.00615 -0.000579672 2.04204e-22)
(0.165263 0.155069 0)
(1.02468 -0.027546 0)
(1.05573 -0.0655951 0)
(0.750651 -0.0310509 0)
(1.0196 -0.0017452 0)
(0.839066 0.16392 1.09612e-21)
(1.09345 -0.0595412 0)
(1.01961 -0.0016544 0)
(0.95893 -0.277111 -2.24639e-21)
(1.0232 -0.00601346 6.65557e-22)
(0.0161133 -0.119845 -1.27576e-20)
(1.08339 -0.0646513 -2.11994e-21)
(1.01972 -0.000884748 1.38382e-23)
(1.03536 -0.135295 0)
(1.00673 -0.0250002 7.92834e-22)
(1.00612 -0.000563485 0)
(1.01486 -0.0108501 3.62837e-22)
(0.928592 0.151206 -1.1044e-22)
(0.38317 -0.239859 1.86085e-22)
(1.02239 -0.0566231 5.19422e-22)
(1.07824 -0.0542124 0)
(0.906248 0.178537 0)
(1.01476 -0.0105063 -3.7793e-22)
(0.0795281 0.0602582 0)
(1.01425 -0.00898505 8.92744e-22)
(-0.0231619 -0.101415 -1.71148e-20)
(1.0786 -0.053662 0)
(0.554427 -0.0473548 7.58741e-21)
(0.537806 -0.0463877 0)
(1.08003 -0.0559065 -6.59745e-22)
(1.01412 -0.0089003 0)
(1.00956 -0.0029721 -3.23137e-22)
(0.955947 -0.0673889 0)
(1.07643 -0.0576412 -6.47898e-21)
(0.442903 0.0114521 -6.2028e-21)
(1.04966 -0.0473305 -3.18091e-21)
(0.903668 -0.245708 1.48697e-21)
(1.04974 -0.0462757 3.28786e-21)
(1.03616 -0.0193142 -1.95339e-21)
(1.00951 0.000143982 1.95714e-22)
(0.838283 0.180043 -5.22688e-22)
(1.03401 -0.00454705 -3.6201e-21)
(0.867092 0.238647 6.13189e-21)
(1.01301 -0.00734356 0)
(1.06618 -0.0553087 0)
(1.0348 -0.00775728 -1.68109e-21)
(1.0148 -0.01083 4.19632e-22)
(1.00895 -0.0361028 -3.98629e-22)
(1.01258 0.0013062 -1.25369e-22)
(1.00239 0.00733119 0)
(1.00831 -0.0256287 -1.09042e-21)
(1.07828 -0.0582944 1.38649e-20)
(0.892952 0.171212 -3.29067e-21)
(1.01006 -0.00383221 9.36877e-24)
(0.815112 0.0214791 4.87624e-22)
(1.00906 -0.00262937 0)
(1.01005 -0.00130416 -2.99869e-22)
(1.03588 -0.0195293 0)
(1.04381 -0.0396351 5.45209e-21)
(0.664179 0.10553 2.96306e-21)
(1.04002 0.0622328 -6.45459e-22)
(1.07861 -0.0559221 0)
(1.00918 0.000621316 -1.81917e-22)
(0.999423 -7.93889e-06 2.33391e-22)
(1.00531 0.000180217 0)
(0.900286 0.184684 4.05779e-21)
(1.0835 -0.0656396 5.23779e-21)
(1.0859 -0.0557834 5.98776e-21)
(0.474793 -0.00451022 0)
(0.563779 -0.0526194 2.58508e-21)
(1.0789 -0.0535794 -6.73764e-21)
(1.00998 -0.00374869 0)
(1.00413 -0.000230778 0)
(0.890759 0.167675 -3.30838e-21)
(1.00679 -0.000305085 4.72005e-22)
(0.532068 -0.0427133 4.17582e-21)
(0.536197 -0.0449119 -4.32995e-23)
(1.03422 -0.0279643 1.85574e-21)
(1.01256 -0.0201382 4.66803e-22)
(1.08134 -0.0581767 -7.16169e-21)
(1.01254 9.34192e-07 1.88561e-22)
(1.00037 1.76863e-05 -3.34262e-22)
(1.08001 -0.0556672 4.95745e-22)
(1.01981 -0.00885264 2.33501e-21)
(1.09253 -0.0599542 -5.04493e-21)
(1.01486 -0.02219 0)
(0.412472 0.027054 1.93311e-20)
(1.00579 -0.000351958 1.86819e-23)
(1.0003 4.52406e-06 3.63865e-24)
(1.04422 -0.0391964 -3.83221e-21)
(0.887506 0.163205 6.15986e-22)
(1.03937 -0.137927 -1.1063e-21)
(0.935423 -0.0471854 1.3656e-20)
(1.04749 -0.13813 -4.78899e-22)
(1.01585 -0.00554033 3.10564e-23)
(1.01136 0.00762924 0)
(0.559457 -0.0528551 4.84852e-23)
(0.196427 0.0582763 -3.52876e-21)
(0.704906 -0.0284295 2.66704e-21)
(0.822433 -0.0801838 -4.68302e-22)
(1.00932 0.0975222 1.04272e-21)
(0.408332 -0.00304588 5.50944e-21)
(1.08158 -0.0586909 -6.17546e-21)
(1.02579 -0.00594899 9.02744e-22)
(1.02395 -0.0106843 1.09715e-21)
(0.453542 -0.0124994 2.22804e-22)
(1.01033 0.000261254 3.7627e-22)
(0.934122 -0.0412576 0)
(0.817708 -0.0612257 5.86003e-22)
(0.529087 -0.0412131 -5.39863e-21)
(1.00862 0.000459743 -3.96865e-22)
(1.00845 0.000441417 5.48084e-22)
(1.01374 -0.00755104 3.01454e-23)
(-0.0220185 -0.0178047 4.56776e-22)
(1.08227 -0.0482973 1.70982e-21)
(1.01273 0.00161462 0)
(1.03654 -0.0384888 -2.70234e-21)
(0.990914 -0.00262795 4.24266e-22)
(0.591172 -0.0101191 1.46803e-21)
(0.992655 0.117182 3.98146e-22)
(1.01995 -0.000495347 -4.63565e-22)
(1.00962 0.00061912 1.65511e-22)
(1.00965 0.00073912 3.16859e-22)
(1.00953 -0.0348096 6.86996e-22)
(1.02275 -0.00301178 -1.13765e-21)
(1.01688 -0.0115212 2.12229e-22)
(0.41334 -0.0108941 -4.97272e-21)
(1.0419 -0.11137 7.91663e-22)
(1.01292 0.000156782 6.1153e-22)
(1.07856 -0.0541533 0)
(1.01048 0.00135422 1.42292e-23)
(1.0343 -0.129985 0)
(1.00708 0.000609928 -1.20406e-22)
(1.01554 0.0030395 -2.00152e-23)
(0.0854309 0.0744902 0)
(0.387223 0.256781 -6.64374e-21)
(1.01153 -0.00346773 -6.20768e-23)
(1.09119 0.0363019 0)
(1.03552 -0.0205628 0)
(0.892018 -0.00941863 -3.50964e-22)
(1.03553 -0.104403 -7.45106e-22)
(1.00998 0.000156165 0)
(1.0199 -0.0332273 3.6357e-22)
(0.888584 0.218166 6.49855e-21)
(1.01473 -0.0092496 0)
(0.359094 0.00495502 -1.74541e-20)
(1.07263 -0.0403581 3.58195e-21)
(1.00946 -0.00293905 -1.50606e-22)
(1.03564 -0.0201614 4.16414e-22)
(1.07173 -0.0421142 0)
(1.04712 -0.0457801 5.40549e-21)
(0.34358 0.00404929 -5.15391e-21)
(0.983274 0.120161 4.70681e-22)
(0.901443 -0.0446973 8.15324e-21)
(1.01314 0.00125251 3.48496e-22)
(1.08331 -0.0413117 -2.28469e-21)
(1.0073 0.000675057 -1.19368e-22)
(1.00955 0.000144987 5.41807e-22)
(1.00464 0.0011101 1.69645e-22)
(1.00893 -0.00249618 0)
(1.00607 -0.000485729 -5.21157e-22)
(0.623106 -0.114693 5.94915e-21)
(0.331862 0.00155234 -1.21882e-20)
(1.00909 -0.00267585 2.04366e-22)
(0.881376 0.212864 -3.35603e-21)
(0.362321 -0.0139218 4.65156e-21)
(0.00473779 0.150735 -7.56925e-23)
(0.358087 0.0885052 0)
(1.07609 -0.0574536 1.61978e-20)
(1.09373 -0.0700612 5.87687e-21)
(1.01312 -0.000717791 -1.2335e-22)
(0.846046 0.247195 3.1396e-21)
(1.00886 0.000351912 0)
(1.0169 -0.00817143 0)
(1.00868 0.000337676 -1.96045e-22)
(1.0296 -0.0498417 0)
(0.146167 -0.11761 0)
(0.075126 -0.0336526 -2.58011e-23)
(0.990968 0.00706467 0)
(0.751615 -0.192934 -2.99522e-21)
(1.01625 -0.0109753 1.45241e-23)
(0.99668 -0.00611096 -1.79642e-21)
(1.01767 0.0016694 3.23807e-22)
(1.01868 -0.00874797 6.31913e-22)
(1.07905 -0.0504665 -2.94244e-21)
(1.0094 -0.00287897 2.87313e-22)
(0.243409 -0.000852685 6.50433e-21)
(1.00352 0.00815215 -1.57269e-22)
(1.00956 0.000137246 -4.0627e-22)
(1.00811 -0.00204345 -1.25386e-22)
(1.01093 0.000657631 0)
(1.02339 -0.00623991 -1.34558e-21)
(0.900505 -0.110799 -8.47221e-21)
(1.01343 0.00216986 0)
(1.01983 -0.00140824 -1.83469e-21)
(1.01697 -0.00725646 -5.56559e-24)
(0.904634 -0.258257 0)
(0.523297 0.0818138 1.84695e-21)
(0.911536 0.175348 -4.21964e-21)
(0.966791 -0.0700211 5.26858e-22)
(0.384813 -0.00412398 0)
(0.0140478 -0.0301668 3.28138e-20)
(1.0073 0.000421204 7.4424e-23)
(0.423831 0.0613614 9.16828e-21)
(0.967226 -0.0709468 4.21499e-21)
(0.941338 -0.0881778 -1.48043e-20)
(1.0095 -0.00288896 0)
(0.253059 0.00709801 7.51045e-21)
(1.01132 0.000751065 -1.96551e-22)
(1.01273 0.0015979 0)
(1.0091 0.000154495 0)
(0.670366 0.258287 -1.1879e-22)
(0.891873 -0.133759 1.00573e-20)
(1.00009 9.92931e-06 -3.31334e-22)
(1.01315 0.000870237 -7.01588e-22)
(1.00952 0.000749839 -5.14039e-22)
(1.08633 -0.054029 1.17295e-20)
(1.01518 -0.0754925 0)
(1.01977 -0.000802716 0)
(1.07152 -0.057225 -6.78187e-22)
(1.01191 -0.00558227 -1.82911e-23)
(-0.146165 0.0236856 -3.67465e-20)
(0.952298 -0.0727189 2.64526e-21)
(1.08644 -0.0572125 -9.9966e-21)
(1.01982 -0.00148463 -5.4752e-22)
(0.896764 0.171437 -2.95251e-21)
(1.02946 -0.0205701 9.06539e-22)
(1.01596 -0.0106046 1.83537e-22)
(1.01569 -0.00554312 9.56568e-22)
(1.00817 -0.0020757 1.22398e-22)
(0.903307 0.137745 8.67478e-21)
(1.00935 0.000192969 5.57879e-22)
(1.01651 -0.00362062 2.92082e-22)
(1.01569 0.00600665 4.90243e-22)
(1.01549 0.00284575 4.32508e-23)
(1.02179 -0.00555355 -1.18135e-21)
(-0.122051 0.138938 -1.88469e-20)
(1.00329 0.0102614 2.20764e-22)
(1.02003 -0.00130876 -2.78292e-21)
(-0.0279372 0.156873 -1.05354e-20)
(1.02655 -0.0298426 0)
(1.01555 0.00325346 0)
(1.07677 -0.0626796 7.61127e-21)
(1.01965 -0.000729707 1.63794e-21)
(1.0161 -0.0109014 -2.03391e-22)
(0.0556824 -0.0556913 -1.1392e-21)
(1.03667 -0.0380675 0)
(1.04642 0.0532158 7.28769e-22)
(0.626184 0.0229652 -1.66249e-21)
(1.09203 0.0376808 -6.73031e-25)
(0.992507 0.00974421 0)
(1.04123 -0.0934176 -2.2184e-21)
(-0.165272 0.167515 0)
(0.408438 0.240167 -1.79685e-20)
(1.0264 -0.00922792 -1.22128e-22)
(1.01548 0.00316503 -1.29652e-23)
(1.01749 -0.00688482 0)
(0.0626534 -0.0536283 1.14548e-21)
(1.00376 0.000101771 2.36639e-22)
(0.720542 -0.0298187 0)
(-0.112358 0.142292 3.7095e-21)
(1.00897 0.000765515 0)
(1.0053 -0.000278391 3.2293e-22)
(-0.0380121 0.153526 -1.03423e-22)
(0.860767 -0.0489359 5.52434e-22)
(1.05438 -0.19425 1.23941e-21)
(0.329824 0.279248 1.21369e-20)
(1.00026 1.54342e-05 -4.13438e-23)
(0.179019 0.00742506 9.06816e-22)
(1.00953 0.000594074 3.22992e-22)
(1.04214 -0.0100488 6.29548e-22)
(1.01869 -0.0089653 -1.90991e-21)
(1.01656 -0.00614406 -1.07025e-21)
(1.0076 -0.000375964 0)
(0.799155 -0.183958 0)
(1.05033 0.0501747 -3.38387e-22)
(1.08637 -0.0166937 0)
(1.08234 -0.0489429 9.79814e-23)
(0.649942 -0.064216 -1.57931e-20)
(1.08596 -0.05535 0)
(1.10212 0.0192858 5.98671e-23)
(1.02981 -0.137568 -5.00942e-21)
(0.0986771 0.0637361 8.4933e-22)
(1.01667 -0.00372624 -6.30966e-22)
(0.362743 0.00715742 -5.94315e-21)
(1.0117 -0.00538852 -1.0423e-24)
(0.484206 0.0118509 6.24572e-21)
(0.812309 -0.305906 1.77239e-21)
(0.76166 -0.0309189 2.56673e-21)
(1.00924 0.000781573 0)
(0.284842 0.00182654 4.91665e-21)
(1.05618 0.0391999 0)
(1.03314 -0.039915 1.50314e-21)
(1.02108 -0.0187521 0)
(1.02196 -0.00568196 -1.19219e-21)
(0.535759 -0.0470851 0)
(1.01894 -0.0069196 3.61096e-22)
(1.07118 -0.0554924 4.51127e-21)
(0.643727 0.0527912 -3.90152e-21)
(1.00045 3.17901e-05 0)
(1.00723 0.000662714 -2.87065e-23)
(0.62631 0.0986143 -1.01898e-22)
(1.0042 0.000127489 0)
(0.878975 -0.110896 0)
(1.00872 -0.00243498 3.31287e-22)
(1.01954 -0.000495313 -8.43926e-22)
(1.0133 -0.00838035 0)
(1.0209 -0.0183394 0)
(1.05818 -0.0543706 -2.01404e-22)
(0.224003 -0.00107166 -5.32389e-21)
(1.00558 5.34996e-05 -9.26687e-23)
(1.03032 -0.0307661 7.63065e-22)
(1.01582 -0.0105234 0)
(1.04594 -0.133944 0)
(0.436448 -0.00134376 0)
(1.0712 -0.0584848 0)
(1.00932 0.000619587 1.4599e-22)
(1.0237 -0.0142828 -1.87837e-21)
(0.925576 -0.0387151 -1.4639e-21)
(1.01236 0.00728405 8.64124e-24)
(1.0023 3.55275e-05 -1.00731e-22)
(0.510638 -0.0159221 9.0526e-22)
(0.501455 0.0463585 1.73346e-20)
(1.00705 0.000531224 2.22689e-22)
(1.07863 -0.0538644 1.66497e-20)
(1.01595 -0.0686259 0)
(1.00868 -0.00042821 -3.71876e-23)
(1.00568 2.33993e-05 -2.02512e-22)
(1.00996 -0.000473618 5.59775e-22)
(0.561407 0.0517191 1.75638e-23)
(1.08462 -0.0533549 -8.73094e-22)
(1.02001 -0.00139416 2.86544e-21)
(1.08256 -0.0413555 0)
(0.926695 0.134718 9.01397e-22)
(1.00917 -0.00273851 -3.59322e-22)
(0.547487 -0.0487344 -2.61158e-21)
(1.00556 2.74767e-05 -7.99698e-23)
(1.01319 -0.00871447 0)
(1.01234 0.00117377 0)
(1.01998 -0.00945264 0)
(1.0067 0.000377476 2.1407e-22)
(1.05766 -0.0494003 -2.13505e-22)
(0.394245 -0.241763 -3.90179e-22)
(1.01164 -0.00354859 2.72911e-22)
(0.167742 0.0204541 -9.37721e-22)
(1.00878 -0.00246078 -3.49769e-22)
(1.06001 0.0313619 0)
(1.0263 -0.0296707 0)
(1.02342 -0.0141832 1.15977e-21)
(0.99883 -0.0110354 -4.6379e-22)
(1.01967 -0.000644271 -8.28901e-22)
(1.00825 0.000471044 0)
(1.00847 0.000383741 5.62712e-22)
(1.07013 -0.0408902 8.37934e-21)
(-0.00606675 0.145348 -4.95812e-21)
(1.01 -0.000502776 0)
(0.332284 -0.00776532 0)
(0.17517 0.000378823 0)
(0.456771 -0.000438637 -5.66282e-21)
(1.02959 -0.0202397 0)
(1.03366 -0.00796183 0)
(1.00259 4.12158e-05 1.04765e-22)
(1.00976 0.000220085 -1.06028e-22)
(1.00051 8.9373e-06 -5.82736e-22)
(1.03899 -0.0944725 -2.1254e-21)
(0.880912 0.194203 0)
(0.61982 -0.0106612 1.40978e-21)
(1.01212 0.00144609 3.31435e-22)
(0.183979 -0.134471 -7.51875e-21)
(1.00982 0.00017852 -5.53432e-24)
(1.06428 0.0195643 0)
(1.0092 0.000603342 -1.98637e-22)
(0.626634 0.0212281 0)
(1.00562 2.74634e-05 -3.3036e-22)
(0.447111 -0.0104117 -4.09322e-21)
(1.00726 0.000405035 5.30578e-22)
(0.392723 0.00552745 0)
(1.06668 -0.0300615 1.03998e-20)
(0.518757 -0.0412615 0)
(1.00888 -0.00252899 1.40413e-22)
(1.01289 0.00112621 0)
(1.0126 -0.00368635 -3.98466e-22)
(1.07092 -0.0572593 1.16622e-21)
(1.02811 -0.0279617 0)
(0.627714 -0.0340038 0)
(1.00702 0.000379153 6.74171e-23)
(1.02007 -0.000353571 -1.83951e-21)
(1.02863 -0.0176477 -1.84603e-21)
(1.01319 -0.00823522 -8.4394e-24)
(0.865184 -0.0620471 0)
(1.01297 0.000609367 -3.32456e-22)
(1.01357 -0.00875888 -3.90174e-22)
(0.0481867 0.0553504 8.53453e-22)
(0.445313 -0.0107712 0)
(1.01229 0.00117969 -3.9064e-22)
(0.36175 -0.001694 4.11388e-21)
(1.08326 -0.0487652 -3.92991e-21)
(0.913507 0.098454 -4.96373e-21)
(0.31194 -0.00215874 0)
(1.0343 -0.00772203 0)
(1.06208 -0.0929328 -2.19825e-23)
(0.545751 -0.0503478 -7.82014e-21)
(0.0628823 -0.0356683 4.50786e-22)
(1.00533 2.86185e-05 1.92539e-22)
(0.696533 0.277609 -1.2283e-21)
(1.0071 0.000608696 -1.52555e-22)
(1.007 0.000414467 3.49241e-22)
(0.458332 -0.0149988 -1.68706e-21)
(1.07465 -0.051142 -5.44714e-21)
(0.873664 -0.0487724 0)
(0.0904507 0.159141 0)
(0.922945 0.161972 -8.13731e-23)
(1.00802 -0.00197896 -6.18942e-23)
(1.05513 -0.0609624 4.15307e-21)
(0.667196 -0.139917 1.48544e-21)
(0.796269 -0.187382 0)
(0.327016 -0.00419413 0)
(1.01251 0.000132466 1.79538e-22)
(1.01182 -0.00552159 -1.09913e-24)
(1.07894 -0.0610705 2.02374e-20)
(1.01571 -0.0102666 5.01984e-23)
(1.00684 0.000404195 0)
(1.01619 -0.00355084 0)
(1.02107 -0.0180881 0)
(1.00668 -0.00100532 0)
(0.452026 -0.00192943 -6.72247e-22)
(1.0064 0.000454257 -5.90703e-22)
(1.0573 -0.0547361 1.87108e-22)
(1.01143 -0.00347524 0)
(1.07832 -0.0536193 -1.27419e-20)
(1.00272 -0.00016921 0)
(-0.127808 0.200844 1.34374e-20)
(0.872309 0.181975 8.35417e-22)
(1.00294 -0.04349 7.89794e-21)
(0.812486 -0.0035089 -3.68558e-22)
(1.01134 0.00120076 0)
(1.01485 -0.00927588 0)
(1.00994 -0.000319568 5.97845e-22)
(1.03383 -0.0403607 -1.83458e-21)
(1.0575 -0.0238423 0)
(1.01204 -0.00571329 1.97708e-23)
(0.6433 -0.0980154 0)
(1.05352 -0.0894301 2.12575e-22)
(1.00822 -0.00114185 4.38718e-22)
(1.07132 -0.0322912 -3.10004e-21)
(0.448612 -0.00169177 -8.88553e-22)
(1.02247 -0.0025904 2.46632e-21)
(1.01119 0.100354 0)
(1.11915 -0.0216974 4.91732e-22)
(0.470877 -0.00650533 1.00184e-21)
(1.0099 -0.000282416 -1.4299e-22)
(1.00477 -0.0352182 1.83833e-21)
(1.01065 0.000626159 -1.84117e-22)
(1.02243 -0.00594175 1.19496e-21)
(1.01666 -0.0425824 -8.6223e-21)
(1.00947 0.000599418 0)
(1.00821 0.00083424 1.31981e-22)
(1.01937 -0.0108695 -1.29029e-21)
(1.07645 -0.063138 -7.84095e-21)
(1.01351 -2.74873e-05 -2.93071e-22)
(1.01412 -0.00887849 2.76208e-23)
(0.636463 -0.154894 0)
(1.02146 -0.00494693 2.15571e-21)
(1.08206 -0.0404815 0)
(1.01623 -0.0138908 -9.61566e-23)
(1.01198 -0.000404202 8.12544e-22)
(-0.134829 0.00740282 2.74536e-20)
(1.00949 0.00259917 -3.07704e-21)
(0.802718 -0.30081 -2.00719e-21)
(1.01559 -0.0101695 -5.81078e-23)
(1.01277 -0.000294882 -1.18475e-21)
(1.01982 -0.0116042 -8.28714e-22)
(1.04247 -0.00967849 -5.83038e-22)
(1.00007 4.37885e-07 0)
(1.11048 -0.0709866 -6.44959e-21)
(1.01873 -0.00844216 0)
(0.465369 -0.00321895 7.10804e-21)
(0.324959 -0.00507361 0)
(1.00807 0.00092254 1.2596e-22)
(0.637034 -0.0755205 1.39381e-20)
(1.04145 -0.0440607 -7.88408e-21)
(1.03331 -0.00698895 -7.12361e-22)
(1.00913 0.000167305 0)
(1.02973 -0.0486741 -2.32539e-22)
(1.01366 -7.15829e-05 7.30687e-22)
(0.990308 -0.163148 -1.77263e-22)
(1.01775 -0.00722555 -1.08943e-21)
(1.00698 0.000439046 -1.46e-22)
(1.10447 0.0168128 1.50398e-23)
(0.963804 -0.0934673 1.35535e-20)
(0.454264 -0.0112322 0)
(1.00881 -0.00486634 -1.02907e-21)
(1.06293 -0.017863 3.80333e-21)
(1.00931 0.000176968 0)
(1.00505 -0.000291733 1.60069e-23)
(0.104583 -0.0165244 -9.95623e-22)
(1.01162 0.00118915 1.23167e-22)
(-0.0286611 0.0312887 0)
(1.01304 0.00122689 0)
(0.533615 -0.191077 0)
(1.08392 -0.0522227 7.65966e-21)
(1.00361 -0.00016103 -8.03028e-23)
(1.00858 -0.00233033 9.69891e-23)
(1.00624 -0.0363345 -1.51559e-21)
(1.01235 -0.00650742 4.41464e-22)
(1.09116 -0.0591353 8.92165e-21)
(1.01046 0.00027717 -4.54355e-22)
(0.616907 -0.0339561 -2.38901e-21)
(1.0204 -0.00037867 -2.00212e-21)
(1.01198 0.0011846 4.25675e-22)
(0.88715 -0.0626969 -4.98162e-21)
(1.0151 -0.0121559 -3.51861e-22)
(1.06596 -0.0301617 -5.1872e-21)
(1.00881 0.000237228 -1.99807e-22)
(1.02024 -0.00120562 8.88016e-22)
(1.07041 -0.0287652 8.81943e-21)
(1.00292 4.63196e-05 2.50042e-23)
(1.02597 -0.0298334 9.61532e-24)
(0.528437 0.01412 7.44572e-21)
(1.02415 -0.00588984 0)
(0.729773 -0.208709 -4.78465e-22)
(1.04614 -0.0941269 5.3604e-21)
(1.01387 0.00153061 -2.50742e-25)
(1.01349 -0.00744559 -3.14878e-23)
(0.488065 0.0186227 0)
(0.393392 0.00946453 0)
(1.01401 -0.0193501 0)
(0.540489 0.0151254 -6.84443e-21)
(0.281568 -0.00396286 1.45285e-21)
(1.00876 -0.0040848 -1.57281e-21)
(1.02163 -0.0271017 2.39382e-22)
(1.01578 -0.0125006 5.41463e-23)
(1.01137 0.00157531 0)
(1.01002 0.000602414 3.34948e-22)
(-0.0545841 0.22003 0)
(1.01582 0.00538585 -2.70451e-22)
(1.04615 -0.0118142 -2.94541e-21)
(0.778963 -0.194919 0)
(1.02722 -0.0319625 -6.53072e-23)
(0.777446 -0.00712683 5.27625e-21)
(0.431378 0.00869807 6.93319e-21)
(0.785275 -0.0275888 -5.25436e-21)
(1.03996 -0.0356626 -2.66094e-21)
(1.02022 -0.00130233 3.60797e-21)
(1.07792 -0.0581992 -2.93839e-23)
(1.01815 -0.021416 0)
(0.998509 0.103382 0)
(1.08609 -0.0577177 -7.57172e-22)
(1.02087 -0.0176856 0)
(0.346352 -0.000917116 -4.99585e-21)
(1.01823 -0.00122779 0)
(0.99347 -0.0446745 -2.45168e-21)
(1.08264 -0.0590011 0)
(1.01634 -0.00366979 -3.22562e-22)
(0.767611 0.143391 2.36791e-21)
(1.0475 -0.00849983 1.50011e-21)
(1.01061 -0.00139004 0)
(1.0509 -0.0183811 5.46162e-21)
(0.449425 -0.0134004 -1.76262e-21)
(1.05743 -0.0232286 -3.27669e-21)
(1.00862 -0.00236923 -1.01016e-22)
(1.01077 -0.0116122 -8.46506e-22)
(0.604781 -0.0325621 -1.39427e-21)
(0.881848 -0.0996378 0)
(1.08086 -0.0581621 1.00675e-20)
(1.00607 -0.000477628 1.7754e-22)
(1.06539 -0.0289466 7.71968e-21)
(0.847824 0.244938 0)
(1.04552 -0.0337531 0)
(1.0358 -0.0213711 0)
(1.01043 -0.0111459 8.26334e-22)
(1.01562 -0.00666809 3.14371e-23)
(0.206147 -0.140001 0)
(1.11438 -0.0738129 5.91789e-21)
(1.0341 -0.00802685 -2.73776e-21)
(0.457694 -0.0117115 -1.98126e-21)
(0.894956 -0.232979 5.30974e-21)
(1.07109 -0.0589819 -4.02377e-21)
(1.02667 -0.033067 6.09109e-22)
(0.529441 0.0161297 7.86465e-21)
(1.07812 -0.0550821 0)
(1.06165 -0.0441115 3.86919e-21)
(0.0422839 -0.0793067 1.93477e-20)
(1.02783 -0.0181893 2.13495e-21)
(1.06127 -0.0227034 0)
(0.348583 0.00467764 2.86172e-20)
(0.824526 0.00118553 -5.68144e-21)
(1.02492 -0.018497 0)
(0.711215 -0.0320341 -4.75969e-21)
(0.478303 -0.00747327 0)
(1.01339 -0.000193481 -6.55554e-22)
(0.0700608 0.104028 1.47232e-20)
(1.01528 -0.0125959 1.11631e-21)
(1.04382 -0.0953697 -1.54261e-21)
(1.01253 -0.0067375 3.60779e-22)
(1.00361 0.000116125 5.88835e-23)
(1.00942 -0.00285349 0)
(0.0589371 -0.0701241 2.1531e-21)
(0.265321 0.0807862 -3.19429e-22)
(0.317611 -0.151254 7.22574e-22)
(0.288697 0.303175 -1.7804e-20)
(1.00263 -0.0340296 0)
(0.338278 -0.00886182 6.26033e-22)
(0.937987 -0.280921 0)
(1.00561 2.44967e-05 1.00491e-24)
(0.974774 -0.0980611 2.93928e-24)
(0.38358 -0.00396456 0)
(0.892813 -0.226878 -6.21243e-21)
(0.0661472 -0.0835369 0)
(1.00975 0.000164576 1.01187e-22)
(0.248298 -0.153596 -1.70149e-20)
(1.01003 -0.00140677 1.17855e-23)
(1.00994 0.000166065 0)
(1.01293 -0.00719877 1.09571e-22)
(0.687004 0.0546563 -6.13768e-21)
(1.01212 -0.00304788 0)
(1.00483 0.00014816 0)
(1.02897 -0.0184151 -3.549e-22)
(1.00272 7.46602e-05 -2.10821e-22)
(1.02286 -0.0104461 1.07915e-21)
(1.01845 -0.00857351 0)
(1.01523 -0.0296477 -4.3438e-22)
(-0.0281634 -0.00599116 -8.61058e-21)
(1.07776 -0.0573521 8.50584e-22)
(1.0314 -0.0322484 0)
(0.929792 0.0260429 0)
(0.199434 -0.0908536 0)
(1.00723 -0.000461972 -1.09862e-22)
(1.08227 -0.040028 0)
(1.01621 -0.00598669 2.96952e-22)
(1.00531 0.000185046 0)
(0.29994 -0.168993 1.83581e-21)
(1.0075 -0.000825197 4.46591e-22)
(1.02241 -0.0344802 4.29354e-22)
(1.00103 3.14224e-05 -3.43498e-23)
(1.07098 -0.0643095 -4.522e-21)
(1.0257 -0.029616 -9.48405e-24)
(0.0706777 -0.0917123 7.39569e-21)
(1.03958 -0.00503534 2.37283e-21)
(0.578834 -0.0083311 4.62484e-21)
(1.02044 -0.00119295 -3.07041e-21)
(0.549845 0.0346767 0)
(1.02164 -0.00507025 -1.41333e-21)
(0.0378284 0.0383166 0)
(1.0044 -0.000231491 2.73166e-23)
(0.926093 0.00686341 0)
(0.779046 0.162264 -1.20891e-21)
(1.08349 -0.0520827 -1.88779e-20)
(0.637974 0.292174 0)
(1.00649 -0.000838384 -5.32738e-23)
(1.02474 -0.0182617 -9.91767e-22)
(0.987698 0.121457 0)
(1.01096 0.000643618 0)
(0.396518 -0.0127227 5.97279e-22)
(1.01338 -0.00729408 2.95203e-23)
(0.494784 0.0165922 -2.8441e-20)
(1.08043 -0.0582725 1.23338e-20)
(0.577187 -0.0132341 -5.76e-21)
(-0.0153693 0.156006 1.84946e-20)
(1.09011 -0.0595441 -2.36064e-21)
(1.01354 -0.00385893 4.08007e-22)
(1.01023 -0.00317164 -1.99917e-22)
(1.04862 -0.0696884 -6.97475e-21)
(1.08804 -0.0590539 2.62638e-21)
(0.566497 -0.0120172 -6.03361e-21)
(0.404833 -0.00451506 -4.88769e-21)
(1.00207 3.3363e-05 -2.02889e-22)
(1.01135 0.000775315 2.34364e-22)
(0.574818 0.0603051 -5.16439e-21)
(1.00708 2.10231e-05 0)
(1.01858 -0.00817989 -8.43516e-22)
(1.00894 0.000227408 -3.95291e-22)
(1.01004 0.10025 -8.47736e-22)
(1.07844 -0.0559912 9.23567e-21)
(0.280478 -0.176715 -2.76213e-21)
(0.562274 -0.00893761 -8.13921e-22)
(1.04689 -0.00846492 0)
(0.324261 -0.0053553 0)
(0.361493 -0.00187574 5.8555e-21)
(1.07063 -0.0322605 0)
(0.219354 0.00543889 0)
(1.01771 0.0113714 6.90984e-22)
(1.01554 -0.00576776 0)
(1.01363 -0.00382835 -8.88084e-22)
(1.02365 -0.0104807 -2.31056e-21)
(0.306156 -0.158541 -7.65819e-22)
(1.03362 -0.0278847 6.31109e-22)
(1.01171 0.000917747 0)
(1.03873 -0.0265966 3.00499e-21)
(0.188906 0.150459 0)
(1.11745 -0.0283875 -2.91252e-22)
(1.01002 0.000227506 -3.05095e-22)
(1.00531 2.67763e-05 -1.8133e-22)
(0.797254 -0.304253 -1.14669e-21)
(1.01308 0.00202076 -1.70482e-23)
(1.00534 0.000188478 -3.26306e-22)
(1.01022 0.000240942 0)
(0.447963 -0.0034418 5.22122e-21)
(1.00839 0.000417159 -5.62731e-22)
(1.01784 -0.0190055 -4.30873e-22)
(1.00951 0.000177227 -1.90894e-22)
(1.01044 0.00134756 -2.2539e-24)
(1.06569 -0.0833986 4.05e-21)
(1.01364 0.000125682 0)
(0.453788 -0.00265927 0)
(0.561478 0.0449839 1.23548e-20)
(1.03807 -0.0540652 -7.22574e-21)
(0.402465 -0.0259469 0)
(0.271907 -0.155817 2.06255e-20)
(0.826632 -0.0364731 -8.26697e-23)
(1.01 0.000235514 -9.93331e-23)
(1.00891 0.000380984 0)
(1.01122 -0.00346607 0)
(1.00866 0.000484455 0)
(1.02267 -0.00271841 -1.21848e-21)
(1.02512 -0.0565243 8.65606e-22)
(0.749666 -0.0580502 0)
(1.01872 -0.0067839 0)
(0.62817 0.112113 -2.92864e-21)
(1.0823 -0.0585255 4.40532e-21)
(1.03143 -0.0214179 -1.9935e-21)
(1.04898 -0.04567 0)
(0.912803 0.0428927 2.55839e-21)
(1.01397 0.00161677 -5.46618e-22)
(1.01182 0.00118381 0)
(1.01326 -0.00706925 -5.08512e-24)
(1.00887 -0.000473187 0)
(0.772584 -0.153703 -1.4241e-22)
(0.574685 0.0489806 -5.54688e-21)
(0.959504 -0.068577 4.61217e-21)
(1.0779 -0.0575036 0)
(1.01338 -0.00721911 -7.56432e-24)
(1.01184 -0.000513892 -1.18473e-21)
(1.04713 -0.0124528 -2.83325e-21)
(1.00966 7.44899e-05 5.1403e-22)
(0.556525 0.0877905 2.38371e-21)
(1.0072 0.000417114 1.68125e-22)
(0.903192 0.0219512 -2.89533e-21)
(1.08356 -0.0494269 -3.3443e-21)
(1.00716 -0.000490713 7.55488e-23)
(0.592342 -0.0460284 8.65661e-23)
(1.00616 -0.000517107 0)
(1.01183 -0.000510876 6.43043e-22)
(1.03048 -0.050502 -3.06461e-22)
(1.01345 0.00015898 0)
(1.01369 -0.00794941 -7.20234e-23)
(0.429305 -0.00210684 4.35996e-21)
(0.38209 0.000862315 0)
(1.0606 -0.0224385 0)
(1.08788 -0.0600599 0)