/*--------------------------------*- C++ -*----------------------------------*\
| =========                 |                                                 |
| \\      /  F ield         | OpenFOAM: The Open Source CFD Toolbox           |
|  \\    /   O peration     | Version:  v2012                                 |
|   \\  /    A nd           | Website:  www.openfoam.com                      |
|    \\/     M anipulation  |                                                 |
\*---------------------------------------------------------------------------*/
FoamFile
{
    version     2.0;
    format      ascii;
    class       volVectorField;
    location    "400";
    object      ddt0(U);
}
// * * * * * * * * * * * * * * * * * * * * * * * * * * * * * * * * * * * * * //

dimensions      [0 1 -2 0 0 0 0];


internalField   nonuniform List<vector> 
37809
(
(-0.000399 -0.000364281 -1.403e-21)
(-0.000713226 0.000395011 2.1468e-21)
(2.58091e-07 3.9178e-06 2.52961e-22)
(-0.000138508 6.43839e-05 8.23201e-22)
(0.00266578 -0.000401798 4.34415e-22)
(-0.000326651 0.000859176 1.32009e-21)
(-0.000192995 -0.000465814 8.64548e-22)
(-5.9548e-06 -0.00049861 1.91982e-21)
(-0.00385221 -1.07584e-05 0)
(-0.000515943 -6.89828e-05 2.58532e-22)
(-0.000267214 0.000283835 2.20677e-21)
(-3.43643e-05 -4.66025e-05 9.57614e-22)
(9.87645e-06 -0.000205001 0)
(5.3817e-06 -0.000204579 0)
(0.00299383 0.000159162 -5.3735e-21)
(-0.000152707 -4.86372e-05 2.05036e-21)
(-1.14973e-05 -2.46891e-05 9.68267e-22)
(-0.00243826 0.0014909 0)
(-8.90387e-05 2.83112e-05 4.47171e-22)
(-0.000218726 -0.000422893 0)
(3.83597e-05 -0.000318728 -5.39365e-21)
(3.60774e-05 -0.00031457 4.21369e-21)
(-0.00340311 0.00352392 0)
(-2.21168e-05 3.23933e-06 1.32412e-21)
(-0.000183338 -0.000277445 1.08627e-21)
(-0.0025814 -0.000514539 4.93297e-22)
(-0.00221796 0.00534163 2.51508e-21)
(-1.251e-05 -0.000134828 0)
(4.64595e-07 2.27304e-06 0)
(-6.12489e-06 -0.000511371 -4.50991e-21)
(-0.00188118 -8.08184e-05 0)
(0.00383917 -0.000135737 0)
(-2.21312e-05 1.50615e-06 1.23845e-21)
(-8.40062e-05 -0.000571851 4.85182e-21)
(-3.85745e-06 6.78437e-05 0)
(-1.05547e-05 -2.40859e-05 0)
(-8.38057e-06 2.04903e-05 -1.33647e-21)
(0.00121613 -0.00365074 -1.04529e-21)
(-0.000770573 4.9263e-05 -8.32013e-22)
(-0.000318043 0.00044881 -1.40823e-21)
(-7.26502e-05 1.68013e-05 -2.17097e-21)
(-0.000676186 0.000142856 -1.14294e-21)
(-0.00529076 -0.000276035 -3.41782e-21)
(-0.00157574 -2.02388e-05 4.4035e-21)
(-5.3122e-05 -7.00846e-05 -2.50212e-21)
(-9.88156e-05 0.00027448 -2.85197e-21)
(-0.000677146 0.00212013 2.50919e-21)
(0.00339711 -0.00125628 0)
(-0.00195171 0.00531515 -1.04817e-21)
(-0.000340186 -6.20453e-05 0)
(-5.30675e-05 4.8807e-05 2.79161e-21)
(-2.60115e-05 -9.63957e-06 1.02781e-21)
(-2.03642e-05 -2.0781e-06 -2.80346e-21)
(-0.000105714 1.54243e-05 -1.79088e-21)
(-0.00373133 -0.000169844 0)
(-1.97838e-05 -6.94749e-07 2.65804e-21)
(-0.000184394 -0.000128153 0)
(-0.000108579 0.000138384 1.2612e-21)
(-0.000752832 0.000137655 -1.43466e-21)
(0.00260581 -0.00213932 8.717e-22)
(-0.00145839 0.000335463 1.76129e-21)
(6.20286e-06 -0.000198356 0)
(9.77803e-06 -0.000205142 0)
(-0.000740098 -0.000348494 3.46079e-21)
(-0.00192381 -1.28998e-05 0)
(-0.000190509 -0.000275819 9.95791e-23)
(-0.00441407 -0.00197811 -7.27924e-22)
(-9.29973e-05 2.39244e-05 3.36073e-21)
(-9.16482e-06 0.000169487 3.43841e-21)
(-0.00528965 0.0036513 -1.52386e-21)
(-0.000147949 1.8381e-05 0)
(0.00293269 -1.85434e-07 0)
(-3.51142e-05 -6.65062e-05 0)
(3.87543e-06 -0.000204598 1.293e-21)
(-1.37682e-05 -0.000132327 0)
(-1.29468e-05 1.51731e-05 3.92964e-21)
(-0.000295067 0.000438627 3.0102e-21)
(-0.000552608 -0.000316942 0)
(-0.000389483 -0.000353705 0)
(0.000950908 -0.00132386 0)
(-3.53004e-05 -1.27937e-05 -1.05168e-21)
(3.04717e-07 2.72533e-06 0)
(-0.000672745 0.00298368 1.24307e-21)
(-0.00024427 0.000124088 7.43269e-21)
(-6.61337e-05 2.46211e-05 0)
(-0.00546395 -0.000249422 1.30925e-21)
(-8.18122e-05 -0.000150735 0)
(-0.00333714 0.00387636 -4.97993e-22)
(-0.000657056 0.000714853 1.48592e-21)
(-0.000106634 -0.000202951 -4.73378e-22)
(0.00118028 -0.00357907 0)
(0.00133192 -1.83323e-05 -3.43965e-21)
(-7.20578e-05 -0.000350204 -5.9253e-22)
(-0.00336356 0.000562661 0)
(-8.26338e-05 -0.000151729 -3.55801e-21)
(-0.000966667 0.00277437 0)
(-3.39528e-05 -6.88286e-05 0)
(-5.50987e-05 4.95053e-05 -2.86459e-21)
(0.00519255 8.33742e-05 1.52106e-21)
(-1.92688e-05 -6.25962e-07 -2.31803e-21)
(-0.0026183 0.00315354 -2.0677e-21)
(-5.36115e-05 4.95963e-05 -4.44891e-21)
(-0.000734891 -0.000314971 -1.82882e-21)
(-0.00251203 0.00133886 -1.46038e-21)
(-0.00200381 0.0047556 2.79827e-21)
(4.70796e-07 -1.06219e-07 -6.14297e-21)
(-4.53877e-06 -0.000510823 -2.28169e-21)
(-0.000171129 -3.00813e-05 0)
(-0.000671541 -0.000232828 -5.96201e-22)
(-3.36036e-05 -4.14222e-05 0)
(-0.000214105 -0.000414242 -2.80909e-21)
(-0.000238525 0.000130093 -7.99444e-21)
(6.924e-05 -0.000412532 -1.78072e-21)
(-9.01222e-05 -0.000151652 -2.1112e-21)
(-0.000179997 -0.000126637 0)
(-0.000751109 7.0574e-05 7.47049e-22)
(-6.50162e-05 -0.000122426 0)
(-1.63284e-05 -4.17822e-05 -8.55702e-22)
(-0.00404469 -0.000698182 -1.0321e-21)
(0.00440654 -0.000257758 -1.67073e-21)
(8.43954e-08 2.88679e-07 -4.13125e-21)
(-9.33466e-05 6.50114e-05 0)
(-0.000206796 -1.94803e-05 2.69452e-21)
(0.00284526 -0.000436714 0)
(-0.0015199 -8.89596e-05 1.17701e-21)
(-6.37427e-05 -0.000122788 0)
(-0.00094158 0.00196402 2.38255e-21)
(-7.151e-05 -8.15745e-05 2.77681e-21)
(-9.90506e-05 -0.000202271 0)
(1.68725e-05 0.000196372 2.17176e-21)
(-8.79689e-05 -0.00292347 -1.59713e-21)
(-0.000295151 0.0030508 1.33527e-21)
(-0.00603559 2.81163e-05 -8.26754e-22)
(-2.578e-05 7.44483e-06 -9.5279e-23)
(0.00104106 -0.00165245 0)
(-2.1062e-05 -2.78732e-07 0)
(-5.39179e-05 4.96162e-05 0)
(8.98611e-06 -0.000198085 0)
(0.00169754 -0.00010567 5.79185e-21)
(-0.00201399 0.00200476 -6.70832e-24)
(-1.49867e-06 6.91518e-05 -1.09292e-21)
(0.00322266 -0.00239997 2.56508e-21)
(0.0012244 -0.000151242 -6.18527e-21)
(-1.07179e-05 7.10351e-05 -2.22063e-21)
(-3.60458e-05 -6.89646e-05 0)
(-0.00387564 0.00195501 -4.02493e-21)
(-0.000128752 6.13866e-05 -3.41495e-21)
(-4.37989e-05 -0.000186354 1.02103e-21)
(-0.000825622 0.003027 -2.30587e-21)
(-2.73466e-06 8.49422e-07 -2.51579e-21)
(0.00460112 0.000148435 1.61127e-21)
(2.23252e-05 0.000199317 0)
(-0.000122931 0.000585024 1.09579e-21)
(0.00160517 -0.00126743 -1.7911e-21)
(0.000521419 -0.000309419 1.74757e-22)
(-3.0074e-06 9.62068e-07 0)
(0.00153941 -0.00239325 -1.1958e-21)
(-0.00384756 -0.000540586 4.53179e-22)
(-0.000107327 1.7555e-05 7.39203e-22)
(0.00438615 6.34007e-06 7.88233e-22)
(-9.36413e-05 -0.000204523 -4.45966e-22)
(0.00116419 0.00321729 -1.12847e-21)
(-8.41057e-06 -0.000549308 -3.86506e-21)
(0.000421104 -0.00010951 1.30815e-21)
(-5.50496e-06 -0.000187925 -5.07472e-22)
(-3.40271e-06 9.22951e-06 2.52119e-21)
(-2.94341e-05 4.53695e-07 -3.26277e-21)
(0.00140446 0.00029593 1.45101e-21)
(-0.000696331 -0.000134606 2.55517e-24)
(0.000472994 -0.000227519 0)
(-0.00523167 0.00219484 2.89054e-21)
(-3.00269e-05 -2.67053e-05 0)
(0.00251048 -0.000524459 -4.34307e-21)
(-0.000123181 6.80487e-05 -2.28654e-21)
(-8.79555e-06 0.000176416 0)
(-0.00012357 -0.000134601 2.37552e-21)
(-0.00206429 0.00481282 0)
(-0.000101818 -0.000205107 -1.69272e-21)
(0.000919535 0.00197888 0)
(-0.000374058 -0.000240593 0)
(0.00429819 -0.000213357 1.86338e-21)
(-8.77296e-05 7.0409e-05 3.21691e-21)
(-2.05621e-05 -1.47647e-06 2.5791e-21)
(-3.78745e-05 -0.000145353 0)
(2.47617e-06 3.18008e-05 -4.05005e-24)
(-0.0027531 -0.000990697 2.2936e-21)
(-8.67376e-05 6.98872e-05 0)
(-0.000199921 5.68208e-05 3.23776e-21)
(0.000282133 0.0020212 -3.45798e-24)
(-0.00146141 -1.01384e-05 -4.37016e-21)
(-0.000337711 -5.37535e-05 1.00328e-21)
(-3.50478e-05 -7.13065e-05 0)
(-5.46571e-05 -0.000111176 -4.39034e-21)
(0.00102012 -5.32747e-05 9.57817e-22)
(-0.000660472 0.00057202 0)
(3.31385e-05 -0.000508345 -1.56786e-21)
(-1.9791e-05 -2.08593e-05 0)
(3.69476e-06 1.91927e-05 0)
(-1.84966e-05 -4.30924e-06 0)
(-0.000149693 2.05714e-05 0)
(0.00304212 5.96751e-05 9.14538e-21)
(-0.000272583 0.000299026 0)
(0.00295235 0.000246716 2.50299e-21)
(-0.000381003 -0.000234237 0)
(-0.00604066 4.15612e-05 0)
(1.47866e-06 2.95504e-05 -3.00831e-21)
(-0.000126088 6.85205e-05 -4.11842e-21)
(-0.000160731 -0.000317757 1.9892e-21)
(-2.85616e-05 -2.48275e-06 2.10781e-21)
(-0.000324419 0.00153329 6.06606e-24)
(-0.000152384 -0.000318064 -1.18483e-22)
(-0.000536668 0.000431861 0)
(-1.65428e-05 -6.17251e-06 2.46391e-21)
(-1.59779e-05 -3.74133e-05 2.67729e-21)
(-3.2126e-05 -8.39796e-06 0)
(-0.00220316 0.00155157 2.96246e-21)
(6.09958e-05 -0.000313045 0)
(-5.92481e-05 -1.42549e-05 0)
(-1.69972e-05 -6.95929e-06 -3.15895e-21)
(-0.00064521 0.00287874 -3.78103e-21)
(-0.00332102 0.000776709 1.33168e-21)
(3.45887e-06 -0.000501307 0)
(-6.17944e-05 -0.000136764 0)
(-9.12137e-05 6.97549e-05 5.92823e-23)
(-3.5441e-05 -1.21839e-05 0)
(0.0040848 0.000861748 1.05903e-21)
(0.000563777 0.00100454 1.02364e-21)
(-0.000845868 0.00193214 -3.3697e-21)
(2.8857e-05 -0.000214806 -4.33399e-21)
(-0.000530335 0.00300741 0)
(-4.18827e-05 -0.000142243 0)
(-6.73453e-05 -0.000413739 7.74353e-22)
(-0.00259578 -0.000576891 3.74127e-21)
(3.00947e-06 -0.000196502 1.00415e-21)
(-0.00570643 0.00219383 -4.46791e-21)
(-0.000693537 0.0019529 6.35812e-22)
(-2.24961e-05 -1.63175e-05 6.5686e-22)
(0.00441207 0.000605114 0)
(-3.03599e-06 -0.000184388 4.85903e-22)
(-0.000342736 0.00049771 0)
(0.00241936 0.000167568 -2.46005e-24)
(-2.96167e-05 -2.54064e-05 0)
(0.00204385 -0.00302681 -1.67777e-21)
(-0.00173342 0.00450847 -1.08907e-21)
(-5.4287e-05 -7.23918e-05 2.29691e-21)
(-1.29764e-05 -4.16051e-05 0)
(3.64713e-07 4.20557e-06 0)
(-2.35021e-06 1.67923e-06 1.15681e-21)
(0.000477276 -0.000178792 1.46385e-21)
(4.13731e-06 3.65642e-05 0)
(1.42767e-07 -0.000110952 -1.56073e-21)
(-2.23012e-05 -3.23177e-07 -1.29794e-21)
(-2.10718e-05 -6.32979e-05 -3.62885e-21)
(0.00195065 -0.00218324 0)
(-6.26143e-05 -9.65694e-05 3.632e-21)
(-5.84794e-05 -9.49656e-05 0)
(4.05892e-06 1.8926e-05 0)
(-4.95053e-07 -8.04606e-05 -2.01649e-21)
(-4.05667e-05 -0.000603596 3.34287e-21)
(-0.000675959 -0.000675042 1.11509e-21)
(0.00153219 -0.0012545 0)
(-5.61586e-05 -0.000114693 4.78662e-21)
(0.00388599 0.000215459 -7.68913e-21)
(-9.45329e-05 6.46512e-05 0)
(-0.00152808 0.000224709 -1.96934e-21)
(-0.00034258 -0.000250628 5.76903e-21)
(-0.000684722 0.00221644 -5.04875e-21)
(-0.000205367 -1.25324e-05 -1.10405e-21)
(-1.68341e-05 -2.15602e-05 0)
(4.14443e-05 -0.00049394 9.57531e-25)
(-0.00614893 -9.60855e-05 0)
(-3.31339e-05 -9.61846e-06 0)
(0.00197722 0.000544984 -3.05431e-21)
(0.00235904 -0.0018607 0)
(-2.22443e-05 -2.65146e-06 1.25039e-21)
(-0.000473419 0.000412279 1.53537e-21)
(-0.000101934 -0.000570782 -5.33093e-21)
(-8.46022e-06 -0.00010262 9.55379e-22)
(0.00258769 -0.00242951 9.03592e-22)
(-1.03117e-05 -7.49572e-05 0)
(-5.51127e-05 5.10387e-05 -1.54128e-21)
(-0.00708624 0.000212257 7.66996e-22)
(-0.00153646 -5.68893e-05 0)
(-2.19229e-05 5.79885e-06 1.58014e-21)
(0.000529236 0.00235686 1.39284e-21)
(-1.35993e-05 -3.86606e-05 0)
(-3.62651e-05 -6.44975e-05 -6.76954e-21)
(-1.86215e-05 -4.78401e-05 0)
(-5.97191e-05 -9.43158e-05 -4.94582e-21)
(-0.00585159 0.00451847 1.81471e-21)
(-2.64223e-05 -2.05038e-05 0)
(-0.000421158 0.000168674 -1.44294e-21)
(0.00242207 4.36954e-05 0)
(-1.97048e-05 -1.97136e-06 -1.19142e-24)
(-7.0098e-05 -8.2439e-05 2.72178e-21)
(-0.000196519 5.90498e-05 -4.06938e-21)
(-0.000867523 0.00290016 0)
(0.000343593 -5.81576e-05 -4.66243e-22)
(-6.28072e-05 -9.58125e-05 3.21151e-21)
(0.000186584 -0.000222066 2.06596e-21)
(-0.00040617 0.000161464 -1.86765e-21)
(0.0037795 -6.97433e-05 1.29081e-21)
(-1.35997e-05 1.61627e-05 -3.14771e-21)
(-0.00193626 0.00382424 3.38871e-21)
(-0.00048435 -5.08456e-05 0)
(-0.00024538 0.000108479 -8.83612e-22)
(1.42693e-07 2.6798e-06 5.28395e-21)
(-0.000148244 1.45758e-05 3.21057e-21)
(0.000102001 2.37901e-05 1.19956e-21)
(-2.8439e-05 -2.36663e-05 0)
(0.000157515 0.00202202 0)
(0.00201247 -0.00222202 7.97422e-22)
(0.000371108 0.000303954 -1.36439e-21)
(-0.00035354 -0.000128217 5.35916e-21)
(1.28836e-07 3.58007e-07 3.83734e-21)
(0.000835923 0.000546048 0)
(-4.14031e-05 -0.000189681 -3.39363e-21)
(-8.97648e-05 3.23766e-05 -4.59437e-22)
(-0.00011944 -0.000514911 -3.35414e-21)
(-0.0052534 -1.9529e-05 0)
(-0.000136407 -0.000384794 4.20537e-21)
(-1.1752e-05 -0.00049001 -1.37328e-21)
(-0.000215798 -0.00020984 1.18505e-21)
(-0.000146067 1.03182e-05 2.66697e-21)
(-0.00120222 -0.0051581 -2.94831e-21)
(-3.03066e-05 -0.000312108 -3.71369e-21)
(-0.000646411 -5.76456e-05 0)
(-1.87944e-05 -2.73933e-05 0)
(2.13389e-07 2.66334e-06 -1.23928e-21)
(-0.00329968 0.00196726 -1.66258e-21)
(-2.26235e-05 -1.65247e-05 5.88285e-21)
(9.36897e-06 6.2006e-05 4.17999e-21)
(-5.64635e-05 5.16722e-05 7.43938e-21)
(-0.000170772 -3.07093e-05 -2.1912e-21)
(-1.28083e-05 2.2048e-05 1.34378e-21)
(-2.58593e-05 5.80372e-06 1.6076e-21)
(-0.000180638 0.000655982 -1.31892e-21)
(-8.83839e-05 3.52485e-05 0)
(-2.07391e-05 -2.01288e-05 -2.64088e-21)
(2.38281e-05 0.000155757 9.91814e-22)
(-1.47835e-05 2.48485e-07 0)
(-1.96128e-06 -0.000204726 0)
(-1.39727e-06 -0.000541401 0)
(-0.00468742 0.00346324 8.61642e-22)
(-0.000156392 6.26206e-05 3.49168e-21)
(-0.00322608 0.00207387 2.04824e-21)
(-0.000167759 -0.0002356 1.9304e-21)
(-8.20275e-06 -0.000103111 1.98932e-22)
(0.00385788 -0.000209406 3.48367e-21)
(-0.000128902 6.11639e-05 0)
(-4.20209e-06 -0.000476584 0)
(-7.23296e-05 -0.000423559 -3.80379e-21)
(-3.22682e-05 -3.96804e-05 1.09499e-22)
(-9.27416e-05 1.86657e-05 0)
(-0.00496177 0.000131761 5.42523e-22)
(-0.00287565 0.00288081 5.33419e-22)
(2.95789e-06 3.4498e-05 -6.04422e-21)
(-0.00053188 0.00293865 3.64735e-21)
(-2.03017e-05 -1.84188e-05 0)
(-0.0032499 0.00355307 1.2625e-21)
(-0.00179758 0.00457013 -2.19261e-21)
(-0.000170138 -3.65248e-05 -2.59053e-21)
(-0.0030556 -0.000339023 -2.5873e-21)
(-0.00427397 0.00034143 -3.00538e-21)
(-0.0022082 -0.000438954 0)
(0.00421817 0.000783217 0)
(-4.70031e-05 -0.00026698 4.34191e-21)
(-0.000142814 -8.77814e-05 -3.91076e-21)
(-0.000139858 5.91617e-05 5.10947e-21)
(-2.81427e-05 7.8347e-06 -2.86245e-21)
(-2.22518e-07 -0.000205088 -1.30789e-21)
(-7.60685e-05 -0.000345788 1.77801e-21)
(-0.00032866 0.000897256 7.26289e-22)
(-0.000589565 0.000102108 0)
(-0.000182723 0.000247057 1.34739e-22)
(-3.02483e-05 2.9389e-05 0)
(-0.000812521 0.000951654 0)
(5.87016e-06 4.10462e-05 0)
(0.00494621 0.000101237 0)
(-3.12373e-06 -0.000554557 5.20178e-21)
(-3.72098e-05 -6.63496e-05 4.94517e-21)
(-4.10687e-05 -0.000188287 2.73308e-21)
(-0.00593883 -5.42602e-05 2.8318e-21)
(-0.000255988 -2.05646e-05 0)
(3.98477e-06 -0.000497266 0)
(-0.000188549 0.000109166 0)
(-0.00229712 0.00269346 0)
(-0.000185202 -0.000162114 1.82223e-21)
(0.000119226 -0.00056408 0)
(-1.70737e-05 2.9143e-05 -3.44197e-21)
(-9.95381e-06 -7.7951e-05 0)
(-0.00408941 0.000115163 0)
(7.73285e-07 3.78255e-06 -1.87936e-21)
(-7.34024e-05 -0.000109331 -2.69956e-24)
(-0.000112484 -0.000147922 3.35005e-24)
(-0.000688374 0.000742703 0)
(0.000222227 -0.000400284 0)
(3.26785e-06 -0.000459687 3.80731e-21)
(-0.000167162 4.08812e-05 0)
(1.54451e-06 4.25297e-06 -4.11538e-21)
(0.00080031 0.000552855 0)
(-0.000354571 0.00148258 7.38475e-24)
(-1.64906e-05 2.8103e-05 -1.47147e-21)
(-2.96717e-05 -7.45651e-05 0)
(-1.5056e-05 2.29512e-06 4.13925e-21)
(-0.000267639 -0.00035468 -4.93254e-21)
(-2.79324e-05 -2.21726e-05 1.48373e-21)
(0.0043903 0.000646636 0)
(0.00355241 -0.0013276 2.53902e-21)
(0.00229893 -0.0006607 2.59961e-21)
(-3.05778e-05 -0.000318451 0)
(-0.000168961 3.86011e-05 9.90348e-22)
(-0.000384381 0.000186137 -2.72539e-21)
(-4.15344e-05 -0.000145318 -2.56066e-21)
(-1.11137e-05 1.40192e-05 4.00562e-21)
(0.00236691 -0.00246105 -2.53853e-21)
(8.459e-06 -0.000460618 -3.98553e-21)
(-0.000878627 -8.23751e-05 -5.26087e-21)
(2.81176e-07 4.38859e-06 3.61634e-21)
(-1.84807e-05 -1.25261e-05 2.44474e-21)
(0.00037239 0.000130031 1.88018e-21)
(-0.000664913 -0.000116171 -5.76938e-21)
(-0.000384347 -0.000484009 8.09226e-22)
(-0.00182635 0.00375606 -3.01206e-21)
(-1.95021e-05 -4.67553e-05 -1.35466e-21)
(-0.00045051 0.00284347 -2.81298e-21)
(-9.31122e-05 6.91174e-05 3.84237e-21)
(-5.32137e-06 -0.000230994 -2.13503e-21)
(-4.01e-05 -0.000213188 0)
(5.17724e-05 -0.000675403 -4.20699e-22)
(-5.72348e-05 -4.7389e-05 -2.62429e-21)
(-0.000337064 -0.000259177 -1.76795e-21)
(-0.000140889 6.34631e-05 -2.9219e-21)
(-9.2265e-05 -0.000146757 -8.64528e-22)
(0.000617885 0.000134376 2.84971e-21)
(-4.46685e-05 -0.000140836 0)
(0.00530418 8.40594e-05 -1.99963e-21)
(0.00168777 0.000675083 2.65965e-21)
(-0.00012723 0.000133401 -2.86107e-21)
(-2.19972e-05 -1.54972e-05 -2.87112e-21)
(-8.37959e-05 -0.000140842 0)
(-0.000631041 -0.000501841 0)
(-9.48964e-05 1.89602e-05 -4.82481e-21)
(-0.000394231 0.000567039 -2.3094e-21)
(-2.75534e-05 -1.48569e-05 3.65809e-21)
(-4.26511e-05 5.40032e-05 0)
(-0.000810173 -0.000809678 -1.08662e-21)
(0.00160086 -0.00072281 0)
(-0.000380204 0.000500639 -1.10264e-21)
(-0.00202082 0.00273275 1.47534e-21)
(-0.000357133 8.91062e-05 4.08694e-21)
(-2.97239e-05 3.0677e-05 -1.30676e-21)
(-9.27493e-05 -0.000148426 0)
(9.45825e-08 -7.74022e-05 2.12531e-21)
(-3.50198e-05 -8.17475e-05 1.81978e-21)
(-2.20164e-05 4.76176e-06 0)
(-8.95092e-06 1.90608e-05 -2.65741e-21)
(-1.80345e-05 -1.44459e-05 1.19358e-21)
(-0.000413557 0.000219961 4.03509e-22)
(-4.08152e-05 -3.81642e-05 2.6417e-21)
(-6.34173e-05 -0.000138666 5.7266e-22)
(-0.000167049 -3.44289e-05 2.16662e-21)
(-0.000647542 0.000544375 1.37757e-21)
(-0.00165366 0.00435232 0)
(-0.00444362 -0.000248588 0)
(-0.00138503 0.000398059 -2.64571e-22)
(-1.07461e-05 0.000193217 1.85677e-21)
(-0.000202972 -0.000111393 3.35071e-21)
(0.00517179 0.000203058 -1.19757e-21)
(-2.42805e-05 -2.69239e-05 0)
(-0.00018937 2.98631e-05 1.04312e-21)
(-5.70815e-05 -4.59675e-05 2.29459e-21)
(-8.77974e-06 -0.000101915 4.92424e-21)
(-6.29068e-05 -6.13893e-05 -2.65516e-21)
(-0.000122937 0.000889745 -2.50751e-21)
(-4.12277e-05 -4.07435e-05 0)
(-0.000335769 8.59755e-05 -1.95119e-21)
(0.000889431 0.000264724 1.10392e-21)
(-3.03624e-05 0.000557849 9.49799e-22)
(6.73355e-07 -8.09323e-05 1.50171e-21)
(-2.87792e-05 7.95594e-06 2.95816e-21)
(-1.98405e-05 -1.53194e-05 -3.22203e-21)
(-0.000162952 4.49213e-05 -1.83237e-21)
(4.75809e-06 3.90621e-05 -3.14809e-21)
(-0.00161446 -1.9883e-05 -6.44886e-22)
(-2.59003e-05 -2.20974e-05 -2.09148e-21)
(-0.000438632 0.000160652 1.49933e-21)
(-0.00340538 0.00171844 8.90459e-22)
(0.00324091 -0.00340358 -1.38795e-21)
(-5.58357e-05 5.09894e-05 1.98696e-21)
(0.000111825 -0.000406992 -1.68972e-21)
(-0.000162035 0.000649534 2.35608e-21)
(0.000169081 0.00132256 -7.64292e-22)
(-5.26013e-05 4.90625e-05 5.27281e-21)
(4.65693e-06 0.000168454 -1.00619e-21)
(0.00062721 -0.000857764 0)
(-2.30186e-06 1.76031e-06 8.47976e-25)
(-0.000370593 8.71463e-05 -2.7333e-21)
(-0.00011838 0.000128746 2.80775e-21)
(-0.000193004 0.000108854 -1.39483e-21)
(-0.000412948 -0.000356989 1.40636e-21)
(0.00174266 -0.000771677 -1.74779e-21)
(0.000716705 0.000161398 -3.83707e-21)
(-0.00419962 0.00256427 3.35633e-21)
(-0.000144752 -8.37452e-05 4.24357e-21)
(-0.000212262 -4.61182e-05 0)
(-0.000773936 0.000111714 -2.45375e-21)
(-0.00433979 -3.60862e-05 1.11281e-21)
(-8.75511e-05 4.15633e-05 3.19467e-21)
(-8.89003e-05 3.88581e-05 -3.50752e-21)
(-1.08591e-05 1.35825e-05 -5.04577e-21)
(-4.10598e-05 -4.03031e-05 0)
(0.00050016 0.00106599 9.67936e-22)
(-0.00021256 -3.6829e-05 0)
(-2.51581e-05 0.000153089 -1.93283e-21)
(-0.00317485 0.00296099 1.47785e-21)
(-1.89523e-05 3.81828e-05 0)
(-9.09809e-05 -0.000107311 2.48404e-21)
(6.10229e-05 4.75309e-06 -2.09899e-21)
(-0.000113151 -0.000144997 2.27569e-21)
(-8.9708e-05 -1.60234e-05 4.2591e-21)
(0.000495449 -0.00151432 1.35416e-21)
(-1.65907e-06 -0.000110281 9.26656e-22)
(-0.000868244 -9.29984e-05 4.80108e-21)
(-2.54544e-05 0.000160294 -2.00476e-21)
(-0.000125877 -5.81273e-05 3.00586e-21)
(0.00148498 -0.00140102 0)
(-0.00207993 0.00300166 6.29067e-22)
(3.64818e-05 -0.000282414 -1.54632e-21)
(-0.00250691 0.00115914 2.39321e-21)
(-0.000643862 -6.9196e-05 1.91836e-21)
(-9.5434e-06 -0.000187209 1.80473e-21)
(0.0013862 -0.00139324 0)
(-0.000352702 -0.000138057 -1.74181e-21)
(9.14212e-08 1.35051e-06 0)
(-1.31768e-05 2.20917e-05 0)
(-6.61123e-05 1.98936e-05 -4.74895e-21)
(-0.0061367 0.00439384 0)
(-2.38466e-05 -2.71706e-05 -2.40465e-21)
(-1.99642e-05 -4.83001e-05 0)
(-0.000246785 0.000437961 5.77862e-21)
(-0.000125696 -6.12508e-05 2.44279e-24)
(-0.00394358 0.00367694 0)
(-0.00215552 0.0028011 -9.01813e-22)
(-7.62353e-05 -1.61219e-05 0)
(-4.41482e-05 -0.000134518 8.354e-25)
(-1.33535e-05 -4.58224e-05 0)
(-0.00234887 -0.000134741 0)
(0.00110387 0.00186321 2.61284e-22)
(8.94905e-08 1.15419e-06 0)
(-0.000153539 5.9502e-05 -2.0884e-21)
(-0.000393876 0.00051884 3.65896e-21)
(-8.99251e-06 -0.00010136 -6.49137e-21)
(-0.000367127 0.000481669 1.60947e-21)
(-7.36873e-05 0.00048715 0)
(-0.000164927 4.30772e-05 1.90035e-21)
(-2.06649e-05 -6.34259e-05 2.85063e-21)
(-0.000647845 -0.000225094 2.18041e-21)
(5.19169e-05 -0.000528514 1.82446e-24)
(-0.000188967 -0.00015737 -3.35679e-21)
(-0.00042222 -0.000342908 3.57079e-24)
(0.00546259 -0.000159476 3.89738e-21)
(-0.00144701 0.00103399 1.12582e-21)
(-1.30113e-05 2.20152e-05 0)
(-0.00148146 3.51383e-05 -7.795e-21)
(-0.000148066 0.000295457 1.42493e-21)
(9.8634e-05 -8.84974e-05 -2.56502e-22)
(-7.17028e-05 -0.000108706 2.67331e-24)
(0.00300561 -0.00329673 1.36522e-21)
(-0.001666 0.00387813 -1.40865e-21)
(2.63329e-07 3.60037e-06 -4.40796e-21)
(0.00136525 -1.59107e-05 3.71756e-21)
(-5.21005e-06 -2.11366e-05 -3.72383e-21)
(-4.36666e-05 -0.000143469 0)
(-5.982e-05 -9.86321e-06 0)
(-5.37091e-06 -7.83115e-05 0)
(0.0012336 4.40653e-05 4.38892e-21)
(0.00325601 -0.000223775 0)
(-1.48437e-05 2.56755e-05 4.49834e-21)
(-2.9784e-06 9.62729e-06 -7.08328e-22)
(-0.000162992 -3.81655e-05 0)
(-0.000161389 -0.000176665 5.61092e-22)
(6.01073e-05 -0.000316622 3.64007e-22)
(-0.00149335 0.0030942 -4.3505e-21)
(-0.00154307 -2.32108e-05 -3.95835e-21)
(-0.00497824 0.00186009 0)
(0.00424511 0.00064368 -1.75001e-21)
(0.00105609 -4.27703e-05 0)
(-0.00153661 -1.63321e-05 -1.26964e-21)
(0.00417599 0.000780787 -3.3706e-21)
(-1.26725e-05 -4.35827e-05 0)
(-2.23086e-05 -4.8115e-06 0)
(-0.000149762 3.97413e-05 6.46563e-21)
(0.00380005 0.000290412 0)
(-9.32316e-05 6.96908e-05 1.95153e-21)
(-5.61675e-06 -7.44083e-05 0)
(-1.54926e-05 2.67849e-05 -1.29851e-21)
(0.00198199 0.000652482 0)
(-0.000444658 0.000181617 0)
(-2.6531e-05 7.59467e-06 3.10054e-21)
(-4.6087e-05 -0.000100053 -1.99049e-21)
(7.02525e-08 6.23494e-06 2.30215e-21)
(0.00519147 0.000118505 -1.44593e-24)
(-0.00029609 4.4429e-05 0)
(-4.01006e-05 -0.000545863 0)
(-9.13299e-05 7.00172e-05 -5.93653e-23)
(5.6306e-05 0.00155029 0)
(-0.00012555 6.24971e-05 2.53115e-21)
(-0.000394632 0.000197422 -1.43703e-24)
(-0.00016741 -0.00037694 -3.69352e-21)
(-1.87113e-05 -3.57934e-06 0)
(0.00363705 0.000416906 -1.06289e-21)
(-5.70139e-05 5.09644e-05 0)
(-0.000359263 0.00266469 0)
(-4.0694e-05 -9.38919e-05 0)
(-9.30488e-05 -0.000107081 0)
(-6.19091e-05 -0.000120628 -2.07838e-21)
(-0.000108619 -0.00271169 -1.06054e-21)
(-6.58592e-06 -0.000499478 -2.44741e-21)
(9.58778e-07 -0.000492812 0)
(-1.5013e-06 -0.000110194 0)
(-0.000658804 0.00294122 2.54048e-21)
(0.00440226 0.000671609 0)
(-8.93773e-06 -0.000188456 5.43286e-22)
(0.00103589 -6.00072e-05 -2.80377e-21)
(0.000445576 0.00232865 -3.84129e-23)
(0.000198108 0.00194031 -1.14618e-21)
(-2.21665e-05 -7.56927e-06 5.19567e-21)
(-1.97232e-05 -2.59288e-05 -2.08755e-22)
(-1.95684e-05 -1.64506e-05 0)
(0.00228779 -0.00180506 -1.213e-21)
(-0.00282244 0.00137969 1.09409e-21)
(-0.000205331 0.000691832 3.65841e-21)
(0.00123184 6.21031e-05 -3.20249e-21)
(-1.35295e-06 -2.52854e-05 4.77692e-21)
(-1.0676e-05 -1.93874e-05 0)
(-0.000393898 0.000175377 1.83553e-21)
(-0.000159592 4.51817e-05 2.2758e-21)
(-5.87826e-05 -3.49701e-05 -7.61574e-23)
(-8.86171e-05 0.000615391 1.2125e-21)
(-0.000170679 2.28639e-06 -1.05837e-21)
(0.00111882 0.0019561 0)
(2.72728e-05 -0.000410008 0)
(-0.000446028 -9.6121e-05 6.1791e-21)
(0.00453483 0.000204638 -1.63964e-24)
(8.00315e-06 -0.000487129 6.42486e-22)
(-0.00385409 -0.000144027 0)
(-4.83498e-06 -2.04321e-05 4.75526e-21)
(-1.37283e-05 2.36068e-05 0)
(-0.000111925 0.000141806 1.70433e-21)
(-4.81062e-05 -0.000108274 -4.1372e-21)
(-9.36262e-05 -0.000211363 -8.85463e-22)
(0.000230608 9.06442e-05 0)
(-1.86511e-05 -2.51402e-05 0)
(-0.00102525 3.4763e-05 4.89834e-21)
(0.000781578 -0.00145325 -1.82387e-21)
(-5.20532e-05 0.000705622 0)
(-0.000134532 6.65548e-05 -2.08878e-21)
(0.00229711 0.000267906 -1.28705e-21)
(-0.000271409 9.07946e-05 3.23896e-21)
(-7.68526e-05 -0.00070671 2.22524e-21)
(-3.45141e-06 0.000182551 0)
(-1.89456e-05 -4.96734e-05 1.3862e-21)
(4.082e-05 -0.000222686 0)
(3.41443e-06 -4.56296e-05 -1.01284e-21)
(-0.000138497 5.89808e-05 -4.42211e-21)
(-0.000398939 -0.00048798 1.54505e-21)
(-0.00152242 -0.000153559 1.26956e-21)
(0.000708242 -0.000614368 -1.79095e-21)
(-0.00219389 0.00362614 0)
(0.000728155 -9.71764e-05 -4.1977e-22)
(-0.000232179 -0.00268333 -4.19969e-22)
(-0.000279231 6.20212e-05 0)
(-2.75228e-05 -1.64794e-05 -4.08524e-21)
(0.00348858 0.000314548 0)
(-3.28693e-06 1.0251e-05 -5.20024e-21)
(0.00108897 -0.00210614 1.35671e-21)
(-0.0014468 0.000417498 -2.01544e-21)
(-1.09426e-05 2.07603e-06 -2.47272e-22)
(-0.00016826 6.09565e-05 9.40373e-22)
(-0.00157224 0.0038096 8.13863e-22)
(0.0042776 0.000748655 1.07703e-21)
(-8.53114e-05 -0.000135905 -4.24814e-21)
(1.51482e-07 5.75046e-06 1.77469e-21)
(-0.00121666 0.00335754 0)
(-0.00240444 -6.16527e-05 0)
(0.00108262 0.000297282 -2.40804e-21)
(-5.67639e-05 -9.41333e-05 0)
(-4.31982e-05 -0.00105068 7.33073e-23)
(-8.4547e-05 -1.73421e-05 9.87751e-22)
(-0.00476939 0.00243899 1.09728e-21)
(-0.000276215 7.44611e-05 3.09362e-21)
(-9.29526e-05 6.29486e-05 -2.94871e-22)
(-0.000317033 -0.000265802 0)
(0.00388025 0.000412243 0)
(-8.78581e-05 4.47645e-05 0)
(-4.3783e-05 -0.00010084 -4.68513e-22)
(-5.53358e-05 -9.06225e-05 0)
(-6.20194e-05 -1.85028e-05 0)
(-0.00292075 -0.00101665 0)
(0.00207733 0.00169826 3.07129e-21)
(-0.000427146 -0.00236939 1.6149e-21)
(-0.00435145 -4.22431e-05 6.1401e-22)
(-2.1525e-05 -2.06874e-05 2.48786e-21)
(0.00310101 -0.000270673 9.22281e-22)
(-0.000159676 4.66737e-05 0)
(0.000528309 -0.000254417 -1.78592e-21)
(-0.000435504 0.0018755 -2.24586e-21)
(-0.000133107 7.7005e-05 0)
(-0.000578678 0.000170375 2.79042e-21)
(-2.40189e-06 -0.000187201 -3.72492e-21)
(-8.92082e-05 -0.000143368 0)
(-0.00409693 0.00377456 0)
(-0.00236195 0.00286806 1.95124e-23)
(-0.00190468 -0.000177522 1.34152e-21)
(0.00342858 -0.00384818 -2.20239e-21)
(-0.00149451 0.00429626 1.15063e-21)
(-0.0003769 -5.28862e-06 -3.83468e-21)
(0.00130661 1.3149e-05 5.75699e-23)
(-0.000751468 0.00296582 3.3542e-21)
(-8.36845e-06 -0.00013291 -3.30638e-21)
(-0.00396672 0.00367676 0)
(-3.45825e-05 -0.000218198 3.26667e-21)
(-0.000376912 0.000169917 0)
(-6.29357e-05 -0.000202549 -6.56744e-21)
(-8.1978e-05 -0.000191018 -1.35643e-21)
(-0.000280136 7.34788e-05 -2.51963e-21)
(-9.00932e-05 -0.000153259 2.05568e-21)
(-9.43307e-06 -0.000231119 0)
(-0.0025301 0.0010537 -1.30781e-21)
(-8.62334e-05 -0.000203872 0)
(-5.18576e-06 0.000268201 0)
(-0.000155411 0.000141262 -7.42706e-22)
(0.000125989 0.00127757 -1.53668e-21)
(-3.28565e-05 0.000191565 -1.30629e-21)
(-3.14149e-05 -3.49977e-05 -1.01337e-22)
(-4.00599e-05 -0.000130514 2.3159e-21)
(-5.42179e-05 -9.03783e-05 0)
(-1.29061e-05 -0.00014025 -2.16955e-24)
(-0.00398155 -0.000384516 1.60176e-21)
(6.76599e-05 -0.00057569 -1.24799e-21)
(-9.49423e-05 6.85095e-05 -3.37035e-21)
(-6.49546e-05 5.06203e-05 -1.45587e-21)
(-0.000315315 -8.19266e-05 0)
(0.00121392 -7.53212e-05 -1.60966e-21)
(4.91829e-07 -3.53984e-07 6.24781e-21)
(-0.000160811 -3.53285e-05 3.9914e-21)
(-0.000173476 -0.000286965 -5.00486e-21)
(-0.00343209 0.00185886 0)
(1.11666e-06 3.80827e-06 1.06954e-21)
(-9.21749e-05 -6.89604e-05 1.02431e-21)
(-2.80058e-05 0.000198499 0)
(-0.00105003 0.000164765 1.20037e-21)
(-0.000140955 1.52078e-05 2.91405e-21)
(-6.20182e-05 -7.2566e-05 -3.5284e-21)
(-2.55747e-05 -1.58641e-05 0)
(-0.00443424 -0.000185091 -3.34243e-21)
(0.00346053 -0.0009997 0)
(0.00263293 -0.00208693 0)
(-0.000218465 -3.46358e-05 2.88836e-21)
(1.10275e-07 2.5186e-06 1.10471e-21)
(-1.76752e-05 -1.6667e-05 -2.31159e-21)
(-0.000127314 -0.000172882 -1.68481e-21)
(1.08339e-06 -7.647e-05 1.14478e-21)
(-2.92795e-05 1.75256e-06 -1.64483e-21)
(-0.000167829 6.06271e-05 1.95383e-21)
(-0.000315724 0.00178534 0)
(-0.000634216 -0.000140025 -2.76014e-24)
(-0.0074093 0.00343836 0)
(-2.41596e-05 -1.37007e-05 0)
(-0.00016762 5.02153e-08 0)
(-0.000153467 -0.00034183 -1.06441e-21)
(-0.00222914 0.00308776 -7.31961e-22)
(-0.000321705 -0.000257942 -3.42069e-21)
(0.00440714 1.70077e-05 3.04809e-21)
(-0.000304687 0.00421978 3.22569e-21)
(9.90024e-05 -0.000632563 -3.49345e-21)
(-8.9535e-06 1.7587e-05 1.77687e-21)
(-1.76344e-05 -1.76384e-05 2.45089e-21)
(-0.000110185 0.000848235 -1.12608e-21)
(-0.000575642 -0.000264638 -2.74148e-21)
(-0.000257971 9.56988e-05 -9.12134e-24)
(-0.000177075 0.000259499 1.41479e-21)
(0.00234493 -0.000596908 0)
(0.00328825 0.000424883 4.34486e-21)
(-0.000179447 -0.000469226 -4.56544e-21)
(-0.00010564 1.1169e-05 4.90013e-21)
(-0.00281185 -0.00047525 1.46601e-21)
(0.00119401 -8.64668e-05 -8.27023e-23)
(-0.000165337 6.46764e-05 -8.97613e-22)
(-0.00339425 0.00226109 0)
(-0.000447594 7.4194e-05 0)
(0.000611114 0.00184525 -1.08286e-21)
(0.0022985 -0.000221719 -5.72622e-21)
(-0.000837555 -7.44813e-05 1.79953e-21)
(-0.000389742 0.000171255 -2.27288e-21)
(-1.7537e-06 -0.000186365 4.62315e-21)
(-0.00429372 0.00518083 0)
(-6.5387e-05 4.7221e-05 -1.8303e-24)
(2.48258e-05 -0.000496828 0)
(-0.000154583 5.98728e-05 -1.08058e-22)
(-2.12853e-05 -1.42807e-05 -2.69983e-21)
(-8.77051e-05 -3.55794e-05 3.5698e-21)
(-1.32267e-05 2.33117e-05 -1.66221e-21)
(5.10581e-05 0.000163676 0)
(8.05525e-06 5.97871e-05 0)
(7.7782e-05 0.000380895 -1.37717e-21)
(-1.9885e-05 -2.39091e-05 0)
(-0.000165711 -0.000174495 5.51357e-22)
(7.0097e-06 -0.00250053 -1.86621e-21)