/*--------------------------------*- C++ -*----------------------------------*\
| =========                 |                                                 |
| \\      /  F ield         | OpenFOAM: The Open Source CFD Toolbox           |
|  \\    /   O peration     | Version:  v2012                                 |
|   \\  /    A nd           | Website:  www.openfoam.com                      |
|    \\/     M anipulation  |                                                 |
\*---------------------------------------------------------------------------*/
FoamFile
{
    version     2.0;
    format      ascii;
    class       volScalarField;
    location    "400";
    object      k;
}
// * * * * * * * * * * * * * * * * * * * * * * * * * * * * * * * * * * * * * //

dimensions      [0 2 -2 0 0 0 0];


internalField   nonuniform List<scalar> 
37809
(
0.000177531
0.0189484
0.000149666
0.000154827
0.0668871
0.00018148
0.000182631
0.000513277
0.00654899
0.00798538
0.000178555
0.000148078
0.00015326
0.000153306
0.0167573
0.000154035
0.000148387
0.036019
0.000148776
0.000176559
0.000165781
0.000165661
0.0541859
0.000147566
0.000165546
0.0170735
0.00263714
0.000149231
0.000149604
0.00052979
0.000199412
0.0220386
0.000147596
0.000270071
0.000148934
0.000148437
0.000145865
0.00644868
0.000182045
0.000186375
0.0680081
0.0154845
0.0231083
0.0118218
0.000147748
0.000160085
0.000200473
0.044608
0.00142308
0.000166501
0.000149428
0.000147819
0.000146898
0.000149788
0.023205
0.000146924
0.000159215
0.000155994
0.000181188
0.000152452
0.023281
0.000151814
0.000153121
0.000185651
0.000199369
0.000165698
0.0304155
0.000148982
0.000153788
0.0080567
0.00015319
0.00776184
0.000148274
0.000153213
0.000149206
0.000145656
0.000186241
0.000183427
0.000177209
0.000216124
0.000147327
0.000149643
0.0403324
0.000162649
0.000147565
0.0190283
0.000150996
0.000246179
0.000182931
0.000158771
0.00510775
0.0146688
0.000168925
0.0845818
0.000151166
0.0506906
0.000148317
0.00014959
0.0191823
0.000147056
0.00539997
0.000149614
0.000185105
0.0340228
0.00674614
0.000149414
0.000543884
0.00436471
0.000189205
0.000148062
0.000176274
0.000162443
0.000174936
0.000152037
0.000158979
0.000181475
0.000148974
0.000148285
0.000247903
0.0237175
0.000149858
0.00014961
0.000166925
0.0660835
0.0128962
0.000148946
0.000199765
0.000148201
0.000158345
0.000154396
0.000255452
0.000211556
0.0188956
0.000147251
0.00022675
0.000149016
0.000149425
0.000151931
0.0105474
0.00406418
0.000148871
0.0122018
0.00808783
0.0673643
0.000148281
0.027887
0.000154178
0.000151639
0.0418109
0.000150956
0.0178811
0.000154393
0.000171814
0.000242427
0.00019469
0.000151428
0.00553343
0.000247282
0.000149881
0.00781637
0.000158328
0.000217153
0.000609084
0.026196
0.000150778
0.000144347
0.000147668
0.0426254
0.000182201
0.000192877
0.000152993
0.000146659
0.0308534
0.000152262
0.000154147
0.000154696
0.00673049
0.000158728
0.0611212
0.000171023
0.0241479
0.000149807
0.00014692
0.000149438
0.000144629
0.000218002
0.000149857
0.000160313
0.000268493
0.00708825
0.000166465
0.000148324
0.000148666
0.0128954
0.000202327
0.000288158
0.000148081
0.000143563
0.000146787
0.00015333
0.00580184
0.000179591
0.0205479
0.000171009
0.0221078
0.000144671
0.000152566
0.000167361
0.000147705
0.000192481
0.000167381
0.0193082
0.000146591
0.000148254
0.000147672
0.000289935
0.000165727
0.000147176
0.000146575
0.000209738
0.0820881
0.000395291
0.000149332
0.000149807
0.000147346
0.0434806
0.0559825
0.000198921
0.000156644
0.00253378
0.000149353
0.000179785
0.000211917
0.000151578
0.000133221
0.000296395
0.000146462
0.0462668
0.000150715
0.000188953
0.0503471
0.00014669
0.000291617
0.00884248
0.000147759
0.000148044
0.000149713
0.00014404
0.000193061
0.00014468
0.000148563
0.000147645
0.000148171
0.0688511
0.00014834
0.000148305
0.000143519
0.000148224
0.000349023
0.0331497
0.000236642
0.000148692
0.00764872
0.000149672
0.0179896
0.00017012
0.000201648
0.000166066
0.000148134
0.000274307
0.0191422
0.000147682
0.0655196
0.000294928
0.000147679
0.000187951
0.000254462
0.000148534
6.1501e-05
0.000148189
0.000149102
0.0140093
0.00957278
0.000147486
0.000204057
0.000148031
0.000148234
0.000148258
0.000148285
0.0149292
0.000147874
0.000171027
0.00710831
0.000146887
0.000148166
0.000159988
0.000210558
0.00646702
0.000148319
0.000978319
0.00017048
0.0171889
0.000145706
0.000239284
0.00643201
0.000162773
0.000149621
0.000153196
0.0655018
0.000146696
0.000198924
0.0700798
0.0162496
0.000167499
0.000149809
0.0539411
0.000151822
0.00014884
0.0010326
0.00710555
0.000183463
0.000400844
0.000163785
0.000153084
0.00781947
0.00016551
0.00661623
0.000148151
0.000149624
0.000224901
0.000146498
0.000146706
0.000149087
0.00416742
0.000145049
0.000147216
0.000174857
0.0001488
0.000147959
0.000180636
0.000147554
0.000153229
0.000532653
0.00736025
0.000157503
0.000225368
0.000934444
0.000148561
0.0193864
0.000154275
0.000384322
0.000183043
0.000148056
0.000148941
0.0116001
0.00860557
0.000144721
0.000209845
0.000148063
0.0548591
0.00988214
0.000155332
0.0223753
0.020973
0.0758318
0.0417366
0.00016225
0.000154213
0.000154938
0.000147463
0.000153329
0.000168586
0.000182296
0.00603624
0.00017738
0.000145799
0.000187655
0.000144739
0.0184455
0.000545902
0.000148237
0.000151754
0.0218297
0.000167636
0.000516121
0.000168323
0.00652657
0.000160526
0.00100046
0.000145292
0.000148212
0.0222121
0.000149662
0.000148812
0.000154457
0.000183947
0.0241342
0.000254651
0.000159635
0.000149665
0.0564362
0.000191902
0.000145254
0.000148441
0.000148897
0.000172293
0.000146727
0.0455642
0.050204
0.0343715
0.000166101
0.000160161
0.000175333
0.000149406
0.000145656
0.000122259
0.000264359
0.00701561
0.00014978
0.000147892
0.0630948
0.000181279
0.000194022
0.000236773
0.000148223
0.0572267
0.000149827
0.000158574
0.000156736
0.000683924
0.000147299
0.000170139
0.000154716
0.000151927
0.059078
0.000149315
0.019175
0.065481
0.000173611
0.000146534
0.000150575
0.000214377
0.000173422
0.000176277
0.000147815
0.000147503
0.0366536
0.000225545
0.000174315
0.000215988
0.000168674
0.000145783
0.000152036
0.000148209
0.00014845
0.000147506
0.000145879
0.000147957
0.0193814
0.000147706
0.000149414
0.000155152
0.000199721
0.00485278
0.0216606
0.0181056
0.000154758
0.000159864
0.0326805
0.000147927
0.000161434
0.000147269
0.000148558
0.000147645
0.000181187
0.000146875
0.000169311
0.0191949
0.000169825
0.000148229
0.000147426
0.000148025
0.000158952
0.000144768
0.0108966
0.00014788
0.000171792
0.00022731
0.0696436
0.000149253
0.0240625
0.000174571
0.0001903
0.000149626
0.000180363
0.0379006
0.000144006
0.000169142
0.000173641
0.00016817
0.000178429
0.000236466
0.0573194
0.0382712
0.000154291
0.000159164
0.000181718
0.0194796
0.00014881
0.000148851
0.000145583
0.000146853
0.0583871
0.000159069
0.00015356
0.000261446
0.00357627
0.000149811
0.00165955
0.000154349
0.0033063
0.000211639
0.000148534
0.00901283
0.000153883
0.000151798
0.000236168
0.0524942
0.000163071
0.000208177
0.00756138
0.000150737
0.000232769
0.000167512
0.000149808
0.000145128
0.000147546
0.0167184
0.000147923
0.000148225
0.000185924
0.000151782
0.0537847
0.000217625
0.00208782
0.000149171
0.000148337
0.0100581
0.000203023
0.00014985
0.000157472
0.00017495
0.000148528
0.00018894
0.0318425
0.00015948
0.000148149
0.000185843
0.000265494
0.00016048
0.000177771
0.0186342
0.000195258
0.000145104
0.0131412
0.000162394
0.000182773
0.000148754
0.0733581
0.00023753
0.000149815
0.0119657
0.000148168
0.000149363
0.000147193
0.000148212
0.0395719
0.0178768
0.000145156
0.000144268
0.000154753
0.000159969
0.00016594
0.000216394
0.0138384
0.0251333
0.0487393
0.00885132
0.0142211
0.0470178
0.000148328
0.000147725
0.000153649
0.0145441
0.00014988
0.000148194
0.000145211
0.048655
0.0162334
0.000147297
0.000148541
0.000149825
0.0209799
0.000165854
0.000329856
0.000149866
0.000192863
0.000153857
0.000176421
0.000183106
0.000146819
0.0171174
0.000149244
0.000206394
0.000148523
0.000149924
0.000148883
0.0730694
0.000541684
0.000520729
0.000148562
0.0576783
0.0403869
0.000150779
0.0129206
0.000203644
0.00019852
0.000147763
0.000148124
0.000148042
0.000696469
0.0857569
0.000176226
0.039975
0.00014922
0.000148134
0.000169954
0.000163572
0.000147242
0.0361558
0.000155115
0.000203857
0.000178502
0.00734815
0.0196385
0.000632097
0.000248138
0.000148161
0.000145142
0.000156278
0.000148657
0.000158799
0.0650901
0.000148125
0.00624981
0.00021499
0.0391792
0.000154859
0.0516981
0.000166736
0.000595765
0.000154193
0.000148251
0.000158015
0.000148373
0.000154948
0.000194884
0.000305249
0.0297256
0.000239091
0.01382
0.0728543
0.000165748
0.000147831
0.0146032
0.00014436
0.00285789
0.0270875
0.000150157
0.000156843
0.000233977
0.0422089
0.000150481
0.00014972
0.0390298
0.00741931
0.0388378
0.000148249
0.0396997
0.000148408
0.000174945
0.000166239
0.000151205
0.000169738
0.0253313
0.000148856
0.000148584
0.000148229
0.000147318
0.000221326
0.0576093
0.0671332
0.0290489
0.000147947
0.0206312
0.000162831
0.000194601
0.000710057
0.000155236
0.0168919
0.000150692
0.000151229
0.0529541
0.000229189
0.000199834
0.038423
0.0126739
0.000168637
0.0136095
0.000210736
0.000149223
0.053353
0.000157319
0.000169161
0.000156299
0.000156231
0.000166359
0.000152159
0.000158831
0.000208294
0.000157908
0.00015825
0.000158189
0.00018948
0.000155367
0.000148031
0.000149096
0.000148224
0.000149341
0.000249073
0.000308193
0.00014989
0.000147753
0.000165432
0.0289233
0.000149377
0.000154602
0.000165863
0.000227037
0.00014966
0.000149185
0.00015546
0.000186484
0.000152546
0.00014779
0.000146785
0.018332
0.0598667
0.000120452
0.000159479
0.000149619
0.000147965
0.00015779
0.000148201
0.000147643
0.000156746
0.0720477
0.000181058
0.0320291
0.000147837
0.000155054
0.000168904
0.0530841
0.000169518
0.00868488
0.00138207
0.000645342
0.000145768
0.00014801
0.0429148
0.000182275
0.000166578
0.000178146
0.0685107
0.0170004
0.000183428
0.000149744
0.000214567
0.0310749
0.000156808
0.0879773
0.000173811
0.000519781
0.0175248
0.000200561
0.000175073
0.000150757
0.0204983
0.000147731
0.000515644
0.000157559
0.000146551
0.000148638
0.000145097
0.0157956
0.000146725
0.000188054
0.000148104
0.000160017
0.0002328
0.000159429
0.000147827
0.0516452
0.000175435
0.000147847
0.000148816
0.0826813
0.000180164
0.000162594
0.000207439
0.000156596
0.000154017
0.000146053
0.000217582
0.064418
0.0632284
0.0519533
0.00018122
0.000188144
0.000165938
0.00020589
0.00015158
0.0589012
0.0338916
0.000213676
0.000147621
0.000154081
0.000180328
0.000149274
0.0274613
0.0160928
0.000205036
0.000148223
0.000167704
0.000148328
0.000164314
0.0173612
0.000148192
0.00015339
0.078728
0.000148066
0.000161582
0.000165422
0.000143914
0.000163061
0.0615872
0.000173942
0.000172052
0.0053201
0.000186035
0.000150582
0.000153021
0.000146773
0.000159115
0.000146056
0.000148221
0.0325855
0.000170791
0.000153264
0.000151179
0.000145042
0.000151321
0.000145399
0.000178085
0.000182319
0.000151663
0.000239542
0.019404
0.000146432
0.000185889
0.00014762
0.000158245
0.00014962
0.000149359
0.0348903
0.000155376
0.00732702
0.000148582
0.000150361
0.000225497
0.0606815
0.000148558
0.000158717
0.00924528
0.0266042
0.000149664
0.0275204
0.000161303
0.000164426
0.000214845
0.000153177
0.00596981
0.000156085
0.000148017
0.000147833
0.000146742
0.000150392
0.000151635
0.0175792
0.000171763
0.000161762
0.000742478
0.000171457
0.0288609
0.000162966
0.000149067
0.000176028
0.0676048
0.000160057
0.000173222
0.000158807
0.0211897
0.000207993
0.000153306
0.000163321
0.000150758
0.0312593
0.000148531
0.000181712
0.000147082
0.000158835
0.00015254
0.030604
0.000154056
0.000171649
0.000157915
0.000169001
0.00014572
0.000220282
0.000205738
0.000163499
0.000143929
0.000188467
0.0242994
0.000246983
0.000145235
0.000153375
0.000625553
0.0054564
0.00500614
0.000148579
0.000173861
0.000149653
0.000167136
0.000245806
0.000248691
0.000157777
0.000205839
0.000158963
0.000147957
0.000149519
0.000200807
0.000147951
0.000147779
0.000151218
0.000205029
0.000213356
0.000163282
0.000146541
0.000145518
0.000145678
0.000161922
0.000148863
0.000194729
0.0274895
0.000145799
0.0244965
0.000150044
0.0181619
0.000534874
0.000170558
0.00015475
0.000162501
0.000148311
0.058291
0.000145968
0.000220808
0.000153931
0.000148385
0.000181333
0.000164961
0.000147224
0.0166591
0.000181092
0.000158445
0.000153099
0.0383856
0.000184382
0.0197788
0.000149916
0.000165771
0.0002306
0.0219944
0.00014659
0.000158779
0.000147237
0.0155442
0.0110893
0.000425635
0.064127
0.000149853
0.000162865
0.000151096
0.0679084
0.000259185
0.000150981
0.000188225
0.000147934
0.000161518
0.000147219
0.000147977
0.000147624
0.000154742
0.0143874
0.000147937
0.00016347
0.000217222
0.000147981
0.000149818
0.000161343
0.047919
0.000157039
0.000188298
0.000147889
0.000554004
0.000534943
0.000148056
0.000196714
0.000162667
0.000171983
0.0596264
0.000159942
0.000148824
0.000228883
0.00017696
0.000150953
0.000218226
0.000197926
0.000211947
0.000154807
0.000144243
0.000208826
0.000183361
0.000219602
0.000147295
0.0240493
0.000171705
0.000190743
0.000165598
0.000145997
0.000149861
0.000146796
0.000148105
0.000149256
0.000151956
0.0211237
0.000158592
0.000149361
0.000156174
0.000156262
0.000147727
0.0612642
0.000156437
0.000205586
0.000165638
0.000151206
0.000578193
0.000196079
0.000174225
0.0291182
0.0602907
0.000146366
0.000169126
0.000184553
0.000193513
0.000186312
0.000379588
0.000144341
0.000148445
0.0223588
0.000149087
0.0204861
0.00021507
0.000196412
0.000156323
0.000156297
0.000147243
0.000146725
0.000147998
0.000148155
0.000148752
0.000148122
0.0163579
0.000148056
0.0316899
0.000154051
0.000173701
0.0370473
0.000149829
0.000148245
0.00021449
0.0482858
0.000208271
0.000149646
0.0760114
0.000149611
0.000148047
0.000150658
0.000302768
0.000745208
0.000215106
0.0123787
0.0216356
0.000161605
0.000172195
0.00014594
0.000148874
0.0417324
0.0725364
0.000206461
0.000169305
0.000151253
0.0163839
0.00017182
0.00254863
0.000146833
0.000217226
0.000151167
0.000151823
0.000160142
0.000175588
0.00739959
0.000154296
0.000190026
0.0581281
0.00708462
0.00014832
0.000155241
0.0134433
0.000151812
0.000609235
0.000155026
0.000166121
0.000166106
0.000181532
0.0228963
0.000146318
0.000148096
0.000163427
0.000189306
0.0180964
0.000149547
0.0125404
0.000151273
0.00538501
0.0357939
0.000201356
0.000148103
0.00014733
0.000205104
0.0272207
0.000144205
0.0763546
0.000151187
0.0323568
0.000158548
0.00015606
0.000148437
0.000173866
0.000180788
0.000155021
0.000156738
0.00014707
0.037331
0.000168815
0.000145293
0.000165004
0.0351873
0.0319865
0.000158622
0.0739134
0.04828
0.000169122
0.000182009
0.000158587
0.000212659
0.000147184
0.000197293
0.000150648
0.0241884
0.000148986
0.000148972
0.000426648
0.000232694
0.000153392
0.00120656
0.000144207
0.000148296
0.0227067
0.000146727
0.000264974
0.00016265
0.000148163
0.0250135
0.000201953
0.00020051
0.000148166
0.000158275
0.000179627
0.000149017
0.000153296
0.0294225
0.0447804
0.000162047
0.000197222
0.000148201
0.000155416
0.000205433
0.035129
0.0493536
0.000182018
0.000164643
0.000150736
0.000263113
0.000179641
0.000180704
0.0559061
0.000147907
0.000201482
0.000202196
0.000145947
0.000149079
0.000202171
0.00014976
0.0194205
0.000229712
0.000556337
0.000148162
0.000149021
0.0513161
0.000149219
0.0727333
0.0213757
0.00554636
0.000171898
0.000147348
0.000151639
0.0457199
0.000158307
0.000147201
0.000161453
0.000150637
0.0327149
0.0156549
0.000154548
0.000149009
0.000148571
0.00014632
0.034922
0.000249846
0.000256457
0.0781539
0.000147793
0.000147682
0.00906307
0.000147525
0.000185225
0.000160843
0.0189106
0.0227199
0.000166631
0.0472155
0.0196372
0.00014668
0.000168065
0.000195793
0.000155512
0.000149658
0.000162898
0.000154425
0.000185217
0.000255639
0.0178714
0.000147482
0.000147684
0.0592268
0.0301106
0.0182273
0.000229369
0.000157288
0.0447913
0.000145233
0.000189802
0.0398617
0.000176332
0.000150546
0.000175949
0.000145642
0.000148233
0.000147104
0.000147565
0.000150489
0.000158812
0.000168038
0.0814657
0.000148147
0.000143954
0.0347437
0.000222621
0.00018204
0.0364987
0.0275134
0.075458
0.000148121
0.000149493
0.0215907
0.000168277
0.000192276
0.000150925
0.00014814
0.000148535
0.000145312
0.00015079
0.000174479
0.00399599
0.00014866
0.000151649
0.000157898
0.000151031
0.0603777
0.000175364
0.000172391
0.0104138
0.00016901
0.000147933
0.00987849
0.0233474
0.000170916
0.0864796
0.000153433
0.000165995
0.0133746
0.0002056
0.0608185
0.000155188
0.000148085
0.0133627
0.000171957
0.000149557
0.000148295
0.00017364
0.0228691
0.000147075
0.000145173
0.000149518
0.000145169
0.000147555
0.0426393
0.000229386
0.000149777
0.00015995
0.000168309
0.000148078
0.000155371
0.000149522
0.000144289
0.000148532
0.000171659
0.000156574
0.000148998
0.000157461
0.00014956
0.0149555
0.000151489
0.00671076
0.00020299
0.00380528
0.000190952
0.000143974
0.000149557
0.000147095
0.000179736
0.000146554
0.00014521
0.0397283
0.0171947
0.000170299
0.000145439
0.000200498
0.000229241
0.000148988
0.0167385
0.000152985
0.000552964
0.000147802
0.000220969
0.0169649
0.000149911
0.000148719
0.0395447
0.0283446
0.000169195
0.000472531
0.000296999
0.0178901
0.0214176
0.0680303
0.000148383
0.0482422
0.0218462
0.0788269
0.000149707
0.000257457
0.000147783
0.000143905
0.0603523
0.000149657
0.000192022
0.0380475
0.000145483
0.0156843
0.000170495
0.0344813
0.00016648
0.00015132
0.000164712
0.000146701
0.000148723
0.000166051
0.000158777
0.0438715
0.000145818
0.0246652
0.0283642
0.000169585
0.0328302
0.000169796
0.000148103
0.0118706
0.000148013
0.0695888
0.00764333
0.0304059
0.0302114
0.000591198
0.000174099
0.000182634
0.000154279
0.0390186
0.000149214
0.000148548
0.000175668
0.000148983
0.000164015
0.00912823
0.000149357
0.000260494
0.000154241
0.000150629
0.0447524
0.000153082
0.000148031
0.000169335
0.000350769
0.000156483
0.000196961
0.000149438
0.0398609
0.00014779
0.0374455
0.000147673
0.00790414
0.000191371
0.000200628
0.00648091
0.000151066
0.000183551
0.00014925
0.000295621
0.000151021
0.000146686
0.000210475
0.000147804
0.000149783
0.0399407
0.000147536
0.0474591
0.000148112
0.000146216
0.000148269
0.000168976
0.00022854
0.000147379
0.000236955
0.000148072
0.000146847
0.000153406
0.000167175
0.000187145
0.000186542
0.000423286
0.000156316
0.000149557
0.000149799
0.000148164
0.000156375
0.0416571
0.000147039
0.000149872
0.0449201
0.000149447
0.000156406
0.000147886
0.000149014
0.040281
0.0001461
0.000152573
0.00014759
0.000147512
0.000149013
0.0257289
0.00015124
0.00878841
0.0787457
0.000171891
0.0115161
0.000164142
0.000149523
0.00107205
0.0208874
0.000146515
0.000147536
0.000172069
0.000180152
0.000149247
0.000168185
0.000150422
0.000149858
0.000146895
0.00984005
0.000148559
0.000210646
0.000156407
0.000270029
0.00384948
0.000149962
0.0492668
0.000148126
0.0161539
0.000182729
0.00020108
0.000170387
0.000196705
0.000150703
0.0555092
0.000187956
0.000146144
0.000147285
0.000149525
0.000238748
0.000186199
0.000209781
0.000208327
0.000149619
0.000147577
0.0472392
0.000148511
0.0180557
0.000164267
0.000671433
0.000165692
0.000154137
0.00015691
0.00016435
0.000148531
0.000149899
0.000147385
0.000148268
0.000147798
0.000262824
0.000160176
0.000166779
0.000232239
0.00015097
0.04267
0.000165768
0.000152412
0.0786756
0.000153704
0.000179918
0.000172216
0.000154736
0.025307
0.000225463
0.000148053
0.0735251
0.000146244
0.0807367
0.000148522
0.000148745
0.0636924
0.000190391
0.000148304
0.000157045
0.000155203
0.00019976
0.000161892
0.0740946
0.000148873
0.00022017
0.0104107
0.000180034
0.000148374
0.000164678
0.0858516
0.000157999
0.000151017
0.0453496
0.000150472
0.00145234
0.0218402
0.000182303
0.000148405
0.000147088
0.0520465
0.000244211
0.000298115
0.00017223
0.000693777
0.000167306
0.000242922
0.000181343
0.0175181
0.000164306
0.0390981
0.000175371
0.000263647
0.000148043
0.000146105
0.000187512
0.000163927
0.000260625
0.00579669
0.00017087
0.0413372
0.0203649
0.000166019
0.00015241
0.000362978
0.000147745
0.000184761
0.000150919
0.000146592
0.00680025
0.000146074
0.000178409
0.000148051
0.000149622
0.000148066
0.0196892
0.061641
0.000201591
0.000147401
0.0409538
0.000161912
0.0823427
0.000249244
0.00564757
0.000148492
0.0148987
0.000185659
0.000147504
0.000174655
0.000150858
0.000145264
0.000149239
0.000151644
0.000148212
0.000151427
0.000148516
0.000147365
0.000150694
0.000168673
0.0631554
0.000148479
0.000188516
0.0251098
0.000175733
0.000158946
0.00014623
0.000247581
0.0361193
0.000158215
0.000145405
0.000197992
0.000148348
0.00018951
0.000148187
0.000252274
0.000183848
0.000147432
0.000547863
0.000196732
0.000172824
0.000156748
0.0212485
0.000168866
0.0240594
0.0515703
0.000150631
0.000337688
0.000146895
0.00019258
0.000147809
0.0669736
0.000147268
0.000163942
0.022114
0.000151454
0.000148067
0.0748831
0.000152166
0.045992
0.00015118
0.000177118
0.0241101
0.00015685
0.000146828
0.0310161
0.000198349
0.000157759
0.0544176
0.0172358
0.000148062
0.000178873
0.000169174
0.000150404
0.000148203
0.000176828
0.0868561
0.0102417
0.000150361
0.00015078
0.0377091
0.00014856
0.000168061
0.029468
0.0352462
0.000146723
0.000149563
0.0502239
0.0451018
0.000147445
0.000217761
0.012513
0.0129214
0.0445895
0.000147642
0.000150385
0.0001495
0.000107001
0.000153323
0.000428096
0.00016216
0.000148289
0.000166135
0.000146774
0.00018812
0.000148035
0.0220852
0.000165125
0.000153475
0.0108699
0.000167873
0.00016584
0.00028131
0.000147262
0.000175895
0.000152766
0.000248164
0.000176006
0.0619926
0.000164861
0.0159933
0.000151523
0.00015035
0.000239568
0.000174092
0.000145257
0.000178146
0.000175868
0.000147693
0.000171477
0.00581464
0.000149522
0.000147389
0.000149856
0.000149214
0.0762213
0.000148554
0.00022088
0.000181059
0.0817914
0.000212808
0.000275037
0.000158556
0.000206016
0.000153991
0.000147732
0.000195608
0.000149869
0.000165269
0.0193528
0.0625097
0.00021178
0.000186048
0.000157525
0.000148161
0.000219642
0.000240328
0.000156595
0.0360775
0.000158823
0.000186309
0.000147755
0.000146811
0.000149522
0.000185677
0.000187912
0.037193
0.0508624
0.000153839
0.000148896
0.0634701
0.000149813
0.000183992
0.000146512
0.000346609
0.0458048
0.0403108
0.000171891
0.0152546
0.00585136
0.0187693
0.000145373
0.00889018
0.000147543
0.0203971
0.000457468
0.000145264
0.000154042
0.0319399
0.000149756
0.000148708
0.000145212
0.000162963
0.000257418
0.000149818
0.000153664
0.000178923
0.000147965
0.00590797
0.000165246
0.000146722
0.0266223
0.00964934
0.00329934
0.000232398
0.000147257
0.0291504
0.000157079
0.000184935
0.000149404
0.000144825
0.0645916
0.000165196
0.067922
0.000195104
0.000349445
0.00014856
0.000166895
0.0202242
0.000155951
0.000555132
0.000153928
0.0506946
0.000149093
0.000178337
0.000162419
0.0202887
0.000146814
0.000156518
0.000171815
0.000147365
0.000147653
0.000166796
0.000197249
0.000209428
0.000148099
0.000148059
0.000149775
0.000150749
0.000198354
0.000146094
0.000168271
0.000214012
0.00015035
0.017074
0.0713464
0.0326341
0.0223746
0.000460456
0.00014855
0.000164889
0.000146216
0.000159343
0.000157623
0.0177201
0.000147893
0.000163405
0.000149913
0.000148105
0.000147789
0.000148376
0.000174575
0.000149106
0.000193878
0.00866316
0.0382011
0.0354142
0.000148268
0.0179411
0.00014985
0.0178155
0.000174653
0.000157654
0.000154104
0.000146798
0.0001462
0.000149816
0.0568388
0.000161197
0.000165256
0.000183443
0.000184948
0.000147763
0.000162243
0.000212894
0.0180044
0.000163034
0.000154663
0.000148069
0.0839359
0.000279215
0.000149893
0.000146382
0.000218201
0.000147018
0.000156158
0.000247686
0.0800722
0.000149066
0.00014701
0.000158873
0.000148002
0.0770809
0.0440351
0.0793238
0.000149266
0.00014533
0.000215142
0.0282893
0.000148562
0.000148769
0.000176258
0.000148304
0.000165785
0.000149846
0.0180021
0.000148523
0.000146449
0.000157924
0.000147089
0.000163052
0.000163023
0.0448246
0.0887281
0.000160329
0.000148151
0.0154953
0.0086624
0.00021656
0.000146573
0.0221336
0.0001547
0.00014806
0.000508917
0.000162092
0.000167129
0.0532738
0.000153333
0.0206044
0.049382
0.0155154
0.000165724
0.000153605
0.000153432
0.000154697
0.000148333
0.000184409
0.0181073
0.000147736
0.000148531
0.000178681
0.000148171
0.0227672
0.0195689
0.0417962
0.00014704
0.000148823
0.000151878
0.000153793
0.000147061
0.00018801
0.000148064
0.000147353
0.0428965
0.0505024
0.000162798
0.000253082
0.000234679
0.00016088
0.000238663
0.000158323
0.000166206
0.0328897
0.000200618
0.000156811
0.000170912
0.0860568
0.000146452
0.000147097
0.00014975
0.0143623
0.000367154
0.000167261
0.000148334
0.0482162
0.000208546
0.000165399
0.000186067
0.0208677
0.0146467
0.000147657
0.000147172
0.000180874
0.00173306
0.0531192
0.076352
0.000148558
0.000146874
0.0683105
0.000149232
0.0001482
0.000150274
0.000146081
0.000200474
0.000149637
0.000149559
0.000148386
0.000148392
0.0623073
0.00104665
0.000147156
0.000154582
0.0434335
0.000148574
0.000152037
0.000145015
0.00015383
0.00356476
0.00259647
0.00865727
0.000167188
0.000149621
0.000147645
0.00070243
0.000207513
0.00546542
0.000216141
0.00014788
0.000147619
0.0574328
0.000252479
0.000199676
0.000220857
0.000159105
0.000147808
0.000227275
0.0129887
0.00014865
0.000147748
0.027286
0.0365876
0.000146882
0.0668666
0.000148393
0.000148149
0.000147894
0.0648252
0.000163908
0.000212736
0.0425387
0.000148052
0.000230864
0.00460426
0.0118723
0.000213542
0.000147822
0.042654
0.000591547
0.000155789
0.0204652
0.000149723
0.000153418
0.000196278
0.000145051
0.000147454
0.000149523
0.000211841
0.000155629
0.000160596
0.000172156
0.000188964
0.00014852
0.000157032
0.00014816
0.0228586
0.0400021
0.000161779
0.000176219
0.0569905
0.000197671
0.000145894
0.0622696
0.000147923
0.000147475
0.000159257
0.000152926
0.000149502
0.000394204
0.000151489
0.000154713
0.000182413
0.000214732
0.000216155
0.000144263
0.0664911
0.000158487
0.000147695
0.049145
0.000149016
0.000211868
0.000175926
0.000154798
0.0405362
0.000364854
0.0001487
0.000208928
0.000151058
0.00014537
0.0327384
0.000198147
0.000163289
0.0228692
0.0434295
0.000147122
0.000147636
0.000148535
0.000149627
0.0696285
0.000166056
0.0463562
0.0814193
0.000165019
0.000168298
0.0576036
0.000161566
0.0183416
0.0147427
0.000306749
0.000190495
0.000148925
0.00023701
0.000161794
0.000529931
0.000220602
0.000162884
0.0415202
0.000148649
0.000279796
0.000148184
0.0436242
0.00014638
0.0471579
0.000149853
0.00016051
0.000149189
0.0246606
0.000148389
0.000147794
0.000203165
0.000148034
0.000149482
0.000156976
0.000154984
0.018127
0.000167666
0.0393784
0.000147059
0.000152884
0.000207239
0.000147767
0.0189818
0.000148358
0.000232822
0.00686872
0.000145926
0.0207465
0.000148046
0.000155479
0.000148617
0.000149886
0.020689
0.000158276
0.000147688
0.015697
0.0496332
0.0384393
0.0218555
0.0298624
0.000210739
0.000158192
0.000147714
0.000221962
0.000250448
0.000168127
0.0126684
0.000177895
0.0200691
0.000146528
0.000154902
0.00018322
0.0479212
0.000151183
0.000148494
0.0520537
0.000220487
0.000311188
0.0274913
0.000153696
0.0722004
0.0462947
0.0472336
0.0718848
0.000158792
0.059923
0.000226986
0.000148979
0.000167022
0.000148953
0.0306205
0.00015357
0.0427392
0.000149305
0.0235477
0.000103796
0.000152761
0.000192913
0.00985195
0.000152432
0.000148601
0.000147083
0.000149236
0.000164751
0.000149011
0.000147641
0.000180347
0.000161198
0.000167656
0.0267043
0.00020128
0.00015452
0.000155618
0.000162762
0.0541799
0.000182532
0.00051459
0.057611
0.000180535
0.00324529
0.00016176
0.000190786
0.000149247
0.000156953
0.000149016
0.000145539
0.000149607
0.000148205
0.000215695
0.000215499
0.000149816
0.0212814
0.000172143
0.000144042
0.0202166
0.000147109
0.0406219
0.000158016
0.000151447
0.00014934
0.00026323
0.000155507
0.0323738
0.000148532
0.0218738
0.000191306
0.000147227
0.000149192
0.000159767
0.000145606
0.0451418
0.00707734
0.000151673
0.000159179
0.000166941
0.000188822
0.000148169
0.000180128
0.000201046
0.000146034
0.0112301
0.000147247
0.000159546
0.0544099
0.000148195
0.000149505
0.000147855
0.000179144
0.000166618
0.0197521
0.000151684
0.000118924
0.000152801
0.000147102
0.0498316
0.0187189
0.0411711
0.0148328
0.000171365
0.000182445
0.0179288
0.000167469
0.000148183
0.000147726
0.0167284
0.0758099
0.0405336
0.000147972
0.00014972
0.00016009
0.000147121
0.0609063
0.000151264
0.00470869
0.000156992
0.000156853
0.000148181
0.031614
0.0603643
0.000160099
0.00981092
0.0103868
0.00014691
0.000162668
0.01589
0.000149127
0.0375334
0.000184714
0.000148859
0.000154738
0.000147471
0.0697053
0.0660861
0.000263293
0.000159919
0.00018026
0.0347673
0.000183794
0.000145285
0.0516712
0.000150433
0.000148107
0.00216768
0.000162264
0.000159164
0.00496147
0.000149156
0.000153411
0.000148561
0.000147556
0.0506149
0.0226768
0.000148204
0.000159225
0.000208255
0.000242554
0.0420749
0.0240081
0.000211625
0.0161474
0.000148182
0.0167794
0.000154986
0.000148183
0.000203128
0.000145972
0.000208288
0.000198909
0.00016769
0.000145088
0.0467097
0.000165631
0.000160329
0.000152175
0.000397626
0.000165559
0.000148558
0.0436681
0.000153665
0.000154778
0.000180262
0.0227973
0.000148134
0.000149165
0.000149914
0.000158709
0.000151641
0.000287972
0.0119222
0.000165215
0.000148806
0.000185644
0.000162757
0.000155004
0.000289088
0.012053
0.0266328
0.000147932
0.0214472
0.000273337
0.000158241
0.0001478
0.000146449
0.000148821
0.031933
0.000149102
0.000143947
0.000146473
0.000166766
0.026203
0.000170374
0.000149817
0.000196194
0.000103728
0.00712963
0.000145842
0.000231631
0.000151445
0.000145067
0.00015012
0.000169822
0.000171236
0.0215337
0.000237215
0.000146649
0.017832
0.000149851
0.000149854
0.00435284
0.000205332
0.000148825
0.0427446
0.000157406
0.000272751
0.0608701
0.000188823
0.000150511
0.000148186
0.0177667
0.000146176
0.000152067
0.000159471
0.000147201
0.00172885
0.000157939
0.000150536
0.00382709
0.0793952
0.000184265
0.000206031
0.000225264
0.000148173
0.0503052
0.000152445
0.00014989
0.000184328
0.000159816
0.000172768
0.000202448
0.0784784
0.000169547
0.000148783
0.0204127
0.000171003
0.0508654
0.00014935
0.00018066
0.000148344
0.000147548
0.0680681
0.000163869
0.0584603
0.000144414
0.000151893
0.000196668
0.0601048