/*--------------------------------*- C++ -*----------------------------------*\
| =========                 |                                                 |
| \\      /  F ield         | OpenFOAM: The Open Source CFD Toolbox           |
|  \\    /   O peration     | Version:  v2012                                 |
|   \\  /    A nd           | Website:  www.openfoam.com                      |
|    \\/     M anipulation  |                                                 |
\*---------------------------------------------------------------------------*/
FoamFile
{
    version     2.0;
    format      ascii;
    class       volScalarField;
    location    "400";
    object      omega_0;
}
// * * * * * * * * * * * * * * * * * * * * * * * * * * * * * * * * * * * * * //

dimensions      [0 0 -1 0 0 0 0];


internalField   nonuniform List<scalar> 
37809
(
0.150448
7.07025
0.0256466
0.0283268
4.55934
0.0616016
0.25092
3.97401
38.2339
6.57829
0.0838646
0.0253056
0.02825
0.0282916
11.3166
0.0286148
0.0254433
3.38665
0.0253963
0.1631
0.0667998
0.0660251
4.27173
0.025306
0.0618149
6.76695
3.00285
0.0255686
0.0256371
3.92844
0.130987
9.18389
0.0253111
1.86547
0.0251707
0.0254514
0.0248406
4.6801
0.0669613
0.122552
6.51525
9.61722
7.66478
9.27427
0.0252371
0.0309636
0.12817
5.20661
1.9539
0.0536903
0.0254051
0.0253236
0.0251913
0.0257342
9.01052
0.0251965
0.0360972
0.0282359
0.0647155
0.968549
7.67486
0.0270109
0.0281724
0.0801782
0.130603
0.062332
9.61359
0.0254515
0.0268254
3.25533
0.0276584
36.1177
0.0253314
0.028235
0.0255635
0.0248521
0.12031
0.189824
0.144889
0.239009
0.0252312
0.0256433
4.6803
0.034038
0.0251417
10.3694
0.0264271
2.09911
0.0663035
0.0366289
4.61382
9.04624
0.0899232
9.54741
0.0265298
4.75289
0.0253387
0.0254407
8.9337
0.0251246
6.26188
0.0254455
0.0783163
3.46262
3.49696
0.0256076
4.12823
5.53961
0.22411
0.0253042
0.159197
0.0337771
0.152085
0.0271371
0.0357177
0.0657889
0.0254936
0.0253398
0.355192
7.39695
0.0256776
0.0256109
0.040789
4.46067
8.56773
0.025485
0.125633
0.0252947
0.0356991
0.0270767
0.387661
0.184
9.55381
0.0252459
0.287605
0.0253039
0.0254066
0.0271118
22.4811
5.23674
0.0251558
4.69483
39.7974
6.32962
0.0253315
9.6649
0.0275708
0.0268764
4.68335
0.025438
9.50283
0.0270625
0.0438402
0.36512
0.133476
0.0254547
4.11449
0.352864
0.0257703
28.4218
0.0357343
0.213812
5.59149
7.70447
0.0263061
0.0247188
0.0253086
14.9088
0.0690336
0.12547
0.37826
0.0251337
5.47082
0.0267621
0.0269954
0.0295729
3.48974
0.0365797
4.35876
0.086592
7.31374
0.0256335
0.0251947
0.0256496
0.0247085
0.224193
0.0256402
0.0322168
2.28933
20.0995
0.0537087
0.0253388
0.0254083
7.23532
0.239259
1.86334
0.0253224
0.0246155
0.025175
0.0277728
34.1333
0.0889902
8.87378
0.086945
7.46726
0.0247147
0.0269313
0.074427
0.0253111
0.0943342
0.074763
7.20726
0.0251453
0.0253362
0.0252799
1.48006
0.0659226
0.0251193
0.0251423
0.174598
9.86086
2.81607
0.0256141
0.0256518
0.0252357
3.61268
4.35762
0.122035
0.0327226
4.92848
0.0256201
0.216861
0.194244
0.0268312
0.397321
1.61904
0.0251155
3.63318
0.0262662
0.13784
5.07439
0.02514
1.6057
3.7305
0.0252363
0.0253648
0.0256539
0.0247148
0.127084
0.0247068
0.0254673
0.0253191
0.0253995
4.50631
0.0253329
0.0253272
0.024611
0.0254027
3.34518
5.23865
0.338231
0.0254146
27.9852
0.0256248
10.3792
0.0824729
0.133974
0.0395321
0.0253284
1.64346
9.59726
0.0252796
4.62077
1.71848
0.025325
0.139936
1.60017
0.0254621
0.856458
0.0253969
0.025341
14.3004
12.2979
0.0252926
0.14363
0.0253613
0.025325
0.0254185
0.0253232
3.6859
0.0253464
0.0445426
36.1875
0.0251905
0.0252891
0.0319013
0.179045
6.99905
0.0253282
29.9409
0.0435564
12.4479
0.0248592
0.312584
8.74723
0.0342373
0.0256394
0.0277094
6.18143
0.0251431
0.119713
4.60702
9.71162
0.0613949
0.0256696
4.36461
0.0270293
0.0254098
25.4421
36.8107
0.0787873
2.88381
0.0502158
0.0276173
8.33744
0.0654619
9.58655
0.0253271
0.0256397
0.255491
0.0251212
0.0248588
0.0253416
6.04938
0.0248578
0.0252392
0.0483646
0.0253984
0.0253711
0.0801645
0.0252631
0.028278
5.03251
3.18093
0.030732
0.258062
27.2699
0.0254668
10.3351
0.0276136
2.70625
0.262548
0.025305
0.0254464
16.3078
6.11592
0.0247127
0.174891
0.0253217
4.34974
3.92007
0.0298007
8.19523
7.23772
12.4646
3.64381
0.0484061
0.0289363
0.0281043
0.0252794
0.0283126
0.0871255
0.063588
33.2439
0.0751866
0.0249653
0.0796366
0.0247062
9.2779
5.74544
0.025324
0.0270002
7.78353
0.0411798
4.01479
0.0473071
6.02778
0.0395899
25.3064
0.0248843
0.025402
8.47518
0.0256459
0.0254435
0.029328
0.069065
8.01922
1.24112
0.0321771
0.0256463
4.50517
0.0922549
0.0248806
0.0253608
0.0252411
0.109506
0.0251488
3.62769
5.25186
4.84859
0.0690829
0.0327538
0.0775605
0.0256403
0.0248399
0.713096
1.36186
11.1378
0.0256648
0.0253617
5.52687
0.0662574
0.393333
0.300963
0.0254126
4.14654
0.0256674
0.0366088
0.0328761
19.2166
0.0251563
0.0826138
0.0282804
0.027044
5.09551
0.0256076
8.97682
4.70971
0.0590546
0.0251279
0.026179
0.559893
0.0553036
0.0516446
0.0253358
0.0250619
4.74534
0.298294
0.0482976
0.207148
0.0415168
0.0249624
0.0271331
0.0253995
0.0253617
0.0252967
0.0248453
0.025373
8.91906
0.0252566
0.0256429
0.0296406
0.223175
3.57369
8.82295
7.67135
0.0273013
0.037179
4.36705
0.0253518
0.0338073
0.0251529
0.0254663
0.0251999
0.0602443
0.0251446
0.0568355
8.48291
0.040838
0.025404
0.025272
0.0253222
0.0315494
0.0247107
12.2891
0.0253461
0.0458982
0.266686
6.078
0.025372
7.83407
0.0480593
0.0853414
0.025447
0.0801648
4.51176
0.024708
0.0420308
0.0589096
0.046994
0.154756
0.33992
4.88793
9.78524
0.0289737
0.0348275
0.06576
10.7808
0.0253964
0.0254073
0.0248354
0.0251414
4.46185
0.0348594
0.0267509
1.23703
7.19672
0.0258004
17.3642
0.0292324
5.39578
0.211774
0.0254623
8.73228
0.0269077
0.0268611
0.337519
3.88801
0.0522191
0.170894
8.55259
0.0262788
0.31947
0.0619338
0.0256697
0.024849
0.0251418
3.7509
0.025349
0.0254128
0.116953
0.0268449
4.39935
0.215335
6.24928
0.0255571
0.0253474
25.5368
0.137757
0.0256763
0.0305653
0.0494781
0.0254612
0.138542
4.99095
0.0321334
0.0253943
0.192355
1.62935
0.0395497
0.151808
9.55712
0.108916
0.0248486
10.0273
0.0330718
0.0827399
0.0254266
6.08028
0.305159
0.0256706
10.8401
0.0253361
0.0256199
0.0251184
0.025401
4.14115
11.7014
0.0248642
0.0247093
0.0292528
0.038835
0.0671705
0.209054
8.36342
8.78081
3.64898
13.6212
7.61005
3.62033
0.0253466
0.0253323
0.0279208
10.9023
0.0256746
0.0253973
0.0248722
5.00773
11.0471
0.0252524
0.0253799
0.025672
7.78408
0.0476046
2.71591
0.0256619
0.0946934
0.0273702
0.0825402
0.0775697
0.02518
7.77165
0.025373
0.156782
0.0253765
0.0258472
0.0254659
4.76807
3.63586
4.03188
0.0254671
4.21927
3.69425
0.0263064
7.8503
0.1415
0.118106
0.0253387
0.0253237
0.025322
2.04553
7.35325
0.0507133
4.14074
0.0255748
0.0253337
0.0429329
0.0375548
0.0251402
4.53548
0.0294207
0.141593
0.196101
38.695
8.26073
3.25509
0.348425
0.0253364
0.0248569
0.0284257
0.0254062
0.0368
5.84295
0.0253249
34.7013
0.231518
4.32885
0.0283575
5.07373
0.0471155
8.16127
0.0270117
0.0254172
0.0352764
0.0253523
0.0281415
0.396604
1.04402
16.8808
0.312312
5.85881
4.75434
0.0460878
0.0253383
10.0175
0.0247173
4.21082
6.22017
0.0253426
0.0305558
0.289495
3.64518
0.026128
0.0256554
4.61734
37.2665
4.21236
0.0253156
21.5391
0.0253204
0.335992
0.0464875
0.0260674
0.0807923
5.48817
0.025404
0.0253896
0.0253121
0.0251356
0.239302
3.99472
4.37612
6.45723
0.0253685
9.52882
0.0364642
0.133789
2.54299
0.0280265
9.48943
0.0262566
0.0265592
4.41587
1.05855
0.133494
6.04065
4.11077
0.0591628
10.5734
0.17962
0.0255665
4.42834
0.0339473
0.0417014
0.032057
0.0318433
0.0468434
0.0272289
0.0372664
0.171636
0.0348862
0.0293924
0.0298811
0.0823107
0.0276802
0.0253035
0.0255302
0.0253125
0.0256129
0.352455
2.46255
0.0256854
0.0251502
0.050612
4.42017
0.0256019
0.0290911
0.0638279
0.267324
0.0256455
0.02555
0.0277037
0.0794552
0.027225
0.0252286
0.0251635
11.425
4.0178
1.20873
0.0352656
0.0256391
0.0253735
0.0343196
0.0253979
0.0253042
0.0304575
5.26426
0.0661445
3.95114
0.0253487
0.0293241
0.087356
3.95283
0.0801631
27.8834
1.88472
9.29791
0.0248376
0.0253816
4.19122
0.170338
0.0469916
0.0783026
4.78538
8.19316
0.265004
0.0257226
0.20661
4.28142
0.0304644
7.70328
0.0791253
2.32841
12.626
0.297561
0.0774128
0.0262876
4.06458
0.0251509
3.81403
0.0306258
0.0251317
0.0253822
0.0248523
11.8036
0.0248626
0.116342
0.0253226
0.0390287
0.310047
0.0352969
0.0253262
4.49043
0.15963
0.0253526
0.0253924
10.1418
0.0635392
0.0340447
0.161143
0.028836
0.0288042
0.0249657
0.215482
4.23757
4.16762
4.5324
0.161859
0.116202
0.0644491
0.347105
0.0268445
5.31107
12.073
0.22365
0.0252971
0.0287363
0.222181
0.0255732
4.23629
5.13853
0.217091
0.0254027
0.0776013
0.0253
0.0519743
7.62266
0.0253077
0.331069
7.51034
0.0253658
0.0400986
0.0457596
0.0246826
0.0397067
4.10085
0.0479042
0.0439676
8.05694
0.0777354
0.026176
0.0280769
0.0251627
0.0375734
0.0249678
0.0254025
5.57825
0.0442464
0.0283115
0.0262026
0.024853
0.026254
0.0247631
0.190114
0.250593
0.0268024
0.312309
7.79829
0.0251096
0.19044
0.025303
0.0293666
0.0256392
0.025615
4.12045
0.0304234
26.5277
0.0253879
0.0260703
1.08984
5.26669
0.0254665
0.0342217
4.71942
10.0489
0.0256462
14.5926
0.0319722
0.0525703
0.231358
0.0281692
35.5424
0.0316628
0.0253196
0.025234
0.025167
0.0260822
0.0267874
9.47237
0.11722
0.0342838
2.63846
0.102538
3.90149
0.0397017
0.0255518
0.0505096
4.64673
0.0335722
0.0466496
0.0315961
9.97596
0.356998
0.028105
0.0399247
0.0262971
4.43888
0.0254617
0.241508
0.025105
0.0344676
0.0275294
8.78551
0.0288211
0.104682
0.0345033
0.076772
0.0248397
0.243149
0.157996
0.0399862
0.0246859
0.0792254
5.23974
0.724883
0.0249135
0.0283465
6.76034
3.37558
5.36018
0.0253897
0.0559999
0.0256446
0.0547265
0.338902
1.24716
0.029543
0.156334
0.0375132
0.0253312
0.025623
0.130657
0.0253287
0.0253123
0.0262351
0.152229
1.80651
0.0399
0.0250653
0.0247738
0.024837
0.0331848
0.0254007
0.106727
6.31124
0.0248436
8.00221
0.025413
12.3265
4.90277
0.0441402
0.0279741
0.0495972
0.0253436
4.66866
0.0250212
0.231096
0.028606
0.0253542
0.234701
0.0492943
0.0252447
5.64996
0.0603033
0.0296837
0.0269741
4.48731
0.0802693
8.51032
0.025378
0.0660577
0.70884
7.25774
0.0251389
0.0299715
0.0251314
10.6128
3.96097
3.69538
4.20992
0.0256768
0.039463
0.026466
4.6647
1.16863
0.0264408
0.118811
0.0253272
0.0339844
0.0251331
0.0253311
0.0251992
0.0273054
9.17694
0.0253296
0.0461359
0.218716
0.0253332
0.0256713
0.044842
5.01617
0.0306665
0.118649
0.0252196
3.88696
3.72361
0.0253654
0.322291
0.0495827
0.0460448
5.09796
0.0373397
0.0253879
0.29947
0.178435
0.0263804
1.34845
0.117357
0.213354
0.0297868
0.0247093
0.239506
0.0851271
0.284594
0.0251359
8.24424
0.0459001
0.400899
0.0362158
0.0249235
0.0256783
0.0251331
0.0253951
0.0255806
0.0270992
7.99567
0.0350574
0.0256159
0.0318138
0.031964
0.0252565
4.35046
0.0322576
0.151888
0.0362721
0.0262461
4.30873
0.112217
0.079382
5.08335
4.5996
0.0250984
0.0608795
0.130925
0.101586
0.119808
2.90361
0.0247089
0.0253617
6.47605
0.0255301
5.02062
0.202195
0.124879
0.032037
0.0319592
0.0252482
0.0251506
0.0253195
0.0253353
0.0254267
0.0253393
11.5654
0.0253597
5.27548
0.0257797
0.063918
4.2386
0.0256731
0.0254078
0.206282
22.2288
0.165358
0.0256439
7.59303
0.0256384
0.0253623
0.0262384
1.47849
1.57887
0.258551
10.1562
4.02165
0.0329126
0.122072
0.0250208
0.0253984
9.15269
5.39724
0.156926
0.0401747
0.0262595
15.5315
0.118202
7.06336
0.0251738
0.228806
0.0261881
0.0269204
0.0336597
0.156319
37.8559
0.0288366
0.388897
4.03924
28.979
0.0253442
0.0295287
6.33293
0.0270151
6.47141
0.028101
0.0659113
0.0465281
0.0622309
8.37656
0.0250977
0.0253064
0.0461349
0.0821738
8.50067
0.025628
5.90006
0.0262539
9.43592
4.70577
0.161596
0.0253966
0.0252587
0.155243
6.32316
0.0247409
4.98397
0.0262737
4.20718
0.02981
0.031635
0.0253595
0.0473304
0.0704397
0.0299332
0.0313353
0.0251307
4.84355
0.0413369
0.0247553
0.0419594
8.87968
5.38349
0.0298178
5.50821
4.67905
0.0601266
0.247047
0.0341479
0.193861
0.0252345
0.119626
0.0262146
7.39661
0.0255385
0.0254933
3.29895
0.288359
0.0271552
2.245
0.0247422
0.0254181
6.46637
0.0251531
1.4262
0.0501279
0.0253354
6.05758
0.347889
0.156105
0.0253896
0.0358752
0.152131
0.0255434
0.028345
7.27954
4.64292
0.0473411
0.112255
0.0254045
0.0296473
0.150639
4.6087
3.66202
0.0614532
0.0357435
0.0262802
1.97848
0.151508
0.0601661
4.51035
0.0252224
0.131182
0.155699
0.0249211
0.0255192
0.155471
0.0256618
8.67352
0.277259
7.53008
0.0252909
0.0255425
4.74085
0.0255747
12.7534
8.07147
4.21123
0.119336
0.0252626
0.0268718
3.79127
0.0337656
0.0252383
0.0326961
0.0262057
4.49385
12.2944
0.0296563
0.0255404
0.0253861
0.0250975
4.87262
0.795402
0.394338
5.14538
0.0253213
0.0253073
21.9944
0.0252939
0.0832154
0.0315656
9.64556
9.22574
0.0526615
4.72825
7.63909
0.0251552
0.0402676
0.122351
0.0296646
0.0256453
0.0335929
0.0295352
0.0781498
1.13276
11.4392
0.0252861
0.0252507
4.23669
5.43916
7.42368
0.302244
0.0338148
4.14356
0.0247677
0.23316
4.30836
0.171954
0.0254021
0.0847813
0.0247832
0.0254109
0.025171
0.0251404
0.0261288
0.0355041
0.0469456
9.64145
0.0253338
0.024686
3.98064
0.283863
0.0613958
4.31298
6.78416
6.71246
0.0253996
0.0256704
10.0272
0.0477108
0.092498
0.0263631
0.0252859
0.0254626
0.0249232
0.0263171
0.0800245
5.52926
0.0254882
0.0259506
0.0339798
0.025928
4.40344
0.0499565
0.111079
7.0379
0.0911955
0.0253666
4.71033
8.4256
0.0999123
6.41385
0.0278365
0.0436414
11.5415
0.152249
9.96397
0.0301744
0.025365
11.2743
0.119417
0.0256295
0.0254249
0.0469639
8.75784
0.0252051
0.0248795
0.0256236
0.0248809
0.0250674
4.59184
0.27843
0.025278
0.0308596
0.0823783
0.0253614
0.0295468
0.0256241
0.0247173
0.0253785
0.0435271
0.0303551
0.0254971
0.030697
0.0256302
9.92328
0.0267694
7.61018
0.560316
4.32438
0.088745
0.0246897
0.0256299
0.0251716
0.216767
0.0251382
0.0248906
3.52709
11.3988
0.312593
0.024947
0.126542
0.591598
0.0254945
3.91927
0.028018
6.84794
0.0253426
0.261769
13.5515
0.0258415
0.025399
4.4663
5.06808
0.0782547
3.88114
0.876994
12.1758
9.90738
6.35618
0.0253544
4.70081
8.96422
5.28556
0.0256533
1.3712
0.0252858
0.0246503
4.33275
0.0256451
0.0910882
3.3741
0.0249545
11.0307
0.0951979
5.08026
0.0372061
0.0261119
0.0535761
0.0251396
0.0254213
0.0551011
0.0371066
4.59294
0.0249957
6.1308
6.35261
0.0566168
5.08032
0.0469078
0.0253263
9.24361
0.0253801
4.63983
8.16137
4.28786
5.23693
4.71625
0.0795661
0.186227
0.0279426
5.19999
0.025574
0.0254647
0.1023
0.0255381
0.051483
9.29729
0.0256196
1.32321
0.0282464
0.0261777
3.62131
0.0280777
0.0253787
0.0435452
3.2821
0.0281428
0.111323
0.0256111
4.24801
0.0253163
3.59749
0.0252515
28.4081
0.0888277
0.528596
7.75768
0.0264451
0.191391
0.0255798
0.835265
0.0260012
0.0249632
0.179224
0.0253453
0.0256653
4.15502
0.025082
3.62896
0.0252826
0.0250675
0.0254124
0.0451031
0.317713
0.0252436
0.332949
0.0253591
0.0251767
0.0283795
0.0404005
0.0752278
0.144067
4.84274
0.0321289
0.02563
0.0256679
0.0253893
0.0281136
4.3521
0.0251354
0.0258292
5.28289
0.025612
0.0321581
0.0253428
0.0255431
4.39934
0.0249772
0.0273229
0.025297
0.0252538
0.025543
8.38941
0.0262066
26.4881
6.57381
0.0556772
10.3393
0.034948
0.0256245
3.32487
7.93773
0.025065
0.0252871
0.0557151
0.0644389
0.0255727
0.0843974
0.0256577
0.0256775
0.0251511
8.194
0.0254663
0.187256
0.0302576
1.73575
6.00604
0.0258556
4.12339
0.025399
11.2467
0.257359
0.151836
0.060123
0.114952
0.0261862
10.0503
0.0778321
0.0250247
0.02515
0.0256859
0.315414
0.0751863
0.178683
0.261571
0.0256389
0.0251482
4.14185
0.0253725
11.1536
0.045488
24.358
0.0665047
0.0281933
0.0304868
0.040413
0.0254615
0.0257449
0.0252693
0.0254188
0.0253234
1.37248
0.0376723
0.07286
0.317788
0.0259974
4.28026
0.0668755
0.027164
6.54108
0.0268032
0.217569
0.122385
0.0291017
4.10799
0.691782
0.0253826
5.53392
0.0250848
5.46978
0.0254605
0.025425
5.27072
0.0867153
0.0253402
0.0306151
0.0280237
0.512597
0.0407745
4.81048
0.0254637
0.232127
24.9651
0.0575716
0.0253362
0.0449785
7.31799
0.0350647
0.0264307
3.66356
0.0256636
14.4912
6.10857
0.0623095
0.025344
0.0251287
9.43636
0.33306
1.35442
0.044758
5.1546
0.0407525
0.713379
0.0615598
5.79551
0.0454837
19.6344
0.154578
1.3792
0.0253648
0.0250618
0.122018
0.0440085
1.32951
33.2467
0.0575752
24.7248
10.0341
0.0364303
0.0272066
1.59077
0.0250905
0.0769126
0.0263737
0.0249563
38.2046
0.0250559
0.0653541
0.0253627
0.0256395
0.0253265
9.93794
4.10005
0.531165
0.0252116
4.26527
0.0413096
8.89892
0.336152
6.72637
0.0253701
11.0175
0.164921
0.0250723
0.0614584
0.0263394
0.0247814
0.0255778
0.0268023
0.0254045
0.0266499
0.0253741
0.0252422
0.0262058
0.0425972
4.17954
0.0253678
0.0824798
5.45267
0.160033
0.0316224
0.0250824
0.339953
4.92586
0.0296534
0.0248022
0.123236
0.0253327
0.083677
0.0252939
0.368966
0.0805494
0.0251032
4.49106
0.462881
0.0456712
0.030524
9.72717
0.0898986
6.80936
7.37947
0.026209
2.86029
0.025198
0.0931685
0.0250978
4.36577
0.0252417
0.034734
8.74092
0.0266597
0.0253556
4.89264
0.0269793
3.50844
0.0265072
0.0799352
4.1571
0.0330488
0.0251808
5.61928
0.487355
0.0293002
4.19359
10.329
0.0253578
0.365548
0.0568446
0.0260988
0.0254004
0.673465
8.35461
7.2474
0.0260725
0.0263065
9.182
0.0254665
0.0476798
9.31332
4.83241
0.0251676
0.0256306
4.08882
3.46077
0.0252807
0.216431
12.4095
3.73283
7.44927
0.0253007
0.0260846
0.0256205
0.375951
0.0283718
4.25176
0.0479435
0.0254219
0.0662009
0.0251779
0.114663
0.0253618
5.84692
0.0547932
0.0271668
10.3723
0.047265
0.0665278
2.06495
0.0252409
0.165422
0.0273922
0.348104
0.0843875
4.11801
0.0540083
10.1526
0.0267749
0.0259422
0.312259
0.0728685
0.0249159
0.0846737
0.136155
0.0251414
0.0594722
9.86151
0.0256242
0.0252121
0.0256773
0.025574
5.83408
0.0254656
0.260968
0.228998
7.0234
0.190827
1.53295
0.0330982
0.242026
0.0288537
0.0253368
0.105481
0.0258251
0.0608217
5.72456
4.54605
0.184575
0.0747874
0.0304887
0.0253041
0.232873
0.315794
0.0304272
3.417
0.0334295
0.130435
0.0253407
0.025132
0.0256239
0.0764367
0.114683
4.68825
7.42144
0.0284169
0.0253907
4.78434
0.0256706
0.135319
0.025015
3.2405
30.6435
5.22668
0.118644
12.4902
34.9002
11.2749
0.0249347
23.7415
0.0250724
7.38478
1.73872
0.0249183
0.0290596
4.16297
0.0256616
0.0254956
0.0248893
0.0515018
0.965187
0.0256713
0.0268386
0.202591
0.0253689
31.6202
0.0625849
0.0251628
6.70386
28.3924
3.73812
0.291749
0.0251464
4.93331
0.0318171
0.0959276
0.0252966
0.024826
4.24856
0.0551703
7.19015
0.131709
3.01463
0.0254667
0.0471595
8.08394
0.0315655
3.84734
0.0269117
5.13314
0.0255548
0.0646126
0.0390785
8.04028
0.0251841
0.0288139
0.0435434
0.0252603
0.0253051
0.0729114
0.142229
0.172608
0.0253415
0.0253583
0.025689
0.0262587
0.484843
0.0249743
0.0421718
0.196583
0.0256527
10.3953
5.23161
4.29036
8.40845
4.21452
0.0254649
0.060268
0.0249065
0.0316644
0.0339103
12.2616
0.025357
0.0492343
0.0258462
0.0253405
0.0253235
0.0253389
0.0615744
0.025527
0.0988217
22.846
4.62249
7.36187
0.0254205
8.33995
0.0258167
12.1244
0.0607712
0.0304354
0.0290729
0.0251759
0.0249033
0.0256708
3.91624
0.039594
0.0365092
0.167811
0.0959704
0.0252811
0.0330805
0.19091
3.97258
0.027132
0.0271735
0.0253594
9.93829
1.61237
0.0258334
0.0250996
0.225139
0.0251802
0.0318441
1.14891
5.3444
0.0255505
0.025176
0.0311807
0.0253754
5.05989
3.94144
5.31382
0.0255616
0.0248916
0.202583
4.67719
0.025467
0.0251664
0.0846085
0.02543
0.0645257
0.0256756
11.4036
0.0254603
0.0249012
0.0348487
0.0251083
0.0517561
0.0477997
4.18141
8.2366
0.032753
0.0253939
10.0635
10.5598
0.218368
0.0248562
9.0925
0.0295923
0.0253477
3.98218
0.0387366
0.0725686
13.4935
0.0283738
7.87702
4.82712
10.9917
0.0666172
0.0281975
0.0278264
0.0298436
0.0254347
0.127994
10.1334
0.0253195
0.0254618
0.0649738
0.0253977
8.34447
9.28053
3.62094
0.0251551
0.0253679
0.0270368
0.0285642
0.0251215
0.323466
0.025353
0.0252578
3.69695
4.21673
0.0508013
0.373438
0.318012
0.0389343
0.78397
0.031216
0.0481028
4.16548
0.137233
0.0300564
0.108673
7.82675
0.0249048
0.0252093
0.0256603
16.3379
1.20403
0.0474636
0.0253446
3.65587
0.171845
0.0644044
0.0775669
9.8945
8.39296
0.0252769
0.025101
0.0593755
4.0026
4.30832
4.99463
0.0254666
0.0251943
4.5253
0.0255702
0.0254002
0.0259128
0.0250585
0.155825
0.0256425
0.0256299
0.0253505
0.0253546
5.3257
2.40549
0.0251027
0.0297707
4.25669
0.025388
0.0269301
0.0248751
0.0283956
7.12757
2.76061
6.29385
0.047387
0.0256397
0.0252042
1.48717
0.165875
13.6059
0.206337
0.0252082
0.0252708
5.44467
0.936256
0.150421
0.907325
0.0379386
0.0253203
0.639205
5.77198
0.0252999
0.0252782
6.46512
4.45187
0.0251965
4.59915
0.0253522
0.0253351
0.0253597
4.27604
0.0439146
0.194323
9.45211
0.0253863
1.06354
6.55699
4.96607
0.204832
0.0253512
3.50296
4.55143
0.0281191
9.39276
0.0256563
0.0284016
0.136967
0.0248808
0.0252815
0.0256261
0.235615
0.0279876
0.042337
0.121533
0.0817796
0.0254601
0.0334545
0.0253354
7.85821
3.66824
0.0326116
0.0834379
7.22401
0.473714
0.0250087
4.44646
0.0252153
0.0251095
0.0381732
0.0279292
0.0256211
3.36994
0.0259811
0.029907
0.0629357
0.198808
0.206788
0.0247171
4.53025
0.0360506
0.0252898
4.69335
0.0255433
0.185119
0.163888
0.0299579
3.52165
2.62688
0.0254129
0.198774
0.0259301
0.0247881
5.45203
0.123981
0.0529728
8.00532
3.8496
0.0252132
0.0252696
0.0254624
0.0256404
6.05206
0.0550474
4.16232
6.4675
0.0453139
0.0411194
4.28812
0.0405821
8.40674
4.94577
2.44458
0.0855659
0.0255282
0.367652
0.0465508
4.0451
0.907429
0.0504653
4.28724
0.0254048
1.71324
0.0253968
4.19324
0.0250858
4.60411
0.0256767
0.0313514
0.0254355
5.8022
0.0253527
0.0253462
0.161779
0.025364
0.0256168
0.0290334
0.0293096
9.69455
0.040221
18.1626
0.0251583
0.0279003
0.160629
0.0253256
7.63647
0.0253514
0.343109
27.2226
0.0250119
7.69945
0.0253563
0.0305709
0.0252921
0.0258366
7.68311
0.0347402
0.0252865
10.4537
4.41792
3.55339
6.07235
4.63265
0.179112
0.0344335
0.025114
0.93585
0.342014
0.0393395
4.78462
0.131449
9.7279
0.0248499
0.0281812
0.0679989
4.08304
0.0265428
0.0253708
4.25986
0.872622
1.02738
5.04111
0.0279862
6.30247
4.187
4.29832
6.32922
0.0315128
4.86783
0.278954
0.0255374
0.0473188
0.0255326
5.96481
0.0283827
4.33253
0.0255891
5.32133
1.20877
0.0277796
0.0994039
26.2498
0.02635
0.025474
0.0252198
0.0255669
0.0606835
0.0255426
0.0251973
0.0644169
0.0398641
0.0379047
6.45164
0.13144
0.028935
0.0298016
0.0505425
4.15835
0.802611
3.84265
4.35699
0.0584842
6.6694
0.027013
0.364671
0.0255793
0.0290191
0.0255423
0.0247906
0.0256375
0.025399
0.20949
0.20852
0.0256709
7.51535
0.0450922
0.0246588
11.054
0.0251038
4.37763
0.0311215
0.0262841
0.0255949
1.37014
0.0306423
5.18974
0.025462
4.09248
0.0889395
0.0252443
0.0255646
0.0356815
0.0248179
4.17065
38.0305
0.0259683
0.0380177
0.0376464
0.0841403
0.0253894
0.112471
0.130826
0.02496
10.5531
0.0252479
0.03142
4.28744
0.0253091
0.0256753
0.0253387
0.055538
0.0578519
9.68944
0.0269005
0.316244
0.0278102
0.0252233
4.11885
10.1311
4.07272
13.9845
0.113507
0.0657394
7.40893
0.0382765
0.0253388
0.0253161
11.2473
6.67226
4.42586
0.0253729
0.0256554
0.0360365
0.0252017
4.62404
0.0262921
7.20023
0.0333799
0.0330035
0.0253984
4.43484
4.6271
0.0374189
22.0459
27.9833
0.0251522
0.0502021
11.8851
0.0255342
4.46289
0.0791736
0.0255177
0.0278676
0.0250615
4.54353
13.162
1.08401
0.0400882
0.220652
4.35647
0.138145
0.0247869
4.31234
0.0261084
0.0250002
26.6744
0.0330426
0.0335784
5.68308
0.0255651
0.0270996
0.0254667
0.025299
3.69986
8.3481
0.0253989
0.0379365
0.262494
1.2867
3.35316
7.73649
0.183922
9.30145
0.0253966
9.31097
0.0282104
0.0253382
0.137767
0.0249539
0.261449
0.145157
0.03982
0.0248577
4.16728
0.0526921
0.0414733
0.0272219
3.14482
0.0562431
0.0254661
3.40309
0.0285412
0.0291459
0.0621507
4.14369
0.0253014
0.0255454
0.0258484
0.0311208
0.0268759
1.61041
4.91653
0.042052
0.0253392
0.165857
0.039452
0.0279567
1.69397
5.18237
4.80231
0.0253636
8.93932
1.29925
0.0306506
0.0252846
0.0250969
0.0254105
5.40437
0.0255266
0.0246575
0.0251012
0.0540392
4.301
0.0466521
0.0256712
0.115184
0.29496
37.9183
0.0249988
0.279092
0.0267249
0.0248042
0.0257439
0.0546685
0.111399
8.09303
0.319091
0.0251503
7.09718
0.0256763
0.0256769
9.184
0.234109
0.025512
5.20281
0.0341479
1.48795
7.29264
0.0840276
0.0261372
0.025394
8.58039
0.0250732
0.0260821
0.0316161
0.0252416
12.8406
0.0324058
0.025717
7.37929
5.70563
0.0778263
0.241039
0.300437
0.0253372
4.33541
0.0263555
0.0254797
0.140658
0.0357306
0.0946222
0.134737
5.17614
0.0566071
0.025415
7.33603
0.109412
4.03754
0.0253951
0.348631
0.0253451
0.0251467
12.6265
0.0378926
5.32986
0.024717
0.0270763
0.112252
5.08158
3.64665
0.0260444
5.08681
0.0250669
0.0263029
0.0277665
0.0310461
0.0253837
4.97087
0.0275725
0.033944
0.0252469
8.53503
0.0268433
26.1665
1.00666
0.025071
0.186157
0.0653886
4.66558
0.0255182
0.0253066
0.0253979
6.38086
0.0252077
0.0737748
0.0252505
0.0392858
0.0251226
6.94192
0.0310886
0.0465424
9.72696
0.0248333
0.0811684
4.14612
0.317127
0.200579
0.025737
6.13943
0.0253173
0.0255439
0.0252808
0.0267494
0.0494414
5.66014
0.0247574
0.0297131
4.79614
6.12039
0.0253301
0.029632
5.34901
0.0254142
0.0284119
0.318245
0.0253287
0.0335293
0.0252921
0.0248601
0.0251596
8.61471
0.0429445
0.0251605
0.026506
0.0254728
0.0322657
0.0255385
0.0313691
0.0253041
4.40321
0.203062
0.0254943
4.65054
0.0275422
11.1666
0.0283547
0.102502
8.77042
0.0246732
0.0454088
0.0253304
0.0256767
0.0253144
0.122179
3.62245
0.0249209
6.03036
0.218014
4.1435
0.0260468
0.0248661
0.0294116
0.0799221
0.0256458
5.63777
0.0252162
5.18524
0.0253103
0.0256393
0.0248239
8.86362
9.45811
5.79244
12.5004
0.025602
0.925182
6.35166
4.17918
4.3268
0.0251422
0.0446489
0.0299206
6.19519
0.0625967
0.960001
0.048175
6.65631
0.0255122
0.185382
0.205051
3.3498
5.00797
0.257765
0.0300948
0.104651
0.0329316
5.5196
0.339695
0.0255373
0.0451066
0.058028
9.38611
0.0278472
4.11744
0.0250698
2.31943
0.0261443
0.0250252
0.0331768
6.53042
0.0250543
3.78011
0.0396661
0.0254863
0.0847188
0.0249997
0.0584709
6.30628
3.75016
5.48176
0.0624447
0.033004
8.97212
7.50191
0.0256768
4.16916
9.49126
0.31903
0.102233
0.0252212
0.0267592
0.0251111
0.031316
4.11466
0.0251092
0.0262699
0.0268071
0.0248262
0.223441
0.0633429
8.93872
0.0255584
0.0253339
0.0256704
0.024703
0.025455
0.218411
0.131155
6.81054
0.0247761
0.0843765
0.104651
0.0252027
0.0253991
0.0250306
4.12422
0.0473232
0.0301963
0.0252788
0.0248016
3.67336
0.0256457
0.0261015
0.0290736
8.02342
6.59156
0.0836608
0.0253349
0.0268559
0.0256612
0.0248414
0.0252006
7.77177
7.80441
4.44659
0.0251823
5.32742
0.0256167
0.991083
0.0254088
0.0277291
0.600394
0.0628149
8.7211
13.3543
2.48189
0.11151
0.0521051
4.07406
0.0520398
10.3596
3.79326
0.160401
13.2641
0.0250955
10.3669
0.0250824
0.0391178
1.20945
0.380533
29.0312
0.261122
0.0350446
0.0265746
35.1969
14.9071
0.153261
9.03235
0.0264199
0.0254472
3.38114
0.0320336
4.01937
3.81935
0.026452
0.0255204
5.95553
0.0917295
0.269098
7.93157
0.0254454
0.123081
37.822
0.0403278
0.0251769
0.0360671
6.6277
6.56023
0.0252156
0.983186
0.0252842
0.0254642
8.82991
0.0887419
0.0249931
0.0251804
0.0815097
7.93756
0.036269
0.025327
0.140094
0.024935
0.0255661
1.66565
0.0267045
0.0408364
9.78334
0.02511
0.031248
0.0254405
5.68801
4.08686
0.103757
0.0255628
0.0342604
0.0944319
0.0256301
0.0255733
0.0405967
0.0297875
3.51121
0.0250685
4.57433
0.0268631
11.1508
0.0804372
0.02535
8.36874
1.42216
0.0254036
0.0254611
0.180011
0.0572784
4.64413
0.0305164
0.0252063
0.0279967
0.0632244
3.49381
3.70464
4.73711
0.694873
0.149944
4.41908
0.0254616
0.0330061
0.0593652
4.689
0.0277537
0.205843
0.0254664
5.05099
0.0614765
0.0250313
0.0251352
4.31846
0.0255203
0.0268825
5.69751
0.0376431
0.0252201
0.0255345
7.23641
0.156729
4.49436
0.0417037
0.0247666
6.68047
1.31127
0.0270314
0.0339759
0.0249285
0.0252245
4.07992
5.02156
0.283449
0.368849
0.0247525
0.0247093
0.0467829
29.4785
0.025224
4.19438
0.0253351
0.0266899
0.0520131
0.243872
0.0252995
4.7195
2.18259
0.190818
26.6157
0.0697488
5.66782
0.0338383
0.0253365
0.685308
0.0249387
0.0324385
1.38738
0.0249305
0.0254327
0.0249524
0.0867031
0.0276428
5.66101
0.0253395
0.055542
0.0251725
0.0256157
3.50853
0.0310802
4.15584
0.0253613
0.0424162
9.22945
5.34273
0.0254081
12.6679
7.97687
0.0246996
4.24757
0.0274436
10.9284
0.165183
0.0297024
4.10628
10.42
0.317501
0.160581
0.0262191
0.0406318
0.0411878
0.151783
0.0690499
0.0796306
0.0270704
0.0252203
0.0341336
0.0891645
0.0259417
0.0255166
0.0284053
0.148393
4.0975
5.55053
3.99758
5.5637
0.0408015
10.5654
18.188
29.1537
8.55483
0.171406
0.0333573
0.206036
0.0291185
0.0253614
0.0547311
5.62427
0.0267355
0.0252853
3.99471
0.110768
6.54961
0.0261991
0.0255513
0.223537
0.0256295
0.0260253
0.0252242
5.78485
0.0475009
0.0354523
8.10182
0.0249171
0.296258
5.80733
9.3982
0.0247829
0.0251453
0.18721
0.25967
0.0247328
0.545458
0.0472899
0.557555
0.0253946
0.0250385
3.47787
5.5135
0.0635078
5.9854
0.0256821
14.3024
0.0399074
0.0250898
0.0251805
0.0779709
3.44533
4.83721
5.28729
0.180676
0.0285281
0.0562544
8.45885
6.34341
0.0249041
0.0256
10.2426
0.0253096
4.22174
0.0579574
3.83634
0.0788941
0.0256717
0.0599806
7.77838
0.02658
0.0321722
0.0468523
0.0256301
0.770647
5.61715
6.01664
0.152839
4.24302
0.0254288
0.0252881
4.37928
0.025654
4.70524
0.0255975
6.52366
0.0309223
0.0258195
1.27999
0.134152
0.0252235
3.56952
0.0256394
0.0256075
0.0252352
0.0253439
0.0251698
4.9627
0.122642
0.0373708
0.0249854
0.188687
0.924684
5.9273
0.0279024
0.0430327
8.46299
0.0374715
8.19953
4.80571
0.0253986
0.179205
0.0891984
3.78362
0.297354
7.40938
5.49514
0.0350015
4.42201
0.0248097
1.20657
0.0262258
0.0279689
0.0480437
0.293695
0.0529941
5.49049
0.0338174
0.0254644
0.201949
0.0336077
0.0854188
5.30017
0.024779
0.0246509
0.0252786
0.0287797
0.0281382
5.2945
0.0252264
4.1332
17.4658
3.98809
0.0255735
0.0487634
0.0289726
0.025414
0.0250464
0.0251245
1.76612
24.5925
0.0256771
0.0251149
0.0250934
0.0253361
0.0650526
0.0250587
1.18216
0.0325038
3.35728
0.054219
0.034791
4.33233
0.0632098
0.0254666
0.226024
0.0253166
3.48061
0.025336
7.46057
0.127475
0.0256248
0.0255646
0.0249424
0.0251637
0.264557
0.0253368
19.6454
0.0403473
4.15523
0.0313177
3.4176
0.0254098
1.15337
0.295876
0.0251358
0.0251426
2.4135
0.729396
0.0253998
7.34195
0.0569056
32.5809
0.0262793
0.0253929
0.11155
5.77259
0.144897
0.025201
0.0249811
0.0463945
4.12202
0.0247514
0.0253406
0.0253494
0.0811574
0.0255171
11.254
4.11578
0.0633654
0.0254458
0.0255817
0.115195
0.116999