/*--------------------------------*- C++ -*----------------------------------*\
| =========                 |                                                 |
| \\      /  F ield         | OpenFOAM: The Open Source CFD Toolbox           |
|  \\    /   O peration     | Version:  v2012                                 |
|   \\  /    A nd           | Website:  www.openfoam.com                      |
|    \\/     M anipulation  |                                                 |
\*---------------------------------------------------------------------------*/
FoamFile
{
    version     2.0;
    format      ascii;
    class       volScalarField;
    location    "400";
    object      p;
}
// * * * * * * * * * * * * * * * * * * * * * * * * * * * * * * * * * * * * * //

dimensions      [0 2 -2 0 0 0 0];


internalField   nonuniform List<scalar> 
37809
(
-0.00731817
-0.0682065
0.0192849
-0.0540819
-0.114053
-0.0824362
0.182811
0.473394
-0.0942773
-0.411156
-0.161853
0.0325519
0.103425
0.103813
-0.326062
0.0170956
0.00702301
-0.0651884
-0.0108952
0.159687
0.271744
0.26959
-0.079004
0.00656554
0.14791
-0.280968
-0.0925922
0.0572041
0.0108769
0.44966
-0.127183
-0.254052
0.00671069
0.205736
-0.0296747
0.0070017
-0.0204923
-0.226475
-0.112754
-0.198538
-0.388174
-0.376959
-0.143702
-0.401815
0.0154719
-0.0620465
-0.0897877
-0.134092
-0.0927529
-0.0335936
-0.0332927
0.0249822
0.00240968
-0.00834409
-0.237119
0.00244654
0.0588377
-0.0576725
-0.109118
-0.239867
-0.343245
0.088986
0.101831
-0.13125
-0.126185
0.142437
-0.345114
-0.0102086
-0.0453011
-0.0703351
-0.012749
-0.272036
0.0360918
0.102717
0.0564564
-0.0182768
-0.195922
-0.10231
0.00260121
-0.210895
0.0129221
0.0110913
-0.0996946
-0.0797485
-0.0094902
-0.142432
0.0541729
-0.338546
-0.0931577
0.129765
-0.227731
-0.394692
0.292777
-0.366717
0.0557175
-0.0962759
0.0373571
-0.0340836
-0.098757
-0.00427931
-0.309129
-0.0341933
-0.12947
-0.0637292
-0.0976613
0.0068551
0.437445
-0.404889
-0.153995
0.0321836
0.163548
-0.0785912
0.320527
0.0608414
0.0592409
-0.111513
0.034085
0.0407464
-0.137541
-0.134194
0.00697796
-0.0234674
-0.102474
-0.118571
-0.407846
0.0348441
-0.0930769
0.012671
0.12936
-0.044742
-0.198218
-0.0861915
-0.1182
0.00720917
-0.213351
-0.00449094
-0.0331465
0.0891066
-0.217619
-0.313249
-0.0292448
-0.151575
-0.22309
-0.387376
0.0357614
-0.345728
-0.0552789
0.0801594
-0.100488
-0.010959
-0.0909259
-0.0441617
-0.0715079
-0.231283
-0.195314
-0.0107515
-0.151994
-0.136568
-0.00890504
-0.27589
0.131269
-0.0771956
0.256476
-0.403413
0.0772403
-0.0151094
0.0173421
-0.400726
-0.120563
-0.192719
-0.115164
0.000778611
-0.154834
-0.0378385
-0.0460519
0.0642405
-0.0957386
0.131847
-0.0931364
0.00101274
-0.135718
-0.0294932
0.00261459
0.0543324
-0.017634
-0.142921
-0.0303632
-0.078373
-0.306384
-0.379332
-0.035362
0.0370603
0.0346447
-0.40747
-0.24787
0.39598
0.0355403
-0.0141454
0.0012456
-0.0142184
-0.0684225
-0.166746
-0.327396
-0.00636268
-0.119439
-0.0176691
-0.0391015
0.189673
0.0198396
-0.0851191
0.197095
-0.0688071
-0.000253038
0.0401678
0.0229661
-0.334489
0.257167
-0.00401729
-0.000257175
-0.0888847
-0.369084
0.518142
0.0423266
-0.0275185
0.0134012
-0.093034
-0.366822
-0.0920178
0.136448
-0.306941
0.0519458
0.358037
-0.137292
0.0862201
-0.115903
-0.333021
-0.000904481
-0.0983666
0.0763967
-0.209074
-0.12164
0.00111762
-0.232443
-0.100203
0.0150033
0.0298365
0.012894
-0.0119182
-0.194103
-0.0179276
0.0263672
0.00705994
0.020933
-0.151372
0.0234842
0.0245508
-0.0140569
0.0293059
0.140235
-0.188811
-0.227948
0.0350692
-0.0704093
-0.0234285
-0.341925
0.0262092
-0.0897546
-0.100297
0.0368701
0.400421
-0.120373
0.0234779
-0.111141
-0.247304
0.00720688
-0.204528
0.195755
0.0243384
-0.237947
0.0284638
-0.0309179
-0.115363
-0.410038
0.00613645
-0.0788297
0.0298465
0.0348395
0.0120343
0.0237699
-0.0719444
0.0195202
-0.0943149
-0.313104
0.00219371
0.0131597
-0.0772266
-0.0906789
-0.404821
0.0227491
-0.366859
-0.0934951
-0.252856
-0.018341
-0.0967868
-0.411627
-0.0811863
0.018428
-0.0107746
-0.391069
0.00114888
-0.0807824
-0.148226
-0.0712945
-0.0161651
0.00698487
-0.37355
0.083184
-0.0118559
-0.18704
-0.115553
-0.149476
0.518843
0.0930007
-0.00897289
-0.347445
0.271234
-0.412006
0.0373941
0.0170349
-0.112138
-0.000664429
-0.0227215
-0.0306809
-0.405133
-0.011103
0.00696542
-0.0753994
-0.012457
0.00844753
-0.166438
0.0010183
0.103113
0.221019
-0.0695409
-0.0636093
-0.111087
-0.373917
0.0244135
-0.142155
-0.0559584
0.516104
0.35535
0.0325653
-0.00922067
-0.0944431
-0.30574
-0.0179221
-0.0879585
0.0349224
-0.0779501
-0.0970521
0.0116936
-0.169915
-0.0893927
-0.392322
-0.093406
0.211366
0.0361911
-0.0585959
0.0111698
0.104173
0.284294
-0.0826339
-0.0761946
-0.155683
-0.00905353
-0.0952318
-0.018173
-0.0946708
0.128918
0.0344928
0.0815868
-0.121473
-0.101558
0.499227
-0.106612
-0.303867
0.0783199
-0.19248
-0.0114884
0.0282077
-0.293471
0.0168455
0.0254343
0.0716305
-0.0937554
-0.181681
0.485656
-0.0782915
0.0182788
-0.375291
-0.085277
-0.0114144
0.0409902
-0.00746305
0.101939
0.00151755
-0.0979607
-0.137261
-0.15618
0.277838
-0.0801841
-0.139552
0.0531024
-0.0190318
-0.234582
0.487699
-0.413066
0.0128154
0.00619177
-0.382774
-0.119204
-0.0281272
-0.0962105
0.0121837
-0.0794446
-0.0265121
0.166251
0.1362
-0.270167
0.0018432
0.0316354
-0.0526728
0.0575658
-0.384746
0.0503716
-0.107785
-0.106848
-0.135027
-0.000365365
0.0463624
-0.179221
-0.129727
-0.0845816
0.0191077
-0.0205156
-0.190124
-0.232149
-0.0842573
-0.100094
-0.0943998
-0.00919591
0.0594766
0.0294924
0.039589
0.00625235
-0.0204173
0.00629664
-0.356485
0.0214387
0.0433709
0.0101771
-0.24269
-0.100159
-0.154743
-0.0668323
-0.0477358
0.0443645
-0.101153
0.023253
-0.0844543
0.0014827
0.0240068
0.0055217
-0.0764652
0.00265766
-0.0946924
-0.357291
-0.0661288
0.0292997
0.0114148
0.0338637
-0.0753789
-0.0182235
-0.405309
0.0198797
-0.0954587
-0.114552
-0.198042
-0.0318961
-0.183354
-0.0744691
-0.0762253
-0.0347879
-0.164503
-0.17354
-0.0120191
-0.0957753
-0.135117
-0.103699
-0.0183512
-0.235308
-0.384327
-0.346878
0.0339633
0.0074215
-0.110636
-0.262516
-0.013925
-0.0134202
-0.0186959
0.00227622
-0.366072
0.00483085
-0.0460059
-0.327906
-0.406347
0.0276371
-0.409216
0.0688218
-0.404397
-0.197949
0.0265721
-0.412029
-0.046725
0.0178438
-0.226277
-0.0698314
0.231951
-0.114495
-0.411556
0.0764127
-0.223273
-0.0128202
0.0075122
-0.0128699
-0.00875908
-0.0708805
0.0235666
0.0126555
-0.195979
0.0192977
-0.0767374
-0.10066
-0.405656
0.048506
0.0420039
-0.21197
-0.0728568
0.0074644
-0.0657648
-0.0848568
0.0239567
-0.208613
-0.359449
-0.0772542
0.0212805
-0.143856
0.309682
0.0748776
-0.0244555
-0.112599
-0.105534
-0.0126572
-0.394005
-0.0677165
-0.163738
0.0254598
-0.203283
-0.0947443
0.0109318
-0.393849
0.0383094
0.0516801
-0.00461944
0.0290961
-0.390758
-0.148614
-0.0116467
-0.0149639
0.0119119
0.0953279
0.262381
-0.0949574
-0.402504
-0.329027
-0.0994076
-0.407693
-0.404835
-0.0960197
0.0419499
0.00753527
-0.0233454
-0.0688124
-0.0274922
0.0292241
-0.011706
-0.115821
-0.355269
0.0081191
0.0366809
0.0194591
-0.0984752
-0.0647053
0.278675
-0.0284651
-0.0795404
-0.0539651
-0.144768
-0.147374
0.00148977
-0.0692771
-0.031699
-0.0865915
0.0388377
0.0283012
0.0346852
-0.184549
0.465338
0.487065
0.026435
-0.0802288
-0.0944406
0.0771674
-0.406389
-0.0792792
-0.0801317
0.00768845
0.0366227
0.0344378
-0.250278
-0.30436
-0.0767196
-0.390066
0.0158831
0.0371981
-0.0920067
-0.0924457
-0.000765777
-0.358105
-0.00908859
-0.0732748
0.392894
-0.19418
-0.0906674
0.520647
-0.133709
0.0381119
-0.0123556
-0.0587094
0.038123
0.138873
-0.383087
0.0368035
-0.387924
-0.20611
-0.357712
-0.0539618
-0.119911
-0.0802423
-0.0245903
-0.0459012
0.0125278
0.152179
0.0432647
-0.0586094
-0.043779
-0.288156
-0.398794
-0.0985384
-0.407594
-0.185629
-0.0695978
0.0194666
-0.0691152
-0.0153275
-0.249738
-0.342588
-0.00857441
-0.0486464
-0.0943062
-0.0938936
0.0436109
0.0192532
-0.0966701
-0.233069
-0.37963
0.0253451
-0.402831
-0.00212489
-0.113132
-0.0748544
-0.0409999
0.0465798
-0.0862703
-0.014852
0.0386959
0.0252622
-0.00332746
-0.143018
-0.0933003
-0.182151
-0.264951
0.0090211
-0.149519
-0.0902468
-0.196202
-0.318443
-0.0594768
-0.376406
0.0761819
0.0516488
-0.0821131
-0.327819
-0.129451
-0.20285
-0.100449
-0.0674013
-0.390245
-0.0896793
0.0572126
-0.0825012
0.14519
-0.0910347
0.122236
0.11206
-0.0784756
0.0627882
0.167163
-0.115498
0.130092
-0.0538965
-0.0653908
-0.0762645
-0.0504239
0.0322207
0.0491914
0.0262556
0.0583914
-0.134912
0.188811
-0.0264704
-0.0142027
-0.0142831
-0.397452
0.00680127
0.010775
0.161171
-0.113386
0.0173408
0.0122358
-0.0502325
-0.114368
-0.00994364
0.0100348
0.00220699
-0.15555
-0.128692
-0.243549
0.00135493
0.0175132
0.00655881
0.0985823
0.0294661
0.0168742
-0.0468241
-0.354429
-0.119958
-0.066208
0.0101651
-0.00750619
0.211486
-0.0700676
0.0406649
-0.273057
-0.0733199
0.0457877
-0.0199492
0.00671599
-0.355619
-0.113313
-0.0803621
-0.159209
-0.120696
-0.0695584
0.195082
-0.00722801
-0.135836
-0.398751
-0.0499234
-0.324316
-0.118544
-0.308343
-0.230018
-0.218766
-0.135521
0.0771493
-0.0850255
-0.0136926
0.519715
-0.066367
-0.000296519
0.00211213
-0.0121696
-0.362424
-0.0227951
-0.197382
0.036016
0.0922203
-0.19531
-0.000731492
0.0244697
-0.386099
0.330879
0.00813285
-0.015314
-0.387204
-0.118503
-0.0799696
-0.0764551
-0.0630647
0.0524943
-0.0121971
-0.0780155
-0.17833
-0.160152
-0.386468
-0.103231
-0.199004
0.155432
-0.227546
0.0764426
-0.134957
-0.403077
-0.202789
0.0180737
0.0324417
0.399654
0.0126955
-0.0860838
-0.407567
-0.244468
0.0291771
0.204627
-0.00210902
0.0829457
-0.394105
0.0262364
-0.114354
-0.297228
0.0306798
0.009073
-0.0622831
-0.0132655
-0.0580192
-0.126656
-0.08509
-0.0710101
-0.404917
-0.113096
0.045143
0.100274
0.00216648
0.142706
-0.0118107
0.0292478
-0.232085
-0.0957803
0.103478
-0.0337042
-0.0112761
-0.0338694
-0.0198926
0.389518
0.406147
0.0299558
-0.0976428
-0.0787847
-0.00118732
-0.143569
0.0153181
-0.0532753
0.0177307
0.0583614
-0.100748
0.071832
-0.390322
0.0381249
0.0634166
-0.287095
-0.130233
0.0264605
0.0130255
-0.402008
-0.402979
0.017876
-0.402152
-0.0632486
0.0816278
-0.20749
0.101735
-0.369173
0.109407
0.0337301
0.0101815
0.000960988
0.0633435
0.0317387
-0.089353
0.344707
-0.0863582
-0.339855
0.127248
-0.0669204
-0.0554025
0.0243313
-0.0757126
-0.116286
-0.0736616
-0.0843568
-0.0739688
-0.231407
-0.147613
0.050412
-0.0574083
0.0762297
-0.3918
0.0266166
0.400456
-0.00520803
0.0114355
0.0653505
-0.332662
0.0505695
0.124507
0.101306
0.0607382
-0.0195654
-0.176057
-0.112693
-0.0623718
-0.013129
-0.0771387
-0.0700022
-0.261717
-0.00757742
0.104711
0.167188
-0.101761
-0.313035
0.0434092
-0.131479
0.0119621
-0.0527762
-0.13065
0.430101
-0.064432
-0.100829
0.165664
0.0314351
0.0143968
-0.0929695
0.0313543
0.0249356
-0.0323646
-0.100003
-0.32815
-0.0629506
-0.00513832
-0.0202143
-0.0192381
-0.0761848
-0.0162345
-0.10415
-0.340121
-0.0199075
-0.197724
-0.032346
-0.275912
0.293742
-0.0961482
-0.0576813
0.22833
0.0414322
-0.377789
-0.00474987
-0.0768637
0.0320987
0.0435471
0.403859
-0.0129425
0.00587265
-0.218827
-0.0772256
-0.0580352
-0.0501071
-0.339026
-0.145977
-0.346935
-0.03175
0.249277
-0.21606
-0.0995903
6.59937e-06
-0.0601816
-0.00252045
-0.0785327
-0.100053
0.333384
-0.158672
0.00723276
-0.0522598
0.0424636
-0.120335
-0.325763
0.0779424
-0.200302
0.0308014
-0.085109
-0.00190017
0.0320171
0.00611035
-0.0478249
-0.384665
0.030821
0.023585
-0.135945
0.0321036
0.00726545
0.205368
-0.119864
-0.0497837
-0.20093
-0.000226215
0.480162
0.519549
0.0303114
-0.110857
0.195203
-0.0968852
-0.115737
0.0475344
-0.0166557
-0.216376
0.348542
0.0424543
-0.332826
-0.092064
-0.196013
0.0721263
-0.0147528
-0.249415
-0.166378
-0.249505
-0.00271085
-0.240619
-0.0972631
0.303971
-0.0701393
-0.0160547
0.00715025
0.00141195
0.00907321
0.0152312
0.0817007
-0.11357
0.0638199
0.0590678
0.11381
0.118439
0.0213518
-0.0959643
0.134104
-0.084078
-0.0693742
-0.0310161
0.423254
-0.106058
-0.123954
-0.108964
-0.0912977
-0.00165981
-0.0690772
-0.187247
-0.10413
-0.199494
0.493952
-0.015647
0.0399193
-0.0864068
0.0478152
-0.40529
-0.0919928
-0.156277
0.118371
0.116505
0.00584626
0.00188293
0.0330874
0.037904
0.0502108
0.036467
-0.333804
0.0318006
-0.33966
-0.0118842
-0.134983
-0.383116
0.0071773
0.0288158
-0.13751
-0.396926
-0.0767374
0.00838316
-0.296871
0.00847536
0.030337
0.0757289
-0.321104
-0.0904714
-0.245327
-0.399392
-0.0801884
-0.0750938
0.355512
-0.00474553
-0.0175572
-0.33733
-0.358678
-0.0856953
-0.0659419
-0.0320886
-0.293531
0.349854
-0.405674
0.0022723
-0.175595
-0.0347789
0.0351543
-0.0740573
0.25343
-0.214177
0.0153768
0.314517
-0.0932732
-0.316497
0.0416328
-0.0128233
-0.279604
0.0875964
-0.163805
-0.0593059
0.175193
-0.073256
-0.0854888
-0.17509
-0.00170034
0.0322839
0.0200683
-0.077153
-0.325176
0.0108441
-0.407412
-0.0334946
-0.410138
-0.337617
-0.194473
0.00691605
0.0083588
-0.112791
-0.138581
-0.01153
-0.21907
-0.0279086
-0.399564
-0.059272
0.129106
0.040672
-0.0799527
-0.143356
0.0641509
0.000320967
-0.000380105
-0.405138
-0.0894806
-0.0196023
-0.0842852
-0.329057
-0.176063
-0.0589182
-0.354649
-0.0979898
-0.0779882
0.394448
0.0171853
-0.118416
0.0064245
-0.117744
0.0424498
-0.172173
0.0242959
0.0333528
0.493918
-0.119587
-0.0513864
-0.0902201
-0.0114326
0.0283376
-0.40501
0.00179525
0.459783
0.23173
0.0381545
-0.0978602
-0.146372
-0.191668
0.0301194
0.155179
-0.0831569
0.0241604
0.103511
-0.283763
-0.097444
0.204664
-0.0801322
0.0201334
-0.016893
-0.0789907
-0.358414
-0.0997279
-0.0694511
-0.0779874
0.0766879
-0.33551
-0.0898155
-0.0850421
-0.376664
-0.000613237
-0.0797469
-0.171173
-0.0157044
0.0546393
-0.169903
0.0194929
-0.361697
-0.117018
-0.0348957
0.0156107
0.0195572
-0.0977239
0.0154336
-0.38189
-0.118538
-0.164281
0.352
0.00819903
0.0868384
-0.123572
0.0187619
0.0064772
-0.0738602
0.0409298
-0.109904
-0.347355
0.114124
0.019351
0.0397932
-0.00182306
-0.174101
-0.262493
-0.196315
-0.221601
0.024088
0.0194609
-0.0765265
0.00960996
-0.148072
-0.0626261
-0.334577
-0.218213
-0.0496489
-0.0965718
-0.0836367
0.000600069
-0.0884945
-0.154395
-0.0155811
0.0163279
-0.0683636
0.113057
-0.128356
-0.329072
-0.297102
0.00942359
0.0203065
-0.0879139
-0.138455
-0.38607
-0.218269
0.140402
-0.364984
-0.019213
-0.154517
-0.355894
0.31549
-0.00767476
-0.140088
-0.0204989
0.0198502
0.00575993
-0.00984395
0.0422846
0.0631672
-0.100704
-0.388561
0.037589
-0.0134795
-0.0676812
-0.236936
-0.0688669
-0.377574
-0.299868
-0.250125
0.0069801
0.0552096
-0.22819
-0.102215
-0.0786099
0.036962
0.0146181
0.026503
-0.00761621
0.0763532
-0.128477
-0.344705
0.00594151
-0.0392888
0.0655556
-0.0410863
-0.0891585
-0.0838963
0.11187
-0.407968
0.312774
0.00858279
-0.401641
-0.221393
0.13992
-0.261339
-0.0173152
-0.086979
-0.382441
-0.0849978
-0.347243
0.0696852
0.0320641
-0.38557
0.350208
0.0208256
0.0116453
-0.0797311
-0.264009
0.000171842
-0.0104526
0.0224552
-0.0102441
-0.0210057
-0.0888303
-0.115724
-0.0112044
-0.061055
0.204966
0.0325463
-0.0113656
0.0219072
-0.0146315
0.042603
-0.0699604
-0.0436273
0.0517768
-0.0636325
0.0219586
-0.0664413
0.0721822
-0.410054
0.439778
-0.213045
-0.0842656
-0.0133457
0.02252
0.00602452
0.34761
-0.000461013
-0.00973785
-0.0791712
-0.118463
-0.112
-0.00674353
-0.0797111
-0.250926
0.0516465
-0.080314
0.0988257
-0.115101
0.0102862
-0.212958
-0.226578
0.065212
0.00217074
-0.325278
-0.0987587
0.0560729
0.499665
-0.308292
-0.235032
-0.19579
-0.223953
0.0433013
-0.0962258
-0.169295
-0.279551
0.0111211
0.42504
0.0260838
-0.0151728
-0.0905064
0.0158763
-0.0760615
-0.0664496
-0.0065044
-0.358746
0.143611
-0.132909
-0.0702759
-0.0415386
0.0692094
-0.00157245
0.0492019
-0.00382923
0.164953
-0.0869607
-0.00606377
-0.221104
-0.178625
-0.098103
-0.135436
-0.1152
0.0362806
-0.403864
0.00860753
-0.138173
-0.40682
-0.399101
-0.360847
-0.218964
-0.123459
-0.0916884
-0.0507648
-0.405328
0.0149723
0.017565
-0.10474
0.0245917
0.0899371
-0.399983
0.0532359
0.488646
-0.0375993
0.0161348
-0.0943881
0.100328
0.0148135
-0.105382
0.168596
-0.046858
-0.0794798
0.0068912
-0.153545
0.0247259
-0.0775644
0.0200437
-0.31404
-0.0751655
0.431848
-0.405845
0.0361812
-0.103794
0.0147601
-0.302097
-0.0396774
-0.0194525
-0.0957332
0.0079969
0.0139552
-0.382478
-0.0190712
-0.0974803
0.0159692
-0.00343122
0.0286718
-0.112464
-0.106519
0.0141861
-0.19813
0.0327877
0.00259378
0.104794
-0.0985432
-0.0763051
-0.19388
0.119519
0.125573
0.0229509
0.0137561
0.0299421
-0.0472018
-0.213322
0.00070892
0.0643054
-0.145793
0.0109275
0.122264
0.023243
0.0245094
-0.193726
-0.0113489
0.00258075
0.0151733
0.000819441
0.0244859
-0.326331
-0.0349639
-0.226759
-0.23911
-0.124781
-0.402051
-0.0738757
0.0229088
-0.322661
-0.107672
-0.00498704
0.0145508
-0.126674
-0.121824
0.0578775
0.305387
-0.038208
0.00780317
0.00323395
-0.411409
0.0230076
-0.13553
-0.0401893
0.323434
-0.402081
0.0295204
-0.296047
0.00859192
-0.34843
0.400419
-0.173836
-0.10327
-0.105281
0.0173526
-0.350425
-0.0762445
-0.00621442
0.000858635
0.0468618
-0.100508
-0.0945703
-0.112251
-0.257817
0.0165342
-0.00831962
-0.365142
0.0382817
-0.295351
-0.035577
-0.332826
0.272181
-0.0358402
-0.0527827
-0.0813276
0.0232897
-0.0192692
0.00844498
0.0161468
0.0236206
0.46981
0.0382424
0.248545
-0.221229
-0.0390532
-0.32402
0.27435
-0.00801559
-0.241828
-0.0455662
0.362966
0.354965
-0.00286661
-0.0802517
-0.190343
0.0146703
-0.353528
-0.00219981
-0.281676
0.017732
0.0495837
-0.129761
-0.0844272
0.0399534
-0.0526087
-0.0590758
0.455223
0.00572062
-0.2111
0.0355978
-0.134071
-0.195329
-0.0721349
0.0202564
-0.0519599
-0.303278
0.13418
0.052678
-0.103588
-0.0383889
-0.411154
-0.0731026
-0.0710701
0.0211061
-0.000947593
-0.34099
-0.126194
-0.31387
-0.0782133
-0.234879
-0.0999957
-0.257918
-0.0832662
-0.405456
-0.0377687
-0.395042
0.243693
0.486646
0.0292825
-0.00308242
-0.201216
-0.0359112
0.480345
-0.379397
-0.113704
-0.39707
-0.298228
-0.0696944
0.00371419
-0.272468
-0.0218876
-0.126646
0.0497798
-0.0191367
-0.274759
-0.00319818
-0.140885
0.0307406
0.0160658
0.0351725
-0.14478
-0.135211
0.459137
0.0121028
-0.174831
0.018063
-0.351935
-0.121935
-0.408054
0.0408882
-0.371785
-0.166192
-0.0195495
-0.140012
0.0482153
-0.0189789
0.0160902
0.0355669
0.025371
0.0285498
0.0359295
0.0137109
0.0135531
-0.103478
-0.133014
0.0419628
-0.0962326
-0.0831233
0.313753
-0.0750657
-0.00229546
-0.125975
-0.231419
-0.0607118
-0.0190391
-0.118818
0.021517
-0.0833952
0.0142894
-0.197014
-0.151851
-0.0134843
0.435798
0.452275
-0.0785548
-0.0456115
-0.257147
0.317104
-0.358982
-0.283788
0.0479164
0.245589
0.00119703
-0.0761104
-0.0222908
-0.181258
0.00951153
-0.0728932
-0.197529
0.0269668
0.0329869
-0.246664
-0.0076022
-0.0641233
0.0336454
-0.153313
-0.0852254
0.139322
0.0016823
-0.299624
0.448874
-0.0598763
-0.0760501
-0.104787
0.0327811
-0.15088
-0.0914084
0.0651848
0.0278375
-0.284472
-0.346831
-0.321066
0.0619336
0.0771376
-0.405274
0.0248047
-0.102456
-0.403677
-0.175682
0.000477166
0.0222057
-0.260401
-0.0647902
0.00853239
-0.0955506
-0.390791
-0.0802993
-0.282958
0.0183862
0.0619477
0.0109976
-0.107981
0.103134
0.30552
0.210748
0.0158738
0.168599
0.000554093
-0.19732
0.0296337
-0.21198
0.0591888
-0.0520628
-0.404154
-0.0996996
0.255606
0.184098
0.00916506
0.355781
-0.0103179
-0.13181
-0.13851
-0.134082
0.0747212
-0.0753001
0.0718222
-0.0126163
-0.125033
-0.130669
-0.00760664
-0.157821
0.0235379
-0.0142687
-0.11702
-0.406145
0.0223375
0.0122414
0.00734006
0.0144995
-0.358913
0.0170287
-0.21152
0.178881
-0.280075
-0.094433
0.467695
-0.0300742
-0.253915
0.0683648
0.0049513
-0.0794632
0.0657492
0.168571
-0.203836
-0.0971816
-0.082903
-0.0933847
-0.0676723
0.0271039
-0.148523
-0.0995935
-0.0424421
-0.0659267
-0.0329735
-0.198617
0.00511242
0.00130179
0.0214055
-0.110442
-0.195682
-0.192617
-0.2829
0.016239
-0.0194469
-0.365869
0.00789831
-0.176826
-0.00749958
0.183125
-0.396956
-0.142754
0.351931
-0.335953
-0.0768685
-0.206771
-0.00716047
-0.324106
-0.0200662
-0.0882631
-0.235969
-0.00743225
0.0938043
-0.077558
0.023216
0.0060031
-0.0099338
0.230712
-0.242479
0.0073789
-0.0473349
0.398782
0.0123663
-0.363752
0.222895
0.000894822
-0.169171
-0.333272
-0.253314
-0.118196
0.000380882
-0.100417
3.02255e-05
-0.178987
-0.00684827
-0.00997418
-0.179241
0.0640696
-0.278643
-0.187803
0.296317
0.0263596
-0.0853422
-0.105718
0.129266
0.492545
-0.0464885
-0.398602
0.0214656
-0.138429
-0.0467028
-0.0943918
0.000850712
-0.0630485
-0.0695034
0.010494
0.0177069
0.24304
-0.191681
-0.0862876
0.0356547
0.0327697
-0.0185668
0.0357795
0.443934
-0.0117057
-0.103334
-0.0952159
-0.0380738
-0.109457
-0.354466
-0.085213
-0.143325
0.37274
0.0193526
0.216497
-0.0196633
-0.0767066
0.0922641
-0.212477
0.0119339
0.0895323
0.066662
0.035871
0.0227872
0.0223365
-0.138847
0.0553839
-0.0795646
-0.0772232
-0.10118
-0.284219
0.0115207
-0.0711337
0.0658943
-0.255995
-0.139039
-0.0694467
0.0929527
0.00142441
-0.0198135
0.0113192
-0.0966368
0.0206175
-0.0790203
-0.135179
-0.179956
0.0251863
-0.0694932
-0.0933436
-0.0825379
-0.0112418
-0.0437289
0.0327997
-0.38371
0.456627
0.0664961
-0.00155294
-0.144457
0.00608019
0.131214
0.488262
-0.22232
0.0217275
0.00572594
-0.0750977
0.0124575
-0.25094
-0.141519
-0.209008
-0.00189573
-0.0113387
-0.0930735
-0.0837708
0.0262559
-0.0113326
-0.143579
0.00653196
0.189207
0.00798803
-0.313457
0.0191155
-0.0216525
0.12868
-0.00478734
0.216741
0.0929757
-0.215089
-0.350215
-0.0812162
0.0242406
-0.389927
-0.407848
-0.148105
-0.0225672
-0.208097
0.0669355
0.0337801
0.518132
-0.0412349
0.182784
-0.377099
0.102487
-0.109449
-0.396984
-0.362596
0.274131
0.0129472
-0.016278
0.117143
0.00666716
-0.185286
-0.336983
0.0194089
0.0266054
-0.139019
0.0244373
-0.17199
-0.338011
-0.0901938
0.00383727
-0.0193071
0.0773679
0.047246
-0.00199794
0.063202
0.0333201
0.0108018
-0.102779
-0.375593
0.231378
-0.187944
-0.104422
0.0239478
-0.228899
-0.0709575
-0.0688687
-0.0772064
-0.130641
-0.0611816
0.312016
-0.321996
-0.0215124
0.00700307
0.0109254
-0.401113
-0.0889172
-0.0890707
0.0407206
-0.1014
-0.107269
0.265093
-0.111932
-0.214076
-0.399025
0.0224813
-0.00763426
-0.0747637
-0.335773
-0.0759979
-0.214358
0.0264367
0.00112578
-0.134172
0.0574278
0.0274644
-0.0126913
-0.00313842
-0.190497
0.00816103
0.0212081
0.0403978
0.043639
-0.134571
-0.20589
-0.00705796
0.116462
-0.32331
0.040239
-0.00578471
-0.00872092
0.0136425
-0.401816
-0.0729947
-0.405549
-0.0889815
0.0208018
0.00690125
-0.0714646
-0.106643
-0.359023
-0.0797762
-0.00449604
0.0214879
-0.146157
-0.247659
-0.187548
0.31483
0.167894
0.0250993
-0.222635
-0.401378
-0.0233673
0.024744
-0.155506
-0.0901955
0.000980607
-0.116594
0.0397164
0.0376145
0.00886052
-0.133262
-0.0384083
-0.119504
-0.335423
0.00891134
-0.035938
-0.402316
-0.401415
-0.149412
0.00570596
-0.0797668
0.37855
-0.0566545
-0.290011
0.0232371
0.104582
-0.189616
-0.00866135
0.00905483
-0.0114395
-0.236298
-0.0555557
0.195931
0.355739
-0.0834846
0.0168442
0.142393
0.0380236
-0.146319
-0.0904128
-0.0686464
-0.142368
-0.402165
0.442258
-0.00560691
-0.0947895
-0.00400397
-0.0133083
0.16687
0.0910227
0.00853732
0.437063
-0.0419471
0.117942
-0.0758192
-0.0783607
-0.0805983
-0.0144177
-0.118527
0.135985
0.0236017
-0.0928567
0.0243234
-0.0820894
0.297424
0.119059
-0.0792104
0.486907
0.0494346
-0.197788
-0.0415221
-0.0193298
-0.264636
-0.119849
0.232738
-0.402628
-0.125628
0.0074143
0.0219023
0.02644
0.0190873
-0.196276
-0.00791853
-0.322524
-0.237749
-0.0581002
-0.0946261
-0.0799253
0.021673
-0.083235
-0.406882
0.224809
-0.0752921
0.0111683
-0.255784
0.207188
0.498615
0.340525
0.213985
-0.33858
0.0386722
0.413031
0.028151
-0.196874
-0.00316281
-0.395224
0.0111199
-0.0628466
-0.0265975
-0.0887886
0.0406712
0.00560574
-0.175297
0.0287669
-0.012047
-0.0626305
-0.00468043
-0.347636
-0.0931913
-0.400748
0.00427527
0.0910699
-0.0839033
0.0194388
-0.0716444
0.0427932
-0.25186
-0.371403
-0.00551138
-0.0980525
0.0319278
0.0786706
-0.0234781
0.0655462
-0.0917016
0.0751389
0.0234102
-0.0834054
-0.388849
-0.0767647
-0.0699013
-0.0913676
-0.0806003
0.0684426
-0.0191023
0.331629
-0.127396
-0.0748879
-0.16526
-0.0811883
-0.355351
-0.0224418
-0.0575751
-0.0986052
-0.217929
0.0529919
0.0412578
-0.375245
0.396471
-0.289312
-0.0886229
-0.0248049
-0.219602
-0.296952
-0.388456
-0.220809
-0.0742482
-0.380303
-0.184425
0.0245013
-0.0852858
0.0113942
-0.20279
0.0500387
-0.23634
0.0112752
-0.0690747
-0.307558
0.0859658
-0.1029
-0.230257
-0.0455735
0.0261159
0.00442847
0.00990605
0.258848
0.0244539
0.00485952
-0.121164
0.0296465
-0.0600588
-0.151689
-0.0871842
0.0013437
-0.0215216
0.226548
-0.0754257
-0.17949
0.502721
-0.0814097
-0.0730401
-0.405321
-0.0122326
0.0589299
0.0143107
-0.063096
0.0218358
-0.0201228
0.0121342
0.029522
-0.12387
-0.125051
0.00809012
-0.0954448
-0.0842731
-0.0157394
-0.198979
-0.00586059
-0.195858
-0.0654952
-0.0380452
0.0111718
0.478941
0.0805695
-0.337812
0.0265436
-0.0826358
-0.0788009
0.00614087
0.0498405
-0.00669694
-0.0196155
-0.216158
-0.207247
-0.0396207
0.157661
-0.0697161
-0.100594
0.0300989
-0.158017
-0.0879752
-0.0123871
-0.393996
0.00616953
-0.0748654
-0.0759894
0.0271213
0.0310815
0.022926
-0.0719876
-0.00613374
-0.141572
0.0802932
-0.0694344
0.0861719
0.00470083
-0.320067
-0.122443
-0.139364
-0.348829
0.331363
-0.0980326
-0.0657528
-0.0705002
0.0383355
0.0198678
-0.328903
-0.246933
-0.212285
0.00888776
0.0205703
-0.0127701
0.00818775
-0.36651
-0.0291583
-0.407179
0.139592
0.136829
0.0255985
-0.391055
-0.0938549
0.0259559
-0.185761
-0.188449
0.00355452
0.228842
-0.34099
0.055833
-0.155874
-0.139364
0.0107172
-0.0581247
-0.0199881
-0.156878
-0.381996
-0.180787
0.181027
0.40633
-0.382419
-0.171977
-0.0189367
-0.0739645
0.0649662
-0.0261168
-0.355268
-0.0679969
-0.043972
-0.401573
0.0213908
-0.0519999
0.0251305
0.00997425
-0.0735099
-0.202818
0.0294917
0.155966
-0.258308
0.313179
-0.0626279
-0.322575
-0.0853677
-0.383288
0.0277852
-0.379428
-0.0585043
0.0386114
-0.0720401
-0.012401
-0.260549
-0.183272
-0.0870865
-0.0118391
-0.302138
-0.00639623
0.192885
0.0546427
0.447836
0.0469004
0.0234914
-0.0631036
0.0699353
-0.000518482
-0.108472
-0.0845788
0.0277899
0.0560701
0.066301
-0.0743836
0.0782833
-0.231789
-0.405258
-0.0839344
-0.0241263
-0.16741
-0.0499207
-0.058918
-0.335105
-0.215067
-0.122233
0.0120072
-0.296895
-0.203141
-0.0727041
0.0262466
-0.00148062
-0.0103639
-0.178371
0.0548432
-0.0151139
-0.00124969
-0.0434078
-0.0626103
-0.11372
0.0077304
-0.117585
-0.0727154
-0.225615
-0.00593958
-0.0924764
0.062661
-0.016254
-0.0304634
-0.106526
0.343484
-0.123563
-0.188115
0.000381546
-0.0609241
0.0115037
0.00818927
-0.408485
-0.250553
0.0108317
-0.135672
0.144318
0.476809
-0.277321
-0.0995475
0.0379825
0.0299147
-0.0724734
-0.00266201
-0.039326
-0.0767997
0.00550385
-0.406105
-0.0244572
-0.0388531
-0.402277
-0.333705
-0.137573
-0.25376
-0.241706
0.0382547
-0.074184
-0.0451537
-0.0355592
-0.177644
-0.00463141
-0.0469909
-0.0715735
-0.221404
-0.097806
0.000288525
-0.0817538
0.309749
-0.221328
-0.0325105
-0.149715
0.0400879
-0.00760777
-0.384577
-0.093503
-0.136114
-0.0157978
0.0798889
-0.0932136
-0.118157
-0.100754
-0.0397697
-0.367072
-0.00718535
0.0752814
-0.0547403
-0.0720489
0.00782924
-0.170349
0.0510289
-0.0464095
0.00547131
-0.291834
0.0761899
-0.208578
0.396659
-0.00694608
0.360939
-0.14092
-0.0967748
0.0103629
0.0032924
0.0372346
-0.223653
-0.00918881
-0.0947859
0.00760686
0.169987
-0.000623224
-0.410861
-0.073697
0.0897947
-0.0987666
-0.0202166
-0.0161991
-0.261877
-0.105454
-0.122348
-0.0295132
-0.0837308
0.0328957
0.0222339
0.017246
-0.04623
-0.104256
-0.333903
-0.0165754
-0.0535576
-0.282575
-0.358596
0.0375127
0.114492
-0.401523
-0.000190962
0.104029
-0.103523
0.0374073
0.142947
0.000298179
-0.0116305
0.00397363
-0.141452
-0.0956582
0.00433827
0.0501043
0.0198281
0.125553
0.0221056
-0.0690826
0.00312574
-0.0900838
-0.236748
0.051478
-0.15605
0.0667914
-0.379449
0.101518
-0.113284
-0.151509
-0.0156017
-0.0561666
0.018305
0.0541003
0.0331139
0.0633126
-0.078241
-0.00749901
-0.195004
-0.101527
-0.300446
-0.0399497
-0.00896871
-0.0642631
-0.115491
0.0188082
-0.368547
-0.00168644
-0.27164
0.00451644
0.0186441
-0.0198045
-0.395482
-0.186458
-0.363786
-0.316508
0.0580752
-0.278234
-0.0830913
-0.235395
-0.0868025
-0.0093484
-0.110759
-0.0648278
-0.405661
0.175241
-0.130992
0.190178
-0.322748
0.0104795
-0.0965759
0.185995
0.516182
-0.366016
-0.196218
-0.0614252
0.29223
-0.0750058
-0.227367
-0.129617
0.0186645
-0.0986195
0.169265
-0.0777536
-0.0580241
-0.0666322
-0.00288042
0.486446
-0.0400922
-0.00607232
-0.082756
-0.255719
-0.00326469
-0.0541484
0.177105
0.0506323
-0.105119
-0.00584927
-0.0738504
-0.394787
-0.0745983
-0.255898
-0.0704737
-0.0815989
-0.130258
-0.10872
0.00764358
-0.0791401
-0.386036
-0.245546
0.101225
-0.0011951
-0.0054354
-0.0013751
0.125227
-0.0656301
-0.00127963
0.0711442
-0.0184963
-0.0101221
0.127818
-0.142622
-0.0593822
0.0137853
0.0361946
0.00758203
-0.0170751
0.0124809
-0.14985
-0.107192
-0.35691
-0.0198264
0.259638
-0.078808
0.00743001
0.00587932
-0.00565444
-0.267144
-0.0968193
-0.0365713
0.000337142
-0.0164809
-0.0737066
0.0149442
-0.0426171
-0.0640723
-0.318232
-0.404959
0.309808
0.0238538
-0.0441183
0.023152
-0.0116682
-0.00711588
-0.378304
-0.0996963
-0.0836076
0.00188587
-0.134903
0.0577557
0.349575
0.0289189
0.0817941
-0.232972
-0.13454
-0.389565
-0.363617
-0.277436
0.322196
-0.0867603
-0.154678
0.233762
-0.0972317
-0.101175
-0.0829173
-0.327675
-0.00176349
-0.3848
-0.0195686
-0.0446097
-0.184561
-0.0469694
-0.393529
0.407323
-0.0823951
0.0568099
-0.378386
-0.113116
0.278455
-0.410666
0.0343852
-0.0107378
-0.0649731
-0.0681218
-0.0626016
-0.263502
0.0790877
0.0481084
-0.203244
0.316367
-0.0907684
-0.303401
-0.0349662
-0.195403
-0.315428
0.0692251
0.0016255
-0.089363
-0.130723
-0.0741442
0.00925117
-0.132458
0.0148412
0.0199147
-0.351711
-0.160152
-0.0075587
-0.0259547
-0.0234659
-0.409557
-0.0891355
0.0357316
0.235413
-0.0245836
0.0494637
-0.088549
-0.0422719
-0.100118
-0.310936
-0.0124866
-0.0686472
0.0120974
-0.405308
-0.269187
-0.111681
-0.0275377
0.0951629
0.289635
0.0146092
0.0579914
-0.10141
0.116673
-0.260332
-0.0263756
-0.326946
-0.0415111
-0.0590194
-0.132624
0.0424126
-0.0704699
-0.322382
0.00603912
0.0237476
-0.0946832
-0.0741328