/*--------------------------------*- C++ -*----------------------------------*\
| =========                 |                                                 |
| \\      /  F ield         | OpenFOAM: The Open Source CFD Toolbox           |
|  \\    /   O peration     | Version:  v2012                                 |
|   \\  /    A nd           | Website:  www.openfoam.com                      |
|    \\/     M anipulation  |                                                 |
\*---------------------------------------------------------------------------*/
FoamFile
{
    version     2.0;
    format      ascii;
    class       surfaceScalarField;
    location    "400";
    object      phi;
}
// * * * * * * * * * * * * * * * * * * * * * * * * * * * * * * * * * * * * * //

dimensions      [0 3 -1 0 0 0 0];
oriented        oriented;


internalField   nonuniform List<scalar> 
56134
(
-0.0528451
0.0525241
0.000320981
-0.00674699
0.00286087
0.00388612
-0.428296
0.257163
0.171133
-0.161746
0.144149
0.0175975
-0.00136907
-0.0106014
0.0119705
0.041625
-0.105762
0.064137
-0.0275605
-0.00956981
0.0371303
0.0119219
-0.00771985
-0.00420205
-0.0014359
0.0014359
0.00457438
-0.0071487
0.033189
-0.0897245
0.0565356
-0.22059
0.176653
0.0439371
0.0114499
-0.103569
0.0921196
-0.0834295
0.0948793
0.00938066
-0.00942441
4.37488e-05
0.117473
-0.0300411
-0.0874321
-0.24496
-0.0869873
0.331947
0.00255996
-0.0109918
0.00843182
0.205957
-0.136207
-0.0697505
-0.0446976
0.0407339
0.00396361
-0.0434413
0.00972199
0.0337193
0.00230657
-0.0457479
0.0105747
0.014584
-0.0251587
-0.399604
0.2486
0.151004
0.0686275
-0.00441067
-0.0642169
0.0457406
0.0101195
-0.0558601
0.0305983
-0.0505321
0.0199339
-0.0792618
0.154478
-0.0752161
-0.1897
0.37837
-0.188669
0.01373
-0.0102979
-0.0034321
0.0914726
-0.0682623
-0.0232103
-0.00622878
0.00685511
-0.244403
-0.1552
0.00732668
0.0210218
-0.0283485
0.202094
0.027552
-0.229646
0.129014
-0.373974
-0.304586
0.198068
0.106518
-0.0659748
0.0577013
0.00827347
0.0646355
0.0288661
-0.0935016
0.0577518
0.0248441
-0.0825959
0.00343193
-0.00270149
-0.000730442
-0.0109243
0.0091988
0.00172546
-0.00113705
0.0015145
0.00757456
-0.00924092
0.00166636
0.26617
-0.165939
-0.100231
0.122462
0.0131698
-0.135632
0.0226501
-0.0726335
0.0499834
0.0130095
-0.0417736
0.0287641
0.0550566
-0.0244584
0.0586035
0.0282091
-0.0868126
0.145771
-0.243529
0.0977581
-0.147884
0.282197
-0.134313
-0.122899
-0.184784
0.307683
0.151995
-0.182893
0.0308983
0.00752861
-0.0042799
-0.00324871
0.179492
-0.302391
-0.093335
0.0862462
0.00708878
0.0393476
0.113787
-0.153135
-0.0663229
-0.0321988
0.0985217
0.0709956
-0.0499937
-0.021002
-0.00292567
-0.00469853
0.00762421
0.0306896
-0.127344
0.0966539
0.00136367
-0.104933
0.0505428
-0.0852734
0.0347306
0.0213088
0.0701639
0.0562999
0.0123277
0.0622157
-0.0460943
-0.0161215
-0.214832
0.126379
0.0884527
0.0701148
-0.194168
0.124053
0.0523188
-0.0513907
-0.000928128
0.157852
-0.119426
-0.0384261
0.00802449
-0.00802449
0.144017
0.0430745
-0.187092
0.0253838
-0.108813
-0.156911
0.0776497
-0.249263
0.278589
-0.0293258
0.0855571
-0.0278054
-0.0739909
0.0634824
0.0105085
-0.0516878
-0.00115735
0.0502515
0.0236943
-0.0739458
-0.109305
-0.124205
0.23351
-0.403713
0.214013
0.0440176
-0.0307004
-0.0133172
0.0762008
-0.122848
0.046647
-0.258192
0.18949
0.0687027
-0.00158549
0.000448439
0.0664949
0.0881133
-0.154608
0.0230875
-0.0654981
0.0424106
0.0180387
-0.0951722
0.0771335
-0.0721363
-0.00441572
0.076552
-0.055416
-0.0105588
-0.00910788
0.0109652
-0.00185732
-0.0212475
0.0435093
-0.0222617
-0.0145805
-0.0114322
0.0260127
-0.0637138
0.130209
0.036161
-0.0171617
-0.0189993
0.142272
0.0515654
-0.193837
0.214549
-0.0687771
0.00161477
-0.00168885
7.40804e-05
0.247138
-0.374073
0.126935
0.0316802
-0.062237
0.0305568
0.167039
0.0475098
0.0953115
-0.0447688
0.00907367
-0.00651371
0.0675749
-0.0454062
-0.0221687
0.335552
-0.071011
-0.264541
0.00365094
0.010079
-0.00595207
0.00401373
-0.0182817
-0.0465392
0.0648209
-0.135794
-0.0847958
-0.00540183
-0.0392957
-0.0462152
0.122416
0.0069829
0.0228504
-0.0298333
0.077423
0.0367309
-0.114154
-0.0801228
-0.0132122
0.0970677
-0.0324322
-0.130772
0.00181972
0.128952
-0.217485
0.149159
0.0683256
0.0421904
0.0182612
-0.0604516
0.00133919
-0.000711269
-0.000627916
0.213058
0.116859
-0.329917
-0.112153
0.196455
-0.0843028
-0.0280618
0.106325
-0.0782629
-0.00930535
0.00793628
0.00717054
-0.00925748
-0.181479
0.050707
0.047162
0.0275557
-0.0747178
-0.264322
0.170179
0.0941432
-0.0629958
0.0939737
-0.0309779
0.198504
-0.130118
-0.0683857
0.0767202
-0.0344701
-0.0422501
-0.0149011
0.067827
-0.0529259
-0.000444309
0.000305417
0.000138893
0.327745
-0.179736
-0.148009
-0.0466883
-0.0218185
0.0685068
-0.0609556
0.308094
-0.146599
-0.0969305
-0.0815107
0.1122
0.00591269
-0.00700971
0.00109702
-0.0183823
0.0669106
-0.0485283
0.241343
-0.0392488
-0.0139889
0.0478096
-0.0338208
0.00591269
0.00296949
0.000462438
-0.0359627
0.17998
0.0406874
0.0215283
0.137106
-0.0559788
-0.0811273
0.030161
0.0902384
-0.120399
0.0318212
0.0121964
-0.33794
0.284967
0.0529728
0.00228509
-0.00233736
5.22693e-05
0.137272
0.0612326
0.117487
-0.0910418
-0.0264454
0.036832
0.026047
-0.062879
-0.0886777
0.0468372
0.0418405
0.0152288
-0.353168
-0.0520302
0.0380414
0.062704
-0.0205136
0.0151764
0.136818
0.000654553
-0.00713134
0.00647679
-0.0863607
0.0233649
-0.0753907
0.0365005
0.0388902
0.020664
-0.024113
0.00344903
-0.00134575
0.00188587
-0.000540119
-0.134691
0.017143
0.117548
0.155495
0.178477
-0.333972
0.15343
0.111052
-0.264482
-0.00386328
-0.00278408
0.00664736
-0.031607
0.0989303
-0.0673233
-0.0983033
0.0495058
0.0487975
-0.0416222
0.0625364
-0.0209141
-0.317371
0.101189
0.216182
0.000468541
0.00127004
-0.00173858
0.061437
-0.174701
0.113264
0.197693
-0.127579
0.119408
-0.0814687
-0.0379395
0.0167822
0.0507926
0.0218374
-0.0174807
0.0136987
0.00378191
0.0679136
-0.0558234
-0.0120903
0.00114747
0.000191713
0.22885
-0.0892711
-0.139579
-0.326928
0.142144
0.153194
-0.0593261
-0.0938682
-0.364257
0.182043
0.182215
0.0355019
-0.0751753
0.0396734
0.106901
0.121949
-0.0885454
0.12501
-0.0364645
-0.0747252
0.0563429
0.00882642
-0.0118421
0.00301569
0.0877689
-0.0291654
0.185346
0.178223
-0.0495629
-0.12866
0.0045107
-0.00936502
0.00485432
-0.0421599
-0.0316471
0.073807
-0.0201825
0.00308567
0.0170969
-0.115
0.208307
-0.0933071
0.183124
0.129727
-0.312851
-0.188644
0.342064
-0.153419
0.141632
0.0162204
0.00530633
-0.00530633
0.0921645
-0.0589755
0.00938543
0.0108086
0.0571051
-0.000177947
-0.000266362
-0.160814
-0.203443
0.159865
-0.0984276
-0.0386666
-0.00993032
0.0485969
0.188578
-0.300132
0.111554
-0.0550916
0.082297
-0.0272054
0.0122998
-0.0509664
-0.00276486
-0.00398213
0.108067
-0.328401
0.220334
-0.107066
-0.110419
0.0724281
0.112907
-0.185336
0.0737708
-0.044193
-0.0295778
0.0241995
0.0239871
-0.0481865
0.264279
-0.14248
-0.1218
0.291912
-0.183845
0.0789965
-0.0561219
-0.0228746
0.0160028
-0.0305833
0.00149103
-0.00351355
0.00202252
0.110807
-0.177493
0.0666858
-0.112283
0.200551
-0.0882677
-0.239874
0.130569
-0.00319022
-0.00318196
0.00637218
-0.00224818
0.00338644
-0.00113826
-0.028031
0.075193
-0.0452991
-0.0341915
0.0794907
-0.0286435
0.0603237
0.0550163
0.107034
-0.162051
-0.0151678
-0.0143685
0.0295364
0.0267456
0.0438703
-0.0706159
0.060474
0.0567385
-0.117212
0.0178043
-0.0594266
0.0557022
-0.0326147
-0.176661
0.362214
-0.185553
0.00719487
-0.00358352
-0.00361135
-0.0101437
-0.124547
-0.0946993
0.0572043
0.037495
0.0390704
-0.0272712
-0.0117991
-0.205788
-0.111583
-0.0782675
0.038949
0.0393185
0.0610007
-0.043812
-0.0171887
0.0967925
0.169378
0.22486
0.0368097
-0.26167
-0.36275
0.103473
0.259277
0.102766
-0.315481
0.212715
-0.0680266
-0.0302767
-0.358505
0.196202
0.162303
0.228412
-0.339799
-0.389452
0.145049
0.0496959
-0.236478
0.186782
0.00299322
0.00519699
-0.00819021
-0.171273
0.0916508
0.0796225
0.0767546
-0.185803
0.109049
-0.127002
0.147377
0.112215
-0.259592
0.00930955
-0.0320219
0.0227123
0.000856404
-0.00337333
0.00251693
0.0668361
-0.0300042
0.155024
0.0231993
0.00654578
-0.00123945
-0.207354
0.0952013
-0.00911985
0.00619417
-0.0485091
-0.0220493
0.0705585
0.0709781
-0.0483279
-0.123097
0.0950353
-0.107904
0.211021
-0.103117
-0.0157817
-0.00440087
-0.000304403
0.000126455
0.200752
-0.128324
0.00904856
-0.01729
0.00824145
-0.072032
0.0324331
0.0395989
-0.232343
-0.157109
-0.0381546
-0.0430845
0.0812391
-0.0242657
0.0315924
-0.21994
-0.0321768
0.252117
0.0486982
0.0222974
-0.234911
0.244958
-0.010047
-0.231559
0.13843
0.0931281
0.000197107
4.44161e-05
-0.000241523
0.00856332
-0.00139278
-0.338693
0.274746
0.0639471
-0.0467606
-0.0154696
0.0622302
0.00129786
0.223562
0.161177
-0.19714
0.242923
-0.347328
0.104405
-0.0945187
0.0492513
-0.00410366
-0.0451476
-0.0912614
0.267842
-0.176581
-0.0590118
-0.0330352
0.092047
0.00871603
-0.00871603
0.299756
-0.120264
-0.150985
-0.113337
-0.146831
0.0582854
0.0753421
-0.0498167
-0.0255255
-0.00573901
0.00675786
-0.00101885
0.180318
-0.0886671
0.0306149
-0.00202923
-0.0285857
0.0726099
-0.131622
-0.00716373
0.000934952
-0.261436
0.0121729
0.0360998
-0.0630511
0.0269513
0.00621911
-0.00164473
0.0846596
0.0525829
-0.137243
-0.358041
0.0185736
0.339468
-0.18151
0.0620839
-0.00185733
-0.000844161
-0.373981
0.168192
0.0642507
0.0153917
-0.0796424
-0.00649057
0.00948379
0.00493492
-0.00491091
-2.40091e-05
-0.0442886
-0.0317207
0.0760093
-0.102814
0.315872
0.00234601
-0.00428961
0.0019436
-0.0968386
0.0998634
-0.00302476
0.141151
0.0648057
-0.0342765
-0.00316564
0.0374421
0.000197107
0.0738497
0.00384488
-0.0776946
-0.000278372
0.00176941
0.0806423
-0.0321688
-0.0484736
-0.075668
-0.105842
0.033463
-0.0649934
0.0315304
0.0513943
-0.0222077
-0.0291866
0.0083376
-0.00774338
-0.000594218
-0.147654
-0.0359039
0.183558
-0.267537
-0.0517544
0.319292
0.0699576
-0.0524616
-0.017496
-0.333909
0.157248
-0.28007
-0.0741421
-0.157416
-0.00283981
0.0845853
-0.295596
0.211011
0.232078
0.0956664
0.0971545
0.000865686
-0.0980202
0.222538
-0.0813862
0.162022
-0.335982
0.173959
-0.107208
0.0727633
0.0344443
0.353098
-0.349671
-0.00342668
0.0753665
0.0329468
-0.108313
0.025912
-0.005248
0.00527829
0.118633
0.0110369
-0.12967
0.0585274
0.0114302
-0.00150166
-0.0327748
0.100026
-0.319966
0.0018289
-0.0019224
9.3505e-05
0.135334
0.00177157
-0.00305955
-0.000453998
-0.0021764
0.0240944
-0.021918
-0.216253
0.0804589
-0.149228
-0.0656041
-0.00145171
1.58109e-05
-0.0700869
0.00784994
-0.176463
0.0180994
0.0608971
-0.212797
0.0977969
-0.0031785
-0.0170232
0.0202017
0.0155945
-0.00535226
0.0873123
-0.08196
0.00329794
-0.000967148
-0.00233079
-0.00231014
0.00385882
-0.0320163
0.0254668
0.00654953
-0.0057354
0.00254518
0.0363237
-0.0636089
0.0272852
0.130205
-0.116986
-0.0132187
-0.147168
0.0625373
0.0846305
0.130826
0.153309
-0.284136
0.10075
-0.0408852
0.0196377
-0.0531449
0.0947699
-0.00377818
0.00377818
0.0494358
-0.0977009
0.0482652
0.28127
-0.262824
-0.018446
-0.0314347
-0.0665543
0.097989
-0.356492
0.00196511
-0.0020143
4.91905e-05
0.0306504
-0.023804
-0.00684642
0.198003
-0.0368256
-0.0666777
1.67687e-05
-0.000321171
0.0797672
0.030422
-0.110189
-0.00459534
0.00725336
-0.00265801
-0.118627
0.107621
0.0110057
-0.0145886
-0.0554984
0.0582049
0.0292237
-0.0874286
0.03617
-0.0055551
0.137024
-0.287913
0.150889
0.0645217
-0.299433
0.00468179
-0.00899372
0.00431192
0.108356
-0.375894
-0.219428
0.0532722
0.166155
-0.0310309
0.109991
-0.0789599
0.078926
-0.0608873
0.00481417
-0.00229971
-0.00251446
0.010104
-0.00344354
-0.00666041
0.0429066
-0.134819
0.0919122
-0.00930413
-0.348737
0.00327939
-0.000933376
0.0322656
-0.0873572
0.306309
-0.169284
0.0965629
0.0917927
-0.188356
0.328421
-0.012981
-0.31544
-0.0416694
-0.0118485
0.0535178
-0.25435
-0.119631
0.00445633
0.00273854
-0.0242008
0.0372104
-0.00112338
0.00159192
0.0348633
0.016531
-0.0853173
0.128224
0.0334166
-0.0867762
0.0533597
-0.0944961
0.149512
-0.0784554
0.215302
-0.136846
0.0717042
-0.0230059
0.00637857
0.00372538
0.00778329
-0.00838874
0.000605447
-0.311383
-0.0513672
-0.389079
0.15103
0.238048
-0.000438962
-0.000756041
0.001195
-0.0982405
0.0666336
0.0584475
-0.0307184
-0.027729
0.0582928
-0.0221929
-0.0754765
0.3184
-0.0136663
0.0178799
-0.00421356
0.198968
-0.115239
-0.0837299
0.02508
0.0480254
-0.0731054
0.0306509
0.0535255
-0.0841765
-0.00714114
-0.0344642
0.0416053
0.108072
0.103185
-0.211256
-0.062982
0.0144729
-0.046197
-0.115549
0.0430143
0.0851069
-0.128121
-0.0015747
0.00113574
0.0615623
-0.162479
0.100916
0.000666645
-0.000766919
0.000100275
0.0205508
-0.0115023
0.133749
-0.0584251
-0.0753243
-0.163763
-0.170146
0.0994892
0.0403909
-0.13988
0.00833961
-0.0561879
0.0478483
-0.06787
0.10476
-0.0368904
-0.0172047
-0.0797079
0.0969126
-0.127966
0.271224
-0.143258
0.142365
-0.252836
0.110471
0.00293018
-0.00207378
0.021353
-0.0755959
0.0542429
0.0273064
-0.101917
0.0746105
-0.0370347
-0.0337764
0.0708111
0.0182148
-0.116202
0.0979871
0.25913
0.02214
0.120437
-0.105867
0.253244
-0.0975116
-0.0745135
0.172025
-0.0900931
-0.171491
-0.133095
-0.299502
-0.0895771
-0.00952608
0.000787195
0.00873888
0.249082
-0.130525
-0.118557
-0.0477188
0.158526
-0.103459
0.0981066
0.0280781
-0.070238
-0.0656149
0.0260286
0.0395863
0.00196725
-0.000258037
-0.00170921
-0.00475708
0.00658707
-0.00182999
-0.205171
0.145041
0.0601299
-0.0592176
0.0923885
-0.0331709
0.00189903
0.00122499
-0.00312402
-0.0648089
0.228997
-0.164188
-0.0462544
-0.0755675
0.121822
0.231763
-0.123692
0.287242
-0.319418
-0.252168
0.175386
0.0767827
-0.112783
0.0786643
0.0341185
0.111094
-0.228913
0.117819
-0.106313
0.0563096
0.0500035
0.00946283
-0.0108367
-0.0674449
-0.0493348
0.11678
0.176764
-0.282632
-0.147582
0.278408
0.112898
0.103576
-0.216474
0.0444884
-0.140501
0.0960122
-0.16029
-0.00550021
0.00860669
-0.00310648
-0.238221
0.14696
-0.102685
0.0696502
0.0706301
-0.0525585
-0.0180716
-0.010246
0.0278678
-0.0176218
-0.221558
0.156479
0.065079
0.00221191
0.00260226
-0.0116383
0.108793
-0.0298608
0.0858729
-0.0560122
0.0309873
0.136051
-0.0819588
-0.0252488
0.0017676
0.000200626
-0.00196822
0.288116
-0.185349
0.0901184
-0.0719036
0.0544113
0.0793382
-0.104633
-0.0139942
0.0374511
0.015073
0.0689417
-0.0475887
-0.00135259
-0.000222115
-0.00786812
0.0485555
0.0265031
0.103701
0.0717901
-0.112097
0.0403071
0.0307448
0.00860359
-0.0086297
2.61053e-05
-0.141227
0.236351
-0.0951243
0.0813107
-0.243376
0.164921
-0.122302
0.233396
0.00106315
-0.00331133
0.103717
-0.0319271
0.0850278
-0.197372
0.112344
0.0811134
-0.0504389
-0.0306746
-0.00332815
-0.00129623
0.00462438
0.0947647
-0.175446
0.080681
0.00556825
-0.00556825
-0.120236
0.0892049
0.00300585
-0.00439092
0.0837028
-0.0472271
-0.0364757
-0.218139
-0.0339668
0.252106
0.00709236
0.192095
-0.107067
-0.0583995
-0.0757782
0.134178
0.0437533
0.0230828
-0.0138377
0.018596
-0.00475824
0.0411136
-0.0586858
0.0175722
-0.0899021
0.0636676
0.0262346
0.00674495
0.0937125
0.0422448
-0.135957
0.0695777
-0.0258244
0.0224445
-0.0667331
-0.320999
-0.017303
0.338302
-0.112295
0.27945
-0.167155
-0.143718
-0.114474
0.0121261
0.0371252
-0.208213
0.143404
-0.244268
-0.00651652
0.250784
-0.0541398
0.0856596
-0.0315197
-0.126064
0.0676643
-0.0216208
0.0184423
-0.0643427
0.027308
-0.00429489
0.000966744
-0.188569
0.0429992
0.14557
-0.146582
-0.0157847
0.162366
0.00581423
-0.000878907
-0.00493533
-0.0474699
0.0742493
-0.0267794
0.0803612
-0.40136
-0.104269
0.144619
-0.0403502
0.0928195
-0.0655132
0.0226139
0.264628
-0.0426936
-0.0520057
-0.00143925
0.0079217
-0.00648245
-0.0903303
-0.241141
0.290836
0.0498158
-0.0680975
-0.012053
-0.0129015
0.0249545
0.0846564
-0.0264515
-0.0214208
0.0588719
-0.000326766
0.000236839
8.99262e-05
0.0646977
0.0134562
-0.0781539
-0.28341
0.171115
-0.000720557
-0.00743906
0.00815961
0.059426
-0.150115
0.0906888
-0.0467993
-0.0451257
0.091925
-0.0779848
-0.141443
-0.0246216
0.0143756
0.0409663
0.0173265
0.390855
-0.213459
-0.177396
-0.00997264
0.000864757
-0.157159
-0.0238681
0.181027
0.168597
0.186698
0.0775819
0.200661
0.0786584
-0.279319
-0.0064418
0.00352944
0.00291236
0.00254025
-0.000322229
-0.00221802
-0.131067
0.27509
-0.144023
-0.139946
0.295441
-0.0153959
-0.088063
0.0775372
-0.0784316
0.000894344
-0.00941601
0.0336155
-0.0436358
-0.0239023
0.0675381
0.00839679
-0.0486896
-0.0115951
0.0602847
-0.00860325
0.00501972
0.00765151
-0.00314081
0.00479376
-0.00877771
0.00398395
0.0650198
-0.211601
-0.370741
0.138398
0.151704
-0.0297331
-0.121971
-0.00572399
0.0064052
-0.000681207
0.0866855
-0.00936754
0.210028
0.175241
-0.0399814
0.0170569
0.0229245
-0.00976791
0.000241831
-0.335366
0.197478
0.137887
-0.022594
0.160126
-0.137532
0.373639
-0.174376
-0.199264
0.000492935
0.00112184
-0.0225594
0.0999293
-0.0773699
0.0263679
-0.00962121
-0.0167467
0.074415
0.126136
0.061403
0.0185979
-0.0800008
-0.162166
0.106188
-0.0537559
0.0871725
-0.022945
0.0967948
0.130451
-0.319095
-0.00598228
0.000258286
-0.0831276
0.0777785
-0.0562662
-0.0215123
0.0762157
0.10129
-0.177506
-0.051818
0.146583
-0.106165
-0.0753135
-0.00852213
0.0021993
0.00632283
0.00627823
0.00564367
0.00912831
-0.00557655
-0.00355176
0.0885579
-0.306697
0.00693582
-0.0206022
0.00258886
0.00249836
-0.00508722
0.110856
-0.00679053
-0.00257449
0.0195065
-0.0662671
-0.00210296
0.0663537
-0.206884
-0.163858
-0.074315
-0.11702
0.191335
-0.0998992
-0.0431497
-0.0288823
0.0284465
-0.0179768
-0.0104697
0.108527
-0.104386
-0.00414147
-0.0024289
-0.00401289
-0.124567
-0.182622
0.307189
0.145458
-0.234585
0.0891267
-0.0340469
0.106657
-0.0419996
-0.0710324
0.113032
-0.124699
-0.110736
0.235436
-0.00277464
0.00765544
-0.0048808
-0.14514
0.119872
0.0252682
0.0249286
-0.0723984
-0.0283557
0.0204541
0.00790156
0.00466028
-0.00466028
0.000747994
0.0015371
7.92119e-05
-0.00118943
0.00111021
-0.0430525
0.0625423
-0.0194898
0.0634379
-0.220596
-0.0752157
-0.208195
0.125602
-0.0862546
-0.113095
-0.0543376
0.167433
0.0327678
-0.088767
0.0559992
0.000535975
-0.00129202
-0.221969
0.00882642
0.0529775
-0.0736361
0.0206586
-0.00747592
0.00470128
0.0424071
0.101742
0.0267917
0.0122787
-0.103877
0.0690925
0.034785
0.0234263
-0.0265919
0.171012
0.026682
-0.319744
0.0564174
0.0234804
-0.0798978
0.141616
0.0518091
-0.193425
-0.120712
-0.0264561
0.0401652
0.0182823
0.0748127
-0.0446324
-0.0301803
0.000865007
0.000953785
-0.00181879
0.0730397
-0.0527928
-0.020247
0.00100208
-0.00643328
0.0054312
-0.00747105
-0.00105108
0.105667
-0.024861
-0.0808064
0.139876
-0.00629978
0.000317507
0.306242
-0.127765
-0.0722528
0.0525993
0.0196535
-0.0097905
0.00509197
0.340597
-0.352476
0.0118789
-0.151018
0.135271
0.0157474
0.0604954
-0.0195291
-0.00314654
0.0404132
0.107469
-0.147882
-0.223213
-0.205082
-0.0443021
0.0179136
0.0263885
-0.00658259
0.00658259
-0.00421972
0.0073139
-0.00309418
-0.24484
0.059037
-0.00738013
0.00824513
-0.075202
0.177018
-0.101816
-0.0408194
0.0616586
-0.0208392
0.115905
-0.0868422
-0.0290626
-0.100591
0.18053
-0.0799389
0.0427288
-0.0657014
0.0229726
-0.00205443
0.00385516
-0.00180073
0.148652
0.0876995
0.117542
-0.181728
0.0641858
-0.15551
-0.0893307
-0.267281
0.160673
0.106608
0.0672332
-0.0317313
0.0121355
-0.0135772
0.00144166
0.00559183
-0.00461745
-0.000974384
-0.0015396
-0.00576148
0.00730108
0.315361
-0.154421
-0.16094
0.00026485
0.0022754
0.0843655
-0.126365
-0.039172
-0.0475163
-0.0203351
0.0678514
-0.185864
0.130524
0.0553395
-0.00421019
-0.00671407
0.127649
0.000105368
-0.127755
-0.0928945
-0.0369837
0.129878
-0.0342471
0.0126263
0.0413372
0.0397762
-0.00330728
-0.064955
-0.0179338
0.0455847
-0.0276509
-0.0576461
0.0138341
-0.00406862
0.0744666
-0.070398
-0.00965139
0.00980766
-0.000156263
0.0192203
0.0762032
0.0664163
-0.14262
-0.0240249
-0.0102222
-0.0339446
-0.0441467
0.0780913
0.0790672
-0.113114
0.0911975
0.00843649
-0.099634
-0.0521234
-0.0311047
0.0832281
0.0120273
0.118198
-0.0814668
-0.0504075
0.0754875
-0.0606711
-0.029231
0.0242019
0.0604403
-0.0846423
0.207774
-0.0911916
-0.116582
-0.0207076
-0.0998726
0.12058
-0.0863794
0.0565186
0.175101
-0.109411
-0.0656901
-0.0898274
-0.126426
0.186363
-0.0933916
-0.0929718
-0.242722
0.0872129
0.0717704
0.0827074
0.0196516
0.017308
-0.0329663
0.0156583
-0.204759
0.0895204
-0.226123
0.109484
0.116639
-0.0172745
-0.0513749
0.0686494
0.00433779
-0.0072615
0.00292371
0.354544
-0.0189915
-0.115582
0.100186
0.0572719
-0.000681329
-0.0565906
0.0181685
0.319809
-0.371563
0.0758839
0.093069
-0.168953
0.136495
0.0386067
0.050508
-0.0867643
0.0362563
-0.152009
0.0723993
0.0796093
0.125223
-0.220715
0.0954921
-0.0707093
0.229967
-0.159257
0.00199938
-3.2134e-05
0.00352322
-0.00771803
0.00419481
0.0126634
-0.0626571
0.0791728
0.0245444
-0.00563707
0.325446
-0.0901467
-0.209355
0.0503004
0.0463005
-0.0966009
-0.0450637
0.221828
0.294863
-0.141433
-0.113955
-0.0370631
-0.00134235
0.000697308
0.000645043
-0.0291248
-0.0691157
0.00180155
0.0284247
-0.0302262
0.190137
0.140319
-0.330456
-0.105622
-0.0395177
-0.0191582
-0.0252862
0.0444445
-0.0170297
0.00319197
-0.0202532
0.00713134
0.000893146
-0.028461
0.0553492
-0.0268882
0.025137
0.0055134
-0.327309
0.155818
-0.28212
0.191974
0.00258329
-0.0068843
0.00430102
-0.0602673
0.0642248
-0.0039575
0.100284
-0.0311914
-0.0297911
0.0792269
0.00837993
-0.017444
0.00906408
-0.00568213
-0.000617656
-0.0370151
0.00945462
-0.0671492
-0.115744
0.0266655
-0.0681468
0.0414813
0.00706014
-0.00272235
-0.0804855
0.12839
-0.0479045
-0.0175789
-0.00519833
0.0227772
0.0991567
-0.0307548
-0.0684019
-0.0236158
-0.0511093
0.00554789
-0.00536168
-0.000186206
0.0113955
0.051149
-0.0625445
-0.0341789
-0.0525973
0.117505
-0.0318062
0.0465587
-0.0147525
-0.0538065
-0.172317
-0.00255321
0.00263242
0.0422693
-0.146538
-0.34982
0.186057
0.0812321
-0.181781
0.100548
-0.247682
0.172466
-0.00927216
0.0102384
-0.000966227
-0.154392
-0.125678
0.0957782
-0.068085
-0.0276932
0.0912875
-0.00334944
0.0808867
-0.0387549
0.069724
-0.0309691
0.102572
-0.0233995
0.102629
-0.250513
0.00395349
-0.00182754
-0.00212595
0.0296167
-0.0226338
0.332858
-0.195025
-0.137833
0.23402
-0.0853687
-0.0074043
0.019025
-0.0116207
-0.098217
0.0690922
-0.0381882
-0.047614
-0.0182942
0.0659082
-0.179479
0.0943253
0.0851541
0.115502
0.00749773
-0.123
-0.255003
0.193933
0.06107
-0.0243916
-0.0509991
-0.00445192
0.00308019
0.00137173
0.00480855
0.000883742
-0.00569229
0.00233502
0.00161847
-0.0542926
-0.00597473
0.0663417
0.0294365
0.0528612
0.061412
-0.0500165
0.0390052
0.0820284
-0.121034
0.0133276
-0.0325462
0.0192185
-0.00301716
-0.000846127
0.0784003
-0.0254228
-0.185835
-0.062794
0.248629
-0.0905339
0.117037
-0.00876057
0.0217566
-0.012996
-0.0968185
0.172702
0.0241124
0.0228282
-0.0469405
0.00545527
-0.00445319
0.0207548
0.0566665
-0.0774212
-0.278695
0.120727
0.157969
0.0539368
-0.041637
-0.18049
0.105288
0.0802256
-0.0626408
-0.0175848
-0.139761
-0.102961
0.021717
-0.0255015
-0.00716515
0.0326666
0.140012
0.0899806
-0.229993
0.101088
-0.0767989
-0.0242886
-0.10371
0.0811502
-0.234609
-0.084128
0.318737
-0.0689336
0.105102
-0.0361681
0.00878517
-0.00526195
-0.029123
-0.0727939
0.0960244
0.0214628
-0.00615482
0.000415812
0.0932022
-0.0426942
0.139902
0.10036
0.00812509
-0.108485
-0.23622
0.16551
0.0723149
-0.0395471
-0.1897
-0.0653027
0.12904
0.123591
-0.252631
-0.00377171
-0.00167716
0.00544887
-0.126897
0.0351672
0.0917299
0.0637059
0.040146
-0.103852
-0.0631849
0.15453
-0.0913449
0.22808
-0.143494
-0.155439
0.0922544
-0.158427
-0.122492
0.280918
-0.00547786
-0.0228778
-0.0111851
-0.00970492
0.02089
-0.125041
-0.0128634
0.137905
0.0099886
-0.0021697
-0.00189105
0.00406075
0.148774
0.21344
-0.0166131
0.0664289
0.274171
-0.149508
-0.124664
0.0884973
0.119276
-0.337674
0.332037
-0.0920727
-0.0495358
0.141609
0.0035806
-0.00168157
-0.0514901
-0.0427143
0.0942044
-0.0052119
-0.00663021
0.175047
-0.0575048
0.122231
0.00369474
-0.125925
-0.0347223
-0.0337021
0.0684244
0.0104634
-0.0296762
0.0192128
0.262708
-0.296675
0.1219
-0.0966017
-0.0252979
0.00512712
-0.00437681
-0.000750313
-0.00192078
0.00239769
-0.000476907
-0.346978
0.00342164
-0.00233111
-0.00109053
-0.0145921
-0.0928574
0.107449
0.0712718
0.00895389
-0.0233846
0.101724
0.00869058
-0.00869058
0.0483383
-0.100462
-0.107355
0.210931
-0.0559895
0.181212
0.16296
0.179104
0.00456052
0.11767
0.032056
-0.157097
-0.00284849
0.000538346
0.0215567
0.01396
-0.0355167
0.0658986
0.0441765
-0.110075
-0.0581982
0.0629804
-0.00478223
0.0551409
-0.0486529
-0.00648805
-0.0292249
0.105969
-0.123542
0.0175736
0.312825
-0.186249
-0.126576
0.109393
-0.016428
0.00582665
0.130573
-0.114121
-0.016452
-0.103742
0.0746186
0.14063
-0.0516168
-0.0890135
6.40499e-05
0.00548384
0.062924
-0.0473696
-0.0155544
0.132524
-0.0452551
-0.0872689
0.037035
0.0663421
-0.12611
0.0597678
-0.00780061
0.00346859
0.00433201
0.00387992
0.258828
-0.0196153
0.0108547
-0.195302
0.206884
-0.0115826
0.00980235
-0.0767326
-0.0404062
0.117139
-0.038491
0.0556324
-0.0171413
0.0247488
0.0907535
0.055804
-0.00066305
-0.0210214
0.0713218
0.0682079
-0.0567276
-0.0114803
-0.0484824
0.223906
-0.175424
-0.0288411
-0.0313614
0.0602025
-0.0531584
0.0611691
-0.00801062
0.0776979
0.0274038
-0.276726
0.0421164
0.0282941
0.0580885
-0.0863827
-0.0047583
0.00689328
-0.00213498
-0.0130727
-0.0475055
0.0605781
-0.221266
0.364613
-0.143346
0.0966527
0.00210802
-0.0269307
-0.0386842
0.0567802
0.0101304
-0.114709
-0.0560677
0.170777
0.0393979
-0.107268
0.230217
-0.407412
0.177194
-0.0199626
-0.0575065
0.0774691
-0.0414113
0.0632063
-0.0217951
0.017157
-0.00874571
-0.00841126
-0.118368
0.0976605
0.0428183
-0.0686319
0.0258135
0.00284181
-0.0520873
0.0492454
0.183406
0.0459929
-0.229399
-0.201449
-0.136854
0.338303
-0.0418482
0.0694039
-0.0266259
0.210032
-0.266711
0.0685573
0.198154
-0.131465
0.198248
-0.0667837
-0.0242548
0.0670731
0.0242475
0.0431838
-0.0674312
0.106323
-0.028625
-0.124279
0.251746
-0.127467
0.111747
-0.270174
0.166819
0.081036
-0.120916
0.0398799
0.142508
0.0915123
-0.0260239
0.0907217
-0.00325303
-0.00653747
-0.103403
-0.0043882
0.00419107
0.132423
-0.204855
0.0724316
0.00718185
-0.00652729
-0.00767745
-0.0164355
-0.0583963
-0.0685009
0.15305
-0.0905127
0.036324
-0.0493985
0.0130745
0.182182
-0.197966
-0.00195224
0.00252301
-0.000570768
0.029331
-0.225561
0.19623
-0.0310234
0.0675239
-0.120711
0.0301774
0.00459463
0.137021
-0.0200343
0.0060239
0.0140104
0.0605467
-0.0778212
-0.226529
-0.0259619
0.252491
-0.0312001
-0.0238901
0.0550902
-0.049773
-0.0630098
-0.0988241
-0.0476244
0.146448
0.0683986
-0.164818
0.0964197
-0.00472914
-0.0029327
0.00766184
0.0214029
-0.0921791
0.0707762
0.0078898
-0.00958017
-0.0826468
0.21507
0.0157623
0.0298331
-0.0455954
-0.00207097
0.0565437
-0.0544727
-0.00112447
-0.000564378
-0.168551
-0.181269
0.0876916
0.037934
-0.125626
-0.241831
0.13181
0.110021
-0.00307614
0.00090644
-0.0316175
0.0230472
-0.0137724
-0.00927476
-0.000535035
0.00534359
0.270427
0.0622381
-0.332665
-0.0904668
-0.0330754
-0.149996
0.117605
0.0323913
-0.00804811
-0.0436176
0.0679863
-0.0243687
-0.121489
0.0536981
0.0677912
0.0970325
-0.0531272
-0.0439053
-0.20013
0.0240809
0.17605
0.116846
-0.0509471
-0.111287
-0.130544
-0.15385
0.199843
-0.135356
-0.116812
-0.13898
-0.0661909
0.00272084
-0.00793275
-0.226756
0.0587321
0.0259176
-0.0846496
0.0638304
-0.0371649
0.0811465
-0.234996
-0.0941228
0.36455
-0.0238307
0.0614927
-0.037662
-0.0131897
0.0547851
0.0289476
0.222635
-0.0515601
-0.171075
0.00140845
0.00158052
-0.00253814
0.000957622
0.178211
0.0747272
-0.252938
-0.0413319
0.0617914
-0.0204595
-0.0313871
-0.0241451
0.0555322
-0.112894
0.0102083
0.0316697
-0.0163613
-0.0153085
-0.0883056
0.029088
0.209567
-0.0670585
-0.0710421
0.0243538
-0.0324188
0.017251
-0.0481209
-0.101875
0.0301532
-0.0767051
0.0486741
0.041168
0.0425349
0.0827415
0.0272493
-0.305981
0.166035
0.0718728
-0.051118
-0.0845709
0.0377716
-0.0175438
0.0709347
-0.0533909
-0.135471
0.00253171
0.0049969
-0.0777266
-0.030285
0.013798
0.016487
0.15289
-0.0912346
-0.0616555
-0.142027
0.229943
-0.0879154
0.227864
-0.361304
0.13344
0.125123
0.109587
-0.23471
0.345835
-0.175862
-0.169973
0.194019
0.13099
-0.325009
-0.039762
-0.0728796
0.112642
-0.000356011
2.92452e-05
0.0966858
-0.0227578
-0.073928
-0.0692061
0.140977
0.0693422
-0.100447
0.0942721
-0.00364611
-0.090626
0.169706
0.0793755
-0.0117208
-0.00575983
-0.0809216
0.0356225
-0.0829625
0.0322231
0.0507395
0.093672
0.0592181
0.199861
-0.119766
-0.0800953
-0.0138591
0.0118175
0.00204154
0.0612288
-0.0477726
0.0911293
-0.0714189
-0.0197104
-0.00108752
0.0019471
-0.000859577
-0.025607
0.011387
0.01422
0.244883
0.10973
-0.354613
0.0505011
-0.0545697
0.0209526
0.058893
-0.0798455
0.0557616
-0.0817855
0.0314173
0.00645889
0.00110166
-0.00756056
-0.143114
-0.145809
0.288922
0.0776365
-0.175148
-0.00316589
0.00111147
-0.056376
-0.132193
0.00305563
-0.00835989
0.00530425
-0.0767752
0.0536481
0.0231271
0.0425682
-0.0661101
0.023542
0.014443
0.0798291
0.0837851
0.0623147
-0.288843
-0.0585566
-0.195793
0.100982
-0.208337
0.190086
-0.213955
-0.179234
0.111494
0.0677399
-0.211076
0.0992838
0.00884392
-0.00859286
-0.000251058
0.125945
0.0972811
-0.223226
-0.00847478
0.00522176
0.336622
-0.337295
0.000673124
0.0699461
-0.105381
0.0354346
-0.002736
-0.00470147
0.00743747
0.290103
-0.162807
-0.115889
-0.0414012
-0.00640227
-0.00544535
0.0118476
-0.0705056
0.0228916
0.148993
0.18495
-0.333943
0.000648277
-0.0261497
0.330856
-0.181863
0.21502
0.117807
0.0125111
-0.130318
0.039107
0.0213019
-0.0604089
-0.0380364
0.0566439
-0.0186075
0.0571618
-0.0747056
-0.00951939
0.00963419
-0.0001148
-0.0158394
-0.029196
0.0450353
0.134153
-0.0531171
-0.0200509
-0.00687705
0.026928
-0.19967
0.229001
0.131831
0.0777359
0.0164313
-0.0549223
0.00172602
-0.00178752
6.14943e-05
0.0541955
0.023583
0.0584816
-0.125927
0.0683967
-0.00255631
0.0072381
0.00764357
0.0272157
-0.0348593
-0.00128905
-0.335457
0.0992373
-0.0626935
0.0338524
-0.0867871
-0.0699999
0.156787
-0.136803
0.100474
0.0363296
0.0208093
0.109763
0.0269047
-0.0375356
0.0106309
0.00581423
0.0833051
0.0341681
-0.00897452
-0.0213105
0.0145351
-0.00239953
0.00089796
-0.00791135
0.00701339
0.0142033
0.167978
0.124635
-0.0798834
-0.0447515
-0.00411441
0.049855
-0.0627357
0.12321
-0.045431
0.0382898
-0.0566486
-0.0919806
0.148629
0.0477578