/*--------------------------------*- C++ -*----------------------------------*\
| =========                 |                                                 |
| \\      /  F ield         | OpenFOAM: The Open Source CFD Toolbox           |
|  \\    /   O peration     | Version:  v2012                                 |
|   \\  /    A nd           | Website:  www.openfoam.com                      |
|    \\/     M anipulation  |                                                 |
\*---------------------------------------------------------------------------*/
FoamFile
{
    version     2.0;
    format      ascii;
    class       volVectorField;
    location    "400";
    object      U;
}
// * * * * * * * * * * * * * * * * * * * * * * * * * * * * * * * * * * * * * //

dimensions      [0 1 -1 0 0 0 0];


internalField   nonuniform List<vector> 
37809
(
(0.962077 0.370511 1.32209e-21)
(0.182642 -0.00600676 -1.21968e-20)
(0.999949 0.00124107 2.57e-22)
(1.07147 0.0523026 -2.51442e-21)
(0.367867 -0.0565981 -3.0304e-21)
(1.10172 -0.0343446 -7.7584e-21)
(0.713821 0.415649 7.59541e-21)
(0.0675689 0.307213 4.42704e-20)
(0.0367572 0.00268159 0)
(-0.220414 -0.00830298 -4.97993e-21)
(1.16364 0.135192 -2.03903e-20)
(0.988826 0.0208832 1.65541e-21)
(0.916175 -0.00834541 0)
(0.915593 -0.00511672 0)
(-0.304534 0.00189918 6.5051e-20)
(1.0011 0.0939395 2.26636e-21)
(1.00161 0.00330654 3.84824e-22)
(0.308408 -0.0228015 0)
(1.02814 0.0401959 -2.87148e-22)
(0.769512 0.368032 0)
(0.705404 -0.0677189 -7.17175e-20)
(0.709595 -0.0622002 5.59948e-20)
(0.576014 -0.0578762 0)
(1.00411 0.00803908 4.91362e-22)
(0.839558 0.213161 8.33564e-21)
(1.18249 -0.0112024 -1.03602e-20)
(1.10349 -0.0744085 -1.62149e-20)
(0.965342 0.00799068 0)
(1.00008 0.00117875 0)
(0.0651417 0.37735 -9.96975e-20)
(1.14164 -0.041303 0)
(-0.229419 0.00258892 0)
(1.00393 0.00785233 4.564e-22)
(0.505807 0.615797 4.86008e-20)
(1.04437 0.00161384 0)
(1.00153 0.00313438 0)
(1.03222 0.00460357 1.6372e-21)
(1.20145 -0.0494304 1.78491e-20)
(1.12897 -0.0164845 6.29724e-21)
(1.19474 0.142081 1.63433e-20)
(0.085082 0.0177238 4.52296e-20)
(-0.321504 -0.00129987 1.81672e-20)
(-0.0420768 0.00755658 1.84058e-20)
(-0.307837 -0.00217601 -8.07718e-20)
(1.0029 0.0291894 -2.07153e-21)
(1.08083 -0.00837021 1.17976e-20)
(1.10934 -0.0540968 -1.72412e-20)
(0.860719 -0.0783362 0)
(1.11371 -0.0743274 6.75603e-21)
(1.03569 0.203325 0)
(1.04905 0.0160702 -5.67386e-21)
(0.995508 0.0136257 1.35859e-21)
(1.00755 0.00912649 -3.91713e-22)
(1.0265 0.051666 7.52163e-22)
(-0.214197 -0.00565447 0)
(1.00736 0.00879559 3.46816e-22)
(0.954119 0.137696 0)
(1.07576 0.00496523 -4.68466e-21)
(1.12544 -0.0176125 1.04677e-20)
(1.24787 -0.0264645 -1.54795e-20)
(-0.302973 -0.00191848 -3.93976e-20)
(0.931921 -0.00544485 0)
(0.918071 -0.00899913 0)
(1.14522 -0.0120504 -2.99075e-20)
(1.1407 -0.0421877 0)
(0.844996 0.217784 7.27803e-22)
(1.14741 0.0882888 1.35883e-20)
(1.02768 0.0428943 -1.97974e-21)
(1.06299 -0.00407204 -9.9956e-21)
(1.04359 -0.071006 1.01481e-20)
(1.03072 0.0797293 0)
(-0.200753 -0.00194901 0)
(0.985591 0.0219453 0)
(0.917 -0.00402053 6.69889e-21)
(0.96609 0.00878964 0)
(1.02951 0.0068919 -4.24171e-21)
(1.19263 0.139141 -3.36249e-20)
(1.05811 0.363938 0)
(0.953021 0.365302 0)
(1.21221 -0.00637251 0)
(1.0037 0.0195124 -7.28144e-22)
(1.00006 0.00110605 0)
(0.852193 -0.0752921 -8.22344e-21)
(1.09769 0.00665428 -3.81861e-20)
(1.02474 0.027664 0)
(-0.0511107 0.0056946 -7.09407e-21)
(0.966674 0.0535309 0)
(1.32465 0.253557 1.27639e-20)
(1.11149 -0.0314265 -9.53879e-21)
(0.881664 0.0993417 -3.17318e-21)
(1.21713 -0.045929 0)
(-0.310172 0.00387573 7.33987e-20)
(0.665782 0.1366 -8.7171e-21)
(0.604348 0.0368284 0)
(0.964934 0.0542855 -1.04657e-20)
(0.742602 -0.0724224 0)
(0.98446 0.0213146 0)
(1.04994 0.0159126 5.81079e-21)
(0.0485708 -0.00503044 -1.02993e-20)
(1.01113 0.000559686 5.71481e-22)
(1.27341 0.034971 4.38755e-20)
(1.05003 0.0152404 9.26732e-21)
(1.14349 -0.0116968 1.57452e-20)
(0.294903 -0.0205474 9.09076e-21)
(1.08931 -0.0757992 -1.84182e-20)
(1.00019 0.000243741 -2.34632e-21)
(0.0722786 0.403579 -4.79634e-20)
(-0.154592 -0.0083446 0)
(1.11412 0.33896 5.11945e-21)
(0.989186 0.020435 0)
(0.76828 0.35743 -2.25533e-20)
(1.09654 0.0063964 4.10705e-20)
(0.599768 -0.215628 -2.73004e-20)
(0.959355 0.0612834 -6.8071e-21)
(0.953747 0.134827 0)
(1.12765 -0.0161305 -5.55647e-21)
(0.98668 0.0389908 0)
(0.982024 0.0101199 -1.79537e-21)
(1.14582 -0.0665174 8.8817e-21)
(-0.0356794 -0.007359 1.33088e-20)
(1.00001 3.8491e-05 -1.60939e-21)
(1.04057 0.0392709 0)
(1.11823 0.0330969 -1.72318e-20)
(0.342065 -0.0549848 0)
(-0.299791 -0.00812859 -2.21089e-20)
(0.986038 0.0381343 0)
(1.11223 -0.0528474 -1.62478e-20)
(1.00596 0.0372394 1.83708e-21)
(0.883205 0.0913195 0)
(1.0627 -0.00745697 -6.44959e-21)
(1.19853 -0.041447 2.19064e-20)
(1.1065 -0.0616344 -8.80559e-21)
(0.00731302 0.00612055 3.66254e-21)
(1.0055 0.0124356 -3.73715e-23)
(1.2146 -0.0140761 0)
(1.01064 0.000474215 0)
(1.04889 0.0166773 0)
(0.931713 -0.00759499 0)
(-0.207266 -0.00128484 -4.57479e-20)
(1.29789 0.054488 -2.13382e-22)
(1.04381 0.00130386 1.95549e-21)
(1.10394 -0.0754326 -2.46987e-20)
(-0.153576 0.00775893 4.88152e-20)
(0.0742074 0.0142752 4.62193e-20)
(0.98583 0.0225972 0)
(1.16728 0.0893097 8.05214e-20)
(1.0729 0.0305563 1.13301e-20)
(0.940809 0.0306067 4.13623e-21)
(0.838915 -0.0750248 1.51326e-20)
(1.01694 0.000223799 1.58937e-21)
(0.0733607 -0.00491825 -9.88604e-21)
(1.06215 -0.00788593 0)
(1.0911 -0.026393 -5.77813e-21)
(1.23063 -0.00574863 2.95178e-20)
(1.19925 0.0293584 -2.17905e-21)
(1.01615 0.000179143 0)
(1.14115 -0.0737368 1.13886e-20)
(1.14611 -0.0656326 -4.00595e-21)
(1.02721 0.0523412 -3.66944e-22)
(-0.284192 0.00180934 -7.71204e-21)
(0.881307 0.0869235 -2.95642e-21)
(1.09899 -0.0647631 7.4708e-21)
(0.133899 0.721295 -5.25627e-20)
(-0.0362744 0.0383974 -2.68171e-20)
(0.9443 0.002765 -1.99658e-21)
(1.02408 0.00262631 -2.22025e-21)
(1.00026 0.014638 -3.07036e-21)
(0.152957 0.0834041 -2.86761e-20)
(1.13558 -0.0106226 1.74045e-23)
(1.19736 0.0338959 0)
(1.13295 -0.0714008 -2.11048e-20)
(1.0108 0.0137048 0)
(-0.0552534 -0.0122188 4.12682e-20)
(1.05553 0.0509068 5.02251e-21)
(1.06385 -0.00453152 0)
(0.953829 0.0889206 7.84024e-21)
(1.08188 -0.0757253 0)
(0.8798 0.0951392 -1.16127e-20)
(0.446939 -0.0551396 0)
(0.979378 0.292734 0)
(-0.0369573 -0.00842326 -1.52326e-20)
(1.04629 0.0337645 -5.54058e-21)
(1.00745 0.0093179 3.64598e-22)
(0.967804 0.0244268 0)
(1.02781 0.00110516 -4.67746e-23)
(1.15443 -0.0530447 -2.18152e-20)
(1.0471 0.03325 0)
(1.09581 0.0212353 -1.57529e-20)
(1.3139 0.0593479 -1.61944e-22)
(-0.325239 -0.00705416 7.3421e-20)
(1.03858 0.199407 -2.09138e-21)
(0.984693 0.0220178 0)
(0.986399 0.0329955 -8.17735e-21)
(-0.276159 0.00390108 -2.05076e-20)
(1.23031 0.180444 0)
(0.279807 -0.420338 -3.05495e-20)
(0.986882 0.0117514 0)
(1.02228 0.000450649 0)
(1.00785 0.00756709 0)
(1.03224 0.0804891 0)
(0.144055 -0.00290446 -1.55612e-20)
(1.16777 0.136128 0)
(-0.293655 0.00226179 -3.00599e-20)
(0.986945 0.29274 0)
(0.0143595 0.00738796 0)
(1.02783 0.00133257 3.12467e-21)
(1.05678 0.0517872 9.36354e-21)
(0.785752 0.224743 1.87448e-20)
(0.998792 0.0148199 2.25674e-21)
(1.10469 -0.0474639 3.73391e-23)
(0.778476 0.216944 -1.17894e-21)
(0.182093 -0.00646335 0)
(1.00826 0.005096 -5.32563e-23)
(0.982597 0.00967565 5.50528e-21)
(0.99667 0.018861 0)
(1.3041 0.227428 -4.88606e-20)
(0.722986 -0.0988032 0)
(1.0188 0.0249249 0)
(1.00835 0.00530391 6.404e-23)
(1.1089 -0.0604328 2.55759e-20)
(0.677962 0.0465071 -2.80597e-20)
(0.0959327 -0.0334909 0)
(0.979055 0.0383381 0)
(1.0445 0.0366845 -9.64354e-23)
(1.00333 0.0195477 0)
(0.191307 -0.0261511 -6.58103e-21)
(-0.106301 -0.00168267 -2.1783e-20)
(1.11126 -0.0523224 2.29474e-20)
(0.878645 -0.0279639 -2.93937e-20)
(1.29494 0.034771 0)
(0.970073 0.0267853 0)
(0.539758 0.198818 1.38635e-20)
(1.14987 -0.0509848 -3.44974e-20)
(0.934837 -0.00298066 4.37358e-21)
(1.13722 -0.0724368 3.26427e-20)
(1.30109 0.246879 -1.42075e-20)
(1.01015 0.00850769 -5.28004e-23)
(0.187442 -0.0283688 0)
(0.945366 0.00223194 1.87941e-21)
(1.20291 0.1451 0)
(0.788052 -0.0765265 3.5242e-22)
(1.01049 0.0136434 0)
(1.24824 -0.0360128 2.89756e-20)
(1.07741 -0.0764344 7.24895e-21)
(1.00333 0.0297583 1.90163e-21)
(0.992701 0.00659458 0)
(1.00003 0.00100685 0)
(1.0192 0.00119683 -7.90699e-22)
(1.19834 0.0364004 -1.81535e-20)
(1.02826 0.000715082 0)
(0.996697 -0.000895935 -2.11301e-21)
(1.00377 0.00794324 -5.13193e-22)
(0.998425 0.00931134 -3.9958e-21)
(0.246804 -0.0517721 0)
(0.996372 0.0350159 4.61367e-21)
(0.995351 0.0338635 0)
(1.02209 0.000389636 0)
(0.993795 -5.99598e-05 -3.03257e-21)
(0.463775 0.739096 2.70144e-20)
(-0.106682 -0.0118218 -1.405e-20)
(1.2277 -0.00533004 0)
(0.986019 0.0336201 8.81023e-21)
(0.188662 0.00388177 1.31605e-20)
(1.04061 0.0403288 0)
(-0.320241 -0.00186955 4.37733e-20)
(0.956088 0.287508 8.51996e-21)
(1.10938 -0.0550429 3.48626e-20)
(1.11617 0.0334247 6.7843e-21)
(0.985776 0.00988425 0)
(0.292758 -0.397764 -8.85896e-22)
(0.00277104 0.00594575 0)
(0.996304 0.018967 0)
(0.436567 -0.0588114 2.054e-20)
(1.26267 -0.0239565 0)
(1.00358 0.00773104 4.94393e-22)
(1.1958 0.168684 -1.78917e-20)
(0.537876 0.604957 -5.36045e-20)
(0.997524 0.00467456 1.20545e-21)
(1.24895 -0.0295546 -1.57238e-20)
(0.99425 0.00444826 0)
(1.04654 0.0184731 2.8374e-21)
(0.0012285 0.00461796 -3.14296e-21)
(-0.307394 -0.00306303 0)
(1.00443 0.00816815 5.096e-22)
(1.09952 -0.0582791 -9.09273e-21)
(0.992593 0.00684764 0)
(0.986687 0.0225579 -1.23118e-20)
(1.00139 0.00738584 0)
(0.996144 0.0338487 -6.24914e-21)
(1.00768 -0.0716125 -1.14514e-20)
(0.99898 0.0123208 0)
(1.11169 -0.0056877 9.09417e-21)
(-0.226922 -0.00212468 0)
(1.00751 0.00862254 -1.55438e-23)
(1.00548 0.0365214 2.03968e-21)
(1.09462 0.0219558 1.97146e-20)
(1.11048 -0.0607529 0)
(-0.202295 0.00921558 9.9276e-21)
(0.9971 0.0350575 3.88153e-21)
(0.273991 0.967891 -2.4016e-20)
(1.11102 -0.00452137 1.14626e-20)
(-0.24045 0.000347647 -1.15326e-20)
(1.02967 0.00723231 3.37417e-21)
(1.11483 -0.0683986 -2.25846e-20)
(-0.225751 -0.00668518 0)
(1.0991 0.0086222 4.72926e-21)
(0.999917 0.00148586 5.13268e-21)
(1.02886 0.0811361 -1.89186e-21)
(0.0588327 0.0174119 -2.47888e-20)
(1.01028 0.0131259 0)
(1.10117 -0.0543758 0)
(0.269844 -0.0546961 -7.03114e-21)
(0.155612 -0.00483353 7.52507e-21)
(1.01285 0.232135 -4.35025e-21)
(1.00002 5.13709e-05 1.49526e-21)
(-0.106887 0.000886206 0)
(0.937658 0.0299039 -1.42638e-20)
(1.02913 0.0404073 2.95025e-22)
(0.415928 -0.995265 3.01096e-20)
(-0.00806758 0.00411457 0)
(1.16067 0.0170844 -3.985e-20)
(0.0876087 -0.0239168 -3.49079e-20)
(0.906686 0.196865 5.58968e-21)
(1.02703 0.0805096 -1.29077e-21)
(1.28397 0.132586 5.27216e-20)
(0.708573 0.0481227 -4.9829e-20)
(-0.243571 -0.00555182 0)
(0.985133 0.0112854 0)
(0.99996 0.00151806 -1.13178e-21)
(1.12987 -0.0638141 1.23023e-20)
(1.01005 0.00880046 -2.47486e-22)
(1.03537 -0.000501529 -5.67272e-21)
(1.04631 0.0190241 -1.35984e-20)
(-0.158049 -0.00885088 4.17909e-20)
(1.0198 0.00574325 -8.72289e-22)
(1.00576 0.012729 6.27898e-22)
(1.09488 -0.0286162 7.12419e-21)
(1.02957 0.0395661 0)
(1.00262 0.00698601 -1.24042e-21)
(1.17248 0.0775879 -9.8624e-21)
(1.00569 0.000373856 0)
(0.916641 0.000602879 0)
(0.198621 0.73441 0)
(1.0532 -0.0718379 -5.88981e-21)
(1.08042 0.0653726 -1.29842e-20)
(1.12901 -0.0642548 -1.51685e-20)
(0.25696 -0.978964 -2.21095e-20)
(0.997548 0.00440233 2.51917e-22)
(-0.0655675 -0.00581139 -2.99365e-20)
(1.07355 0.0300468 0)
(0.112849 -0.0316677 0)
(0.531546 0.230864 -6.62878e-20)
(0.988883 0.0197047 1.86101e-22)
(1.02665 0.0427907 0)
(0.0527914 0.00167051 -1.73257e-21)
(1.2573 0.0350827 -1.09675e-20)
(1.02827 0.00096106 6.33085e-21)
(1.10808 -0.0608379 -2.45548e-20)
(0.987429 0.0119476 0)
(0.585118 -0.0597666 -7.63431e-21)
(1.06544 -0.0762855 1.44269e-20)
(1.00576 0.103785 -1.53617e-21)
(-0.100297 0.00505204 1.66667e-20)
(0.114259 0.00760242 8.60593e-21)
(0.748663 0.10396 0)
(0.178645 -0.0241664 0)
(0.787595 0.0600742 4.56943e-20)
(0.981818 0.0941703 -7.30844e-21)
(1.07647 0.0343806 -1.82213e-20)
(1.00353 0.0136299 -1.7655e-21)
(0.915377 -0.00113881 -6.78e-21)
(0.677229 0.141087 2.50274e-20)
(1.10198 -0.035354 -4.34165e-21)
(0.0948168 0.0022016 0)
(1.16001 0.116389 -1.2077e-21)
(1.01938 0.0110461 0)
(1.11364 -0.037989 0)
(1.02865 0.000310661 0)
(0.0608811 -0.00491647 0)
(0.262133 0.828918 2.78643e-20)
(0.986981 0.0231573 9.04315e-21)
(0.939259 0.0297098 1.14881e-20)
(0.00787209 0.00758421 -1.33999e-20)
(1.11773 0.0223066 0)
(0.0487587 0.213263 0)
(1.11766 0.101767 0)
(1.27643 0.0419613 0)
(0.930349 0.151871 7.60593e-21)
(0.43927 0.995382 0)
(1.02095 0.00754293 2.28485e-21)
(0.994519 0.00453148 0)
(-0.275523 -0.00521888 0)
(0.999978 0.00135868 -1.6681e-21)
(0.994748 0.0415408 -1.34127e-22)
(0.946696 0.0826578 3.20463e-22)
(1.11209 -0.032404 0)
(-0.128329 -0.00711065 0)
(0.249241 -0.113133 9.06436e-20)
(1.09511 0.0439424 0)
(0.999946 0.00132414 -3.9979e-21)
(-0.0857983 0.00219985 0)
(1.10488 -0.0466961 5.79951e-23)
(1.02074 0.00728885 9.54896e-22)
(0.98121 0.0188205 0)
(1.01398 0.000521836 -1.80455e-21)
(0.857292 0.329331 -2.51751e-20)
(1.00992 0.013051 1.45521e-22)
(0.186085 -0.0277931 0)
(0.810808 -0.0782659 -2.09417e-20)
(-0.0436898 -0.0144683 -2.47123e-20)
(0.699376 0.0502151 0)
(1.09692 0.044077 -4.84233e-21)
(1.13978 0.168647 2.1701e-20)
(0.968911 0.0264127 -7.09046e-21)
(1.03035 0.00589589 -4.46072e-21)
(1.23917 -0.0288849 4.52635e-20)
(0.235124 -0.126093 -9.48891e-20)
(-0.266646 -0.00846072 1.00986e-19)
(1.00001 0.000804557 2.50703e-21)
(1.00287 0.00492437 8.51275e-22)
(0.0181309 0.0123029 -3.90651e-20)
(1.13433 -0.00943849 4.52902e-20)
(0.934802 0.477009 -1.00583e-21)
(1.11542 -0.0678732 2.0098e-20)
(1.0014 0.00763397 -9.09663e-22)
(0.460306 -0.0534636 1.61918e-20)
(1.04358 0.0382053 -5.88373e-21)
(0.845043 0.00442526 -1.74978e-20)
(0.879165 0.0362569 0)
(0.796197 1.01126 6.33394e-21)
(1.01384 0.0265134 -2.44808e-22)
(0.948315 0.291079 -2.65892e-21)
(1.07011 0.0528593 9.16537e-21)
(0.962686 0.0624328 -2.59263e-21)
(-0.0249725 0.00983677 -5.93947e-20)
(0.971577 0.0283835 0)
(0.0207437 -0.00483488 1.22413e-20)
(0.466422 -0.0618815 -1.78876e-20)
(1.14383 0.0916543 2.22778e-20)
(1.00974 0.00871988 3.96801e-23)
(0.974372 0.053126 0)
(1.09827 0.445512 0)
(1.14165 0.0618491 3.78664e-20)
(1.10344 -0.024773 1.36824e-20)
(0.999207 0.0129094 3.76413e-21)
(1.03439 0.0176556 0)
(-0.0944382 -0.0139764 1.32974e-20)
(1.23054 0.00648838 0)
(1.10292 -0.0218664 6.32355e-21)
(1.11877 -0.0623286 -1.03439e-20)
(1.11164 0.00276655 -2.50974e-20)
(1.01951 0.0108768 7.03081e-22)
(0.960665 0.0629819 0)
(0.993594 -0.000363521 3.20108e-21)
(0.982334 0.0219679 3.81795e-21)
(1.00426 0.00798445 0)
(1.03211 0.00493563 3.15948e-21)
(1.00272 0.00477351 4.15937e-22)
(-0.317298 -0.000643308 -8.83431e-21)
(0.997871 0.0237729 2.99617e-21)
(0.977932 0.0388138 1.33032e-21)
(1.00726 0.102319 1.0017e-21)
(1.22546 0.181584 -1.86743e-20)
(1.09789 -0.0761688 0)
(-0.0699696 0.00653965 0)
(0.191377 -0.00568035 1.53049e-21)
(1.06572 -0.00549633 -5.85883e-21)
(0.967601 0.146815 8.1752e-21)
(0.0939787 -0.0142882 8.05353e-21)
(0.996881 0.0117159 0)
(1.10133 0.033847 -5.27987e-21)
(1.01409 0.0260971 2.14052e-22)
(0.997708 0.00475782 6.15743e-21)
(1.01142 0.0306198 -8.31232e-22)
(1.09627 -0.0366463 1.42021e-20)
(1.01129 0.0194031 0)
(1.09968 0.16664 1.01981e-20)
(-0.313008 -0.000649775 -1.54967e-20)
(1.08585 -0.0267899 -4.57947e-21)
(0.993785 -0.000749414 2.26677e-21)
(1.00346 0.0139553 1.82453e-21)
(0.988446 0.011629 -5.64595e-21)
(1.09229 0.0451276 8.25238e-21)
(1.02872 0.000548399 3.394e-21)
(-0.312283 -0.000758559 1.19455e-20)
(0.998764 0.0122452 -2.23521e-21)
(1.11291 -0.00586937 -9.44987e-21)
(1.13192 -0.0639867 -6.74576e-21)
(0.677856 -0.0731302 1.96157e-20)
(1.0476 0.017856 -3.76964e-21)
(-0.130257 -0.00826325 2.01157e-20)
(1.094 -0.0285332 -1.2811e-20)
(1.09651 -0.0472975 4.7759e-21)
(1.05055 0.0150117 -1.09985e-20)
(1.17086 0.0805535 1.00053e-20)
(-0.0607951 -0.0162475 0)
(1.01935 0.00127933 -1.50587e-23)
(1.1129 0.00198998 1.71286e-20)
(1.14458 0.0892494 -2.2142e-20)
(1.11498 0.102464 8.21736e-21)
(0.972946 0.372351 -3.38982e-22)
(1.23385 0.00431471 2.87606e-20)
(-0.0426222 0.00918754 8.00596e-20)
(1.09407 0.079341 -6.59248e-20)
(0.984001 0.0952295 7.93038e-21)
(1.00649 0.13399 0)
(1.12693 -0.0177186 1.82691e-20)
(-0.253312 -0.00363362 -2.26849e-20)
(1.03093 0.0387041 -2.47252e-21)
(1.03055 0.0396945 2.71464e-21)
(1.02988 0.00585265 5.53007e-21)
(1.01155 0.0191383 0)
(-0.0880751 -0.00285175 -2.05514e-20)
(1.00947 0.132692 0)
(1.06359 -0.0016689 5.678e-21)
(1.29855 0.202085 -2.52798e-20)
(-0.151903 0.0246264 0)
(0.992577 0.0530541 3.57649e-21)
(-0.137221 -0.0121106 4.21426e-20)
(0.949604 0.0823109 8.34379e-21)
(-0.137743 0.00749274 -8.02141e-20)
(1.2014 -0.0123507 -1.81585e-20)
(0.996547 0.000497522 1.26299e-21)
(-0.259215 -0.00823559 -9.22289e-20)
(1.06442 -0.00222479 6.12751e-21)
(1.00148 0.0742146 3.02255e-21)
(1.2265 -0.00861203 0)
(0.467076 -0.0485953 -3.65831e-21)
(0.761674 -0.0525079 -1.78959e-20)
(1.13081 -0.0551062 -1.88768e-20)
(-0.237586 -0.00757018 -3.69174e-20)
(0.945354 0.00592319 7.00262e-21)
(1.22341 -0.00832107 0)
(1.00848 0.236065 1.33088e-21)
(1.00001 0.000214726 0)
(1.02238 0.00670307 0)
(1.02401 0.0275502 2.30651e-21)
(0.993675 -0.0717559 0)
(0.996644 0.0116253 -3.01967e-21)
(1.00131 0.00783639 0)
(1.19308 0.131855 -6.52628e-20)
(0.999855 0.0746397 1.47616e-22)
(0.618888 -0.0608179 0)
(1.11949 -0.0630872 6.39386e-21)
(-0.150262 0.0139596 0)
(0.973543 0.0279861 1.0368e-22)
(0.980774 0.00807025 0)
(-0.212216 -0.00249528 0)
(1.09384 -0.0579381 -1.73034e-21)
(1.00001 0.000164099 0)
(1.08278 0.057426 8.0274e-21)
(1.10352 -0.0227602 -2.1724e-20)
(0.997653 0.00498579 -8.12481e-21)
(1.2017 0.148794 -1.94235e-20)
(-0.267044 -0.00184922 0)
(1.0941 0.0454756 -8.89996e-21)
(0.998236 0.00928721 3.22063e-21)
(1.10706 0.33287 -1.69477e-20)
(0.40315 -0.514782 -2.56676e-21)
(0.934519 0.152286 -1.29681e-20)
(0.981323 0.366708 5.85097e-22)
(0.00510011 -0.0049667 -2.52548e-20)
(1.12298 -0.0447846 -8.3736e-21)
(1.02201 0.00654742 0)
(-0.315166 -0.00113669 1.37004e-19)
(1.08648 -0.00943937 -6.44685e-21)
(1.17201 0.0471493 2.6037e-21)
(0.994659 0.0406301 1.15492e-22)
(0.627444 -0.0710002 -1.97639e-20)
(1.1141 -0.0682052 9.29584e-21)
(1.00003 0.000544722 -2.65408e-21)
(-0.321956 0.00316493 -7.92243e-20)
(0.984679 0.00312955 -7.2699e-21)
(0.970298 0.0280328 0)
(1.01942 0.0251293 0)
(0.993935 0.00254269 0)
(-0.181906 0.00704547 -9.40547e-20)
(-0.0835784 -0.00493728 0)
(1.02087 0.00677799 -3.00538e-21)
(1.02384 0.00239056 6.14519e-22)
(1.00569 0.0995936 0)
(0.914181 0.140721 2.77443e-21)
(0.714669 -0.0978881 4.71572e-21)
(1.11449 -0.0630878 2.92802e-20)
(-0.299093 -0.00219827 7.2316e-20)
(1.16941 0.0644502 0)
(0.205541 -0.0313203 1.15102e-20)
(-0.291006 0.00362306 0)
(-0.299455 -0.000223194 2.33863e-20)
(0.203277 -0.0294405 2.14897e-20)
(0.980909 0.0074326 0)
(1.00344 0.00781015 0)
(1.04103 0.0778892 -8.39943e-21)
(0.215393 0.00480266 0)
(1.04458 0.0377768 -3.17023e-21)
(0.993748 0.0027844 0)
(1.02102 0.00705529 8.88403e-22)
(0.799181 -0.0756861 0)
(-0.326788 -0.000597357 0)
(1.00514 0.0130368 1.35697e-21)
(0.9847 0.0284773 -3.86699e-21)
(0.999979 0.000626145 2.34662e-21)
(0.0562464 -0.0057965 -1.038e-22)
(1.0733 0.156901 0)
(0.337345 0.61414 0)
(1.04548 0.0362591 9.65705e-23)
(1.09969 -0.049136 0)
(1.07158 0.0303323 -8.39778e-21)
(1.14416 0.170269 4.84988e-22)
(1.15871 0.016224 3.49691e-20)
(1.00773 0.00776405 0)
(0.224367 0.00549449 1.82352e-21)
(1.04742 0.0183729 0)
(1.10677 -0.0588385 0)
(0.982883 0.0253751 0)
(0.991882 0.0543157 0)
(0.986232 0.0370098 -3.86287e-21)
(0.203818 -0.0520411 1.29608e-20)
(0.062937 0.329662 -5.67211e-20)
(0.0604784 0.260081 0)
(0.996692 0.000657028 0)
(0.479241 -0.0543607 -1.47134e-20)
(0.1648 -0.0222706 0)
(0.944315 0.00530721 2.13862e-21)
(-0.275853 0.0049618 5.984e-20)
(1.09996 -0.0578776 2.50332e-22)
(1.10048 -0.0540726 7.44205e-21)
(1.00325 0.00759628 2.22312e-21)
(0.985829 0.0121133 -3.97845e-22)
(0.987927 0.0114366 0)
(1.26171 -0.0215144 2.22775e-20)
(0.559108 -0.0338995 -2.57057e-20)
(1.09629 -0.0298163 -2.02956e-20)
(-0.18136 0.00711261 6.86917e-20)
(1.00005 0.00323031 4.03307e-21)
(0.985722 0.00610259 0)
(1.10962 -0.00482503 -1.1314e-20)
(1.10777 0.0622963 -1.26034e-20)
(1.01605 0.0258606 2.50892e-23)
(-0.244779 -0.00227347 -2.6716e-20)
(1.02636 0.0972589 4.98265e-22)
(1.09428 -0.0584962 0)
(0.502415 -0.0889299 0)
(-0.136121 -0.00215508 -4.43656e-20)
(0.0811108 -0.00575193 4.44309e-23)
(0.0314727 0.0578555 1.6361e-20)
(1.14453 -0.0655759 0)
(0.984918 0.00265335 9.29102e-21)
(1.02169 0.00672202 0)
(1.07681 0.00465468 -6.51193e-21)
(0.983317 0.029568 -8.33364e-21)
(0.87264 0.0896343 -6.19675e-21)
(0.0373175 0.0138758 0)
(0.985742 0.0113558 0)
(-0.223901 0.00399087 -8.23919e-20)
(1.20819 -0.00976808 2.52157e-20)
(-0.22868 -0.00254953 0)
(1.07159 0.051328 6.76399e-21)
(0.773273 -0.0763885 9.37535e-21)
(1.09043 0.139552 -1.45269e-20)
(0.513497 -0.900507 1.1506e-21)
(1.06375 -0.00525061 0)
(1.0013 0.0076092 9.30843e-22)
(0.860374 -0.0419228 0)
(0.97964 -0.00268838 -2.20464e-21)
(1.07628 0.0355493 1.56679e-20)
(0.950831 0.479997 -3.49581e-21)
(1.21434 0.372739 -1.99267e-20)
(0.0593521 0.0727612 3.84855e-20)
(1.11658 -0.0681744 0)
(-0.233174 0.0101084 8.9831e-21)
(0.197144 -0.0524186 5.32622e-21)
(1.07926 0.145815 0)
(0.998989 0.012776 -4.20366e-21)
(0.212467 0.00443245 0)
(1.02443 0.00259046 4.60806e-21)
(1.24248 -0.0309143 -2.58282e-20)
(-0.28922 -0.00255898 4.49652e-20)
(1.0143 0.000336676 1.21513e-22)
(1.06524 0.0834292 -2.6421e-21)
(1.11429 -0.0675294 -5.36739e-21)
(0.17744 -0.0244261 -6.78562e-21)
(0.977075 0.0536364 -9.73823e-21)
(0.999969 0.00100295 1.78766e-21)
(0.859715 -0.0740794 0)
(-0.176379 -0.00195586 0)
(-0.213234 0.00180936 5.18181e-20)
(0.994758 0.0327359 0)
(0.162252 0.110641 -1.79384e-21)
(1.01966 0.0394773 -1.42707e-22)
(1.12898 -0.0710355 -7.98238e-21)
(1.08459 0.141976 -1.31933e-20)
(1.05802 0.0275063 7.30496e-22)
(0.933548 0.286565 0)
(0.117456 -0.009082 0)
(1.03187 0.0387698 0)
(0.982898 0.0270768 -9.43801e-22)
(0.994806 0.0321185 0)
(1.01856 0.0265918 0)
(1.15474 -0.0547021 0)
(0.355693 -0.0463093 -1.97324e-20)
(0.128852 -0.0450495 -1.97276e-20)
(-0.225041 -0.00659955 -1.24488e-20)
(1.00257 0.00752726 1.25953e-21)
(-0.0797475 -0.00670704 -8.42516e-21)
(1.10552 0.0623018 0)
(1.20001 0.0319113 2.24818e-20)
(1.31923 0.0919605 4.27892e-20)
(1.0772 0.0191132 0)
(-0.316446 -0.00110661 -4.40025e-20)
(0.945544 -0.000611312 -1.43765e-20)
(0.968829 0.0582936 0)
(0.642543 -0.0631758 0)
(1.29707 0.196484 -4.69978e-22)
(1.14347 -0.0415026 -1.19083e-20)
(0.980488 -0.0696108 3.30885e-20)
(1.05196 -0.0770897 -7.77772e-21)
(1.06897 0.199671 1.40858e-20)
(-0.323672 0.00158617 -1.23434e-21)
(1.1096 -0.0611216 -2.26983e-20)
(0.965376 0.00503137 -9.64446e-21)
(0.638171 -0.0635102 0)
(0.86885 0.0321484 2.36216e-20)
(1.10868 -0.00369036 0)
(0.893921 0.0540976 -4.07658e-20)
(0.904364 0.0693279 -7.8309e-21)
(1.08792 0.142015 1.06228e-20)
(0.957339 0.0619656 6.62808e-21)
(0.84368 0.00921547 0)
(1.13168 -0.0544612 1.05575e-20)
(0.88336 0.0791814 0)
(1.07267 -0.0110518 0)
(1.08356 0.00602319 3.11393e-21)
(1.09652 -0.0464004 9.29048e-21)
(1.06852 -0.00421229 4.27208e-21)
(0.989241 0.0191532 -1.7223e-22)
(0.972961 0.0252777 5.82375e-21)
(0.993986 0.0315724 0)
(0.964105 0.00834472 -9.12805e-24)
(1.14431 -0.0663381 -1.35311e-20)
(0.467967 -0.670184 -1.45458e-20)
(1.04364 0.0393029 5.17765e-21)
(1.02941 0.0267724 1.16295e-21)
(1.01795 0.198554 0)
(-0.225724 0.00779123 3.44137e-20)
(1.00023 0.000240719 2.37678e-21)
(1.00691 0.0980285 2.04919e-21)
(0.82404 0.212172 -4.08085e-20)
(1.13103 -0.0645178 0)
(0.999963 0.00135812 9.76806e-22)
(1.00695 0.0491749 7.09564e-22)
(1.06841 -0.0049845 0)
(1.13054 -0.02657 -9.33268e-21)
(1.0283 0.0758827 -1.73043e-21)
(1.00776 0.0318302 -1.96057e-21)
(1.00902 0.0120925 0)
(-0.081188 0.00532827 1.9767e-20)
(0.200574 -0.0420105 0)
(1.2569 -0.0267135 0)
(1.01243 0.135257 5.06135e-23)
(0.999947 0.00150847 1.02303e-21)
(1.00257 0.00478206 -8.55501e-22)
(0.915696 0.106678 -8.43316e-21)
(0.99356 -0.00105315 1.7384e-21)
(1.00054 0.0147505 -1.48693e-21)
(1.06343 0.08328 -5.11588e-21)
(0.0346811 -0.00639434 0)
(1.135 -0.00761785 -4.38593e-23)
(0.860251 -0.0680845 0)
(1.00269 0.00922189 0)
(1.02475 0.0963348 0)
(0.753491 0.236253 -1.15706e-20)
(0.482416 -0.0491732 4.3007e-21)
(0.941181 0.284223 -7.35943e-21)
(-0.281833 0.000674814 -2.96101e-20)
(1.09376 -0.0720613 -2.14539e-20)
(0.371689 0.917721 -1.50954e-20)
(1.03154 0.00503514 -2.10728e-21)
(1.00251 0.00483374 9.07053e-22)
(-0.207022 -0.00323326 2.471e-20)
(1.07597 0.341281 1.68746e-20)
(1.09094 0.136542 2.47811e-22)
(1.16343 0.115705 -1.31789e-20)
(0.42092 -0.0612012 0)
(0.219331 0.00581255 -7.49249e-21)
(0.696169 0.412641 -4.59118e-20)
(1.02544 0.0517963 -1.99667e-21)
(1.14852 -0.0531846 -1.33941e-20)
(-0.211042 0.00919612 1.76409e-21)
(1.06691 0.080238 2.63156e-21)
(0.525534 -0.0202767 0)
(1.11524 0.202648 0)
(1.31201 0.0638285 2.08586e-20)
(-0.208095 0.00471053 4.71808e-20)
(1.18016 0.306118 -2.18133e-20)
(1.13581 0.171607 1.72987e-20)
(0.944542 0.000250896 1.79025e-20)
(0.984451 -0.074672 0)
(1.02886 0.0269844 -5.80365e-23)
(0.0479003 0.0703119 0)
(1.08322 0.0592986 4.16926e-22)
(1.00954 0.00836676 6.25271e-23)
(1.01601 0.0429417 4.22352e-22)
(1.02138 0.0065325 1.17793e-21)
(-0.329366 -0.000800861 0)
(1.03547 -0.000182276 0)
(1.19829 0.0898454 1.67788e-20)
(0.986393 0.0122759 0)
(0.917426 0.143294 2.65328e-21)
(1.1998 -0.0340479 2.52487e-20)
(1.01506 0.133846 1.35456e-22)
(0.995867 0.0135507 0)
(-0.0917238 0.00974216 2.42306e-20)
(0.584337 -0.210306 -7.10875e-21)
(1.00296 0.00743281 -3.20373e-22)
(1.03219 0.0377776 0)
(0.446851 0.0528191 1.93843e-20)
(1.13368 -0.00655525 -4.87587e-23)
(1.09779 0.00831158 0)
(1.09747 -0.0602593 0)
(1.08095 0.0132485 -1.04904e-20)
(0.966041 0.0874285 6.48051e-21)
(1.02372 0.013282 0)
(1.09975 -0.0647144 -7.64934e-21)
(0.110484 -0.042155 1.52494e-20)
(0.151956 -0.044455 0)
(-0.0872609 0.00970245 4.73382e-20)
(1.06765 0.338859 -2.63595e-20)
(1.19959 0.0874769 1.79512e-20)
(0.829391 0.218068 2.10829e-20)
(1.18642 0.31074 0)
(0.944521 0.0363533 0)
(0.717475 -0.075596 -1.21715e-20)
(0.0636821 0.0618983 2.99958e-20)
(1.20549 -0.00976935 -4.07661e-20)
(0.999901 0.0155747 -2.14189e-21)
(0.98617 0.093778 7.19567e-21)
(0.490221 0.0787613 -3.70379e-20)
(1.00653 0.0500092 0)
(0.93542 -0.0741347 0)
(-0.218096 0.0116272 -9.38022e-21)
(1.23735 0.0892991 -4.65265e-20)
(0.993899 0.00184033 7.71599e-22)
(0.767621 0.220024 0)
(1.01954 0.0385937 -1.91874e-22)
(0.915585 0.204716 -1.13221e-20)
(-0.300124 -0.00225106 -5.48068e-20)
(0.993969 0.0308434 -4.44243e-21)
(1.13263 -0.0718652 0)
(0.688726 -0.0286936 2.46556e-20)
(0.992099 0.00526694 -2.50654e-22)
(1.00142 0.160907 2.07166e-21)
(1.07157 0.153007 -1.24626e-20)
(1.02106 0.00150122 1.03335e-21)
(1.07125 0.12554 -1.32427e-20)
(0.222215 -0.0448435 3.16578e-21)
(1.10368 -0.020713 -1.42017e-20)
(1.09065 -0.0271698 3.03501e-21)
(-0.211931 0.00720811 -1.01025e-20)
(1.12925 -0.0260556 0)
(0.975541 0.0542776 5.36302e-21)
(0.919686 -0.0132674 3.08251e-21)
(1.00892 0.0118745 -1.55739e-22)
(0.867708 0.0892533 0)
(1.02333 0.0133335 0)
(0.993854 0.00120173 -3.23758e-21)
(-0.173919 -0.0104095 -1.92597e-20)
(1.11312 -0.00291327 6.26882e-21)
(0.91623 0.00488907 -1.33758e-20)
(1.05133 0.0438658 0)
(1.02008 0.00585609 1.25597e-21)
(1.05159 0.0448339 -4.7082e-21)
(1.03124 0.00056879 4.05981e-21)
(0.511356 -0.0810912 -3.79988e-20)
(0.472164 0.103317 0)
(0.989638 0.0717344 6.68232e-22)
(1.11549 -0.0684858 -2.85693e-21)
(0.129313 -0.00590379 -2.19349e-20)
(1.01044 0.00857909 -1.69558e-22)
(1.10971 0.324365 1.56695e-20)
(1.00135 0.0142333 -1.05729e-22)
(1.07214 -0.0117326 7.40491e-21)
(1 0.00151819 0)
(0.964077 0.0114253 -8.12452e-21)
(0.106228 -0.0163006 0)
(0.945531 0.092791 0)
(-0.303785 -0.00363983 -6.87895e-22)
(0.983384 0.0277886 0)
(0.958207 0.0319581 1.0582e-20)
(1.28895 0.0316172 4.74701e-21)
(0.687109 -0.0744119 1.26917e-20)
(0.996671 0.000173136 7.51302e-21)
(1.00131 0.130076 4.0804e-22)
(-0.148612 0.0152722 -1.22646e-19)
(0.000714527 0.0482466 -9.30128e-20)
(0.999991 0.00133944 0)
(0.0447799 0.0642373 -6.51927e-20)
(1.08215 -0.0106802 -1.33203e-20)
(0.916635 0.209359 -5.86908e-21)
(1.20942 -0.00670438 -5.26622e-21)
(0.917914 -0.0123948 0)
(-0.241605 -0.00167882 0)
(0.907338 0.0696384 8.73505e-21)
(0.988513 0.012233 5.27064e-21)
(1.00771 0.0325746 1.78498e-21)
(1.00814 0.0076704 0)
(0.958197 0.0330456 -1.17817e-20)
(0.987886 0.0712497 6.3743e-22)
(0.101286 0.00541499 0)
(0.59513 0.0603196 0)
(1.10297 0.0379848 0)
(1.32987 0.171939 -2.81238e-20)
(0.834261 0.308569 0)
(0.889691 -0.0693051 1.17084e-20)
(1.06785 0.129598 4.63848e-21)
(0.998788 -0.000271424 -4.02988e-21)
(1.09531 -0.0297667 1.31308e-20)
(0.388332 -0.0580108 0)
(1.08944 0.0751303 -1.0787e-21)
(1.10296 -0.0198426 0)
(1.09083 0.0496651 1.25756e-20)
(-0.20004 0.00584119 -7.31436e-20)
(1.15461 -0.0662436 0)
(0.968637 0.0814724 0)
(1.07038 0.127964 4.87979e-21)
(0.945477 0.00885895 0)
(-0.235842 0.00508521 -6.63805e-20)
(0.996488 7.55257e-05 -9.57251e-21)
(0.489123 0.0662308 0)
(1.01971 0.023787 -1.79211e-21)
(1.00299 0.132121 -8.65874e-22)
(0.954521 0.0648139 1.49173e-20)
(1.14197 0.0503732 -1.21661e-20)
(0.967745 0.0885678 -4.23649e-21)
(0.835893 0.316921 -1.16434e-21)
(0.912692 0.108279 0)
(0.921345 0.275384 -9.80931e-21)
(1.03107 0.00551878 2.0495e-21)
(1.18261 -0.0382609 -2.58322e-20)
(1.12909 -0.0535941 -1.37646e-20)
(1.07513 0.12519 -3.36245e-22)
(1.02087 0.00150739 0)
(1.09728 -0.0450921 -9.67114e-21)
(0.196423 -0.00966385 8.91426e-21)
(1.20267 0.362478 3.76782e-20)
(1.01496 0.00279715 -1.52365e-23)
(0.914903 0.00320045 0)
(0.199946 0.82309 -1.55181e-20)
(1.09904 -0.0766663 8.30827e-21)
(1.28321 0.0491789 1.38052e-20)
(0.97883 0.0193003 -4.00515e-21)
(1.14329 0.0634885 -2.90544e-20)
(1.00005 0.00117697 0)
(1.05619 0.193811 -4.86433e-21)
(1.14304 -0.0653453 8.78479e-21)
(0.299763 -0.311525 2.88477e-20)
(1.08253 0.00630109 9.14404e-21)