/*--------------------------------*- C++ -*----------------------------------*\
| =========                 |                                                 |
| \\      /  F ield         | OpenFOAM: The Open Source CFD Toolbox           |
|  \\    /   O peration     | Version:  v2012                                 |
|   \\  /    A nd           | Website:  www.openfoam.com                      |
|    \\/     M anipulation  |                                                 |
\*---------------------------------------------------------------------------*/
FoamFile
{
    version     2.0;
    format      ascii;
    class       volVectorField;
    location    "400";
    object      U_0;
}
// * * * * * * * * * * * * * * * * * * * * * * * * * * * * * * * * * * * * * //

dimensions      [0 1 -1 0 0 0 0];


internalField   nonuniform List<vector> 
37809
(
(0.96208 0.370514 1.32155e-21)
(0.182647 -0.00600976 -1.21914e-20)
(0.999949 0.00124104 2.57128e-22)
(1.07147 0.0523022 -2.51395e-21)
(0.367847 -0.056595 -3.03069e-21)
(1.10172 -0.0343512 -7.75723e-21)
(0.713823 0.415653 7.59581e-21)
(0.0675689 0.307217 4.42713e-20)
(0.0367867 0.00268167 0)
(-0.22041 -0.00830246 -4.97971e-21)
(1.16364 0.13519 -2.03891e-20)
(0.988827 0.0208836 1.6559e-21)
(0.916175 -0.00834385 0)
(0.915593 -0.00511516 0)
(-0.304557 0.00189796 6.5052e-20)
(1.0011 0.0939399 2.2674e-21)
(1.00161 0.00330673 3.85303e-22)
(0.308426 -0.0228129 0)
(1.02814 0.0401957 -2.86914e-22)
(0.769514 0.368035 0)
(0.705403 -0.0677164 -7.17203e-20)
(0.709595 -0.0621978 5.59969e-20)
(0.576039 -0.057903 0)
(1.00411 0.00803905 4.92018e-22)
(0.83956 0.213163 8.33615e-21)
(1.18251 -0.0111987 -1.0359e-20)
(1.1035 -0.0744491 -1.62137e-20)
(0.965342 0.0079917 0)
(1.00008 0.00117873 0)
(0.0651417 0.377354 -9.96996e-20)
(1.14166 -0.0413023 0)
(-0.229449 0.00258994 0)
(1.00393 0.00785232 4.57013e-22)
(0.505808 0.615802 4.8603e-20)
(1.04437 0.00161333 0)
(1.00153 0.00313456 0)
(1.03222 0.00460341 1.63657e-21)
(1.20144 -0.0494027 1.7847e-20)
(1.12898 -0.0164849 6.29665e-21)
(1.19474 0.142078 1.63426e-20)
(0.0850825 0.0177237 4.52296e-20)
(-0.321498 -0.00130096 1.81666e-20)
(-0.0420365 0.0075587 1.84016e-20)
(-0.307825 -0.00217585 -8.07677e-20)
(1.0029 0.0291899 -2.07281e-21)
(1.08083 -0.00837229 1.17956e-20)
(1.10934 -0.0541129 -1.7239e-20)
(0.860693 -0.0783265 0)
(1.11372 -0.0743678 6.75554e-21)
(1.0357 0.203325 0)
(1.04905 0.0160699 -5.67234e-21)
(0.995508 0.0136258 1.35912e-21)
(1.00755 0.0091265 -3.93092e-22)
(1.0265 0.0516659 7.51222e-22)
(-0.214169 -0.00565318 0)
(1.00736 0.0087956 3.4812e-22)
(0.954121 0.137697 0)
(1.07576 0.00496418 -4.68385e-21)
(1.12545 -0.0176135 1.04666e-20)
(1.24785 -0.0264484 -1.54777e-20)
(-0.302962 -0.00192103 -3.93952e-20)
(0.931921 -0.00544334 0)
(0.918071 -0.00899757 0)
(1.14522 -0.0120477 -2.99049e-20)
(1.14071 -0.0421876 0)
(0.844997 0.217786 7.2785e-22)
(1.14745 0.088309 1.35883e-20)
(1.02768 0.0428941 -1.97797e-21)
(1.06299 -0.00407333 -9.99351e-21)
(1.04363 -0.0710338 1.01434e-20)
(1.03072 0.0797291 0)
(-0.200776 -0.00194901 0)
(0.985591 0.0219458 0)
(0.917 -0.00401897 6.69955e-21)
(0.966091 0.00879064 0)
(1.02951 0.00689179 -4.23987e-21)
(1.19263 0.139138 -3.36234e-20)
(1.05811 0.36394 0)
(0.953024 0.365304 0)
(1.2122 -0.00636246 0)
(1.0037 0.0195125 -7.28675e-22)
(1.00006 0.00110603 0)
(0.852198 -0.0753148 -8.22379e-21)
(1.09769 0.00665335 -3.81809e-20)
(1.02474 0.0276638 0)
(-0.0510691 0.0056965 -7.09245e-21)
(0.966674 0.0535321 0)
(1.32468 0.253529 1.27628e-20)
(1.1115 -0.0314319 -9.53761e-21)
(0.881665 0.0993432 -3.17342e-21)
(1.21712 -0.0459018 0)
(-0.310182 0.00387588 7.33981e-20)
(0.665783 0.136603 -8.71739e-21)
(0.604373 0.0368238 0)
(0.964935 0.0542867 -1.04675e-20)
(0.742609 -0.0724434 0)
(0.98446 0.0213151 0)
(1.04994 0.0159122 5.80923e-21)
(0.0485312 -0.00503107 -1.02996e-20)
(1.01113 0.000559691 5.70394e-22)
(1.27343 0.0349471 4.3872e-20)
(1.05003 0.01524 9.26489e-21)
(1.1435 -0.0116944 1.57439e-20)
(0.294922 -0.0205576 9.08539e-21)
(1.08933 -0.0758353 -1.84178e-20)
(1.00019 0.000243742 -2.34935e-21)
(0.0722786 0.403583 -4.79645e-20)
(-0.154591 -0.00834435 0)
(1.11412 0.338962 5.11924e-21)
(0.989187 0.0204353 0)
(0.768281 0.357433 -2.25546e-20)
(1.09654 0.00639542 4.1065e-20)
(0.599767 -0.215625 -2.73013e-20)
(0.959356 0.0612846 -6.80816e-21)
(0.953748 0.134828 0)
(1.12765 -0.016131 -5.55593e-21)
(0.986681 0.0389917 0)
(0.982024 0.0101202 -1.79581e-21)
(1.14585 -0.066512 8.88183e-21)
(-0.0357129 -0.00735699 1.33099e-20)
(1.00001 3.84888e-05 -1.61143e-21)
(1.04057 0.0392704 0)
(1.11823 0.033097 -1.723e-20)
(0.342043 -0.0549814 0)
(-0.29978 -0.00812791 -2.21078e-20)
(0.986038 0.0381353 0)
(1.11223 -0.0528623 -1.62459e-20)
(1.00596 0.0372401 1.83851e-21)
(0.883206 0.0913211 0)
(1.0627 -0.00745846 -6.44824e-21)
(1.19853 -0.0414247 2.19044e-20)
(1.1065 -0.0616576 -8.80408e-21)
(0.007359 0.00612034 3.66148e-21)
(1.0055 0.0124355 -3.7419e-23)
(1.21459 -0.0140635 0)
(1.01064 0.000474217 0)
(1.04889 0.0166769 0)
(0.931713 -0.00759348 0)
(-0.207279 -0.00128404 -4.57463e-20)
(1.29791 0.0544731 -2.13325e-22)
(1.04381 0.00130334 1.95494e-21)
(1.10391 -0.0754142 -2.46986e-20)
(-0.153586 0.00776008 4.88136e-20)
(0.0742074 0.0142746 4.62192e-20)
(0.98583 0.0225977 0)
(1.16731 0.0893007 8.05193e-20)
(1.0729 0.0305558 1.13281e-20)
(0.940809 0.0306081 4.13675e-21)
(0.838921 -0.0750478 1.51331e-20)
(1.01694 0.000223792 1.58829e-21)
(0.0733255 -0.00491937 -9.88573e-21)
(1.06215 -0.00788744 0)
(1.0911 -0.0263974 -5.7772e-21)
(1.23062 -0.00573903 2.95147e-20)
(1.19924 0.0293608 -2.17887e-21)
(1.01615 0.000179135 0)
(1.14114 -0.0737184 1.13887e-20)
(1.14614 -0.0656284 -4.00593e-21)
(1.02721 0.052341 -3.66555e-22)
(-0.284225 0.00180929 -7.71228e-21)
(0.881307 0.086925 -2.95665e-21)
(1.09898 -0.0647876 7.46881e-21)
(0.133899 0.721299 -5.25643e-20)
(-0.0362778 0.0383984 -2.6817e-20)
(0.944301 0.00276643 -1.99684e-21)
(1.02408 0.00262625 -2.21917e-21)
(1.00026 0.014638 -3.07201e-21)
(0.152946 0.0834027 -2.86764e-20)
(1.13558 -0.0106215 1.74117e-23)
(1.19735 0.0338976 0)
(1.13299 -0.0714174 -2.11056e-20)
(1.0108 0.013705 0)
(-0.0552725 -0.0122148 4.12692e-20)
(1.05553 0.0509063 5.02124e-21)
(1.06385 -0.00453286 0)
(0.95383 0.0889216 7.84143e-21)
(1.0819 -0.0757619 0)
(0.879801 0.0951407 -1.16136e-20)
(0.446932 -0.0551546 0)
(0.979381 0.292736 0)
(-0.03699 -0.00842142 -1.52339e-20)
(1.04629 0.033764 -5.53883e-21)
(1.00746 0.00931791 3.65867e-22)
(0.967804 0.0244279 0)
(1.02781 0.00110492 -4.67703e-23)
(1.15445 -0.0530371 -2.18144e-20)
(1.0471 0.0332494 0)
(1.09582 0.0212348 -1.57508e-20)
(1.3139 0.0593327 -1.61895e-22)
(-0.325228 -0.00705408 7.34177e-20)
(1.03858 0.199408 -2.09092e-21)
(0.984693 0.0220183 0)
(0.986399 0.0329963 -8.17959e-21)
(-0.276166 0.00390149 -2.05075e-20)
(1.23032 0.18044 0)
(0.279806 -0.420334 -3.05504e-20)
(0.986882 0.0117516 0)
(1.02228 0.000450503 0)
(1.00785 0.00756712 0)
(1.03224 0.080489 0)
(0.144032 -0.00290492 -1.55656e-20)
(1.16778 0.136125 0)
(-0.293678 0.00225991 -3.00604e-20)
(0.986948 0.292742 0)
(0.0144055 0.00738765 0)
(1.02783 0.00133235 3.12338e-21)
(1.05678 0.0517866 9.36124e-21)
(0.785753 0.224745 1.87458e-20)
(0.998792 0.0148199 2.25781e-21)
(1.10469 -0.0474756 3.73395e-23)
(0.778477 0.216946 -1.179e-21)
(0.182096 -0.00646664 0)
(1.00826 0.00509605 -5.20665e-23)
(0.982597 0.00967593 5.50665e-21)
(0.996671 0.0188611 0)
(1.30412 0.227421 -4.88656e-20)
(0.722986 -0.0988008 0)
(1.0188 0.024925 0)
(1.00835 0.00530396 6.25137e-23)
(1.1089 -0.0604547 2.55722e-20)
(0.677987 0.0465011 -2.80591e-20)
(0.0959326 -0.0334871 0)
(0.979055 0.0383391 0)
(1.0445 0.0366839 -9.64032e-23)
(1.00333 0.0195478 0)
(0.191276 -0.0261577 -6.58089e-21)
(-0.106305 -0.00169029 -2.17825e-20)
(1.11126 -0.052337 2.29446e-20)
(0.878645 -0.0279623 -2.93959e-20)
(1.29494 0.0347481 0)
(0.970073 0.0267864 0)
(0.539759 0.198821 1.38639e-20)
(1.14989 -0.0509804 -3.44962e-20)
(0.934837 -0.00297916 4.37409e-21)
(1.13726 -0.0724533 3.26438e-20)
(1.3011 0.246861 -1.42067e-20)
(1.01015 0.00850782 -5.24826e-23)
(0.187408 -0.0283734 0)
(0.945366 0.00223335 1.87965e-21)
(1.20291 0.145096 0)
(0.788033 -0.0765276 3.52441e-22)
(1.01049 0.0136436 0)
(1.24823 -0.0359898 2.89721e-20)
(1.07742 -0.0764687 7.24899e-21)
(1.00333 0.0297589 1.90281e-21)
(0.992701 0.00659489 0)
(1.00003 0.00100681 0)
(1.0192 0.00119681 -7.9021e-22)
(1.19834 0.0364018 -1.81521e-20)
(1.02826 0.000714805 0)
(0.996697 -0.000895091 -2.11381e-21)
(1.00377 0.00794324 -5.13837e-22)
(0.998425 0.00931182 -3.99763e-21)
(0.24679 -0.0517554 0)
(0.996372 0.0350166 4.61552e-21)
(0.995351 0.0338642 0)
(1.02209 0.000389492 0)
(0.993795 -5.93458e-05 -3.0336e-21)
(0.463775 0.7391 2.70159e-20)
(-0.106677 -0.0118167 -1.40494e-20)
(1.22768 -0.00532053 0)
(0.986019 0.0336209 8.81267e-21)
(0.188632 0.00388012 1.31641e-20)
(1.04061 0.0403284 0)
(-0.32023 -0.00187126 4.37708e-20)
(0.956091 0.28751 8.52248e-21)
(1.10939 -0.0550597 3.48582e-20)
(1.11617 0.0334248 6.78355e-21)
(0.985776 0.00988442 0)
(0.292758 -0.39776 -8.85895e-22)
(0.00281787 0.00594647 0)
(0.996305 0.0189671 0)
(0.436552 -0.0588155 2.05417e-20)
(1.26266 -0.0239423 0)
(1.00358 0.00773106 4.95013e-22)
(1.19581 0.168681 -1.7891e-20)
(0.537877 0.604961 -5.3607e-20)
(0.997524 0.00467534 1.20594e-21)
(1.24893 -0.0295363 -1.57219e-20)
(0.99425 0.00444883 0)
(1.04654 0.0184727 2.83657e-21)
(0.00128264 0.00461637 -3.14218e-21)
(-0.307382 -0.0030626 0)
(1.00443 0.00816811 5.10382e-22)
(1.09952 -0.0582971 -9.09066e-21)
(0.992593 0.00684793 0)
(0.986688 0.0225584 -1.23152e-20)
(1.00139 0.00738621 0)
(0.996145 0.0338494 -6.25167e-21)
(1.00773 -0.071647 -1.14472e-20)
(0.99898 0.012321 0)
(1.11169 -0.00568898 9.09312e-21)
(-0.22694 -0.00212502 0)
(1.00751 0.00862256 -1.55453e-23)
(1.00549 0.0365221 2.04108e-21)
(1.09462 0.0219553 1.97119e-20)
(1.11048 -0.060775 0)
(-0.202297 0.00921604 9.92746e-21)
(0.9971 0.0350582 3.88317e-21)
(0.27399 0.967893 -2.40153e-20)
(1.11102 -0.00452259 1.14612e-20)
(-0.240479 0.000348168 -1.15327e-20)
(1.02967 0.00723219 3.37269e-21)
(1.11484 -0.0684277 -2.25831e-20)
(-0.225748 -0.00668479 0)
(1.0991 0.00862138 4.72865e-21)
(0.999917 0.00148584 5.13535e-21)
(1.02886 0.081136 -1.89018e-21)
(0.0588319 0.0174117 -2.47889e-20)
(1.01028 0.0131261 0)
(1.10117 -0.0543912 0)
(0.269829 -0.0546792 -7.03144e-21)
(0.155609 -0.00483584 7.52233e-21)
(1.01286 0.232136 -4.34782e-21)
(1.00002 5.13682e-05 1.49716e-21)
(-0.106894 0.000882068 0)
(0.937659 0.0299053 -1.42655e-20)
(1.02913 0.0404071 2.94784e-22)
(0.415928 -0.995261 3.0107e-20)
(-0.00802756 0.00411479 0)
(1.16067 0.0170873 -3.98466e-20)
(0.0876088 -0.0239131 -3.49086e-20)
(0.906688 0.196866 5.59025e-21)
(1.02703 0.0805095 -1.28938e-21)
(1.28398 0.132627 5.27248e-20)
(0.708573 0.0481251 -4.98309e-20)
(-0.243566 -0.00555138 0)
(0.985133 0.0112857 0)
(0.99996 0.00151804 -1.1324e-21)
(1.12989 -0.063829 1.23021e-20)
(1.01005 0.00880058 -2.44623e-22)
(1.03537 -0.000501999 -5.67083e-21)
(1.04631 0.0190237 -1.35944e-20)
(-0.158048 -0.00885064 4.17892e-20)
(1.0198 0.00574309 -8.71674e-22)
(1.00576 0.012729 6.287e-22)
(1.09489 -0.0286212 7.12305e-21)
(1.02957 0.0395659 0)
(1.00262 0.00698616 -1.24174e-21)
(1.17248 0.0775867 -9.86171e-21)
(1.00569 0.000373854 0)
(0.916641 0.000604438 0)
(0.198621 0.734414 0)
(1.05324 -0.0718644 -5.88719e-21)
(1.08042 0.0653721 -1.29822e-20)
(1.12904 -0.0642705 -1.51683e-20)
(0.256962 -0.978962 -2.21083e-20)
(0.997548 0.00440312 2.52018e-22)
(-0.0655967 -0.00580984 -2.99378e-20)
(1.07355 0.0300463 0)
(0.112849 -0.0316641 0)
(0.531547 0.230867 -6.62897e-20)
(0.988883 0.019705 1.86157e-22)
(1.02665 0.0427905 0)
(0.0528293 0.00166951 -1.73221e-21)
(1.25732 0.0350612 -1.09667e-20)
(1.02827 0.000960799 6.32828e-21)
(1.10808 -0.0608603 -2.45511e-20)
(0.987429 0.0119478 0)
(0.585143 -0.0597937 -7.63249e-21)
(1.06545 -0.0763202 1.44266e-20)
(1.00576 0.103786 -1.53749e-21)
(-0.100274 0.00505462 1.6664e-20)
(0.114292 0.00759983 8.60462e-21)
(0.74868 0.103963 0)
(0.178612 -0.0241723 0)
(0.787595 0.0600763 4.56965e-20)
(0.981819 0.0941709 -7.31041e-21)
(1.07647 0.0343802 -1.82182e-20)
(1.00353 0.0136298 -1.76693e-21)
(0.915377 -0.00113725 -6.78067e-21)
(0.677229 0.141089 2.50283e-20)
(1.10198 -0.0353609 -4.34101e-21)
(0.0948215 0.00220083 0)
(1.16001 0.116387 -1.20762e-21)
(1.01938 0.0110459 0)
(1.11364 -0.0379962 0)
(1.02865 0.000310349 0)
(0.0608433 -0.00491723 0)
(0.262133 0.828922 2.78664e-20)
(0.986981 0.0231578 9.04566e-21)
(0.939259 0.0297112 1.14895e-20)
(0.00791735 0.00758463 -1.33962e-20)
(1.11774 0.0223067 0)
(0.0487587 0.213267 0)
(1.11767 0.101766 0)
(1.27645 0.0419413 0)
(0.930351 0.151872 7.60681e-21)
(0.439269 0.995386 0)
(1.02095 0.00754271 2.28325e-21)
(0.994519 0.00453208 0)
(-0.275492 -0.00521976 0)
(0.999978 0.00135865 -1.66905e-21)
(0.994749 0.0415417 -1.34127e-22)
(0.946697 0.0826589 3.20464e-22)
(1.11209 -0.0324097 0)
(-0.12833 -0.0071076 0)
(0.249241 -0.11313 9.06457e-20)
(1.09512 0.0439421 0)
(0.999946 0.00132411 -3.99998e-21)
(-0.0858044 0.00219566 0)
(1.10488 -0.0467074 5.79958e-23)
(1.02074 0.00728864 9.54216e-22)
(0.981211 0.018821 0)
(1.01398 0.000521819 -1.80267e-21)
(0.857294 0.329334 -2.51773e-20)
(1.00992 0.0130511 1.46255e-22)
(0.186051 -0.027798 0)
(0.810781 -0.0782557 -2.09432e-20)
(-0.0437072 -0.0144632 -2.47128e-20)
(0.699376 0.0502175 0)
(1.09692 0.0440767 -4.84171e-21)
(1.13978 0.168645 2.16997e-20)
(0.968911 0.0264138 -7.09176e-21)
(1.03035 0.00589578 -4.45886e-21)
(1.23915 -0.0288663 4.52579e-20)
(0.235123 -0.12609 -9.48912e-20)
(-0.266639 -0.00846009 1.00981e-19)
(1.00001 0.000804524 2.50884e-21)
(1.00287 0.00492447 8.52481e-22)
(0.018128 0.0123019 -3.90651e-20)
(1.13433 -0.00943759 4.5286e-20)
(0.934805 0.477013 -1.00557e-21)
(1.11544 -0.0679017 2.00966e-20)
(1.0014 0.00763433 -9.10341e-22)
(0.460309 -0.0534852 1.61895e-20)
(1.04358 0.0382047 -5.88165e-21)
(0.845043 0.00442702 -1.74989e-20)
(0.879165 0.0362586 0)
(0.796197 1.01126 6.33383e-21)
(1.01384 0.0265138 -2.46144e-22)
(0.948317 0.291081 -2.6597e-21)
(1.07011 0.0528589 9.16368e-21)
(0.962687 0.0624339 -2.59307e-21)
(-0.0249773 0.00983575 -5.93945e-20)
(0.971578 0.0283846 0)
(0.0207033 -0.0048355 1.22425e-20)
(0.466409 -0.0618865 -1.78891e-20)
(1.14383 0.0916533 2.2276e-20)
(1.00974 0.00872 3.82804e-23)
(0.974372 0.053127 0)
(1.09828 0.445516 0)
(1.14165 0.061849 3.78631e-20)
(1.10344 -0.0247773 1.36805e-20)
(0.999207 0.0129095 3.76598e-21)
(1.03439 0.0176552 0)
(-0.0944319 -0.0139702 1.32969e-20)
(1.23053 0.00649383 0)
(1.10292 -0.0218702 6.32268e-21)
(1.11878 -0.0623494 -1.03432e-20)
(1.11164 0.00276588 -2.50944e-20)
(1.01951 0.0108766 7.02454e-22)
(0.960666 0.062983 0)
(0.993594 -0.00036293 3.20217e-21)
(0.982334 0.0219685 3.81888e-21)
(1.00426 0.00798441 0)
(1.03211 0.00493549 3.15824e-21)
(1.00272 0.00477362 4.16526e-22)
(-0.317295 -0.000644979 -8.83395e-21)
(0.997872 0.0237732 2.99752e-21)
(0.977933 0.0388149 1.33061e-21)
(1.00726 0.102319 1.0028e-21)
(1.22546 0.18158 -1.86738e-20)
(1.0979 -0.0762019 0)
(-0.0699358 0.00654155 0)
(0.191387 -0.00568338 1.52973e-21)
(1.06572 -0.00549779 -5.85766e-21)
(0.967602 0.146816 8.17684e-21)
(0.0939393 -0.0142897 8.05381e-21)
(0.996881 0.0117161 0)
(1.10134 0.0338467 -5.2792e-21)
(1.01409 0.0260975 2.1522e-22)
(0.997708 0.0047586 6.15993e-21)
(1.01142 0.0306203 -8.3259e-22)
(1.09628 -0.0366531 1.41997e-20)
(1.01129 0.0194034 0)
(1.09968 0.16664 1.01971e-20)
(-0.313015 -0.000651788 -1.54965e-20)
(1.08585 -0.0267941 -4.57869e-21)
(0.993785 -0.000748797 2.26754e-21)
(1.00346 0.0139553 1.82601e-21)
(0.988446 0.0116291 -5.64759e-21)
(1.09229 0.0451273 8.25125e-21)
(1.02872 0.000548102 3.39266e-21)
(-0.312271 -0.000758404 1.19449e-20)
(0.998764 0.0122454 -2.23627e-21)
(1.11291 -0.00587058 -9.44877e-21)
(1.13195 -0.0639997 -6.74566e-21)
(0.677831 -0.0731043 1.96139e-20)
(1.0476 0.0178556 -3.76857e-21)
(-0.130257 -0.00826015 2.01152e-20)
(1.094 -0.0285381 -1.2809e-20)
(1.09651 -0.0473075 4.775e-21)
(1.05055 0.0150114 -1.09956e-20)
(1.17086 0.0805522 1.00046e-20)
(-0.0607998 -0.016241 0)
(1.01935 0.00127931 -1.50656e-23)
(1.11291 0.00198933 1.71266e-20)
(1.14458 0.0892484 -2.21402e-20)
(1.11499 0.102463 8.21657e-21)
(0.972949 0.372354 -3.38436e-22)
(1.23383 0.00432053 2.87577e-20)
(-0.0426277 0.00918631 8.00594e-20)
(1.0941 0.0793236 -6.59234e-20)
(0.984002 0.0952301 7.93252e-21)
(1.00649 0.133991 0)
(1.12693 -0.0177194 1.82674e-20)
(-0.253279 -0.00363336 -2.26824e-20)
(1.03093 0.0387038 -2.47084e-21)
(1.03055 0.0396942 2.71279e-21)
(1.02988 0.00585255 5.52773e-21)
(1.01155 0.0191387 0)
(-0.0880789 -0.00285983 -2.0551e-20)
(1.00947 0.132692 0)
(1.06359 -0.00167007 5.67683e-21)
(1.29857 0.202067 -2.52809e-20)
(-0.151903 0.024626 0)
(0.992578 0.0530549 3.57776e-21)
(-0.137222 -0.0121107 4.21427e-20)
(0.949605 0.0823121 8.34493e-21)
(-0.137742 0.00749291 -8.02113e-20)
(1.20139 -0.0123392 -1.81568e-20)
(0.996547 0.000498361 1.26347e-21)
(-0.259208 -0.00823488 -9.22246e-20)
(1.06442 -0.00222601 6.12628e-21)
(1.00148 0.074215 3.02409e-21)
(1.22649 -0.0086014 0)
(0.467092 -0.0486182 -3.65699e-21)
(0.761674 -0.0525058 -1.78967e-20)
(1.13083 -0.055115 -1.88761e-20)
(-0.237581 -0.00756965 -3.69158e-20)
(0.945354 0.00592461 7.00353e-21)
(1.2234 -0.00831049 0)
(1.00848 0.236066 1.33009e-21)
(1.00001 0.000214716 0)
(1.02238 0.0067029 0)
(1.02401 0.02755 2.30407e-21)
(0.993722 -0.0717894 0)
(0.996644 0.0116255 -3.02089e-21)
(1.00131 0.00783676 0)
(1.19309 0.131851 -6.52598e-20)
(0.999856 0.0746402 1.47615e-22)
(0.618918 -0.0608458 0)
(1.1195 -0.0631085 6.39347e-21)
(-0.150262 0.0139596 0)
(0.973543 0.0279871 1.0368e-22)
(0.980774 0.0080706 0)
(-0.212198 -0.00249425 0)
(1.09383 -0.0579523 -1.72985e-21)
(1.00001 0.00016409 0)
(1.08278 0.0574255 8.02617e-21)
(1.10352 -0.0227641 -2.17211e-20)
(0.997653 0.00498656 -8.12811e-21)
(1.2017 0.14879 -1.94227e-20)
(-0.267044 -0.00185292 0)
(1.09411 0.0454753 -8.89878e-21)
(0.998236 0.00928769 3.22207e-21)
(1.10706 0.332872 -1.69469e-20)
(0.40315 -0.514778 -2.56675e-21)
(0.934521 0.152287 -1.29697e-20)
(0.981326 0.366711 5.85101e-22)
(0.00505848 -0.00496547 -2.52573e-20)
(1.12299 -0.0447925 -8.37292e-21)
(1.02201 0.00654725 0)
(-0.315154 -0.00113695 1.36997e-19)
(1.08648 -0.00944161 -6.44583e-21)
(1.17201 0.04715 2.60349e-21)
(0.99466 0.0406309 1.15493e-22)
(0.627421 -0.0709752 -1.97621e-20)
(1.11412 -0.0682347 9.29509e-21)
(1.00003 0.000544695 -2.65628e-21)
(-0.321966 0.00316505 -7.92237e-20)
(0.984679 0.00312971 -7.2718e-21)
(0.970298 0.0280339 0)
(1.01942 0.0251294 0)
(0.993935 0.00254329 0)
(-0.181916 0.00704515 -9.40537e-20)
(-0.0836032 -0.00493558 0)
(1.02087 0.0067778 -3.0033e-21)
(1.02384 0.00239048 6.14218e-22)
(1.0057 0.0995939 0)
(0.914182 0.140722 2.77471e-21)
(0.714669 -0.0978857 4.71591e-21)
(1.1145 -0.0631113 2.92774e-20)
(-0.299081 -0.00219809 7.23124e-20)
(1.16945 0.0644363 0)
(0.205508 -0.0313252 1.15106e-20)
(-0.291014 0.00362339 0)
(-0.299444 -0.000223065 2.33852e-20)
(0.203246 -0.0294464 2.14899e-20)
(0.980909 0.00743293 0)
(1.00344 0.00781019 0)
(1.04103 0.0778889 -8.39598e-21)
(0.215364 0.00480046 0)
(1.04458 0.0377762 -3.16917e-21)
(0.993748 0.00278497 0)
(1.02102 0.00705508 8.87805e-22)
(0.799165 -0.075691 0)
(-0.326785 -0.000598737 0)
(1.00514 0.0130368 1.35852e-21)
(0.9847 0.0284781 -3.86801e-21)
(0.999979 0.000626098 2.34779e-21)
(0.0562068 -0.00579739 -1.03859e-22)
(1.0733 0.1569 0)
(0.337345 0.614144 0)
(1.04548 0.0362586 9.65382e-23)
(1.09969 -0.0491478 0)
(1.07158 0.0303319 -8.39626e-21)
(1.14417 0.170268 4.85002e-22)
(1.15871 0.0162269 3.4966e-20)
(1.00773 0.00776408 0)
(0.22434 0.00549132 1.82399e-21)
(1.04742 0.0183725 0)
(1.10677 -0.0588587 0)
(0.982884 0.0253758 0)
(0.991883 0.0543165 0)
(0.986233 0.0370107 -3.86393e-21)
(0.203819 -0.0520204 1.29601e-20)
(0.062937 0.329666 -5.67223e-20)
(0.0604784 0.260084 0)
(0.996692 0.000657867 0)
(0.479246 -0.054383 -1.47112e-20)
(0.164767 -0.0222756 0)
(0.944315 0.00530865 2.1389e-21)
(-0.275861 0.00496226 5.98396e-20)
(1.09996 -0.0578953 2.50279e-22)
(1.10047 -0.0540874 7.4406e-21)
(1.00325 0.00759633 2.2257e-21)
(0.985829 0.0121135 -3.97952e-22)
(0.987927 0.0114367 0)
(1.26169 -0.0215005 2.22751e-20)
(0.55913 -0.0339101 -2.57029e-20)
(1.09629 -0.0298215 -2.02924e-20)
(-0.181369 0.00711214 6.86909e-20)
(1.00005 0.0032305 4.03547e-21)
(0.985722 0.00610273 0)
(1.10962 -0.00482636 -1.13126e-20)
(1.10777 0.062296 -1.2602e-20)
(1.01605 0.0258609 2.50517e-23)
(-0.244779 -0.00227814 -2.67149e-20)
(1.02636 0.0972588 4.97719e-22)
(1.09427 -0.0585111 0)
(0.502415 -0.0889267 0)
(-0.136117 -0.00215435 -4.43614e-20)
(0.0810761 -0.00575348 4.44713e-23)
(0.0314727 0.0578592 1.63613e-20)
(1.14456 -0.0655747 0)
(0.984918 0.0026535 9.29345e-21)
(1.02169 0.00672184 0)
(1.07682 0.00465361 -6.51083e-21)
(0.983318 0.0295689 -8.33574e-21)
(0.87264 0.0896359 -6.19719e-21)
(0.0373157 0.0138752 0)
(0.985742 0.011356 0)
(-0.223894 0.00399061 -8.23882e-20)
(1.20818 -0.00975704 2.52133e-20)
(-0.228679 -0.00255489 0)
(1.07159 0.0513275 6.76278e-21)
(0.773255 -0.0763904 9.37621e-21)
(1.09044 0.139551 -1.45252e-20)
(0.513497 -0.900501 1.15212e-21)
(1.06375 -0.005252 0)
(1.0013 0.00760958 9.31536e-22)
(0.860374 -0.0419211 0)
(0.97964 -0.00268803 -2.20516e-21)
(1.07628 0.0355488 1.56653e-20)
(0.950834 0.480001 -3.49532e-21)
(1.21435 0.372742 -1.99262e-20)
(0.0593479 0.0727637 3.84832e-20)
(1.1166 -0.068202 0)
(-0.23318 0.0101092 8.98301e-21)
(0.197146 -0.0523982 5.32589e-21)
(1.07926 0.145815 0)
(0.998989 0.0127761 -4.20573e-21)
(0.21244 0.00443004 0)
(1.02443 0.00259038 4.60583e-21)
(1.24247 -0.0308984 -2.58249e-20)
(-0.289209 -0.00256216 4.49625e-20)
(1.0143 0.00033666 1.21402e-22)
(1.06524 0.0834288 -2.64158e-21)
(1.1143 -0.0675584 -5.36692e-21)
(0.177408 -0.0244318 -6.78555e-21)
(0.977075 0.0536375 -9.74039e-21)
(0.999969 0.0010029 1.78856e-21)
(0.859724 -0.0741049 0)
(-0.17636 -0.0019554 0)
(-0.213242 0.0018071 5.18171e-20)
(0.994759 0.0327366 0)
(0.16225 0.110645 -1.7937e-21)
(1.01966 0.0394775 -1.42194e-22)
(1.12902 -0.071054 -7.98255e-21)
(1.0846 0.141975 -1.31917e-20)
(1.05802 0.0275058 7.30329e-22)
(0.93355 0.286567 0)
(0.117427 -0.00908513 0)
(1.03187 0.0387695 0)
(0.982898 0.0270776 -9.4404e-22)
(0.994806 0.0321192 0)
(1.01856 0.026592 0)
(1.15476 -0.0546943 0)
(0.355678 -0.0463221 -1.9732e-20)
(0.128855 -0.0450314 -1.97266e-20)
(-0.225007 -0.00659924 -1.24475e-20)
(1.00257 0.00752742 1.26076e-21)
(-0.079771 -0.00670498 -8.42541e-21)
(1.10552 0.0623014 0)
(1.2 0.0319133 2.24799e-20)
(1.31924 0.0919469 4.27877e-20)
(1.0772 0.0191126 0)
(-0.316441 -0.0011079 -4.40011e-20)
(0.945544 -0.000609886 -1.43784e-20)
(0.96883 0.0582947 0)
(0.642574 -0.0632045 0)
(1.29709 0.196461 -4.70062e-22)
(1.14349 -0.0415012 -1.19076e-20)
(0.980462 -0.0695815 3.3085e-20)
(1.05197 -0.0771223 -7.77763e-21)
(1.06897 0.199671 1.4084e-20)
(-0.323682 0.00158607 -1.23432e-21)
(1.10961 -0.0611442 -2.26951e-20)
(0.965376 0.00503238 -9.64615e-21)
(0.638201 -0.0635381 0)
(0.868851 0.0321501 2.36233e-20)
(1.10868 -0.00369165 0)
(0.893922 0.0540991 -4.07691e-20)
(0.904365 0.0693293 -7.83158e-21)
(1.08792 0.142014 1.06215e-20)
(0.95734 0.0619668 6.62911e-21)
(0.84368 0.00921723 0)
(1.1317 -0.0544691 1.05572e-20)
(0.883361 0.079183 0)
(1.07267 -0.0110539 0)
(1.08356 0.00602212 3.11344e-21)
(1.09652 -0.0464102 9.28869e-21)
(1.06852 -0.00421374 4.27125e-21)
(0.989241 0.0191535 -1.72281e-22)
(0.972962 0.0252787 5.82493e-21)
(0.993986 0.0315731 0)
(0.964105 0.00834579 -9.12943e-24)
(1.14434 -0.0663351 -1.35313e-20)
(0.467966 -0.67018 -1.45466e-20)
(1.04364 0.0393023 5.17583e-21)
(1.02941 0.026772 1.1622e-21)
(1.01795 0.198555 0)
(-0.225733 0.00779181 3.44134e-20)
(1.00023 0.000240721 2.37986e-21)
(1.00691 0.0980288 2.05123e-21)
(0.824041 0.212174 -4.08109e-20)
(1.13106 -0.0645319 0)
(0.999963 0.00135809 9.77345e-22)
(1.00696 0.0491755 7.10091e-22)
(1.06841 -0.00498601 0)
(1.13055 -0.0265712 -9.33187e-21)
(1.0283 0.0758826 -1.7289e-21)
(1.00776 0.0318308 -1.96238e-21)
(1.00902 0.0120926 0)
(-0.0811544 0.00532968 1.97631e-20)
(0.200547 -0.0420028 0)
(1.25688 -0.0266977 0)
(1.01243 0.135257 5.20538e-23)
(0.999947 0.00150845 1.02358e-21)
(1.00257 0.00478218 -8.56643e-22)
(0.915697 0.10668 -8.43399e-21)
(0.99356 -0.00105256 1.73898e-21)
(1.00054 0.0147505 -1.48776e-21)
(1.06343 0.0832795 -5.11481e-21)
(0.0346835 -0.00640789 0)
(1.13501 -0.00761677 -4.38647e-23)
(0.860307 -0.0681108 0)
(1.00269 0.00922199 0)
(1.02475 0.0963348 0)
(0.753492 0.236256 -1.15711e-20)
(0.482433 -0.0491967 4.29919e-21)
(0.941183 0.284225 -7.36094e-21)
(-0.281866 0.00067468 -2.9611e-20)
(1.09376 -0.0720935 -2.14457e-20)
(0.371688 0.917726 -1.50968e-20)
(1.03154 0.00503501 -2.10645e-21)
(1.00251 0.00483388 9.08264e-22)
(-0.207021 -0.00323971 2.4709e-20)
(1.07597 0.341283 1.68736e-20)
(1.09095 0.136542 2.47817e-22)
(1.16343 0.115703 -1.31781e-20)
(0.420902 -0.0611966 0)
(0.219306 0.0058093 -7.49429e-21)
(0.696171 0.412644 -4.59139e-20)
(1.02544 0.0517962 -1.9941e-21)
(1.14854 -0.0531809 -1.33937e-20)
(-0.211051 0.00919679 1.76408e-21)
(1.06691 0.0802376 2.63106e-21)
(0.52556 -0.020294 0)
(1.11524 0.202648 0)
(1.31201 0.0638145 2.08577e-20)
(-0.208112 0.00471222 4.71799e-20)
(1.18017 0.306119 -2.18127e-20)
(1.13581 0.171606 1.72976e-20)
(0.944542 0.000252315 1.79049e-20)
(0.984483 -0.0747114 0)
(1.02886 0.0269841 -5.80361e-23)
(0.0479001 0.0703157 0)
(1.08322 0.0592981 4.16862e-22)
(1.00954 0.00836687 6.12136e-23)
(1.01601 0.042942 4.24201e-22)
(1.02138 0.00653232 1.17717e-21)
(-0.329366 -0.000802103 0)
(1.03547 -0.000182729 0)
(1.19829 0.0898425 1.67779e-20)
(0.986393 0.0122761 0)
(0.917427 0.143295 2.65355e-21)
(1.1998 -0.0340289 2.52464e-20)
(1.01506 0.133847 1.34045e-22)
(0.995867 0.0135508 0)
(-0.0917312 0.00974117 2.42305e-20)
(0.584336 -0.210303 -7.10897e-21)
(1.00296 0.00743291 -3.2073e-22)
(1.03219 0.0377773 0)
(0.446864 0.0528186 1.93841e-20)
(1.13368 -0.00655433 -4.87636e-23)
(1.09779 0.00831072 0)
(1.09746 -0.060278 0)
(1.08095 0.0132477 -1.04887e-20)
(0.966042 0.0874294 6.48169e-21)
(1.02372 0.0132817 0)
(1.09975 -0.0647393 -7.6473e-21)
(0.110486 -0.0421378 1.52488e-20)
(0.151944 -0.0444395 0)
(-0.0872682 0.00970161 4.7338e-20)
(1.06766 0.338861 -2.63576e-20)
(1.19959 0.087474 1.79501e-20)
(0.829393 0.21807 2.10841e-20)
(1.18642 0.310741 0)
(0.944521 0.0363547 0)
(0.717448 -0.0755851 -1.21723e-20)
(0.0636753 0.061899 2.9996e-20)
(1.20548 -0.00975839 -4.07622e-20)
(0.999901 0.0155747 -2.14298e-21)
(0.986172 0.0937786 7.19777e-21)
(0.490221 0.0787645 -3.70389e-20)
(1.00653 0.0500097 0)
(0.93545 -0.0741722 0)
(-0.218101 0.011628 -9.38011e-21)
(1.23735 0.0892927 -4.65242e-20)
(0.993899 0.00184094 7.71864e-22)
(0.767622 0.220027 0)
(1.01954 0.0385938 -1.90828e-22)
(0.915587 0.204718 -1.13233e-20)
(-0.300112 -0.00225142 -5.48042e-20)
(0.993969 0.030844 -4.44402e-21)
(1.13267 -0.0718838 0)
(0.688749 -0.0287023 2.46527e-20)
(0.992099 0.00526727 -2.50735e-22)
(1.00142 0.160908 2.07332e-21)
(1.07157 0.153006 -1.24608e-20)
(1.02106 0.00150118 1.03279e-21)
(1.07125 0.12554 -1.32406e-20)
(0.222189 -0.0448358 3.16607e-21)
(1.10368 -0.0207166 -1.41999e-20)
(1.09065 -0.0271743 3.03451e-21)
(-0.211933 0.00720843 -1.01024e-20)
(1.12926 -0.026057 0)
(0.975541 0.0542786 5.36417e-21)
(0.919686 -0.0132659 3.08282e-21)
(1.00892 0.0118746 -1.56553e-22)
(0.867709 0.0892549 0)
(1.02333 0.0133332 0)
(0.993854 0.00120234 -3.23868e-21)
(-0.173892 -0.0104066 -1.92579e-20)
(1.11313 -0.00291422 6.2681e-21)
(0.91623 0.00489062 -1.33771e-20)
(1.05133 0.0438652 0)
(1.02008 0.00585593 1.25509e-21)
(1.05159 0.0448333 -4.70687e-21)
(1.03124 0.000568451 4.05831e-21)
(0.511356 -0.0810881 -3.79998e-20)
(0.472164 0.10332 0)
(0.989639 0.0717351 6.68445e-22)
(1.1155 -0.0685142 -2.85677e-21)
(0.129294 -0.00590633 -2.19305e-20)
(1.01044 0.00857922 -1.6842e-22)
(1.10971 0.324367 1.56688e-20)
(1.00135 0.0142333 -1.05794e-22)
(1.07214 -0.0117347 7.40351e-21)
(1 0.00151818 0)
(0.964077 0.0114264 -8.12592e-21)
(0.106189 -0.0163024 0)
(0.945532 0.0927921 0)
(-0.303775 -0.00363967 -6.87865e-22)
(0.983385 0.0277894 0)
(0.958207 0.0319594 1.05837e-20)
(1.28892 0.0316016 4.74654e-21)
(0.687084 -0.0744038 1.26927e-20)
(0.996671 0.000173978 7.51584e-21)
(1.00131 0.130077 4.08038e-22)
(-0.148613 0.0152729 -1.22643e-19)
(0.000710405 0.0482498 -9.30122e-20)
(0.999991 0.00133941 0)
(0.044776 0.0642385 -6.51902e-20)
(1.08215 -0.0106825 -1.33181e-20)
(0.916637 0.20936 -5.86971e-21)
(1.20941 -0.00669425 -5.26571e-21)
(0.917914 -0.0123933 0)
(-0.241602 -0.00167897 0)
(0.907338 0.0696398 8.73583e-21)
(0.988513 0.0122331 5.27217e-21)
(1.00771 0.0325752 1.78663e-21)
(1.00814 0.00767045 0)
(0.958198 0.0330469 -1.17836e-20)
(0.987887 0.0712504 6.3762e-22)
(0.101319 0.00541299 0)
(0.59513 0.0603225 0)
(1.10297 0.0379846 0)
(1.32987 0.171905 -2.81144e-20)
(0.834263 0.308572 0)
(0.889745 -0.0693314 1.17023e-20)
(1.06785 0.129598 4.63771e-21)
(0.998788 -0.000270957 -4.03154e-21)
(1.09531 -0.0297719 1.31287e-20)
(0.388313 -0.0580072 0)
(1.08944 0.0751298 -1.07855e-21)
(1.10296 -0.0198461 0)
(1.09083 0.0496647 1.25738e-20)
(-0.200058 0.00584326 -7.3142e-20)
(1.15464 -0.066232 0)
(0.968638 0.0814733 0)
(1.07039 0.127964 4.87902e-21)
(0.945477 0.00886037 0)
(-0.235852 0.00508501 -6.63796e-20)
(0.996488 7.63701e-05 -9.5761e-21)
(0.489123 0.0662339 0)
(1.01971 0.0237871 -1.78897e-21)
(1.003 0.132121 -8.66515e-22)
(0.954522 0.0648151 1.49195e-20)
(1.14202 0.0503627 -1.21657e-20)
(0.967746 0.0885687 -4.23728e-21)
(0.835894 0.316924 -1.16435e-21)
(0.912693 0.10828 0)
(0.921347 0.275386 -9.81075e-21)
(1.03107 0.00551866 2.04868e-21)
(1.18262 -0.0382442 -2.58301e-20)
(1.12911 -0.0536031 -1.3764e-20)
(1.07513 0.12519 -3.36246e-22)
(1.02087 0.00150735 0)
(1.09728 -0.0451017 -9.66933e-21)
(0.196424 -0.00966888 8.91066e-21)
(1.20268 0.36248 3.76775e-20)
(1.01496 0.00279707 -1.52208e-23)
(0.914903 0.00320202 0)
(0.199946 0.823095 -1.5519e-20)
(1.09905 -0.0766983 8.30839e-21)
(1.28323 0.0491629 1.38046e-20)
(0.97883 0.019301 -4.00605e-21)
(1.14329 0.0634884 -2.90519e-20)
(1.00005 0.00117695 0)
(1.0562 0.193811 -4.86349e-21)
(1.14306 -0.0653462 8.78485e-21)
(0.299763 -0.311521 2.88485e-20)
(1.08253 0.00630004 9.14257e-21)