/*--------------------------------*- C++ -*----------------------------------*\
| =========                 |                                                 |
| \\      /  F ield         | OpenFOAM: The Open Source CFD Toolbox           |
|  \\    /   O peration     | Version:  v2012                                 |
|   \\  /    A nd           | Website:  www.openfoam.com                      |
|    \\/     M anipulation  |                                                 |
\*---------------------------------------------------------------------------*/
FoamFile
{
    version     2.0;
    format      ascii;
    class       volScalarField;
    location    "300";
    object      ddt0(k);
}
// * * * * * * * * * * * * * * * * * * * * * * * * * * * * * * * * * * * * * //

dimensions      [0 2 -3 0 0 0 0];


internalField   nonuniform List<scalar> 
27802
(
4.43586e-07
4.46102e-09
2.1164e-07
-1.07996e-09
0.00137871
2.17757e-08
3.54907e-07
-1.24246e-08
-9.3561e-07
4.28409e-09
1.15235e-09
0.000769185
-0.00010857
-8.81394e-07
-3.93308e-09
3.51218e-07
4.33454e-09
0.0010499
-0.020409
-8.79129e-07
3.56519e-09
1.88721e-09
5.74675e-07
-8.09199e-07
3.04299e-09
1.67917e-08
1.69671e-08
4.55601e-09
2.92029e-09
-0.000537491
1.24788e-08
-1.09995e-06
0.000536766
-5.42489e-06
0.000520776
2.84119e-09
6.85736e-06
0.00343872
1.35926e-08
-3.47684e-10
-1.41262e-08
-2.54039e-09
0.000127526
2.44931e-05
-2.10452e-08
-4.43056e-09
-1.41317e-06
2.10836e-08
-4.24006e-08
-2.51337e-06
3.86431e-09
-3.25781e-08
0.000235658
6.61976e-09
1.12924e-08
3.04989e-08
-5.31862e-05
-9.17097e-07
7.75658e-08
-0.000150651
2.77817e-09
6.88936e-08
-0.00120746
5.80517e-07
0.00112565
-5.48326e-07
0.00030037
-8.58937e-09
0.000592708
-7.1467e-07
1.20242e-09
-1.25747e-06
0.0133077
-1.34318e-06
0.000257102
1.42788e-09
0.00184267
0.0002595
-2.46501e-06
2.54589e-07
0.000443996
1.45393e-05
-3.74856e-08
-9.47699e-07
-3.31571e-08
1.6153e-08
1.9009e-09
1.4931e-08
-1.33738e-06
-1.33303e-05
0.00168839
5.50626e-08
-2.01547e-05
2.30999e-07
4.12324e-09
1.93402e-08
-1.89639e-08
0.00127945
-1.38652e-08
-1.33056e-06
2.00027e-05
-1.35275e-08
1.19879e-08
4.10651e-09
-4.5362e-06
5.9567e-08
-3.71135e-05
-9.90492e-07
3.70108e-09
-4.95536e-08
3.24237e-07
-4.14246e-09
-1.34758e-08
1.28347e-05
-5.40602e-09
-3.49951e-06
6.56571e-08
5.48525e-10
-8.53568e-09
-8.11921e-07
-1.51637e-05
0.00156985
-6.69173e-08
1.96211e-09
1.94666e-09
4.34013e-06
4.04549e-06
0.000199534
0.000118587
-2.37502e-05
1.22468e-08
-6.50394e-08
1.84293e-08
3.41018e-09
-4.23619e-08
2.24617e-08
1.10521e-07
-3.82279e-08
1.57176e-06
5.86567e-07
-1.00354e-08
1.72855e-08
3.383e-06
-6.85544e-09
-7.1816e-09
2.22969e-08
1.06425e-07
-1.69874e-08
-1.4263e-08
-2.32406e-08
1.42968e-09
2.11486e-08
5.66278e-09
-1.22403e-08
-7.23075e-07
-2.91007e-08
-1.06411e-05
-7.12257e-07
-4.94846e-08
1.20628e-06
4.41188e-06
-1.36609e-06
1.56126e-08
-6.59342e-09
4.99686e-09
-1.30684e-08
7.80703e-10
3.12204e-08
-5.1229e-09
-9.79188e-07
3.74863e-09
7.44302e-08
2.03618e-08
0.00430013
1.53882e-08
0.00135538
-1.30119e-08
-1.12944e-08
-3.92643e-08
8.11665e-06
-7.66076e-07
-7.62599e-08
-4.79942e-08
2.23395e-08
2.26829e-08
7.15605e-08
-2.73985e-08
1.94882e-08
3.32206e-06
-0.000717905
4.81311e-10
2.03789e-08
2.81314e-07
8.88866e-09
2.35104e-08
2.0953e-09
2.34668e-08
-2.52496e-08
-8.70145e-09
2.12076e-08
0.000229946
-0.00839756
3.2613e-05
2.10465e-08
3.08036e-09
-6.57168e-08
6.44078e-09
6.36463e-05
4.73769e-08
-0.000143162
3.35195e-09
-0.000952646
0.00154229
-9.59413e-09
3.39809e-06
8.40911e-09
-0.002071
1.75291e-07
2.08386e-08
3.24411e-08
0.000149517
1.63964e-08
7.73925e-08
2.17391e-06
2.73699e-08
-4.07826e-08
-3.77324e-08
-1.42571e-09
-4.70301e-09
-1.37258e-08
1.43303e-08
-0.000152563
1.82274e-08
-2.11092e-08
-0.0272838
8.44354e-07
-2.41343e-09
-2.69424e-05
0.000657223
-1.55729e-05
-1.98385e-08
0.00253291
0.00308871
-2.69193e-10
4.75538e-09
0.000647484
-3.43621e-08
-0.00197139
1.21062e-07
1.89354e-07
-1.26356e-05
-4.01367e-08
4.18886e-07
-1.98897e-08
6.91816e-09
2.50251e-08
-3.17192e-08
8.83942e-06
2.26062e-08
1.80498e-08
-4.12343e-08
-1.24932e-08
0.000382486
3.46684e-08
0.000608665
-1.17385e-08
0.000140356
-1.35884e-08
1.67175e-08
1.44214e-08
-6.07733e-07
2.77175e-09
4.48741e-07
-1.48061e-06
9.17779e-09
-1.85289e-06
-2.0528e-08
-4.1767e-08
-9.43878e-09
-4.14295e-08
-0.000445339
-2.13033e-08
-1.65038e-07
7.55535e-06
1.59477e-06
-0.000179579
1.75076e-06
2.19428e-08
1.48826e-09
7.04398e-09
3.10742e-08
-5.95308e-06
1.98739e-08
0.00581757
1.78298e-08
-1.20678e-06
-3.53237e-06
-1.71023e-08
-0.000133482
-5.43791e-05
-5.73569e-07
1.99555e-08
-5.43673e-07
1.18892e-06
-0.025143
1.16398e-06
-1.0776e-08
0.000765453
9.54981e-07
-2.00784e-08
-1.45034e-08
9.33853e-08
-2.62048e-07
3.64067e-09
1.35107e-06
3.42836e-09
-2.54932e-08
4.06226e-07
-5.36729e-08
-8.34303e-07
-4.00235e-10
3.96035e-09
5.74428e-09
-7.54531e-09
-3.52411e-05
-2.49148e-08
0.000401634
-3.45862e-08
3.27113e-09
-2.3441e-08
9.5231e-08
1.28351e-05
0.00012688
-4.35667e-06
1.84051e-06
0.0028736
-2.65668e-07
2.29391e-08
-3.13378e-07
3.54071e-09
5.74807e-09
0.00108963
0.0140283
-3.42322e-06
-1.41899e-06
-4.01075e-05
-1.19185e-06
0.00263424
4.76223e-08
-1.40734e-05
-1.42675e-08
0.00124001
4.79812e-10
4.17375e-09
5.5304e-08
1.29422e-07
-0.00108442
-1.25895e-05
5.57941e-09
-3.88147e-08
-2.932e-05
-0.0161564
-6.0134e-08
-1.47072e-07
2.24382e-08
-8.30975e-10
0.00200824
2.18647e-08
-2.07847e-08
1.21472e-08
2.69564e-08
-1.27743e-06
-1.57494e-07
-1.08275e-06
0.000459893
0.000230422
-1.23543e-07
3.71804e-07
8.54105e-08
-3.48441e-09
1.85878e-08
2.10175e-08
5.1878e-08
1.08402e-07
8.33745e-09
1.82134e-09
-1.45254e-06
-9.06194e-07
-2.90975e-05
5.58536e-07
4.97371e-08
6.45546e-09
7.37606e-07
-5.3002e-08
-8.87343e-09
6.8857e-05
0.000330476
-2.98724e-07
1.14111e-08
2.62127e-07
0.00106211
-4.74441e-08
5.34057e-08
-6.64855e-07
-5.48777e-09
0.00276166
-4.08662e-08
-3.50774e-07
0.000403295
-1.48383e-07
-0.000111131
2.35852e-09
-3.83861e-05
0.000193679
0.000590893
2.10031e-08
-2.85989e-08
-2.29727e-08
-7.85528e-09
0.00242381
0.000223622
4.66379e-09
-1.0294e-06
1.81522e-08
-0.00195094
-1.56292e-08
4.87082e-07
0.000255002
9.59985e-06
6.15582e-09
3.71214e-09
-4.93318e-08
0.000370956
3.33198e-09
8.547e-09
-1.08284e-08
-4.10335e-07
9.76174e-06
-5.89316e-05
-5.15068e-08
1.39805e-08
-1.14655e-06
2.22925e-08
1.01998e-09
6.11176e-07
1.16901e-09
8.37083e-09
5.27958e-07
-2.84972e-07
-4.01561e-07
-0.00106077
0.0014778
-0.00178792
0.000496061
1.14016e-08
-2.07535e-08
-2.04223e-08
-2.38116e-05
-0.000802193
9.87137e-09
6.50194e-06
-4.23872e-05
-2.7658e-07
-4.41575e-08
4.39208e-09
6.85958e-09
0.000178576
1.01437e-09
-4.6776e-05
8.39763e-09
-4.58958e-09
1.49355e-09
3.86671e-08
9.09582e-07
-4.94848e-05
-0.0162777
1.27174e-07
4.64333e-05
5.41635e-09
1.69161e-08
-9.14253e-07
1.89245e-08
-3.32558e-08
4.65004e-07
-3.01824e-07
9.91216e-05
-1.97821e-07
1.20494e-08
-9.48218e-07
9.87125e-09
2.4588e-09
7.25701e-05
1.33424e-08
0.000516529
5.90425e-08
0.000995018
0.000123728
0.000138605
2.6576e-09
-4.60478e-06
0.000216054
-5.7418e-08
-0.00757223
9.82326e-07
9.00013e-05
-1.32544e-06
6.90611e-09
-5.02186e-08
-2.48159e-07
2.65992e-09
2.4742e-08
0.00502384
-2.66712e-07
-5.33682e-09
1.73619e-09
-2.14607e-08
0.000250046
1.61824e-06
1.00831e-08
-3.80889e-07
7.24775e-09
-0.00364905
-4.90254e-09
1.04297e-06
-4.03746e-06
2.12627e-09
2.10768e-08
6.53372e-09
-0.000327979
0.00106189
-5.55463e-07
0.0165811
5.24962e-08
1.53832e-08
0.00111261
-4.25565e-09
-2.01653e-07
1.20342e-09
2.12072e-08
-0.000147085
-3.14584e-05
8.47433e-09
1.12441e-07
6.93182e-08
-2.1726e-07
1.73817e-08
-1.58205e-08
-0.000555425
2.43907e-08
-1.38584e-07
-0.00020852
-5.22656e-07
-0.000649213
-0.000673094
-4.78459e-09
0.00100671
1.27625e-08
1.03206e-06
-1.0408e-05
1.291e-09
-3.79513e-09
0.000979316
5.88198e-09
4.02237e-10
2.03986e-09
-0.000144567
1.49477e-08
2.11979e-08
-1.10773e-06
-1.3945e-06
-1.41062e-06
-2.32293e-05
0.000541413
-5.65594e-08
-9.17052e-07
-1.14216e-08
0.000283873
2.2017e-08
9.15541e-08
-0.000318567
3.02967e-06
0.000169852
2.24721e-06
9.50461e-09
0.000427251
-1.27712e-07
3.02329e-09
0.000387112
-5.4514e-07
1.7646e-06
3.69097e-06
-3.96916e-07
4.01943e-09
-1.31566e-07
-1.24459e-07
4.78011e-09
-1.50576e-06
1.61472e-06
1.49272e-08
-1.15775e-07
2.08298e-08
-5.9149e-07
-3.89757e-05
9.16883e-09
0.00972914
-3.79495e-05
4.23703e-09
-1.13352e-08
6.7267e-09
0.0012292
-0.0167164
-0.0107446
-7.35555e-06
-1.01707e-06
0.000347046
-7.42136e-09
2.97498e-06
-1.08076e-07
0.000482688
0.000818467
2.00181e-08
2.55002e-06
-0.00656673
-3.76319e-06
9.58887e-09
0.0150352
-5.49254e-08
-0.00132258
1.73712e-06
-1.28558e-07
-2.68597e-05
0.00332204
-5.23099e-07
-1.05054e-08
-1.31209e-08
7.13942e-08
1.90231e-08
4.76595e-09
0.000875886
-1.01395e-08
-3.00181e-09
-3.26594e-09
-1.65125e-06
0.000429165
-1.5224e-06
7.14828e-09
0.0116754
-1.41075e-07
0.000589493
-9.56554e-09
9.72829e-06
-1.79515e-07
1.87879e-07
-0.000216245
-2.5349e-07
-0.00109864
2.81304e-09
-2.00779e-08
-8.2162e-08
2.21423e-08
9.38152e-09
1.02122e-07
-1.45412e-06
-1.12712e-05
1.31363e-08
-5.16629e-07
6.85188e-08
9.71086e-10
-5.00232e-06
-1.74064e-08
1.40917e-08
9.88668e-06
-1.0687e-05
1.89804e-09
4.59248e-10
1.40108e-08
1.06315e-08
4.72616e-07
8.48478e-08
1.98518e-05
0.000406443
-1.35613e-08
4.67572e-07
-7.55653e-07
-0.000251793
0.0005796
2.66049e-07
2.74534e-09
1.31004e-05
1.85174e-08
2.19093e-05
1.28108e-07
7.53397e-06
6.55723e-09
0.000261666
-1.00415e-08
7.50597e-09
-4.52849e-07
1.2646e-08
2.08096e-09
1.03251e-07
9.81143e-07
-1.37121e-09
-3.78028e-07
-4.7657e-09
-3.4094e-06
7.63859e-08
6.99105e-08
-4.85854e-07
-5.52483e-08
-1.19336e-06
0.000122797
-7.36681e-07
-6.71916e-08
-8.56783e-07
-6.50495e-07
0.000373567
-0.000394138
1.49133e-06
-1.90243e-07
0.000208693
1.3611e-09
6.70609e-08
2.46452e-09
0.000976403
-1.00733e-06
1.42512e-08
-7.92374e-07
-4.24637e-06
0.00145783
-0.000248981
0.00165524
-1.84921e-08
-9.13793e-07
0.015094
5.02437e-09
-3.53778e-05
0.0120297
7.83951e-06
1.82962e-08
-2.83653e-07
2.35482e-08
-1.61081e-06
5.76243e-09
-1.0046e-06
0.000850575
8.76651e-10
1.17555e-08
7.47594e-06
0.00024083
-6.5429e-08
1.16385e-06
1.39587e-08
1.65003e-08
1.85987e-07
1.41712e-07
-1.18485e-07
-0.00101122
-5.94512e-07
1.8995e-07
6.45795e-08
-6.8994e-07
9.80246e-05
0.00364118
4.90921e-08
0.0013674
0.000616396
-9.67208e-07
1.51405e-08
-1.16846e-09
8.73546e-09
-9.86198e-05
-1.42858e-09
-1.12571e-06
1.31536e-08
-0.00058423
0.000194088
1.75804e-09
2.12054e-08
5.1354e-09
0.00301865
5.45553e-09
1.69008e-09
1.92378e-06
7.99602e-05
2.35392e-09
0.000230067
7.10623e-08
-0.000417621
1.66217e-08
-1.32248e-08
-1.11626e-08
1.12736e-06
0.0135727
5.03898e-08
0.000573192
3.58913e-06
-7.32922e-08
3.66314e-06
0.0042621
2.19354e-06
9.65018e-07
1.35595e-06
1.69403e-09
-3.85423e-07
-3.44323e-07
-1.11603e-08
3.04214e-07
-1.49212e-05
-0.000223669
1.92455e-08
0.00354029
-5.34542e-06
-0.000847616
0.000171753
1.15167e-06
2.03675e-09
-0.000998166
-3.33843e-05
-2.15907e-09
1.8661e-08
1.59616e-10
7.5176e-09
9.69272e-05
2.65981e-09
1.86488e-08
0.000732735
1.62527e-05
0.00073579
-4.43483e-10
-3.50493e-08
5.06927e-09
-1.02942e-07
-8.4483e-07
8.83997e-09
-3.39878e-07
2.58624e-09
9.64671e-07
-9.70532e-08
-1.04605e-07
1.09201e-06
1.24315e-09
2.54092e-06
2.14689e-07
4.90272e-09
0.00185762
-1.9903e-11
-4.2264e-09
-8.25791e-06
8.63814e-07
-2.48437e-08
4.08473e-07
1.07596e-08
2.08429e-08
-1.29857e-07
1.2867e-08
-4.97948e-06
-5.53509e-07
-9.53302e-06
4.37339e-07
1.32516e-08
-1.82428e-06
2.2565e-08
2.17985e-07
0.00067144
-2.9264e-08
9.04105e-11
1.95368e-07
6.33553e-08
-2.3377e-09
0.00106359
1.2014e-07
1.66686e-08
1.85871e-08
-2.03549e-07
-3.7972e-07
-1.19804e-08
0.000521063
5.36641e-09
7.56972e-09
8.3247e-05
-1.16085e-08
1.55837e-08
-2.27479e-08
-1.07514e-07
-2.0608e-07
-4.7063e-09
1.14932e-06
4.80125e-07
0.00173067
-1.06941e-07
-3.84674e-09
2.11389e-05
2.97511e-08
2.78116e-08
1.93151e-08
1.92743e-08
2.35638e-09
0.000176872
1.39226e-08
6.91252e-06
1.14374e-09
1.8883e-07
4.45659e-08
4.02572e-08
3.8446e-08
2.11772e-09
5.95597e-08
0.00544399
7.18617e-06
2.56776e-05
-2.10922e-10
-0.000700175
-6.05681e-08
-2.03288e-07
3.77281e-09
5.52538e-10
1.45497e-08
2.75697e-07
1.3467e-08
-1.52666e-05
1.8762e-08
7.553e-08
2.21803e-07
-9.82916e-05
6.9527e-08
-1.32525e-07
9.44608e-09
1.33727e-08
1.16731e-06
-2.33345e-05
-0.000386507
1.0442e-08
1.0752e-08
-3.67263e-07
3.37776e-09
0.00423311
-4.11718e-06
-1.18891e-07
0.0002143
1.47113e-08
-0.00140415
3.96022e-09
-6.52296e-08
-1.25579e-07
-6.02313e-05
-2.88974e-08
-6.72157e-08
0.00020861
6.92916e-08
4.46067e-07
1.17621e-08
0.000381551
1.3314e-06
-1.15228e-07
-2.24682e-08
-8.28187e-08
0.000225958
-7.33518e-07
0.00138903
-2.14691e-08
-1.05367e-06
-5.97502e-09
-2.51671e-07
-9.59796e-08
-1.19755e-05
-6.95712e-09
3.83999e-08
3.49995e-08
-2.254e-08
-6.97119e-07
9.63132e-09
-1.93444e-08
-6.60545e-09
2.25749e-08
2.94442e-07
3.98977e-07
-1.90816e-07
-3.17938e-09
3.84171e-07
4.70242e-07
-9.20981e-08
0.00138821
8.70384e-08
2.63526e-05
1.4449e-08
0.000566505
4.73547e-06
-2.18192e-07
5.54614e-09
-3.46235e-08
3.33909e-08
1.25992e-06
-6.37629e-05
6.49915e-09
5.31272e-09
0.000973341
0.00182487
-2.39545e-08
-0.000381744
0.000217332
-5.96943e-06
2.50491e-08
7.64674e-06
-0.00012391
0.000595514
2.21535e-08
-0.00299528
2.79414e-08
3.96765e-07
3.76044e-07
-3.86549e-09
1.73059e-08
3.71612e-09
-1.00124e-08
-1.49468e-06
0.00019558
0.000575027
0.000166507
-3.34091e-09
-6.29422e-07
-2.17014e-07
5.25316e-08
8.24146e-09
0.000570771
2.96771e-06
2.26849e-08
-0.00923406
-2.23266e-09
0.00162857
-0.000711927
5.00698e-09
0.000179992
2.89373e-08
-2.92908e-09
-0.000536478
-1.05141e-06
3.93539e-09
1.6434e-08
-3.96186e-08
7.6059e-09
-2.45326e-08
-3.36442e-09
0.0130722
0.0136274
-1.04344e-08
3.96743e-07
1.54685e-08
1.6372e-08
0.000662523
0.00101051
-1.96366e-07
-1.32398e-06
-1.90631e-07
-0.000343
0.000262197
-2.05022e-08
-8.86415e-09
0.00151919
9.06151e-08
-1.92678e-08
-1.84211e-08
0.000491792
0.000229309
0.00161807
-7.34953e-07
9.67522e-09
-0.00160947
-3.18208e-09
-7.4097e-09
6.18256e-07
-1.93349e-08
-0.000194413
1.04704e-07
-2.23184e-06
3.54827e-10
2.23017e-08
-1.02969e-06
-8.24141e-10
9.47248e-09
0.000643689
0.00027145
2.39198e-06
5.30113e-09
1.88637e-06
2.07407e-06
0.00117966
-8.3925e-05
4.31831e-09
-4.71017e-08
-2.07684e-09
0.000331021
-5.01586e-07
-1.94828e-07
-4.21899e-08
-3.78337e-08
-4.0902e-07
-2.63326e-08
-9.0047e-09
-9.0946e-08
2.00597e-08
-1.01137e-06
-1.16697e-08
4.37681e-07
0.000307368
-7.95558e-06
-1.21089e-07
0.000521234
1.92332e-08
-0.00889894
-1.85283e-07
0.000286443
5.54051e-09
-0.0119273
6.94417e-06
3.08926e-10
2.65729e-06
-9.41198e-08
3.84758e-09
1.53291e-07
-3.30855e-07
0.00114707
1.28374e-08
-5.71675e-07
1.20463e-08
-1.98467e-07
-1.51037e-08
-1.10525e-08
5.50046e-09
9.61986e-09
1.93046e-08
1.89009e-08
-0.00117363
8.71283e-09
0.000565494
3.4535e-06
-0.000323837
1.21573e-08
-2.48487e-08
0.00786979
6.88304e-09
6.89857e-08
6.62126e-05
6.38451e-09
-2.10063e-07
2.48833e-08
-0.00215418
-1.17181e-06
0.000568916
0.000152816
1.88137e-08
1.74666e-08
-0.000234375
1.26184e-10
2.3594e-06
-8.76791e-09
1.40869e-08
-4.7995e-07
0.0144209
-0.00530641
-1.00312e-06
-3.69944e-07
-3.48089e-06
0.00401392
0.000146133
-8.94536e-08
-5.92195e-08
0.000220046
0.00123461
9.21805e-06
-8.52821e-06
0.00167278
6.40426e-09
-4.62172e-05
6.78649e-07
3.47143e-09
1.71725e-08
1.37166e-07
-5.7256e-05
-7.62645e-08
0.000201244
0.000844442
1.45389e-07
-4.30505e-08
7.15758e-05
6.31114e-05
1.99842e-07
-8.42518e-07
1.07267e-08
-5.75122e-06
0.00106231
7.79724e-05
-1.6833e-08
1.43281e-07
1.67612e-09
6.01033e-07
2.03745e-07
-1.13738e-08
3.78229e-07
-0.00110609
-2.49011e-08
-5.90934e-07
2.8455e-05
-7.42149e-08
2.5336e-08
-6.27283e-08
3.90623e-09
-5.63338e-07
0.000253381
5.80531e-07
0.0145915
0.000150932
-7.62274e-07
2.20676e-09
-3.41368e-08
-8.16143e-07
2.36325e-08
4.56396e-05
0.000113074
1.29713e-07
-2.8591e-08
0.000116167
-0.000899577
-2.06596e-07
4.98946e-07
6.29382e-09
-0.000138096
1.67939e-08
0.00120584
-0.000294463
2.21122e-09
7.24794e-08
4.15985e-08
-2.8775e-08
1.50774e-08
2.34176e-08
8.68464e-09
2.89187e-09
5.15826e-06
2.57758e-09
-3.13235e-08
1.37787e-06
1.59867e-06
0.0005507
-2.14097e-09
1.67694e-06
-2.85332e-08
8.15655e-09
1.05055e-06
2.02925e-08
-1.13909e-08
4.24058e-09
4.17967e-08
2.18348e-08
0.00034666
2.57232e-05
-8.0648e-09
-1.09449e-07
0.000221875
9.27794e-06
0.00276892
7.16078e-08
1.50606e-09
-1.23318e-08
-1.64e-06
0.000438395
-2.50905e-09
0.00223145
3.74278e-09
8.63436e-08
6.77376e-09
-0.00103375
1.95235e-08
7.80606e-08
3.92375e-09
2.35195e-09
3.10388e-07
-0.00178185
-5.99641e-08
1.76876e-09
3.70605e-07
-2.70178e-08
0.000531602
-1.72201e-06
-8.17271e-09
-4.78626e-09
-0.00221505
0.000318793
9.11704e-05
-1.03587e-06
-4.46083e-06
-5.36798e-07
1.02132e-07
-3.66243e-09
3.83906e-08
0.000146107
1.11331e-07
-1.86894e-08
-1.25848e-06
8.5639e-08
2.15577e-08
7.5893e-07
1.9013e-08
-8.13857e-07
7.49089e-09
-5.44722e-09
-4.65595e-08
-5.97924e-07
6.05281e-08
1.78549e-08
-1.41996e-06
-8.92884e-07
6.62222e-08
-0.0114252
-1.58804e-08
0.00442704
-1.42988e-07
9.68073e-10
6.95182e-07
0.000354861
-9.09199e-07
1.09747e-08
2.4075e-08
-1.60889e-07
-2.51405e-07
1.3373e-08
0.000178207
-9.93743e-07
-8.65191e-08
7.00086e-08
-0.000958136
0.0060303
-8.53295e-08
7.88644e-09
-9.52332e-07
4.87633e-09
-5.24541e-09
-1.0314e-06
0.00499563
-3.39553e-09
-6.91788e-07
0.00162979
-8.61819e-07
2.43011e-08
-1.46929e-06
-5.46771e-08
2.05588e-09
1.09357e-06
0.0012869
-1.16044e-08
0.0011442
3.33688e-09
-9.46758e-08
0.00987658
-9.86181e-09
6.91133e-09
1.49579e-06
-7.45943e-07
-5.46901e-06
2.6779e-09
-3.37474e-08
-1.89481e-08
-2.24539e-08
2.39303e-06
0.000344955
-2.3162e-07
-2.15923e-08
-1.76473e-07
1.70519e-08
-2.3929e-07
-0.000620183
-2.39362e-07
5.59248e-09
7.19293e-06
9.76278e-06
0.000244257
-1.6516e-07
2.62447e-06
0.000624507
-9.27863e-08
2.21271e-08
0.000656879
1.51256e-09
0.000592879
-2.37629e-08
-0.00472264
-1.28329e-08
-5.51747e-08
3.00269e-08
-5.28491e-07
-1.01763e-08
1.4099e-08
-4.96787e-09
1.6577e-08
0.000400801
1.43032e-08
3.41399e-08
3.24539e-08
0.00181919
0.000227387
0.000629879
-8.48028e-08
-3.90972e-05
-6.51932e-10
-1.22778e-06
-1.03943e-06
-1.66387e-06
0.000196271
-4.82241e-06
-1.94169e-08
-3.62704e-08
0.00182067
7.87052e-08
6.10369e-07
-2.72609e-07
-3.14132e-08
7.78267e-09
0.00195972
4.07563e-05
-2.15795e-07
3.53065e-09
-2.66339e-08
-2.06947e-07
6.22729e-05
1.77764e-09
2.72194e-08
2.66368e-08
-1.72664e-08
6.8661e-09
1.85391e-08
6.88484e-05
1.80064e-08
2.34731e-09
2.42156e-06
8.1305e-09
-4.36042e-08
-0.000673429
0.000387941
4.39905e-09
-1.01318e-09
0.00273279
-1.13731e-06
2.47163e-08
3.04489e-08
-0.00847873
-9.19994e-09
0.000136098
-1.84059e-07
0.0012547
0.00119058
4.62138e-06
-8.93935e-07
-6.52382e-06
-1.74006e-06
2.22849e-08
3.97933e-08
-1.52297e-06
1.60849e-08
1.62573e-06
-0.00513387
7.6392e-08
-0.00209456
2.0336e-07
3.06983e-05
0.00038494
0.000785205
-0.000618311
2.03386e-08
-3.01609e-08
-6.57094e-08
-1.1194e-07
4.66354e-09
1.31664e-08
-0.000925653
0.00217608
0.000451251
2.32995e-06
3.62508e-06
6.70765e-08
8.79483e-09
-0.0179243
1.96235e-08
3.23365e-05
5.61326e-10
-4.38691e-08
0.00840421
2.02048e-07
-1.57195e-08
0.00199368
-4.91118e-09
-1.74991e-07
3.90754e-07
-3.73589e-05
0.000919394
3.02599e-08
-8.5943e-08
0.000192153
-1.16515e-08
-0.000124574
3.52601e-09
3.28997e-09
1.12055e-05
-3.47686e-07
1.45112e-06
-1.55265e-09
-1.65094e-08
2.15902e-09
1.54773e-07
-1.76319e-06
-1.01217e-06
4.39707e-08
-0.000843014
-4.5047e-08
9.83457e-09
-3.71283e-05
-4.87342e-07
-4.57026e-06
1.12931e-06
1.67225e-08
5.92796e-09
-1.91655e-06
3.62146e-08
0.000757264
0.00105624
2.87383e-09
9.25403e-09
-1.8488e-07
-4.88094e-06
-1.51592e-06
-6.58845e-07
2.61763e-08
-7.08951e-08
-1.19865e-08
-7.25008e-06
-2.74958e-07
1.19439e-06
-0.00041694
-0.00287339
3.30718e-09
-1.98806e-07
4.5203e-08
1.12083e-08
-6.46048e-09
1.435e-08
1.03543e-08
1.07961e-08
-2.01388e-08
-9.33931e-10
0.000651693
2.66778e-08
-6.94287e-06
6.19436e-09
1.96704e-08
5.02025e-07
-2.48096e-07
4.53575e-05
-0.0055837
-7.76591e-08
1.06913e-08
-2.17923e-10
1.13607e-08
5.97021e-08
-9.38981e-05
-0.00889162
0.00187495
-1.05121e-06
3.45544e-08
1.22321e-08
-8.59621e-09
-0.00103272
0.00176452
-6.36431e-07
0.0122879
0.000372488
-7.60513e-09
3.33365e-06
-1.93063e-09
-2.12531e-07
-6.789e-06
-8.6534e-09
6.61874e-07
-2.64661e-08
-1.01704e-06
0.000318467
6.39372e-09
-7.57282e-09
-9.72169e-07
-1.51516e-06
-3.13395e-08
-4.79031e-09
3.58188e-06
5.41951e-11
-7.14288e-09
1.02439e-08
-2.48879e-06
1.18262e-08
-7.22274e-07
-2.66229e-08
-6.28743e-07
0.00137841
0.00041524
0.000196367
0.000341114
-1.54279e-07
-0.000277851
-3.641e-05
-6.93319e-05
-5.09849e-10
-4.39637e-06
9.26109e-09
0.000318956
-0.00396352
2.55228e-08
0.000605569
2.90111e-06
1.43597e-08
-8.63379e-07
-1.94351e-10
1.8519e-07
-0.00109674
-1.69705e-07
-5.28723e-08
0.00036615
1.07321e-07
3.08189e-09
-1.25929e-07
-2.12269e-05
-1.79378e-06
7.83579e-09
1.8099e-08
4.143e-09
-2.91488e-08
4.00531e-06
-0.0167184
-2.17044e-10
2.72301e-08
0.0019983
0.00167071
6.40145e-09
1.37647e-08
-9.18997e-07
0.00201663
-1.08365e-08
-9.05833e-08
6.82996e-08
-6.42527e-07
-9.46663e-09
4.48972e-09
2.27624e-08
-5.67078e-07
-0.002028
0.000581341
-8.67207e-07
-5.42475e-09
-2.49743e-09
-5.01957e-09
-3.0794e-09
-2.06183e-06
-1.12111e-06
1.10343e-08
-9.83303e-07
-6.91826e-07
1.59526e-08
-3.85185e-09
7.28113e-09
1.49239e-08
-2.97476e-08
0.000599306
0.000263025
0.000643527
-5.45211e-05
2.49612e-06
-2.07634e-08
3.97176e-09
2.4607e-08
-8.10727e-08
-1.92842e-06
-1.10193e-06
4.7927e-09
2.09642e-08
-6.08465e-08
-4.98189e-08
-2.23356e-09
-1.26457e-09
5.33577e-08
0.000717768
-1.85904e-07
1.60732e-10
-5.53438e-08
1.36686e-08
3.92222e-09
-2.4896e-09
1.34268e-06
-1.25225e-07
5.63518e-09
-1.16186e-05
-1.99224e-06
-0.000440637
1.47988e-08
1.79441e-08
-6.77386e-07
-0.000547761
-5.76907e-08
-1.55528e-06
-1.19615e-08
0.00130247
-4.92255e-06
2.75919e-06
-0.00849717
-0.00198657
5.87307e-09
8.15986e-10
-1.7967e-08
-1.16617e-07
-2.69238e-08
0.0167483
-3.21825e-08
6.78408e-10
7.11938e-09
-0.000956347
7.35176e-07
0.000319325
3.30101e-07
-1.69239e-06
-1.21166e-07
0.000270907
-0.000544736
6.29876e-05
-7.47217e-08
2.00614e-08
1.88977e-08
3.33325e-07
-2.82653e-08
0.000354704
0.00227458
1.88269e-09
-4.63374e-06
1.79136e-07
-1.15646e-06
1.07523e-08
-2.48066e-08
9.16659e-07
5.44377e-09
9.96196e-09
-1.93737e-08
8.02085e-09
1.89902e-08
-0.00440006
-3.00351e-07
1.1747e-05
-5.22233e-08
1.80521e-08
3.13034e-07
1.52194e-09
-6.29919e-08
-1.88094e-09
0.000481291
-7.71488e-06
-2.02958e-11
0.000478584
0.000489592
0.000881094
0.000192897
-4.82484e-08
0.00203514
3.50611e-06
0.000744721
2.85676e-08
-1.2334e-06
-8.94196e-07
1.81756e-08
-3.20425e-08
-8.07072e-06
-4.16327e-06
-1.11579e-08
-1.80992e-06
1.51974e-07
-5.61455e-08
0.000600099
0.000278484
0.0119376
2.86586e-06
-0.00371836
-1.10497e-07
-6.48853e-09
1.64666e-08
-8.87041e-09
3.44889e-06
-6.31485e-08
-1.70614e-08
-1.68968e-06
6.21726e-06
-0.00185412
-1.65065e-06
9.7876e-05
0.00670777
-3.05887e-07
-2.79659e-08
9.24682e-07
-0.000750343
-5.46409e-09
-5.0006e-10
-6.80759e-07
1.18604e-06
-1.9025e-08
-3.37246e-06
2.59258e-07
0.000906764
-7.09406e-07
-0.00098598
-7.10572e-08
-0.000613765
-0.00170708
0.0002872
2.30694e-07
-4.68418e-07
0.00031933
0.00113169
3.12362e-05
0.0143668
-2.49814e-09
-0.00184233
-0.000300437
-1.74755e-07
-1.42723e-08
0.000613895
-3.36243e-08
-1.25438e-07
7.18362e-07
0.000879862
-1.3806e-08
-1.21759e-09
-1.67901e-09
-5.0768e-07
-2.26544e-07
6.73678e-08
-6.27384e-06
-2.05134e-07
2.68016e-06
6.19273e-07
4.56383e-09
5.86807e-09
-3.42765e-05
-1.16928e-08
-1.14808e-08
0.0017557
-2.06838e-06
0.000458997
3.61494e-09
-8.69272e-06
0.00015535
-6.79882e-07
0.000693821
9.67038e-09
1.33573e-09
-0.000341822
-9.81261e-09
-1.14309e-09
-1.27488e-06
-1.13162e-05
0.000842283
1.89479e-08
-1.11684e-09
0.00110335
7.60747e-09
3.34635e-08
-1.0846e-08
1.17481e-08
-4.10928e-10
-3.42211e-09
-1.03544e-09
-7.39725e-07
-2.69766e-08
1.36123e-06
-4.27455e-08
-1.64706e-09
-6.17627e-08
-5.31608e-08
1.83817e-07
-7.67776e-07
7.12247e-09
1.8319e-08
7.58827e-08
0.000219403
3.21724e-09
2.104e-08
-5.82236e-09
0.0194151
1.67009e-08
0.000274994
-2.11695e-07
1.63632e-08
-0.00395553
3.95563e-08
1.1813e-08
2.09289e-08
-4.85805e-10
1.1865e-08
-2.20713e-08
2.2613e-07
2.57347e-09
6.8854e-07
-8.18075e-07
-1.50785e-06
-1.43871e-06
6.46805e-08
-1.21431e-06
-1.38436e-08
-1.47872e-06
-4.1326e-08
0.000375925
-8.65064e-07
-7.75524e-08
2.68012e-08
8.5529e-09
-3.26836e-05
-0.000184869
-8.40968e-06
-0.00131157
-6.40101e-06
-6.72573e-07
5.03792e-09
-3.49072e-09
6.8756e-08
-4.79114e-08
-2.60898e-09
2.54754e-09
-3.47371e-08
-1.02106e-09
-2.14918e-08
0.000713276
-1.22564e-07
1.12671e-08
-3.7729e-06
1.41371e-06
-1.0184e-09
1.86096e-08
-1.96592e-08
-3.38929e-08
-0.000135168
-5.13544e-09
-8.83681e-09
2.3644e-08
-4.05853e-07
2.15913e-08
3.11904e-08
3.32169e-08
2.44661e-06
1.42172e-08
-1.22415e-08
-4.24547e-07
0.000580413
3.27073e-08
7.93095e-05
-2.15214e-09
2.58742e-07
1.02049e-08
-4.08935e-08
-2.18494e-07
-4.25239e-08
1.17449e-07
-8.04454e-09
-5.59109e-08
0.00061004
0.000127085
9.4746e-09
1.54879e-06
-2.13152e-06
8.37185e-08
-1.17249e-09
-2.08145e-09
2.09923e-05
7.55094e-05
-2.19753e-09
-5.86685e-09
1.79842e-08
0.00051203
-8.02676e-07
6.12513e-09
5.93327e-09
-0.00330238
-1.90523e-07
4.78246e-09
2.25643e-06
-4.24666e-07
-0.000908668
-2.77043e-08
0.00576643
-2.72454e-10
4.33907e-08
-1.12767e-09
-8.65039e-07
3.18198e-05
-2.40443e-08
3.41463e-09
2.38547e-07
3.09342e-06
-6.81242e-08
-0.00500231
0.000262662
-2.18785e-07
-8.12916e-09
2.43288e-06
6.16468e-09
-0.00052742
7.23093e-07
0.000601599
-1.02689e-07
-1.76653e-09
-7.35515e-09
0.0100101
3.48802e-06
-2.13703e-09
0.00134612
5.52341e-08
-5.03759e-09
-0.00580969
-1.83566e-09
1.87409e-06
7.86568e-07
0.000772154
0.000565715
9.35988e-05
-1.52899e-08
-6.08299e-05
-1.94118e-06
-0.0126074
1.33321e-06
1.98334e-06
-2.12138e-09
0.000388167
-1.62818e-06
0.000209348
4.02485e-08
3.43906e-09
-8.49167e-08
1.24736e-07
-1.23086e-05
-0.00230017
-3.51141e-08
-1.14617e-06
-0.000381571
1.95818e-07
8.27775e-09
1.86594e-08
3.30863e-06
1.50669e-08
0.000721301
7.63948e-09
1.79952e-08
9.03057e-05
0.000354046
9.67741e-06
-2.9688e-08
7.02642e-10
-1.58417e-09
1.58937e-08
-0.000321815
5.83036e-09
1.25472e-08
-9.36158e-06
-1.96481e-06
-6.79493e-10
-1.65907e-06
1.46247e-07
2.29723e-06
-1.11246e-07
5.26327e-09
1.29372e-05
-4.70077e-07
1.95837e-08
-1.23242e-08
-1.20634e-07
7.86162e-09
3.53337e-06
1.88152e-08
-0.000257643
7.5888e-07
-5.99519e-08
0.00507031
1.49571e-07
-1.13615e-06
-0.00056838
4.97453e-07
-0.00328045
-3.3425e-07
3.60333e-06
-2.01095e-08
-1.78789e-09
-2.3682e-09
-1.21914e-08
1.50141e-08
6.23629e-09
2.53121e-09
8.56024e-07
3.07693e-06
6.26735e-08
-4.99289e-07
8.58034e-09
-4.66742e-09
-9.46181e-07
8.57929e-06
-1.11669e-08
1.26058e-05
3.1397e-08
-1.74626e-09
1.0139e-08
6.56026e-07
0.000195917
1.6285e-09
-2.12251e-09
8.6863e-09
0.000379708
1.19849e-07
-1.83484e-07
-1.57215e-07
-5.36478e-07
-3.08899e-08
7.76347e-10
-4.89804e-09
0.00128237
1.23626e-06
1.06549e-05
-7.8225e-06
9.37465e-06
-2.76283e-08
-0.0079369
-1.04314e-08
-3.45528e-05
1.32593e-08
-0.00382355
0.000189869
1.76813e-06
3.22505e-09
2.58665e-09
0.000251988
-7.2101e-08
-1.54633e-06
2.92698e-08
0.0054189
-0.0015793
4.38674e-09
2.39616e-06
1.26998e-10
0.00049096
0.00125337
5.40237e-08
0.000676396
-8.84051e-09
0.000665396
-3.09038e-09
-1.34415e-07
0.000284838
-1.33089e-06
7.57622e-07
5.90154e-09
-2.78538e-07
1.03113e-09
9.75035e-09
1.79884e-08
1.57428e-07
1.04607e-08
2.05363e-06
1.31536e-08
-6.51205e-07
2.89214e-09
9.97467e-09
1.2866e-07
-2.1908e-08
-3.51427e-09
5.3842e-09
-2.4222e-08
0.000480335
4.44737e-07
-4.19574e-06
-5.17457e-10
5.24664e-05
3.02349e-07
3.49026e-09
-6.12264e-08
-1.1262e-08
7.65064e-07
-2.9438e-05
2.82638e-07
1.18943e-08
4.35275e-09
-3.5386e-09
-1.05692e-08
1.59797e-10
-2.21225e-06
0.00168603
-1.60405e-08
1.7613e-06
-0.00136101
-1.16041e-06
-1.91127e-06
0.000567693
2.22214e-06
-8.67835e-08
1.62904e-08
2.81864e-06
-1.6088e-09
0.00134132
-3.71329e-08
-0.00916558
1.09214e-08
-0.000503104
0.000460576
1.28973e-07
1.08457e-06
-0.0007616
-7.22923e-09
-0.00157188
2.48321e-06
1.42776e-08
0.0015828
-1.71711e-09
2.11651e-09
4.18246e-10
-1.90744e-06
-9.30409e-08
-2.21048e-08
8.11717e-09
0.000722176
0.000873243
1.57589e-08
2.73387e-06
-0.00138219
0.000108818
0.000357045
-2.91247e-09
2.83815e-07
0.000627391
3.04604e-08
-4.80849e-06
-3.36154e-07
-4.01188e-08
-6.46605e-06
-4.54674e-07
0.010661
3.6994e-09
-1.33878e-06
1.69304e-09
-0.00132074
2.33458e-08
7.59314e-09
2.27497e-06
-6.04868e-08
-1.45955e-07
-3.89551e-07
7.89119e-05
1.33591e-08
0.00260149
-1.50517e-07
1.11478e-08
2.40708e-05
-3.82893e-06
0.000150403
0.000508403
0.000145039
-1.99002e-05
3.81255e-07
-1.91602e-08
4.80486e-09
-2.15074e-07
-2.01839e-05
8.55556e-09
-0.00173523
-1.49506e-07
8.40501e-08
0.00221657
-2.09165e-08
-1.04012e-07
1.49088e-09
-3.16553e-07
-2.25204e-07
-0.00164234
1.22502e-06
3.49759e-05
-0.000516515
0.00101
1.15744e-08
4.59141e-08
-6.18468e-08
7.04582e-09
-4.97284e-09
1.65447e-07
-1.41902e-09
5.07761e-09
-3.41174e-06
1.16466e-09
-3.55096e-08
-2.85299e-08
-6.13565e-09
-1.00327e-06
0.000618453
-2.73822e-08
-2.38644e-07
-5.48156e-06
1.16127e-08
-4.55958e-09
-1.46426e-05
-0.00182338
4.14081e-07
3.33838e-10
-2.1376e-08
1.13783e-06
4.40623e-10
-9.0415e-07
9.31984e-10
8.97505e-07
7.97907e-07
-0.0156761
0.000564189
-1.14984e-09
-2.63954e-08
-2.62918e-08
-7.26337e-08
-0.000659588
-6.89002e-09
1.28216e-08
0.00140744
0.00110387
1.54028e-06
-1.12298e-07
-3.12041e-07
-0.00010126
0.00270595
2.94208e-06
-0.00154946
1.0345e-08
5.25495e-06
2.32111e-06
-1.38702e-07
-1.64792e-06
-1.51201e-08
4.94606e-09
-1.03599e-07
1.25798e-08
3.57064e-09
-1.54825e-07
-3.82465e-06
-0.0085109
-0.000123449
5.05789e-09
-2.8793e-07
2.06259e-09
-2.75597e-07
3.22046e-07
0.000394323
8.98024e-09
-2.40432e-06
1.78458e-08
-6.62296e-07
1.54018e-10
1.0618e-08
1.53774e-08
-8.43173e-08
-3.47089e-07
2.16061e-08
0.000248889
-0.000716767
-2.3655e-08
-3.15311e-06
-1.08186e-07
1.46926e-08
1.51035e-08
-1.45256e-09
-0.000188126
4.86811e-07
-7.70025e-08
8.65281e-09
3.37896e-06
3.64185e-06
-8.19099e-07
2.67468e-07
1.71216e-08
1.97944e-08
-2.50587e-08
-1.6089e-07