/*--------------------------------*- C++ -*----------------------------------*\
| =========                 |                                                 |
| \\      /  F ield         | OpenFOAM: The Open Source CFD Toolbox           |
|  \\    /   O peration     | Version:  v2012                                 |
|   \\  /    A nd           | Website:  www.openfoam.com                      |
|    \\/     M anipulation  |                                                 |
\*---------------------------------------------------------------------------*/
FoamFile
{
    version     2.0;
    format      ascii;
    class       surfaceScalarField;
    location    "300";
    object      ddtCorrDdt0(phi);
}
// * * * * * * * * * * * * * * * * * * * * * * * * * * * * * * * * * * * * * //

dimensions      [0 3 -2 0 0 0 0];
oriented        oriented;


internalField   nonuniform List<scalar> 
41383
(
4.25475e-05
-0.000412032
0.000369497
2.25072e-08
-7.92833e-07
7.6964e-07
-0.000197194
0.000143433
5.37618e-05
-9.015e-06
1.08535e-05
-1.83982e-06
0.000233677
-1.02324e-05
-0.000223452
-2.97808e-07
1.18862e-05
-1.15891e-05
-0.000488386
7.59986e-05
0.000412384
3.16233e-05
-6.09335e-06
-2.55261e-05
-0.00123402
0.000245852
0.000988177
-1.58113e-05
2.94009e-06
1.28697e-05
3.20848e-06
-2.22401e-06
-9.85056e-07
3.10934e-05
0.000103422
-0.000134517
0.000409047
-7.13904e-05
-0.000721136
8.80542e-05
0.000633098
-1.21437e-05
4.99095e-06
7.15364e-06
-0.00032397
-0.000164414
-1.35158e-06
4.74386e-06
0.000108872
-5.33469e-06
-0.000103539
0.00605562
-0.0239301
-0.00103816
-4.19671e-05
0.00108013
1.36326e-06
-1.3412e-06
1.47723e-05
-1.09691e-05
-3.80543e-06
0.00042808
-0.000385533
5.29252e-06
-5.87941e-05
5.35055e-05
4.12462e-06
-3.20436e-06
-9.19942e-07
1.66981e-05
5.07984e-06
-2.17794e-05
-1.4598e-05
8.09138e-06
6.50711e-06
-3.59506e-06
-1.22166e-05
1.93192e-06
2.19211e-06
-0.00379575
0.00607579
-0.00227973
-1.29806e-05
5.28468e-06
7.69473e-06
0.000611638
-0.00113944
0.000527785
-0.000198732
-0.000181694
0.000380426
-0.00528857
0.0056415
-0.00035292
0.00010912
-0.000307853
1.39219e-06
4.90506e-06
-6.29769e-06
-0.00657994
0.00566216
0.000917768
-0.0040827
-0.0438246
0.0479073
-5.67976e-06
-7.30093e-06
9.62139e-06
-1.79083e-05
8.28905e-06
3.77134e-06
1.61174e-05
-1.98843e-05
1.93793e-05
-9.75779e-06
-0.00100887
0.00162249
0.00788808
-0.00573265
-0.00215541
-0.000107492
0.000103446
4.04608e-06
2.96807e-06
8.7168e-06
-1.16837e-05
-0.000518862
0.000644497
-0.000125621
-1.3428e-05
1.85001e-06
1.15788e-05
-1.03133e-05
-4.19592e-06
1.45081e-05
-0.00345602
0.00190328
0.00155274
2.40738e-05
-1.11301e-05
-1.294e-05
-6.59814e-05
-4.15098e-05
-0.0276727
0.00151546
0.0261573
-1.10914e-06
9.63387e-07
1.44646e-07
-1.06035e-06
-1.09517e-05
1.20108e-05
-1.08169e-06
7.85977e-07
2.94722e-07
7.37726e-06
8.12404e-05
-0.000680205
0.000598983
0.000379026
-0.000364223
-1.48015e-05
0.00035785
-8.33502e-06
-5.0713e-06
6.46448e-06
0.000398366
-1.93417e-05
-0.0168098
-0.00375118
0.020561
-0.000518431
0.00131431
-0.000795881
0.000117156
-8.28262e-06
-2.12127e-05
0.000112197
-9.09851e-05
-4.67835e-05
-2.16549e-05
6.84471e-05
5.73835e-06
-6.16586e-05
5.59183e-05
0.000128934
-0.000659806
0.000530846
0.000463918
0.000418557
-0.000882482
3.69414e-06
-7.98442e-06
4.29085e-06
1.13393e-05
-0.000117847
0.00010651
-0.0520378
0.0642698
-0.0122322
-0.000147388
5.05707e-05
9.68193e-05
-0.00610537
0.0181296
-0.0120242
-2.17851e-05
2.18386e-06
1.9604e-05
-0.0329791
0.0288964
-6.32019e-05
1.64239e-05
-0.00120402
-0.00225199
-0.000457605
0.000133636
-0.000128316
0.000696445
-0.000568107
0.00622726
-0.00745826
0.00123089
-1.50731e-05
2.90726e-06
1.21644e-05
0.000686268
-0.000605024
8.03822e-05
7.80177e-06
-8.81846e-05
-5.75923e-06
-5.06952e-06
1.08263e-05
-1.23768e-06
7.17161e-07
5.20018e-07
-1.11924e-05
1.01315e-05
9.67984e-05
-8.54575e-05
-0.00159599
0.000737407
0.000858594
6.13119e-05
-0.000256787
0.000195477
-0.000454426
9.02056e-05
0.0109112
-0.0044511
-0.0064601
-0.000250022
-0.000207582
1.95624e-07
-1.30532e-06
-3.81267e-06
1.38211e-05
-1.00094e-05
-4.62666e-05
2.84937e-05
-1.78433e-06
0.000235469
-1.87282e-05
-0.000596571
7.77253e-05
0.000371401
0.00585571
-3.80045e-06
1.59057e-05
-1.21008e-05
-2.0772e-06
2.61475e-06
-5.38063e-07
-6.9261e-06
5.72397e-07
6.35241e-06
-0.000591026
-0.00100496
-0.00016269
-0.000291734
-0.00347037
-0.00343085
0.00690124
-0.000590463
-0.000643542
3.62242e-06
6.07056e-06
-9.69318e-06
3.30228e-05
-7.27413e-05
3.9718e-05
-0.000370014
0.000397916
-2.79007e-05
-3.66839e-06
-8.47478e-06
-1.52018e-05
1.1396e-05
0.00874895
0.00216224
2.94816e-06
-5.82373e-06
2.87395e-06
-0.00136234
0.00246659
-0.00110425
-2.87985e-05
0.000100672
-7.18745e-05
-7.56281e-06
9.27768e-06
-1.71361e-06
-4.50922e-05
2.08136e-05
2.42772e-05
0.000198149
-0.00123631
0.000260935
-0.000363502
0.000102548
0.00024924
-0.000187928
-6.71403e-05
3.501e-05
-1.75091e-06
5.12625e-07
1.06988e-05
-1.74315e-05
6.7318e-06
0.00289358
-0.00178944
-0.00110414
-0.00261167
0.00167213
0.00093969
-0.00534716
-0.00520723
0.0105544
0.000285926
-0.000101635
-0.000184289
-6.96172e-05
0.000330546
-4.62846e-07
-1.6152e-06
-1.93345e-05
-4.78059e-05
0.000827675
-0.000111359
-0.000716313
1.23921e-05
-9.6046e-06
-2.78875e-06
-2.53869e-05
-3.31079e-05
-2.35749e-05
5.66817e-05
-8.13411e-05
-1.39788e-05
9.53159e-05
-5.7369e-06
3.9371e-05
-3.36348e-05
0.00285031
-0.00183158
-0.00101875
-0.000314639
-0.000413221
0.000727912
-4.39142e-07
5.28396e-05
-5.23983e-05
-5.20169e-06
-9.39615e-06
0.00191399
0.000979589
-1.32696e-08
2.93446e-06
-2.92336e-06
6.0166e-06
-3.06981e-06
-3.03428e-05
4.45574e-06
2.58867e-05
2.79148e-05
-0.000109256
3.20847e-05
1.78463e-05
-4.99325e-05
-1.37372e-05
0.000117183
0.000308545
0.000519132
2.0573e-06
1.15064e-06
-3.57432e-06
-9.85263e-06
-1.10546e-05
-9.82618e-06
2.08809e-05
8.29325e-05
-7.71981e-05
-0.000740413
0.000938559
1.54579e-05
-2.83858e-05
1.29197e-05
-0.00407546
0.00731945
-0.003244
-0.000122022
-4.27643e-05
0.000164789
6.10921e-05
-2.80693e-05
-0.000731197
0.000625886
0.000105328
-0.00160428
-0.00100749
-5.05888e-05
6.29662e-06
-1.20542e-05
-2.22059e-05
-2.28871e-05
-3.95453e-06
2.60314e-06
-6.45407e-06
8.87866e-06
-2.4246e-06
1.752e-06
-9.31291e-06
-3.33058e-06
2.24778e-06
1.27042e-05
-6.74691e-06
-5.9623e-06
-0.00121728
0.00117531
-6.28132e-06
-6.45232e-07
-0.000113232
8.44319e-05
2.41985e-05
3.48125e-06
-2.7681e-05
0.00536464
-0.00746971
0.00210504
1.16783e-05
-4.49846e-06
-7.17959e-06
0.000106514
-4.19403e-05
-6.45743e-05
-8.63919e-06
2.18512e-06
-3.98272e-05
3.62973e-05
3.53022e-06
2.97657e-05
-9.57468e-05
-0.00736626
0.000786345
4.53477e-05
-4.00542e-05
-3.60081e-05
0.000305491
-0.000269478
-6.72038e-05
-2.44529e-05
9.16534e-05
6.00117e-06
-3.63454e-05
1.83617e-05
5.83416e-06
-0.000248625
4.83437e-05
0.00020028
2.50542e-05
-9.59679e-06
-4.42628e-07
-3.59472e-07
8.01842e-07
0.00164926
0.000183061
-0.00183235
-0.00302779
0.000822936
0.00220482
-8.56027e-07
4.01396e-06
-3.15865e-06
-0.0002126
7.49208e-05
0.000137667
0.000435558
-0.000353782
-8.17625e-05
-1.122e-05
1.28108e-05
-1.5913e-06
5.29751e-06
-2.62736e-06
-2.67107e-06
-8.56642e-07
-1.70504e-05
5.42119e-06
-1.23905e-07
-4.48009e-05
7.45669e-05
3.93004e-06
-1.37818e-05
9.85139e-06
-1.16232e-05
6.42173e-06
-0.000208777
4.99101e-05
0.000158956
0.00525479
0.00668711
-0.011942
-0.00332991
0.015514
-0.0121841
4.95359e-05
-3.34443e-05
-1.60947e-05
5.45338e-06
5.67338e-06
-1.11282e-05
5.80909e-05
-4.14347e-05
-1.66578e-05
1.18793e-05
-2.29339e-05
-0.00160886
0.000859117
0.000749756
-6.10676e-05
2.79519e-05
3.31155e-05
8.32535e-06
0.000349521
-6.30364e-06
6.82528e-06
-5.22568e-07
0.00235267
0.00135626
-0.00370891
-6.34237e-05
0.00016993
-3.6307e-05
-3.5207e-06
0.000155343
0.00149399
-1.68253e-05
1.5159e-05
1.66604e-06
-0.00993346
-0.00235975
0.0122932
5.05817e-05
-0.000300605
-1.31034e-05
9.29086e-06
-3.14163e-06
-6.59814e-06
9.73712e-06
0.000162611
0.000123313
-6.59344e-06
4.5629e-06
2.03066e-06
-0.00022708
-2.15377e-05
-0.00182763
0.000338518
0.00148912
1.52179e-05
2.13653e-05
-2.71032e-05
2.42725e-05
-0.0001702
-4.24063e-05
-8.2703e-06
1.12378e-05
-1.41852e-07
1.37774e-05
-1.36232e-05
6.33754e-08
-5.97666e-06
5.91343e-06
8.07522e-06
5.74695e-06
2.08326e-05
4.88273e-05
-6.96608e-05
0.0333203
-0.0272648
-0.00086748
0.000552857
1.03421e-05
-8.30037e-06
-2.0412e-06
-0.000795244
-0.000813631
0.000127632
-0.000309326
-0.00203642
0.00135388
0.000682541
-2.5021e-05
-1.7011e-05
4.20325e-05
-0.00645227
0.00488874
0.00156353
-0.00670859
0.000256318
3.35528e-06
-5.83267e-06
2.47738e-06
-1.11833e-05
1.2016e-05
-8.31779e-07
-0.000222753
0.000350383
1.70596e-05
-6.18606e-05
-0.00197455
-0.00795891
-0.000230208
0.00028079
-0.000169929
-2.72668e-05
-0.00516131
0.00287422
0.00228707
-7.3907e-05
9.04791e-05
-1.65741e-05
0.000393351
-0.00048354
9.01937e-05
2.24375e-05
-4.74585e-05
-1.02812e-05
1.26803e-06
-8.18557e-06
6.91569e-06
1.26937e-06
2.26973e-06
7.81121e-05
0.0100817
-0.00971037
3.80918e-05
1.14423e-05
-2.7645e-06
1.96445e-05
-9.35534e-05
-1.62801e-05
1.19505e-05
4.32098e-06
-6.21351e-06
-0.000103467
0.000109681
-1.26973e-05
-4.83706e-05
-0.000175945
-7.31496e-06
0.000183257
-4.22958e-05
4.05217e-05
1.77418e-06
-0.000141693
1.57639e-05
-3.46705e-06
-3.12629e-06
5.99837e-06
-0.00015265
1.1474e-05
2.92091e-07
-1.17655e-05
0.00038889
-0.00080207
-0.0112513
0.00445724
0.00679418
-1.1227e-05
7.00305e-09
-0.000138575
0.000340103
-0.000201528
-2.38874e-05
-1.48466e-05
3.87354e-05
8.98542e-05
-6.66304e-05
-2.32255e-05
-5.99846e-06
6.36705e-05
-6.1401e-05
0.00364528
-0.0012926
-5.42097e-05
-9.01972e-06
6.32292e-05
-0.00012027
-6.87135e-06
0.000127134
0.000934949
-0.0056909
0.00475597
0.00217257
-0.0017898
-0.000382798
-0.0202286
0.00801019
0.0122184
0.0020408
0.00804085
-5.3657e-06
1.36435e-05
-8.27472e-06
2.65971e-05
-2.54546e-06
-2.40495e-05
-5.83311e-06
6.63316e-06
-8.00218e-07
-5.75103e-06
8.9126e-06
-3.16153e-06
-0.000653051
-0.00463552
-4.12761e-06
-7.90102e-06
1.20279e-05
0.00766623
0.0169286
-0.0245948
9.25172e-06
-1.33795e-05
0.00356822
-0.00300902
-0.000559193
-0.00251282
0.00115048
-0.00011833
0.00012613
-0.000326659
0.00033498
-0.00518486
-0.0142597
0.0194445
-7.75722e-05
5.63544e-05
2.11401e-05
8.34162e-06
-2.94845e-05
-0.00103762
-0.000390058
0.00142768
-0.000217003
-0.000514182
0.0293966
0.00392363
0.00151646
0.00133386
-6.56274e-06
-9.71883e-06
-5.28683e-05
-0.000148454
0.000201318
-0.000254665
-0.000409348
0.000664015
2.39866e-05
-4.78743e-05
-9.45873e-05
0.000169574
-7.49911e-05
0.000246603
-0.000245965
-6.29054e-07
0.00012271
2.45332e-05
-0.000147258
1.09106e-05
1.4811e-06
-0.00138138
0.0020114
-0.000630025
-5.4457e-06
-8.57366e-07
-0.000139349
4.47609e-05
-0.000410442
-1.58443e-06
-2.71711e-05
6.14133e-05
-3.4242e-05
-0.000786586
6.54582e-05
-2.54014e-06
5.89568e-06
9.07548e-06
8.11793e-07
-2.85038e-06
2.03844e-06
-0.000192868
0.000138534
5.43339e-05
0.00345101
0.0120565
-0.0155075
-0.00018326
0.000491807
9.97285e-05
-0.000105943
-0.000585959
0.000402699
-4.52166e-06
1.01943e-05
-3.43906e-05
-2.9178e-05
6.35681e-05
0.000140194
-0.000150952
1.07583e-05
0.000567326
-0.00153355
0.000966166
-0.00411702
0.0185892
-0.0144722
-0.00306619
-0.00170563
0.00477185
0.000531106
-0.00235873
0.00647117
-0.00110657
-2.47372e-05
0.000147447
9.9747e-06
-6.34836e-06
-3.62594e-06
7.72795e-06
1.26161e-05
-2.03458e-05
-5.2578e-07
1.05073e-05
-9.98068e-06
1.89254e-06
8.30923e-07
-2.72305e-06
-0.000114201
-2.44877e-05
0.000138689
0.0123218
0.00304353
-0.00114025
-0.000114324
0.000256978
-0.000142654
0.00673039
0.00813212
-0.0148625
0.000781265
-9.57462e-05
-0.000685501
0.0187742
-0.00175821
-0.0170162
0.000119443
-0.000349654
-0.000208866
0.00160189
-0.00139299
3.50029e-05
-2.82613e-05
-6.74135e-06
5.29241e-05
-9.45814e-05
4.17051e-05
-4.22257e-06
1.49215e-05
-3.46981e-05
3.44807e-05
2.20123e-07
-3.68917e-05
1.25511e-05
2.43322e-05
8.65279e-05
-0.000115078
2.8553e-05
0.00181264
0.0120265
-0.0138392
-0.00122906
0.00102021
-1.33679e-06
-2.75892e-07
1.61145e-06
-0.000184502
9.03786e-05
9.41231e-05
-0.00613057
0.00306243
0.00306811
0.00751371
-0.0161947
0.00868101
-3.33277e-05
-0.000151174
0.000216571
-0.000104035
-0.000112542
-5.98955e-06
3.36121e-06
-4.83736e-06
7.63627e-06
-2.79768e-06
0.0180828
0.000691375
7.13721e-06
-1.25009e-05
-6.74046e-05
1.31937e-05
-1.84853e-05
7.29174e-06
6.74129e-06
3.23381e-06
0.00064931
0.000131958
0.000712401
-0.000367967
-0.000344434
-6.31097e-05
8.69289e-05
-2.38166e-05
-0.00725149
-0.0257278
0.000203061
-0.000153105
0.00045416
0.000258233
-9.14769e-05
-0.000278535
-9.1293e-05
-0.000147457
0.000238752
-1.2069e-05
4.18009e-06
7.88874e-06
5.46095e-07
-9.88806e-07
-1.71514e-06
-4.2753e-06
-1.99364e-05
-1.69591e-05
-0.000189235
-6.85756e-05
0.000257811
-2.4658e-06
2.04934e-07
2.26042e-06
8.91369e-06
-6.62343e-06
-2.28998e-06
0.000228203
-0.000613135
0.000384938
-0.000220244
-0.00051675
0.000736992
-0.000744387
-0.00538619
0.000263957
0.00022018
-0.000484137
-2.88638e-05
7.46115e-05
-4.57484e-05
4.18695e-05
-3.59146e-05
-5.95457e-06
-0.000615053
0.00036039
3.39207e-05
1.22755e-05
-4.42886e-07
-1.18323e-05
-0.000917141
0.00148441
0.0177291
-0.0109987
-1.84905e-05
-5.18951e-06
4.63391e-06
5.55327e-07
0.000209229
0.000226325
-0.000119536
1.71132e-05
-5.51488e-05
2.62844e-05
-0.00102867
-0.000499285
0.00152794
8.31464e-06
4.38712e-06
0.0180308
-0.0197892
-0.000235427
0.000199422
-0.000600941
0.00112809
-0.000527169
-0.0125513
-0.00767726
0.000276619
-0.000173386
-0.00010321
0.000293444
-3.2795e-05
-0.000260666
-6.82515e-06
1.98816e-06
-0.000291759
-7.17597e-05
3.01047e-05
-0.000187317
0.000157227
0.0303114
-0.028735
-0.00157641
-9.93356e-06
-3.16973e-06
-0.00010249
3.61034e-05
-7.04959e-05
-1.71389e-06
1.70054e-06
0.00303759
0.014993
0.000159315
-0.00116813
-0.000179136
0.000298579
0.00079764
-0.00101788
1.71682e-05
-4.6939e-07
-0.00962473
0.00726497
-6.20981e-05
-0.000875331
0.0003569
-9.6605e-05
0.000214671
-0.000118042
0.00620762
0.00168046
1.88238e-05
5.25144e-06
-9.36524e-06
8.83858e-06
0.000316151
-0.000180002
-0.000136143
0.0262616
0.00404978
-1.62831e-05
1.55632e-05
7.1988e-07
-4.02942e-06
4.02944e-06
1.21832e-05
-4.61024e-07
-1.17218e-05
0.000143671
-0.000190182
4.65071e-05
0.00255498
0.00974451
-0.0122995
-0.00845121
0.0110062
2.11886e-05
-8.83926e-05
-0.000189188
0.000161682
2.75114e-05
0.00101644
-0.000404804
-3.40503e-06
2.37903e-06
1.02563e-06
-6.06131e-06
7.81578e-06
0.000120003
0.000308082
-5.90169e-06
2.06273e-06
3.8404e-06
4.70959e-06
-5.5454e-06
8.35721e-07
-0.000250013
-0.000625318
0.000100008
4.44106e-05
-0.000144424
0.000111581
-0.000502362
0.000390783
0.014094
0.000394801
9.0945e-05
-0.000485744
0.00852225
-0.0104968
-0.000377967
0.000249678
7.74625e-06
-1.73975e-05
9.65092e-06
-1.79013e-05
-9.06207e-05
0.000108523
-4.0579e-05
6.14112e-05
0.0103333
-0.0068823
0.00786763
-0.0151192
-8.38314e-06
-1.0103e-05
0.00464852
-0.0026208
-0.00202772
-0.00556412
0.00217992
0.0033842
0.00131593
-0.000924651
-0.000391293
-0.00184913
0.00129079
0.000558336
-7.72039e-07
-1.01004e-05
-6.5672e-06
1.66673e-05
-0.0087859
0.00343874
-2.06698e-06
-3.83427e-06
0.00686295
1.5972e-07
4.54987e-06
-6.50484e-05
8.93531e-05
-2.4302e-05
-8.15619e-06
2.09831e-06
-9.24722e-06
1.07677e-05
-1.52477e-06
-0.000777074
0.000903477
-0.000126417
0.00977832
0.000544046
-0.0103224
0.0178611
-0.0103474
0.000654168
-0.000765523
7.31646e-05
-5.95566e-05
-1.38967e-06
3.28237e-06
4.13311e-05
-3.02684e-05
-1.10668e-05
-7.93175e-05
3.70425e-06
7.56109e-05
7.8864e-06
0.000230845
-0.000199504
-3.13483e-05
-1.70967e-05
0.000124539
0.0203231
-0.0171237
-0.00319942
-0.000162736
4.24601e-05
-9.90696e-06
3.01092e-06
6.89576e-06
-2.49828e-06
-7.68193e-05
-1.14714e-05
-5.3544e-06
-8.59176e-06
1.19734e-05
-3.3818e-06
0.00994285
0.00735301
-0.0172959
-8.50203e-06
1.65942e-05
-8.74228e-06
-0.00016721
0.000189637
0.000464535
0.000153099
-7.6311e-05
-7.67911e-05
0.00261473
0.012893
-0.0155077
0.0125576
-1.39149e-06
-1.48919e-05
-0.00215186
0.00779336
-0.000155134
0.00018526
-2.61179e-05
6.00692e-05
-3.39516e-05
-0.0124886
0.0187977
-0.00630911
-8.87505e-05
0.000714618
0.00384376
0.00904923
0.000181243
-0.00031982
-5.91492e-06
8.61219e-06
-2.69781e-06
8.0725e-05
-0.000181863
0.000157121
-2.75496e-05
-7.14789e-06
6.1365e-06
-6.43524e-06
0.0229539
-0.0152876
0.00056156
-0.000104766
-0.000456789
-3.3139e-06
8.94998e-06
-5.63593e-06
-3.28537e-06
2.42912e-06
-0.0010185
0.000417497
-0.0164743
0.0103689
-0.00241301
0.000581437
-5.45411e-06
2.64358e-07
-0.000293529
0.000405111
-1.58845e-05
5.78373e-06
0.00977238
-0.00906526
-0.000707122
1.48785e-05
1.67402e-05
0.00230137
-0.00209603
-0.000205357
0.00107582
-0.004142
1.08723e-05
6.02831e-07
1.03364e-06
-8.93503e-06
1.04721e-05
2.40097e-05
0.00108825
-0.004884
-9.58528e-05
-6.86765e-05
0.000164528
-0.000204055
-0.000462447
0.000666497
-0.0606731
0.00863519
0.000139669
-0.000141278
1.61104e-06
2.64563e-05
5.19712e-06
-3.16563e-05
4.80445e-05
0.000105052
1.32578e-05
-8.26613e-06
0.000126601
0.000178928
-0.000305525
-1.58176e-05
1.51434e-05
6.74103e-07
7.9491e-06
-0.000887827
-0.00410059
0.00498842
-0.00055379
-0.00136498
0.00191884
-2.72294e-06
2.5706e-07
6.18276e-06
0.00013401
9.37797e-05
4.58912e-05
-2.71777e-05
-0.000154693
1.35732e-06
-1.82655e-06
4.68426e-07
-3.62779e-05
-8.27538e-06
4.45512e-05
-0.000737029
-0.0022908
-1.03768e-05
-0.000178804
0.000212139
-1.51983e-05
-0.000196951
-0.000957222
0.00171533
-0.000758135
-9.89857e-06
0.000151374
-0.000141474
0.00276216
0.00331372
-0.00125298
-0.00102498
0.002278
1.12601e-05
1.08483e-06
-1.23468e-05
-0.000120341
-8.72078e-06
-1.18594e-06
0.000703429
0.000928975
-0.00163242
-0.0014683
-0.00056812
7.87881e-06
6.89185e-06
-9.01794e-06
3.79908e-06
5.21356e-06
0.0151093
0.00310789
-0.0182172
-9.27973e-06
1.97144e-05
-1.04332e-05
-2.54345e-07
1.44184e-06
-7.24922e-07
0.0124672
-0.0290515
0.0165843
-8.31293e-06
-4.78827e-07
8.79119e-06
2.7141e-05
-0.00415728
0.00198972
0.00216754
-0.00054875
0.000776962
0.00030416
-0.000369582
6.54164e-05
0.000306271
-0.000107799
-0.0001985
-0.000747167
0.000876088
3.5295e-05
2.98434e-06
7.09135e-05
-7.38962e-05
2.3024e-05
1.74977e-05
0.00015875
4.43329e-05
-1.31549e-05
1.18644e-05
1.29153e-06
1.95233e-05
0.0237998
-0.0113325
-0.00114893
0.00133202
-4.74228e-05
0.00233058
-0.00197944
-0.000351151
7.15424e-06
-9.20264e-06
2.04742e-06
0.000893233
-8.61877e-05
-0.000806969
-6.06773e-05
1.60727e-05
4.46047e-05
2.54904e-05
3.34934e-06
-2.88396e-05
0.00105256
-5.90559e-05
1.22368e-05
4.68166e-05
0.000453028
0.00171954
-0.00921053
-4.8667e-05
0.000192336
3.37909e-05
-8.30061e-06
8.08707e-05
-0.000115454
3.45814e-05
-5.49908e-05
-5.68583e-06
1.01784e-06
4.88628e-07
-1.50734e-06
0.00353682
3.13965e-05
0.000881852
-5.11095e-05
-0.000830705
1.69977e-05
0.000114046
-8.06012e-05
-3.34472e-05
2.15562e-06
-3.8156e-06
1.66031e-06
-0.000804914
0.000442521
0.000362455
-0.00270443
-0.00285969
-4.0728e-06
-0.0226903
0.0579663
-0.0352761
1.37469e-05
-0.000305517
-2.79939e-06
1.7575e-05
-1.47734e-05
3.54322e-05
-1.24079e-05
7.53939e-06
-1.46859e-05
7.14598e-06
0.000132035
-7.90897e-05
-0.0208598
-0.000454539
0.0213143
0.0137665
-0.00167476
-0.0120918
-0.00622731
-0.00111949
0.000760662
0.000358811
0.0135131
-0.00616012
1.764e-06
9.99174e-06
-1.17555e-05
0.000438048
-0.00158702
7.34782e-05
4.05671e-05
0.000201037
-3.78277e-05
-0.000163216
-0.000115591
0.000146684
-1.62537e-06
3.78126e-06
0.0010384
-0.00148236
0.000443966
0.0121156
-0.00686079
-0.00122863
0.00085444
0.000374152
-2.47304e-06
2.47303e-06
-0.00161829
0.0120844
-0.0104662
-8.23387e-05
0.000103526
0.000870469
-0.0047127
0.00384219
0.00188713
0.000443454
9.85087e-05
-1.76425e-05
-0.00348572
0.000283575
0.00320215
0.00465328
0.00409281
-0.00874585
-3.18951e-05
-2.71622e-05
5.95783e-06
-1.28718e-05
6.91402e-06
-6.33843e-06
0.000122369
-0.00011603
-3.84572e-05
0.000139129
0.000102341
0.000109839
-0.000212209
-8.07633e-06
2.73837e-06
5.33991e-06
-0.000258204
-7.92731e-05
0.000337476
1.44124e-05
-8.45491e-06
-6.06241e-06
-2.96041e-06
9.97868e-06
-3.0101e-05
2.01221e-05
5.35307e-05
-0.00471035
0.00465682
-0.000214527
0.000129498
8.5055e-05
-0.000262419
0.000148093
6.88765e-06
8.5011e-06
-1.53866e-05
-0.00299582
0.0109113
-0.00791564
0.000144148
7.24287e-05
1.08872e-06
-5.68526e-05
5.57713e-05
-1.24595e-05
1.63893e-05
0.00324347
-0.00318994
0.000200802
-2.62158e-05
-0.000174602
4.61756e-05
-0.000379209
0.000333045
0.0002889
-0.00134171
0.00105282
-0.00135903
1.76505e-05
0.00134137
-0.00201119
-0.0147986
-1.08081e-05
-3.75777e-07
-5.17917e-06
-7.08648e-08
5.25037e-06
0.000531212
-0.000878478
0.00034727
-1.13037e-05
-1.60441e-05
-7.62234e-08
1.61189e-05
-0.00200688
0.00316722
-0.00116034
0.000368339
-6.41884e-05
-0.00305143
-0.00373599
0.00678745
8.85842e-08
-4.11775e-06
-0.000578925
0.000374869
-4.20801e-05
7.46801e-05
-3.26002e-05
-2.45889e-05
2.80562e-06
-0.00275907
-0.00221425
0.00497336
-9.24357e-07
-4.25477e-06
-5.74064e-05
2.42978e-05
0.0087266
0.00257309
0.00319302
-0.0057661
2.14982e-05
5.09871e-06
-2.64285e-06
7.08993e-06
-4.44619e-06
-2.40349e-08
4.29093e-06
-4.26703e-06
-2.25682e-06
-3.3516e-08
2.29048e-06
0.000502749
-0.000238794
-0.00022491
0.000756122
0.0102765
0.00960717
-0.0198836
-0.00767796
0.00430285
0.00337507
6.0645e-05
0.000189482
-0.000437862
0.00024838
-0.000923611
0.000865318
5.82948e-05
0.000586261
-0.00154344
9.26164e-05
-4.89384e-05
-4.36687e-05
0.000710819
-0.000321895
-1.59762e-06
-3.07604e-06
4.67129e-06
-0.000872777
-0.00538522
0.006258
-2.47577e-06
2.80131e-06
-3.25479e-07
-0.00770714
0.00513986
0.00256728
0.000114442
0.00615429
-0.00987336
0.00371908
-0.000149421
0.00013905
0.00016183
-0.000258437
3.83522e-05
0.000153851
-9.51735e-06
-0.000144334
-0.000405525
-0.000399332
-6.75683e-07
-7.63696e-06
-3.36248e-07
-1.41532e-06
-0.00046342
-0.000895607
0.000302816
-0.000582034
0.000279228
1.46614e-05
4.82306e-07
-0.00109369
0.00300617
-0.0019125
1.16934e-05
-4.31153e-07
-0.0269033
-0.000769406
-0.000227128
-0.000141092
0.00036822
-5.36354e-05
-5.95982e-05
0.000162188
-0.000172088
-9.53112e-05
1.29752e-05
0.000799891
-0.000129868
-0.000669976
0.000102122
0.000179205
-0.000281326
0.000140093
-0.00116877
3.87561e-05
0.000729246
-0.000954747
0.000225514
0.000692409
-0.000228492
-7.62798e-05
-0.000138211
0.00205499
0.000192915
-0.0022478
-5.44726e-05
0.000936323
-3.69413e-05
-0.00019239
0.000229333
0.00503188
0.000425931
-0.00545778
2.51921e-07
-2.47585e-06
-0.000105917
2.71046e-06
0.000103208
1.69635e-05
-1.47787e-05
-6.07807e-05
-0.00027132
0.000332104
0.00205979
-0.00121615
-0.000843646
-9.52462e-06
2.28458e-05
-1.33258e-05
0.000879921
-0.000461365
-0.00446468
-0.000110065
-0.000180252
0.000290318
-0.00541558
0.0180289
-0.0126134
1.17384e-05
7.51959e-05
-8.69338e-05
-3.50956e-05
-1.86021e-05
5.36958e-05
-5.73374e-05
0.0107034
-1.67411e-05
3.29372e-06
1.34452e-05
0.00663574
0.00314258
-0.0503967
-0.0102764
-0.00227591
0.00573751
-0.00346156
6.81999e-06
-1.45481e-05
7.72776e-06
0.000907094
0.000408834
-1.90447e-06
8.52242e-07
1.05156e-06
-0.000382849
0.000601459
-0.000218607
-2.57085e-06
4.43542e-07
2.1273e-06
0.00140207
0.000657717
0.000144987
-4.15662e-05
5.30073e-06
5.55351e-06
4.04799e-05
1.38925e-06
-0.00660532
0.0127599
-0.000127426
-0.000119539
0.000246966
5.9055e-05
-4.51566e-05
-1.39001e-05
-0.00161131
0.00136564
0.000245659
1.26857e-05
-5.86415e-06
-1.75776e-05
8.05383e-06
9.40435e-05
0.000150207
-0.000244251
2.6741e-05
0.000279462
-0.000306195
-0.000224645
1.88646e-05
0.000205778
0.00699676
0.0165184
-0.0235151
0.000718017
-0.000571051
-0.000146984
-0.000202411
3.24809e-05
-6.19407e-05
1.98606e-05
0.000347713
0.000469029
-0.000816766
-0.0100428
0.0138866
-0.00813447
0.00770563
0.000428773
0.000193051
3.35593e-05
-0.000226611
3.15247e-05
-2.99063e-05
-1.64704e-06
4.43752e-05
4.82495e-05
-0.00103191
-0.000107535
5.64658e-05
-2.98265e-05
-2.66339e-05
-6.51491e-06
6.65784e-06
-1.43752e-07
1.53388e-06
-1.53457e-06
0.000192936
0.000216107
-7.58903e-06
1.07359e-06
0.000679949
0.00011995
1.05807e-05
-1.07866e-05
2.05875e-07
0.0153645
-0.0133571
-0.00200745
4.41497e-05
3.3342e-07
-4.44779e-05
7.1259e-07
-1.16825e-05
8.80519e-06
3.08e-06
-3.88678e-05
5.18524e-05
-1.29874e-05
-0.00114788
-0.00698638
3.18092e-06
1.56313e-06
-4.46374e-05
5.77048e-06
-0.00196465
-0.000448351
0.00239896
-0.00328679
-4.31981e-06
2.72143e-06
-0.00389597
0.00539309
-0.00149725
-0.000107534
5.3897e-05
0.016345
-0.0215299
-7.19536e-06
7.1951e-06
-4.52919e-06
1.83099e-05
1.61105e-05
2.78252e-05
-4.3937e-05
-2.04959e-05
0.000808735
-0.000788242
0.00908857
0.000110334
-0.000118165
7.83402e-06
0.000639701
-7.86759e-05
-0.000560984
-0.0015623
0.00171773
-4.33603e-05
5.78879e-05
-1.4529e-05
0.000388059
-0.00195031
-0.0079704
0.0101515
-0.00218099
-0.000199241
0.00123764
-0.000500986
0.000480491
-0.00101788
-0.000593432
6.40826e-06
5.28203e-07
-6.93649e-06
-0.00101997
6.24833e-05
-3.19225e-05
-3.05599e-05
-2.34693e-05
3.95788e-05
0.000339513
-0.000150034
0.000142067
-0.000937348
-0.015532
0.0018826
0.0136494
3.7181e-05
-4.98156e-05
1.26324e-05
0.00646949
0.00111014
-0.00757966
-0.00373939
-0.00142196
-0.0132545
-0.00562145
0.018876
-0.00288556
-0.00864305
0.0115286
0.00106512
-0.0018937
0.000828595
4.23786e-05
-1.77165e-05
-2.46594e-05
-0.0189714
0.0259682
-0.008819
0.00538815
1.08695e-05
-6.46924e-06
-4.40044e-06
4.18959e-06
-4.39486e-06
2.04356e-07
-5.35945e-06
7.21671e-07
4.63782e-06
1.51049e-05
-7.56555e-06
0.0158321
-0.0232138
0.00738164
7.83987e-06
-1.43133e-06
-3.60799e-06
-1.25074e-05
1.61164e-05
-0.000261511
0.000119052
0.000142446
-3.80164e-05
-0.000258984
0.000297
-0.000183257
0.000130388
-5.00714e-06
-1.01776e-05
1.51848e-05
-8.88384e-06
4.64978e-05
-3.76131e-05
-6.46862e-06
-1.02735e-05
-7.65095e-05
8.23013e-05
-5.79682e-06
0.000754058
0.000229489
-0.000983563
-8.44401e-06
1.55948e-05
-7.14955e-06
-0.000818401
-0.000410223
1.00725e-06
1.7745e-05
-1.87526e-05
-0.00089074
0.00159416
-2.12171e-05
0.000130255
-0.00010904
-0.000152029
0.000130812
-0.00117408
0.000273307
0.000900747
2.13589e-05
-2.03514e-05
0.000269473
-0.00030749
0.000212667
-6.92349e-05
-2.92309e-06
3.73515e-06
0.00730032
-0.00935898
0.00205862
9.90602e-07
6.55458e-06
-7.54496e-06
6.30581e-07
1.06896e-05
-1.13192e-05
0.000299404
6.85758e-06
0.00042352
-0.000120699
-4.23899e-05
0.000226575
-0.000184187
0.00355451
-0.00523209
0.00167761
-1.85018e-06
-4.06642e-07
3.34137e-07
3.85464e-06
-0.000432091
-0.000446384
-8.22457e-06
-4.98067e-07
-0.00483782
0.00160749
0.00323028
-9.10648e-05
1.34926e-05
0.00104813
-0.000615016
0.000365003
-0.000163615
1.42026e-05
0.00496285
-0.00142603
-6.46443e-06
3.29204e-05
-2.56345e-05
0.000257661
-0.000232027
-0.000194146
4.56915e-05
0.000103744
2.23767e-05
-0.000126125
-6.59668e-06
-1.23166e-06
7.82872e-06
-0.000172935
0.000266977
0.000190505
2.54606e-06
3.50291e-06
7.36669e-06
-0.000318984
-0.00025152
0.000278261
8.09414e-07
-4.82231e-08
-7.61673e-07
-3.10091e-05
-4.66668e-06
3.56736e-05
-0.000313169
0.000200441
0.000112732
-1.75169e-05
-1.95215e-05
3.70399e-05
-1.75348e-05
3.68931e-05
-1.93574e-05
0.000928657
-0.000288904
-2.04402e-05
1.04053e-05
1.00335e-05
-6.81787e-06
-7.96834e-06
1.47868e-05
-0.000426774
0.000191084
0.000235688
-1.79652e-06
-1.45639e-05
1.63623e-05
3.10218e-05
2.54431e-05
-2.70249e-07
2.02951e-05
-2.00265e-05
-0.000215622
-9.02581e-06
0.000173622
3.24078e-05
-9.07219e-06
-2.33352e-05
-0.00109277
-8.13377e-05
-0.000265132
-0.000107129
0.000372261
-0.00420553
0.008208
-0.00400266
2.19984e-05
-1.03173e-05
1.09491e-05
-0.000189172
0.000291296
-6.37713e-06
1.60197e-06
4.77688e-06
6.92279e-06
-8.96415e-06
2.77373e-06
6.19055e-06
-2.55801e-06
8.22589e-08
1.00294e-05
-1.50366e-05
-0.000284481
0.000145271
0.000139208
1.53662e-06
-9.76423e-06
-0.000959526
-0.00387831
-3.3358e-06
7.03044e-06
-0.0014868
0.00102338
1.37471e-05
-0.000155025
-0.00015171
-0.000139819
0.00029153
0.000155326
-0.000307036
-1.31143e-05
-3.6873e-05
0.000147209
-0.020357
0.0123867
-0.00339672
0.00433168
-0.00183959
-0.00433382
0.00617347
-4.17805e-06
5.16732e-06
0.000990193
-0.00224316
-2.20733e-05
5.98674e-05
-3.7796e-05
-0.000191169
0.000257118
-6.59498e-05
1.09705e-05
-9.3697e-06
-1.60205e-06
-6.38774e-06
-1.59685e-06
-3.31302e-06
-1.16473e-06
4.47772e-06
2.07423e-05
-0.000235384
0.000214642
3.40548e-06
-3.44168e-05
0.000996478
1.78065e-05
-1.21816e-05
-5.62493e-06
-0.000750723
0.000318633
-0.000173026
0.000193774
3.87339e-05
0.000254705
0.000318524
-0.000162053
-0.000156471
0.000134565
0.000142067
-4.79867e-06
-7.46766e-07
6.65941e-06
-6.59606e-06
-0.00357557
0.00181091
0.00176464
0.0180716
-0.00612487
-0.0119467
0.00148561
0.000126317
-0.00161193
2.64244e-07
6.98606e-07
-2.94092e-06
3.83818e-06
-8.97936e-07
-4.45296e-05
2.70138e-05
1.08161e-06
-2.4189e-06
-0.00358334
0.0082368
0.00172632
0.00386977
-0.00559584
8.70937e-05
-4.42556e-05
-4.28343e-05
0.00126252
-0.00515859
-1.41366e-06
-0.0112108
0.0130235
1.3655e-06
-6.34852e-05
-4.20935e-05
0.000105578
4.38816e-05
4.3214e-05
0.000937559
0.0141718
2.72488e-05
1.21219e-05
1.5694e-05
0.00629436
0.000214623
0.000103901
-0.000309226
4.40945e-05
1.26248e-06
-7.1795e-06
-0.0188463
0.0203617
-0.00205912
6.33166e-05
-6.806e-05
4.74516e-06
3.45623e-06
1.40999e-05
-1.7557e-05
-0.000157952
0.000292838
-0.000134887
0.0027027
-0.00790993
-0.00269434
-0.00146298
-4.57636e-05
7.72723e-05
-1.85777e-05
0.00163537
0.0026358
-0.00427116
-9.40615e-06
6.09253e-06
-9.01559e-05
0.000613306
-0.000523146
0.000279417
-0.000221779
-5.7638e-05
0.0041325
-0.0012583
1.16755e-05
2.35179e-06
-1.40273e-05
-3.59932e-05
2.32956e-05
-7.162e-06
-2.08796e-06
3.84158e-05
-6.75948e-05
0.000550165
-0.00020246
-7.44927e-06
2.65059e-06
1.3088e-05
4.3742e-05
-5.68326e-05
1.34533e-05
-1.77795e-06
2.1934e-05
-0.000249063
0.000693431
0.000261192
-0.000954744
-0.00072985
-0.000756955
-0.000287111
9.59403e-05
3.53692e-06
6.80564e-06
-0.00121075
0.00040003
0.000810752
0.00405935
-0.000504847
0.000121464
-6.12989e-05
0.000456107
0.000190776
-9.84994e-05
-9.22792e-05
0.00501223
-0.0068518
-7.1905e-06
3.87768e-06
6.88914e-06
0.00252438
0.00212414
0.000267777
-0.000232835
-3.49411e-05
-3.34282e-06
-4.49866e-05
3.61031e-05
-5.12535e-06
-1.78064e-05