/*--------------------------------*- C++ -*----------------------------------*\
| =========                 |                                                 |
| \\      /  F ield         | OpenFOAM: The Open Source CFD Toolbox           |
|  \\    /   O peration     | Version:  v2012                                 |
|   \\  /    A nd           | Website:  www.openfoam.com                      |
|    \\/     M anipulation  |                                                 |
\*---------------------------------------------------------------------------*/
FoamFile
{
    version     2.0;
    format      ascii;
    class       volScalarField;
    location    "300";
    object      k;
}
// * * * * * * * * * * * * * * * * * * * * * * * * * * * * * * * * * * * * * //

dimensions      [0 2 -2 0 0 0 0];


internalField   nonuniform List<scalar> 
27802
(
0.000184843
0.000141973
0.000150216
0.000152738
0.0266884
0.000146043
0.000151545
0.000147902
0.000182125
0.000149558
0.000138726
0.0386391
0.0366291
0.000183748
0.000141413
0.000151514
0.000127858
0.0367663
0.0241453
0.000181141
0.000140809
0.00014603
0.000185742
0.000195329
0.000135661
0.000148198
0.0001448
0.000149468
0.000135626
0.0033008
0.000144744
0.000154807
0.0113497
0.000207969
0.0143097
0.000142011
0.000196144
0.00251712
0.000144694
0.000144365
0.000146983
0.00014439
0.0184568
0.000239914
0.000139788
0.000141281
0.000209127
0.000145952
0.000137062
0.00017833
0.000156004
0.00013983
0.00406299
0.000140589
0.000143201
0.000145837
0.0163478
0.000182597
0.000145303
0.0222308
0.000141997
0.000145211
0.00296354
0.000154118
0.0361459
0.000190091
0.0268046
0.000150252
0.0296624
0.000153152
0.000139741
0.000200255
0.0173643
0.000199807
0.00326536
0.000156114
0.00189213
0.024825
0.000176808
0.000151209
0.0205523
0.000222151
0.000137296
0.000182421
0.000144565
0.000152911
0.000135488
0.000143091
0.000200412
0.000195311
0.0310914
0.000145012
0.000251812
0.000151136
0.00013936
0.000145878
0.000159483
0.0275618
0.000146947
0.000207795
0.000222284
0.000147307
0.000152471
0.000155504
0.000209278
0.00014499
0.000184576
0.000182748
0.000142296
0.000168455
0.000152954
0.000141327
0.000147356
0.000265418
0.000135619
0.000193785
0.000158568
0.000139317
0.000156531
0.000180452
0.0395263
0.0326818
0.000167533
0.000135615
0.000143626
0.000168006
0.000209654
0.000305995
0.0379709
0.0386613
0.000152496
0.000167199
0.000146785
0.000149098
0.000137325
0.000149374
0.000148727
0.000138255
0.000179025
0.000186912
0.000149816
0.000145113
0.000167838
0.000135281
0.000135593
0.000151134
0.000148659
0.000150289
0.000140062
0.000146383
0.000139109
0.000145822
0.000153135
0.000150508
0.000179077
0.000143416
0.000211419
0.000206558
0.0001683
0.000198705
0.000209602
0.000200504
0.000152844
0.000156442
0.000128048
0.000134837
0.000139517
0.000146139
0.00014397
0.000182207
0.000154778
0.000158363
0.000143864
0.00453538
0.000144888
0.0336769
0.000134672
0.000160061
0.000139577
0.000198341
0.000195238
0.000166684
0.000163297
0.000150932
0.000143824
0.000180817
0.000143374
0.000149519
0.000203224
0.00169507
0.000140517
0.000154418
0.000184592
0.000150953
0.000133594
0.0001445
0.000133585
0.000139109
0.000142174
0.000145129
0.0434552
0.00416917
0.000358315
0.000156682
0.000142325
0.000167277
0.000152829
0.000309751
0.000132664
0.0239211
0.000142208
0.001746
0.0320104
0.000159885
0.000204104
0.000141836
0.00132544
0.000151128
0.000146168
0.000143518
0.0385456
0.000128604
0.000180382
0.00019672
0.000143765
0.000137982
0.000137558
0.000154376
0.00014133
0.000147383
0.000128507
0.0190831
0.000145893
0.000164224
0.0190797
0.000187622
0.000146385
0.000141358
0.0129315
0.000158247
0.000145819
0.00177399
0.00215246
0.000145496
0.000159675
0.00981497
0.000138861
0.0011221
0.000150606
0.000149811
0.000187921
0.000164786
0.000184458
0.000146109
0.00015991
0.000133813
0.000144163
0.00022819
0.000156676
0.000133601
0.000164877
0.000146533
0.0341725
0.000132443
0.0415833
0.00015997
0.0445465
0.000147463
0.000128587
0.000144916
0.000207315
0.000140509
0.000186448
0.00024241
0.000150839
0.000213451
0.00014961
0.000168335
0.000159746
0.000143913
0.000821753
0.000164338
0.000151987
0.000191682
0.00021442
0.00225244
0.000228094
0.000147337
0.000156783
0.000142137
0.000129446
0.000198625
0.000134284
0.00769281
0.000134233
0.000179892
0.00019387
0.000144779
0.0267528
0.00442205
0.000190271
0.000150638
0.00015733
0.000198078
0.0222836
0.00017984
0.000146321
0.0403652
0.000161765
0.000149805
0.000162375
0.000180365
0.000186018
0.000149238
0.000165852
0.000142181
0.000162747
0.000184468
0.000168151
0.000184429
0.00014677
0.000142366
0.000129295
0.00013987
0.000252283
0.000146159
0.034957
0.000146116
0.000142387
0.000163097
0.000148755
0.0170972
0.0031405
0.000204118
0.000196197
0.00406018
0.000186209
0.000142173
0.000185232
0.000140347
0.000128111
0.0367917
0.0328474
0.000181266
0.000200069
0.000381035
0.000209513
0.00221673
0.000150591
0.00014037
0.000135895
0.0311409
0.000143772
0.000149354
0.00014775
0.00014901
0.00253782
0.000190065
0.000142675
0.000140138
0.00021324
0.00262865
0.000140503
0.000169012
0.000133402
0.000147761
0.00172864
0.00014714
0.000164149
0.000142681
0.000141929
0.000209985
0.000170544
0.000196055
0.00187334
0.0439344
0.000170848
0.00015264
0.000162134
0.0001413
0.000149384
0.000133479
0.00014747
0.000140585
0.000141798
0.000146017
0.000214466
0.000153489
0.000209789
0.000162458
0.000142406
0.0001457
0.00016114
0.000168395
0.00014192
0.0190071
0.000347347
0.000184936
0.000143592
0.000184855
0.0368852
0.000168655
0.000142114
0.000180573
0.000144053
0.00230954
0.000166025
0.000210245
0.00207812
0.000167211
0.0231055
0.000152821
0.0387764
0.0362865
0.00326618
0.000146162
0.000140181
0.000163622
0.00013525
0.00199584
0.0190619
0.000150199
0.000154302
0.000148184
0.000660623
0.000150126
0.000152758
0.0390169
0.000204464
0.000155708
0.000140267
0.000165295
0.00307213
0.000141865
0.00014751
0.000142351
0.000190639
0.000322514
0.000315187
0.000163467
0.000176471
0.000155846
0.000142188
0.00014098
0.000186151
0.000142515
0.000136335
0.000151794
0.000185853
0.000173612
0.0209817
0.0179551
0.00169748
0.0213819
0.000134527
0.000170477
0.000163638
0.000235425
0.00175146
0.000142658
0.000182114
0.000258981
0.000176827
0.000180351
0.000128226
0.000153345
0.000351719
0.000142483
0.000164827
0.000136279
0.000159909
0.000142131
0.000147059
0.000201958
0.000204458
0.00301251
0.000147088
0.0168669
0.000128301
0.000156233
0.000194176
0.000156206
0.000154834
0.000184838
0.00018609
0.0033788
0.000152358
0.000149522
0.000194611
0.000141972
0.000142429
0.00284611
0.000144789
0.0423138
0.000146817
0.0379009
0.00297026
0.0027589
0.000141985
0.000212565
0.0373311
0.000168035
0.000801991
0.000199517
0.00291393
0.000218567
0.000158383
0.000165313
0.000186475
0.000149136
0.000146074
0.0113437
0.000171714
0.000139197
0.000142978
0.000210074
0.00323475
0.000178957
0.000143467
0.000173249
0.000153397
0.00537247
0.000147742
0.000162688
0.000201974
0.000140551
0.000133974
0.000149376
0.00252234
0.0372922
0.00017623
0.0160976
0.000139276
0.00014868
0.0370615
0.00014146
0.000171765
0.000141758
0.000134055
0.000240547
0.000596182
0.000142559
0.000149051
0.000139318
0.00018612
0.000143846
0.000160346
0.00146659
0.000176124
0.000186391
0.0273425
0.000191967
0.00272313
0.0108776
0.000143638
0.0374416
0.000149532
0.000174339
0.000155781
0.000147464
0.000143619
0.000892403
0.000145088
0.000141878
0.000135454
0.0048224
0.000160578
0.000150847
0.000197103
0.000214051
0.000215814
0.0429842
0.028927
0.000168307
0.000196481
0.000159776
0.0433854
0.000146426
0.000180768
0.00469726
0.000201631
0.0135207
0.000167237
0.000150821
0.0216799
0.000173712
0.000135505
0.0213466
0.000189472
0.000216602
0.000243821
0.000190925
0.000135517
0.000151635
0.000173473
0.000144429
0.000185384
0.00020033
0.000134555
0.000152261
0.000137969
0.000205089
0.000221484
0.0001508
0.0056431
0.0396215
0.000155668
0.000159655
0.000143633
0.0307004
0.00937285
0.0076664
0.00020952
0.000182384
0.00258625
0.000141782
0.000200683
0.000151948
0.0421516
0.0387813
0.000137775
0.000167718
0.00287353
0.000210717
0.000150025
0.0315836
0.000163471
0.0248517
0.000168903
0.000151403
0.000248448
0.0287918
0.000189211
0.000142532
0.000172422
0.000158991
0.000175116
0.000157077
0.00841469
0.00014254
0.000143539
0.000156231
0.000200127
0.0383073
0.000200694
0.000155022
0.0289242
0.000168413
0.0309888
0.000142292
0.00018558
0.000186238
0.000193423
0.0275816
0.00015687
0.00289582
0.000158998
0.000135303
0.000147987
0.000146277
0.000146666
0.00017709
0.00021504
0.000231109
0.00014611
0.000175636
0.000153741
0.000156433
0.000211353
0.000135054
0.000149602
0.000307477
0.000220245
0.00015672
0.000140199
0.000156286
0.000151181
0.000162402
0.000147242
0.00358277
0.000417083
0.000154858
0.000188436
0.000180171
0.0277327
0.0299641
0.00018565
0.000142426
0.000248416
0.000144209
0.000339022
0.000149041
0.000290311
0.000175062
0.0397059
0.000135896
0.000145482
0.000204065
0.000159507
0.000135641
0.000156076
0.000193973
0.000141785
0.000187622
0.00014367
0.00394432
0.000140765
0.000157783
0.000191901
0.000163572
0.000159112
0.000506127
0.000180925
0.000167566
0.000185505
0.000152463
0.0406125
0.0268107
0.000201406
0.000169312
0.0281658
0.000139456
0.000153666
0.000155954
0.0078254
0.000183775
0.000155491
0.000153417
0.000207459
0.0311856
0.0231866
0.0295201
0.000161651
0.000185112
0.0330231
0.000149852
0.000211106
0.016218
0.000212839
0.000134806
0.000177612
0.000145544
0.000219685
0.000128793
0.000184086
0.0383184
0.000154849
0.000145981
0.000295765
0.0414339
0.00016746
0.000161544
0.000134548
0.000155222
0.00016088
0.000181703
0.000172554
0.0032558
0.000177444
0.000149823
0.000153534
0.000181885
0.00308565
0.0118615
0.000140402
0.00378479
0.0305288
0.000154488
0.00015044
0.000139295
0.000148258
0.0371459
0.000139239
0.000159142
0.000160397
0.0234662
0.0218289
0.00014869
0.000145738
0.000158449
0.0144323
0.000127866
0.000158325
0.000177852
0.000221259
0.000140523
0.0276821
0.000157538
0.00456764
0.000154367
0.000147532
0.000160336
0.000157016
0.0307014
0.00016066
0.0284185
0.000206163
0.000168451
0.000206435
0.0025402
0.000166702
0.000156145
0.000161549
0.000138565
0.000156739
0.000184528
0.00015993
0.000188063
0.000191899
0.00280953
0.000138605
0.0164387
0.00019379
0.00325552
0.000400857
0.000194265
0.000157632
0.00341036
0.000189767
0.000134242
0.000139617
0.00014323
0.000143771
0.0320936
0.000138702
0.000148397
0.0386685
8.74259e-05
0.0406243
0.000143369
0.000163164
0.000149816
0.000150791
0.000180582
0.00014449
0.000218214
0.000155655
0.000174284
0.000138588
0.000138535
0.000205233
0.000156003
7.60787e-05
0.000150219
0.000128844
0.00133919
0.000139549
0.000141177
0.0427293
0.000193822
0.000186519
0.000180135
0.000151226
0.000139112
0.000148207
0.00014945
0.000205766
0.000189817
0.00071158
0.000150753
0.000174914
0.000187003
0.000148424
0.000159011
0.0411482
0.000162423
0.000149038
0.00016094
0.000140413
0.000134374
0.0105479
0.000180786
0.000142991
0.000145744
0.000169013
0.00018517
0.000159463
0.0286293
0.000150348
0.000154404
0.000294494
0.000145688
0.000150504
0.000147534
0.000173207
0.000186559
0.000148546
0.000204172
0.000152375
0.0195461
0.000151027
0.000141146
0.000133477
0.000142576
0.000145792
0.000138195
0.000144229
0.00014335
0.0381281
0.000149457
0.000214141
0.000139812
0.000156064
0.000139558
0.000139876
0.00013995
0.000142355
0.000160679
0.00310344
0.000187094
0.000214305
0.000139473
0.0080541
0.000167895
0.00017045
0.000148991
0.000139652
0.000134719
0.000157085
0.000145513
0.000190938
0.000130005
0.000147807
0.000156667
0.024433
0.000142773
0.000167003
0.000136476
0.000128626
0.000184057
0.00312682
0.0250051
0.000144064
0.000140146
0.000184858
0.000140785
0.0301591
0.000230969
0.000174362
0.0278576
0.000128477
0.00211822
0.000149131
0.000175899
0.000174608
0.000203552
0.000138159
0.000167758
0.0279478
0.00014277
0.000152108
0.000158658
0.00403904
0.000183215
0.00017351
0.000145851
0.000139772
0.000283816
0.000194489
0.00233677
0.000164413
0.000199144
0.000139265
0.000149346
0.000139523
0.000186753
0.00013451
0.000132029
0.000146765
0.000162916
0.000181651
0.000136548
0.000161615
0.000134308
0.000140407
0.00020699
0.000155156
0.000170635
0.000148378
0.000188538
0.000180077
0.00013981
0.019196
0.000149189
0.000213759
0.00013477
0.0417779
0.000174727
0.000149049
0.000128589
0.000163347
0.000131435
0.000188714
0.00358078
0.000142924
0.000150294
0.0184245
0.00564388
0.000146158
0.02651
0.0217829
0.000234536
0.000142488
0.000239639
0.0202368
0.041261
0.000147043
0.00596626
0.000129494
0.000143146
0.000142875
0.000141288
0.000155698
0.000138463
0.000160062
0.000200871
0.00346502
0.00355844
0.00053738
0.000150788
0.000178035
0.000180292
0.000138277
0.000139681
0.0302921
0.000263161
0.000145405
0.00565208
0.000148754
0.0197057
0.00125294
0.000138591
0.00318922
0.000131843
0.000157564
0.0256521
0.000182764
0.000140196
0.000148199
0.00013786
0.000154214
0.000147548
0.000141225
0.0263209
0.0149322
0.000160199
0.000188729
0.000148801
0.00014837
0.0297291
0.0340094
0.000149111
0.0001875
0.000175628
0.00450484
0.000607663
0.000140836
0.000142062
0.0301422
0.000178576
0.000145534
0.000172259
0.000625828
0.0238504
0.00438967
0.000156923
0.000146924
0.00255642
0.000141099
0.000159684
0.000164972
0.000171119
0.0271285
0.000140968
0.000145714
0.00013996
0.000146799
0.000187196
0.000141689
0.000140813
0.0401674
0.0180272
0.000180851
0.000186941
0.000147651
0.000148408
0.00973804
0.0269156
0.000154355
0.000164998
0.000150832
0.0412357
0.000188988
0.000180089
0.000168709
0.000168453
0.000140964
0.000145954
0.000142027
0.000144278
0.000143452
0.000183584
0.000160365
0.000155082
0.0276965
0.000195295
0.000168152
0.035346
0.000145495
0.015053
0.000190076
0.000638148
0.000152735
0.00929549
0.000198917
0.00013472
0.000175236
0.00014387
0.00014013
0.000182142
0.00014067
0.00117058
0.00015066
0.000150337
0.000150292
0.000169737
0.0001505
0.000142499
0.000138377
0.000140856
0.000150712
0.000173012
0.0220374
0.000139864
0.0312636
0.000164322
0.0271968
0.000151925
0.000160419
0.00449219
0.000138491
0.000139028
0.0356365
0.000138305
0.00016924
0.000149028
0.000232817
0.000211896
0.0357133
0.0196353
0.000150488
0.00015587
0.000346337
0.000143103
0.000171951
0.000150882
0.000144955
0.000188822
0.027857
0.0111534
0.000201227
0.000185175
0.0001464
0.0155034
0.0376701
0.000186438
0.000175147
0.0225544
0.00130753
0.000179554
0.000234746
0.00462098
0.000153174
0.000231135
0.000187689
0.00015577
0.000148697
0.000159147
0.000569149
0.000150239
0.00316065
0.00102267
0.000149527
0.000137048
0.00356791
0.00500538
0.000140593
0.000157388
0.000151143
0.000150893
0.0335977
0.000315696
0.000150093
0.000140726
0.000149584
0.000164929
0.00019338
0.000159677
0.000153683
0.0225771
0.00014567
0.000156271
0.000260997
0.000141088
0.000152382
0.000167743
0.000137851
0.000190403
0.0239254
0.000160089
0.010225
0.000369385
0.000179473
0.000147763
0.00016335
0.000181037
0.000145401
0.02083
0.0403724
0.000187009
0.000140548
0.000374164
0.00252225
0.000179332
0.000187821
0.000129275
0.00352961
0.000148427
0.0354904
0.0263155
0.000149375
0.000146979
0.000138445
0.000164105
0.000152161
0.000152337
0.000142728
0.000137128
0.000191433
0.000136956
0.000162623
0.000194831
0.000194961
0.0305541
0.000148977
0.000205822
0.000163892
0.000153975
0.000201319
0.000142305
0.000160243
0.000150483
0.000138406
0.000143048
0.0293203
0.000246127
0.000141866
0.000149862
0.00044889
0.00020557
0.00175091
0.000156801
0.000135339
0.000159285
0.000214471
0.000463541
0.000138512
0.00201855
0.000154533
0.000140062
0.000138247
0.00302724
0.000138389
0.000148754
0.000153009
0.000157573
0.000175485
0.0235098
0.000168236
0.00014133
0.000184894
0.000146734
0.0359138
0.000213802
0.000141834
0.000138502
0.00561386
0.020358
0.0364141
0.00019573
8.04421e-05
0.000189493
0.000157254
0.000141336
0.000138496
0.00316383
0.000161779
0.000162079
0.000217449
0.000186777
0.000145909
0.000163353
0.000145457
0.000196157
0.00013841
0.000134819
0.000137584
0.000177073
0.000146714
0.000147039
0.000201199
0.000181173
0.000153692
0.0254144
0.000147929
0.00659382
0.000169698
0.000141817
0.000161125
0.0430054
0.000212506
0.000149948
0.00015124
0.000186663
0.000150442
0.000150259
0.000474108
0.000196238
0.00013778
0.000138657
0.000559281
0.0320379
0.000138055
0.000154098
0.000181974
0.000150349
0.000134827
0.000219521
0.00494673
0.000146527
0.000181204
0.031923
0.000196401
0.00012948
0.000188652
0.000155368
0.000139756
0.000152061
0.0163919
0.000159518
0.0336801
0.00014208
0.000138113
0.0247372
0.000142257
0.000144599
0.000152744
0.000196296
0.000186977
0.000155464
0.000145294
0.000136313
0.000138454
0.00019697
0.0430149
0.000175117
0.000163465
0.000169498
0.000146082
0.00018027
0.00308292
0.000180246
0.000128941
0.00018691
0.000228532
0.000439969
0.000151935
0.000171132
0.0413111
0.000139145
0.000129901
0.000519946
0.000141265
0.0259487
0.000145538
0.00972009
0.000159146
0.000186869
0.000157766
0.000189354
0.000140069
0.000139681
0.00017305
0.000138614
0.00345434
0.000152016
0.000131097
0.000142918
0.0136209
0.000430229
0.0271675
0.000139226
0.00317554
0.000137196
0.000212205
0.000195538
0.000189912
0.0171728
0.000221503
0.000148162
0.00016283
0.0273458
0.000139022
0.0001606
0.000150179
0.000145565
0.000142042
0.0018351
0.000239918
0.000174763
0.000139997
0.000147009
0.000179602
0.000308862
0.000143861
0.000151612
0.000138618
0.000160303
0.000144619
0.000175572
0.0220899
0.000130043
0.00015419
0.000189413
0.00013902
0.000150248
0.00482915
0.0371114
0.000152845
0.00013712
0.00345315
0.000161317
0.000157703
0.000146745
0.0295735
0.00016066
0.026522
0.000171399
0.034723
0.0172411
0.000209449
0.00015785
0.000257826
0.000210209
0.000141581
0.00014137
0.000201405
0.000138414
0.000174521
0.0110245
0.000154362
0.0138255
0.000141463
0.000229717
0.0015878
0.011753
0.0244653
0.000150976
0.000147482
0.000151186
0.000190565
0.000142569
0.00014898
0.00361188
0.00147959
0.0280144
0.000170579
0.000168636
0.000157067
0.00013414
0.00558609
0.000146292
0.000275606
0.000146266
0.000137424
0.0237013
0.000141709
0.000160779
0.00678214
0.000141996
0.000152848
0.000152162
0.000286879
0.0110178
0.000146438
0.000164877
0.0404995
0.000145683
0.0187286
0.00015523
0.00013993
0.000198605
0.000149422
0.000165674
0.000145096
0.000146401
0.000141932
0.000184547
0.00021318
0.000169313
0.000141715
0.00294318
0.000137447
0.00013425
0.000302848
0.000148277
0.000220415
0.000144912
0.00014127
0.000145301
0.000213028
0.000138465
0.000846504
0.0342452
0.000139872
0.000146709
0.000153157
0.000156653
0.000200705
0.000178547
0.000151593
0.000151474
0.000140169
0.000160194
0.000172414
0.00014546
0.00918041
0.0120681
0.000149226
0.000174407
0.000147315
0.000150001
0.000150738
0.000150006
0.000149968
0.000150074
0.000145767
0.000133407
0.000765558
0.000145266
0.000173125
0.000141864
0.000150974
0.00018847
0.000175708
0.0003387
0.0100194
0.000168765
0.000145101
0.000145736
0.000160457
0.000153146
0.0198715
0.0112613
0.00157873
0.000161688
0.000146182
0.000151764
0.000146826
0.000305854
0.028865
0.000213226
0.0261452
0.0416875
0.000150497
8.89554e-05
0.000143703
0.000171572
0.000170154
0.000142646
0.000163256
0.000146117
0.000196522
0.000384925
0.000144843
0.000146695
0.000158284
0.000201762
0.000163574
0.000143626
0.00015809
0.000146679
0.000155604
0.00014753
0.000159003
0.000147759
0.000195987
0.000146821
0.000177537
0.0345668
0.0367732
0.000687152
0.000377547
0.000152011
0.0259021
0.000225076
0.0280731
0.000149158
0.000201719
0.000139877
0.000358422
0.00486346
0.000157254
0.0262901
0.000158771
0.000149621
0.000196292
0.000149565
0.000158337
0.00596224
0.000168009
0.000137558
0.0283126
0.000180407
0.000152912
0.000207474
0.0437761
0.000213268
0.000154275
0.000141905
0.000155554
0.000147154
0.000209705
0.00951773
0.000148485
0.000145488
0.0118298
0.0305552
0.000137594
0.000143389
0.000196139
0.0298512
0.000158758
0.00013775
0.000142968
0.000177572
0.000139775
0.000154843
0.000129785
0.000192346
0.0230401
0.0254121
0.000194885
0.000141902
0.000140925
0.000143668
0.00013452
0.000210159
0.000156504
0.000147448
0.000212618
0.000178586
0.000155319
0.000156474
0.000154982
0.000149884
0.000168652
0.0354342
0.000327131
0.0303465
0.0302495
0.000175202
0.000161791
0.000154826
0.000153483
0.000164681
0.000212286
0.000183016
0.000141226
0.000153734
0.000141446
0.0001503
0.000140893
0.000148035
0.000142769
0.00312674
0.000170401
0.000157115
0.000174208
0.000150336
0.00014006
0.00014522
0.000199519
0.00017424
0.000143494
0.000222752
0.000157245
0.00510788
0.000149723
0.000147952
0.000182426
0.0217215
0.000141134
0.000171764
0.0001452
0.0343377
0.000203976
0.000166208
0.00136938
0.00964897
0.000142149
0.000136165
0.000160484
0.000168077
0.000150091
0.0170784
0.000163852
0.000136202
0.000142259
0.000177435
0.000166077
0.0177641
0.000149349
0.000177531
0.000172985
0.0216887
0.0222523
0.000218942
0.000164669
0.000153942
0.000155502
0.000185774
0.000172916
0.00333905
0.00173622
0.000137564
0.000204253
0.00015873
0.00015659
0.000151286
0.00014323
0.000168016
0.00013692
0.000142924
0.000170131
0.00015416
0.000147293
0.00396118
0.00018559
0.000211336
0.000164064
0.000150223
0.000149923
0.000137533
0.000168154
0.000156795
0.03538
0.00021402
0.000137706
0.000932465
0.00520333
0.0195795
0.000530031
0.000164235
0.00288812
0.000176154
0.000923512
0.000145165
0.000186294
0.000178266
0.000147295
0.000163539
0.000226612
0.000172558
0.00014537
0.000209954
0.000157661
0.000140456
0.000498973
0.0410463
0.0146004
0.000212627
0.0168487
0.000172237
0.000134358
0.000148225
0.000134505
0.000182827
0.000140086
0.000161462
0.000202232
0.00022064
0.00127219
0.000214029
0.0244234
0.0336843
0.000184854
0.000163911
0.000163665
0.0277334
0.000173995
0.000158235
0.000156461
0.000176241
0.000161139
0.000170209
0.000151836
0.0215017
0.000181978
0.0098676
0.000150091
0.027682
0.0244459
0.000408733
0.00015136
0.000174595
0.0406583
0.0113749
8.76796e-05
0.00835548
0.000138033
0.0195679
0.000410021
0.00017057
0.000147069
0.0278136
0.000168565
0.000167105
0.00016602
0.00105416
0.000171734
0.000133248
0.000132956
0.000189235
0.000170639
0.000188349
0.000216723
0.000170815
0.000198666
0.000153405
0.000136082
0.000137669
0.000215175
0.000145663
0.000145522
0.0284083
0.000208349
0.000812499
0.000146644
0.000223539
0.0125697
0.00021337
0.000970598
0.000149968
0.000142643
0.00416928
0.000142185
0.000144757
0.000170822
0.000254193
0.0372658
0.000175318
0.000137232
0.0260971
0.000158079
0.000148466
0.000145248
0.000160613
0.000132432
0.000141166
0.000157608
0.00018162
0.000148628
0.00019346
0.000137862
0.000134878
0.00017337
0.000164911
0.00018473
0.000156811
0.000151502
0.000150435
0.000138644
0.0393629
0.000156148
0.000138164
0.000141437
0.0121192
0.000151137
0.0390887
0.000169239
0.000147843
0.00686941
0.000146815
0.000152167
0.000147257
0.000145059
0.000147653
0.000163004
0.000159446
0.00014263
0.000175514
0.000153052
0.000166812
0.000165697
0.000143314
0.000204099
0.000187874
0.000156897
0.000138928
0.036448
0.000156309
0.000164607
0.000145431
0.000138415
0.000124221
0.00359815
0.000216543
0.00373712
0.000158401
0.000156736
0.000143363
0.000147824
0.000185476
0.000138668
0.000138813
0.000136031
0.000163661
0.000138834
0.000163782
0.00108785
0.000166722
0.000138517
0.000229365
0.000159426
0.000138801
0.000141568
0.000170256
0.000140867
0.0279438
0.000146804
0.000139735
0.000157024
0.000176338
0.000157217
0.000152553
0.000155097
0.000197897
0.000150214
0.000155348
0.000186565
0.000589115
0.000161785
0.000244531
0.000155987
0.000148324
0.000144779
0.000150461
0.000175348
0.0001636
0.000149188
0.000142072
0.000165959
0.0264505
0.0218556
0.000141071
0.000195409
0.000178475
0.000140797
0.000135611
0.000145175
0.000239216
0.000381614
0.00014405
0.000141425
0.000153449
0.0238933
0.000194809
0.000159347
0.000150973
0.00548918
0.000174237
0.000156809
0.000202265
0.000168515
0.00379219
0.000146968
0.0218522
0.000147536
0.000138566
0.000135548
0.000195156
0.000298922
0.000148879
0.000152663
0.000157788
0.000169181
0.00014987
0.00327718
0.00366067
0.000169471
0.000139622
0.000161216
0.000141194
0.000301562
0.000170628
0.0416831
0.000152985
0.000156632
0.00015592
0.00675136
0.000158922
0.000138742
0.0274862
0.00013827
0.000142081
0.0119239
0.000136587
0.000146208
0.000171594
0.000876137
0.00350284
0.00087864
0.000174758
0.000238006
0.000174731
0.0127162
0.000192546
0.000146154
0.000133654
0.0416557
0.000201476
0.0184764
0.000147052
0.000174303
0.00016709
0.00014025
0.000183131
0.000788428
0.000163596
0.000186372
0.000326538
0.000147877
0.000150965
0.000147999
0.000177774
0.000142311
0.0298531
0.000162286
0.000142782
0.000449586
0.0301327
0.000210081
0.000164189
0.00014922
0.000160296
0.000151144
0.00014002
0.000142477
0.000175004
0.000230045
0.000210477
0.000139763
0.000214834
0.000162483
0.000172334
0.000186808
0.000152921
0.000230169
0.000189727
0.000137563
0.00017245
0.00017339
0.000127901
0.000165449
0.000148178
0.00446461
0.000195351
0.000184504
0.00948294
0.000161228
0.000154897
0.00409084
0.000139601
0.00108543
0.000185569
0.000296201
0.000141756
0.0001366
0.000137634
0.000145842
0.00014811
0.00014428
0.000139809
0.000187002
0.000177762
0.000148879
0.000191846
0.000145026
0.000137395
0.000200749
0.000188293
0.000174801
0.000234117
0.000131423
0.000138962
0.000150147
0.000189468
0.0422662
0.000141871
0.000155576
0.000140763
0.023581
0.000140281
0.000168387
0.000181351
0.000190089
0.000140581
0.000157405
0.000137779
0.00146427
0.000195299
0.000180142
0.000225689
0.0045751
0.000147539
0.00768022
0.000145127
0.000222556
0.000154376
0.000286609
0.000639913
0.000208044
0.000142624
0.000138204
0.00339111
0.000152512
0.000201144
0.000130807
0.00253104
0.0041237
0.000139779
0.000167125
0.000145955
0.000427644
0.00138283
0.000153
0.00696904
0.000156208
0.0300701
0.000159855
0.000203715
0.000446068
0.000187037
0.000187008
0.000149872
0.000154654
0.000150237
0.000140968
0.000148433
0.000158105
0.000175522
0.00020372
0.000150539
0.000194498
0.000138384
0.000151763
0.000149033
0.000162451
0.000141057
0.00014973
0.000144954
0.0252663
0.000184709
0.000237469
0.000137173
0.000381008
0.000138428
0.000132614
0.000141102
0.000173186
0.000187366
0.00013238
0.00013845
0.000142094
0.000159916
0.000144075
0.000159754
0.000139853
0.000187596
0.00219732
0.000172743
0.00017057
0.00274602
0.000202774
0.000207828
0.00295188
0.000180727
0.000139509
0.000128729
0.000187871
0.000140802
0.00105785
0.000163132
0.0146963
0.000151166
0.00439698
0.00324399
0.00014749
0.000163995
0.0251003
0.000148218
0.00384122
0.000179188
0.000154776
0.00109219
0.000138943
0.000142688
0.00013421
0.000225199
0.000183926
0.000145663
0.000148061
0.000887414
0.0164916
0.000147897
0.000199632
0.0308807
0.0170173
0.000577147
0.000141081
0.000166097
0.00321841
0.000161133
0.000266776
0.00018455
0.00015685
0.000244686
0.000188942
0.0248239
0.000144823
0.000215748
0.000139242
0.00443634
0.000148136
0.000138346
0.000194811
0.000166529
0.00016804
0.000138937
0.000748625
0.000175199
0.0140484
0.000140133
0.000149138
0.000226767
0.000186082
0.0407233
0.0366559
0.000415621
0.0202012
0.000152623
0.000162017
0.000137995
0.000179583
0.000250752
0.000149748
0.0002603
0.000140123
0.000147128
0.00898857
0.00013531
0.000184291
0.000136122
0.000138169
0.000179958
0.000748236
0.000158388
0.000250847
0.000494868
0.0157416
0.000149317
0.000154018
0.000166906
0.000137953
0.000141829
0.000161332
0.000133014
0.00013581
0.000159821
0.000135293
0.000137783
0.000162016
0.00013947
0.000201271
0.0411783
0.000146388
0.000141717
0.000193564
0.000141945
0.000148318
0.000226034
0.00505582
0.00015005
0.000139689
0.000141968
0.000190748
0.000156589
0.000161096
0.00014945
0.000195205
0.00018673
0.0114783
0.032788
0.000138047
0.000203055
0.000135585
0.000142956
0.0276061
0.000139582
0.000154664
0.024026
0.000924012
0.000194005
0.000140765
0.000140928
0.00032971
0.00425502
0.000182636
0.00420026
0.000149993
0.000165324
0.000148319
0.000167523
0.000214258
0.000160165
0.000152237
0.000144741
0.000152411
0.000142543
0.000170135
0.000146184
0.00437118
0.0280419
0.000137974
0.000149724
0.000148939
0.000141789
0.000166251
0.036048
0.000147802
0.000170726
0.000137803
0.000148153
0.000149104
0.000141015
0.000149304
0.000151557
0.000140655
0.000148793
0.0208517
0.000436962
0.00015032
0.000196016
0.000143105
0.000150195
0.000160242
0.000134878
0.000156017
0.000171664
0.000138375
0.000140808
0.000156466
0.000246346
0.00017997
0.000157833
0.000149957
0.000143972
0.000169506
0.00014501
0.000171498
0.000155537
0.000389707
0.000163706
0.000144659
0.000172369
0.0086681
0.000151595
0.00013432
0.000155012
0.031648
0.00394203
0.00012883
0.000148688
0.000162343
0.000154867
0.000134124
0.0276281
0.00404911
0.000185364
0.000147721
0.000380017
0.000184241
0.00013854
0.000134966
0.000180993
0.00021045
0.000156989
0.000151067
0.000137099
0.000145689
0.0111308
0.000140541
0.000159898
0.0409666
0.000138138
0.000162751
0.000195933
0.0301573
0.00018048
0.00019146
0.000138955
0.000149045
0.000148263
0.000164294
0.000135729
0.000145185
0.0315851
0.000140888
0.000170937
0.000136735
0.000189392
0.00255922
0.000206595
0.00988192
0.0363667
0.000172138
0.000136164
0.000135811
0.000156436
0.00395
0.000145567
0.000342472
0.000133037
0.00016227
0.0347983
0.000170816
0.000177477
0.000140402
0.000154095
0.000168843
0.000138223
0.0001423
0.00016728
0.000182701
0.000164471
0.00016901
0.0155098
0.000206649
0.000145234
0.000190023
0.0361976
0.00318564
0.000260991
0.000196186
0.000179271
0.000155666
0.000200581
0.0227158
0.000232994
0.0266847
0.000174564
0.000141794
0.000193702
0.000159744
0.000143768
0.000196588
0.000214074
0.000166146
0.000160024
0.000167912
0.000162037
0.000185784
0.000202085
0.000149035
0.0104379
0.0209497
0.000211658
0.000220317
0.0303432
0.000215528
0.000144271
0.00132004
0.000148913
0.00313327
0.000136922
0.000169557
0.000147409
0.000139037
0.000174924
0.000219291
0.000352706
0.000757391
0.00423297
0.000142412
0.0001857
0.000138127
0.00464168
0.013191
0.000144466
0.000146446
0.00019751
0.000176923
0.000169555
0.000145133
0.0149945