/*--------------------------------*- C++ -*----------------------------------*\
| =========                 |                                                 |
| \\      /  F ield         | OpenFOAM: The Open Source CFD Toolbox           |
|  \\    /   O peration     | Version:  v2012                                 |
|   \\  /    A nd           | Website:  www.openfoam.com                      |
|    \\/     M anipulation  |                                                 |
\*---------------------------------------------------------------------------*/
FoamFile
{
    version     2.0;
    format      ascii;
    class       volScalarField;
    location    "300";
    object      k_0;
}
// * * * * * * * * * * * * * * * * * * * * * * * * * * * * * * * * * * * * * //

dimensions      [0 2 -2 0 0 0 0];


internalField   nonuniform List<scalar> 
27802
(
0.00018484
0.000141973
0.000150215
0.000152738
0.0266772
0.000146043
0.000151542
0.000147902
0.000182133
0.000149558
0.000138726
0.0386329
0.03663
0.000183755
0.000141413
0.000151511
0.000127858
0.0367578
0.0243105
0.000181148
0.000140809
0.00014603
0.000185737
0.000195336
0.000135661
0.000148197
0.0001448
0.000149468
0.000135626
0.0033052
0.000144744
0.000154816
0.0113455
0.000208012
0.0143056
0.000142011
0.000196088
0.00248906
0.000144694
0.000144365
0.000146983
0.00014439
0.0184558
0.000239718
0.000139788
0.000141281
0.000209138
0.000145951
0.000137063
0.00017835
0.000156004
0.000139831
0.0040611
0.000140589
0.000143201
0.000145837
0.0163483
0.000182605
0.000145303
0.022232
0.000141997
0.000145211
0.00297335
0.000154113
0.0361368
0.000190095
0.0268021
0.000150253
0.0296576
0.000153157
0.000139741
0.000200265
0.0172576
0.000199817
0.00326327
0.000156114
0.00187688
0.0248229
0.000176828
0.000151207
0.0205487
0.000222034
0.000137296
0.000182429
0.000144565
0.000152911
0.000135487
0.000143091
0.000200422
0.000195419
0.0310778
0.000145011
0.000251977
0.000151134
0.00013936
0.000145878
0.000159483
0.0275514
0.000146947
0.000207806
0.000222123
0.000147307
0.000152471
0.000155504
0.000209314
0.000144989
0.000184875
0.000182756
0.000142296
0.000168455
0.000152951
0.000141327
0.000147357
0.000265321
0.000135619
0.000193813
0.000158567
0.000139317
0.000156531
0.000180458
0.0395265
0.0326691
0.000167534
0.000135615
0.000143626
0.000167971
0.000209621
0.00030439
0.03797
0.0386615
0.000152496
0.0001672
0.000146784
0.000149098
0.000137326
0.000149374
0.000148726
0.000138255
0.000179013
0.000186907
0.000149816
0.000145113
0.00016781
0.000135281
0.000135593
0.000151134
0.000148659
0.00015029
0.000140062
0.000146383
0.000139109
0.000145822
0.000153135
0.000150508
0.000179083
0.000143416
0.000211505
0.000206564
0.0001683
0.000198695
0.000209567
0.000200515
0.000152844
0.000156442
0.000128048
0.000134837
0.000139517
0.000146138
0.00014397
0.000182215
0.000154778
0.000158363
0.000143864
0.00450062
0.000144888
0.033666
0.000134672
0.000160061
0.000139577
0.000198275
0.000195244
0.000166685
0.000163298
0.000150932
0.000143824
0.000180816
0.000143375
0.000149519
0.000203197
0.00170085
0.000140517
0.000154418
0.00018459
0.000150953
0.000133594
0.0001445
0.000133585
0.000139109
0.000142174
0.000145129
0.0434534
0.00423681
0.000358045
0.000156682
0.000142325
0.000167277
0.000152829
0.000309235
0.000132663
0.0239223
0.000142208
0.00175369
0.031998
0.000159885
0.000204077
0.000141836
0.00134216
0.000151127
0.000146167
0.000143518
0.0385444
0.000128603
0.000180381
0.000196703
0.000143765
0.000137982
0.000137558
0.000154376
0.00014133
0.000147383
0.000128507
0.0190844
0.000145893
0.000164224
0.0193002
0.000187615
0.000146385
0.000141576
0.0129263
0.000158373
0.000145819
0.00175345
0.00212742
0.000145496
0.000159675
0.00980981
0.000138861
0.00113801
0.000150605
0.00014981
0.000188023
0.000164786
0.000184454
0.00014611
0.00015991
0.000133813
0.000144163
0.00022812
0.000156676
0.000133601
0.000164877
0.000146533
0.0341694
0.000132443
0.0415784
0.00015997
0.0445454
0.000147463
0.000128587
0.000144916
0.000207319
0.000140509
0.000186444
0.000242421
0.000150839
0.000213466
0.00014961
0.000168335
0.000159746
0.000143913
0.000825344
0.000164338
0.000151988
0.000191621
0.000214407
0.00225415
0.000228077
0.000147337
0.000156783
0.000142137
0.000129446
0.000198674
0.000134284
0.00764665
0.000134233
0.000179902
0.000193899
0.00014478
0.0267539
0.00442252
0.000190276
0.000150637
0.000157334
0.000198068
0.0224871
0.000179831
0.000146321
0.040359
0.000161757
0.000149805
0.000162375
0.000180364
0.000186021
0.000149238
0.000165841
0.000142181
0.000162747
0.000184464
0.000168151
0.000184435
0.00014677
0.000142366
0.000129295
0.00013987
0.00025257
0.000146159
0.0349538
0.000146116
0.000142387
0.000163097
0.000148754
0.0170971
0.00313945
0.000204153
0.000196182
0.00403698
0.000186212
0.000142173
0.000185234
0.000140347
0.000128111
0.0367829
0.0327344
0.000181293
0.00020008
0.000381345
0.000209523
0.00219537
0.000150591
0.000140485
0.000135895
0.0311309
0.000143772
0.000149354
0.00014775
0.000149009
0.00254662
0.000190167
0.000142675
0.000140138
0.000213474
0.00275903
0.000140504
0.000169013
0.000133402
0.000147761
0.00171234
0.000147139
0.000164149
0.00014268
0.000141929
0.000209995
0.000170545
0.000196064
0.00186945
0.0439326
0.000170849
0.000152637
0.000162133
0.0001413
0.000149384
0.000133479
0.00014747
0.000140584
0.000141798
0.000146017
0.000214477
0.000153497
0.000210022
0.000162454
0.000142405
0.0001457
0.000161134
0.000168396
0.00014192
0.0190065
0.000344785
0.000184938
0.000143592
0.000184853
0.0368767
0.000168656
0.000142114
0.000180579
0.000144053
0.00228714
0.000166026
0.000210248
0.00207511
0.000167212
0.0231064
0.000152821
0.0387768
0.036285
0.00326136
0.000146162
0.000140181
0.000163622
0.00013525
0.00197615
0.0190601
0.000150199
0.00015431
0.000148184
0.000676331
0.000150126
0.000152754
0.0390148
0.000204387
0.000155708
0.000140267
0.000165295
0.00306908
0.000141865
0.00014751
0.000142351
0.000190642
0.000322425
0.000315654
0.000163468
0.00017647
0.000155855
0.000142187
0.00014098
0.000186146
0.000142515
0.000136335
0.00015179
0.000185856
0.000173615
0.0209904
0.0179431
0.00171196
0.0213779
0.000134526
0.000170478
0.000163638
0.00023562
0.00175727
0.000142658
0.000182061
0.000259323
0.00017683
0.000180352
0.000128226
0.000153345
0.00035028
0.000142483
0.0001652
0.000136279
0.000159909
0.000142131
0.000147059
0.00020195
0.00020486
0.00314233
0.000147087
0.0168665
0.0001283
0.000156233
0.000194183
0.000156206
0.000154834
0.000184834
0.000186093
0.003378
0.00015236
0.000149522
0.000194618
0.000141972
0.000142429
0.00284553
0.000144789
0.0423096
0.000146817
0.0378929
0.00296926
0.00275778
0.000141985
0.000212603
0.0373294
0.000168035
0.000861156
0.000199509
0.00291321
0.000218578
0.000158383
0.000165314
0.000186477
0.000149136
0.000146074
0.0113039
0.000171717
0.000139197
0.000142978
0.000210075
0.00323272
0.000178944
0.000143467
0.000173252
0.000153397
0.00540194
0.000147742
0.000162679
0.000202007
0.000140551
0.000133974
0.000149376
0.00252504
0.0372836
0.000176235
0.0159642
0.000139275
0.00014868
0.0370525
0.00014146
0.000171766
0.000141758
0.000134054
0.000241714
0.000596431
0.000142559
0.00014905
0.000139317
0.000186122
0.000143846
0.000160346
0.00147106
0.000176124
0.000186392
0.0273441
0.000191971
0.00272842
0.010883
0.000143638
0.0374335
0.000149532
0.000174331
0.000155865
0.000147464
0.000143619
0.000884494
0.000145087
0.000141878
0.000135454
0.00482366
0.000160578
0.000150847
0.000197112
0.000214062
0.000215825
0.0429844
0.0289226
0.000168307
0.000196489
0.000159776
0.0433832
0.000146426
0.000180768
0.00469988
0.000201607
0.0135194
0.000167219
0.000150821
0.0216764
0.000173713
0.000135505
0.0213435
0.000189476
0.000216588
0.000243792
0.000190928
0.000135517
0.000151636
0.000173474
0.000144429
0.000185396
0.000200317
0.000134555
0.000152262
0.000137969
0.000205094
0.000221797
0.0001508
0.00556414
0.0396219
0.000155668
0.000159655
0.000143633
0.0306904
0.00950809
0.0077534
0.00020958
0.000182392
0.0025835
0.000141783
0.000200659
0.000151949
0.0421478
0.0387748
0.000137775
0.000167697
0.00292623
0.000210748
0.000150025
0.0314623
0.000163472
0.0248625
0.000168889
0.000151404
0.000248666
0.0287651
0.000189216
0.000142532
0.000172422
0.000158991
0.000175116
0.000157077
0.00840769
0.000142541
0.000143539
0.000156231
0.000200139
0.0383039
0.000200706
0.000155022
0.0288299
0.000168414
0.0309841
0.000142292
0.000185502
0.00018624
0.000193422
0.0275833
0.000156873
0.00290474
0.000158998
0.000135303
0.000147988
0.000146277
0.000146666
0.00017709
0.000215051
0.0002312
0.00014611
0.000175641
0.000153741
0.000156433
0.000211393
0.000135054
0.000149602
0.000307396
0.000220332
0.00015672
0.000140199
0.000156286
0.000151181
0.000162399
0.000147242
0.00358262
0.000413779
0.000154858
0.000188432
0.000180177
0.0277347
0.0299594
0.000185648
0.000142426
0.00024831
0.000144209
0.000338847
0.00014904
0.000290256
0.000175062
0.0397038
0.000135896
0.000145481
0.000204069
0.000159507
0.00013564
0.000156075
0.000193965
0.000141785
0.000187625
0.000143671
0.00394439
0.000140764
0.000157782
0.000191905
0.000163572
0.000159121
0.000505144
0.000180931
0.000167566
0.000185512
0.000152469
0.0406095
0.0268139
0.000201394
0.000169313
0.0281641
0.000139456
0.000153666
0.000155954
0.00781758
0.000183783
0.000155491
0.000153423
0.000207493
0.0311739
0.0231885
0.0295067
0.000161651
0.00018512
0.0329014
0.000149852
0.000211393
0.0161215
0.000212776
0.000134805
0.000177614
0.000145544
0.000219698
0.000128793
0.000184094
0.0383115
0.000154849
0.000145981
0.000295704
0.0414319
0.00016746
0.000161534
0.000134548
0.000155222
0.000160878
0.000181702
0.000172555
0.00326397
0.000177449
0.000149822
0.000153533
0.000181891
0.00308486
0.011832
0.000140401
0.00377376
0.0305238
0.000154496
0.00015044
0.000139295
0.000148258
0.0371467
0.000139239
0.000159151
0.000160397
0.0234709
0.0218274
0.00014869
0.000145737
0.000158449
0.0144079
0.000127866
0.000158325
0.000177837
0.000220615
0.000140523
0.0276803
0.000157537
0.00457101
0.000154367
0.000147532
0.000160336
0.000157007
0.0305918
0.000160659
0.0284138
0.000206134
0.000168452
0.000206405
0.0025055
0.000166684
0.000156138
0.000161538
0.000138565
0.000156742
0.000184531
0.00015993
0.000188061
0.00019202
0.00281125
0.000138605
0.0164101
0.000193833
0.00326241
0.00039946
0.000194255
0.000157632
0.00341842
0.000190037
0.000134242
0.000139616
0.00014323
0.000143771
0.0320932
0.000138702
0.000148397
0.0386626
8.72854e-05
0.0406183
0.000143369
0.000163164
0.000149816
0.000150792
0.000180589
0.00014449
0.000218217
0.000155655
0.000174277
0.000138589
0.000138536
0.000205224
0.000156003
7.60489e-05
0.000150218
0.000128844
0.00132406
0.000139549
0.000141177
0.0427294
0.000193815
0.000186519
0.000180132
0.000151226
0.000139111
0.000148208
0.00014945
0.000205806
0.000189822
0.000711652
0.00015075
0.000174914
0.000187018
0.000148423
0.000159009
0.0411428
0.000162423
0.000149038
0.000160939
0.000140413
0.000134374
0.0105393
0.000180785
0.00014299
0.000145744
0.000169014
0.000185173
0.000159463
0.028625
0.000150348
0.000154404
0.000293827
0.000145688
0.000150504
0.000147534
0.000173208
0.000186561
0.000148546
0.000204163
0.000152371
0.0195321
0.000151028
0.000141146
0.000133307
0.000142575
0.000145792
0.000138195
0.000144229
0.00014335
0.0381267
0.000149457
0.000214085
0.000139812
0.000156062
0.000139557
0.000139876
0.000139949
0.000142355
0.000160679
0.00305911
0.000187036
0.000214098
0.000139473
0.0080597
0.000167895
0.000170452
0.000148991
0.000139652
0.000134719
0.000157083
0.000145513
0.000191062
0.000130005
0.000147807
0.000156666
0.0244338
0.000142772
0.000167004
0.000136476
0.000128626
0.000184048
0.00312698
0.0250082
0.000144064
0.000140146
0.000184861
0.000140785
0.0301251
0.000231002
0.000174363
0.0278559
0.000128476
0.0021296
0.000149131
0.0001759
0.000174609
0.000204036
0.00013816
0.000167759
0.0279462
0.000142769
0.000152104
0.000158658
0.00403596
0.000183205
0.000173511
0.000145851
0.000139772
0.000281981
0.000194495
0.00232555
0.000164414
0.000199153
0.000139265
0.000149348
0.000139524
0.000186852
0.00013451
0.000132028
0.000146764
0.000162916
0.000181657
0.000136548
0.000161615
0.000134308
0.000140407
0.000206988
0.000155153
0.000170636
0.000148378
0.000188535
0.000180073
0.00013981
0.0191848
0.000149188
0.000213545
0.00013477
0.0417733
0.000174689
0.000149051
0.000128589
0.000163347
0.000131435
0.000188704
0.00358136
0.000142924
0.000150294
0.0184168
0.00562915
0.000146159
0.0265131
0.0217811
0.000234585
0.000142487
0.000239578
0.0202378
0.0412562
0.000147043
0.00599044
0.000129494
0.000143143
0.000142872
0.000141288
0.000155698
0.000138463
0.000160062
0.000200883
0.00346345
0.00355382
0.000536037
0.000150788
0.00017804
0.000180294
0.000138277
0.000139681
0.0302875
0.000263138
0.000145404
0.00572661
0.000148754
0.0196925
0.00125868
0.000138591
0.00318776
0.000131842
0.000157564
0.0256564
0.000182772
0.000140196
0.000148199
0.000137861
0.000154214
0.000147548
0.000141225
0.0262149
0.0148228
0.000160199
0.000188726
0.000148801
0.00014837
0.0297237
0.0340012
0.000149112
0.00018751
0.000175629
0.0045076
0.000605616
0.000140836
0.000142062
0.03013
0.000178576
0.000145534
0.00017226
0.000621797
0.0238485
0.0043766
0.000156929
0.000146924
0.00256946
0.000141099
0.000159684
0.000164967
0.00017112
0.0271302
0.000140967
0.000145732
0.00013996
0.000146799
0.000187204
0.000141689
0.000140813
0.0401623
0.018025
0.000180832
0.000186941
0.000147635
0.000148391
0.00972858
0.0269163
0.000154355
0.000164999
0.000150832
0.041233
0.000188992
0.000180091
0.000168709
0.000168453
0.000140967
0.000145954
0.000142027
0.000144278
0.000143452
0.000183593
0.000160365
0.000155079
0.027694
0.000195359
0.000168153
0.0353418
0.000145495
0.0151253
0.000190078
0.000635837
0.000152735
0.00939208
0.000198858
0.00013472
0.000175215
0.000143871
0.00014013
0.00018214
0.000140673
0.00116128
0.00015066
0.000150342
0.000150292
0.000169738
0.0001505
0.000142499
0.000138377
0.000140856
0.000150712
0.000173012
0.0220469
0.000139864
0.031259
0.000164294
0.0271994
0.000151925
0.000160419
0.00442822
0.00013849
0.000139027
0.035636
0.000138305
0.000169241
0.000149028
0.000249843
0.000211905
0.0357087
0.0196341
0.000150488
0.00015587
0.000347848
0.000143103
0.000171932
0.000150882
0.000144955
0.000188826
0.0277402
0.0111962
0.000201236
0.000185178
0.000146428
0.0154709
0.037669
0.000186439
0.000175148
0.0225527
0.00129762
0.00017948
0.000234814
0.00460784
0.000153174
0.000231508
0.000187683
0.00015577
0.000148697
0.000159146
0.00056961
0.00015024
0.00315903
0.00101583
0.000149526
0.000137049
0.00356736
0.00500503
0.000140591
0.000157395
0.000151143
0.000150939
0.0335892
0.000315063
0.000150093
0.000140725
0.000149584
0.000164924
0.000193379
0.000159677
0.00015368
0.0225861
0.00014567
0.000156276
0.000260768
0.000141089
0.000152381
0.000167744
0.000137851
0.000190408
0.0239234
0.000160084
0.0101072
0.00036818
0.000179479
0.000147763
0.00016335
0.000181043
0.0001454
0.0208296
0.0403715
0.000187008
0.000140549
0.000373235
0.00252955
0.000179333
0.000187817
0.000129275
0.00353076
0.000148426
0.0354807
0.0263178
0.000149374
0.000146979
0.000138445
0.000164105
0.000152161
0.000152337
0.000142728
0.000137128
0.000191391
0.000136956
0.000162624
0.000194819
0.000194948
0.0305496
0.000148977
0.000205807
0.000163892
0.000153975
0.000201311
0.000142305
0.000160243
0.000150483
0.000138406
0.000143048
0.0293175
0.000245918
0.000141866
0.000149863
0.000447091
0.000205496
0.00172836
0.0001568
0.000135339
0.000159285
0.000214484
0.000459982
0.000138512
0.00200043
0.000154533
0.000140061
0.000138247
0.00303559
0.000138389
0.000148753
0.000153008
0.000157573
0.000175482
0.0235243
0.000168236
0.00014133
0.000184891
0.000146735
0.0359095
0.000213816
0.000141834
0.000138502
0.00563178
0.0203554
0.0364134
0.000195738
8.047e-05
0.000189497
0.000157253
0.000141336
0.000138495
0.00316262
0.000161778
0.000162079
0.000217459
0.000186776
0.000145909
0.000163347
0.000145457
0.000196163
0.00013841
0.00013482
0.000137584
0.000177078
0.000146713
0.000147039
0.00020121
0.000181181
0.000153691
0.0255073
0.000147929
0.00655804
0.0001697
0.000141817
0.000161119
0.0430026
0.000212513
0.000149948
0.00015124
0.000186665
0.000150444
0.000150259
0.000472666
0.000196246
0.000137781
0.000138657
0.00056677
0.0319895
0.000138055
0.000154098
0.000181981
0.000150349
0.000134828
0.00021953
0.00490631
0.000146527
0.00018121
0.0319099
0.000196408
0.00012948
0.000188664
0.000155369
0.000139756
0.000152052
0.0163815
0.000159518
0.0336708
0.00014208
0.000138114
0.0246569
0.000142257
0.000144599
0.000152732
0.000196302
0.00018702
0.000155464
0.000145295
0.000136313
0.000138454
0.00019695
0.0430122
0.000175119
0.000163465
0.000169499
0.000146081
0.000180272
0.00308797
0.000180247
0.000128941
0.000186851
0.00022845
0.000438005
0.000151936
0.000171111
0.0413061
0.000139146
0.0001299
0.000514598
0.000141265
0.0259439
0.000145538
0.00975853
0.000159146
0.000186869
0.000157766
0.000189358
0.000140069
0.000139681
0.00017305
0.000138614
0.00345106
0.000152015
0.000131096
0.000142918
0.0136063
0.000428391
0.0271624
0.000139227
0.00317592
0.000137196
0.000212215
0.000195547
0.000189925
0.0171712
0.000221541
0.000148162
0.00016283
0.0273311
0.000139022
0.000160596
0.000150181
0.000145565
0.000142042
0.00181918
0.000239586
0.000174765
0.000139997
0.000147009
0.000179604
0.000308357
0.000143861
0.000151611
0.000138618
0.000160303
0.000144618
0.000175572
0.0220894
0.000130043
0.00015419
0.000189394
0.00013902
0.000150249
0.00483465
0.0371083
0.000152845
0.00013712
0.00343107
0.000161326
0.000157702
0.000146745
0.0296427
0.00016066
0.026521
0.000171401
0.0347129
0.0172314
0.000209411
0.000157857
0.00025788
0.000210223
0.000141581
0.000141369
0.000201418
0.000138414
0.000174508
0.011066
0.000154362
0.0138425
0.000141461
0.000229417
0.00158471
0.0117468
0.0244703
0.000150975
0.000147482
0.000151186
0.000190566
0.000142569
0.00014898
0.00361937
0.00146186
0.0280107
0.00017056
0.000168607
0.000157067
0.00013414
0.0057311
0.000146291
0.000275345
0.000146266
0.000137425
0.0236329
0.000141707
0.000160779
0.00676606
0.000141996
0.00015285
0.000152159
0.000287182
0.0110105
0.000146438
0.000164878
0.0404979
0.000145683
0.0187296
0.00015523
0.00013993
0.000198513
0.000149425
0.000165662
0.000145096
0.000146401
0.000141932
0.000184546
0.000213194
0.000169321
0.000141715
0.00294992
0.000137447
0.00013425
0.000303151
0.000148281
0.000220451
0.000144903
0.000141269
0.000145301
0.000213044
0.000138465
0.000840361
0.0342367
0.000139872
0.000146709
0.000153159
0.000156693
0.000200718
0.000178552
0.000151593
0.000151475
0.000140169
0.000160254
0.000172416
0.00014545
0.00918373
0.0120916
0.000149226
0.000174409
0.000147315
0.000150001
0.000150738
0.000150005
0.000149968
0.000150074
0.000145767
0.000133407
0.00076027
0.000145266
0.000173181
0.000141864
0.000150974
0.000188466
0.00017571
0.000338341
0.0100646
0.000168766
0.000145101
0.000145736
0.000160457
0.000153145
0.0198723
0.0113334
0.00156349
0.000161697
0.000146181
0.000151764
0.000146826
0.000314006
0.0288508
0.000213231
0.0260456
0.0416845
0.000150497
8.89213e-05
0.000143703
0.000171574
0.000170209
0.000142646
0.000163251
0.000146117
0.000196531
0.000382373
0.000144843
0.000146695
0.000158292
0.000201775
0.000163574
0.000143626
0.000158061
0.000146679
0.000155604
0.00014753
0.000159022
0.000147758
0.000195993
0.000146821
0.000177542
0.0345557
0.0367699
0.00068557
0.000374765
0.000152012
0.0259043
0.000225367
0.0280737
0.000149158
0.000201755
0.000139877
0.000355822
0.00489552
0.000157254
0.0262852
0.000158747
0.00014962
0.000196299
0.000149565
0.000158335
0.00597115
0.00016801
0.000137558
0.0283097
0.000180406
0.000152912
0.000207475
0.0437763
0.000213282
0.000154275
0.000141905
0.000155554
0.000147154
0.000209673
0.00965303
0.000148485
0.000145487
0.0118138
0.0305417
0.000137594
0.000143389
0.000196146
0.029835
0.000158758
0.000137751
0.000142967
0.000177578
0.000139775
0.000154843
0.000129785
0.000192351
0.0230566
0.0254074
0.000194892
0.000141902
0.000140925
0.000143668
0.00013452
0.000210175
0.000156513
0.000147448
0.000212625
0.000178591
0.000155319
0.000156474
0.000154982
0.000149884
0.000168652
0.0354293
0.000324984
0.0303413
0.03025
0.000175181
0.000161792
0.000154826
0.000153482
0.000164682
0.000212302
0.000183025
0.000141226
0.000153734
0.000141447
0.000150301
0.000140893
0.000148035
0.000142769
0.00312088
0.000170402
0.000157115
0.000174209
0.000150336
0.00014006
0.00014522
0.000199508
0.000174241
0.000143494
0.000222846
0.000157261
0.00511146
0.000149722
0.000147952
0.000182431
0.0217258
0.000141134
0.000171776
0.0001452
0.0343272
0.000204016
0.000166185
0.00143686
0.0096653
0.000142149
0.000136165
0.000160485
0.000168078
0.000150091
0.0169437
0.000163853
0.000136202
0.000142259
0.000184938
0.000166071
0.0177616
0.000149347
0.000177544
0.000172986
0.0216865
0.0222568
0.000218436
0.00016467
0.000153942
0.000155502
0.000185772
0.000172916
0.00333617
0.00171771
0.000137564
0.00020429
0.000158729
0.000156599
0.000151286
0.00014323
0.000168009
0.00013692
0.000142924
0.000170131
0.00015416
0.000147293
0.0039968
0.000185592
0.000211241
0.000164065
0.000150223
0.000149921
0.000137533
0.000168155
0.000156795
0.0353761
0.000214082
0.000137706
0.000928601
0.00519947
0.0195724
0.00052845
0.000164235
0.00287168
0.000176125
0.000917461
0.000145165
0.000186304
0.000178273
0.000147295
0.000163539
0.000226678
0.000172591
0.00014537
0.000209969
0.00015766
0.000140456
0.000494087
0.0410441
0.0145044
0.000212603
0.0168789
0.000172238
0.000134358
0.000148224
0.000134505
0.000182799
0.000140087
0.000161462
0.000202245
0.000220587
0.00128712
0.000214042
0.0244226
0.0336304
0.000184856
0.000163912
0.000163658
0.0277395
0.000173995
0.000158235
0.000156467
0.000176232
0.000161139
0.000170236
0.000151834
0.0214943
0.000181984
0.00987552
0.000150092
0.027687
0.0244597
0.000406416
0.000151358
0.000174599
0.0406558
0.0113658
8.74206e-05
0.0082392
0.000138033
0.0195829
0.000412424
0.000170572
0.00014707
0.0278086
0.000168565
0.000167106
0.000166014
0.00104704
0.000171734
0.000133248
0.000132956
0.000189239
0.000170641
0.000188349
0.000216774
0.000170817
0.000198644
0.0001534
0.000136082
0.000137669
0.000215453
0.000145663
0.000145522
0.0283942
0.000208366
0.000808793
0.000146644
0.000223609
0.0125686
0.000213375
0.000964998
0.000149968
0.000142643
0.00417207
0.000142185
0.000144757
0.000170833
0.000254284
0.0372591
0.000175318
0.000137232
0.0260883
0.000158079
0.000148466
0.000145248
0.000160613
0.000132432
0.000141166
0.000157608
0.000181626
0.000148628
0.000193449
0.000137863
0.000134878
0.00017337
0.000164911
0.000184729
0.000156817
0.000151502
0.000150435
0.000138643
0.0393612
0.000156148
0.000138164
0.000141437
0.0119626
0.000151137
0.0390865
0.000169241
0.000147843
0.00690135
0.000146815
0.000152167
0.000147257
0.000145059
0.000147653
0.000163004
0.000159445
0.00014263
0.000175508
0.000153059
0.000166825
0.000165709
0.000143314
0.000204109
0.000187874
0.000156909
0.000138928
0.036445
0.000156316
0.000164608
0.000145431
0.000138415
0.000124485
0.00359968
0.000216611
0.00374714
0.000158452
0.000156742
0.000143363
0.000147824
0.000185476
0.000138669
0.000138813
0.000136031
0.000163661
0.000138834
0.000163782
0.00108207
0.000166723
0.000138517
0.000229398
0.000159414
0.000138801
0.000141568
0.000170256
0.000140867
0.0279449
0.000146804
0.000139735
0.000157024
0.000176342
0.000157217
0.000152552
0.000155097
0.000197878
0.000150214
0.000155348
0.000186568
0.000584484
0.000161785
0.000243895
0.000155987
0.000148322
0.000144779
0.000150461
0.00017535
0.000163601
0.000149187
0.000142072
0.000165959
0.0264455
0.0218546
0.000141071
0.000195397
0.000178493
0.000140796
0.000135611
0.000145175
0.000239047
0.000381008
0.000144051
0.000141426
0.000153448
0.0238892
0.000194815
0.000159347
0.000150973
0.0055159
0.000174239
0.000156809
0.000202246
0.000168519
0.00379955
0.000146968
0.0218052
0.000147536
0.000138565
0.000135548
0.000195163
0.000298667
0.000148879
0.000152663
0.000157786
0.000169156
0.000149871
0.0033176
0.00365859
0.000169472
0.000139622
0.000161197
0.000141194
0.000305688
0.000170622
0.0416783
0.000152986
0.000156632
0.00015592
0.00667038
0.000158894
0.000138743
0.0274753
0.000138269
0.000142081
0.0119711
0.000136587
0.000146193
0.000171588
0.000869875
0.00349831
0.000877895
0.000174758
0.000238496
0.000174746
0.0128184
0.000192535
0.000146138
0.000133654
0.0416526
0.000201489
0.0184747
0.000147051
0.000174303
0.000167091
0.000140249
0.000183231
0.000806835
0.000163596
0.000186381
0.000329432
0.000147876
0.000150965
0.000147999
0.000177748
0.000142311
0.0298473
0.000162286
0.000142782
0.000448894
0.0301298
0.00021
0.000164189
0.00014922
0.000160296
0.000151144
0.000142389
0.000142477
0.000175004
0.000230123
0.000210493
0.000139763
0.000214847
0.000162482
0.000172316
0.000186809
0.000152921
0.000230065
0.00018973
0.000137563
0.00017245
0.000173391
0.000127901
0.00016542
0.000148178
0.00446669
0.000195344
0.000184504
0.00944202
0.000161227
0.000154906
0.00409547
0.000139597
0.00111099
0.000185572
0.000296144
0.000141756
0.0001366
0.000137634
0.000145842
0.00014811
0.00014428
0.000139809
0.000186995
0.000177738
0.000148879
0.00019185
0.000145026
0.000137395
0.000200757
0.000188225
0.000174801
0.000234015
0.000131423
0.000138962
0.000150147
0.000189462
0.0422647
0.000141871
0.000155576
0.000140763
0.023578
0.00014028
0.000168388
0.000181352
0.000190093
0.000140582
0.000157405
0.000137779
0.00145388
0.000195289
0.000180056
0.000225752
0.00457511
0.000147539
0.00774447
0.000145127
0.000222832
0.000154376
0.000316096
0.000638398
0.000208029
0.000142624
0.000138204
0.00338905
0.000152513
0.000201156
0.000130807
0.00248676
0.00413645
0.000139779
0.000167105
0.000145955
0.000423647
0.00137269
0.000152999
0.00696354
0.000156208
0.0300647
0.000159855
0.000203716
0.000443765
0.000187047
0.000187002
0.000149872
0.000154656
0.000150237
0.000140968
0.000148433
0.000158104
0.000175522
0.000203703
0.000150539
0.000194503
0.000138384
0.000151763
0.000149032
0.000162451
0.000141057
0.00014973
0.000144954
0.0252624
0.000184705
0.000237502
0.000137173
0.000380584
0.000138425
0.000132614
0.000141102
0.000173186
0.00018736
0.000132689
0.000138448
0.000142093
0.000159916
0.000144075
0.000159754
0.000139853
0.000187614
0.0021837
0.000172743
0.000170557
0.00275706
0.000202783
0.000207843
0.00294768
0.000180709
0.00013951
0.000128729
0.000187848
0.000140802
0.00104693
0.000163132
0.0147708
0.000151166
0.00440101
0.00324022
0.000147489
0.000163987
0.0251064
0.000148218
0.00385389
0.000179168
0.000154776
0.00107931
0.000138943
0.000142688
0.00013421
0.000225213
0.000183927
0.000145664
0.000148061
0.000881554
0.0164846
0.000147897
0.000199609
0.030892
0.0170164
0.000574249
0.000141081
0.000166095
0.0032133
0.000161133
0.000266819
0.000184553
0.000156851
0.000244736
0.000188946
0.0247373
0.000144823
0.000215759
0.000139242
0.00444703
0.000148136
0.000138346
0.000194792
0.00016653
0.000168041
0.00013894
0.000748004
0.000175198
0.0140274
0.000140134
0.000149138
0.000226572
0.000186113
0.0407221
0.0366519
0.000414437
0.0202014
0.00015262
0.000162017
0.000137995
0.000179585
0.000250916
0.000149748
0.000273631
0.000140124
0.000147128
0.00897069
0.00013531
0.000184291
0.000136122
0.000138171
0.000179959
0.000760633
0.000158378
0.000250564
0.000499039
0.0157336
0.000149317
0.000154018
0.000166906
0.000137953
0.000141829
0.000161331
0.000133014
0.00013581
0.000159849
0.000135293
0.000137783
0.000162016
0.00013947
0.000201279
0.0411734
0.000146388
0.000141719
0.000193609
0.000141945
0.000148319
0.000226153
0.00507062
0.000150046
0.000139689
0.000141968
0.000190739
0.000156589
0.000161103
0.00014945
0.000195199
0.000186724
0.0116055
0.0327835
0.000138047
0.000203056
0.000135585
0.000142957
0.0276114
0.000139582
0.000154664
0.0240146
0.000915034
0.000193992
0.000140766
0.000140931
0.00033053
0.00423314
0.000182613
0.00421274
0.000149993
0.000165282
0.0001483
0.000167524
0.000214272
0.000160165
0.000152237
0.000144741
0.00015241
0.000142543
0.000170137
0.000146215
0.00443988
0.0280429
0.000137974
0.000149727
0.000148939
0.000141791
0.000166248
0.0360448
0.000147802
0.000170746
0.000137803
0.000148159
0.000149104
0.000141015
0.000149304
0.000151558
0.000140658
0.000148793
0.0208497
0.000442692
0.00015032
0.000196042
0.000143106
0.000150195
0.000160242
0.000134878
0.000157471
0.00017166
0.000138375
0.000140808
0.000156439
0.000246318
0.000179977
0.000157831
0.000149957
0.000143972
0.000169506
0.000145011
0.000171498
0.000155541
0.000389348
0.000163645
0.000144659
0.000172393
0.00868449
0.000151593
0.00013432
0.000155012
0.0316439
0.00388127
0.00012883
0.000148691
0.000162344
0.000154867
0.000134124
0.0276254
0.00406212
0.000185362
0.000147722
0.000378019
0.000184239
0.00013854
0.000134966
0.000180964
0.000210365
0.000156964
0.000151067
0.000137099
0.000145715
0.0109659
0.000140541
0.000159898
0.0409617
0.000138138
0.000162752
0.000195969
0.0301432
0.000180479
0.000191429
0.000138954
0.000149045
0.000148264
0.000164234
0.000135729
0.000145185
0.0315818
0.000140888
0.000170937
0.000136738
0.000189435
0.00258265
0.000206585
0.00984491
0.0362956
0.000172138
0.000136164
0.000135811
0.000156436
0.003956
0.000145567
0.000340657
0.000133037
0.00016227
0.034791
0.000170811
0.000177482
0.000140402
0.000154095
0.000168844
0.000138223
0.0001423
0.000167273
0.000182564
0.000164471
0.000168997
0.015527
0.000206602
0.000145234
0.000189951
0.0361922
0.0031841
0.0002608
0.000196193
0.000179237
0.000155666
0.000200493
0.0227153
0.000232982
0.0266802
0.000174551
0.000141795
0.00019372
0.000159744
0.000143768
0.000196566
0.000214077
0.000166147
0.000160024
0.000167913
0.000162036
0.000185783
0.000202092
0.000149035
0.010478
0.0209486
0.000211682
0.000220296
0.0303442
0.000215581
0.000144271
0.00134757
0.000148913
0.00311199
0.000136921
0.000169581
0.00014741
0.000139036
0.000174885
0.000219304
0.000352698
0.00075563
0.00425317
0.000142412
0.000185703
0.000138127
0.00464938
0.0132224
0.000144466
0.000146446
0.000197537
0.000176553
0.000169571
0.000145133