/*--------------------------------*- C++ -*----------------------------------*\
| =========                 |                                                 |
| \\      /  F ield         | OpenFOAM: The Open Source CFD Toolbox           |
|  \\    /   O peration     | Version:  v2012                                 |
|   \\  /    A nd           | Website:  www.openfoam.com                      |
|    \\/     M anipulation  |                                                 |
\*---------------------------------------------------------------------------*/
FoamFile
{
    version     2.0;
    format      ascii;
    class       volScalarField;
    location    "300";
    object      nut;
}
// * * * * * * * * * * * * * * * * * * * * * * * * * * * * * * * * * * * * * //

dimensions      [0 2 -1 0 0 0 0];


internalField   nonuniform List<scalar> 
27802
(
0.00276428
0.00592983
0.00589738
0.00598783
0.00835284
0.00594922
0.00582097
0.00596211
0.00196418
0.00523332
0.00583531
0.0114505
0.011408
0.00282869
0.00582721
0.00582141
0.00578859
0.0108327
0.0128901
0.00172291
0.00591068
0.00590478
0.00268049
0.00178605
0.00580955
0.0059539
0.0059257
0.0053206
0.00580944
0.00179081
0.00588056
0.0056842
0.00341095
0.00425435
0.00414978
0.0058251
0.00317647
0.0052855
0.00588058
0.00591165
0.00591056
0.00591134
0.00538317
0.00450844
0.00593259
0.00582806
0.00108293
0.00591203
0.00590384
0.00420415
0.00437737
0.00593423
0.0142134
0.00594241
0.00590414
0.00594837
0.00259784
0.00298026
0.00589668
0.00489732
0.00582432
0.0058986
0.0105719
0.00572885
0.010616
0.00195478
0.00872466
0.00592946
0.00978044
0.00569688
0.00581995
0.00144966
0.0132769
0.00147791
0.0116752
0.00351133
0.00435801
0.00769134
0.00469701
0.00582419
0.00644309
0.00474225
0.00590663
0.0030066
0.00594373
0.00528875
0.00580909
0.00590082
0.00144186
0.00070899
0.00863448
0.00589906
0.00375606
0.0058242
0.00593076
0.00590787
0.00242952
0.00862959
0.00590913
0.0011376
0.00478934
0.00591984
0.00499243
0.00600902
0.000687112
0.00589837
0.00448312
0.00211357
0.00583588
0.00218707
0.00582511
0.00582626
0.00592177
0.00382177
0.00582433
0.00164315
0.00432196
0.00583102
0.00256689
0.00170918
0.0122228
0.0090607
0.00191095
0.00581042
0.00587123
0.0059813
0.00108168
0.00709976
0.0119565
0.0120419
0.00490663
0.00207255
0.00585077
0.0059397
0.00590822
0.00594388
0.00594067
0.00592223
0.00237823
0.00246392
0.00593953
0.00593234
0.00597512
0.00581925
0.00582509
0.0059231
0.00594094
0.00593942
0.00593483
0.00586023
0.00584135
0.00590995
0.00387499
0.00592422
0.00175296
0.00592826
0.00410659
0.00115909
0.00286813
0.00162683
0.00112228
0.00143752
0.00542595
0.00272942
0.00579129
0.0058474
0.00583505
0.00595251
0.00584945
0.001664
0.00598685
0.00419869
0.00594392
0.00247257
0.00588586
0.00926553
0.00584422
0.0029971
0.00593255
0.00307245
0.00178797
0.00317793
0.00316371
0.00592899
0.0059435
0.0025976
0.00592763
0.00600118
0.00132613
0.000995241
0.00588605
0.00577435
0.00280052
0.00475305
0.00584468
0.00591496
0.00584514
0.00593127
0.00584739
0.00593396
0.0106521
0.00375232
0.00160806
0.00432605
0.00583791
0.00213537
0.00353021
0.000415143
0.00589972
0.00575034
0.005824
0.00112625
0.00932687
0.0028531
0.00127287
0.00585912
0.00575982
0.00582339
0.00591475
0.00594039
0.0120574
0.00580273
0.00279868
0.00153262
0.00594383
0.00591792
0.00591077
0.00577686
0.00582947
0.00592008
0.0057987
0.00336142
0.00590758
0.00273696
0.0101164
0.00238976
0.00593908
0.000480738
0.00381541
0.0059229
0.00595569
0.00141862
0.00157835
0.00588517
0.00606719
0.00301856
0.00592751
0.00508004
0.0058417
0.00590479
0.000788767
0.00285574
0.00279501
0.00595524
0.006061
0.00585237
0.00594714
0.0046018
0.00436045
0.00584801
0.00298181
0.00590587
0.0112483
0.00589642
0.0112979
0.00243941
0.0110926
0.00592275
0.00580336
0.00588558
0.00113338
0.00582585
0.00251394
0.00453019
0.00454309
0.000925096
0.00595115
0.00249746
0.00286796
0.00594548
0.000719303
0.00255533
0.00588336
0.00481849
0.000919394
0.00293869
0.00465875
0.00594201
0.00371147
0.00594475
0.00582467
0.00441204
0.00586587
0.00648166
0.00586582
0.00480425
0.00167058
0.00594358
0.00720951
0.0122563
0.00164286
0.00593516
0.00567092
0.00144082
0.0118844
0.00216686
0.00590148
0.0110645
0.00517002
0.00594782
0.00332712
0.00274202
0.00240267
0.00556353
0.00528604
0.00582374
0.00338417
0.00280166
0.00264103
0.00274905
0.00590672
0.00583754
0.00581361
0.00593341
0.00160736
0.00586498
0.0114201
0.00586573
0.00583941
0.00289997
0.00592681
0.00590772
0.0115659
0.00136304
0.0015518
0.00237625
0.00186486
0.00591291
0.00199575
0.00582407
0.00578933
0.010722
0.0114628
0.00388103
0.00148678
0.00373501
0.00107857
0.00718445
0.00584257
0.000419702
0.00590713
0.00956354
0.00587478
0.00595549
0.00595852
0.00593212
0.0095744
0.000480547
0.00592578
0.00593217
0.00513758
0.00377172
0.00593121
0.00295237
0.00583932
0.00595459
0.00626963
0.00593838
0.00284585
0.00589201
0.00590879
0.000971218
0.00236155
0.00174224
0.00436787
0.0114663
0.0022842
0.00582716
0.00366838
0.00582376
0.00599705
0.00584018
0.00596038
0.00592291
0.00596818
0.00591678
0.000945068
0.00571292
0.00517866
0.00521681
0.00594472
0.00595291
0.00521223
0.00227879
0.00584475
0.00648988
0.00248523
0.00199456
0.005935
0.00277268
0.0108126
0.00214416
0.00594195
0.0016739
0.00585079
0.00750519
0.00312883
0.000950947
0.0024151
0.00274044
0.00547913
0.0060239
0.0120469
0.0116301
0.0129565
0.00591519
0.0059326
0.00288778
0.00581985
0.00706426
0.00555455
0.00585293
0.00567154
0.00595272
0.00355504
0.00593218
0.00576978
0.0120911
0.00437376
0.00379028
0.00582304
0.00256624
0.01253
0.00585658
0.00587746
0.00585337
0.0019545
0.00561826
0.00569308
0.00313808
0.00245098
0.00565904
0.0059721
0.00585991
0.00263841
0.00583276
0.00582442
0.00578272
0.00220239
0.00228004
0.0185793
0.00592361
0.00677035
0.00691887
0.00587472
0.00263477
0.00270738
0.00218283
0.00409167
0.00589251
0.0049193
0.00667298
0.0018105
0.00183203
0.0057964
0.00408553
0.00924995
0.00583295
0.00399692
0.00582362
0.00345375
0.00588033
0.00596053
0.00133813
0.00321447
0.00454409
0.00584702
0.00310889
0.00579264
0.00380356
0.00188733
0.00434467
0.00574706
0.00275706
0.00200367
0.0116364
0.00586611
0.00594481
0.00185477
0.00586267
0.00584159
0.0107707
0.00592433
0.0115437
0.0058513
0.0109301
0.0109718
0.0104286
0.00585938
0.00420423
0.0118537
0.00254666
0.00165884
0.00141982
0.0107519
0.000841093
0.00609259
0.00293011
0.0018534
0.00595616
0.00595073
0.00813325
0.00226537
0.00582762
0.00592695
0.000960492
0.0116416
0.00233437
0.00592969
0.00258054
0.00385578
0.0110607
0.00596203
0.00523505
0.00146542
0.00582587
0.00585792
0.00595409
0.00149821
0.0107549
0.00212931
0.0124554
0.00593373
0.00595555
0.0105909
0.00582852
0.00280208
0.00585287
0.00585892
0.00419984
0.000475968
0.00596106
0.00592388
0.00593458
0.00205736
0.0059681
0.00312119
0.000962172
0.00285244
0.00202368
0.0100787
0.00170296
0.00160411
0.00399265
0.00583834
0.0109289
0.00594532
0.0025244
0.00591085
0.00592383
0.00584144
0.00163211
0.00592892
0.00585549
0.00580873
0.0133885
0.00609429
0.00593039
0.00165452
0.000969852
0.00088406
0.0126719
0.00949908
0.00229383
0.00170142
0.00265383
0.01132
0.00592206
0.00285761
0.013041
0.00140357
0.00389057
0.00521869
0.00512766
0.00736979
0.00211114
0.0058985
0.00735177
0.00197786
0.000943329
0.00440018
0.0018343
0.00589726
0.00589696
0.00205316
0.00598025
0.00465561
0.00144336
0.00587398
0.00587322
0.00586394
0.00121751
0.00626151
0.00576896
0.00787394
0.0122193
0.00394775
0.00314612
0.00586825
0.00945427
0.0109768
0.00913185
0.00417015
0.00188279
0.0100553
0.00583986
0.00145148
0.0058873
0.0118172
0.0113798
0.00585892
0.00459069
0.00353098
0.00077279
0.00590346
0.0110265
0.00344862
0.00909281
0.00518768
0.00590212
0.000715537
0.0107906
0.00224082
0.00585558
0.00300463
0.00447246
0.0029134
0.0060347
0.0026725
0.00585513
0.00584043
0.00323323
0.00591712
0.00943776
0.00144895
0.00402588
0.0107563
0.00288323
0.0106575
0.00585048
0.00597464
0.00194563
0.00173905
0.00936553
0.00568363
0.0104033
0.00605579
0.00586088
0.00583559
0.00591975
0.00595613
0.00492908
0.00091581
0.00135659
0.00590132
0.00216319
0.00583218
0.00363838
0.00154815
0.00585441
0.00594204
0.00185353
0.00139506
0.00380233
0.00582848
0.00607361
0.00600266
0.00514289
0.00584607
0.0109594
0.000950104
0.00574364
0.00229947
0.00216063
0.0100598
0.0103875
0.00260567
0.00589153
0.00549938
0.00594694
0.00755016
0.00593217
0.00191639
0.00292101
0.0121729
0.00590591
0.00593547
0.00125999
0.00608245
0.00581037
0.00570061
0.00196697
0.00585204
0.00165327
0.00583976
0.0139277
0.00590515
0.00432253
0.00185583
0.0029658
0.00547174
0.000467743
0.0017734
0.002257
0.00260123
0.00574024
0.00881459
0.0100205
0.00136144
0.00284719
0.00929413
0.00584917
0.0058264
0.00343305
0.00253172
0.00139483
0.00449165
0.00569932
0.00141793
0.00845822
0.0193611
0.00878503
0.00293458
0.00265394
0.0113165
0.00483834
0.00404709
0.0128445
0.00579449
0.00586674
0.00182802
0.00598489
0.000892313
0.00580582
0.0014844
0.011282
0.00601142
0.00595645
0.00175596
0.0123279
0.00223152
0.00544499
0.00586046
0.00460595
0.00433129
0.00303658
0.00299183
0.010798
0.00214402
0.00590327
0.00584209
0.0024496
0.0111464
0.00650743
0.00592932
0.00151152
0.0105667
0.00568674
0.00593913
0.00581887
0.00588818
0.0115821
0.00581862
0.00548318
0.00607836
0.0195774
0.00599932
0.00594238
0.00594471
0.0036456
0.00788988
0.00578744
0.00436715
0.00252079
0.00830545
0.00585893
0.00967818
0.00468767
0.0125711
0.00594196
0.00592283
0.00294011
0.00561203
0.0109229
0.00376764
0.010269
0.00121663
0.00220707
0.00119788
0.00567321
0.00468765
0.00564986
0.00543897
0.00584502
0.00568374
0.00208749
0.00292767
0.00234977
0.000488326
0.00970345
0.00592226
0.00784022
0.000649188
0.010311
0.00527265
0.0016713
0.00377144
0.0111985
0.004772
0.00583078
0.0059301
0.00592581
0.00587165
0.0212888
0.00584844
0.00595336
0.00943025
0.000286667
0.0112213
0.00588888
0.00248258
0.0052406
0.00592048
0.00198371
0.00591653
0.000910285
0.00319055
0.00267964
0.00592618
0.00592748
0.00112933
0.00353118
0.00023004
0.00589858
0.00580302
0.00130678
0.00581963
0.00582858
0.0126517
0.00175746
0.00217844
0.00507436
0.00601967
0.00593549
0.00582851
0.00594639
0.00111571
0.0019861
0.000656623
0.0058172
0.00287462
0.00446554
0.00595664
0.00550605
0.0113091
0.00373415
0.00597041
0.00429269
0.00592994
0.00583398
0.00324615
0.00305509
0.00597028
0.00595403
0.00260513
0.00203766
0.00285762
0.0102895
0.00478577
0.003663
0.0003449
0.0058842
0.00593802
0.00596101
0.00300249
0.00226516
0.00595858
0.00125052
0.00581054
0.0104197
0.00591607
0.00582729
0.000182292
0.00592326
0.00594652
0.00586695
0.00592952
0.00588946
0.0119915
0.00594679
0.000973418
0.00582095
0.00570226
0.00593511
0.00591911
0.00591822
0.00584009
0.00379573
0.00605038
0.00485334
0.00459029
0.00581916
0.00310536
0.00243679
0.00282099
0.00594162
0.00581978
0.00582983
0.00560887
0.00595117
0.000701722
0.00584281
0.00583204
0.00564183
0.00621099
0.00592205
0.00277981
0.00582776
0.00580062
0.00192082
0.0103009
0.00844151
0.00598593
0.00592268
0.00206418
0.00589755
0.0110056
0.00225095
0.00212219
0.00932628
0.00579912
0.00848306
0.00594115
0.00236972
0.00219917
0.00147358
0.00591904
0.0022593
0.00879751
0.00591979
0.00582016
0.00606163
0.0142166
0.00214823
0.0021745
0.00592906
0.00591398
0.00807946
0.00161644
0.000985026
0.00288557
0.00171959
0.00582938
0.00581345
0.00591751
0.000705137
0.00585408
0.00588803
0.00595942
0.00294162
0.00302256
0.00582904
0.00308175
0.0058491
0.00590859
0.00105994
0.00571593
0.00279478
0.00596855
0.00222427
0.00509005
0.00591427
0.00630504
0.00591137
0.00461901
0.00582972
0.0116426
0.00494895
0.00589684
0.00580192
0.00237612
0.0058751
0.000849611
0.0109208
0.00593227
0.00451841
0.00529953
0.00207465
0.00593609
0.0100008
0.00599234
0.00218302
0.00591997
0.00378094
0.00401734
0.0116728
0.00593546
0.0117001
0.00582695
0.0058848
0.00588466
0.00582512
0.00447646
0.00584124
0.00286219
0.00141677
0.0118131
0.0120801
0.00377376
0.00600379
0.00188769
0.00224826
0.00593035
0.00593432
0.0104633
0.00326424
0.00597066
0.0082726
0.00595903
0.0106039
0.000916039
0.0058443
0.0116455
0.00588512
0.00604891
0.00850132
0.0019232
0.00582295
0.00593221
0.0059213
0.00369669
0.00596007
0.00582308
0.0102468
0.0119457
0.0029261
0.00220098
0.0059561
0.00597512
0.00972517
0.0105854
0.00589856
0.00233356
0.00200901
0.0122911
0.00312553
0.005932
0.00584587
0.00846749
0.0019197
0.00592115
0.00276373
0.00466571
0.00712703
0.00179491
0.0056153
0.00595846
0.00963721
0.00582245
0.0038829
0.00448647
0.00259151
0.00924276
0.00592126
0.00583209
0.00582488
0.00593084
0.00236881
0.00584991
0.005843
0.00819123
0.00419567
0.00246056
0.00221651
0.00588855
0.00590343
0.0030509
0.00752989
0.00333855
0.00266629
0.00591501
0.0122042
0.00213042
0.00201612
0.00267011
0.00246887
0.0058954
0.00593324
0.00584612
0.00588075
0.00598951
0.00286211
0.00295708
0.00571829
0.00911171
0.00439297
0.00269141
0.0114743
0.00590291
0.0162849
0.00190538
0.000439231
0.00360654
0.0109302
0.0059549
0.0058609
0.00309075
0.0058876
0.00582218
0.0029553
0.00590258
0.00603438
0.00592755
0.00578499
0.00601488
0.00273134
0.00593622
0.00585569
0.00583772
0.0058429
0.00593211
0.00505036
0.0189025
0.00592327
0.0106969
0.00604379
0.00923678
0.0050527
0.00237057
0.00701112
0.0058403
0.00593323
0.0113792
0.00583448
0.00275736
0.00595061
0.000797426
0.000977825
0.0115035
0.00623728
0.00593716
0.00432238
0.00144072
0.00592486
0.0036949
0.00591293
0.00594342
0.00210823
0.0104388
0.0151636
0.00164931
0.0020654
0.0057863
0.00731401
0.0119032
0.00210184
0.00234254
0.00823722
0.00177397
0.00594032
0.00120637
0.0128021
0.00363263
0.00639115
0.00235969
0.00378088
0.00595559
0.00536859
0.00271195
0.00585389
0.0114946
0.00527335
0.00590647
0.00590455
0.0119503
0.013863
0.0059153
0.005574
0.00503218
0.000699279
0.0104051
0.00502538
0.0059437
0.0059138
0.00520054
0.00449396
0.00170384
0.00273244
0.00579956
0.0193281
0.00592704
0.00564472
0.00256181
0.00589919
0.00588558
0.00233276
0.0058944
0.00209133
0.00726295
0.00532243
0.00858385
0.00943939
0.00199603
0.0059419
0.00253821
0.00209758
0.00593907
0.00495489
0.0123328
0.0022257
0.00593231
0.000323301
0.0102844
0.00198475
0.00232756
0.00581576
0.0118401
0.0059548
0.00936177
0.00994094
0.0059681
0.00587286
0.00591408
0.00280073
0.00545436
0.00588534
0.00596996
0.00585432
0.00558789
0.00585091
0.00313924
0.00163669
0.00187983
0.0105067
0.0059574
0.00591926
0.00302302
0.00391677
0.00136
0.00596026
0.00288036
0.00432264
0.00591429
0.00596672
0.00982333
0.00527496
0.00584199
0.0058639
0.00505802
0.00441279
0.00520979
0.00494097
0.00580837
0.0028185
0.000908812
0.00136066
0.0058466
0.00734051
0.00329725
0.00593068
0.00583159
0.0102717
0.00587143
0.0059271
0.00344384
0.00372826
0.00586595
0.00854941
0.00230986
0.00584365
0.0027652
0.00595073
0.011547
0.000916695
0.00584234
0.00584709
0.0023233
0.00555255
0.0116087
0.00176217
0.000288356
0.00219801
0.0054384
0.00582491
0.00591757
0.0103289
0.0037261
0.00294991
0.00087581
0.00226492
0.00596864
0.00490155
0.00590232
0.00177528
0.00583691
0.00581171
0.0059255
0.00218196
0.00588255
0.00593922
0.00142558
0.00190739
0.00582557
0.015587
0.00596179
0.00386614
0.00243926
0.00582323
0.00520575
0.0113178
0.000965493
0.00593644
0.00592137
0.00219774
0.00583911
0.00598067
0.00463518
0.00175534
0.00592651
0.00593217
0.0038573
0.0110791
0.0059295
0.00374608
0.001988
0.00437538
0.00581117
0.000841942
0.00291772
0.00595282
0.00502078
0.00889541
0.00173924
0.00582458
0.00127776
0.0057074
0.00581998
0.00592399
0.00550858
0.00283135
0.0102545
0.00582586
0.00592797
0.0101998
0.0058507
0.00589153
0.00593766
0.00177075
0.00518297
0.00321197
0.00595181
0.00584998
0.00592376
0.00168153
0.0112734
0.00201918
0.00283854
0.00282772
0.00599609
0.00191021
0.010855
0.00208599
0.00580714
0.00489366
0.00105801
0.00936917
0.00588263
0.00509985
0.011576
0.00592212
0.00583853
0.000868495
0.00584178
0.00913218
0.00595305
0.011287
0.00270139
0.00220438
0.0041667
0.0020718
0.00584671
0.00593322
0.00279795
0.00587463
0.0106927
0.00560479
0.00586593
0.00593037
0.00569946
0.000302503
0.00966243
0.00592158
0.00174375
0.00581463
0.00097108
0.00178022
0.00135589
0.00356592
0.00400096
0.00595928
0.00238982
0.00825274
0.0059312
0.00524311
0.00584642
0.00595436
0.00595598
0.00721536
0.0010236
0.00202505
0.00582131
0.00595108
0.0019703
0.00546014
0.00590029
0.00591085
0.00592134
0.00320785
0.00589095
0.002764
0.00568688
0.00584346
0.00598852
0.00493686
0.00590965
0.00593796
0.0128835
0.0117809
0.00354965
0.00581381
0.00989563
0.00539579
0.00419029
0.00595871
0.0179666
0.00392297
0.00866041
0.00285537
0.0101822
0.00578031
0.00106341
0.00555737
0.00590599
0.00102252
0.00590041
0.00593497
0.00138848
0.00586992
0.00292086
0.0148572
0.0058022
0.00527951
0.00590092
0.00272427
0.00693272
0.00352874
0.00808787
0.00592867
0.00595886
0.00591489
0.00198808
0.00584272
0.00595085
0.0117389
0.00503801
0.0102053
0.00402757
0.00509105
0.00481502
0.00582114
0.00723911
0.00595127
0.00588947
0.00594927
0.00591284
0.0101099
0.00590062
0.00309064
0.00240521
0.00583944
0.00584698
0.00583701
0.00677096
0.00335533
0.00595605
0.00325977
0.0123006
0.00588452
0.00335029
0.0032563
0.00582109
0.00488806
0.00583237
0.00529163
0.00588037
0.00595719
0.00582365
0.00274388
0.000932221
0.00527844
0.00593843
0.0100465
0.00591247
0.00582397
0.000687188
0.00582902
0.00193112
0.00588917
0.00589183
0.0059859
0.00094517
0.00591774
0.00662786
0.0105245
0.00582053
0.00600516
0.0058312
0.00574479
0.00142874
0.00216777
0.00591171
0.00590428
0.0058504
0.00613102
0.00218896
0.00588896
0.00344582
0.0136348
0.00593752
0.0028846
0.00596066
0.00593683
0.00593199
0.00594112
0.00592719
0.00592849
0.00592611
0.00581795
0.00662753
0.00593995
0.00581775
0.00585863
0.00592806
0.00512236
0.00302186
0.00824094
0.0140177
0.00211628
0.00593057
0.00587203
0.00607807
0.00585801
0.00677604
0.0127664
0.00131124
0.00539866
0.00595414
0.00517576
0.00591545
0.0012917
0.00828355
0.000951402
0.0102449
0.0108172
0.00593599
0.00023216
0.00589595
0.00284497
0.00582753
0.00585586
0.00510933
0.00594022
0.00173836
0.0071681
0.00592374
0.00591261
0.00552372
0.00139234
0.00291655
0.00583673
0.00603366
0.00588782
0.0026618
0.00596227
0.0057352
0.00591233
0.00159151
0.00594827
0.00195187
0.0096993
0.0117235
0.0039367
0.000793311
0.00588081
0.00872653
0.00181952
0.00815107
0.00595702
0.00150301
0.00593408
0.000920873
0.0103843
0.00423778
0.0205246
0.00603044
0.00595113
0.00171115
0.00594211
0.00555636
0.0128678
0.00276357
0.00592687
0.0102247
0.00306299
0.00345641
0.00100287
0.0124723
0.000946895
0.00379591
0.00593547
0.00600727
0.00595531
0.00111802
0.0110219
0.00596296
0.00593459
0.00501299
0.00892543
0.00587907
0.00594532
0.00172387
0.0211618
0.00272638
0.00592775
0.00592025
0.00202568
0.0058425
0.00335797
0.00583516
0.00200906
0.00830532
0.00929961
0.0018191
0.00583815
0.00582547
0.00583791
0.00585583
0.00103602
0.00564268
0.00598927
0.000962724
0.0019182
0.00598127
0.00294921
0.00392126
0.00594268
0.00259544
0.0114485
0.00104241
0.0105469
0.00920467
0.00309327
0.00306526
0.00601384
0.00603522
0.00308928
0.000973298
0.0016135
0.0058441
0.00557593
0.00593973
0.0059376
0.00582428
0.00595699
0.00594458
0.0126318
0.00232832
0.00603287
0.00308022
0.00593489
0.00582198
0.00588264
0.00156194
0.00241648
0.00586601
0.000790846
0.00573957
0.0141512
0.00595011
0.00594574
0.0029911
0.0184696
0.00593985
0.00557697
0.00593564
0.00891168
0.00152105
0.00513428
0.00354341
0.0113876
0.00592605
0.00581101
0.00315628
0.00244256
0.0059423
0.0128364
0.0026319
0.00581158
0.00593529
0.00093676
0.00433509
0.00415941
0.0058568
0.00513647
0.00212846
0.00770883
0.00839673
0.000302505
0.00308833
0.00564841
0.00598021
0.0026857
0.00286857
0.0117304
0.00142997
0.00581824
0.00533684
0.00521961
0.00563566
0.00494273
0.00594514
0.00522381
0.00587152
0.00593091
0.00269336
0.00390613
0.00594249
0.00883611
0.00518789
0.00579372
0.00316861
0.00594145
0.00584959
0.00581844
0.00235784
0.0029949
0.0114921
0.00130463
0.00586533
0.000605093
0.00257258
0.0065268
0.00595187
0.00308576
0.00857225
0.0032477
0.00785444
0.00593643
0.001598
0.00485981
0.00594365
0.0023225
0.00133808
0.00559515
0.00587547
0.00102659
0.0056051
0.00593029
0.000784807
0.0122637
0.0120042
0.000969371
0.0182354
0.00220501
0.00583525
0.0059861
0.00583876
0.00256407
0.00591113
0.0030058
0.00135366
0.00559064
0.00630761
0.000917611
0.0069764
0.0111486
0.00206618
0.00296354
0.004892
0.00879848
0.00275201
0.00400208
0.00586842
0.00242296
0.00308006
0.0056328
0.00586428
0.00708034
0.00304942
0.00369578
0.00593929
0.00925686
0.00885481
0.000313766
0.00588139
0.00196827
0.0121989
0.00475339
0.000245709
0.00718245
0.00585506
0.00727231
0.00129118
0.00291929
0.0059131
0.00904084
0.00251912
0.00301366
0.00431636
0.00841319
0.00262558
0.005813
0.00580603
0.00207192
0.00274559
0.00214319
0.00123773
0.00234692
0.00156935
0.00576617
0.00585396
0.00588693
0.00297605
0.00588154
0.00587913
0.00814608
0.00109546
0.000518322
0.00595504
0.0015937
0.00514371
0.000946523
0.00812814
0.00588266
0.00587363
0.0129967
0.00585499
0.0059432
0.00565596
0.00378239
0.00982869
0.00288175
0.00581606
0.00990394
0.00608073
0.00593051
0.00587347
0.00604133
0.00580261
0.00582298
0.0060458
0.00309918
0.00591978
0.0019996
0.00592053
0.005807
0.00306914
0.00296715
0.00249474
0.00547765
0.00604
0.0059371
0.00593282
0.0121599
0.00381144
0.00586829
0.0058331
0.00942719
0.0059208
0.0120962
0.00305395
0.00596213
0.0130327
0.00596035
0.00495517
0.00594205
0.00590392
0.0059082
0.00258184
0.00516488
0.00582531
0.00351693
0.00571834
0.00510968
0.00518359
0.00591539
0.00128864
0.00217432
0.00559583
0.00593047
0.0116841
0.00551418
0.00308888
0.00594072
0.00586708
0.000239012
0.0108747
0.00148048
0.00506822
0.00573001
0.00560301
0.0058628
0.00595481
0.00241356
0.00592649
0.00582307
0.00585955
0.00230033
0.00581878
0.00283987
0.00770986
0.00297664
0.00587067
0.00411809
0.00551403
0.00581872
0.00589891
0.0027814
0.00590911
0.00776796
0.00595595
0.00584314
0.00606292
0.00333749
0.00422061
0.00587957
0.00496914
0.00162739
0.0059371
0.00570675
0.00168728
0.00416773
0.00609897
0.000266044
0.00304968
0.00586901
0.00587986
0.00593497
0.00297108
0.00222382
0.00591112
0.00585305
0.00223604
0.009689
0.00796069
0.00585321
0.001847
0.00542882
0.00590588
0.00582037
0.00588361
0.00450877
0.00264964
0.00585513
0.00583364
0.00497902
0.00801392
0.00182259
0.00609545
0.0043404
0.0112958
0.00271214
0.00396514
0.001386
0.00568861
0.0120999
0.00595401
0.00993012
0.00593288
0.00593244
0.00581907
0.00180004
0.00289143
0.00595906
0.00354281
0.00559032
0.00512954
0.00594193
0.00758111
0.0121621
0.00242021
0.00584115
0.00576033
0.00584386
0.00156566
0.00553679
0.0113998
0.00584329
0.00341378
0.00283014
0.00853341
0.00611683
0.00582211
0.0208099
0.00593099
0.00584155
0.0134326
0.00581225
0.00592738
0.00642498
0.00568705
0.0119737
0.00460344
0.00225632
0.000434698
0.00482697
0.0140383
0.00206348
0.00592487
0.00587535
0.0107426
0.00139738
0.00424532
0.0059605
0.0030948
0.00255693
0.00591933
0.00509528
0.00415056
0.00236008
0.00248153
0.00251252
0.00587575
0.0050555
0.00594747
0.00291724
0.00596593
0.0105113
0.00608845
0.00592024
0.00204248
0.0101077
0.00610661
0.00294768
0.00553742
0.003616
0.00564901
0.00105215
0.00583667
0.00336664
0.00209719
0.00101568
0.00582942
0.000894611
0.0041054
0.00551405
0.00225141
0.00364135
0.00265649
0.00209018
0.00585616
0.00260485
0.00199046
0.00578903
0.00605107
0.00595236
0.012218
0.00566541
0.00273793
0.00488781
0.0040325
0.00566145
0.0127697
0.00592144
0.00352405
0.00205117
0.00190084
0.00588951
0.00581196
0.0058264
0.00588589
0.0059597
0.00591158
0.00582045
0.00249689
0.00294637
0.00591504
0.00204821
0.00593918
0.00582389
0.00143257
0.00612017
0.00266683
0.00257627
0.00587518
0.00581832
0.0057395
0.00515388
0.0124059
0.00582374
0.00307433
0.00584014
0.00745338
0.00591845
0.00254559
0.00170898
0.00198393
0.00590306
0.00399161
0.00583166
0.00584285
0.00180404
0.00559476
0.00140661
0.0126754
0.00595716
0.0109996
0.00587066
0.00615157
0.00461183
0.000605997
0.00778143
0.00100765
0.00587387
0.00586046
0.0107097
0.00586287
0.00140495
0.00585739
0.00336785
0.0119283
0.00593067
0.00522084
0.00594472
0.000836832
0.0062448
0.00586386
0.00267757
0.0031106
0.0105041
0.00352756
0.00119829
0.000361398
0.00153447
0.00255579
0.00543415
0.00584385
0.00593932
0.00584942
0.00595447
0.00556824
0.00314775
0.00130047
0.00593039
0.00184574
0.00586493
0.00445235
0.00592449
0.00295538
0.00582627
0.00569652
0.00591361
0.0077951
0.00276084
0.00109587
0.0058135
0.00823982
0.00590516
0.00585078
0.00589861
0.00284344
0.00251904
0.00278393
0.00590524
0.00586693
0.00607096
0.00585466
0.00305362
0.00583056
0.00211496
0.00746537
0.00290481
0.00661213
0.00926912
0.00128691
0.00109876
0.00514691
0.00247548
0.00591857
0.00580483
0.00293153
0.00582329
0.00483047
0.00228301
0.01595
0.00598976
0.0122299
0.0129118
0.00588073
0.00535937
0.00842429
0.00593309
0.0112569
0.00268348
0.00450244
0.00117163
0.0058181
0.00582566
0.00580603
0.00617909
0.00218677
0.00593322
0.00596024
0.00505458
0.00478652
0.00594454
0.0015159
0.00968197
0.00328543
0.00497434
0.00582198
0.00339615
0.0103011
0.0060946
0.00211139
0.00222223
0.00559358
0.00115415
0.00208067
0.0101098
0.00589755
0.000870207
0.00584107
0.0125799
0.00596009
0.00583396
0.00171443
0.0022202
0.0028711
0.00590598
0.000976031
0.00299597
0.0059596
0.00591111
0.00594778
0.00498771
0.00438688
0.012353
0.00959749
0.00538871
0.00442659
0.0058267
0.00271796
0.00582141
0.00219834
0.0037728
0.00593633
0.00105387
0.00591147
0.00588633
0.00302783
0.00586246
0.00225861
0.00582226
0.00589951
0.0020953
0.00308012
0.00556263
0.00451088
0.00113363
0.00461893
0.00594613
0.0058189
0.00220932
0.00588948
0.00583623
0.0040033
0.00580908
0.00581793
0.005708
0.00580818
0.00591209
0.0023849
0.00583981
0.00144333
0.0110266
0.00594464
0.00590288
0.00605511
0.00586356
0.00595879
0.00430479
0.0113496
0.00582781
0.0058258
0.00589495
0.00222114
0.00326801
0.00543308
0.005282
0.00612164
0.00254175
0.00764273
0.0110239
0.00583464
0.00120324
0.00586939
0.0059014
0.00935678
0.00584167
0.0045737
0.00764422
0.00480014
0.00194589
0.00590328
0.00589808
0.000596752
0.0116705
0.00258335
0.0120477
0.00600684
0.00584658
0.00594583
0.002889
0.000906086
0.00316608
0.00588363
0.0058797
0.00565439
0.00584325
0.00292125
0.00578956
0.00638142
0.00789262
0.00582175
0.00582091
0.00594161
0.00590064
0.0031459
0.0116086
0.00596131
0.00522002
0.00585813
0.00580314
0.00570464
0.00584938
0.00595401
0.00590216
0.00590045
0.00599785
0.00561283
0.002088
0.00593929
0.00136133
0.0058983
0.00594375
0.00609706
0.00580814
0.00266055
0.00252686
0.00589885
0.00584032
0.00594405
0.00435381
0.00177243
0.00558794
0.00594502
0.00593655
0.0027862
0.0058777
0.00266283
0.00571315
0.00783568
0.00612604
0.0058763
0.00399349
0.00353374
0.00586141
0.00584544
0.00494288
0.0107468
0.00660046
0.00580733
0.00581389
0.00269688
0.00304176
0.00588332
0.00914042
0.00566455
0.00265656
0.00593758
0.00913505
0.00279107
0.00590223
0.00580726
0.00277355
0.00285092
0.00595021
0.00597422
0.00581339
0.0058458
0.0085263
0.00589841
0.00308948
0.0109261
0.00584271
0.00293083
0.00447738
0.00831855
0.00320979
0.00559477
0.0059042
0.00546777
0.0059597
0.00613263
0.00580944
0.00593772
0.010614
0.00583901
0.00287463
0.00589035
0.00405454
0.00677239
0.00118356
0.00477683
0.0114842
0.00291909
0.00584634
0.00580976
0.00605976
0.0125331
0.00588343
0.000374472
0.00585817
0.00296648
0.0088345
0.00511353
0.00187817
0.00590739
0.00581569
0.00260539
0.00584467
0.00586624
0.004154
0.00658419
0.00609337
0.0051797
0.00586224
0.000904847
0.00592006
0.00595656
0.0114789
0.0114016
0.00258981
0.00176582
0.00294995
0.00291122
0.00576357
0.00845443
0.00494938
0.00869563
0.00555244
0.00593935
0.00139268
0.00609922
0.00585961
0.00158637
0.000932924
0.00287734
0.00311949
0.00227148
0.00358564
0.00268784
0.0013929
0.00594325
0.0146378
0.00533228
0.000814974
0.00529715
0.00893734
0.00155699
0.0059432
0.00402274
0.00595835
0.00921368
0.00592024
0.00445909
0.00595735
0.00593061
0.00495934
0.00089397
0.0027319
0.00727691
0.0098565
0.00583495
0.00206951
0.00583801
0.0123699
0.0168689
0.00594623
0.00594685
0.00130156
0.000270647
0.00528302
0.0059149
0.00511581
0.00583895
0.00591542
0.00585297
0.000570674
0.00394965
0.00579804
0.00505133
0.00300162
0.00561174
0.00585035
0.000989465
0.00579905
0.0041195
0.00322636
0.00590852
0.00250324
0.00593976
0.010457
0.00286662
0.0058168
0.00501991
0.0058336
0.00582135
0.00264192
0.00588156
0.00179426
0.00590636
0.00593738
0.00252538
0.0069686
0.00955965
0.0058462
0.00399338
0.00586051
0.00791459
0.0113449
0.0109673
0.00586217
0.00637167
0.00594036
0.00582415
0.00573706
0.00105045
0.010625
0.00603683
0.00315819
0.00591696
0.00583569
0.00585827
0.00137143
0.0027167
0.00371194
0.00592659
0.00281271
0.00516963
0.00157021
0.00593349
0.00588957
0.00981108
0.00182643
0.00595462
0.00922084
0.00401512
0.00203517
0.00582327
0.00738058
0.0167346
0.00913476
0.00401914
0.00585826
0.00581603
0.00259797
0.00175148
0.0123413
0.00578813
0.00585927
0.00592268
0.00144151
0.00608504
0.00302813
0.00266008
0.00265317
0.0026436
0.00402932
0.00594754
0.00593066
0.00672472
0.0059434
0.00212885
0.00516389
0.00473258
0.00593569
0.0117596
0.00176944
0.00591572
0.00581812
0.00748692
0.00580374
0.00148278
0.00121118
0.00579909
0.00583988
0.00588443
0.00980755
0.00591342
0.0058338
0.00594627
0.00278453
0.00835655
0.0058986
0.00594122
0.00583472
0.00885426
0.0055962
0.00513298
0.00593066
0.00517836
0.00584979
0.0109649
0.00583431
0.0140097
0.00588255
0.00242167
0.00161405
0.00889986
0.00588415
0.00617565
0.00233027
0.00592012
0.0109376
0.00583154
0.00583155
0.00623341
0.00580374
0.0108776
0.0027627
0.0087339
0.00405336
0.00314044
0.0058342
0.00208212
0.00233066
0.00589599
0.00609813
0.00669117
0.00782472
0.00897759
0.00318017
0.00548952
0.00193824
0.00518298
0.00601671
0.00231832
0.00595402
0.00580102
0.00870899
0.0123242
0.00590571
0.00213393
0.0059485
0.0117208
0.00812725
0.00591195
0.00586018
0.000932383
0.0059333
0.0102836
0.0170534
0.005703
0.0026667
0.00583687
0.0140101
0.00381454
0.00890691
0.00769808