/*--------------------------------*- C++ -*----------------------------------*\
| =========                 |                                                 |
| \\      /  F ield         | OpenFOAM: The Open Source CFD Toolbox           |
|  \\    /   O peration     | Version:  v2012                                 |
|   \\  /    A nd           | Website:  www.openfoam.com                      |
|    \\/     M anipulation  |                                                 |
\*---------------------------------------------------------------------------*/
FoamFile
{
    version     2.0;
    format      ascii;
    class       volScalarField;
    location    "300";
    object      omega_0;
}
// * * * * * * * * * * * * * * * * * * * * * * * * * * * * * * * * * * * * * //

dimensions      [0 0 -1 0 0 0 0];


internalField   nonuniform List<scalar> 
27802
(
0.0668681
0.0239421
0.0254716
0.0255081
3.19533
0.0245483
0.0260341
0.024807
0.0577974
0.0252145
0.0237735
3.37485
3.21107
0.0649577
0.0242678
0.0260269
0.022088
3.39439
1.8723
0.0533116
0.0238228
0.0247308
0.0692937
0.109365
0.0233514
0.0248908
0.0244359
0.0251869
0.0233458
1.84399
0.024614
0.0272353
3.32721
0.0489137
3.44816
0.0243791
0.0596951
0.474502
0.0246054
0.0244204
0.0248678
0.024426
3.42738
0.053181
0.0235628
0.0242415
0.193102
0.0246872
0.0232158
0.0383157
0.0274953
0.0235634
0.285827
0.0236586
0.0242544
0.0245171
6.29268
0.0612687
0.0246415
4.53935
0.02438
0.0246179
0.280709
0.0269019
3.40521
0.0847923
3.07227
0.02534
3.03305
0.0268838
0.0240107
0.138138
1.30777
0.135196
0.279562
0.0276463
0.433093
3.22762
0.0376491
0.0259622
3.18926
0.0468205
0.0232444
0.0606736
0.0243223
0.0261074
0.0233234
0.0242494
0.138994
0.227282
3.49922
0.0245822
0.0670995
0.0259496
0.0234978
0.0246921
0.0300813
3.19408
0.0248677
0.182659
0.0463833
0.0248836
0.0259958
0.0258783
0.235913
0.0245813
0.0411864
0.0593598
0.024383
0.0382242
0.0262575
0.0242568
0.0248839
0.0694237
0.0232848
0.103507
0.028669
0.0238924
0.0281125
0.0522896
3.23416
3.52536
0.03774
0.02334
0.0244627
0.0280861
0.193841
0.0435806
3.17607
3.21089
0.0259964
0.0373199
0.025088
0.0251019
0.0232432
0.0251307
0.0250353
0.023345
0.0465638
0.0758584
0.0252235
0.0244613
0.0280874
0.0232472
0.0232775
0.025516
0.0250228
0.0253038
0.0235999
0.0249789
0.0238145
0.024674
0.0263738
0.0254056
0.0499041
0.0241919
0.0515044
0.178201
0.03806
0.122146
0.186779
0.139479
0.0260847
0.0280437
0.0221104
0.0230593
0.0239102
0.0245508
0.0246126
0.055244
0.025853
0.0285604
0.0242035
1.83152
0.0246162
3.40949
0.0230436
0.0302262
0.0235273
0.0614485
0.109196
0.0347468
0.0323624
0.0254566
0.0241985
0.0569984
0.0241875
0.0249149
0.153254
1.70534
0.023873
0.0267422
0.0659138
0.0255754
0.0228573
0.0244295
0.0228541
0.0234535
0.0243142
0.0244573
3.86303
1.11853
0.222356
0.0277263
0.0243794
0.0373514
0.0262474
0.744829
0.0224864
4.15994
0.0244176
1.55209
3.41043
0.0300654
0.15821
0.0242077
0.231182
0.0259518
0.0247124
0.0241597
3.1972
0.0221626
0.056098
0.128354
0.0241873
0.0233159
0.0232724
0.0267233
0.024244
0.0248954
0.0221613
5.67704
0.0246958
0.0335133
1.88609
0.0785093
0.0246478
0.293709
3.38909
0.0267225
0.024484
1.24482
1.3584
0.0247225
0.0263178
3.25123
0.0234266
0.221887
0.0257811
0.0253711
0.238305
0.0338016
0.0659947
0.0245346
0.0263834
0.0228647
0.0242407
0.0495644
0.0277085
0.0228456
0.0338673
0.0248114
3.03824
0.0224616
3.68099
0.030188
3.85003
0.0248978
0.0221574
0.0246222
0.182911
0.0241182
0.0741637
0.0534589
0.0255365
0.23071
0.0251397
0.0379959
0.0299923
0.0242055
1.14552
0.0336685
0.0258334
0.0397681
0.213803
0.767469
0.048953
0.0247958
0.0278722
0.0239096
0.0222237
0.0450309
0.0228924
1.18499
0.0228839
0.0374479
0.105759
0.024359
3.71081
0.36079
0.0855122
0.0253805
0.0277442
0.11878
1.87522
0.0474434
0.0247939
3.64854
0.0312884
0.0251865
0.0312711
0.0560339
0.0705005
0.0251317
0.0313751
0.024414
0.0315392
0.0658418
0.0379547
0.0670868
0.0248479
0.0243879
0.02224
0.0235733
0.156228
0.0249205
3.06127
0.0249099
0.0243837
0.0324564
0.0250986
2.8944
0.271448
0.112769
0.126431
1.70476
0.0710366
0.0240444
0.0703472
0.0240977
0.0221289
3.43179
2.8652
0.0400057
0.134566
0.100779
0.194243
0.30653
0.0257748
0.334363
0.0230052
3.25648
0.0244728
0.0250783
0.0247964
0.0251192
0.265405
0.395346
0.024077
0.0236235
0.0415655
0.70238
0.0236888
0.0378552
0.0228454
0.0248146
0.273871
0.0247777
0.0334859
0.0242159
0.0240199
0.196646
0.038409
0.112532
0.42873
3.83195
0.0386821
0.0261943
0.0309375
0.0242626
0.0249095
0.0228553
0.0247417
0.0237358
0.0237591
0.0246785
0.226908
0.0268676
0.0405546
0.0311408
0.023955
0.0244754
0.0309153
0.0381848
0.0242817
2.92908
0.0628474
0.0695491
0.0241941
0.0666705
3.4117
0.0384134
0.023917
0.0510108
0.024621
0.305772
0.0340824
0.193359
0.860235
0.0355333
4.21693
0.0253691
3.2191
3.12034
0.251932
0.0247096
0.023629
0.0328978
0.0232394
0.28057
3.43057
0.0256622
0.0272068
0.0248935
0.187261
0.0253071
0.0264754
3.22729
0.0467192
0.0273479
0.0240883
0.0335412
0.245091
0.0242231
0.0250977
0.0243195
0.0857418
0.0573726
0.0553795
0.0324782
0.0489426
0.0275399
0.0238086
0.0240583
0.0705537
0.0244336
0.0234075
0.0262495
0.0701834
0.0427561
1.12982
3.03116
0.251463
3.08998
0.0228992
0.0402813
0.0329826
0.107336
0.428127
0.0242101
0.0370115
0.0388091
0.0453947
0.049085
0.0221217
0.0264386
0.0379187
0.0244272
0.0412785
0.023401
0.0296104
0.0241705
0.0246721
0.140779
0.0633692
0.669393
0.025156
5.42521
0.0221489
0.0275193
0.102887
0.0274916
0.0269415
0.0670411
0.0707493
0.29035
0.0259727
0.0251517
0.104927
0.0242163
0.024382
0.264186
0.0244397
3.66596
0.0250914
3.46795
0.270663
0.264492
0.024232
0.0505799
3.14963
0.0378833
0.492957
0.126557
0.270974
0.259831
0.0259961
0.033547
0.0717173
0.025039
0.0245473
1.39436
0.0399346
0.0238858
0.0241234
0.192063
0.277738
0.0464416
0.0241947
0.0422823
0.0264496
0.486659
0.0247805
0.0310749
0.110442
0.0241253
0.0228706
0.025088
1.68388
3.45597
0.0463589
1.29251
0.0234718
0.024965
3.49974
0.0242703
0.0412
0.0242202
0.0228804
0.057771
1.25291
0.0239151
0.0251609
0.0234756
0.0705273
0.0241025
0.0302488
1.52631
0.0483752
0.0711286
2.71308
0.090939
1.69841
2.72489
0.0246026
3.42631
0.0251512
0.0415255
0.026355
0.0248933
0.0245862
0.543484
0.0244711
0.02423
0.0233191
0.360272
0.0263489
0.0254363
0.0697293
0.220697
0.244083
3.39248
3.04549
0.0381281
0.115482
0.0300621
3.83293
0.0247255
0.0568843
0.360251
0.143663
3.47517
0.0320446
0.0255253
2.94132
0.045908
0.0229728
2.90323
0.0833223
0.224924
0.0553307
0.0866735
0.0229796
0.0257143
0.0455187
0.024151
0.039827
0.131794
0.022907
0.0259248
0.0235283
0.162056
0.0353948
0.0255256
0.712232
3.24287
0.0273734
0.0299824
0.0244762
3.24751
0.856877
0.841469
0.0502527
0.0577085
0.257151
0.0242784
0.138267
0.0258096
3.56742
3.40832
0.0235155
0.0365324
0.822823
0.23641
0.0254131
2.86184
0.0324666
2.73272
0.0325576
0.0256524
0.34759
2.66731
0.0826045
0.0243413
0.0428169
0.0289221
0.0465792
0.026029
3.14813
0.0243445
0.0245767
0.0278772
0.0338164
3.85043
0.138511
0.0270453
2.68578
0.0371682
2.90776
0.0243215
0.0310572
0.0707732
0.0956883
2.94533
0.0276006
0.278694
0.0262555
0.0230857
0.0253587
0.02471
0.0246243
0.0359286
0.234788
0.170302
0.0247588
0.0454633
0.0263607
0.027815
0.128363
0.0230688
0.0251769
0.165272
0.157827
0.0278313
0.0240542
0.0257319
0.0251857
0.0311139
0.025186
0.326907
0.43606
0.0269618
0.0774454
0.0539399
2.75696
2.88467
0.071247
0.0241748
0.0450693
0.0242493
0.044778
0.025124
0.151622
0.0466207
3.26223
0.0230102
0.0245105
0.155108
0.0262242
0.0233445
0.0273789
0.0985523
0.0242282
0.0581605
0.0246021
0.283196
0.0238378
0.0282287
0.0907098
0.0325445
0.0290796
1.08106
0.0515661
0.0377111
0.0713124
0.0265608
3.8666
2.67581
0.138032
0.0380598
2.70148
0.0238421
0.0263741
0.0275609
3.09033
0.0562679
0.0271804
0.026919
0.122899
3.58245
1.19762
3.33993
0.0312632
0.0697484
2.91698
0.0252929
0.0520374
1.26321
0.0367083
0.0229779
0.0462044
0.0243186
0.246182
0.0221835
0.0564836
3.39683
0.0257592
0.0245081
0.168807
3.36143
0.0374416
0.0296678
0.0229586
0.0270533
0.0300501
0.0588369
0.0425622
0.301773
0.0485448
0.0253796
0.0262805
0.0587148
0.276781
1.82295
0.0236792
2.50177
2.8892
0.027167
0.0253303
0.0239385
0.0251789
3.20744
0.0239299
0.0290243
0.0263883
1.19896
3.63848
0.025022
0.0245155
0.0287182
1.83008
0.0220938
0.0286609
0.0453381
0.0267359
0.0239845
2.6816
0.0281045
0.363363
0.0259791
0.024909
0.0303098
0.0279779
2.80774
0.0299767
2.76738
0.169466
0.0386162
0.172346
0.443553
0.0355602
0.0276364
0.0297016
0.0237065
0.0275776
0.0671663
0.0300349
0.0760587
0.235415
0.289607
0.0234041
2.09622
0.298341
0.315976
0.0755745
0.116233
0.0282968
0.304723
0.0397952
0.023023
0.0235437
0.0241705
0.0244856
1.50659
0.023716
0.0249265
3.77309
0.304978
3.62066
0.0243458
0.0330023
0.0252836
0.0254695
0.0541262
0.0244215
0.236454
0.0274798
0.041598
0.0233858
0.0233717
0.161173
0.0276683
0.330629
0.0254669
0.0222029
1.0197
0.023979
0.0242215
3.37775
0.0977078
0.0713621
0.0354937
0.025122
0.0234372
0.0254279
0.0251328
0.184383
0.0840156
1.08363
0.0259149
0.0464311
0.0407187
0.0249173
0.028879
3.6389
0.0313339
0.0249628
0.0300657
0.0236786
0.023033
3.24897
0.0569018
0.0239504
0.0244782
0.0373675
0.0693554
0.0298761
2.78239
0.0254301
0.0268479
0.852841
0.0247591
0.0253459
0.0247498
0.0434484
0.0718473
0.0249298
0.154478
0.0262236
1.8759
0.0255283
0.0242216
0.731236
0.0240705
0.0245173
0.0235548
0.024324
0.0243401
3.17992
0.0251324
0.219738
0.0240188
0.0273687
0.0235139
0.0236312
0.0236471
0.0243755
0.0299647
0.508345
0.0385388
0.0466114
0.0239678
2.59421
0.0377824
0.0394437
0.0250757
0.0239961
0.0231086
0.0280064
0.0244511
0.23637
0.0222504
0.0253438
0.0277688
3.93381
0.0241087
0.0352837
0.0234182
0.0221745
0.0522213
0.303488
2.96255
0.0240672
0.0236626
0.0683162
0.0238718
2.73962
0.0976362
0.0463108
2.68438
0.0221545
0.250197
0.0251014
0.0483039
0.0467043
0.137622
0.0233415
0.037805
2.70328
0.0241173
0.0261344
0.0261741
0.283997
0.0512937
0.0451414
0.0245993
0.0236341
0.0355988
0.0661379
2.36965
0.0337061
0.0709135
0.0238902
0.0256899
0.023578
0.264935
0.0229771
0.0224232
0.0246273
0.0322596
0.0583444
0.0234254
0.0311722
0.0229622
0.0237634
0.172821
0.0271444
0.0397106
0.02486
0.0847619
0.0353755
0.0236393
3.04464
0.0252376
0.0461995
0.0231177
3.58881
0.0352972
0.0252762
0.0221631
0.033148
0.0223716
0.222179
0.327927
0.0240927
0.025416
3.47648
2.71959
0.024622
2.65103
3.63504
0.100235
0.024069
0.0632457
5.03723
3.53523
0.0247737
0.510927
0.0222233
0.0243242
0.0242786
0.0242549
0.0272658
0.0237044
0.0301663
0.14178
0.293263
0.294372
0.142048
0.0251154
0.0484521
0.0568133
0.0233168
0.0235379
2.89514
0.0804577
0.0243532
0.683745
0.0249628
1.85852
1.36974
0.0237139
0.273767
0.0224027
0.0260483
2.94683
0.0585696
0.0240765
0.0249822
0.0232821
0.0267679
0.0247561
0.0242526
2.56479
1.24986
0.0302388
0.0857454
0.024983
0.0248313
3.05715
3.21312
0.0252793
0.0803472
0.043768
0.366508
0.192644
0.0237418
0.0243013
3.5598
0.0466625
0.0245786
0.0426609
0.133439
3.34641
2.44417
0.027946
0.0246581
0.265817
0.0242336
0.0294825
0.0330211
0.0410699
2.66853
0.023807
0.0249888
0.024028
0.0247518
0.0790235
0.0242207
0.0240994
3.77382
4.29648
0.0484373
0.0725414
0.0250731
0.0251379
3.1914
3.57453
0.026903
0.0339324
0.0254998
3.37926
0.0819782
0.0563221
0.0384246
0.0380775
0.0239113
0.0245994
0.0242943
0.0245339
0.0239506
0.0641422
0.03039
0.0271204
3.03968
0.0444801
0.0361444
3.0807
0.024648
0.925228
0.0830669
1.44974
0.026225
0.852533
0.0334369
0.0229862
0.0429008
0.0244362
0.0240683
0.0598999
0.0238323
0.192733
0.0254169
0.0259875
0.0249866
0.0384987
0.0253528
0.0243352
0.0237039
0.0241072
0.0254061
0.0342588
1.16593
0.0236126
2.92277
0.0271884
2.94474
0.0258161
0.0308074
0.63604
0.0237129
0.0234319
3.13199
0.0237048
0.0376447
0.0250441
0.295712
0.216691
3.10484
3.14729
0.0253468
0.0273361
0.251017
0.024153
0.0398384
0.0255172
0.0243892
0.0815542
2.66525
0.736247
0.0727403
0.0689257
0.0253064
2.11909
3.16502
0.0711838
0.047099
2.73802
0.734625
0.0302244
0.194287
0.361108
0.0263814
0.0361625
0.0795378
0.0274329
0.0249676
0.0296432
0.209161
0.025665
0.27486
0.192908
0.0253157
0.0232106
0.298544
0.361208
0.0237676
0.0282367
0.0256052
0.21587
3.22923
0.0625178
0.0252524
0.0237961
0.0252454
0.0330198
0.0957382
0.0300117
0.0264988
1.1686
0.0245772
0.0276848
0.101822
0.0239165
0.0258906
0.0376573
0.0233868
0.0857889
3.29411
0.0300766
1.18962
0.0388765
0.0520188
0.024868
0.0331208
0.0556549
0.024482
4.2038
3.27398
0.072699
0.023692
1.15567
0.245498
0.0557449
0.0806923
0.0222284
0.298143
0.0249255
3.64121
2.64742
0.0250288
0.0250269
0.0234094
0.0336465
0.0258557
0.0258841
0.0239076
0.0234234
0.0342665
0.0234077
0.0314828
0.119037
0.103714
2.90813
0.0250071
0.0347585
0.0334577
0.0266403
0.137044
0.0238756
0.0303292
0.0254782
0.023402
0.0239743
2.98483
0.0465376
0.0242838
0.0255567
0.0882338
0.0465716
0.332756
0.0277204
0.0233007
0.0297785
0.23598
0.337636
0.023691
0.273064
0.0269823
0.0236164
0.0237065
0.295018
0.0235699
0.0250972
0.0263418
0.0282534
0.0299205
2.74966
0.0380937
0.0241852
0.0668644
0.0246582
3.11051
0.233215
0.0242769
0.0236874
2.41733
3.66631
3.13708
0.111075
0.27891
0.0828798
0.028915
0.0242641
0.0234041
0.306195
0.0306768
0.0315853
0.248253
0.072043
0.024446
0.0333261
0.024644
0.110497
0.0237128
0.0231979
0.023219
0.0479487
0.0249405
0.0247573
0.141136
0.0551144
0.0263823
1.63141
0.0248128
1.70387
0.0375996
0.0243536
0.0309509
3.80014
0.220091
0.0252589
0.0255414
0.0720207
0.0257648
0.0251242
0.103597
0.111798
0.0232482
0.0233737
0.146308
2.89117
0.0232827
0.026705
0.0573431
0.025435
0.0232014
0.260709
1.69364
0.0246147
0.0360829
3.49871
0.11181
0.02223
0.0644788
0.0272224
0.0240131
0.0256675
2.97577
0.029928
3.28472
0.0243879
0.0232986
2.42131
0.0243145
0.0245435
0.0257233
0.110858
0.0360868
0.0274039
0.0244118
0.0233015
0.0233727
0.11714
3.81594
0.0433425
0.0327974
0.0383013
0.0243628
0.0571524
0.284175
0.0570537
0.0222039
0.0381845
0.215526
0.0466343
0.0258279
0.0335547
3.56911
0.0234959
0.0222488
0.59397
0.0241819
2.84135
0.0244476
0.861869
0.0297103
0.0724057
0.0282698
0.0830678
0.0239569
0.0235422
0.0435579
0.0235954
0.322849
0.0258058
0.0223488
0.0240993
2.38892
1.41886
2.81158
0.0235117
1.8209
0.023595
0.218512
0.109841
0.0660136
4.81566
0.0553959
0.0248624
0.0327944
3.31367
0.0234391
0.0306304
0.0256875
0.0244469
0.0238486
0.252481
0.233703
0.0429622
0.024049
0.0247029
0.0563714
0.0563542
0.024382
0.0256497
0.0234099
0.0301654
0.0245492
0.0473406
3.88427
0.0222545
0.0257477
0.0383553
0.0235243
0.0253031
0.374918
3.15046
0.0262799
0.0235852
0.348229
0.0298978
0.0282575
0.024627
1.64638
0.0300879
2.64069
0.0407656
3.41051
2.98283
0.196977
0.0284042
0.0436242
0.205565
0.0239952
0.0238198
0.145053
0.0235803
0.0419534
0.742457
0.026604
2.61864
0.023973
0.0863061
0.229007
3.3304
2.93995
0.0254653
0.02475
0.0255603
0.084808
0.0244011
0.0250351
0.30782
0.290842
2.74507
0.0383818
0.0331204
0.027848
0.0230437
0.776466
0.0245815
0.0467398
0.0245856
0.0232417
2.34047
0.0240158
0.0305513
2.81881
0.0243167
0.0261415
0.0260683
0.0423516
3.28335
0.0245865
0.033619
3.29289
0.024757
5.58995
0.0272797
0.0240385
0.0406121
0.0256191
0.0313083
0.0246746
0.0245756
0.0243716
0.0672561
0.228668
0.0320742
0.023864
0.29319
0.0232469
0.0230514
0.44112
0.0254373
0.0909774
0.0246047
0.0239772
0.0242739
0.225356
0.0233983
0.126696
3.25417
0.0240309
0.0244304
0.0262654
0.0272731
0.140477
0.0505203
0.0256429
0.0256551
0.0239588
0.0261262
0.0406656
0.0246985
2.66469
0.885558
0.0251328
0.04503
0.0247146
0.0252661
0.025411
0.0252487
0.0253018
0.025314
0.0245974
0.0229303
0.114645
0.0244558
0.0297599
0.0242145
0.0254677
0.0367874
0.04702
0.0409447
0.715408
0.0390248
0.0244666
0.0248188
0.0263994
0.0261429
2.93295
0.883326
1.19865
0.0299505
0.0245512
0.0257634
0.0248207
0.245595
3.48467
0.224106
2.54816
3.85404
0.0253533
0.382989
0.0243733
0.0409007
0.0291982
0.0243596
0.0317542
0.024598
0.113054
0.0533041
0.0244512
0.0248105
0.028656
0.14491
0.0332435
0.0246072
0.0261979
0.0249123
0.0276078
0.024744
0.0277313
0.0249916
0.109235
0.024683
0.0484159
3.50638
3.13703
0.1743
0.47271
0.0258487
2.96858
0.123362
3.44415
0.025039
0.124884
0.0235718
0.386704
0.46925
0.0280061
1.28131
0.0263253
0.0251415
0.114715
0.0251703
0.0284963
0.463506
0.0363443
0.0232092
2.76909
0.0560788
0.0263182
0.175563
3.44307
0.225209
0.0267799
0.0239079
0.0258943
0.0247097
0.187584
0.866137
0.0249013
0.0245152
2.35881
3.38847
0.023404
0.0241179
0.11378
1.41078
0.0294444
0.0232383
0.024149
0.0484547
0.0239238
0.0271021
0.0222418
0.0957414
2.7741
2.73246
0.107134
0.024306
0.0241912
0.0246095
0.022972
0.202837
0.0277364
0.0246186
0.220838
0.0494745
0.0259676
0.0280153
0.0270232
0.0252216
0.0382013
3.09537
0.310721
2.87732
3.28643
0.042913
0.0313403
0.0257449
0.0254311
0.0334047
0.218085
0.0570275
0.0241655
0.0263982
0.0238136
0.0253134
0.0241906
0.0248506
0.0240167
0.247341
0.0383707
0.0260431
0.0450621
0.0253308
0.0240571
0.0246862
0.126884
0.0462295
0.024462
0.281863
0.0274039
0.361135
0.025163
0.0248837
0.0609889
1.176
0.0237605
0.0307991
0.0244625
3.62426
0.132656
0.0323692
0.391743
0.847574
0.0239872
0.0234322
0.0303205
0.0360864
0.0252581
1.33026
0.0334934
0.0234362
0.0239684
0.191907
0.0339407
4.26972
0.0255
0.0345628
0.0447101
2.81325
2.64946
0.722807
0.0334651
0.0264852
0.0260028
0.0691723
0.0432889
0.284501
1.20975
0.0236435
0.0382638
0.0287205
0.0277864
0.0256486
0.0240919
0.0321635
0.0233194
0.0240982
0.0397962
0.0267183
0.0247865
0.449223
0.0357776
0.0364679
0.0330544
0.0252838
0.0256296
0.0236374
0.0380604
0.0281433
3.0789
0.163978
0.0234779
1.53758
2.02261
3.00006
0.0885656
0.0332205
0.336227
0.0442769
0.117306
0.0244532
0.0601748
0.0366843
0.024782
0.033235
0.169277
0.0308386
0.0247418
0.204505
0.028128
0.0236845
0.631376
3.34742
1.21688
0.219096
0.924322
0.0434373
0.0230252
0.0247615
0.0230366
0.0505089
0.0236987
0.0310849
0.149396
0.0394606
0.202715
0.233234
3.50081
3.02119
0.0676153
0.0330767
0.0334548
2.7465
0.0449542
0.0286272
0.0266616
0.0436703
0.0308201
0.0302148
0.0258915
3.03703
0.0596759
2.67053
0.0252709
2.72815
2.76051
1.29859
0.0257352
0.044161
3.33339
2.39208
0.356788
1.16157
0.023575
2.69037
0.319372
0.0397178
0.0248718
3.07672
0.038153
0.0356882
0.0339335
0.124607
0.0418695
0.0229224
0.0228996
0.08283
0.0395814
0.0771336
0.174995
0.0388806
0.126595
0.026604
0.0232462
0.0233856
0.0720212
0.0247662
0.0247524
3.48739
0.190186
1.56425
0.0246252
0.116017
2.44312
0.225413
0.118465
0.0252753
0.0242854
0.320824
0.0242845
0.0243567
0.0301977
0.0672746
3.74886
0.0469717
0.0235954
2.63416
0.0259967
0.0250343
0.0247295
0.0265856
0.0228228
0.024243
0.026069
0.0586022
0.025107
0.0967511
0.0232855
0.0232267
0.0438087
0.0338472
0.0663103
0.0286273
0.0250831
0.0253381
0.0233689
3.23751
0.0275657
0.0235442
0.0242473
1.28347
0.0255264
3.23186
0.0375564
0.024797
0.528042
0.0246319
0.0258975
0.0247823
0.02457
0.0249913
0.0325817
0.0291297
0.0244845
0.044461
0.0267657
0.0326483
0.0319672
0.0242274
0.158385
0.0755085
0.0280391
0.0234261
3.11975
0.0283467
0.0333819
0.0244804
0.0235918
0.520553
0.330942
0.146244
0.736851
0.0276493
0.0279741
0.024453
0.0248244
0.068316
0.0233981
0.0238385
0.0232153
0.0333599
0.0238596
0.0330719
0.140037
0.0353115
0.0235947
0.0557
0.0289121
0.0238542
0.0239991
0.0398987
0.023839
3.59738
0.0246483
0.0239144
0.0258991
0.0445937
0.0280072
0.0259462
0.0269472
0.121607
0.0253008
0.0272219
0.0570995
0.142
0.0265266
0.917641
0.0277428
0.0252722
0.0246229
0.0253517
0.0464877
0.0335492
0.0252385
0.0242731
0.0357817
2.72983
2.74539
0.0241015
0.105801
0.032871
0.0238402
0.0232993
0.0246745
0.0530451
0.143489
0.0246024
0.0242431
0.026299
2.98134
0.106888
0.0261419
0.0256131
0.486941
0.0448422
0.0278533
0.143973
0.029619
0.313547
0.0246839
2.19755
0.0248674
0.0233572
0.0232937
0.108419
0.103027
0.0249836
0.0262149
0.028225
0.0329796
0.0252226
0.433198
0.300884
0.0377922
0.0239031
0.0279844
0.024161
0.194261
0.0308192
3.65687
0.0261814
0.0280499
0.0277817
0.788076
0.0259798
0.0238303
1.32098
0.0233131
0.0243224
0.888486
0.0234998
0.0246643
0.0267224
0.153039
0.292349
0.190959
0.0463307
0.548234
0.0362032
0.907307
0.0933126
0.0246655
0.0227482
3.84076
0.144181
4.35206
0.024671
0.0453649
0.0351299
0.0236936
0.0359366
0.191459
0.0333422
0.075102
0.131805
0.0251673
0.0255878
0.0248844
0.0455159
0.023854
2.84007
0.0266547
0.0241176
0.220145
2.98123
0.0344311
0.0333269
0.0251571
0.0298288
0.0255329
0.137408
0.0244106
0.0464877
0.0978574
0.207212
0.0239754
0.240129
0.0311461
0.0312495
0.07233
0.0262953
0.0865993
0.0849804
0.0234904
0.0428789
0.0454858
0.0220937
0.0273405
0.0248941
0.365409
0.034475
0.0673865
1.93923
0.0302905
0.0273606
0.320421
0.0235749
0.312933
0.069628
0.156223
0.0240693
0.0235032
0.0236224
0.0247782
0.0248519
0.0244064
0.0240202
0.074893
0.045549
0.0251696
0.0936669
0.0244185
0.0235916
0.136026
0.0307567
0.0463749
0.0908344
0.0223691
0.0238835
0.0253225
0.0367634
3.40741
0.0243608
0.0275419
0.0241027
3.16372
0.0237023
0.0367194
0.0502993
0.084533
0.023815
0.0281758
0.023626
0.249411
0.104799
0.0321887
0.160395
0.36098
0.0247667
0.698769
0.0247207
0.0361727
0.0266986
0.482494
0.0817833
0.206482
0.024281
0.0235825
0.31647
0.0260132
0.143167
0.022332
0.744354
0.345954
0.0235689
0.0320099
0.0245521
0.507249
0.220232
0.0260919
2.60258
0.0279471
2.86271
0.0295673
0.152368
1.23091
0.0615469
0.0731699
0.025291
0.026465
0.0252954
0.0240996
0.024928
0.0283722
0.0472255
0.152914
0.0253843
0.105378
0.0235952
0.0258229
0.0251553
0.0318863
0.0242105
0.0252556
0.024512
2.71281
0.0669023
0.216159
0.0235957
0.0459852
0.0234416
0.022666
0.0239211
0.0436962
0.0743796
0.0476867
0.0234451
0.0242194
0.0263411
0.0246087
0.0298857
0.0239862
0.0763811
0.29338
0.0430946
0.0257923
0.296713
0.149006
0.189137
0.573828
0.0484583
0.0235714
0.0221762
0.05389
0.0241792
0.216995
0.0330362
0.922251
0.0252374
0.359578
0.251112
0.0250802
0.0305994
2.92502
0.0249815
0.34152
0.0469049
0.026863
0.928634
0.0238811
0.0244931
0.0231156
0.0364359
0.0643582
0.0245505
0.0248414
0.174513
3.44524
0.0248795
0.131696
3.10598
5.17948
0.115278
0.0242325
0.0339123
0.312201
0.0264386
0.126463
0.0679882
0.0280413
0.211562
0.0821721
2.45137
0.0245565
0.247893
0.0238384
0.352788
0.0248546
0.0237138
0.11363
0.0364033
0.036723
0.0235247
0.766446
0.0466647
2.35625
0.0237069
0.0250746
0.0453606
0.0419461
3.29704
3.81939
0.07669
4.56348
0.0261935
0.0317234
0.0237046
0.0562206
0.0665336
0.0252257
0.256452
0.0237038
0.0249949
2.96806
0.0230808
0.0654269
0.0233796
0.0234207
0.0569495
0.248092
0.028473
0.055442
0.438872
3.40785
0.0251117
0.0264685
0.0368103
0.0234236
0.0243014
0.0303312
0.0228976
0.0233433
0.0279989
0.0232934
0.0233053
0.0319654
0.0238826
0.139452
3.73481
0.0246252
0.0240081
0.0319608
0.024208
0.0248907
0.0523705
0.445801
0.025747
0.0239777
0.024083
0.0858794
0.0279744
0.0296516
0.0252143
0.0318767
0.0734643
1.50486
2.9744
0.0236599
0.148106
0.0231004
0.024224
2.73668
0.0238942
0.0268273
3.14318
0.190789
0.0997016
0.0238453
0.0238943
0.553584
0.364635
0.0504582
0.348785
0.0249704
0.0282718
0.0249418
0.0361686
0.236451
0.0300941
0.0258746
0.0246182
0.0259665
0.0243944
0.0392109
0.0252562
0.685358
3.55298
0.0236998
0.025722
0.0250671
0.0240293
0.034009
3.10559
0.0247935
0.0327034
0.0235233
0.0255286
0.0251299
0.0241077
0.0250762
0.0256784
0.0238384
0.0248077
3.71492
0.21101
0.0253095
0.0879627
0.0242619
0.0252694
0.0262819
0.0232222
0.0588475
0.0389272
0.0234582
0.0241097
0.0263161
0.0563939
0.0521576
0.0282451
0.025224
0.0242518
0.0390108
0.0246723
0.0416322
0.0272249
0.0494553
0.0267199
0.0246174
0.0391066
2.45354
0.0258631
0.0229785
0.026923
2.94499
0.592216
0.022184
0.0255735
0.0319922
0.0271873
0.0227973
3.02264
0.715672
0.0697747
0.0248791
0.0414932
0.0660098
0.023472
0.0232409
0.0488776
0.0724314
0.0263756
0.0252864
0.0235833
0.0249282
1.30325
0.023827
0.0299589
3.74974
0.0236428
0.0321578
0.0437665
3.46854
0.0562278
0.0342166
0.0235348
0.0251392
0.0248777
0.0267871
0.0233636
0.0244513
2.97592
0.0241288
0.0406537
0.023213
0.0438134
0.378814
0.16938
2.06776
3.16662
0.0422168
0.0232904
0.0233763
0.0258155
0.315253
0.0247419
0.912356
0.0227097
0.0317761
3.72485
0.0334055
0.0478414
0.0237673
0.0264964
0.0385273
0.0236493
0.0242575
0.0349769
0.0277764
0.0269918
0.0326286
2.64567
0.228435
0.0245325
0.03188
3.15372
0.279266
0.100703
0.111105
0.0474001
0.0275701
0.0347634
2.68696
0.0469589
3.06904
0.0314394
0.0238737
0.0729436
0.0261909
0.0245355
0.123924
0.229454
0.0346889
0.0300208
0.0379118
0.0308864
0.0691212
0.143901
0.0250763
0.713781
3.92873
0.236748
0.0415157
3.39521
0.138406
0.0242749
0.32951
0.0249923
0.339155
0.0231277
0.037335
0.0247442
0.0234438
0.0352652
0.245287
0.129209
0.103492
0.429967
0.0244067
0.0698674
0.0236599
0.375383
0.782428
0.0242954
0.0246258
0.0888534
0.65274
0.0320971
0.0245369
2.9311
0.0241226
0.0232066
0.0234736
1.4054
3.47504
0.0227059
0.0320457
0.0304727
0.0278214
0.0229918
0.213659
0.0227533
0.0349675
0.0302407
0.0245174
0.0743763
0.0238193
2.5261
0.0331727
0.0229609
0.0259053
0.0234773
0.0230896
0.0754679
0.0246904
0.109028
0.0237106
0.0245251
0.0681298
3.05452
2.48357
0.024099
0.0265851
0.0244403
2.70929
3.0967
2.98721
0.0242498
3.4068
0.0238633
0.024108
0.0268085
0.199385
0.32124
0.0254313
0.0320197
0.0244155
0.024392
0.0246032
0.0794335
0.056504
0.069509
0.0238217
0.0441912
0.0327515
0.0600173
0.0244264
0.0240528
1.89344
0.0622279
0.0250548
3.38581
0.0578802
0.079422
0.0229991
3.24341
0.794009
3.36149
0.0269932
0.0243664
0.0257768
0.0375
0.110842
3.39928
0.0473887
0.0234693
0.0245552
0.0981208
0.0309542
0.027369
0.0385866
0.187106
0.0701082
0.0289236
0.0241398
0.0253703
0.0270278
0.0241809
0.0652919
0.0345355
0.184572
0.0245742
0.356038
0.0669875
0.0239681
0.0233479
3.0613
0.0230321
0.133264
2.19839
0.0227678
0.0231429
0.0239309
2.71269
0.0231346
0.0263054
0.0241649
0.0661567
2.6608
0.0248163
0.0252757
0.0348892
2.79256
0.0280164
0.0324224
0.0247688
0.039053
0.0239656
3.60662
0.0234743
0.358099
0.0240421
0.0441652
0.0718821
0.244712
0.0247039
0.0262672
0.032933
0.0239597
2.95176
0.0240057
0.0241192
0.0607298
0.0230326
2.93945
0.134003
0.395904
0.0263379
0.0283633
0.0243058
0.070828
0.0439545
0.0246733
0.0269857
0.357918
2.69998
2.69237
0.044242
0.0320168
0.0660411
0.0316683
0.0251231
0.0437667
0.0250911
0.0228206
3.29172
3.47933
0.02441
0.0366421
0.025145
3.60338
3.59938
0.0244169
0.0239472
0.228118
0.023974
2.23121
0.924259
0.0271585
0.0431785
0.0262689
0.363159
0.0284533
3.84846
0.229484
0.0249083
0.0251903
0.0301247
2.64426
0.346677
0.0245923
2.78269
0.0263012
0.0226326
0.144662
0.0287843
0.486731
0.0241351
0.0245442
0.024804
0.0956167
0.022674
0.0259391
0.056867
0.0252674
2.75663
0.0456176
0.0250961
0.0875013
0.0252951
0.177405
0.61158
0.0260395
0.249825
0.0252934
0.354383
0.0247448
0.0256069
0.0341552
2.46666
0.0243782
0.0247373
0.0259213
0.0993374
2.85198
0.0220978
0.0341706
0.0457007
0.0244012
0.0229344
0.0245736
0.0403569
2.87273
0.0354941
2.93996
3.15745
0.189464
0.0380301
0.0236191
0.0272379
0.0242208
0.0357013
3.60042
0.149015
0.0275293
0.0416268
0.0931986
0.0336166
0.0248875
2.73302
0.0239494
0.0995482
0.50927
0.249381
0.0229804
0.0276465
0.0254159
0.0230302
0.0314693
0.0687944
0.113564
0.0283387
0.0272803
0.0245733
0.0230956
0.0243571
0.0369697
0.0253696
0.0493327
0.0239342
0.0226487
0.0236019
0.101213
0.0238487
0.0237569
2.15192
0.0230745
0.0260976
0.0288528
2.43336
0.0227709
0.0255713
3.2144
0.0257794
3.29632
4.03073
0.0248478
0.130208
0.288465
0.0248024
0.0357282
0.0244991
0.0236384
2.79562
0.0233479
0.117237
0.0244324
0.10866
0.0230639
0.0738375
0.0310033
0.747943
2.68493
0.252607
0.0239951
0.03113
0.147715
0.0242439
0.023847
3.1156
1.4454
0.0648991
0.147555
0.0263049
2.97291
0.0242509
0.0242304
0.0227679
2.6951
0.0244723
0.024395
0.149714
0.0321684
0.028387
3.33792
0.0495241
0.0281377
0.129987
0.0244596
0.0247901
0.0430834
0.0279655
0.0416735
0.0276685
3.14817
0.203108
0.024218
0.0941999
0.0228532
0.0247043
2.87789
0.0243339
2.99187
0.0251056
0.196756
0.0259511
0.141304
0.0311603
0.0235091
3.51422
0.12714
0.068055
0.337623
0.0382735
0.0256909
0.0246822
2.85996
0.0483396
0.0245819
0.0692338
0.0243103
0.0233558
0.0258932
3.50475
0.0255041
0.0227215
0.0328046
0.0227212
0.0251113
2.76313
0.0651196
0.086848
0.022888
0.0243155
3.91782
0.0279389
2.81955
0.0227261
0.0246181
0.168824
0.0573005
0.0230484
0.067311
0.0234439
0.0248878
0.0256415
0.0259669
0.125959
0.0242027
0.0657372
0.0336784
0.0264484
0.0226847
0.0305677
0.0950365
0.0328905
0.0400735
0.0235229
0.0373061
0.244647
0.0237486
0.0691353
0.0241265
0.0463247
0.0227936
0.0342166
0.0221027
3.45627
0.239061
0.0245525
0.0407306
0.0443061
2.61404
0.0917302
0.19329
0.24503
0.023995
0.02748
0.0236285
0.0231216
0.0334378
2.2152
0.039188
0.0229388
0.0278529
0.319316
1.54437
0.320484
3.23153
0.427302
0.0233094
0.0247891
0.030243
0.0244985
0.0245752
0.195461
2.26573
0.0247156
0.0285162
1.05797
0.104856
0.0245438
2.91719
0.0425395
0.0245436
0.0571642
2.98916
0.258252
0.151549
0.0255789
0.331188
0.0239804
0.919875
0.0566904
0.0245738
0.0455545
0.102852
0.134476
0.024879
0.0251431
0.0269997
0.430398
0.0678357
0.0324862
0.0401798
0.040331
3.53105
0.0361507
0.0268276
0.106851
0.0796806
0.123155
0.123296
0.0239471
0.0233828
0.0273493
0.0567856
0.144478
1.41536
0.0764224
0.0265225
0.0474199
0.16663
2.62595
0.080618
0.0252022
0.0537171
0.0256491
0.0294337
0.0259607
2.68161
2.07548
1.9237
0.0247703
3.19127
0.175416
0.0239716
0.109549
0.0245613
0.155967
0.0318989
0.0239247
0.0285034
0.0235891
3.45001
4.94304
2.0815
0.0243774
3.03458
0.0271361
0.0287576
0.0252711
0.0238738
0.031753
0.0808629
0.0270059
0.0463243
0.0267188
0.030873
0.0363455
3.07055
2.30013
0.294442
0.0244449
0.022984
0.136188
0.0237431
0.0227565
3.52608
0.0256351
3.42833
0.218024
0.188069
0.0230522
0.0253148
3.0721
0.0250965
0.0265659
0.0267744
0.025341
0.0288499
0.0570414
0.133362
0.0236284
0.0231332
0.0227891
0.0452566
0.029655
0.247058
0.297693
0.0448732
0.0243167
3.23197
0.0247184
0.0239056
0.0233142
0.0311466
0.0245918
0.0290556
0.0379971
0.32583
0.238727
0.532398
0.162163
0.139386
0.0250445
0.0273736
0.286598
0.0247254
1.85606
2.93324
2.64754
0.264473
0.0240916
0.0309939
0.178714
0.0255456