/*--------------------------------*- C++ -*----------------------------------*\
| =========                 |                                                 |
| \\      /  F ield         | OpenFOAM: The Open Source CFD Toolbox           |
|  \\    /   O peration     | Version:  v2012                                 |
|   \\  /    A nd           | Website:  www.openfoam.com                      |
|    \\/     M anipulation  |                                                 |
\*---------------------------------------------------------------------------*/
FoamFile
{
    version     2.0;
    format      ascii;
    class       volScalarField;
    location    "300";
    object      omega;
}
// * * * * * * * * * * * * * * * * * * * * * * * * * * * * * * * * * * * * * //

dimensions      [0 0 -1 0 0 0 0];


internalField   nonuniform List<scalar> 
27802
(
0.0668685
0.0239421
0.0254717
0.0255081
3.19513
0.0245483
0.0260342
0.024807
0.0577975
0.0252145
0.0237735
3.37443
3.21082
0.0649587
0.0242678
0.0260271
0.022088
3.39402
1.87316
0.0533094
0.0238228
0.0247308
0.069294
0.109364
0.0233514
0.0248908
0.0244359
0.0251869
0.0233458
1.84319
0.024614
0.0272346
3.32744
0.0488838
3.4483
0.0243791
0.0597235
0.476231
0.0246054
0.0244204
0.0248678
0.024426
3.42861
0.0532145
0.0235628
0.0242415
0.193112
0.0246872
0.0232158
0.0383101
0.0274954
0.0235634
0.285856
0.0236586
0.0242544
0.0245171
6.29285
0.0612689
0.0246415
4.53938
0.02438
0.0246179
0.280323
0.026902
3.40484
0.0847891
3.07227
0.02534
3.03283
0.0268835
0.0240107
0.138139
1.30786
0.135196
0.279684
0.0276462
0.434172
3.22766
0.0376427
0.0259623
3.18982
0.0468451
0.0232444
0.0606736
0.0243223
0.0261074
0.0233234
0.0242494
0.138995
0.227183
3.49906
0.0245822
0.0670417
0.0259497
0.0234978
0.0246921
0.0300811
3.19387
0.0248677
0.18266
0.0464124
0.0248836
0.0259959
0.0258783
0.235875
0.0245813
0.0411714
0.0593601
0.024383
0.0382238
0.0262577
0.0242568
0.0248839
0.069449
0.0232848
0.103513
0.0286692
0.0238924
0.0281124
0.0522879
3.23382
3.52517
0.0377394
0.02334
0.0244627
0.0280885
0.193823
0.0430994
3.17575
3.21056
0.0259965
0.0373193
0.0250881
0.0251019
0.0232431
0.0251308
0.0250353
0.023345
0.0465658
0.0758595
0.0252235
0.0244613
0.0280895
0.0232472
0.0232774
0.025516
0.0250229
0.0253037
0.0235999
0.024979
0.0238145
0.024674
0.0263738
0.0254056
0.0499022
0.0241919
0.0514827
0.178208
0.0380596
0.122142
0.186765
0.139479
0.0260848
0.0280436
0.0221105
0.0230593
0.0239102
0.0245508
0.0246126
0.0552417
0.025853
0.0285606
0.0242035
1.83428
0.0246162
3.40918
0.0230435
0.0302261
0.0235273
0.0614801
0.109195
0.0347468
0.0323624
0.0254566
0.0241985
0.056998
0.0241875
0.0249149
0.153246
1.70317
0.023873
0.0267421
0.0659137
0.0255754
0.0228573
0.0244295
0.0228541
0.0234535
0.0243142
0.0244573
3.86276
1.11109
0.222824
0.0277264
0.0243794
0.0373508
0.0262474
0.746132
0.0224864
4.15994
0.0244176
1.55027
3.41017
0.0300653
0.158201
0.0242077
0.230117
0.0259519
0.0247124
0.0241597
3.19685
0.0221626
0.0560977
0.128355
0.0241874
0.0233159
0.0232724
0.0267232
0.024244
0.0248954
0.0221613
5.6771
0.0246959
0.0335132
1.88602
0.0785108
0.0246478
0.294044
3.3893
0.0267179
0.024484
1.2505
1.36374
0.0247225
0.0263178
3.25154
0.0234266
0.220884
0.0257812
0.0253712
0.238247
0.0338016
0.0659954
0.0245346
0.0263834
0.0228648
0.0242407
0.0495873
0.0277086
0.0228456
0.0338674
0.0248114
3.03802
0.0224616
3.68061
0.0301879
3.84971
0.0248978
0.0221574
0.0246223
0.182918
0.0241182
0.0741655
0.0535098
0.0255365
0.230734
0.0251397
0.0379956
0.0299922
0.0242055
1.14243
0.0336684
0.0258333
0.0397805
0.213779
0.766475
0.0489603
0.0247958
0.0278723
0.0239096
0.0222237
0.0450188
0.0228924
1.18686
0.0228839
0.0374444
0.105766
0.024359
3.71077
0.360797
0.0855087
0.0253805
0.0277433
0.118776
1.87503
0.0474444
0.0247939
3.64817
0.031289
0.0251865
0.0312712
0.0560338
0.0704979
0.0251317
0.0313755
0.024414
0.0315393
0.0658422
0.0379542
0.0670881
0.0248479
0.024388
0.02224
0.0235733
0.156955
0.0249206
3.06102
0.02491
0.0243837
0.0324563
0.0250987
2.89405
0.27153
0.112771
0.126432
1.70865
0.071034
0.0240445
0.0703451
0.0240977
0.0221289
3.43142
2.86557
0.0400032
0.134565
0.102017
0.19425
0.308545
0.0257748
0.334452
0.0230052
3.25621
0.0244728
0.0250783
0.0247965
0.0251193
0.265063
0.395518
0.024077
0.0236234
0.0415059
0.696938
0.0236888
0.0378552
0.0228455
0.0248146
0.275717
0.0247777
0.0334858
0.0242159
0.0240199
0.19665
0.0384086
0.11253
0.428892
3.83162
0.0386819
0.0261945
0.0309378
0.0242626
0.0249096
0.0228553
0.0247417
0.0237358
0.0237591
0.0246785
0.226931
0.0268671
0.0405103
0.0311413
0.023955
0.0244754
0.0309158
0.0381843
0.0242817
2.92873
0.0637278
0.0695471
0.0241941
0.0666701
3.41133
0.0384129
0.0239171
0.0510082
0.024621
0.307726
0.0340824
0.19335
0.860469
0.0355332
4.217
0.0253691
3.21879
3.12005
0.252088
0.0247096
0.0236289
0.0328978
0.0232394
0.282527
3.43177
0.0256622
0.0272064
0.0248935
0.185827
0.0253071
0.0264755
3.22691
0.0467479
0.027348
0.0240883
0.0335413
0.245182
0.0242231
0.0250977
0.0243195
0.0857384
0.0574045
0.0553632
0.0324782
0.0489424
0.0275393
0.0238087
0.0240583
0.070554
0.0244336
0.0234075
0.0262497
0.0701808
0.0427556
1.12931
3.03111
0.250723
3.09037
0.0228992
0.0402812
0.0329825
0.107853
0.428056
0.0242101
0.0370202
0.0388104
0.0453932
0.0490829
0.0221217
0.0264385
0.0380239
0.0244272
0.0412385
0.023401
0.0296106
0.0241705
0.0246722
0.140772
0.0636055
0.662951
0.0251561
5.42538
0.0221489
0.0275194
0.102884
0.0274917
0.0269414
0.0670417
0.0707465
0.290366
0.0259726
0.0251517
0.104924
0.0242163
0.024382
0.264247
0.0244397
3.66554
0.0250914
3.46756
0.270717
0.264551
0.024232
0.0505599
3.14931
0.0378828
0.483466
0.126552
0.271015
0.25986
0.0259961
0.0335471
0.0717146
0.025039
0.0245473
1.39473
0.0399341
0.0238858
0.0241234
0.192063
0.277862
0.0464435
0.0241947
0.0422819
0.0264496
0.485726
0.0247805
0.0310766
0.110449
0.0241253
0.0228706
0.025088
1.68357
3.45559
0.0463582
1.29242
0.0234719
0.024965
3.49937
0.0242702
0.0412002
0.0242202
0.0228804
0.0572753
1.25257
0.0239151
0.025161
0.0234756
0.0705249
0.0241025
0.0302488
1.52425
0.0483752
0.0711265
2.7129
0.090935
1.69759
2.72441
0.0246026
3.42592
0.0251512
0.0415267
0.0263551
0.0248933
0.0245862
0.546778
0.0244711
0.02423
0.0233191
0.360191
0.0263489
0.0254363
0.0697162
0.220705
0.244117
3.39208
3.04524
0.0381276
0.115481
0.030062
3.83263
0.0247255
0.0568841
0.360191
0.143656
3.47525
0.0320457
0.0255253
2.94172
0.0459069
0.0229728
2.9036
0.0833193
0.224873
0.0554117
0.0866701
0.0229796
0.0257142
0.0455177
0.024151
0.0398196
0.131788
0.022907
0.0259247
0.0235284
0.162052
0.0353723
0.0255256
0.71668
3.24254
0.0273735
0.0299823
0.0244762
3.24725
0.853875
0.839523
0.0502428
0.0577079
0.257202
0.0242784
0.138261
0.0258094
3.56697
3.4079
0.0235155
0.0365344
0.813805
0.236389
0.0254131
2.86435
0.0324666
2.73312
0.0325584
0.0256523
0.347219
2.66823
0.0826016
0.0243412
0.0428168
0.0289223
0.0465794
0.026029
3.14862
0.0243445
0.0245767
0.0278771
0.0338216
3.85034
0.13851
0.0270454
2.68906
0.0371682
2.90769
0.0243215
0.0310613
0.0707709
0.0956854
2.94501
0.0276004
0.278355
0.0262555
0.0230857
0.0253594
0.02471
0.0246243
0.0359277
0.234808
0.17036
0.0247589
0.0454626
0.0263608
0.027815
0.128374
0.0230688
0.0251769
0.165887
0.157875
0.0278314
0.0240542
0.0257319
0.0251857
0.0311145
0.0251865
0.326914
0.438987
0.0269617
0.0774448
0.0539401
2.75677
2.88463
0.0712485
0.0241748
0.0451717
0.0242493
0.0449027
0.0251241
0.151488
0.0466206
3.26183
0.0230102
0.0245105
0.155104
0.0262242
0.0233445
0.0273788
0.0985495
0.0242282
0.0581549
0.0246021
0.283199
0.0238377
0.0282289
0.0907064
0.0325445
0.0290788
1.08206
0.0515631
0.0377105
0.0713144
0.0265604
3.86642
2.6756
0.138026
0.0380597
2.70082
0.0238421
0.0263741
0.0275609
3.09094
0.0562638
0.0271805
0.0269185
0.12291
3.58238
1.19758
3.33972
0.0312631
0.0697501
2.91813
0.0252929
0.0521625
1.26265
0.0367313
0.0229779
0.0462026
0.0243186
0.246197
0.0221835
0.0564796
3.39642
0.0257592
0.0245081
0.168434
3.36099
0.037441
0.0296683
0.0229586
0.0270534
0.0300505
0.058837
0.0425624
0.301521
0.0485445
0.0253797
0.0262806
0.0587165
0.276829
1.82276
0.0236792
2.50396
2.88916
0.0271663
0.0253303
0.0239385
0.025179
3.20717
0.0239299
0.0290236
0.0263883
1.19864
3.63856
0.025022
0.0245155
0.0287183
1.82922
0.0220938
0.0286611
0.0453411
0.0266402
0.0239845
2.68121
0.0281047
0.363345
0.0259791
0.0249089
0.0303098
0.0279785
2.81074
0.0299769
2.7674
0.169454
0.0386155
0.172333
0.447755
0.035562
0.027637
0.0297021
0.0237065
0.0275767
0.0671638
0.0300349
0.0760577
0.235354
0.289539
0.0234041
2.09672
0.298511
0.315733
0.0760258
0.116236
0.0282968
0.304537
0.0397668
0.023023
0.0235437
0.0241705
0.0244856
1.50754
0.023716
0.0249266
3.77288
0.304974
3.62027
0.0243458
0.0330019
0.0252836
0.0254694
0.0541256
0.0244215
0.236439
0.0274797
0.0415994
0.0233857
0.0233716
0.161164
0.0276683
0.33072
0.025467
0.0222029
1.0248
0.023979
0.0242215
3.37735
0.0977053
0.0713604
0.035499
0.025122
0.0234372
0.0254279
0.0251328
0.184426
0.0840124
1.0837
0.0259151
0.0464311
0.0407101
0.0249174
0.0288793
3.63851
0.031334
0.0249628
0.030066
0.0236787
0.023033
3.24934
0.056902
0.0239504
0.0244782
0.0373674
0.0693527
0.029876
2.78238
0.0254301
0.0268479
0.853852
0.0247591
0.0253459
0.0247498
0.0434488
0.0718447
0.0249298
0.15447
0.0262239
1.87587
0.0255282
0.0242216
0.732215
0.0240705
0.0245173
0.0235548
0.024324
0.0243401
3.17958
0.0251324
0.219989
0.0240188
0.0273688
0.0235139
0.0236313
0.0236472
0.0243755
0.029965
0.512932
0.0385495
0.0466866
0.0239678
2.59361
0.0377819
0.0394438
0.0250757
0.0239961
0.0231086
0.0280065
0.0244512
0.236321
0.0222504
0.025344
0.0277689
3.93384
0.0241087
0.0352837
0.0234182
0.0221745
0.0522207
0.303549
2.96216
0.0240672
0.0236626
0.0683135
0.0238718
2.74034
0.0975889
0.0463098
2.68398
0.0221545
0.2497
0.0251014
0.0483032
0.0467032
0.138134
0.0233415
0.0378044
2.7022
0.0241174
0.0261346
0.0261742
0.284108
0.0512944
0.0451404
0.0245993
0.0236341
0.035128
0.0661264
2.37229
0.033706
0.0709002
0.0238902
0.0256897
0.023578
0.264846
0.0229771
0.0224232
0.0246273
0.0322595
0.0583449
0.0234254
0.0311722
0.0229622
0.0237633
0.172818
0.0271444
0.0397108
0.02486
0.0847641
0.0353783
0.0236394
3.04455
0.0252376
0.0462781
0.0231178
3.58837
0.0353058
0.0252761
0.0221631
0.0331477
0.0223716
0.222118
0.327887
0.0240927
0.0254159
3.47663
2.7204
0.024622
2.65079
3.63512
0.100179
0.024069
0.0633807
5.03737
3.53479
0.0247737
0.50993
0.0222233
0.0243248
0.0242792
0.0242549
0.0272659
0.0237044
0.0301662
0.141781
0.293319
0.29457
0.142399
0.0251154
0.048451
0.0568115
0.0233169
0.0235379
2.89508
0.0806193
0.0243532
0.683228
0.0249628
1.85834
1.36778
0.0237139
0.27386
0.0224027
0.0260483
2.94644
0.0585693
0.0240765
0.0249822
0.0232821
0.0267678
0.0247561
0.0242526
2.5687
1.25001
0.0302387
0.0857476
0.024983
0.0248313
3.05692
3.21285
0.0252792
0.0803493
0.0437669
0.366511
0.194419
0.0237417
0.0243013
3.55975
0.0466611
0.0245786
0.0426607
0.134133
3.34647
2.44563
0.0279456
0.0246581
0.265265
0.0242336
0.0294826
0.0330219
0.0410698
2.66836
0.023807
0.0249849
0.024028
0.0247518
0.0790255
0.0242207
0.0240994
3.77357
4.29663
0.0484417
0.0725391
0.0250742
0.0251392
3.19186
3.5745
0.0269029
0.0339324
0.0254999
3.37881
0.0819755
0.0563204
0.0384242
0.0380772
0.0239108
0.0245994
0.0242942
0.0245339
0.0239506
0.0641429
0.0303899
0.0271204
3.03966
0.0444562
0.0361443
3.08044
0.024648
0.924351
0.0830641
1.45287
0.026225
0.850438
0.033404
0.0229862
0.0429045
0.0244361
0.0240683
0.0598998
0.023832
0.193985
0.0254169
0.0259875
0.0249867
0.0384988
0.0253528
0.0243352
0.0237039
0.0241072
0.0254062
0.0342574
1.16585
0.0236126
2.92269
0.0271886
2.94441
0.0258161
0.0308071
0.640724
0.0237129
0.023432
3.13173
0.0237048
0.0376446
0.0250441
0.29196
0.216701
3.10455
3.14806
0.0253468
0.0273362
0.240391
0.024153
0.0398409
0.0255173
0.0243892
0.0815517
2.6686
0.735533
0.0727221
0.068923
0.0253012
2.11968
3.1647
0.0711818
0.0470983
2.73811
0.737061
0.0302263
0.194588
0.360955
0.0263814
0.0361649
0.0795395
0.0274329
0.0249676
0.0296441
0.209867
0.0256649
0.274969
0.193932
0.0253158
0.0232106
0.298562
0.36106
0.0237677
0.0282361
0.0256052
0.215783
3.22896
0.0628204
0.0252524
0.0237962
0.0252454
0.0330208
0.0957357
0.0300115
0.0264991
1.1681
0.0245772
0.0276844
0.10188
0.0239166
0.0258906
0.0376567
0.0233868
0.0857854
3.29417
0.0300782
1.19119
0.0391323
0.0520182
0.024868
0.0331205
0.0556552
0.024482
4.20392
3.27358
0.0726974
0.023692
1.15732
0.24525
0.0557432
0.0806941
0.0222284
0.298107
0.0249255
3.64102
2.64718
0.0250288
0.0250269
0.0234094
0.0336462
0.0258558
0.0258841
0.0239076
0.0234234
0.0342586
0.0234077
0.0314829
0.119039
0.103712
2.90807
0.0250071
0.0347715
0.0334575
0.0266403
0.137039
0.0238756
0.0303291
0.0254782
0.023402
0.0239744
2.98476
0.0466595
0.0242838
0.0255566
0.0887482
0.0465852
0.33608
0.0277206
0.0233007
0.0297783
0.23599
0.340675
0.023691
0.274987
0.0269822
0.0236164
0.0237066
0.294715
0.02357
0.0250973
0.0263417
0.0282535
0.0299159
2.74988
0.0380931
0.0241852
0.0668645
0.0246582
3.11022
0.233231
0.0242769
0.0236874
2.41634
3.66642
3.13681
0.111073
0.278968
0.0828766
0.0289155
0.0242641
0.0234041
0.30631
0.0306771
0.0315853
0.248283
0.0720414
0.024446
0.0333269
0.024644
0.110494
0.0237128
0.0231979
0.023219
0.0479483
0.0249405
0.0247573
0.141135
0.055114
0.0263823
1.63049
0.0248128
1.70553
0.0375993
0.0243536
0.0309513
3.79981
0.220101
0.0252589
0.0255414
0.0720182
0.0257646
0.0251242
0.102285
0.111795
0.0232481
0.0233738
0.144993
2.89175
0.0232826
0.026705
0.0573428
0.025435
0.0232014
0.260732
1.69541
0.0246147
0.0360908
3.49853
0.111807
0.02223
0.0644724
0.0272222
0.0240131
0.0256687
2.9757
0.0299278
3.28442
0.0243879
0.0232985
2.42526
0.0243145
0.0245435
0.0257246
0.110855
0.0360752
0.0274038
0.0244118
0.0233015
0.0233726
0.117137
3.81562
0.0433416
0.0327973
0.0383014
0.0243628
0.0571505
0.284008
0.0570518
0.0222039
0.0381942
0.216
0.0469592
0.0258277
0.0335563
3.56868
0.0234958
0.0222489
0.598674
0.0241819
2.84146
0.0244476
0.861177
0.0297101
0.0724033
0.02827
0.0830649
0.0239569
0.0235422
0.043558
0.0235954
0.323055
0.0258059
0.0223488
0.0240993
2.38986
1.42223
2.81167
0.0235117
1.8211
0.023595
0.218525
0.109839
0.0660055
4.8158
0.0553626
0.0248623
0.032794
3.31354
0.0234392
0.0306308
0.0256873
0.0244468
0.0238487
0.254332
0.234386
0.0429612
0.024049
0.0247029
0.0563697
0.0565668
0.024382
0.0256497
0.0234099
0.0301654
0.0245493
0.0473408
3.88437
0.0222545
0.0257477
0.0383671
0.0235243
0.025303
0.374833
3.15013
0.0262799
0.0235852
0.348957
0.0298969
0.0282576
0.024627
1.64602
0.030088
2.64032
0.0407657
3.41018
2.98272
0.19696
0.0284036
0.0436549
0.205579
0.0239952
0.0238198
0.145054
0.0235803
0.0419568
0.742031
0.0266041
2.61872
0.023973
0.0843226
0.229029
3.33066
2.93954
0.0254653
0.0247499
0.0255602
0.0848049
0.0244011
0.0250351
0.307686
0.293685
2.74507
0.0383834
0.0331241
0.0278482
0.0230437
0.771654
0.0245816
0.0467964
0.0245856
0.0232417
2.34437
0.0240159
0.0305513
2.81977
0.0243167
0.0261414
0.0260685
0.042369
3.28368
0.0245865
0.033619
3.29247
0.024757
5.59013
0.0272796
0.0240385
0.0406306
0.0256195
0.0313086
0.0246746
0.0245755
0.0243716
0.0672576
0.22868
0.0320764
0.023864
0.292957
0.0232469
0.0230514
0.440706
0.0254378
0.0909428
0.0246065
0.0239772
0.0242739
0.225386
0.0233983
0.127719
3.25387
0.0240309
0.0244305
0.0262652
0.0272688
0.140477
0.05052
0.0256429
0.025655
0.0239588
0.0261285
0.040665
0.0247004
2.66422
0.885094
0.0251328
0.0450304
0.0247146
0.0252661
0.025411
0.0252487
0.0253018
0.025314
0.0245974
0.0229303
0.115512
0.0244558
0.0297581
0.0242145
0.0254677
0.0367935
0.0470207
0.0410997
0.714763
0.0390241
0.0244666
0.0248188
0.0263994
0.026143
2.93261
0.882103
1.204
0.0299497
0.0245512
0.0257634
0.0248207
0.236783
3.48462
0.224117
2.55201
3.85382
0.0253533
0.383165
0.0243733
0.0409008
0.0291983
0.0243596
0.0317548
0.0245979
0.11305
0.0536998
0.0244512
0.0248105
0.0286553
0.144909
0.0332432
0.0246072
0.0262013
0.0249123
0.0276077
0.024744
0.027724
0.0249916
0.109231
0.024683
0.0484152
3.50609
3.13671
0.17455
0.475912
0.0258486
2.9682
0.1237
3.4441
0.025039
0.1249
0.0235719
0.38922
0.468349
0.0280062
1.28091
0.0263282
0.0251415
0.114714
0.0251704
0.0284965
0.463346
0.0363442
0.0232092
2.76905
0.0560788
0.0263182
0.175555
3.44266
0.225229
0.0267798
0.0239079
0.0258943
0.0247097
0.187568
0.863531
0.0249013
0.0245152
2.35983
3.38824
0.023404
0.0241179
0.113778
1.41061
0.0294443
0.0232382
0.024149
0.048454
0.0239238
0.0271021
0.0222419
0.0957395
2.77414
2.7326
0.107132
0.024306
0.0241912
0.0246095
0.022972
0.202851
0.0277357
0.0246186
0.22085
0.049473
0.0259676
0.0280153
0.0270233
0.0252216
0.0382011
3.0951
0.313821
2.87729
3.28632
0.0429168
0.0313402
0.0257449
0.0254311
0.0334048
0.21811
0.0570253
0.0241655
0.0263983
0.0238136
0.0253133
0.0241906
0.0248506
0.0240167
0.247529
0.0383704
0.0260431
0.0450625
0.0253309
0.0240571
0.0246862
0.126878
0.0462284
0.024462
0.281662
0.0273967
0.360949
0.025163
0.0248837
0.0609896
1.17607
0.0237605
0.0307989
0.0244624
3.62407
0.132676
0.0323722
0.38646
0.84732
0.0239872
0.0234322
0.0303205
0.0360863
0.025258
1.33046
0.0334931
0.0234362
0.0239684
0.189413
0.0339415
4.27082
0.0255002
0.0345628
0.0447091
2.81349
2.65012
0.723763
0.0334652
0.0264853
0.0260028
0.0691717
0.0432891
0.284649
1.21416
0.0236435
0.0382723
0.0287208
0.0277855
0.0256486
0.0240919
0.0321635
0.0233194
0.0240982
0.0397962
0.0267183
0.0247865
0.448295
0.0357737
0.0364767
0.0330544
0.0252838
0.0256297
0.0236374
0.0380598
0.0281432
3.07863
0.164046
0.0234779
1.54103
2.02261
2.99986
0.0890529
0.0332206
0.336915
0.0442818
0.117578
0.0244533
0.0601695
0.0366817
0.024782
0.0332347
0.169356
0.0308406
0.0247418
0.204517
0.0281282
0.0236845
0.635791
3.34698
1.21627
0.219345
0.923954
0.0434364
0.0230252
0.0247615
0.0230366
0.0505162
0.0236987
0.0310849
0.149396
0.039466
0.201691
0.233245
3.50086
3.02138
0.0676128
0.0330767
0.0334557
2.74652
0.0449543
0.0286273
0.0266616
0.0436718
0.0308201
0.0302174
0.0258917
3.03681
0.0596763
2.66997
0.0252709
2.72813
2.76074
1.30267
0.0257353
0.0441605
3.33295
2.393
0.356843
1.16332
0.023575
2.69074
0.317555
0.039718
0.0248718
3.07644
0.0381527
0.0356882
0.0339347
0.125298
0.0418695
0.0229224
0.0228996
0.0828273
0.0395813
0.0771319
0.175098
0.0388802
0.126591
0.0266043
0.0232462
0.0233856
0.072302
0.0247662
0.0247524
3.48736
0.190193
1.56755
0.0246252
0.115973
2.44371
0.225425
0.119412
0.0252753
0.0242854
0.320795
0.0242845
0.0243567
0.0302022
0.0672044
3.7487
0.0469719
0.0235954
2.63502
0.0259967
0.0250343
0.0247295
0.0265856
0.0228228
0.024243
0.026069
0.0586026
0.025107
0.0967493
0.0232855
0.0232267
0.043809
0.0338473
0.0663097
0.0286274
0.0250831
0.0253381
0.0233689
3.23712
0.0275657
0.0235442
0.0242473
1.28556
0.0255264
3.23148
0.0375562
0.024797
0.52709
0.024632
0.0258975
0.0247823
0.02457
0.0249913
0.0325815
0.02913
0.0244845
0.044468
0.0267652
0.0326464
0.0319657
0.0242274
0.158384
0.0755066
0.0280382
0.0234261
3.11944
0.0283467
0.0333819
0.0244804
0.0235918
0.519727
0.330872
0.146265
0.737363
0.0276441
0.0279736
0.024453
0.0248243
0.0683151
0.0233981
0.0238385
0.0232153
0.0333596
0.0238596
0.0330718
0.141098
0.0353115
0.0235947
0.0556969
0.0289127
0.0238542
0.0239991
0.0398987
0.023839
3.59731
0.0246483
0.0239144
0.0258991
0.0445997
0.0280073
0.0259462
0.0269474
0.121604
0.0253009
0.0272218
0.0570936
0.141351
0.0265266
0.919139
0.0277427
0.0252723
0.0246229
0.0253516
0.0464883
0.0335488
0.0252385
0.0242731
0.0357812
2.72995
2.74544
0.0241015
0.105798
0.0328754
0.0238401
0.0232993
0.0246745
0.0530557
0.144025
0.0246024
0.0242431
0.026299
2.98148
0.106886
0.0261419
0.025613
0.48595
0.0448425
0.0278534
0.143965
0.0296232
0.313406
0.0246838
2.2006
0.0248674
0.0233573
0.0232937
0.108417
0.103382
0.0249836
0.0262149
0.0282252
0.0329818
0.0252225
0.432282
0.300991
0.037792
0.0239031
0.0279874
0.024161
0.192611
0.0308171
3.65648
0.0261814
0.0280498
0.0277816
0.791168
0.0259811
0.0238303
1.32083
0.0233131
0.0243224
0.887682
0.0234998
0.0246666
0.0267074
0.154058
0.292546
0.190866
0.0463303
0.547521
0.0361988
0.905824
0.093311
0.0246679
0.0227482
3.84053
0.144181
4.35218
0.024671
0.0453652
0.0351299
0.0236936
0.0359413
0.189957
0.0333419
0.0751038
0.129965
0.0251674
0.0255878
0.0248844
0.045521
0.023854
2.84009
0.0266548
0.0241176
0.220117
2.98115
0.0344022
0.0333269
0.0251571
0.0298289
0.0255329
0.13308
0.0244106
0.0464878
0.0978007
0.207229
0.0239754
0.240142
0.0311464
0.0312537
0.0723276
0.0262952
0.0866441
0.0849783
0.0234904
0.0428788
0.0454847
0.0220937
0.0273421
0.0248941
0.365413
0.0344813
0.067388
1.94012
0.0302908
0.0273599
0.320356
0.0235756
0.308007
0.0696254
0.155826
0.0240693
0.0235032
0.0236224
0.0247781
0.0248519
0.0244064
0.0240202
0.0748939
0.0455542
0.0251696
0.0936651
0.0244185
0.0235916
0.136024
0.030766
0.0463746
0.0908745
0.0223691
0.0238835
0.0253225
0.0367621
3.40696
0.0243608
0.0275419
0.0241027
3.1638
0.0237024
0.0367193
0.0502966
0.0845296
0.023815
0.0281758
0.023626
0.250608
0.104797
0.0321984
0.160449
0.360944
0.0247666
0.698225
0.0247207
0.0361787
0.0266987
0.472955
0.082236
0.206463
0.024281
0.0235825
0.316638
0.0260132
0.143168
0.022332
0.751531
0.345708
0.0235689
0.0320111
0.0245521
0.511027
0.221437
0.026092
2.60274
0.027947
2.86271
0.0295674
0.152365
1.23429
0.0615412
0.0731705
0.025291
0.0264644
0.0252954
0.0240996
0.024928
0.0283724
0.0472258
0.152905
0.0253843
0.105377
0.0235952
0.0258229
0.0251554
0.0318862
0.0242105
0.0252556
0.024512
2.71025
0.0669031
0.216695
0.0235957
0.0462398
0.0234418
0.022666
0.0239212
0.0436964
0.07438
0.0475515
0.0234454
0.0242194
0.0263411
0.0246087
0.0298856
0.0239862
0.0763816
0.294335
0.0430947
0.0257966
0.296254
0.149003
0.189148
0.573523
0.0484624
0.0235714
0.0221762
0.0539106
0.0241792
0.218996
0.0330359
0.921398
0.0252374
0.359528
0.251242
0.0250803
0.0305997
2.92462
0.0249815
0.341233
0.04691
0.0268631
0.932194
0.0238811
0.0244931
0.0231156
0.0364453
0.0643565
0.0245505
0.0248414
0.175566
3.44543
0.0248795
0.131692
3.10136
5.17963
0.116025
0.0242325
0.0339128
0.312435
0.0264387
0.126351
0.0679858
0.0280412
0.212005
0.0821698
2.45542
0.0245565
0.247927
0.0238384
0.352653
0.0248546
0.0237138
0.11363
0.0364028
0.036723
0.0235247
0.76701
0.0466651
2.35727
0.0237067
0.0250746
0.0454651
0.0419366
3.29663
3.81932
0.0771281
4.5636
0.0261937
0.0317233
0.0237046
0.0562188
0.0664631
0.0252257
0.246994
0.0237035
0.0249949
2.96865
0.0230808
0.0654253
0.0233796
0.0234203
0.0569477
0.242924
0.0284736
0.0556092
0.436533
3.40807
0.0251117
0.0264686
0.0368097
0.0234236
0.0243014
0.0303315
0.0228976
0.0233433
0.0279994
0.0232934
0.0233053
0.0319651
0.0238826
0.139449
3.73446
0.0246251
0.0240081
0.031967
0.024208
0.0248907
0.0525075
0.445462
0.0257472
0.0239777
0.0240829
0.0858785
0.0279744
0.0296509
0.0252143
0.0318877
0.0734654
1.50186
2.97426
0.0236599
0.148103
0.0231004
0.0242241
2.73658
0.0238942
0.0268274
3.14303
0.192497
0.0996997
0.0238453
0.0238939
0.552507
0.364595
0.0504646
0.348636
0.0249704
0.0282771
0.024945
0.0361686
0.236466
0.030094
0.0258746
0.024617
0.0259666
0.0243944
0.039211
0.0252496
0.684986
3.55293
0.0236998
0.0257218
0.0250671
0.0240293
0.0340095
3.10529
0.0247935
0.0327061
0.0235233
0.0255298
0.0251299
0.0241077
0.0250762
0.0256783
0.0238381
0.0248077
3.71501
0.209273
0.0253095
0.087959
0.024262
0.0252694
0.0262819
0.0232222
0.0586407
0.0389277
0.0234579
0.0241097
0.0263232
0.0565818
0.0521563
0.0282454
0.025224
0.0242519
0.0390108
0.0246712
0.0416321
0.0272244
0.049735
0.026723
0.0246174
0.0391066
2.45295
0.0258633
0.0229785
0.0269231
2.94489
0.597235
0.022184
0.0255746
0.0319921
0.0271873
0.0227973
3.02262
0.714816
0.0697761
0.024879
0.0415999
0.0660109
0.0234724
0.0232409
0.048885
0.0724693
0.0263838
0.0252864
0.0235833
0.024922
1.30547
0.0238269
0.0299588
3.74943
0.0236428
0.0321577
0.0437605
3.46843
0.056228
0.0342213
0.023535
0.0251392
0.0248777
0.0267901
0.0233636
0.0244513
2.9758
0.0241288
0.0406538
0.0232134
0.0437917
0.377891
0.169369
2.06872
3.16667
0.042217
0.0232904
0.0233763
0.0258155
0.315164
0.0247419
0.914547
0.0227097
0.031776
3.72476
0.0334047
0.0478406
0.0237673
0.0264965
0.0385269
0.0236493
0.0242575
0.0349779
0.0277484
0.0269918
0.0326293
2.64571
0.22838
0.0245325
0.0319015
3.15341
0.279403
0.100776
0.111102
0.0474076
0.0275701
0.0348016
2.68685
0.0470754
3.06875
0.0314392
0.0238737
0.0729319
0.0261909
0.0245355
0.123923
0.229465
0.0346889
0.0300207
0.0379112
0.0308867
0.0691202
0.143899
0.0250763
0.713079
3.92884
0.236725
0.0415916
3.39511
0.138427
0.0242749
0.328145
0.0249923
0.340067
0.0231277
0.0373352
0.0247441
0.0234439
0.0352716
0.2453
0.129106
0.104081
0.42946
0.0244068
0.0698648
0.0236599
0.375239
0.781971
0.0242954
0.0246258
0.0888469
0.653706
0.0320944
0.0245369
2.93102
0.0241226
0.0232066
0.0234736
1.40852
3.47512
0.0227059
0.0320461
0.0304726
0.0278216
0.0229918
0.213673
0.0227533
0.034969
0.0302407
0.0245174
0.0743781
0.0238193
2.52822
0.0331726
0.0229609
0.0259053
0.0234773
0.0230896
0.0755012
0.0246904
0.109025
0.0237106
0.0245251
0.0681288
3.05498
2.48507
0.024099
0.0265851
0.0244403
2.70823
3.09646
2.98708
0.0242498
3.4069
0.0238633
0.024108
0.0268089
0.199398
0.32111
0.0254313
0.0320198
0.0244155
0.024392
0.0246032
0.0794178
0.0565026
0.0693839
0.0238217
0.044195
0.0327511
0.0600105
0.0244264
0.0240511
1.89335
0.0622283
0.0250548
3.38556
0.0578581
0.0794237
0.0229991
3.24347
0.793823
3.36126
0.0269932
0.0243664
0.0257765
0.0374998
0.110843
3.39883
0.0473462
0.0234693
0.0245551
0.0981249
0.0309637
0.0273689
0.0385863
0.187371
0.0701098
0.0289238
0.0241398
0.0253702
0.0269904
0.0241809
0.06529
0.0345343
0.18639
0.0245742
0.355964
0.0669879
0.0239681
0.0233479
3.06147
0.0230321
0.133266
2.20141
0.0227678
0.0231429
0.023931
2.71277
0.0231347
0.0263054
0.0241649
0.0661577
2.65988
0.0248163
0.0252757
0.0349069
2.79251
0.0280164
0.0324257
0.0247688
0.0390457
0.0239656
3.60625
0.0234743
0.357932
0.0240421
0.0441646
0.0718823
0.244758
0.0247039
0.0262673
0.0329326
0.0239597
2.95166
0.0240057
0.0241192
0.0609298
0.0230326
2.93937
0.133735
0.3968
0.0263379
0.0283633
0.0243058
0.070825
0.0439537
0.0246734
0.026988
0.359485
2.69785
2.69247
0.0442469
0.0320232
0.0660388
0.0316706
0.0251231
0.0437659
0.0250911
0.0228206
3.29152
3.47887
0.02441
0.0366416
0.0251449
3.60294
3.59935
0.0244187
0.0239472
0.228073
0.023974
2.23463
0.923778
0.027159
0.0431785
0.0262689
0.362944
0.0284534
3.84841
0.228679
0.0249083
0.0251903
0.030117
2.64507
0.346354
0.0245923
2.78256
0.0263011
0.0226326
0.145807
0.0287838
0.479983
0.0241351
0.0245442
0.024804
0.0955923
0.022674
0.0259385
0.056867
0.0252673
2.75656
0.045616
0.0250961
0.0875001
0.0252952
0.177409
0.61591
0.0260395
0.249853
0.0252935
0.354188
0.0247448
0.0256069
0.034162
2.46881
0.0243782
0.0247373
0.0259215
0.0993357
2.85198
0.0220978
0.0341706
0.0456996
0.0244012
0.0229345
0.0245736
0.0403569
2.87272
0.0354936
2.93986
3.15207
0.189474
0.0380377
0.0236192
0.0272379
0.0242208
0.0357008
3.60003
0.149443
0.0275309
0.0416259
0.0931962
0.0336178
0.0248876
2.73297
0.0239494
0.0995541
0.508303
0.249387
0.0229805
0.0276481
0.025416
0.0230302
0.0314707
0.0687924
0.113561
0.0283397
0.0272803
0.0245733
0.0230956
0.0243571
0.0370115
0.0253696
0.0493455
0.0239342
0.0226487
0.023602
0.101849
0.0238487
0.0237569
2.15333
0.0230745
0.0260976
0.0288525
2.43455
0.0227709
0.0255713
3.21419
0.0257793
3.29629
4.03084
0.0248478
0.130207
0.288525
0.0248023
0.0357734
0.0244991
0.0236384
2.79553
0.0233479
0.117167
0.0244324
0.108617
0.0230639
0.0742552
0.031005
0.746767
2.68544
0.252767
0.0239951
0.03113
0.147711
0.0242439
0.023848
3.11546
1.44498
0.0648585
0.147548
0.0263049
2.9728
0.0242509
0.0242304
0.0227679
2.69517
0.0244723
0.024395
0.149706
0.0321682
0.0283929
3.33769
0.049523
0.0281369
0.129981
0.0244596
0.0247901
0.0430825
0.0279655
0.0416737
0.0276687
3.14825
0.201481
0.0242179
0.0942042
0.0228532
0.0247043
2.87509
0.0243339
2.99175
0.0251056
0.196782
0.025951
0.141329
0.0311592
0.0235091
3.51396
0.127139
0.0680526
0.337093
0.0382736
0.0256909
0.0246822
2.85996
0.0483394
0.0245819
0.0692313
0.0243103
0.023356
0.0258931
3.50478
0.0255043
0.0227215
0.0328097
0.0227212
0.0251113
2.76282
0.0650266
0.0868507
0.022888
0.0243155
3.91788
0.0279388
2.81958
0.0227261
0.0246181
0.16882
0.0572988
0.0230485
0.0673089
0.0234439
0.0248878
0.0256415
0.025967
0.125957
0.0242027
0.0657382
0.0336785
0.0264484
0.0226847
0.0305622
0.0950349
0.0328747
0.0400647
0.0235229
0.0373058
0.244652
0.0237486
0.0691339
0.0241265
0.0463237
0.0227936
0.0342225
0.0221027
3.45632
0.23883
0.0245525
0.0407859
0.0443057
2.61662
0.0917249
0.193418
0.245041
0.023995
0.0274825
0.0236285
0.0231216
0.0334281
2.21607
0.0391873
0.0229388
0.0278528
0.318561
1.54256
0.320221
3.2314
0.426357
0.0233094
0.024789
0.0302082
0.0244985
0.0245752
0.195635
2.26936
0.0247156
0.0285175
1.06292
0.105142
0.0245438
2.91676
0.0425386
0.0245436
0.0571627
2.989
0.258107
0.151584
0.025579
0.331196
0.0239804
0.919536
0.0566535
0.0245738
0.045554
0.102849
0.134474
0.0248789
0.0251431
0.0269998
0.433991
0.0678344
0.032486
0.04018
0.0403314
3.53113
0.036152
0.0268275
0.10685
0.0797289
0.123154
0.12292
0.0239471
0.0233828
0.0273492
0.0567839
0.144499
1.41487
0.0764664
0.0265225
0.0475387
0.16662
2.62531
0.0806156
0.025202
0.0537373
0.025649
0.0294131
0.0259629
2.6814
2.07602
1.92512
0.0247703
3.19125
0.175422
0.0239716
0.109548
0.0245614
0.155959
0.0318978
0.0239248
0.0285034
0.0235891
3.45
4.94319
2.08224
0.0243774
3.03428
0.027136
0.0287579
0.0252711
0.0238738
0.0317531
0.0808427
0.0270064
0.0463235
0.0267186
0.0308749
0.036345
3.07061
2.30385
0.294444
0.0244449
0.0229841
0.136186
0.023743
0.0227565
3.52592
0.0256351
3.42829
0.218026
0.188055
0.0230522
0.0253147
3.07184
0.0250965
0.0265657
0.0267744
0.025341
0.02885
0.0570418
0.133362
0.0236284
0.0231332
0.022789
0.0452598
0.0296541
0.245754
0.296688
0.0450412
0.0243167
3.2316
0.0247184
0.0239056
0.0233142
0.0311515
0.0245918
0.0290625
0.0379966
0.325288
0.238748
0.531395
0.162172
0.139379
0.0250444
0.0273737
0.286146
0.0247254
1.85341
2.93315
2.64833
0.263432
0.0240896
0.0309957
0.17871
0.0255457
0.0285764