/*--------------------------------*- C++ -*----------------------------------*\
| =========                 |                                                 |
| \\      /  F ield         | OpenFOAM: The Open Source CFD Toolbox           |
|  \\    /   O peration     | Version:  v2012                                 |
|   \\  /    A nd           | Website:  www.openfoam.com                      |
|    \\/     M anipulation  |                                                 |
\*---------------------------------------------------------------------------*/
FoamFile
{
    version     2.0;
    format      ascii;
    class       volScalarField;
    location    "300";
    object      p;
}
// * * * * * * * * * * * * * * * * * * * * * * * * * * * * * * * * * * * * * //

dimensions      [0 2 -2 0 0 0 0];


internalField   nonuniform List<scalar> 
27802
(
-0.0369996
0.000346039
0.000270582
-0.0107807
-0.0785142
-0.00497349
0.00134395
-0.00543896
-0.0188072
-0.0280598
-0.00187172
-0.0796482
-0.0761816
-0.0264474
-0.0112407
0.00151747
1.36279e-05
-0.0852022
0.0253099
-0.0110385
0.000340379
-0.00893119
-0.0368814
-0.0731761
9.04014e-05
-0.0165568
-0.00569508
-0.0276333
9.83772e-05
-0.0157797
-0.0176016
0.00238024
-0.0775869
0.00875221
-0.0786605
-0.0133901
0.00182083
-0.00502325
-0.0173844
-0.00686193
-0.0248626
-0.00708222
-0.109427
0.00421201
0.00131424
-0.0106189
-0.0601477
-0.017155
0.00119924
0.00525156
-0.0273928
0.00131239
0.00347125
0.000940885
-0.00366217
-0.00442328
-0.0761669
-0.0259384
0.00163764
-0.0739046
-0.0133883
0.00160032
0.00335056
0.00264469
-0.084521
-0.061628
-0.0817485
-0.00264333
-0.0783318
0.0022144
-0.00644753
-0.072408
-0.0310972
-0.0713921
-0.00244678
-0.0337107
-0.00566163
-0.0816165
0.00506988
0.00137734
-0.10568
0.00175995
0.00120588
-0.0254293
0.00119178
-0.0212632
0.000162658
-0.00382433
-0.0722764
-0.0448521
-0.0790593
0.00156846
0.0106477
0.00150816
0.000939126
-0.0178673
-0.0522321
-0.0784594
-0.0249055
-0.0594757
0.00161977
-0.0248531
-0.0248346
-0.0140028
-0.044392
0.00157698
0.00182116
-0.0191662
-0.0134511
-0.049562
0.00077508
-0.0110449
-0.0248299
0.0107031
0.000645124
-0.0215444
-0.0153832
-0.0034541
-0.0470723
-0.0118627
-0.0767747
-0.0784341
-0.0613723
0.00013622
-0.0131691
0.00153996
-0.0217119
0.00279239
-0.0773635
-0.0752968
-0.0244236
-0.0606402
0.0016431
-0.0261317
0.00120988
-0.00286381
-0.00098331
0.00124416
0.0052538
-0.0302265
-0.00318864
-0.0055283
0.00161146
0.000656779
0.000680525
-0.0160921
-0.000864582
-0.00987758
0.00133112
0.00161366
-0.00199116
-0.0168614
-0.0369062
-0.00246945
-0.0119729
-0.00105842
0.00841284
-0.0764983
-0.0496546
-0.0422511
-0.0217865
-0.0718214
-0.020852
-0.0463424
2.56123e-05
0.00109331
-0.00336404
-0.00424031
-0.0180854
-0.0108866
-0.0138856
-0.0148862
-2.91473e-05
-0.0324558
-0.017339
-0.0809468
0.00108537
-0.042246
0.00128982
0.00198978
-0.0736709
-0.0150229
-0.0294809
-0.0160572
3.67831e-05
-0.0416103
-0.000990871
0.000682429
-0.0275559
-0.0163524
-0.000454856
-0.00617238
-0.0391581
-0.0297919
0.00109081
-0.00673068
0.00108301
0.00127643
-0.0109013
-0.0052853
-0.0765631
0.0296583
0.00270464
-0.0205522
-0.0132956
-0.0595193
-0.0364791
-0.0555656
0.000179371
-0.0742706
-0.0136769
-0.0105825
-0.0789432
-0.0416687
-0.0272207
-0.00687762
0.00329144
0.00147977
-0.0180052
-1.57958e-05
-0.0770663
0.000125945
-0.041071
-0.0240933
3.78359e-05
0.00123081
0.00121761
-0.00588125
-0.0106084
-0.0252967
0.000153405
-0.0733175
-0.018128
-0.0403881
0.0339664
-0.0301366
-0.0045328
-0.0552342
-0.0764175
0.00041187
-0.00123608
-0.0269042
-0.027024
-0.0126262
-0.00978017
-0.0777556
0.00127082
0.00258143
0.00132951
0.000158599
-0.0217414
-0.0333891
-0.0349875
-0.00104136
-0.0108948
0.00109062
0.00110423
0.00146311
-0.0201224
0.00108105
-0.0328424
-0.023052
-0.0793722
0.000144455
-0.0768366
-0.0431554
-0.0779895
-0.0252947
9.54415e-05
-0.0175496
-0.0767905
-0.00804687
-0.0296287
0.000988446
-0.0294229
-0.0722993
-0.0101737
-0.0477831
-0.0424991
0.00106259
-0.01153
-0.0419919
-0.00390107
0.0048211
-0.028499
0.0146402
0.00135304
-0.0172391
-0.0260621
0.000424485
0.000111312
0.0081863
0.00110254
0.00504353
0.00110088
0.00649037
-0.021789
0.00123756
-0.0744998
-0.00369541
-0.0624291
-0.0165145
0.00294862
-0.0415797
0.0333081
0.00575301
-0.0227292
-0.0770881
-0.00119732
-0.00994098
-0.0180652
-0.0397946
-0.0543361
-0.0265229
0.00460776
-0.0135533
-0.0184175
-0.0363431
-0.0508777
-0.0264966
-0.0126643
-0.0134891
0.00011741
0.0012926
0.00174912
0.00139669
-0.0781305
0.001388
-0.0133305
-0.0377962
-0.000105417
-0.0486729
-0.00351937
-0.0124071
-0.0239949
-0.0310449
-0.0541944
-0.000450014
-0.0709776
-0.0078106
0.000102159
-0.0788701
-0.0221841
0.0053355
-0.0649399
0.0127718
-0.058491
-0.00378056
0.00138652
-0.0369817
0.00115785
-0.0836183
-0.0131972
-0.0134202
-0.00274099
-0.000485696
0.00286204
-0.0391924
-0.000182975
0.00129372
0.00445412
0.015026
0.00129852
-0.0261651
0.00107378
-0.00497617
-0.00275325
-0.0171676
-0.0414195
-0.00388254
-0.000460842
-0.0578878
-0.0111545
-0.0694381
-0.00403561
-0.0786879
-0.0103788
0.000715491
-0.012945
-0.0113123
0.000673341
0.00107572
-0.00288425
0.00132304
0.000858879
-0.00656903
-0.0619286
0.00221545
0.0039913
-0.00455822
0.00124164
-0.00188095
-0.00139229
-0.0506908
-0.0103036
-0.0517675
0.013643
-0.0712499
0.00048823
-0.0399679
-0.0762105
-0.0485234
0.00121662
-0.00591953
-0.0183063
-0.002968
-0.0150632
-0.0467359
0.012138
-0.0198743
-0.0744033
-0.0049644
-0.0749786
-0.0745955
0.000492777
-0.017761
0.00129574
-0.0381084
0.000672817
-0.00218228
-0.107947
0.00127854
0.00237228
-0.016888
0.00315492
-0.00295186
0.00255133
-0.0764209
0.00414792
-0.0271523
-0.00772352
-0.0158864
-0.000109948
-0.00756357
0.000616141
-0.0105042
-0.0556788
0.00161661
0.00253931
-0.0290872
-0.0418948
0.0024242
0.000909925
-0.00342256
-0.0375344
-0.0130452
0.000284985
0.00237098
-0.0556876
-0.0170164
-0.0031696
-0.0727025
0.00292413
-0.104016
0.00111765
-0.0408624
-0.0401381
0.00127155
-0.0054889
-0.00378592
0.00372053
0.00231233
-0.00517576
0.000979086
1.35602e-05
-0.0356451
0.00260873
-0.0129266
0.00173945
0.000292305
-0.0211695
-0.00333677
-0.00365786
-0.0416792
0.000152162
0.0137695
0.00151193
-0.0769058
0.000108115
-0.021164
-0.067938
-0.0206733
-0.00518408
-0.0356128
-0.0553068
-1.97203e-05
-0.00363189
-0.0224443
-0.0684881
-0.00677264
-0.0131377
-0.00184942
-0.00590816
-0.077333
0.00146015
-0.0790057
-0.00141933
-0.00129804
-0.00749639
0.00936091
-0.0753383
-0.0521097
0.01435
-0.0417789
-0.000935012
-0.0727744
-0.0031036
-0.0153266
-0.0531912
-0.0133357
-0.00472422
0.00798251
-0.0130444
-0.00364207
-0.000470829
-0.045225
-0.00238967
0.00610676
0.000472523
-0.0172594
-0.0355387
-0.0127078
-0.00543014
0.00303587
-0.0132562
-0.00823048
0.0011012
-0.0137411
-0.0195137
-0.0786484
-0.0157807
-0.0354372
0.00128817
-0.00360634
-0.0791262
-0.0112294
-0.0258686
-0.00788317
0.0011028
0.000780387
-0.0344985
0.000860677
-2.01999e-05
0.00128307
-0.0524928
0.000903807
-0.0349787
-0.0172075
-0.0412213
-0.0498799
-0.0692554
-0.0576831
-0.0134092
-0.0321605
-0.0169244
-0.0804348
-0.0221443
0.0028817
0.000228598
-0.00921092
-0.0171362
0.00571971
-0.00625928
-0.0078067
0.000180578
-0.00665476
-0.00737567
-0.0164851
0.011006
-0.0606888
-0.0706368
-0.0753454
-0.0749512
-0.0519114
-0.0730952
-0.0440273
-0.0811057
-0.0175163
-0.0404359
-0.00581899
-0.0289993
-0.0791
0.00479124
-0.0287845
-0.10288
-0.0645576
0.00115119
-0.103291
-0.066216
-0.0279984
0.00104896
-0.0552981
0.00114942
-0.00493025
-0.0637735
0.000658635
0.00693942
-0.0383563
0.0011156
-0.00555814
0.000676603
-0.0520041
0.00218582
-0.0289238
-0.0270784
-0.0732224
-0.0301192
-0.0440611
-0.0139417
-0.0833854
0.0127231
0.0125192
0.00866948
-0.0167504
-0.00134297
-0.010625
-0.0294919
-0.00581271
-0.0775535
-0.0793503
0.000631351
0.00234778
0.0300882
-0.0499208
0.000710263
-0.0270817
-0.0283674
0.00430366
0.0051628
-0.00487905
-0.0162109
0.000143321
-0.0663799
-0.0108733
-0.0408541
-0.0153919
-0.0368723
-0.0119187
-0.0771863
-0.0110544
-0.0169344
-0.043667
0.00135654
-0.0792038
-0.0655517
-0.0281455
-0.0219094
-0.0260717
-0.0865113
-0.0108201
0.0012295
-0.0513293
-0.0472171
-0.0606916
0.00294567
0.00283064
-0.00974321
0.00112414
0.00152934
-0.0172297
-0.00532803
0.00608056
-0.0700959
-0.0129942
0.000606662
-0.0162382
-0.0131779
-0.0338675
-0.0123776
0.00111148
-0.00284908
0.0024212
-0.0163886
-0.0256156
-0.00641373
-0.00109684
0.000515806
-0.00516899
0.00153878
0.0014276
-0.018451
-0.00549292
-0.0416782
-0.0194323
-0.0664166
-0.089951
-0.0297833
-0.00259361
0.000417131
0.000689853
0.00223618
-0.000608005
0.0274312
-0.0411333
-0.0764158
0.00116476
0.00137577
-0.0518248
-0.00744359
0.000108963
0.00277976
-0.0419346
-0.00814315
0.00561097
-0.0171303
0.00359694
0.00138224
-0.0152433
-0.0568513
-0.0280747
0.000530411
-0.0765194
-0.00680332
-0.0602581
-0.0259588
0.00206049
-0.0765166
-0.058046
-0.0382159
-0.0238503
0.00511292
-0.00182836
-0.00925149
-0.0330851
-0.0766381
-0.00544948
-0.0222126
0.00225501
-0.0134215
-0.078924
0.0102547
-0.0801974
-0.0369555
-0.0258376
-0.0224568
-0.029283
0.00109856
-0.0329385
0.000663054
0.00113356
-0.00416842
0.000924013
-0.0667416
4.17864e-05
-0.0044944
-0.0790917
-0.0111022
-0.00182523
0.0290038
-0.0768795
-0.0570173
0.00365549
0.00112254
-0.0222328
-0.0103687
-0.0377979
-0.0302818
-0.0104328
-0.0180641
0.000327152
-0.0134346
-0.0230913
-0.000495613
-0.0141691
0.00130348
-0.0741591
-0.0885641
0.00241769
-0.0135536
-0.00538548
0.000917271
-0.0773799
-0.00522755
0.000646755
-0.00885265
0.00628928
-0.0802386
-0.00884962
-0.00516441
-0.0219697
-0.0157228
2.19939e-05
-0.0222562
0.00541767
0.00089052
-0.00258405
-0.00543443
-0.0149328
-0.0039244
-0.0012433
-0.0256071
-0.0385345
0.00287719
-0.0215548
-0.0154382
-0.089579
-0.0254101
-0.0583795
-0.0242181
-0.0165821
0.00187181
0.00265626
0.00359723
-0.000628582
0.0028086
-0.061404
-0.0382411
-0.0425195
-0.0524323
-0.0055878
0.00124774
-0.0370807
-0.0223469
0.002167
0.000443943
-0.0243337
-0.0240076
-0.0108617
0.00110865
0.00103642
4.68632e-05
-0.000801054
-0.0139506
0.0257836
-0.000566365
-0.0175622
-0.0794823
-0.0763325
-0.0776332
-0.00727738
-0.0533646
-0.0288626
-0.00510122
-0.0174117
-0.00630451
-0.0502038
-0.0377855
0.0020942
0.00119795
0.00118853
-0.0373272
-0.0381331
-0.0762697
0.000104741
0.000135307
-0.00599034
-0.00597087
-0.0101437
-0.0776301
-0.0427249
-0.0470161
0.00300302
0.000492489
6.94114e-05
0.00143021
-0.0216809
-0.0262906
-0.0631917
-0.036818
0.00228426
-0.0404999
0.00725406
-0.00355755
-0.00906024
-0.0787074
-0.0194469
-0.00532775
-0.00981123
0.00130394
0.00104796
-0.0770887
-0.0377828
0.000872122
-0.0022284
-0.0189947
-0.0648051
-0.0450125
-0.0864371
-0.0312792
-0.0340715
-0.0760961
-0.0222353
-0.0138032
-0.00672709
-0.0303752
-0.05197
-0.012637
-0.0375643
0.0014287
-0.0265718
-0.00516797
-0.0102073
-0.0755871
-0.000226053
-0.00466576
0.000652474
0.000702841
-0.00711511
-0.0779224
-0.021524
-0.0266016
-0.00650724
0.00286732
0.00128666
0.00120245
0.00121495
-0.0130941
-0.0149274
-0.0189386
0.00435892
0.00268753
-0.00596726
-0.030002
-0.0533804
-0.0245757
-0.0254143
-0.00624647
0.000975537
-0.0057075
-0.00233382
-0.050594
2.12341e-05
0.00142948
-0.00608989
-0.0745142
0.00145675
-0.0192372
0.00032935
0.000172826
0.00749967
-0.00265003
-0.050245
0.000921066
0.000782862
-0.0640935
-0.000161945
0.00198289
0.0200692
-0.0556511
-0.000564349
0.000129548
0.00270599
-0.0258658
-0.0489443
-0.0562583
0.00750798
0.0012405
-0.0578784
0.00340472
0.00145236
0.00126367
-0.00312038
0.00269128
0.00688214
-0.0569358
-0.0107098
0.00131843
0.00254695
0.0098803
-0.0729522
-0.0410525
0.0123502
-0.00356784
0.00182652
0.00129229
-0.0197266
0.00111702
0.000160556
-0.00386251
-0.0370388
-0.0236783
0.000315734
-0.0350778
0.00110715
0.00135496
-0.0439703
0.00271027
-0.0251922
-0.00475847
-0.0271014
0.0024223
0.00132958
-0.0721173
0.000429679
0.00231305
0.000963289
-0.0785902
0.00364322
0.00139443
2.27738e-05
-0.0530914
0.00014683
-0.0257375
0.00137212
0.000392156
-0.0308439
-0.0773444
-0.0734167
-0.0106282
-0.0544372
-0.081424
0.0210327
-0.000336709
0.000850444
-0.0740177
-0.0771603
-0.0174548
-0.0160837
9.79114e-05
0.00128813
0.00127365
-0.0110673
-0.0216316
-0.000783305
-0.0405493
-0.0704343
0.00114645
0.000407631
0.000645432
-0.00449864
-0.0126974
-0.0572313
0.00125594
0.00130607
-0.0852582
0.000795319
0.000903755
-0.00770031
-0.0128787
-0.0261918
-0.0132193
-0.000719485
-0.00352762
0.000136595
-0.00893643
-0.046979
-0.0174898
-0.00751774
2.46563e-05
0.00122888
-0.0335462
-0.00692321
-0.0111477
-0.0341692
-0.03257
-0.0395675
-0.0267101
-0.0168012
0.000859703
-0.0771172
-0.0856519
0.00145349
-0.0245142
-0.00572727
-0.00262609
0.00358112
0.0013672
-0.0107163
-0.0793049
0.000318682
-0.0111203
-0.0421759
-0.00191326
-0.0812704
-0.0728479
-0.00067065
-0.00514851
0.00309033
-0.0108001
-0.021666
-0.00279406
-0.0410978
-0.0254677
0.0013208
0.00108386
-0.00635696
-0.0173824
-0.0249676
-0.00822132
-0.00605874
-0.0757933
-0.0884684
0.00723246
-0.0464305
0.00140316
0.00139517
-0.0770115
-0.0749035
-0.0387868
-0.0318511
-0.00190919
-0.077106
-0.0674173
-0.0567203
-0.0473532
-0.0467128
0.00131225
-0.00997768
-0.0104718
0.0015526
0.000900104
-0.0259477
-0.0401799
0.00277953
-0.0812449
0.00767329
-0.014886
-0.0811089
-0.0167373
0.0119816
-0.0503138
-0.0749801
-0.0368101
0.0129604
0.00220116
0.00112715
0.0051632
0.00151302
-0.00742651
-0.0384885
0.00127921
-0.000988611
-0.0219803
0.00188357
0.000669725
-0.02333
-0.0100213
-0.0106487
-0.000942695
-0.00623466
-0.0176982
0.00572651
0.00703611
0.000845747
-0.085022
0.00171423
-0.0562576
-0.0251028
-0.0535229
-0.0258253
-0.000880789
0.00127672
-0.0768149
-0.00110413
-0.0193701
-0.00310058
0.00670304
-0.0750912
-0.0811009
-0.104905
-0.0177412
-0.021727
0.0144539
-0.000746543
0.00372577
-0.00207856
0.00123365
-0.068385
-0.0333803
-0.00948834
0.0135368
-0.0617311
0.00113624
-0.0360902
-0.0772571
-0.048471
-0.0487065
-0.0952937
0.00826154
0.00150132
-0.0141198
-0.00746124
-0.0366571
0.00203882
-0.0289052
-0.0306287
-0.016849
0.00290095
0.00437483
0.00134325
-0.00233728
-0.000576715
0.000226518
0.00119445
0.00224715
-0.00906645
0.00121214
-0.000426142
-0.0273016
-0.0251494
-0.0853045
0.000607776
-0.0101421
0.00123309
-0.0300938
-0.00331357
-0.0479413
-0.0449414
0.0011053
0.00270462
-0.0101275
-0.00145629
0.00610744
0.00139688
-0.017379
-0.0545839
0.00087455
-0.0613956
-0.0813734
0.00297542
-0.0331668
0.00246486
-0.017374
-0.0067974
-0.0521612
-0.0195737
-0.00510952
-0.0763548
-0.0780605
-0.0435856
0.00134221
-0.0758678
0.00178029
-0.0671741
-0.0284839
5.44853e-05
0.00190195
-0.0165438
-0.0781689
-0.062575
-0.00653597
0.00182424
0.0012274
-0.0477086
-0.0214466
-0.0177119
0.000753597
0.000779584
0.0041321
0.000769426
-0.0190398
-0.0243591
-0.0386376
-0.0859649
-0.0127111
0.00102738
-0.0478054
-0.0316078
-0.0405613
0.000903087
-0.0412197
-0.032111
0.00122369
0.000922971
-0.0813229
0.000708951
-0.0105836
0.00124155
0.000888109
0.00455118
-0.0114979
-0.0148305
0.000237796
-0.0460426
-0.074275
0.00223932
-0.000481112
-0.00362675
-0.0394657
0.00130184
-0.00126707
-0.00870713
0.000662808
5.73114e-05
-0.0385062
-0.0235198
0.00169302
0.00166565
-0.0530828
-0.00796455
-0.0384485
-0.00811688
-0.080482
-0.0732687
-0.0103611
-0.000406452
-0.00864256
-0.0894315
-0.0767551
-0.069801
-0.0759413
-0.0631513
0.00277805
-0.0112734
0.00123514
-0.0016741
-0.0126979
-0.0372468
-0.0720154
-0.0442153
0.000922724
0.000919201
-0.0164777
-0.0613736
-0.00103997
0.000635059
0.00121636
-0.0173121
0.00180183
-0.0157922
-0.0638466
-0.0167126
-0.00882352
0.0264473
-0.00566496
-0.0148571
-0.012753
-0.0129658
-0.00104227
-0.0759547
-0.0756301
-0.0238648
-0.0157419
-0.0505931
0.00154217
0.000670559
0.00295427
-0.0636686
0.0011945
0.00126916
0.00329796
-0.00233617
0.00117511
-0.0325873
-0.0180337
-0.0316876
0.000613966
-0.0723878
-0.0123678
-0.00619621
0.00281202
-0.0767697
-0.0610836
0.000145343
-0.00314345
-0.00445435
-0.00652958
0.00149177
-0.0667957
-0.0458375
-0.0825111
-0.0135452
0.0011799
-0.0360015
-0.0105656
-0.0137949
0.00145347
-0.060348
0.00323613
-0.03831
-0.00116799
0.000930572
0.00125807
-0.0327484
-0.076298
-0.00717903
-0.0393048
-0.0244947
0.000711402
-0.062051
0.00209811
-0.0614547
9.58686e-05
0.00399054
-0.0236193
0.00242186
-0.00423104
0.00525456
-0.0776272
0.00118762
8.07155e-05
-0.0194214
-0.00802518
-0.0953161
-0.00128252
0.00839977
-0.0470368
-0.0478337
-0.0187021
-0.0671965
-0.00319398
0.00130421
-0.0374106
0.000656497
0.000144993
-0.0210776
0.000154841
-0.000134747
-0.0227879
-0.0743461
-0.0946982
0.0012062
-0.0186748
-0.00119238
-0.0749775
-0.0688327
-0.00188105
-0.0838577
0.00903578
-0.0108398
-0.0555862
-0.0793786
0.00129446
-0.00124796
0.00145929
-0.00112751
0.000739348
-0.00266493
-0.0240543
-0.00664013
-0.00711308
-0.00986944
-0.0680686
0.000290101
-0.00715801
-0.0121346
0.00124509
-0.0332554
-0.0140653
-0.0374735
-0.076682
5.3869e-05
-0.0142116
0.00202465
0.000835396
-0.00816943
-0.0187076
-0.0785567
-0.0377905
-0.00115838
-0.00527213
0.00176152
-0.0192169
-0.00411096
0.0282719
-0.0203164
-0.0254921
-0.0264438
-0.0826513
-0.067829
-0.0201665
-0.000131377
0.0019921
-0.0723795
-0.000572793
0.00109301
-0.0709616
0.000634008
0.00445343
-0.00516013
-0.0132301
-0.00478684
0.00123428
0.00297034
2.10632e-05
-0.0778109
-0.0443014
-0.0129201
-0.00825599
-0.00708257
-0.049892
-0.0135868
-0.00338216
-0.0123901
-0.00915434
-0.0861392
0.00309033
0.00393608
-0.0151884
0.000968679
0.0145693
0.000926304
0.00216665
-0.00609265
0.00121469
-0.037623
0.00125712
-0.0352499
-0.0750874
-0.0116495
-0.00458693
0.000852597
0.002326
-0.0769631
-0.0043067
-0.0258714
-0.0767632
-0.0221408
-0.0738644
-0.0380345
-0.00690471
0.00220018
0.0016371
0.00465808
-0.0197734
-0.000996092
-0.0132551
-0.0305864
-0.073308
0.00286352
0.00113978
-0.00714719
0.00121224
0.000980992
-0.0192909
0.00162509
0.0189129
0.00131463
-0.000790739
0.000606961
-0.0660388
0.001233
0.00163113
-0.0822902
-0.00681834
0.000648952
-0.00434203
0.00186492
-0.069603
-0.0180763
-0.0117679
-0.00683484
-0.0029452
0.00117775
-0.0122806
0.00133189
-0.0352374
0.0073629
-0.026915
-0.0269898
-0.00307557
-0.0235335
-0.0104889
-0.0211481
0.000663026
0.000725355
-0.0110625
0.000920105
0.0022699
0.00130629
0.00186722
-0.00708595
-0.0132628
0.00299955
-0.02662
0.00242549
-0.00979251
-0.0592584
-0.00598869
-0.0142712
-0.00880433
-0.0131989
-0.0902501
0.011906
-0.00372097
0.00200561
-0.00398364
-0.024619
-0.022964
0.0143713
-0.077982
-0.0761454
-0.0342279
-0.0773533
-0.0104381
-0.0759917
-0.00732758
-0.0252657
0.00192718
-0.0113148
-0.00408093
-0.00875295
-0.0633066
0.00186342
-0.00642357
-0.0226933
7.02545e-05
-0.0646108
-0.050048
-0.0167017
0.00159374
-0.0142811
-0.0463376
-0.00473292
0.00181949
0.000938424
-0.0598256
-0.0100243
-0.0164878
-0.0791961
-0.0786042
0.000648189
-0.0249176
-0.00466041
-0.0551567
0.00534897
-0.0749826
-0.0129565
-0.0199788
0.00128447
-0.014417
-0.0104309
-0.0194079
0.00774859
0.00154264
-0.0156451
-0.0734701
-0.00314891
-0.00997897
0.00140187
-0.0198271
0.00120444
-0.0830574
-0.037125
-0.038805
-0.0451969
-0.0766962
-0.0684467
-0.033095
0.000151241
-0.0116414
-0.00872779
-0.0230027
0.0134002
-0.00524168
0.00135392
-0.0256904
-0.0793529
0.000797384
0.000719354
-0.0725503
0.0123769
-0.0464445
0.00118749
0.00143428
-0.0158139
-0.00302035
-0.0382232
8.9858e-05
-0.073371
0.00048595
-0.0968341
-0.0716943
-0.0114593
-0.00970873
-0.0169081
0.00111734
-0.0656794
0.00287195
0.000925276
-0.0754534
-0.0134933
-0.00120409
-0.0439192
-0.0277004
-0.0207694
-0.044172
-0.0814553
0.000711981
-0.0891071
-0.0752772
0.00498006
-0.0357596
-0.0123509
0.000129988
-0.0254277
-0.0663219
-0.0114132
-0.00743912
-0.0202268
0.00131726
-0.00780596
-0.00976747
-0.0132249
0.00128918
-0.000499183
-0.0125569
-0.0105605
-0.0323416
-0.0215719
-0.00719794
-0.0200746
-0.0395451
-0.0574115
-0.0136757
-0.0172948
0.00184732
-0.0119875
-0.0156965
-0.0197259
-0.0271746
0.0100934
0.00129422
0.00204417
0.00132585
-0.0788606
-0.0208578
0.00346851
-0.00384043
0.00563063
0.000423388
-0.000277441
-0.0339107
-0.0143711
-0.009301
-0.0277984
-0.0499607
-0.0003132
0.00041378
0.00374066
-0.00159428
-0.107403
0.00206652
0.00272147
-0.0620429
-0.100207
-0.00174389
-0.0753512
-0.0268281
-0.02031
-0.00132442
-0.0401917
-0.0353687
-0.00125372
-0.0104847
-0.00142264
0.00142181
-0.0097215
0.00282744
-0.0277564
0.000868208
0.00502151
0.000842794
0.000247826
-0.0400464
-0.0321081
-0.0163597
-0.0102843
0.00318008
0.00159133
-0.030424
-0.0181907
0.00213925
-0.00135167
-0.0542768
-0.041245
-0.0822979
-0.0216179
0.000528365
-0.0745336
-0.0206135
-0.0656779
0.00125063
-0.0310333
-0.00375507
0.00532599
0.00166156
-0.00479909
-0.00420943
0.00620837
-0.0160417
-0.0506233
-0.0157844
0.00200827
-0.0217269
-0.0719614
-0.0108835
0.00130207
-0.0256006
-0.0781493
-0.0320627
-0.0261203
0.00950357
-0.0582507
0.00105594
0.000848553
0.00106811
0.00767604
0.00134825
-0.0362085
-0.0671757
0.00170574
0.00315469
-0.0737861
-0.077101
0.00218706
-0.0577977
-0.0357481
0.00106812
-0.0168008
-0.0374276
-0.0233068
0.00159023
0.00366609
-0.0348302
0.00214606
0.000243468
-0.068194
-0.026627
-0.0273337
-0.00593547
-0.0213217
0.00173451
-0.0745322
-1.26424e-05
-0.0174215
-0.0774679
-0.0206083
-0.0766014
-0.0313464
0.000358744
-0.00113307
0.0270429
-0.0264306
-0.025145
-0.0722554
-0.0453993
-0.0246529
-0.00214768
0.000943691
-0.0404515
0.000916218
0.000919701
-0.0681492
-0.0234284
-0.0461395
-0.0233816
-0.0132138
-0.031275
0.00188585
0.000831591
0.000856396
0.00113152
-0.022391
-0.0220203
-0.0770055
-0.0665437
-0.0749473
-0.00560813
0.00772622
-0.016077
-0.0759762
0.0013379
-0.0253465
-0.00733191
-0.0157494
-0.00938322
0.00118603
0.00217323
0.0119244
-0.0771671
-0.0383089
-0.00114091
0.000221139
-0.0033388
0.00010808
-0.0213729
-0.0124299
0.000938482
-0.0109529
-0.00877443
-0.0254266
0.000493194
-0.0396756
0.00123226
0.000451714
-0.0322707
-0.0311749
-0.0415506
0.00264328
-0.00108756
-0.0181674
0.00127616
-0.0770623
-0.0270674
0.000689464
-0.0103721
-0.0269597
-0.0193522
-0.0789013
-0.0182616
-0.00427723
-0.0165303
-0.00342461
-0.0251707
-0.0165862
-0.0131852
0.000890925
-0.0448007
-0.00889834
-0.0145468
0.00286686
0.00218892
0.00315422
0.002854
0.00144382
-0.0600957
-0.0466922
0.00269558
0.00126965
-0.0781965
0.00260757
-0.0263933
-0.00485971
0.000547193
-0.0202096
0.00215877
-0.0150931
-0.00476644
0.00192216
-0.00117832
-0.0136741
-0.0129736
-0.0445777
0.00125685
-0.0033766
0.000880474
-0.0513209
-0.0041325
-0.038855
0.000703865
-0.0246888
0.00057218
0.00968622
0.00351448
-0.0040145
-0.000679147
-0.0387795
0.000548096
-0.0747688
-0.0060238
-0.00286833
-0.00160132
0.00266021
-0.0199106
-0.0165555
-0.0181187
-0.0324357
-0.021192
-0.00476615
0.00448378
-0.00364917
-0.00644322
-0.0754988
-0.0429552
0.00191497
-0.0181928
-0.00830423
-0.0270941
-0.0570472
0.000289077
-0.00933443
-0.0563122
-0.0954262
-0.0949574
-0.0051253
-0.0395041
0.00388506
0.00136726
0.000553332
-0.0111319
0.00352646
0.000583615
-0.0181728
-0.0102604
-0.0204759
-0.0963667
-0.0726722
-0.00660954
-0.0327461
-0.0137406
-0.0276005
-0.023871
-0.0344377
0.00228753
-0.0133675
-0.00825553
-0.0381375
-0.0226559
0.00125947
0.000530706
-0.0723035
0.000691873
-0.0100185
-0.0384033
-0.00897743
0.00483176
-0.0058513
-0.00876463
0.00109533
-0.017892
-0.00284179
0.00139798
-0.00727921
0.0309993
0.00380705
-0.0766777
-0.0010279
-0.0414652
-0.0467017
-0.0297214
0.00103709
-0.00337929
0.0109051
0.00124993
-0.0116268
0.00975408
-0.00063332
0.000979892
0.00101881
0.000142724
-3.22121e-05
0.000817212
-0.0440474
-0.0221462
0.0046561
0.0132261
-0.039684
0.000939919
0.00101126
-0.0802509
-0.0669124
-0.0834388
-0.00344471
-0.0368678
-0.014405
0.00135117
0.000969918
0.00338262
-0.0521789
-0.0250063
0.00325683
0.00181894
-0.0305687
-0.0194327
0.00607823
0.000859365
-0.0913971
-0.0103605
0.000129194
0.00261744
-0.0812406
0.00218832
-0.035339
-0.0289192
-0.0202701
-0.0197377
0.00653676
-0.0140169
-0.0385315
0.0198208
-0.0679213
-0.00495042
-0.0741793
-0.0117361
0.00323341
-0.0492355
-0.037501
0.0087498
-0.0705564
0.000653339
-0.0416899
-0.0650552
4.78934e-05
0.00165543
-0.017586
-0.00292423
0.00157207
-0.029342
-0.0309681
-0.0111955
0.00246039
-0.0149462
0.000172683
-0.00517033
-0.0581974
0.0301492
-0.00184441
-0.000681156
-0.00083416
-0.0226973
-0.00405345
-0.0065419
-0.00662069
-0.0328085
0.00586327
0.000329487
-0.0736826
0.000774843
-0.000725261
-0.0586554
0.00209696
-0.0434305
0.0102159
0.000114847
-0.00455118
-0.0255018
0.00295817
-0.0770932
-0.0130976
-0.0430743
-0.00633769
-0.0884147
0.00134033
-0.0192082
0.000922353
-0.0606882
0.000489012
-0.0243908
-0.000627169
-0.00166058
-0.0411833
0.0016133
-0.0135543
-0.00462972
-0.00988765
-0.0054893
-0.0211017
0.00192794
-0.0233316
0.0150511
0.0023092
-0.0190235
-0.00718271
0.000451461
-0.000163044
-0.00130059
-0.0701363
0.000185947
-0.0192637
-0.00926885
0.000878696
0.00493429
-0.00627145
-0.0177247
-0.00102023
-0.0134912
-0.0572247
-0.0474116
-0.0904234
-0.020637
-0.0496158
-0.0660731
-0.00445755
-0.0375198
-0.0288205
0.00164859
-0.0142286
-0.00543393
-0.0172344
-0.0105647
-0.0362026
-0.0340137
-0.0216127
-0.0746396
0.000493103
-0.0303444
-0.00019857
-0.0367531
-0.0100631
-0.0282521
-0.00962026
-0.0186822
-0.0343194
-0.0166096
-0.00133325
0.00223163
0.00079435
0.000959371
0.00137893
-0.0361368
-0.0381214
0.00301334
0.000828471
-0.00641563
-0.00950507
-0.0182756
-0.0374943
-0.00502684
-0.0214104
-0.00210529
-0.0367222
0.00113468
0.0029687
-0.0596019
-0.0714585
0.00608472
0.0068023
0.00129557
0.000158206
0.00214031
-0.00961448
-0.0062642
-0.0554007
0.0120093
0.000564738
-0.00409648
0.000299593
0.00177313
0.00433835
-0.0414599
0.000166341
-0.00871906
0.00642841
-0.0228118
-0.00115253
-0.00458192
-0.0146617
0.00069973
0.00174395
-0.0491478
-0.0081893
0.000921814
-0.000832156
-0.0778847
-0.0203088
-0.0308966
0.0117907
-0.0792442
7.98096e-05
-0.0108421
-0.00692862
-0.000583527
-0.00665036
0.0255822
-0.0678922
-0.0032866
-0.0127165
-0.0701329
-0.0364578
-0.0135249
-0.0716797
-0.00215504
-0.00748851
-0.00378131
-0.0011996
-0.0267746
-0.0568593
-0.0253735
0.00109943
-0.0220893
-0.0356461
-0.026545
0.00130091
-0.0225639
0.00121386
0.0058469
-0.076786
-0.0782007
0.000811602
-0.0757937
0.000989326
-0.0438597
-0.00182311
-0.066642
0.0112293
-0.0255075
0.0144662
0.0013096
0.00170224
-0.0755371
0.00112782
-0.0499413
0.000199709
0.0011474
-0.0668173
-0.00238671
0.00326571
0.000895714
0.0284409
-0.0770532
-0.0226658
-0.0156106
-0.0565091
0.000821099
-0.0114854
-0.01063
0.000923421
0.000363474
0.00226754
0.000272507
0.00117127
-0.0513337
-0.00267175
-0.0596146
-0.0795211
-0.00859937
0.00124986
0.00184048
-0.00654575
-0.0127548
-0.000456979
0.00220786
0.00215577
-0.00531242
-0.00173221
-0.0396769
-0.0388646
0.00192643
-0.029778
0.00192657
-0.0334833
0.0300906
-0.08363
-0.000733978
-0.0485053
0.00114102
0.00122882
-0.0300986
-0.00270177
-0.0233026
-0.0764802
-0.00442651
-0.0387239
0.0013539
0.00130709
-0.0143218
-0.00777839
0.00748685
-0.00739258
0.000609758
0.00157313
0.000963034
-0.0253799
-0.073745
-0.034306
-0.00884026
0.00119679
-0.0239009
-0.0133802
-0.0269763
0.0012154
-0.00564142
-0.0747841
-0.00174152
0.00200562
-0.0259605
0.00126417
-0.00644111
-0.0779767
-0.00454665
0.00259671
0.000595968
0.00115732
-0.0283968
-0.00561167
-0.0166956
-0.00645002
0.00126544
0.000838498
-0.0837477
0.0277488
-0.00945046
-0.00915209
0.00124808
-0.0144382
-0.0043758
0.000464555
0.00320788
-0.00188529
0.00118673
-0.00652621
0.00112563
-0.000359519
-0.0143608
-0.00842856
-0.0186123
0.000624474
-0.0386119
0.00122873
-0.0418982
0.00267539
0.00220232
0.00107712
-0.0180889
0.00243972
-0.0072249
0.000596291
0.00109833
-0.0186286
-0.0835871
-0.0193049
0.000147782
0.00120471
-0.0435183
-0.0427788
0.0010449
-0.0821372
0.00774849
-0.0305041
0.000138399
0.00264519
-0.0312357
0.000155956
0.000427206
0.00679026
0.00752829
0.00117826
0.000593237
-0.00120199
0.00115101
-0.0247639
0.000349688
-0.0364432
-0.0764284
-0.000308643
-0.0382522
0.00780017
-0.0785041
-0.0357711
0.00395153
0.000844434
-0.0296672
-0.0110751
0.00114187
1.90361e-05
-0.00455528
-0.0812045
-0.00706894
-0.0356923
5.45965e-05
0.00599908
0.00308993
-0.0357875
-0.0345158
0.00285845
-0.0352574
0.000906977
-2.378e-05
-0.00130721
-0.0144035
-0.021775
-0.0732727
0.000994984
-0.037974
-0.0772526
0.00534931
-0.0140114
0.00136813
-0.0134809
-0.0461076
-0.000292146
-0.00751997
-0.000369057
0.00112108
-0.0117124
0.00499918
-0.00342662
-0.0171633
-0.00948931
0.00133803
-0.0812727
-0.00167333
0.00749693
-0.0625346
0.0059894
-0.0426591
0.00101683
-0.0894379
0.000996651
-0.070547
0.00179934
0.00132149
-0.000533707
-0.00454968
-0.0164453
-0.0254794
-0.0764669
-0.0240457
-0.0353878
-0.0566436
-0.0136066
-0.0426274
-0.0569202
-0.0251256
-0.0135992
-0.0788391
-0.0482624
0.00133032
-0.0750473
-0.0130697
-0.000848691
0.00336175
-0.0134852
-0.00490164
0.00113145
0.00224132
-0.00856302
0.00129163
0.00397126
-0.0653402
0.00543574
0.00221248
0.00251512
-0.0139668
-0.0569799
-0.000588404
-0.0183585
-0.00384279
-0.000738901
-0.00828972
-0.00730515
-0.0751237
0.00288824
-0.0103878
-0.0658212
-0.00692783
0.00115092
0.000643941
-0.0665185
-0.0761342
0.000937788
0.000377894
-0.039198
-0.0117833
0.00110836
-0.0739792
0.000945813
-0.000913764
-0.032208
-0.0104979
-0.0255931
0.00129381
-0.0188296
-0.0376701
0.00091126
-0.0247386
0.000228434
0.000926628
0.00879622
-0.0202615
-0.0655026
0.00109711
-0.00671164
-0.0416764
-0.104631
-0.0170818
-0.00573868
-0.0305843
-0.0134392
-0.060366
-0.0778901
-0.0868125
-0.00763829
-0.0882947
0.00116516
-0.00802175
0.00207394
-0.0670658
0.00221042
0.000133418
-0.0208263
-0.00607048
-0.0136319
-0.0182367
0.0012777
-0.0520911
0.0110346
0.000921072
0.00525667
0.00512362
0.00642224
-0.00451548
0.00109876
-0.02916
-0.018066
-0.0166624
-0.0794618
0.0101254
-0.0215638
0.000899224
-0.0835269
-0.00133039
-0.079889
-0.0285113
-0.0113568
0.00198737
-0.0439389
-0.0264803
-0.0772148
0.00236037
0.000745191
-0.0099639
-0.0184006
0.00193493
-0.0427167
-0.0448802
0.000945095
-0.0292495
-0.0171587
0.000986941
-0.0053537
0.0013441
0.00139694
-0.051353
0.00282715
-0.00198211
-0.00860277
-0.00709532