/*--------------------------------*- C++ -*----------------------------------*\
| =========                 |                                                 |
| \\      /  F ield         | OpenFOAM: The Open Source CFD Toolbox           |
|  \\    /   O peration     | Version:  v2012                                 |
|   \\  /    A nd           | Website:  www.openfoam.com                      |
|    \\/     M anipulation  |                                                 |
\*---------------------------------------------------------------------------*/
FoamFile
{
    version     2.0;
    format      ascii;
    class       surfaceScalarField;
    location    "300";
    object      phi;
}
// * * * * * * * * * * * * * * * * * * * * * * * * * * * * * * * * * * * * * //

dimensions      [0 3 -1 0 0 0 0];
oriented        oriented;


internalField   nonuniform List<scalar> 
41383
(
-0.00461499
0.107607
-0.102992
0.485705
-0.0986126
-0.387093
0.225973
-0.321519
0.0955465
0.32619
-0.456988
0.130798
0.0406656
-0.0412438
0.00057815
0.348647
-0.131005
-0.217642
0.385526
-0.0639124
-0.321613
0.188095
-0.28694
0.0988448
-0.074741
-0.0840761
0.158817
0.107464
0.107298
-0.214762
-0.461115
0.356339
0.104776
-0.0271389
0.0240896
0.00304924
0.0164559
0.000741966
-0.0353581
0.134547
-0.0991893
0.263045
0.0756376
-0.338683
0.300646
0.0848794
-0.215429
-0.203916
0.0249233
-0.0327149
0.00779158
0.0508898
-0.105785
-0.148261
0.00681523
0.141446
0.0885365
0.397169
-0.504391
0.40384
0.100551
-0.0987374
0.0941224
-0.0927837
0.026739
0.0660446
0.291627
0.124397
-0.416024
-0.301109
0.107035
0.194074
0.107438
-0.341062
0.233624
-0.104535
0.211999
0.455255
-0.163628
0.119405
-0.129544
0.0101394
0.381061
-0.163665
-0.217396
0.151116
-0.381133
0.230017
-0.0473631
0.0580321
-0.010669
-0.0748836
-0.200009
0.274892
-0.053671
0.00630798
-0.122867
-0.237008
0.359875
-0.214542
-0.0404341
0.254976
0.284595
-0.0287054
-0.255889
0.161661
0.2194
-0.335304
0.221881
0.113423
-0.319044
0.157177
0.161867
-0.157057
-0.178247
-0.0312823
0.0231168
-0.0820906
0.298257
-0.216166
0.409374
-0.339894
-0.0694794
0.0808145
-0.337477
0.256662
0.00825854
0.0643949
-0.0726535
0.245283
0.0460179
-0.291301
-0.327491
0.4376
-0.110109
-0.156367
-0.0728579
0.229225
0.0241869
0.124883
-0.14907
0.340851
0.0685222
-0.0892344
0.383943
-0.294708
-0.368832
-0.031443
0.400275
-0.217294
0.332874
-0.11558
0.0901231
-0.328597
0.238474
-0.00169126
0.153328
-0.034375
-0.118953
-0.396413
0.366518
0.0298958
0.0104294
0.00110229
0.254848
-0.377715
-0.367686
-0.0287273
0.315465
-0.400111
0.0846465
-0.110007
-0.248262
0.358268
-0.00784723
0.0327705
-0.0933106
0.0877163
0.00559429
0.00183739
-0.0173644
0.015527
-0.0223795
-0.230003
0.252383
0.0348442
-0.0436885
0.00884431
-0.150291
0.378739
-0.228448
-0.158969
0.424115
-0.265146
0.0634564
-0.0682196
0.00476322
0.24422
-0.111528
-0.132692
-0.0499754
-0.0246621
0.0746376
0.355107
-0.427167
0.0720604
0.0394468
0.119509
-0.158955
0.275757
0.00883775
-0.0168849
0.0187223
0.105382
-0.261749
0.328773
-0.0281266
-0.025242
0.0225269
0.00271514
0.341689
-0.193317
-0.148371
0.422192
-0.335971
-0.0862207
0.0444935
0.108835
-0.051991
-0.328659
0.38065
0.209899
-0.178941
-0.030958
-0.348678
0.0908014
0.257877
0.111021
-0.328315
0.0665771
-0.00312075
0.00723385
-0.0668555
0.0596216
-0.0405348
0.0440391
-0.00350431
0.420432
-0.0539144
-0.0323954
0.212559
-0.180164
0.287668
0.0411052
-0.478789
0.109957
0.131846
-0.350502
0.218656
0.140297
0.0401862
0.0397169
0.000948688
-0.0987851
-0.055924
0.0641825
0.172345
0.169344
0.268296
-0.22116
-0.0471358
0.188217
-0.0656184
-0.122598
0.416641
-0.0487129
-0.367928
0.064724
-0.0574902
0.0524105
0.368021
-0.282263
0.382755
-0.100492
0.0499417
-0.124683
0.0979737
-0.336708
0.238735
-0.117309
0.138166
-0.0208565
0.295495
-0.000705696
-0.294789
-0.0876987
0.350744
0.193464
0.0748317
0.165249
-0.197644
0.44209
-0.0956482
-0.346442
-0.141657
0.0277142
0.113943
0.162087
-0.0323752
-0.129712
0.444416
-0.370001
-0.0744153
0.117565
-0.140474
0.0229087
0.0160434
-0.164305
0.0211623
-0.0195354
-0.00162693
-0.0448071
0.00427231
0.105167
0.0115647
-0.433262
0.0845836
0.0547359
0.230698
-0.285434
0.430086
-0.139927
-0.290159
0.100189
-0.101677
0.00148884
-0.44523
0.336088
0.109142
0.0170349
0.00158434
-0.0186192
0.00220749
0.0189548
0.146671
0.0415453
0.112644
-0.00747674
0.230124
-0.370428
0.140304
-0.12982
0.234172
-0.104352
0.0947009
-0.232359
-0.054844
0.287203
0.373832
-0.211306
-0.162526
0.350634
-0.39551
0.0448767
-0.167288
0.215656
-0.0483677
-0.0151674
0.106306
-0.0911385
0.0440638
0.218587
-0.262651
0.319545
-0.212107
0.311813
0.118274
0.449442
-0.375784
-0.0736579
0.0560691
0.386021
-0.0277205
0.164188
-0.136467
0.149395
0.224438
-0.154599
-0.090914
0.245513
0.101499
-0.441394
0.377206
-0.147082
-0.192592
-0.268523
-0.009565
0.254848
-0.0462413
0.173059
-0.126817
0.204325
-0.226705
-0.128576
0.144619
0.347262
-0.134319
-0.212942
0.230126
0.0227913
-0.252917
-0.0549905
0.0667048
-0.0117143
-0.122138
0.00482853
0.0532265
0.0138087
-0.0670352
0.0853107
0.0148778
0.0166017
0.210638
-0.000739916
-0.0443865
0.161952
0.212283
-0.427712
0.304725
0.0599926
-0.364718
0.0311196
0.413296
-0.22291
0.313033
-0.204686
0.315196
-0.11051
-0.128316
0.135132
0.356105
0.0605367
-0.0247329
0.18682
0.399431
-0.0523952
-0.347036
-0.134058
0.0113939
0.122664
-0.330362
0.146289
0.184072
-0.0087301
-0.0245114
0.0332415
-0.0493751
0.354101
0.150763
-0.137308
-0.0134547
-0.0716925
0.412544
-0.016698
-0.197844
-0.0449753
-0.0478083
0.0410003
0.117472
-0.158473
0.125201
-0.138853
0.0136513
-0.202539
0.174819
0.332525
0.0669062
0.104477
0.00223973
-0.106717
0.119756
0.227506
-0.495976
0.117079
0.378897
-0.048264
-0.0504617
0.0987257
0.0834075
-0.0933183
0.00991078
0.323866
-0.420573
0.0967066
0.310417
-0.159191
-0.151226
-0.123384
0.115589
0.00779503
0.0861268
-0.189148
0.103021
0.540377
-0.244137
-0.29624
0.213175
0.00870576
0.288282
0.252095
0.355142
-0.426835
0.0938976
0.225986
-0.319884
0.107352
0.212193
-0.0277079
0.0342583
-0.00655043
-0.211048
0.0499067
0.161141
0.320196
-0.394879
0.0746827
0.213584
-0.10255
-0.111035
-0.326165
0.0943616
0.231803
-0.110842
-0.00250545
0.113347
-0.198693
0.152451
-0.0404397
0.0749094
-0.0344698
0.387497
-0.400273
0.0127753
-0.0015816
0.012011
0.41983
-0.410964
-0.00886635
-0.0920518
-0.00247394
0.0945257
0.0332984
-0.0420285
0.127553
0.0232093
0.0378081
-0.0860722
0.128102
-0.373461
0.245359
0.324195
-0.436254
0.11206
0.175813
0.111855
0.325921
-0.194075
-0.223526
-0.107245
0.330772
0.0191337
-0.00209881
0.487346
-0.0948917
-0.392454
0.108789
-0.00431159
0.128286
-0.0654851
-0.0628006
0.108999
-0.0770309
0.427665
-0.413002
0.139155
0.171262
0.3324
-0.251586
0.271334
-0.223525
-0.0478094
-0.315258
0.401696
-0.0864382
-0.186541
-0.163961
0.0129792
-0.134402
0.121423
0.160856
-0.109966
0.0849886
-0.100156
-0.462135
0.358848
0.103287
0.0293681
-0.0698078
0.0441119
0.0139202
0.378187
0.0276563
-0.405843
0.0936551
0.242553
-0.336208
-0.137726
-0.000887994
0.138614
0.0118449
-0.149571
-0.244022
0.378906
-0.134884
0.405544
-0.419031
0.0134871
0.0541322
-0.0100203
-0.0420658
0.397208
0.445034
-0.12084
0.31648
-0.140667
0.330164
-0.104191
0.112208
-0.129212
0.0170044
0.154616
-0.064397
-0.0902193
-0.104687
0.106412
-0.00172468
-0.229839
0.323494
0.399145
-0.0729553
0.0424645
0.298721
-0.341185
0.308954
-0.360945
0.403897
-0.231552
0.0737822
0.139802
0.330747
0.104868
0.0497483
0.133185
-0.248295
0.11511
-0.0182134
-0.00072711
0.0189405
-0.0793858
0.466883
-0.0255751
0.032718
-0.00714297
0.147943
-0.157215
0.00927241
0.00320058
0.0501741
0.174378
0.312969
-0.168701
0.0113373
-0.450554
0.19772
0.252834
0.00948256
0.0968233
-0.358259
0.155998
0.202261
0.186426
-0.1003
0.00149217
0.0555079
-0.057
0.134483
0.106871
-0.241354
-0.12351
0.121936
0.00157344
0.0106352
-0.0528894
0.361843
-0.100191
0.0081394
0.141458
-0.00532499
-0.136133
0.107792
-0.29791
0.190118
0.219991
0.0768228
-0.296814
-0.024387
0.0831562
-0.0587692
0.246526
-0.145035
-0.101491
0.155802
0.248095
-0.0413067
-0.171
0.212307
0.167226
-0.15167
-0.0155559
0.341888
-0.442117
0.10023
0.271547
-0.467054
0.195506
-0.269795
0.194912
0.503339
-0.229202
-0.274137
-0.169821
-0.0427435
0.212564
0.194023
0.309316
0.0775573
0.190195
-0.267752
-0.054113
-0.087544
0.0538175
-0.382477
-0.0120805
0.0104989
-0.342356
0.425772
-0.0834157
-0.0772937
-0.0160169
0.0534785
-0.210523
0.157045
0.281342
-0.37447
0.0931273
-0.0390397
0.0922662
0.1142
0.046656
0.0300223
-0.197311
-0.132688
0.265873
0.0336743
-0.0285034
-0.00517094
0.149761
0.0573799
-0.207141
-0.137104
0.271587
-0.120542
0.177454
-0.056912
-0.103744
0.105068
-0.00132398
0.0820506
-0.0921641
0.0101134
-0.21249
0.0826703
0.354205
-0.183056
-0.17115
0.339727
0.0801035
-0.150395
0.0298527
0.100801
0.00680555
0.117317
-0.124297
0.00697942
0.0713654
-0.106723
0.169278
-0.4133
-0.228191
-0.31333
0.4059
-0.0925696
-0.333249
0.450169
-0.11692
0.293968
-0.372911
0.0789432
0.413065
-0.0358587
0.000676667
-0.0188901
0.0732227
0.339842
0.300769
-0.206407
-0.0174633
0.132725
-0.115262
-0.262256
0.343759
-0.0815024
-0.0501669
-0.00793078
0.0580976
-0.353049
-0.0445337
0.397582
-0.172656
0.0181478
0.154508
0.0309531
0.0973326
-0.0394045
-0.0946533
0.102661
-0.0206107
0.288621
0.0540194
-0.34264
-0.0748962
-0.00522471
0.0801209
0.284912
-0.423788
0.138876
-0.0614715
-0.282533
0.344004
0.0342615
-0.0311942
-0.00306731
-0.0159801
0.167878
-0.240736
-0.0600596
0.0760107
-0.0159511
0.264697
-0.174375
-0.0903225
0.0700265
-0.0659176
-0.00410882
-0.00942447
0.286157
-0.276732
0.208014
0.108466
-0.0925628
0.0270826
0.0654802
-0.445451
0.277996
0.167455
0.0442221
-0.0345832
-0.00963888
0.248702
-0.193967
0.15505
-0.264009
0.108958
-0.00811059
-0.259554
0.267665
-0.332826
0.202134
0.130692
-0.394499
0.0889043
0.305594
-0.0471193
-0.0454435
0.410211
-0.436705
0.0264942
-0.292054
0.42122
-0.129166
0.285497
0.0235381
-0.309035
-0.211255
-0.0364847
0.247739
-0.402475
0.110422
-0.0113078
0.128223
-0.116915
-0.481874
0.237737
0.213741
-0.365629
0.151888
0.31279
-0.322215
-0.209599
0.168293
0.134207
0.00725148
0.418022
-0.307
-0.0730907
0.361712
0.00386431
0.0661621
0.164666
-0.0209859
-0.14368
-0.0720539
0.0613224
0.0107315
0.275094
0.000662891
0.0336963
0.000562048
0.178861
-0.0141952
0.323184
-0.0276891
0.12965
-0.175237
0.045587
0.267316
0.0846268
-0.351943
-0.0799688
-0.416007
-0.299106
-0.182768
-0.225586
0.217475
-0.292181
-0.09878
0.390961
0.301114
0.120801
-0.421915
-0.482413
0.378884
0.103529
0.0727218
-0.053295
-0.0194269
0.0584537
-0.310694
0.252241
-0.0719635
0.357461
-0.237766
0.0893705
0.148395
0.286069
0.0653746
-0.351444
-0.25474
0.328378
-0.0736387
0.216015
-0.066254
-0.00482044
-0.236369
-0.0909713
0.32734
-0.0561727
0.00600581
0.105255
0.159443
0.00931248
0.445809
-0.388451
-0.0573585
-0.0291873
-0.0941965
0.00154664
0.0146557
-0.0721709
0.35824
-0.176844
0.0276436
0.149201
-0.328642
0.123956
0.477204
-0.191047
-0.108654
0.149654
0.0893914
-0.0206484
-0.068743
0.0486005
0.197926
0.150885
-0.0285743
-0.122311
0.0105538
0.000540553
-0.0110944
0.333399
-0.119658
-0.0213868
0.00185135
-0.0100157
-0.00735444
0.0173701
0.0340229
0.319599
-0.353622
0.189354
0.136567
0.0879708
-0.127999
0.110536
0.33327
0.116172
0.214515
0.262688
-0.0124674
-0.0188149
0.307109
-0.0990946
0.315386
-0.256932
-0.168061
-0.133048
-0.110091
-0.326163
-0.18594
0.232413
-0.34242
-0.0213075
0.0203327
0.000974729
-0.293456
0.211365
0.158095
-0.133908
0.396393
-0.111481
0.210382
-0.103653
-0.106729
-0.29227
0.326293
0.083959
-0.327389
0.24343
0.409938
-0.409938
-0.183881
-0.135513
0.319394
0.0774603
0.00380428
-0.0812646
0.25571
0.0746133
-0.330323
-0.0837879
0.339497
0.138185
-0.0129836
0.122701
-0.116182
-0.00651929
0.265576
-0.11446
-0.477412
0.373249
0.104163
0.376336
-0.345216
-0.0119328
-0.0868046
0.390455
-0.129998
-0.260456
0.428168
-0.0406529
-0.387515
-0.114344
0.346758
0.087755
-0.0856431
-0.00211184
-0.0417407
-0.0886576
0.130398
-0.00593309
0.0492963
-0.0483386
-0.000957744
0.153862
0.291172
-0.0155437
-0.00969834
-0.458589
0.301355
0.157234
-0.0116194
0.117249
-0.105629
0.129627
-0.116648
-0.0758867
0.369855
7.9959e-05
0.275014
0.312682
0.10534
-0.097127
-0.208039
0.305166
-0.200859
-0.207028
0.407886
0.155511
-0.000160872
-0.15535
-0.0615847
-0.117687
0.179271
-0.206983
0.16437
-0.0141282
-0.150242
-0.161755
-0.283475
0.121142
0.269313
-0.35815
0.329483
0.0986852
-0.155223
0.177917
-0.0226939
0.394806
-0.0184703
-0.101996
0.316045
-0.214049
0.0765932
-0.0057958
-0.0707974
0.277193
-0.396161
0.118968
0.0456166
-0.256871
-0.361228
-0.00920051
0.0108057
-0.0119407
0.339494
-0.400965
0.226482
-0.133706
-0.092776
-0.0718322
0.00029112
0.0715411
0.123932
-0.296381
0.110828
0.185553
-0.00388573
-0.00440911
-0.365862
0.446618
-0.080756
-0.153655
0.261447
0.247473
-0.0943918
-0.153082
0.0158887
-0.087721
0.332478
-0.204376
-0.0568231
-0.251784
0.308607
-0.42049
0.340039
0.0804511
-0.220726
-0.120336
-0.0304126
0.0048375
-0.368898
0.00767017
-0.00570641
0.0304052
-0.0246988
0.349054
-0.428887
0.0798328
-0.0714356
-0.23097
0.314929
-0.299247
0.0992382
-0.0184489
0.00843319
0.121408
-0.125075
0.00366644
-0.277663
0.0982142
0.179449
0.0869679
-0.0731592
-0.361581
-0.0673065
0.0523288
-0.0508366
0.366196
-0.453257
0.0870607
0.101728
0.0952958
0.00736555
0.253232
-0.0981821
0.258485
0.0901625
-0.21201
0.0421888
0.13642
0.00256583
-0.138986
0.0819181
-0.356524
0.274606
0.387948
-0.0640816
0.00586955
0.0835218
0.407102
-0.0519947
0.148737
0.0669188
0.389851
0.0559582
-0.124966
0.0832249
0.165261
-0.000890838
-0.292541
0.00801378
0.284527
0.284268
-0.0961727
-0.103194
-0.210539
0.313732
-0.0330308
-0.139625
-0.251034
-0.19952
-0.527039
0.297837
-0.19231
-0.0716985
0.0346222
0.0847828
0.0311092
-0.0255224
-0.00558683
-0.106557
-0.0418978
0.148455
0.0848177
0.159402
0.401982
-0.348204
-0.0537781
0.214994
0.0623116
-0.277305
0.0261229
-0.0318293
-0.265285
0.340922
-0.13088
0.139775
-0.00889542
0.0945988
-0.330866
0.236267
-0.228318
-0.272588
0.420689
-0.148101
-0.079035
0.058768
0.020267
0.409959
-0.108845
0.0656664
-0.327923
0.337732
0.0642495
0.0904719
0.00482388
0.398915
-0.39953
0.000614233
-0.0180094
0.140468
-0.122458
0.0749633
0.00844422
0.0107909
0.11191
-0.0997675
0.0904962
0.00927136
0.0138265
0.0186306
-0.0324571
0.0949699
-0.0272804
-0.0676895
-0.0791161
-0.0504284
0.0566734
-0.0697381
0.0130647
0.0713884
-0.337886
0.266498
-8.49669e-05
0.193609
0.0538646
-0.227624
0.0776231
0.150001
0.451129
-0.0729418
-0.260325
-0.244066
0.176766
0.112703
-0.289469
-0.0347371
-0.191281
0.226018
0.336038
-0.117947
-0.218091
-0.23279
0.312219
-0.221418
-0.405075
0.113774
0.291301
0.371367
0.0241167
-0.395483
-0.149061
-0.00444363
0.151184
-0.14674
0.0015227
0.0711991
0.0503871
-0.0595063
0.00911924
0.0230064
-0.0157206
-0.00728582
-0.00962323
0.0444674
-0.00288845
-0.0852036
0.0743753
0.0108283
-0.121782
-0.0354334
0.00913802
0.0245582
0.233005
-0.286543
0.0535372
0.00504482
-0.103704
-0.301372
0.0293111
-0.0797728
0.0540423
-0.233356
0.309579
-0.0762235
-0.193835
0.181113
0.0127218
0.0327702
-0.0159769
-0.0167933
0.100365
-0.10168
0.00131479
-0.458462
0.154979
0.303483
0.0203028
-0.0753516
-0.00947431
0.0848259
0.055108
-0.079495
-0.202457
0.0816856
-0.00422534
-0.285995
-0.172467
0.207723
0.0452009
-0.252924
0.0112697
0.0890954
-0.386422
0.284624
0.101798
-0.195139
0.272696
-0.0079828
-0.075362
0.0833449
-0.264566
-0.0453497
0.222864
-0.177514
-0.109092
-0.267792
0.376884
-0.020412
-0.053426
0.073838
0.135959
-0.336818
-0.00740897
0.333908
-0.105254
-0.228654
-0.00543477
-0.015952
-0.16463
0.0375288
0.127101
-0.138104
0.0163218
0.0736922
0.213092
-0.286784
0.0313692
0.0128529
-0.259001
0.197081
0.0619207
-0.221543
0.267353
-0.0458104
-0.0691212
-0.139026
0.0142456
0.12478
-0.0897481
0.429787
0.0960676
-0.329881
0.233813
-0.0666824
0.0959934
-0.228334
0.182984
0.0273306
-0.0307817
0.00345111
-0.0231571
-0.00398177
-0.384351
0.275259
-0.0830061
0.202815
-0.119809
-0.171127
-0.0399205
-0.0508019
-0.0276599
0.0784618
0.44262
-0.44262
-0.0376566
-0.0283925
0.066049
0.116439
0.0217455
-0.0606212
0.0608186
-0.000197417
-0.331916
0.0985606
-0.0578023
0.265525
0.109493
-0.0274232
-0.08207
-0.021618
-0.0457793
0.0673973
-0.0835685
0.00821694
-0.278772
0.30045
-0.0216783
0.0320208
-0.114225
0.0822045
-0.135335
0.102959
-0.0971362
-0.00877251
0.105909
0.445002
-0.175753
-0.269249
0.0527833
-0.0476978
-0.00508554
-0.26979
-0.00898179
0.308309
-0.131542
0.0693463
0.0968445
-0.166191
-0.0731021
-0.31359
0.386693
-0.00129379
0.0374748
-0.036181
-0.0844223
0.0243626
0.168156
-0.153431
-0.0147253
-0.0304596
-0.0474406
0.0779001
0.105272
-0.11658
0.0219965
-0.0217226
-0.000273906
0.37046
-0.276562
0.30221
-0.375312
-0.0959642
0.09262
0.0033442
-0.104223
0.0857789
0.0184437
0.0493979
-0.0412871
-0.00811087
0.259102
-0.341502
0.0824006
0.421
-0.105535
0.375141
0.0304029
-0.0598345
0.364471
-0.304637
0.190453
-0.35547
0.165017
0.279023
0.123347
-0.338779
0.215433
-0.0890652
-0.192563
0.281628
0.0551111
-0.00472399
0.00047826
-0.135409
0.134931
0.0260507
0.383887
-0.148732
0.0421741
-0.119379
-0.0872425
0.206621
0.157335
-0.117888
-0.1364
0.00417796
0.132222
-0.3712
0.311365
-0.27737
0.0450114
-0.0527149
0.131985
-0.00357136
-0.128414
0.0593733
0.107853
0.131449
-0.379555
0.248106
0.0151576
-0.355867
0.34071
0.400564
0.00738191
-0.407946
-0.183307
-0.0544582
-0.170194
0.360648
-0.404129
0.103526
0.300602
-0.118135
0.136871
-0.0187357
-0.157227
-0.0940565
0.100131
-0.00607407
-0.0362499
0.14315
-0.1069
0.0353362
-0.0215097
0.0191846
-0.0223488
0.00316426
-0.0982492
0.107732
-0.117775
0.390052
-0.272276
0.0582874
-0.346006
0.287719
0.40135
-0.44932
0.0479698
-0.203782
0.455971
-0.252189
-0.183432
0.151348
-0.00102275
-0.150325
0.111344
-0.100553
-0.00164595
-0.0196615
-0.290471
-0.381233
0.290747
0.0904862
-0.0801633
0.0597513
-0.0156765
0.387043
-0.339703
-0.0935591
0.343668
-0.0845661
-0.0995705
0.0795208
0.0200497
-0.108637
-0.222229
-0.192204
0.0716294
0.120575
-0.21944
0.290829
0.284163
-0.373397
0.309629
-0.432001
0.122372
0.152579
-0.177312
0.0815775
0.0133923
-0.0167581
0.133197
0.330156
-0.1821
-0.148056
-0.0460388
0.0569098
-0.010871
-0.0574942
-0.11935
0.0018018
0.0545225
0.050088
-0.10461
0.166246
-0.316537
0.0266071
-0.0279009
0.0357719
-0.0285468
-0.00722514
0.0709851
-0.0789679
0.126021
-0.146566
0.020545
-0.0373145
0.0372588
5.57305e-05
-0.034009
0.390348
0.235357
-0.0739132
-0.161444
-0.0494548
0.168963
-0.0471789
0.0553091
-0.00813026
0.209508
-0.0843514
-0.125157
-0.0242983
0.138436
-0.114138
0.289226
0.0895129
-0.118252
0.0436864
-0.00410642
-0.03958
0.116163
-0.119172
0.00300898
-0.00241703
-0.0327465
0.0351635
-0.0170478
0.134975
-0.117927
0.125888
-0.0536367
0.202592
-0.169605
-0.0329875
-0.115429
0.392622
0.238373
-0.153555
0.0786364
0.293548
-0.372184
-0.0507272
-0.285406
0.336133
-0.0129238
0.168435
-0.490825
0.157395
0.333429
-0.00757522
0.0577317
-0.0501564
0.416652
-0.186795
-0.229857
0.071523
0.137985
-0.00488284
0.0289725
-0.186618
-0.270371
-0.348791
0.0940509
0.152937
-0.00158914
0.00327351
-0.0227746
0.0195011
-0.115223
0.00790132
0.107322
0.365469
-0.0986016
-0.266868
0.296392
-0.347119
-0.156451
0.132153
0.190979
-0.119388
-0.0715904
-0.000114233
-0.100919
0.101033
-0.00972906
0.109021
-0.0992917
0.325139
-0.390665
0.0655257
0.134102
-0.014572
-0.11953
0.277304
0.0528599
0.0636168
-0.182996
-0.137081
0.129042
0.00803904
0.0432003
-0.404781
-0.0159509
0.123005
-0.107054
0.409725
-0.110054
-0.299671
-0.0433288
0.0566227
-0.0132939
0.0226741
-0.00348948
-0.2967
-0.0844325
-0.236639
0.226667
0.00997193
0.358611
-0.248636
-0.109975
-0.451197
0.451197
0.00453747
0.0119185
0.277565
0.0810465
0.193816
0.13634
-0.392979
0.385706
0.00727284
-0.127348
0.129842
-0.00249423
0.00103245
0.012706
-0.0137385
-0.00396264
0.407803
0.198223
-0.329228
-0.136724
0.151929
-0.0152054
0.0888141
-0.104765
-0.427456
0.223541
-0.13747
0.000745864
0.206261
-0.057524
-0.466037
0.193448
0.233001
-0.350776
0.0454093
-0.0139043
-0.0315049
-0.02458
0.177159
-0.399993
0.0576367
0.377151
-0.377151
-0.157712
-0.065813
0.0197203
-0.142249
0.122529
-0.192199
-0.157696
0.349895
-0.058852
0.178806
-0.0830181
-0.0957878
0.0325911
-0.00381868
-0.0287724
0.108301
-0.0704933
0.00127384
-0.111254
0.10998
0.0218729
0.0864284
-0.38653
0.239903
0.146627
0.112058
-0.195064
0.0781016
-0.270301
0.0954222
0.270047
0.0718287
-0.337068
0.265239
-0.0601599
-0.00284436
-0.0756057
0.0784501
0.1385
-0.11878
-0.0822361
-0.0118204
0.0915705
-0.0622023
0.370152
-0.0791845
-0.290967
-0.43142
0.278929
0.152491
-0.0984357
0.0983776
5.81073e-05
0.00101556
0.111192
-0.139499
0.411838
-0.27234
-0.0984372
-0.259663
0.3581
-0.112401
0.0905687
0.0218327
0.17462
-0.145712
-0.0289072
0.386229
-0.0610897
0.101372
0.281383
0.0713791
0.288045
-0.359424
-0.359984
0.405914
-0.0459301
0.404565
-0.0220776
-0.382488
-0.208954
0.282646
-0.0985175
-0.0255807
0.124098
-0.278908
0.350737
-0.0922953
0.263493
-0.171198
-3.73006e-05
0.0305299
-0.0304926
0.0577769
-0.0497558
-0.00802115
0.00342608
0.0302483
0.39615
-0.110643
-0.285506
0.120072
-0.122078
0.00200587
0.195932
0.00666033
-0.198547
-0.0586618
0.257208
0.0280064
0.116497
-0.144504
-0.159527
-0.186116
0.345643
0.0233919
-0.0741938
0.00814405
-0.143712
0.135567
-0.0517458
-0.175878
0.498102
-0.209988
-0.288114
0.203377
0.294725
0.0136548
0.058528
-0.0721828
-0.135123
0.143267
0.0527602
0.00501674
-0.223767
-0.0977519
0.101991
-0.415321
0.144546
-0.160524
0.0159782
0.00877693
-0.362866
0.354089
-0.100412
-0.243755
0.344166
0.0148936
0.00811282
-0.0558159
-0.0437546
0.0880548
-0.0914203
0.00336546
0.361909
-0.303405
-0.0585043
0.343928
0.0566355
-0.00894433
-0.35104
-0.335981
-0.0194896
0.224731
-0.0311223
0.0814665
-0.11326
0.0317933
-0.0358322
-0.0414615
-0.0519524
0.222346
-0.336691
0.105532
0.00581175
0.0709847
-0.266123
-0.072629
0.287623
-0.158261
-0.0216688
0.17993
0.00164419
-0.0301476
0.118446
0.0282603
-0.146706
0.356923
0.0327838
-0.389706
0.135094
0.0558844
0.311453
0.0982723
0.35895
-0.287571
0.00560447
0.104971
-0.105085
0.393429
-0.414446
0.0210167
0.105847
0.172468
-0.278315
-0.098609
0.111511
-0.0129019
0.075408
-0.0748888
-0.000519249
0.118203
-0.143555
0.0253522
0.0369213
-0.0043302
0.100653
-0.170344
0.0696904
0.110375
0.0482908
-0.158666
-0.0456631
0.0591304
-0.0134673
0.287762
-0.112574
-0.175188
-0.00677892
-0.22986
-0.315126
0.133455
0.18167
0.0931371
-0.102866
-0.0054923
-0.186073
-0.0611459
0.247219
0.0790983
-0.0654434
0.080293
0.163567
-0.24386
0.109542
-0.0489927
-0.060549
-0.256349
0.257954
-0.358366
-0.0568951
0.0108563
-0.330055
0.0163807
0.313674
-0.0701121
-0.272813
0.371132
-0.0983191
0.402774
-0.00142367
0.0924681
0.303682
-0.0186467
-0.000214726
0.0188614
0.00887729
0.215854
0.118297
-0.0368308
0.195436
-0.354405
0.25176
0.0919072
0.106435
-0.454639
-0.49726
0.201515
0.295745
-0.208917
-0.288343
0.243946
0.112743
0.0660627
-0.232804
-0.153726
0.301622
-0.0816311
0.322501
-0.227315
-0.0951859
0.264873
-0.256096
0.0716046
-0.0149312
0.120049
-0.120587
0.000537921
-0.152968
0.0235553
0.129412
-0.151779
0.234942
-0.0831631
0.331786
0.0923286
-0.396944
0.136385
0.260559
-0.0318157
0.188317
-0.156501
-0.185394
0.291241
0.0639106
-0.475744
0.200856
0.274888
-0.350474
0.0144933
0.156577
-0.188392
-0.0010099
0.0115638
0.372693
-0.352887
-0.0198061
0.0347634
0.116121
-0.420806
0.380153
-0.396374
0.0811158
0.168148
-0.207017
0.0388685
-0.403486
0.091737
0.311749
0.0528704
-0.0486311
-0.00423925
0.350463
-0.381906
-0.288139
0.420014
-0.131876
0.00553406
0.069874
0.365072
0.0451395
0.0314915
-0.0531095
0.134923
-0.14687
0.011947
-0.0740477
0.0980573
-0.0240095
0.039119
0.00629023
0.306804
-0.0912077
-0.303291
0.0823926
0.00248924
0.0859559
-0.0884451
0.0225568
-0.0966046
0.175595
-0.210333
-0.335437
-0.0600731
-0.113949
0.00180451
0.00680422
0.365888
0.241015
-0.160722
-0.0221408
0.388337
0.356954
0.0269889
0.198171
-0.0149627
0.101792
-0.0868296
0.0211542
-0.257293
0.236139
0.410098
-0.320668
-0.0894296
0.431305
-0.0952171
0.136505
-0.140948
-0.0539614
0.0106325
-0.000194971
0.163581
-0.158645
-0.00493648
0.343809
-0.26189
0.0738534
0.242602
-0.316456
-0.32963
0.432842
-0.103211
-0.0945177
-0.0346944
-0.0576505
0.334245
-0.276595
0.327296
-0.406681
-0.299952
0.197956
0.0245418
0.108184
-0.0360641
-0.101017
-0.121637
-0.299169
-0.138077
0.02023
0.117847
0.289143
-0.346793
0.416105
-0.106476
-0.0741597
0.0699365
0.00422317
0.345544
-0.0937839
-0.0314214
-0.121546
-0.19219
-0.269945
0.0656278
0.0345712
-0.100199
0.24251
0.119399
0.0804674
0.0441023
0.00519398
-0.336651
0.250571
0.0860796
0.250356
0.0721448
-0.260717
-0.136227
0.0289748
-0.308834
0.211707
0.339787
-0.225371
-0.114416
0.20967
0.131709
-0.0116373
-0.0897571
0.397881
-0.308124
-0.0250655
0.0801735
-0.130696
-0.273433
-0.0694364
0.411324
-0.0786751
0.179328
-0.0506955
0.0444357
0.0062598
0.0306665
0.0203277
-0.0509942
-0.201092
0.222246
0.0278466
0.00792528
-0.00389319
0.015358
-0.0114649
-0.0259093
0.160832
-0.276036
-0.32402
-0.082233
0.406253
0.00934594
-0.00880539
-0.0298782
0.0252712
0.00460698
-0.0316651
-0.177934
-0.273371
0.247118
-0.0700336
0.341581
0.50616
-0.217318
-0.288842
0.199441
0.306719
-0.354641
0.266943
0.00103921
0.137397
0.0508225
-0.330246
0.279423
0.129855
-0.144996
0.0151413
-0.0586288
0.0701634
-0.0115346
0.032347
-0.398209
-0.407348
0.346377
0.0609714
-0.0719462
-0.351426
0.423372
-0.04631
0.405158
-0.143226
0.0146504
0.0627962
0.0229596
-0.0857559
-0.341651
0.437635
-0.0959838
-0.432624
0.164197
0.268427
-0.000352344
-0.395966
-0.234377
-0.256448
0.246795
-0.266979
0.0678332
-0.253906
0.0839936
-0.0665385
-0.0336527
-0.286246
0.054053
-0.036968
0.364264
-0.396942
0.0436838
0.00918662
-0.129901
-0.00912478
0.295621
0.100771
-0.262417
0.334565
-0.0721486
-0.442852
0.286209
0.156643
0.166398
-0.0560222
-0.210756
-0.104369
0.369601
-0.102285
-0.0713291
0.0601984
0.0111307
0.0893238
0.149049
-0.142308
0.125404
0.0169044
0.0987139
-0.0330862
-0.147617
0.212552
-0.064935
0.378601
0.0116771
-0.390278
-0.0241324
-0.0195561
0.0160298
0.0118276
-0.0278574
0.244122
0.0956654
-0.125783
0.00419283
0.12159
-0.143084
0.142923
0.326195
0.0432298
-0.369424
-0.195488
0.217322
-0.0218346
0.323311
-0.420088
0.0967773
0.324731
-0.0987449
0.00883023
0.0348561
0.130452
-0.192036
0.0682729
-0.274306
0.206033
0.106787
0.00197602
-0.108763
0.132523
-0.323358
0.190834
-0.0158524
-0.0211807
0.0518472
0.0421779
0.180414
-0.222592
0.292453
-0.169106
-0.117202
-0.282909
-0.27108
-0.101067
0.372147
-0.152094
-0.00312963
-0.219665
0.0759596
0.143706
0.0916858
-0.103305
0.00396413
0.0305676
-0.0345317
0.10342
-0.395601
-0.323222
-0.076431
0.399653
0.326885
0.219498
-0.251163
-0.0226515
-0.103131
-0.283847
0.17521
-0.390087
0.114995
0.275092
0.0190904
-0.0191277
0.001599
0.0143226
-0.0159216
-0.210446
0.146632
0.0638137
-0.00789846
0.0959533
-0.492598
0.197308
0.29529
-0.204546
-0.288052
0.0509698
0.00433928
0.0113209
-0.0123309
-0.118027
-0.0424039
0.160431
0.151359
-0.0979947
-0.0533638
-0.355654
0.200106
0.155548
-0.0218121
0.0249797
-0.00316769
0.0736642
-0.0792101
0.00554593
0.0828256
-0.0200294
0.126451
-0.00451463
0.116562
0.00988949
0.330231
-0.427252
0.0970207
-0.0930203
-0.18788
0.280901
0.0883627
0.249769
-0.352733
0.102963
0.330097
0.0688186
0.100172
-0.0124538
0.0972828
-0.00213425
-0.0152301
-0.198811
0.166519
-0.134105
-0.0324137
0.01989
-0.0224787
0.00258876
0.273918
-0.283483
-0.243743
0.19543
0.0483128
0.0745726
-0.0870345
0.0124619
0.0590288
-0.00773659
-0.0512922
-0.136035
-0.0626578
0.0502602
-0.271803
-0.273651
-0.104749
0.3784
-0.0684097
-0.269172
0.337582
-0.206605
0.066142
0.140463
-0.0933141
0.343083
0.389413
-0.0937917
-0.00159595
-0.0993232
0.441165
-0.110934
0.314399
-0.424235
0.109836
0.163819
0.0383255
-0.202144
-0.225867
0.29972
0.318417
0.13159
-0.450006
-0.0105306
0.136551
-0.223798
0.0691993
0.116569
0.0544128
-0.33675
0.282337
-0.147362
-0.242725
-0.0542844
-0.155513
0.209797
0.18514
-0.274205
-0.327456
0.436615
-0.109159
0.023348
-0.0193102
-0.00403786
-0.431083
0.289291
0.141793
0.00513512
0.0442628
0.123937
0.0602069
-0.184143
0.0825608
0.0879172
0.101104
-0.275833
-0.0815865
0.419319
0.0170144
-0.0186368
0.00162244
0.0687526
-0.352626
0.283873
0.0238208
-0.12243
-0.274146
0.219302
-0.333455
0.224468
0.108987
0.0625263
-0.0578438
-0.00468244
0.0229629
-0.00307296
-0.00402638
0.0271432
-0.212336
0.158052
-0.132667
-0.172409
0.026457
0.378108
-0.0938456
-0.12385
0.217695
-0.151329
-0.0556577
0.336882
-0.281224
0.072381
0.00663004
-0.079011
-0.0527223
-0.235506
0.011978
0.223528
0.171113
-0.00753189
-0.078394
0.0755497
-0.397697
0.0744749
-0.0939733
-0.00446233
0.000487006
0.0885484
-0.0888694
0.000320947
-0.0840395
0.0865288
-0.0247638
0.0303075
-0.00554372
-0.234024
0.386094
-0.0838844
-0.134139
0.134617
-0.298144
0.396511
-0.0983673
0.157295
0.0157641
-0.418684
0.276785
0.141899
0.0828494
-0.100982
0.0181325
-0.153329
-0.011301
0.13046
-0.278076
-0.197166
-0.0976038
0.29477
0.00639878
-0.201887
0.204571
0.102537
-0.388918
0.344384
-0.317101
0.426556
-0.109455
0.342971
0.160998
0.276602
-0.398464
0.105831
0.292632
0.12067
-0.418814
-0.504882
0.206463
0.298418
0.208493
-0.166315
-0.124481
-0.0650121
0.189493
0.0447635
-0.069829
-0.0112385
0.0272682
0.333667
-0.27538
-0.228018
-0.303367
-0.0684232
0.198305
-0.129881
-0.13787
-0.0817952
-0.0374501
-0.0667726
-0.019901
0.252102
-0.252808
0.13314
0.209592
-0.302612
0.0593437
0.169502
-0.228845
0.0462508
-0.216134
0.169884
-0.412064
0.317393
0.094671
-0.228265
0.16542
0.0628452
0.110265
-0.114743
0.00447754
-0.315303
0.412585
-0.0972824
0.0790687
0.00864763
0.0148291
-0.30036
0.233569
-0.0977753
-0.415982
0.27441
0.141573
-0.122192
0.150199
-0.273771
-0.208642
0.0947008
0.0370082
-0.120326
0.305575
0.0124104
0.000458377
-0.0128688
0.0195802
-0.00186629
-0.0177139
-0.0934601
0.106647
-0.013187
0.42481
0.0112468
0.316487
0.0508335
-0.36732
-0.0886143
0.094459
-0.00584466
0.101175
-0.0183254
0.243408
-0.430203
-0.0935062
-0.304958
0.237494
0.0392708
-0.0383367
-0.000934054
-0.0387878
0.010241
-0.0293568
0.408241
-0.299523
-0.0867735
0.386297
0.426217