/*--------------------------------*- C++ -*----------------------------------*\
| =========                 |                                                 |
| \\      /  F ield         | OpenFOAM: The Open Source CFD Toolbox           |
|  \\    /   O peration     | Version:  v2012                                 |
|   \\  /    A nd           | Website:  www.openfoam.com                      |
|    \\/     M anipulation  |                                                 |
\*---------------------------------------------------------------------------*/
FoamFile
{
    version     2.0;
    format      ascii;
    class       surfaceScalarField;
    location    "300";
    object      phi_0;
}
// * * * * * * * * * * * * * * * * * * * * * * * * * * * * * * * * * * * * * //

dimensions      [0 3 -1 0 0 0 0];
oriented        oriented;


internalField   nonuniform List<scalar> 
41383
(
-0.00461534
0.10761
-0.102995
0.485705
-0.0986126
-0.387093
0.225974
-0.321521
0.095546
0.32619
-0.456989
0.130798
0.0406637
-0.0412437
0.000579932
0.348647
-0.131005
-0.217642
0.38553
-0.063913
-0.321617
0.188095
-0.28694
0.098845
-0.0747311
-0.0840782
0.158809
0.107464
0.107298
-0.214762
-0.461115
0.356339
0.104776
-0.0271391
0.0240888
0.00305033
0.0164526
0.00074254
-0.0353523
0.134547
-0.0991944
0.263045
0.0756376
-0.338683
0.300649
0.0848807
-0.215429
-0.203916
0.0249224
-0.0327148
0.00779242
0.0508403
-0.105592
-0.148253
0.00681561
0.141437
0.0885365
0.397169
-0.504391
0.40384
0.100551
-0.0987409
0.0941255
-0.0927837
0.0267395
0.0660442
0.291627
0.124397
-0.416024
-0.301109
0.107035
0.194074
0.107438
-0.341062
0.233624
-0.104535
0.211999
0.455255
-0.163628
0.119436
-0.129593
0.0101577
0.381061
-0.163666
-0.217396
0.151111
-0.381123
0.230013
-0.0473615
0.0580335
-0.0106721
-0.0748408
-0.200054
0.274895
-0.0536719
0.00631046
-0.122867
-0.237008
0.359875
-0.214489
-0.0404799
0.254969
0.284626
-0.0283498
-0.256277
0.161661
0.2194
-0.335304
0.221881
0.113423
-0.319044
0.157177
0.161867
-0.157057
-0.178247
-0.0312742
0.0231036
-0.0821542
0.298304
-0.216149
0.409375
-0.339895
-0.0694795
0.0808144
-0.337477
0.256662
0.00826271
0.0643897
-0.0726524
0.245283
0.0460179
-0.291301
-0.327491
0.4376
-0.110109
-0.156339
-0.0728732
0.229212
0.0241867
0.124883
-0.14907
0.340852
0.0685226
-0.0890106
0.38393
-0.294919
-0.368832
-0.031443
0.400275
-0.217294
0.332874
-0.11558
0.0901231
-0.328597
0.238474
-0.00169132
0.153327
-0.0343695
-0.118958
-0.396416
0.36652
0.0298959
0.0104265
0.00110235
0.254848
-0.377715
-0.367689
-0.0287271
0.3156
-0.400081
0.0844805
-0.110003
-0.248272
0.358275
-0.00784818
0.0327706
-0.0933104
0.0877154
0.00559502
0.00183777
-0.0173642
0.0155264
-0.0223795
-0.230003
0.252382
0.0348431
-0.0436832
0.00884007
-0.150295
0.378736
-0.22844
-0.158969
0.424115
-0.265146
0.0634563
-0.0682187
0.00476236
0.24464
-0.112047
-0.132594
-0.0499743
-0.0246625
0.0746368
0.355157
-0.427314
0.0721567
0.039447
0.119509
-0.158956
0.276025
0.00860151
-0.0168844
0.0187221
0.105392
-0.261731
0.328776
-0.0281277
-0.025241
0.0225212
0.00271977
0.341638
-0.193257
-0.148382
0.422192
-0.335971
-0.0862208
0.044488
0.108839
-0.0519917
-0.328659
0.380651
0.209899
-0.17894
-0.0309581
-0.348678
0.0908014
0.257877
0.111021
-0.328315
0.0665764
-0.00312006
0.00724672
-0.0668614
0.0596146
-0.0405353
0.0440412
-0.00350589
0.420436
-0.0539151
-0.0324833
0.212595
-0.180111
0.28767
0.0411068
-0.478789
0.109957
0.131846
-0.350502
0.218656
0.140298
0.040186
0.0397169
0.000946814
-0.0987849
-0.0559191
0.0641818
0.172342
0.169297
0.268296
-0.22116
-0.0471357
0.188217
-0.0656185
-0.122598
0.416641
-0.0487129
-0.367928
0.0647287
-0.057482
0.0524118
0.368024
-0.282235
0.382783
-0.100548
0.0499465
-0.124678
0.0979736
-0.336708
0.238735
-0.117309
0.138166
-0.0208569
0.295498
-0.00070891
-0.294789
-0.0876987
0.350744
0.193464
0.0748316
0.165178
-0.197661
0.44209
-0.0956482
-0.346442
-0.141646
0.0276942
0.113952
0.162087
-0.032376
-0.129711
0.444416
-0.370001
-0.0744152
0.117566
-0.140474
0.0229085
0.0160418
-0.164295
0.0211602
-0.0195325
-0.00162775
-0.0448091
0.00427383
0.105168
0.0115644
-0.433262
0.0845836
0.0547358
0.230698
-0.285434
0.430063
-0.139913
-0.29015
0.10021
-0.101691
0.0014812
-0.445187
0.33613
0.109056
0.0170326
0.00158516
-0.0186177
0.00220805
0.0189522
0.146671
0.0415453
0.112644
-0.00747635
0.230117
-0.370428
0.14031
-0.12982
0.234172
-0.104352
0.0947011
-0.232359
-0.0548438
0.287203
0.373833
-0.211306
-0.162527
0.350634
-0.395511
0.044877
-0.167311
0.215671
-0.0483594
-0.0151649
0.106309
-0.0911444
0.0440638
0.218587
-0.262651
0.319545
-0.212107
0.311797
0.118266
0.449442
-0.375784
-0.0736578
0.056069
0.386021
-0.0277203
0.164188
-0.136468
0.149394
0.224438
-0.154599
-0.0909142
0.245513
0.1015
-0.441395
0.377203
-0.147086
-0.192592
-0.268523
-0.00956497
0.254848
-0.0462412
0.173059
-0.126818
0.204325
-0.226704
-0.12857
0.144611
0.347261
-0.134319
-0.212943
0.230159
0.0227323
-0.252891
-0.0549895
0.0667052
-0.0117156
-0.122138
0.00482876
0.0532324
0.0138036
-0.067036
0.0853236
0.014886
0.0166021
0.210638
-0.000739819
-0.0443864
0.161952
0.212283
-0.427712
0.304725
0.0599926
-0.364718
0.0311196
0.413296
-0.22291
0.313033
-0.204686
0.315196
-0.11051
-0.128307
0.135122
0.356105
0.0605367
-0.0247319
0.186819
0.399431
-0.0523952
-0.347036
-0.134101
0.0114543
0.122647
-0.330362
0.146289
0.184072
-0.00873097
-0.024511
0.033242
-0.0493751
0.354101
0.150763
-0.137308
-0.0134547
-0.0716927
0.412545
-0.0166384
-0.197851
-0.0449757
-0.047808
0.0410006
0.11747
-0.158471
0.125202
-0.138852
0.0136506
-0.202539
0.174819
0.332525
0.0669061
0.104479
0.00223934
-0.106718
0.119756
0.227506
-0.495976
0.117079
0.378897
-0.0482774
-0.0504631
0.0987405
0.0834319
-0.0933248
0.00989291
0.323866
-0.420573
0.0967067
0.310418
-0.159192
-0.151227
-0.123387
0.115592
0.0077957
0.0861269
-0.189148
0.103021
0.540377
-0.244137
-0.29624
0.213175
0.0087059
0.288282
0.252095
0.355143
-0.426835
0.0938975
0.225987
-0.319884
0.107352
0.212193
-0.0277062
0.0342579
-0.00655171
-0.21109
0.0498523
0.161237
0.320224
-0.395004
0.0747805
0.213584
-0.102549
-0.111035
-0.326165
0.0943615
0.231803
-0.110842
-0.00250511
0.113348
-0.198693
0.152451
-0.0404267
0.0749025
-0.0344758
0.387498
-0.400273
0.012775
-0.00158166
0.0120082
0.41983
-0.410964
-0.00886634
-0.0920707
-0.00248503
0.0945557
0.0332989
-0.0420299
0.127554
0.0232093
0.0378068
-0.0860842
0.128103
-0.373461
0.245359
0.324274
-0.436235
0.111961
0.175813
0.111857
0.325921
-0.194075
-0.223526
-0.107245
0.330772
0.0191324
-0.0020998
0.487346
-0.0948918
-0.392455
0.108791
-0.00431141
0.1283
-0.0654879
-0.0628126
0.108999
-0.0770311
0.427665
-0.413002
0.139156
0.171262
0.3324
-0.251586
0.271334
-0.223525
-0.0478093
-0.315258
0.401696
-0.0864383
-0.186541
-0.163961
0.012979
-0.134402
0.121423
0.160586
-0.109746
0.0849956
-0.10016
-0.462135
0.358848
0.103287
0.0293745
-0.0698012
0.0441109
0.0139227
0.378204
0.0276453
-0.405849
0.0936553
0.242553
-0.336208
-0.137674
-0.000927577
0.138602
0.0118992
-0.149573
-0.244022
0.378906
-0.134884
0.405544
-0.419031
0.0134871
0.054134
-0.0100231
-0.042066
0.397209
0.44505
-0.120775
0.316482
-0.140669
0.330165
-0.104191
0.112249
-0.129235
0.016986
0.154617
-0.0643978
-0.0902192
-0.10469
0.106416
-0.0017254
-0.229839
0.323494
0.399146
-0.0729553
0.0424646
0.298721
-0.341185
0.308954
-0.360946
0.403816
-0.231474
0.0737819
0.139802
0.330747
0.104868
0.049749
0.133185
-0.248295
0.11511
-0.0182134
-0.000726271
0.0189397
-0.0793857
0.466884
-0.0255736
0.0327181
-0.00714445
0.147943
-0.157216
0.00927239
0.00320172
0.050174
0.174378
0.312969
-0.168701
0.0113386
-0.450554
0.19772
0.252834
0.00947944
0.0968298
-0.358168
0.155962
0.202206
0.186426
-0.1003
0.0014933
0.0555051
-0.0569984
0.134483
0.106871
-0.241354
-0.123511
0.121937
0.00157363
0.0106352
-0.0528899
0.361844
-0.100221
0.00814994
0.141459
-0.00532492
-0.136134
0.107793
-0.29791
0.190117
0.219984
0.0768686
-0.296853
-0.0244046
0.0831707
-0.0587661
0.246689
-0.1451
-0.101589
0.155786
0.24803
-0.0413067
-0.171001
0.212307
0.167226
-0.15167
-0.0155557
0.341888
-0.442117
0.10023
0.271548
-0.467054
0.195506
-0.26979
0.194949
0.503339
-0.229202
-0.274137
-0.169883
-0.0428795
0.212763
0.194023
0.309316
0.0775284
0.190219
-0.267747
-0.0540927
-0.0875534
0.0538184
-0.382478
-0.0120778
0.0104962
-0.342315
0.425887
-0.0835722
-0.0772931
-0.0160173
0.0534783
-0.210523
0.157045
0.281351
-0.374466
0.0931158
-0.039038
0.0922704
0.113962
0.0466238
0.03001
-0.197321
-0.132688
0.265873
0.0336748
-0.0285022
-0.00517256
0.149763
0.0573831
-0.207146
-0.137105
0.271588
-0.120541
0.177453
-0.0569114
-0.103746
0.10507
-0.00132396
0.0820496
-0.0921643
0.0101146
-0.21249
0.0826703
0.354216
-0.183072
-0.171144
0.339727
0.0801035
-0.150394
0.0298523
0.100805
0.00680558
0.117317
-0.124297
0.0069797
0.0713718
-0.106724
0.169278
-0.4133
-0.228191
-0.31333
0.4059
-0.0925696
-0.333247
0.450167
-0.11692
0.293941
-0.373009
0.0790681
0.413066
-0.0358627
0.000675858
-0.0188892
0.0732274
0.339839
0.300769
-0.206407
-0.017463
0.132726
-0.115263
-0.262258
0.34376
-0.0815025
-0.0501714
-0.00791843
0.0580898
-0.353016
-0.0446832
0.397699
-0.172631
0.0181617
0.154469
0.0309488
0.0973516
-0.0394568
-0.0946444
0.102662
-0.0206119
0.288621
0.0540194
-0.34264
-0.0748963
-0.00522481
0.0801211
0.284912
-0.423788
0.138876
-0.0614715
-0.282533
0.344004
0.0342624
-0.031194
-0.00306843
-0.0160791
0.167853
-0.240726
-0.0600587
0.0760086
-0.0159499
0.264643
-0.17444
-0.0902026
0.0700201
-0.0659168
-0.0041033
-0.00957731
0.286172
-0.276595
0.208013
0.108468
-0.0925611
0.0270696
0.0654915
-0.445451
0.277996
0.167455
0.0442217
-0.0345825
-0.0096392
0.248703
-0.193967
0.155051
-0.264009
0.108958
-0.0081103
-0.259554
0.267664
-0.332827
0.202135
0.130692
-0.394513
0.0888069
0.305706
-0.0471094
-0.0454517
0.410211
-0.436705
0.0264942
-0.292052
0.421219
-0.129167
0.285547
0.0235132
-0.30906
-0.211315
-0.0363538
0.247669
-0.402475
0.110423
-0.0113096
0.128224
-0.116914
-0.481874
0.237737
0.213741
-0.365629
0.151888
0.312644
-0.322221
-0.209599
0.168293
0.134207
0.00725138
0.418022
-0.307
-0.0730908
0.361712
0.00385908
0.0661611
0.16466
-0.0209829
-0.143677
-0.0720534
0.0613217
0.0107317
0.275153
0.000872272
0.0336946
0.00056328
0.178857
-0.0141973
0.323185
-0.0276869
0.129651
-0.175236
0.0455851
0.267316
0.0846268
-0.351943
-0.0799688
-0.416007
-0.299106
-0.182768
-0.225586
0.217475
-0.292179
-0.0987795
0.390959
0.301114
0.120801
-0.421915
-0.482413
0.378884
0.103529
0.07272
-0.05329
-0.0194299
0.0584555
-0.31069
0.252235
-0.0719573
0.357504
-0.237768
0.0893687
0.148399
0.286069
0.065374
-0.351443
-0.25474
0.328379
-0.0736387
0.21602
-0.0662569
-0.00482072
-0.236369
-0.0909713
0.32734
-0.0561653
0.00599386
0.105112
0.159531
0.00931264
0.445809
-0.388451
-0.0573585
-0.029189
-0.0941983
0.00154761
0.0146555
-0.0721705
0.35824
-0.176836
0.0276476
0.149188
-0.328642
0.123956
0.477059
-0.190887
-0.108652
0.149652
0.0893962
-0.0206575
-0.0687387
0.0487011
0.197988
0.150883
-0.0285729
-0.12231
0.0105515
0.000540817
-0.0110923
0.333399
-0.119658
-0.0213844
0.00185193
-0.0100159
-0.00735292
0.0173688
0.0337769
0.319832
-0.353609
0.189354
0.136567
0.0879716
-0.128
0.110537
0.33327
0.116172
0.214492
0.262567
-0.0124687
-0.0188054
0.30711
-0.099097
0.315379
-0.256924
-0.168061
-0.133048
-0.110013
-0.326222
-0.185939
0.23242
-0.342423
-0.0213067
0.020331
0.000975684
-0.293506
0.211352
0.158095
-0.133908
0.396393
-0.111481
0.210379
-0.103651
-0.106728
-0.292483
0.32626
0.0839591
-0.327389
0.24343
0.409938
-0.409938
-0.183881
-0.135513
0.319394
0.0774591
0.00380581
-0.081265
0.255689
0.0745348
-0.330223
-0.0837198
0.339408
0.138185
-0.0129829
0.122703
-0.116183
-0.00651952
0.265568
-0.114457
-0.477412
0.373249
0.104163
0.376336
-0.345216
-0.0119338
-0.0868071
0.390455
-0.129998
-0.260456
0.428168
-0.0406528
-0.387515
-0.114342
0.346763
0.0877542
-0.0856435
-0.00211068
-0.0417416
-0.0886536
0.130395
-0.00604538
0.0492931
-0.0483393
-0.000953847
0.153793
0.291257
-0.0155406
-0.0097004
-0.458589
0.301355
0.157233
-0.0116192
0.117249
-0.10563
0.129628
-0.116649
-0.0759701
0.369911
1.64765e-05
0.275136
0.312682
0.10534
-0.0971646
-0.208018
0.305182
-0.200814
-0.207045
0.407859
0.155501
-0.000153432
-0.155347
-0.0615697
-0.117697
0.179267
-0.206983
0.16437
-0.0141282
-0.150242
-0.161684
-0.283502
0.121142
0.269313
-0.358205
0.329483
0.0986852
-0.155223
0.177916
-0.0226937
0.394806
-0.0184703
-0.101996
0.316045
-0.214049
0.0765995
-0.0058031
-0.0707964
0.277114
-0.396165
0.119051
0.0454724
-0.256788
-0.361233
-0.00919434
0.0108051
-0.0119402
0.339494
-0.400966
0.226481
-0.133706
-0.0927759
-0.0718316
0.000291089
0.0715405
0.123932
-0.296383
0.11083
0.185553
-0.0038856
-0.00441012
-0.366026
0.446756
-0.0807296
-0.153654
0.261446
0.247473
-0.0943918
-0.153082
0.0158887
-0.0877203
0.332478
-0.204376
-0.0568231
-0.251784
0.308607
-0.42057
0.33998
0.0805906
-0.220726
-0.120336
-0.0304125
0.00483885
-0.3689
0.00766643
-0.00570765
0.0304059
-0.0246982
0.349034
-0.428991
0.0799576
-0.0715367
-0.23097
0.314929
-0.299229
0.0991752
-0.0184476
0.00843169
0.121408
-0.125075
0.00366672
-0.277563
0.0980626
0.1795
0.0869686
-0.0731649
-0.361612
-0.0673792
0.0523273
-0.050834
0.366196
-0.453257
0.0870608
0.101727
0.0952973
0.00736428
0.253233
-0.098182
0.258485
0.0901625
-0.212195
0.0423113
0.136415
0.00256666
-0.138982
0.0819181
-0.356524
0.274606
0.387948
-0.0640816
0.00587777
0.0835184
0.407235
-0.0520777
0.148757
0.0669141
0.389851
0.0559582
-0.124963
0.0832216
0.165261
-0.000890886
-0.292619
0.00808555
0.284534
0.284268
-0.0961728
-0.103212
-0.210522
0.313734
-0.0330396
-0.139591
-0.251034
-0.19952
-0.527039
0.297837
-0.19231
-0.0716987
0.0346135
0.0848222
0.03111
-0.0255218
-0.00558816
-0.106556
-0.0418941
0.14845
0.0853075
0.159333
0.401981
-0.348202
-0.0537781
0.214993
0.0623115
-0.277305
0.0261225
-0.0318302
-0.265285
0.340922
-0.130881
0.139774
-0.00889295
0.0945989
-0.330866
0.236267
-0.228318
-0.272581
0.420722
-0.148141
-0.0790305
0.058779
0.0202515
0.409959
-0.108845
0.0656663
-0.327924
0.337731
0.0642492
0.0904722
0.00482513
0.398915
-0.39953
0.000614229
-0.0180091
0.140468
-0.122459
0.0749691
0.00846277
0.0107909
0.111912
-0.0997692
0.0904963
0.00927296
0.0138341
0.0186168
-0.0324509
0.0949699
-0.0272816
-0.0676884
-0.0791384
-0.050455
0.0566835
-0.0697298
0.0130463
0.0713883
-0.337886
0.266498
-8.39898e-05
0.193609
0.0538646
-0.22763
0.0776155
0.150014
0.451141
-0.0729372
-0.260325
-0.244066
0.176767
0.112703
-0.289469
-0.0348587
-0.191306
0.226165
0.336038
-0.117947
-0.218091
-0.23279
0.312219
-0.221418
-0.405176
0.114009
0.291167
0.371367
0.0241167
-0.395483
-0.149061
-0.00441007
0.151168
-0.146758
0.00152712
0.0711929
0.0503846
-0.0595033
0.00911872
0.0230039
-0.0157197
-0.00728422
-0.00961724
0.0444603
-0.00288874
-0.0852036
0.0743747
0.0108289
-0.121782
-0.0354336
0.00913674
0.0245579
0.233006
-0.286543
0.0535372
0.00504466
-0.103896
-0.301281
0.0293204
-0.0797835
0.0540427
-0.233375
0.309595
-0.0762206
-0.193835
0.181114
0.0127218
0.032763
-0.0159763
-0.0167867
0.100366
-0.10168
0.00131443
-0.458462
0.154979
0.303483
0.0202942
-0.0753511
-0.00947441
0.0848255
0.0551043
-0.0795089
-0.202382
0.081686
-0.0042269
-0.285996
-0.172467
0.207722
0.0452018
-0.252924
0.0112702
0.0890954
-0.386422
0.284624
0.101798
-0.195167
0.272696
-0.00798993
-0.0753616
0.0833515
-0.264566
-0.0453507
0.222865
-0.177514
-0.109092
-0.267792
0.376884
-0.0204055
-0.0534296
0.0738351
0.135981
-0.336795
-0.00740894
0.334094
-0.105726
-0.228368
-0.00543488
-0.0159495
-0.16463
0.0375287
0.127102
-0.138104
0.0163219
0.0736921
0.213092
-0.286784
0.0313681
0.0128535
-0.258833
0.197084
0.061749
-0.221653
0.267366
-0.0457125
-0.0690709
-0.139017
0.0142394
0.124777
-0.0898572
0.429837
0.0960676
-0.329881
0.233813
-0.0666859
0.0960063
-0.228335
0.182984
0.027329
-0.0307814
0.00345243
-0.0231562
-0.00398296
-0.384351
0.275259
-0.0830144
0.202827
-0.119812
-0.171225
-0.0398647
-0.050792
-0.0276668
0.0784587
0.44262
-0.44262
-0.0376441
-0.0284897
0.0661338
0.11644
0.0217447
-0.060628
0.0608566
-0.00022856
-0.331932
0.0985569
-0.0578031
0.265525
0.109522
-0.0274257
-0.0820958
-0.0216559
-0.0458121
0.067468
-0.0835683
0.00821716
-0.278772
0.30045
-0.0216784
0.0320208
-0.114226
0.0822054
-0.135334
0.102958
-0.097137
-0.00877339
0.10591
0.445002
-0.175753
-0.269249
0.0527854
-0.0476971
-0.00508827
-0.26979
-0.00898172
0.308309
-0.131542
0.0693462
0.0968447
-0.166191
-0.0731026
-0.313552
0.386655
-0.00129206
0.0374737
-0.0361817
-0.0844201
0.0243614
0.168156
-0.153431
-0.0147252
-0.0304359
-0.0475285
0.0779644
0.105271
-0.116581
0.0219965
-0.0217221
-0.000274368
0.37046
-0.276562
0.302184
-0.375286
-0.0959659
0.0926203
0.00334561
-0.104223
0.085782
0.0184411
0.0493955
-0.0412762
-0.00811931
0.259113
-0.341502
0.0823897
0.421016
-0.105416
0.375141
0.0304029
-0.0598345
0.364471
-0.304637
0.190449
-0.355463
0.165014
0.279023
0.123347
-0.338779
0.215433
-0.0890489
-0.192588
0.281637
0.0551081
-0.00472349
0.000503065
-0.135379
0.134876
0.0260507
0.383887
-0.148727
0.0421711
-0.119378
-0.0872431
0.206622
0.157335
-0.117888
-0.136378
0.00419596
0.132182
-0.3712
0.311365
-0.27737
0.0450112
-0.0527851
0.131964
-0.00359727
-0.128367
0.0593732
0.107852
0.13145
-0.379555
0.248106
0.0151576
-0.355867
0.34071
0.400564
0.00738191
-0.407946
-0.183312
-0.0544563
-0.170193
0.360642
-0.404211
0.103448
0.300763
-0.118073
0.136836
-0.0187631
-0.157227
-0.0940581
0.100134
-0.00607608
-0.0362424
0.143143
-0.106901
0.0353314
-0.0214973
0.0191838
-0.0223485
0.00316462
-0.098255
0.107734
-0.117775
0.390052
-0.272276
0.0582946
-0.345963
0.287668
0.40135
-0.44932
0.0479698
-0.20372
0.455929
-0.252209
-0.183433
0.151298
-0.000943094
-0.150355
0.111345
-0.100554
-0.00164726
-0.0196594
-0.290472
-0.381235
0.290747
0.0904874
-0.08016
0.0597545
-0.0156765
0.387043
-0.339703
-0.0935591
0.343671
-0.0845588
-0.0995729
0.0795255
0.0200475
-0.108637
-0.222229
-0.192195
0.0716051
0.12059
-0.21944
0.290829
0.28438
-0.373391
0.309631
-0.432
0.122369
0.15258
-0.177311
0.0815762
0.0133937
-0.0167573
0.133197
0.33015
-0.182099
-0.148051
-0.0460397
0.0569084
-0.0108687
-0.0574953
-0.119341
0.00180149
0.0545166
0.0500957
-0.104612
0.16624
-0.316535
0.0266077
-0.0278998
0.0357553
-0.0285482
-0.00720707
0.0709855
-0.0789755
0.126021
-0.146564
0.0205431
-0.037355
0.0372552
9.98197e-05
-0.034009
0.390348
0.235358
-0.0739133
-0.161445
-0.0494549
0.168963
-0.0471784
0.0553113
-0.00813294
0.209491
-0.0843417
-0.12515
-0.0242982
0.138436
-0.114138
0.289219
0.0895167
-0.118216
0.0436873
-0.00410496
-0.0395823
0.116206
-0.119318
0.00311196
-0.00241714
-0.0327471
0.0351642
-0.0170475
0.134975
-0.117928
0.125888
-0.0537232
0.202593
-0.169605
-0.0329876
-0.115483
0.392597
0.23878
-0.153472
0.0786549
0.293501
-0.372156
-0.0507272
-0.285406
0.336133
-0.0129311
0.168432
-0.490825
0.157395
0.333429
-0.00757215
0.0577268
-0.0501546
0.416652
-0.186795
-0.229857
0.0715117
0.13798
-0.00488402
0.0289728
-0.186618
-0.270371
-0.348791
0.0940509
0.15299
-0.00169203
0.00327454
-0.0227737
0.0194991
-0.115224
0.00790168
0.107322
0.365482
-0.0986127
-0.26687
0.296391
-0.347119
-0.156451
0.132153
0.190978
-0.11939
-0.0715885
-0.000114441
-0.100921
0.101036
-0.00972724
0.109021
-0.0992934
0.325084
-0.390798
0.0657142
0.134096
-0.0145674
-0.119529
0.277306
0.0528596
0.0636173
-0.182996
-0.137084
0.129038
0.00804563
0.0432809
-0.404893
-0.015885
0.122943
-0.107058
0.409723
-0.110054
-0.29967
-0.0433291
0.056623
-0.0132939
0.0226737
-0.00348988
-0.296692
-0.0844317
-0.23664
0.226668
0.00997215
0.358611
-0.248636
-0.109975
-0.451197
0.451197
0.00453591
0.0119167
0.277565
0.0810465
0.193811
0.136339
-0.392979
0.385706
0.00727283
-0.127473
0.129949
-0.00247669
0.00103209
0.012706
-0.0137381
-0.00396265
0.407803
0.198223
-0.329228
-0.136723
0.151929
-0.0152053
0.0888239
-0.104709
-0.427456
0.223541
-0.137469
0.000745816
0.206277
-0.0575203
-0.466056
0.193475
0.233001
-0.350776
0.0454405
-0.0139478
-0.0314927
-0.0245792
0.177159
-0.400125
0.05781
0.377151
-0.377151
-0.157712
-0.0658131
0.0197202
-0.142249
0.122529
-0.192199
-0.157702
0.349901
-0.0589256
0.178805
-0.0830171
-0.0957879
0.0325859
-0.003818
-0.0287679
0.108314
-0.0705071
0.0012742
-0.111254
0.10998
0.0218697
0.0864442
-0.386469
0.23982
0.146648
0.11206
-0.195074
0.0781057
-0.270305
0.0954304
0.270052
0.0718287
-0.337068
0.265239
-0.0601516
-0.00284487
-0.0756054
0.0784503
0.138501
-0.11878
-0.0822388
-0.0118192
0.0915693
-0.0621948
0.370277
-0.0791984
-0.291078
-0.43142
0.278929
0.152491
-0.0984879
0.0983688
0.000119196
0.00104565
0.111204
-0.139391
0.411883
-0.272492
-0.098414
-0.259593
0.358007
-0.11241
0.090584
0.021826
0.174619
-0.145712
-0.028907
0.386382
-0.0612982
0.101443
0.28134
0.071379
0.288045
-0.359424
-0.359984
0.405914
-0.0459301
0.404565
-0.0220776
-0.382488
-0.208954
0.282646
-0.0986449
-0.025393
0.124038
-0.278908
0.350737
-0.0922952
0.263493
-0.171198
-3.51957e-05
0.0305289
-0.0304937
0.0577772
-0.0497537
-0.00802355
0.00342756
0.0302472
0.39615
-0.110643
-0.285506
0.120072
-0.122078
0.00200617
0.195932
0.00666041
-0.198546
-0.0586625
0.257209
0.0280003
0.116495
-0.144496
-0.159527
-0.186116
0.345643
0.0233985
-0.0741904
0.00814404
-0.143712
0.135568
-0.0517386
-0.175891
0.498102
-0.209989
-0.288113
0.203378
0.294724
0.0136643
0.0585257
-0.07219
-0.135124
0.143268
0.052758
0.00501923
-0.223769
-0.0977513
0.101991
-0.415321
0.144487
-0.160449
0.0159613
0.00877692
-0.362866
0.354089
-0.100412
-0.243755
0.344166
0.0148912
0.00811276
-0.0558193
-0.0437536
0.0880552
-0.0914221
0.00336696
0.36188
-0.303363
-0.0585179
0.343928
0.0566355
-0.00894433
-0.35104
-0.335977
-0.0194859
0.224731
-0.0311223
0.0815056
-0.113273
0.0317673
-0.0358314
-0.0414616
-0.0519608
0.222351
-0.336694
0.105533
0.00581164
0.0709446
-0.266112
-0.072629
0.287622
-0.158261
-0.0216709
0.179931
0.00164576
-0.030148
0.118445
0.0282601
-0.146705
0.356923
0.0327838
-0.389706
0.135096
0.0558822
0.311451
0.0982723
0.35895
-0.287571
0.00560705
0.104973
-0.105087
0.393429
-0.414446
0.0210167
0.105847
0.172468
-0.278315
-0.0986064
0.111509
-0.0129028
0.0754082
-0.0748886
-0.000519549
0.118203
-0.143555
0.0253523
0.0369138
-0.00432791
0.100653
-0.170344
0.0696903
0.110376
0.0482909
-0.158666
-0.0456596
0.0591289
-0.0134692
0.287762
-0.112574
-0.175188
-0.00677917
-0.229861
-0.315126
0.133455
0.18167
0.0931389
-0.102866
-0.0054937
-0.186073
-0.0611458
0.247219
0.0791071
-0.0654428
0.0802951
0.163567
-0.243863
0.109576
-0.0490591
-0.0605169
-0.256349
0.257954
-0.358366
-0.0568936
0.0108539
-0.330055
0.0163807
0.313674
-0.0701122
-0.272813
0.371132
-0.0983191
0.402774
-0.00142367
0.0924681
0.303682
-0.0186444
-0.000215898
0.0188603
0.00887728
0.215854
0.118305
-0.0367996
0.195436
-0.354405
0.251772
0.0918989
0.106435
-0.454638
-0.497259
0.201516
0.295743
-0.208919
-0.288341
0.243946
0.112743
0.0660616
-0.232638
-0.15383
0.30165
-0.081666
0.322516
-0.22728
-0.0952358
0.264873
-0.256096
0.0715966
-0.0149131
0.120049
-0.120588
0.000538229
-0.152966
0.0235532
0.129413
-0.151779
0.234942
-0.0831631
0.331787
0.0923286
-0.396944
0.136385
0.260559
-0.0318159
0.188318
-0.156503
-0.185394
0.291241
0.0639025
-0.475744
0.200856
0.274888
-0.350468
0.0144907
0.156578
-0.188394
-0.00101021
0.0115617
0.37269
-0.352885
-0.0198048
0.0347623
0.11612
-0.420806
0.380153
-0.396374
0.0811159
0.168177
-0.207031
0.0388542
-0.403631
0.0917854
0.311846
0.0528584
-0.0486321
-0.00422627
0.350463
-0.381906
-0.288139
0.420014
-0.131876
0.00553442
0.0698737
0.365072
0.0451395
0.0315202
-0.053176
0.134909
-0.146901
0.0119923
-0.0740484
0.0980576
-0.0240092
0.0391087
0.00633184
0.306804
-0.0911171
-0.303396
0.0823926
0.00248976
0.0859562
-0.088446
0.0225565
-0.0966049
0.175588
-0.210447
-0.335438
-0.0600732
-0.11395
0.00175366
0.00680249
0.365888
0.241017
-0.160722
-0.0221408
0.388337
0.357106
0.026824
0.198187
-0.0149632
0.101793
-0.0868297
0.0211542
-0.257293
0.236139
0.410099
-0.32067
-0.0894285
0.431283
-0.0951533
0.136526
-0.140936
-0.053961
0.0106319
-0.000194823
0.163568
-0.158666
-0.00490197
0.343809
-0.261891
0.0738542
0.242597
-0.316452
-0.329633
0.432844
-0.103211
-0.0945511
-0.0346844
-0.0576506
0.334245
-0.276595
0.327296
-0.406682
-0.299952
0.197956
0.0245415
0.108184
-0.0360686
-0.101015
-0.121637
-0.299169
-0.138077
0.0202296
0.117847
0.289143
-0.346793
0.416104
-0.106474
-0.0741652
0.0699344
0.00423087
0.34555
-0.0937778
-0.0314191
-0.121547
-0.19219
-0.269945
0.0656375
0.034568
-0.100206
0.242477
0.119403
0.0804664
0.0441028
0.00519032
-0.336652
0.250572
0.0860804
0.250316
0.0722002
-0.260717
-0.136227
0.0289747
-0.308855
0.21169
0.339785
-0.225369
-0.114416
0.20967
0.131709
-0.0116376
-0.0897571
0.397882
-0.308124
-0.0250858
0.0801901
-0.130603
-0.273608
-0.0694365
0.411324
-0.0786751
0.179328
-0.0506975
0.0444352
0.00626223
0.0306691
0.0203254
-0.0509946
-0.201092
0.222246
0.0278505
0.00790479
-0.00389346
0.015358
-0.0114646
-0.0259601
0.160869
-0.276035
-0.324
-0.0822641
0.406264
0.00934412
-0.00880331
-0.0298783
0.02527
0.00460831
-0.0316651
-0.177934
-0.273443
0.247016
-0.0700336
0.341581
0.506154
-0.217317
-0.288836
0.199439
0.306715
-0.354641
0.266943
0.00103912
0.137397
0.0508224
-0.330246
0.279423
0.129855
-0.144996
0.0151413
-0.0586274
0.0701623
-0.0115349
0.0322802
-0.398306
-0.407444
0.346563
0.0608811
-0.0719927
-0.351404
0.423396
-0.04631
0.405158
-0.143219
0.0146492
0.062797
0.0229591
-0.0857561
-0.341651
0.437634
-0.0959836
-0.432625
0.164197
0.268428
-0.00035195
-0.395992
-0.234377
-0.256448
0.246828
-0.267007
0.0678332
-0.253906
0.083947
-0.0665476
-0.033673
-0.286246
0.0542186
-0.0369679
0.364264
-0.396942
0.0436872
0.00917118
-0.1299
-0.00911687
0.295621
0.100771
-0.262417
0.334566
-0.0721491
-0.442852
0.286209
0.156643
0.166398
-0.0560223
-0.210756
-0.104369
0.369601
-0.102285
-0.0713949
0.060346
0.0110489
0.0898422
0.148937
-0.142309
0.125404
0.0169044
0.098721
-0.0330835
-0.147617
0.212552
-0.0649351
0.378601
0.0116771
-0.390278
-0.0241276
-0.0195555
0.0160295
0.0118274
-0.0278569
0.24412
0.0956647
-0.125791
0.00420237
0.121589
-0.143077
0.142924
0.326214
0.0433481
-0.369562
-0.195265
0.217196
-0.0219306
0.323312
-0.42009
0.0967774
0.324731
-0.0987449
0.00882909
0.0348582
0.13046
-0.192029
0.0682728
-0.274306
0.206033
0.106788
0.00197594
-0.108764
0.132344
-0.323166
0.190822
-0.0158523
-0.0211773
0.0518465
0.0421807
0.18041
-0.222591
0.292453
-0.169106
-0.11707
-0.283011
-0.27108
-0.101067
0.372147
-0.152093
-0.0031297
-0.219669
0.0759574
0.143711
0.0916867
-0.103306
0.00393135
0.0305837
-0.034515
0.103419
-0.395598
-0.323222
-0.0764361
0.399658
0.326885
0.219498
-0.251163
-0.0226602
-0.103131
-0.283847
0.17521
-0.390087
0.114995
0.275092
0.0190914
-0.0191266
0.00159873
0.0143232
-0.0159219
-0.210467
0.146651
0.0638156
-0.00790021
0.0959554
-0.492586
0.197301
0.295285
-0.204542
-0.288044
0.0509696
0.00434174
0.0113185
-0.0123288
-0.118027
-0.0424038
0.160431
0.151359
-0.0979953
-0.0533633
-0.355653
0.200106
0.155548
-0.02181
0.0249789
-0.0031689
0.0736639
-0.0792099
0.00554605
0.0828259
-0.0200289
0.126452
-0.00451481
0.116562
0.00988967
0.330233
-0.427256
0.0970224
-0.0930204
-0.187881
0.280901
0.0883627
0.249773
-0.352734
0.102961
0.330097
0.0688186
0.100177
-0.0124538
0.097278
-0.00213472
-0.0152295
-0.198845
0.166516
-0.134103
-0.0324135
0.0198889
-0.0224783
0.00258944
0.273918
-0.283483
-0.243644
0.195528
0.0481164
0.0745717
-0.0870356
0.0124639
0.0590273
-0.00773736
-0.05129
-0.136035
-0.0626577
0.0501159
-0.271769
-0.273659
-0.104714
0.378373
-0.0684098
-0.269172
0.337582
-0.206623
0.0661499
0.140473
-0.0933121
0.343085
0.389413
-0.0937917
-0.00159607
-0.0993253
0.441168
-0.110935
0.314301
-0.424146
0.109845
0.163819
0.0383255
-0.202144
-0.22586
0.299715
0.318417
0.13159
-0.450006
-0.0105284
0.136549
-0.223799
0.0691994
0.116569
0.0544128
-0.33675
0.282337
-0.147362
-0.242725
-0.0542843
-0.155513
0.209797
0.18516
-0.274209
-0.327456
0.436615
-0.109159
0.0233479
-0.0193097
-0.00403828
-0.431066
0.289295
0.141772
0.00514576
0.0442498
0.123937
0.0602069
-0.184144
0.0825612
0.0879171
0.101456
-0.275833
-0.0815862
0.419318
0.0170118
-0.0186349
0.0016231
0.0687526
-0.352626
0.283873
0.0238217
-0.122428
-0.274145
0.219302
-0.333492
0.224572
0.10892
0.0625262
-0.0578422
-0.00468403
0.0229627
-0.00307376
-0.00402873
0.0271324
-0.212336
0.158052
-0.132666
-0.172451
0.026457
0.378108
-0.0938522
-0.123859
0.217711
-0.151328
-0.0556575
0.336882
-0.281225
0.0723808
0.0066301
-0.0790109
-0.0528623
-0.235637
0.0120696
0.223567
0.17113
-0.00756246
-0.0783942
0.0755493
-0.397704
0.0744819
-0.0939636
-0.00452435
0.000487989
0.0885486
-0.088871
0.000322416
-0.0840399
0.0865296
-0.0247529
0.0302951
-0.00554217
-0.234186
0.386065
-0.0838811
-0.134074
0.134577
-0.29796
0.396552
-0.0985921
0.157295
0.0157641
-0.418658
0.276796
0.141861
0.0828575
-0.100987
0.0181297
-0.153329
-0.0113008
0.13046
-0.278076
-0.197152
-0.0976178
0.29477
0.00647951
-0.201745
0.20457
0.10254
-0.389043
0.34436
-0.316993
0.426494
-0.109501
0.342972
0.160998
0.276602
-0.398529
0.105712
0.292817
0.120935
-0.418894
-0.504879
0.206464
0.298415
0.208491
-0.166311
-0.124481
-0.0650121
0.189494
0.0447563
-0.0698421
-0.0112383
0.0272678
0.333602
-0.275307
-0.228019
-0.303363
-0.068423
0.198305
-0.129882
-0.137875
-0.0817932
-0.0374484
-0.0667747
-0.0199011
0.252101
-0.25281
0.133238
0.209592
-0.302613
0.0593466
0.169499
-0.228845
0.0463527
-0.216216
0.169863
-0.412064
0.317396
0.0946683
-0.228265
0.16542
0.062845
0.110265
-0.114743
0.00447785
-0.315303
0.412585
-0.0972824
0.0790687
0.00864674
0.0148287
-0.300364
0.233879
-0.0982287
-0.415945
0.274439
0.141506
-0.122191
0.150191
-0.273771
-0.208642
0.0947008
0.0370086
-0.120321
0.305575
0.0124093
0.000458647
-0.012868
0.0195776
-0.00186488
-0.0177127
-0.0934611
0.10665
-0.0131888
0.424812
0.0112488
0.316602
0.0507359
-0.367338
-0.0886147
0.094459
-0.00584436
0.101181
-0.0183232
0.243408
-0.430203
-0.0933649
-0.305164
0.237494
0.0392708
-0.0383384
-0.000932463
-0.0387732
0.010225
-0.0293568
0.408241
-0.299521
-0.0867777
0.386299
0.426217