/*--------------------------------*- C++ -*----------------------------------*\
| =========                 |                                                 |
| \\      /  F ield         | OpenFOAM: The Open Source CFD Toolbox           |
|  \\    /   O peration     | Version:  v2012                                 |
|   \\  /    A nd           | Website:  www.openfoam.com                      |
|    \\/     M anipulation  |                                                 |
\*---------------------------------------------------------------------------*/
FoamFile
{
    version     2.0;
    format      ascii;
    class       volVectorField;
    location    "300";
    object      U;
}
// * * * * * * * * * * * * * * * * * * * * * * * * * * * * * * * * * * * * * //

dimensions      [0 1 -1 0 0 0 0];


internalField   nonuniform List<vector> 
27802
(
(1.05635 0.0506238 7.54359e-22)
(1.00466 0.000114427 0)
(1.01522 0.00827448 2.01912e-23)
(1.01497 0.000699117 -1.99655e-21)
(0.838 0.0761696 1.44723e-21)
(1.01714 0.00940789 0)
(1.01548 0.00692398 0)
(1.0187 0.0112962 -4.96998e-22)
(1.04058 0.0540595 1.68881e-21)
(1.04062 0.00890509 4.63862e-21)
(1.00779 0.000682168 -4.64888e-22)
(0.646198 0.0467011 7.45037e-21)
(0.406545 0.0240395 0)
(1.04994 0.0513249 9.09309e-21)
(1.01746 0.00322559 2.71477e-21)
(1.01563 0.00669349 0)
(1.00643 -0.000288174 -5.67166e-24)
(0.703697 0.0515621 1.34814e-20)
(0.65613 0.155205 -3.16792e-21)
(1.0274 0.0529024 -9.24894e-23)
(1.00488 0.000145599 0)
(1.01403 0.000992419 -1.41361e-21)
(1.05626 0.0511973 -7.32853e-21)
(1.08827 0.052833 5.31673e-21)
(1.00645 0.000597225 1.57359e-23)
(1.02861 0.0123769 9.12748e-22)
(1.01701 0.00869074 -8.52254e-22)
(1.04004 0.00879644 -9.29638e-21)
(1.00636 0.000555793 -1.56974e-23)
(1.02663 0.0280055 2.12782e-21)
(1.027 0.0064074 0)
(1.015 0.00867896 -2.61763e-22)
(1.02529 0.0612377 2.12984e-20)
(0.989974 0.00329674 0)
(1.00439 0.0600797 -2.46635e-20)
(1.01921 0.00210984 0)
(1.04471 0.0294211 0)
(0.848562 -0.110216 8.81581e-22)
(1.02679 0.00656446 2.97041e-21)
(1.01768 0.00862428 1.00245e-21)
(1.03539 0.00239995 -4.99747e-21)
(1.0179 0.00871519 1.38545e-21)
(0.528579 0.0995147 -1.18585e-20)
(1.03992 -0.00915401 -3.3625e-22)
(1.01207 -2.3451e-05 0)
(1.01697 0.0034621 3.50867e-21)
(1.07076 0.0728705 0)
(1.02767 0.00901797 5.48819e-21)
(1.0105 0.000107381 1.09422e-22)
(1.00382 0.0224912 5.96702e-22)
(1.04326 0.0243531 0)
(1.01226 -5.93268e-05 -5.99258e-23)
(0.936627 -0.0489375 0)
(1.00349 -1.48713e-05 5.36719e-23)
(1.01447 0.00665697 -7.24896e-22)
(1.01655 0.00896644 -3.24923e-22)
(0.349065 0.00637669 5.84311e-21)
(1.04901 0.0509006 2.67264e-21)
(1.01412 -0.000248471 4.17702e-23)
(0.310749 0.00804722 6.26619e-21)
(1.01912 0.00195425 0)
(1.01379 -5.98046e-05 -1.8753e-22)
(0.95301 -0.0125214 -2.64012e-22)
(1.01307 0.00043752 6.66944e-24)
(0.719358 0.0554789 -1.2518e-20)
(1.07699 0.0530787 6.49836e-21)
(0.473184 0.0220047 0)
(1.01755 0.012164 -3.48483e-22)
(0.725606 0.0856092 0)
(1.01751 0.00774635 -2.57841e-22)
(1.01228 0.00177834 0)
(1.08755 0.0568847 -9.64211e-21)
(0.910562 0.00168575 -5.20165e-22)
(1.08644 0.0573773 0)
(1.00199 -0.0805633 -1.67502e-22)
(1.04945 0.0226867 2.31375e-21)
(0.860482 -0.13865 0)
(0.458121 0.0188124 0)
(1.00563 0.0224078 0)
(1.01575 0.00662458 4.51693e-22)
(0.538513 0.0651242 -1.00662e-20)
(1.03582 0.0299127 -5.54599e-22)
(1.0106 0.000113509 0)
(1.04847 0.0510329 -5.21553e-21)
(1.01314 0.0022861 0)
(1.03608 0.0201244 5.43573e-21)
(1.00606 0.00040779 1.37829e-23)
(1.01449 0.0066302 0)
(1.08738 0.0572204 0)
(1.05071 0.0796428 6.99363e-21)
(0.831434 0.0593939 1.60561e-22)
(1.01415 -0.000112882 2.34719e-22)
(0.970005 0.0120681 1.83208e-21)
(1.01588 0.00647129 -4.5781e-22)
(1.00392 -4.88101e-06 3.49256e-23)
(1.02825 0.00842021 -5.08705e-21)
(1.06773 0.0193577 -8.45695e-21)
(0.821731 0.0764487 -1.03206e-20)
(1.03543 0.0020043 0)
(1.07035 0.0718903 0)
(1.03249 0.0322572 0)
(1.03564 0.0038519 8.83128e-21)
(1.03933 0.0184691 0)
(1.01672 0.000173814 0)
(1.05172 0.0777731 0)
(1.01442 -0.000202508 -3.54246e-22)
(1.04004 -0.0083561 0)
(1.04133 0.0547471 -2.08599e-21)
(1.02028 0.00388477 0)
(1.0661 0.03519 2.86699e-21)
(1.01483 0.00995999 2.2208e-22)
(1.01721 0.00311753 -3.93463e-21)
(1.03566 0.00423066 -6.64687e-21)
(0.96543 0.0135403 -6.42073e-22)
(1.00723 0.00058453 6.08498e-23)
(1.0535 0.0647614 2.37899e-21)
(1.03171 0.0275357 -1.10892e-21)
(1.00937 0.000996223 5.93791e-22)
(1.06232 0.0159663 0)
(1.02888 0.052232 0)
(0.461279 0.0295546 2.13092e-22)
(0.811287 0.0584498 -6.6718e-22)
(1.07707 0.0286341 -1.85251e-20)
(1.00606 0.000404982 -2.36052e-23)
(1.02219 0.00733762 2.21956e-21)
(1.01891 0.00782728 1.49865e-22)
(1.04158 0.0527201 -6.64388e-21)
(0.985537 0.00488238 5.13112e-22)
(0.481429 0.0300868 -8.18976e-21)
(0.453545 0.0283391 -8.81173e-22)
(1.03897 0.0187149 -4.57886e-21)
(1.07631 0.0285971 1.56663e-20)
(1.01706 0.000694226 -1.29657e-24)
(1.03828 0.00878161 0)
(1.0107 0.000108324 1.1362e-22)
(1.01725 0.0113995 4.68717e-22)
(1.01544 0.00885955 -1.61754e-22)
(1.01127 8.10557e-05 -1.64452e-22)
(1.01024 0.0186301 0)
(1.0528 0.0515388 0)
(1.01787 0.0121339 4.17012e-22)
(1.01705 0.00888414 1.3462e-21)
(1.0179 0.00774953 5.06156e-24)
(1.0069 0.000492252 0)
(1.00728 0.000566628 0)
(1.03017 0.017337 -2.32829e-21)
(1.01536 0.00865913 2.47901e-22)
(1.02418 0.0153794 6.37966e-22)
(1.01223 -5.17128e-05 1.18862e-22)
(1.01666 0.000797327 0)
(1.00786 0.000677575 5.50928e-22)
(1.02727 0.00894411 -2.01106e-21)
(1.0514 0.0138861 2.35446e-21)
(1.01752 0.0123305 3.28363e-22)
(1.0287 0.0505282 -1.95653e-21)
(1.0129 0.00500476 1.76901e-22)
(0.986012 0.0146029 7.92912e-22)
(1.09195 0.0571642 0)
(1.06629 0.034739 0)
(1.05722 0.0620875 -4.81129e-21)
(1.04295 0.0514225 1.03691e-21)
(1.08696 0.0575428 0)
(1.03563 0.0199315 -3.90449e-21)
(1.06158 0.0159401 3.08778e-21)
(1.00631 -0.000268092 1.54848e-24)
(1.00845 0.000158573 -1.6108e-22)
(1.00923 0.000926136 -2.86518e-22)
(1.01657 0.00915049 3.05156e-22)
(1.02576 0.00165929 -2.77665e-21)
(1.02742 0.0545178 1.74925e-21)
(1.01753 0.00020591 -6.0126e-22)
(1.03122 0.027126 4.14743e-22)
(1.01247 0.00429134 6.3421e-24)
(1.04763 0.0815416 -5.59347e-23)
(1.0269 0.00709068 -8.39631e-22)
(0.767801 0.059576 3.32918e-21)
(1.00832 0.000143154 1.09688e-22)
(1.05849 0.0261748 -4.25105e-21)
(1.0121 -2.98632e-05 0)
(1.04728 0.0272089 0)
(1.0887 0.0525212 6.47501e-21)
(1.03194 0.0371151 2.02107e-21)
(1.04708 0.034143 1.36436e-21)
(1.03003 0.0170511 -6.09935e-22)
(1.01244 0.00425086 0)
(1.05979 0.0477774 0)
(1.01282 0.0049361 0)
(1.00151 -2.38334e-05 0)
(1.04692 0.0554636 0)
(1.01122 0.0609093 -1.86409e-21)
(1.006 0.00030395 5.31383e-23)
(1.02328 0.0182939 2.04395e-22)
(1.05783 0.0504996 0)
(1.04336 0.012465 -2.80384e-21)
(1.00842 -1.56641e-05 0)
(1.01763 0.00869701 -1.55346e-21)
(1.00843 -2.22467e-05 1.62333e-24)
(1.01176 3.04434e-05 0)
(1.01869 0.00563594 -1.45666e-21)
(1.01686 0.00880308 -2.05624e-21)
(0.692476 0.0509733 3.03101e-21)
(0.94096 -0.0592883 -2.34324e-21)
(1.04286 -0.0346384 -7.53097e-22)
(1.03663 0.0259895 2.92039e-21)
(1.0203 0.0042001 1.6724e-21)
(1.07525 0.0293101 8.47221e-21)
(1.05087 0.013384 -1.96971e-21)
(1.06291 0.0849441 4.54026e-21)
(1.01186 -0.00127207 0)
(0.321844 0.00981988 -1.8529e-20)
(1.01912 0.00115792 3.62212e-21)
(1.0212 0.0386111 7.48869e-22)
(0.798244 0.0616171 2.79638e-21)
(1.05787 0.0261701 3.59358e-21)
(1.04597 0.0558948 -2.80761e-21)
(1.01558 0.00607811 -7.84938e-22)
(0.978132 -0.013032 5.24999e-22)
(1.01606 0.00640119 1.44322e-22)
(1.02856 0.00884835 1.85555e-21)
(1.01228 0.00400658 2.66359e-24)
(0.494126 0.03152 7.13787e-21)
(1.00782 -0.000568844 0)
(1.05931 0.0474709 -9.32874e-23)
(1.05372 0.0497042 -2.25829e-21)
(1.01239 0.0041036 -2.69889e-24)
(1.0111 9.02556e-05 2.72034e-22)
(1.01079 0.000111917 -5.54748e-23)
(1.02307 0.0181323 -1.86562e-22)
(1.01708 0.0036166 0)
(1.03611 0.00335428 -5.61476e-21)
(1.00753 -0.000527422 -3.09316e-23)
(0.29794 0.00635762 -8.72518e-21)
(1.02847 0.00823267 3.92784e-23)
(1.05741 0.0329004 -1.00953e-20)
(0.701981 0.139261 0)
(1.05284 0.0517805 2.2577e-21)
(1.00947 0.000672288 0)
(1.0628 0.0838235 -9.57932e-21)
(1.01282 0.0609031 -5.66016e-21)
(1.01363 -0.00624255 0)
(1.01434 0.00661482 3.51287e-22)
(1.05055 0.118707 6.11897e-22)
(1.04573 0.115901 0)
(1.01781 0.000762577 6.68513e-22)
(1.0117 0.000469909 -9.31308e-22)
(1.03508 0.0611529 0)
(1.0116 5.1462e-05 0)
(0.984849 -0.0164209 -5.20011e-22)
(1.01597 0.00644079 2.50251e-23)
(1.01522 0.00809346 -5.32661e-23)
(1.06486 0.0407865 0)
(1.05115 0.0352112 3.86736e-21)
(1.05503 0.0502849 5.67296e-21)
(1.0144 0.00663617 0)
(1.01318 0.000376963 1.90499e-21)
(1.00881 -3.9484e-05 -1.33971e-22)
(1.01286 0.00233773 5.86995e-23)
(1.03276 0.0379232 2.0722e-22)
(1.03619 0.0260582 -2.40881e-21)
(1.0086 -3.92132e-05 -4.09143e-22)
(1.05066 0.0354176 -3.82451e-21)
(1.03342 0.00414879 0)
(0.519294 0.0319935 1.83968e-20)
(1.01174 -0.00124693 5.07552e-24)
(0.683653 0.0487048 -6.51719e-21)
(1.05939 0.0255146 1.55642e-20)
(0.66827 0.0490073 0)
(1.03616 0.00373957 1.59322e-21)
(1.0079 -0.000575619 0)
(1.0271 0.00694758 9.86391e-22)
(1.0923 0.0572692 2.45174e-21)
(1.01447 0.0032923 0)
(1.05246 0.0514601 0)
(1.02236 0.0491924 -3.61474e-22)
(1.04283 0.0122883 8.30903e-21)
(1.08722 0.0651785 -1.70856e-20)
(1.02399 0.0145484 0)
(1.06458 0.0355567 1.16232e-20)
(1.05869 0.0254529 -1.11796e-20)
(1.01273 0.00231059 0)
(1.03309 0.0415547 0)
(1.05901 0.0325018 -4.43638e-21)
(1.0201 0.0148761 0)
(1.02981 -0.00696341 0)
(1.0413 0.0645185 -3.5566e-21)
(1.03238 -0.0605359 3.00905e-21)
(1.02834 0.0405229 -3.31688e-22)
(1.02863 0.0109445 -4.61846e-23)
(1.0422 0.0258594 4.96014e-21)
(1.00233 -4.49406e-05 3.50172e-23)
(1.00903 -0.000749016 0)
(0.9934 0.00477379 1.54054e-21)
(1.00928 -7.94958e-05 2.20438e-22)
(1.04051 -0.0568055 3.46844e-22)
(1.00931 -9.40797e-05 0)
(1.00114 0.00834477 -6.0546e-22)
(1.05451 0.0636284 -5.67979e-21)
(1.01327 0.00229214 5.84258e-23)
(0.336438 0.0125361 0)
(1.04147 -0.0327506 3.27428e-22)
(1.07775 0.0531345 0)
(1.03028 0.0165325 0)
(1.01075 0.00439275 -1.90423e-22)
(1.05694 0.0613189 6.24704e-21)
(0.694524 0.128826 3.70962e-21)
(1.00869 0.01934 5.46296e-22)
(1.0329 0.00408214 1.2349e-21)
(0.700377 0.0504018 -1.51005e-21)
(1.02169 0.0190904 0)
(1.02393 0.0147757 0)
(1.03504 0.0330802 0)
(1.05831 0.0475423 1.2727e-20)
(1.07038 0.0507836 -3.51055e-22)
(1.03884 0.0088814 0)
(1.01002 0.00484383 6.96773e-22)
(1.01899 0.00115751 -1.45555e-21)
(1.03548 0.0336033 -9.69179e-22)
(1.0559 0.0503406 0)
(1.06739 0.0341605 -1.46817e-21)
(1.05028 0.0516443 3.74366e-21)
(1.01758 0.000660074 6.26662e-22)
(1.02045 0.00407078 -1.90746e-21)
(1.0059 -0.000207243 -1.1397e-23)
(1.01282 0.00039805 -2.35521e-22)
(1.05408 -0.0219947 0)
(1.01649 0.00110862 0)
(0.527014 0.0331488 -1.78367e-20)
(1.01657 0.00138236 -8.28208e-23)
(1.02044 0.00439111 1.88904e-21)
(1.05489 0.0321307 3.88684e-21)
(1.01517 0.0075846 -1.78306e-23)
(0.898823 0.0920794 -9.90763e-21)
(1.02714 -0.0541538 0)
(1.03222 0.0870753 5.25889e-21)
(1.05423 0.0500238 -1.87447e-21)
(1.05856 0.0775937 0)
(1.07009 0.051213 2.72919e-21)
(1.01181 0.00384944 0)
(1.08603 0.0448744 -1.87489e-20)
(1.01412 0.0030476 0)
(1.0063 -0.000274179 -4.45097e-23)
(0.710527 0.0530316 8.33944e-21)
(0.492845 -0.0603269 0)
(1.00289 0.0245886 -6.59954e-22)
(1.07904 0.0617996 0)
(0.930094 0.0235248 0)
(1.06874 0.0734747 -9.37292e-21)
(1.05285 0.0544091 5.69762e-22)
(1.01611 0.00638204 -2.59834e-23)
(1.04522 0.078498 -2.68639e-21)
(1.01078 -0.00024601 2.23189e-22)
(0.775218 0.0685571 5.6595e-21)
(1.02238 0.00755732 0)
(1.02664 0.0145836 6.02382e-21)
(1.01623 0.00958765 3.85964e-22)
(1.01529 0.00843008 -6.30716e-23)
(0.977788 -0.0272321 -2.6876e-22)
(1.04727 0.0792114 0)
(1.00523 0.000206521 2.8552e-23)
(1.0131 0.000330302 1.26861e-22)
(1.00839 -0.01533 1.17002e-21)
(0.914122 -0.0243501 7.2844e-22)
(1.01343 0.000319613 0)
(1.04506 0.0407711 8.30917e-21)
(1.00818 -1.22859e-05 0)
(1.00968 0.000658041 0)
(1.05396 0.0500977 -4.0517e-23)
(1.02845 0.0106315 0)
(1.05838 0.0323641 0)
(1.01431 0.0064457 -8.97065e-22)
(1.01166 0.00373202 2.91117e-23)
(1.06785 0.0742453 8.14768e-21)
(1.02723 0.039783 3.62658e-22)
(1.08447 0.0553889 -1.23333e-20)
(0.87261 -0.146624 -1.22282e-21)
(0.677127 0.0495866 -7.72383e-22)
(1.02622 0.0399717 0)
(1.01488 0.00960869 -2.1104e-22)
(1.0294 0.0308395 -8.25116e-22)
(1.01723 0.00267607 -1.27053e-21)
(1.00116 -1.9964e-05 0)
(1.0082 -2.2898e-06 0)
(1.01618 0.00941783 5.01501e-22)
(1.01307 0.000740489 2.6697e-22)
(1.00279 -3.22482e-05 8.69537e-24)
(1.01162 0.000868283 5.32549e-22)
(1.07218 0.0753966 6.09946e-21)
(1.01637 0.00819621 0)
(1.01147 -0.0146395 -5.11132e-22)
(1.02198 0.0238415 6.82649e-22)
(1.01182 0.00150767 3.5167e-22)
(1.01462 0.00714145 1.20236e-22)
(1.02188 0.0190079 0)
(1.06714 0.0346858 0)
(1.01793 0.00539481 0)
(0.879855 0.0927124 1.01585e-20)
(0.925904 0.0133516 -3.02359e-21)
(1.0863 0.0442981 1.41528e-20)
(1.00158 -4.07884e-05 8.14196e-23)
(1.05842 0.050791 -2.90126e-21)
(0.700518 0.0521818 -1.23672e-20)
(1.0653 0.0357211 -1.11911e-20)
(1.01169 0.00143071 -2.04654e-22)
(1.01899 0.0483047 -4.10539e-22)
(1.02611 0.00161723 4.58727e-21)
(1.04597 0.0672512 0)
(1.03184 0.0365088 -2.18871e-21)
(1.05669 0.0736901 -3.24266e-21)
(1.04003 -0.0602275 -1.64603e-21)
(1.0378 0.0389882 0)
(0.336409 0.0103919 -3.14024e-22)
(1.00868 0.00045637 -5.63752e-22)
(0.446948 0.0286462 0)
(0.486424 0.0299035 8.15068e-21)
(0.90706 -0.100729 0)
(1.02834 0.00899856 1.99849e-21)
(1.01314 0.000418206 1.23261e-22)
(1.05525 0.0327307 0)
(1.00694 0.000482396 6.50833e-23)
(1.03881 0.0725129 3.38721e-22)
(0.534012 0.0908058 9.34296e-21)
(1.01601 0.00640453 0)
(1.01664 0.00873145 -3.59409e-22)
(1.02891 0.012265 -1.0865e-21)
(0.979381 -0.00594055 2.79095e-22)
(1.01782 0.0122943 4.21712e-22)
(1.01315 0.00104911 5.53989e-22)
(0.522811 0.0344999 -4.01456e-21)
(1.03636 -0.00699689 3.49757e-22)
(1.04291 0.0239065 -6.75277e-21)
(1.01394 0.00290415 0)
(1.03304 0.0359835 0)
(0.903812 -0.109049 0)
(1.01607 0.0060456 0)
(1.00043 -5.28865e-06 1.07614e-22)
(1.01867 0.00614482 0)
(1.07103 0.0551839 -7.14172e-21)
(0.99319 0.0453952 9.8158e-23)
(0.990827 0.0386673 -1.46626e-22)
(1.04676 0.0345731 0)
(1.05988 0.0444785 -1.44673e-21)
(1.01467 0.00895095 -2.16872e-22)
(1.00296 -2.98112e-05 -1.64636e-24)
(1.00911 0.000759941 6.99401e-22)
(1.05668 0.0515238 0)
(1.01846 0.000964013 1.62695e-21)
(1.00743 0.000908059 0)
(1.01359 0.000981465 -5.71824e-22)
(1.0716 0.0504368 2.09963e-21)
(1.03538 0.045767 0)
(0.662204 -0.174105 2.9551e-22)
(0.931237 0.0838621 9.35204e-21)
(0.986381 -0.0230688 0)
(0.540172 0.0611299 3.85732e-23)
(1.00962 -0.000131832 6.43918e-25)
(1.05856 0.0395655 2.45546e-21)
(1.05709 0.032169 1.84218e-20)
(1.05249 -0.0151687 6.56009e-23)
(0.882141 -0.160526 1.53563e-21)
(1.01415 0.00633493 9.98983e-22)
(1.03162 0.000819755 8.82419e-22)
(1.00116 0.00821673 -7.00038e-22)
(1.01842 0.0422045 -8.3478e-23)
(1.00919 0.0357843 0)
(1.00624 -0.000249685 3.03296e-24)
(1.05028 0.0153061 2.04717e-21)
(0.988219 0.0100063 -2.62749e-22)
(1.01833 0.000970757 0)
(1.04244 -0.0128248 1.25809e-22)
(1.00736 0.000879797 0)
(1.03798 0.0304027 0)
(1.00885 0.000681127 -6.434e-22)
(1.0166 0.00960651 0)
(1.05546 0.0646753 7.06923e-21)
(1.05452 0.00361452 0)
(0.902473 -0.014136 7.09144e-22)
(1.01714 0.000177043 -1.60673e-22)
(0.382164 0.00744166 1.95397e-20)
(1.00619 -0.00025505 -1.15784e-23)
(1.03719 0.0253476 -2.66922e-21)
(1.08298 0.0544587 1.00813e-20)
(1.03668 0.0253455 -4.96494e-21)
(1.02278 0.0181823 0)
(1.05545 0.0505727 0)
(1.07119 0.0508593 4.03995e-22)
(0.9897 -0.0642475 9.75858e-23)
(1.02006 0.0150518 -9.56352e-22)
(1.03508 0.0126054 0)
(1.08359 0.0545629 -1.4679e-20)
(1.01565 0.00624213 0)
(1.02044 0.0047232 2.50464e-21)
(1.04136 -0.0190475 0)
(1.01718 0.00874823 9.46492e-22)
(0.66335 0.0472338 1.33951e-20)
(1.01678 3.64511e-05 1.17841e-23)
(0.698818 0.0511219 -1.41973e-20)
(1.0342 -0.0347803 -1.0359e-22)
(1.03784 -0.0266216 0)
(1.01616 0.00622186 -2.67674e-23)
(0.986642 0.00626807 7.24985e-22)
(0.498176 0.030443 2.41145e-22)
(1.06851 0.0335618 0)
(0.902727 0.00515588 -2.93199e-21)
(1.05654 0.0626665 -3.90682e-21)
(1.02852 -0.0394963 -2.22612e-23)
(1.0881 0.0656358 1.89177e-20)
(1.0055 0.000308673 -1.10056e-21)
(1.03241 0.0358317 -2.17061e-21)
(1.06927 0.0516382 -1.06406e-20)
(1.02638 0.0142369 -3.39074e-21)
(1.01694 0.00932797 0)
(1.008 -0.0690283 7.53999e-22)
(1.02981 0.0423769 2.58528e-22)
(1.0107 0.00278009 1.1775e-21)
(1.00556 0.000221879 0)
(1.05552 0.0726423 1.50794e-21)
(1.01227 -0.071409 0)
(1.01058 0.0165975 0)
(1.00189 -5.28321e-05 4.14228e-23)
(1.03563 0.0452508 0)
(1.05018 0.0156451 0)
(0.909698 -0.170164 2.98068e-21)
(1.01852 0.011081 0)
(1.02487 0.00707806 -2.32371e-22)
(1.03471 0.0842003 -4.02646e-21)
(1.01464 0.00329659 -4.63738e-24)
(1.00901 -6.5517e-05 1.2207e-23)
(1.02696 0.0146113 0)
(1.04476 0.0292147 1.56691e-21)
(0.707847 0.0524529 0)
(1.03426 0.0483802 0)
(0.925572 0.0278736 9.13004e-21)
(1.01229 0.000407327 0)
(1.01756 0.0112009 -6.50769e-24)
(0.726529 0.0531386 0)
(1.01756 0.00342576 0)
(1.04542 0.0433075 0)
(1.01616 0.00584565 0)
(1.00901 -5.60493e-05 3.67349e-22)
(1.00992 -0.014693 0)
(1.03799 0.0797184 0)
(1.0023 -7.1116e-05 -8.68695e-24)
(1.01521 0.00774408 0)
(1.01232 0.000421148 -5.75666e-23)
(1.06862 0.0513772 1.39338e-20)
(1.00232 -2.99915e-05 1.67034e-22)
(1.05171 0.0291706 -6.51652e-21)
(1.02235 0.0581951 4.234e-21)
(1.05927 0.0442674 0)
(1.06624 0.0519816 -4.63811e-21)
(0.609348 0.105456 0)
(1.07278 0.0562537 9.66881e-23)
(1.03482 0.0298151 -3.8886e-21)
(0.94644 0.0847042 1.29168e-21)
(1.02373 0.000499058 6.25644e-21)
(0.694783 0.0521955 3.58988e-21)
(1.03483 0.0128233 -2.05573e-21)
(1.01284 0.0224095 0)
(1.01445 -0.0061297 2.22009e-23)
(1.01404 0.000947531 1.71916e-21)
(1.02422 0.0012918 -3.12661e-21)
(1.07384 -0.0360701 0)
(1.01765 0.00906713 -6.44361e-24)
(1.01626 0.00603976 0)
(1.0061 0.000427026 1.99949e-23)
(1.04565 -0.00885222 -8.17064e-22)
(1.00907 0.000439316 -6.40939e-22)
(1.03038 0.0168772 0)
(0.990052 0.0300656 0)
(1.07087 0.0751791 1.29437e-21)
(1.08429 0.0687124 4.48667e-21)
(0.500121 0.0347107 0)
(0.743788 0.0879455 7.77985e-21)
(1.06826 0.034123 0)
(1.08816 0.0538907 0)
(1.06004 0.0249072 -1.19399e-20)
(0.689269 0.0501456 0)
(1.02836 0.00953882 0)
(1.05882 0.0478495 -6.96266e-21)
(1.04377 -0.0237011 0)
(1.04794 0.0564635 3.40019e-21)
(1.01353 0.0593788 7.26358e-22)
(1.01217 0.00128443 -3.95379e-22)
(1.0422 0.0127406 5.11083e-21)
(0.546509 0.0822712 0)
(1.08006 0.0353086 -1.10833e-20)
(1.01043 -0.000194961 -1.12511e-22)
(0.543853 0.088632 0)
(1.08141 0.0509555 2.11759e-20)
(1.03949 0.0656984 0)
(1.02806 0.0476974 5.20312e-23)
(1.07056 0.0557134 5.88949e-21)
(1.01036 -0.000170583 3.35707e-22)
(1.02086 0.0150603 0)
(1.07931 0.0353303 2.33862e-20)
(1.00368 4.12395e-05 0)
(0.99883 0.0074655 6.7234e-22)
(1.05363 0.0618187 9.4101e-21)
(1.00958 -0.000112994 -1.1789e-22)
(1.02182 0.0159687 0)
(1.00923 0.00118832 6.67895e-23)
(1.06346 0.0700384 0)
(1.00394 0.00769044 0)
(1.04231 0.0124628 -8.63912e-21)
(0.97934 0.135979 8.6279e-21)
(0.452805 0.0299298 2.08072e-21)
(1.04582 0.0230685 6.57002e-21)
(1.06011 0.0244604 8.3028e-21)
(1.02279 0.00694122 -1.2044e-21)
(0.781678 0.0700006 0)
(0.861549 0.00659739 1.19278e-21)
(0.929771 -0.0580652 1.13384e-21)
(0.987695 0.0110284 -7.38706e-22)
(1.03737 0.0550159 -6.32417e-21)
(1.04282 -0.0115258 0)
(1.01792 0.00493001 -1.4866e-21)
(1.04879 0.0561303 0)
(1.02182 0.0157633 7.8662e-22)
(0.633473 0.045176 0)
(0.656171 0.0472466 -7.3984e-21)
(1.00905 0.00117864 1.22547e-22)
(1.02138 0.0159255 0)
(0.945576 -0.0510548 -9.90922e-21)
(1.05748 0.0786855 -4.10618e-21)
(0.99982 -3.30545e-05 -1.06666e-22)
(0.612269 -0.0414563 1.91681e-21)
(1.04606 0.0344716 -1.24229e-21)
(0.758225 0.0321926 7.60099e-23)
(1.01086 0.00105477 0)
(1.02063 0.0147623 5.15906e-22)
(1.05071 0.0367537 -1.58878e-21)
(0.701155 -0.0105623 -2.95598e-23)
(1.08165 0.0505352 -1.53728e-20)
(1.01917 0.0063102 -7.11729e-22)
(1.05881 0.0412978 5.46738e-21)
(1.03175 0.02794 0)
(1.05564 0.0442209 -5.13643e-21)
(1.01501 0.00063012 3.08e-21)
(1.04346 0.0622933 0)
(1.01928 0.00623451 -1.61514e-21)
(1.02392 0.00133532 2.9504e-21)
(1.05896 0.0175533 0)
(1.01923 0.0160648 6.59377e-23)
(0.781903 0.0530537 1.13805e-20)
(1.07973 0.0620454 -5.48844e-21)
(1.0437 0.0224847 0)
(0.701545 -0.0254248 -3.20588e-21)
(1.04482 0.0401681 -6.24827e-21)
(0.560588 0.0388335 0)
(1.01879 0.00588822 2.51362e-21)
(1.01969 0.0132329 -2.04284e-22)
(1.06751 0.051702 0)
(1.06283 0.0584064 2.63937e-21)
(0.721191 0.0983475 0)
(1.01099 0.00284376 6.7399e-22)
(0.960628 -0.0185443 5.48008e-22)
(1.01284 0.000539963 -9.50524e-22)
(1.00898 0.000132997 -2.26488e-22)
(1.01563 0.00339026 -8.80414e-23)
(1.02795 0.00940176 0)
(1.0178 0.0100927 -8.48856e-22)
(1.00476 0.00343254 -2.83427e-23)
(1.08355 0.0687439 -1.35235e-22)
(1.02862 0.112092 -3.10174e-21)
(1.00082 -2.2638e-05 1.047e-22)
(1.03484 0.0477165 0)
(1.02864 0.0206225 2.44683e-21)
(1.04969 0.0232119 8.44344e-23)
(1.03129 0.0946512 -4.22345e-21)
(1.00875 0.000138428 2.18262e-22)
(1.0174 0.0117063 -3.9036e-22)
(1.04526 -0.0269471 7.93756e-22)
(1.0407 0.103024 4.08381e-21)
(1.04171 0.0258009 -2.48363e-21)
(1.0122 0.00136646 0)
(1.00307 0.000112357 0)
(1.00097 -9.4378e-06 -4.94226e-23)
(1.02234 0.0244138 4.20212e-22)
(1.01509 0.00307717 0)
(0.968553 -0.0637807 -1.35576e-22)
(1.04398 0.12464 0)
(1.02297 0.0183412 0)
(1.05936 0.0535704 0)
(1.04065 0.0519956 1.83388e-21)
(0.626092 0.10605 -6.84895e-21)
(0.557415 0.0385515 0)
(1.05241 0.0511298 4.29021e-21)
(1.00801 0.00055885 -2.30843e-22)
(1.02562 0.0224629 -5.93643e-23)
(1.00169 -3.87468e-05 0)
(0.995733 0.0133624 1.81108e-22)
(1.01534 0.00864176 -2.42738e-22)
(0.932947 0.0320675 -7.3051e-21)
(1.05914 0.0436324 5.52442e-21)
(0.531103 0.0357845 6.78342e-21)
(1.01071 -0.000226955 1.20713e-22)
(1.01368 0.00222203 0)
(1.06371 0.0689967 -1.54811e-22)
(1.00993 0.000483506 0)
(1.00611 0.000423807 0)
(1.01144 0.00251145 -7.65196e-22)
(1.05845 0.057998 -2.6647e-21)
(1.01637 0.00584473 5.01918e-24)
(1.00094 0.0347301 5.54808e-22)
(1.02405 0.000596451 0)
(0.943407 -0.0409243 2.97182e-22)
(1.01265 5.36282e-05 2.60896e-22)
(1.03146 0.0264979 -4.3188e-22)
(1.07202 0.0561418 7.03147e-23)
(1.04575 0.03478 -1.50297e-21)
(1.01913 0.0184648 -1.01513e-22)
(1.09529 0.0648213 -1.4889e-21)
(1.02021 0.0494597 9.64447e-22)
(1.07597 0.0293518 0)
(1.05066 0.0524187 5.82698e-21)
(1.01713 0.00744709 2.87321e-22)
(0.746799 0.0515868 0)
(0.583862 0.110957 0)
(1.05303 0.0628504 4.86448e-21)
(1.0427 0.0412177 -1.11724e-21)
(0.532243 0.049669 9.02532e-23)
(1.00762 0.000603404 2.73143e-22)
(1.02526 0.0190533 1.39513e-21)
(1.04877 0.0225179 0)
(1.04698 0.0630843 0)
(1.01831 0.0524923 8.94047e-22)
(1.03795 0.0241926 3.06028e-21)
(1.01724 0.00808748 0)
(1.03428 0.0913487 2.3438e-21)
(0.84342 0.0585836 0)
(0.616394 -0.145043 9.94467e-22)
(0.825929 0.0654426 0)
(1.05382 0.0304019 1.37482e-20)
(1.05027 0.0522383 -6.73666e-21)
(0.558422 -0.054482 -1.45043e-21)
(1.04204 0.00891958 1.4834e-21)
(1.04724 0.00621114 1.13243e-22)
(0.875958 0.00856876 0)
(1.02739 0.0157069 -1.14859e-22)
(1.00922 3.99799e-05 1.27757e-22)
(1.01683 0.0420771 2.59115e-22)
(1.00176 -2.49825e-05 -7.78799e-23)
(1.07812 0.0734266 -8.90517e-22)
(1.00606 -0.000222713 8.66212e-24)
(1.01663 0.0521858 5.91982e-22)
(0.662921 0.0486519 -1.39381e-20)
(1.01482 0.000659409 0)
(1.01473 0.00732466 -1.25766e-22)
(0.927292 0.0246834 7.19383e-21)
(0.546697 0.0372021 -5.44719e-21)
(1.07297 0.0308449 1.87613e-21)
(1.01168 0.00612314 -9.55989e-22)
(1.00901 3.26891e-05 -2.40723e-22)
(1.03787 0.0237865 0)
(1.02681 0.0276559 0)
(1.05683 0.0485659 7.90311e-22)
(1.04975 0.0431432 -3.07425e-21)
(0.944545 -0.133019 0)
(1.03777 0.0497079 -8.64849e-22)
(1.01525 0.00783065 9.77249e-23)
(1.02879 0.0203595 -1.36716e-21)
(1.04608 0.051757 0)
(1.02272 -0.0468657 1.01808e-22)
(0.847878 0.152071 2.02816e-21)
(1.01319 0.000587894 0)
(1.06423 0.0732405 9.01993e-21)
(0.568139 0.0417679 0)
(1.0156 0.00863567 1.34897e-22)
(1.02743 0.0161647 -4.01577e-21)
(1.01136 0.00192312 0)
(1.00013 -2.10939e-06 0)
(0.414552 0.0248879 0)
(1.01123 0.0019319 0)
(1.0187 0.0184388 -1.23937e-22)
(1.01066 0.000469377 -7.52417e-22)
(0.646996 -0.156738 -1.08147e-21)
(0.434674 0.0141646 0)
(1.0134 0.000834959 1.55873e-21)
(1.01711 0.00923037 7.89088e-22)
(1.03846 0.0284672 -2.37708e-22)
(0.795769 0.149012 2.67296e-21)
(1.00649 -0.00030982 2.69282e-24)
(1.03875 0.0282104 -9.40424e-22)
(1.01229 0.0162317 0)
(1.00962 -0.0119481 1.6389e-22)
(1.0083 0.000662955 -2.49917e-22)
(0.528899 0.0698653 1.0308e-21)
(1.0311 0.0260101 -1.62695e-21)
(1.03491 -0.0445633 -7.59979e-22)
(0.999699 -7.5188e-06 -2.23428e-22)
(1.03651 0.00322685 7.19332e-21)
(1.05505 0.0280962 0)
(1.01375 0.006427 0)
(0.654495 -0.0369177 1.46599e-21)
(1.032 0.0301558 -3.0308e-21)
(0.616712 0.0813755 0)
(1.04438 0.0555396 2.86548e-21)
(1.0742 0.0314755 0)
(1.04386 0.0542709 -2.61112e-21)
(0.974136 0.185766 0)
(1.02131 0.0165856 -1.46901e-22)
(1.01395 0.00691606 0)
(1.01214 0.00564111 -4.96598e-23)
(1.0093 0.00214526 -6.97851e-23)
(1.0111 0.00386785 4.99915e-23)
(1.07707 0.0475535 0)
(1.05467 0.0274519 -6.99047e-21)
(1.06002 0.0533569 0)
(1.05898 0.0816649 1.2975e-20)
(0.944539 -0.133541 4.78532e-22)
(1.01105 0.00021933 -2.99909e-23)
(0.912059 0.068747 0)
(1.0679 0.0406709 2.88958e-21)
(0.964049 -0.0322704 1.99939e-22)
(1.02207 0.0355063 7.92575e-23)
(1.05444 0.051239 -4.19473e-21)
(1.04036 0.0273336 -1.8546e-21)
(0.959719 -0.11849 9.82858e-22)
(1.04256 -0.00398212 3.32719e-22)
(1.0076 0.000181716 -5.44664e-23)
(1.00304 -5.23547e-05 2.83849e-24)
(1.00575 0.000270097 0)
(1.02296 0.00720228 -1.23949e-21)
(0.655655 -0.0454781 4.4548e-21)
(1.00943 0.00219822 -1.22291e-22)
(1.02967 0.0124201 4.57101e-21)
(0.761154 0.0524826 0)
(1.09331 0.0619181 1.02475e-20)
(0.687461 0.0491591 0)
(1.01736 0.00785951 -1.10814e-21)
(1.06923 0.0258462 0)
(1.04158 0.00902083 -3.59407e-22)
(1.02042 0.0142423 2.84607e-22)
(1.03779 0.0528136 3.04708e-21)
(1.01733 0.00860818 2.99512e-22)
(1.05893 0.0777972 0)
(1.0532 0.0197812 5.37392e-21)
(1.01303 0.0239472 0)
(1.01339 -0.00037375 -2.31789e-22)
(1.01342 -0.00029041 0)
(1.05075 0.0654251 2.74158e-21)
(1.05364 0.0202913 0)
(1.09444 0.0623754 -2.1593e-20)
(1.01523 0.00855272 1.70103e-23)
(1.006 -0.000224165 0)
(0.989156 0.152367 0)
(1.01182 0.00173816 6.10764e-22)
(1.01657 0.00356366 -1.16267e-21)
(0.500793 0.0341963 7.40946e-21)
(1.05912 0.0579587 9.83515e-24)
(1.0638 0.0522088 9.91534e-21)
(1.02519 0.0189616 -3.86246e-22)
(1.00148 -1.14775e-05 4.75821e-23)
(1.00336 -6.13269e-05 0)
(1.01633 0.00337829 -3.99209e-22)
(1.03432 0.0127415 1.69589e-21)
(1.072 0.0592971 -8.40445e-21)
(1.07836 0.0524928 9.77151e-21)
(1.04159 0.0805337 3.3674e-21)
(1.01361 0.00144088 0)
(1.05859 0.0434181 -6.68139e-21)
(0.996966 0.00948829 -6.83426e-22)
(1.01735 0.0109196 -3.30601e-22)
(1.0257 0.0245596 1.06336e-22)
(0.681721 0.0488278 0)
(1.03656 0.0332348 0)
(1.00957 0.000629321 -1.11788e-22)
(1.02628 0.0273861 0)
(1.01316 0.000649178 -2.59165e-22)
(1.00778 0.0001809 2.73419e-22)
(1.02878 0.0623864 1.43182e-21)
(1.05682 0.0479614 -7.60038e-22)
(1.00229 -2.75399e-05 -1.67621e-22)
(1.01487 0.00744807 -3.91936e-24)
(1.03709 0.0410103 -9.94661e-22)
(1.08025 0.0470688 0)
(1.06098 0.0236416 9.97885e-22)
(0.6257 0.0846407 0)
(1.04437 0.0091514 6.83978e-21)
(1.04918 0.0189351 0)
(1.09546 0.0648478 0)
(1.03181 0.00215929 0)
(1.02777 0.016362 3.61576e-21)
(1.01955 0.0113543 3.68277e-22)
(1.04997 0.0437047 -5.60997e-21)
(1.06812 0.0519789 -4.38616e-21)
(1.02535 0.0134045 -7.60023e-22)
(1.05148 0.0645468 -2.54222e-21)
(1.01501 0.00757282 1.34894e-22)
(0.733167 0.102266 0)
(1.02065 0.0145328 0)
(1.01653 0.00338754 -1.14584e-21)
(1.09759 0.0638747 -1.50447e-21)
(1.01192 0.00382128 0)
(1.01674 0.0090601 6.82541e-22)
(1.00936 0.00126638 0)
(1.00133 -2.5072e-05 0)
(1.01715 0.00776067 1.56232e-21)
(0.497377 0.0316073 -1.5072e-20)
(1.03417 0.0129748 2.31097e-22)
(1.07469 0.0599416 6.7916e-21)
(1.01231 0.00163766 0)
(1.01162 0.00150738 0)
(1.01255 0.000458412 0)
(1.01441 0.00012666 3.41729e-22)
(1.01445 -1.14422e-05 -1.15176e-22)
(1.02027 0.00453519 -8.30919e-22)
(1.03146 0.0300584 -1.8656e-21)
(0.985542 0.177218 -1.27878e-21)
(1.03002 -0.00419085 3.53426e-22)
(1.04121 0.00677578 0)
(1.01187 0.00185566 0)
(0.968695 0.082161 -4.50171e-21)
(1.06965 0.0329637 -7.17331e-21)
(1.04372 0.0422384 -5.71644e-21)
(1.03747 0.00907114 0)
(1.0121 0.00179301 0)
(1.00749 0.000328999 -9.87003e-23)
(1.02343 0.0202613 2.65932e-22)
(1.01481 0.00736225 3.48511e-22)
(1.05689 0.0811055 -4.24891e-21)
(1.00997 -0.000890562 2.8634e-24)
(1.01646 0.00299573 3.25371e-22)
(1.02364 0.020175 -1.33321e-21)
(0.345869 0.0116952 -6.32631e-22)
(1.01283 0.00108308 0)
(1.03702 0.0387152 -1.60219e-21)
(1.0076 0.000951365 6.77783e-23)
(1.00762 -0.00054639 3.29867e-23)
(1.00513 0.0183642 0)
(0.974838 -0.10448 3.34105e-22)
(0.779849 0.0961231 0)
(1.00266 -1.62299e-05 2.17207e-23)
(1.00426 3.72744e-05 -3.93026e-23)
(1.07959 0.0470482 0)
(1.00554 0.000230631 -2.97522e-23)
(0.662092 -0.0182887 0)
(0.977472 0.00269039 0)
(1.07186 0.0395258 -4.93235e-21)
(0.536345 0.0629745 0)
(1.00761 -0.000535203 0)
(0.976084 -0.0182697 2.58997e-22)
(1.03804 0.00914543 0)
(1.06584 0.0428565 0)
(1.07248 0.0396506 0)
(1.06544 -0.0266589 0)
(1.01112 9.33322e-05 0)
(1.07376 0.0307879 0)
(0.512557 0.0560687 0)
(1.01281 0.00104517 -8.90268e-23)
(1.01515 0.00756847 -3.59886e-22)
(1.00394 0.000152553 1.09036e-21)
(0.939642 -0.0651708 2.23126e-22)
(1.00695 0.0175717 -2.8958e-22)
(1.07308 0.0381882 0)
(1.02195 0.0103861 5.58163e-23)
(1.01267 -0.000569095 -3.81537e-22)
(0.988964 0.000519907 0)
(0.993099 0.0293687 1.25556e-21)
(1.07707 0.0715234 9.37783e-21)
(1.05808 0.0329917 9.06292e-21)
(0.989616 0.0231082 0)
(1.01076 0.0028873 3.63144e-25)
(1.0158 0.00423577 0)
(1.01281 -0.000707038 -3.59434e-22)
(1.06251 0.0387812 -1.42903e-21)
(1.00875 4.88019e-05 0)
(1.01142 -0.00116558 0)
(1.0166 0.00945845 6.32721e-22)
(1.05416 0.0321354 7.31768e-21)
(1.04649 0.0511758 0)
(1.00768 0.000980599 -7.39329e-23)
(1.05207 0.0309016 0)