/*--------------------------------*- C++ -*----------------------------------*\
| =========                 |                                                 |
| \\      /  F ield         | OpenFOAM: The Open Source CFD Toolbox           |
|  \\    /   O peration     | Version:  v2012                                 |
|   \\  /    A nd           | Website:  www.openfoam.com                      |
|    \\/     M anipulation  |                                                 |
\*---------------------------------------------------------------------------*/
FoamFile
{
    version     2.0;
    format      ascii;
    class       volScalarField;
    location    "100";
    object      ddt0(omega);
}
// * * * * * * * * * * * * * * * * * * * * * * * * * * * * * * * * * * * * * //

dimensions      [0 0 -2 0 0 0 0];


internalField   nonuniform List<scalar> 
54593
(
3.98721e-06
3.18401e-05
-1.22445e-06
-0.0608597
0.0220184
0.050092
0.0149688
-0.000664015
0.0002407
-2.02161e-06
4.61137e-05
-2.60562
0.0150915
2.24904e-06
-0.0100563
5.39269e-07
-0.000638797
-0.000243581
-2.33486e-06
8.31258e-05
-1.40496e-06
4.61145e-05
-8.71217e-07
-0.14025
7.83215e-07
0.00394597
3.79288e-06
1.25866e-05
0.173144
-7.04303e-07
0.00412588
-0.0682236
1.17702e-06
-0.0529077
-0.00110589
-1.31117e-07
0.000404483
2.29578e-05
-5.65181e-07
4.4426e-05
-0.00375604
1.14172
-1.01765e-06
3.90962e-06
0.0139749
-1.40328e-05
0.000618917
0.0014733
-2.25168e-06
-0.000290738
1.17384e-06
-2.43906e-06
2.15676e-05
0.0147787
0.00233691
-2.01203e-06
0.224836
1.24316
0.00189717
0.00707758
-1.04346e-06
-2.87227e-05
2.19184e-06
-0.0512348
2.57649e-06
-4.60306e-07
-0.00463659
0.0399146
-0.0768068
-0.0807017
-2.39361e-06
0.00159779
2.89451e-06
-0.0371663
-1.35434e-05
4.01341e-05
6.77111e-05
-0.344735
0.0385482
-0.0748155
-2.13838e-07
-0.0536333
3.7855e-06
-0.0459086
2.87286e-05
-0.0584621
0.246588
0.0020934
-0.0234284
-3.49178e-07
-0.123848
3.72933e-05
-0.00185555
0.0285379
-4.0127e-05
-0.149444
-0.117732
0.0252389
2.19049e-07
-0.000332607
8.60852e-06
-0.00506849
2.41114e-06
1.23057e-06
-0.019097
0.000418825
4.1019e-05
0.00196683
3.73505e-05
-0.00188128
0.0746273
1.5645e-06
-4.0152e-07
0.0032835
2.43587e-06
-0.0189972
-0.0742937
-0.046687
-0.0444456
-0.00191349
-0.0499797
7.9375e-08
0.101716
-0.00019808
-2.62155e-06
0.022979
9.9272e-05
-2.47291e-06
0.129344
-0.117806
-1.39223e-06
-9.00447e-06
4.89112e-05
-1.37564e-07
3.58073e-05
-0.00412607
-3.40915e-06
-0.000747235
1.1446e-06
-5.50399e-08
0.143467
0.00882931
4.39878e-05
-4.79077
3.62942e-05
0.0298833
0.0752575
0.00125228
-0.00875952
-3.28381e-06
-0.00124652
-1.45446e-05
0.00403835
0.00730637
-8.22062e-06
0.221166
4.38959e-05
0.20932
-0.0165474
3.36972e-07
0.157783
-1.13333e-06
0.154533
-0.0744979
-9.05326e-06
-4.83797e-07
-1.24491e-07
-8.69669e-07
-0.00538188
-8.02803e-11
0.00291884
-0.00593615
-0.021603
8.0661e-08
0.000233452
7.75183e-07
0.0837016
-1.52848e-05
2.45465e-05
-0.00556285
0.0422168
-1.05826e-06
0.20116
7.84174e-06
2.19469e-07
-0.540574
-3.22988e-06
1.90991e-05
2.40432e-06
-5.40144
-1.10548e-05
0.0255968
-0.139142
3.2246e-06
0.244713
0.0801903
4.68944e-06
1.87072e-05
0.00340552
-0.0479012
2.99053e-05
0.0440796
0.00165784
2.76751e-06
-1.54908e-05
-1.46316e-05
-0.0599217
2.56091e-05
-7.0275e-07
-1.43947e-07
-5.15021e-07
2.49676e-06
-1.02958e-06
3.95235e-05
-3.37148e-05
0.00343642
0.107573
0.0124872
-0.26814
4.80243e-06
3.617e-05
0.528116
0.576032
3.95818e-06
-0.00107875
-1.16486e-05
5.1315e-08
0.00506919
-8.49033e-07
0.00426777
-3.12158e-05
0.00286891
-1.57898
2.6227e-07
1.01147e-06
-0.269407
0.00322076
3.76064e-07
0.0168707
3.70819e-07
4.08093e-06
4.34726e-05
-0.0525188
-0.00485245
8.23249e-08
-1.91623e-05
0.194553
0.00464214
-8.18634e-07
0.952478
-0.00187602
0.100409
0.122433
8.52375e-07
-1.23912e-05
-8.63483e-07
0.074343
2.22898e-05
-0.0790975
4.80065e-05
0.000847167
0.0212604
1.44196e-06
-0.0454405
-2.9527e-05
1.82655e-06
-0.300633
-8.09165e-07
5.53079e-05
-5.20527e-07
-0.0472894
-0.0344067
2.87653e-05
4.01604e-06
-1.86611e-05
-4.36927e-06
-1.47674e-05
-0.0493102
1.59367e-06
0.000311213
-5.7863e-07
7.7488e-05
1.06435e-05
0.190188
0.191938
-0.00148417
4.73637e-05
-1.49396e-06
5.92931e-05
-0.327611
0.111011
-0.0554694
7.73246e-07
-9.54873e-07
0.00118249
8.05463e-08
0.0585257
0.0208844
2.58948e-06
0.00262255
0.0972096
4.43278e-06
-4.00361e-07
2.22726e-09
-2.60344e-06
-1.16046e-05
-0.000310998
0.0349934
-3.24799e-06
4.90684e-06
0.123527
0.00025173
-0.296353
6.92607e-07
4.31232e-05
-0.293928
0.123305
-0.0510706
0.000217745
1.28501e-05
-0.000663688
-8.17738e-07
-0.00707022
-2.04181e-05
0.0261427
-0.000548074
-0.0632027
1.8478e-06
0.0309736
-0.000207953
-3.40752e-07
6.69481e-05
1.51455e-06
-5.30396e-07
1.15148e-09
-0.00487114
2.96278e-06
0.242667
0.00465076
2.51157e-05
-0.000148104
2.00069e-05
0.116295
2.38015e-05
-1.13477e-05
0.000339069
-0.000269331
0.00289827
0.000123891
0.308207
0.64483
-9.05519e-07
0.00818354
-0.00320639
1.84129e-06
-1.09489e-06
-5.56916e-05
-1.58512e-06
-3.80001e-06
4.70639e-06
0.00887856
4.07804e-05
3.23265e-05
0.0721868
-0.0598473
7.87738e-07
-1.62819e-06
-1.18266
0.000131618
3.45071e-06
-9.00424e-06
-2.58223e-06
-8.504e-07
1.37985e-05
-9.88303e-07
-0.0154353
1.68043e-06
1.37015
1.81338e-05
0.133833
-0.0715583
-0.00219205
-0.473795
0.00178925
0.00167786
0.0350208
0.62269
1.4657e-06
-0.0547763
-0.0128218
0.00149613
0.00197351
5.26159e-06
-1.10267e-06
-0.313942
0.290511
-3.92908
0.000215116
-0.103374
0.0010794
3.5731e-05
-0.000298376
-0.0541174
0.000335597
-0.00217157
0.227558
2.16359e-08
-0.0371232
1.8676e-06
0.0117771
0.00118658
1.77597e-06
-6.158e-08
-0.00186847
2.27846e-06
0.148307
0.000262089
1.63834e-06
-1.22921e-05
-5.22037e-05
-0.00295757
0.00221327
-0.000457963
0.00102972
0.185936
-0.319409
0.234749
-0.000289843
-0.156161
-0.000265058
-0.197054
0.00155866
-0.00137819
-0.000209501
0.0010561
-3.31603e-05
3.94474e-06
-0.00121265
0.00540942
0.00834551
0.0154921
2.40968e-07
-2.57603e-06
-1.66012e-06
0.549334
0.00108796
4.50108e-06
3.10531e-07
0.004004
0.00285471
0.332522
-0.00783458
-0.0463675
0.00680091
-0.0588071
-0.00224378
0.000181681
-3.6699e-07
-1.36609e-05
0.00165211
4.40692e-06
-7.5965e-07
-0.00451984
-1.01697e-05
5.47493e-07
-0.000875275
0.0106172
-1.10838e-06
0.000227877
1.04911
-0.261973
-0.202167
8.84129e-05
1.12493e-06
0.243785
-1.51387e-05
-1.42456e-12
0.0174865
-0.233406
-1.03953e-06
0.000202743
1.88266e-06
-0.0139877
0.000820924
1.44686e-06
-1.2688
-0.0005628
0.01559
7.86717e-07
0.0723612
-0.00529882
2.08068e-07
1.6868e-06
2.21247e-05
0.19054
9.68759e-06
0.00275614
-1.18563e-05
0.00248977
-1.13332e-05
0.742317
0.278551
-0.0140929
-0.00619122
-4.09738e-06
0.000950864
3.36287e-07
0.0037681
0.00180246
-2.54835e-07
-2.21419e-06
0.00123357
0.267094
3.02982e-07
4.73657e-05
-0.0235838
0.00921425
8.57737e-07
0.0230026
4.4899e-06
0.00230278
4.9986e-05
1.01534e-05
-2.64301e-07
4.9651e-06
0.00108507
0.0970489
0.184869
-0.0516129
-2.32559e-06
0.0646619
3.64254e-05
0.00271542
-6.47367e-06
-2.64584e-06
-7.53107e-07
-0.0875257
1.66368e-06
4.30538e-05
-0.000304849
-5.05167e-06
2.36502e-06
2.0621
0.201798
-1.47492e-05
0.00432139
0.102838
-3.31428e-07
-0.159696
5.1011e-07
0.105663
8.67905e-05
0.00439382
0.0770222
-0.00169881
-0.00277837
-0.00334242
0.0639731
-0.00994229
-0.0568214
-1.61475e-06
2.6893e-07
0.00416799
0.000216328
-0.0582967
9.05686e-06
-0.195406
-2.52651e-06
-1.01312e-05
0.00194516
8.67096e-07
6.74607e-05
0.0441992
3.53295e-05
-2.56068
-0.0324577
0.0512964
-0.0330399
0.0563623
-0.00558953
2.19734e-07
-7.91997e-07
-3.25234e-05
-4.07555e-06
3.48005e-05
-1.12509e-05
0.00400827
-5.63224e-06
-0.00384018
4.26756e-05
-3.11117e-05
-0.029809
-0.000440223
0.000700275
9.05763e-06
0.11935
0.0723298
-4.36501e-06
1.84361e-08
-0.00529067
0.0517099
2.76052e-05
2.67822e-07
-0.11863
0.0664947
0.0831513
0.277157
2.88441e-06
5.11646e-05
-0.000171572
-0.00270453
-4.2024e-06
1.60157e-08
-0.000738464
-4.8263e-05
8.73619e-05
3.30769e-05
-0.0212999
0.0703619
2.34409e-07
-7.89974e-07
-0.173849
0.00396574
0.00215652
0.0179713
-0.00446092
-0.00204256
-0.207105
-0.128033
0.000514329
0.0913773
4.30454e-06
-1.34208e-05
-0.000430445
-4.11498e-06
0.000248321
-0.00484579
1.46636
-4.79327e-06
0.0217874
-0.00110321
-6.00973e-06
-0.00888966
-1.14959e-06
7.61896e-07
0.0267993
0.113449
-0.176634
-5.95354e-05
0.264096
3.52752e-07
0.0098567
-0.175279
-0.0560539
-2.68997e-07
-1.20074e-06
0.0304143
0.000136904
9.42068e-06
-9.45618e-08
-4.99819e-08
-4.66499e-06
-0.415922
-0.00293068
2.02907e-06
-4.21702e-06
-0.266842
0.00393768
-1.31288e-05
-8.70901e-07
-6.29523e-06
0.000263643
8.08592e-06
3.744e-05
-0.00264185
-0.152767
-0.023712
3.31049e-05
-2.5128e-07
3.97928e-06
1.0334e-05
0.00010666
2.58817e-07
0.0547505
0.152218
1.67945e-05
-3.11178e-07
-5.27844e-06
-0.15113
0.0276074
-3.11883e-06
-6.53413e-07
0.0154875
-9.23159e-06
5.51552e-05
0.0195143
2.07716e-06
0.0095485
-0.0252992
0.00039431
-3.71775e-07
2.47565e-05
-0.0513413
-0.000234952
-2.57051e-06
-0.0176552
3.42617e-06
-0.0441306
-0.000314503
-3.50388e-05
-1.49976e-05
-3.2416e-06
-0.0171186
-2.0738e-07
-0.000878836
0.067194
-0.000359606
3.1615e-06
8.40712e-05
-0.31373
7.54789e-05
0.244671
9.33301e-05
-0.24927
-0.101619
-0.0462438
-2.0674e-07
0.21681
2.584e-05
3.04656e-07
-1.29636e-06
-1.15335e-06
-0.746721
-0.0081698
-0.00770388
0.00411506
0.00031291
3.95927e-06
3.37064e-05
-2.06058e-07
3.73324e-06
0.0251755
0.0721946
0.0373591
5.80936e-08
0.0518273
0.00257531
-0.00428315
-0.00901508
0.156049
-0.0104207
0.00330944
-0.405001
0.392388
-0.325994
-0.119571
2.09329e-06
0.0599182
0.013283
0.00390821
0.252233
0.184676
0.193023
0.000104466
0.219877
-4.92806e-05
0.0693264
0.0269109
-1.36067e-06
-3.66097e-07
-2.10852e-07
-2.0735e-07
-0.396234
-0.00231806
5.2502e-05
-3.38706e-06
-1.42703e-06
-4.39287e-08
-4.51208
-8.92392e-07
-0.0995398
0.00366354
-0.0548218
3.08265e-06
-0.0161848
-0.0647792
1.29023e-06
-0.0419629
-0.0453752
-0.0442957
0.234833
1.58629e-08
4.97217e-05
0.00275847
-7.81995e-06
-0.000214727
-0.0322829
5.68964e-07
0.157668
0.053347
-0.0279898
-3.06796e-06
-8.17688e-07
-0.0933824
0.000704878
11.0392
3.68077e-05
0.00408958
-0.0070415
-0.00073326
-0.0147374
3.05694
0.00022075
-0.000863038
-6.41848e-07
1.42504e-08
-5.0096e-07
-0.000871805
0.0157245
-0.0184569
0.000256134
-0.000924603
-0.0585795
0.00167303
0.00010045
2.62644e-06
-0.0360676
1.48104e-06
-4.83971e-07
1.13442e-06
-0.0844656
-1.00759e-05
3.75491e-06
1.06592e-06
-2.00987e-08
0.00153363
6.92694e-07
-2.12789e-07
-3.37365e-07
0.0418017
-4.22721e-06
-3.23776e-06
0.0280217
-4.80402e-06
-3.52429e-05
-0.197069
-0.0062103
-8.64849e-07
-0.165118
-0.0553778
-0.14717
-9.49137e-07
0.0419521
1.50769e-06
-0.0148307
-3.22707e-06
-0.000234692
1.95511
-0.000140064
-3.72077e-06
-0.964039
5.26435e-05
-2.63421e-06
-8.20005e-07
-1.98188e-06
0.0655617
2.95218e-05
-1.24269e-07
0.167643
-1.55991e-06
3.36036e-05
-0.0390343
-1.16828e-06
3.85606e-06
0.0351521
0.185532
-2.45637e-07
-1.19205e-08
-0.0424323
0.159493
0.00416427
-2.42046e-07
0.317435
0.0619027
0.291961
-1.18216e-06
-0.00142706
1.47674e-06
-1.1877e-06
3.16286e-05
0.00249897
0.0491036
-1.15005e-06
-6.52325e-06
-2.40847e-07
-3.21856e-06
0.175091
0.348791
-0.175339
-0.00123638
-0.00112186
3.39787e-07
0.00262321
-0.324689
-0.274227
3.83572e-05
0.167336
-1.23612e-05
6.47725e-06
3.87493e-05
-6.17727e-06
-8.44216e-06
1.70538e-06
0.277788
0.110654
0.00431348
0.0235486
2.24498e-05
0.00369534
-0.00188166
-0.00182243
6.62178e-07
0.0984526
-0.11242
3.84622e-06
-0.0799786
3.18464e-08
-1.27709e-05
-0.0432284
0.00180444
2.3785e-07
0.241322
-1.10676e-07
0.00528467
0.0487347
0.00420175
0.0232774
9.69632e-05
-3.9397e-05
-0.0018683
-3.23091e-06
0.00314292
-0.000265524
0.240053
0.00026206
-0.0119403
-0.0796514
1.13459e-07
3.75433e-06
-4.27071e-06
-7.87104e-06
0.000697174
-1.66838e-06
-3.12141e-06
-0.0224029
-0.0153372
-0.000104203
-0.173057
5.27591e-05
-1.36825
3.25947e-07
-2.16566e-07
0.00650182
7.80202e-08
9.04448e-05
-0.0119238
0.00403805
0.00434023
0.228035
-0.00077121
-0.00443283
0.532722
-0.00109334
-0.0380284
-3.06811e-05
-0.103708
-0.000367709
3.94918e-05
0.00700373
0.000630426
-1.28751
0.32125
0.179563
2.80862e-07
5.11336e-05
-0.657398
-4.32021e-06
8.90323e-05
0.00103417
0.00415083
0.230061
-4.05398e-06
-0.00108677
-0.000250548
6.12877e-06
-2.47402e-07
-3.51542e-07
-0.198187
0.00335093
-1.44736e-05
0.00248414
0.0346209
-1.70973e-07
-0.153656
-4.09873
-0.000947539
0.0726656
-0.00271522
0.00106088
-0.00123948
-0.0512546
0.000964078
-2.03911e-06
0.201347
-4.55258e-07
1.75775e-06
-6.83204e-07
-0.139416
2.5997e-08
0.00177854
1.89291e-06
0.0144653
0.00205485
1.38381e-06
2.8522e-05
-0.00669849
-7.64319e-07
-6.21359e-06
1.85296e-06
9.76103e-05
-5.97492e-06
2.55101
6.25002e-05
-1.5825e-06
-0.0108784
0.00132849
-0.210965
-8.30411e-07
0.00334935
0.161865
0.0570352
-5.25762e-06
2.49175e-05
-4.47031e-06
4.90023e-06
-0.00358625
-1.92155e-05
-8.1361e-08
4.34678e-06
0.00162684
3.25512e-06
-0.0707906
7.86142e-07
-0.000172472
-2.64221e-08
2.79606e-06
4.13088e-05
7.18722e-07
4.32984e-05
-0.00901097
4.5028e-08
8.34785e-08
-1.8994e-07
-0.0633783
-0.000300309
-0.506499
4.15711e-05
-0.0111304
0.191152
0.00287397
-0.000493518
0.000234552
-4.61627e-07
-0.0672614
-0.125444
0.0865684
0.0347438
0.00134255
0.0044346
0.00391561
0.0486823
0.00100488
2.22975e-08
1.01238e-06
0.000895568
-0.279617
-0.000847714
-0.00025959
-6.74644e-07
0.00102769
7.61418e-06
0.0152214
1.14977e-06
-0.00115191
3.3485e-06
0.343492
4.26725e-06
0.359843
4.03503e-05
0.00270853
6.15823e-07
3.1261e-06
3.00692
0.119175
0.00246602
8.68736e-05
1.78096e-06
-2.95476e-06
-0.0827862
0.22634
0.163236
-1.46252e-05
0.003421
-7.51419e-06
0.000254486
5.11366e-07
0.0030363
-1.65308e-06
-7.63978e-06
2.24657e-05
-1.52337e-06
-0.0398048
-1.68305e-06
4.54557e-06
1.24841e-07
2.95286e-05
4.20465e-08
3.96555e-05
-0.084971
5.24956e-05
0.247606
13.4995
2.71835e-06
0.000138843
-5.11633e-07
-1.51924e-06
2.75814e-06
11.0177
6.66051
1.24303e-07
7.49697e-06
-9.27113e-06
0.171889
-5.01546
2.2994e-08
-7.55691e-07
0.00012768
8.04311e-07
-0.012184
0.0742396
-1.55554e-06
-4.70894e-05
0.00281041
-0.0228847
-9.77539e-06
-0.170143
0.103659
-5.38679e-07
-0.207224
7.68644e-06
0.0514687
-0.337049
6.95407e-07
-9.48541e-05
-0.0440205
0.156602
-1.45753e-06
0.00141124
4.05407e-06
-5.27228e-07
-0.0507084
-1.2761e-05
4.08521e-05
-6.27646e-07
-0.0418051
-0.000536096
0.00022964
0.00536477
2.87403e-05
-9.30748e-06
-0.000299705
-0.0974911
3.38642e-06
0.0187971
-0.0449021
-2.06081e-05
-2.92715e-06
-1.90392e-05
7.53548e-06
0.000340957
-7.32143e-06
2.83416e-07
0.00131777
0.0503259
0.00169043
2.90668e-08
0.00137847
0.142532
-3.61766e-07
0.219505
2.93887e-06
0.012026
0.00196579
-0.33271
1.34072e-07
0.17461
-6.29474e-07
-3.19114e-07
5.17551e-08
6.03017e-05
1.42782e-07
-0.0663855
-5.14089e-07
7.31327e-06
-0.0329658
6.89198e-07
-5.48771e-06
-0.406067
1.46884e-05
9.61253e-07
1.6752e-07
-0.00340181
0.268214
-5.1669
0.192105
2.16917
-0.0489407
4.26122e-06
1.92322e-05
0.0151013
0.00349156
-0.134217
2.17681
-2.11755e-09
-0.00400755
0.0440341
1.87901e-06
0.271726
-0.00397978
1.94126e-07
3.39949e-05
7.64639e-06
-1.09653e-07
-1.43785e-05
0.000138274
0.165434
-0.0827908
0.00365522
1.30466e-06
0.000395995
7.65882e-05
1.74444e-06
-0.113486
1.7116e-06
-4.38627e-06
0.0741248
7.5056e-07
0.000957869
-1.25925e-06
0.000633815
-0.0280074
-0.00229535
-1.99371e-06
-0.00015401
0.0556922
-0.0748832
-0.000212815
-0.0388674
4.38706e-05
4.66096e-05
-0.297703
0.000652603
1.66177e-06
0.237049
0.0244185
-4.32129e-07
2.03123e-05
-0.00567676
-0.00112174
-0.000993146
0.00236716
8.19074e-07
-1.1561
0.00360483
-4.9835e-07
2.43608e-05
-1.35159e-05
-3.58848e-06
-1.27566e-05
-0.000323053
0.112059
-7.61987e-06
-0.00173687
2.75522e-05
-3.03255e-06
0.0216048
-1.08981e-05
-0.0658906
0.00391488
-0.154242
0.000380347
-0.0790716
0.0499424
3.8706e-07
0.00012308
0.0137837
0.109179
-0.282753
0.000391897
0.169423
0.0541524
-0.0458542
2.0959e-06
0.183472
2.04755e-06
4.32276e-06
0.00111772
-0.0023757
-3.00809e-06
0.0047928
0.0337215
2.37289e-05
-1.24797e-05
-44.4644
4.33905e-06
0.0815695
-0.00110115
1.15745e-05
0.0911585
3.45466e-05
-0.000182838
-0.0423805
0.0878732
0.000989757
-0.00546129
-1.12872
2.24437e-06
1.05157e-07
0.20696
-0.000667028
-0.115225
1.57784e-06
9.31326e-05
-3.61015e-06
5.01323e-06
0.0363909
0.00066793
2.0144e-06
-0.213114
-1.87065e-07
0.000451371
1.96812e-05
-0.0553356
2.92292e-06
-9.89819e-06
2.48713e-05
2.84314e-05
-1.13826e-06
0.100191
2.46506e-06
0.0105125
0.162586
1.29644e-06
2.65119e-07
6.58848
-5.03672
9.36226e-06
0.000223949
4.20504e-06
-9.99888e-06
-4.82743e-08
0.363768
3.47577e-05
1.10781
-0.00225151
0.0682567
-6.1234e-05
1.56806e-06
0.000985793
0.000987603
1.02641e-07
-0.00640044
3.94429
0.0864253
1.97027e-06
-2.03918e-08
0.224367
0.0494711
-0.00955784
8.14014e-08
-3.35253e-07
-1.1227
-1.45769e-05
0.0401448
6.29675e-07
-1.53585e-06
3.46903e-05
1.31446e-06
1.63964e-06
1.42979e-07
-8.52327e-06
0.00231369
-2.26791e-07
7.25872e-05
0.00235334
-0.000583515
-2.71637e-07
1.14418e-05
-0.0675928
0.000410068
-0.055445
5.33107e-05
-0.149378
-3.1653e-06
-3.36967e-07
6.97115e-05
-0.00653124
0.00203671
4.69982e-05
-0.0682791
-0.000552542
-0.000188375
-1.67529e-05
-1.69767e-05
-8.42065e-09
0.0390216
-0.00223879
-0.218091
-0.000674829
-8.66455e-06
-0.951696
-0.00071488
-8.82853e-07
-0.000171454
0.017998
4.29716e-08
-0.021476
-1.73864
1.71031e-06
0.000984768
0.0191913
-5.61438e-07
4.62294e-06
-1.5685e-07
7.43387e-07
0.0621328
0.00184575
-0.00507081
0.00197289
7.89364e-08
-0.00629854
1.83873e-06
2.40031e-07
7.14472e-07
-0.000298456
-0.320131
-2.87545
0.00683409
-1.47347e-06
0.00832015
0.000622069
8.78042e-06
-2.2227
5.79321e-08
-0.0668303
4.16094e-06
-0.382868
-0.596215
0.00014789
-0.0012578
-3.74556e-07
5.31988e-09
7.6952e-05
5.73677e-05
-0.000570715
-0.0031422
1.6424e-06
0.0657532
-0.0272402
-0.000393941
-0.000385845
3.936e-05
0.336239
1.10508e-05
0.161018
-5.98231e-08
3.11915e-06
0.00396564
4.7947e-08
-0.326781
1.92236e-06
-0.187504
-3.25484e-07
-1.59032e-07
7.18117e-07
-4.89364e-06
-0.0104034
-3.22583e-06
-0.00472229
3.06607e-05
-9.74753
6.63134e-07
0.0391754
1.11274e-06
-1.97475e-05
-2.36327e-05
2.3849e-09
-0.0026129
-0.000127705
4.72686e-08
-0.00140008
3.26842e-05
-0.000682898
6.23402e-05
-0.027301
-0.00459663
-0.105923
-2.14174e-07
-1.43765e-05
-9.24e-05
3.01941e-05
-0.000118977
0.206766
8.33768e-06
5.98045e-08
6.16277e-08
2.98524e-06
0.00402646
0.0333658
4.01102e-08
0.0368017
-0.000767982
0.0226506
0.00437039
-0.0429425
-3.66436e-07
4.16022e-07
-0.0157081
-0.000789929
0.095814
0.189594
0.00139843
-8.91545e-08
4.76472e-06
2.63208e-08
-1.05066e-05
-2.9401e-05
4.47773e-06
-0.0549314
0.129643
-0.00258126
8.70999e-06
0.698231
6.32659e-09
-0.107936
-0.0558503
0.0737653
5.82385e-05
-6.32652e-06
-0.088487
0.000604803
-0.24747
-0.0316891
-0.116703
-0.0758488
0.0522307
-2.85268e-07
-6.16194e-07
-5.32337
4.24226e-05
-1.0568e-05
-0.237811
-5.95398e-06
0.000475618
-8.09362e-07
-0.0160672
8.79808e-07
7.20369e-06
-0.000169324
8.18678e-07
0.00535595
-1.54319e-05
-0.0506905
1.92714e-06
-1.4084e-07
4.58246e-06
5.60885e-05
-0.00130845
1.09803e-05
-6.43808e-06
-5.27059e-06
-0.0150026
-0.000190138
3.36288e-05
7.25481e-06
8.05084e-05
0.000892705
0.0644791
0.000745982
9.90357e-07
6.90242e-07
-1.3566e-05
-6.57662e-06
1.83994e-05
-6.40448e-06
0.00120733
0.350178
-0.000101442
0.00273307
0.0326533
8.97935e-07
-0.201389
0.227404
2.25353e-07
4.26221e-09
6.46472e-07
1.89898e-06
0.203278
-0.000195885
0.199814
0.540893
-0.00154283
-0.00310715
-0.00820001
3.30215e-05
0.000122698
-2.87708e-06
-2.8183e-07
-1.29746e-05
7.64239e-05
1.08268e-07
-0.469686
-2.05447
0.00801036
6.68258e-05
-1.30792e-06
9.02482e-05
0.0525575
0.0851118
2.51117e-08
9.07898e-08
0.206198
3.12177e-05
0.432966
-0.0274657
0.0382922
0.0149677
-0.0299364
-8.56233e-07
0.294369
-0.0354875
0.332724
4.18282e-06
2.73265e-05
-0.000987612
-0.00269979
0.00396156
-0.0479399
-4.32555e-05
-0.000485487
-1.10316e-06
4.99805e-06
-0.148846
7.4028e-05
8.13576e-06
-0.0773776
4.24975e-05
-0.00503648
0.00224855
-2.27559e-07
-4.83051e-07
3.64364e-05
-0.0538227
-0.558073
-0.0597666
0.0638184
5.61905e-07
-1.0024e-05
0.00292068
2.91373e-05
-1.84434e-05
1.26195e-09
-0.121693
-0.00245998
-8.02952e-07
0.0253958
-1.84561e-07
7.30096e-05
5.5939e-07
0.0696657
-0.051761
-0.0325265
4.65452e-07
-0.00121522
-0.0453532
-0.000512994
-9.30062e-08
0.000176465
-3.51953e-07
1.58525e-06
1.35064e-05
3.09656e-05
-0.000300073
-6.04685e-06
-1.4454e-05
-0.152534
-7.35194e-07
-0.0631186
-7.92363e-07
-1.1613e-06
-0.00289042
2.80952e-05
2.65189e-05
0.00530372
-4.17489e-07
0.118192
7.10931e-07
-0.075774
0.00401244
0.127584
-0.0614541
1.90604e-06
2.49447e-05
7.00279e-07
6.93712e-05
4.42434
8.20063e-07
-2.23676e-07
-3.00613e-05
0.186681
-0.332636
0.00924329
-2.78896e-07
0.00303036
-0.0664508
-1.97379e-08
0.00398759
0.386957
2.04903
-0.000196468
-1.74908e-05
-1.70883e-05
-5.90081e-06
1.384e-05
-0.799825
-7.57127e-07
-3.92127e-07
2.93113e-07
7.76088e-06
-0.00143564
-0.000822767
-7.15412e-06
0.00257479
-7.56283e-07
1.3791e-06
4.40704e-06
-0.000522952
-1.49914e-07
-0.034124
-0.0552537
-0.00120751
-1.4442e-07
0.115686
3.12868e-05
-2.69139e-06
3.17494e-07
5.68854e-05
-0.00190789
0.447668
0.000642197
-0.001402
-9.02761e-06
3.96414e-07
0.131611
-0.00233754
0.0227278
0.217495
0.00938475
-0.0359768
-0.00044514
4.10032e-07
0.000199406
0.00171495
3.46679e-05
0.000705446
-9.12953e-09
-3.8972e-07
0.0846451
0.232109
-0.0207413
3.2565e-07
0.0120595
1.75401e-08
-1.26745e-05
0.00259223
0.252982
1.24174e-06
-4.46033
-1.65366e-05
-0.000967504
7.41277e-05
4.34025e-05
0.00103094
2.03532e-06
1.85566e-06
0.0118552
-0.0883827
-1.9652e-05
0.0707186
-0.360856
0.0439477
5.54987e-05
4.07129e-06
1.01127
4.34431e-06
0.00693073
-1.29552e-05
6.43824e-05
0.921095
-0.000627837
0.00269416
-0.0472063
-0.0038585
-2.12176e-05
1.01959e-06
0.252589
5.93189e-05
-0.0193158
0.00822462
-0.0254169
-0.151354
0.00712325
-0.00687881
-2.34342e-06
-6.2082e-06
0.0443414
-0.000232082
-1.17382e-05
1.10889e-06
-0.0254499
2.54412e-05
3.76988e-05
0.0196433
-1.69716e-05
-2.05083e-07
0.0672777
0.000243956
4.20993e-05
0.0573961
0.00427526
-5.94546e-07
7.60058e-06
4.62106e-05
-1.60773e-05
0.164888
0.0941529
1.88604
-2.79129e-06
-8.69781e-07
0.00210663
0.0268116
0.000138177
-0.00237916
5.89779e-05
-7.0348
-3.60596e-06
-0.056315
1.24092e-07
-0.00092831
2.9756e-08
-0.023391
-0.00189001
0.0180897
0.0026185
1.77123
-0.00156686
-0.000826184
3.69269e-09
0.00440538
0.00259927
-9.52054e-07
0.14123
-0.00486989
1.44477e-06
0.000258118
1.77435e-09
2.74712e-05
-0.0194465
-2.24871e-07
-0.0760503
1.07883e-06
3.25904e-05
-0.00117337
-0.06594
-1.05363e-06
-1.31228
0.00234733
-0.0806472
-1.16347e-06
-9.32497e-06
1.23328e-08
-0.00113322
-1.27666e-07
-9.62817e-06
-3.17712e-06
1.27314e-06
4.23459e-06
0.000166626
3.05176e-05
0.205964
0.00125783
-0.00292659
-3.32023e-07
-0.00900782
1.50441e-06
2.18687e-08
8.6223e-08
2.56962e-07
0.000514766
8.0908e-06
5.58932e-05
-1.15948e-07
6.40413e-08
-1.49941e-06
-0.0453195
-3.52701e-08
-1.43731e-05
-0.00780122
-0.00113758
0.0686554
0.209866
-0.0259204
-1.62379e-07
6.38138e-05
0.00103012
2.39435e-08
-0.000634391
2.55908e-08
-0.0208165
4.0975e-06
0.30126
-0.00368834
0.310407
5.10382e-05
-3.34363e-07
3.40186e-07
0.144505
-0.00924479
-2.51243e-06
0.0154555
-1.18856e-05
-0.0343708
1.99726e-06
0.154169
0.0029304
-9.57022e-07
7.14896e-06
2.87349e-05
0.0114487
-4.41012e-06
3.48604e-05
-0.0216885
0.0931448
2.61735e-05
0.140358
-4.83599e-06
8.9746e-07
0.00133361
-0.999117
0.00118189
-0.0174775
-0.052545
-3.61205e-06
-0.0440013
0.30951
-0.186443
0.12208
2.23892e-05
-0.262562
0.0758038
0.1078
-0.0250634
-0.0232024
0.162056
-0.0904922
7.39349e-07
0.0586072
0.00108262
-3.98502e-06
0.0125012
-0.0436066
0.000399146
3.45237e-06
2.54377e-05
0.00380055
0.502746
4.86188e-05
1.02067e-05
2.03011e-06
0.324663
-0.0818378
-0.0158157
0.000196123
-9.51538e-07
0.0530687
-3.43743e-06
6.68646
-5.67324e-06
4.65074e-07
0.00685992
-3.09505e-07
4.54139e-07
6.4568e-07
-5.78797e-06
-0.000198828
-1.29817e-05
0.0319483
0.276669
0.102353
-5.47086e-06
0.00469763
3.41221e-05
0.00018131
6.3554e-05
-8.14494e-06
3.16944e-07
0.238433
-0.345582
-1.16857e-06
2.19327e-05
-1.10282e-08
-4.29152e-07
-0.0626598
0.432862
-0.0381326
1.55869
0.489507
-0.0020448
1.16492e-06
-2.78595e-07
1.25848e-06
0.00342843
-0.00026603
-0.106968
0.00497004
1.47039e-06
0.181275
0.00369382
0.000466374
-0.00875792
0.00229818
-1.66716
-1.03984e-06
-0.0695567
-1.06256e-06
6.98772e-07
-1.13948e-05
-6.28465e-07
0.219904
0.000361572
0.000217545
-1.16077e-05
1.2983e-06
0.0847002
-0.0715172
0.0250126
-9.26454e-08
-0.0681907
0.0237857
-0.0048729
0.000934153
0.177735
3.80409e-06
-1.29264e-05
2.97527e-05
-1.08845e-05
2.81349e-05
5.53641e-05
0.0229983
-1.49265e-05
1.2687e-08
-0.0330869
2.51131e-05
-1.77079e-05
4.90351e-07
-0.000292363
0.00689984
2.13558e-06
-0.000774816
0.171432
2.93388e-07
2.57176e-07
0.00432463
2.27128e-05
2.28119e-06
0.562881
0.000410846
-0.0390358
-4.25179e-05
-3.58743e-06
-0.00015246
6.15434e-06
2.68405
-0.000719402
-5.83848e-07
3.51476e-05
-6.7889e-07
-0.0498732
9.43066e-07
0.0484648
-1.64796e-07
1.36254e-06
-0.00764639
7.15946e-06
0.000367166
-0.116292
-0.0327407
0.031577
0.321347
-0.000262426
-0.160145
-9.58232e-07
2.31982e-05
-0.13768
-0.00217635
0.00105474
0.00226646
-6.12227e-06
1.70102e-07
5.70613e-06
-0.00099604
2.80258e-07
-0.000303824
-1.18498e-06
-0.0677494
-1.2823e-05
0.299251
0.0229747
-0.187863
0.0107339
0.00459539
8.44504e-08
5.37988e-05
0.405096
-5.65312e-06
-9.56066e-08
-0.363386
-0.202787
-0.00787659
-3.91068
-6.67599e-07
-0.305771
-0.0584694
-1.22048e-05
0.138177
1.43956e-06
-9.84837e-07
-1.95998e-06
1.2126e-05
3.08155e-05
2.15e-05
-0.0277837
-0.000330703
-0.000262608
0.0293594
6.98557e-07
0.00322085
2.83593e-06
5.00346e-08
0.443971
0.122853
0.307647
-1.03951e-06
-0.00422171
-1.09543
0.0006268
-0.424712
8.76828e-08
-8.34255e-07
9.57314e-08
1.35882e-06
0.000100987
-8.45376e-07
0.000878255
2.80143e-07
0.693104
-2.40197
0.0355229
0.000108778
0.00161555
2.30057
-1.48248e-06
-1.07681e-05
-0.0708006
3.21812e-07
2.87724e-05
1.07838e-06
0.0862783
0.144338
0.0107728
-1.52386e-06
-0.0445545
0.0429279
0.0016394
-6.1645e-07
-0.000322452
7.36916e-07
-0.00127176
-0.258314
-0.0590281
-9.7874e-07
3.45558e-05
-2.70564e-07
-5.48945e-06
-2.58936e-08
-1.58788e-06
3.63677e-07
-0.105546
-1.65423
3.89467e-07
-3.39776e-06
-0.0121249
2.80442e-06
-8.45157e-07
5.31264e-07
0.00155782
-0.122189
0.000228416
-3.60888e-07
2.5976e-08
0.143257
3.30581e-06
0.0398747
-2.18418e-05
-0.00638173
3.2165e-06
7.77939e-07
1.38102e-05
-0.00551814
7.76061e-07
0.081078
-0.262182
-5.97415e-07
3.28409e-05
-1.375e-07
0.000213457
-0.00719883
-0.000145389
0.0137888
-0.0078999
-5.40686e-06
0.181514
-0.0461168
-1.06009e-06
3.63871e-06
-0.000393905
-1.09099e-05
-5.1433e-06
3.09678e-05
-0.14811
0.0132399
-7.63871e-06
-2.51345e-07
0.197549
0.00380518
0.000172147
7.77511e-10
2.6762e-05
-0.008161
-0.00484749
0.00837484
-0.0291529
1.56454e-05
0.015618
1.76166e-08
-0.000758865
-9.96308e-05
-5.70539e-05
3.99507
0.000132775
0.760938
-0.000336574
0.0104723
-1.2191e-07
5.77471e-07
-8.91967e-06
-7.04266e-07
-0.0154201
-0.0388508
-0.00692822
2.10854e-08
-0.000379133
0.00039239
-3.83453e-06
-0.000487794
-1.23665e-05
-0.0611669
8.6891e-07
0.00221222
-0.687054
1.92163e-05
0.00423267
7.53415e-06
-0.00592501
-0.0104382
-0.0428234
1.32798e-05
4.26067e-05
-1.0646e-06
4.451e-05
1.78308e-05
-6.01506e-07
-0.00204681
1.01048e-06
7.18886e-08
-0.00338774
0.00680693
2.77784e-07
-4.64302e-05
-0.0120441
0.0620482
8.17889e-05
-0.177761
1.5592e-06
0.322834
-0.00259513
1.066e-05
-0.0477219
0.10893
-0.0477138
0.0660001
-0.117778
1.35194e-06
-1.7883e-06
-1.54509e-06
0.000461256
5.64975e-05
-1.51775e-06
0.000606665
0.000340303
0.0319505
-2.66996
0.00105094
3.12686e-08
-8.41441e-05
0.0593289
0.289663
2.22655e-05
-0.0473392
-5.94364e-07
-0.000288415
0.0628378
0.0089971
-0.250601
-0.848119
-3.78783e-07
0.0468675
1.1108e-06
-0.0885256
-4.96669e-06
0.0055356
-0.0217091
-8.77383e-07
0.00401903
-0.0632277
-2.8901e-07
-1.15608e-05
-5.7566e-06
5.40491e-08
-0.184379
-0.0705685
-0.203468
-1.15526e-06
4.18495e-06
-0.0184979
2.3245e-05
-8.13744e-06
-5.80474e-06
3.38615e-07
2.55373e-08
-0.156539
0.00391413
-0.0274021
-0.000141642
0.000711323
-1.11661e-05
-9.39673e-05
-5.96357e-06
-0.120925
-1.22092e-07
0.108816
1.40536e-05
-1.3077e-06
0.0155064
3.99588e-07
-7.59918e-06
-0.945365
-9.83062e-05
-0.127249
-5.83731e-06
1.34487e-06
3.42915e-07
-6.47185e-06
-9.09513e-05
-7.54549e-07
-0.119417
3.35372e-05
-8.04425e-07
-0.177751
-0.70387
0.00486369
0.461069
1.60501e-06
-0.00165698
4.70373e-05
0.00982412
-0.00189374
-8.33358e-06
-5.4504e-06
-0.175346
0.00140452
0.00281014
0.0140667
5.56822e-08
-0.033974
-0.0452223
-0.0504225
1.89652e-06
1.17278e-05
-0.101321
2.51258e-06
1.04484e-05
-2.25704e-07
-1.66169e-06
-1.70293e-06
-0.565028
-1.12811e-06
-7.07495e-07
0.0985364
-0.0680907
4.67651e-05
4.78789e-05
-6.8588e-07
2.7542e-09
0.00426143
-0.0181449
0.00250203
6.69892e-07
0.0869222
0.0545336
5.18301e-05
3.21776e-07
-0.00788303
-1.09006
-1.32327e-06
0.00140031
-1.51021e-05
0.00112768
-1.77069e-07
5.70272e-07
-0.000818613
0.0156405
0.0527084
0.000436576
-0.000707543
-0.0841923
0.0276828
0.450276
8.03846e-05
6.55823e-05
1.09295e-06
0.10481
-1.30563e-06
0.0128718
-5.4915e-06
4.2558e-06
1.77396e-06
-0.000612524
5.04481e-08
1.02324
-0.00060343
8.1274e-05
-0.0021704
-0.214341
-0.134082
6.58701e-08
0.00996178
2.55836e-07
1.07269e-05
-1.82705e-05
-8.02927e-06
0.163014
-0.287646
0.000519292
0.00103035
8.29629e-06
-5.39603e-06
0.140368
0.000722741
0.000113176
-0.000105783
-8.3086e-06
-0.115747
3.10848e-06
1.34206e-06
4.54702e-05
-0.112302
0.000317075
0.000885121
-0.0754892
0.414024
-7.25202e-07
-0.00370137
-0.265908
9.34267e-09
2.11125e-05
0.0776467
1.14598e-05
4.17104e-06
1.00676e-05
0.12144
-0.126841
-0.167036
5.31469e-05
-7.16878e-06
-0.046107
7.54186e-06
0.000718067
-2.70271e-08
0.0199083
-1.69088
1.57515e-07
0.000562731
3.27594e-07
4.87682e-06
-0.00106705
0.137853
0.176424
-1.7031e-06
-0.109286
0.0541429
0.00546469
-0.113073
-0.067596
-2.84839e-07
0.0130222
2.62635e-05
-0.00195941
0.0573267
-2.56994e-07
3.65686e-06
-2.70078e-06
-1.08083e-06
9.61184e-06