/*--------------------------------*- C++ -*----------------------------------*\
| =========                 |                                                 |
| \\      /  F ield         | OpenFOAM: The Open Source CFD Toolbox           |
|  \\    /   O peration     | Version:  v2012                                 |
|   \\  /    A nd           | Website:  www.openfoam.com                      |
|    \\/     M anipulation  |                                                 |
\*---------------------------------------------------------------------------*/
FoamFile
{
    version     2.0;
    format      ascii;
    class       volVectorField;
    location    "100";
    object      ddtCorrDdt0(U);
}
// * * * * * * * * * * * * * * * * * * * * * * * * * * * * * * * * * * * * * //

dimensions      [0 1 -2 0 0 0 0];


internalField   nonuniform List<vector> 
54593
(
(0.000119725 0.000330818 -2.66438e-23)
(0.0027085 0.000629551 0)
(0.000227654 7.79441e-06 6.34696e-22)
(0.0473231 -0.00264621 0)
(0.0136562 0.00120725 0)
(-0.0013997 -0.00546121 0)
(-0.00569846 -0.00165098 -8.63823e-22)
(0.00361403 0.00263538 8.92026e-22)
(0.00277385 -2.21268e-05 -5.96248e-22)
(0.00037675 -0.000138885 -7.96991e-22)
(0.00089084 0.00043888 0)
(-0.0308172 -0.000829636 5.4866e-22)
(0.000513951 0.00459922 0)
(0.000331957 -5.48638e-05 1.5013e-21)
(0.00210044 0.00241375 -1.72632e-22)
(-1.4279e-05 0.000984997 1.32688e-21)
(0.00383837 0.00256237 -1.62688e-21)
(0.00147003 0.00199606 -6.72975e-24)
(0.000373577 -0.000129062 -3.15152e-22)
(0.000333679 0.0012415 7.94883e-22)
(0.000230319 2.76884e-06 -6.14777e-22)
(0.00106117 0.000251298 -2.50641e-22)
(0.000369858 -0.000162548 3.95093e-22)
(0.0117563 0.000549026 0)
(8.25437e-05 -6.19998e-06 0)
(-0.00834149 -0.0137327 -2.07229e-22)
(0.000116443 0.000313884 3.16939e-22)
(1.66065e-05 -0.00269032 -6.24548e-22)
(0.0061895 -0.00962282 8.40605e-22)
(0.000373872 -0.000160716 8.36012e-22)
(-0.00869523 -0.0133225 2.00367e-22)
(0.00364764 0.00259977 0)
(0.000190618 0.000222721 4.11822e-22)
(0.00302275 -0.00376058 -4.61164e-22)
(0.000498286 0.00202378 0)
(-1.81437e-06 0.000446806 -7.93811e-23)
(0.00162722 -0.000159684 -1.29199e-21)
(0.00259469 0.000684342 1.16785e-21)
(0.000518475 -0.000571825 -1.48789e-21)
(0.00106445 0.000251836 -2.82919e-23)
(0.000207232 0.00385632 0)
(-0.000438363 -0.00967478 3.08828e-23)
(0.000192701 -0.000114539 -6.79452e-22)
(0.000113475 0.000372435 7.12305e-22)
(-0.000460522 0.0035372 -1.13115e-21)
(0.00032976 0.000644987 -7.17388e-22)
(-0.00404471 0.00158545 5.23188e-22)
(0.00214134 0.00194155 -3.52442e-22)
(-1.25774e-05 -0.000308157 -2.82748e-21)
(0.000796682 0.00038255 1.30588e-22)
(0.000186256 0.000214924 0)
(-2.48198e-05 -0.000310603 0)
(0.000924893 0.000119733 0)
(-0.000506525 0.00358467 5.09085e-22)
(0.00994934 -0.00464731 -1.41184e-21)
(0.000136561 7.74716e-07 -1.25053e-21)
(-0.00470206 -0.00309723 1.8229e-21)
(0.00316859 -0.00874718 2.68662e-21)
(0.00883917 -0.00451076 -1.44078e-21)
(-0.000104165 0.00256672 -2.16343e-22)
(0.000194136 -0.000107876 7.19951e-22)
(0.000154082 0.000751083 -2.84299e-22)
(0.000327136 -6.40066e-05 0)
(0.0488776 -0.00210241 0)
(0.000151618 0.000106954 2.97337e-22)
(-1.90462e-05 0.000963465 0)
(-0.00651578 -0.00245485 0)
(0.00325117 0.00282652 -8.95123e-22)
(0.0120881 -0.00251787 0)
(0.0108402 -0.00257001 0)
(-2.25756e-05 -0.000306479 -1.32371e-23)
(0.000528785 0.00201187 0)
(0.000154125 0.000115837 -1.09552e-23)
(-0.0255573 0.015393 -2.6121e-21)
(-2.25826e-05 -0.0011299 -2.60432e-22)
(0.00114495 -0.00126518 -1.58016e-22)
(0.000803736 -0.00238148 0)
(0.00180006 0.00451177 2.85141e-22)
(-0.00505609 -0.000969225 -1.21381e-21)
(-0.00114735 0.00454546 0)
(0.000128475 2.03281e-06 -8.58058e-22)
(0.038536 -0.00731576 -6.41807e-22)
(0.000110438 0.000354853 -8.81123e-22)
(0.0122062 -0.0224489 -6.00069e-21)
(0.000778624 0.000167578 1.43959e-22)
(-0.0242512 0.0152917 1.08186e-21)
(-0.0205455 0.00165066 -3.98379e-22)
(0.00367649 -0.00660358 5.7265e-22)
(-0.000984236 0.00298482 0)
(-5.49642e-06 0.000590274 1.67277e-21)
(0.00344697 7.443e-05 3.77775e-21)
(0.00115348 0.000249711 2.27411e-23)
(0.00718235 0.00565781 -6.44299e-22)
(0.00282585 -0.00314105 6.33087e-22)
(0.00110894 0.00018763 -1.93462e-21)
(0.0125844 -0.00128756 0)
(0.0400316 -0.0262499 -5.38834e-22)
(0.0117832 0.00881608 0)
(4.06501e-05 0.000820216 -4.97322e-22)
(0.000781578 0.000426363 1.17897e-21)
(0.000584087 -5.06766e-05 2.15088e-22)
(0.0216283 0.00192258 0)
(-6.41069e-05 0.000817243 0)
(0.000147694 4.5294e-05 0)
(0.00363898 0.00250321 0)
(0.0019343 0.00073091 0)
(0.00190207 0.000127865 2.01229e-21)
(0.00353719 -0.00643063 -3.02657e-21)
(0.00110189 -0.00127978 1.4213e-21)
(7.07899e-05 0.00273185 0)
(-0.00384497 -0.000629676 1.03023e-21)
(0.000153769 4.59464e-05 -3.8907e-24)
(-6.01632e-06 0.000619656 0)
(-0.00971409 -0.0131987 2.34152e-22)
(0.000260102 0.000495064 4.74628e-27)
(-9.13171e-05 -0.00101257 -8.50182e-22)
(0.0111843 -0.00275517 -1.071e-22)
(0.0495091 -0.00183103 -2.70493e-22)
(0.00292182 -0.00423827 8.40219e-22)
(0.00716096 0.0052115 0)
(0.049405 -0.0018756 0)
(7.99263e-07 0.000145864 -9.9396e-22)
(-0.00224273 -0.00162778 -2.35194e-21)
(-3.98073e-05 -0.00212811 1.89224e-21)
(0.000281711 6.13805e-05 -7.01045e-22)
(0.000362914 0.00375487 0)
(0.000166965 0.00076256 -5.40459e-22)
(0.000279108 7.89051e-05 -5.57698e-22)
(0.0384859 -0.00173126 8.31511e-22)
(-0.0166334 0.0128225 -2.01914e-22)
(7.27303e-05 -1.59441e-06 -7.00552e-22)
(0.000517886 8.9484e-05 -1.7741e-22)
(0.00116976 -0.00137513 0)
(-2.2195e-06 0.000478524 7.25084e-22)
(0.00115378 0.000243711 -1.37627e-23)
(-0.00033924 0.00529148 -1.78583e-22)
(-9.8928e-07 -0.000453621 0)
(0.0370054 -0.00892375 0)
(0.000148832 3.93883e-05 0)
(-6.16691e-06 0.000177232 6.21542e-23)
(-0.00179835 -0.000987735 2.34725e-21)
(0.000973261 0.00264809 0)
(0.00113903 -0.00133709 0)
(0.00612161 -0.00579297 -3.18731e-22)
(0.00119389 0.000168128 2.78725e-22)
(0.00331067 0.00277481 7.54133e-22)
(-0.0314468 -0.000500027 -1.07892e-21)
(0.00163971 -0.000154108 1.53796e-21)
(-0.00504987 -0.0158508 0)
(0.000276831 -0.000812461 2.36336e-23)
(-0.000234469 0.00265963 7.59647e-24)
(0.000402708 0.000512795 1.06978e-22)
(-0.00152086 -0.0131041 2.1609e-21)
(0.002662 -0.00321027 -1.27856e-21)
(0.000382876 0.000345428 6.05931e-23)
(0.0236936 -0.00318988 0)
(0.000875934 0.000425333 -9.17889e-23)
(0.0247355 -0.00356872 6.56686e-22)
(0.00193343 0.00255143 -3.55194e-22)
(6.81549e-05 0.00081482 -1.45861e-21)
(0.00488217 -0.00496197 4.59946e-22)
(7.73792e-05 0.000805818 1.6888e-21)
(-0.00141323 -0.000922532 -4.941e-21)
(0.0115941 -0.00675594 3.5865e-22)
(2.76662e-05 -0.0026512 0)
(0.000375562 -0.000535244 1.08474e-21)
(8.8059e-05 -1.30521e-05 1.54803e-22)
(0.000173465 -7.64847e-05 6.96983e-22)
(-0.000125244 0.00409037 1.88414e-21)
(-4.60173e-09 4.14894e-08 5.56112e-23)
(-0.0141867 -0.00986844 -2.60368e-22)
(-0.000364701 0.00504971 7.57634e-22)
(-0.00102343 0.00301944 -1.0841e-21)
(4.52149e-07 0.000126214 8.80952e-22)
(0.00287937 -0.000186195 -2.96898e-22)
(0.000193909 0.000215101 0)
(-0.00117581 0.00135903 0)
(0.000416907 0.000636581 3.5443e-22)
(0.000174882 0.000741879 0)
(0.000232986 0.00380831 0)
(0.00775812 0.00595955 -1.11156e-21)
(-5.9909e-05 -0.000146968 -2.94811e-21)
(0.00529335 -0.00873378 -4.99179e-22)
(0.000597324 -3.82832e-05 -1.96597e-22)
(4.13765e-06 0.000116577 1.19209e-22)
(-0.038751 0.000525905 0)
(0.00022185 -0.000800291 0)
(0.000742939 0.000375979 -4.71446e-24)
(0.000337685 -4.80462e-05 -1.24413e-21)
(-0.00402272 -0.0101846 7.11724e-22)
(0.000168465 0.000742608 3.13964e-22)
(0.0224758 0.00570532 -8.963e-22)
(0.0053471 -0.000222794 1.00296e-22)
(0.000158581 0.000138309 0)
(-0.0206701 -0.000460648 0)
(-0.0313823 -0.000410791 -1.17315e-21)
(0.000180696 0.000510713 -5.03132e-22)
(0.000751745 0.000509898 0)
(-0.0093743 -0.0136204 -2.16569e-22)
(0.00259981 0.000196681 4.23943e-22)
(0.00116869 0.000232252 0)
(0.000304161 0.00369985 -5.01147e-22)
(0.00405328 -0.00536488 2.27013e-21)
(-6.13427e-05 0.000822611 9.76708e-22)
(0.000491126 0.000368297 4.13079e-24)
(0.000493696 0.000360156 6.90201e-23)
(-0.00136939 0.00545629 -3.99946e-21)
(0.000764833 0.000154247 -1.15563e-22)
(0.000513411 -0.000596261 -5.12027e-22)
(0.000127908 -2.7309e-07 -9.68333e-22)
(1.62552e-05 0.000192065 0)
(0.000333883 -4.2523e-05 -9.2645e-22)
(-5.81415e-05 -0.000143994 1.40669e-21)
(0.00104494 -0.00151229 -1.14143e-21)
(0.00111585 0.000195118 1.04096e-21)
(0.0116544 -0.0133345 0)
(-0.00282222 0.00057337 0)
(0.017905 0.00926861 -5.99676e-22)
(0.00162306 -0.00139984 0)
(0.000177648 0.000493111 3.34952e-22)
(0.00104481 0.000230178 -2.78528e-22)
(-0.00817175 0.00366933 1.48346e-21)
(0.000225395 -0.00759941 4.21344e-21)
(0.00073871 -0.000247249 -6.78815e-22)
(-0.000683646 0.00348221 -2.60146e-23)
(0.00126504 0.000177535 -2.16889e-24)
(1.26765e-06 1.77432e-05 0)
(0.0014962 0.00196434 1.57007e-22)
(0.000219785 7.36865e-05 -2.75211e-22)
(0.00191993 0.00248732 4.49951e-22)
(0.000173531 0.000762845 0)
(-0.0143655 0.00286126 8.23411e-23)
(0.0172403 -0.000716585 0)
(3.16468e-06 0.000138981 0)
(-3.01381e-05 0.000882315 -4.87818e-23)
(0.0398475 -0.026244 4.83605e-22)
(-0.0135697 -0.0101771 4.28289e-22)
(2.6984e-05 0.000432077 -1.67272e-23)
(-0.00115136 0.00352082 -1.80836e-23)
(2.86649e-05 0.000449195 0)
(0.000737037 -0.000228652 -6.72122e-22)
(0.00108479 -0.00151841 0)
(0.00651063 -0.0189774 -6.52462e-21)
(-0.00271131 -0.000856129 -3.19988e-22)
(0.000581394 -0.000679531 8.80443e-22)
(-0.000236897 -0.00112602 0)
(-0.00600161 -0.0166322 0)
(-0.0285681 -0.00365372 6.11715e-22)
(0.000161667 -0.000101021 7.34808e-22)
(0.00529101 -0.00528701 2.00164e-21)
(-0.00280639 -0.000619146 2.94448e-22)
(-0.0291253 -0.00195289 1.35922e-21)
(0.0321708 -0.0262146 1.37814e-21)
(0.000130116 7.88629e-05 0)
(-1.01013e-05 -0.00111589 1.08512e-22)
(7.85278e-05 -6.28887e-06 -1.36867e-21)
(0.00169967 0.00125279 -5.09701e-22)
(0.000732458 0.000101835 1.43768e-22)
(-0.000529829 0.00949703 -3.81861e-22)
(0.00105987 0.000254938 -9.6382e-23)
(0.0024342 0.000851662 0)
(0.00556774 0.007678 0)
(-5.47498e-05 0.000876442 0)
(0.00249201 0.000251238 0)
(0.00111571 0.000198199 1.27152e-21)
(0.00025676 -6.64768e-05 -4.08586e-22)
(0.029683 0.000214967 0)
(0.000162605 -9.67734e-05 -2.07359e-21)
(0.00088987 0.000610969 0)
(0.000384229 -0.000509417 0)
(-0.0209341 0.00868854 -2.75427e-21)
(0.00416725 0.00405493 2.577e-22)
(0.0011016 0.000167206 -3.82056e-22)
(0.000123764 0.000328538 -7.14258e-22)
(-0.000215492 -0.00112301 0)
(0.000340755 0.000463857 5.66675e-23)
(0.000134688 0.000757891 -3.22296e-22)
(0.0129954 -0.0237304 4.30051e-21)
(0.000245606 -0.000100162 0)
(-0.00368633 0.00157308 -4.4807e-22)
(7.05735e-05 -2.62961e-06 3.99891e-22)
(0.0012292 -0.00173897 -2.01729e-21)
(0.000847853 -0.00109395 1.19299e-22)
(-0.0205726 -0.000585114 0)
(-0.00520236 -0.0168074 -9.06746e-22)
(-6.16193e-05 0.0037132 2.74862e-22)
(0.00106827 0.000256654 1.29017e-22)
(7.70511e-05 -1.61329e-06 0)
(0.00117326 0.000166136 0)
(-1.91122e-05 0.00412534 -1.86908e-21)
(-0.0285432 -0.00189178 -4.44241e-21)
(0.0389454 -0.00692217 7.34957e-22)
(0.000127699 6.67391e-05 -3.62104e-22)
(0.000123575 0.000105385 0)
(4.70267e-05 -0.00503032 -8.75707e-22)
(1.02434e-06 2.39727e-05 -1.60144e-23)
(-0.00336873 3.61737e-07 0)
(0.00333528 0.00479039 -2.03776e-22)
(0.000255034 0.000485923 5.12405e-24)
(-0.0142198 -0.00755449 2.4237e-22)
(-0.0290483 -0.00627243 -2.88307e-22)
(0.000678734 -0.000126208 -1.22346e-21)
(1.26468e-05 0.000208451 4.76754e-23)
(-1.51771e-09 1.50446e-06 -1.25065e-23)
(0.000319115 0.00053471 9.80094e-24)
(0.00043716 0.000250977 1.03405e-22)
(0.00110477 0.00065329 -4.75053e-22)
(0.0213853 -0.00183035 0)
(0.000269102 -0.000804333 -3.29462e-21)
(0.000182683 0.000478493 1.27756e-23)
(0.0329149 -0.0264422 0)
(0.00204785 0.000556837 3.50981e-22)
(0.0159028 -0.00101308 -2.9451e-25)
(-2.50706e-05 0.000882505 3.28972e-22)
(2.09733e-05 0.00375316 9.82665e-22)
(0.0296664 0.000353608 0)
(-0.00113044 0.00359015 -1.96524e-23)
(0.0204443 -0.023794 0)
(0.0171637 -0.00590721 -5.02578e-21)
(0.00057685 -1.03661e-06 6.98687e-24)
(0.00129731 0.00177585 0)
(0.000177313 -0.000115503 0)
(0.00507254 -0.0247926 -1.31642e-21)
(-2.11065e-05 -0.00260466 5.27165e-22)
(0.0423672 -0.0182268 0)
(0.00118538 -0.000221323 -4.79132e-24)
(0.00218314 0.00326211 -1.05369e-22)
(0.000251496 -6.04643e-05 3.0107e-21)
(0.00806839 0.00653946 9.84911e-22)
(-4.25084e-05 -0.00212801 -3.37532e-21)
(1.74247e-05 0.000364599 -1.26164e-21)
(0.00119581 0.000339833 0)
(0.000150081 5.26471e-05 0)
(6.09802e-05 0.000803194 4.86568e-22)
(-3.76218e-08 7.24465e-07 0)
(-0.000155581 0.00457035 -1.36944e-21)
(0.00066111 -0.00141345 -1.71587e-21)
(0.052618 -0.000569512 1.00458e-21)
(-0.000670624 -0.0259231 0)
(0.00115868 -0.000496221 6.80213e-26)
(0.00203839 0.000603336 3.19168e-22)
(0.000938391 0.000118123 5.19411e-22)
(0.00551421 -0.0166441 -4.16737e-22)
(0.000734554 0.000104532 0)
(0.000438214 0.000243142 1.12362e-22)
(0.00327837 -0.000888278 -2.9845e-22)
(0.000785125 0.000358867 5.3725e-22)
(-0.013731 -0.00720542 -3.14623e-22)
(0.00375096 -0.000956535 0)
(0.0274697 -0.00291249 -5.24669e-22)
(-0.0124319 -0.000183463 2.10655e-22)
(0.000121829 0.000111096 -3.10655e-22)
(0.00248752 -0.0243989 0)
(-0.00262066 0.000269716 1.2421e-21)
(6.51351e-05 0.000583999 -1.65952e-22)
(0.000198176 -0.000102765 0)
(3.45417e-05 0.00130274 -1.01307e-22)
(0.000124597 0.000181826 -3.3935e-23)
(0.000297395 0.000669616 -2.06618e-22)
(0.000163698 0.000499072 3.58496e-23)
(0.0113523 -0.0127441 2.17782e-21)
(0.00105363 0.000231374 0)
(0.000771041 0.000101025 -4.32212e-22)
(0.0342683 -0.00153975 1.02551e-21)
(0.00117815 0.0030289 0)
(-3.40718e-05 0.000876608 0)
(0.000122165 0.000185663 -4.37309e-23)
(0.00501835 -0.0120594 1.92127e-22)
(0.00125306 -0.00221375 -8.66558e-22)
(0.00016237 0.000147432 0)
(0.000309032 -0.0013462 0)
(0.000315929 0.000539859 -1.91618e-23)
(0.000173778 -0.000114389 7.92384e-22)
(0.000584533 6.30903e-07 8.66521e-22)
(8.02919e-05 0.000831072 1.08571e-21)
(-0.000512566 0.00569837 -1.6532e-23)
(0.000313582 -0.000120672 -1.28248e-21)
(0.00458616 -0.00492309 7.9891e-22)
(0.00109916 0.000158681 0)
(-0.00216672 0.000652177 0)
(0.0106452 -0.00683262 4.1338e-22)
(0.000331255 0.00174077 -3.57392e-22)
(0.00140329 0.00346043 0)
(-0.0276275 -0.00431916 -7.46865e-22)
(0.00386273 -0.00530355 0)
(0.0021096 0.00572343 0)
(-0.0157668 -0.000157252 0)
(0.00014893 4.76069e-05 0)
(0.00725635 -0.0201809 6.50609e-21)
(-0.000783079 0.00348334 0)
(0.0001336 0.00324128 0)
(0.0087491 -0.00498331 -1.52296e-21)
(0.000653127 -0.00139876 -2.19199e-21)
(0.000199376 -9.4701e-05 0)
(-0.0578626 0.000166643 -4.41522e-22)
(0.0515623 -0.000549246 1.44182e-21)
(0.00554741 -0.00614225 1.24659e-23)
(0.00291647 -9.19496e-05 0)
(0.000618625 0.0031205 -5.61327e-22)
(0.00178342 -0.00463623 5.07868e-22)
(0.0008181 0.00018081 -1.60923e-22)
(0.00111075 -0.000818673 -8.51613e-22)
(-0.000693782 -0.0030229 -3.64563e-22)
(0.000410973 -0.00385597 -3.15982e-21)
(0.005223 -0.0238465 -1.22375e-21)
(0.00267026 0.0036897 4.252e-22)
(2.07708e-05 -2.4034e-05 3.65466e-21)
(0.00142027 0.00359637 0)
(0.000183824 0.000216618 0)
(0.0124655 0.00897293 0)
(-0.0213944 -0.0102945 -1.32251e-22)
(0.000321105 -0.000116706 0)
(-5.58433e-06 0.000199599 -5.9389e-23)
(0.00301871 0.000369954 -1.00099e-21)
(0.000159661 7.20018e-05 0)
(0.00561317 -0.00964682 -5.86359e-22)
(0.00184005 -0.00219422 3.10577e-21)
(5.51197e-05 0.000216853 0)
(0.000472409 0.000192879 -1.26011e-22)
(-1.52551e-05 -0.00255788 9.41351e-22)
(0.000536912 0.00246112 -4.15178e-22)
(-0.00667134 -0.00216638 0)
(0.00108284 -0.000215011 0)
(0.00714593 -0.00241583 -2.33286e-21)
(-0.0306993 -0.000611092 8.91831e-22)
(0.0158717 -0.000779541 8.25799e-24)
(0.0145092 -0.0216288 6.12099e-22)
(0.00103831 0.000326425 7.81111e-22)
(0.00338911 -0.000385628 0)
(0.00163945 0.00054202 2.09922e-23)
(-0.00198123 0.0175006 1.74407e-21)
(0.00136194 0.00165897 -3.00902e-23)
(-4.55043e-05 0.00378331 -1.35063e-21)
(0.00115349 0.00063125 2.17452e-22)
(0.00279196 -0.00404321 0)
(0.000289421 -0.00204869 1.52385e-21)
(0.000122467 0.000307694 6.24452e-22)
(0.0412241 -0.0183028 0)
(0.00306756 0.00185567 -4.39023e-22)
(0.003146 0.00187424 0)
(0.0337194 -0.00110923 -1.1258e-21)
(2.78133e-06 0.000111319 1.70823e-22)
(0.000280526 4.35182e-05 5.59807e-22)
(0.000116009 0.000234985 -1.09263e-23)
(-0.0278059 -0.000980178 -7.3683e-21)
(5.06154e-05 -0.00492383 -8.53951e-22)
(0.000189131 0.000274617 0)
(6.55094e-05 0.000823934 1.61005e-21)
(-0.0016279 -0.0125393 -1.13096e-21)
(-0.000573074 0.0062423 4.52382e-21)
(0.019845 -0.02544 -5.29418e-22)
(0.000760331 -0.0266406 1.62992e-21)
(0.00121814 0.00308135 0)
(0.00170642 0.00200352 2.31261e-22)
(0.0478827 -0.00231998 0)
(-0.000193911 0.00473212 -3.64221e-22)
(0.00177842 0.000934897 -4.02361e-22)
(2.05405e-05 0.000384043 1.3699e-21)
(0.00033032 0.000646579 8.81767e-22)
(0.00910665 0.00480691 -1.51993e-21)
(0.000186167 0.000262807 -1.37273e-23)
(0.00016785 -0.000116491 -1.09739e-21)
(-0.000131259 0.00402724 -2.07394e-21)
(0.000352996 0.000606957 1.95194e-22)
(0.000222888 -0.000135004 1.45581e-21)
(-0.000125133 -0.000368729 6.18764e-22)
(0.0117579 -0.0119084 -4.98264e-21)
(0.000136243 0.000843418 0)
(0.00224557 -0.000936483 0)
(-0.00222747 -0.00939608 -3.52542e-22)
(0.0208168 -0.000678437 -4.30765e-24)
(0.00519585 0.000132154 -3.29769e-21)
(0.0013547 0.000833659 3.33254e-22)
(0.000134992 -1.41785e-05 0)
(0.047127 -0.00101946 -1.24375e-21)
(0.000407695 0.000502299 -1.61615e-22)
(3.30489e-08 1.63601e-07 1.37164e-22)
(0.0181427 0.00960649 7.53342e-22)
(0.0172922 -0.00134172 1.70826e-21)
(0.000141719 0.000842635 0)
(0.00275042 7.66559e-05 1.28283e-21)
(6.20523e-05 0.000218446 -1.30816e-22)
(-0.000875252 0.00342431 5.18968e-22)
(0.000551004 -0.0043587 0)
(5.16247e-05 0.000204201 4.21367e-22)
(-0.00150774 -0.00921417 -1.34912e-21)
(-0.00103926 -0.02515 0)
(0.000831866 0.00416064 2.36864e-23)
(8.32434e-05 -6.90021e-06 8.85334e-22)
(6.8091e-05 0.00502513 0)
(-0.00056297 0.00479413 0)
(2.51513e-06 0.000118638 -6.24957e-23)
(0.00015203 9.44753e-05 -2.58533e-22)
(0.00113666 -0.000474439 9.38864e-22)
(-0.00139233 -0.00152038 9.73955e-22)
(0.000573667 1.26986e-05 -5.59089e-22)
(0.000777376 0.00230419 0)
(0.000488453 0.000548846 0)
(-0.021205 -0.00939057 1.30536e-22)
(0.000451714 0.000202481 0)
(0.00487618 -0.00480352 1.52243e-21)
(-0.0236446 0.00145642 -5.41999e-21)
(-0.0223552 -0.00558969 2.20725e-22)
(-0.000701839 0.00342147 0)
(0.000332862 -2.09276e-05 0)
(0.00188908 0.00129147 0)
(5.19189e-05 0.000819997 0)
(0.000461556 0.00243809 4.84104e-22)
(0.00133961 0.00169089 3.44372e-23)
(0.000215456 0.000165528 -2.34704e-22)
(0.000270262 0.000701816 6.53289e-23)
(0.00434578 -0.000361762 1.08983e-21)
(-0.0305745 -0.000597147 -4.45518e-21)
(5.63288e-05 0.000827211 0)
(0.000329418 0.00126397 -7.11849e-22)
(0.0265906 -0.0102672 0)
(0.000562308 0.00450131 0)
(0.000136113 0.000106128 0)
(-0.00253543 0.00129659 4.28739e-24)
(0.000160043 0.000258961 -1.93833e-22)
(0.00348683 -0.00707048 -1.13e-21)
(0.00098867 0.000242637 1.58637e-23)
(0.000568878 1.12736e-05 4.11574e-22)
(2.70921e-05 0.000877688 1.33399e-21)
(0.000177386 0.000454458 3.75319e-22)
(0.00185476 -0.00453002 -9.99618e-23)
(0.0223525 -0.00471021 -2.00349e-22)
(0.0285983 -0.0182425 0)
(0.0026956 0.000261532 -6.58622e-21)
(-1.4218e-05 -0.000314328 -7.16959e-24)
(0.00415808 0.00465545 0)
(0.000814887 0.000171894 0)
(0.00100686 0.00260978 0)
(0.000363699 0.000415953 3.75817e-23)
(0.000282687 2.73033e-05 -3.13901e-22)
(0.000222192 0.000108872 0)
(0.0118196 -0.00236397 0)
(5.96229e-05 0.00020574 2.1765e-22)
(1.63061e-05 0.00132194 4.91891e-22)
(0.00185957 0.00010507 -1.85051e-21)
(0.000343087 0.000135863 4.60398e-22)
(0.00069987 -0.000325934 7.82445e-22)
(0.0254865 -0.0242565 -2.54093e-21)
(0.00498571 -0.00857245 0)
(0.000318162 0.000659334 -1.27975e-22)
(0.0396997 -0.00170619 8.64892e-22)
(0.000995087 0.00163191 0)
(0.000215696 0.000157315 0)
(0.00787973 -0.00167123 0)
(0.000218549 -0.000131117 0)
(0.0263127 -0.00255405 0)
(0.00150933 -0.00119186 0)
(0.0115054 -0.0115208 0)
(-0.000456325 0.00359887 6.58217e-22)
(-7.30746e-05 -0.00267976 -9.26965e-22)
(-0.000740991 0.00358457 0)
(0.00019379 0.00384147 5.84502e-22)
(0.00677973 0.000718947 0)
(0.000321006 -0.0258707 -1.30214e-21)
(0.048913 0.00240629 -8.20895e-22)
(0.000113399 0.000260128 0)
(2.87804e-06 0.00013843 0)
(0.00292921 0.000399214 -8.51601e-22)
(0.00221025 -0.000854071 0)
(0.0027957 0.00018729 5.9987e-21)
(0.000563379 7.55217e-06 7.33847e-24)
(-0.00122945 0.0171897 -8.9635e-22)
(0.000183512 0.000821222 -9.7413e-22)
(0.000281773 -0.00135343 -1.91716e-21)
(0.00831264 -0.00501884 1.2397e-21)
(0.000135793 0.000105178 -4.0937e-22)
(0.0011862 0.000340614 -2.79076e-22)
(0.000146736 0.00333846 -6.0006e-22)
(0.000837968 0.000309373 -1.05906e-22)
(0.00653669 0.0022737 1.48695e-21)
(0.0276312 -0.00938674 0)
(0.00182839 0.0043292 -3.60917e-22)
(-0.00117444 0.0046481 -2.13666e-21)
(-0.00103862 -0.00574379 7.69047e-22)
(-0.000154474 0.00480273 0)
(0.000213238 0.000206061 -6.8973e-22)
(0.000161693 -8.17128e-05 9.15154e-22)
(0.00107636 0.000133701 6.4876e-22)
(0.000331069 -5.80609e-06 3.38573e-22)
(0.000795965 0.000125174 0)
(0.000445903 0.000217494 0)
(-0.00121224 -0.0121913 -2.35673e-21)
(0.000585282 0.000370652 0)
(-0.0200274 -0.00863514 -6.73794e-24)
(0.00101639 -0.001679 0)
(0.00031944 -0.00204323 -1.30256e-21)
(0.0212073 0.000341537 0)
(0.00104426 0.000348198 -8.85456e-22)
(0.0037118 -0.00197658 7.87599e-22)
(0.000596156 -4.70241e-05 5.22403e-23)
(-0.0278619 -0.00124675 0)
(-0.0257769 -0.0058479 -1.43683e-21)
(0.000363375 -6.76306e-05 0)
(1.10868e-06 1.51167e-05 2.18097e-22)
(0.000172202 0.00377333 -2.45905e-22)
(0.0529853 -0.000462335 -9.93514e-22)
(0.000940109 0.000171205 0)
(4.5455e-05 0.000827187 1.03943e-21)
(0.0154623 -0.002437 0)
(-0.000477792 0.00525477 1.7541e-21)
(0.000869735 0.00411966 -1.87769e-23)
(-0.00147127 -0.00162599 2.90747e-21)
(-8.66277e-05 0.000768806 0)
(0.00106112 0.000264028 8.14626e-23)
(0.00191 0.000694566 0)
(0.00305216 -0.0203571 0)
(0.000304212 0.000666203 0)
(8.52571e-07 1.25404e-05 -1.24513e-23)
(-0.000514086 0.00198891 0)
(0.00598823 0.00132107 -2.98742e-21)
(0.00151442 -0.00114522 -8.91412e-22)
(0.000780725 0.000107449 0)
(0.00984652 0.0122457 0)
(0.0309061 -0.0051704 4.23813e-22)
(3.83351e-07 0.000116044 5.08751e-23)
(0.000158173 -8.40474e-05 0)
(0.0119188 0.00120319 0)
(0.0016227 -0.0117368 -7.18486e-22)
(0.00343259 -0.00680471 -1.15484e-21)
(0.0377716 -0.0098694 -5.60747e-22)
(-0.000460752 0.00477739 -4.21711e-22)
(0.00352877 -0.0200013 0)
(0.0116604 0.00652873 0)
(0.0142835 -0.00240904 0)
(0.00680205 -0.000489969 0)
(-0.00886169 0.00119524 -3.32803e-23)
(0.000156441 0.000235173 -5.56351e-22)
(0.000461147 0.00025904 7.43715e-23)
(0.00108567 -0.000784724 0)
(0.000366134 -8.09614e-05 -2.01863e-22)
(-0.00198275 -0.00157742 2.85153e-22)
(0.00300763 0.00180808 0)
(0.0143243 -0.00669941 -1.52108e-22)
(0.000590726 0.00035776 -3.69327e-23)
(-0.00696224 -0.00217684 0)
(0.00919174 0.00727196 1.83524e-21)
(0.000363707 0.000179925 0)
(0.00891066 0.00759469 -2.34172e-21)
(0.000203423 -7.8208e-05 -3.53008e-22)
(0.000635805 -0.000499992 3.94861e-22)
(0.00196864 0.00587694 7.89447e-22)
(-3.55354e-05 0.00344716 1.07287e-21)
(-0.00186326 0.0171211 -9.69307e-22)
(0.0007699 0.00146193 0)
(-0.00292907 -0.0187686 0)
(0.000208144 0.000209463 1.14735e-21)
(0.00321646 0.00181506 0)
(0.0134856 0.002192 -2.40735e-22)
(0.0123856 -0.0248723 -5.50036e-21)
(0.000112357 -1.64656e-05 0)
(-4.09823e-05 -0.000163029 -1.38186e-21)
(-0.00118405 0.00795875 0)
(0.00026396 0.00147785 1.4652e-21)
(0.000572816 9.36626e-06 5.81043e-22)
(9.19625e-05 6.7972e-06 -7.41795e-22)
(-3.73139e-06 0.000828157 0)
(0.000364592 -5.46841e-05 -1.6665e-22)
(0.0153047 0.000555263 0)
(2.48878e-06 0.00272843 -1.02029e-24)
(0.000321254 -8.21689e-05 -9.99029e-22)
(3.84419e-05 -0.000617524 3.11988e-21)
(0.00388074 -0.000268786 0)
(-0.00145263 -0.0116943 1.19323e-21)
(0.000462446 0.000249913 -1.05823e-22)
(0.00017206 -8.48159e-05 0)
(0.000361829 0.000429091 0)
(0.00183264 -0.00224966 -2.46218e-21)
(0.00114895 0.00014068 -4.7762e-22)
(0.000819176 0.000167607 -1.86604e-22)
(-0.000519413 0.00348111 0)
(0.000397562 -0.000690865 1.09889e-21)
(-0.00374043 -0.0144084 3.21669e-21)
(0.000187882 0.000736704 -4.78383e-24)
(0.000111252 -1.66003e-05 2.80457e-24)
(0.000157467 0.000198242 1.16687e-22)
(0.00083289 -0.00112959 1.70898e-21)
(0.00160855 0.000535694 -1.28718e-21)
(2.67286e-06 0.000138729 -1.39506e-22)
(-0.0191265 0.0059132 -1.33192e-21)
(-0.000236458 -0.0050986 -9.73802e-22)
(0.000727528 0.000369635 0)
(8.7183e-06 0.000209797 0)
(0.000357039 3.03435e-05 0)
(-0.029004 0.00781916 -1.20455e-21)
(-0.00443352 -0.00010967 -2.95022e-21)
(-1.60612e-05 -0.000402623 -1.00433e-21)
(-3.32943e-05 0.000796602 -1.23392e-21)
(0.0172586 0.00465575 1.90595e-22)
(0.000571364 0.000251853 9.60016e-24)
(0.000953082 0.000323244 -4.53142e-23)
(-0.000317998 0.00345616 6.64706e-23)
(0.000315988 -7.2179e-05 0)
(-0.000605454 0.0034932 -2.37934e-21)
(0.000725411 0.000110752 -3.26476e-21)
(0.0025008 0.000869654 -1.15765e-23)
(1.08934e-05 0.000194083 6.80708e-25)
(0.000759023 0.000192849 1.69222e-22)
(-0.00477131 -0.00134964 -1.15271e-21)
(-0.000124124 0.00252471 0)
(0.000277018 0.000697483 3.45511e-23)
(0.0215172 0.00213086 0)
(0.000185203 0.000210532 1.28954e-22)
(-0.00494109 -0.00142647 1.26401e-22)
(0.000731262 0.000218116 0)
(4.89011e-05 -0.00170714 -6.84105e-22)
(0.000499233 0.000287912 1.03065e-23)
(-4.2466e-06 -0.000432082 -3.59128e-21)
(0.0504015 -0.00101164 6.43515e-22)
(9.86638e-05 -1.04384e-05 0)
(0.00157537 0.00193772 1.10263e-22)
(-0.000233482 -0.00638433 1.64701e-22)
(0.00140058 0.0011725 7.93456e-23)
(0.000390283 -4.21305e-05 -9.99908e-22)
(-0.000491449 0.0020015 -1.8516e-21)
(0.0139849 0.000858298 0)
(0.00122058 -0.00169431 3.06018e-21)
(-0.0121063 -0.00109286 0)
(0.00138537 0.00084646 0)
(-0.00288081 0.0172417 3.78724e-22)
(-0.000999261 0.000477874 6.86482e-22)
(0.00449816 0.000311187 3.89348e-21)
(9.81268e-05 -1.14854e-05 -1.60389e-22)
(0.00595951 -0.00376309 0)
(0.000756525 0.000152736 1.0663e-22)
(-1.04258e-05 0.000827097 -6.16812e-22)
(0.000215489 -3.39011e-05 0)
(0.000202815 -8.81962e-05 -3.87687e-22)
(0.0128373 -0.000140904 0)
(-0.000688724 -3.82326e-05 -1.63887e-21)
(-0.0100031 0.00264016 -1.19016e-21)
(0.00165754 0.00200474 0)
(0.000177512 0.00370148 3.56287e-22)
(0.000224207 0.000389684 -3.21649e-23)
(0.000747523 0.000538516 0)
(9.82674e-05 2.90317e-05 -9.81684e-22)
(0.000219576 0.00057459 -2.06893e-22)
(0.0224932 0.00505388 9.35654e-22)
(0.00214563 0.00534175 -4.79882e-22)
(-0.00981444 0.00118872 0)
(9.74971e-07 1.47779e-05 8.06973e-23)
(-0.0186387 0.00644183 -1.1248e-21)
(0.000422292 0.00244776 -3.25708e-23)
(0.00922215 -0.00913157 2.53506e-22)
(-0.0212018 -0.00769022 -1.73444e-22)
(0.0233725 -0.0061377 9.45162e-23)
(-0.0214497 -0.0067966 0)
(-0.00212195 -0.0187467 0)
(-0.031316 -0.00171664 0)
(-0.019844 -0.000590008 -1.72905e-21)
(-0.0307063 0.00825034 1.39724e-21)
(0.0168208 -0.00129747 9.47928e-24)
(0.000158283 6.62487e-05 0)
(0.0314967 -0.00428515 -1.03031e-22)
(-0.00183683 0.00706665 -7.36751e-22)
(-0.00443923 -0.0112867 0)
(0.0149371 -0.0222362 -6.48896e-22)
(0.0278071 -0.0184533 -5.84231e-24)
(0.0173904 -0.00866792 -3.30162e-22)
(0.00267632 0.000243941 1.20952e-21)
(0.0255117 -0.0205969 -1.86612e-23)
(-0.000270559 0.00142357 -5.3326e-22)
(0.000603786 0.00316648 6.07925e-22)
(0.000936353 0.00550047 4.07819e-22)
(0.000532083 -0.00132684 -1.11483e-21)
(0.000105679 5.98404e-05 3.2398e-22)
(3.46599e-06 0.000210971 -4.26647e-23)
(9.822e-05 2.65153e-05 2.91607e-22)
(-0.0567375 0.00123957 -1.19191e-21)
(0.00363373 -0.00102653 -2.83341e-22)
(0.00105419 0.000261284 4.83854e-23)
(-1.09059e-05 -0.000440391 0)
(0.000225116 -0.000105515 -1.55533e-21)
(-1.37911e-05 0.000104216 5.5454e-22)
(-0.000527885 -0.00912948 -4.71699e-23)
(0.000225402 9.3069e-05 -6.12808e-22)
(-0.0577616 0.000224785 -1.0495e-23)
(-0.00611165 -0.00922536 9.35783e-22)
(0.00198923 0.000178192 0)
(0.00038248 -4.43816e-05 1.2078e-21)
(-0.022221 -0.0065415 1.97616e-22)
(-0.00053567 -0.0026092 -3.56862e-22)
(0.000181155 0.000207689 0)
(0.00442159 0.000325576 0)
(-0.0210769 0.0097596 0)
(0.048801 -0.00200375 2.64707e-22)
(-0.0307364 0.000734112 0)
(1.18621e-06 1.39925e-05 -4.09993e-22)
(0.000847871 0.000954325 -9.64895e-24)
(0.00789456 -0.00761141 0)
(0.000526054 7.5471e-05 0)
(0.00113262 -1.18006e-05 -4.44002e-22)
(0.0408579 -0.0190326 1.62479e-24)
(0.000635425 -0.000528492 0)
(0.0208416 -0.00550188 3.85272e-23)
(-0.00101677 0.00618334 2.69136e-21)
(-0.000954258 0.00951506 4.50379e-22)
(0.000329966 0.000506125 2.43484e-23)
(0.000183812 -4.26811e-05 0)
(-0.000525375 0.00507691 2.21001e-21)
(0.00176325 0.00112154 6.8591e-22)
(-0.00864635 0.01709 0)
(0.000825084 0.000175016 2.07956e-22)
(-0.00259862 -0.0128327 -2.47654e-21)
(0.000495195 0.00247842 -1.13015e-21)
(0.00138668 0.0016964 0)
(0.00952362 -0.00910184 2.36492e-22)
(-0.0107686 0.0252485 -3.25417e-22)
(0.00187767 -0.00183163 4.78468e-22)
(6.62082e-05 -0.00256273 -3.04986e-22)
(2.56619e-05 0.000207716 0)
(8.45433e-07 1.17654e-05 2.36477e-22)
(2.24724e-05 0.000191097 -1.73482e-22)
(0.00340922 -0.000987387 -6.91138e-22)
(0.000655758 0.00540162 0)
(-0.00816653 -0.00813141 0)
(0.00212616 -0.00169163 -1.35934e-22)
(0.00115261 -0.000238182 5.45042e-22)
(-0.000426552 0.00150845 1.39149e-21)
(0.010049 -0.00420717 -1.6097e-21)
(0.00138653 -0.00169383 1.80216e-21)
(-7.43575e-05 0.000772467 0)
(-0.00932423 0.00148298 0)
(0.000254792 -0.000124531 1.10583e-21)
(1.91899e-05 0.000826626 1.22484e-21)
(-5.51627e-05 0.000877953 -7.86163e-22)
(0.0166767 -0.00163034 -6.10302e-24)
(0.000148993 0.000750506 -1.72106e-22)
(0.00022783 0.000398181 3.51057e-23)
(0.000458195 -0.000249105 0)
(8.53245e-05 -1.23642e-05 -1.56145e-22)
(0.00960758 -0.00310805 0)
(-3.93771e-05 0.000873896 0)
(9.87706e-05 1.42126e-05 0)
(0.000104504 6.29032e-05 0)
(0.00439731 -0.00124676 0)
(0.000329567 3.00366e-05 0)
(0.000143958 7.86666e-07 5.94579e-22)