/*--------------------------------*- C++ -*----------------------------------*\
| =========                 |                                                 |
| \\      /  F ield         | OpenFOAM: The Open Source CFD Toolbox           |
|  \\    /   O peration     | Version:  v2012                                 |
|   \\  /    A nd           | Website:  www.openfoam.com                      |
|    \\/     M anipulation  |                                                 |
\*---------------------------------------------------------------------------*/
FoamFile
{
    version     2.0;
    format      ascii;
    class       volScalarField;
    location    "100";
    object      k;
}
// * * * * * * * * * * * * * * * * * * * * * * * * * * * * * * * * * * * * * //

dimensions      [0 2 -2 0 0 0 0];


internalField   nonuniform List<scalar> 
54593
(
0.000147967
0.000178361
0.000146428
0.0344082
0.0212699
0.0523619
0.017684
0.000188416
0.000176407
0.000147417
0.000154665
0.00955424
0.000393753
0.000147497
0.000171783
0.000155359
0.000188493
0.000165948
0.000147404
0.000157765
0.000146427
0.000156931
0.000147398
0.00823936
0.000144667
0.000212254
0.000147973
0.000172437
0.0748263
0.00014742
0.000212055
0.000190007
0.000146996
0.0353641
0.000163137
0.0001492
0.000170372
0.000178225
0.00015084
0.000156971
0.000279412
0.00075974
0.000146067
0.000148005
0.000190861
0.000150938
0.000190803
0.00016938
0.000144864
0.000173693
0.000147004
0.000145007
0.000153939
0.000192554
0.00020114
0.000148329
0.039202
0.00141933
0.000198173
0.000167107
0.000146084
0.000150859
0.000147506
0.0293958
0.000147812
0.000155096
0.0698018
0.000186666
0.028937
0.028634
0.000144936
0.000163071
0.000147784
0.0385391
0.00015324
0.0001598
0.000166367
0.000246466
0.0408593
0.000283904
0.000146506
0.0417255
0.000148005
0.0493198
0.000152177
0.0431977
0.0233172
0.000190212
0.000172874
0.000148268
0.00276407
0.000159907
0.000203243
0.000202233
0.000165241
0.0794974
0.0229779
0.000224044
0.000148597
0.000173924
0.000149482
0.0487209
0.000150142
0.000147841
0.000189324
0.000165603
0.000168658
0.000189512
0.000159548
0.000168913
0.05253
0.000147766
0.000148291
0.000213152
0.000147542
0.00552874
0.0299097
0.0272914
0.0379909
0.000202306
0.0287844
0.000149595
0.0221547
0.000168981
0.000146712
0.000213641
0.000150373
0.000146709
0.0178746
0.07455
0.000149464
0.000149034
0.000160671
0.000149155
0.000160073
0.000678213
0.000146528
0.0324341
0.000147834
0.000148204
0.015481
0.000168725
0.00016026
0.000627437
0.000164185
0.000186382
0.0318749
0.000170118
0.028817
0.000150284
0.000167982
0.000149155
0.000204767
0.000201786
0.000147836
0.0723404
0.000154494
0.0710911
0.000171817
0.000148573
0.000275518
0.000152968
0.0149151
0.0769531
0.00017204
0.000149469
0.00014656
0.000146052
0.000453332
0.00014988
0.000214533
0.000597062
0.000173381
0.000149626
0.000176369
0.000146912
0.0584938
0.000152359
0.000150871
0.000262524
0.0442811
0.000143872
0.0729875
0.000149575
0.000149629
0.00607495
0.00014993
0.000152992
0.000147526
0.000341306
0.000150908
0.0388852
0.00496584
0.000147762
0.0158261
0.032429
0.00014791
0.000153986
0.000213288
0.00428319
0.000160882
0.000212578
0.000187699
0.000150058
0.00015
0.000149973
0.00046724
0.000151972
0.000150871
0.00014635
0.000148227
0.000147494
0.000143842
0.000160352
0.000164987
0.000218134
0.0429545
0.0403435
0.00859725
0.000147902
0.000156845
0.0229414
0.000946855
0.000151858
0.000184824
0.000165862
0.000149795
0.000165879
0.000146511
0.000171084
0.000150319
0.000206681
0.00629677
0.000149593
0.000149117
0.0194765
0.000214454
0.00014914
0.000184473
0.000149112
0.000151824
0.000160658
0.0507483
0.000197223
0.000151848
0.000154441
0.0561716
0.000236649
0.000145909
0.000288388
0.000197057
0.0516577
0.0536767
0.000147242
0.000153042
0.000148457
0.0179984
0.000151381
0.000216791
0.000156874
0.00016954
0.0498015
0.000149005
0.00514054
0.000164986
0.000146668
0.0162683
0.000145921
0.00015591
0.000149443
0.0393519
0.000448181
0.000159348
0.000147953
0.000154365
0.000147691
0.000151004
0.0470354
0.000146372
0.000190393
0.000151306
0.00016314
0.000156292
0.0189369
0.0560238
0.000241468
0.000157004
0.000152977
0.000164354
0.00161448
0.0534598
0.0402957
0.000147273
0.000148208
0.000183634
0.000149759
0.0461105
0.000476096
0.000147528
0.000211627
0.00023485
0.000150881
0.00014824
0.000149846
0.000147774
0.000148322
0.000174374
0.0159687
0.000150209
0.000147861
0.0532017
0.000167093
0.016429
0.000149073
0.000260403
0.0199867
0.000186436
0.000313684
0.000224572
0.000149297
0.000181848
0.00014596
0.0002501
0.000172067
0.0381528
0.000171341
0.000181741
0.000146569
0.046902
0.000169576
0.000148398
0.00015895
0.000147826
0.000153021
0.000149892
0.000604485
0.00015688
0.0166289
0.000252091
0.000157894
0.000166964
0.000154217
0.0520958
0.000151457
0.000148329
0.000184938
0.000173628
0.000210251
0.00018949
0.0469627
0.0064014
0.000148225
0.000245672
0.000195344
0.00014822
0.000146121
0.000157908
0.000148251
0.000148252
0.000147956
0.000216212
0.000157056
0.00015171
0.0172715
0.000173968
0.000148954
0.000148251
0.00257183
0.000166438
0.000147739
0.000154825
0.00014778
0.000145947
0.000149349
0.000153544
0.000687845
0.000147536
0.00337144
0.000159242
0.0480868
0.079322
0.000161061
0.000181016
0.0002376
0.000187301
0.000517344
0.00824001
0.00014782
0.0483137
0.000182034
0.000178553
0.000198187
0.000156634
0.000146133
0.0157784
0.0139147
0.00302727
0.000176664
0.000174893
0.000181752
0.000152582
0.000177505
0.0331784
0.000201433
0.000245146
0.000201183
0.000146403
0.000185874
0.000147164
0.00022652
0.000240298
0.000147598
0.000148226
0.000175575
0.00014769
0.0727212
0.000169762
0.000148041
0.000148658
0.000171794
0.000166354
0.0204052
0.000171782
0.000191916
0.0233692
0.0130753
0.0584355
0.000170379
0.00566804
0.00016363
0.0810789
0.000163603
0.000253269
0.000174028
0.000181497
0.000162596
0.000147947
0.0347951
0.000176237
0.000177577
0.0139518
0.000149632
0.000146677
0.000148323
0.0194431
0.000183175
0.000147573
0.000148602
0.000203637
0.000727712
0.000317145
0.000256833
0.000174491
0.000167109
0.0337396
0.000590876
0.000164238
0.000148417
0.000151072
0.000205315
0.00014759
0.000145897
0.000422876
0.000148683
0.000146176
0.000181696
0.000216005
0.000148752
0.000169995
0.000802979
0.0179694
0.00284081
0.00016044
0.0001452
0.0142974
0.000149124
0.000149841
0.0382218
0.0176935
0.00014876
0.000176721
0.000148034
0.000181091
0.000180538
0.000148042
0.000900542
0.000248131
0.000239186
0.000144649
0.00116072
0.000446732
0.00014963
0.000147392
0.000157539
0.00628722
0.000149324
0.000165661
0.000151978
0.000238114
0.000148362
0.000262129
0.0229956
0.000238285
0.000183335
0.000146978
0.000165522
0.000148588
0.000166145
0.000163628
0.000146707
0.000148268
0.000194535
0.0235287
0.000148607
0.000157862
0.0419089
0.000353465
0.000147117
0.0584542
0.000147783
0.000191105
0.000155134
0.000149296
0.000148937
0.000147859
0.000181664
0.0566941
0.0563229
0.00544902
0.000144932
0.000548483
0.000152499
0.000168687
0.000147779
0.00014668
0.000146586
0.0275557
0.000148033
0.000157995
0.000168772
0.000147182
0.00015169
0.000635767
0.0721851
0.000149938
0.0175309
0.0205063
0.00014668
0.0171968
0.000146138
0.0620486
0.00016316
0.000214394
0.00112264
0.000193943
0.000193348
0.00026681
0.00646575
0.000252053
0.0338292
0.000148358
0.000149592
0.000174715
0.000169795
0.00411924
0.000149248
0.0806487
0.000148791
0.000154871
0.000197414
0.000147115
0.000158775
0.000182358
0.000153444
0.000412779
0.0400379
0.000227778
0.000298867
0.0536365
0.000652317
0.000146813
0.000145959
0.000157993
0.00014696
0.000152012
0.000148339
0.000202564
0.000151477
0.00023037
0.000161231
0.000162597
0.0233455
0.00017051
0.000179942
0.000149606
0.0554521
0.0463567
0.000147253
0.000149672
0.000273953
0.0164526
0.000154397
0.000148608
0.0728572
0.039793
0.000230119
0.0180841
0.000151912
0.000156612
0.000165656
0.000226306
0.000148274
0.000149704
0.000162868
0.000191036
0.000163078
0.000151766
0.000237399
0.04692
0.000149627
0.00014593
0.0181457
0.000201385
0.000190521
0.03543
0.000482544
0.000226344
0.0802401
0.0756275
0.000191251
0.000251956
0.000147791
0.00014871
0.000177125
0.000147277
0.000184307
0.000175925
0.0052033
0.000151424
0.0705491
0.000212265
0.00014738
0.000212407
0.000146184
0.000151629
0.000552607
0.000189524
0.0797373
0.000160269
0.0599018
0.000146831
0.00017763
0.0783463
0.0426203
0.000147793
0.000143842
0.0493147
0.000159316
0.000149357
0.000148006
0.000148647
0.000147273
0.00668075
0.000168765
0.000147503
0.000148364
0.00482522
0.000201493
0.000148696
0.000146014
0.00014779
0.000169868
0.000161223
0.000152531
0.000192795
0.0127107
0.0329819
0.000150871
0.000147788
0.000147775
0.000156312
0.000163287
0.000149596
0.0470383
0.0598709
0.000152841
0.000148241
0.000147244
0.000195785
0.0455333
0.000145936
0.000148558
0.0474197
0.000150402
0.000154653
0.0001905
0.000147484
0.000186778
0.00302037
0.000170204
0.000148226
0.000152052
0.0281763
0.000166556
0.000148274
0.0513965
0.000147456
0.0297292
0.000173534
0.000158968
0.000149502
0.000146257
0.0191383
0.000147797
0.000166098
0.0562296
0.000161824
0.000147968
0.000163403
0.0146932
0.000162817
0.0165463
0.000160667
0.0864439
0.0054284
0.00713938
0.000147784
0.000290504
0.000151863
0.000148652
0.00014632
0.000146171
0.00634444
0.00296404
0.0729565
0.000166945
0.000216347
0.000147463
0.000154179
0.000148081
0.000147866
0.0415582
0.000409637
0.000259865
0.000149839
0.0494516
0.000166158
0.0710727
0.000233858
0.0670918
0.000233136
0.00022081
0.0171419
0.0152886
0.000176161
0.0225733
0.000147713
0.0446545
0.0505784
0.000202702
0.0589449
0.0566946
0.0872027
0.00017699
0.057473
0.00015893
0.00017625
0.000634189
0.00015553
0.000148175
0.000148241
0.00014809
0.0154785
0.000189672
0.00015645
0.000146451
0.000146263
0.000148071
0.000916379
0.00014656
0.0192543
0.000200539
0.00362429
0.000147916
0.000237953
0.0303999
0.000147033
0.00729357
0.0405837
0.0277798
0.0239631
0.000149671
0.000157626
0.00019993
0.000149103
0.000168886
0.0299631
0.000151704
0.0665812
0.0431849
0.000217109
0.000147732
0.000146167
0.00161459
0.000164221
0.000951611
0.00015261
0.000204879
0.000166523
0.000181588
0.0691028
0.00647239
0.000168415
0.000193015
0.000148243
0.000149701
0.000148228
0.000187154
0.000644968
0.0301246
0.000169782
0.000171519
0.0170008
0.000201182
0.000163984
0.000151996
0.000254212
0.000146435
0.000150051
0.000149047
0.0261484
0.000150948
0.000147444
0.000149143
0.000146252
0.000199396
0.000148916
0.000148016
0.000148188
0.0838079
0.00014697
0.000149581
0.0477612
0.00014725
0.000158749
0.0144783
0.000557256
0.000146144
0.000273264
0.0403642
0.0775703
0.000146498
0.0461321
0.000146476
0.000190034
0.00014584
0.000336566
0.0024827
0.000194378
0.000147726
0.00641496
0.000154413
0.000146609
0.000145954
0.000156782
0.0120318
0.000153427
0.000147928
0.0706161
0.000151452
0.000160403
0.000230022
0.000146442
0.000147848
0.000223172
0.0189516
0.000143297
0.000148066
0.024471
0.0192943
0.000206191
0.00014325
0.0165165
0.0669547
0.0148315
0.000146235
0.000184055
0.000147092
0.000143874
0.000157679
0.000191501
0.0544598
0.000143842
0.000150988
0.000148399
0.000146178
0.0720147
0.0138874
0.000277143
0.000165415
0.000249697
0.000146587
0.0501295
0.00460551
0.0170289
0.000153649
0.0233969
0.000148666
0.000148218
0.00015606
0.000149773
0.000166019
0.000147209
0.0136883
0.0518813
0.000573505
0.000171447
0.000151904
0.000206691
0.000193242
0.000197092
0.000144891
0.0200656
0.0718967
0.000147774
0.000228692
0.000148073
0.000160995
0.0264037
0.000182964
0.000149628
0.0185845
0.000148417
0.0180094
0.000179435
0.000213553
0.000170536
0.00016395
0.000191031
0.000170931
0.000145942
0.000208633
0.000174033
0.000268911
0.000167104
0.0336556
0.05193
0.000148059
0.000147558
0.000146993
0.000147833
0.000180312
0.000148363
0.000146029
0.0247491
0.000187565
0.00016501
0.0145602
0.000155554
0.0101215
0.000146559
0.000148023
0.000225237
0.000148093
0.000160609
0.000172068
0.000210495
0.000210542
0.0168377
0.000172871
0.000210323
0.000534094
0.000170841
0.0302053
0.000150186
0.0067308
0.000190878
0.000153503
0.000176264
0.000171729
0.000307192
0.0167293
0.0616206
0.000149595
0.000155729
0.0178309
0.000146981
0.000163872
0.000181348
0.000212066
0.0573949
0.000147708
0.000191563
0.000580149
0.000148188
0.000148328
0.00014334
0.0791046
0.000167099
0.000150967
0.00427498
0.0209316
0.000147403
0.0782257
0.00123716
0.000200647
0.000216275
0.000196188
0.000181664
0.000183292
0.0128979
0.000181867
0.00014697
0.0160101
0.000148418
0.00014727
0.00014689
0.0857357
0.000149169
0.000198953
0.000151503
0.0229519
0.000173381
0.000147517
0.000153751
0.0725575
0.000145911
0.000149139
0.000147147
0.000179279
0.000149219
0.000493114
0.000162318
0.000148389
0.000176427
0.00019829
0.0200924
0.000149982
0.000205277
0.0541936
0.0430567
0.000147204
0.000158128
0.000148303
0.000147801
0.000196208
0.000158044
0.000147377
0.000151877
0.000166728
0.00014761
0.0523388
0.000153576
0.000172429
0.000148129
0.000147833
0.000153627
0.000146896
0.000160178
0.000208496
0.000149838
0.000148065
0.000147772
0.00475197
0.000167558
0.014492
0.000153228
0.0557774
0.0853626
0.000226473
0.000160931
0.000180052
0.000148397
0.0482653
0.0213186
0.0482454
0.0381717
0.000188559
0.00017341
0.000202689
0.000239349
0.000167502
0.000151929
0.000146966
0.000181354
0.0166845
0.000195769
0.000169095
0.000148226
0.000181338
0.000148169
0.0505042
0.000145169
0.000199929
0.000151949
0.000273603
0.000147899
0.00034179
0.000157585
0.000222649
0.000148047
0.000151992
0.000663071
0.0699943
0.000161614
0.000172789
0.000147743
0.000149584
0.0209319
0.0751091
0.0560101
0.000149986
0.000205748
0.000161306
0.000169563
0.000148055
0.000213808
0.00014837
0.000147636
0.000151712
0.00014839
0.0319706
0.000148364
0.000147782
0.000149748
0.000151619
0.000149842
0.000156516
0.0266974
0.000155903
0.0208966
0.00696249
0.000147806
0.00017963
0.000146648
0.00015119
0.000147895
0.000604043
0.000516167
0.000148414
0.00014813
0.00015819
0.0568415
0.000359703
0.000148067
0.000145843
0.000172948
0.000147057
0.017963
0.00168912
0.000148386
0.000157918
0.000209823
0.000180715
0.00014916
0.000191961
0.0501478
0.000148396
0.0166589
0.000149394
0.0528664
0.0139455
0.000146093
0.000174069
0.0271342
0.0650901
0.00014627
0.000187077
0.000147997
0.000146334
0.0325063
0.000152528
0.000153299
0.00014824
0.0072528
0.000195552
0.000168569
0.000227606
0.000160554
0.000150365
0.000190135
0.0298152
0.000147589
0.0443048
0.00541325
0.000162699
0.000150129
0.00015455
0.000148191
0.000184847
0.000147618
0.000149596
0.00016817
0.0427196
0.000160839
0.000149877
0.000165937
0.0540499
0.000143289
0.0153752
0.000151763
0.000248781
0.000188898
0.0194637
0.000148954
0.0563283
0.00014631
0.00014329
0.000148119
0.000157583
0.000147525
0.0370758
0.000148417
0.000148173
0.00470459
0.000148033
0.000147249
0.020266
0.000149357
0.000147137
0.000147505
0.000317905
0.0601998
0.0123987
0.0796633
0.000586213
0.029617
0.00014757
0.000153501
0.000398283
0.000169353
0.00022249
0.0102618
0.000155444
0.000241934
0.0422178
0.000147306
0.0638317
0.000282625
0.000147146
0.000156805
0.000149373
0.000147989
0.000149699
0.000250347
0.054395
0.00395208
0.000200524
0.000147541
0.000171454
0.000172845
0.000147235
0.073012
0.000146386
0.000147006
0.000179654
0.000147032
0.000180504
0.000143873
0.000180015
0.00943252
0.000189968
0.000158008
0.000159062
0.0441942
0.047954
0.000166084
0.000260536
0.000160457
0.000161095
0.0157348
0.000180413
0.000147176
0.000334097
0.0602053
0.000143337
0.000151672
0.000167735
0.00017941
0.000182272
0.000190791
0.000148028
0.00032581
0.00017218
0.000148596
0.000152304
0.000149854
0.000147012
0.00014857
0.000187091
0.0203463
0.00015134
0.000320921
0.000154468
0.000148187
0.0512845
0.000162845
0.0472407
0.000202169
0.0180851
0.000167207
0.0266816
0.0213237
0.000151616
0.00017296
0.0317483
0.0536743
0.000252138
0.000184385
0.0167786
0.000190273
0.0324069
0.000148207
0.0555163
0.000147598
0.000147884
0.000165787
0.000190446
0.000148101
0.000171253
0.000205952
0.000152309
0.000148542
0.00599704
0.000147544
0.0272417
0.000159545
0.000149286
0.0603742
0.000157598
0.000164575
0.0295718
0.0579254
0.00018117
0.00416379
0.000271402
0.000147578
0.000149751
0.087201
0.000164334
0.0741733
0.000146413
0.000164186
0.000147043
0.000147625
0.000392787
0.000180826
0.000148038
0.0173258
0.000146231
0.000187135
0.000157823
0.0307411
0.0538552
0.000148629
0.000157547
0.00015143
0.000148134
0.0209365
0.00014771
0.000165994
0.0157505
0.000147207
0.000147037
0.00215331
0.018568
0.00015112
0.00016851
0.000147989
0.000148685
0.000148616
0.0220019
0.000157194
0.000310909
0.000168983
0.000223001
0.000162024
0.000146384
0.000191137
0.000190976
0.000149624
0.0112103
0.00290755
0.00249896
0.00015384
0.000148091
0.0836507
0.0467915
0.0208778
0.000149774
0.000147846
0.00547522
0.000149504
0.0467255
0.000146896
0.000150683
0.000156961
0.000147618
0.000147132
0.000148982
0.000151402
0.0149783
0.000148116
0.000158188
0.000199635
0.000187914
0.000148226
0.000149338
0.0493749
0.00018674
0.0383305
0.000155587
0.0764634
0.000147001
0.000147859
0.000158855
0.000533306
0.0004666
0.000164823
0.0382033
0.000196214
0.000174372
0.00015722
0.000159964
0.000148639
0.000214146
0.000167757
0.0841226
0.000163316
0.000159994
0.00641485
0.00018509
0.000148459
0.000162713
0.000193278
0.000149124
0.00018223
0.000315656
0.000147162
0.000181253
0.000389293
0.000146341
0.000147947
0.000147719
0.000146991
0.0500804
0.000174067
0.000172362
0.000188906
0.00014619
0.000258046
0.000146741
0.000151676
0.000146877
0.000170489
0.000257876
0.0094631
0.000172665
0.000146407
0.000167548
0.00017168
0.000148776
0.00739444
0.000149153
0.000628292
0.000150768
0.0140955
0.000261582
0.000177886
0.00016345
0.000148606
0.000149532
0.00015666
0.00016155
0.00019618
0.000204337
0.000147211
0.0351979
0.0446603
0.000224643
0.000160901
0.000160358
0.015793
0.000148772
0.0228713
0.000147055
0.000148174
0.000166703
0.000149591
0.0163283
0.000148241
0.0172851
0.000145996
0.000148106
0.000145837
0.000151439
0.000213536
0.000147018
0.000168565
0.000151485
0.0159795
0.00014804
0.000235516
0.000154985
0.00016465
0.000161781
0.000149968
0.000332236
0.000167953
0.000149763
0.000184133
0.00016006
0.000185022
0.000166397
0.00885252
0.000161354
0.0700608
0.000154934
0.000149102
0.000155459
0.000154424
0.000166984
0.0574565
0.00016114
0.000149626
0.000149592
0.000147622
0.000204894
0.0868503
0.000149625
0.00560562
0.000181341
0.0727295
0.013891
0.0106886
0.000148303
0.000165712
0.0268836
0.000163272
0.000502338
0.0128248
0.000188208
0.000149124
0.000161221
0.000149873
0.00014842
0.000170689
0.000147615
0.0369592
0.0531878
0.000192722
0.000148754
0.000197857
0.000149864
0.0714685
0.00879669
0.0292018
0.000157915
0.000149489
0.0180635
0.000180211
0.0860815
0.00016895
0.000417496
0.0175371
0.0162381
0.000148627
0.000147366
0.000454895
0.000153229
0.000148444
0.0191964
0.000149759
0.000189144
0.000146316
0.0481058
0.000147183
0.000148171
0.000170314
0.000147192
0.00945241
0.000158164
0.022731
0.000147589
0.000147905
0.0001476
0.000157921
0.000190759
0.000148742
0.000147591
0.000147273
0.00021072
0.000220606
0.000159198
0.000148206
0.000162746
0.000181025
0.000207106
0.000172293
0.000148376
0.000146961
0.000151847
0.00014759
0.000153758
0.000149483
0.000166853
0.000287924
0.000170627
0.000192951
0.0396622
0.000148398
0.000236612
0.0813462
0.000148071
0.00014989
0.00014691
0.000148031
0.0865131
0.000178501
0.0181383
0.000299777
0.000169532
0.0001954
0.000166286
0.000165162
0.000160136
0.000148823
0.000146004
0.000156483
0.000168812
0.000147846
0.0176957
0.00165059
0.000557913
0.000156386
0.000151529
0.000163358
0.0500514
0.0464953
0.000149883
0.00014619
0.0573242
0.000153504
0.0137859
0.0245041
0.00919016
0.0337275
0.0282919
0.000146297
0.0641462
0.0430417
0.0109509
0.000147938
0.000150826
0.000205403
0.000330644
0.000204928
0.0207639
0.000167413
0.00018057
0.000143785
0.000147605
0.086217
0.000157402
0.000151083
0.0527448
0.00016487
0.000346371
0.000184542
0.000147863
0.000146414
0.00015321
0.000190145
0.0179365
0.0225286
0.068057
0.00014683
0.000157507
0.000197514
0.000153708
0.000154419
0.000149968
0.0185343
0.000171266
0.000144187
0.0724288
0.000147733
0.000158619
0.000148045
0.00017827
0.00020909
0.0455191
0.000147768
0.000182756
0.00317407
0.000162966
0.000149153
0.000173135
0.000148938
0.000146338
0.000153632
0.000151487
0.012663
0.000166079
0.000150031
0.0199716
0.000148542
0.0249546
0.000144226
0.000148848
0.000201148
0.000160313
0.00015438
0.00024554
0.000147651
0.0500381
0.000146123
0.000224302
0.000211765
0.0541032
0.00703129
0.000150676
0.000165071
0.000144885
0.000168435
0.00049575
0.000153433
0.000147873
0.000165171
0.07445
0.00557136
0.0437719
0.00014889
0.000195618
0.0457042
0.000149154
0.000204994
0.0214333
0.000385314
0.000166811
0.000157759
0.000165858
0.000149142
0.000153594
0.0145445
0.000145853
0.00014642
0.000147785
0.000179018
0.000560819
0.000197026
0.000149743
0.000168707
0.000145935
0.00014706
0.000156261
0.000177924
0.000147648
0.00875297
0.000207099
0.000168507
0.000147628
0.0450486
0.000151747
0.000146988
0.000148844
0.000155209
0.000191004
0.0149966
0.000168502
0.000182888
0.000151171
0.000148913
0.0536508
0.000164456
0.000169794
0.0647797
0.000255996
0.0294943
0.000177719
0.000153785
0.000168132
0.000162205
0.000160561
0.0103652
0.000146728
0.000147096
0.0524395
0.0592812
0.020876
0.000148925
0.000414444
0.000149842
0.000151082
0.00017095
0.0155264
0.000152888
0.000691851
0.000157427
0.000189742
0.000157993
0.000153223
0.000186702
0.000148184
0.00014802
0.000170653
0.000195499
0.000162239
0.000265832
0.0156329
0.0002778
0.000155617
0.000147932
0.0091906
0.000147522
0.0162327
0.00015291
0.00015596
0.00888448
0.000162098
0.000196239
0.034609
0.000276349
0.000151758
0.000147236
0.0166074
0.000165739
0.0388452
0.0524404
0.0426654
0.0225879
0.000212965
0.000249706
0.000148728
0.000161282
0.0532927
0.000173955
0.000151071
0.000145231
0.000511676
0.000154437
0.000153476
0.000213554
0.00015799
0.000146987
0.0786536
0.000168234
0.000153285
0.0444115
0.000212058
0.000147959
0.000151038
0.000161056
0.000152123
0.0189058
0.08354
0.00604173
0.000147015
0.000148506
0.000179237
0.000215083
0.000166356
0.000192239
0.000167208
0.00120381
0.000148497
0.000204699
0.000146972
0.000187185
0.000149878
0.03819
0.000202701
0.0117918
0.000196092
0.00198958
0.000343316
0.000200058
0.000149597
0.0413362
0.000192206
0.000148553
0.0235814
0.000341347
0.000147837
0.000171439
0.000149625
0.000151349
0.0416037
0.000148083
0.000215407
0.000147599
0.000165418
0.000169423
0.0453642
0.000143758
0.000328707
0.000196802
0.0526679
0.000148441
0.000151206
0.000149861
0.000182852
0.000148784
0.000151889
0.000150035
0.00014805
0.000147531
0.000173238
0.000155399
0.0858135
0.000207068
0.000233108
0.000148364
0.0460272
0.000146082
0.000148403
0.000148423
0.000149034
0.000190368
0.000149457
0.000155563
0.00014819
0.000149709
0.000161237
0.0287865
0.000148422
0.000151816
0.000180189
0.000182826
0.0739034
0.0862531
0.000209872
0.000147832
0.000165088
0.000165087
0.000148753
0.000189005
0.000149875
0.000237292
0.000147547
0.0640304
0.000196197
0.0194915
0.000155228
0.000147756
0.000152116
0.0697754
0.000247696
0.000145003
0.0431508
0.000149531
0.000172388
0.000146534
0.0559404
0.0424917
0.000148803
0.000148109
0.000156937
0.00021237
0.000151207
0.000160668
0.0393956
0.0152166
0.000151159
0.0618093
0.000152655
0.000153039
0.000187346
0.000316664
0.000191492
0.000189326
0.0158008
0.000148231
0.00585379
0.0180795
0.0829096
0.0467452
0.00016083
0.0118473
0.0550252
0.0521761
0.00027699
0.0214037
0.0153952
0.000190175
0.000144559
0.0449589
0.00016405
0.000151029
0.000170306
0.0326755
0.000179106
0.000147434
0.000158312
0.000200503
0.0322134
0.000155222
0.00016579
0.000146533
0.0126335
0.0247112
0.000217114
0.000168101
0.000143705
0.00402354
0.000145983
0.000459726
0.000152344
0.000148836
0.0418064
0.000146888
0.000145831
0.00015199
0.000149292
0.000167469
0.000152619
0.0104639
0.0230879
0.0495972
0.000147273
0.000209044
0.000151967
0.000179491
0.000162371
0.000150878
0.000149236
0.0189964
0.0119396
0.00014912
0.000157119
0.000149125
0.000147902
0.000285448
0.0190587
0.000213328
0.000334884
0.0114957
0.000191978
0.000148054
0.000148098
0.000147058
0.000170884
0.000176236
0.0712941
0.000567222
0.000146049
0.0740501
0.000199588
0.000161416
0.0236069
0.000179897
0.000321972
0.000143968
0.0252513
0.00014847
0.000144546
0.000148248
0.000145667
0.0758936
0.000178213
0.0445616
0.000148272
0.000148055
0.047751
0.00750373
0.000263366
0.000148804
0.0771625
0.0458656
0.000179299
0.000186045
0.0189084
0.000152703
0.000152753
0.000158757
0.000148389
0.000151504
0.000160285
0.0492021
0.000149198
0.00014715
0.0264222
0.000165973
0.000158547
0.000152205
0.000187501
0.000248733
0.000147575
0.000181087
0.0535336
0.000145832
0.000146514
0.000161829
0.000151824
0.000147988
0.00027003
0.00019189
0.039685
0.000187968
0.000152741
0.00016014
0.000148728
0.000339705
0.000162958
0.000145729
0.000155467
0.000149747
0.000261049
0.000149097
0.0122077
0.00014782
0.000147674
0.000214324
0.00014877
0.000191183
0.000248465
0.0230474
0.000231974
0.0141466
0.000167749
0.0866568
0.000148168
0.000156659
0.0209544
0.00019217
0.000182189
0.00035697
0.000149029
0.000147155
0.000149944
0.000168983
0.000146527
0.000202611
0.000146219
0.0514441
0.000148705
0.0149983
0.0457573
0.0828424
0.000270517
0.00016579
0.000149678
0.000167696
0.000275578
0.000147321
0.0001484
0.0153857
0.0145128
0.000221202
0.000387186
0.000145776
0.0166439
0.0337913
0.000152253
0.0534827
0.000148049
0.000144013
0.000151491
0.000163836
0.000151708
0.000159958
0.0296024
0.000204459
0.000175635
0.0517158
0.000146956
0.000242233
0.000147946
0.00014984
0.0139245
0.0572254
0.000270605
0.000146131
0.000229838
0.000271385
0.000183434
0.0155671
0.000149778
0.000153285
0.000149135
0.000145483
0.000162854
0.000148153
0.000163908
0.000149077
0.00875181
0.00639143
0.0546206
0.00016532
0.000187617
0.0119157
0.000146319
0.000149591
0.00167076
0.000149261
0.000154037
0.000145841
0.0145708
0.0493757
0.000248853
0.000148386
0.0104933
0.0418935
0.000187612
0.000145677
0.000185358
0.000147092
0.00016658
0.0190769
0.0263282
0.000146126
0.000165615
0.000145977
0.000152159
0.000154943
0.000148264
0.000149116
0.000266818
0.00589022
0.00014914
0.00014587
0.0263465
0.00014765
0.000148129
0.000148005
0.000311556
0.0263968
0.000168605
0.000153178
0.000149873
0.000220328
0.000148157
0.00820399
0.000167229
0.000571028
0.000148233
0.000146962
0.000149699
0.000180927
0.00014718
0.0318296
0.0143802
0.000145671
0.000157446
0.000146229
0.000161333
0.000261445
0.000169048
0.000173575
0.000181997
0.000151565
0.0259822
0.000222167
0.000144127
0.000147577
0.000160111
0.000152217
0.000148303
0.000160682
0.018628
0.0310137
0.000147649
0.000145953
0.0181049
0.00020051
0.000160337
0.000146711
0.000154485
0.00030255
0.000251636
0.026702
0.0456493
0.000149472
0.000184182
0.000149707
0.000167626
0.000165231
0.000160851
0.0102331
0.000162712
0.0080288
0.000169023
0.000255581
0.00014673
0.000146847
0.000151262
0.000144181
0.0293433
0.000216636
0.0211847
0.000149677
0.000176228
0.000178893
0.000148334
0.000201968
0.000152434
0.0219363
0.000147982
0.000226086
0.0034754
0.000151965
0.000206311
0.000148144
0.000245171
0.000170721
0.0221486
0.000150888
0.00016126
0.00014393
0.000156077
0.000157526
0.000145727
0.000238647
0.000147002
0.000149786
0.00035451
0.0153808
0.000149406
0.000210428
0.0114094
0.0532996
0.000170336
0.0214439
0.000148237
0.0138661
0.000202562
0.000154358
0.0327823
0.063547
0.00347851
0.000217436
0.0137491
0.000145441
0.000147859
0.00014632
0.000181063
0.000155167
0.000148274
0.000185678
0.000167148
0.0445292
0.000348378
0.000184601
0.000149145
0.000175314
0.0418063
0.0219907
0.000154291
0.0375255
0.00014565
0.000164777
0.0441606
0.000324633
0.000287455
0.000317119
0.000148659
0.0310795
0.000147969
0.0162578
0.000148292
0.000328347
0.049289
0.000148267
0.000205157
0.000263862
0.000148741
0.000148811
0.000147342
0.00014623
0.0198239
0.082349
0.0168464
0.000149748
0.00014752
0.0313518
0.000165812
0.000148058
0.000147307
0.000147365
0.00014876
0.0771124
0.000165757
0.000232405
0.000168506
0.000164749
0.000148415
0.000165116
0.000147367
0.0507036
0.000148096
0.0274646
0.00022346
0.000148365
0.00876686
0.000147707
0.000147667
0.00735072
0.000167273
0.000224643
0.000149044
0.000148189
0.000149447
0.000148048
0.000165841
0.000148118
0.050683
0.000158024
0.000146629
0.0794694
0.0336477
0.000187295
0.000201945
0.000146903
0.000334481
0.000166341
0.0109338
0.000166823
0.000148072
0.000152023
0.021578
0.00016269
0.000459607
0.000211503
0.00014881
0.0550426
0.0320961
0.0306402
0.000148267
0.000149432
0.0684952
0.00014766
0.00015807
0.000148633
0.000148363
0.000148203
0.000809316
0.000157203
0.00014598
0.0533276
0.013034
0.000156516
0.000159889
0.000145783
0.000149709
0.0465959
0.000536075
0.000198702
0.000147204
0.0186307
0.0426305
0.000156231
0.000147387
0.000183206
0.00681089
0.000146296
0.000166476
0.000150988
0.0704714
0.000148611
0.000148253
0.000162437
0.0721208
0.0754888
0.00019195
0.0568227
0.0781023
0.0385472
0.0144936
0.000160091
0.000156151
0.000147002
0.0467184
0.000148346
0.000216776
0.000163358
0.000147889
0.000147424
0.000187651
0.000149849
0.0129887
0.000188074
0.000162779
0.000191676
0.0183586
0.0262276
0.000146296
0.00310885
0.000156773
0.000154308
0.00016435
0.000151898
0.052831
0.0164622
0.000181866
0.000181685
0.000149672
0.00014726
0.000226422
0.000188365
0.000165064
0.000161155
0.000147894
0.0507617
0.000147641
0.000147152
0.000155845
0.0509096
0.000227134
0.000179961
0.000268653
0.0149154
0.00014814
0.000196996
0.0179284
0.000147092
0.000157506
0.0372166
0.000149472
0.000147909
0.000155768
0.0528069
0.084771
0.018556
0.000179437
0.000147815
0.0525733
0.000148202
0.000182384
0.000148092
0.0473219
0.00196182
0.00014824
0.000181677
0.000146571
0.00015646
0.000163136
0.0133689
0.0558126
0.000148186
0.0221824
0.0126634
0.000167014
0.00027019
0.0293653
0.000145788
0.000234707
0.000157789
0.000190431
0.0820675
0.000145763
0.000147905