/*--------------------------------*- C++ -*----------------------------------*\
| =========                 |                                                 |
| \\      /  F ield         | OpenFOAM: The Open Source CFD Toolbox           |
|  \\    /   O peration     | Version:  v2012                                 |
|   \\  /    A nd           | Website:  www.openfoam.com                      |
|    \\/     M anipulation  |                                                 |
\*---------------------------------------------------------------------------*/
FoamFile
{
    version     2.0;
    format      ascii;
    class       volScalarField;
    location    "100";
    object      k_0;
}
// * * * * * * * * * * * * * * * * * * * * * * * * * * * * * * * * * * * * * //

dimensions      [0 2 -2 0 0 0 0];


internalField   nonuniform List<scalar> 
54593
(
0.000147966
0.000178362
0.000146429
0.0344112
0.0212753
0.0523613
0.0176784
0.000188418
0.000176407
0.000147418
0.000154664
0.00955184
0.000393745
0.000147497
0.000171789
0.000155359
0.000188495
0.00016595
0.000147404
0.000157765
0.000146427
0.00015693
0.000147399
0.00823726
0.000144667
0.000212209
0.000147972
0.000172437
0.074825
0.00014742
0.000212011
0.000190025
0.000146996
0.035365
0.000163138
0.0001492
0.000170371
0.000178225
0.000150841
0.00015697
0.000279418
0.000775409
0.000146067
0.000148005
0.000190856
0.000150939
0.000190808
0.000169376
0.000144865
0.000173694
0.000147004
0.000145007
0.000153939
0.00019255
0.000201135
0.000148329
0.0391749
0.00139308
0.000198166
0.000167105
0.000146084
0.000150859
0.000147506
0.0293977
0.000147811
0.000155096
0.0697917
0.000186663
0.0289389
0.0286357
0.000144937
0.00016307
0.000147784
0.038479
0.000153239
0.000159801
0.000166366
0.000246678
0.0408582
0.000283916
0.000146506
0.0417296
0.000148004
0.0493316
0.000152176
0.0431401
0.0233193
0.000190203
0.000172891
0.000148268
0.00276424
0.000159907
0.000203249
0.000202235
0.000165242
0.079505
0.0230529
0.000224013
0.000148597
0.000173925
0.000149481
0.0487254
0.000150142
0.000147841
0.000189338
0.000165603
0.000168658
0.000189504
0.000159549
0.000168915
0.0525269
0.000147766
0.000148291
0.000213105
0.000147541
0.00552908
0.0299115
0.027293
0.0379919
0.000202312
0.0287864
0.000149595
0.0221548
0.000168982
0.000146712
0.000213691
0.000150373
0.000146709
0.0178741
0.0745198
0.000149464
0.000149035
0.000160671
0.000149155
0.000160073
0.0006782
0.000146529
0.0325087
0.000147834
0.000148204
0.0154816
0.000168716
0.000160261
0.000622313
0.000164185
0.000186377
0.0318702
0.000170117
0.0287787
0.000150285
0.000167982
0.000149155
0.000204743
0.000201789
0.000147837
0.0723512
0.000154493
0.0711033
0.000171831
0.000148572
0.000275485
0.000152968
0.0149158
0.0769594
0.000172039
0.000149469
0.00014656
0.000146052
0.000453337
0.00014988
0.000214473
0.000597069
0.0001734
0.000149626
0.000176369
0.000146912
0.0584902
0.00015236
0.000150871
0.000262531
0.0442855
0.000143872
0.072985
0.000149575
0.000149629
0.00607616
0.000149931
0.000152991
0.000147526
0.000331865
0.000150909
0.0389236
0.00496633
0.000147762
0.0158234
0.0324247
0.000147909
0.000153985
0.000213242
0.00428331
0.000160882
0.000212493
0.000187692
0.000150058
0.000150001
0.000149973
0.000467198
0.000151971
0.000150872
0.00014635
0.000148227
0.000147494
0.000143842
0.000160352
0.000164987
0.000218118
0.0429558
0.0403699
0.00859779
0.000147902
0.000156845
0.023098
0.00107386
0.000151859
0.000184829
0.000165862
0.000149795
0.000165875
0.000146511
0.000171087
0.000150319
0.000206639
0.00630042
0.000149593
0.000149117
0.0195515
0.000214396
0.00014914
0.000184462
0.000149112
0.000151825
0.000160658
0.0507492
0.000197228
0.000151848
0.00015444
0.0561744
0.000236198
0.000145909
0.000288336
0.000197061
0.0516546
0.0537242
0.000147242
0.000153041
0.000148457
0.0180028
0.00015138
0.000216824
0.000156874
0.000169543
0.0498052
0.000149005
0.00514065
0.000164986
0.000146668
0.0162706
0.000145922
0.000155909
0.000149444
0.0392949
0.000449457
0.000159348
0.000147952
0.000154365
0.000147692
0.000151004
0.0470473
0.000146372
0.000190398
0.000151306
0.00016314
0.000156292
0.0189341
0.0560268
0.000241471
0.000157004
0.000152977
0.000164354
0.0016146
0.0534567
0.0402991
0.000147273
0.000148208
0.000183627
0.000149759
0.0461001
0.000472051
0.000147528
0.000211572
0.000234481
0.000150881
0.00014824
0.000149846
0.000147774
0.000148322
0.000174375
0.0159654
0.000150209
0.00014786
0.0532507
0.000167093
0.0164301
0.000149073
0.000260402
0.0199888
0.000186388
0.000316272
0.000224569
0.000149296
0.00018185
0.00014596
0.000250044
0.000172067
0.0382295
0.000171342
0.000181771
0.000146569
0.0469063
0.000169577
0.000148398
0.000158949
0.000147826
0.000153021
0.000149892
0.000604493
0.00015688
0.0166309
0.000252051
0.000157894
0.000166964
0.000154217
0.052099
0.000151456
0.000148329
0.000184934
0.000173629
0.000210199
0.00018949
0.0469852
0.00640003
0.000148225
0.000245636
0.000195348
0.00014822
0.000146121
0.000157908
0.000148251
0.000148252
0.000147955
0.000216198
0.000157056
0.000151709
0.0172705
0.000174
0.000148954
0.000148251
0.00239857
0.000166438
0.000147738
0.000154825
0.00014778
0.000145947
0.000149348
0.000153544
0.000687858
0.000147536
0.00343894
0.000159243
0.0480836
0.0793286
0.000161062
0.000181193
0.00023729
0.000187294
0.000517302
0.00823844
0.00014782
0.0483131
0.000182042
0.000178567
0.000198181
0.000156634
0.000146134
0.0157763
0.0139162
0.00308489
0.000176664
0.000174959
0.000181746
0.000152581
0.000177505
0.0331787
0.000201432
0.000245118
0.000200905
0.000146403
0.000185972
0.000147164
0.000226524
0.000240217
0.000147598
0.000148226
0.000175579
0.00014769
0.0727204
0.000169761
0.000148041
0.000148659
0.000171794
0.000166358
0.0203991
0.000171783
0.000191913
0.0233641
0.0130764
0.0584518
0.00017038
0.00566836
0.00016363
0.081075
0.000163601
0.000253269
0.000174029
0.000181493
0.000162596
0.000147946
0.0348735
0.000176239
0.00017757
0.0139507
0.000149632
0.000146678
0.000148323
0.019438
0.000183168
0.000147572
0.000148602
0.000203614
0.000727722
0.000318083
0.000256771
0.000174507
0.000167104
0.0337425
0.000590879
0.000164237
0.000148417
0.000151072
0.00020532
0.000147589
0.000145897
0.000422878
0.000148683
0.000146176
0.000181698
0.000215991
0.000148752
0.000169994
0.000810093
0.0179721
0.00284097
0.000160439
0.0001452
0.0142977
0.000149124
0.000149841
0.0382516
0.0176993
0.00014876
0.000176721
0.000148034
0.000181097
0.000180533
0.000148042
0.000985886
0.000248088
0.000239181
0.000144649
0.00116066
0.000446737
0.00014963
0.000147392
0.000157539
0.00628744
0.000149324
0.000165658
0.000151978
0.000238038
0.000148363
0.000262061
0.022997
0.000238233
0.000183339
0.000146979
0.00016552
0.000148588
0.000166144
0.000163626
0.000146707
0.000148268
0.000194534
0.0235242
0.000148607
0.000157862
0.0419104
0.000353456
0.000147117
0.0584511
0.000147782
0.000191095
0.000155133
0.000149296
0.000148937
0.000147858
0.000181658
0.0567274
0.0563553
0.00544916
0.000144932
0.000547259
0.000152499
0.000168687
0.000147779
0.000146681
0.000146586
0.0275574
0.000148033
0.000157994
0.000168772
0.000147182
0.00015169
0.000600298
0.0721825
0.000149939
0.01753
0.0205109
0.00014668
0.0172036
0.000146138
0.0620659
0.00016316
0.00021438
0.00112258
0.000193946
0.000193355
0.000266815
0.00646559
0.000252007
0.0338325
0.000148358
0.000149592
0.000174712
0.000169795
0.00411935
0.000149247
0.0806455
0.000148791
0.000154871
0.000197407
0.000147115
0.000158774
0.000182336
0.000153444
0.000406902
0.0400387
0.000227691
0.00029889
0.0536358
0.000652319
0.000146813
0.000145959
0.000157993
0.00014696
0.000152011
0.000148339
0.000202542
0.000151477
0.000230294
0.000161231
0.000162597
0.0233505
0.000170511
0.00017994
0.000149605
0.0554492
0.0463517
0.000147253
0.000149672
0.000273959
0.0164544
0.000154396
0.000148608
0.0728637
0.039797
0.000230061
0.0180914
0.000151912
0.000156611
0.000165655
0.000226277
0.000148274
0.000149704
0.000162869
0.000191037
0.000163078
0.000151765
0.000237395
0.0469649
0.000149627
0.00014593
0.0181432
0.000201366
0.000190512
0.0355028
0.000482542
0.000226315
0.0802466
0.0756344
0.00019125
0.000252018
0.000147791
0.000148711
0.000177125
0.000147277
0.000184306
0.00017593
0.00516015
0.000151424
0.0705405
0.000212274
0.000147381
0.000212417
0.000146184
0.00015163
0.000552592
0.00018943
0.0797332
0.000160269
0.059909
0.000146831
0.000177623
0.0783535
0.0426296
0.000147793
0.000143842
0.0493178
0.000159316
0.000149357
0.000148006
0.000148647
0.000147274
0.0066817
0.000168767
0.000147502
0.000148365
0.0048257
0.000201471
0.000148696
0.000146014
0.000147791
0.000169867
0.000161223
0.00015253
0.000192801
0.0127099
0.0329475
0.000150871
0.000147788
0.000147774
0.000156312
0.000163287
0.000149596
0.047039
0.0598679
0.00015284
0.000148241
0.000147245
0.000195356
0.0455305
0.000145936
0.000148558
0.0474244
0.000150402
0.000154652
0.000190493
0.000147484
0.00018678
0.00302033
0.000170201
0.000148226
0.000152051
0.0281759
0.000166558
0.000148274
0.051401
0.000147456
0.0297289
0.000173535
0.000158968
0.000149502
0.000146257
0.0191391
0.000147797
0.000166098
0.0562288
0.000161823
0.000147968
0.000163402
0.0146975
0.000162817
0.016546
0.000160667
0.08644
0.00542883
0.00713963
0.000147784
0.000290596
0.000151863
0.000148652
0.00014632
0.000146171
0.0063461
0.00296405
0.0729438
0.000166943
0.000216348
0.000147463
0.000154178
0.000148081
0.000147865
0.041593
0.000409564
0.000259939
0.000149839
0.0494522
0.000166155
0.0710765
0.00023377
0.0671177
0.000233039
0.000220774
0.0171437
0.0152864
0.000175565
0.0225756
0.000147712
0.0447039
0.0505908
0.000202674
0.0589633
0.0567248
0.0872103
0.00017699
0.0575024
0.00015893
0.000176215
0.000634183
0.000155531
0.000148175
0.000148241
0.00014809
0.0154752
0.000189673
0.000156449
0.000146452
0.000146263
0.000148071
0.00100712
0.00014656
0.0192526
0.000200509
0.00362437
0.000147916
0.000237868
0.0304001
0.000147033
0.00729383
0.0405262
0.0277815
0.0239614
0.000149671
0.000157625
0.00019992
0.000149103
0.000168887
0.0300439
0.000151704
0.0666075
0.0431886
0.000217132
0.000147732
0.000146167
0.00161469
0.00016422
0.00102698
0.000152609
0.000204854
0.000166529
0.00018159
0.0691065
0.0065118
0.000168414
0.000193017
0.000148243
0.000149701
0.000148228
0.000187155
0.000644968
0.030082
0.000169782
0.000171521
0.0169969
0.000201177
0.000163983
0.000151996
0.000254283
0.000146435
0.000150051
0.000149047
0.026151
0.000150948
0.000147444
0.000149144
0.000146252
0.000199391
0.000148916
0.000148016
0.000148188
0.0838184
0.000146971
0.000149582
0.0477654
0.00014725
0.000158749
0.014476
0.000557255
0.000146145
0.000273233
0.0403724
0.0775777
0.000146498
0.0461355
0.000146476
0.000190063
0.00014584
0.000336563
0.00267666
0.000194378
0.000147726
0.00641698
0.000154412
0.000146609
0.000145954
0.000156782
0.0120327
0.000153426
0.000147928
0.0706143
0.000151452
0.000160404
0.000230044
0.000146442
0.000147848
0.000223114
0.0189485
0.000143297
0.000148066
0.0244721
0.0192916
0.000206165
0.00014325
0.0165123
0.0669558
0.0148289
0.000146235
0.000184058
0.000147092
0.000143874
0.000157679
0.000191489
0.0544598
0.000143842
0.000150989
0.000148399
0.000146178
0.0720129
0.0138867
0.000277921
0.000165415
0.000249698
0.000146587
0.050134
0.00460545
0.0170327
0.000153648
0.0233987
0.000148667
0.000148217
0.000156059
0.000149773
0.00016602
0.000147209
0.013688
0.0518846
0.000573508
0.000171416
0.000151903
0.000206665
0.000193253
0.000197092
0.000144891
0.0200607
0.071903
0.000147773
0.000228791
0.000148073
0.000160995
0.026405
0.000182962
0.000149628
0.0185821
0.000148417
0.0180059
0.000179432
0.000213521
0.000170525
0.00016395
0.000191031
0.000170933
0.000145942
0.000208584
0.000174034
0.000268824
0.000167105
0.0337349
0.0519429
0.000148059
0.000147557
0.000146993
0.000147834
0.00018031
0.000148363
0.000146029
0.0247486
0.000187567
0.000165011
0.0145593
0.000155553
0.0101241
0.000146559
0.000148024
0.000225205
0.000148093
0.000160608
0.000172077
0.000210458
0.000210514
0.0168381
0.000172872
0.000210331
0.000519307
0.000170839
0.030205
0.000150186
0.00659441
0.000190879
0.000153502
0.000176254
0.000171727
0.000307567
0.0167287
0.0616169
0.000149595
0.000155728
0.0178324
0.000146982
0.000163872
0.000181343
0.000212035
0.0574265
0.000147708
0.000191564
0.000580151
0.000148187
0.000148328
0.00014334
0.0791111
0.000167097
0.000150967
0.00427504
0.0209388
0.000147403
0.0782331
0.00123772
0.000200648
0.000216193
0.000196192
0.000181659
0.000183294
0.0128968
0.000181862
0.00014697
0.0160075
0.000148418
0.000147269
0.00014689
0.0857191
0.000149169
0.000198947
0.000151503
0.022959
0.000173382
0.000147517
0.000153751
0.0725452
0.000145911
0.00014914
0.000147147
0.000179278
0.000149219
0.000554848
0.000162318
0.000148389
0.000176426
0.000198286
0.0200956
0.000149982
0.000205253
0.0541953
0.0430553
0.000147204
0.000158128
0.000148303
0.000147801
0.000196215
0.000158044
0.000147377
0.000151877
0.000166728
0.00014761
0.0523527
0.000153576
0.000172429
0.000148129
0.000147833
0.000153626
0.000146896
0.000160178
0.000208506
0.000149838
0.000148065
0.000147772
0.00475212
0.000167558
0.0145649
0.000153227
0.0557807
0.0853726
0.000226462
0.000160931
0.000180051
0.000148397
0.0482176
0.0213142
0.0482409
0.0382429
0.000188554
0.000173405
0.000202662
0.000239338
0.000167502
0.00015193
0.000146966
0.000181349
0.0166813
0.000195771
0.000169095
0.000148226
0.000181333
0.000148169
0.0505081
0.000145169
0.000199937
0.000151949
0.00027351
0.000147899
0.000346547
0.000157584
0.00022261
0.000148047
0.000151992
0.000672607
0.06999
0.000161612
0.000172788
0.000147743
0.000149584
0.0209384
0.0751188
0.0560066
0.000149986
0.000205708
0.000161305
0.000169562
0.000148054
0.000213759
0.00014837
0.000147637
0.000151711
0.00014839
0.0319704
0.000148364
0.000147782
0.000149748
0.000151619
0.000149842
0.000156516
0.0267735
0.000155902
0.0209034
0.00623862
0.000147805
0.000179628
0.000146648
0.00015119
0.000147895
0.000661237
0.000475928
0.000148414
0.00014813
0.00015819
0.0568681
0.000362297
0.000148067
0.000145843
0.000172947
0.000147056
0.0179679
0.00168903
0.000148386
0.000157918
0.000209772
0.00018073
0.00014916
0.000192005
0.0501438
0.000148396
0.0166566
0.000149394
0.0528666
0.0139477
0.000146093
0.000174071
0.0271338
0.0650876
0.00014627
0.000187079
0.000147997
0.000146334
0.0324947
0.000152528
0.000153298
0.00014824
0.00725311
0.000195553
0.000168568
0.000227573
0.000160554
0.000150366
0.000190136
0.0298168
0.000147588
0.0443343
0.00541337
0.000162698
0.000150129
0.000154549
0.000148191
0.000184846
0.000147619
0.000149596
0.000168169
0.0427682
0.000160836
0.000149877
0.000165935
0.0540468
0.000143289
0.015379
0.000151763
0.000248725
0.000188887
0.0194644
0.000148953
0.0563593
0.00014631
0.00014329
0.000148119
0.000157583
0.000147525
0.0370794
0.000148417
0.000148172
0.00470468
0.000148032
0.000147249
0.0202685
0.000149356
0.000147137
0.000147505
0.000317906
0.0602069
0.0127008
0.0796788
0.000577728
0.0296168
0.00014757
0.0001535
0.000398269
0.000169352
0.000222624
0.0106817
0.000155444
0.000241928
0.042212
0.000147306
0.0638474
0.000282631
0.000147146
0.000156804
0.000149372
0.000147989
0.000149699
0.000250287
0.0543966
0.00395239
0.000200494
0.000147541
0.000171453
0.000172844
0.000147234
0.0729789
0.000146386
0.000147006
0.000179604
0.000147032
0.0001805
0.000143873
0.000180013
0.009433
0.000189973
0.000158008
0.000159062
0.0441888
0.0479004
0.000166085
0.000260599
0.000160457
0.000161095
0.015736
0.000180411
0.000147176
0.00033423
0.0602162
0.000143337
0.000151672
0.000167739
0.00017941
0.000182273
0.000190779
0.000148028
0.000325808
0.000172174
0.000148596
0.000152303
0.000149854
0.000147012
0.000148571
0.000187094
0.0203465
0.000151341
0.000320922
0.000154467
0.000148188
0.0512875
0.000162845
0.0471893
0.00020215
0.0180893
0.000167208
0.0266815
0.0213289
0.000151617
0.000172959
0.0317985
0.0536714
0.000252098
0.000184383
0.0167738
0.000190236
0.0324101
0.000148207
0.0555194
0.000147598
0.000147883
0.000165788
0.000190451
0.000148101
0.000171247
0.000205974
0.000152309
0.000148542
0.00609575
0.000147543
0.0272365
0.000159546
0.000149286
0.0603731
0.000157598
0.000164576
0.0295591
0.0579242
0.000181166
0.00416376
0.000272222
0.000147578
0.000149751
0.0872058
0.000164334
0.0741434
0.000146413
0.000164185
0.000147044
0.000147624
0.000392781
0.000180824
0.000148038
0.0173264
0.000146231
0.000187135
0.000157823
0.0307429
0.0538587
0.00014863
0.000157547
0.000151429
0.000148134
0.0209367
0.00014771
0.000165983
0.0157508
0.000147207
0.000147037
0.00208639
0.0186154
0.00015112
0.000168509
0.000147989
0.000148686
0.000148616
0.0219963
0.000157194
0.000310561
0.000168984
0.000222949
0.000162023
0.000146384
0.000191134
0.000190973
0.000149624
0.0112094
0.00274027
0.00249885
0.00015384
0.000148091
0.0836525
0.0467914
0.0208711
0.000149774
0.000147846
0.00547731
0.000149505
0.0467288
0.000146896
0.000150683
0.000156961
0.000147618
0.000147132
0.000148982
0.000151403
0.0149778
0.000148116
0.000158187
0.000199627
0.000187916
0.000148226
0.000149337
0.0493249
0.00018674
0.0383231
0.000155586
0.0764705
0.000147001
0.000147859
0.000158855
0.000533302
0.000466595
0.000164822
0.0382072
0.000196216
0.000174374
0.00015722
0.000159964
0.000148639
0.000214155
0.000167758
0.0841147
0.000163316
0.000159994
0.00641619
0.000185092
0.000148459
0.000162713
0.000193266
0.000149124
0.000182254
0.000316176
0.000147161
0.000181249
0.000389278
0.000146341
0.000147947
0.000147719
0.000146991
0.0500792
0.000174067
0.000172367
0.000188895
0.00014619
0.00025803
0.000146741
0.000151677
0.000146877
0.00017049
0.000257595
0.00954375
0.000172656
0.000146407
0.000167543
0.000171677
0.000148775
0.00739261
0.000149153
0.000628261
0.000150768
0.014097
0.000261733
0.000177886
0.000163452
0.000148606
0.000149532
0.00015666
0.00016155
0.000196182
0.000204336
0.000147211
0.0351939
0.0446634
0.000224579
0.000160902
0.000160358
0.01579
0.000148772
0.0228724
0.000147055
0.000148174
0.000166701
0.000149591
0.0163309
0.000148241
0.0172858
0.000145996
0.000148106
0.000145836
0.00015144
0.000213554
0.000147018
0.000168569
0.000151484
0.0162086
0.00014804
0.000235164
0.000154985
0.00016465
0.000161781
0.000149968
0.000332238
0.000167953
0.000149763
0.000184136
0.00016006
0.000185023
0.000166396
0.00885285
0.00016136
0.0700241
0.000154934
0.000149102
0.000155459
0.000154423
0.000166984
0.0574576
0.000161141
0.000149626
0.000149592
0.000147622
0.000204868
0.0868601
0.000149625
0.00560553
0.000181343
0.0727189
0.0138906
0.0106876
0.000148303
0.000165713
0.0268832
0.000163273
0.000512985
0.0128252
0.000188203
0.000149124
0.000161221
0.000149873
0.000148421
0.00017069
0.000147614
0.03695
0.0531925
0.000192729
0.000148753
0.000197539
0.000149864
0.0714351
0.00879713
0.0291952
0.000157915
0.000149489
0.0180704
0.000180209
0.0860774
0.000168971
0.000417506
0.0175356
0.0162379
0.000148627
0.000147366
0.000479276
0.000153228
0.000148444
0.0191995
0.000149759
0.000189142
0.000146316
0.0481099
0.000147182
0.000148171
0.000170315
0.000147192
0.00945154
0.000158164
0.0227304
0.000147588
0.000147905
0.000147599
0.000157921
0.000190758
0.000148741
0.000147592
0.000147273
0.000210734
0.000220604
0.000159198
0.000148206
0.000162747
0.00018102
0.000207047
0.000172294
0.000148376
0.000146961
0.000151847
0.00014759
0.000153757
0.000149483
0.000166852
0.000288005
0.000170628
0.000192939
0.0396559
0.000148397
0.000236668
0.0813515
0.00014807
0.00014989
0.00014691
0.000148031
0.0865196
0.000178502
0.0181353
0.000299693
0.000169532
0.000195404
0.00016629
0.000165162
0.000160135
0.000148823
0.000146004
0.000156483
0.000168811
0.000147846
0.0176983
0.0017314
0.000557913
0.000156386
0.000151529
0.000163357
0.0500471
0.0464933
0.000149883
0.00014619
0.0573254
0.000153504
0.0137904
0.0245036
0.00918956
0.0337562
0.0283658
0.000146297
0.0641594
0.0430438
0.0109546
0.000147938
0.000150826
0.000205414
0.000330647
0.000204895
0.0207689
0.000167413
0.000180572
0.000143785
0.000147604
0.0862018
0.000157402
0.000151083
0.052699
0.000164869
0.000346375
0.000184533
0.000147863
0.000146414
0.00015321
0.00019016
0.0179404
0.0225281
0.0680581
0.00014683
0.000157507
0.000197491
0.000153707
0.000154419
0.000149968
0.0185411
0.000171265
0.000144187
0.072419
0.000147733
0.000158618
0.000148045
0.000178213
0.000209149
0.0455213
0.000147768
0.000182759
0.00319141
0.000162967
0.000149153
0.000173134
0.000148938
0.000146338
0.000153632
0.000151486
0.0126634
0.00016608
0.000150032
0.0199738
0.000148542
0.0249543
0.000144226
0.000148848
0.000201155
0.000160313
0.000154379
0.000245501
0.000147651
0.0500346
0.000146123
0.000224233
0.000211726
0.0541005
0.00703177
0.000150676
0.000165071
0.000144885
0.000168434
0.000496054
0.000153434
0.000147873
0.000165172
0.0744698
0.00557139
0.0437981
0.00014889
0.000195596
0.0456481
0.000149154
0.00020496
0.0214297
0.000387544
0.000166811
0.000157759
0.000165858
0.000149142
0.000153594
0.0145475
0.000145853
0.00014642
0.000147785
0.000179017
0.000560826
0.000197028
0.000149743
0.000168702
0.000145935
0.00014706
0.000156262
0.000177926
0.000147648
0.00875332
0.000206741
0.000168504
0.000147628
0.0450459
0.000151746
0.000146988
0.000148844
0.000155208
0.000191009
0.0149961
0.000168506
0.00018289
0.000151171
0.000148913
0.0536568
0.000164457
0.000169779
0.0647752
0.000255894
0.029494
0.00017772
0.000153785
0.000168132
0.000162204
0.000160561
0.010366
0.000146728
0.000147096
0.0524378
0.0592831
0.0208705
0.000148925
0.00041444
0.000149842
0.000151082
0.000170948
0.0155281
0.000152889
0.000723946
0.000157427
0.000189743
0.000157993
0.000153222
0.000186696
0.000148184
0.00014802
0.000170652
0.000195216
0.000162238
0.000265669
0.0156335
0.000278801
0.000155616
0.000147932
0.00918816
0.000147522
0.0162323
0.00015291
0.000155959
0.00888264
0.000162099
0.00019622
0.0345685
0.000276356
0.000151759
0.000147236
0.0166068
0.000165738
0.0388485
0.0524438
0.0426685
0.0225918
0.000212961
0.000249662
0.000148728
0.000161282
0.0532924
0.000173956
0.000151071
0.000145231
0.000511696
0.000154436
0.000153475
0.000213543
0.00015799
0.000146987
0.078667
0.000168233
0.000153284
0.0444061
0.000212028
0.000147959
0.000151038
0.000161057
0.000152124
0.0189095
0.0835535
0.0060443
0.000147015
0.000148506
0.000179237
0.000215094
0.000166355
0.000192244
0.000167209
0.00110581
0.000148498
0.0002047
0.000146972
0.000187188
0.000149878
0.0381933
0.000202709
0.0117926
0.000196074
0.00197565
0.000343319
0.000200058
0.000149597
0.0413405
0.000192194
0.000148553
0.0235795
0.00034135
0.000147837
0.000171439
0.000149625
0.000151348
0.0416071
0.000148083
0.000215428
0.000147599
0.000165417
0.000169423
0.0453082
0.000143758
0.000329304
0.000196793
0.0526169
0.000148441
0.000151206
0.000149861
0.000182856
0.000148784
0.000151889
0.000150035
0.00014805
0.00014753
0.000173237
0.000155399
0.0858204
0.000207079
0.000233027
0.000148364
0.0460314
0.000146081
0.000148403
0.000148423
0.000149034
0.000190366
0.000149456
0.000155562
0.00014819
0.000149709
0.000161236
0.0287862
0.000148422
0.000151816
0.000180179
0.00018283
0.0739184
0.0862584
0.000209885
0.000147832
0.000165088
0.000165085
0.000148753
0.000189013
0.000149875
0.000237344
0.000147547
0.0640433
0.000196203
0.0194905
0.000155227
0.000147756
0.000152117
0.0697743
0.000247637
0.000145003
0.0431787
0.000149531
0.000172415
0.000146534
0.055937
0.042496
0.000148803
0.000148109
0.000156937
0.000212378
0.000151207
0.000160667
0.0393989
0.0152135
0.000151158
0.0618069
0.000152655
0.000153039
0.000187338
0.000291701
0.000191488
0.00018934
0.0158001
0.000148231
0.00585395
0.0180773
0.0828974
0.0467421
0.00016083
0.0118471
0.0550235
0.0521807
0.00027602
0.0214047
0.0153958
0.000190243
0.000144559
0.0450046
0.000164049
0.000151029
0.000170296
0.0326784
0.000179105
0.000147433
0.000158312
0.000200482
0.032236
0.000155221
0.00016579
0.000146532
0.0126333
0.0247943
0.000217124
0.0001681
0.000143705
0.00402351
0.000145984
0.000444311
0.000152344
0.000148836
0.0418108
0.000146888
0.000145831
0.00015199
0.000149292
0.00016747
0.000152619
0.0104633
0.0230807
0.0495937
0.000147273
0.000209004
0.000151966
0.000179489
0.000162372
0.000150878
0.000149236
0.0189983
0.0119399
0.00014912
0.000157118
0.000149125
0.000147902
0.000285352
0.0190571
0.000213343
0.000334109
0.0114952
0.000191982
0.000148054
0.000148098
0.000147058
0.000170881
0.000176237
0.0712613
0.000567227
0.000146049
0.0740706
0.000199568
0.000161414
0.0236122
0.000179899
0.000322091
0.000143968
0.0252515
0.00014847
0.000144546
0.000148249
0.000145667
0.0759022
0.000178212
0.044566
0.000148273
0.000148055
0.0477468
0.00750416
0.00026335
0.000148804
0.0771515
0.0458704
0.000179305
0.00018604
0.0189111
0.000152703
0.000152752
0.000158757
0.00014839
0.000151503
0.000160285
0.049206
0.000149199
0.00014715
0.0264955
0.000165973
0.000158547
0.000152206
0.000187504
0.000248728
0.000147575
0.000181086
0.0535295
0.000145832
0.000146514
0.000161823
0.000151823
0.000147988
0.000273213
0.00019189
0.0396859
0.000187968
0.000152741
0.00016014
0.000148728
0.000337957
0.000162959
0.000145729
0.000155467
0.000149747
0.000261071
0.000149097
0.0122086
0.00014782
0.000147674
0.000214337
0.000148769
0.000191191
0.000248502
0.0230468
0.000231947
0.0141447
0.000167749
0.0866411
0.000148168
0.000156659
0.0210378
0.000192173
0.000182184
0.000356968
0.00014903
0.000147155
0.000149943
0.000168983
0.000146527
0.000202617
0.000146219
0.0514563
0.000148705
0.0149954
0.0457876
0.0828312
0.000270601
0.000165786
0.000149678
0.0001677
0.000275197
0.000147322
0.0001484
0.0153861
0.0145124
0.000221212
0.000389533
0.000145776
0.0166459
0.0337922
0.000152253
0.053487
0.000148049
0.000144013
0.000151491
0.000163836
0.000151707
0.000159959
0.0296819
0.000204463
0.000175636
0.0517157
0.000146956
0.000242231
0.000147946
0.00014984
0.0139284
0.057223
0.000270048
0.000146131
0.000229761
0.00027164
0.00018344
0.0155682
0.000149778
0.000153285
0.000149135
0.000145483
0.000162853
0.000148153
0.000163907
0.000149077
0.00875044
0.00638973
0.05464
0.00016532
0.000187608
0.0119184
0.000146319
0.000149591
0.00167085
0.000149261
0.000154037
0.000145841
0.0145717
0.0493724
0.000248839
0.000148386
0.0104933
0.0418877
0.000187603
0.000145677
0.000185363
0.000147092
0.000166581
0.019074
0.0263275
0.000146126
0.000165616
0.000145977
0.00015216
0.000154943
0.000148264
0.000149116
0.000266785
0.00589358
0.00014914
0.00014587
0.0263515
0.00014765
0.000148129
0.000148005
0.000311555
0.0263984
0.000168605
0.000153178
0.000149873
0.000220118
0.000148157
0.00820372
0.00016723
0.000571031
0.000148233
0.000146962
0.000149698
0.00018093
0.00014718
0.0318256
0.0143802
0.000145671
0.000157446
0.000146229
0.000161331
0.000261451
0.000169049
0.000173575
0.000181994
0.000151565
0.0259781
0.000222179
0.000144127
0.000147577
0.000160112
0.000152217
0.000148303
0.000160681
0.0186318
0.0310452
0.00014765
0.000145953
0.0181014
0.00020049
0.000160337
0.000146711
0.000154485
0.000302558
0.000251638
0.0267073
0.0456523
0.000149471
0.000184163
0.000149707
0.000167628
0.00016523
0.000160851
0.0102329
0.000162712
0.00802744
0.000169024
0.000255458
0.00014673
0.000146847
0.000151263
0.000144181
0.0294153
0.00021665
0.0211842
0.000149677
0.00017623
0.000178892
0.000148334
0.000201971
0.000152434
0.0219409
0.000147982
0.000226084
0.00337978
0.000151964
0.000206286
0.000148143
0.00024514
0.000170727
0.0221469
0.000150888
0.00016126
0.00014393
0.000156077
0.000157526
0.000145728
0.000238641
0.000147002
0.000149786
0.000354513
0.0153804
0.000149406
0.000210392
0.0114085
0.0532987
0.000170337
0.0214443
0.000148237
0.013866
0.000202571
0.000154358
0.0327856
0.0635427
0.00347857
0.000217439
0.0137481
0.00014544
0.00014786
0.00014632
0.000181062
0.000155166
0.000148274
0.000185678
0.000167147
0.044534
0.000360389
0.0001846
0.000149145
0.000175313
0.0418719
0.0219933
0.00015429
0.0375266
0.00014565
0.000164774
0.044159
0.000324634
0.000287461
0.000316105
0.000148659
0.031085
0.000147969
0.0162535
0.000148292
0.000328345
0.049293
0.000148267
0.000205133
0.000263816
0.000148741
0.000148811
0.000147343
0.00014623
0.0199082
0.082356
0.0168455
0.000149748
0.000147519
0.0313032
0.000165812
0.000148058
0.000147307
0.000147365
0.00014876
0.0771196
0.000165757
0.000232435
0.000168506
0.000164746
0.000148416
0.000165116
0.000147367
0.0507127
0.000148096
0.0274595
0.000223458
0.000148365
0.00876602
0.000147707
0.000147667
0.00734944
0.000167274
0.000224647
0.000149044
0.000148188
0.000149447
0.000148048
0.000165841
0.000148118
0.0506924
0.000158023
0.000146629
0.079466
0.033673
0.000187313
0.000201733
0.000146903
0.000334482
0.000166341
0.010933
0.000166823
0.000148072
0.000152023
0.0215758
0.000162689
0.000459604
0.000211515
0.00014881
0.0550471
0.0320992
0.0306431
0.000148267
0.000149431
0.0684594
0.00014766
0.00015807
0.000148633
0.000148363
0.000148203
0.000805219
0.000157203
0.00014598
0.0533249
0.0130342
0.000156516
0.000159889
0.000145783
0.000149709
0.0466004
0.000536097
0.000198693
0.000147204
0.0186256
0.0426343
0.00015623
0.000147387
0.000183225
0.00687495
0.000146296
0.000166476
0.000150988
0.0704748
0.000148611
0.000148253
0.000162437
0.072124
0.0754915
0.000191949
0.0568248
0.0780896
0.0385459
0.0144979
0.00016009
0.00015615
0.000147002
0.0467155
0.000148346
0.000216772
0.000163358
0.000147889
0.000147424
0.000187652
0.000149849
0.0129881
0.00018807
0.000162779
0.000191682
0.0183517
0.0262257
0.000146296
0.00310886
0.000156773
0.000154308
0.00016435
0.000151898
0.052827
0.0164666
0.000181865
0.00018168
0.000149671
0.00014726
0.000226437
0.000188363
0.000165064
0.000161155
0.000147895
0.0507709
0.000147641
0.000147152
0.000155845
0.0509194
0.000227095
0.000179957
0.000268728
0.0149169
0.00014814
0.000197002
0.0179301
0.000147092
0.000157506
0.0372206
0.000149472
0.000147909
0.000155769
0.0528114
0.0847545
0.018558
0.000179437
0.000147815
0.0525897
0.000148202
0.000182379
0.000148092
0.0473265
0.0019216
0.00014824
0.000181675
0.000146571
0.00015646
0.000163137
0.0133697
0.0558462
0.000148186
0.0221776
0.0126643
0.000167013
0.000270593
0.0293654
0.000145788
0.000234685
0.000157788
0.000190433
0.0820795
0.000145763
0.000147905