/*--------------------------------*- C++ -*----------------------------------*\
| =========                 |                                                 |
| \\      /  F ield         | OpenFOAM: The Open Source CFD Toolbox           |
|  \\    /   O peration     | Version:  v2012                                 |
|   \\  /    A nd           | Website:  www.openfoam.com                      |
|    \\/     M anipulation  |                                                 |
\*---------------------------------------------------------------------------*/
FoamFile
{
    version     2.0;
    format      ascii;
    class       volScalarField;
    location    "100";
    object      p;
}
// * * * * * * * * * * * * * * * * * * * * * * * * * * * * * * * * * * * * * //

dimensions      [0 2 -2 0 0 0 0];


internalField   nonuniform List<scalar> 
54593
(
0.0333988
-0.148499
-0.00303234
-0.0993957
-0.311291
-0.393075
-0.105306
-0.179481
-0.138139
-0.00530734
0.031763
-0.0740548
0.269842
-0.0242097
0.08492
0.128201
-0.178381
0.129904
-0.00488667
0.147641
-0.00305047
-0.0492069
-0.0070841
-0.197934
-0.0111471
-0.109238
0.0334893
-0.0868174
-0.376632
-0.00694267
-0.108849
-0.0891213
0.00411866
-0.385316
0.219523
0.0265046
-0.113705
-0.148773
-0.045932
-0.0508995
0.483782
-0.345113
-0.00636865
0.0348716
0.410057
0.0685071
-0.0949101
0.0552508
-0.0199141
-0.145166
0.00403442
-0.0204849
-0.0521682
0.406672
-0.156882
-0.00381755
-0.405669
-0.348839
-0.153592
0.301522
-0.00610364
0.0775059
-0.0245566
-0.0983043
0.0224652
0.125635
-0.166099
-0.043128
-0.370811
-0.372836
-0.0202011
0.216447
0.0221441
-0.234324
-0.0477373
-0.0825675
-0.0873939
0.0838736
-0.411792
0.210942
-0.00370441
-0.0968708
0.0347865
-0.13207
0.00639779
-0.233186
-0.229784
-0.127012
0.280239
0.0439351
-0.407712
-0.0611169
-0.202035
-0.256823
-0.104018
-0.340541
-0.0981721
-0.217763
0.0502704
-0.147326
-0.00394021
-0.33166
0.0721562
0.0196515
-0.0865322
-0.0272496
-0.0854768
-0.126457
-0.0813501
0.321775
-0.41172
0.0171469
0.044467
-0.108061
0.019842
-0.435009
-0.372351
-0.0982435
-0.385341
-0.199647
-0.0992068
0.0255556
-0.391867
-0.0725198
-0.00100421
0.444708
0.0706647
-0.000646156
-0.0930576
-0.219052
-0.0100618
0.0117811
-0.0844981
0.0266142
-0.0637167
0.131963
-0.0249485
-0.0980459
0.0189594
0.0317923
-0.392831
0.240548
-0.0834818
-0.35793
-0.0854753
-0.0513715
-0.164612
-0.109954
-0.164281
-0.0416676
0.31178
0.0368219
-0.117187
-0.255729
0.0139996
-0.389392
0.0308226
-0.388023
0.114771
0.0495462
-0.31892
0.102545
-0.394139
-0.352722
-0.0860223
-0.0383924
-0.00784345
-0.00544632
0.460325
0.00618671
-0.104563
0.192031
0.279132
0.0254633
-0.136504
0.003084
-0.413791
0.0773813
0.076312
0.477968
-0.292875
-0.0167199
-0.382077
-0.00217637
0.0228076
-0.0352542
-0.0396771
0.0377298
-0.0241927
-0.336015
0.0773484
-0.107106
-0.403809
0.02224
-0.3343
-0.164571
0.0318132
0.0532892
-0.1085
-0.40159
-0.0678142
0.446402
-0.128698
0.0712546
0.0366645
0.0355782
-0.0433847
0.0059573
-0.0463346
-0.00393586
0.031117
-0.0237187
-0.0165658
-0.0815527
-0.103234
-0.146462
-0.409769
-0.108124
-0.413274
0.0313165
-0.0537973
-0.398243
-0.34833
-0.0509905
0.370807
-0.111123
0.0126472
0.123877
-0.0017321
0.113003
0.0698896
-0.102326
-0.137221
0.0226931
0.058741
-0.0981082
-0.104894
0.02228
0.284744
0.0221917
-0.0501875
-0.0826554
-0.141912
-0.243249
-0.0510911
-0.047228
-0.10829
-0.101806
-0.00661383
-0.325577
-0.242312
-0.156038
-0.10086
0.00379982
-0.0473665
-0.00871187
-0.283197
0.00280177
-0.246744
-0.0466236
-0.0475056
-0.28627
0.0569613
-0.401335
-0.104285
-0.0214277
-0.156687
-0.00638308
0.0516876
-0.0383026
-0.216173
-0.217618
-0.0782417
0.0331085
-0.0472502
0.017097
0.0800101
-0.132345
-0.0134376
-0.0943682
-0.0114784
-0.0888974
-0.0697886
-0.335207
-0.107485
0.492824
-0.0487053
-0.0101992
-0.0878606
-0.320307
-0.15947
-0.0979554
0.00400577
0.0108988
-0.106923
0.0125085
-0.412632
-0.227866
0.0195326
-0.104036
-0.101374
-0.0440084
0.0310065
0.00676038
0.0209667
0.0154448
-0.145065
-0.0933488
-0.0411231
0.0301729
-0.102243
-0.0502802
-0.365265
0.0582656
0.500084
-0.157546
0.290134
-0.144144
-0.171647
-0.0244567
-0.173236
-0.00668484
-0.1258
-0.0854284
-0.0942606
-0.127302
0.0974743
-0.0209267
-0.291866
-0.0731447
0.0294931
-0.034278
0.0199202
0.102433
0.00680546
0.375352
-0.068258
-0.0988686
-0.117716
-0.079439
-0.0453942
-0.0536081
-0.0993368
0.00153056
0.0147462
-0.186628
-0.144647
-0.104003
-0.203198
-0.380348
-0.348465
0.0107107
-0.122287
-0.235753
0.0422496
-0.00587691
0.160588
0.0179671
0.0331883
0.0332828
-0.146509
-0.0541889
-0.0115058
-0.0928427
0.247747
0.056056
0.0182183
-0.354185
-0.0934128
0.0217967
-0.0576128
0.0214913
-0.00675619
-0.0243497
0.107593
-0.0020128
-0.0257095
-0.345715
-0.0781223
-0.416256
-0.349488
0.198
0.22426
-0.101711
-0.127787
-0.147114
-0.354049
0.0192678
-0.13861
0.353961
0.397909
-0.152238
-0.0674348
-0.00560616
-0.030026
-0.0974464
-0.34555
-0.138234
0.333046
-0.113596
0.00138315
-0.164492
-0.393477
-0.25838
-0.126505
0.0104174
-0.012769
0.225725
0.00665746
-0.21821
-0.102025
-0.0259459
0.031484
-0.11177
0.0162787
-0.370983
-0.104515
0.0357749
0.0154059
-0.0845748
0.266161
-0.105853
-0.132383
-0.153376
-0.153083
-0.363829
-0.0952064
-0.128532
-0.381975
-0.0292193
-0.275663
0.111298
0.497006
-0.143593
-0.119628
-0.0731046
0.0326804
-0.0967603
-0.040121
-0.0506742
-0.0920365
0.0215616
-0.00143075
0.0195326
-0.13938
-0.106257
0.0193029
0.0500556
-0.116799
-0.134775
-0.142891
-0.119017
0.245069
0.104043
-0.100507
0.306787
0.00346169
0.0293253
0.0697922
-0.197899
0.0196368
-0.00713498
0.465074
0.0357961
-0.0108648
-0.188314
-0.148549
0.0510081
-0.116379
-0.339955
-0.351805
-0.407515
0.0313193
-0.0137434
-0.0946535
0.0360039
0.00619197
-0.107259
-0.126774
0.0510583
-0.139817
0.035469
0.348808
-0.105177
0.0357221
-0.341828
-0.117642
0.31074
-0.0112709
-0.232756
0.212539
0.0231837
0.00774609
-0.0782575
-0.415569
-0.0294342
0.229161
0.0652387
-0.10221
0.0136546
-0.312586
-0.220352
-0.102048
0.366058
-0.00165914
0.0301131
0.0500476
0.26795
0.115934
0.000482304
0.0355686
-0.209617
-0.150967
0.0502479
0.150508
-0.0952837
0.288416
0.00308443
-0.410962
0.026248
-0.126427
-0.0325724
-0.0286034
0.0559103
0.0301144
-0.113625
-0.34483
-0.0958824
-0.401856
-0.0201749
-0.266067
0.000326698
0.234223
0.0161738
-0.0017185
-0.000921314
-0.371646
0.0354128
0.16257
-0.0878646
0.00299168
-0.0500601
-0.161439
-0.384223
0.0570562
-0.0927983
-0.282022
0.00024511
-0.116396
-0.0109371
-0.384372
-0.0949158
-0.148411
-0.371685
-0.239194
-0.215842
0.486163
-0.199372
-0.118896
-0.108341
0.0194639
0.0225096
-0.106347
-0.11647
-0.401789
-0.0295873
-0.277641
0.0496218
-0.0571216
-0.15051
0.00292736
-0.0320738
0.414965
0.0201169
-0.321807
-0.0936756
0.0980504
0.184891
-0.393664
0.322154
0.00190964
-0.00579574
-0.0732797
-0.00136465
-0.0102198
0.0138815
-0.117117
0.0436211
-0.102643
-0.0825403
-0.0734357
-0.332158
-0.129936
-0.131573
-0.00314739
-0.162226
-0.133074
-0.00237816
0.00716427
0.488934
-0.0989123
-0.0495953
0.0505496
-0.344562
-0.275788
0.306489
-0.105544
0.0920157
-0.0425997
-0.0289095
-0.124516
0.033513
0.00723682
0.217958
-0.170342
-0.095023
-0.0129763
-0.233659
-0.104287
0.0223706
-0.00596312
-0.197998
-0.12271
-0.126045
-0.0979601
0.230105
-0.125345
-0.324552
-0.342418
-0.161249
-0.292432
0.0260771
0.0190057
-0.161867
-0.00280602
-0.0920349
-0.0382598
-0.36945
0.042255
-0.164362
-0.210239
0.00525924
-0.212305
-0.00510346
-0.0502296
-0.148738
0.442681
-0.273867
0.144683
-0.107749
0.0020869
-0.0591722
-0.335357
-0.132314
0.00574893
-0.0162436
-0.271192
0.17353
-0.0296999
0.00384527
0.0511709
-0.00187676
-0.177969
0.323362
-0.0249027
-0.0307804
-0.404666
-0.11645
0.0182732
-0.00571828
0.0168634
-0.104741
-0.0905541
-0.00233618
-0.213124
-0.393227
-0.162545
0.0762489
0.00559999
0.024693
-0.0696653
-0.0279928
0.0230571
-0.226321
-0.395836
0.0381675
0.0311589
0.000565204
-0.104311
-0.41089
-0.0233132
0.0497051
-0.314273
0.0291618
0.00475111
0.423902
-0.0244416
0.378737
-0.399998
-0.0509104
0.0312534
0.0125279
-0.405383
0.297268
0.0351916
-0.331975
0.0140682
-0.406731
-0.145214
-0.0618995
0.027429
-0.024249
-0.0965117
0.00406447
0.114013
-0.388651
0.0608973
-0.0259711
0.22143
-0.310988
-0.0883291
-0.371298
0.0297244
-0.291699
-0.423924
-0.405424
0.00393495
-0.324147
0.00766202
0.0511058
-0.00396366
-0.00538387
-0.356172
-0.422513
-0.180831
0.10959
0.468278
0.0178006
0.0548031
0.00513294
0.0296079
-0.107482
-0.106454
-0.297754
0.0179769
-0.226802
0.271866
-0.364286
-0.102251
-0.355663
-0.102239
-0.117516
-0.0747017
-0.342677
-0.10405
-0.361547
0.0166841
-0.101389
-0.323382
-0.111747
-0.0961174
-0.0976274
-0.369049
-0.14162
-0.0931404
0.170508
0.340184
-0.0702222
-0.0628887
0.00665986
0.0312509
0.00502101
-0.0237356
-0.201875
-0.0406114
-0.0246447
-0.00559275
0.0342696
-0.344996
-0.0012307
-0.0304615
-0.108292
-0.400227
-0.025821
-0.102029
-0.393661
0.00430748
-0.405511
-0.214777
-0.0980658
-0.187519
0.00701401
0.0908487
-0.143498
0.0111763
-0.113018
-0.0957849
-0.0507881
-0.355727
-0.273327
-0.247894
0.0195802
-0.0045084
-0.274537
0.0248517
-0.299205
-0.00139822
-0.115429
0.271036
-0.171174
-0.360091
-0.290788
-0.104571
-0.235908
0.0308171
0.00708493
0.0310282
-0.192718
-0.0549254
-0.173051
-0.109721
-0.130453
-0.221608
-0.158381
-0.0927279
0.0930614
-0.294851
-0.0124353
0.0712292
0.057737
-0.361577
0.078679
0.0173898
-0.0358535
-0.00802672
-0.160718
0.0556479
0.00473788
0.00658207
-0.337637
-0.000511321
-0.00356076
-0.290352
-0.0014165
-0.0611341
-0.0287494
0.507492
-0.00475131
-0.300108
-0.130956
-0.341052
-0.00202537
-0.273109
-0.012412
0.398125
-0.0230008
0.505584
-0.287458
-0.211365
0.0190756
-0.350806
0.00501249
-0.0030684
-0.00594098
0.128155
-0.403097
-0.0426017
0.00366912
-0.380951
-0.0486774
-0.0903931
0.36697
-0.00278211
0.0291399
0.369223
-0.331786
-0.0142494
0.0344269
-0.0971695
-0.342131
-0.115848
-0.0137961
-0.297484
-0.374253
-0.329464
-0.00459854
-0.197625
0.00490073
-0.0165636
-0.0690139
-0.118029
-0.225231
-0.0164164
0.0802304
0.0295588
-0.0239522
-0.37902
-0.368283
-0.312662
0.17564
0.496629
-0.00141814
-0.314042
-0.455889
-0.157035
0.0205657
-0.232936
0.0162365
-0.0128777
0.0530194
0.0165312
-0.11267
0.00606328
-0.370232
-0.100279
0.514314
0.283232
0.0126341
-0.103235
0.419572
-0.247212
-0.0103418
-0.29612
-0.34406
0.0242513
-0.198864
0.0342928
-0.0729284
-0.0975516
-0.171306
0.0219836
-0.338268
0.0294756
-0.093423
0.0503064
-0.115926
0.17054
-0.0929387
-0.170504
0.333536
-0.0233456
-0.103662
-0.143593
-0.24892
-0.0981726
-0.095882
-0.103305
0.0348955
0.016762
-0.00083043
0.0146807
-0.13302
0.0226145
-0.023613
-0.418025
0.418528
0.269815
-0.392433
-0.0333819
-0.136225
-0.00160525
0.00485559
-0.121361
-0.0114696
0.190512
0.0775821
-0.112329
-0.117534
-0.0946178
-0.140364
0.46397
-0.34335
0.337652
-0.407955
0.0686922
-0.373866
-0.17553
-0.0338192
0.170597
0.345797
-0.331019
-0.366845
-0.397397
0.0221345
-0.0358879
-0.0938621
0.000411295
-0.0902403
-0.117667
-0.116257
-0.0930014
0.0176696
-0.228265
0.391297
-0.0121597
0.0452714
-0.0142531
-0.328017
0.301089
0.0656175
-0.422706
-0.116008
-0.00778753
-0.339766
-0.161401
-0.246276
0.383943
-0.238938
-0.119164
-0.18833
-0.409795
-0.10579
-0.00581162
-0.337276
0.0291248
0.00663658
-0.00408097
-0.298632
0.00580008
-0.155082
-0.0491046
-0.120217
0.346386
0.00882233
-0.0454674
-0.179664
-0.00707165
0.00941025
0.00682023
-0.0903171
-0.0338724
-0.342767
-0.0966137
0.0223922
0.160264
-0.160172
-0.156313
0.0703792
-0.102795
-0.106268
-0.411345
0.00255681
-0.0803282
-0.030376
-0.0134922
-0.235419
-0.0745716
-0.00803468
-0.0505975
-0.0601875
0.0167351
-0.107128
0.107377
-0.13529
0.0401569
-0.00975172
-0.0336795
0.00284071
-0.0836079
-0.257238
0.016064
0.034682
0.00284901
-0.402517
-0.104756
-0.0981477
-0.0281332
-0.290963
-0.369236
-0.171881
0.0785436
-0.0924376
0.0293031
-0.267564
-0.220528
-0.134905
-0.0982303
-0.142711
0.305737
-0.11257
-0.179358
0.103782
-0.0515457
0.00386328
-0.105068
-0.0235202
-0.185936
-0.113887
0.0307988
-0.117264
-0.0177412
-0.290743
-0.0136808
-0.246276
0.0920476
-0.31564
0.0308412
-0.214587
0.0933432
-0.116883
0.0330409
0.0930004
-0.217625
-0.157988
0.201689
-0.0898045
0.0167499
-0.0379927
-0.126147
-0.383434
-0.407879
0.0349464
-0.102161
-0.0738846
-0.108477
0.0330405
-0.107611
0.0233539
0.0075295
0.0079991
0.0235315
-0.404441
0.0218036
-0.0128904
0.0170416
-0.027124
0.0151647
0.0795616
-0.0956329
-0.0370563
-0.104852
-0.376503
-0.0098866
-0.0911292
-3.55166e-05
0.0812262
-0.0261502
-0.286751
-0.337192
0.0432416
-0.0179231
0.161348
-0.0953791
-0.342835
0.0344877
-0.00683724
-0.0912757
0.00260988
-0.29957
-0.423014
0.0219174
0.15202
-0.103715
0.403406
0.0142189
0.447624
-0.133987
0.0291001
-0.0295708
-0.031965
-0.222927
-0.350168
-0.0113521
-0.147766
-0.410315
-0.388691
-0.00568885
-0.193664
0.0340922
-0.0083959
-0.145175
0.0789076
-0.0295842
0.0306063
-0.406848
-0.24354
-0.105929
-0.121642
-0.0910011
0.0301957
-0.174131
-0.16896
0.0165911
-0.106734
-0.40256
-0.074944
0.0679595
-0.0486691
-0.0164281
-0.0925482
0.00781453
0.02174
0.0356381
-0.103052
0.1939
0.0181629
0.234042
-0.408736
-0.0137143
-0.108311
-0.0500582
-0.12153
-0.109418
-0.167684
0.00909792
-0.0947214
-0.0082148
-0.0138006
0.0398193
0.088821
0.00444082
-0.0979095
0.0289226
-0.0157364
-0.400056
0.031158
0.00260896
-0.0932448
-0.0170056
-0.0250686
0.00425256
0.443825
-0.110417
-0.388735
-0.365281
-0.214996
-0.405319
0.0188198
-0.0514298
0.236223
0.0592411
-0.185481
-0.385776
0.129629
-0.235143
-0.135229
0.00742991
-0.118559
0.487718
-0.025846
-0.0556888
-0.00389347
0.00382994
0.0535968
-0.124326
-0.106187
-0.428484
-0.107778
0.00914335
0.337915
-0.0896514
0.00641458
-0.219707
-0.0138432
5.48419e-05
0.403019
0.00248805
-0.119708
-0.0164033
-0.133734
-0.408435
-0.211967
0.160456
0.172958
-0.134937
-0.248459
0.166051
-0.104972
0.144366
-0.0926018
-0.362709
-0.135037
0.00580869
-0.212388
-0.332142
-0.0137198
0.0112385
0.0365924
-0.0750702
-0.191832
-0.118064
0.0315308
-0.335941
-0.0275344
0.0503066
0.0179522
0.056694
-0.00325639
0.0246431
-0.205971
-0.390329
0.0443362
0.50111
-0.0510251
-0.0306078
-0.273495
0.222823
-0.260956
-0.123661
-0.332267
0.275597
-0.395081
-0.299413
-0.0501221
-0.0909666
-0.105602
-0.160893
-0.29528
-0.0936542
-0.255744
0.440706
-0.109867
0.0417887
-0.105401
0.0127876
0.0304117
0.166986
-0.214368
-0.030126
0.350201
-0.144301
0.0189559
0.0248534
-0.382243
0.0185056
-0.156024
0.176388
-0.00949129
-0.389273
0.120179
0.00348727
-0.143524
-0.389566
-0.120799
-0.399725
-0.30766
0.0129235
0.0149609
-0.368742
0.251712
-0.219835
-0.0129311
-0.0909743
-0.00293492
-0.0171228
0.513929
-0.137293
0.0353103
-0.373255
-0.00900626
-0.0932779
0.121042
-0.0978545
-0.289207
0.035064
0.145329
-0.0261785
-0.00503094
-0.392969
0.0177366
0.273369
-0.386024
0.0109216
-0.0255386
-0.367185
-0.370398
-0.0425244
-0.104747
0.0339164
0.0364787
0.0281568
-0.140777
0.117853
-0.321059
-0.0986695
0.382907
-0.0664995
-0.0129536
-0.154943
-0.153547
0.0252936
-0.415526
-0.303319
-0.425193
-0.0600879
0.0336628
-0.386882
-0.0981373
-0.112663
0.0168702
0.00610033
-0.0746229
0.0264347
-0.271238
0.00101194
-0.0106302
-0.0559226
-0.0267854
0.0056621
0.00896467
0.0456644
-0.423437
0.0398969
-0.0178073
-0.146612
-0.17584
0.031365
-0.00907022
-0.264549
-0.0929082
-0.135369
-0.0318163
-0.337965
-0.00406667
0.0059487
-0.0302091
0.509812
0.474243
-0.0851417
-0.0984063
-0.183397
-0.145257
-0.0619494
0.190582
0.0281266
-0.245438
0.0663276
-0.272799
0.119458
0.190382
-0.355994
-0.176772
0.0145114
0.220482
0.404903
0.0261405
0.408312
-0.325383
0.00591234
-0.121888
0.515555
-0.00310561
0.0329789
0.0052374
0.00190138
-0.399272
0.353199
0.348243
-0.108593
-0.00952938
-0.105198
-0.0215378
-0.0505398
0.00172075
-0.128854
-0.298589
-0.376028
0.35439
-0.00337384
0.275868
-0.0228305
-0.0110197
-0.034949
0.0260059
-0.103472
-0.0435267
-0.361541
-0.313487
-0.143702
0.12385
0.0271974
0.0061254
0.0818146
-0.0338151
-0.182119
-0.262474
0.0111497
-0.166182
-0.359838
0.147649
0.0826721
-0.0811711
-0.329264
-0.0177316
-0.223314
0.0072015
0.0399928
-0.0609337
0.0257361
-0.153816
0.0427187
-0.374979
-0.00461507
0.0394266
-0.0209319
-0.0459315
-0.249188
-0.00378482
0.310702
-0.0130777
-0.386377
0.0324861
-0.101547
0.12391
0.254407
-0.0370679
0.0156369
0.508694
-0.109845
0.0252974
-0.19984
-0.0800298
-0.178042
-0.087002
-0.40698
0.200644
-0.21796
0.123007
0.0371661
0.106735
-0.0480403
-0.0982025
-0.115967
-0.0888854
0.0256093
0.0256827
0.0163936
-0.114491
-0.342519
0.0257428
-0.42112
-0.186212
-0.176239
-0.423581
-0.408914
0.0447348
-0.110754
-0.417882
0.104069
-0.253141
-0.385038
-0.140802
0.0265914
0.0886955
0.015396
0.010682
-0.129831
0.0204776
-0.1384
-0.0990358
-0.212529
-0.0112425
0.0216832
0.00844827
-0.215968
-0.40749
-0.142254
0.0695297
-0.0349565
-0.116716
-0.135869
-0.290688
0.209632
0.510296
-0.092251
-0.0928174
0.027154
-0.00157046
-0.331004
-0.0258634
0.011376
-0.153235
0.0155992
-0.159503
-0.0078142
-0.344358
0.00330842
-0.0147278
-0.128609
0.00349456
-0.415134
0.145283
-0.0935025
0.0122548
0.00364845
0.0201738
0.0720896
-0.227703
-0.0180132
0.0112288
0.000101807
-0.237945
-0.179617
-0.0804115
-0.0146605
-0.0953734
-0.105707
-0.155175
0.332409
0.0430122
0.00178141
0.0653116
0.0107684
-0.0528152
-0.0346812
0.270448
-0.14306
-0.130536
-0.120787
-0.13664
0.0432891
0.146003
-0.383191
0.0344278
0.00855626
0.00119187
0.0349225
-0.365615
-0.154816
-0.328004
-0.312628
-0.0826747
-0.235441
0.108691
0.274372
0.142143
0.04993
-0.00451631
-0.0609863
-0.0882073
0.014268
-0.150148
-0.168985
0.487293
0.00425716
-0.0492182
-0.0921367
-0.408537
-0.410119
0.0190778
-0.00986711
-0.115821
0.0298113
-0.108829
-0.417488
-0.421405
-0.111188
-0.0992421
-0.00763353
-0.115349
-0.373351
-0.107828
0.0323481
0.0753137
-0.249568
0.449322
-0.110472
-0.328235
-0.104413
-0.182573
-0.0160806
-0.016504
-0.298842
-0.00449095
-0.0422027
-0.266809
-0.0846548
0.514253
-0.178153
0.00425702
-0.00246642
-0.0343881
-0.0804992
-0.139026
-0.093292
-0.375098
0.000585677
-0.0687153
-0.101701
-0.0439455
-0.0478937
0.0165343
-0.11987
0.33379
-0.0153279
-0.174446
0.00538817
-0.0279517
0.0321698
0.0559706
0.395183
-0.372067
0.0124016
-0.187769
-0.291081
0.101959
0.0265741
-0.0928626
-0.00562231
-0.0133104
-0.0563829
-0.0137126
-0.406511
-0.112069
0.0580841
-0.361044
0.0493527
-0.0939749
-0.0154316
0.0535087
-0.213904
-0.0791085
-0.0513352
-0.123737
0.0018344
-0.421996
-0.0113056
-0.143372
-0.11199
-0.401938
-0.406755
-0.0444845
-0.0828414
-0.0104647
-0.0871709
-0.282973
-0.0582271
0.00439285
-0.105043
-0.357322
-0.382015
-0.107521
0.0553357
-0.10617
-0.242497
0.0263519
-0.109938
-0.163207
-0.349049
-0.0939029
-0.0635263
-0.111005
0.0085389
-0.0553298
-0.138347
-0.00670331
-0.00239102
0.0123501
-0.0889338
0.520253
-0.18738
0.0173965
0.0573898
-0.00583359
0.00465434
-0.0665762
-0.161761
0.00341744
-0.407057
-0.10456
-0.0290709
0.00325918
-0.417037
-0.00812206
-0.00495391
0.0544818
-0.0234045
-0.226858
-0.363637
0.0650689
-0.188478
0.0482714
0.0556539
-0.0982752
0.264784
0.214713
-0.396108
-0.104648
-0.410031
-0.160885
-0.0593086
-0.108531
0.220294
-0.08024
-0.407671
0.0010072
0.00790901
-0.399345
-0.11994
-0.254627
0.0559483
0.476785
0.010433
0.0669901
0.0773634
-0.0978491
-0.0557718
-0.168743
-0.0629205
-0.224121
-0.0157337
-0.0233956
-0.0985978
0.0413037
0.0336945
0.16291
-0.104551
-0.0742562
-0.186721
-0.0519897
-0.143942
-0.0295582
0.0319094
-0.0961337
-0.0194666
-0.422851
-0.0462449
0.0195809
-0.0943203
0.0593837
-0.101032
-0.171969
0.469175
0.0717259
-0.0255353
-0.368423
-0.0865573
-0.356112
-0.285947
-0.357727
-0.15061
0.459631
-0.129929
0.0488391
-0.0747695
-0.389795
-0.145775
0.0485579
-0.0136011
0.469416
-0.0525285
-0.0356585
0.458195
-0.0645103
-0.0257384
-0.339856
-0.055324
-0.027309
-0.133239
-0.117204
-9.05996e-05
-0.0428674
-0.09218
0.0792108
-0.266984
-0.347683
-0.101869
-0.00467301
0.0487526
0.330929
-0.247184
-0.0938421
-0.209553
-0.115135
-0.287181
0.0407833
-0.262541
-0.0127692
-0.180702
0.0195458
-0.357771
-0.207422
-0.40732
-0.100726
-0.229009
0.456731
-0.254258
0.0258778
-0.341893
-0.120094
0.0218348
-0.189618
0.51288
0.0201989
-0.118704
0.0258655
-0.0265928
-0.355999
0.0387093
-0.25133
0.00965313
-0.0833949
-0.0818579
-0.2421
-0.0159294
-0.325622
-0.14327
-0.248786
0.0172125
0.0467752
0.0104239
-0.194978
0.0262856
0.0744786
-0.0401794
0.036044
0.0181339
-0.092441
0.0669736
-0.380161
-0.253303
-0.102475
-0.00579393
-0.342023
-0.0146544
0.0297671
0.0296722
0.0125851
-0.160061
-0.0320585
-0.0280269
0.0319424
0.0253283
-0.0747558
-0.407402
0.0295899
0.0709572
0.336886
-0.194944
-0.337599
-0.380111
-0.224634
0.00346548
-0.0867823
0.170132
0.00856299
0.384095
0.0167838
-0.239332
0.0179432
-0.116832
-0.235666
-0.196165
-0.031653
0.00200555
-0.0524941
-0.379355
-0.10656
-0.0205409
-0.108187
0.0536271
0.290196
-0.0198534
-0.401674
-0.341087
0.0529162
-0.0198085
0.141434
-0.20532
-0.0452647
-0.0652835
-0.356964
-0.0927443
-0.0255731
-0.391523
0.0969844
-0.0564916
-0.101031
-0.34057
-0.151654
-0.0965517
-0.036532
-0.0305065
-0.403242
-0.342695
-0.256148
-0.418697
-0.0685203
-0.381965
-0.197304
-0.0975532
-0.242957
-0.0968628
-0.38913
0.372098
-0.0115216
-0.102371
0.02964
0.0794667
0.0777447
-0.361567
-0.138685
0.0136745
0.147967
-0.116677
-0.372829
-0.0346095
-0.111699
-0.0195378
-0.366498
-0.0970602
-0.276058
-0.108976
-0.0157725
-0.421224
-0.0232617
-0.350467
-0.0495527
0.0543161
-0.340071
-0.0254236
-0.0213096
0.0926893
-0.0343346
-0.0961692
-0.0443241
-0.421089
-0.133292
-0.120773
0.0021343
-0.103544
-0.00871438
-0.0916776
-0.0970118
0.0791696
0.0123587
-0.227702
-0.374512
-0.00852759
-0.0668734
0.0263865
0.00694316
-0.127687
-0.179486
-0.235113
-0.328318
-0.361443
-0.229893
0.0363084
0.0391455
-0.0241463
0.0856977
-0.0820596
-0.213939
0.512336
-0.0144423
-0.357904
-0.117851
0.183511
-0.325303
-0.0955318
-0.3245
-0.0149817
-0.0949454
0.0169322
-0.0115016
0.0164704
-0.00670922
-0.385279
-0.137491
-0.340014
0.0162674
0.0364237
-0.11978
-0.408897
-0.186161
0.0260798
-0.224024
-0.312276
-0.0751892
-0.0980708
-0.248206
0.0992857
-0.0454728
-0.0794378
0.0120368
-0.00627311
0.117229
-0.287983
0.0358035
0.00937205
-0.100456
-0.111909
-0.0660763
-0.0530029
-0.20631
0.454427
0.0123973
-0.187362
-0.411563
-0.0214847
-0.00181028
0.206217
0.0112107
-0.0275733
-0.250879
-0.207034
-0.385759
-0.209518
0.0975269
0.192309
-0.00789591
-0.333676
0.0964748
-0.00598975
0.0790712
-0.00722111
-0.293456
-0.0356804
-0.402828
0.00279138
-0.0270251
-0.225068
-0.00873599
-0.0941578
0.0981025
-0.416375
0.424082
-0.340919
-0.109417
-0.298101
0.0108145
0.126002
-0.0973915
-0.232885
-0.123244
0.505854
0.00825193
0.00971349
0.00463775
-0.0974503
-0.00175623
-0.205549
-0.00488643
-0.1025
0.0177388
-0.323207
-0.106739
-0.260061
-0.137514
0.269698
0.0252571
0.272884
-0.312607
0.00468489
0.0296867
-0.16666
-0.381009
-0.279486
-0.311778
-0.00731307
-0.357054
-0.38333
-0.0432119
-0.0990231
0.0361406
-0.0150857
-0.00893606
-0.0799381
-0.0068571
-0.0879376
-0.0963316
-0.195233
-0.0815368
-0.390093
0.00438056
0.490109
-0.0263229
0.0169707
-0.105565
-0.396746
-0.308173
-0.00687794
-0.102465
-0.318477
-0.149194
-0.0618464
0.016449
0.105748
0.0590102
-0.0171084
-0.0573715
0.00994227
0.254637
0.0126429
-0.357305
-0.0334046
-0.0990273
-0.0932805
-0.1051
-0.146358
-0.00455971
0.0206585
-0.401567
0.0125878
-0.0467695
-0.0202706
-0.402643
-0.414524
0.461286
0.0229939
-0.41967
-0.135837
-0.105331
-0.00657966
-0.200001
-0.0095864
0.252639
-0.201725
-0.0936719
-0.00717067
-0.110359
-0.00894186
-0.0489305
-0.0131755
0.0174871
0.0227502
-0.309641
-0.135302
0.0225871
-0.0229046
-0.333454
0.0165004
0.00971093
0.0281128
0.511773
-0.169229
-0.105907
0.104035
0.0158609
-0.135245
0.0396494
-0.42408
-0.0929922
0.521422
-0.00799576
0.00457595
-0.0280993
-0.155722
-0.0255916
-0.170686
-0.373651
-0.00629752
0.114384
-0.00933984
0.180784
0.473301
-0.0760435
0.335811
0.412908
-0.0466171
-0.163418
-0.281166
-0.0156661
0.0169397
0.180447
0.0765203
0.0330437
-0.0612001
-0.343796
-0.110937
0.00520462
-0.00902603
-0.321736
-0.11775
0.0703982
0.000906251
-0.0527017
0.295731
0.46668
-0.325525
-0.361223
-0.0175207
0.410589
0.00740831
-0.0531956
-0.0705688
-0.0616221
-0.145762
-0.0549284
-0.348402
-0.0878513
-0.10402
0.000779988
0.000745177
0.0468944
-0.0151384
-0.099612
-0.226691
-0.422266
0.00732893
-0.0789987
-0.139087
-0.030908
-0.190095
-0.0440029
-0.336754
0.0276992
-0.178059
-0.264317
-0.0415254
-0.11669
-0.0168432
-0.127919
0.293193
-0.0307085
-0.0382059
-0.0822592
-0.015055
0.12471
-0.0760302
-0.00604999
-0.177203
0.00507034
0.0151547
0.511428
-0.422382
0.0124705
-0.104294
-0.414307
-0.391828
-0.128531
-0.175397
0.0392869
-0.0932709
-0.215649
-0.0624749
-0.1077
-0.419187
-0.39934
0.394406
-0.399596
-0.0170659
-0.00404862
-0.00466788
-0.143141
-0.0219099
0.0172277
-0.166068
-0.0963319
-0.309845
-0.343381
-0.181634
0.00577144
-0.0856203
-0.0980336
-0.235636
-0.0523151
-0.382826
-0.0063453
0.20865
-0.410378
0.329338
-0.325
-0.123309
0.0260193
-0.320575
0.0274864
-0.226903
0.0324337
0.350046
-0.34586
0.0108111
-0.118101
-0.138148
0.0202692
0.0374075
0.00166219
-0.00350745
-0.0976088
-0.348497
-0.0372405
-0.010694
0.0195066
-0.181016
-0.111503
0.00491796
0.00420212
0.00341852
0.00887445
-0.339071
0.174571
-0.291556
-0.0754551
0.204296
0.0127506
-0.0709248
0.00478536
-0.113083
0.0329702
-0.154489
-0.177757
0.0170078
-0.413444
0.00969453
0.00574115
-0.178442
0.268237
-0.291992
0.00737835
0.0375069
-0.0381585
0.00220502
-0.0887983
0.00910551
-0.112151
0.109959
-0.000424793
-0.272654
-0.376793
0.435525
0.0758585
-0.0114175
0.461962
-0.0956705
-0.417068
0.249683
0.00551977
0.0565837
-0.196959
0.094397
0.427654
-0.260651
0.0092655
-0.329994
-0.107106
-0.361036
0.0432567
-0.0280665
-0.211278
0.0161874
-0.0708599
0.0277672
0.022844
0.0249678
-0.258431
0.143413
-0.00543211
-0.171062
-0.418904
0.0537263
0.138023
-0.00713789
0.00626816
-0.329406
0.463353
-0.143494
-0.0258423
-0.26142
-0.27577
0.0483584
0.00361667
-0.00272517
-0.0982168
-0.00427768
-0.0420354
0.0626255
-0.362468
0.0279568
0.0434041
0.222577
-0.363931
-0.364427
-0.164992
-0.270532
-0.221315
-0.419984
-0.108172
0.036804
0.0174312
0.00533721
-0.416478
0.0167527
-0.17328
-0.0990833
0.0303037
0.00855418
-0.178089
0.019332
-0.0924785
-0.215759
-0.0956065
-0.206077
-0.116098
-0.194745
-0.00353497
-0.422516
0.143744
-0.0618368
-0.102939
0.0735013
-0.413152
-0.329181
-0.14467
-0.109291
-0.00187863
0.00409853
-0.288347
-0.154327
-0.0922648
0.0763943
0.0158003
-0.111981
0.0228052
-0.0246409
0.0770462
-0.109954
-0.118361
-0.118925
-0.182264
-0.0963856
0.00907748
-0.239361
-0.061317
0.00782571
-0.0751732
-0.27372
-0.0288747
0.0310635
-0.0682638
-0.0977151
-0.302457
-0.0633397
-0.0897673
0.0158085
-0.106139
-0.0167259
-0.0992271
0.0334763
-0.308479
-0.262685
0.0313561
-0.142245
-0.0015013
-0.0673819
0.128477
-0.397217
-0.0942486
0.0247846
-0.227489
-0.403837
0.0440344
-0.254608
-0.395138
-0.00891129
0.426785
0.0960497
-0.223889
-0.343391
-0.0089702
0.0301386
-0.00235082
-0.0483587
-0.0673986
0.0217613
-0.110749
-0.414561
-0.189522
0.00372924
0.0498631
0.0188955
0.0295777
-0.118169
0.0124973
-0.421734
-0.099427
0.00488822
-0.309906
-0.0665166
-0.137504
-0.101742
-0.0994432
-0.0318164
-0.00210089
0.0688182
0.00358971
0.00985816
-0.337039
0.00870946
0.129777
-0.0935237
-0.156699
-0.173355
-0.18076
0.13045
-0.0101485
-0.0551089
-0.0960818
0.0209726
-0.112721
0.0185918
0.0307329
0.0490215
0.00753026
0.00559139
-0.076604
0.0223916
-0.319676
0.0494978
-0.36394
-0.226848
0.0313524
-0.249194
0.0243158
-0.0887426
-0.121108
-0.367991
-0.0638514
-0.104096
-0.101505
-0.283283
-0.0928765
-0.163447
-0.10444
-0.00552585
0.0150124
-0.0120948
-0.213114
0.124697
-0.203266
-0.0816123
-0.0742932
-0.00338485
0.0455629
0.0245475
0.0241151
0.109282
-0.0687458
0.126306
0.103117
0.032641
0.0370162
-0.0390366
-0.237088
-0.00365587
-0.0476952
-0.0860967
-0.100653
-0.31344
0.405903
-0.0254078
0.325893
-0.0153963
-0.0140585
0.232805
-0.207619
0.00505543
-0.29427
-0.0377136
-0.246827
0.0245512
-0.0953676
-0.105717
-0.029087
-0.00998452
-0.136987
0.0303997
0.0389612
0.00360166
-0.355345
-0.11775
0.288219
-0.175462
0.0286819
-0.172377
-0.0925611
0.173487
-0.360227
0.30492
0.11267
-0.239109
0.0172229
-0.0342639
0.0166174
-0.0834927
-0.424759
-0.00956246
-0.0182681
-0.0984675
-0.0815013
-0.0516365
-0.424038
-0.147807
-0.0777152
0.13636
-0.0104818
-0.195942
0.0256008
-0.235472
-0.0519371
-0.013952
-0.0252053
-0.279922
-0.1249
-0.00282223
0.00223617
-0.0429143
0.409907
-0.191212
-0.00275217
-0.0153166
-0.0134431
-0.13057
-0.272178
-0.407722
-0.0128221
0.0348334
-0.136311
-0.0174295
-0.245496
-0.194856
-0.197134
-0.0932224
-0.0382319
0.026421
0.0315362
0.494328
0.0266789
-0.255715
-0.0929215
0.0512139
0.0152547
-0.129937
-0.0437234
-0.0864345
-0.0983708
-0.115039
-0.137703
0.0303784
-0.00211033
-0.404401
0.320963
-0.418898
-0.00937515
-0.322434
-0.00248448
-0.0404842
0.0211675
0.026515
0.0267039
0.0252101
-0.218996
-0.0138033
-0.120848
-0.0650635
0.0444491
-0.0936517
0.00579588
-0.095283
-0.224988
0.0252267
-0.383868
0.00600406
-0.3966
0.152782
-0.179828
-0.310624
0.0265164
-0.375037
-0.0772603
-0.0149526
-0.219235
0.00735039
-0.0990932
-0.020798
0.0398577
-0.164819
0.00440489
0.115914
-0.342198
-0.250514
0.0305927
-0.100647
-0.277381
-0.0419503
-0.00623626
-0.0780721
0.502353
-0.0391428
-0.126455
0.0413127
-0.119218
-0.119872
-0.106314
-0.342422
-0.208907
-0.0144403
0.0163033
0.1714
-0.0996153
-0.100495
-0.309919
0.0428617
-0.344727
0.012704
0.047749
0.0222307
-0.185629
0.0111802
0.0244067
-0.302105
-0.13823
-0.072969
-0.246526
0.0264834
-0.263472
-0.00638991
-0.0849032
0.263326
-0.0212831
-0.0964152
-0.316427
0.448023
0.0461211
-0.304127
-0.00342633
0.0152049
-0.0150238
0.196537
-0.307688
0.00765052
0.220548
-0.164652
0.494779
-0.281195
-0.102274
0.190933
-0.0698855
-0.0965617
0.0265456
0.00464774
-0.0133556
0.120492
-0.305946
-0.135248
-0.0982591
0.120975
-0.318938
0.00457702
0.010834
0.0068078
-0.166347
-0.12275
-0.137067
-0.124528
0.116811
0.0384548
-0.0924539
0.144111
-0.113513
-0.389006
0.040386
0.0176809
-0.142152
-0.103244
-0.0195271
-0.422258
0.00385993
0.0326574