/*--------------------------------*- C++ -*----------------------------------*\
| =========                 |                                                 |
| \\      /  F ield         | OpenFOAM: The Open Source CFD Toolbox           |
|  \\    /   O peration     | Version:  v2012                                 |
|   \\  /    A nd           | Website:  www.openfoam.com                      |
|    \\/     M anipulation  |                                                 |
\*---------------------------------------------------------------------------*/
FoamFile
{
    version     2.0;
    format      ascii;
    class       surfaceScalarField;
    location    "100";
    object      phi;
}
// * * * * * * * * * * * * * * * * * * * * * * * * * * * * * * * * * * * * * //

dimensions      [0 3 -1 0 0 0 0];
oriented        oriented;


internalField   nonuniform List<scalar> 
81198
(
-0.140911
0.00594151
0.134969
-0.0981488
0.0485595
0.0495893
0.0812068
-0.250439
0.169232
0.0100115
-0.00596923
-0.00404224
0.0034586
-0.00854159
0.005083
-0.00196935
0.00186894
0.000100418
-0.00204161
0.00208198
-4.03781e-05
0.0959388
-0.0587396
-0.0371993
0.0867462
-0.0632537
-0.0234925
-0.226243
0.0615754
0.164667
-0.0461284
0.0870554
-0.040927
-1.17567e-05
-0.00112513
0.00113689
-0.0143187
0.0213542
-0.00703546
0.238124
-0.161534
-0.0765897
0.0533006
-0.0160636
-0.0372369
-0.0825326
0.0626446
0.019888
0.0523853
0.0435536
0.0323782
-0.0575131
0.0251349
-0.0578156
-0.168427
0.0493123
-0.0741182
0.0248059
0.243678
-0.162471
0.146863
-0.0882331
-0.0586304
-0.0891064
0.178033
-0.0889264
0.00442963
-3.03314e-05
-0.0043993
0.129029
-0.282176
0.153147
0.0759506
-0.0284859
-0.0474647
0.0537078
-0.194618
0.0507873
-0.0848277
0.0340404
0.00301419
-0.00449648
0.00148229
0.0809518
-0.170058
0.0435714
0.0323792
0.0236642
-0.0516382
0.027974
-0.0985368
0.245692
-0.147155
-0.00164979
-0.00397012
0.00561991
0.00724377
-0.0388642
0.0316204
0.274995
-0.116205
-0.158789
-0.0683139
0.00300846
0.0653054
-0.05371
-0.0444388
0.154968
-0.102454
-0.0525142
0.0531732
0.0936902
-0.00234421
-0.00606358
0.00840779
-0.0702945
0.0419369
0.0283576
-0.302294
0.112507
0.189787
-0.148057
0.172232
-0.0241754
0.0137214
0.002192
-0.0159134
0.0835194
0.0331282
-0.116648
0.0430549
-0.0707425
0.0276876
-0.0200158
-0.0324243
0.0524401
0.0883921
-0.227903
0.139511
0.0869943
-0.0866668
-0.000327509
-0.255766
0.15723
-0.0651145
0.206322
-0.141207
0.0759119
0.0515231
-0.127435
-0.00435629
0.0180776
-0.0869586
0.0477174
0.0392413
-0.157481
0.34934
-0.191858
0.0155674
0.00730307
-0.0228705
-0.0638118
0.0286531
0.0351587
0.0686382
-0.0323156
-0.0363227
-0.0252787
-0.00609259
0.0313713
-0.202006
-0.100288
0.0319651
0.0776274
-0.109592
0.155901
0.0822232
-0.0050344
0.00899636
-0.00396196
0.150177
0.0522648
-0.202442
-0.0603231
-0.0222095
0.0106787
-0.0171306
0.00645195
0.0506572
-0.0394596
-0.0111976
0.00706514
-0.00600509
-0.00106006
-0.00801029
0.00138262
0.00662767
-0.219312
0.154198
-0.0350955
0.0423392
0.235516
-0.0853383
0.0256695
-0.0415248
0.0158553
-0.0863347
-0.047781
0.134116
0.0556548
0.0571578
-0.112813
0.114179
-0.0444284
-0.0697509
-0.00885907
-0.0226541
0.0315132
-0.000110071
0.00280504
-0.00269497
0.0241391
-0.00638488
-0.0177542
0.342922
-0.229055
-0.113867
-0.00473772
0.00968411
-0.00494639
-0.0105389
-0.137518
0.0217513
-0.0277108
0.00595951
-0.0628169
0.121669
-0.0588522
0.0401859
-0.0145164
0.00561098
-0.00392643
-0.00168455
-0.0157697
0.0622225
-0.0464528
0.0321826
-0.0166349
-0.0155477
0.169952
-0.087898
-0.0820536
-0.00536318
0.00536318
0.118354
-0.0706607
-0.0476934
0.0325919
-0.0713777
0.0387858
0.0794368
-0.0249164
-0.0545203
0.0592194
-0.0913942
0.0321748
0.0023953
-0.00348083
0.00108553
0.0242274
0.011401
-0.0356284
0.0449122
0.0147915
-0.0597036
0.0911874
0.0386085
-0.129796
0.079435
0.00755927
-0.0459799
-0.101779
0.147759
-0.00216459
-0.00252619
0.00469078
-0.12588
0.0533358
0.0725446
0.141038
0.0950843
-0.236123
0.0544176
-0.0307533
0.0380557
-0.0746144
0.0365587
0.0658391
-0.00689779
-0.0589413
-0.0602645
0.0444948
-0.0597481
0.115403
0.00246629
0.0244684
-0.0269347
-0.0188174
0.00993902
0.00887842
0.132915
0.109243
-0.242158
0.0943831
0.0755684
-0.0653682
0.0418728
0.0234955
-0.110897
-0.0385218
0.149418
0.00119567
-0.00540272
0.00420705
-0.00595475
-0.00205554
-0.00798622
0.00295182
0.0044146
-0.00606438
0.070373
-0.0377811
0.00641632
0.00258004
-0.196109
-0.0771284
0.273238
-0.00884232
0.00941525
0.0174087
0.078438
-0.0958467
-0.249246
0.16667
0.0825764
-0.012795
0.00270621
0.0100888
-0.0578333
-0.0439678
0.101801
-0.128273
-0.120973
0.00566469
-0.00385388
-0.0018108
-0.0163728
0.0221336
-0.00576077
0.203451
-0.318795
0.115344
0.16885
-0.106613
-0.0622372
-0.0527995
0.112093
-0.0592933
0.158715
0.116279
0.0255691
0.0927851
-0.0258635
0.0206992
0.00516436
0.173202
0.027223
-0.200425
-0.0202072
0.0344972
-0.01429
0.116141
0.104406
-0.220547
-0.205553
0.124962
0.080591
0.0106471
-0.00277397
-0.00787317
0.0145249
-0.0355507
0.0210258
-0.114334
0.0615343
0.033281
0.0200837
-0.0533647
0.109652
-0.0483683
-0.0612839
0.0143362
0.036321
0.000964014
-0.0011661
0.000202087
0.00218728
-0.0705012
0.0216877
-0.0380276
0.0163399
0.0679893
0.0882024
-0.156192
0.0201279
0.014899
-0.0350269
0.0540477
-0.138258
0.0842102
0.0332551
0.038589
-0.071844
0.048036
0.0314008
-0.084882
0.163719
-0.0788371
0.0325933
-0.0290139
-0.00357942
-0.106469
0.0603406
0.0224538
0.0101394
-0.0169718
0.0414034
-0.0244315
0.128142
0.0293802
-0.157522
-0.0239933
-0.0348949
0.0588882
-0.0285966
0.0916792
-0.0630826
0.0067712
0.00387594
9.90021e-05
0.00194405
-0.00204305
0.0918703
-0.041083
-0.199992
0.119876
0.0801164
0.33292
-0.189022
-0.143897
0.28035
-0.164235
-0.116115
-0.0107624
0.00989831
0.000864077
0.177179
0.0982094
-0.275388
-0.0560672
0.0553982
0.000668917
-0.0096511
-0.0162124
0.0167127
0.117218
-0.313327
-0.0655596
0.0940443
-0.0284846
0.249105
-0.159908
-0.0891968
0.00803023
-0.0203137
0.0122835
0.0743652
-0.116121
0.0417563
0.0677754
0.0408295
-0.108605
0.0074026
-0.00974681
-0.00135864
0.00433404
-0.0029754
-0.0882668
-0.147916
-0.00439612
0.00262221
0.00177391
0.112157
0.0109681
-0.123125
0.284004
0.0318389
-0.315843
0.00427081
-0.00427081
-0.0700504
-0.0963676
0.166418
-0.118002
0.091896
0.0261055
-0.206155
0.0446211
0.0361756
-0.0641794
0.0280038
0.0997405
0.0124673
-0.0325008
0.0200335
0.006968
0.000120264
-0.00708826
0.119604
0.115912
0.00769396
-0.00790049
0.000206535
0.000149506
0.000814508
-0.146598
0.166076
-0.0194779
0.0322267
-0.0979557
0.065729
-0.0217968
0.0049571
-0.00493939
-1.77002e-05
-0.102706
0.0796044
0.0231015
-0.0118616
-0.000933359
0.0354715
0.0334797
-0.0689512
-0.0836823
-0.0421981
0.0339297
-0.121618
0.0876885
0.114963
-0.0810336
0.0110921
-0.0279954
-0.141345
0.0785277
0.122071
0.0328971
0.194897
0.148025
-0.211793
0.00772435
0.204068
-0.167901
-0.038254
-0.24075
-0.0447302
0.120847
-0.076117
0.0949598
-0.0357404
-0.0250631
-0.0300528
0.0551159
0.0276256
-0.022094
-0.00553162
-0.023367
-0.00952624
0.0328932
-0.0104751
0.000615779
0.0098593
0.0671374
-0.213736
-0.040654
0.103508
-0.0628545
-0.0146114
0.0301789
-0.0451789
-0.0251156
-0.167266
0.121944
0.0453222
-0.0222808
-0.00103784
0.0233187
0.110824
-0.0798963
-0.0309277
0.253677
-0.283975
0.0302986
0.0550859
-0.0227077
0.255808
-0.162272
-0.0935367
-0.0442629
0.0272911
-0.100151
0.0423179
-0.0298506
-0.0274013
0.0572519
-0.00240157
0.00240157
0.00714943
0.276855
-0.0997433
0.101523
-0.00177947
-0.0173087
0.0415361
-0.052893
-0.00317416
0.275679
-0.00678556
-0.268893
0.0113017
-0.0267596
0.029446
0.246233
-0.0398975
-0.127369
-0.0971011
0.0523709
0.021768
0.00262883
-0.0243968
0.0728144
-0.0553605
-0.0174539
-0.099268
-0.0430822
0.14235
-0.15135
-0.00483413
0.0107509
-0.00354022
-0.00721067
-0.0531172
0.0438809
0.00923635
-0.280596
0.233945
0.0466505
0.0353913
-0.0593846
0.0355766
0.0372377
-0.00252498
0.00230454
0.000220441
0.0283138
-0.00830454
-0.0200093
-0.278573
0.167022
0.111551
0.0810237
-0.167358
-0.329067
0.21587
0.113197
-0.00698109
0.00075483
0.00622625
0.125375
-0.11728
-0.00809493
-0.0682948
0.0330756
0.0352192
0.124655
-0.0354355
-0.089219
0.0291807
-0.0663536
0.0371729
-0.00174908
0.00412208
-0.002373
0.138184
-0.0846891
-0.0534946
0.00494462
1.24788e-05
-0.06579
-0.0289582
0.0947482
-0.0961508
-0.107954
0.204104
0.00240239
-0.00289136
0.000488968
-0.085757
-0.194839
0.0194205
0.0607144
-0.0801349
-0.0690342
-0.130958
-0.0391333
0.0258324
0.0133009
0.0530307
-0.0300285
-0.0230022
0.0757647
0.0275218
-0.103286
-0.149118
0.15506
-0.144747
-0.00660276
-0.0717735
0.176464
-0.10469
-0.0189652
0.093001
-0.0740358
-0.00634806
0.0280993
0.168842
-0.185474
0.0166315
-0.0257833
0.0688382
0.042271
-0.274548
0.232276
-0.0996412
0.119461
-0.01982
0.162155
-0.0936251
-0.06853
0.00785077
-0.000156815
0.00638366
0.00436723
0.00797073
-0.00172059
-0.00625014
0.0364215
0.28074
-0.0772891
0.0510779
0.0585743
-0.0308505
0.00607629
0.0247742
-0.0027073
0.000182324
-0.00885567
0.00411795
-0.147788
-0.130785
-0.109031
0.265692
-0.156661
0.00298467
0.0549713
-0.0579559
0.279114
-0.0254369
0.013327
0.0142986
0.0232287
0.029802
-0.191892
0.0809958
0.0213763
-0.0466764
0.0253002
0.055005
-0.0220519
-0.0329531
0.0528592
-0.144715
0.0918556
0.00877553
-0.220568
-0.278305
0.282399
-0.00409391
-0.0509714
-0.0950918
0.146063
0.0536109
-0.145551
0.0919402
0.059778
0.0263549
-0.086133
0.00375604
-0.00388444
0.000128399
-0.0755292
0.143518
-0.205339
0.11509
0.0902493
0.0201448
0.00816903
-0.0790945
0.0443517
0.0347429
-0.00601707
-0.00185596
0.00787303
-0.124411
0.0246681
-0.00934229
0.00496253
0.00437975
-0.000501544
0.00290394
0.0263445
-0.0150428
0.0495474
-0.0529526
0.00340514
0.0420523
-0.0675602
0.0255079
-0.0662705
-0.085181
0.151451
0.0371861
-0.0772089
0.0400227
0.0902216
-0.212332
0.12211
-0.0277655
0.0552935
-0.027528
0.0650438
0.0268265
-0.0103714
-0.0171929
0.0275644
0.0874666
-0.0760954
-0.0113712
-0.00376301
-0.0350359
0.0387989
0.113222
-0.209373
-0.0043889
0.00303026
0.0834076
-0.0659988
-0.217222
0.00135288
0.215869
-0.105649
0.0895937
0.0160557
-0.0257944
0.166833
-0.088557
0.0599604
-0.307635
0.02933
-0.0142316
0.0141525
7.91677e-05
-0.0130902
-0.0801814
0.0932715
0.00682356
-0.0046736
-0.00214996
0.0248521
-0.0439232
0.0190711
-0.0609352
-0.0440525
0.104988
-0.0469232
-0.0321713
-0.0394688
0.115381
0.0113533
-0.00778678
-0.0035665
0.0256169
0.0997584
0.152465
-0.098854
0.0102114
-0.0668335
0.0566221
-0.0432435
-0.0434233
0.052843
-0.0314667
0.0552263
0.00520595
-0.0604322
-0.018831
-0.0284551
0.0472862
0.00790786
-0.00790786
-0.279592
0.170561
0.0352475
-0.0611871
0.0259396
-0.0763205
0.0411671
0.0351534
-0.0879066
0.169333
-0.0814261
-0.304135
0.102129
0.0425861
0.0230635
-0.0656495
-0.0605687
-0.140685
0.201254
0.175997
-0.0620446
-0.113953
-0.202521
0.137896
0.0646242
-0.0545767
0.0295136
0.0542225
-0.0948765
0.132984
-0.0764216
-0.0565628
-0.00218447
0.00431608
-0.00213161
0.0422874
-0.0243996
-0.0178879
-0.0684693
0.122295
-0.0538258
-0.203662
0.143093
-0.021875
-0.113584
0.068222
0.0453616
-0.106366
0.22597
0.152439
-0.100229
-0.0522095
0.0892267
-0.140198
0.224509
-0.134287
0.0644914
-0.130762
-0.0905632
0.0805376
0.0100256
0.00284789
-0.0244432
0.0215953
-0.0955343
-0.0850346
0.180569
0.0705308
-0.0294967
-0.0410341
-0.0429427
0.118707
-0.00057867
0.000353424
0.000225245
0.00322165
-0.00312265
-0.0405948
0.053497
-0.0129022
0.0149817
0.0203542
-0.0353359
-0.0362536
-0.0168636
-0.0313162
0.0667878
-0.0270054
-0.00538478
0.0323902
0.00951437
-0.00160651
0.211225
0.0312635
-0.00949552
-0.0227783
-0.00115565
0.0239339
0.0205847
-0.016894
-0.00369075
0.0384775
0.0301608
-0.10029
0.0872003
-0.189144
-0.114991
-0.0019061
0.00631353
-0.00440743
0.0057172
-0.00575582
3.86224e-05
0.0483565
0.0221743
0.0211866
0.0176009
0.00953493
-0.0271358
-0.0766792
0.076513
0.000166192
0.036412
0.0656221
-0.102034
0.00722625
0.0480338
-0.05526
0.000965543
0.00473458
-0.00570012
0.0315537
-0.0677052
0.0361515
-0.0576949
0.0299295
-0.022381
-0.0135271
0.0359081
-0.348827
0.233623
0.115204
-0.0146678
0.0296495
0.0852236
-0.235991
0.150767
-0.00433919
0.0492514
0.0450682
-0.0521367
0.00706847
-0.175144
0.0796097
-0.12559
-0.079963
-0.0199212
0.0603584
-0.0404372
-0.129623
0.236598
-0.106976
-0.000389805
0.00340399
0.0896826
-0.00480096
-0.0848817
-0.132173
-0.0340265
0.1662
-0.0741254
0.160344
-0.0862187
-0.0324907
0.0975345
-0.00833247
0.0375159
-0.0291834
-0.00140873
-0.000632876
0.0269351
-0.0805941
0.0536591
0.0432353
-0.0794667
0.0362313
-0.00137293
0.000341436
0.00103149
-0.00763749
0.00162042
-0.0113102
0.0133533
-0.0020431
0.0945637
-0.0317009
-0.0628627
0.00749444
-0.00749444
-0.0170647
-0.05085
0.0679147
-0.00610945
0.00544175
0.000667703
-0.0242595
-0.0289204
0.05318
-0.00266305
-0.00667924
0.0842028
-0.0244248
0.0897418
-0.0720828
-0.017659
-0.138379
0.0384059
0.0999735
0.0331866
-0.182305
-0.0327231
0.0223516
0.0420859
-0.00544748
-0.0366384
0.0624602
-0.0203744
0.00139218
-0.00357665
0.245626
0.0827828
-0.328409
0.262626
-0.0959559
-0.242093
0.0890903
0.153003
0.000399146
-0.000509429
0.000110283
0.0592293
-0.0562446
-0.183495
-0.0065628
0.190058
-0.000878275
0.12902
-0.0287674
0.0620225
-0.0196005
0.0224484
0.000913822
0.0486336
0.0188243
0.0249912
-0.0438155
0.0138432
0.0284443
-0.0553941
0.0418517
0.0135423
0.00772202
0.00228945
-0.00737859
0.018876
-0.0114974
0.0146354
-0.0669432
0.0523078
0.00848688
-0.225708
-0.00647117
0.0899906
0.0369079
-0.0716057
0.0346978
0.0365095
-0.220005
-0.131378
0.237032
-0.105654
-0.00279705
-0.00796533
-0.0686656
-0.0744115
0.143077
0.105655
0.0914894
-0.197144
0.0245329
0.0486718
-0.0732048
-0.0273387
-0.027238
0.115625
-0.134848
0.0192232
-0.106145
0.0474593
0.0586861
-0.064784
0.0461831
0.0186009
-0.00615387
-0.00174421
0.00789808
3.6313e-05
-0.0053995
0.0770815
-0.0665331
-0.0105484
0.157621
-0.277834
0.120214
-0.00563421
0.00558631
4.79047e-05
0.14054
-0.0864925
-0.0861702
0.263349
-0.0376762
0.0143093
-0.00114667
0.00115867
-1.20001e-05
0.118465
-0.00284037
-0.0851309
0.0218772
-0.161419
0.00205514
0.159363
0.00234213
-0.0251204
0.0187687
0.057612
-0.0763807
0.0543137
-0.186487
-0.0286084
-0.0240418
0.0488938
-0.00440458
-0.0145918
0.0189964
0.292422
-0.163393
-0.0290238
-0.00170731
0.0307311
-0.00722021
-0.0161478
0.023368
0.237511
0.0888883
-0.326399
0.256094
-0.145138
-0.110956
0.0578615
-0.118797
0.00516185
-0.00396618
-0.16107
0.131127
0.0299439
0.0368341
0.0040178
-0.0408519
-0.103033
0.0617196
0.0413132
-0.00937189
0.0544401
-0.199373
0.154575
0.0447979
-0.0588392
0.0239442
0.00486286
-0.00171272
-0.00315014
-0.0537565
0.0292834
0.0244731
-0.0234365
-0.22611
0.178295
0.0478147
-0.0423213
-0.0230109
0.0653321
0.122692
0.0311646
-0.153857
-0.00542497
0.035749
-0.030324
-0.0502286
0.0259691
0.157277
-0.278788
0.12151
0.135958
-0.15523
0.0192723
0.0673149
-0.0447474
-0.0225675
-0.000646833
-0.000726097
0.121814
0.000701666
0.0486106
0.00261018
-0.00847341
0.00586324
0.0058063
-0.020125
0.0985992
-0.209194
0.110595
-0.0057536
0.0137838
-0.183545
0.117701
0.0658441
-0.0203683
0.0621149
-0.0417466
-0.0620947
0.119178
-0.0570835
-0.0469432
-0.114127
-0.0990895
-0.0230666
0.122156
-0.130201
-0.075138
-0.0774753
0.000796097
-0.00919159
0.039157
-0.0299654
-0.0143552
0.0206347
-0.00627955
-0.00453219
-0.000407202
-0.13092
-0.0452493
0.0214176
0.0238317
0.102498
-0.0660864
0.0368189
-0.0222939
-0.102088
0.183208
-0.0811203
0.20439
0.0582359
0.24821
-0.161303
-0.0869063
0.0011104
-0.195445
-0.0200051
0.0625912
-0.011769
0.0776081
0.234255
-0.138733
-0.0955226
-0.0761974
-0.0594023
0.1356
0.0227724
0.0248047
-0.0475771
-0.00149621
-0.00289991
-0.135797
0.101389
0.0344083
0.0032082
0.00245649
-0.00119305
-0.00578803
0.253041
-0.0957637
-0.000541804
0.000665798
-0.000123993
0.203118
-0.0974633
0.0156389
-0.03447
-0.11806
0.0411272
0.0769328
0.028767
-0.0561057
-0.00236688
-0.0266569
-0.0567694
-0.0153781
0.0721475
0.0260363
0.0387305
-0.0647668
-0.00421364
0.00839944
-0.0041858
0.00442963
-0.0250989
-0.00451307
-0.00555643
0.0100695
-0.0842568
-0.157837
-0.26915
0.276299
-0.0663711
0.0464499
-0.0390214
-0.067124
-0.00519924
0.00066705
-0.0572278
-0.103741
0.160969
-0.000210639
-0.00589881
-0.0365374
-0.0917086
0.128246
0.0765562
0.0758828
0.074681
-0.0362036
0.214774
-0.116175
-0.0732757
-0.0323737
0.00627355
-0.0195777
0.0133042
0.0569464
0.0480239
-0.10497
0.0163535
-0.0466825
0.0303291
0.007547
-0.00493682
0.0247067
-0.0335658
0.00161737
0.0225217
-0.00175609
-0.000213263
0.00604804
-0.0134266
-0.252994
0.0657887
0.187205
0.139232
0.108377
-0.247608
0.128848
-0.0655816
-0.0632663
-0.167819
-0.0582914
-0.140623
0.0762959
0.0643269
-0.0469083
0.0337915
-0.062559
0.0405339
-0.0990015
0.0584676
-0.0388776
0.05914
-0.0202624
0.114073
-0.056179
-0.0578941
-0.0888004
-0.049579
0.000867153
0.00622746
-0.00709461
0.0714808
0.0230828
-0.0554945
-0.0197642
0.0752587
-0.0195226
0.13168
0.00280205
-0.00279122
-1.08339e-05
-0.00278787
-0.00015065
0.00293852
0.20908
-0.153486
-0.0555947
-0.229278
-0.0629025
0.29218
-0.00738858
0.00317494
0.00308173
0.00374183
0.150507
-0.080773
-0.0697341
0.122352
0.000232761
-0.000839862
0.000607101
-0.0027582
-0.00218203
0.00494023
0.0193027
-0.0237073
5.52243e-05
-0.000122187
6.69627e-05
0.0398631
0.0549795
-0.0948426
-0.11466
0.0892503
0.0254093
0.0687135
-0.0306578
-0.0579373
0.0476088
0.0103285
0.129012
0.0469848
0.0671298
-0.296407
0.0136122
-0.0396896
0.0260774
0.0776351
-0.0148252
-0.0628099
-0.0567324
-0.0613277
0.070431
0.0625533
0.0332721
-0.0588419
0.0255698
0.0145878
0.0124465
-0.0270343
0.0175332
-0.286683
-0.123238
0.262469
-0.00441547
0.00438514
-0.0384643
-0.0225768
0.061041
0.0418543
-0.0354063
0.0151991
-0.0168713
-0.0165555
-0.0413818
-0.00276294
0.00286881
-0.000105878
0.00229825
-0.00206549
-0.0353467
-0.036789
0.0721357
0.0417573
-0.0629961
0.0212388
-0.123449
-0.0600959
0.0617877
-0.15097
0.0891826
-0.0488
0.0560262
0.171381
0.0376998
0.0120717
-0.0775691
0.0654973
-0.04722
0.0417726
-0.0514111
0.00484946
0.0465617
0.106007
-0.065473
0.0158176
-0.00513898
-0.0639687
0.0123137
0.051655
0.107591
-0.190863
0.0832723
-0.0557888
-0.00817989
0.27743
-0.170724
-0.106706
0.159506
-0.128022
-0.0314846
-0.000121409
-0.026884
0.0167271
-0.0133398
-0.00338735
-0.00541737
0.00101664
0.00440073
0.0643105
-0.0483083
-0.0160022
-0.0124001
0.00740027
0.0049998
-0.201657
-0.0513364
0.03393
0.0285303
-0.00234716
0.000187884
0.00215928
0.0246257
-0.0309738
0.11326
-0.221576
0.108316
0.0946168
0.152583
-0.2472
0.00173291
0.00184199
-0.0035749
0.0184705
0.0406609
-0.0591314
0.0738987
0.140131
-0.29771
0.157579
-0.0314341
-0.103892
0.135326
-0.232662
0.0791765
0.00416266
-0.00416266
-0.0258304
0.0282967
-0.20275
0.17148
0.0312699
0.12392
-0.196529
0.0726089
0.006968
-0.0284603
0.0622518
0.141087
-0.0792997
0.212717
0.0676331
-0.178817
0.0767293
0.0869905
0.00269215
-0.116231
0.0865231
0.0297078
-0.0486137
-0.0613795
0.109993
0.0704132
-0.0443769
-0.00793903
3.62518e-05
0.00790278
0.0373283
-0.0156405
-0.0550694
0.0958989
0.234765
-0.121506
-0.0756115
0.183985
-0.108373
0.0776332
0.0845219
0.0475375
-0.0646022
0.26935
-0.00129024
0.00235287
-0.00106262
-0.000313294
-0.00028042
0.000593714
-0.0459906
-0.072011
0.175863
0.0478352
-0.223698
0.219432
-0.12481
-0.0946219
-0.0237794
0.0507089
-0.0269294
-0.00669155
0.0139946
0.219749
-0.1439
-0.0758487
0.138191
-0.0782227
-0.0599679
-0.00166772
-0.00321691
0.00488463
-0.130136
0.112015
0.0181213
-0.0812609
0.0943271
-0.0130662
-0.0109963
-0.00515834
0.0161547
-0.046849
0.0170181
-0.0180559
-0.000243813
0.00331629
-0.00307248
0.0660857
-0.0369051
0.184639
-0.092503
0.115994
-0.0234905
0.00438916
-0.00590683
0.00151767
0.0118905
-0.0371692
0.144661
-0.00870327
-0.00503222
0.00286763
0.118755
0.0751551
-0.19391
0.00570368
-0.00131451
-0.0135688
0.08747
-0.0739011
0.0598643
0.0602824
-0.120147
0.0594361
-0.132549
0.0731127
0.0529398
0.166698
-0.219637
0.00465435
0.00127548
-0.00592983
0.132864
-0.249114
0.11625
0.0598513
-0.0287386
-0.0311127
0.00115162
7.3873e-05
-0.00122549
0.0722796
-0.0581513
-0.0141283
0.0958212
0.0725279
-0.168349
-0.0256067
0.0392189
-0.00239347
0.00585207
-0.103771
0.00412964
-0.00840633
0.00966593
-0.00125961
0.0754428
0.0016387
0.0106368
-0.00590908
-0.00472776
-0.00424621
0.00520223
-0.000956015
0.00704681
-0.00424424
-0.00280257
0.262684
-0.12982
0.059621
-0.0270881
-0.0325329
-0.0968746
-0.04447
-0.114815
0.0833804
0.249761
-0.0820581
-0.167703
0.0882859
0.00749916
-0.00749916
-0.0041737
-7.25135e-05
0.0150553
-0.0141773
-0.000878011
-0.0329378
-0.0224562
-0.0126932
0.00711155
0.00558161
0.176172
0.0381316
-0.214303
-0.0528472
0.085074
0.0882247
-0.236289
0.148065
-0.109501
0.165463
-0.0559619
0.0315886
-0.0191213
0.0266975
-0.0320823
0.00292231
-0.0387458
0.0358235
-0.229469
-0.0596434
0.289112
-0.00200466
0.000714412
-0.0324764
0.0270514
0.000480387
-0.0012231
0.000742718
0.0631933
-0.0311634
-0.0320299
-0.011463
-0.0225253
0.0339883
0.0283971
0.0347962
0.0278221
0.0267801
-0.0546022
0.0019891
-0.00200086
-0.00602884
0.00824881
-0.00221998
-0.0453067
0.0215272
-0.00124667
-0.0052819
0.00652857
-0.234378
0.104756
0.0299638
-0.015376
-0.0107142
0.0417291
-0.0310148
-0.0741728
0.0390638
0.035109
0.00470706
-0.0160172
0.00152661
-0.0158818
0.00281506
0.0130727
-0.0158877
0.0486948
0.0422941
-0.090989
-0.0168464
-0.00128121
0.0181276
0.0719342
-0.0286302
-0.043304
-0.00657887
0.0241797
-0.0262768
-0.00485299
0.0311298
0.140555
-0.0642223
-0.0763323
-0.0986113
0.223965
-0.125354
0.138694
-0.207731
0.0690376
0.242898
-0.154673
0.00792009
-0.00249783
-0.00542226
-0.00910037
0.0643266
-0.0295213
-0.0851383
0.226142
0.103464
-0.247285
0.143821
0.142555
0.0634635
-0.206019
0.0626612
-0.034008
0.151324
0.0968853
0.00318199
-0.0050881
0.0635152
-0.0453518
-0.0181634
-0.00368985
0.0046623
-0.000972453
0.176102
-0.0802813
-0.0253594
0.00692847
-0.00596293
-0.138759
-0.117007
0.0034162
0.00363061
-0.0327977
-0.00633558
-0.00306375
-0.00492247
0.00322658
-0.00209496
-0.00113163
-0.193625
0.290885
-0.0972607
-0.0477419
-0.0271266
0.0748685
-0.0410906
0.0797279
-0.0386372
0.0662703
0.10258
-0.0322653
-0.0399342
0.0721995
0.0139761
-0.034021
0.020045
0.109199
0.0503069
-0.030076
0.0208844
-0.00194372
0.00526042
-0.0033167
-0.0444136
-0.0238812
0.0428057
-0.14142
0.0986145
0.27182
-0.200673
-0.0711476
-0.00497977
-0.0258707
-0.0717478
0.0418159
0.0299318
0.0321311
-0.0549911
0.02286
0.0538847
-0.0388999
0.0674305
-0.0285307
0.0274165
-0.0366885
0.0738747
-7.12267e-05
0.000551613
-0.0346615
-0.0212224
0.0558838
0.0994693
-0.0777812
-0.0216881
-0.00123079
-0.0555386
0.195841
0.0225579
-0.218399
-0.256527
0.203566
-0.0462679
0.0564793
-0.0279841
0.0204371
-0.0381777
0.0177405
0.0710062
-0.0995288
0.0285226
0.0605457
0.0269209
-0.00480309
0.00575273
-0.000949639
-0.0344676
-0.0524911
-0.122379
0.064851
0.0575276
-0.0663146
0.106178
0.0446796
-0.0713288
0.190025
-0.118696
-0.093581
0.101464
-0.00788284
0.0714583
0.0667253
-0.00666009
0.00541342
0.0947267
-0.0170993
0.18477
-0.00859815
0.0950322
0.0456584
-0.140691
0.207878
0.125042
-0.0274709
-0.0302575
0.0577284
-0.126781
0.0583113
-0.13103
-0.129065
0.260095
0.144306
-0.242917
-0.00321908
-0.0193158
0.0225349
0.253075
-0.159303
-0.0937719
-0.246127
0.0886454
-0.00148152
-0.00290738
-0.140528
-0.0921346
0.124911
-0.0650466
-0.00594402
0.000430584
0.00551344
-0.00503029
0.0045644
0.000465889
0.222022
0.0497978
0.0274675
0.0267615
-0.0542291
0.0278744
-0.00324865
0.00290246
-0.000507157
0.182211
0.073597
-0.00407196
0.00212825
-0.176207
0.104878
0.0113576
0.0087715
-0.0201291
-0.135376
0.225763
-0.0903864
-0.00237266
0.00645318
-0.00408052
-0.0556345
0.020973
0.032764
0.0345509
0.147272
-0.104467
-0.0070042
0.0070042
-0.118629
0.0373683
-0.107066
-0.101646
0.208712
-0.143252
0.251629
-0.00895792
-0.0604889
0.0694469
-0.00801148
0.00813175
0.0714989
0.0567743
-0.128273
-0.303102
0.159326
0.143776
0.00319803
-0.000575818
-0.0920836
-0.0522047
0.144288
0.122251
-0.0666158
-0.0556356
-0.0174199
0.0181451
-0.000725212
-0.20331
-0.047129
0.0485249
-0.158026
-0.0162618
-0.00115812
-0.00674692
-0.00115357
-0.28272
-0.0291845
0.17174
0.00537347
0.00164799
-0.00702146
-0.00840787
0.00237903
-0.0726866
0.0337868
-0.314078
0.162391
0.151687
-0.00671887
0.00764227
-0.0009234
0.00130781
-0.00118804
-0.000119769
-0.00812663
0.0013797
0.258112
-0.155501
-0.102611
0.0818909
-0.0147649
-0.067126
0.263332
-0.164298
-0.0990339
-0.0939782
-0.146772
0.0551015
0.0581229
-0.113224
-0.0344964
0.0694143
-0.034918
0.00013612
0.00116292
-0.00129904
-0.244091
0.150113
-0.0774124
0.0584472
-0.205416
0.206769
-0.0595053
0.226203
0.00235626
0.00084177
-0.00719028
0.00885299
-0.00166272
0.014603
-0.0496918
0.0350888
-0.026697
0.0569298
-0.0302328
0.00530768
0.143458
0.120725
-0.264183
0.0027284
-0.00439612
-0.0043988
-0.00271094
-0.000180418
0.106006
-0.0490599
0.00262305
0.00298793
-0.141553
0.0674274
-0.174932
0.103716
0.0712158
0.0867159
-0.0672954
0.0560893
-0.131574
0.0754844
0.0971616
0.0136624
-0.139767
0.262229
-0.122462
-0.00858306
0.000176738
0.00616719
0.00518609
0.00336019
-0.00394743
0.000587246
0.0223392
-0.0344011
0.0120619
0.0353593
-0.127862
-0.0187787
-0.0385426
-0.0121173
0.0143093
-0.0463003
0.0724105
-0.0261102
0.11534
-0.27691
0.16157
-0.00710186
0.000382994
0.000123095
-0.000962957
-0.200623
0.125012
-0.0419183
0.0492621
-0.00734375
0.175511
-0.204695
-0.0499185
-0.0680434
0.117962
-0.00222606
0.00759953
0.029563
-0.0639648
0.0344019
0.259559
0.0317627
-0.291322
-0.0073349
-0.00107297
0.0227923
-0.228208
0.000924861
0.00283118
-0.026601
-0.0151041
0.0417051
-0.0261996
0.0555472
-0.0293476
0.0202267
-0.0419224
0.0216956
-0.0513192
-0.0710595
0.0540815
0.0235537
-0.0041364
0.0267643
-0.0226279
0.0843721
-0.0313056
0.0547744
-0.0234688
-0.058279
0.083604
-0.025325
0.0248374
0.0332454
-0.0580828
0.06175
0.0233875
-0.0851375
-0.018747
-0.00295296
0.0114825
-0.00852952
-0.125003
0.178365
-0.0533619
-0.240912
0.0892887
0.151623
0.0852563
-0.172323
0.0874412
-0.0719502
0.0164557
-0.236907
0.0073843
0.229523
-0.203405
-0.000458681
-0.0049389
0.00539758
-0.0144811
0.00348476
0.0417603
-0.00821349
-0.0335468
-0.00662675
-0.00131228
0.128168
-0.084167
-0.0440014
-0.00209689
-0.000304677
-0.123645
0.267103
0.111868
-0.0237161
-0.0269065
0.0506227
-0.206027
0.248298
0.062053
-0.0283497
-0.0337034
0.0262798
0.0270207
0.0222895
-0.0553486
0.033059
0.0264618
-0.0578374
0.0313756
-0.00496997
-0.000664242
-0.0397056
-0.0375084
0.0772139
-0.0048001
-0.00789306
0.0572068
-0.0525823
-0.00462452
0.0260023
-0.0301387
-0.00466427
-0.000970238
0.00563451
-0.0487601
-0.0513911
-0.0384619
0.0238505
-0.0249421
-0.0349641
0.0599062
-0.0461991
0.112381
-0.0661818
0.0398575
-0.0324237
-0.00743385
0.00245035
0.023552
0.0543958
-0.0190045
-0.00847999
0.00128971
0.000703566
-0.00101686
0.277092
0.079081
0.0490875
0.000804476
4.25141e-05
-0.00084699
0.242458
-0.141748
-0.10071
0.071423
-0.113071
0.0416476
-0.0716233
0.0982831
-0.0266598
-0.0569413
0.0307417
-0.0137972
-0.0030492
-0.142559
0.0707855
-0.0372167
0.0706071
-0.0333904
-0.00930742
-0.00492422
-0.104576
-0.0703561
-0.189484
0.133333
0.0561511
-0.162739
-0.119981
-0.00311694
0.000354006
0.0287711
-0.0348637
0.0670165
0.0349296
-0.101946
-0.00391883
-0.000254868
-0.000350761
-0.000191044
0.0829751
0.0950577
0.00209916
0.000803307
0.0435456
-0.0207732
0.0679209
-0.0476758
-0.0202451
0.01886
-0.0155389
-0.00332108
0.0750046
-0.039428
0.0181185
-0.0863293
0.0482804
0.0380489
-0.00602877
-0.00142125
0.00745002
-0.0070411
0.0566262
-0.0495851
-0.108489
-0.0902543
0.198744
0.000515875
0.207894
0.0242154
-0.23211
0.257097
-0.155484
-0.101613
-0.10501
0.299907
-0.0220798
0.0148212
0.00725854
0.284544
0.00211622
-0.28666
0.0223756
-0.0546912
-0.134007
0.0578099
0.000217048
0.000212433
-0.000429481
0.0259138
0.0014889
-0.0274027
-0.139325
0.248214
-0.108889
-0.122877
0.0718892
0.0509881
0.0112402
0.00381507
0.0931311
0.121018
-0.176501
0.0554829
0.20431
-0.119086
-0.0651623
0.0856102
-0.0204479
-0.1321
-0.05604
0.18814
-0.0454031
0.0174408
0.0279623
0.119047
-0.0439687
-0.075078
0.00691254
-0.24382
0.0322357
0.00762185
0.0339869
-0.0614578
-0.00246799
-0.000242949
-0.117342
0.0237614
-0.0556427
-0.00958173
0.00415622
0.00542551
-0.0021001
0.00199003
0.10793
0.126326
-0.0995119
0.0554595
0.175981
-0.0520604
-0.204923
0.161162
0.0437619
0.0687687
-0.0321466
-0.036622
0.0856683
0.0431796
0.185476
-0.102501
0.047393
0.0745511
0.0436394
0.0291828
-0.0728222
0.273758
-0.151711
-0.122046
-0.015486
0.0125331
-0.0847767
0.0267452
-0.0446262
0.0715613
-0.183227
0.0194888
0.163739
0.0362987
-0.147808
0.111509
0.0624984
-0.108697
0.171227
0.0778779
-0.057176
0.0236282
0.0405783
-0.0642065
-0.148793
-0.12087
0.269663
0.078746
-0.203749
0.171598
0.133893
-0.305491
-0.00465198
-0.000547261
0.0636764
-0.0869726
0.0232963
-0.0405492
0.0232405
0.135402
-0.0819164
-0.0534857
-0.00159757
0.00304316
-0.00144559
-0.0145454
0.0173605
-0.0149352
0.0569875
-0.0330696
0.0678687
-0.0347991
0.0493083
-0.0821948
0.0328864
0.216381
0.0209816
0.0159065
-0.036888
-0.00512494
0.000321847
0.000360158
-0.00314802
0.0157405
0.0146618
-0.0304023
0.0579426
0.0137273
-0.0716699
0.0303217
-0.019888
-0.0104337
-0.044336
-0.0298368
0.0609565
-0.0414483
-0.0195083
0.0349697
0.00688201
0.0296766
-0.128945
0.102909
0.142783
-0.0703622
0.0633211
0.00153456
0.00638553
0.0360293
-0.0703093
0.03428
-0.0711366
0.0388714
-0.181935
0.204493
0.0770906
0.0211925
0.0869856
-0.160247
0.073261
-0.00393975
0.00245823
0.253191
-0.0955704
0.0664606
-0.0363575
-0.0301031
0.0379771
0.0569017
-0.0948788
0.0409067
-0.0263037
-0.0936674
-0.0524037
0.146071
0.0122108
0.0371461
-0.0493569
0.0318023
-0.0795442
-0.023171
0.0509931
-0.136782
-0.0451845
0.181967
0.0929566
0.0420271
-0.0553855
0.0133584
-0.0144276
0.00516413
0.00926352
0.0380625
-0.0540709
0.0160084
0.094289
-0.0822294
-0.0120597
-0.101464
0.0801942
-0.173934
0.0937397
-0.000933542
-0.000213128
-0.0293641
0.0203985
0.00896557
-0.000323746
-1.96191e-05
0.000343365
-0.0102291
0.125192
0.0198641
-0.0497147
-0.095296
0.0453775
-0.0184788
0.0894849
0.0688395