/*--------------------------------*- C++ -*----------------------------------*\
| =========                 |                                                 |
| \\      /  F ield         | OpenFOAM: The Open Source CFD Toolbox           |
|  \\    /   O peration     | Version:  v2012                                 |
|   \\  /    A nd           | Website:  www.openfoam.com                      |
|    \\/     M anipulation  |                                                 |
\*---------------------------------------------------------------------------*/
FoamFile
{
    version     2.0;
    format      ascii;
    class       volVectorField;
    location    "100";
    object      U;
}
// * * * * * * * * * * * * * * * * * * * * * * * * * * * * * * * * * * * * * //

dimensions      [0 1 -1 0 0 0 0];


internalField   nonuniform List<vector> 
54593
(
(0.989784 0.0122785 -2.60873e-22)
(1.15231 0.018553 0)
(1.01225 0.0122889 3.69226e-22)
(0.313247 -0.0119331 0)
(-0.282685 -0.00392427 0)
(-0.069526 0.00454289 0)
(0.0780054 -0.0054972 -7.15983e-21)
(1.17992 0.0080021 1.69567e-20)
(1.14278 0.0132243 -9.03241e-21)
(1.01851 0.0267229 -9.32573e-22)
(0.984684 0.0978505 0)
(0.0623763 0.00309938 -5.13294e-21)
(0.274102 0.657107 0)
(1.03449 0.0163778 4.22504e-21)
(0.875404 0.327142 5.37651e-21)
(0.891803 -0.00117714 2.66886e-20)
(1.17899 0.00593616 -2.95653e-20)
(0.856016 0.228516 -4.30094e-22)
(1.01807 0.0264705 -2.70947e-22)
(0.867235 0.0493934 2.78837e-20)
(1.01241 0.0126456 -3.40643e-22)
(1.06136 0.0897772 -1.18661e-20)
(1.01995 0.0259634 6.10849e-22)
(-0.209364 0.00255435 0)
(1.01616 0.001996 0)
(1.1037 -0.0574246 -3.36134e-21)
(0.98982 0.0119137 2.99948e-21)
(1.09292 -0.0329911 -5.02709e-21)
(0.122756 0.0035493 5.98909e-20)
(1.0199 0.0264193 1.23327e-21)
(1.10354 -0.0569891 3.2525e-21)
(1.01224 0.442809 0)
(1.00724 0.0133568 -5.31952e-22)
(-0.214869 0.00127738 -3.28839e-20)
(0.775475 0.092516 0)
(0.999153 3.40123e-05 -3.27616e-22)
(1.11194 0.167966 -1.43065e-20)
(1.15262 0.0203838 1.96025e-20)
(1.05696 0.0142814 -7.00954e-21)
(1.06287 0.0894251 6.43627e-23)
(0.219696 0.185647 0)
(1.32147 0.178399 -3.54981e-22)
(1.0143 0.0101414 -6.40459e-22)
(0.988647 0.0117879 6.64347e-21)
(0.435067 -0.203909 -5.76267e-20)
(0.953613 0.0375323 -1.51142e-20)
(1.09927 -0.0552143 8.38789e-21)
(0.922205 0.289963 5.15987e-21)
(1.02712 0.000531615 -4.03236e-21)
(1.14813 0.0809428 2.73133e-21)
(1.00717 0.0130263 0)
(1.02788 0.000121076 0)
(1.06484 0.0568675 0)
(0.438073 -0.21775 2.37408e-20)
(1.1534 -0.05059 -1.4176e-20)
(1.00851 0.000315737 -6.98123e-22)
(0.629804 0.351903 7.56889e-20)
(1.32234 0.170973 3.057e-20)
(1.15084 -0.0465828 -1.51752e-20)
(0.669956 -0.0206813 -1.02212e-20)
(1.01402 0.0100924 6.78634e-22)
(0.945816 0.0183068 -4.53912e-21)
(1.03487 0.0161907 0)
(0.282043 -0.00855784 0)
(0.997369 0.0141001 5.40961e-21)
(0.894596 -0.00179219 0)
(0.484359 -0.0972656 0)
(0.964346 0.445116 -8.24237e-21)
(-0.262424 0.000322956 0)
(-0.261872 -3.83458e-05 0)
(1.02751 0.000176012 1.52015e-23)
(0.779165 0.0969927 0)
(0.997546 0.0143626 -5.1055e-23)
(0.992415 -0.101199 -2.55185e-20)
(1.05815 -0.00891931 -9.40307e-22)
(1.09185 0.00730948 -1.35714e-21)
(1.09467 -0.0177473 0)
(0.686098 0.640004 -8.72658e-21)
(-0.110812 0.0114509 -3.37579e-20)
(0.478893 -0.634627 0)
(1.00908 0.000818608 -4.66094e-22)
(0.335494 -0.0191998 6.89333e-21)
(0.988773 0.0113893 -8.21583e-21)
(0.736163 -0.101806 -2.87984e-20)
(1.0103 0.0765922 -7.2168e-22)
(0.951498 -0.102534 1.08129e-20)
(-0.182652 -0.00615084 -3.15938e-21)
(1.12617 -0.0427612 5.92423e-21)
(0.65932 -0.243459 0)
(0.981532 -0.000134825 1.14324e-20)
(-0.176979 -0.000266969 -5.93124e-20)
(1.07158 0.102924 -4.53325e-21)
(1.1996 -0.0205851 -1.13615e-20)
(1.22454 0.217038 1.69525e-20)
(1.11201 0.0829666 -3.63893e-20)
(0.107447 -0.00978228 0)
(0.94121 -0.0646231 -1.00365e-20)
(1.21253 -0.0440543 0)
(0.974717 0.00437145 -4.44981e-21)
(1.15001 0.0793276 2.50325e-20)
(1.01991 0.0494596 3.02778e-22)
(-0.171101 -0.00606976 0)
(0.952712 -0.00705141 0)
(0.99899 0.0129463 0)
(1.01511 0.430559 0)
(1.02648 0.203387 0)
(1.08387 0.187553 1.58705e-20)
(1.12575 -0.0419595 -3.13991e-20)
(1.0907 0.00677099 1.17356e-20)
(0.638492 0.0212448 0)
(0.509042 0.232864 3.52551e-20)
(1.00024 0.0133708 1.5578e-21)
(0.980976 -0.000190008 0)
(1.10282 -0.0565837 4.06619e-21)
(0.998841 0.0229294 1.72288e-23)
(-0.179246 -0.0756079 -5.59249e-20)
(-0.256793 0.000164778 -1.69084e-20)
(0.270635 -0.00724609 2.44996e-21)
(-0.199523 0.00123279 5.84839e-20)
(1.19716 -0.0202381 0)
(0.280988 -0.00817521 0)
(0.999794 0.000499314 -4.47797e-21)
(-0.311691 -0.00280803 4.33741e-20)
(1.08 -0.035782 1.13138e-20)
(1.01258 0.0176581 -1.89756e-22)
(0.348397 0.194777 0)
(0.952609 0.0193014 -8.01262e-21)
(1.01223 0.0174771 -5.32709e-23)
(0.194073 -0.00414317 -1.08943e-20)
(0.546446 -0.095014 -1.44368e-21)
(1.0138 0.000252711 -7.0083e-22)
(1.00589 0.0460749 1.49503e-21)
(1.09352 0.00485607 0)
(0.999044 -1.8896e-05 2.97579e-21)
(1.07397 0.102676 1.92728e-20)
(0.184775 -0.882278 -1.63902e-21)
(1.03349 0.000209266 0)
(0.890778 -0.0466326 0)
(0.999341 0.0129644 0)
(0.993831 -0.000769052 3.05504e-22)
(-0.338965 -0.00504262 -4.17723e-20)
(0.721133 0.213073 0)
(1.0926 0.00548784 0)
(1.32567 0.258047 -1.57088e-20)
(1.09312 0.111108 8.66891e-21)
(0.973994 0.443597 6.66098e-21)
(-0.0370898 -0.0165275 -4.44636e-21)
(1.10841 0.168108 1.73125e-20)
(0.965075 -0.118666 0)
(1.05218 0.00481568 -9.97e-23)
(0.654233 -0.0549212 3.33267e-22)
(0.983865 0.0396709 3.25026e-21)
(1.11172 -0.0585311 2.25415e-20)
(1.22494 0.21331 -3.42526e-20)
(1.00358 0.0314119 -7.61289e-22)
(0.794418 0.0926678 0)
(0.985677 0.0965323 3.691e-21)
(0.823133 0.0947324 1.95625e-20)
(0.842588 0.325464 2.20642e-20)
(0.975247 0.00720992 -1.35217e-20)
(1.26935 0.237302 1.37698e-20)
(0.919632 0.0102905 3.01092e-20)
(-0.341735 -0.0017216 8.72439e-20)
(0.0913586 -0.00480312 -2.06552e-20)
(1.09216 -0.0326529 0)
(1.04901 0.0110733 4.08835e-21)
(1.01267 0.000642321 1.40973e-22)
(1.0126 0.00796312 5.60452e-22)
(0.0955638 -0.350877 9.47656e-20)
(1.00001 2.86072e-05 -1.13915e-22)
(1.10144 -0.0531762 -8.33889e-21)
(0.180425 -0.795771 1.2624e-20)
(0.657083 -0.255208 -2.9753e-20)
(0.999824 0.000510592 3.96885e-21)
(1.14117 0.0106332 -4.21944e-21)
(1.00779 0.0129373 0)
(0.560273 0.214781 0)
(0.943624 0.0501413 9.67072e-21)
(0.946827 0.0206874 0)
(0.240105 0.191014 0)
(-0.174841 -0.0136274 -2.42918e-20)
(1.02295 -0.00065753 -3.33185e-21)
(0.116064 0.00598767 -2.16502e-20)
(1.01836 0.0511639 -1.46886e-22)
(0.999888 0.00131351 7.83333e-22)
(0.127898 0.00132427 0)
(1.04994 0.0035441 0)
(0.98011 0.0817419 2.62221e-21)
(1.03464 0.01698 -3.48702e-21)
(1.30612 0.158622 1.4552e-20)
(0.945718 0.0199625 5.01302e-21)
(0.851137 -0.0426104 1.05283e-20)
(-0.344538 -0.000435904 -1.59023e-21)
(0.997477 0.0148204 0)
(-0.330256 0.000642604 0)
(-0.0387209 -0.0172532 -4.67943e-21)
(0.990252 0.0178687 -6.61942e-21)
(0.96463 0.0856815 0)
(1.10298 -0.056992 -3.76539e-21)
(-0.197197 -0.00623834 -7.08622e-21)
(1.07766 0.104784 0)
(0.350553 0.183177 -6.35868e-20)
(1.12897 -0.0375497 2.40288e-20)
(0.953664 -0.00682145 9.78664e-21)
(0.983385 0.0502938 8.68151e-23)
(0.984498 0.0502483 3.54354e-21)
(0.574308 -0.895572 1.25081e-20)
(1.01067 0.0749548 5.79322e-22)
(1.05731 0.0138514 -2.40802e-21)
(1.00934 0.000847063 -5.66161e-22)
(0.994141 0.00116163 0)
(1.0341 0.0171146 -2.58367e-21)
(1.0227 -0.000601573 1.5793e-21)
(1.09063 0.0010836 -9.11491e-21)
(1.11118 0.0812036 1.94865e-20)
(1.13729 -0.0727547 0)
(0.655135 0.315687 0)
(0.835158 -0.0442977 6.87929e-21)
(0.114641 -0.221222 0)
(0.99071 0.017734 4.41094e-21)
(1.06603 0.0837042 -6.89322e-21)
(0.843458 0.462023 6.4774e-20)
(1.31875 0.182177 6.08474e-20)
(1.06266 0.0280607 -4.42076e-21)
(0.50193 -0.249109 8.68642e-22)
(1.11895 0.0580796 1.5556e-22)
(1.00003 0.000861006 0)
(0.863161 0.229363 -2.2432e-20)
(1.01106 0.0119824 -8.18763e-23)
(0.847762 0.317634 -2.7176e-20)
(0.953533 0.0198182 0)
(1.10619 -0.0520967 1.32842e-20)
(-0.0762037 0.00298849 0)
(0.99988 0.0014434 0)
(0.966431 -0.00307443 -4.19519e-22)
(0.965329 -0.0637448 9.35115e-21)
(1.10157 -0.0535761 1.42614e-20)
(0.999505 0.00312463 -1.28137e-22)
(0.594905 -0.363535 6.18987e-23)
(0.999497 0.00325069 0)
(1.06194 0.0284747 -4.33685e-21)
(1.09176 0.00115745 0)
(0.73381 -0.105558 -3.04806e-20)
(1.22962 0.102715 -1.44554e-20)
(1.06208 0.0139526 4.60432e-21)
(1.05776 -0.0146988 0)
(0.291644 -0.0533532 0)
(1.10286 -0.0450484 -1.51777e-20)
(1.01351 0.00763872 6.62809e-22)
(1.27205 0.241018 5.66418e-20)
(1.22945 0.0994047 1.33096e-20)
(0.0780054 -0.0449692 6.2837e-21)
(0.658824 -0.0791432 1.02918e-20)
(1.00553 0.00874706 0)
(1.05776 -0.00824932 3.97206e-22)
(1.01288 0.000349204 -1.31379e-21)
(-0.264071 -0.00208838 -9.35258e-21)
(1.01387 0.0693046 -3.11871e-22)
(1.2397 0.00958337 -1.6698e-20)
(1.05874 0.0920782 -7.63474e-21)
(1.03626 0.249238 0)
(-0.137976 -0.0184637 0)
(0.968409 -0.00548343 0)
(-0.191683 -0.00790059 0)
(1.1122 0.0777078 2.33654e-20)
(1.03079 0.0123935 -8.65251e-22)
(-0.118409 0.00171522 0)
(1.01327 0.0075838 -1.87852e-21)
(0.964416 0.103953 0)
(1.04895 0.0116145 0)
(0.955353 -0.110434 -2.07407e-20)
(0.995393 0.686051 3.54828e-20)
(1.08883 0.0723108 -6.53117e-21)
(0.990002 0.0126377 -7.0776e-21)
(1.05774 -0.0141267 0)
(1.00099 0.0284596 -1.77291e-21)
(0.943237 0.0157674 -5.15575e-21)
(0.759392 -0.102306 2.0781e-20)
(1.02308 0.0156647 0)
(1.09876 -0.0552704 -7.04037e-21)
(1.01468 0.000188787 4.10292e-22)
(1.09717 -0.002891 -1.74726e-20)
(1.07997 0.00920197 8.47717e-22)
(-0.321931 0.00179064 0)
(0.294449 -0.0525052 -6.52891e-21)
(0.25737 0.00526218 2.49708e-20)
(1.06075 0.0922203 6.95186e-21)
(1.01273 0.000303548 0)
(1.09534 0.109905 0)
(0.490349 -0.996416 3.12989e-20)
(0.0885581 -0.0472672 -2.1212e-20)
(0.32447 -0.0176488 -7.80419e-21)
(1.00533 0.00859606 4.24992e-22)
(1.00162 0.00696479 0)
(1.10906 -0.0399618 -8.97975e-21)
(1.00005 0.000976541 2.22298e-22)
(0.678092 0.320521 0)
(1.01038 0.674846 -2.68491e-20)
(0.999073 0.0225533 -1.72551e-21)
(1.10222 -0.0523941 8.74753e-21)
(1.10131 -0.0454612 8.63909e-21)
(1.05619 0.0298338 -7.22131e-21)
(0.994324 0.00101586 2.55158e-22)
(1.00003 0.000194498 2.97288e-23)
(0.998023 0.0276975 4.85792e-23)
(1.00253 0.0376669 -1.79043e-21)
(1.14953 0.0602758 -9.56176e-21)
(0.146952 -0.00395949 0)
(1.05152 0.00467707 -1.19098e-20)
(0.991548 0.0180455 1.75976e-22)
(0.664779 -0.0787629 0)
(1.0477 0.207345 2.09616e-21)
(-0.312427 0.00126901 -1.81252e-22)
(0.966966 -0.00252641 2.8933e-21)
(0.224369 0.0371323 9.29446e-20)
(-0.111315 0.00222685 0)
(0.580253 -0.371637 1.37049e-22)
(1.12722 -0.103039 0)
(1.16358 -0.0740784 -4.18274e-20)
(1.03796 0.0384019 -4.17325e-23)
(1.17467 0.0412789 0)
(1.01419 0.0090699 0)
(1.11153 -0.0808367 -1.02878e-20)
(1.09162 -0.0334798 4.15016e-21)
(0.832475 -0.0547102 0)
(1.12756 0.138827 -2.46265e-22)
(0.812786 0.433459 4.80667e-21)
(1.03023 0.0122963 6.71343e-21)
(-0.160919 -0.015239 2.12406e-20)
(1.08054 -0.0363766 -2.07523e-20)
(0.995775 0.00101353 -6.63707e-21)
(1.04563 0.117008 0)
(0.998836 0.0132172 0)
(0.919784 0.00836417 8.41228e-21)
(1.00002 0.000158543 0)
(0.072091 -0.554574 -4.54102e-20)
(1.07811 -0.000338129 -1.09609e-20)
(0.23393 -0.00253386 -8.86735e-21)
(1.10372 -0.0754362 0)
(1.08989 0.0281407 1.37304e-22)
(1.04293 0.207872 1.80129e-21)
(1.06628 0.05725 5.77784e-21)
(0.3081 -0.0422597 -6.11913e-21)
(1.01504 0.0694896 0)
(1.00321 0.037566 -1.54647e-21)
(1.16006 0.252027 -6.09477e-21)
(1.14785 0.0829657 1.12838e-20)
(1.10248 -0.0524029 -1.04423e-20)
(1.17094 0.268399 0)
(1.02385 0.136174 -1.65608e-20)
(-0.264692 -0.0068535 -5.98805e-21)
(1.00162 0.00678212 2.08939e-21)
(1.10882 -0.0773423 0)
(1.2248 0.088822 5.46733e-20)
(0.982489 0.00701608 -1.3885e-21)
(1.01395 0.0103707 0)
(0.85445 0.00709639 -2.67088e-21)
(0.999794 0.00826444 -1.09795e-21)
(0.988048 0.0279316 -4.08219e-21)
(0.98925 0.0163661 4.20356e-22)
(1.1379 -0.0711949 1.79912e-20)
(1.06641 0.0854064 0)
(1.02709 0.0686172 -2.23552e-21)
(0.180796 -0.00349626 -1.7133e-20)
(0.685432 0.285843 0)
(0.969236 -0.00329784 0)
(0.999699 0.00824392 -1.15807e-21)
(1.31698 0.174143 1.6016e-20)
(1.1006 -0.0113785 -7.65963e-21)
(0.997714 0.0150526 0)
(1.06777 -0.00457243 0)
(0.997544 0.0276718 -4.80004e-21)
(1.01414 0.00886089 7.54425e-22)
(1.03794 0.0391033 3.97913e-21)
(0.914068 0.0107239 2.04511e-20)
(0.356357 -0.983522 3.74803e-21)
(1.03579 0.0141709 -3.49223e-21)
(1.3091 0.144444 1.58287e-20)
(1.08869 0.0705902 0)
(-0.00424195 0.0228314 0)
(0.120727 -0.00490837 -2.04833e-20)
(0.806621 0.0571246 -1.55138e-20)
(0.666571 0.393507 0)
(1.10195 -0.0454903 1.72611e-20)
(1.12807 -0.0369384 0)
(0.772501 0.863709 0)
(-0.321268 -0.000136492 0)
(0.999179 0.0131898 0)
(0.757857 -0.107281 3.03243e-20)
(0.529857 -0.259129 0)
(0.503016 0.0487569 0)
(1.14928 -0.0475568 -1.5795e-20)
(1.07734 -4.22094e-05 -1.35453e-20)
(1.01366 0.010308 0)
(0.236154 0.00699204 1.87289e-21)
(0.217909 -0.00226163 -1.29085e-20)
(1.30642 0.140674 -1.53086e-20)
(1.14282 0.0112249 0)
(0.587916 0.194344 -6.3758e-20)
(1.11604 -0.0331708 5.24007e-21)
(1.01479 0.0797297 1.2621e-22)
(1.15849 0.154014 -1.70467e-20)
(-0.218045 0.00234829 -1.7416e-20)
(1.23362 0.170729 -1.00963e-19)
(1.11281 -0.0798642 -9.82304e-21)
(0.857225 0.538502 -1.91538e-21)
(1.01694 0.000107124 3.62947e-21)
(0.655276 0.408154 0)
(1.00587 0.0141563 0)
(1.21283 -0.0466387 0)
(1.09865 -0.04923 1.50353e-20)
(1.03611 0.0145895 0)
(0.994138 -0.000735702 -2.91913e-22)
(1.09099 0.269921 -1.33306e-20)
(1.00071 0.0140464 0)
(0.097861 0.000199282 -4.0005e-20)
(1.11077 -0.00962563 3.15609e-20)
(0.988885 0.00580399 0)
(1.00267 0.041551 1.90773e-21)
(1.09081 -0.0333008 7.2266e-21)
(0.709776 0.115982 -3.07237e-20)
(0.0822482 -0.00694313 0)
(1.13286 0.132279 0)
(1.15279 -0.0331468 -2.73404e-20)
(-0.043817 -0.0101406 4.2597e-21)
(-0.319973 0.00047678 6.68685e-21)
(0.438506 -0.0536286 1.13835e-20)
(1.13398 0.0742573 1.50522e-20)
(-0.228683 -0.000636434 0)
(1.03447 0.170581 9.18378e-23)
(0.185952 -0.0498777 3.18262e-20)
(0.886139 0.195476 5.13836e-21)
(0.238719 0.0309611 -1.26377e-19)
(1.14812 0.0588733 4.2676e-21)
(1.12226 -0.0284799 0)
(1.08159 -0.0200754 9.60309e-21)
(0.990374 0.0125481 6.18844e-21)
(0.861909 -0.05431 0)
(1.00132 0.349452 -2.89962e-21)
(1.00781 0.356473 0)
(0.168341 -0.00134619 1.88204e-20)
(0.999897 0.00149204 1.379e-21)
(1.01282 0.0173753 1.51526e-22)
(0.999314 0.00776392 -3.57519e-23)
(-0.0209564 -0.00668621 -3.77741e-20)
(1.10852 -0.0396056 -8.68081e-21)
(0.999157 0.0176505 0)
(0.974671 0.00698808 1.49264e-20)
(1.11169 -0.0575649 -1.17497e-20)
(0.259344 -1.22424 -4.48677e-20)
(1.12531 -0.101677 -2.96115e-21)
(1.10427 -0.0777482 1.39149e-20)
(0.684445 0.297895 0)
(0.878828 0.254668 -1.38587e-20)
(0.311321 -0.0113184 0)
(0.103253 -0.661659 -8.54823e-21)
(0.997855 0.198879 4.11147e-22)
(0.995948 0.0010967 7.20702e-21)
(0.952218 0.0378649 1.85826e-20)
(1.19485 -0.0309658 -2.26581e-20)
(0.998951 0.017423 -6.97025e-22)
(1.01441 0.00862355 -1.09409e-21)
(0.107687 -0.332209 -1.03348e-19)
(0.985326 0.0335926 4.71329e-21)
(1.02001 0.0140581 2.22071e-21)
(1.18305 0.111973 1.69042e-20)
(1.14007 -0.07106 -4.10824e-20)
(0.973102 0.013894 0)
(1.12284 0.0089996 0)
(1.31672 0.153563 2.87049e-20)
(-0.309456 0.00163438 -3.51927e-23)
(-0.260544 -0.00234303 5.16903e-20)
(0.977702 0.155508 -3.48304e-21)
(1.02056 0.00664405 0)
(0.204121 -0.00289502 1.19832e-20)
(0.984722 0.0398153 -5.49318e-21)
(1.00001 3.86485e-05 -2.83234e-22)
(0.856724 -0.043863 -8.83439e-21)
(-0.0489499 0.00381122 -6.74564e-21)
(0.972927 0.0143309 0)
(1.14442 0.0139646 1.92455e-20)
(0.98904 0.00644197 -9.83132e-22)
(0.541939 -0.253466 1.83189e-20)
(1.10834 -0.0354615 0)
(0.989014 0.00541321 3.00315e-21)
(1.31571 0.157144 -2.71122e-20)
(1.10415 -0.0743697 0)
(0.428828 0.492497 5.40286e-20)
(1.01632 0.00210483 9.50367e-22)
(0.392135 1.02673 0)
(0.2678 -0.745771 0)
(0.999878 0.00124399 -3.98284e-22)
(1.00453 0.0120221 8.6574e-22)
(1.08864 0.0288516 9.09068e-21)
(0.0553975 0.114999 6.10563e-20)
(1.04226 0.0339173 -2.62138e-21)
(0.752916 0.15569 0)
(0.955243 0.0564724 0)
(1.09941 -0.0491732 -1.49612e-20)
(1.00413 0.0383646 0)
(1.26541 0.239207 3.94791e-20)
(-0.169832 -0.00630209 -3.87069e-20)
(1.10128 -0.0474238 -8.52156e-21)
(0.513478 -0.244897 0)
(1.01444 0.0223003 0)
(0.965561 0.226208 0)
(0.974858 0.00560405 0)
(0.70939 0.101681 3.41615e-20)
(0.880913 0.194837 -5.84176e-21)
(1.0097 0.0129384 3.57753e-23)
(0.986153 0.0259397 1.11555e-21)
(1.16762 0.303291 2.27432e-20)
(-0.0399713 -0.00955393 -2.14507e-20)
(0.9745 0.00600534 0)
(0.863777 0.0491362 -2.47645e-20)
(0.294381 -0.0225645 0)
(0.294537 0.620725 0)
(1.00604 0.00879941 0)
(0.425418 0.158091 1.43008e-22)
(0.994772 0.0157272 -2.86245e-21)
(1.12516 -0.0445382 -1.15489e-20)
(1.04609 0.087347 1.12336e-21)
(1.0415 0.0340104 1.92973e-21)
(0.969017 0.00291351 1.2374e-20)
(0.991654 0.01756 5.17227e-21)
(1.11628 -0.0325189 -1.02839e-21)
(0.968615 0.049643 4.8275e-20)
(0.583527 -0.0480829 0)
(-0.197616 -0.00802207 1.09437e-19)
(1.02747 0.000471866 -2.00543e-23)
(1.06044 0.687615 0)
(1.01589 0.0787138 0)
(0.72986 0.217035 0)
(1.00179 0.0302037 -7.48401e-22)
(1.01311 0.0175438 -1.49215e-22)
(1.01067 0.0126431 0)
(-0.268345 0.000201802 0)
(0.989188 0.00617312 1.59634e-21)
(0.852131 0.00432224 1.29e-20)
(1.08619 0.185616 -1.4664e-20)
(1.01122 0.0244196 -4.97737e-22)
(1.06169 0.0245833 4.58879e-21)
(1.14929 -0.113388 -1.58303e-20)
(0.110144 0.00567679 0)
(0.965335 0.034009 -2.48569e-21)
(0.193574 -0.00403485 -1.08376e-20)
(-0.255358 -0.00358655 0)
(1.00981 0.012739 0)
(-0.0249882 0.00403644 0)
(1.01997 0.0137539 0)
(0.917208 0.119715 0)
(1.10331 0.00917009 0)
(1.14039 -0.0695562 0)
(0.232492 0.978952 4.64173e-20)
(1.22009 0.152728 -2.92886e-20)
(1.21157 0.0443287 0)
(0.232394 0.154861 6.86232e-20)
(-0.150348 0.00454634 0)
(1.10476 -0.076492 -1.12386e-20)
(0.353905 -0.0124798 8.3722e-21)
(0.999362 0.00750908 0)
(0.999845 0.00149859 0)
(1.08698 0.265622 -1.07401e-20)
(1.12306 0.0105797 0)
(-0.202756 -0.00544064 -9.99059e-20)
(1.04233 0.0326451 2.17105e-23)
(0.175612 -0.0491718 -1.65504e-20)
(0.973924 0.0187275 -1.21779e-20)
(1.06733 -0.00528604 -9.29678e-21)
(1.14779 -0.046561 1.28494e-20)
(1.00609 0.00872317 3.05241e-22)
(1.04361 0.1163 5.48691e-21)
(0.466679 0.0576231 -4.9459e-20)
(0.996587 0.088521 2.59345e-21)
(1.2175 0.43367 4.09472e-20)
(0.282701 -0.0207442 0)
(0.692529 0.609134 1.10038e-20)
(0.491413 -0.665951 -2.95406e-20)
(-0.0615419 0.00486001 2.67652e-20)
(0.0726257 -0.651461 0)
(1.00888 0.0135227 3.5177e-22)
(1.01256 0.0070617 7.66247e-22)
(1.08432 0.0652009 9.7597e-21)
(1.01411 0.0220664 1.1502e-22)
(1.02586 0.072278 0)
(1.00392 0.0378202 0)
(1.1124 -0.0570795 -2.47468e-20)
(0.97589 0.0638595 0)
(1.10047 -0.0499071 1.82652e-21)
(1.09131 -0.00269636 0)
(1.08195 -0.0193747 -8.04761e-21)
(-0.292439 -0.000366885 0)
(1.13531 0.0728367 -1.70671e-20)
(1.13492 -0.0137647 9.53466e-21)
(1.01926 0.0510359 7.45524e-23)
(0.0961772 -0.0504485 0)
(0.106912 -0.0372098 -7.53816e-21)
(1.01573 0.0252099 0)
(1.00008 0.000529396 -5.76051e-22)
(0.226634 0.139401 -2.99994e-20)
(0.233296 -0.00266393 8.78819e-21)
(1.06248 0.0648284 0)
(0.974397 0.00491025 9.17395e-21)
(0.0316517 -0.00657138 0)
(-0.179976 -0.0137805 2.478e-20)
(0.452567 0.480572 -4.89733e-20)
(0.00187375 0.00442881 -1.47348e-20)
(0.931544 -0.0104337 0)
(1.055 0.0936712 7.51071e-21)
(1.02909 0.20004 0)
(1.11336 -0.0727909 0)
(0.987736 0.0284265 0)
(1.00006 0.000496893 3.39492e-23)
(0.780822 -0.0908114 0)
(1.17071 -0.0142217 -4.41837e-20)
(1.1035 0.0101437 -8.95071e-21)
(1.02848 0.0689736 0)
(1.22815 -0.039203 0)
(0.761684 -0.0424597 -5.31272e-21)
(0.999872 0.00140066 3.68781e-22)
(1.01264 0.00684609 0)
(-0.184585 0.00418937 0)
(1.11795 -0.0570436 -7.10517e-21)
(1.12506 -0.043397 -1.18933e-20)
(0.866296 -0.0469719 9.54806e-21)
(0.226736 -0.738106 -8.41094e-21)
(1.11435 -0.0729478 0)
(0.111059 -0.0199546 0)
(0.0619606 -0.00760544 0)
(1.16117 -0.0245416 0)
(1.27268 0.069667 -2.26739e-20)
(0.994923 0.0153451 -7.8853e-21)
(0.999556 0.0414328 -2.6158e-21)
(1.15618 0.152469 0)
(1.01616 0.0255028 -1.37962e-22)
(1.09618 -0.0487531 3.11575e-21)
(1.00077 0.344364 0)
(1.30035 0.23168 -8.65382e-21)
(0.977244 0.0640949 -2.37251e-21)
(0.450872 -0.0950555 0)
(1.20668 -0.0320325 3.07691e-20)
(1.00989 0.0268718 0)
(1.20863 -0.0310616 -3.96709e-20)
(1.0133 0.0105117 -2.76617e-22)
(1.06146 0.0187507 2.16435e-21)
(0.755508 0.892349 1.78284e-20)
(0.407507 0.0258973 8.54718e-20)
(0.169505 -0.0497333 -1.59876e-20)
(0.862904 0.115956 0)
(0.344891 -0.0617494 0)
(1.00865 0.0133222 -6.34153e-22)
(1.01669 0.355813 0)
(0.0877161 -0.0130155 1.00516e-20)
(0.804267 -0.105878 -2.67068e-20)
(1.00311 0.00591668 0)
(1.02219 -7.81671e-05 -1.56041e-21)
(-0.126018 -0.0215212 0)
(0.837519 0.0425169 5.36545e-20)
(1.0426 0.0333052 2.70288e-21)
(1.00238 0.00146489 7.33205e-22)
(0.974074 -2.62956e-05 0)
(1.01539 0.0255239 -7.07223e-23)
(-0.131415 0.00116305 0)
(0.636243 0.0122224 1.00201e-21)
(1.0351 0.0153833 -2.73792e-21)
(1.04021 0.000240547 7.28803e-21)
(-0.23477 0.00160304 0)
(1.11206 -0.0562083 1.24583e-20)
(1.00027 0.041262 2.74917e-21)
(1.01284 0.0080066 0)
(1.00123 0.0302179 0)
(1.11082 -0.0103627 -2.49871e-20)
(1.10009 0.0663972 -7.71775e-21)
(1.01838 0.0784115 -2.4161e-22)
(1.20899 0.0439094 0)
(-0.310468 -0.00017501 5.45644e-20)
(0.92877 -0.119048 1.65768e-20)
(0.946806 0.0219875 -7.92898e-23)
(1.00317 0.00583405 1.03168e-23)
(0.995859 0.0152668 1.84822e-21)
(1.07985 0.00826205 1.19091e-20)
(1.03375 0.166996 -4.3022e-21)
(0.999878 0.00138165 -9.16707e-22)
(-0.0801241 -0.0283122 -9.69047e-21)
(0.0139813 0.00898318 -2.90341e-20)
(0.97983 0.0799963 0)
(0.994276 0.00051035 0)
(1.01333 0.0252868 0)
(1.11318 -0.0452139 1.95873e-20)
(0.427931 0.238869 -1.34219e-19)
(1.03146 0.000143874 -1.67621e-21)
(0.975776 -0.00307854 -8.85352e-21)
(-0.173813 -0.01073 1.22182e-20)
(0.98988 0.057859 6.83081e-21)
(1.01056 0.097879 1.40291e-22)
(0.431294 -0.139477 3.81676e-21)
(1.03468 0.0155308 0)
(0.486825 -0.240197 -9.98937e-20)
(-0.157582 0.005637 6.25574e-20)
(1.03811 0.25457 -8.57826e-23)
(0.994138 0.00071918 2.88103e-24)
(1.00457 0.0760305 -2.13503e-21)
(-0.225376 0.00399376 -4.12076e-20)
(0.677147 -0.0260645 0)
(0.986421 0.0263475 6.25483e-22)
(-0.154619 -0.00702338 0)
(1.00213 0.0163686 -2.23362e-21)
(-0.215201 0.00484438 4.33311e-21)
(1.14774 0.0924782 0)
(1.07151 -0.018272 -3.37481e-21)
(0.991893 0.0485716 2.31118e-21)
(1.03263 0.000253711 -6.31227e-21)
(0.23163 -0.00307824 -5.74574e-21)
(1.00303 0.00358355 0)
(0.872931 0.236381 -1.13101e-20)
(-0.0423239 0.00381516 5.98916e-21)
(0.943923 0.175549 -2.19075e-21)
(1.03702 0.0200644 -3.18153e-21)
(0.775636 -0.088927 -4.97305e-20)
(-0.299284 -0.00255777 0)
(1.0966 -0.00200339 2.66243e-20)
(-0.342604 0.000893357 0)
(0.978975 0.158072 0)
(0.273569 -0.0465672 1.68326e-20)
(-0.158607 -0.0342991 4.64076e-20)
(-0.241364 -0.00729514 -6.19828e-20)
(1.00309 0.00349286 1.61691e-22)
(1.26704 0.262805 0)
(1.00915 0.073933 -8.00966e-22)
(0.974155 -0.000574636 -4.86433e-21)
(1.01268 0.0114214 0)
(1.01359 0.010591 -3.25367e-22)
(-0.231331 -0.000476351 0)
(-0.171826 -0.0073003 -1.12636e-19)
(0.419296 -0.0933377 -6.07292e-21)
(0.873647 0.25065 0)
(0.322297 0.101367 3.71336e-20)
(1.00015 0.0200438 2.41107e-21)
(0.962965 0.0868104 0)
(1.00222 0.0032386 1.51103e-21)
(0.991642 0.0210749 -3.37487e-21)
(0.823839 -0.0420718 -1.06918e-20)
(0.756916 0.825343 -6.8242e-21)
(1.27581 0.0678204 0)
(1.00002 0.000744134 1.2846e-21)
(-0.0668749 -0.0308222 -8.35035e-21)
(0.704782 0.0945663 -2.21681e-21)
(0.0439011 -0.00155527 -2.6492e-20)
(1.1006 -0.0488371 1.48954e-20)
(0.877844 0.0505775 1.76046e-20)
(1.1011 -0.0484692 0)
(1.108 -0.0659951 0)
(0.0808774 0.00554351 0)
(-0.339946 0.00257193 4.82744e-20)
(1.11514 -0.0446467 -2.18543e-20)
(-0.292973 0.00158409 2.26228e-20)
(1.0005 0.0139221 0)
(0.786843 -0.0436095 1.2017e-21)
(1.01219 0.00565313 4.34551e-20)
(1.10784 -0.0556093 0)
(0.453352 -0.0554873 -1.21299e-20)
(0.568694 -0.0476602 1.81717e-22)
(0.533649 0.0240651 -4.28398e-20)
(1.14634 0.0165187 1.8681e-20)
(0.549573 -0.0511979 2.70908e-21)
(0.842887 -0.0398484 -1.1975e-20)
(0.574796 0.196689 6.96615e-20)
(0.541201 0.940405 4.32619e-21)
(1.073 -0.000159685 -6.43894e-21)
(1.00206 0.00446435 -7.77845e-22)
(0.994266 2.45203e-05 -2.81893e-22)
(1.00225 0.00316785 -4.37854e-22)
(0.272413 0.00542379 2.82852e-21)
(1.17101 0.263132 -5.62964e-21)
(1.05313 0.0934773 6.56445e-21)
(1.03313 2.66001e-05 0)
(1.01456 0.012595 -1.44971e-21)
(0.991399 -0.001278 2.8386e-21)
(1.31712 0.169605 -4.27859e-22)
(1.01097 0.0127702 -1.69804e-22)
(0.247825 0.00905817 5.62997e-23)
(1.10582 -0.0537054 1.37171e-20)
(-0.179438 -0.00419232 0)
(1.03678 0.0195687 3.83897e-21)
(1.10074 -0.0477556 -8.60538e-21)
(-0.234443 0.00215384 -1.65514e-20)
(1.0069 0.0128239 0)
(-0.240101 -0.00707952 0)
(0.945707 -0.109205 0)
(0.271205 -0.00749548 -2.3596e-21)
(-0.111435 -0.0087269 0)
(1.00007 0.000493259 1.06193e-21)
(0.92333 0.109424 -2.47359e-22)
(1.13964 -0.0531884 0)
(1.00646 0.0469267 0)
(1.11715 0.121689 -7.94618e-21)
(0.897567 -0.0555563 9.86353e-21)
(1.06194 0.0181391 0)
(0.890627 0.0433498 -5.86794e-20)
(-0.162017 -0.0165286 3.79347e-20)
(1.2406 0.0120804 1.93881e-20)
(0.999054 0.0282205 -2.64596e-21)
(1.01192 0.00839897 0)
(0.426371 -1.0566 -3.77685e-20)
(0.975016 0.20636 -4.11004e-21)
(1.29714 0.0155593 0)
(1.01748 0.0793821 2.69258e-22)
(1.11017 -0.0577953 -2.5558e-20)
(0.704113 0.109416 -8.14474e-20)
(1.17251 0.040403 0)
(0.0226262 -0.00205954 -2.64212e-20)
(1.2588 -0.0245858 1.18321e-20)
(1.11138 -0.0039857 4.94037e-21)
(1.21719 0.153837 -9.28643e-21)
(0.994381 0.00168437 0)
(1.00006 0.000469447 -6.01015e-22)
(0.994165 0.00160302 -9.74423e-22)
(1.16508 0.255902 -1.41001e-20)
(0.498666 0.941983 0)
(0.966837 -0.119479 0)
(1.11617 -0.00233369 -1.49169e-21)
(1.13051 0.137504 9.25199e-21)
(-0.217153 0.00515571 -9.20286e-21)
(1.15496 -0.0497821 -1.66994e-20)
(1.10071 -0.00132494 1.64811e-20)
(0.930421 -0.00868108 0)
(1.27423 0.0676858 0)
(1.02235 0.0164206 1.92318e-21)
(0.953201 0.00219848 1.40082e-20)
(0.967625 -0.00557771 -6.3861e-21)
(-0.278527 0.00115122 -1.95101e-20)
(0.944536 0.0178381 -2.70638e-21)
(1.00047 0.0202386 -2.78368e-21)
(1.04696 0.0178483 0)
(1.01294 0.000651172 -1.42196e-22)
(1.15786 -0.0452296 0)
(0.969713 -0.00390613 0)
(1.00243 0.00318984 0)
(1.00204 0.00434342 0)
(0.66481 -0.000200418 0)
(1.01343 0.0220753 0)
(1.0077 0.000145639 3.36462e-22)
(-0.154136 -0.0162376 -2.5539e-20)
(1.01493 0.0252504 2.40957e-22)
(1.07072 -0.018059 0)
(0.241086 0.00607339 -1.58852e-21)
(0.0370227 0.185906 -7.32742e-20)
(1.01218 0.00847636 0)
(1.23439 0.340906 0)
(0.823293 -0.107659 3.54933e-20)
(0.0823573 -0.00939205 0)
(1.01134 0.0120861 -1.33929e-22)
(-0.146326 -0.0185526 9.38496e-23)
(1.02246 0.0167304 -2.31417e-21)
(0.450599 0.226533 0)
(1.03109 -0.000314169 -4.28186e-22)
(0.141727 -0.146878 0)
(1.27817 -0.0213798 0)
(1.17096 0.298475 2.91439e-20)
(0.999493 0.0280951 0)
(-0.230639 -0.00140319 -4.95878e-20)
(1.01039 0.0959422 0)
(1.01409 0.0171381 -4.22158e-22)
(1.01276 0.00728872 -1.27684e-21)
(0.888623 0.0554601 -1.97926e-22)
(-0.32911 -0.00110386 1.4964e-21)
(1.05598 0.06405 0)
(1.00258 0.00164747 -4.74449e-22)
(0.085545 0.00441585 1.13226e-20)
(1.05948 0.0102269 7.51715e-21)
(1.10014 0.0406861 1.27906e-20)
(0.391186 0.402238 1.50914e-19)
(1.01196 0.0121536 3.94189e-22)
(0.992044 0.0209118 1.69694e-21)
(0.399651 0.387214 2.73242e-20)
(-0.320393 0.000599086 0)
(1.01937 -0.00027732 -1.70553e-21)
(0.9912 -0.00104725 1.64649e-21)
(0.252671 -0.00561044 1.72964e-20)
(-0.326732 0.00397108 -4.49849e-20)
(1.1102 -0.0587593 1.16122e-20)
(1.01868 -0.000137673 -2.43467e-21)
(-0.299115 0.00451995 -2.92377e-21)
(0.0274156 0.00151655 -8.64836e-20)
(-0.328736 0.000699645 8.38061e-21)
(1.01294 0.0106928 2.85717e-22)
(1.19177 0.103657 -4.95408e-20)
(1.00649 0.0127709 5.37959e-22)
(1.02269 -0.000386431 -1.6788e-21)
(1.08032 0.0708669 3.82007e-23)
(1.11689 -0.047174 -1.14828e-20)
(-0.0340262 -0.0370135 3.2478e-20)
(1.02245 -0.000328099 1.64896e-21)
(0.943052 0.0144687 -6.12109e-21)
(0.995769 0.000641289 6.09037e-21)
(1.03227 0.000106328 7.70805e-21)
(0.0994671 0.00375453 0)
(-0.35159 0.000866226 1.21561e-20)
(1.28199 0.102384 -2.82787e-20)
(0.810129 0.198443 3.4881e-20)
(0.241671 0.00927991 -5.28311e-20)
(1.00792 0.00488901 -2.58429e-22)
(-0.157503 -0.0118092 -1.2173e-20)
(0.290381 -0.444606 0)
(-0.11692 0.00237737 0)
(0.996006 0.0900004 -1.3366e-21)
(-0.187146 -0.00700447 -2.29189e-20)
(1.00193 0.0416512 -1.35266e-21)
(1.02652 0.0334436 -1.65714e-21)
(0.962564 0.105685 0)
(1.00159 0.0538946 1.83503e-21)
(1.12025 0.0570225 5.36242e-21)
(1.00567 0.0125216 5.90478e-22)
(-0.35077 0.000562793 -1.41912e-21)
(0.309785 -0.0409508 0)
(0.0345294 -0.148201 7.25762e-20)
(0.663013 -0.220166 4.72191e-22)
(1.00453 0.0746343 3.76825e-21)
(1.11093 -0.056841 -6.22637e-21)
(0.419526 -0.194571 9.88733e-20)
(1.22671 0.154897 -2.97937e-20)
(1.01545 0.00236658 4.57428e-22)
(-0.289214 0.00536875 0)
(0.0232936 -0.00655982 0)
(0.996184 0.0151936 3.11287e-21)
(1.09811 0.481477 9.76837e-21)
(0.991316 -0.000615728 -7.32831e-21)
(1.08178 -0.0146459 -8.61336e-21)
(0.261993 -0.00667298 -2.09085e-20)
(1.14547 0.2603 2.00842e-20)
(0.999879 0.00145049 -6.4937e-21)
(-0.325088 0.00227766 8.52704e-20)
(0.995921 0.000530466 -8.21836e-21)
(0.155217 -0.00495334 0)
(0.879287 0.414603 3.94862e-21)
(1.10831 -0.0621125 1.20177e-23)
(0.785407 0.295084 2.6062e-20)
(1.10098 -0.000432783 -1.37454e-20)
(1.17041 -0.0156415 3.71105e-20)
(0.613709 -0.0918078 5.42896e-20)
(1.0315 -0.000183525 1.77643e-21)
(1.10285 -0.0521523 1.77918e-21)
(1.14797 0.0550594 1.21017e-21)
(1.24061 -0.0477845 5.71327e-20)
(1.10292 0.128897 -2.91591e-21)
(0.869251 -0.0554882 0)
(0.54384 -0.0305958 -1.47329e-20)
(0.990584 0.000365757 1.68589e-20)
(1.00061 0.0164179 -1.20335e-21)
(1.01378 0.022314 5.88266e-23)
(1.003 0.0314357 -7.47971e-22)
(1.13629 -0.0135662 0)
(0.998257 0.00697104 0)
(1.03183 0.000296681 -8.84769e-22)
(-0.205679 0.00967886 0)
(0.443357 -0.144892 0)
(0.715215 0.0176153 3.19265e-20)
(-0.307465 0.00034527 -2.42362e-20)