/*--------------------------------*- C++ -*----------------------------------*\
| =========                 |                                                 |
| \\      /  F ield         | OpenFOAM: The Open Source CFD Toolbox           |
|  \\    /   O peration     | Version:  v2012                                 |
|   \\  /    A nd           | Website:  www.openfoam.com                      |
|    \\/     M anipulation  |                                                 |
\*---------------------------------------------------------------------------*/
FoamFile
{
    version     2.0;
    format      ascii;
    class       volScalarField;
    location    "200";
    object      ddt0(k);
}
// * * * * * * * * * * * * * * * * * * * * * * * * * * * * * * * * * * * * * //

dimensions      [0 2 -3 0 0 0 0];


internalField   nonuniform List<scalar> 
27802
(
3.92205e-08
4.21911e-11
8.97516e-10
-2.47953e-08
-3.23592e-08
-0.000890907
-3.45394e-08
-3.19904e-07
9.23085e-09
1.23595e-05
0.00236493
-6.90433e-06
8.88624e-08
-1.10492e-07
0.000865763
5.02791e-06
-0.000127258
1.3192e-08
0.00225578
-0.000384265
-0.000702017
0.000898034
-2.23248e-09
2.29405e-08
2.66915e-05
-2.91468e-08
5.67581e-10
-1.21266e-07
8.3568e-09
8.35362e-06
-2.12699e-08
-1.25926e-07
3.48186e-08
-5.92247e-09
3.84426e-10
0.000125563
-3.11881e-06
9.96351e-09
-1.97493e-08
4.30871e-07
1.09041e-06
1.75956e-10
-5.8607e-08
-9.77847e-09
4.54995e-08
-0.000491124
2.84199e-09
1.73988e-06
-1.94426e-07
0.00055213
0.000358937
-1.21682e-07
0.0001853
3.68821e-07
-1.4777e-08
2.50566e-11
3.06078e-06
2.43941e-08
6.68924e-08
-1.44238e-07
0.000271351
6.1528e-10
8.97008e-08
5.47966e-09
-1.06067e-08
5.85241e-08
-0.000631201
2.68729e-06
-1.67072e-07
2.60167e-08
-9.00676e-09
-0.00118535
-0.00124959
-3.20563e-06
-6.01162e-09
2.2558e-08
-0.00087399
1.58388e-06
0.000322505
0.000226062
8.02328e-09
-7.35183e-09
1.49161e-06
6.98584e-08
4.48227e-08
-3.84681e-08
2.37442e-10
-0.000496724
0.000289813
-3.13004e-10
2.04061e-08
0.000494633
9.49383e-09
9.18268e-06
-0.000858485
-9.42319e-08
-9.26718e-09
-1.12363e-07
2.10515e-09
0.0019976
-2.1977e-08
-1.102e-09
-4.39222e-06
0.000266763
-0.00129025
1.66497e-07
-5.99174e-09
-1.04021e-08
-1.38268e-08
4.92868e-08
7.59173e-06
2.26957e-08
-6.95859e-09
5.26294e-09
-9.08075e-09
4.90878e-09
-4.16835e-08
4.63486e-06
-0.000244465
1.01662e-05
-0.000322125
-1.53924e-07
0.000337296
1.00853e-05
6.13959e-05
1.67705e-06
5.80523e-08
-5.82586e-08
0.000218037
-9.93056e-09
6.18464e-07
-1.96104e-08
2.88919e-08
9.80199e-06
0.000725807
4.60536e-09
-7.48281e-08
-2.95313e-07
1.69685e-08
2.27776e-08
1.30777e-07
8.2288e-05
2.7276e-08
2.60973e-07
1.04549e-08
-0.000181872
4.62176e-08
-2.9906e-08
-1.54651e-08
0.00225466
2.0192e-08
-0.008824
-6.06551e-08
0.000196972
6.75315e-12
0.000348918
2.69181e-09
-9.87861e-08
-1.08377e-08
-4.76732e-09
4.64424e-09
5.70546e-08
4.67444e-05
-4.88568e-09
5.42094e-10
1.42958e-10
-0.00115836
-3.58399e-08
2.26976e-08
-6.50241e-09
1.82637e-06
0.000520394
-0.000304714
0.026835
-1.83066e-08
-1.12489e-05
5.07975e-05
0.000475003
4.3225e-09
-3.76389e-09
7.20214e-06
-4.93237e-05
-0.000323391
-0.000197955
-9.82961e-09
2.24696e-06
-0.000139038
4.74329e-07
1.10236e-06
-7.53553e-07
-5.96921e-05
1.25501e-10
-5.47641e-09
-0.00015624
-2.40269e-08
7.94819e-05
-5.65737e-05
0.00225211
0.000169455
-0.00460202
-5.94007e-06
-3.83318e-09
2.59765e-08
-4.59731e-08
-8.46246e-05
6.88456e-08
-3.6636e-08
1.50576e-08
-9.5227e-07
3.54914e-09
-1.81159e-08
-0.00478828
-2.56135e-08
-0.00022555
-1.04664e-08
-9.89624e-10
5.9052e-07
-2.35833e-08
1.52145e-08
3.32742e-10
-0.00087875
-3.64231e-08
-3.2477e-08
-4.32513e-06
-3.61202e-08
8.15164e-06
9.67079e-09
-2.54868e-08
-6.01371e-09
-3.61294e-08
7.03674e-09
-5.67264e-08
1.836e-06
3.08508e-10
1.33573e-10
0.000147034
1.59764e-07
5.52705e-06
5.75987e-08
-7.57553e-07
-0.000554437
-0.000266781
-1.97477e-05
-0.000905858
-0.000533727
-4.39499e-08
4.67837e-09
2.52124e-06
-1.02938e-08
1.22844e-10
6.52693e-07
2.11596e-09
-9.39523e-07
-1.76258e-08
-0.000444706
-0.000975766
-5.27475e-08
-7.25501e-07
3.35636e-08
-3.71775e-09
2.14231e-09
0.000473101
-0.000267324
8.23088e-07
4.18541e-08
-4.35039e-08
7.40697e-09
1.74849e-06
-0.00103619
-1.1068e-07
1.37501e-05
-7.15472e-08
-0.000472739
-4.71724e-09
2.22704e-09
1.34897e-10
-2.38356e-08
-2.90829e-09
-3.33419e-09
-0.000947825
-7.15395e-09
-1.33054e-09
-1.43989e-05
-3.23029e-06
-0.000139818
1.37137e-08
0.000476654
-3.50323e-09
6.53035e-07
0.000181184
-2.64851e-05
0.000390607
0.00042328
5.08944e-08
-4.87144e-09
5.37718e-08
-6.30274e-09
0.000272517
-1.9359e-06
-1.08504e-07
0.000127549
8.42963e-08
0.00062404
0.683681
0.000238133
-3.64524e-09
5.12711e-07
2.92536e-08
0.000355701
-2.08924e-10
0.000598922
-8.82644e-07
-0.000108781
2.34413e-08
-0.000227299
6.95302e-05
8.07746e-08
7.11001e-09
-1.12564e-07
-0.000179286
8.43018e-10
-4.33357e-10
6.60399e-07
0.000593389
0.000218432
1.20151e-08
8.72042e-07
-9.5243e-07
-0.00465561
2.4134e-09
-3.75793e-05
-5.85814e-09
-4.67679e-09
4.27934e-07
5.0782e-05
1.17777e-08
2.04763e-08
-1.77061e-11
-8.46968e-07
2.22466e-08
1.11115e-08
-7.59103e-06
-5.07701e-08
-1.37797e-05
-5.93019e-06
0.00010979
-4.45419e-08
1.19106e-08
-4.86498e-08
3.7949e-09
-4.41179e-07
4.18496e-06
-9.11953e-09
-5.57139e-07
2.4264e-08
2.36207e-09
3.73793e-10
9.99287e-09
-0.000506586
-4.16702e-09
3.9471e-06
-0.000545179
0.000428055
-8.68991e-09
5.20423e-09
2.12976e-09
-0.000267754
-4.72821e-09
-1.08429e-05
-2.93113e-09
9.948e-07
4.60228e-07
1.77025e-05
-7.09594e-08
-1.8656e-08
-2.37212e-08
-9.58866e-07
2.4491e-08
1.12506e-06
1.49352e-08
4.42025e-08
-3.72365e-09
-3.39037e-08
2.86865e-10
-5.23605e-09
3.17477e-07
-6.83466e-08
-1.78115e-07
-0.000297386
-3.84247e-06
-4.26788e-08
9.08797e-05
-2.9766e-08
-3.47094e-08
-5.68962e-08
-2.05947e-08
-3.70768e-09
-0.000677383
0.000462977
-0.000365643
-5.32718e-07
-0.000250628
-1.30613e-09
-1.75763e-09
-3.692e-06
-0.00011253
-3.93363e-09
1.48827e-08
4.93974e-07
-6.07468e-08
-2.27756e-09
-1.21236e-07
-0.00527983
-0.00107197
0.00088036
0.000493329
2.28843e-09
-0.000132872
-1.3331e-09
-1.07471e-05
-1.78259e-08
-6.7869e-07
2.36412e-10
-3.67163e-08
-1.78384e-08
-9.89486e-09
-1.31127e-07
-4.56174e-08
2.07853e-08
1.39394e-07
1.62169e-08
9.7988e-09
-5.13323e-06
0.00151598
-4.56895e-07
-0.000122092
4.60002e-07
1.87529e-06
3.68465e-07
-3.63437e-08
1.34173e-07
0.000513577
-7.5822e-08
2.50484e-08
-6.98829e-07
1.04385e-08
-2.54005e-07
-6.0865e-08
6.19014e-09
2.34745e-09
-0.000322172
0.000520819
-6.08087e-08
-8.48236e-10
-0.00109701
-3.74533e-09
-0.00463107
-4.70995e-09
4.54759e-08
-4.75809e-08
-0.000257203
2.25601e-08
-2.30524e-09
0.00296874
8.27989e-09
1.21783e-07
-0.000210673
-1.09684e-07
2.15911e-08
0.000134395
8.89188e-07
2.90071e-08
-0.000529685
-3.90546e-06
7.28058e-08
-1.357e-08
4.55752e-09
0.000504593
-4.08101e-09
8.74557e-06
-2.14765e-08
-1.57396e-08
-0.000142005
-0.00107902
3.71055e-10
-1.5694e-09
1.45312e-08
-2.4546e-08
-2.5311e-08
-3.7223e-08
-4.37901e-09
-2.02737e-07
-2.37894e-08
1.04519e-07
0.00179393
1.75027e-09
-6.54814e-07
-0.000390259
1.44403e-08
-3.38922e-08
-8.29243e-09
2.36956e-10
-0.00318035
-9.06211e-06
6.7068e-08
-0.000184625
-0.00140951
2.20527e-08
-0.000315093
9.22241e-09
-1.17653e-06
8.31547e-08
-3.53565e-08
4.21393e-10
-1.768e-08
-6.09525e-08
-1.55558e-05
-0.000222122
1.11446e-08
-0.000307469
-0.00259616
1.23945e-06
2.33442e-08
2.18701e-08
-0.000141517
-1.69272e-07
3.12968e-10
-4.99416e-08
2.40711e-08
-7.5757e-05
-9.14041e-07
0.000337046
3.21386e-08
2.82534e-08
-8.50178e-06
2.10858e-08
9.12566e-09
4.49467e-09
0.00161198
-7.83835e-09
-0.000120343
1.4899e-08
6.49081e-06
-4.34633e-06
-0.000479479
-9.60129e-09
2.29884e-08
-0.000378222
7.74954e-08
2.87206e-09
-7.06721e-08
-1.76815e-08
-5.20791e-08
1.53426e-08
0.000147236
9.05537e-08
-0.000714293
-0.00482789
3.9847e-06
1.54672e-08
-0.00104363
-2.86846e-07
-4.06576e-08
2.6449e-07
8.91912e-05
4.59978e-10
-6.71037e-09
-4.68794e-09
-0.00121384
-2.37678e-08
4.23098e-09
-3.01261e-09
4.40122e-08
-8.63211e-06
-1.88317e-08
-9.02397e-06
1.4271e-08
-3.53293e-08
-1.59e-07
1.0096e-07
0.000111443
0.000399663
0.000452434
1.48877e-08
7.72169e-09
3.20632e-09
-0.000700077
-4.21327e-09
0.000296522
0.000236497
3.10833e-06
-0.000324199
-0.000412529
-3.06518e-10
3.7824e-09
-0.00037012
-1.39269e-06
-9.59603e-09
1.98293e-10
-0.000355062
-3.8758e-06
0.00284293
-0.000263113
4.37741e-06
6.83666e-08
1.22234e-05
-2.46539e-06
-7.68814e-10
-0.000632868
-0.00115657
3.00513e-08
-2.09368e-06
-0.00150383
3.98592e-09
4.92205e-07
-2.03787e-09
-4.09762e-07
-1.15735e-08
-4.2461e-08
-6.24517e-08
-1.10548e-06
-0.00443083
-1.39272e-06
0.000449046
-7.43269e-08
0.000304626
9.75543e-11
6.62221e-08
-4.51356e-08
-3.73017e-06
2.28971e-08
4.94679e-06
7.49617e-09
1.24178e-07
-1.85138e-06
-1.9713e-08
2.05542e-08
-8.38898e-08
-5.21597e-07
-4.67181e-07
-0.000274468
2.65385e-08
-0.00284417
0.000733575
-0.000456861
-5.24225e-08
-7.3062e-08
-4.4585e-05
-1.75007e-05
2.82454e-08
-8.81347e-09
6.30673e-06
1.11879e-06
1.92094e-08
-7.28706e-06
6.0872e-10
3.89305e-06
4.82003e-07
1.0283e-10
-1.25781e-09
3.35081e-06
0.00016502
4.67917e-08
-2.0953e-08
2.10966e-06
5.28779e-10
7.23777e-08
0.000296463
-6.24691e-09
1.32329e-07
-1.95824e-08
-1.80785e-08
2.1912e-08
0.000503173
-7.64675e-08
-2.24733e-09
0.000257952
-2.29795e-08
-1.08363e-08
3.89609e-05
3.52515e-11
0.000464706
-1.24657e-08
1.74342e-08
-6.70638e-09
6.36144e-09
-2.59792e-05
-0.000227602
-0.00452289
4.99551e-09
-0.000264982
-0.000285465
5.54693e-09
-0.000546925
4.61602e-07
2.37948e-10
-5.04614e-09
6.34342e-09
4.79869e-08
-0.000187098
-9.97871e-09
7.3116e-11
-5.33603e-06
-0.00363294
-4.80918e-09
-1.11689e-05
-0.000318762
0.000276894
-1.77488e-08
-7.27934e-08
4.6476e-11
6.89331e-08
2.56295e-07
6.00841e-09
5.18952e-08
1.53967e-10
-6.28434e-08
3.12407e-08
-0.00466938
8.39723e-06
-0.0010259
5.04649e-08
8.05776e-07
-1.19286e-07
9.50044e-09
2.9098e-09
1.90902e-08
-8.95418e-07
-1.35512e-07
-0.00187677
3.87683e-05
-0.000569914
-9.93166e-09
-0.00017021
1.64927e-08
-3.13057e-09
-5.13638e-07
8.17692e-09
-7.44204e-07
-0.00273744
9.37915e-05
4.18819e-06
0.000497438
7.07415e-09
3.69784e-07
7.10915e-06
-4.10937e-08
-0.000357802
3.08468e-07
-7.81963e-09
0.000722013
2.13855e-09
-0.000408857
-0.0004957
-6.9779e-09
-1.43283e-08
0.000606005
-6.14756e-09
6.75629e-08
0.0229657
-6.98069e-06
-7.70661e-06
0.000910072
4.11339e-09
-4.37206e-08
2.74477e-08
6.4993e-08
4.98753e-09
-0.000104124
9.19265e-09
-5.14032e-08
-0.000292159
-0.000240744
-3.911e-06
-7.93407e-08
1.92259e-08
5.13089e-09
-0.00225665
8.51985e-08
1.19979e-08
-1.66332e-06
-4.47373e-05
1.50941e-06
2.74771e-11
3.99141e-09
-5.09961e-08
-2.12355e-08
-0.00162348
-3.45076e-07
6.87562e-07
-1.31125e-09
-4.96318e-06
5.41191e-10
-0.000835568
-3.64556e-08
-0.000643825
-2.91624e-07
-0.000299702
-3.31819e-09
-5.43686e-08
-0.000302958
-4.36592e-08
-1.1586e-06
-0.00177954
5.42949e-08
-1.55862e-06
-4.78528e-07
-0.000491929
1.57532e-08
-4.4972e-09
0.000317576
-2.03394e-09
4.72157e-09
2.26776e-06
-0.000123152
-4.04227e-06
-0.000134497
1.18033e-07
-2.63116e-09
-0.000315822
0.000946801
3.62853e-10
-0.00459585
2.95818e-07
0.000429455
-8.87617e-09
-5.87952e-09
2.73536e-08
-2.2312e-09
-6.71026e-07
1.80186e-08
1.22994e-07
-0.00016449
0.000740513
1.13743e-09
-5.52474e-07
2.27566e-06
-1.34273e-08
9.00042e-09
-4.10219e-08
1.70216e-06
0.000450762
-4.57939e-08
2.73146e-09
-7.68091e-10
1.62316e-08
0.000290836
3.93258e-08
4.9134e-06
-7.02382e-06
0.000671639
-3.68688e-08
-0.000759176
0.000534324
-5.57312e-08
-0.000200928
1.7776e-08
4.25036e-09
-9.59761e-06
6.37363e-10
-0.000686944
0.0568935
0.000479159
3.94183e-08
-0.000372451
-7.06083e-08
-0.00143027
1.66695e-10
0.000169573
1.11583e-07
6.18762e-06
5.61195e-08
1.95238e-09
-7.6439e-08
-5.03221e-09
0.00259134
2.63155e-08
-5.99407e-09
-3.12007e-07
2.78957e-07
-7.22442e-08
0.00146627
1.31929e-06
1.60578e-07
0.000139686
-2.658e-08
-1.86826e-07
3.61088e-05
8.49057e-09
2.01365e-11
1.72895e-07
1.01107e-07
0.00406254
-3.45689e-07
-2.91706e-09
3.30112e-06
2.62324e-08
-6.04625e-10
5.54319e-08
4.86327e-10
5.02636e-10
-6.67316e-08
6.84862e-10
-1.12758e-07
-2.49556e-08
2.66763e-08
-0.000210273
-1.0665e-06
-2.77571e-08
8.52475e-10
-9.55137e-05
2.73632e-08
1.09033e-06
9.28938e-09
2.86238e-06
-5.77962e-07
0.000272679
1.10122e-07
8.72963e-09
5.41494e-08
-3.43084e-07
-3.1434e-08
3.44674e-10
-6.37453e-06
9.47328e-11
-3.5176e-06
-1.98093e-09
6.78558e-08
6.2549e-05
0.000516959
8.31901e-09
-0.0010602
-9.96225e-06
1.52351e-06
-5.46954e-08
-2.07615e-08
4.55106e-05
-3.65643e-10
0.000350124
-2.94969e-08
3.3788e-07
-1.11355e-09
3.94596e-10
-2.52496e-08
0.000169131
-0.000684027
0.00193109
-0.000241028
1.13419e-05
-0.000100562
8.5307e-09
-1.23194e-08
1.90246e-06
0.000121491
0.000197464
-5.41453e-08
-4.10001e-08
2.17085e-09
1.94336e-05
-2.69791e-08
-0.00197222
-9.02394e-09
0.00414482
-5.60907e-09
-5.60185e-06
-5.71101e-09
-3.16728e-08
-1.17921e-06
7.29886e-09
-1.09773e-08
1.31244e-07
-5.36177e-08
-1.77798e-08
-6.65836e-09
-8.11376e-07
-3.50788e-06
-2.12542e-08
-1.04975e-06
-0.000501507
-6.71848e-05
2.85079e-07
-0.00151878
-0.000326289
-7.06266e-08
7.5412e-09
1.1993e-07
-2.2444e-06
-4.79086e-08
-0.000171245
0.000476472
1.23572e-07
0.00053637
-3.01872e-06
0.000136712
-1.01105e-10
-9.08915e-05
-0.00036978
-2.4587e-08
1.75401e-08
1.10125e-08
2.67838e-08
1.90114e-05
-4.39958e-08
5.42317e-08
-2.99739e-09
4.45141e-06
-1.46333e-09
-8.18685e-09
5.0396e-08
6.04451e-08
-0.000431263
6.99794e-08
-0.00127779
-5.24473e-09
0.00962782
1.03277e-06
-4.23161e-08
2.57827e-06
-1.13479e-08
0.000172183
0.000523629
-1.56949e-06
0.000332049
-1.45597e-06
-2.13767e-08
-4.96122e-08
-8.01082e-09
-7.00809e-08
2.96744e-06
0.000467598
0.000674054
9.5695e-11
3.56246e-09
5.1899e-08
-0.000296108
3.17077e-09
-2.44075e-09
6.62117e-09
1.69317e-09
8.67529e-07
1.72638e-06
2.40381e-09
4.91935e-09
-2.75985e-08
1.66885e-08
-4.1351e-09
1.63656e-09
2.75847e-07
1.43196e-08
-3.16563e-09
-1.76989e-09
-0.00190247
1.4606e-09
-2.3631e-08
0.000199573
-4.09679e-08
-6.3192e-09
2.50537e-10
-3.50689e-08
8.8613e-10
-2.86643e-08
7.61747e-09
-7.88085e-09
-0.00012617
0.000284838
2.18851e-08
-0.00143575
7.6923e-09
0.000229715
0.000444436
-3.27827e-08
-0.000179388
-3.99722e-06
-4.32285e-08
-2.56314e-08
-5.07806e-09
0.000473124
-1.03404e-07
-0.00076171
-0.00205786
3.13172e-10
1.18749e-06
-2.99525e-08
1.46497e-07
-2.3866e-08
1.13773e-06
1.28609e-11
5.05454e-06
-0.000718558
-2.84755e-07
-1.61353e-09
-0.000175919
-0.00022899
4.20892e-08
4.00852e-06
2.37234e-09
-3.40743e-09
-5.03658e-08
-8.76135e-09
5.90671e-08
0.000383409
-0.000331618
-7.15626e-11
2.92751e-09
-1.69333e-05
-6.85878e-08
6.89923e-09
2.10556e-08
-7.85701e-09
0.000261085
-7.85951e-09
-4.82974e-08
8.69216e-09
-0.000557041
-5.12868e-08
2.1133e-08
-0.000288181
-1.82077e-09
9.19099e-10
-4.06994e-07
7.02681e-08
6.50101e-08
-0.000120131
1.53975e-06
-0.000324624
1.85639e-08
-4.83836e-08
-9.56044e-10
3.30596e-07
0.00049031
-2.73627e-08
-1.02566e-07
-0.00360602
0.000372065
5.1578e-07
4.10396e-09
-3.68798e-09
-3.89274e-08
-0.000309724
0.000106538
3.26876e-08
-9.87654e-07
7.57303e-09
-0.000349879
2.76337e-09
2.11532e-08
0.000743949
-1.75635e-07
-9.78814e-05
-1.45401e-08
0.000713779
-0.000369268
3.11862e-10
8.70213e-06
1.45724e-10
-1.47466e-06
-8.48071e-09
2.37321e-08
-1.96406e-08
-3.56845e-06
2.54855e-09
-5.51398e-08
0.00027683
4.31091e-09
-0.000703812
7.13178e-08
5.28818e-08
-9.70966e-06
-9.91284e-11
0.000477937
6.9591e-08
2.49609e-09
-1.70132e-07
5.46379e-08
-3.02476e-09
-3.48653e-06
1.94761e-08
-1.65986e-10
0.000116268
1.16509e-08
2.91878e-09
-1.88486e-08
-0.00136825
-1.60615e-08
7.98827e-10
-4.51911e-09
-3.26757e-09
-8.66866e-09
-3.98655e-07
0.00030217
-2.24422e-06
4.12688e-06
-2.27545e-08
-2.53363e-09
-0.000100712
-0.00491262
0.000569532
-5.80267e-09
1.97725e-05
-1.15441e-06
1.91899e-05
-7.18202e-07
0.000589597
7.60916e-09
-3.77406e-05
3.99281e-05
3.14226e-07
8.85857e-09
2.99098e-08
9.93576e-07
-1.60986e-08
-2.99919e-06
-7.21398e-08
6.07642e-05
-0.00014766
-6.57419e-08
-1.07093e-06
-3.6449e-09
0.0350569
-9.66391e-05
1.39323e-08
2.4201e-08
-8.71143e-07
-2.38403e-08
-2.55715e-08
-0.00464184
0.000491181
-6.62961e-07
-4.69103e-08
3.35347e-10
-6.50222e-09
-1.28845e-08
1.75966e-09
1.50553e-07
1.89728e-08
-4.08308e-08
-4.48105e-05
-0.000348377
-2.94453e-09
9.26087e-05
7.45567e-10
6.83378e-08
0.000235007
-1.83366e-08
1.78946e-09
-5.71262e-08
0.000453049
-2.63122e-09
5.34941e-08
-5.11729e-09
0.000501688
-6.80466e-07
-0.000245907
0.000368187
-0.000114397
-3.41564e-06
-4.49369e-08
-8.98834e-09
-0.000389384
-0.000406611
-0.00304758
8.91054e-07
-3.81109e-08
0.000101312
2.42428e-07
-2.435e-05
-1.22851e-09
-3.08856e-08
-3.87745e-10
-0.000251099
-0.00417303
-0.000683734
4.91349e-05
6.88688e-09
-3.88588e-08
-9.49083e-05
-0.00105444
1.79982e-08
-2.00674e-07
0.000589262
4.80315e-08
4.53288e-07
0.000209203
1.17785e-08
-1.19259e-05
0.000444833
0.000412447
-4.33732e-07
-6.86345e-09
-0.000594774
6.36582e-08
1.07011e-05
6.71758e-06
-6.97506e-09
-0.000441393
-1.32003e-08
5.10379e-09
6.45423e-10
0.000482575
2.33825e-07
-2.77427e-08
-3.78713e-09
6.16991e-07
1.52636e-06
8.81767e-09
5.78806e-08
0.00542475
-4.54401e-08
7.41554e-09
-3.93759e-06
-7.44529e-08
2.12349e-08
-2.44535e-08
2.27074e-08
-1.3817e-09
0.0102082
-0.000327228
2.95277e-07
5.78679e-07
1.52126e-07
-9.03279e-06
-8.16098e-09
-5.13826e-08
1.07317e-09
-0.000605719
0.00407213
1.06339e-08
-2.96264e-05
-0.000285454
-2.3897e-08
-6.33692e-08
-0.000763898
0.00713327
8.91255e-10
0.000277299
0.000231675
-0.000281462
-5.22664e-10
-2.29201e-09
-0.000164897
-7.86243e-08
6.86578e-07
-0.000285442
8.64556e-09
0.00142684
4.89912e-09
2.50015e-08
-0.000399683
-1.82326e-09
8.07028e-10
7.23884e-10
-1.76328e-06
-4.5224e-10
0.000121146
-2.42667e-06
-5.72646e-08
-2.30444e-09
-3.17522e-09
1.45727e-07
-0.000628986
3.473e-07
-2.06799e-09
4.78313e-08
-9.48493e-05
1.12093e-08
-0.000653003
0.000131448
-0.000214146
6.2439e-07
1.21244e-06
3.34226e-06
-1.41151e-05
4.20413e-09
0.000259662
-7.33792e-08
-1.8126e-08
2.45172e-09
8.91873e-07
-6.87769e-08
7.49561e-10
1.20308e-06
2.13595e-07
-3.31141e-08
1.46537e-06
-5.12131e-08
-5.07999e-11
-9.38957e-09
-2.60423e-08
2.51008e-07
5.45818e-09
2.18463e-09
-1.52038e-08
-0.000431958
0.004449
0.00799338
-0.000197204
-0.000949988
8.58391e-09
0.000242663
-1.23969e-09
-4.86099e-08
1.19507e-08
-0.000639002
-9.54682e-09
1.02641e-09
9.06716e-09
-5.34728e-10
-1.20668e-08
-1.39717e-09
2.85416e-06
-0.000370838
-4.93995e-08
1.31179e-09
4.76629e-05
-6.54237e-08
-2.563e-06
-9.33951e-09
-0.000323009
3.10078e-10
-1.28347e-09
0.000888265
-6.51593e-08
4.20977e-09
0.000797559
0.00185387
1.94202e-07
1.88924e-09
1.73315e-07
-5.56635e-08
1.65126e-06
2.03434e-08
-3.85297e-08
-0.000385405
-0.00137459
-0.000439973
-1.24681e-09
4.12543e-08
-0.000591432
-0.000215963
1.04965e-05
5.57057e-09
-0.000149228
4.31616e-07
-9.55628e-09
6.48777e-08
1.06135e-08
-0.000325326
-3.90511e-07
0.00049828
-0.000117866
-5.30916e-08
6.71192e-09
-0.000924433
-0.000332355
6.28227e-08
-2.43241e-09
0.00246702
0.000104822
-1.59589e-08
-2.00306e-08
-3.1691e-06
5.06767e-05
-8.83178e-09
4.48331e-09
-0.00404111
2.13701e-08
-4.78234e-09
-3.68489e-09
-7.0207e-06
0.00225507
7.4053e-09
7.52097e-09
-1.65754e-05
-1.95829e-08
2.24199e-08
-0.000112924
0.000518384
-0.000305083
-0.000171861
8.80165e-10
-4.0271e-08
-6.66645e-08
2.05926e-06
-6.97381e-07
-2.89928e-06
0.000616408
-4.87578e-08
-3.0174e-09
0.00533035
1.38754e-09
4.14204e-08
5.12387e-05
-4.33804e-09
2.41899e-08
-0.000176314
-1.55066e-05
-4.07505e-08
0.000463699
5.42614e-11
7.05357e-10
-5.04373e-08
9.90062e-05
9.32707e-10
-4.8394e-08
-5.97284e-09
1.62966e-08
5.09342e-07
6.75825e-06
-3.70723e-06
8.64265e-11
-2.64947e-08
-5.36697e-09
-2.79442e-07
-0.000284992
-5.57327e-09
-0.00129154
-6.83719e-08
-6.90604e-08
4.97968e-07
-4.96826e-08
1.21415e-06
3.63338e-07
-8.56279e-10
-9.69833e-06
-2.94884e-08
3.44652e-09
6.41801e-09
-5.24282e-08
-2.64665e-09
-2.87334e-06
6.79012e-12
-0.000182647
-5.46073e-07
1.31614e-09
-5.07244e-09
1.04537e-06
-8.6404e-09
4.24746e-09
-7.31868e-09
3.29508e-10
6.26152e-07
3.92134e-08
-3.94249e-06
-8.06813e-05
-1.16557e-09
3.46529e-08
-0.000302974
-7.78667e-09
-0.00514094
-5.06093e-05
1.98115e-09
-0.0337936
-0.00108364
-8.07881e-09
-8.46285e-05
1.95303e-08
-0.000215445
-0.000861752
-2.74105e-06
0.00809359
-0.000308774
-1.01417e-08
-2.58729e-09
-0.000314419
-6.29431e-09
-3.11535e-07
-0.00124849
0.00267405
-2.59042e-08
-3.15973e-09
-1.78044e-06
4.01337e-07
4.96827e-08
6.5642e-08
-2.79852e-10
-4.81854e-06
1.32102e-07
9.10474e-05
7.22584e-07
-2.51136e-08
-0.000538106
5.09062e-08
-0.000169314
3.31384e-06
-0.000277751
1.51536e-08
-0.00042137
5.51152e-09
3.66813e-07
-0.000254325
-0.00060369
2.72828e-06
0.000410053
-6.61771e-08
-7.23631e-09
-4.22341e-09
-9.99824e-09
-9.54877e-05
-0.000291365
-4.90508e-07
-4.51084e-09
3.77117e-09
6.45358e-08
1.0369e-09
-0.0010248
6.18429e-10
-0.000327528
-2.60635e-08
8.48317e-06
0.00044669
1.24003e-06
-0.000161818
0.000466756
-2.93461e-09
0.000270205
-3.26763e-06
7.97127e-08
-0.000307689
5.23724e-09
4.41278e-09
-7.9129e-07
2.88304e-09
6.76954e-05
4.60512e-09
-0.0014239
0.000486561
-1.6812e-08
-3.53427e-05
4.94875e-10
-8.31311e-09
-6.86144e-10
0.000956043
-1.88532e-08
-0.000330462
-2.1453e-09
3.80987e-09
-5.06735e-08
3.74878e-06
5.64499e-08
-0.000768286
1.92126e-10
-0.00144115
-6.70559e-09
2.95167e-10
-0.000174042
0.000829834
-0.000612639
-3.542e-09
2.95348e-09
6.13838e-10
0.000347223
-0.00041605
-1.90457e-08
1.52182e-08
-5.77658e-06
4.62198e-08
0.000302621
1.3907e-08
2.61396e-08
-1.76416e-08
-7.61323e-08
0.000776417
4.33038e-07
-0.00139332
-1.10319e-10
5.42492e-08
-2.99879e-09
-4.44927e-09
-1.66851e-06
-5.34231e-06
-2.74499e-08
-6.66786e-08
1.27358e-05
2.30612e-08
-1.02962e-06
0.000553997
-1.53203e-08
3.24522e-08
-0.00299026
-0.000209969
-4.66663e-09
1.13197e-08
6.79984e-09
-1.27421e-08
8.52723e-05
1.53862e-07
-4.01408e-09
1.42869e-06
0.000385618
0.000522093
-2.69846e-07
9.03993e-09
-0.000201337
-6.35317e-08
-0.000125306
9.91443e-07
0.000483024
0.001731
7.53595e-06
-0.00105535
2.94706e-06
1.89283e-08
-0.000337023
-0.000305079
4.51014e-09
5.90105e-07
-8.38361e-09
2.81974e-09
4.96891e-08
-5.09142e-06
3.74816e-08
-3.06964e-08
-6.45674e-09
0.00225242
-3.65733e-10
4.6627e-09
-7.06112e-08
-3.13775e-07
-0.000244517
-0.00038605
0.000323472
-7.43853e-10
8.42285e-08
1.98881e-08
3.8455e-06
2.45779e-08
-4.30108e-09
-6.18474e-08
-1.243e-08
-6.77455e-09
8.61494e-07
9.12499e-09
-2.19938e-08
-0.000407598
-2.14356e-09
6.98055e-08
-3.59531e-06
-7.29204e-08
-0.000200106
2.04892e-08
-0.000334459
8.77472e-09
3.19316e-07
2.302e-07
-3.85207e-09
1.55335e-09
-3.16707e-06
3.52012e-09
-7.20178e-07
0.00285222
-1.90404e-07
2.7299e-10
-3.21668e-09
-7.08344e-06
3.69522e-08
1.89238e-09
3.98095e-05
-0.000306394
-4.25986e-06
-0.00508772
0.00164007
-6.91569e-09
-7.30551e-08
-4.40965e-08
1.28053e-09
-7.64005e-09
-0.000234323
-0.000551856
0.00119344
-3.70329e-05
8.39392e-07
-7.28226e-08
4.35976e-09
-6.25638e-08
4.49888e-08
3.28005e-07
0.000547138
6.98835e-09
5.98491e-12
8.49416e-08
-1.96542e-08
-0.00183881
1.71339e-09
4.17188e-08
6.29428e-11
-2.03671e-08
2.12565e-09
0.000189309
1.21144e-08
-0.000108219
-4.05016e-08
-1.17529e-07
6.07247e-06
-1.25991e-06
-0.000352131
-0.00277033
-0.000461434
-2.87599e-09
-2.87068e-06
1.7425e-08
-9.01104e-09
1.58337e-07
0.00014504
2.80781e-06
-4.61066e-08
8.86627e-08
6.20651e-09
0.000516499
3.997e-08
-5.02481e-07
1.73932e-07
2.42413e-08
0.000579638
-0.000513688
8.39715e-09
-0.000146655
1.35777e-06
-2.84943e-09
0.000180969
9.8583e-06
-0.00244175
1.56483e-08
-1.02183e-08
-0.000184107
-5.73093e-10
-5.4625e-08
0.000505162
-2.3738e-05
-1.92895e-08
0.000323911
5.57615e-09
-1.29861e-08
7.15028e-09
-3.43408e-08
-0.000502791
6.56417e-08
1.62014e-08
-1.19972e-07
-2.0595e-08
2.24846e-09
-3.8576e-09
-4.18954e-08
7.99907e-06
-3.33047e-09
1.78706e-06
-2.85698e-06
-9.01513e-07
8.7892e-05
-3.90899e-08
4.08323e-08
-1.50686e-06
-6.12075e-10
-4.49517e-09
0.000323339
4.17496e-07
2.0977e-08
-0.000281004
3.26293e-10
-7.13878e-05
-0.000765805
-2.94011e-06
-0.000623967
-0.00470458
2.36908e-08
7.7361e-08
0.000900699
5.85921e-08
-0.000216826
3.11224e-07
2.28004e-09
-0.00415906
-3.26448e-08
8.07635e-06
-0.000162548
5.04431e-08
-8.23264e-09
2.87055e-08
-0.000540294
-1.4958e-06
9.18541e-09
-8.42615e-09
-4.51451e-05
-9.37132e-09
-0.000359259
-3.95277e-06
7.0957e-08
2.42982e-07
0.000373219
-4.40089e-09
8.23044e-10
6.22461e-08
-2.54059e-07
-2.0874e-09
-4.34709e-08
-0.00103283
0.0147341
3.83137e-08
0.000250862
7.77859e-05
0.00455612
0.000389836
0.00203026
2.19165e-06
3.58251e-07
-3.919e-09
8.53321e-09
9.37062e-06
-9.91972e-10
-4.0423e-06
-0.00037998
4.85932e-08
2.19733e-07
6.97984e-07
4.15679e-08
0.00152215
1.07478e-10
-2.29475e-06
-4.02231e-09
-1.01813e-08
0.000284421
-9.69626e-09
-3.66775e-08
9.11893e-09
3.79467e-10
-4.63626e-08
3.3077e-06
0.000176977
-1.81894e-08
-0.000801592
-4.2799e-09
1.43733e-09
-6.48633e-07
-2.96013e-07
-1.59083e-08
1.45565e-08
6.79359e-06
-2.37255e-07
-7.28276e-08
2.30919e-09
-5.6904e-08
-2.67005e-08
6.13155e-09
1.53705e-08
6.74611e-09
-7.12029e-05
2.02871e-08
-0.000162692
-0.0051425
-1.1012e-08
0.000161807
7.81133e-06
6.93528e-08
-0.0023011
-7.61329e-08
-5.07201e-08
-1.3648e-09
2.2687e-08
-1.52192e-08
-9.28995e-05
-7.326e-05
5.30946e-11
5.04342e-11
0.00011447
-8.12334e-09
2.85294e-07
2.2691e-08
-7.08457e-09
-0.000318113
-6.17919e-09
-5.74403e-08
-3.96556e-08
-3.95493e-09
-2.70727e-08
-1.35888e-09
-1.21232e-08
8.89038e-09
-0.000268464
-3.5536e-07
1.41802e-09
1.71741e-08
-3.046e-07
0.000399185
6.49638e-09
0.00041896
3.10717e-07
8.91691e-09
-1.20417e-06
-7.1104e-09
-0.000101343
-0.00031808
-1.66092e-06
3.13486e-09
2.23289e-06
-1.41758e-08
-1.22295e-06
3.17635e-06
1.30668e-09
-0.00044239
-9.84919e-08
-1.96404e-08
-1.36388e-05
-0.00125973
-1.19985e-06
-0.000144839
-2.63214e-08
-2.84663e-08
0.000162307
5.28171e-10
-5.29546e-08
-5.8961e-07
8.39637e-10
1.90612e-09
-2.63309e-09
2.42653e-07
-6.40312e-11
-0.00031434
-5.60883e-08
-2.8538e-07
1.50173e-08
-0.000614777
0.000478178
0.000475885
0.000791563
9.28456e-10
7.71427e-06
1.94098e-08
5.4884e-08
2.81398e-08
-0.000656308
0.00040988
-3.43268e-09
8.04712e-09
7.4244e-08
-3.67134e-07
2.93517e-09
-0.00132292
-0.0104671
-3.59743e-07
0.000267686
6.64955e-06
-1.42491e-08
-2.32059e-08
4.88844e-08
-1.72926e-08
2.51106e-05
2.00962e-08
-0.000105227
4.7474e-09
-0.000984561
-0.000124938
-0.000738429
2.93134e-08
2.82966e-06
1.87645e-05
-2.71425e-05
-3.36294e-08
-2.29783e-09
3.4753e-08
-3.5295e-10
-4.8164e-08
-4.38996e-06
1.11032e-09
5.76304e-09
-1.00453e-08
-9.72948e-10
7.51341e-09
-1.12663e-09
2.22011e-09
-3.52041e-08
-0.000174916
9.93343e-08
9.15955e-09
6.39104e-08
-3.5928e-05
2.43871e-06
-0.000133896
-0.000285743
-1.10026e-08
-4.07011e-08
4.56322e-08
-0.00165852
1.73129e-08
-2.38579e-08
-9.53797e-05
-8.43164e-09
5.66394e-09
-4.25889e-07
-2.06156e-09
6.47647e-07
-0.0019814
-7.31262e-08
2.15282e-10
4.88939e-10
-8.55373e-09
1.31555e-06
2.32407e-10
7.35311e-09
6.91147e-07
-0.000160033
2.52947e-08
1.65494e-07
5.17238e-08
-7.80044e-08
-2.82571e-08
-1.93962e-07
1.47494e-11
1.50136e-07
0.000186664
-4.06504e-08
3.11617e-07
2.74037e-06
-0.000309614
-0.000755661
-6.0998e-07
-0.000804259
0.000508582
-0.00419351
-9.83562e-06
5.72708e-06
-2.4704e-07
-0.00134904
2.17755e-09
1.58414e-06
5.47705e-06
-0.00088931
6.35717e-09
2.58094e-08
2.05558e-08
-6.66658e-06
7.72634e-06
5.83868e-10
-3.35874e-08
-5.52677e-08
-6.08588e-09
-1.60191e-08
-1.10081e-08
3.19748e-06
-2.04151e-08
1.09805e-08
-5.23783e-07
-0.0487033
2.06596e-08
-5.96789e-08
-3.72353e-06
1.03726e-08
-0.000374329
-5.92558e-07
-6.88372e-07
2.55227e-07
-0.00078731
-1.01857e-07
-4.36271e-05
0.000724827
0.000204384
-0.000670056
1.98748e-08
1.08796e-08
0.00358713
0.000455227
7.12194e-08
-0.000474064
2.37797e-08
-1.26132e-08
4.46109e-08
3.22171e-12
5.95792e-08
-1.66381e-09
1.58098e-06
2.44588e-07
-3.41641e-07
2.89081e-06
7.64908e-08
1.30213e-07
0.00107095
-0.00188758
-5.97095e-08
8.68556e-05
3.36097e-08
-0.000557002
8.18621e-09
0.0016729
-0.00031876
1.02742e-06
-1.43795e-07
1.06239e-05
-0.000403116
-3.44811e-07
-1.25228e-06
9.25935e-08
4.83563e-09
-1.66649e-06
0.00135151
-1.19044e-05
-8.90878e-09
-2.49189e-09
4.66996e-08
0.000216632
-1.46232e-06
2.12832e-08
8.93984e-07
0.000324683
-8.64066e-08
-0.000136806
-2.70121e-08
-4.36097e-09
2.54449e-08
-0.000107204
3.26538e-07
-0.000703913
1.69663e-09
4.59299e-09
8.7324e-09
0.000528418
1.72346e-08
-2.3901e-08
-1.57787e-07
0.000466488
-3.8993e-08
1.2996e-06
-0.000108207
-1.67285e-08
-9.10046e-06
1.13111e-08
7.5292e-09
-1.19649e-05
-6.74885e-09
-8.32932e-08
-4.55544e-09
-3.51889e-09
-0.000362204
-2.66847e-09
-6.04469e-08
0.0002704
2.38139e-09
-3.91124e-06
6.69486e-08
-6.55738e-07
2.61837e-05
0.000321727
5.62938e-07
2.99325e-06
1.03887e-06
-0.000974012
2.64491e-07
-3.01398e-09
7.43649e-09
-6.51499e-09
-2.67172e-08
-0.000795075
-1.76386e-08
0.00438234
-5.8918e-08
-5.11185e-09
-0.000318751
0.000120835
1.90491e-09
-0.000350243
-3.76257e-08
-0.0218265
0.000491281
-1.63861e-09
-7.59398e-09
2.25995e-06
-4.7661e-08
-4.96649e-05
-0.000331574
-1.0006e-08
1.55418e-08
-6.37809e-08
-6.64663e-06
1.19579e-11
0.000489603
8.83597e-06
2.16161e-08
-2.85451e-08
0.000601237
-0.000118014
2.29607e-09
-1.23819e-05
2.37132e-10
-0.000307668
1.21185e-06
7.60249e-09
-0.000708655
-4.24867e-08
0.000153877
-7.64826e-10
-1.96423e-05
-9.46175e-09
1.36842e-06
2.32133e-06
3.65207e-08
-0.00401023
0.000322768
-4.02403e-06
-0.00139887
-0.00101195
5.76705e-08
-3.51118e-06
3.86854e-08
4.70289e-11
2.27699e-09
-2.44812e-08
9.99827e-09
-2.16263e-06
2.84589e-10
-0.000255459
-2.63369e-08
0.000349019
1.15587e-08
-3.58719e-08
1.04775e-08
-6.27341e-08
-0.000169931
-4.62187e-08
-0.000471627
-7.94615e-10
-0.000318552
0.000438279
-1.56068e-08
3.69043e-08
-5.3611e-08
-3.18776e-07
0.00183926
-1.81454e-08
1.68781e-10
0.000301457
3.10453e-08
4.78071e-07
-4.39811e-07
2.6081e-05
-9.20392e-07
4.87663e-08
-7.85535e-09
1.52708e-06
-5.16017e-07
6.83655e-07
-5.67602e-05
1.99869e-08
1.67068e-05
-5.31003e-09
-0.000301904
0.000100291
3.05608e-08
-0.000457824
-3.11591e-08
-4.47558e-08
-1.75909e-09
-2.0504e-08
0.00174905
0.000373666
0.000203302
-0.00193392
-2.3707e-08
-2.26174e-08
5.53432e-09
0.000238623
-2.01666e-08