/*--------------------------------*- C++ -*----------------------------------*\
| =========                 |                                                 |
| \\      /  F ield         | OpenFOAM: The Open Source CFD Toolbox           |
|  \\    /   O peration     | Version:  v2012                                 |
|   \\  /    A nd           | Website:  www.openfoam.com                      |
|    \\/     M anipulation  |                                                 |
\*---------------------------------------------------------------------------*/
FoamFile
{
    version     2.0;
    format      ascii;
    class       surfaceScalarField;
    location    "200";
    object      ddtCorrDdt0(phi);
}
// * * * * * * * * * * * * * * * * * * * * * * * * * * * * * * * * * * * * * //

dimensions      [0 3 -2 0 0 0 0];
oriented        oriented;


internalField   nonuniform List<scalar> 
41211
(
-2.15933e-05
7.56486e-06
1.40288e-05
-3.83576e-06
3.83591e-06
-1.36106e-06
-1.00571e-05
1.1427e-05
4.90814e-05
-3.80938e-05
-1.09841e-05
3.17244e-05
-2.14491e-05
-1.02755e-05
0.000456695
-0.000373496
-8.31966e-05
1.54313e-05
1.62932e-05
-9.56627e-05
-2.11923e-05
0.00011686
1.74769e-05
-8.09694e-06
-9.37946e-06
0.000543411
-0.00109228
0.000548847
-0.00021551
-2.84717e-05
0.000243987
2.01159e-05
2.82831e-05
-4.83791e-05
3.31759e-05
-1.55205e-05
-1.76584e-05
4.40164e-05
-6.03153e-06
-3.79764e-05
0.000315344
-7.1425e-05
-0.000243932
-2.49083e-05
4.98354e-05
-2.49119e-05
-6.64534e-06
-0.000148695
0.000155343
1.03404e-05
7.13712e-06
-0.000232013
1.65072e-05
-0.000190831
2.81937e-05
-7.53987e-05
4.72006e-05
8.69934e-05
0.00022834
2.15416e-05
-1.27605e-05
-8.78034e-06
-0.000289822
6.09221e-05
0.000228904
-0.000125758
7.65902e-05
4.91624e-05
2.40957e-05
-2.15757e-05
-2.52127e-06
8.95813e-06
-2.63825e-05
1.74256e-05
3.83299e-05
-5.50918e-05
1.6762e-05
-2.04231e-06
1.26244e-06
7.80948e-07
-2.65549e-05
4.25374e-06
2.22948e-05
-0.000224224
-6.55961e-05
5.24884e-05
5.12096e-06
-5.75946e-05
-1.06008e-05
-1.09922e-05
3.68243e-06
5.41698e-07
-4.22306e-06
-6.8517e-05
6.90937e-05
-5.67761e-07
0.000264148
-0.00026415
-4.40245e-06
-2.41152e-05
-1.26845e-05
-6.73115e-06
1.94188e-05
1.70039e-07
3.34067e-05
-3.35763e-05
-3.65384e-07
1.30143e-05
4.81981e-05
-2.80352e-05
-6.15716e-05
-6.94238e-06
-3.11322e-05
-3.3118e-05
6.42391e-05
2.31004e-06
1.07482e-05
-1.30562e-05
-2.57537e-05
1.14161e-05
1.43386e-05
-0.000295007
0.000264175
4.28202e-05
-4.11652e-05
-1.65782e-06
-2.84968e-05
-5.24355e-06
3.40714e-05
-4.09507e-05
4.09509e-05
-0.000239285
-0.000186304
0.000425553
0.000221473
-0.000176743
-4.48526e-05
-2.05124e-07
2.43001e-05
0.000322361
0.000135547
-0.000457893
-4.21357e-05
7.47239e-06
3.46473e-05
-2.61712e-05
2.45298e-05
1.64292e-06
6.83727e-06
-9.2709e-06
2.43359e-06
0.000589251
-0.000190223
-0.000399056
3.03778e-05
-2.83263e-05
-2.05278e-06
-3.99844e-07
-1.48429e-05
1.52418e-05
1.5012e-05
9.95844e-05
-0.000114597
0.000117651
-7.53617e-05
8.0263e-06
-1.35552e-05
5.5223e-06
-2.54862e-05
5.31051e-06
2.01769e-05
1.17668e-05
-7.63657e-06
-4.13077e-06
4.33605e-06
-1.56502e-05
1.13115e-05
-1.56049e-05
8.64188e-06
6.96443e-06
0.000176857
0.000336225
-0.000513077
0.000121404
0.00046784
8.93738e-05
-7.43602e-05
-1.70791e-05
2.64793e-05
-9.4001e-06
1.01566e-05
-7.8444e-06
0.000532902
-0.000135887
-0.000397015
8.35968e-05
-0.000384134
0.000300535
-5.74332e-05
-0.000461239
0.000518687
6.58778e-06
-5.04065e-06
-1.55094e-06
2.13278e-05
-9.01881e-07
-2.04261e-05
-0.000393521
0.000570373
-2.8496e-05
1.0231e-05
1.82625e-05
-0.000816983
0.000893328
-0.000430517
0.000430521
-1.04499e-06
-9.95851e-07
-1.55742e-06
1.51944e-05
-1.36364e-05
-3.21035e-05
3.8704e-05
-6.58863e-06
-1.18083e-05
-6.77608e-06
1.85859e-05
-2.73782e-05
1.73477e-05
1.00302e-05
-7.98383e-05
5.65581e-05
2.32831e-05
-1.54964e-05
5.8301e-06
9.66607e-06
-0.000348528
0.000885815
-0.000537315
-0.000129727
2.30628e-05
-2.78409e-06
3.85385e-05
-3.57514e-05
-3.31891e-05
2.92897e-05
3.89855e-06
0.00068246
-0.000711482
7.99531e-06
-5.74431e-06
-2.25066e-06
-2.65553e-05
-0.000154837
-0.00025816
0.000412974
1.8334e-05
5.58964e-05
-7.42316e-05
-1.39613e-05
1.24032e-05
-7.40386e-05
7.83943e-05
-4.3548e-06
7.13035e-06
-7.58413e-06
4.56131e-07
-0.000608875
5.68717e-05
0.000551961
-3.15721e-05
3.17424e-05
1.0902e-05
-6.49337e-06
-4.40904e-06
-3.70478e-05
6.08716e-05
-2.37642e-05
1.91299e-05
9.85219e-05
0.000480149
-0.000396554
-2.47009e-06
-2.30148e-05
-4.95537e-05
2.47651e-06
4.70742e-05
1.50838e-05
5.82253e-07
-2.67519e-05
-1.21031e-05
-1.36498e-05
1.32572e-05
-3.81801e-05
7.36895e-07
-3.39263e-05
2.54679e-06
1.13741e-06
-8.39838e-06
7.88439e-06
5.17556e-07
-5.29634e-05
3.40701e-06
-3.52152e-06
1.10262e-05
-7.50503e-06
4.08296e-05
-2.19799e-05
-1.88496e-05
-4.25071e-05
-1.86491e-05
6.11562e-05
-0.00050218
-0.000209364
0.00071154
-2.63802e-05
-9.93791e-05
0.000335566
-0.000437927
-1.83597e-05
0.000117943
-0.000284838
-0.00025894
0.000543786
-5.1344e-05
8.88951e-06
0.000320641
-0.000344586
2.39422e-05
8.67555e-06
3.52586e-05
-4.39415e-05
2.73993e-05
-1.83532e-05
-9.04625e-06
-1.41375e-05
5.85297e-05
-4.43986e-05
-4.88836e-05
0.000167108
-0.000118225
-2.86202e-06
-3.33302e-06
6.19858e-06
-0.000217219
-8.18952e-05
0.000299111
-3.88489e-05
-3.88292e-05
7.76766e-05
-1.84898e-05
3.50748e-06
1.49827e-05
-4.34363e-06
1.22406e-05
-7.89046e-06
0.000232273
-8.95556e-05
-0.000142724
-5.05006e-05
6.9874e-06
4.35114e-05
3.7333e-05
-3.60847e-05
-1.26455e-06
4.12477e-05
2.77492e-06
1.04556e-05
-9.64879e-06
-8.03871e-07
-2.6281e-05
7.79141e-06
-3.9485e-05
3.34519e-05
-0.000473801
0.00101721
-1.09187e-05
2.2436e-05
-1.15209e-05
2.1798e-05
-2.33558e-05
1.558e-06
1.05919e-05
-2.32802e-05
0.000422571
-9.2772e-06
-0.000413305
-1.89888e-05
1.84054e-05
5.82515e-07
9.99618e-05
1.24436e-05
-0.000112408
-3.77806e-05
2.85765e-07
3.74964e-05
0.000407262
-0.00101615
-2.16793e-05
2.21078e-05
-4.30437e-07
0.000212574
-9.05546e-05
-0.000122025
-6.84745e-05
3.73492e-05
-5.22098e-06
-0.000422456
0.000427677
1.92561e-06
-9.40017e-07
-9.85726e-07
0.000782774
-0.00100621
0.000223432
-5.21258e-06
-4.52935e-05
6.89283e-05
-5.05959e-05
-2.72402e-05
9.87081e-06
1.73757e-05
2.72762e-05
-3.91996e-05
1.19201e-05
8.24511e-06
-3.41076e-06
-1.21939e-05
-0.000430457
0.000247003
0.00018343
1.35008e-05
-2.06219e-05
7.12079e-06
2.55637e-05
-2.44256e-06
-2.31209e-05
7.45826e-06
-9.40011e-06
1.94165e-06
0.000460801
-0.00016255
-0.00029826
-9.82325e-06
-6.57325e-06
1.63954e-05
-1.25569e-05
-1.37225e-05
2.0877e-05
-1.27066e-05
-8.1695e-06
1.39557e-05
-1.79613e-05
4.00693e-06
-0.000199152
0.000146466
5.26837e-05
-0.000106141
0.0002093
-0.000103162
-0.000413787
0.000325963
8.72916e-05
1.33869e-05
-2.74957e-05
1.4115e-05
-0.000233358
0.000454098
-0.000220753
-5.97407e-05
-0.000370761
-0.00033837
-0.000130996
0.000469378
2.56697e-06
8.45936e-06
4.31226e-05
-4.06479e-05
4.87e-05
1.49657e-05
-6.3805e-05
0.000433014
0.000100265
-0.000533288
-0.000173608
0.000184544
-1.09332e-05
0.000439825
-0.000200129
-0.000239684
9.70243e-06
-2.53848e-05
1.5687e-05
-3.74759e-05
2.99752e-05
7.50211e-06
0.000124245
8.18163e-05
-0.000206053
-6.55205e-05
2.57108e-05
3.97765e-05
-7.15679e-05
0.000427675
-0.000356111
-3.22753e-05
3.27982e-05
-5.24455e-07
0.000192071
8.13824e-05
-0.000273441
1.46476e-05
-1.46475e-05
1.14529e-05
5.95624e-07
-1.20518e-05
-4.06878e-06
-0.000500278
0.000504232
2.9788e-05
5.20777e-07
-3.03089e-05
0.000201522
1.10416e-05
0.000782771
0.00056807
-0.000481768
-8.62879e-05
0.000590021
-0.000594116
0.000641291
0.000429973
-0.00107127
-1.3609e-05
-1.09694e-05
2.45734e-05
3.93178e-05
-1.2043e-05
2.22155e-05
-1.26053e-05
-9.61013e-06
2.12695e-05
1.9561e-05
-0.000125535
0.000317599
0.000113523
-9.36815e-06
-0.000104161
-1.29369e-05
3.11301e-06
2.79387e-06
7.62919e-06
-1.04222e-05
-2.37818e-05
2.92864e-06
2.08615e-05
2.15722e-05
-1.34181e-05
-8.15632e-06
-3.96543e-05
1.87438e-06
-0.000113313
-0.000950528
0.00106385
1.77786e-05
3.13067e-05
-0.000262528
1.99263e-05
0.000242602
-1.15812e-05
-1.56583e-05
2.70788e-05
-1.81221e-05
0.000117857
-0.00033508
-2.87157e-06
-2.58088e-06
5.44715e-06
-4.42548e-05
3.69872e-05
7.26648e-06
1.2831e-05
1.81595e-06
0.00030596
-2.45207e-05
1.53555e-05
9.16548e-06
-2.12583e-05
-1.09429e-05
3.21998e-05
-0.000703864
0.000445588
0.000258287
1.11173e-05
-7.25531e-06
-3.86837e-06
0.00022941
-0.000677428
0.000448019
3.57143e-06
-2.58659e-05
2.22915e-05
-2.29474e-06
0.000102253
-5.84455e-06
1.03847e-06
4.79754e-06
6.99294e-06
4.12446e-06
8.52108e-06
-8.99424e-06
4.7869e-07
4.00925e-05
-3.92999e-05
-7.92732e-07
-0.000510117
-4.73064e-05
0.000557413
6.33486e-05
-4.84082e-06
-5.85071e-05
1.28307e-05
0.00011415
-0.000150291
3.6133e-05
3.68657e-05
4.59423e-07
-2.78975e-05
3.98395e-05
-1.19433e-05
1.76e-05
9.79945e-06
-3.72439e-05
5.11876e-05
-1.39137e-05
2.38391e-05
-2.96495e-05
5.80926e-06
0.000139431
-0.000263631
0.000124203
0.000520845
-8.78274e-05
-0.000645702
0.000588901
5.67586e-05
-8.03696e-05
9.51995e-05
-1.48301e-05
-6.76161e-06
4.56167e-05
-3.8855e-05
-6.57594e-06
3.16638e-05
-2.50918e-05
-1.43607e-05
-1.43908e-05
1.9574e-05
8.12129e-06
-1.28402e-06
0.000373403
-0.000325308
-4.8094e-05
1.26409e-06
6.69292e-06
-7.9569e-06
-4.99341e-05
7.57698e-05
-2.58478e-05
5.8031e-06
-5.44267e-06
-3.62021e-07
-0.000801062
0.000452538
0.000538635
-0.000612897
7.41838e-05
2.73711e-05
-7.01326e-05
4.27508e-05
-3.93648e-05
4.58552e-05
-6.49126e-06
1.55749e-05
-2.50136e-05
9.44218e-06
5.99704e-06
5.94006e-07
-8.45064e-06
1.26332e-05
-4.18241e-06
8.02092e-06
0.000357548
-0.000365562
0.000250537
-0.000752705
0.000385305
-0.000456878
-1.25466e-05
2.07671e-05
-8.22147e-06
-1.3501e-05
-6.22403e-07
1.41248e-05
4.77717e-06
-1.39068e-06
-4.19799e-05
4.50337e-06
-0.00010706
-9.48636e-06
6.19723e-05
-1.40404e-05
1.75485e-06
1.22765e-05
-2.50675e-05
-7.82655e-06
3.28921e-05
-0.000146297
6.59264e-05
1.27788e-05
4.86318e-06
-1.76423e-05
7.93089e-06
-6.66674e-06
1.77788e-06
-7.86859e-05
3.98353e-05
-2.91883e-05
3.6391e-05
-7.19513e-06
9.67427e-06
5.04581e-06
-1.47209e-05
0.000612706
-2.37797e-05
6.86041e-07
-6.06256e-07
-7.73083e-08
1.27491e-05
1.00664e-05
-2.28158e-05
-7.53251e-05
8.25684e-05
-7.25864e-06
0.000408179
-0.000465609
-3.86004e-05
0.000162848
-8.77238e-06
-2.7854e-05
3.66247e-05
-0.000547993
0.000209627
-2.29502e-05
1.83673e-05
4.58282e-06
1.29651e-05
-6.19135e-05
4.89448e-05
0.000368626
-0.00037386
-9.46697e-05
0.000135949
-4.12714e-05
0.000722362
2.168e-05
-0.000744055
-0.000562782
0.000266634
0.000296149
-1.47051e-05
1.43046e-05
-7.32397e-07
-5.11472e-06
1.34158e-05
-1.73157e-05
3.90045e-06
2.76777e-06
-2.07975e-06
0.000232268
3.84755e-06
-1.57447e-05
-0.000114021
0.000172782
1.14114e-06
-1.01224e-05
8.97905e-06
-0.000303924
-0.000158244
0.00046215
3.25267e-05
0.00252637
-0.00255851
0.00021292
-0.00011262
-0.000100296
-2.92148e-05
2.86092e-08
-2.64825e-05
0.000289923
-0.000263443
-2.52602e-05
8.18067e-06
0.000235884
-0.00035755
0.000121665
-1.1352e-05
3.6543e-06
7.69384e-06
-0.000372138
5.88886e-05
0.000313221
2.76564e-05
0.000116031
-0.000143691
1.34924e-06
-4.79329e-05
4.65788e-05
5.23651e-06
2.51412e-05
1.44934e-05
-0.000277022
0.00023241
-0.000281282
-0.000147353
0.000104219
4.31223e-05
3.32755e-07
-2.06627e-06
1.73545e-06
-9.26545e-06
4.7596e-05
-0.000213685
3.67105e-05
0.000176974
-1.12497e-05
-1.07058e-07
-4.94908e-06
-4.5747e-06
9.53417e-06
0.000530737
-0.000142077
-0.000388571
7.96388e-05
-0.000383566
0.000752721
-1.60335e-05
-0.000736686
5.95123e-06
2.04442e-06
-3.73949e-05
5.29899e-06
3.74722e-05
-3.97923e-05
2.32045e-06
-0.00019074
0.00083203
-1.56029e-05
7.15244e-06
0.000186977
0.000252851
2.08485e-05
-1.24764e-05
-8.37254e-06
3.10696e-05
8.2449e-06
0.000158079
0.00037269
-1.4955e-05
6.37189e-05
2.34013e-05
-1.98306e-05
-7.13649e-06
3.9205e-05
-3.20689e-05
-3.59042e-05
3.31225e-05
0.000187202
-0.000159541
1.71494e-05
4.17657e-06
-1.89335e-05
-8.5103e-06
2.7445e-05
-1.97432e-05
-0.000204397
0.000224112
-1.66044e-05
1.11567e-05
5.44779e-06
-0.000118954
2.42845e-05
-2.53703e-06
1.4355e-05
-1.18397e-05
4.30307e-05
0.000221117
-4.80473e-05
5.12527e-05
-3.1997e-06
7.48428e-06
1.75102e-05
-2.49946e-05
3.62895e-05
-4.30429e-05
-2.55399e-05
1.1357e-05
1.41828e-05
-3.94436e-05
-2.54018e-06
4.0238e-05
-1.02624e-05
-9.67093e-06
1.31904e-05
-3.51929e-06
-5.02958e-05
1.09314e-05
1.68749e-05
-3.09506e-05
1.4076e-05
9.64911e-06
1.19196e-05
1.54513e-05
5.42952e-06
3.21383e-05
1.55366e-06
-3.36934e-05
2.38895e-05
-8.93459e-05
-1.02071e-05
3.53304e-06
6.67289e-06
0.000573319
-0.000343909
0.00017892
-0.000305314
0.000126387
0.000220759
7.80833e-07
-1.61822e-05
1.63075e-05
-1.2737e-07
-1.87276e-05
-7.31202e-06
2.60404e-05
1.16566e-05
-3.03842e-05
-0.000141462
0.000280895
-1.03224e-05
-1.2628e-05
-3.25692e-06
-6.45956e-05
6.77615e-05
-7.06508e-07
-1.83458e-08
-0.000524833
1.47188e-05
3.05943e-05
-6.75066e-05
3.69135e-05
-7.99713e-06
3.6528e-06
2.40852e-05
-2.24759e-05
-1.61008e-06
1.02741e-05
-4.47004e-06
1.80056e-05
-5.91745e-06
-1.20884e-05
1.09333e-05
-2.45436e-05
-2.54405e-05
1.92598e-05
6.18057e-06
-2.19793e-05
0.00046116
-0.000439177
-8.53352e-06
1.77237e-06
6.75703e-06
-1.36822e-05
-5.3069e-06
3.94622e-05
-8.39268e-06
-2.95295e-05
8.26843e-06
1.07627e-06
1.17546e-05
1.19785e-05
-2.4742e-05
1.27623e-05
-1.596e-05
5.53494e-06
-4.53848e-05
3.8167e-05
7.22305e-06
5.09576e-05
0.000172884
-0.000223831
-3.18979e-05
-0.000261477
0.00029337
5.37121e-05
-1.79824e-05
-3.57309e-05
6.76273e-06
-2.62966e-05
1.95344e-05
-0.000368405
-0.00070845
0.00107685
2.18889e-05
-2.67313e-05
4.84229e-06
-2.55637e-05
1.33364e-05
1.22276e-05
-3.75175e-05
9.62527e-06
-2.55027e-05
3.33702e-05
-7.88218e-06
4.3676e-05
-3.72214e-05
-6.45554e-06
0.000852637
-0.000404938
-0.000447686
0.000306166
0.000150523
-0.000547006
-0.000307135
0.000854128
-3.55926e-05
-6.49829e-05
0.00010057
-1.19527e-05
-0.000254829
0.000266791
3.62264e-06
-8.14442e-06
4.52176e-06
2.51484e-06
-3.02291e-05
2.77193e-05
0.000103611
-0.000570267
0.00046668
6.90879e-05
-6.77407e-05
-2.62985e-05
-2.91626e-06
2.27832e-06
-2.07911e-06
-2.05222e-07
-0.000305333
0.000278858
5.42028e-05
-1.56825e-05
-3.85249e-05
-5.45381e-06
1.51276e-05
-6.82109e-06
2.47891e-05
-1.7967e-05
0.00028786
-0.000805455
0.000517594
0.000317598
0.000735818
0.000219674
-0.000955461
0.000744064
1.33719e-05
-5.44093e-06
-0.000252167
-0.0001783
1.58627e-06
9.31573e-06
-0.000281685
-0.000810598
-5.7811e-05
5.65131e-05
1.29861e-06
6.19901e-06
-8.69747e-06
1.1467e-05
-1.14662e-05
-9.08933e-06
3.9426e-05
-3.79218e-05
-1.50084e-06
4.17305e-05
3.63597e-06
-4.53715e-05
-2.74592e-06
-1.89338e-05
-1.33343e-05
2.0098e-05
-3.84293e-05
-5.82596e-06
3.46904e-05
-3.43541e-05
-3.59381e-07
1.06317e-05
-1.74168e-07
-8.16427e-06
-1.90367e-05
2.72015e-05
-0.000419194
-0.0002847
0.000549394
-0.000121041
-0.000428355
-7.8069e-05
1.24634e-05
6.56037e-05
-0.000110094
8.63301e-05
2.37631e-05
-0.00011095
8.97695e-05
4.75633e-05
-2.92591e-05
-1.82984e-05
1.03021e-05
0.000363102
-1.3761e-05
-1.18027e-05
-2.67341e-06
2.27959e-05
-2.01221e-05
-0.000141465
-5.76859e-05
-2.68668e-05
6.07083e-06
2.07954e-05
-3.42798e-06
-2.20121e-05
1.47566e-05
-2.15785e-05
2.33184e-05
-3.20922e-05
-2.93531e-05
3.33609e-05
-4.01241e-06
-4.33901e-06
-1.45485e-05
1.88876e-05
1.24511e-07
8.44829e-06
4.92372e-06
5.88596e-05
-0.000149585
9.07306e-05
-0.000397531
1.41698e-05
-1.85087e-05
8.85168e-06
1.26979e-05
-2.15499e-05
0.000313598
-0.000325526
4.54052e-05
-3.78865e-05
-7.51923e-06
0.000752912
-0.000625569
-0.000127351
4.47585e-06
-1.50704e-05
-1.23079e-05
-4.17168e-05
-6.3257e-06
-0.00059216
-6.53624e-05
0.000657474
-3.39849e-05
8.75349e-06
2.52333e-05
-2.2197e-06
1.52004e-06
-0.000650366
0.000205263
0.000445111
3.71197e-05
-3.75084e-05
3.81247e-07
-3.79217e-06
-0.000121286
0.00012508
-0.000611908
0.000402543
-2.00526e-06
4.10147e-06
-1.24323e-06
-2.85848e-06
0.000660335
-5.1062e-05
-2.42702e-05
1.76043e-05
2.99609e-05
-5.20957e-05
-1.58609e-05
-5.50106e-05
7.09051e-05
3.49878e-06
-1.53072e-05
-1.93213e-05
1.97414e-05
-4.19937e-07
1.06565e-05
-8.08973e-06
0.000878189
-4.10646e-05
-0.000837114
-2.27787e-05
-3.51928e-06
-4.27581e-05
2.92337e-05
1.35437e-05
1.40634e-05
-2.71295e-05
1.30668e-05
1.02438e-05
-6.80538e-05
-8.46995e-05
4.93484e-05
3.53752e-05
0.000323379
0.000234825
-0.000558173
2.0641e-05
-1.1789e-05
-1.01216e-08
4.31306e-05
-3.54271e-05
6.0679e-06
4.66269e-07
-3.34178e-06
4.31654e-06
1.36865e-05
-1.47406e-05
-5.43649e-06
2.01756e-05
-4.59175e-06
-5.61553e-06
-0.000265936
0.000115557
0.000150379
9.34167e-05
-8.79351e-05
-5.4794e-06
5.1394e-06
-4.23805e-05
0.000444919
-0.000305625
-0.000139309
1.15223e-06
-2.07417e-06
9.23282e-07
-7.95291e-06
-1.83325e-05
2.62934e-05
-0.000382726
-0.0004642
0.000846911
4.44295e-06
-2.1614e-06
-4.80519e-05
3.87393e-05
9.31479e-06
-1.29142e-05
-3.26834e-06
-3.9527e-06
-1.15439e-05
0.000943218
-0.00136481
0.000421563
-0.00046158
0.00022822
1.92061e-05
-7.94181e-06
-1.12597e-05
-1.94982e-05
-0.000194188
-2.43112e-05
0.000378219
-0.000353903
-3.28591e-05
1.49279e-05
1.79301e-05
-0.000180851
0.000239711
-1.17533e-05
7.66782e-06
4.08463e-06
7.10104e-05
-4.60202e-05
-2.48694e-05
1.86199e-05
1.45558e-05
5.01891e-06
-1.9761e-05
-7.79989e-06
4.32479e-06
3.47104e-06
-1.77202e-06
-3.2099e-05
3.38709e-05
4.0064e-05
2.11407e-06
6.25918e-05
-0.000180398
0.000200327
-2.06034e-06
2.51789e-07
1.81315e-06
-5.62542e-05
-6.25542e-05
0.000118815
0.000155475
0.00044803
-0.000603506
0.000405693
1.74789e-06
2.3541e-06
4.08182e-06
-2.33387e-06
-3.72466e-05
-3.82379e-05
7.54823e-05
1.30956e-05
-2.28384e-05
9.74848e-06
3.9181e-05
-2.68613e-05
-1.23198e-05
4.92679e-05
-6.26458e-06
-4.30015e-05
2.77679e-05
-1.74731e-05
-1.02934e-05
7.57201e-05
-7.57217e-05
0.000164432
-0.000111089
-5.33482e-05
-0.000637152
0.000352318
6.8366e-07
-2.74202e-06
2.39298e-05
-8.35321e-06
-4.49824e-05
2.91476e-05
-1.72982e-05
-1.55619e-05
3.54827e-05
-3.64329e-05
9.51813e-07
-3.99294e-06
8.79447e-06
-4.79681e-06
-7.48639e-05
-0.000222084
0.00029694
1.26633e-05
2.53098e-06
-4.10073e-05
-2.18313e-06
-6.35122e-06
-3.81328e-05
3.32197e-05
4.91279e-06
-3.52012e-05
4.38704e-05
-0.000225403
0.000262104
-3.67e-05
-4.77773e-06
1.91495e-06
-3.05873e-06
1.8163e-06
-0.00092973
0.000132772
-1.92505e-05
-3.95129e-05
4.17535e-05
-2.24036e-06
9.17961e-06
5.86986e-05
-6.7891e-05
-2.88304e-05
3.32369e-06
-6.54695e-06
1.56015e-05
-9.05456e-06
6.88624e-06
-1.56883e-05
8.80237e-06
-0.000383026
0.000482062
-9.9018e-05
0.000138546
-8.06943e-05
-5.78519e-05
0.000146254
-0.000738415
-0.000468199
0.000756076
3.02541e-05
-4.31721e-05
1.29127e-05
2.17859e-05
-1.43019e-05
0.000441143
9.1752e-05
1.98845e-05
-6.78669e-06
-1.24834e-05
-9.26345e-06
2.17472e-05
-3.85311e-06
-3.56323e-05
-0.000583193
0.000498553
-1.00746e-05
3.9714e-06
6.10358e-06
-8.01332e-06
-1.86927e-05
2.67075e-05
1.51063e-05
8.88118e-06
-2.39884e-05
0.000293466
-0.000317763
-1.83773e-05
8.31274e-06
1.00634e-05
9.03386e-06
1.62277e-06
1.07485e-05
1.07928e-05
-2.07389e-05
8.19182e-06
5.11481e-05
-5.44808e-05
6.51227e-06
-1.7366e-05
1.08519e-05
-1.19725e-05
-2.07568e-06
9.55571e-05
-0.000130155
3.46019e-05
7.94707e-06
2.36284e-05
-3.15756e-05
-0.000188422
0.00023938
6.97976e-05
6.87477e-05
0.000111544
0.000289004
-0.000400552
0.000363253
-0.00012737
-0.00072197
0.000725995
-2.19566e-05
-1.20288e-05
9.26084e-06
7.26821e-07
-9.99163e-06
-1.05529e-06
2.20885e-06
0.000148463
-0.000141128
-7.33466e-06
-1.63268e-05
7.249e-06
9.07831e-06
0.000173563
3.93592e-05
0.000370283
-6.41222e-05
-1.45326e-06
2.82956e-05
-2.68405e-05
-0.000233177
5.8949e-05
0.000174234
-0.000664239
0.000699245
-3.49996e-05
-1.52442e-05
2.31512e-05
-7.90953e-06
-2.30995e-06
2.00138e-06
3.10851e-07
0.000569046
-0.000876184
0.000189179
0.00012591
-0.000315102
5.494e-06
1.12998e-05
-1.67955e-05
-5.0616e-06
-1.43353e-06
6.49514e-06
0.000133657
3.4093e-05
-0.000167749
0.000577335
-0.000594126
1.68004e-05
-0.000150834
-0.00049953
0.000352496
-0.000191748
-0.000160748
5.26921e-05
-1.02537e-05
5.53209e-06
-1.89765e-05
1.34433e-05
1.7501e-06
-3.98525e-05
3.80995e-05
-2.37818e-05
6.99577e-06
-5.96461e-06
-1.0313e-06
-0.000163173
-8.24137e-06
0.000171408
-0.000236601
0.000560003
2.109e-05
-9.61444e-05
7.50563e-05
1.4153e-05
-0.000180798
0.000273277
-9.24741e-05
-8.85621e-06
4.86786e-06
-1.35084e-05
2.17635e-05
-8.24974e-06
4.15235e-05
-1.70888e-05
-2.44353e-05
-2.22035e-05
3.63785e-05
-1.41752e-05
6.96544e-06
-1.74183e-05
1.04543e-05
2.31921e-05
3.35931e-05
-5.67762e-05
-2.0762e-05
1.47624e-05
5.9994e-06
-2.88347e-05
-8.67766e-06
-2.22515e-06
0.000447127
-0.000133753
0.000322925
0.000312355
0.000210902
-0.000523249
-3.08483e-06
-2.37819e-05
-0.000181738
0.000165112
-6.9459e-06
5.68331e-06
1.26238e-06
7.99606e-06
-1.07164e-05
2.71995e-06
2.23203e-05
3.9117e-05
-3.90765e-05
-4.16344e-08
-2.07451e-06
-1.51182e-06
3.58659e-06
-2.53961e-05
-1.73583e-05
1.85574e-06
-1.52339e-06
-0.000103649
9.98566e-05
2.58381e-05
-2.72901e-05
-7.70958e-06
2.10988e-05
-1.50549e-06
1.95391e-06
-4.48739e-07
-4.35039e-05
8.41395e-06
3.50909e-05
-5.0633e-05
2.124e-05
2.9389e-05
-3.29758e-05
5.66305e-05
-2.36523e-05
0.000122512
3.43521e-05
-0.000156864
-2.86883e-05
3.52269e-05
-6.53933e-06
0.000595875
-0.000440396
-0.000397169
0.00113301
0.000664635
-0.00103305
5.56896e-06
-1.21162e-05
-2.86377e-05
2.7955e-05
6.79407e-07
0.000194067
-0.000213826
-5.19003e-05
0.000516604
-0.0004647
-2.44943e-05
-4.19386e-06
-1.28359e-05
-1.12585e-06
-7.87776e-06
-0.000456223
0.00020345
0.000252773
4.20735e-05
-3.47313e-05
-7.34292e-06
4.05708e-05
-3.8825e-05
-3.39284e-05
3.29571e-05
9.71802e-07
2.62398e-05
2.33047e-05
-4.94381e-05
0.000100211
-2.92384e-05
2.64365e-06
3.18853e-05
-3.45285e-05
1.65987e-05
2.49247e-05
5.27756e-05
-6.14787e-05
8.6987e-06
0.00119005
-0.00031183
2.71981e-05
-5.91841e-06
-2.12795e-05
-9.40608e-06
-5.59543e-05
6.53613e-05
-2.01266e-05
-8.37695e-06
-3.2852e-05
-1.22222e-05
1.57213e-05
-0.000231036
0.000244796
-1.06992e-05
-3.95669e-06
1.46544e-05
-0.000116453
-3.09153e-05
2.20334e-05
-2.38054e-05
-2.23601e-06
9.36833e-06
-7.13117e-06
-8.46472e-06
-8.59403e-06
1.70584e-05
8.34054e-05
-3.9556e-05
-4.38403e-05
5.42324e-05
-5.2168e-05
-2.06505e-06
-3.84326e-05
4.21584e-05
-3.73231e-06
-0.00092215
0.000105165
1.65091e-05
-5.92282e-06
-1.0584e-05
4.83238e-06
3.769e-05
-0.000352672
0.000464213
-6.67374e-05
6.18982e-05
-0.0001726
-0.000199529
0.000110711
-5.3222e-05
-5.74857e-05
1.11497e-05
-4.26271e-06
1.10428e-06
1.03403e-05
5.15232e-06
3.68328e-06
-8.83576e-06
9.93465e-05
-0.000116264
1.69099e-05
0.000139001
-1.91926e-05
-0.000119799
0.000228201
0.000524712
5.68981e-06
0.000262919
8.95772e-05
0.000241331
6.99821e-05
-0.000311312
-3.13388e-06
8.28571e-06
0.000112642
-0.000211924
9.92845e-05
2.78343e-05
-2.23066e-05
-5.5259e-06
7.2018e-06
-1.09258e-05
3.72413e-06
-8.03627e-06
2.15368e-05
1.64852e-05
-2.46484e-05
2.32116e-06
2.48777e-05
-9.79267e-05
2.7481e-05
7.04911e-05
1.20722e-05
3.67486e-07
-1.24403e-05
2.4462e-05
-2.18195e-05
7.80069e-06
-3.66344e-05
-0.000845183
0.00124203
-0.000396807
8.1834e-06
-3.24108e-05
4.39968e-05
-1.15813e-05
0.000709689
-0.000459175
0.000307923
-0.000406199
9.82783e-05
2.78882e-06
-5.02661e-06
2.26595e-05
1.42566e-06
-1.79747e-06
-2.03823e-06
-1.70636e-05
1.02874e-05
-0.000132819
0.000220569
-8.7749e-05
-3.12328e-05
2.46547e-05
-7.10045e-06
-4.25975e-06
1.13609e-05
8.2246e-06
-1.02268e-06
-4.79719e-05
3.22876e-05
-1.79392e-05
-1.31582e-05
3.10981e-05
-0.000803576
0.00113864
-0.000335047
-2.9016e-05
0.000105609
0.000314618
-0.000953375
0.000638781
1.79697e-05
1.29367e-06
-1.92608e-05
-2.16058e-06
-2.64781e-05
-5.3371e-05
-2.06677e-05
-2.62455e-05
-1.41736e-06
-8.63501e-06
1.00428e-05
2.35986e-05
-3.18918e-05
8.29227e-06
1.11439e-05
-5.4306e-05
4.31649e-05
-3.40983e-05
1.18903e-05
-0.000278919
9.81212e-05
-0.000390791
0.000338892
-0.000225026
6.1843e-05
1.75661e-05
-1.43428e-05
-2.28925e-05
-9.22726e-06
1.56635e-05
-6.43665e-06
-3.34817e-05
3.87536e-05
-5.27568e-06
-4.71356e-05
2.15486e-05
2.55819e-05
2.86821e-05
2.90412e-06
-3.15861e-05
-1.25141e-05
1.25143e-05
0.000413858
-0.000801845
0.00038801
8.84842e-06
-8.84171e-06
-1.80353e-05
3.1201e-05
-1.31614e-05
-0.000556428
0.000738355
-0.000181918
4.58373e-05
-4.13179e-05
-4.51725e-06
4.9975e-06
3.24336e-07
3.2899e-05
-3.75554e-05
-4.22828e-05
0.000770159
-0.000201107
-3.90313e-05
3.80995e-05
9.33441e-07
2.47361e-05
-1.88858e-05
-5.85305e-06
6.72836e-05
0.000183085
-0.000250387
7.17348e-06
-4.17434e-08
0.000422084
-0.000886284
-0.000281529
1.0029e-05
-2.52755e-05
2.61208e-05
-7.61337e-06
-1.85058e-05
0.00031701
-0.000258115
2.23766e-05
-1.34692e-05
-8.9082e-06
-1.12411e-05
1.30705e-05
-1.82732e-06
-0.00094107
0.000526354
-0.000940733
0.000659041
0.000115622
-9.61067e-05
-1.86913e-05
0.000182251
0.000367152
4.10373e-05
4.80115e-06
7.18667e-05
-4.86697e-05
1.16151e-05
-3.24345e-05
3.4586e-05
-2.15039e-06
-1.07744e-05
9.3453e-06
8.96518e-05
1.70391e-05
-0.000106668
6.87369e-05
4.19741e-05
-1.25395e-06
-1.53498e-05
0.000342552
-0.000101223
0.000245406
-0.000230915
-8.32189e-05
0.000637416
-0.000554183
5.34128e-05
8.19335e-07
-1.19668e-05
1.04603e-05
-8.73974e-06
4.56181e-05
-3.68853e-05
0.000390007
0.000123907
-0.000513917
-5.80665e-06
1.85578e-05
3.01197e-05
-2.61179e-06
-2.75053e-05
0.000648862
-0.000382299
-0.000266536
0.000151641
-6.19905e-05
2.5396e-05
-3.54056e-05
1.00127e-05
-2.64665e-06
2.6465e-06
2.71392e-06
4.01033e-05
-5.05107e-05
5.96899e-05
-1.18662e-05
0.000137092
-0.000649857
0.000512771
0.000213741
-9.77142e-05
-6.55179e-05
-1.25207e-05
1.11653e-05
1.58958e-05
-2.24996e-05
-6.15063e-06
2.86478e-05
0.00037397
-0.000743669
0.000369696
1.28711e-05
-1.17304e-05
0.00018226
-3.37982e-05
-2.9454e-05
2.86762e-05
7.76588e-07
0.000102849
0.000177775
-0.000280624
-2.8495e-06
1.08713e-05
1.9495e-05
-4.45525e-05
2.50586e-05
-0.000119805
6.35572e-05
-4.7057e-05
5.34127e-06
-2.16054e-05
-2.90322e-05
0.000940233
-0.000550224
7.66709e-06
-1.47675e-05
-0.000169307
0.000392989
-0.000223683
-1.39216e-05
-6.41472e-05
-9.47652e-05
0.000207413
8.07261e-06
9.95609e-07
-9.07299e-06
-8.72e-06
-7.60647e-06
6.70096e-05
8.71297e-05
-0.000154151
3.6531e-06
-4.2088e-05
-6.3867e-06
4.56037e-06
1.82131e-06
4.37939e-05
-3.08308e-05
4.39451e-05
3.17724e-05
-1.65691e-05
0.000593911
5.97661e-06
2.65232e-05
-3.25516e-05
1.41621e-05
1.36061e-05
1.14969e-05
-2.46301e-05
1.3134e-05
-6.1202e-05
0.000648026
-0.000586805
-4.46717e-05
0.000634697
-4.12728e-05
3.43976e-05
6.8765e-06
-0.00113365
0.000330067
0.000213088
-0.000173225
-3.98641e-05
-0.000257336
0.000569701
2.99247e-06
3.34976e-06
-1.40507e-05
9.17776e-05
-7.06873e-05
8.8698e-06
-3.13698e-05
2.52991e-05
-3.49281e-05
9.62572e-06
-1.58175e-05
6.59021e-06
2.72086e-05
-8.035e-06
-1.91716e-05
0.000167643
-0.000130933
-0.000481515
0.00027461
0.000206902
-3.2479e-06
-4.55498e-06
-1.49956e-06
1.11901e-05
-2.17808e-05
1.05872e-05
-2.38122e-06
3.1064e-05
-1.03123e-05
1.25114e-05
-2.19869e-06
4.79519e-05
-5.02336e-05
2.27735e-06
-0.000560648
0.000515953
3.74988e-06
-1.44153e-05
1.06654e-05
-2.81763e-05
1.41803e-05
1.39968e-05
1.68913e-05
2.31309e-06
-0.000109421
0.000109411
1.17619e-08
3.02042e-05
-0.00020693
2.15829e-05
-2.42577e-05
-5.23913e-05
3.99224e-05
1.24491e-05
4.71155e-05
6.59259e-06
-0.000369886
-8.51756e-06
0.000379161
7.81149e-06
-8.20111e-07
0.000752611
-0.000378645
-0.00077821
1.95028e-06
3.81419e-05
-0.000187753
0.000168255
3.64399e-06
3.08156e-05
-6.94371e-07
3.6548e-05
-9.35773e-06
-1.002e-05
1.93778e-05
-2.96163e-05
2.34524e-06
2.72698e-05
-0.000337101
-1.33865e-05
0.000171623
-0.000158233
1.94535e-06
-1.66516e-05
-0.000475091
-0.000419992
0.000895084
1.21788e-05
-2.73119e-05
1.51324e-05
1.99855e-06
-0.000220713
0.000218717
-6.07504e-06
-3.99963e-06
-0.000460621
7.75944e-05
0.000198271
-0.000130783
-6.74936e-05
-4.84619e-05
1.53345e-05
2.63709e-06
-1.73694e-05
-1.08068e-05
2.66009e-05
-2.05308e-05
-1.12995e-05
2.31557e-05
-1.186e-05
-0.000325486
0.000497609
-0.00017214
-0.000707523
0.000332161
0.000375361
-9.75012e-05
4.50966e-06
9.29918e-05
7.46626e-05
0.000139084
-2.34359e-06
2.45852e-05
-1.24068e-05
-8.97061e-05
0.000268616
1.34478e-05
3.22828e-05
-4.57497e-05
0.000364874
0.000151788
-0.000516675
-1.2859e-05
-6.6816e-05
7.96692e-05
-1.5791e-05
-3.53077e-06
0.00010627
-1.68942e-05
-8.12359e-05
0.000119608
-3.83708e-05
-9.28048e-06
2.90293e-07
1.54503e-06
3.8048e-07
1.32973e-05
6.59132e-06
1.27247e-05
1.44824e-05
-0.000163309
0.00110801
-0.000944646
-2.65299e-05
4.47028e-06
2.20587e-05
-1.00578e-05
-3.52244e-06
1.35801e-05
-0.000162676
-0.000304693
0.000467369
1.78907e-05
8.34081e-06
-2.62328e-05
-6.893e-06
-2.89294e-06
9.78908e-06
1.00055e-05
3.02492e-06
2.2539e-05
1.12468e-05
-2.00368e-05
8.78995e-06
1.4408e-05
-2.07563e-05
6.34758e-06
3.0955e-05
-2.96353e-05
-1.31957e-06
5.74238e-05
2.09694e-05
1.77773e-05
-1.46076e-05
-3.1671e-06
9.58315e-06
-2.05084e-05
-3.42487e-06
0.000142431
-2.94015e-05
-2.87626e-06
2.12207e-05
-1.19335e-05
-9.27923e-06
-3.13443e-05
1.58812e-05
1.54626e-05
-8.46918e-05
2.89054e-05
-1.203e-05
-0.000291374
-0.000164849
-3.34323e-06
-8.41139e-06
6.68213e-05
-1.40512e-05
-3.87454e-05
9.80953e-05
-5.93575e-05
5.2408e-05
-0.000203294
0.000150877
-1.3991e-06
2.59873e-05
-8.16625e-06
-1.11425e-05
1.93085e-05
-3.8209e-05
2.37061e-05
1.45039e-05
0.000100554
-8.36698e-05
-1.68827e-05
5.00968e-06
3.41714e-05
0.000125372
-9.51632e-05
-3.02189e-05
1.29734e-06
2.5385e-06
1.42692e-05
-1.73712e-05
3.10231e-06
-3.45377e-05
4.06588e-05
-6.12891e-06
-2.9629e-06
-8.27684e-06
0.000143059
-0.000150908
0.000100473
-0.000803974
0.000703533
1.17551e-05
-4.08724e-06
0.000533
-0.000222969
-0.000310036
-5.0574e-05
0.000291588
-0.000241003
-1.41975e-06
1.53756e-05
3.2042e-05
-8.24971e-06
-2.37861e-05
3.35677e-05
-1.60555e-07
-0.000143737
6.11773e-06
-1.10588e-05
0.000397147
-8.92204e-05
-4.29277e-05
-9.36175e-07
4.38638e-05
-1.28537e-05
3.63434e-05
-2.3493e-05
4.54227e-05
-6.68133e-06
-3.8739e-05
1.69982e-05
-5.75148e-06
-5.99433e-06
3.41012e-06
-0.000138261
-1.03391e-05
3.85314e-05
-0.000828985
0.000929447
-0.000334267
0.000269096
6.51711e-05
-7.00014e-08
-7.92765e-06
3.88077e-05
-0.00046328
0.000424474
4.76002e-06
6.99501e-06
1.90946e-05
1.27262e-05
-3.18215e-05