/*--------------------------------*- C++ -*----------------------------------*\
| =========                 |                                                 |
| \\      /  F ield         | OpenFOAM: The Open Source CFD Toolbox           |
|  \\    /   O peration     | Version:  v2012                                 |
|   \\  /    A nd           | Website:  www.openfoam.com                      |
|    \\/     M anipulation  |                                                 |
\*---------------------------------------------------------------------------*/
FoamFile
{
    version     2.0;
    format      ascii;
    class       volVectorField;
    location    "200";
    object      ddtCorrDdt0(U);
}
// * * * * * * * * * * * * * * * * * * * * * * * * * * * * * * * * * * * * * //

dimensions      [0 1 -2 0 0 0 0];


internalField   nonuniform List<vector> 
27802
(
(4.95052e-05 -8.80403e-05 1.55779e-21)
(6.39929e-07 6.11733e-06 0)
(1.77748e-05 -8.28463e-05 1.46226e-21)
(-0.000253571 -3.61171e-05 -1.97094e-21)
(3.73373e-05 9.23788e-05 0)
(-0.00377806 0.00606039 0)
(3.91899e-05 8.73824e-05 0)
(-0.000198119 0.00142927 3.24716e-22)
(1.74752e-05 -4.84438e-05 -7.29976e-22)
(-0.0142364 0.00413646 0)
(-0.00519749 -0.00096372 4.52166e-22)
(0.000293191 0.000981741 -1.48466e-21)
(6.02761e-05 0.000245165 3.37328e-22)
(-0.000156818 0.000673934 -1.87468e-21)
(-0.00528109 0.00329041 -1.88986e-21)
(-0.00125811 -0.000411217 1.85198e-21)
(0.00277109 -0.00260684 5.18688e-22)
(1.98194e-05 -4.54506e-05 6.35048e-22)
(-0.00481285 -0.00116816 0)
(-0.0121631 -0.0012596 -3.89993e-21)
(0.000900582 -0.000889978 -5.06779e-22)
(-0.00529535 0.00361186 0)
(2.98121e-05 -4.10436e-05 7.93502e-22)
(-0.00274316 -0.000160953 0)
(-0.000757662 -0.00156678 -3.63793e-22)
(0.000169394 0.000172992 7.63849e-22)
(2.87126e-05 7.90466e-05 0)
(-0.000364291 -8.82894e-05 -1.99758e-21)
(4.58146e-06 -7.85491e-07 -5.84551e-24)
(-0.000869417 -3.46075e-05 -1.28831e-21)
(-0.00277004 2.30708e-05 -1.57966e-21)
(8.39017e-05 0.000639375 4.29094e-23)
(5.03098e-05 -9.09514e-05 -1.49337e-21)
(-7.99287e-06 1.24412e-05 -1.53198e-21)
(2.16976e-06 0.000179565 3.4919e-21)
(-0.00592183 -6.8757e-05 2.53548e-21)
(-0.000545085 -0.000255544 -2.1132e-21)
(2.85249e-05 6.31343e-05 0)
(8.4428e-06 -0.000133078 0)
(0.00038975 2.14705e-06 0)
(0.000305108 0.000970203 6.20789e-22)
(-7.49989e-07 0.000179054 -2.28527e-21)
(0.000128454 -0.00038321 0)
(-3.19265e-06 -4.17905e-05 1.83202e-21)
(0.000128151 0.000136038 -2.42993e-22)
(0.00857898 -0.0011533 1.02633e-21)
(7.39284e-06 -0.000138686 -8.98312e-23)
(-0.000762371 -0.000522663 0)
(-1.58296e-05 0.000809976 2.63916e-21)
(0.00396879 0.0082361 -2.80494e-21)
(-0.00288473 -0.00299996 -1.98918e-21)
(0.000175547 0.000171899 -7.72801e-22)
(-0.0127767 0.000812814 0)
(0.000593568 0.00096825 1.57223e-22)
(3.12487e-05 -8.612e-05 1.22104e-21)
(2.04655e-05 4.55475e-06 0)
(-0.0052895 -0.00640202 1.09364e-21)
(9.86016e-06 9.47303e-05 0)
(0.000108435 9.55033e-05 8.95223e-22)
(-0.000538279 0.00144507 0)
(-0.00274475 0.00175813 0)
(-1.54615e-06 -8.61463e-05 0)
(8.39273e-05 0.000186421 4.29118e-22)
(2.21737e-05 1.25398e-05 2.59639e-21)
(-4.02961e-07 -5.28098e-05 0)
(5.25669e-05 -2.6524e-05 1.90311e-23)
(-0.000634686 0.011091 -1.20205e-23)
(-0.00510331 -0.00682323 0)
(-0.000628548 0.00137219 -3.9151e-22)
(4.69404e-05 -0.000106092 -1.77656e-22)
(-3.07824e-06 -3.56848e-05 -3.54486e-23)
(0.0101936 -0.00820492 -5.61696e-23)
(0.00522189 -0.0103344 0)
(0.000304582 0.00798582 0)
(-1.17664e-05 -5.9229e-05 -3.33508e-21)
(-0.000107433 2.67763e-05 -4.05873e-23)
(-8.24229e-05 0.0107461 -8.85884e-24)
(0.000663717 -0.000273947 4.17018e-24)
(-0.0260047 -0.000179051 -6.16676e-21)
(-0.00910087 0.000230978 0)
(3.28608e-06 -1.0626e-06 5.66038e-24)
(3.57157e-05 3.08427e-05 5.09389e-22)
(0.000252002 0.000358168 0)
(7.28807e-05 7.80879e-05 5.70816e-22)
(5.08869e-05 8.3806e-05 0)
(0.000477742 -0.000255103 -5.07598e-22)
(5.1581e-06 3.87248e-05 1.19845e-22)
(0.0206761 -0.00101928 0)
(-0.00344717 0.000735013 6.40643e-21)
(2.71349e-06 0.000213024 2.83223e-21)
(2.51015e-05 0.000107222 4.10316e-23)
(-0.0239827 0.000719107 9.43043e-21)
(1.46489e-05 -2.05664e-05 0)
(-0.000618895 -2.43927e-05 -1.20411e-21)
(0.00156444 -0.0114152 3.9406e-22)
(-0.000552008 -0.000360705 1.37054e-21)
(3.61338e-05 2.42595e-05 -3.39009e-22)
(-0.000488895 -0.000247674 9.13888e-22)
(-4.17157e-07 -3.46703e-05 -3.14641e-21)
(-0.00373898 -0.0103144 -2.34187e-22)
(8.03834e-06 -0.000130596 5.51313e-21)
(3.53426e-05 -6.91067e-06 0)
(0.000356794 0.00125541 1.25069e-22)
(-0.00281529 0.00121459 0)
(0.00579824 -0.0104455 -1.01184e-21)
(8.68582e-05 0.000187036 9.37846e-22)
(1.33473e-05 0.000196962 -1.30541e-21)
(-2.11424e-06 -4.79227e-05 -4.27386e-21)
(3.14815e-05 -8.95003e-05 1.13726e-21)
(0.000126781 0.000129237 5.06351e-22)
(-0.00103439 -0.000162366 -1.3371e-21)
(3.26453e-05 0.000105738 1.42886e-22)
(-9.80828e-06 2.62742e-06 -2.62834e-21)
(5.32082e-07 -3.66994e-05 -2.86072e-21)
(9.13238e-06 0.000201571 0)
(2.17439e-05 1.04662e-05 2.70161e-21)
(0.000157551 0.000203229 6.38666e-24)
(0.000941983 0.000697152 0)
(0.0180207 -0.0025362 -4.76425e-23)
(-0.000945274 -0.00147513 1.26104e-21)
(-0.0143122 -0.000793859 0)
(-0.000413906 0.00140142 0)
(-0.0141272 9.09169e-05 -5.536e-24)
(0.000902039 0.000762562 -9.64547e-22)
(0.0061127 -0.00152222 -5.6837e-22)
(0.000484368 0.000644804 -8.98142e-22)
(7.5113e-05 9.41421e-05 -9.8885e-24)
(6.27915e-05 -0.000326171 1.98284e-21)
(0.00492449 -0.000482855 1.74099e-21)
(-8.25452e-06 -1.42896e-05 -2.57108e-21)
(0.00219189 -0.00303296 9.46278e-22)
(0.000614777 0.000380987 -2.45457e-22)
(4.81041e-05 -0.000109528 1.49666e-21)
(-0.000246566 -0.000144403 -1.46002e-21)
(0.006315 -0.000688035 -1.21601e-22)
(-4.7746e-05 -0.000223108 0)
(-0.000120593 0.000546835 0)
(-0.000133498 0.000693392 1.0214e-21)
(9.07315e-06 -4.09471e-05 -2.04279e-21)
(4.36583e-05 -0.000111192 -8.29633e-24)
(-0.000153715 0.000665045 0)
(-0.0150948 0.00377698 1.47039e-22)
(4.59003e-05 0.000210463 -1.27479e-21)
(0.000191376 0.000179098 -8.73861e-22)
(2.62494e-05 6.42761e-05 0)
(0.0122781 0.0038878 1.8068e-21)
(0.000108558 0.000151732 -1.73003e-21)
(-0.000343628 -0.000710931 -1.88945e-21)
(1.28496e-05 -0.000147289 0)
(-0.00962731 -0.00999181 3.32078e-22)
(0.000163179 0.000148196 0)
(-0.00400891 0.00101834 5.8173e-23)
(0.00014201 -0.000365592 2.95347e-21)
(-0.0108113 0.002478 -7.79749e-22)
(2.43326e-06 3.18404e-06 6.86061e-24)
(-0.0240158 9.84096e-05 3.78068e-21)
(-4.35259e-05 -0.000218073 0)
(-0.000578249 -0.000347442 -3.45037e-21)
(6.93581e-06 -6.8253e-05 -2.41149e-21)
(1.56105e-05 9.47993e-05 -4.6381e-22)
(2.20558e-05 1.01713e-05 -3.0206e-21)
(4.89112e-05 -3.62879e-05 0)
(-0.00614461 0.00601272 -5.60794e-22)
(1.81361e-05 -5.23988e-05 -1.30079e-21)
(5.84809e-06 6.65153e-05 8.61194e-24)
(2.10272e-06 2.18181e-05 0)
(0.00460799 -0.00951561 1.40332e-21)
(4.51515e-05 -3.5878e-05 1.17916e-22)
(4.52228e-05 -0.000109624 -6.62185e-22)
(5.31414e-05 -0.0001088 -9.79994e-22)
(-5.88593e-05 -0.000223886 -9.48597e-22)
(-0.00481028 -0.00156435 -6.50281e-23)
(0.00371805 -0.00275615 1.56102e-21)
(0.00990067 0.00209565 -2.09776e-21)
(4.02066e-05 7.42895e-05 2.34043e-22)
(0.0062207 0.000811198 -5.47913e-22)
(-0.0140256 0.000313238 -3.44503e-22)
(0.0030365 -0.00822489 -1.79772e-21)
(2.18403e-05 8.54415e-06 -2.6369e-21)
(1.78971e-05 0.000196072 0)
(0.000978264 -0.00097742 -2.42384e-21)
(0.0110987 0.00681342 1.80327e-21)
(0.00503181 0.0006333 0)
(0.00426186 0.0068653 0)
(1.18556e-05 -6.9522e-05 -9.70011e-22)
(-8.96752e-05 0.000791232 2.82442e-21)
(0.00358768 -0.00265491 9.19331e-22)
(-0.000362967 0.00198111 0)
(-0.00673022 0.00238785 -1.30866e-21)
(5.21584e-05 0.000923021 2.06915e-21)
(-0.00305595 0.0072423 1.30528e-22)
(3.77495e-07 2.31612e-05 0)
(2.13974e-05 -7.77212e-05 2.06011e-21)
(-0.00174186 -0.0118063 -8.93919e-22)
(3.87504e-06 -0.000120206 -2.59022e-21)
(-0.00320867 -0.00083937 -1.32651e-22)
(-0.0195611 0.00103447 2.58734e-21)
(-0.0088772 0.00435407 0)
(-0.00120702 -0.0119004 -1.40171e-21)
(0.0163515 -0.00457111 0)
(0.000289095 -0.000193803 3.25749e-22)
(1.61969e-05 0.000113302 0)
(4.98649e-05 -0.000103068 0)
(0.000161279 0.000200457 0)
(-0.00330978 0.00715672 2.02468e-22)
(0.00120613 -5.09369e-05 6.91577e-22)
(4.45068e-05 -2.57268e-05 -2.26628e-22)
(1.97646e-05 -3.03109e-05 8.72391e-22)
(0.000745237 2.31711e-05 4.52683e-21)
(3.86301e-05 5.70226e-05 -1.61878e-21)
(1.03539e-05 -0.000146172 -5.94561e-22)
(0.018408 -0.0123199 2.32398e-22)
(-0.000246307 -6.07443e-05 1.96783e-21)
(0.00707823 -0.000763027 0)
(7.99036e-06 -6.59583e-05 2.06759e-21)
(3.12994e-05 7.37264e-05 0)
(0.00199662 -0.00291657 1.59655e-21)
(2.45035e-05 -1.76829e-05 1.53223e-21)
(2.20783e-05 0.00013522 -7.66516e-22)
(1.64146e-06 4.31371e-05 0)
(0.00178469 -0.00980602 -6.07669e-22)
(4.13024e-05 6.38354e-05 8.42433e-22)
(3.04017e-05 0.000146134 2.73059e-23)
(0.00469766 -0.0070336 -7.56516e-22)
(1.64338e-05 3.33403e-05 0)
(6.26063e-05 -0.0088436 6.17635e-22)
(8.99375e-05 0.00012671 -3.13546e-22)
(-0.000372524 -0.000732889 2.11167e-21)
(-4.393e-06 -1.21133e-05 -2.28096e-21)
(2.42896e-05 4.59257e-05 -2.93233e-21)
(1.08718e-06 -3.96335e-05 0)
(0.00016899 0.000257842 5.90732e-25)
(-0.00133701 -0.00785658 0)
(-5.93357e-07 0.000178937 2.83153e-21)
(8.62087e-07 1.97068e-05 0)
(0.00459773 0.000804071 4.27191e-21)
(-9.56504e-05 0.00053494 -9.62547e-22)
(0.000351127 0.000451322 0)
(7.32356e-05 9.54731e-05 -6.64269e-24)
(0.000174615 0.00121263 0)
(0.0001446 -0.00121456 0)
(0.00615543 0.00221474 7.36517e-22)
(0.0109962 0.00689215 2.46433e-23)
(0.013084 -0.0059066 -1.35378e-24)
(-0.00188759 0.000679179 0)
(2.44617e-05 -0.000237679 0)
(2.37876e-05 9.7817e-05 -2.45966e-22)
(-0.000201324 -0.00061651 0)
(1.07068e-05 -6.76614e-05 1.31486e-21)
(2.18749e-05 3.44186e-06 1.95252e-23)
(0.00443763 0.00164655 1.63751e-22)
(7.85984e-06 2.17709e-05 0)
(0.00013911 -0.00114847 0)
(1.95414e-05 -2.23826e-05 -3.12553e-21)
(0.0212856 -0.000966666 1.44335e-23)
(0.0122551 -0.00650483 0)
(6.44241e-05 -0.00037228 -1.0946e-21)
(-0.0006839 -6.05132e-05 8.42642e-22)
(4.72293e-05 -0.000101427 -3.09472e-22)
(-1.33134e-05 -6.03242e-05 2.10644e-22)
(1.30661e-05 2.62731e-05 0)
(-0.0121297 -0.000660136 -3.71494e-22)
(0.0170779 -0.00298955 0)
(-0.00630365 0.00243042 1.12808e-21)
(4.07756e-05 -7.86334e-05 6.34228e-23)
(4.54549e-05 -3.4649e-05 5.80093e-22)
(-7.5515e-06 2.20562e-05 5.07596e-22)
(-7.16196e-05 0.000798633 0)
(0.0124338 -0.00646829 0)
(8.13479e-05 0.000603767 -6.4568e-23)
(0.000264951 -0.000211227 0)
(0.000231195 5.08225e-05 9.67052e-22)
(-0.00271311 0.00129166 2.54333e-22)
(1.73625e-05 -4.56557e-05 -1.52509e-21)
(1.0481e-05 2.56315e-05 -2.91297e-22)
(-2.08923e-07 0.000175438 -1.90395e-21)
(0.000564155 0.00038553 0)
(7.21429e-07 -0.000110839 1.54694e-21)
(4.20071e-05 4.03461e-05 1.07436e-21)
(0.0131996 -0.00583309 1.87749e-23)
(4.75045e-06 8.7736e-08 -3.2951e-21)
(-5.06614e-05 0.00022179 2.93919e-22)
(0.000373215 -0.00154385 1.6168e-21)
(0.000898854 0.00801583 0)
(0.00316846 -0.00273907 -3.38512e-22)
(-0.000114079 -0.000169777 2.73243e-21)
(0.00343653 -0.00904751 0)
(1.60844e-05 -5.39279e-05 4.34616e-23)
(-0.000729681 -0.000555266 -9.7095e-22)
(-0.0111822 0.00217763 -9.0215e-22)
(-0.0018703 -0.00140605 0)
(-0.0199577 0.000802796 -2.44348e-21)
(-0.0141574 -0.000347278 -1.51424e-21)
(0.000108912 0.000103781 -2.5746e-22)
(-1.02588e-05 -1.56695e-05 -2.17314e-21)
(4.04637e-05 -5.3117e-05 0)
(3.71067e-06 -1.32683e-05 -4.28003e-21)
(0.00495371 -0.000792016 0)
(0.000502876 -7.33189e-05 -1.35708e-21)
(-0.000329521 0.00147809 0)
(0.00497028 0.0010149 0)
(6.36522e-05 0.00011258 0)
(0.0037292 0.00880896 -1.41829e-21)
(-0.0674631 0.0758719 1.54328e-20)
(-0.00239767 -0.00478664 1.37322e-22)
(5.96802e-06 -9.73284e-05 4.68215e-22)
(0.00312368 -0.00204224 -6.19428e-24)
(4.74125e-05 -0.000105642 1.64401e-22)
(-0.00863886 -0.00386933 -6.54561e-22)
(4.01792e-05 2.20552e-06 -9.75768e-22)
(0.00297318 0.00800156 -8.17996e-22)
(-0.000824828 0.00258944 -4.01524e-22)
(0.00131274 -0.00135761 1.45355e-21)
(1.19414e-05 0.000105177 1.88958e-22)
(0.00684181 -0.000924841 0)
(0.0065319 -0.00031072 1.75778e-21)
(0.000826866 0.00121404 0)
(5.00184e-06 -2.37675e-06 -1.49023e-21)
(-0.000371084 -0.000123859 3.3038e-21)
(0.00542514 -0.00101786 8.01165e-22)
(3.82869e-05 1.50349e-05 1.15198e-21)
(-2.04211e-05 -7.04516e-05 1.68767e-21)
(-2.14724e-05 -0.0052864 0)
(0.00431113 0.00863973 -1.51214e-21)
(-0.0198358 -0.000826048 -2.03709e-21)
(1.55973e-05 -1.75476e-05 0)
(0.000211961 0.000351308 1.17795e-21)
(-0.000216926 0.000525495 0)
(0.015722 -0.00384713 7.85504e-24)
(1.33651e-05 3.07735e-05 -4.7463e-22)
(0.0024067 0.00744422 4.20764e-22)
(2.20954e-05 -4.8771e-05 6.58716e-22)
(1.38975e-05 9.88792e-05 -3.98493e-21)
(0.000107401 -0.00558367 0)
(0.000913506 -0.00110589 5.36293e-21)
(8.25214e-05 0.000130433 -1.57212e-22)
(1.68562e-05 0.000141594 8.17953e-22)
(1.50908e-06 0.000212776 2.35948e-21)
(-0.000643571 0.00264214 2.69886e-23)
(-0.000105761 6.09978e-06 -5.51036e-21)
(4.31084e-05 9.3863e-05 -5.45911e-22)
(-0.00376611 0.00129577 0)
(4.3367e-05 4.108e-05 -6.66675e-22)
(-0.00172673 -0.00105101 0)
(-0.000411924 -7.30946e-05 2.3034e-21)
(-0.00871014 -0.000144831 0)
(3.54042e-05 -0.000275722 0)
(2.836e-05 -8.70869e-05 0)
(3.47478e-05 -0.000227899 9.18734e-22)
(2.33809e-05 -7.71051e-05 -6.03318e-22)
(-0.000114617 0.000788839 0)
(-6.06843e-05 0.000786931 -2.19686e-21)
(3.61576e-05 6.08634e-06 0)
(-0.000695913 -1.75542e-05 -7.90343e-22)
(6.05661e-05 0.000107643 -1.04105e-21)
(3.96447e-05 5.36671e-05 1.54631e-21)
(4.29721e-05 -9.75784e-05 0)
(3.88876e-05 -0.000113858 -8.68242e-23)
(0.00197887 -0.00145158 -8.14971e-21)
(1.28634e-05 -1.75372e-05 -2.6999e-21)
(0.000592403 -0.00890046 -1.51383e-21)
(-0.00538359 -0.000980162 1.61382e-23)
(-0.00446598 -0.00259509 1.22561e-21)
(3.9047e-06 -4.31561e-05 -1.78963e-21)
(4.6643e-05 9.03868e-05 -3.56258e-22)
(4.84306e-05 9.29247e-05 -1.21157e-21)
(0.00619243 0.00246154 0)
(1.81444e-05 -5.48867e-05 -6.574e-22)
(0.00144176 -0.000432589 0)
(-1.56465e-05 -8.8778e-06 4.7915e-21)
(-0.00168367 -0.00763603 0)
(-0.000639489 0.000384021 0)
(-0.000262561 -0.000105622 6.55578e-22)
(9.90304e-05 -8.15726e-05 -3.61653e-22)
(2.44723e-05 -4.96084e-05 1.46761e-21)
(5.72564e-05 4.26664e-05 2.35122e-21)
(0.000254068 -0.0001909 -2.8451e-22)
(1.22928e-05 9.46172e-05 -1.33633e-21)
(-0.00737072 0.00184274 1.07055e-21)
(2.84072e-05 -4.95835e-05 -7.00453e-22)
(0.000101081 0.000139477 2.02692e-21)
(1.40613e-05 0.000110526 3.81507e-21)
(2.73202e-05 0.000137963 -1.76197e-21)
(1.21356e-06 3.96028e-05 1.34946e-22)
(5.21067e-05 8.25413e-05 0)
(0.000459111 -3.15209e-05 9.09983e-21)
(-0.000322763 0.000626711 0)
(-0.00245811 0.000648866 -1.06578e-21)
(0.00788777 0.000565732 2.63586e-22)
(-0.000432926 0.00107317 0)
(4.16112e-05 0.000102601 5.10011e-22)
(0.000998472 0.0164311 -1.21266e-21)
(1.97604e-05 0.000123425 3.03129e-21)
(4.50276e-05 -9.86263e-05 3.47862e-22)
(0.000328926 0.000456359 1.63941e-21)
(0.000112088 0.000130061 7.42504e-22)
(1.37598e-05 0.000113866 5.12262e-22)
(0.0176761 0.00060625 -3.21304e-22)
(-0.00327125 0.00580855 1.3208e-22)
(0.0231667 0.00084807 0)
(-0.000298361 0.000825436 -3.73173e-21)
(0.00690948 -0.00104232 0)
(1.79097e-05 -1.55554e-06 -1.66903e-22)
(5.75257e-07 -9.56135e-05 0)
(0.00183313 0.00758916 -3.69414e-21)
(0.00140223 -0.00148182 -1.27912e-21)
(-8.19722e-06 -0.000106765 3.96273e-21)
(2.24311e-05 3.30933e-05 0)
(0.00286783 -0.0020921 -7.14387e-22)
(7.659e-05 -0.00029165 -9.65444e-22)
(3.95747e-05 4.07952e-05 -1.91256e-21)
(7.62405e-05 0.00018673 1.3959e-21)
(0.0142442 -0.00627516 0)
(0.00418363 -0.0100842 7.37985e-22)
(-0.00594819 0.0150588 4.52215e-22)
(-0.020175 0.00115221 0)
(9.97569e-06 2.94172e-05 2.59169e-22)
(-0.00441205 0.00620086 6.46748e-22)
(3.59609e-05 -1.89174e-05 0)
(-0.0142792 0.00510578 7.82125e-22)
(-0.000149232 -0.000383502 -1.86271e-21)
(-0.000264722 -4.40482e-05 2.82609e-23)
(-4.17941e-07 2.11525e-05 0)
(3.94222e-05 6.98026e-05 0)
(0.00013969 0.000205991 2.77956e-23)
(-2.51066e-05 -0.000226486 -1.93987e-21)
(0.000159484 0.000152498 0)
(4.25432e-05 8.66287e-05 6.07554e-22)
(3.2045e-05 0.000138648 3.47806e-22)
(-0.000154323 0.000523996 1.75083e-21)
(7.58817e-06 -3.48097e-05 2.64463e-21)
(5.02022e-05 -0.000126493 2.71968e-23)
(0.00456454 -0.00657742 1.33484e-21)
(0.00210622 -0.00967436 6.12895e-23)
(-0.000214651 0.0005646 2.71141e-21)
(0.00177262 -0.00137468 0)
(-0.000109859 0.00149977 1.80365e-22)
(0.000113513 0.00064869 1.63429e-21)
(0.00439384 0.00138363 0)
(4.64684e-05 -9.34671e-05 0)
(0.000121491 0.000235202 -2.03888e-21)
(-0.00428756 -0.00154357 6.28372e-23)
(0.000123793 -9.37423e-05 -1.24282e-21)
(1.158e-05 8.77414e-05 -1.62661e-21)
(7.25164e-05 0.000185747 -1.652e-21)
(-0.000108457 -0.000181428 -3.08668e-21)
(-0.000108761 0.00042092 1.85578e-21)
(6.88598e-05 -7.62686e-05 4.2462e-23)
(1.14342e-06 -2.50133e-05 0)
(1.09634e-05 2.91666e-05 -4.7741e-22)
(0.00674602 0.000623356 -6.43609e-22)
(0.00443707 0.00822727 1.52451e-21)
(7.24642e-05 -7.43094e-05 0)
(2.78863e-05 4.99134e-05 -1.33166e-22)
(0.00733601 -0.000879402 1.16302e-21)
(1.68076e-05 0.000113782 2.2532e-21)
(0.0123277 -0.000538445 0)
(1.96727e-05 9.81716e-05 2.45554e-22)
(5.04793e-05 7.89347e-05 -3.19241e-22)
(3.02412e-05 -0.000260229 -1.16067e-22)
(0.0116266 0.00139144 6.23321e-22)
(4.31027e-05 -0.000112564 2.81953e-22)
(-9.67359e-06 4.0662e-06 0)
(-0.0100129 0.00372175 -5.92445e-22)
(5.29091e-06 -0.000119992 0)
(0.000662175 -0.00111608 9.66496e-22)
(0.0183905 -0.00222041 2.99926e-23)
(-0.00035476 0.000633731 0)
(8.13869e-06 -2.03721e-05 0)
(-0.019584 -0.00111325 -2.01256e-21)
(0.000265572 -0.00155462 -1.64542e-21)
(0.00012864 0.00065339 0)
(0.000857056 -0.00155705 0)
(0.000881679 0.00216892 6.37013e-23)
(7.02872e-05 6.48111e-05 -3.34725e-22)
(0.000120488 0.00013692 2.09274e-21)
(2.2114e-05 8.82237e-06 0)
(0.00564894 0.0142167 -3.90985e-21)
(3.20849e-06 -8.98057e-05 -3.64073e-21)
(0.00056319 0.000178643 -4.31398e-22)
(4.44387e-05 -0.000109504 0)
(-0.000135928 -0.000372208 3.8305e-21)
(0.00182734 0.000716846 8.01757e-22)
(0.0131834 -0.00564983 0)
(2.76791e-05 5.27808e-05 -2.53642e-22)
(1.64731e-05 0.000201758 -1.48972e-21)
(-0.000129115 0.000430242 -2.86211e-21)
(2.30437e-05 -9.91671e-06 -4.63105e-22)
(5.68226e-05 3.74513e-05 -1.02703e-21)
(4.34681e-05 -6.84297e-05 0)
(1.4784e-05 -1.5707e-05 2.94954e-21)
(0.00258651 0.000902204 8.57066e-24)
(-2.9214e-05 -0.000627805 -6.0284e-23)
(0.000132844 0.00122927 4.198e-23)
(0.00474165 -0.0078303 -8.73644e-22)
(5.23033e-06 -6.07767e-07 -2.00285e-21)
(0.000204237 -0.000279595 1.20129e-21)
(0.0224658 0.00107152 4.30403e-22)
(2.64546e-05 -2.75294e-06 0)
(2.19817e-05 -0.000218093 3.49029e-23)
(4.84011e-06 -4.1614e-05 -8.60015e-24)
(4.49705e-06 3.85093e-05 6.94026e-23)
(0.0143238 -0.0153881 0)
(0.00651403 0.00109873 0)
(2.42769e-05 0.000179293 -4.2101e-22)
(0.00510553 -0.00118651 -7.31211e-22)
(0.00710005 0.00299525 -6.98464e-23)
(1.01209e-05 0.000112724 0)
(0.00680068 0.000752483 1.30408e-22)
(1.40466e-05 3.47523e-05 0)
(-0.000455006 0.00151951 0)
(8.2136e-05 0.000250077 2.98957e-22)
(4.35224e-05 -7.03824e-05 -7.95229e-23)
(2.94618e-06 -4.99325e-05 0)
(3.49853e-05 0.000133503 0)
(7.65544e-05 -0.000315285 1.96596e-21)
(0.0019049 4.36138e-05 0)
(0.00715681 -0.000637569 -4.59864e-22)
(3.95493e-06 2.23454e-05 -5.49734e-21)
(0.00339058 0.00102327 0)
(0.0124897 -0.00319914 0)
(-0.00689808 0.00184717 -4.75384e-22)
(1.05639e-05 -7.50334e-06 0)
(8.81719e-06 -1.96337e-05 0)
(-0.000388807 0.00162264 -7.15151e-21)
(0.000218189 0.000117505 -8.24886e-22)
(1.76401e-08 9.2837e-05 -4.76834e-21)
(0.000256401 0.000463268 -2.05819e-23)
(8.91292e-05 0.000163131 5.56935e-22)
(-0.00146913 0.000326922 0)
(0.00100902 0.00117047 -1.43833e-21)
(-0.0139632 7.4371e-05 1.62322e-21)
(-5.94034e-06 1.87198e-05 5.56233e-21)
(4.98657e-05 -0.000103002 3.91482e-22)
(0.000998854 0.00120609 0)
(8.3937e-06 0.000111923 2.59219e-21)
(6.47172e-06 -0.000119642 1.8653e-21)
(1.28954e-05 -7.06402e-05 -1.27527e-21)
(-6.38301e-05 -0.00676169 9.10803e-22)
(3.5863e-05 2.44128e-05 -2.67684e-22)
(0.00160489 -0.00149256 0)
(3.36336e-05 -4.97084e-05 0)
(-0.000165479 0.000937944 5.11528e-21)
(0.000478977 0.00061874 -4.57884e-22)
(0.00713046 -0.000982127 -1.03455e-20)
(-5.4413e-06 -1.83508e-05 9.56423e-22)
(1.0099e-05 -5.9121e-06 0)
(0.0229885 0.000853634 0)
(0.00120357 -0.000129849 -3.62032e-22)
(8.87681e-06 -0.000136153 0)
(0.000338094 0.000619066 0)
(0.000115125 0.000137384 3.5533e-22)
(4.82449e-05 -3.58951e-05 0)
(2.25812e-05 -5.31244e-05 1.14275e-21)
(-0.0120514 0.00101179 0)
(0.000942247 -0.00062015 -1.08768e-21)
(0.0112431 0.00238232 0)
(0.0120834 -0.00587627 0)
(-0.000178081 0.0010084 2.36874e-21)
(2.73702e-05 -7.77813e-05 -2.63211e-22)
(0.010452 -0.00777144 3.84621e-23)
(0.000204556 0.000118849 -1.5232e-21)
(4.62585e-05 -7.81545e-05 0)
(-0.000166973 0.000664396 -6.20798e-21)
(-0.017464 -0.000994047 8.78166e-21)
(7.37839e-06 -2.07487e-05 -1.31618e-22)
(7.79984e-06 0.000149645 -1.36304e-21)
(3.1583e-05 5.9062e-05 9.67658e-23)
(0.0074116 0.00277181 3.25013e-22)
(4.35317e-05 -4.95007e-05 1.15062e-21)
(2.21369e-05 6.74489e-06 0)
(2.99674e-05 -4.90906e-05 0)
(4.0627e-05 -7.38727e-05 -2.73983e-23)
(0.00120108 -0.000399158 1.15484e-22)
(4.54976e-05 -4.72727e-05 0)
(0.000212138 -0.00029742 0)
(-0.000291612 -0.000925892 -2.31341e-21)
(3.92484e-05 0.000125089 -2.40768e-23)
(-0.00268608 0.000630649 -1.38609e-23)
(0.000973464 -0.000689753 9.26901e-22)
(0.0105489 -0.00323913 -1.64532e-23)
(-0.00862008 -0.00345388 -3.92889e-22)
(-0.0211743 0.00102646 3.37931e-21)
(4.41565e-05 -0.000115553 -4.48586e-22)
(1.27484e-05 3.14194e-05 1.20173e-21)
(5.22657e-06 2.33994e-07 -1.00785e-21)
(0.00316004 -0.00106364 7.78029e-22)
(1.47928e-05 -3.14099e-05 0)
(-0.00224352 -0.00426673 -2.79801e-22)
(-0.00257608 0.00537922 -2.8156e-22)
(0.000347651 0.000287882 0)
(0.00620573 0.000583939 -3.70213e-22)
(0.018991 0.000832812 -1.47801e-21)
(4.77652e-05 -0.000118976 0)
(5.10018e-07 1.49888e-05 -1.71573e-21)
(0.0235389 0.000659628 -9.90497e-22)
(0.000426783 0.00373655 1.83918e-21)
(3.25995e-05 -4.14407e-05 -5.14639e-22)
(1.81763e-05 2.42635e-06 1.09801e-23)
(-0.00346707 0.0013604 9.90348e-22)
(0.00401979 0.00714741 0)
(-0.00955075 0.00362551 0)
(0.00806248 -0.00031971 1.77134e-22)
(-0.000671778 0.00106994 0)
(7.34879e-05 8.94595e-05 -4.37155e-22)
(-0.000220425 0.00101395 4.32297e-21)
(0.000546731 1.65013e-06 -4.38398e-21)
(1.64521e-05 -2.61256e-06 1.0893e-21)
(0.00298712 0.00295168 8.81343e-22)
(0.0132016 -0.00561828 -2.49266e-23)
(0.00093247 0.000225573 3.50897e-23)
(0.000285213 0.00130353 0)
(0.0061035 -0.00028661 4.82144e-22)
(1.98795e-05 -7.03149e-05 -8.07839e-22)
(-0.00025228 0.00011607 6.53924e-22)
(2.50522e-05 0.000113712 -1.25739e-22)
(-6.04294e-05 0.000524149 3.42324e-22)
(3.35926e-05 -4.6307e-05 0)
(6.28277e-05 -0.000438858 7.62321e-22)
(-4.72953e-06 0.000233083 -1.69857e-21)
(0.000318415 0.000477562 -2.05644e-21)
(0.00687166 -0.00183793 1.44534e-22)
(0.000734017 0.00357436 -1.60245e-21)
(-0.0133892 -0.00118625 -5.35264e-22)
(0.000118659 -7.74411e-05 -3.40921e-22)
(-0.00641294 0.000465174 -3.6591e-21)
(1.84972e-06 1.72958e-05 1.18754e-22)
(6.0866e-05 -1.84247e-05 -5.44335e-22)
(8.19905e-05 0.000194558 1.21199e-22)
(0.000151785 0.000623179 -1.48273e-21)
(7.71604e-06 -1.69528e-05 1.27232e-21)
(0.000512868 0.000227214 -3.63238e-22)
(6.66436e-06 -1.79423e-06 1.92005e-21)
(0.000728347 -0.00109786 0)
(0.000334108 0.000277499 7.37621e-22)
(4.19501e-05 6.15701e-05 -1.32252e-23)
(6.28831e-06 -9.92883e-06 -2.25175e-21)
(0.000271903 0.000184267 -1.73977e-22)
(-1.34433e-05 0.000667059 -4.99764e-21)
(5.82742e-05 0.000498085 1.99321e-21)
(6.98879e-05 -0.00301128 1.93089e-22)
(0.000104127 0.000188295 0)
(0.0127132 -0.00265718 -1.98e-23)
(-0.00613196 0.0158068 0)
(0.00104588 0.0167279 2.78571e-23)
(4.65281e-05 -2.65491e-05 1.03648e-22)
(0.000213253 0.000260025 -2.24283e-21)
(-0.00333199 0.00115462 0)
(0.0127587 -0.00348579 -1.56051e-23)
(0.000101117 0.000181296 0)
(3.60452e-05 3.00389e-05 1.78768e-22)
(-0.000172666 0.000957769 0)
(-0.00300372 -0.00365651 1.92384e-21)
(2.08139e-05 0.000135648 0)
(-0.000202883 0.00107204 -2.30321e-21)
(1.23203e-06 9.32435e-05 -2.34532e-21)
(0.000489642 0.00112549 0)
(0.00029851 0.0019768 0)
(-3.00869e-07 0.000111722 1.71242e-21)
(2.73856e-05 0.000111357 3.45096e-22)
(0.000102343 -0.000900544 0)
(0.00947037 0.0136641 0)
(9.04874e-05 0.000154871 2.1315e-22)
(-0.000100453 -0.000419076 1.64882e-21)
(0.000605478 -0.000274257 -6.0429e-22)
(1.32901e-06 7.57348e-05 -2.45546e-21)
(7.0699e-05 5.88464e-05 0)
(-0.00770144 0.000252938 0)
(2.56693e-05 -8.00675e-05 4.06385e-21)
(0.000806427 0.00129908 0)
(3.67051e-05 0.000123983 -2.5997e-22)
(-1.02399e-05 -3.01963e-05 0)
(2.82134e-05 -6.17744e-05 -1.48134e-23)
(0.00125502 -0.00155299 -2.06271e-23)
(-0.000330827 -0.000167062 -5.79112e-22)
(6.57975e-06 0.00010948 -1.34865e-21)
(-0.0261775 -0.000189188 1.34824e-21)
(4.26809e-05 3.50095e-05 -7.11935e-23)
(-0.000244744 7.155e-05 2.02964e-21)
(0.0104402 -0.00378757 4.20892e-23)
(-7.05648e-07 0.000183268 6.38408e-21)
(0.00398142 0.00746072 1.52052e-21)
(0.000587997 -0.000352982 -1.46201e-22)
(2.22526e-05 -4.25746e-05 -9.1533e-22)
(9.27283e-06 -8.88453e-05 -2.03066e-21)
(9.83134e-06 2.38041e-05 -1.08537e-21)
(0.00311421 -0.000416881 0)
(0.00272529 0.00221802 -5.77879e-23)
(0.012102 -1.65623e-05 0)
(-1.66401e-05 4.42414e-05 0)
(0.00811514 -0.000271701 -1.68616e-22)
(0.00818631 0.000431767 0)
(9.40405e-06 1.98966e-05 -1.13269e-21)
(0.00345028 -0.00240096 7.48796e-23)
(0.000226899 0.000140874 -1.99262e-22)
(9.02705e-07 2.57757e-05 0)
(1.96813e-05 -5.41087e-05 2.00538e-21)
(5.63046e-05 -0.000131887 0)
(9.68408e-05 0.000164525 -6.91248e-22)
(0.00280858 0.000325427 0)
(3.45268e-05 -2.78107e-05 0)
(-2.37396e-07 8.33482e-05 0)
(0.000291157 0.000466049 -8.85757e-22)
(0.0140518 -0.0150968 1.37876e-22)
(1.98732e-05 9.96364e-05 -2.9387e-21)
(0.00109337 -0.000380432 7.31495e-22)
(0.0167353 -0.00336377 -3.09205e-23)
(-0.00376499 0.00685009 9.4233e-22)
(-1.0821e-05 -1.84266e-05 0)
(0.000102065 -8.9225e-05 0)
(-5.92074e-07 1.03417e-05 0)
(7.30903e-05 8.68617e-05 -6.61913e-22)
(0.00249743 0.000422602 2.22597e-22)
(1.99991e-05 9.44497e-05 2.76871e-22)
(5.22598e-05 -5.84539e-05 9.6491e-22)
(9.0214e-07 1.93553e-05 0)
(8.31227e-05 -0.000280379 2.02122e-21)
(9.9714e-05 0.000182466 3.08983e-22)
(0.0177652 -0.0131154 -6.20746e-22)
(-0.00074536 -0.00193264 0)
(-0.0118491 -0.00975341 0)
(0.000100186 0.000137073 0)
(0.000216726 0.000272706 1.14402e-21)
(-0.000479043 -0.000197848 4.05412e-22)
(4.54974e-05 9.53546e-05 3.72839e-22)
(4.03435e-05 2.68363e-05 5.64193e-22)
(3.57151e-05 -0.000105828 -9.15149e-25)
(0.000998937 3.14938e-05 5.05208e-22)
(-7.67906e-05 0.000532173 1.78315e-21)
(0.00638823 0.000155851 -9.22954e-22)
(0.0130591 -0.00299873 -1.22446e-22)
(0.00402856 0.00282973 -9.79609e-22)
(3.32684e-05 -3.83991e-05 4.65216e-22)
(-0.000168223 0.000965018 7.36457e-21)
(2.44884e-05 -6.1147e-05 9.62877e-22)
(1.12837e-05 0.000114328 0)
(-8.04949e-05 0.00114399 -6.50685e-21)
(2.09417e-05 0.000112769 -3.97632e-22)
(0.000227524 -9.1567e-05 -1.04814e-21)
(0.00512646 -0.011155 -2.834e-21)
(-0.000494419 0.000256516 -6.97504e-21)
(-0.0011301 -0.000268123 0)
(-0.0252087 0.000347799 0)
(2.01755e-05 0.00017831 -5.34488e-22)
(0.000239869 0.000130335 2.05759e-22)
(-0.000173422 0.000896723 -4.13174e-21)
(0.000453705 -0.00022697 2.59347e-22)
(0.0235557 0.000546306 1.50755e-21)
(-0.00023568 0.000662584 -2.46853e-21)
(2.54042e-05 -6.51123e-05 5.98265e-22)
(0.00152985 0.00806311 0)
(-1.72497e-06 -2.32996e-05 2.06621e-21)
(0.0221163 0.00108833 -4.00586e-22)
(0.00768096 -0.00122589 7.95128e-21)
(4.67003e-05 -0.000116855 1.16292e-21)
(8.49991e-06 -8.93409e-05 4.31341e-21)
(0.00271515 0.00784166 -2.6611e-21)
(2.32402e-05 -5.50578e-05 -1.30005e-21)
(6.13646e-05 1.97051e-05 0)
(-0.00289819 0.0194314 1.39024e-21)
(-0.0128895 0.00524019 -8.3196e-22)
(0.00180454 0.00239677 0)
(0.00276491 -0.00904199 5.83542e-23)
(2.30218e-05 0.000181211 -8.9309e-24)
(3.31542e-05 -0.0004443 0)
(5.08482e-05 -0.00010128 -8.37107e-22)
(0.000102042 0.000422125 -2.75803e-23)
(3.58905e-05 3.45045e-05 5.08355e-22)
(0.00136172 0.00242516 -2.73565e-21)
(0.000612891 -0.000391658 1.91596e-23)
(4.40768e-05 4.92699e-05 6.25888e-22)
(0.00810078 0.000453977 0)
(0.00671727 -0.0011205 0)
(0.00167086 0.00871678 9.22824e-22)
(-0.000345799 -0.000178538 -5.95226e-22)
(6.16962e-06 -3.43675e-05 1.26229e-22)
(3.57154e-06 -0.000136025 -1.00553e-21)
(-0.00814376 0.00270119 3.32375e-22)
(-4.19819e-05 0.000217907 1.46154e-23)
(0.000108528 0.000172026 6.40631e-23)
(-0.00333623 0.00784046 1.94571e-22)
(0.00206618 0.00302374 0)
(-0.000165317 -0.000422486 0)
(6.77026e-09 4.19284e-06 -1.48308e-22)
(7.56596e-06 -0.000137404 1.93035e-21)
(0.000261708 0.000592151 0)
(4.41465e-05 -4.15913e-05 -2.11656e-21)
(0.0111467 -0.00813212 5.09897e-23)
(-0.00089747 0.00246895 4.32755e-22)
(-0.000138946 0.00168378 0)
(1.80803e-05 -8.06696e-05 4.50066e-22)
(0.000511465 0.00126001 -1.38441e-22)
(4.33901e-05 -0.000122264 1.15234e-22)
(0.015887 -7.63348e-06 -3.97765e-22)
(7.19093e-05 0.000125931 0)
(0.00402395 -0.000898963 -1.14589e-21)
(0.000219329 0.000249014 0)
(0.00747115 0.000804521 -8.13478e-22)
(3.04771e-06 -8.76582e-05 9.20485e-23)
(0.000364399 -0.000229139 1.37309e-21)
(0.00338981 0.000680648 -1.42107e-22)
(2.785e-05 -0.00025811 -3.52285e-23)
(-4.08632e-05 0.000684706 3.62676e-21)
(-0.013838 0.00155726 -2.68188e-22)
(5.39217e-05 -5.96719e-05 0)
(0.0013657 0.00390263 0)
(-0.000218764 0.000664797 9.88556e-22)
(0.004135 -0.00233324 -8.50534e-23)
(3.35166e-05 7.27841e-05 -1.76574e-21)
(1.59102e-05 -2.98208e-05 1.27341e-21)
(0.00183397 -0.00341998 -1.23666e-22)
(2.49324e-06 9.33431e-05 0)
(-2.05019e-05 1.05385e-05 0)
(-0.000658093 -0.000493993 1.05552e-21)
(-0.00203292 0.000487236 0)
(0.00369205 0.00669467 0)
(0.000566277 0.000459252 0)
(8.75858e-05 0.000169751 0)
(2.58939e-05 5.26855e-05 -5.94931e-22)
(0.0180127 0.00302868 0)
(-0.000987995 -0.0130153 1.35038e-21)
(1.22445e-05 9.863e-05 -4.80477e-23)
(0.0176263 -0.0132566 0)