/*--------------------------------*- C++ -*----------------------------------*\
| =========                 |                                                 |
| \\      /  F ield         | OpenFOAM: The Open Source CFD Toolbox           |
|  \\    /   O peration     | Version:  v2012                                 |
|   \\  /    A nd           | Website:  www.openfoam.com                      |
|    \\/     M anipulation  |                                                 |
\*---------------------------------------------------------------------------*/
FoamFile
{
    version     2.0;
    format      ascii;
    class       volScalarField;
    location    "200";
    object      k;
}
// * * * * * * * * * * * * * * * * * * * * * * * * * * * * * * * * * * * * * //

dimensions      [0 2 -2 0 0 0 0];


internalField   nonuniform List<scalar> 
27802
(
0.000150792
0.00014994
0.000151216
0.000161892
0.000147289
0.00128857
0.000147283
0.000185937
0.00014647
0.000264065
0.0559259
0.000248863
0.00016076
0.000174873
0.0827436
0.00731939
0.0594302
0.000146536
0.0577164
0.0241891
0.083266
0.0832991
0.000145467
0.000189044
0.000219825
0.00016079
0.000147054
0.000168388
0.000147003
0.00364625
0.000189048
0.000174647
0.000150619
0.000144234
0.000149246
0.00679643
0.0118519
0.000145865
0.000147352
0.00617813
0.00023752
0.000149305
0.000158586
0.000144103
0.000158525
0.0249434
0.000148263
0.0120223
0.000486441
0.0432554
0.078017
0.000161039
0.0304668
0.000425128
0.000147097
0.00014896
0.000213813
0.000147816
0.000156747
0.000187695
0.0172582
0.000151138
0.000158433
0.000144727
0.000144203
0.00014861
0.0310504
0.000213963
0.000187787
0.000148274
0.00014405
0.0622752
0.0712744
0.000205228
0.000152576
0.000154081
0.0299791
0.0127597
0.0214849
0.00896577
0.000147736
0.00014679
0.000164846
0.000151415
0.000148584
0.000165832
0.000149594
0.0441778
0.0193203
0.000148289
0.000147646
0.018688
0.000146248
0.00399722
0.0692712
0.00017084
0.000146772
0.000169866
0.000148075
0.00224396
0.000147388
0.000146102
0.000505023
0.0147856
0.0709958
0.000158774
0.000148113
0.000144171
0.00014695
0.000158223
0.00620666
0.000147684
0.000144265
0.000148073
0.000148155
0.000144686
0.000157506
0.000191183
0.0376295
0.000214846
0.022334
0.000186682
0.0435777
0.000191475
0.0584889
0.000177989
0.000150104
0.000155803
0.0628243
0.00014439
0.000193107
0.000173475
0.00014925
0.0126526
0.0129526
0.000152994
0.000167268
0.000176298
0.000148033
0.000149168
0.000173177
0.000289954
0.000158732
0.000161728
0.000145873
0.0314734
0.000158082
0.000169016
0.000148037
0.000913812
0.000161693
0.00340309
0.000158555
0.0521693
0.000149713
0.00975411
0.000152591
0.000171303
0.000144455
0.00014901
0.000144689
0.000148582
0.0916553
0.000146077
0.000149586
0.000149762
0.0704544
0.000147099
0.00014909
0.00015006
0.000174022
0.0260261
0.0619834
0.0150111
0.000147051
0.000217973
0.0117703
0.0492278
0.000144659
0.000148085
0.000237003
0.0475412
0.0200032
0.0532831
0.000144546
0.000188253
0.0719553
0.00070606
0.000204547
0.000517843
0.0862151
0.000149942
0.000150731
0.000252077
0.000146858
0.0045194
0.00622611
0.0750177
0.000261867
0.0455087
0.000172822
0.000149058
0.000150306
0.000157545
0.0870336
0.000177932
0.000147105
0.000146586
0.00369849
0.000146915
0.000147988
0.0442299
0.000161902
0.0320712
0.00014435
0.000147013
0.00019207
0.000149583
0.000147644
0.000149903
0.0696969
0.000147266
0.000148225
0.000223379
0.000148922
0.000220887
0.000149974
0.000169482
0.000143869
0.00014886
0.000148071
0.000162304
0.000212957
0.000149278
0.000149953
0.0188069
0.000167487
0.000169185
0.000150047
0.000497289
0.0211691
0.0473437
0.0470428
0.0574621
0.0758978
0.000152126
0.000147251
0.0157167
0.000144514
0.000148984
0.000206307
0.000147335
0.000204768
0.000149803
0.0417859
0.0587515
0.000157181
0.000181625
0.000148504
0.000152647
0.0001472
0.0244712
0.0406149
0.000203287
0.000148296
0.000147297
0.000149414
0.000197122
0.0591768
0.000173823
0.0123313
0.000158251
0.0729665
0.000146036
0.000147318
0.000149244
0.000172846
0.00014851
0.000147189
0.0578379
0.000149592
0.000166946
0.000247383
0.000205214
0.0667921
0.000155626
0.0420065
0.000146051
0.000188847
0.0482697
0.00025353
0.0173416
0.0263054
0.000157024
0.000143813
0.000148556
0.000149712
0.00683428
0.00351642
0.000186629
0.0232818
0.000164649
0.0450787
0.00363064
0.0457658
0.000148544
0.000194277
0.000148249
0.0471309
0.000146383
0.0423212
0.000201518
0.0356911
0.000147789
0.0345757
0.0708376
0.000183522
0.000146837
0.000168102
0.0302419
0.000146367
0.000152116
0.000199762
0.0450695
0.0208377
0.000146275
0.000164533
0.00016808
0.0429039
0.00014715
0.0518126
0.000146155
0.000149019
0.000200926
0.000245245
0.000149892
0.000147717
0.000148258
0.000200555
0.000154174
0.000147566
0.000263944
0.000147632
0.000239256
0.0175839
0.00731187
0.000153392
0.000147025
0.000152084
0.00014654
0.000187895
0.000186631
0.000146682
0.00018183
0.000148574
0.000146807
0.000150213
0.000147746
0.0248598
0.000145884
0.000221076
0.000340324
0.0772756
0.000144002
0.000147715
0.000147836
0.0511999
0.000146068
0.000208279
0.000143725
0.000212961
0.000180025
0.0102642
0.000152017
0.000149907
0.000148397
0.000172697
0.000147746
0.000206752
0.000152855
0.000157846
0.000149067
0.000148271
0.000149902
0.000147982
0.00843208
0.000174119
0.000188648
0.0340251
0.00025934
0.000147613
0.00095744
0.000148548
0.00014781
0.000168737
0.000151388
0.000149051
0.0510409
0.000710144
0.0299627
0.000182014
0.0813249
0.000148302
0.000148539
0.000204263
0.0378559
0.000148517
0.000154288
0.000193176
0.000155233
0.000147092
0.000159693
0.0205288
0.0706973
0.0205355
0.0197034
0.000147222
0.0904722
0.000146099
0.000255408
0.000160072
0.0203843
0.000149952
0.000147281
0.000155668
0.000151922
0.000161454
0.000147633
0.000147666
0.000167464
0.000148014
0.000148609
0.000218705
0.0269827
0.000179679
0.0348841
0.000186141
0.000172123
0.000205749
0.000147747
0.000159611
0.0261828
0.000153315
0.000147774
0.000160227
0.000155447
0.000163834
0.000150505
0.000148058
0.00014725
0.0251696
0.0434701
0.000150483
0.000146881
0.0784607
0.000149044
0.0291964
0.000149003
0.000148594
0.000153242
0.000397845
0.000148354
0.000143678
0.0605049
0.00014817
0.000176044
0.0346979
0.000174453
0.000147899
0.0240195
0.000240026
0.000172252
0.0250685
0.000686104
0.000151295
0.00016224
0.000144658
0.00115992
0.000148549
0.000172277
0.000147729
0.000159364
0.0070002
0.0588977
0.000146931
0.000148057
0.000164307
0.00014946
0.000148361
0.00014723
0.000145904
0.000191547
0.000163855
0.000589427
0.00544132
0.000145502
0.000174981
0.0351634
0.000154613
0.000150967
0.000144016
0.000149622
0.0260662
0.000222419
0.000164161
0.0325753
0.0532583
0.000147844
0.0296814
0.000145766
0.000298437
0.000160432
0.000147196
0.000152554
0.000147337
0.000155732
0.00375389
0.0282954
0.000154805
0.0265703
0.0572579
0.000204938
0.000147881
0.000147908
0.0170282
0.000164796
0.000149729
0.000171432
0.000158264
0.00850502
0.000186459
0.0472322
0.000154665
0.000148544
0.000625306
0.000147881
0.000148168
0.000152018
0.0390337
0.000146757
0.0374062
0.000152764
0.000272712
0.000176274
0.0214945
0.000144355
0.000147864
0.0324024
0.000177956
0.000148265
0.000175126
0.000151328
0.000147638
0.000146743
0.0319589
0.000175534
0.000341198
0.0158297
0.000278521
0.000147043
0.0608794
0.000164542
0.000147815
0.000173196
0.0234436
0.000147793
0.000148697
0.000146909
0.0549185
0.000147735
0.000144645
0.000145508
0.000148266
0.000209447
0.000147516
0.0165346
0.00017141
0.000147608
0.000189541
0.000175973
0.0371143
0.0438767
0.0196849
0.000148254
0.000145382
0.000145676
0.0781888
0.000145932
0.0425329
0.000397659
0.000166665
0.0228293
0.0163842
0.000149276
0.000148046
0.0267423
0.000194232
0.000146458
0.000149216
0.0779435
0.000205369
0.0639125
0.0325691
0.000266295
0.000151962
0.000254421
0.003179
0.000147737
0.0788549
0.0594811
0.000176083
0.000581883
0.0646761
0.000152093
0.000172264
0.000147185
0.000166849
0.00014651
0.00015937
0.000158997
0.000168572
0.0198206
0.000193901
0.0389536
0.000152907
0.0189988
0.000149766
0.000150962
0.000159254
0.000170862
0.000147926
0.000172098
0.000149751
0.000176016
0.000166107
0.000147037
0.000147976
0.00016329
0.000172221
0.000179749
0.000269837
0.000153853
0.0547233
0.0159538
0.000801206
0.000147631
0.000162349
0.000255447
0.0391675
0.000153792
0.000146801
0.000273117
0.000196423
0.000147691
0.000275776
0.000149765
0.000335473
0.000266817
0.00014974
0.00014718
0.000195368
0.000372568
0.000153585
0.000159601
0.0136402
0.000149815
0.000151044
0.0208683
0.000150693
0.000184104
0.000147335
0.000145477
0.000147139
0.0244105
0.00016586
0.000149
0.0181026
0.000146985
0.000160418
0.0400124
0.000149354
0.0410284
0.000168749
0.000146751
0.000150703
0.000145397
0.0139431
0.0394736
0.0310485
0.00014845
0.0331036
0.0379579
0.000145405
0.0747619
0.000164311
0.0001498
0.000146113
0.000148551
0.000153655
0.00924193
0.000146538
0.000149807
0.000167889
0.0177659
0.000149002
0.0160024
0.0433635
0.0791598
0.000145473
0.000152328
0.00014985
0.00015164
0.000189721
0.00014729
0.000151111
0.000149835
0.000155224
0.000154143
0.0396086
0.000225917
0.000428717
0.000157737
0.000162448
0.000169927
0.000147669
0.000146234
0.000147738
0.000184709
0.000167062
0.0519823
0.0360897
0.0749113
0.000146496
0.0136491
0.000146892
0.000149019
0.000486599
0.000147358
0.00500189
0.010427
0.00801738
0.0108233
0.0144118
0.000147779
0.000164421
0.000263524
0.000165386
0.0240582
0.000173504
0.000146336
0.0419076
0.000148062
0.0374734
0.0254126
0.000149191
0.000145089
0.0417363
0.0001462
0.000149434
0.0193395
0.000238572
0.00680032
0.0348706
0.000147771
0.00015944
0.000150442
0.000163932
0.000146215
0.0220653
0.00016917
0.000147638
0.035031
0.0388478
0.000206865
0.000166314
0.000148001
0.000148226
0.00172209
0.000166551
0.000152879
0.000207161
0.0251866
0.000179834
0.00014995
0.00014824
0.000174599
0.000147654
0.0635235
0.000199289
0.000791369
0.000151016
0.000495741
0.000147769
0.0546246
0.000164093
0.0748831
0.00016271
0.0345777
0.000150957
0.000162966
0.0197698
0.000152935
0.000172251
0.000428708
0.000151066
0.000194901
0.000180599
0.0700032
0.000156058
0.000145968
0.0365892
0.000148957
0.000148533
0.000186658
0.00896427
0.000204049
0.00791704
0.000158348
0.000148962
0.0334722
0.000291767
0.000149418
0.04103
0.000184513
0.0422306
0.000146713
0.00015075
0.00017521
0.000147746
0.00016351
0.000146858
0.000160127
0.0263949
0.0843865
0.000152556
0.00016276
0.000412277
0.000149123
0.000147369
0.000147225
0.000183278
0.000323978
0.000149699
0.000148015
0.000164285
0.000169059
0.0777639
0.00016004
0.00017773
0.000263247
0.041963
0.000148973
0.0530348
0.0181975
0.000161701
0.0367418
0.00014767
0.000152596
0.000577176
0.000146914
0.0740149
0.00191494
0.0317194
0.000157119
0.0208065
0.00015559
0.0691979
0.000147835
0.0353755
0.000177549
0.0141019
0.000157718
0.000148063
0.000153409
0.000146947
0.0134039
0.000209827
0.000175769
0.000198226
0.000182144
0.00015535
0.000371853
0.000182458
0.000205643
0.00027658
0.000162066
0.000186748
0.0129298
0.000148057
0.000149679
0.000164876
0.000160207
0.0194797
0.000160542
0.000145919
0.00021689
0.000148115
0.000150694
0.000148609
0.000149543
0.000149673
0.000151664
0.000149588
0.000170463
0.000147034
0.000158494
0.0436338
0.000480588
0.000148577
0.000148088
0.00618113
0.000148431
0.000196236
0.000145812
0.000197612
0.000182294
0.0371013
0.000167507
0.000147783
0.000149228
0.000162717
0.000175797
0.00014981
0.000235971
0.000149899
0.000173191
0.000149011
0.000149371
0.0220705
0.00156702
0.000145749
0.0003204
0.000217036
0.000174005
0.000156569
0.000147478
0.0165216
0.000151869
0.0819508
0.000151299
0.00016344
0.000148192
0.00014971
0.000149519
0.0342779
0.0833538
0.000997385
0.0216506
0.0122496
0.0356736
0.000145702
0.000147736
0.00020176
0.0242048
0.0157725
0.000170759
0.000149857
0.000145518
0.0271046
0.000176842
0.0472222
0.000147771
0.0329565
0.00015989
0.00017868
0.000146866
0.000175666
0.000163939
0.000145386
0.00014663
0.000164752
0.000163033
0.000147768
0.000152133
0.00019529
0.000175137
0.000147241
0.000196336
0.0132612
0.0377987
0.000179093
0.0503803
0.0218754
0.000156641
0.000148079
0.000226641
0.000169268
0.000149546
0.0245741
0.0295613
0.000526657
0.00028224
0.000206491
0.000237084
0.000148133
0.0209212
0.0503582
0.000167937
0.000158546
0.000145842
0.000148673
0.000213665
0.000152648
0.00014936
0.000148964
0.000171925
0.000148396
0.000146364
0.000148641
0.000151091
0.0189671
0.000151984
0.00903066
0.000150135
0.0117605
0.000185861
0.000147251
0.000180359
0.000146592
0.000288457
0.0244989
0.000194964
0.0335871
0.000205796
0.000145769
0.000157197
0.000144358
0.000158418
0.0100712
0.0101488
0.0826566
0.000149812
0.000145552
0.000151608
0.000274359
0.000148259
0.000149021
0.000168488
0.000149937
0.000169183
0.000169838
0.000146507
0.000145457
0.000147659
0.000529318
0.00014993
0.000148133
0.000172654
0.00049894
0.000147771
0.000145834
0.0534626
0.000148118
0.000146226
0.000307498
0.000157571
0.000147436
0.000149845
0.000188213
0.000149661
0.000148583
0.000147739
0.000148768
0.0564191
0.0219121
0.000147853
0.071126
0.000147822
0.0403061
0.0414048
0.000149254
0.0588723
0.0101284
0.000157497
0.000147093
0.000146069
0.0348135
0.000191803
0.0796161
0.00107917
0.0001498
0.000201141
0.000148502
0.000430979
0.000161339
0.0138752
0.000149951
0.000353349
0.078987
0.000201401
0.000148581
0.0308322
0.000280872
0.000148524
0.000177745
0.000146811
0.000149037
0.000148589
0.000148037
0.000156042
0.0267506
0.02344
0.000147831
0.000148256
0.00978341
0.000151957
0.000152596
0.000147962
0.000148758
0.0767536
0.00014716
0.000147887
0.000157495
0.0776537
0.000155529
0.00014765
0.0388325
0.000146969
0.000151261
0.000182648
0.0001519
0.000151306
0.0644909
0.000169123
0.031667
0.00015863
0.000156367
0.000149189
0.000164079
0.0211973
0.000167355
0.000487123
0.0256017
0.0330503
0.000184951
0.000147736
0.000149889
0.000147631
0.0297045
0.0599785
0.000150894
0.000206567
0.000145241
0.081933
0.000148254
0.000147887
0.0427324
0.000167942
0.0145696
0.000146839
0.0463712
0.0515793
0.000147799
0.000214511
0.000149824
0.000169373
0.000144055
0.000151943
0.000164388
0.000170806
0.000147245
0.000162312
0.0206884
0.000145501
0.0799591
0.000151646
0.000156465
0.000241972
0.000150806
0.0725852
0.000151784
0.000146842
0.000217758
0.000151284
0.000148904
0.000218855
0.000147122
0.000145742
0.0171829
0.000147201
0.000145593
0.00015963
0.0429737
0.000145042
0.000149833
0.000146048
0.000149193
0.00014872
0.000169215
0.0767595
0.0002105
0.000179336
0.000147013
0.000145862
0.0248849
0.0382672
0.0761909
0.000146143
0.00960323
0.000191959
0.00874346
0.000187532
0.0475516
0.000162149
0.000251464
0.000226213
0.000185491
0.000145665
0.000150296
0.000172471
0.000145019
0.000171072
0.000156872
0.0245323
0.00820477
0.000158609
0.000164044
0.000148794
0.00678997
0.0750436
0.000206776
0.000171722
0.000186908
0.000148552
0.000150742
0.0325922
0.033243
0.00016405
0.000151601
0.000145869
0.000148605
0.000158029
0.000145446
0.000163358
0.000148011
0.000149626
0.017279
0.0211807
0.000148974
0.0349163
0.000149537
0.000151171
0.0198586
0.000160975
0.000146999
0.000148022
0.020326
0.000146934
0.000150116
0.000146086
0.0744586
0.000192816
0.075258
0.0840579
0.0179422
0.000177976
0.000147862
0.000149207
0.0526158
0.00975823
0.0181745
0.000198768
0.000148962
0.0238598
0.000182111
0.000236589
0.000150663
0.000162354
0.000147987
0.00576612
0.0378836
0.0814678
0.000274137
0.000145343
0.000165927
0.0178703
0.0472376
0.00014802
0.000163472
0.00190412
0.00019047
0.000195733
0.00046315
0.000148035
0.000210104
0.0165051
0.0170532
0.000195563
0.000144091
0.012422
0.00048405
0.0118544
0.000169138
0.000148581
0.0527237
0.000155461
0.000148227
0.000149545
0.0245949
0.000161717
0.000149407
0.000149068
0.00019528
0.000211976
0.000157481
0.000161101
0.0564954
0.000147279
0.000147333
0.000184502
0.000152789
0.000147671
0.000147629
0.000147918
0.000148702
0.00725698
0.0342972
0.000162678
0.000310887
0.000161522
0.000286756
0.000147371
0.000502229
0.000147227
0.0740486
0.0229585
0.000145647
0.0279394
0.0186756
0.000148507
0.000172138
0.0817058
0.0188354
0.00014976
0.021064
0.0159804
0.0538212
0.000148022
0.000149012
0.0205527
0.000358238
0.000188091
0.0415408
0.000191747
0.0376879
0.000148225
0.000152102
0.0216013
0.000149074
0.000145704
0.000149556
0.000481344
0.000148052
0.000619867
0.000174209
0.000148036
0.000148059
0.000149027
0.000178514
0.0760181
0.000160905
0.000148539
0.000148812
0.00865324
0.00016802
0.050625
0.000390623
0.0378167
0.000173645
0.000171809
0.000172715
0.000255397
0.00017901
0.0497993
0.000164484
0.000147124
0.000154184
0.000221378
0.000159007
0.000149647
0.000199487
0.000184166
0.000147216
0.000239764
0.000163588
0.000149391
0.000152393
0.000150481
0.000181819
0.000148069
0.000147444
0.000145173
0.000282783
0.0246177
0.0223122
0.0419442
0.0563478
0.000145888
0.076679
0.000147874
0.000148509
0.000148051
0.0803072
0.000146404
0.000151202
0.000148047
0.00014917
0.000147371
0.000147913
0.000204758
0.0179849
0.000153599
0.00014697
0.0516403
0.000154734
0.00020454
0.000146423
0.0246266
0.000149911
0.000148612
0.082762
0.000158497
0.000148235
0.0816584
0.0728266
0.000200426
0.000149777
0.000158949
0.000172708
0.000234074
0.000147727
0.00014906
0.0281911
0.0631956
0.0249379
0.000148663
0.000148118
0.0828015
0.0233656
0.000220937
0.000148065
0.0338715
0.000195656
0.000148016
0.000149186
0.000148036
0.066251
0.000181633
0.0278136
0.0217126
0.000147684
0.000146533
0.0590428
0.0518199
0.000193128
0.000145886
0.0715625
0.0134052
0.000150132
0.000148231
0.000204211
0.000288156
0.000150465
0.000148223
0.0247642
0.000147959
0.000146725
0.000148016
0.00025004
0.0739266
0.000147386
0.000147406
0.0316044
0.00014721
0.00014814
0.000235212
0.0307895
0.0327341
0.0740239
0.000149677
0.0001477
0.000151475
0.00020394
0.000183747
0.000210696
0.0472211
0.000151363
0.000148978
0.0565181
0.000148085
0.000155327
0.012522
0.000146748
0.000147817
0.0165421
0.000239202
0.000148666
0.0155705
0.000149773
0.000149824
0.000153664
0.0300527
0.000147685
0.000149547
0.000144093
0.000161017
0.000213208
0.000218171
0.000170338
0.000149809
0.000151176
0.000148639
0.000551544
0.0422526
0.000146123
0.00129326
0.000164893
0.000158525
0.000191818
0.000149579
0.000198152
0.000463253
0.000145653
0.000314641
0.000147855
0.000149454
0.000152459
0.000147682
0.000144196
0.000203432
0.000149955
0.0190276
0.000182485
0.000147639
0.000147525
0.000585023
0.000148658
0.000148061
0.000143888
0.000149898
0.000183741
0.000151369
0.000221151
0.00027844
0.000145669
0.00015727
0.0580058
0.000171011
0.0386041
0.0128276
0.000147494
0.0324586
0.0695262
0.000143949
0.0172234
0.000148001
0.0795785
0.0548832
0.000166156
0.0066735
0.0314162
0.000152452
0.00014926
0.0278491
0.000148992
0.000173785
0.0715229
0.0619369
0.000163234
0.000146985
0.000204408
0.000173403
0.00014857
0.000149119
0.000149199
0.00016697
0.000176455
0.0361189
0.000193061
0.000146855
0.00843739
0.000150075
0.0336201
0.000213766
0.0214703
0.000146644
0.0456681
0.000147053
0.000173763
0.0203798
0.0485907
0.00020998
0.0460119
0.000197453
0.00014383
0.000148995
0.000146573
0.00890529
0.0367312
0.000180057
0.000149023
0.000148107
0.00015083
0.000154832
0.000283726
0.000149585
0.000627618
0.000177878
0.000215149
0.0483639
0.000173429
0.000445233
0.037352
0.000147109
0.0215313
0.000167653
0.000177359
0.0360756
0.000158828
0.000161209
0.000172166
0.000148403
0.0480605
0.000148234
0.00181704
0.0256911
0.000147088
0.000238813
0.00014945
0.000147194
0.000147943
0.000278029
0.000147706
0.0742833
0.00014686
0.000147012
0.000171972
0.000211951
0.000149773
0.000355018
0.000149958
0.000322976
0.000143807
0.000149915
0.000260824
0.0828772
0.000365192
0.000149074
0.000143471
0.000150413
0.0401399
0.0182509
0.000147778
0.00015204
0.000182135
0.00015885
0.0143082
0.000149509
0.000152372
0.000147985
0.000165859
0.042055
0.000195513
0.0629543
0.000146885
0.000149716
0.00014722
0.000148454
0.000174689
0.00018165
0.000148439
0.000151284
0.00646679
0.000151795
0.000434979
0.00113894
0.00015018
0.000148623
0.0513339
0.0144673
0.00014901
0.000145828
0.00014818
0.000152347
0.0296068
0.000163042
0.00014899
0.000164844
0.0313759
0.0196357
0.000182855
0.000145207
0.0248548
0.000154697
0.000221561
0.000258852
0.0310203
0.036587
0.000172225
0.0606285
0.00021186
0.000147006
0.0578235
0.017418
0.000147812
0.000197622
0.000148656
0.000145381
0.000156421
0.00017327
0.00016936
0.000149363
0.000144673
0.000656091
0.000147907
0.000148222
0.000165721
0.000193075
0.000299653
0.0165858
0.0197421
0.000145488
0.000177888
0.000147994
0.000166636
0.000151928
0.00014903
0.000164872
0.000146549
0.000146194
0.000183471
0.000145617
0.00014702
0.0785135
0.000151149
0.000151723
0.000167551
0.000155287
0.0251322
0.000405038
0.0178576
0.00014755
0.000189692
0.000180822
0.00014809
0.000149134
0.000168064
0.000147219
0.000183608
0.0552317
0.000161522
0.000158179
0.000147978
0.000271697
0.000149418
0.000147018
0.00618826
0.0593744
0.00020619
0.0385575
0.0403019
0.000144751
0.000165365
0.000147292
0.000143543
0.000144638
0.0168562
0.0216191
0.0164294
0.0393488
0.000164262
0.000178521
0.000146837
0.000172353
0.00015221
0.000164943
0.07445
0.000148194
0.000149797
0.000157625
0.000158142
0.0506613
0.000148084
0.000149359
0.000149812
0.000161611
0.000145644
0.015516
0.00015739
0.0421657
0.000147783
0.000163979
0.000208293
0.00019329
0.0538566
0.0545002
0.0208441
0.000148506
0.000206525
0.000155101
0.000147053
0.000163919
0.00888658
0.0675535
0.000170519
0.000171249
0.000148202
0.0446633
0.000148597
0.000372983
0.000163972
0.000147901
0.0107905
0.0213989
0.000147471
0.0168389
0.000211305
0.000150912
0.0200649
0.00851343
0.000667489
0.000151917
0.000144799
0.0190603
0.000148567
0.000160518
0.0319951
0.000261263
0.000147962
0.0169188
0.000147577
0.000149106
0.000170664
0.00014812
0.0206983
0.00017821
0.000149449
0.000178609
0.000145629
0.00014756
0.000148982
0.000162701
0.000227238
0.000148856
0.000183199
0.000218769
0.000186079
0.0473702
0.00017773
0.000174936
0.000202066
0.00014795
0.000146998
0.011269
0.000163755
0.000147628
0.0200754
0.00014991
0.000258599
0.0531059
0.000254238
0.0545411
0.0445463
0.000147888
0.000175209
0.0119807
0.000178884
0.022389
0.000223475
0.000148063
0.0250574
0.00015083
0.000244288
0.056862
0.000156847
0.000147075
0.000151407
0.046207
0.000208437
0.000148164
0.000158931
0.0191488
0.000146387
0.0431982
0.000206059
0.000151538
0.000344757
0.0344216
0.000148503
0.000149793
0.000150637
0.000487891
0.000148507
0.000162965
0.0771913
0.0257285
0.000148151
0.0203599
0.000249935
0.0568614
0.0802537
0.0683795
0.000181746
0.000197415
0.000148565
0.000147471
0.000225603
0.000145795
0.000167531
0.0244062
0.000153834
0.000179536
0.000499247
0.000152236
0.000462941
0.000149955
0.000171866
0.000164223
0.000144892
0.000725698
0.000148525
0.000148064
0.000145251
0.000145706
0.000149437
0.00020836
0.0181341
0.000155306
0.0726314
0.000150748
0.000145581
0.000508065
0.00017845
0.000150078
0.000152176
0.000179995
0.000234334
0.000172826
0.000148054
0.000156254
0.000149201
0.000144809
0.000175801
0.000148195
0.000264415
0.000147749
0.0141325
0.0389121
0.000146524
0.043364
0.000182437
0.00019014
0.0435234
0.000166327
0.000148483
0.00014906
0.000153029
0.00014697
0.00752582
0.000238309
0.000149903
0.000149904
0.000291134
0.000148731
0.000182835
0.000147772
0.000146925
0.0197805
0.000146166
0.000156624
0.000147268
0.00014702
0.000148416
0.000146185
0.000148735
0.000147516
0.0157045
0.000180895
0.000149247
0.000147776
0.000168886
0.0123359
0.000149357
0.0422271
0.000173998
0.000163984
0.000168716
0.000146402
0.0188408
0.0791916
0.000209969
0.000147336
0.000180667
0.000148711
0.000192922
0.000214898
0.000146994
0.0112938
0.000163511
0.000150027
0.023169
0.0594549
0.000174971
0.0365689
0.000160223
0.000149125
0.0339181
0.00014966
0.000148172
0.000182557
0.000148786
0.000145316
0.000147719
0.000185004
0.000143594
0.0152764
0.000155364
0.000224944
0.000152042
0.0117331
0.0168641
0.0326298
0.000310916
0.000149649
0.000214057
0.000147702
0.000158704
0.000148402
0.055315
0.0140642
0.000146193
0.000149568
0.000150944
0.000171321
0.000147148
0.00036974
0.00513827
0.000176983
0.0165708
0.000172508
0.000155665
0.000150349
0.000152246
0.000148238
0.000522086
0.000153984
0.0252788
0.000148052
0.0670727
0.000292897
0.0844464
0.00015879
0.000182879
0.0148038
0.0486758
0.000148294
0.000145828
0.00019634
0.00014716
0.000149405
0.000168086
0.000146416
0.000152603
0.000148501
0.000148649
0.000148573
0.000148281
0.000151622
0.00016843
0.085454
0.000178162
0.000176229
0.000152055
0.0231205
0.0129217
0.0368274
0.0455072
0.000167155
0.000164286
0.000152469
0.0554362
0.000147695
0.000146224
0.000259696
0.000148661
0.000144783
0.000178685
0.000146215
0.000171485
0.0292751
0.000155404
0.000149838
0.000149386
0.000148627
0.000204262
0.000148792
0.000168495
0.000167219
0.0192273
0.00014773
0.000163503
0.000153788
0.000158512
0.000150835
0.000161373
0.000149909
0.000160824
0.0188381
0.000147245
0.000404894
0.000215208
0.0486355
0.0527583
0.000170336
0.0670561
0.0253174
0.0430907
0.000237198
0.00488312
0.000176759
0.000262017
0.000147151
0.000207429
0.000217367
0.000760355
0.000187743
0.000150124
0.000146981
0.000174746
0.000213034
0.000149544
0.000151287
0.00017009
0.000148717
0.000148835
0.000150212
0.000182784
0.000163388
0.000145762
0.000519462
0.0302854
0.000147983
0.00016107
0.000174983
0.000145679
0.0311548
0.000168862
0.000163789
0.000521758
0.0857441
0.000163443
0.0507143
0.0439377
0.0230375
0.0768743
0.000147993
0.000145814
0.0159325
0.0169307
0.000151766
0.0237689
0.000148379
0.000147141
0.000148244
0.000149953
0.000151202
0.000148249
0.000173638
0.000163345
0.000207478
0.000180617
0.000157652
0.00056042
0.0447188
0.0640778
0.000161086
0.000268978
0.000151636
0.0698059
0.000145231
0.000569214
0.0204755
0.000173871
0.000208543
0.00580671
0.000702386
0.000163489
0.000163966
0.000161293
0.000148235
0.000229901
0.00157222
0.000179535
0.000144185
0.000147984
0.000158476
0.0162614
0.00022476
0.000155005
0.000196899
0.0771618
0.000160545
0.034883
0.000163151
0.000143645
0.000147824
0.0825172
0.000188807
0.0852587
0.000151184
0.000148005
0.000147376
0.000457162
0.00015619
0.000148272
0.000197273
0.0381069
0.000150993
0.000208151
0.000264281
0.00015155
0.000222717
0.000145857
0.000147624
0.000182052
0.000146931
0.000169081
0.000149
0.000149044
0.0296398
0.000148296
0.000160507
0.00709062
0.000148383
0.00018073
0.000153615
0.000171769
0.0380792
0.0414024
0.000333673
0.000207445
0.000209355
0.0681917
0.000185265
0.000145896
0.000169086
0.000147011
0.000148955
0.0659052
0.000147606
0.0284899
0.000184032
0.000147116
0.0211974
0.00797104
0.000152736
0.0601699
0.000149076
0.0364119
0.0863356
0.000148249
0.000149003
0.000172353
0.000148555
0.000261304
0.0851234
0.000148993
0.000156963
0.000158044
0.0505699
0.000149911
0.0314092
0.0114434
0.000147651
0.000173375
0.0488184
0.0263517
0.000147055
0.016678
0.000149791
0.0203032
0.000164522
0.000148049
0.0619839
0.000148674
0.0489867
0.000150471
0.042968
0.000150518
0.000200038
0.00021645
0.000157502
0.000320183
0.0185745
0.00823028
0.0602512
0.0571902
0.000151257
0.000203831
0.000151047
0.000149817
0.000147049
0.000146968
0.00014807
0.00763934
0.000146119
0.0754557
0.000147008
0.0515873
0.000145852
0.000148143
0.00014707
0.000150856
0.0473362
0.00017215
0.0214587
0.000149094
0.0286567
0.0418577
0.000147812
0.000148425
0.000148192
0.000169911
0.0341588
0.000168692
0.000149831
0.0507223
0.00014815
0.000180418
0.000179338
0.0206078
0.000163526
0.000150957
0.000146837
0.000204176
0.000194222
0.000163298
0.0458191
0.000147877
0.000250365
0.000145558
0.0201564
0.076062
0.000149074
0.0418785
0.000147686
0.000147774
0.000145808
0.000148202
0.0576219
0.00276029
0.0175753
0.0488553
0.000161696
0.000172034
0.00016987
0.0489392
0.000145621
0.000148546
0.0525669
0.0366273
0.000171573
0.00016547
0.000184889
0.000653461
0.0637938
0.000184152
0.000149818
0.000152254
0.0195355
0.000258688
0.000166958
0.0752189
0.000147756
0.000145768
0.000150861
0.000159789
0.000160566
0.0236754
0.000146566
0.00014705
0.000145295
0.000594983
0.000146672
0.000697877
0.000149905
0.000166444
0.0147336
0.000149906
0.000198619
0.000149076
0.000151791
0.000152889
0.000174848
0.000198983
0.000908311
0.000190703
0.00014389
0.000145634
0.000180998
0.0692487
0.0360979
0.000155494
0.000206952
0.0119298
0.00101405
0.000149115
0.0775201
0.000426988
0.000187151
0.000162367
0.023676
0.000149867
0.000180582
0.000148824
0.000291777
0.0181626
0.000149976
0.000143645
0.00016541
0.0186041
0.0525894
0.000148126
0.0434219
0.000190527
0.0498246
0.000293296
0.00015732
0.00020726
0.000166299
0.000151222
0.000145802
0.000393014
0.00276304
0.000204081
0.0213386
0.0890645
0.0520647
0.0297637
0.0448608
0.00014743
0.0375598
0.00015877
0.000148057
0.000157662
0.000153803
0.0302957
0.000149821
0.000148115
0.000213573
0.000183592
0.000148338
0.00293309
0.0476459
0.0198338
0.00015862
0.00018586
0.000147243
0.000149533
0.079231
0.000206424
0.000146588
0.020013
0.000145985
0.000148569
0.00846913
0.000149913
0.000182632
0.000144039
0.000227623
0.0295133
0.000145333
0.000158569
0.0867279
0.000148445
0.00860573
0.000148626
0.0202072
0.000147658
0.000176586
0.000163096
0.0477172
0.000148075
0.000233659
0.000281932
0.000146608
0.000148842
0.000146255
0.000146032
0.0171857
0.0460676
0.000187876
0.0152291
0.000187919
0.000148089
0.000174182
0.000155812
0.000146531
0.00014776
0.000169425
0.0460726
0.050508
0.000172884
0.000205007
0.000211171
0.000145654
0.000148361
0.000150212
0.000251419
0.000144094
0.00886482
0.0538755
0.000194207
0.000148256
0.0493199
0.000149785
0.000265718
0.000207176
0.000148142
0.00014879
0.000155846
0.0401899
0.000147068
0.000288126
0.000146556
0.0855846
0.000146107
0.00517915
0.000156177
0.000159023
0.0332226
0.00014668
0.000252178
0.000148514
0.000147231
0.0157636
0.000193317
0.0507634
0.000145511
0.000149351
0.000149181
0.000204294
0.000178585
0.000167005
0.00015111
0.000155021
0.000145908
0.0324809
0.000160653
0.0825966
0.00982457
0.0676455
0.000157106
0.000144928
0.000149821
0.00902149
0.0588474
0.000147457