/*--------------------------------*- C++ -*----------------------------------*\
| =========                 |                                                 |
| \\      /  F ield         | OpenFOAM: The Open Source CFD Toolbox           |
|  \\    /   O peration     | Version:  v2012                                 |
|   \\  /    A nd           | Website:  www.openfoam.com                      |
|    \\/     M anipulation  |                                                 |
\*---------------------------------------------------------------------------*/
FoamFile
{
    version     2.0;
    format      ascii;
    class       volScalarField;
    location    "200";
    object      nut;
}
// * * * * * * * * * * * * * * * * * * * * * * * * * * * * * * * * * * * * * //

dimensions      [0 2 -1 0 0 0 0];


internalField   nonuniform List<scalar> 
27802
(
0.00132696
0.00583642
0.000966491
0.0019656
0.00584155
0.000514173
0.00584101
0.000301476
0.00584633
0.000645483
0.00867884
2.69451e-05
0.000538952
5.15137e-05
0.0137307
0.00107411
0.00870621
0.00584822
0.00899703
0.00348463
0.00795615
0.0136409
0.005852
0.0015058
0.000203918
0.000257637
0.00583166
0.00166904
0.0058634
0.00019135
0.00156664
0.000382916
0.00119642
0.00584681
0.00583432
0.000127085
0.00137839
0.00584953
0.00590184
0.000753104
2.95957e-05
0.00583447
0.00133696
0.00583625
0.000387396
0.00319403
0.00583427
0.00191189
1.29083e-05
0.0125148
0.0130937
0.000230592
0.00486056
2.18996e-05
0.00588977
0.00583349
0.00103289
0.0058378
0.000466773
0.00027203
0.00250689
0.000985977
0.000540248
0.00582889
0.00583682
0.00250903
0.00739583
0.00103227
0.00029198
0.00294916
0.00583647
0.0144798
0.013414
0.00119259
0.000710139
0.00268666
0.00735355
0.00134935
0.00309091
0.000255301
0.00587509
0.00583241
0.00011466
0.00121567
0.00271824
0.000806483
0.00583537
0.012299
0.00196626
0.00357202
0.00583615
0.00244132
0.00584377
0.000100279
0.0140911
0.00154467
0.00583271
0.00160516
0.00583745
0.000992574
0.00590379
0.00586266
2.30489e-05
0.00178562
0.0115192
0.000483193
0.00396727
0.00583738
0.00588661
0.000349113
0.000849466
0.00583631
0.00584711
0.00583731
0.00379363
0.0058285
0.000819039
4.14518e-05
0.00962593
0.000203786
0.00293698
0.000296606
0.0100019
3.60541e-05
0.00219262
5.02297e-05
0.0017281
0.00160546
0.00365281
0.00584808
0.000592261
0.000488151
0.00179156
0.00177884
0.000823441
0.00270219
8.34162e-05
5.10863e-05
0.00583602
0.00224604
5.34648e-05
0.000604782
0.000265229
0.000224775
0.00584874
0.00865403
0.000305525
0.00124199
0.00559029
0.000720526
0.000246723
0.000726403
0.00133778
0.0123716
0.00583566
0.000435815
0.00237938
0.00152211
0.00584032
0.00583399
0.00582895
0.00271633
0.010111
0.00583205
0.00583542
0.00583584
0.0124533
0.00584427
0.00198409
0.00137145
0.000160939
0.00385737
0.0109609
0.000687399
0.00583605
0.000462839
0.000513442
0.00812103
0.00582844
0.00420539
9.89095e-05
0.0132369
0.00200484
0.0118501
0.00584022
3.88853e-05
0.00797675
2.13415e-05
0.00122396
7.04574e-05
0.0136704
0.00583643
0.00107234
0.000609432
0.00589341
0.000948799
0.000196206
0.00990205
0.000620121
0.00901028
0.000116629
0.00583414
0.0013619
0.000813639
0.01357
0.000528908
0.0058436
0.00585064
0.000214621
0.00587502
0.00489845
0.00799763
0.00207041
0.00643282
0.00583851
0.00583182
0.000649289
0.00162616
0.00583751
0.00583626
0.014035
0.00584211
0.00319139
0.000673907
0.00208144
0.000847322
0.00182287
0.00129671
0.00583581
0.00233171
0.00583723
0.000601852
0.00078939
0.00583444
0.00583644
0.00161561
7.3519e-05
7.46464e-05
0.00180972
2.40138e-05
0.00226077
0.0108238
0.0131813
0.0144655
0.00753895
0.00224296
0.00583251
0.00210653
0.00583961
0.00583368
0.000369687
0.00583005
0.000128094
0.00130162
0.0115507
0.0145227
0.00159885
0.000204001
0.00264434
0.000710877
0.00582966
0.00303777
0.0107898
0.001274
0.00293263
0.00565726
0.00157431
3.8692e-05
0.0145246
0.000364063
0.00150581
0.000892296
0.00725666
0.0058311
0.00583002
0.00583432
0.000498159
0.00583351
0.00502624
0.0144883
0.00148099
0.000329721
0.000215899
0.0011967
0.00802956
0.00234769
0.00713365
0.00583333
0.000162518
0.0112965
0.00036604
0.00210487
0.00362069
0.000410702
0.00583428
0.00258351
0.00148327
0.000234316
0.00042057
0.000292993
0.00274811
0.000280207
0.0127276
0.000175361
0.0116216
0.0058335
0.000522819
0.0029601
0.0116944
0.00586784
0.0123513
0.000301407
0.00765403
0.00583791
0.00725489
0.00426251
0.00037314
0.00585632
0.00189317
0.00595602
0.00586691
0.000724824
0.000794643
0.0127345
0.00257216
0.00584517
0.00012865
7.85908e-05
0.00832016
0.00582966
0.0109517
0.00583119
0.00583407
0.000754218
0.000102797
0.00185177
0.00583862
0.00379192
0.000287874
0.00268108
0.00442708
0.000411663
0.00558884
0.000305752
0.00329246
0.000298267
0.00196803
0.00585505
0.00221318
0.00584508
3.9746e-05
4.13163e-05
0.00583242
0.000213169
0.00291252
0.00587302
0.00131981
0.00379538
0.00327395
0.00582878
0.000691189
0.000222763
0.0121423
0.00583088
0.00417229
0.00401314
0.0118001
0.00583262
5.80495e-05
0.00583415
0.000860503
0.000233895
0.00122628
0.00186235
0.00145685
0.00358457
0.000125768
0.0058368
0.00114973
0.00065516
0.000323256
0.00583418
0.00317384
0.00583627
0.00400812
0.000834698
5.75676e-05
0.00158402
0.00654093
2.86188e-05
0.00545496
0.000697564
0.00281672
0.00388015
9.0145e-05
0.00161222
0.00583409
0.0138395
0.000436968
0.0070519
0.00160477
0.00544184
0.00583213
0.00583346
0.00125183
0.00805655
0.00583351
0.000561016
0.000536043
0.00157044
0.00587962
0.000470531
0.00465611
0.0136933
0.00546659
0.00287165
0.00582991
0.0114173
0.00586361
0.000669784
0.00184393
0.00362097
0.00583643
0.00584216
0.000887069
0.00273056
0.000251098
0.00462281
0.0058374
7.82042e-05
0.00583653
0.00248412
0.000618989
0.0047249
0.00161806
0.00755314
0.000314129
5.65133e-05
0.000415993
0.00403076
0.000222654
0.0038916
0.0016035
0.00583682
0.000430807
0.00228342
0.000118535
0.00270492
0.0058376
0.00582982
0.00333688
0.0125431
0.0024659
0.00583067
0.00531153
0.00583404
0.00658131
0.00583396
0.00291868
0.00207817
0.000492073
0.00284594
0.00583324
0.00872908
0.00583485
0.000831624
0.00838983
4.80409e-05
0.00583458
0.0036271
0.000212752
7.27823e-05
0.00340891
1.58872e-05
0.00124698
0.000285248
0.00582811
0.000803655
0.0058335
7.6939e-05
0.00408046
0.00161118
0.000319891
0.014488
0.00583048
0.00437297
0.000111982
0.00161276
0.00361326
0.00584902
0.00582872
0.000410858
0.00130111
2.70172e-05
0.000607678
0.00582951
0.000121419
0.00938882
0.000466692
0.0026405
0.00583048
0.00583546
0.00514618
0.000481513
0.00036023
0.00673875
0.0102918
0.00583971
0.00492102
0.00583936
3.18831e-05
0.000524082
0.00582416
0.000720983
0.0058387
0.00158322
0.000423749
0.00516367
0.000468956
0.00383747
0.010857
0.00121486
0.00583481
0.00583468
0.0023302
0.000194817
0.0058358
0.000451123
0.000487875
0.000180559
0.00165269
0.011259
0.000511172
0.00250531
1.26617e-05
0.00584015
0.00583465
0.000795012
0.00650708
0.00583225
0.00803461
0.000601832
3.88778e-05
5.03217e-05
0.00226893
0.00584668
0.00583453
0.00817609
0.00062486
0.00583417
0.000417979
0.00160464
0.00423896
0.00585198
0.00527717
0.000667957
0.000468774
0.00384082
3.49704e-05
0.00574319
0.0145456
0.000189049
0.0037043
5.4623e-05
0.00340388
0.00583083
0.00265212
0.00583206
0.011199
0.00488154
0.0058281
0.00585365
0.00292612
5.75808e-05
0.00543772
0.00253974
0.00115891
0.00549778
0.00148178
0.000641007
0.00908397
0.0105967
0.00281976
0.00300206
0.00583355
0.00583394
0.0109715
0.00582959
0.0105157
0.000372951
0.000111611
0.00274825
0.00185222
0.00181065
0.00583902
0.00554876
0.00146085
0.00583281
0.00583455
0.00799719
0.00122999
0.00943321
0.00640144
2.47142e-05
0.00107833
3.42735e-05
8.84046e-05
0.00586249
0.0136118
0.0144705
0.000537089
1.93453e-05
0.00505977
0.00079528
0.000242073
0.00583375
8.40945e-05
0.00583401
0.00147564
0.000237764
8.15245e-05
0.0016403
0.00162755
0.00846713
0.00159987
0.0019437
0.00583586
0.0012222
0.000498708
5.75883e-05
0.00583523
8.09302e-05
0.0059041
0.000717793
0.000117664
0.0058367
0.00583652
0.000649644
4.95454e-05
0.00171287
0.000320382
0.000945458
0.0102062
0.00449076
0.000592684
0.00418318
0.000166218
0.00044925
0.0100087
0.000859881
0.0058328
4.34216e-05
0.00105739
0.00583802
3.31713e-05
0.00583587
2.21643e-05
3.24764e-05
0.00583575
0.00583364
0.000100276
0.00044754
0.000814931
0.0016247
0.00158245
0.00583602
0.00128713
0.00243945
0.00115459
0.000357778
0.00583927
0.00587065
0.00545725
0.00344403
0.00166667
0.00583379
0.00196159
0.0058373
0.00235541
0.0102292
0.00583461
0.0121515
0.000718024
0.00585302
0.00111752
0.00583205
0.001395
0.00815494
0.00696131
0.00590129
0.00646215
0.00793607
0.00583159
0.0111072
0.000203177
0.00583598
0.00583229
0.00251994
0.000865582
0.000377606
0.00583269
0.00583596
8.70579e-05
0.00371746
0.00583395
0.00219546
0.0117304
0.01347
0.00587177
0.00179299
0.00583624
0.00115395
0.00043519
0.00583238
0.00118994
0.00583611
0.00164423
0.00097384
0.00748997
0.000219621
0.000586217
0.000453861
0.000164751
0.00162875
0.00420097
0.00586259
0.00366944
5.40605e-05
8.64499e-05
0.00404548
0.00875203
0.0136317
0.00583298
0.00144123
0.00585472
0.00583389
3.92687e-05
0.00583343
0.000111414
0.00242661
0.000183954
0.000912568
0.00134121
0.00579285
0.000174923
4.10947e-05
0.000756185
0.00432701
5.36234e-05
0.00583448
0.0122583
0.00583774
0.0103148
0.00335979
0.00190175
0.00585347
0.012265
0.00583218
0.00193647
0.000952802
0.000719079
0.000584419
0.00598881
0.00568614
0.00137563
0.00126148
0.000121943
0.00586164
0.00450005
0.000821465
0.00448606
0.00694418
0.00859078
0.00112245
0.00176744
0.00583603
0.00583443
0.000864747
0.000281267
0.00126124
0.0010967
0.00616347
0.000152478
0.00583643
0.0058344
0.000380252
0.00515538
0.0140993
0.000285746
4.76376e-06
0.000982692
1.68294e-05
0.00358192
0.0141723
0.000272284
0.0114643
0.000163547
0.00669547
0.000969426
0.000820338
0.00179426
0.00207725
5.55031e-05
0.000437738
0.00112331
0.00165611
0.00171984
0.010504
0.000390572
0.00582936
0.00837277
0.00583368
0.0056364
0.000152186
0.000347483
0.00128742
0.000304814
0.000464901
0.00583379
0.00917673
0.000606658
0.005835
0.00792084
0.000581904
0.00969151
0.00583254
0.00107599
0.000529296
0.00434669
0.000131284
0.00585436
0.000231503
0.00465067
0.0125618
0.000733996
0.000168907
1.74332e-05
0.00196268
0.0058332
0.0058441
0.00018896
0.000623311
0.00252067
0.00583229
0.000354694
0.00104039
0.0127644
0.00021141
5.84212e-05
2.72092e-05
0.000757039
0.0020304
0.0140592
0.0022068
0.000632938
0.00804799
0.00583815
0.0013283
2.66543e-05
0.00583033
0.00703666
6.1206e-05
0.00607868
0.000385269
0.00290232
0.0010852
0.00561476
0.00583089
0.00668309
0.000994934
0.00180906
0.000479445
0.00583232
0.00154865
0.00583254
0.00246064
0.000995909
0.000569705
0.000273837
0.000187519
0.00121925
0.000190847
8.73869e-05
0.000914811
0.000334525
0.000283816
0.000266345
0.00109676
0.00583747
0.0058356
0.000200753
0.000243196
0.00556218
0.000208053
0.00583168
0.000483439
0.00316293
0.00105615
0.00237768
0.00583528
0.00583564
0.00183101
0.00583546
0.00150972
0.00583802
0.00025579
0.00966065
6.46265e-05
0.00349608
0.00583228
0.000182921
0.00291436
0.00111708
0.00583973
0.000106252
0.00167971
0.00865086
7.63324e-05
0.00400393
0.00215849
0.000142383
0.000482068
0.00583598
0.000346911
0.00583625
0.0001412
0.00583384
0.00201562
0.00048052
0.000828481
0.00583844
0.000415089
0.000356104
0.000155297
0.000892273
0.00590369
0.0021421
0.000861263
0.0143086
0.0026016
0.000127779
0.00383722
0.00583575
0.00166275
0.00623776
0.00802889
0.000683748
0.00262466
0.00161092
0.0104105
0.00583803
0.00403691
0.00119253
0.00266949
0.00212368
0.000466123
0.00305039
0.00584991
0.00711781
0.000301246
0.00953143
0.00370359
0.00449418
0.00227092
0.000148416
0.00583226
0.000501958
0.000120031
0.0058329
0.0058331
0.000183399
0.000926836
0.00386806
0.0026287
0.00171529
6.0949e-05
0.00590127
0.00164811
0.00376334
0.0111456
0.000255516
0.00413576
0.00245288
0.000956324
0.00328854
3.40245e-05
0.000156305
0.00283519
0.00289773
0.00477902
5.56942e-05
0.000267965
0.00112924
0.000306434
0.00583226
0.00210179
0.0128188
0.00127984
0.000257477
0.00584741
0.0029314
0.000357314
0.00207294
0.00208928
0.00583369
9.66372e-05
0.00583301
0.00583535
0.00267874
0.00117084
0.00259907
0.000993988
0.00204638
0.00593356
0.000756009
0.000189428
0.00584424
0.000127284
0.00583335
0.000277489
0.0031216
0.00169123
0.00717145
0.00116095
0.00587405
0.00154532
0.00584817
0.000874994
0.00165521
0.0018422
0.0130851
0.00583601
0.00583171
0.00125531
0.000371073
0.00583405
0.00583388
0.00105869
0.00592086
0.000141295
6.74546e-05
0.00584383
0.00583154
0.00528104
4.844e-05
0.00136528
0.00583274
0.000183196
5.14627e-05
0.00583214
0.00585808
0.0105071
0.00583281
0.00588257
0.000390361
0.00155302
0.0058451
0.00583613
0.000224618
0.00583566
0.00332866
0.00584192
0.00583372
0.00949184
0.0025134
0.00583434
0.0110583
0.00554403
0.0099096
0.0122054
0.00182416
0.00971572
0.00117191
0.00152933
0.0059007
0.00583121
0.00678906
3.62756e-05
0.0073593
0.000778903
0.005836
0.00139583
0.00268984
5.40783e-05
0.00174134
0.00170792
0.00583643
2.874e-05
0.0125842
0.0001248
0.00583338
0.0084329
0.000292539
0.00258456
5.21447e-05
0.00582955
0.00583398
0.00249179
0.00592436
0.000454629
0.00367089
0.00289355
0.00583082
0.00583398
0.0029785
0.00177192
0.000699724
0.00583675
0.00583371
0.0145854
0.00583513
0.0041366
0.00213095
0.0102694
0.000987737
0.00583461
0.008224
0.00583166
0.000912641
8.4279e-05
0.00114822
0.0011234
0.00901011
0.000143269
0.0072073
0.000245089
0.000936489
0.00197979
0.000181016
0.00219933
0.00133664
5.51494e-05
0.00504538
0.00687297
0.000205994
0.0058426
0.00158281
0.00521907
0.00498432
0.00230079
0.0011347
0.000168222
0.00583179
0.0126044
0.00583396
0.0058343
0.0123782
7.58349e-05
0.0011957
0.00588574
0.00506178
0.0131178
0.00583079
0.000920732
0.00583602
0.000154047
0.00583186
0.0030769
0.00118987
6.41264e-05
0.00583339
0.000574914
0.00243625
0.0058318
0.0103475
0.0010805
0.000457968
0.000457976
0.00112249
0.0146011
0.00105432
0.00582972
0.000894164
0.00135907
0.00583367
0.000619361
0.00552324
0.00583157
0.00195055
0.00541929
0.00583195
0.00166656
0.00335148
0.00585447
0.00583611
0.00582917
0.0019095
0.00583365
0.000296078
0.0131207
0.000441774
4.23316e-05
0.00589613
0.00583102
0.0030938
0.00710287
0.0139036
0.00583148
0.00104072
3.86307e-05
0.000838858
0.000162063
0.00517665
0.000226589
0.000610859
0.000260878
0.000598977
0.0058384
0.00137216
0.000236134
0.00585497
6.07259e-05
0.000967789
0.00289698
0.000153449
0.00088657
0.000125963
0.00583341
0.000654218
0.0119444
0.000883759
0.00111898
3.85857e-05
0.00255844
0.00289219
0.00680692
0.00627745
0.00012625
0.00235273
0.00583387
0.0027887
0.000504938
0.00584893
0.00045202
0.00583558
0.00316508
0.00222859
0.0029716
0.00583375
0.00826269
0.00583532
0.00117525
0.00201614
0.00182579
0.00583022
0.00349065
0.00183661
0.00583184
0.00178559
0.00583174
0.014492
3.35484e-05
0.0116421
0.0131533
0.0020634
0.000130862
0.00439431
0.00192448
0.0137532
0.00291586
0.0038538
0.000517941
0.00202012
0.00353476
0.000595721
0.000314711
0.00593689
0.00127596
0.00457016
0.0019338
0.0070226
0.0124212
0.000278703
0.00583211
0.00080207
0.00204821
0.00364525
0.00583577
0.000136634
0.00105446
0.000429317
0.000604765
0.000663384
0.0058386
0.000331668
0.00184521
0.00231291
0.000269634
0.00584143
0.000729604
5.86397e-05
0.00143023
7.52944e-05
0.00291192
0.0137815
0.000920096
0.00583408
0.00583533
0.00356973
0.000223191
0.001628
0.00583418
0.00143239
0.0009564
0.00236615
0.000167972
0.00193812
0.00584695
0.00583247
5.65293e-05
0.00167597
0.00583443
0.00560141
0.005835
0.00244973
0.000760661
0.00838695
0.000139102
4.36852e-05
0.00022291
2.66766e-05
0.0058379
5.43812e-05
0.00583357
0.0136298
0.00635444
0.00584116
0.00558568
0.00175824
0.0035535
0.000482367
0.0113742
0.00161944
0.00583595
0.00266318
0.00121587
0.0123576
0.00436354
0.00583394
0.00197829
4.74738e-05
0.000245728
0.00911022
0.000401772
0.00631093
0.00583401
0.00287321
0.00210876
0.00583408
0.00583173
0.0058354
3.49399e-05
0.00583916
0.000674375
5.26281e-05
0.00340887
0.00583784
0.00583393
0.00107987
0.0126454
0.000265613
0.00583345
0.00252685
0.000309678
0.000951126
0.0137979
0.000446415
0.00756648
5.33132e-05
6.41285e-05
9.2128e-05
0.000433704
0.00120276
0.0103974
0.000103922
0.00583686
0.00596042
0.00063542
0.00101798
0.00583569
0.000819
0.000558692
0.00571427
3.63913e-05
0.000656311
0.00583475
0.00239793
0.00300218
0.00066595
0.00519597
0.00583028
0.00585568
0.000394459
0.00648851
0.00341405
0.009076
0.0142078
0.00583959
0.0123433
0.00404232
0.00262056
0.00583746
0.00785831
0.00583341
0.000920516
0.00539646
0.00583408
0.00583856
0.00493574
0.00126311
0.00244651
0.00141573
0.00583029
0.0111727
0.00164183
0.00121112
0.0058331
0.00412353
0.00583634
0.00583339
0.010632
0.000869494
0.0058343
0.0107229
0.00923359
0.000112435
0.005918
0.000273659
0.0004754
2.63422e-05
0.00583794
0.00197617
0.00658165
0.0143287
0.00359053
0.00583335
0.00319079
0.00924334
0.00250501
0.00049469
0.00563058
0.00969598
0.00154804
0.00592257
0.00213879
0.00570356
0.0107595
0.00168475
0.00456221
0.00216964
0.00442749
0.00584575
0.0145339
0.011655
0.000406458
0.00583155
0.00913339
0.000975604
0.00126303
0.00353865
0.0012478
0.000610894
0.00111543
0.00583393
0.00499405
0.00583494
0.00583119
0.00438825
0.000642177
0.00989485
0.0058317
0.00583162
0.00602975
0.00591027
0.00308084
0.000266286
0.00541111
0.00596519
0.00738426
0.00583568
0.00416178
0.00192508
0.00123585
0.00170857
0.00033028
0.00996357
0.00240298
0.00583378
0.00215463
0.00533835
0.000502703
0.000465051
0.00583131
0.00583858
0.00219641
0.000382881
0.00235123
0.00156433
0.00583587
0.00583612
0.00129822
0.00462889
0.0058306
0.00255398
0.00582737
0.000296452
0.000939577
0.000381393
6.54969e-05
0.005836
0.00266877
0.0024081
4.78651e-05
0.00936722
0.00583106
0.000739587
0.00180804
0.00115234
0.000534841
0.00257911
0.000806544
5.91849e-05
0.00582974
2.9814e-05
0.00370775
0.00245634
0.000683461
0.00440067
0.00584769
0.00126382
0.00583644
0.00144999
0.00151588
0.00583056
0.00583461
1.75914e-05
0.00232192
0.00583776
0.00582702
0.00583627
0.000280645
0.00134313
0.000737786
0.000540176
0.00582969
0.000317251
0.0130656
0.000370184
0.00812489
0.0011219
0.00583032
0.00128473
0.0113373
0.00582986
0.00193318
0.00583536
0.00711679
0.0141837
8.83231e-05
0.000788065
0.00557895
0.00251402
0.00176517
0.00547952
0.00209893
0.000193103
0.010182
0.00725602
0.00131863
0.0058511
0.00121171
5.97714e-05
0.00284759
0.00215584
0.00583419
8.29538e-05
0.000963936
0.00873222
0.000643442
0.0058941
0.000400142
0.00172442
0.007925
0.00103414
0.00212907
0.00585091
0.0124491
0.00585408
5.06788e-05
0.00250189
0.0093507
0.000689156
0.0110142
0.000309176
0.00582922
0.00583389
0.00583281
0.000350754
0.00749498
0.00172678
0.0058341
0.00310951
0.00124174
0.00597319
0.00020966
0.00583543
0.000575884
0.000374696
0.000348694
0.0130955
0.000174284
0.000117699
0.00797103
0.00583669
0.00300041
0.000139647
0.000550656
0.0102375
0.000245787
0.000163134
5.85657e-05
0.00592722
0.0132516
0.00583416
0.000991368
0.00351275
0.00583622
0.000753887
0.00583509
0.00583524
0.005831
0.000346679
0.00590667
0.00935256
0.00583792
0.00585462
0.000436647
0.001067
0.00160658
0.000289338
0.00583646
0.000324139
0.00582681
0.00583629
0.000547805
0.0109978
0.000614607
0.00583421
0.00583223
0.00121833
0.00874567
0.00239652
0.00519461
0.000779659
4.03863e-05
0.000292802
0.00155301
0.00206719
0.000756933
0.00432125
0.00176398
0.0122753
0.0016888
0.0143336
0.0058304
0.00193851
0.00583488
0.00312537
0.000118956
6.4822e-05
0.00277158
0.00202617
0.000597327
0.00324631
3.49354e-05
0.00070476
0.00126648
0.00270107
0.00948022
0.00144767
0.00194261
0.00584556
0.00583471
0.00593712
0.00838838
0.000164602
0.00583386
0.000113719
0.00533478
0.00200985
0.000229478
0.00583369
0.00388656
0.00164763
0.000604761
2.63275e-05
0.00541278
0.00439523
9.20162e-05
0.014544
0.00106956
0.00585712
0.0115162
0.00190447
0.00539792
0.00146785
0.00583359
0.00584701
0.000423328
0.00013432
0.000797643
0.00172464
0.0058573
0.000687651
0.00583096
0.00583477
0.00195461
3.14508e-05
0.000481621
0.00170339
0.00158148
0.00585151
0.00055186
0.0058359
9.12874e-05
0.00323837
0.00583412
0.00200538
0.00583413
0.00583218
0.000209891
0.00583792
0.00590657
0.00801062
0.000990101
0.00115978
0.0001131
0.00118205
0.00406526
5.15252e-05
0.00250319
0.00583183
0.000448869
0.000925598
0.00378337
0.002236
0.000138629
0.00583253
0.000220592
0.00687962
0.000188429
0.000265355
0.00451682
2.75965e-05
0.00212338
0.00554575
0.000198506
0.0111544
0.00121182
0.00792403
0.00476597
0.00585882
0.00176966
0.0058485
0.0058322
0.00583946
0.00226549
0.00246718
0.00454951
0.0101144
0.000164339
0.00141726
0.00585142
0.000381211
0.00081504
0.000120213
0.0145158
0.00583459
0.00583597
0.00041903
0.00173936
0.00990163
0.00521842
0.00217591
0.005836
0.00210557
0.00583186
0.00187672
0.000437382
0.0111481
0.00417522
0.000119558
0.000675722
0.00167851
0.0118997
0.0101438
0.00207826
0.0058335
0.00112862
0.000460784
0.00583422
0.000286912
0.000377929
0.00739054
0.000348481
5.88443e-05
0.00583465
0.00992138
0.00286417
4.43593e-05
0.000320858
0.00583529
0.000659043
0.00228849
0.00583173
0.00247777
0.000993181
0.00104491
0.00177706
0.000938019
0.000515353
0.000840683
0.0058586
0.0021166
0.00583226
0.000632574
0.00591561
0.000405814
0.00427783
0.00231712
0.00583123
0.00193642
0.00125161
0.00350352
0.00219354
0.000260132
0.00219599
0.000315388
0.00587243
0.00444286
0.0058338
0.00104933
6.75919e-05
0.00583354
4.05825e-05
0.000406649
0.00166402
0.013172
0.000327892
0.000656195
0.000152904
0.00473124
0.0058326
0.000559126
0.000144363
0.00583562
0.00210244
0.00583632
0.000136888
0.0140918
0.000630766
0.0138731
0.00824166
0.00583505
0.000725047
0.00360169
0.0005172
0.00460828
3.87716e-05
0.00583784
0.0050357
0.00277993
3.11583e-05
0.00986579
0.000542313
0.0058343
0.00150445
0.010645
0.00104399
0.00583446
0.000241084
0.00295148
0.00583351
0.0117003
0.00121534
0.0011018
4.65028e-05
0.00646495
0.00277621
0.005836
0.00131113
6.29576e-05
0.00583346
0.000943881
0.00485746
0.00131173
0.00307922
0.00247221
0.000672857
0.00221923
0.0144441
0.00870489
0.00015253
0.00150293
0.00590619
0.00583182
7.22091e-05
0.00583149
0.000115012
0.00490838
0.000835629
0.000309534
6.04467e-05
0.000826106
0.000230986
0.00583646
6.72064e-05
0.000539816
0.00586109
0.000625334
0.0026694
0.00363271
0.00583414
0.00583137
0.00315224
0.00115287
0.00216465
0.000421482
0.00436573
0.00104364
0.00585175
6.31308e-05
0.00160725
0.00135054
0.000782373
4.61938e-05
3.82589e-05
0.000440822
0.00583856
0.0015796
0.00187241
0.00582896
0.000544596
0.00583454
0.000601741
0.00583854
0.0013811
0.00742655
0.00583356
0.0110388
0.00011354
0.000412067
0.00893419
0.00213243
0.0026551
0.00583389
0.00310546
0.00588835
0.000143266
0.000246395
0.00583627
0.00583628
0.000214838
0.00583366
0.000708587
0.00583847
0.00583281
0.00194913
0.0058319
0.00146318
0.00584315
0.00583278
0.00293444
0.00583646
0.00255868
0.00583184
0.0013411
0.00163553
0.00425919
0.00396102
6.79882e-05
0.00351339
0.0016436
0.0100065
4.89058e-05
0.000109863
7.53865e-05
0.00583132
0.00160172
0.0141674
0.000126357
0.00585654
4.81736e-05
0.0028456
0.00168863
0.000389889
0.00585237
0.000498737
0.00012945
0.00134356
0.00265402
0.0142538
0.000126432
0.00798785
0.000209769
0.00184214
0.00776229
0.00583562
0.00312949
0.00172521
0.00481913
0.00584621
0.00583175
0.00125506
0.00583312
0.00160079
0.000984789
3.66915e-05
0.000780117
0.000700304
0.00223672
0.00601141
0.000394879
0.00583555
0.000447321
0.00583359
0.000238961
0.00282668
0.0137991
0.00127608
0.00582884
0.00228895
0.00134529
0.000254296
0.0058303
0.000126103
0.000476328
0.00174317
0.0015305
7.60841e-05
0.000826102
0.00305952
0.000838486
0.00335766
0.000651998
0.00315582
0.00312447
0.00583846
0.0138673
0.000280526
0.0103247
0.000234504
8.49788e-05
0.00174247
0.0112862
0.0029221
0.00585903
0.000304554
0.00583175
0.00309278
8.05246e-05
0.0058673
0.000624668
0.00289596
0.00254629
0.00558131
0.00370481
0.00595394
0.00039944
0.0118943
0.000556767
0.000498693
0.00108628
0.00258789
0.00145007
0.00801476
0.0103278
0.000958462
0.000507652
0.000807218
0.0110966
0.00583877
0.00588347
0.000530226
0.00583363
0.00582869
0.001728
0.005837
0.000236153
0.00268323
0.00118211
0.00583611
0.00583532
0.00228476
0.00126584
0.00483584
0.000911813
0.000103405
0.00236275
0.00583632
0.000119643
0.000951599
0.00107657
0.00277639
0.000217125
0.00583629
0.000233747
0.00215914
0.00584312
3.27775e-05
0.000597882
0.0110309
0.0140593
0.000244352
0.0124486
0.00346346
0.0077057
0.000334059
0.000228567
0.00158504
0.000244453
0.00582957
0.00113554
0.000623046
0.000290898
0.000170388
0.00140564
0.0058319
5.13396e-05
0.000466578
0.00583531
0.00264761
0.000469457
0.00241939
0.00221741
0.0012797
9.67834e-05
0.000299868
0.00584459
5.19074e-05
0.00103772
0.00583564
0.000671376
4.66675e-05
0.00584093
0.00795926
7.03237e-05
0.00017324
5.53336e-05
0.0110167
0.000126833
0.0118204
0.0125515
0.00251692
0.011939
0.00583515
0.00584214
0.00258772
0.0046029
0.00109868
0.00309288
0.00307084
0.00583574
0.00311813
0.00583644
0.00111673
0.00583279
0.000212322
0.000441612
0.000337323
4.41373e-05
0.00054861
4.77885e-05
0.0124929
0.013668
0.000648499
0.000386851
0.00130869
0.0131717
0.00583221
0.000552543
0.00200016
0.00017159
0.00104858
0.000275265
0.000580783
0.000174182
0.000121788
0.000253805
0.00583426
3.70115e-05
0.000830252
9.27685e-05
0.00584271
0.00583162
0.000335349
0.00145209
2.65776e-05
0.000472639
0.000783381
0.0137984
0.000214777
0.00759641
0.00125898
0.00582902
0.00583633
0.00605749
0.00045496
0.0120209
0.000927333
0.00473008
0.00583244
0.000559792
0.00039375
0.00317738
0.000265503
0.00827229
0.00279645
0.000449871
0.000308206
0.00272349
0.00029793
0.00584675
0.00432808
3.91023e-05
0.00584957
0.000290447
0.00583394
0.00583402
0.00738288
0.0058328
0.000698653
0.000217677
0.00583819
6.43542e-05
0.000779119
7.93367e-05
0.00767958
0.0100907
4.25833e-05
0.0011799
0.000331286
0.0124696
0.000551365
0.00583116
0.000704773
0.00585097
0.00213043
0.0137729
0.00584386
0.00740309
0.000393849
0.00583394
0.00309314
0.000332408
0.000610995
0.0114726
0.00199491
0.00120323
0.0125905
0.00590616
0.00200755
5.67643e-05
0.00247919
0.00047572
0.0109771
0.00200558
0.000336479
0.00118008
0.0134551
0.00583629
0.0059049
0.0010529
0.00583562
0.000594783
0.013022
0.0065804
0.00583021
0.00250887
0.00583596
0.00274964
0.000120899
0.00541321
0.014603
0.00232878
0.0125885
0.00115219
0.0112738
0.00114531
0.000760847
0.000660837
0.000343905
9.7886e-05
0.0021019
0.000716455
0.0131709
0.0141112
0.00111117
0.0013362
0.00108399
0.00583601
0.00582942
0.00583749
0.00583692
0.000924588
0.00583665
0.0122942
0.00583813
0.012482
0.00584513
0.00334721
0.00585566
0.00232025
0.010819
0.000440586
0.00222769
0.00583399
0.00455646
0.00973688
0.0043071
0.00271564
0.00315639
0.000304917
0.00572267
0.00125124
0.0058361
0.0127364
0.00312351
0.000232593
0.00165599
0.00172526
0.000134833
0.00110149
0.00584663
0.00126793
0.00178735
0.00017183
0.0121243
0.00583404
0.000660636
0.00585617
0.00209811
0.0126701
0.00202076
0.0118483
0.00511612
0.00370038
0.00583111
0.00374427
0.00725734
0.000907828
0.00173608
0.00403517
0.00209405
0.000379534
0.000700612
0.0115741
0.00587345
0.00583352
0.0125439
0.00841371
5.68068e-05
0.00195329
0.00119748
0.000586189
0.0145591
4.12702e-05
0.00583602
0.000780978
0.00179679
0.000622034
0.000120524
0.00436719
0.0058363
0.00587511
0.00218893
0.000231009
0.000227154
0.00317616
0.0058313
0.00583746
0.00583176
0.00059364
0.00586866
8.99143e-05
0.00583628
0.00131482
0.00140618
0.00583629
0.000783126
0.00583394
0.0014379
0.00072881
0.000576442
0.00050386
0.000149448
0.000373796
0.00582979
0.00582927
0.00173638
0.00963833
0.0100839
0.000464769
0.00111722
0.00273444
0.000229908
0.00207982
0.0125287
4.66863e-05
0.00150452
0.00110566
0.00539985
0.00583616
0.000939908
0.00226721
0.000587947
0.00224772
0.00295592
0.00582841
0.00182537
0.00177652
0.0123156
0.00317467
0.00956967
0.000531484
0.0121918
3.01983e-05
0.000360407
0.00113966
9.05326e-05
0.00136219
0.00584121
5.17387e-05
0.000684858
0.000557065
0.00327875
0.0118043
0.0139458
0.00498755
0.0101293
0.00475651
0.00783419
0.000245119
0.00322083
0.000892296
0.00301285
0.0059845
0.00583605
0.00451995
0.00022982
0.000259815
0.00295037
0.00112375
0.011878
0.00339207
0.00030709
0.0010062
0.00583486
0.00583521
0.0123736
0.00115177
0.00583143
0.00199687
0.00583124
0.00266303
0.000816219
0.00583634
0.000330718
0.00584308
0.000291484
0.00748612
0.00583258
0.000252094
0.0116662
0.00279295
0.000488119
0.00583356
0.00194243
0.00395613
0.000162553
0.000125618
0.0114178
0.00583292
0.000413062
0.000293445
0.0058515
0.00226256
0.00583637
0.00582938
0.0019681
0.0117401
0.00142376
0.00122288
0.000167237
0.00327198
0.000489289
0.000362916
0.00584885
0.0039767
0.00150385
0.0127384
0.00742442
0.00050639
0.00120084
0.000383757
0.00582927
0.00318875
0.00256543
0.000434515
0.0058277
0.000397928
0.013768
0.00141282
0.00296795
0.0134094
0.00583597
0.00047894
0.000168612
0.00309857
0.00229831
0.000468031
0.0118289
0.00579781
0.000292128
0.00586575
0.0137284
0.00583246
0.00118727
0.00100481
0.000226207
0.00718545
0.00586993
2.86452e-05
0.00583351
0.00585184
0.00155084
0.0017219
0.0119565
0.00583689
0.0016434
0.0058344
0.00125073
7.29e-05
8.60372e-05
0.00233667
0.000950364
0.00584052
0.00877481
0.000244403
0.0104165
0.000384129
0.00685395
0.000397617
0.00583114
0.00583602
0.000409572
0.0142765
0.00451014
0.00542443
0.000634192
0.000254249
0.0104524
0.000659409
0.000614425
0.00589967
0.00731616
0.00263629
0.00583586
0.00427558
0.00583653
0.000388007
0.000171185
4.01865e-05
0.00584169
0.000321657
0.00759759
0.000570272
0.000269991
0.00166707
0.0122838
0.00165992
0.0116961
0.00485425
0.0105486
0.004473
0.00288388
0.00268827
5.86752e-05
0.00382962
0.00583308
0.00525888
0.00281489
0.00489532
0.00146068
0.00306006
0.00583738
0.0126315
0.000250962
0.00113608
0.0122268
0.00299529
0.0126574
0.0144069
0.00183575
0.00583718
0.000431957
5.20934e-05
0.00785613
0.000785778
0.000520667
0.00129071
0.00536787
5.84899e-05
0.00583647
0.012571
0.00387248
0.0058332
0.00162426
0.00136418
0.00178284
0.00134955