/*--------------------------------*- C++ -*----------------------------------*\
| =========                 |                                                 |
| \\      /  F ield         | OpenFOAM: The Open Source CFD Toolbox           |
|  \\    /   O peration     | Version:  v2012                                 |
|   \\  /    A nd           | Website:  www.openfoam.com                      |
|    \\/     M anipulation  |                                                 |
\*---------------------------------------------------------------------------*/
FoamFile
{
    version     2.0;
    format      ascii;
    class       volScalarField;
    location    "200";
    object      omega_0;
}
// * * * * * * * * * * * * * * * * * * * * * * * * * * * * * * * * * * * * * //

dimensions      [0 0 -1 0 0 0 0];


internalField   nonuniform List<scalar> 
27802
(
0.0262788
0.0256903
0.0266118
0.0322366
0.025214
2.48262
0.0252154
0.113142
0.0250533
0.4098
6.44417
1.36377
0.0362103
0.153548
6.02615
6.81438
6.26324
0.0250565
6.41528
6.93995
10.4656
6.10661
0.0248576
0.0878235
0.460197
0.0407845
0.0252165
0.0394265
0.0250712
19.0553
0.0878697
0.0653935
0.0261972
0.0246688
0.0255806
31.1286
8.598
0.0249362
0.0249671
8.20347
1.20577
0.0255901
0.0306858
0.024691
0.0352624
7.80939
0.0254123
6.28811
8.08464
3.45717
5.70694
0.0413381
6.2678
4.77431
0.024975
0.0255353
0.206986
0.0253204
0.032227
0.127306
6.88469
0.026561
0.0335663
0.0248293
0.0247057
0.0253661
4.08708
0.207185
0.127881
0.0252971
0.024681
4.3004
5.31227
0.172076
0.0276823
0.0269221
4.07675
9.45644
6.95122
33.9841
0.0251461
0.025168
0.0594331
0.0265626
0.0253416
0.039664
0.0256358
3.59238
9.82632
0.0253429
0.0252984
7.65519
0.0250263
23.2528
4.91481
0.0432722
0.0251636
0.0417499
0.0253664
2.26736
0.0249651
0.0249207
5.30317
8.28068
5.3338
0.0339973
0.0253179
0.0246979
0.0249635
0.0348528
7.30658
0.0253042
0.0246728
0.0253666
0.0253225
0.0248238
0.031202
0.388529
3.90936
0.412065
7.60159
0.119032
4.35678
0.395934
26.6744
0.186447
0.0258587
0.0284097
13.3479
0.0246902
0.112425
0.0565224
0.0255706
7.11305
15.7333
0.0265674
0.0784005
0.170881
0.0253654
0.0255362
0.134673
0.477563
0.0372235
0.0434155
0.0249409
3.63696
0.0350553
0.0414107
0.0250492
1.25904
0.0423401
4.70186
0.0306894
4.21661
0.0256549
22.391
0.026396
0.0439575
0.0247341
0.0255416
0.0248225
0.0253603
7.25778
0.0250474
0.0256341
0.0256625
5.15203
0.0251698
0.0255201
0.0259252
0.0919631
6.74745
5.64828
21.8203
0.025197
0.249968
22.9208
5.98702
0.0248195
0.0253164
0.930497
3.59248
9.97731
4.25723
0.02475
0.345141
8.21366
14.6675
0.167099
3.97536
6.30777
0.0256908
0.0262815
0.417731
0.0249191
4.82064
31.7336
6.76938
0.426186
4.77943
0.0971128
0.0255493
0.0260301
0.0311946
6.41478
0.065496
0.0251738
0.0250546
17.2327
0.0250067
0.0250491
5.15942
0.0322683
4.98563
0.0247238
0.0252088
0.108181
0.0257175
0.0252922
0.0256848
4.96478
0.0252078
0.0253254
0.256547
0.0254864
0.240397
0.025774
0.0420569
0.0246528
0.0254636
0.0253666
0.0372389
0.203383
0.0255857
0.0256925
11.6417
0.0810362
0.089471
0.0258453
4.97573
9.3632
4.37398
3.56981
3.97236
10.0676
0.0263212
0.0252466
7.46073
0.0247472
0.0255386
0.196127
0.0252716
0.382571
0.0258231
3.61794
4.04542
0.0293877
0.119701
0.0253521
0.0277556
0.0252501
8.05541
3.76439
0.159546
0.0252964
0.0251869
0.0256314
0.440051
4.07414
0.0630556
8.18946
0.0314063
10.0551
0.0250443
0.0252689
0.0255804
0.0553709
0.0254581
0.0250254
3.99205
0.0257153
0.0502145
0.712415
0.171472
7.30904
0.0278409
5.88868
0.0250374
0.18104
4.27274
0.613551
8.23887
7.26506
0.0326557
0.0246496
0.0253563
0.0257709
29.1623
8.36106
0.118438
8.4727
0.0479053
3.54275
20.6661
3.93802
0.025464
0.121321
0.0252933
4.03012
0.0249466
3.42724
0.205587
4.66313
0.0253153
4.76592
15.492
0.0923966
0.0250732
0.0390742
5.0777
0.0249479
0.0272885
0.138554
3.5401
8.10333
0.0250249
0.058121
0.0846538
4.72985
0.0252417
4.28309
0.0250644
0.025543
0.144102
1.07752
0.0257352
0.0252999
0.0253391
0.199278
0.0269864
0.0251054
0.642795
0.0252318
0.533659
5.34067
24.512
0.0269284
0.0251108
0.026324
0.0250707
0.340119
0.313521
0.0251495
0.120214
0.0253287
0.0249968
0.0259956
0.0252037
7.59294
0.0250283
0.241037
1.53906
5.52851
0.0246964
0.0251239
0.0251449
4.33894
0.0250434
0.591465
0.0246352
0.203044
0.100655
8.37041
0.0264479
0.0258628
0.025228
0.0957944
0.0253129
0.179821
0.0279182
0.0347208
0.0255507
0.0253347
0.0256845
0.0251652
10.1018
0.143332
0.0859139
5.20171
1.5591
0.0252417
1.37134
0.0253878
0.0252309
0.0864459
0.0263495
0.0255483
3.68864
1.65024
4.24898
0.0630531
13.834
0.0254284
0.0254633
0.163169
4.69882
0.0254594
0.0294347
0.115571
0.0280623
0.0250173
0.0355492
4.4095
5.16171
3.7563
6.86159
0.0252529
6.98483
0.0249163
0.382376
0.0312176
5.62944
0.0256924
0.02521
0.0295442
0.0261499
0.0418002
0.0252416
0.0252966
0.0807088
0.0253599
0.0253798
0.238051
5.71056
0.0576098
4.61861
0.113527
0.126236
0.190876
0.0252227
0.0393463
6.72829
0.0271491
0.0253175
0.0363616
0.0277626
0.0565861
0.0258017
0.0253629
0.0252581
7.54268
3.46651
0.0257932
0.0251911
14.7712
0.0255473
4.43647
0.0255406
0.0253439
0.0268607
0.802867
0.0253195
0.0246309
6.8113
0.025394
0.0559554
4.13583
0.14732
0.0253487
6.62381
0.662054
0.123163
7.35332
9.23974
0.0265235
0.0423835
0.0248207
1.43986
0.0254648
0.10855
0.0252134
0.0306434
21.8835
4.06527
0.0252005
0.0253143
0.0589126
0.0256676
0.0252205
0.0251718
0.0250319
0.120122
0.0354004
5.05684
8.9675
0.0249595
0.107396
3.74548
0.0298702
0.0258514
0.0247006
0.0256401
5.06587
0.271656
0.044366
4.83417
4.48469
0.0253171
6.03131
0.0249626
2.39619
0.0357217
0.0251673
0.0276679
0.0252345
0.028407
8.32699
5.4798
0.0301098
6.92346
4.71593
0.168685
0.0253446
0.0253499
7.3074
0.052242
0.025657
0.0541274
0.0335907
33.1964
0.0744685
4.19485
0.029911
0.0253586
9.33619
0.0253214
0.0253945
0.0272314
5.99875
0.0251631
4.65571
0.0278392
1.48118
0.167873
9.47346
0.0246901
0.0253429
3.96323
0.0650573
0.0254132
0.0639752
0.0263448
0.0252219
0.0250758
6.05558
0.0566167
0.725057
4.12291
1.57369
0.0251077
4.18512
0.0520914
0.0252354
0.136602
6.88923
0.0253469
0.0254179
0.0251899
4.44667
0.0250686
0.0248186
0.0248576
0.0252918
0.594863
0.0250369
6.51062
0.045209
0.0252468
0.0891242
0.0573347
4.08604
4.14058
6.98114
0.0252964
0.0249217
0.0249705
6.39872
0.025033
4.0448
1.05043
0.0686247
8.30672
8.84493
0.0255909
0.0253547
4.81951
0.106079
0.0251093
0.0255745
9.7466
0.16697
6.77562
5.08776
1.7848
0.0269405
1.4006
20.9028
0.0252004
5.79405
4.11048
0.0617467
5.39971
12.7825
0.0272725
0.0709968
0.0252299
0.075305
0.0251132
0.0311244
0.0379436
0.08632
12.0877
0.103966
4.60053
0.0269168
9.77457
0.025663
0.0263523
0.0347704
0.111069
0.0253505
0.107279
0.025364
0.056147
0.064831
0.0251917
0.0253535
0.0378764
0.126451
0.0572175
0.84705
0.0281518
4.72318
3.55224
1.35031
0.0252217
0.0475578
0.571214
3.91357
0.0281531
0.0251683
1.4918
0.120591
0.025298
1.63627
0.0256629
3.03879
1.83393
0.025659
0.0252295
0.281407
0.829872
0.0280648
0.0309353
8.61999
0.0256707
0.026357
8.55449
0.0262732
0.0959128
0.0252318
0.0247805
0.025111
7.08837
0.0364657
0.0255409
9.22937
0.0251803
0.0309011
3.91188
0.025598
3.37709
0.0440402
0.0250726
0.0262834
0.0249308
9.99564
4.84014
4.46029
0.0250364
5.12269
4.78285
0.024934
6.55704
0.0514515
0.0256684
0.0250524
0.0253702
0.028122
24.4757
0.0251236
0.0256696
0.0810616
4.78018
0.0255404
7.28923
3.6969
5.46464
0.024775
0.026615
0.0256759
0.0267265
0.109083
0.0252539
0.0264686
0.0256739
0.0280814
0.0284545
5.14349
0.498039
0.737189
0.0331867
0.0476229
0.041767
0.025122
0.0249436
0.0251991
0.257228
0.0767354
12.8493
4.12377
5.43384
0.0251152
9.47036
0.0250895
0.0255437
4.0243
0.025261
25.6159
4.29901
31.2546
11.8598
10.747
0.0252923
0.0518831
1.35724
0.0392083
5.55991
0.139811
0.0250812
3.41949
0.0253628
3.6333
7.56367
0.0255604
0.0247869
3.40361
0.0250679
0.0256182
20.2903
0.332507
11.636
5.82271
0.0252895
0.0311779
0.0260955
0.0564755
0.0249443
4.9031
0.0445474
0.0252369
5.04451
4.52211
0.184288
0.037042
0.02536
0.0254054
1.99296
0.0493566
0.0273267
0.188891
4.08628
0.128122
0.0256921
0.025408
0.0628957
0.0250569
4.50492
0.193965
13.1099
0.0264655
5.08843
0.0252092
3.85488
0.0463458
5.98492
0.0485076
5.16414
0.0264429
0.0358908
11.0181
0.0266965
0.125628
0.984023
0.0264352
0.108347
0.0595106
5.95604
0.0319019
0.0250401
4.37039
0.025534
0.0250681
0.167154
25.7973
0.1585
25.9734
0.0336149
0.0255343
3.64771
0.484719
0.0256072
5.18016
0.0818806
4.35739
0.0251542
0.0263088
0.0591259
0.025206
0.0537188
0.0250853
0.0396857
5.67573
6.07595
0.0276334
0.0484477
4.48781
0.0255392
0.0252638
0.0251921
0.126756
0.513577
0.0255679
0.0253785
0.0445491
0.0424518
5.7112
0.040546
0.169141
1.60823
51.3256
0.0254977
3.7728
8.24778
0.0362424
4.56546
0.0252939
0.0271388
8.18559
0.0251982
10.5185
31.289
5.21843
0.032739
7.16823
0.0289268
12.3241
0.0253538
5.29299
0.0566951
7.79471
0.0332228
0.0253866
0.0272209
0.0251943
5.44409
0.210683
0.0597372
0.187407
0.12088
0.0287223
1.93481
0.182247
0.166074
0.828066
0.0421113
0.123323
11.7884
0.0253632
0.0256493
0.0525023
0.0400299
3.50143
0.0418707
0.0250218
0.244461
0.0252657
0.026301
0.0253683
0.0256274
0.025648
0.0263248
0.0256344
0.0425949
0.0251856
0.036678
4.51642
3.8361
0.0252698
0.0253911
29.2013
0.0252894
0.119793
0.0249689
0.302159
0.0634808
4.28913
0.0806518
0.0252066
0.0255336
0.050628
0.0621981
0.02567
0.507567
0.025684
0.093543
0.0255425
0.025597
45.9293
1.86886
0.0249637
0.786048
0.292206
0.0930629
0.0301419
0.0249807
7.71231
0.0270908
5.7279
0.0259555
0.0540429
0.0253319
0.0256539
0.0256899
5.49486
10.3817
1.45008
8.24919
7.60436
3.42699
0.0249574
0.0252095
0.146548
9.06598
7.42736
0.0522821
0.0255183
0.0248753
3.80789
0.0762782
4.4744
0.0252138
7.33217
0.0304702
0.124924
0.0251817
0.0613034
0.0563338
0.0249252
0.0251375
0.0521129
0.0359078
0.0252169
0.0262313
0.113855
0.156778
0.0249507
0.11913
3.52382
3.39179
0.0949415
12.182
8.91805
0.0299044
0.0252642
0.940833
0.0714995
0.0255164
8.4798
6.18557
4.10646
1.04551
0.182843
0.514384
0.0253988
9.95493
3.69337
0.0400455
0.0367932
0.0249413
0.0253495
0.278017
0.0265594
0.025584
0.0255351
0.0995013
0.0254407
0.0250823
0.0253594
0.0264371
7.29693
0.0269465
4.40478
0.0253027
15.556
0.149563
0.0251959
0.13232
0.02513
1.05131
7.84821
0.108901
4.68398
0.177268
0.0248158
0.0293802
0.0246844
0.031581
6.08454
5.50539
5.86109
0.0256702
0.0249587
0.0266198
0.757192
0.0254127
0.0255441
0.0416758
0.0253235
0.0730248
0.0975951
0.0250703
0.0249431
0.0252579
5.95332
0.0258677
0.0253968
0.0809929
6.0246
0.0253374
0.0248945
4.55429
0.0253939
0.0248575
0.801522
0.0295636
0.0252238
0.0256754
0.146618
0.0256459
0.0252705
0.0252894
0.0255014
5.94373
8.71855
0.0253419
5.52575
0.0252967
4.06764
3.39304
0.02559
5.90888
8.64243
0.0295356
0.024928
0.0250495
5.12786
0.403889
10.8184
1.38932
0.0256683
0.143124
0.0253759
3.38994
0.0320648
8.12438
0.0256923
2.81313
6.15372
0.331308
0.0254709
3.65625
0.95542
0.0253547
0.171093
0.0251838
0.0255463
0.0253918
0.0249879
0.0312752
7.28668
8.10046
0.0253533
0.0254124
3.28451
0.0264809
0.0276816
0.0253501
0.0254997
5.26264
0.0252197
0.0252691
0.0289639
7.05383
0.0291411
0.025306
4.72169
0.025202
0.0266308
0.190178
0.0268674
0.0265767
7.09116
0.0725127
4.39382
0.0370441
0.0299072
0.0255629
0.0513221
9.63775
0.0392154
8.83284
5.07493
4.80924
0.135104
0.025286
0.0258477
0.0252465
5.95943
26.068
0.0263537
0.344075
0.0249051
5.85726
0.0254122
0.0253478
3.45304
0.0840425
12.1858
0.0249482
9.16116
3.7644
0.0253479
0.232961
0.0256723
0.0727043
0.0247014
0.0260445
0.0361073
0.108805
0.0252417
0.0373148
8.49539
0.0249495
6.77349
0.0267547
0.0318651
0.472649
0.0263562
4.97045
0.0268396
0.0251885
0.243508
0.0264485
0.0255248
0.239518
0.0251132
0.0249918
8.80863
0.0251284
0.0249647
0.0309249
12.8213
0.0247745
0.0256735
0.0250546
0.0255642
0.0254935
0.0573483
5.51873
0.210859
0.206308
0.0249338
0.0250148
8.04418
5.0653
5.30108
0.025061
9.22777
0.411009
10.4234
0.165105
9.18581
0.0440542
0.411407
0.45587
0.0853311
0.0249494
0.0260248
0.0726517
0.0247686
0.111054
0.0301028
8.46739
35.6356
0.031959
0.0561862
0.0255072
10.3238
5.46765
0.17137
0.0457979
0.334511
0.025389
0.0257553
4.52953
5.29566
0.0562283
0.0261221
0.0250038
0.0253946
0.0329603
0.0248671
0.0404454
0.0253636
0.0254509
7.75384
7.12671
0.0255366
4.22598
0.0256262
0.0264779
9.85049
0.0317621
0.0252132
0.0252799
11.0662
0.0251951
0.0258591
0.0250501
5.13709
0.421579
5.6343
5.95806
8.69603
0.123159
0.025268
0.0255666
3.82656
3.34688
4.71735
0.141976
0.0254946
6.75158
0.0734606
0.571801
0.0253775
0.0339099
0.0253075
2.9815
5.21672
6.09657
0.849383
0.0249213
0.0396874
8.72551
12.9587
0.0253643
0.0543219
1.80482
0.113469
0.128103
0.694907
0.0253546
0.252268
8.94493
7.37343
0.172518
0.0246671
17.0142
4.11706
8.28874
0.0888375
0.0253915
3.82653
0.0293143
0.0254071
0.0256275
6.89053
0.0434219
0.0256479
0.0255508
0.114711
0.221619
0.0289346
0.0445374
29.1467
0.025189
0.0252608
0.25105
0.0268631
0.0253102
0.025257
0.0253501
0.0254198
9.54119
4.08951
0.0505907
1.95023
0.0430264
1.95668
0.0252439
3.83058
0.0252379
5.43361
3.61246
0.0249346
5.002
10.6211
0.025376
0.0544821
6.5308
11.628
0.0256617
7.90924
13.1423
4.35539
0.0253111
0.0255423
10.3884
2.63114
0.143957
4.55969
0.121921
5.97196
0.0254071
0.0261151
10.2443
0.0255522
0.0249846
0.0256291
3.96658
0.025355
0.918091
0.150435
0.0252833
0.025362
0.0255448
0.0588352
5.58561
0.0405153
0.0254633
0.0254036
27.9402
0.0414629
3.66964
0.876449
4.99756
0.142572
0.11956
0.107916
0.588867
0.0586169
4.2699
0.0603569
0.025206
0.025868
0.244617
0.0313495
0.0256433
0.136678
0.0822269
0.0251664
1.0746
0.0382996
0.0256037
0.0263437
0.0256769
0.0721747
0.0253342
0.0252893
0.0247918
0.736182
3.6142
6.52847
4.62117
3.96644
0.0249826
5.54122
0.0251454
0.0253718
0.0253622
10.2195
0.0250975
0.0266039
0.0253325
0.0255688
0.025241
0.0252989
0.162054
7.35085
0.0275914
0.025208
4.26765
0.0278097
0.168885
0.0251021
5.97187
0.0256858
0.0254762
6.12099
0.0318448
0.0254076
5.92596
7.8876
0.33984
0.0253087
0.0375727
0.0567324
1.163
0.0253047
0.0255227
4.28328
4.40994
6.94414
0.025485
0.02526
7.87362
9.32689
0.264736
0.025336
3.49358
0.116482
0.0249919
0.0255339
0.0253336
6.15744
0.0629529
6.09686
10.0067
0.0252292
0.0250666
4.06225
4.44631
0.126379
0.0250168
6.80183
13.7394
0.0259662
0.0253288
0.163653
0.467515
0.0261475
0.0254071
4.95948
0.0253574
0.0251622
0.0253093
0.388546
6.73295
0.0252733
0.025277
5.24131
0.0249076
0.0252683
0.525904
5.69021
5.4873
8.40534
0.0256487
0.0252188
0.0261715
0.157429
0.0660172
0.261378
4.2324
0.0260229
0.0255371
26.2301
0.0253375
0.0305535
18.5432
0.0251656
0.0253172
7.53117
0.505711
0.0254153
9.95399
0.0256642
0.0256719
0.0276316
6.49189
0.0253293
0.0255112
0.0247269
0.0397323
0.226904
0.303827
0.104217
0.0256699
0.0259026
0.0254055
3.8943
4.51062
0.0250594
1.74897
0.0353178
0.0308663
0.110152
0.0255172
0.1305
3.69486
0.0249846
2.28187
0.025234
0.0255675
0.0275808
0.0252279
0.0246587
0.160966
0.0256929
13.1218
0.0644492
0.0253215
0.0252844
5.78474
0.0254145
0.0253625
0.0246932
0.0256839
0.110522
0.0264655
0.24303
0.512812
0.0249874
0.0339337
4.43977
0.056396
4.75147
11.4346
0.0252977
25.2704
5.00692
0.0246918
8.91001
0.0253628
9.45486
3.86999
0.070295
8.4792
5.63098
0.0263733
0.0255874
5.08223
0.0254988
0.0836268
5.43123
6.6448
0.0347785
0.025121
0.168694
0.13603
0.0253418
0.0255199
0.0255732
0.0764391
0.0551648
4.13655
0.110798
0.0249156
21.0796
0.0258545
4.24238
0.20672
10.0836
0.0250635
3.66861
0.0251198
0.143215
8.14598
4.36885
0.191213
4.17734
0.173167
0.0246741
0.0255395
0.025129
25.3927
4.90064
0.0581683
0.0255434
0.0252685
0.0262875
0.0259212
1.37641
0.0256339
1.08763
0.0740754
0.282521
3.69421
0.085099
3.78099
4.686
0.0252041
7.17644
0.0669282
0.0624974
3.52416
0.0374156
0.0449895
0.120532
0.0250376
3.62773
0.0254079
1.83278
7.31353
0.0252026
0.317464
0.0256122
0.0252251
0.0253717
0.803233
0.0250067
7.48651
0.0251562
0.0251105
0.0554117
0.198666
0.0257711
1.18245
0.0256933
0.987397
0.0246803
0.0256866
0.472793
5.99238
0.596439
0.0255516
0.0245996
0.0261232
4.58954
7.61487
0.0250159
0.0271968
0.261438
0.0365499
9.21352
0.0255944
0.0274317
0.0251448
0.0364162
3.42678
0.115762
4.39164
0.0251929
0.0257417
0.025231
0.0253672
0.106776
0.204526
0.0253642
0.026088
10.8263
0.0259777
4.87514
1.61306
0.0259888
0.0253471
4.67812
9.99316
0.0255011
0.0249468
0.0253963
0.0256601
3.52952
0.0493787
0.0255389
0.0594498
5.88118
9.77029
0.115682
0.0248911
6.3953
0.0277686
0.366245
1.65009
5.7309
8.32382
0.106327
4.16837
0.198101
0.0250986
5.0212
9.14495
0.0252935
0.126063
0.0254828
0.0248641
0.0318155
0.0952697
0.0439193
0.0256318
0.0246996
0.952801
0.0253658
0.0254032
0.0358576
0.434908
0.618208
9.73635
12.4814
0.0248633
0.0640607
0.0253593
0.0721509
0.0260358
0.0255445
0.0350368
0.0251193
0.0250668
0.126437
0.0249433
0.024891
9.80143
0.0265755
0.0267638
0.0712145
0.0286408
6.18238
3.05511
7.13367
0.0253009
0.108522
0.0651761
0.0251846
0.0255347
0.0679761
0.0252411
0.121408
6.62988
0.0444959
0.0359858
0.0253048
1.76352
0.0255833
0.0250161
31.1734
5.32306
0.170145
4.72829
8.45619
0.0247065
0.0358786
0.0251845
0.0246121
0.0247691
7.44008
8.76072
3.6108
3.89059
0.0518246
0.0571056
0.0250942
0.0601285
0.0272514
0.0618365
5.12825
0.0253992
0.025668
0.0335257
0.0297647
4.51716
0.0253355
0.0255706
0.0256703
0.0318653
0.0249738
8.26794
0.0331903
3.78251
0.0252309
0.0568819
0.182653
0.101871
4.52608
4.69682
10.0299
0.0254574
0.182972
0.0304794
0.0252052
0.0453875
23.514
8.50377
0.0550122
0.115415
0.0254004
4.2194
0.0253413
2.86038
0.0441544
0.0253459
16.3802
9.35045
0.0252876
6.79575
0.212746
0.0264122
11.2918
9.07607
1.27303
0.0270938
0.0247157
9.00222
0.0254734
0.034646
5.40874
0.648906
0.0251377
7.30204
0.025308
0.0255379
0.0440692
0.0253094
9.43502
0.0888599
0.0255727
0.0835753
0.0247987
0.0251778
0.0255378
0.0349007
0.858884
0.0255173
0.272089
0.281067
0.0731693
3.59722
0.079038
0.0558272
0.307594
0.0253022
0.0252029
20.1517
0.0560547
0.0252977
9.54884
0.0256857
1.00998
3.76886
0.403091
3.93217
5.18477
0.0253448
0.0550203
3.32574
0.0687297
4.85819
0.877762
0.0253626
4.97661
0.0257942
1.24101
5.76339
0.0318181
0.0252088
0.0264695
4.32712
0.19965
0.0253946
0.0378282
6.48824
0.0250942
3.69228
0.169545
0.0267029
2.37178
5.32413
0.0253725
0.0256671
0.0261759
3.85358
0.0254578
0.0353337
15.8907
19.6129
0.0252646
8.23525
0.372767
25.6227
5.55652
7.85569
0.141014
0.125044
0.0251541
0.0252873
0.830845
0.0250014
0.071306
4.97214
0.0283033
0.0867776
3.99503
0.0272819
1.99528
0.0256927
0.117617
0.0402139
0.024721
1.15834
0.0253826
0.0253012
0.0248967
0.0249866
0.0254234
0.180698
8.37694
0.0307704
16.637
0.0263182
0.0248783
4.20698
0.055867
0.0259308
0.0273201
0.212564
0.995414
0.0560974
0.025358
0.0287208
0.0255747
0.024843
0.0600046
0.0253996
0.44326
0.0253058
10.2326
4.99454
0.0251174
3.92849
0.16548
0.11476
4.44746
0.0364597
0.0253709
0.0255507
0.0264435
0.0249594
34.1713
0.596681
0.0256847
0.0256849
1.23142
0.0254953
0.074756
0.02531
0.0251894
10.1484
0.0250632
0.0289926
0.0252035
0.0252058
0.0253599
0.0250469
0.0254304
0.0252949
11.7106
0.0612377
0.0252641
0.025203
0.0926744
3.51103
0.0256262
4.22002
0.145811
0.0571644
0.0866292
0.0251061
11.7617
5.59057
0.438123
0.0251574
0.221483
0.0254236
0.100283
0.259601
0.025117
22.6434
0.0537704
0.025914
8.73066
4.17129
0.10629
4.57818
0.0409854
0.0255473
4.36996
0.0256459
0.0252999
0.0643499
0.0251521
0.0248565
0.0253302
0.0756554
0.0246171
9.54229
0.0289986
0.884591
0.027209
16.7521
7.54033
5.42794
0.810096
0.0256444
0.227717
0.0253191
0.0372191
0.025325
4.00931
11.0222
0.025081
0.0256011
0.0263226
0.0678094
0.0252385
2.9338
10.7754
0.0519168
10.8268
0.108504
0.0295483
0.0256313
0.0272743
0.0253308
0.806545
0.026845
8.08985
0.025358
4.70247
1.04503
7.41909
0.0376476
0.190047
8.49537
4.31265
0.0253169
0.0248895
0.16415
0.0252343
0.0254237
0.0832638
0.0249546
0.0277246
0.0253766
0.0254051
0.0250672
0.0253418
0.0254658
0.0511295
6.21552
0.0656393
0.0627022
0.0269833
8.93506
8.91149
4.59505
4.40621
0.0402962
0.0405159
0.0274631
4.51917
0.0252956
0.0248534
0.485823
0.0254834
0.0248397
0.0551496
0.0250497
0.0678508
10.9108
0.0287137
0.0256743
0.0256003
0.0254031
0.161354
0.0251582
0.0423312
0.0705671
8.13806
0.0253122
0.0548993
0.0282789
0.0311037
0.0257881
0.043963
0.0256857
0.0411862
8.72431
0.0251997
3.32058
0.222424
4.40915
3.75288
0.0640915
4.673
7.30982
5.26852
0.519478
21.3643
0.0526164
1.07126
0.0252422
0.182666
0.227793
2.59105
0.168442
0.0259373
0.0250948
0.149987
0.224485
0.0256274
0.0259602
0.050611
0.0254228
0.0254494
0.0260009
0.182823
0.043939
0.0249397
4.39995
29.1878
0.0253584
0.0351524
0.155863
0.0249411
3.91439
0.0924086
0.0507452
3.98296
7.07984
0.0538067
4.29025
3.50148
9.15243
6.32119
0.0253623
0.024959
6.15505
3.67815
0.0268124
7.68415
0.025279
0.0252139
0.0252596
0.0256926
0.0265118
0.0254164
0.0815592
0.0404591
0.230206
0.220467
0.0326443
3.87562
3.58048
4.63567
0.035257
0.702685
0.0266172
5.30027
0.0249016
1.03705
10.2376
0.0890043
0.198878
21.0952
1.21774
0.0504459
0.0564074
0.0416656
0.0254077
0.932061
1.89196
0.152494
0.0246778
0.0253761
0.0356016
11.1979
1.03066
0.0302977
0.125266
5.28523
0.0410431
4.59215
0.0347549
0.024643
0.0253282
13.6217
0.104037
6.55101
0.0265921
0.0253125
0.0252683
0.832524
0.0320909
0.0253347
0.183642
4.60658
0.0258714
0.197923
0.859244
0.0260181
0.401387
0.0249467
0.0251859
0.256053
0.0251182
0.0569591
0.0255403
0.0255474
4.01473
0.0254245
0.0344012
32.5691
0.02504
0.199734
0.0282305
0.106346
4.95817
4.10316
2.34857
0.175794
0.244194
4.82095
0.0859042
0.0250201
0.0449863
0.0251259
0.0254926
4.55447
0.0252583
3.70108
0.0921187
0.0252173
6.8526
23.9773
0.027816
5.24483
0.0255301
30.2769
6.2565
0.0251007
0.0255026
0.126669
0.0253885
0.546611
6.20446
0.0255016
0.0333104
0.030294
3.7594
0.0256859
5.31946
10.8679
0.0253016
0.0538502
3.74995
4.00447
0.025223
6.64791
0.025667
7.38339
0.0584043
0.0253347
4.24403
0.025416
3.89129
0.0261651
3.81153
0.0261645
0.140805
0.223563
0.0342013
3.26607
8.83757
11.4873
4.27413
4.05326
0.0265507
0.152548
0.0264416
0.0256711
0.0252253
0.0251766
0.0253678
8.26229
0.0250347
5.84506
0.0251807
4.13266
0.0249528
0.0253119
0.0251158
0.025915
4.3751
0.0555195
9.63286
0.0255561
6.28897
4.29885
0.0251104
0.0253284
0.025305
0.0588718
5.9691
0.0410866
0.0256731
3.98224
0.0252677
0.102681
0.056564
11.5309
0.0532484
0.026381
0.0251148
0.161013
0.108664
0.0498963
3.77924
0.0253473
0.378733
0.0248555
9.60643
5.53209
0.0255176
3.53501
0.0252573
0.0252323
0.0250053
0.0251864
6.30882
3.04064
10.123
12.1075
0.0320623
0.0598634
0.0463486
4.22808
0.0247931
0.0254642
4.19036
4.35368
0.118729
0.0356413
0.0752894
1.11306
4.381
0.283407
0.0256713
0.0273316
10.8736
0.419006
0.0689336
17.2227
0.0253167
0.024811
0.0259353
0.0395735
0.0411978
7.45456
0.0251344
0.0251907
0.0249145
1.00315
0.0249924
7.75337
0.025685
0.0380361
10.4787
0.0256851
0.133177
0.0255531
0.0266687
0.0278335
0.0571013
0.143483
6.04734
0.118271
0.0246819
0.0249833
0.0606953
6.67785
3.58004
0.0307553
0.185226
4.36412
4.44346
0.0255375
5.80101
3.62952
0.0810682
0.0344358
4.38436
0.0256791
0.0644743
0.0254562
0.501307
8.08109
0.0255551
0.0246457
0.0358445
10.4725
4.27002
0.0252686
4.53722
0.10553
4.08648
2.02433
0.0335778
0.181856
0.0711462
0.0264216
0.024961
2.83045
4.02052
0.165117
6.50855
6.66585
3.73399
5.96749
4.4288
0.0251655
4.79435
0.0374035
0.0252664
0.0307761
0.0267947
5.06286
0.0256716
0.0253278
0.358122
0.110418
0.0253235
2.61354
4.01115
5.84682
0.0359383
0.0793309
0.025235
0.0256259
5.70431
0.17922
0.0251376
10.0213
0.025035
0.0253292
10.3762
0.0256862
0.0913877
0.0246511
0.452249
3.94241
0.0249174
0.0369354
6.33568
0.0253283
17.6266
0.0254778
10.404
0.0251869
0.106009
0.0524847
4.17896
0.025386
0.428739
0.960199
0.0250547
0.0254586
0.0250593
0.025051
8.73175
3.92395
0.0834519
12.4525
0.168239
0.0252807
0.0584601
0.0315764
0.0250529
0.0251045
0.0409869
3.61783
6.25796
0.0556607
0.170714
0.234165
0.0249866
0.0252678
0.0256944
0.579738
0.0247257
22.2773
3.9139
0.109803
0.0253116
3.67896
0.0256658
0.55837
0.351401
0.0252824
0.0254418
0.0312279
3.39817
0.0251277
0.973898
0.0249851
6.23523
0.0250508
4.35856
0.0294703
0.0379047
4.62385
0.0249883
1.45773
0.0254588
0.0251598
10.1631
0.104393
4.24544
0.0249296
0.0256211
0.0255691
0.163337
0.165435
0.0752343
0.0259746
0.0288447
0.0249819
3.70178
0.0407753
7.73812
25.5765
9.86964
0.0332436
0.0248541
0.0256717
22.0235
4.12218
0.0251657
0.0250311
0.111899
0.0941165
4.12838
0.0535426
0.0278066
0.0249314
6.404
0.0261433
0.0256571
6.02876
0.0249386
0.0962572
0.0435849
1.13129
0.0246405
0.145982
7.48646
0.0289879
42.2938
11.1973
3.58484
0.0612089
6.55683
0.0250282
4.40751
0.025314
7.46262
0.0263839
0.203122
0.025187
0.0255064
4.94342
8.15428
0.0252963
0.0745293
7.07882
0.0247416
5.30936
0.060447
0.0565155
5.46476
0.0253538
5.72594
3.93027
0.0265615
0.0248703
18.5644
0.140122
4.57987
0.0305085
0.49864
0.0259618
5.25265
0.117717
0.0251855
3.55756
0.0251871
0.0255127
0.0263211
0.0330111
8.26996
0.025952
0.0317491
8.74483
0.0425059
0.0821058
0.0268979
1.95649
0.0354015
4.38767
0.0254629
0.0255056
0.0255771
0.129211
0.0429023
0.0513628
0.0326432
4.23103
3.92099
0.0728595
0.0252432
0.0493431
7.38573
0.0254988
0.0256123
6.71617
0.371496
0.0253196
0.039469
0.721378
0.0253302
0.0559698
0.03695
0.0253498
0.0304355
0.0262079
0.0249334
0.0253948
0.030611
0.0903624
0.038329
7.36506
0.0252195
0.0255854
4.35525
0.0259169
0.0935079
0.0256465
0.0253748
3.52536
0.0301885
0.0246585
0.184198
0.0249184
0.0254652
3.76259
0.025367
4.43829
0.0249063
0.405738
0.425013
7.09046
0.0563061
0.0250372
0.0250858
5.51325
0.0256723
10.3945
0.0249133
0.0255759
4.71433
0.0255963
0.0327992
4.66532
0.0363733
0.443344
0.0249244
0.0253579
1.2427
4.60346
0.0249198
0.025333
0.0509951
23.7016
0.0286781
3.61374
8.76097
0.0251301
0.0771679
0.0303409
0.0253435
0.0252822
0.0253576
0.0253387
0.0796303
0.0251108
4.53593
0.0251125
2.69743
0.104744
0.111759
19.0928
0.12328
0.203948
1.38034
0.0334701
17.7763
0.0268013
0.0251374
0.0254778
0.0251771
9.30513
0.0399348
4.20151
0.55527
0.0255926
0.0347153
0.0980891
0.0258972
0.0251218
0.0251877
24.318
0.167665
0.0286961
0.0253376
0.0248677
0.0547301
0.0313345
0.0317193
0.0255834
0.0253362
0.0255004
0.0248551
12.5336
0.0427896
4.47421
9.88403
0.0264511
0.0256162
7.97352
4.00686
0.0436136
1.76002
0.0248551
0.0829099
0.0590217
0.0253236
0.051941
0.424369
3.98252
7.69189
0.0249274
4.39413
0.0254012
0.0948526
0.0253875
1.32225
4.42791
15.6776
0.10497
14.6866
0.853259
0.0337154
0.0348326
0.0250326
0.869416
0.02549
0.0256027
0.0258146
7.9355
0.177256
0.0259217
0.0549266
0.0278058
0.0247687
0.0254238
0.0265547
0.0254077
0.0253274
0.0250638
0.0251483
0.025336
6.88884
4.37037
0.0253672
4.80205
0.06691
0.034463
0.0931141
0.0254868
0.38184
4.03682
1.45283
2.23237
0.0690335
0.0308947
0.0249333
14.2731
7.61765
0.0256277
5.08092
0.0262568
0.128309
0.025478
4.79153
0.651983
0.193096
4.8234
0.025434
0.0251475
7.58626
0.118303
0.0252861
0.0253255
0.271832
0.025315
0.606334
0.0248565
0.0285426
0.0257015
0.0253002
0.115111
5.63167
0.589972
0.0253065
0.0251932
4.77014
0.0312281
0.0250375
4.41062
0.038363
0.0261221
0.025307
0.0251258
8.41188
0.0255284
0.0452961
0.0338465
0.601353
0.0821905
0.0796057
0.0634715
0.430637
0.0253585
0.0255377
7.92548
0.0249769
0.055559
0.0253128
0.0255074
0.0255674
0.0259134
0.0565249
3.57994
3.53885
4.84653
0.0252953
0.0252289
8.73504
0.0252009
0.0860169
4.49221
0.0392234
0.0252386
6.96082
5.89702
0.0254712
4.21168
5.96719
0.0436601
0.0255054
4.15571
8.50109
0.0253956
6.98536
22.2
4.50783
0.291999
0.458735
7.12265
4.60815
0.0251796
4.45062
1.62183
0.0769248
0.0250676
0.0255905
13.7944
0.956496
0.373426
0.037077
9.02617
0.0538654
0.0328325
4.56715
0.0252678
0.089812
0.0252798
0.12736
0.0262897
3.72033
3.66564
6.77981
12.9819
6.11084
0.0262919
0.0246962
0.0251419
0.0252934
0.0252038
0.131721
2.47398
0.0274373
6.17762
0.0259571
0.510152
0.025649
0.0256644
0.0248302
0.0404509
0.0256661
0.0260198
0.0434309
0.0747829
0.0256886
0.0260181
0.027085
0.0248666
0.0587227
0.065516
0.0253027
0.0318287
0.0254903
0.737539
0.0250772
0.0272064
0.0256349
0.159549
0.0800539
0.025319
0.030813
0.0705114
0.0268393
0.0252113
0.0255587
0.0255613
7.41725
4.37208
0.0251103
0.101002
0.0571457
0.0253897
8.46564
0.0255523
5.7763
0.0251161
0.0254846
0.0290334
0.110829
0.0436052
0.0253568
0.025357
0.0304667
0.0307946
4.80193
3.52421
3.54811
0.0259354
0.0251187
0.0253288
0.0265721
0.0273625
9.01838
0.0252213
0.0255153
0.0305198
0.154609
0.0275891
6.38487
0.0253892
0.0254678
5.23174
8.08787
0.114842
0.025496
0.0413291
10.3478
0.0248986
8.47153
0.0440156
0.0571987
10.0053
3.82033
0.0254611
0.107009
0.0254978
0.134636
0.0393156
0.0251059
0.0256951
0.0250348
0.0364284
5.18871
0.0253359
0.0253369
0.0253583
0.0535082
0.0252548
0.0246822
6.25103
7.37192
0.024906
7.65721
0.0326817
0.133248
0.0249058
3.90535
0.0249773
0.0249384
0.432602
0.0255837
0.064284
0.0254611
0.0259108
0.0291362
0.295771
7.22055
0.552168
0.025101
0.0253621
0.035634
0.0345755
0.0251943
0.274238
3.86857
10.212
0.0293041
0.0253932
0.0256291
0.0250474
1.88358
5.32267
4.11429
0.0398413
0.0264492
1.194
4.78427
0.532414
0.617159
5.31891
0.0615885
0.256164
0.0252538
0.0253224
0.0254687
0.0264067
0.0283672
0.610039
0.034553
7.48625
0.285643
0.0253107
0.024944
0.0348349
5.49816
0.0251052
0.43303
0.717136
0.0252616
0.0253348
0.0253064
7.78492
0.046226
0.0267832
0.042731
0.0398976
0.0268728
0.0310993
3.61819
3.63803
0.0246504
0.0258192
3.99762
0.0253044
0.0392483
0.0262685
0.0256932
0.0254706
6.08593
0.0255529
3.5291
0.0271208
6.67486
0.0253336
0.0254053
12.7873
8.95469
0.0248812
0.172712
8.85018
3.71531
7.1118
0.0252742
0.0363811
0.0288769
8.3368
7.61621
0.0268381
0.0586877
3.66573
0.074789
0.0402862
4.35669
3.99867
0.025466
0.0256794
0.0258646
0.180383
0.244598
0.0249919
0.0253787
0.452822
0.0251546
0.034806
0.0250775
6.96794
0.0884622
9.0445
3.39768
0.0569149
3.28235
0.0253381
8.38009
0.0249147
8.82046
0.0246791
0.0253626
0.0722345
0.0253234
3.68054
8.89101
0.0458439
0.248097
3.88925
0.0254738
0.0518158
0.0355979
6.54306
0.0283455
8.20141
0.172609
0.0253858
0.0258697
0.0262643
0.0256859
7.6871
5.04702
0.0842321
0.0291585
8.83029
3.69213
0.0256866