/*--------------------------------*- C++ -*----------------------------------*\
| =========                 |                                                 |
| \\      /  F ield         | OpenFOAM: The Open Source CFD Toolbox           |
|  \\    /   O peration     | Version:  v2012                                 |
|   \\  /    A nd           | Website:  www.openfoam.com                      |
|    \\/     M anipulation  |                                                 |
\*---------------------------------------------------------------------------*/
FoamFile
{
    version     2.0;
    format      ascii;
    class       volScalarField;
    location    "200";
    object      p;
}
// * * * * * * * * * * * * * * * * * * * * * * * * * * * * * * * * * * * * * //

dimensions      [0 2 -2 0 0 0 0];


internalField   nonuniform List<scalar> 
27802
(
0.0339017
0.00841386
0.0773676
-0.0581131
0.0128622
-0.323816
0.0123411
-0.197057
-0.00626368
-0.0980775
-0.220601
0.342936
-0.04604
0.358585
-0.237631
-0.419206
-0.407345
-0.0065004
-0.217621
-0.126325
-0.377364
-0.240441
-0.0164444
-0.097721
-0.267368
0.08222
0.00426567
-0.0706458
-0.0065421
-0.425568
-0.0970909
-0.142872
0.0325537
-0.0163057
0.0242105
-0.383394
-0.429117
-0.0135398
-0.0245846
-0.42482
0.333341
0.0241646
-0.073855
-0.0144507
0.0650755
-0.185187
0.0266774
-0.419571
0.486406
-0.0829145
-0.195595
0.0788669
-0.244965
0.0482145
-0.0224595
0.00628265
-0.121813
0.0264705
0.0576983
-0.206058
-0.0523219
0.0809233
-0.0161444
-0.00982684
-0.0144787
-0.00494787
-0.091304
-0.12324
-0.207102
0.00350404
-0.0145444
-0.108278
-0.146375
-0.0850242
0.0968978
-0.0431867
-0.0924261
-0.421307
-0.0786114
-0.239453
-0.00628621
0.00218492
0.175663
-0.00370292
-0.0151966
-0.102436
0.00843932
-0.0932912
-0.324566
0.0424546
0.0207273
-0.0649182
-0.0073478
-0.426215
-0.136858
-0.0812758
0.00210163
-0.0772166
0.0321162
-0.114093
-0.0248805
-0.0177427
0.186312
-0.0513275
-0.142644
-0.015552
0.0372036
-0.0146431
-0.0221973
0.0689379
-0.419436
0.0210789
-0.0162203
0.0318662
0.037944
-0.00967442
-0.0582044
0.0819166
-0.100822
-0.260636
-0.120324
-0.201228
-0.217055
0.0927175
-0.407865
0.209782
-0.0133526
-0.0625043
-0.417197
-0.0165888
-0.152742
-0.134197
0.0139277
-0.424016
-0.123698
-0.0471013
0.289526
0.36561
0.0287753
0.014548
0.34839
-0.0984172
0.164839
0.0786698
-0.0131184
-0.0829262
0.117197
-0.0873175
-0.0273687
-0.114401
0.0424618
-0.347426
-0.0738679
-0.251524
0.00683878
-0.0753605
-0.0461477
-0.0819481
-0.0148139
0.020818
-0.00991324
-0.00409735
-0.335049
-0.00378854
0.0110062
0.00810862
-0.139195
0.00558078
0.0136787
0.0455305
-0.102671
-0.148661
-0.399815
-0.355954
0.00733015
-0.215362
-0.235725
-0.186961
-0.00976919
0.0366197
-0.182438
-0.085377
-0.345855
-0.091286
-0.0147953
0.431011
-0.403807
0.138853
-0.0981137
0.5202
-0.315419
0.022977
0.0718897
-0.142223
-0.0232715
-0.347231
-0.0747339
-0.256755
-0.143851
-0.103263
-0.0528956
0.0205987
0.0321335
-0.0585177
-0.318305
-0.143998
0.00613599
-0.00721882
-0.429203
-0.0182041
-0.026952
-0.120451
-0.0590445
-0.391933
-0.0146012
0.00399225
-0.150637
0.057356
0.0223847
0.0228705
-0.13536
0.0112756
0.0363135
-0.169498
0.0469585
-0.144767
-0.026104
-0.0883856
-0.0142372
0.0463716
0.0315956
-0.0798551
-0.137639
0.0241816
0.0227221
-0.288673
0.294513
0.198386
-0.0139436
0.273946
-0.159869
-0.348701
-0.0867457
-0.103108
-0.373992
-0.0470478
0.00765295
-0.41933
-0.0149166
0.00624699
-0.2138
0.00337861
-0.217642
0.0620971
-0.0948327
-0.107129
-0.0672505
-0.173251
0.00445065
0.0968226
0.00245327
-0.181677
-0.101704
-0.0976476
-0.000469207
0.00815136
0.0604431
0.429331
-0.104888
-0.138853
-0.42241
-0.0713745
-0.369097
-0.00374477
0.00316285
0.0242647
-0.131223
0.0266936
-0.019814
-0.1039
0.0632718
-0.0815632
-0.262144
-0.0845045
-0.405614
-0.0526465
-0.18406
-0.00433976
-0.199708
-0.253005
-0.29428
-0.0584868
-0.203543
0.0593216
-0.0140972
-0.00194316
0.0647298
-0.122903
-0.420314
-0.201883
-0.287424
-0.0288861
-0.0841671
-0.333317
-0.136795
0.0264511
-0.166493
0.00253587
-0.157326
-0.0186525
-0.082507
-0.244724
-0.418964
0.0261177
-0.393108
-0.411565
-0.178551
-0.00551994
-0.0709311
-0.400697
-0.0181523
0.0914755
-0.138406
-0.0846463
-0.105335
-0.00763009
0.176442
0.268022
-0.105027
0.002364
-0.0902919
-0.0029929
0.0202737
-0.139856
-0.194408
-0.0249432
0.024944
0.0417686
-0.242402
-0.0439482
-0.0180462
-0.311232
0.0166581
-0.286203
-0.423105
-0.384976
-0.0527586
-0.00381285
-0.0469543
-0.00466948
0.423962
0.426374
0.00111932
-0.172176
-0.0194433
-0.0181983
0.0468052
0.00171716
-0.164597
-0.00401265
-0.147377
-0.332885
-0.19663
-0.0130204
-0.0195154
-0.0202551
-0.347167
-0.00417197
-0.0957903
-0.0141152
-0.135845
-0.170346
-0.423856
-0.046194
0.0636264
-0.0256967
-0.0522666
0.0240029
-0.0996728
0.0908168
0.11791
0.0200426
0.0371357
0.0225946
-0.0217758
-0.430744
0.289585
-0.0934043
-0.364735
0.328876
0.0192158
-0.0873598
0.0438064
0.00958361
0.198949
-0.0352144
0.0212302
-0.0905213
-0.319443
-0.0880624
-0.07764
-0.410153
0.00513488
0.0268002
-0.0833159
-0.417963
0.0263941
0.109295
-0.162804
-0.060678
-0.0193637
-0.0174797
-0.1068
-0.139
-0.0913702
-0.0593664
0.00296018
-0.328541
-0.0181742
-0.0976259
-0.0676397
-0.422461
0.0220785
0.0118843
-0.045717
-0.04432
0.0473904
0.0190912
0.0228023
0.283745
0.0292123
0.0104492
-0.169168
-0.190525
-0.0751552
-0.411399
-0.198162
0.331131
-0.209834
0.00925529
0.152559
-0.146181
-0.0521221
0.0244589
-0.020361
-0.0523021
0.238654
-0.0385053
0.0320321
0.00282458
-0.356923
-0.0831144
-0.0386425
0.00220244
-0.400161
0.0217362
-0.0976152
0.0210856
-0.0147961
-0.0517654
-0.243061
0.00560874
-0.0139659
-0.25287
0.027837
-0.11951
-0.101808
0.286029
0.0212957
-0.106816
-0.258388
0.326586
-0.161657
-0.102727
-0.00182794
0.0076433
-0.00956987
-0.0830416
0.0261709
0.0683053
0.0068648
-0.0664185
-0.0789517
-0.106465
0.00229206
0.0358718
0.241002
0.0568893
-0.0257
0.00551224
-0.00381013
-0.18917
-0.0837556
0.299047
-0.364751
-0.00610877
-0.0802926
-0.0888137
0.111376
-0.041682
-0.0128208
0.00860106
-0.135216
-0.219458
-0.0496426
-0.401897
-0.0934265
0.0288879
-0.35652
-0.00918513
0.00190843
-0.0461547
0.0050183
0.0970641
0.0147317
-0.0624268
-0.421116
-0.393909
0.120031
-0.336497
-0.0984349
-0.099268
0.0218742
0.0222099
-0.0788462
0.0365131
0.0232534
-0.125464
0.00143222
-0.310507
-0.073613
-0.216904
0.118702
0.00544546
0.0446747
0.0292862
0.0267836
0.0893657
-0.199292
0.00185634
-0.41192
0.0887371
0.46019
0.202392
-0.180321
-0.0163747
0.0210069
-0.0887396
-0.142088
0.0255968
-0.145159
-0.0341033
0.012201
-0.00612982
-0.252374
-0.127345
-0.242547
-0.106595
0.447981
-0.00452293
-0.107595
0.0327139
0.0119891
0.339318
-0.112122
0.00527262
0.0499329
0.00330563
-0.0914142
-0.0244739
-0.00966334
-0.016818
-0.00129309
-0.0970855
-0.0235451
-0.422505
-0.0946726
0.0201663
-0.0943749
-0.128563
-0.112571
-0.158426
-0.0602557
0.0055862
-0.00867035
-0.00621521
-0.379978
-0.00381888
-0.137835
-0.311554
0.121952
-0.35349
-0.0843966
0.0251147
0.0331516
-0.0878727
-0.0817039
-0.000964546
0.00644023
-0.370157
-0.0811509
-0.251769
-0.383737
0.185549
-0.00249345
0.418538
-0.429561
-0.00327635
-0.354648
-0.104893
-0.141461
0.210703
-0.378298
0.0901004
-0.114788
0.00855316
0.291874
-0.000586869
-0.0736399
0.174799
0.209921
-0.384689
-0.0809326
-0.188795
-0.0505389
-0.343319
0.00766267
0.0140318
-0.0184682
0.312641
0.0240405
0.0784125
-0.00563287
-0.121392
0.11894
0.00695883
0.0281597
-0.0904336
0.362509
-0.07217
-0.303356
-0.0265484
-0.097619
-0.0895554
-0.0860346
0.0129013
0.127654
-0.30412
-0.107996
-0.0247096
0.00244297
0.448975
-0.117937
0.0238624
0.423248
0.0225009
0.173488
0.0248731
0.0235438
0.00815866
-0.187216
-0.0824808
-0.0135166
-0.0687984
-0.420225
0.0226289
-0.00173212
-0.352647
0.0693262
-0.182282
0.0146473
-0.0198084
-0.00553862
-0.131732
-0.069064
0.0243751
-0.0773391
0.00601702
-0.0520658
-0.111863
0.0240402
-0.0826855
-0.110663
-0.00673022
0.0722424
-0.00793452
-0.412824
-0.330935
-0.0963025
-0.0260249
-0.381793
-0.369181
-0.0077043
-0.386752
0.0469694
0.00919394
-0.00355146
0.0113555
-0.0153562
-0.331425
-0.000253373
0.0235039
0.211636
-0.131257
0.0216001
-0.419676
-0.101687
-0.287771
-0.0198232
-0.0475997
0.00855377
-0.00390718
-0.180037
0.00796531
0.0289427
0.0090967
-0.0605218
-0.0215221
-0.123659
-0.277862
-0.117132
0.0227021
0.134153
-0.0765531
-0.018722
-0.0172873
3.97321e-05
-0.0124098
0.297023
-0.372833
-0.109396
-0.35661
-0.000666846
-0.0780659
-0.00567122
0.0234749
0.42078
0.010795
-0.421589
-0.182061
-0.3072
-0.428857
-0.0696477
0.027917
0.0427534
0.46354
-0.100758
-0.0875383
0.320494
-0.00205068
-0.0817435
0.032397
-0.0894361
-0.182006
0.0255038
-0.0175515
-0.0818343
-0.00288652
-0.00655213
-0.387439
-0.0971285
-0.417444
-0.188718
0.0275703
-0.0739351
0.0332863
0.229182
-0.0168124
-0.0795317
-0.112053
0.0172114
-0.368386
-0.393039
-0.0841555
-0.070359
0.0278584
0.0276091
-0.101016
-0.0770437
-0.031324
-0.0893437
-0.0798091
-0.138306
0.00790702
0.0270896
-0.142185
-0.0238454
-0.105207
-0.243213
-0.00445233
0.0757405
0.106116
0.00322349
-0.0927889
-0.0252694
-0.374471
0.118306
-0.361543
0.0795264
-0.0924038
-0.336165
-0.0504725
0.361695
-0.100879
0.0273484
-0.0802159
-0.0759439
-0.390485
0.125234
-0.00367712
-0.128975
0.0245667
-0.0270456
-0.19166
-0.310792
-0.0809681
-0.321033
-0.00205175
0.0115675
-0.0851997
-0.145242
0.0128736
-0.125057
-0.147986
-0.19172
0.00145365
0.0690715
-0.137978
0.00375739
0.191171
-0.00609196
0.110219
-0.402208
-0.264629
0.0968879
0.124247
0.125068
0.0272033
0.0104784
0.00910527
-0.184606
-0.147001
-0.0330478
0.0108011
-0.0502235
-0.0987099
-0.189491
0.157255
0.0382168
0.351959
-0.418352
0.0470944
-0.0924515
-0.0698564
-0.0778545
-0.401767
0.0234525
-0.0308313
-0.0061276
0.00208246
-0.372184
-0.370169
-0.144425
0.0628824
-0.0916949
-0.059815
-0.393065
0.00527314
-0.251768
-0.106121
-0.428066
0.0210105
0.0105959
-0.0529731
0.00398041
-0.282553
-0.0911463
-0.136853
-0.237916
-0.178903
-0.0589899
-0.339894
-0.0995843
-0.132356
-0.29449
0.0125219
-0.204486
-0.419014
0.0317157
0.00681607
0.0244318
0.106118
-0.08479
0.150619
-0.00471457
-0.206508
0.00176943
0.0771504
-0.00294828
0.0107969
0.0104097
-0.0434902
0.0124382
-0.0787517
0.00677902
0.161619
-0.330803
0.520831
-0.0267006
0.0102775
-0.0785165
-0.0186894
-0.116565
-0.00901672
-0.200055
-0.0759662
-0.124133
0.291148
0.00233967
-0.0136701
0.21234
-0.142757
0.023138
-0.291919
0.00826796
-0.0736238
0.024103
-0.0052184
-0.416859
-0.1645
-0.00883506
-0.281858
-0.262754
-0.0981508
-0.0573531
-0.0249604
-0.418134
0.0901208
-0.287135
-0.0429869
0.213321
0.0399138
0.0103453
0.0567506
-0.246974
-0.38169
-0.160907
-0.37974
-0.423387
-0.0836064
-0.00893851
0.00535649
-0.114772
-0.24537
-0.0517998
-0.122148
-0.0362366
-0.0154345
-0.0798141
-0.157077
-0.0937014
0.00474535
-0.297276
-0.05115
-0.129979
0.00292804
-0.140692
0.220854
-0.00842844
0.000644142
0.0210539
-0.0913472
0.00630571
-0.0451773
-0.0904874
0.371779
-0.0243373
-0.0904944
-0.0903228
-0.0838669
-0.165674
-0.381475
-0.346497
-0.0639417
0.00539023
0.445631
-0.0379843
-0.0324551
-0.302854
-0.18211
0.453736
-0.30638
-0.0856618
-0.287872
0.0100719
-0.255354
-0.0894602
-0.0871611
0.168245
-0.0126216
-0.0192998
-0.259943
-0.0493859
-0.0142916
0.0243351
0.0168528
0.00508429
-0.00200898
-0.0134504
0.0202479
-0.0845883
0.000880969
-0.177364
-0.0106781
-0.371483
-0.193917
0.0097357
-0.146511
0.000252727
-0.298138
-0.157368
-0.0808061
-0.124364
-0.0894613
-0.0205542
-0.0674751
-0.016504
-0.0724308
-0.4195
-0.277782
-0.257303
0.00800384
-0.00691765
-0.0156446
-0.295292
0.0243882
0.0238098
-0.0976501
-0.00857586
-0.0237157
0.273391
-0.00440628
-0.00737104
0.0223817
0.446582
0.0674577
0.0127299
-0.0980714
0.481679
0.00341762
-0.0173123
-0.094569
0.012459
-0.0217231
-0.308152
-0.067782
-0.000457584
0.00985293
-0.21055
0.0134707
-0.0267372
0.0268261
0.0178944
-0.410704
-0.323479
0.0205934
-0.14458
0.029067
-0.125468
-0.0820655
0.0524889
-0.407905
-0.42976
-0.0669176
-0.0240491
-0.00359204
-0.189572
0.377557
-0.373524
-0.116915
0.00970837
-0.11557
0.0429726
0.517485
-0.0653243
-0.420331
0.00750912
0.373472
-0.369093
-0.214693
0.0265039
-0.0829199
-0.31181
0.00237893
0.0518017
0.000170857
0.0226705
0.0300154
-0.0255264
0.0645464
-0.199793
-0.344298
0.00503243
0.0237294
-0.0910935
-0.0449231
0.0961905
0.028693
0.0184817
-0.283201
0.00916747
0.0241724
-0.0541052
-0.389266
-0.0547633
0.0179877
-0.360929
0.00363447
0.0770768
-0.0872903
0.00243834
0.0207371
-0.404537
-0.0255963
-0.0954894
0.169117
-0.0569952
0.0576901
0.0596916
-0.158117
-0.085336
0.495155
-0.137097
-0.128963
-0.192986
0.0265539
0.0668941
0.0200719
-0.365906
-0.41957
0.0373401
-0.249607
-0.0086777
-0.331376
0.0230599
0.0202931
-0.0809721
0.27693
-0.400977
-0.0222634
-0.350478
-0.0893399
0.00501578
-0.0920894
0.00825919
-0.0352641
-0.0131218
-0.0393305
-0.085353
0.305076
0.00896687
-0.0788866
-0.108064
-0.00726676
-0.381578
0.00983366
0.0592946
-0.297406
0.0783413
-0.204757
0.00823909
0.000379966
-0.0925263
-0.0149209
0.0114988
-0.172239
-0.00482324
-0.00576111
-0.401493
-0.00304976
-0.00680837
-0.068414
-0.39325
-0.0177493
0.0210755
-0.00319241
0.057506
0.0187124
-0.0991207
-0.186946
-0.207016
0.201153
-0.0237376
-0.00481896
-0.256912
-0.119973
-0.210665
-0.00318635
-0.423098
0.356236
-0.421606
-0.199717
-0.342095
0.0581921
-0.220916
-0.280154
-0.149636
-0.0093738
0.0303162
-0.117833
-0.0178274
0.287173
-0.0656144
-0.255092
-0.334627
-0.0709404
0.192021
0.011128
-0.364457
-0.172528
-0.131795
-0.0962535
0.416528
0.0445702
-0.040049
-0.102614
-0.177114
0.185027
-0.0447483
-0.00535465
0.0479271
-0.0137272
-0.0153335
-0.0658839
0.0266104
-0.0352263
-0.412065
-0.0927066
0.0240463
-0.109249
0.0131728
0.0144825
-0.300836
-0.0646694
0.00245076
0.0223656
-0.183194
0.00331768
-0.0155728
-0.0036051
-0.206749
0.371374
-0.168881
-0.29071
-0.399848
-0.122568
0.0242072
0.0270036
-0.0919156
-0.089834
-0.135323
-0.1715
0.046516
-0.109222
-0.139274
-0.283683
-0.00947996
-0.0814003
0.0337168
-0.0903776
-0.128094
-0.356418
-0.275919
-0.00827916
-0.101489
-0.400239
-0.393659
0.0273477
0.227784
-0.0879296
-0.183644
-0.168129
-0.130077
0.0324378
-0.257117
-0.0596311
-0.0530815
-0.232916
-0.0153834
-0.105011
0.512777
-0.422626
0.177743
0.0476977
-0.0914651
-0.0451375
0.0242069
0.0121848
-0.129711
0.073131
0.0554266
0.019439
-0.105746
-0.0909301
-0.053591
0.203973
-0.398788
0.00869489
0.00843586
-0.0164583
-0.0497885
0.017715
0.0217224
0.0231704
0.0503351
-0.366491
-0.0958158
0.215542
0.501779
0.0821125
0.345466
0.0155373
0.472428
0.00933862
-0.363761
-0.0853069
-0.0109507
-0.422249
-0.326073
0.0440771
-0.128952
-0.371459
-0.377379
0.0154573
-0.369544
-0.369916
-0.349562
0.0348383
0.0118918
-0.301036
0.509123
-0.207074
-0.361905
-0.190788
-0.196736
0.0235414
-0.04006
-0.206294
0.0119229
-0.00563266
0.0134242
0.401798
0.0332548
-0.13033
0.37445
0.0232279
0.0324002
0.0230875
-0.107669
-0.361912
0.0574554
0.0266623
-0.0152946
-0.281632
-0.10049
-0.0920469
-0.0903365
-0.326943
0.306851
0.352409
0.0110126
-0.304408
-0.0970393
-0.0903337
0.256422
0.00870306
-0.00719064
-0.154626
-0.0767663
0.0137354
-0.13619
-0.152692
0.00440139
0.455901
-0.0916371
0.0239751
-0.046021
-0.0390694
-0.136581
0.0362862
0.00385479
-0.0179085
-0.317454
-0.0849398
-0.296252
-0.325823
-0.0938425
-0.00838141
-0.185544
-0.0211261
0.0292926
0.0314361
-0.37157
-0.00152705
0.0829517
0.0355866
0.0241723
0.0154105
0.0314639
-0.115371
-0.0829536
-0.0480083
0.00241812
-0.0906373
-0.0590602
-0.0881953
-0.00136292
-0.0955969
0.021878
0.0264066
-0.232083
-0.07016
0.0265853
-0.228798
-0.332403
-0.205758
-0.00884066
0.163898
-0.132566
0.308423
0.0247708
0.0467617
-0.0860498
-0.107255
-0.131639
0.026135
-0.00182648
-0.387113
-0.312718
-0.210649
0.0361268
-0.0836387
-0.100897
-0.0257107
-0.00486529
0.0351367
-0.398837
-0.0834432
-0.142744
-0.290783
0.014861
-0.00527662
-0.104877
-0.379081
-0.189831
-0.00484324
-0.256218
-0.402681
0.0605526
0.0386713
-0.0838581
-0.15053
0.0711947
0.0228376
-0.130904
0.0238433
0.00123611
0.0345137
-0.219335
-0.257182
0.00698602
0.00712834
-0.422068
-0.0237502
0.00266171
-0.282751
-0.162784
-0.358061
-0.402877
0.021471
0.00984515
-0.0441897
-0.116011
-0.0697643
-0.258451
-0.0889171
-0.0436929
0.0237325
-0.409575
0.0364621
0.0892139
-0.412113
0.0014953
0.0271462
-0.0777888
-0.295568
0.0416985
-0.0552907
0.00731926
0.0154627
-0.0485224
-0.255903
0.00479868
-0.0328861
-0.0114072
0.0288738
-0.095726
-0.264805
0.285091
0.00777547
-0.0420146
0.0490699
0.449632
-0.368754
-0.00320575
-0.0905702
-0.0647501
-0.0753194
-0.161596
-0.0336962
-0.134545
0.518087
-0.00560679
0.381568
0.00902097
-0.0251773
0.0936324
0.0142722
-0.0160945
-0.0875987
0.00720647
-0.314211
-0.0787212
0.00463241
0.00208127
0.179584
0.0494315
0.0322497
-0.0117731
0.0222675
-0.192159
-0.0210704
-0.15232
-0.238063
-0.00538431
0.130832
-0.349229
-0.122702
-0.101833
-0.401452
0.00401249
-0.384984
-0.137587
-0.0127002
-0.403051
0.0258385
-0.400753
-0.0934262
0.288335
-0.36831
-0.360291
-0.0466415
0.0586387
-0.0960118
0.0546734
-0.119577
-0.137339
-0.241395
-0.0825694
-0.00153559
-0.0888694
0.351185
-0.0136252
-0.0035141
0.0242011
0.294115
-0.109483
-0.109816
-0.146753
-0.0234038
-0.0890859
-0.0162434
-0.101395
-0.120997
-0.324914
-0.00685907
-0.10111
-0.00257311
0.318999
-0.381769
-0.0961934
-0.152536
-0.190981
-0.230639
-0.0127113
0.0225419
4.98686e-05
-0.227659
-0.366404
-0.0733181
0.0196791
0.00637159
0.0155608
-0.00661883
-0.33733
0.0119576
-0.085816
-0.159893
-0.261817
-0.0858188
-0.104222
-0.220188
-0.176512
-0.000149588
-0.0826863
0.015752
-0.138094
-0.086589
0.163892
0.207774
0.27922
-0.0261699
-0.0860263
0.0254368
-0.0904874
-0.168776
0.00791581
-0.0965505
0.0131282
0.00972127
0.00526699
-0.31721
-0.0256115
-0.397975
-0.00152245
-0.00461182
-0.128947
-0.118124
0.00915108
-0.328192
0.0208309
-0.327426
-0.011876
0.0231055
-0.236922
-0.246771
-0.116507
0.0188637
-0.0137729
0.0737174
-0.214265
-0.0845406
-0.025911
0.0763768
0.207095
0.0977687
-0.0515621
-0.024401
0.071756
-0.0238022
-0.0681202
-0.0840527
-0.101589
-0.1065
0.00202498
0.0098762
0.010031
0.0457471
-0.0703723
-0.0330227
0.0421944
-0.0429319
-0.422739
-0.0380062
0.0237281
-0.0838892
0.0619029
-0.0184184
-0.0969031
-0.0786416
0.0220791
-0.0118287
0.0279094
-0.00275894
-0.0802719
0.108186
0.022971
0.167865
-0.211077
-0.130645
-0.184804
-0.0097925
-0.393521
-0.0588771
-0.0866468
0.223849
-0.178708
-0.338533
0.056814
-0.106393
-0.119473
-0.00560613
-0.395298
-0.089978
0.0287014
-0.102257
0.022067
-0.0149051
0.0635207
-0.0721992
-0.107082
0.0532994
-0.0175988
-0.160564
0.00526567
0.0277134
-0.0588633
0.352089
-0.27538
-0.091128
-0.203255
-0.0161112
-0.14112
0.027127
0.214495
-0.0388646
0.019119
-0.059321
-0.000267251
-0.00304507
-0.186099
-0.00944642
-0.023385
-0.365852
0.080711
-0.00206658
0.067414
-0.0593502
-0.39405
0.510595
-0.0817464
0.00821307
-0.178448
-0.115056
-0.0218753
0.022978
0.00821413
0.00726998
-0.190046
-0.240073
0.138049
0.162464
0.033385
0.331262
-0.0192482
-0.0187522
-0.0927866
-0.3996
-0.07895
-0.103594
-0.341328
-0.0178503
-0.0669331
0.007546
-0.0137948
-0.0145057
-0.0789803
-0.132489
-0.0876003
-0.107827
0.0547438
-0.092325
-0.00487936
-0.130715
0.0470825
0.237229
-0.208192
0.0269064
0.00686288
0.0575549
-0.065113
-0.0938737
0.0366915
-0.0181209
0.0075828
-0.0536724
-0.00645757
-0.0518766
0.0564678
-0.107728
0.0111423
0.225693
-0.15276
-0.0824937
-0.382938
-0.0974882
-0.186459
0.0267775
-0.0861893
0.115796
0.00650786
-0.0268162
-0.308974
-0.408915
-0.119116
0.321263
0.0274204
-0.090122
-0.0165157
0.482337
-0.0452419
0.023715
-0.0707172
-0.163109
0.00784407
-0.0779427
-0.0958953
0.0735545
-0.302103
-0.423233
-0.285448
0.074313
-0.0179497
-0.105365
0.00577207
-0.072276
-0.163004
-0.312147
-0.0236532
-0.0522056
0.0065589
0.0559214
-0.0933483
0.0331735
-0.142995
-0.16215
-0.0231973
-0.16592
-0.0202013
0.00110536
0.0233741
-0.0879918
-0.141159
0.0111748
0.407621
-0.248102
-0.0729267
-0.0848434
-0.161446
-0.127766
-0.235207
0.0325936
0.00478023
-0.153334
0.249301
0.0203367
-0.363657
0.0210657
-0.219225
-0.0975051
-0.205323
-0.0894835
-0.120344
0.0228467
-0.122763
-0.0890715
-0.14772
-0.0805935
0.48017
0.0323614
-0.129046
-0.0408226
0.402033
-0.40726
0.0178356
0.00689796
-0.0238868
-0.0931023
-0.0899162
0.025552
0.174133
-0.415797
-0.00190485
-0.101299
-0.0792219
0.0135565
0.504133
-0.212466
0.0464625
0.0212532
0.0150717
0.507814
0.0268785
-0.089724
-0.403288
-0.385462
-0.00100764
-0.37494
-0.17814
-0.3958
-0.282155
-0.329104
-0.160153
-0.101188
-0.0101791
0.00757063
-0.153417
-0.00541711
0.0745649
-0.0851291
-0.0104911
-0.170186
0.516135
0.0516626
-0.341567
0.0108629
0.278293
-0.0873061
-0.0182096
-0.0841995
0.0468516
0.0315883
-0.00979068
-0.00586888
-0.0340135
-0.115874
-0.390825
0.125584
-0.403285
0.0745482
-0.0158758
0.518624
-0.082057
0.0544633
0.0797276
0.140867
0.486147
-0.131765
0.0329286
-0.0640823
0.0535901
-0.00902501
-0.138287
0.0263445
-0.177942
0.0259316
-0.0778535
-0.114892
-0.000474168
-0.125126
-0.129067
-0.187952
-0.0941296
-0.0594384
0.0347726
0.0245193
-0.0394923
-0.0226232
-0.319123
-0.273685
0.00801748
0.00778982
-0.230646
0.0181523
-0.137194
0.0263901
0.0039122
-0.354787
-0.00312856
-0.065672
0.0108315
0.00513457
0.0414197
-0.00447316
0.0497267
0.00849072
-0.361283
-0.0835108
-0.0317435
0.000667269
0.294399
-0.0913931
0.0600497
-0.15993
0.303844
0.251451
0.267123
-0.00126978
-0.282034
-0.328018
-0.224558
-0.00358015
0.108879
0.0494037
-0.0823108
-0.243015
-0.00232494
-0.153878
0.197347
0.0582024
-0.267615
-0.0979857
-0.0805465
-0.41174
0.151325
0.0523509
-0.111352
0.0110182
0.0214598
-0.0769987
-0.0295634
-0.0148018
0.00325294
-0.107018
-0.0139551
-0.081751
-0.0536165
0.456779
0.0778807
-0.15357
-0.0533164
-0.180429
-0.297056
0.0215389
-0.208305
0.0156774
0.167606
0.00448818
-0.0905638
-0.0532717
-0.00239272
-0.0250874
-0.000105191
-0.105324
0.00332276
-0.262579
-0.337805
-0.0710509
-0.352208
0.048171
-0.0443583
-0.0382917
0.0450867
0.0390304
-0.135354
-0.0412039
-0.289341
0.0328033
-0.12481
-0.287042
-0.379523
0.171091
-0.0995392
-0.422749
-0.296331
0.0168421
-0.0176388
-0.226266
0.0011665
-0.0336065
0.240065
-0.0179591
0.096092
0.0461827
0.049457
-0.0268342
0.0422665
-0.0114324
-0.101463
-0.323288
-0.143462
-0.143044
-0.00661051
-0.263625
-0.418994
-0.412909
-0.361581
-0.0988911
-0.0864424
0.0515745
-0.0940773
0.0244954
-0.0218299
-0.281469
0.0215481
-0.00921999
-0.0714739
-0.00429858
-0.109809
-0.373736
-0.0600675
0.00949947
0.00649595
0.048526
-0.107241
-0.0296482
-0.102936
0.0995246
-0.396938
0.0229559
0.241616
-0.00894824
-0.075451
-0.0408699
0.136481
0.00714121
0.088334
-0.389412
0.0102236
0.382235
-0.17183
-0.379403
-0.0983101
-0.0998569
-0.12749
-0.171665
-0.127267
-0.290761
-0.421482
-0.0814242
-0.319513
0.00220728
-0.101487
-0.16015
-0.347393
-0.198158
0.0292845
-0.00603712
0.211554
-0.205377
0.0117111
-0.04288
-0.118764
0.0505063
0.0218853
0.0549763
-0.109817
-0.0236086
-0.0117333
0.458302
-0.390011
0.0263617
-0.0779644
0.377589
-0.0105024
-0.0864981
0.285594
0.0727632
0.476078
-0.369399
0.208353
-0.301129
-0.0831392
-0.235571
-0.379734
0.0250356
-0.0100888
-0.273786
-0.0892847
0.00616563
-0.144376
-0.0188726
0.00882342
-0.0140835
0.00709194
0.0240199
0.0124052
-0.11676
-0.0639143
-0.247893
0.12163
-0.00413102
0.431397
-0.0831533
-0.106698
-0.0769241
-0.310011
-0.0222173
-0.373514
-0.00893217
-0.102371
-0.219922
-0.0999224
-0.0906603
-0.420463
-0.106452
0.0848377
0.204752
0.0577403
0.0260378
0.460161
-0.0869125
-0.0881921
-0.0155922
0.0041823
0.0838895
-0.376191
0.29494
0.109983
-0.136936
-0.285892
0.119183
-0.411818
-0.0828225
-0.0129409
0.0246658
-0.402652
-0.174668
-0.355693
0.082583
0.0345718
0.00872061
-0.156942
0.126686
0.0392721
-0.237734
-0.17485
-0.0418423
-0.202836
-0.300848
-0.0433119
-0.282746
-0.0122539
0.00108093
0.19136
-0.00136851
-0.095858
0.022088
0.0222206
-0.0860026
0.0121717
-0.0758411
-0.152049
-0.0265991
-0.0105838
0.0105639
0.10088
-0.275095
-0.139313
0.488546
-0.116443
-0.252829
-0.129115
-0.154482
-0.00462712
-0.113607
-0.000873503
0.0508027
-0.128307
0.0217987
-0.0862709
-0.176918
0.00732015
-0.0917932
-0.378082
0.0990896
-0.396521
0.0473749
-0.390283
-0.288212
-0.0114453
0.0550724
0.340909
0.0355735
-0.297205
-0.333622
0.0545011
0.128185
-0.0722131
-0.0872608
0.00703765
-0.146238
-0.423258
0.0200836
-0.128436
-0.0853692
-0.0806924
0.00275891
-0.420883
0.00936705
-0.0901016
0.184873
0.0356485
-0.118158
0.0412315
-0.135069
0.0736706
-0.112709
0.0707208
-0.143551
-0.158058
0.129094
-0.28124
-0.0793955
-0.431151
-0.0968811
-0.0934165
0.0260242
-0.0775881
0.0368234
0.0074061
0.00175511
0.00550505
0.0313064
-0.428601
-0.00512448
-0.17606
0.00627449
-0.212904
-0.0114722
0.0338728
-0.00328767
-0.0407273
-0.324123
-0.129183
-0.183325
0.0243408
-0.354177
-0.174589
-0.0232988
0.00241657
0.0224121
-0.103902
-0.198132
-0.0882521
0.0085823
-0.155349
0.000809944
-0.176242
-0.0738212
-0.420075
0.170081
0.0301515
-0.00110972
-0.106176
-0.0915457
0.0965964
-0.114922
0.0194218
-0.202274
-0.0174509
-0.330699
-0.177677
0.0119996
-0.0901371
0.0223374
0.012679
-0.00519502
-0.0247602
-0.213107
-0.239323
-0.384491
-0.373685
-0.0571016
-0.127032
-0.115316
-0.239671
-0.0202282
0.0258503
-0.238961
-0.127051
0.321745
-0.0597908
-0.107361
-0.0853308
-0.119476
0.424146
0.00891209
0.0695697
-0.268972
-0.152007
0.105938
-0.409807
0.0234129
-0.0206097
-0.0412945
0.141578
0.114555
-0.140304
-1.0978e-05
0.00717302
-0.00835667
-0.0937801
-0.0170237
-0.260355
0.00759437
-0.0843736
-0.0667873
0.00741691
-0.138761
0.00645067
-0.0268208
0.0578843
-0.133534
-0.173043
-0.308869
-0.190155
-0.0128065
-0.00553008
-0.0771611
-0.400601
-0.0870955
0.0903787
-0.0846879
-0.141967
-0.334409
0.0565824
-0.36334
0.474921
-0.0953019
-0.0863046
-0.0788989
0.00883433
-0.113574
0.0478129
-0.102462
-0.0663972
-0.0369527
-0.0127811
-0.0660324
-0.328085
-0.29459
0.00453238
-0.32449
-0.16226
-0.187767
0.367588
0.101629
-0.100537
0.267221
-0.0130058
-0.00979071
0.514986
-0.345954
-0.167616
-0.408496
-0.310885
-0.0917201
-0.368108
-0.370024
0.00119242
-0.41549
0.170132
0.00998682
-0.0692683
-0.0424065
-0.125664
0.0222938
0.0379939
-0.26966
-0.190616
0.0151091
-0.0969796
-0.156108
-0.0793888
0.0963032
-0.114588
0.0105825
0.00676291
-0.209996
-0.0836207
0.000224698
-0.145645
-0.00413478
-0.0174499
-0.425494
0.0205985
-0.177566
-0.0156406
-0.284672
-0.0840929
-0.00855859
0.166595
-0.313489
-0.00180111
-0.0823707
0.0219017
-0.281778
0.000180348
-0.124591
0.216647
-0.213471
0.0139951
-0.290939
-0.277108
-0.00776397
0.047768
-0.00379752
-0.00331634
-0.0872233
-0.135746
-0.0952441
-0.390313
-0.202181
0.0163554
-0.137304
0.131334
-0.00714847
-0.0226273
-0.0745185
-0.0829132
-0.208845
-0.1315
-0.0862641
-0.235932
-0.00528673
-0.0200417
-0.0378006
-0.30358
-0.0115554
-0.0822661
-0.0922297
-0.105885
0.018537
-0.0867413
0.0112783
-0.305121
-0.245483
0.0115287
0.0518508
0.0838712
-0.0847094
-0.000914808
-0.300527
-0.0165136
-0.324478
-0.00375158
-0.241124
-0.0620034
0.167035
-0.104466
-0.0175945
0.324441
0.0261455
-0.00294774
-0.0892401
-0.0906365
-0.258377
-0.0095807
0.05992
0.0132626
-0.0825998
-0.0234011
0.222549
-0.0423828
-0.0478201
-0.0086858
-0.0852798
0.0915882
-0.319916
-0.302828
-0.364463
0.101498
-0.00995494
0.00702939
-0.0853205
-0.0976608
0.000437411
-0.0204804
-0.148981
-0.167523
-0.0876075
-0.124695
0.0991288
-0.0240011
-0.228762
-0.0442995
0.00850976
-0.392556
-0.00918452
-0.181008
0.190871
0.467679
-0.0153557
-0.216102
-0.411016
0.11042
-0.420164
-0.227833
-0.0937024
-0.0753442
-0.283623
-0.0228567
-0.379158
0.0353389
-0.0942152
-0.0460471
0.0303391
-0.00408622
0.00797461
-0.42098
-0.147264
0.0310732
-0.0938948
-0.0806733
-0.0142778
-0.153961
-0.0895899
-0.104279
-0.156138
0.0404115
-0.370781
-0.0994986
-0.0477228
-0.00909255
-0.0781356
0.331079
-0.409802
-0.0598063
-0.273045
0.0595223
-0.10931
0.329898
0.00639718
-0.082687
-0.00320263
0.00817512
-0.0364293
-0.0775904
-0.416101
0.0510413
0.0142078
-0.395678
0.0206537
-0.0786673
0.00471521
0.504259
-0.0744473
-0.372228
0.0226523
0.0106533
-0.0312522
-0.132319
-0.104666
0.0672812
-0.00122431
-0.0840875
-0.091882
-0.15715
0.00251909
0.114434
-0.302964
0.0542129
0.00670895
-0.251502
-0.221407
0.0164433
-0.00931706
-0.285887
0.0393018
0.247708
-0.0487636
0.0400249
0.113039
0.0753857
-0.0120666
0.0440195
-0.0726821
0.187757
-0.0966722
-0.430887
0.00772812
0.00846031
-0.0808303
-0.0402408
0.0994164
0.0608811
0.0466826
-0.0832596
-0.0661597
-0.0154326
-0.196046
-0.00899343
0.0255029
-0.0914266
0.0321475
-0.104045
-0.0106617
-0.0871922
0.29449
-0.352544
0.210614
-0.0049517
-0.00221743
-0.208074
0.0110631
-0.208782
-0.0235534
0.0570462
-0.100911
0.00853528
0.0978728
-0.277631
-0.0921983
-0.289445
-0.00963811
0.0255691
0.474352
-0.414669
-0.0128753
0.0145577
-0.102678
-0.390674
-0.0221533
0.392392
-0.104483
-0.00244893
-0.139395
0.113462
0.0426882
0.00886223
0.0247246
0.0359617
-0.122442
-0.00173533
-0.0946118
-0.00047391
0.489604
-0.0787674
0.335522
-0.0930732
-0.130554
-0.026212
-0.322546
-0.0796756
-0.405526
0.0848916
-0.010659
0.0213972
-0.0246439
-0.289888
0.160159
-0.327549
-0.287609
0.0528779
-0.088908
0.262767
-0.0422478
-0.00352885
-0.0300529
-0.398354
0.350743
-0.0569186
0.0407894
-0.00927209
-0.0823566
0.121696
-0.0774796
0.0582601
0.0362893
0.010407
-0.00976991
-0.372392
-0.105245
-0.105446
-0.078855
-0.0269499
0.0126478
-0.393683
-0.0864681
0.186417
-0.107879
-0.0144066
-0.0936882
0.253008
0.0242832
0.0095278
-0.114277
-0.0858495
-0.321254
-0.0129237
-0.371112
0.040119
0.275376
0.00431909
0.369012
-0.391411
-0.413594
-0.130474
-0.401267
-0.285122
0.133403
-0.0879648
-0.00677481
0.479616
0.0509568
-0.0102923
0.000737943
-0.0806922
-0.138223
0.0439537
0.241671
0.0983928
-0.0147937
-0.0345705
-0.0404584
0.0248721
0.0386431
-0.00358208
0.000621914
0.0405856
-0.133801
-0.0801354
0.0453541
-0.0864642
0.207832
0.0827797
-0.181159
0.0502221
-0.172168
-0.0940513
-0.0935331
-0.0942057
0.284652
0.0618851
-0.0112809
-0.39658
-0.120734
0.0126733
-0.114872
0.03589
0.281248
0.0492435
-0.0981756
-0.0905812
-0.10326
-0.100816
0.0123031
-0.00533916
-0.418511
-0.136883
0.00232335
0.0379829
-0.0871403
0.0159634