/*--------------------------------*- C++ -*----------------------------------*\
| =========                 |                                                 |
| \\      /  F ield         | OpenFOAM: The Open Source CFD Toolbox           |
|  \\    /   O peration     | Version:  v2012                                 |
|   \\  /    A nd           | Website:  www.openfoam.com                      |
|    \\/     M anipulation  |                                                 |
\*---------------------------------------------------------------------------*/
FoamFile
{
    version     2.0;
    format      ascii;
    class       surfaceScalarField;
    location    "200";
    object      phi;
}
// * * * * * * * * * * * * * * * * * * * * * * * * * * * * * * * * * * * * * //

dimensions      [0 3 -1 0 0 0 0];
oriented        oriented;


internalField   nonuniform List<scalar> 
41211
(
-0.0760194
-0.0978258
0.173845
0.141174
0.275493
-0.164711
0.0957066
0.0690047
-0.212188
0.144278
0.0679096
0.0933106
-0.228463
0.135152
-0.0660971
-0.00905981
0.0751569
0.258885
-0.165574
-0.0573312
0.113297
-0.0559654
0.108601
0.182754
-0.291354
-0.0547647
0.0827269
-0.0279622
0.0446919
-0.0111421
-0.0335498
-0.000688693
0.0234809
-0.0227923
0.0266643
0.0867937
-0.113458
0.0047414
-0.033907
0.0291656
-0.0173129
0.00965505
0.00765783
-0.00584546
0.00635496
-0.000509502
-0.00043714
0.00111483
-0.000677692
0.315726
-0.207125
0.0372875
0.00740435
0.000268034
0.0406028
-0.0318262
-0.00877665
-0.00894163
-0.00837125
0.228311
-0.373954
0.145642
0.118845
-0.0369631
-0.0818819
0.0497696
0.0249415
-0.0747111
0.107436
-0.0401509
-0.0672852
0.392287
-0.236983
-0.155304
-0.142873
0.159659
-0.0167862
-0.523705
0.31105
0.212655
-0.00861856
0.00248677
0.00613179
0.0928579
0.0259872
-0.0669604
0.114283
-0.0473225
-0.167324
0.0913048
-0.38481
0.291127
0.0936832
-0.265881
-0.071279
0.33716
0.0107597
-0.0107597
0.000385057
-0.0110141
-0.342305
0.218108
0.124197
0.323354
-0.21423
-0.109124
-2.6347e-05
-0.00726062
0.0262639
-0.0269526
0.147124
-0.413005
-0.208639
0.149813
0.0588254
0.480256
-0.300408
-0.179848
-0.099963
-0.0156299
0.115593
0.00382105
-0.00376063
0.166495
0.141987
-0.308482
-0.00067217
-0.00502693
0.0056991
0.0101099
-0.0101099
-0.0253923
0.0126466
0.0127457
-0.00500166
0.0185675
-0.0135659
0.049723
0.0577131
0.00388463
0.00296255
-0.00684718
-0.0342858
0.00612757
0.0281582
0.12589
0.123599
-0.24949
0.246567
-0.446882
0.200315
-0.0876739
0.0847298
0.00294409
0.173264
0.10777
-0.281034
0.0774709
-0.130119
0.0526478
-0.105641
0.044701
0.06094
-0.0093344
0.0118903
-0.13039
0.0164776
0.113912
-0.00698263
-0.112827
0.11981
0.357435
-0.377138
0.0197034
0.409715
-0.144905
-0.26481
-0.289298
0.0956487
0.193649
-0.052649
0.0323561
0.0202929
-0.0787512
-0.00892274
-0.084294
-0.021347
0.13249
0.104032
-0.236522
0.167282
0.312974
0.00916634
0.0058158
-0.0149821
0.0215215
-0.0177162
-0.00380525
0.101464
-0.0535541
-0.0479096
0.0053698
0.108802
-0.114172
-0.227163
0.0759719
0.151192
-0.0356183
-0.0170307
0.0112555
-0.00225703
-0.00899849
0.00465774
-0.00469938
-0.00788597
0.00788597
-0.282217
-0.241488
0.172731
0.186554
-0.359285
-0.0880408
0.050514
0.0375268
-0.189857
0.0954483
0.0944092
-0.137225
0.237099
-0.099874
-0.143842
0.162305
-0.0184628
-0.179281
0.411349
-0.232067
-0.00367933
0.0110647
-0.00738535
-0.0105755
0.000641928
-0.241008
0.154244
0.0867632
-0.276717
0.00812366
0.268593
-0.00522449
0.00611393
0.139635
-0.312924
0.17329
-0.00861856
-0.0194138
0.0122443
0.00716952
0.0573983
-0.146395
0.0889965
-0.156244
0.328975
0.171249
-0.105415
-0.0658342
0.163429
0.111977
-0.275406
-0.0329137
0.0675023
-0.0345886
0.190652
0.132702
0.305593
-0.210907
-0.0946861
-0.0206783
0.0381891
-0.0175108
0.00162216
-0.0109566
0.0164155
0.00510599
0.114287
-0.12127
0.157192
-0.251779
0.0945877
0.109307
0.261733
-0.135843
0.0145291
-0.114492
0.000677871
-0.00652333
-0.308325
0.0316087
-0.241133
-0.143677
0.141844
0.137684
-0.279528
-0.0718793
0.229071
0.0121244
0.355948
-0.368072
0.121298
-0.145107
0.0238094
-0.0286094
-0.0202677
0.0488771
-0.00442537
-0.00182206
0.00624743
-0.0393376
0.0891072
-8.54011e-05
0.000563413
0.113718
-0.0690167
-0.00264474
-0.00114235
0.00378709
-0.0400724
0.011463
0.0220139
-0.0146301
-0.00738382
-0.0164865
0.049087
-0.0326005
0.114075
-0.199671
0.0855957
-0.222781
0.110844
0.111937
0.00340502
0.00442641
-0.00783143
-0.212655
0.376966
-0.16431
0.0293798
-0.0958178
0.066438
-0.116362
0.0042133
0.112149
-0.185778
0.192481
-0.0067028
-0.00809965
0.0088448
-0.000745154
-0.000876568
-0.000144533
0.0010211
-0.0909113
0.207019
-0.116108
0.0155294
0.0324088
-0.0479382
-0.0230538
0.0277952
0.199456
0.104567
-0.304023
-0.0784408
-0.107337
-0.000326828
-0.0335802
0.0190543
-0.073819
-0.0909446
0.0387861
0.0521585
0.0427375
-0.0940285
0.051291
-0.186643
-0.155662
0.0116031
-0.00499997
-0.00660311
-0.0979826
0.0272902
0.0706924
0.0564463
-0.144711
0.0882645
-0.270469
0.266819
0.00365003
-0.0741957
0.041282
-0.111544
0.0668196
0.044724
-0.0792276
0.0564872
0.0227405
-0.122809
-0.0858294
0.00203625
-0.00400546
0.00196921
0.247471
-0.455131
0.207659
-0.00358402
0.00509116
-0.00150715
-0.251898
0.160986
-0.0562611
0.113659
0.0530694
-0.252924
0.199855
-0.379962
0.0220601
0.357902
0.369559
-0.179049
-0.110249
0.0115232
-0.0167366
0.00521345
-0.200279
-0.150888
0.351167
0.254536
-0.438539
0.184003
-0.216127
-0.198097
0.414223
0.0131444
-0.0213706
0.00822622
-0.312192
0.112031
0.200161
0.137554
-0.215995
0.105002
0.0777333
-0.182735
-0.0880206
0.0270077
0.0610129
-0.00187251
0.00148363
0.000388889
0.000808876
-0.00112891
0.000320036
-0.0621006
0.0319096
0.0301909
0.346593
-0.193247
-0.153345
-0.0313354
0.0855816
-0.0542462
-0.00130591
-0.00658006
0.0191603
-0.0451124
0.0259521
-0.0237934
0.379741
-0.127694
-0.124086
-0.0312162
0.0623502
-0.031134
0.0212482
-0.0110562
-0.010192
0.0112048
-0.011031
-0.000173809
0.0157009
0.0151304
-0.0308313
0.380787
-0.201427
-0.17936
0.00884911
-0.0271574
0.0183083
-0.00196477
0.00639623
-0.00443146
0.0310229
-0.0123552
-0.0186677
0.0406651
-0.0766178
0.0359527
-0.00279093
0.00177971
0.00101122
-0.0114603
0.00772234
0.00373794
0.230752
0.185914
-0.0730894
0.144512
-0.0714224
-0.0895331
0.0441377
0.0453954
-0.195557
0.339328
-0.143771
-0.0662403
-0.0129873
-0.00358402
-0.0321614
0.038479
-0.00631759
-0.0496386
-0.0398946
0.03983
0.0107514
-0.0505814
0.0307218
-0.0782139
0.047492
0.00530639
-0.385269
0.0764853
0.0944276
-0.170913
-0.0220042
0.143302
-0.00663176
-0.00482851
0.115211
-0.0154016
-0.0998097
-0.253028
-0.0591635
-0.205789
0.286998
-0.0812096
0.00770671
-0.00138347
-0.00632324
0.166708
0.10235
-0.269058
-0.00229161
-0.268178
0.0210529
-0.0481474
0.0270946
-0.119996
-0.092192
0.00860002
0.000291921
-0.00889194
0.301032
-0.247963
0.209052
0.183235
0.104133
-0.0747532
-0.174112
0.0428698
0.131242
-0.192822
-0.0860564
0.278878
-0.191402
0.422154
-0.00626937
-0.142725
0.281143
-0.138418
0.156942
-0.235253
0.0783114
-0.0473881
0.0835246
-0.0361365
0.0726512
-0.165632
0.0929808
-0.0894013
0.0218837
0.0675176
-0.179399
-0.00210376
0.181503
0.139535
-0.0830886
0.148018
0.170013
-0.318031
0.186373
-0.113722
0.121961
0.157037
-0.278998
0.0130898
-0.120558
0.107468
0.0747876
-0.0752861
0.000498513
0.199485
-0.36767
0.168185
0.225265
-0.0076211
0.00849863
-0.000877539
-0.0193776
0.034907
-0.0677608
0.0525346
0.0152262
0.209239
-0.0951642
-0.0184127
0.0298441
-0.0114314
0.00223053
0.00017555
-0.00240608
-0.0012217
0.00693637
-0.00571468
0.0140057
0.00724257
-0.0136696
0.0159511
-0.00228146
0.0432889
-0.0393091
-0.00397985
-0.230676
0.127883
0.102793
-0.386222
0.243569
0.142653
0.00416188
-0.00483405
0.127863
0.354411
-0.107844
0.0701778
-0.0883544
0.0181766
0.396763
-0.148035
-0.248728
-0.0535694
-0.0133583
0.0669277
0.185792
-0.0386387
-0.147153
-0.00880824
0.00512891
0.0167002
-0.0142127
-0.00248748
0.190678
-0.0874075
-0.103271
0.0764115
-0.0817754
0.0053639
-0.108725
-0.115948
0.224673
-0.10234
0.10771
0.208694
0.188859
-0.397552
-0.000105788
0.0037151
-0.00360931
0.0031966
-0.00762197
-0.0438904
0.0845555
0.127118
0.117316
-0.244434
-0.301433
0.194711
0.106721
-0.0655875
0.170602
-0.00929003
0.0181391
0.00303061
-0.10212
0.0351593
0.00201538
0.00711014
-0.00912552
-0.0846246
-0.0704877
0.155112
0.0342285
0.00906042
-0.208395
0.378127
-0.169732
0.301654
0.0951083
0.346609
-0.12761
0.011248
-0.323511
0.0247159
0.298795
-0.0706661
0.235578
-0.164912
0.0123852
0.00356584
0.187607
-0.103207
-0.0844001
-0.11816
0.106038
0.0121216
0.0446885
0.00827518
-0.0529637
0.0600734
0.0413903
-0.00307339
0.00110862
-0.186723
0.213207
-0.0264834
-0.0300272
0.0491876
-0.205395
-0.133786
0.339181
-0.0601729
0.0916956
-0.0315227
0.00505272
-0.00301647
0.0337256
-0.0750398
0.0413142
-0.00914179
0.00017601
0.00896578
-0.00579056
0.00312542
0.00266514
-0.0272792
0.10475
0.326703
-0.178685
0.272774
-0.124348
-0.148426
0.120009
0.0675978
-0.000876568
-0.00175046
0.00494853
0.0563864
-0.00780577
-0.0882942
-0.0109835
0.0992777
-0.0246508
0.0142141
0.0104367
-0.037781
-0.00608628
0.0438673
0.000300918
0.00291023
-0.00321114
0.0342154
-0.357726
0.0517546
0.0454734
-0.097228
-0.0988647
0.231355
0.000930175
0.00116252
-0.00209269
-0.32154
0.0972134
0.224327
-0.0135696
0.0220656
-0.00849602
0.0940757
-0.0796587
-0.014417
-0.00556639
0.00591145
-0.00034506
0.298537
-0.125272
-0.0017958
0.0103958
0.0147151
-0.0113101
-0.0411759
0.101997
-0.0608207
0.248528
-0.476109
0.227581
-0.021981
-0.120892
0.00862929
-4.81225e-06
-0.00862448
-0.238474
-0.0830657
-0.122092
0.120549
0.00154303
-0.0323764
0.0985056
-0.0661292
-0.0177295
-0.00692133
-0.00236503
0.000183932
0.0021811
0.304984
-0.165349
-0.0426173
-0.0454235
-0.00351099
0.0470878
-0.0435768
-0.0031991
0.0430291
-0.156578
0.365272
0.0318069
-0.016106
0.16001
0.195564
-0.355574
-0.355067
0.360373
-0.0852604
0.052884
-0.0610597
0.0298435
0.00911854
-0.188518
-0.294534
0.168585
0.125949
-0.126759
-0.114249
0.0307373
0.0633384
-0.186409
-0.0407548
0.12257
-0.264959
0.14239
0.0451558
0.033241
-0.0783967
-0.12254
0.236975
-0.114435
0.0764786
-0.042753
0.00112372
0.00450936
-0.00563307
0.00147289
0.00928677
-0.160613
-0.0106749
0.171288
0.297436
-0.165667
-0.131768
-0.0962309
-0.134445
-0.198598
0.354179
-0.155581
0.016176
-0.025466
-0.00188903
-0.0252684
-0.199954
0.369801
-0.169846
0.0808643
-0.00445276
-0.138842
-0.094968
0.23381
-0.123131
0.289839
-0.0396848
0.144686
-0.0851215
0.238203
-0.153082
-0.00234911
0.0025798
-0.361442
0.409543
-0.048101
-0.0210516
-0.0683497
-0.0501429
0.0862714
-0.0361285
-0.0126585
0.00765679
-0.222757
-0.145141
0.367898
0.124555
-0.265573
0.141018
0.299369
-0.174814
0.00522387
-0.00644556
-0.393387
0.187992
0.0529559
-0.0598553
0.00689932
0.168567
0.158137
0.00243417
0.0723534
0.0302248
0.0604266
-0.0906514
-0.00882278
0.000723133
0.0876477
-0.209932
0.122284
0.0443083
0.141484
0.182916
0.0422884
-0.225204
0.0814796
-0.0507578
-0.151412
-0.148821
0.300233
0.0255567
-0.0751901
0.0496335
-0.124353
0.108477
0.0158757
-0.0129926
-0.08499
0.0765868
-0.431654
-0.0296373
0.186579
0.415385
-0.19012
-0.158065
-0.0972641
0.255329
0.00846325
-0.00245257
0.0535424
-0.0183126
-0.0352298
-0.0433927
-0.0622838
0.105676
0.000430861
0.0089491
-0.00937997
-0.0233348
-0.00020218
0.023537
0.321683
-0.18175
-0.139934
0.0789634
-0.0489757
-0.0299878
-0.126865
-0.063326
0.190191
-0.0986045
0.257334
-0.158729
-0.0425861
-0.0251748
-0.21192
0.123799
0.0881214
0.334594
0.0601563
-0.39475
0.0175647
-0.0105972
-0.00696751
0.0141997
-0.0802968
-0.00580292
-0.00194625
0.00774917
-0.103627
0.112593
-0.00896617
0.00951596
-0.023144
0.013628
0.225191
-0.438454
0.213263
-0.377689
0.222078
0.155611
-0.0991227
0.012653
0.0864697
-0.00637317
0.000806786
-0.254554
0.288769
0.0643344
0.0604941
-0.124828
-0.0629374
0.114692
0.117379
-0.222869
0.10549
-0.250834
0.180168
0.111954
0.00489541
-0.11685
0.0397024
-0.0552171
0.0155147
-0.00495514
0.0381216
-0.0626112
0.0244896
-0.00827334
0.0892814
0.212373
0.0147769
-0.00325374
0.188058
0.117536
0.0442566
0.0384703
-0.0568527
-0.106457
0.163309
0.00537031
-0.00424659
0.172523
0.244144
0.116159
0.052128
-0.15901
0.106882
0.149772
-0.260583
0.110811
-0.0736146
-0.0379289
0.104705
0.216979
0.077131
-0.269953
0.00390695
0.0382722
-0.0421792
-0.0353596
0.234815
-0.240047
0.142588
0.0974596
-0.0907971
0.0434089
0.033734
-0.0618853
0.0281513
-0.0139677
0.122884
-0.108916
0.00494829
-0.00708469
0.0021364
0.0371514
0.0761452
0.008086
-0.0306063
0.0225203
-0.0237526
0.0939304
-0.25615
0.157546
0.0771472
0.00875772
-0.0859049
-0.000879415
-0.000993099
-0.0911584
-0.106303
0.197462
-0.286786
0.135374
0.132604
-0.02065
-0.193072
0.00634934
0.0556578
0.000516367
-0.0561742
-0.23464
0.00821202
0.226428
0.263805
0.349124
-0.259843
-0.00151793
0.00628561
-0.00476768
-0.0111782
-0.0199645
-0.214675
-0.260543
0.357809
-0.0972659
0.0324307
-0.0229148
0.28759
0.0934328
-0.381023
0.0571878
-0.0457421
-0.0114457
0.356654
-0.234903
0.0976783
0.0732649
-0.233878
-0.0739032
0.00826616
0.0656371
-0.138925
0.236562
-0.0976364
0.346857
-0.178291
0.0448388
-0.00421552
-0.0406233
-0.129812
-0.161331
0.291144
-0.126197
0.00530281
0.120895
-0.00467441
0.00285235
0.0254446
0.0311899
0.293743
-0.324932
-0.00179548
-0.0176464
0.0623349
-0.0245694
0.0326554
0.00260846
0.000449673
-0.0307023
0.0302526
-0.0812134
-0.108644
-0.122172
0.0658814
0.0562907
0.367467
-0.39126
-0.0212209
0.0628743
-0.0416535
0.112633
-0.367187
-0.0719499
0.0490293
0.0229205
0.260595
-0.102282
-0.158312
-0.181744
0.124891
-0.00705089
0.0012961
0.00575479
0.0130072
0.00175413
-0.0147613
0.133847
-0.39439
-0.241567
0.113873
0.0148876
0.0407702
-0.0264579
-0.147654
-0.071916
0.254832
0.126793
-0.254743
0.12795
0.00946174
-0.370904
-0.111216
0.0711911
0.0400248
-0.0580198
-0.100328
0.158348
0.00404273
-0.0224554
0.0301462
-0.0595411
0.0293949
0.225398
-0.41662
0.191222
-0.0853921
0.0459753
0.0394168
-0.00288906
-0.00613504
0.0090241
0.101245
-0.0369107
0.0989595
0.148999
-0.247958
0.206209
-0.428967
-0.404381
0.225099
0.0659377
-0.0509801
-0.0149576
-0.0833952
0.0520597
0.0751966
-0.118144
0.0429475
-0.0013617
0.00999099
0.016212
0.0186357
-0.0348477
-0.0452171
-0.174913
0.22013
0.00802089
-0.00953882
-0.186925
-0.130507
0.317432
0.0055261
-0.0373875
0.0318614
0.106143
-0.0794785
0.280002
-0.153209
-0.00664637
0.118802
-0.112156
0.297969
-0.201096
-0.0968739
-0.105402
0.000758188
-0.00590629
0.00753091
-0.00723899
-0.0779595
0.0982309
-0.0202714
0.0024192
0.00713758
-0.00955678
0.0134563
0.0179971
-0.0314534
-0.0510612
-0.245609
0.276799
0.101693
-0.347302
-0.00711492
0.0113082
-0.00419325
0.0200789
-0.0751017
0.0550227
-0.155601
-0.25886
0.414461
0.0143562
0.0980607
-0.112417
0.0977095
0.0262597
-0.123969
0.0103924
-0.0103924
0.0721328
-0.122953
0.0508205
-0.00337061
0.000725865
-0.115224
0.0372645
0.0995219
-0.208247
-0.0270515
0.0275012
-0.212218
0.167001
-0.143508
-0.152293
0.295801
0.120134
0.00434094
-0.124475
0.0558146
-0.0446382
-0.0111763
0.344226
-0.157672
-0.00142488
-0.120201
-0.00415158
0.0119291
-0.0176257
0.00569655
-0.0478716
0.0313851
0.00349785
-0.00389026
0.000392415
0.051519
-0.264175
0.0077189
0.286024
-0.00869198
0.116959
-0.00174778
0.166526
0.149777
-0.316303
-0.102336
0.106026
-0.00368944
-0.100717
-0.111203
-0.276061
0.246644
0.0294169
0.275274
-0.0892576
-0.186016
-0.00675019
0.00755041
-0.000800218
0.0981507
-0.116168
0.018017
0.00336813
-0.0772714
-0.0186686
0.058371
-0.0192681
0.0162406
0.00302749
0.158903
0.138533
0.0141542
-0.00498785
0.0781808
-0.0581019
0.141832
-0.26399
0.122158
-0.0334701
0.0331433
0.00145097
-0.000954673
-0.236625
0.428709
-0.192084
-0.227627
0.153542
0.0740853
0.370421
-0.196873
-0.173547
0.0319353
-0.0157233
-0.162423
-0.0930769
0.2555
0.406658
-0.0391914
0.304835
-0.0765239
-0.104707
0.231824
0.0629967
-0.0100408
-0.0943991
-0.219045
0.313444
0.00860797
-0.00659259
-0.139574
0.0376498
0.101924
0.277684
-0.121031
-0.156654
0.0549374
-0.0983301
0.104495
-0.00634401
0.001767
0.0022168
-0.00398379
0.000282916
0.000647259
0.00842648
-0.00742053
0.12987
-0.268795
-0.148233
0.371843
-0.22361
-0.172201
0.397599
0.00219766
-0.00459571
0.00239805
-0.199518
-0.198271
0.397789
-0.00140839
0.00170931
-0.0589294
0.0731291
-0.0320458
0.0650698
-0.033024
0.0108889
-0.00137212
-0.00951675
-0.00694338
0.00702508
-8.17044e-05
-0.217008
0.0799997
0.137009
-0.119383
-0.135163
0.254547
0.00490121
-0.00684746
0.10537
-0.0750166
-0.0303538
-0.20036
0.380887
-0.180527
-0.394688
0.0110474
0.383641
-0.0418364
0.0159589
0.0258775
-0.021876
-0.050471
0.072347
-0.00105025
0.0458891
-0.0114178
0.0057119
0.00570586
-0.0345105
0.010979
-0.111006
-0.0583699
0.169376
0.00971034
0.0109227
-0.020633
0.00770671
0.43088
-0.429455
-0.00142512
-0.000140782
-0.00372616
0.00386694
-0.00155133
0.0145585
0.00505422
-0.103705
0.0986503
0.00916577
-0.0173677
0.0387064
-0.0213387
0.0233087
0.0968249
-0.000552545
-0.067731
0.0682836
0.138067
-0.275085
0.137018
0.050837
-0.00554943
-0.0452875
-0.163837
-0.159492
0.323329
0.195844
-0.137005
-0.0588387
-0.0217966
-0.0531643
0.074961
-0.0630593
0.0204733
-0.0333447
0.0634909
0.0732195
0.032151
0.00103361
0.00181893
-0.00285254
0.112018
-0.203176
-0.00903038
0.00746023
-0.20255
-0.209154
0.411704
0.081227
-0.175625
0.0943977
0.119182
-0.00513314
-0.0269518
0.0320849
-0.316306
0.190397
0.125909
-0.037458
-0.0344919
0.356908
-0.10838
-0.109746
-0.0164516
0.0350726
-0.0671184
0.150212
0.19638
-0.278942
0.155872
0.12307
-0.0888385
-0.0469182
0.135757
-0.00136203
0.026518
-0.025156
-0.125731
0.0156779
0.110053
0.0526882
-0.0772499
0.0245617
-0.168481
0.0612896
0.107191
0.0335455
-0.0200891
0.064419
-0.0262974
0.0542377
0.0247258
-0.023843
-0.252218
-0.0206299
0.070316
-0.0496862
-0.044878
0.0900337
-0.00099566
0.00538882
-0.00439317
-0.032954
-0.135527
-0.331813
0.175569
-0.00733897
0.0847822
-0.102622
0.01784
0.181981
0.0894767
-0.271457
-0.00892645
0.0186368
-0.223553
-0.17842
0.401974
0.0231482
0.0107823
-0.0339305
0.0419178
-0.0363917
-0.419643
0.219063
0.20058
0.298501
-0.160435
0.0552503
0.0146527
-0.069903
0.0431396
-0.0643605
0.156017
-0.136997
-0.0190204
0.179468
-0.0815604
-0.0979078
0.00447524
0.00678028
0.191832
-0.187419
0.106205
-0.00969777
0.00961218
0.115664
-0.149109
0.0334451
-0.102587
0.0614116
0.234112
0.063857
0.312805
-0.186674
-0.126132
-0.322489
0.200489
0.122
-0.000142198
0.000498374
-0.000356176
-0.0894154
0.164853
-0.075438
0.272803
0.116754
-0.389557
0.00500621
-0.000348476
0.253102
0.07433
-0.327432
0.0391665
-0.183662
-0.00339491
0.00516191
-0.183545
-0.184124
-0.0232964
0.00972682
0.134754
-0.00744757
-0.127307
0.092934
0.18234
-0.149457
0.076368
-0.175887
0.371254
-0.195366
-0.0100444
0.0109276
-0.00088322
-0.00345886
-0.00496659
0.00842545
0.0186845
0.0385033
-0.306484
-0.00844942
-0.00296834
-0.00775339
-0.00146916
0.00922255
-0.389373
0.213486
-0.000645481
-0.00407974
0.00472522
0.114049
-0.0626293
-0.0514199
-0.410185
0.0300968
0.380088
-0.353765
0.153485
-0.103151
-0.136897
0.113094
0.0429226
0.00997869
-0.00119698
-0.00878171
0.367763
-0.219521
-0.148242
-0.162494
-0.25715
-0.0313774
-0.0316819
-0.059776
0.0353929
0.0243831
0.347746
0.0105384
-0.00935138
-0.00118701
0.00808344
-0.00488684
-0.000294274
0.00443058
-0.00413631
0.126145
0.18666
0.208902
-0.121254
0.356458
-0.215284
-0.0695704
0.165019
-0.042953
0.100437
-0.0574844
-0.186764
-0.199457
0.0808237
-0.146376
0.0655523
0.00649988
-0.416685
-0.123561
-0.0993078
0.0732364
-0.163442
0.0902053
-0.050623
0.0351854
0.0154377
0.063338
-0.0383965
0.0350463
0.0382813
-0.0733276
0.0132748
0.0864579
-0.0997328
0.0478552
-0.0684851
0.0867824
0.0844667
-0.143003
-0.236351
-0.0167487
0.2531
-0.122974
-0.122158
0.245132
0.0369551
-0.061026
0.0240709
0.0191847
0.0316523
-0.0479468
0.0305791
-0.00347787
0.00248221
-0.00116789
0.0010271
0.167403
-0.00914316
0.00202824
0.195076
0.051066
-0.246142
0.189554
0.176329
-0.365883
0.0184077
-0.00658418
-0.0118236
-0.161882
0.334711
-0.172829
0.00989557
-0.00989557
0.0800782
-0.0475099
-0.0325682
0.010143
-0.010143
-0.00656106
0.0093185
-0.00275744
0.00341225
-0.00464175
0.00122949
0.196849
0.0535647
-0.250413
0.0389476
-0.0115326
-0.00609306
-0.119929
-0.0239127
0.00596062
-0.00105941
0.0369921
-0.00604909
-0.030943
-0.0474102
-0.233586
0.280996
-0.0213575
0.0202728
0.00108467
-0.0829098
0.246339
0.00376644
-0.00990148
0.00379741
-0.129071
-0.0879373
0.144389
-0.309688
0.165299
0.0146652
0.00740039
0.156656
0.191757
-0.348413
-0.223432
0.156414
0.0670181
-0.0308774
-0.0312232
0.0802604
-0.0360038
-0.00171986
0.00548854
-0.00376867
0.0538278
-0.0200939
-0.0297259
0.226575
0.0826422
0.113201
-0.0908389
-0.0605212
0.00745448
0.0530667
-0.25179
0.0154388
-0.00346513
0.0115277
-0.00806259
0.140606
-0.00585171
0.124845
-0.247385
-0.0106053
0.00285192
-0.00808681
0.00629102
-0.0988375
0.0656879
0.0331496
-0.156311
0.066896
-0.161173
-0.117769
0.281773
-0.0671647
-0.214609
-0.0278709
-0.0406949
0.0685658
-0.0929213
-0.0252384
-0.0120052
0.12937
-0.117364
-0.037071
-0.0463062
0.0833772
0.00809017
-0.0115553
0.0185306
0.0475419
-0.0660725
0.210774
0.205893
0.297041
-0.130545
-0.0994608
-0.00287558
-0.256822
-0.00702925
-0.0136864
0.0207157
-0.0321322
-0.0475265
0.0310229
-0.084698
-0.0800134
0.0111376
-0.302367
0.229505
0.072862
0.0105263
-0.0188758
0.00834949
0.0205965
-0.108891
0.00288105
-0.000683389
-0.029164
0.0732078
-0.0440438
-0.00239575
-0.0072382
0.00963395
-0.13347
0.00308002
0.141601
-0.124945
-0.0166555
0.00978406
-0.00736486
-0.12458
0.197845
-0.0244401
0.0230781
-0.0759356
0.0480647
0.151826
-0.0710027
-0.116796
0.0666093
0.0501868
-0.111236
0.097268
-0.00129818
0.000652694
0.106551
-0.0915687
-0.0149819
-0.381657
0.182139
-0.000321464
0.00218486
-0.00186339
0.356363
-0.0835597
0.305075
-0.157619
-0.147456
-0.0756456
0.0154727
0.00195009
0.00844228
-0.0736249
0.0517489
-0.00968138
0.00201562
0.00766577
-0.0454592
0.143169
0.488086
-0.256296
-0.23179
-0.00378761
0.0107708
-0.00698321
-0.0975666
0.0479281
-0.199029
-0.197422
0.396452
-0.0429734
-0.00764962
0.0616364
-0.108893
0.047257
-0.00172951
0.00276312
0.144272
0.156923
-0.041259
0.110862
-0.105808
-0.19055
-0.111817
0.0692105
-0.030357
-0.0388535
-0.0953104
0.290386
0.0637801
0.0274749
-0.091255
-0.00744937
0.00744455
0.011018
-0.0124382
0.00142019
-0.118369
0.111723
0.041152
0.209946
-0.0796383
-0.130308
-0.353828
0.191946
-0.142308
0.280759
-0.138451
-0.0565872
0.0748339
-0.0182467
-0.0475696
-0.049997
0.0296979
-0.178398
0.1487
-0.0844506
0.276477
-0.192026
-0.00969735
0.084894
-0.102811
-0.03269
0.135501
0.0152124
0.00335517
0.0755934
0.00155379
-0.0660346
0.0390179
0.0270167
-0.0274866
0.00415177
-0.00132806
-0.0122521
0.0135801
0.0973604
0.0890126
0.0171156
-0.00658931
0.00549017
-0.116542
0.129632
0.00632507
-0.00768677
0.259112
0.121026
-0.133031
0.0336288
-0.391038
0.222674
0.168363
0.0265813
-0.0443092
0.0177279
-0.039109
-4.71765e-05
0.000689766
-0.00064259
0.0723218
-0.099601
-0.00236051
-0.00268138
0.00504189
0.0507259
-0.143588
0.0928623
0.0152582
-0.0433576
0.0280994
0.168876
-0.405502
-0.00666087
-8.93189e-05
-0.0301743
0.119448
-0.0892742
-0.00983791
0.0920979
-0.078823
-0.29574
0.211289
0.0888819
-0.195185
0.177016
0.131789
-0.308805
0.0828891
-0.0650548
-0.0178344
0.0364235
0.0423788
-0.0788023
-0.114458
0.0140403
0.100417
-0.0847682
0.052636
0.0242771
0.147349
-0.0966235
0.0243933
-0.0745362
-0.0489712
0.0868649
-0.0378937
0.0591431
-0.0865632
0.02742
0.0356717
0.0397153
-0.075387
-0.0398309
-0.0823412
-0.0296257
-0.0546682
-0.00772141
0.0104447
-0.00272329
-0.0994936
0.25653
0.35342
-0.105948
0.0312223
0.0469585
-0.0157562
0.0795362
-0.0391262
-0.0195358
0.0586619
-0.0832696
0.0769228
0.00634686
0.214941
-0.387613
0.172672
-0.0339657
-0.0542483
0.088214
-0.146454
0.257368
-0.110914
0.136729
-0.147022
0.010293
0.0937249
0.39121
-0.136674
-0.386869
0.0633834
0.323486
0.0887344
-0.207099
0.118365
0.208646
0.196263
-0.404909
-0.142773
0.0373582
0.202141
-0.335629
0.133488
-0.0720208
-0.0189238
0.00537631
-0.00883517
0.000152406
-0.00294334
0.228097
-0.216489
-0.0116088
-0.0564709
-0.240718
0.297189
-0.00705089
0.114682
-0.253524
0.00431627
0.0804659
-0.314513
0.127588
-0.0196877
0.074938
-0.122215
0.0209108
0.101304
-0.000316609
-0.0022173
0.0025339
0.0363158
0.144384
0.100393
-0.199729
0.0993365
-0.0305171
0.073953
-0.0434359
0.106521
-0.121327
0.0148059
-0.394275
0.238674
-0.079446
0.0362045
0.0432415
0.486561
-0.211069
-0.0421121
-0.0379571
0.0800692
0.209862
0.137256
-0.347117
-0.0855775
-0.137855
-0.00179356
-0.0104585
0.0785367
-0.065565
-0.0129717
0.198852
-0.329358
0.0340025
0.0453842
-0.0793867
-0.103151
0.050906
0.0522451
-0.0699923
-0.0180283
0.0570388
0.0665326
-0.123571
0.0378078
-0.252038
-0.0107564
-0.122732
0.000639556
-0.00718871
0.00689444
0.140491
-0.25862
0.118129
0.0414702
0.0235245
-0.0649947
-0.126552
0.246377
-0.119825
-0.0621868
-0.324682
-0.125913
0.168783
-0.00277624
0.0173969
0.0232059
0.0265925
0.0519442
0.0126255
-0.01018
-0.00244549
-0.00808933
-0.000733452
-0.00579471
-0.00784053
0.0136352
0.340503
-0.141651
0.292815
-0.165236
-0.127578
-0.0733958
-0.0130929
0.0864887
0.00831965
-0.0053571
-0.014105
-0.0980407
0.112397
-0.115873
-0.126256
0.242129
0.179549
0.134641
-0.314189
-0.0048483
0.0129385
0.0919735
0.0024181
-0.0943916
-0.0197011
-0.0210876
0.0407887
0.102265
0.0328252
0.0280976
-0.0609228
-0.144259
-0.0886334
0.0565279
0.0321055
0.186067
0.184353
0.108165
-0.00164329
-0.017683
0.0591531
0.204771
-0.353003
0.336283
-0.160048
-0.176235
0.0862225
-0.0550002
-0.011837
0.153438
0.0953585
-0.0539311
0.203703
0.0458604
-0.101
0.05514
-0.00225038
0.0228201
-0.0205697
-0.103421
0.294073
0.0934805
-0.0476201
-0.0429923
0.0588186
-0.0158262
-0.0134338
0.00763908
0.102601
-0.0723761
0.052457
-0.0371987
0.00413373
0.0070711
0.15635
-0.0245892
-0.131761
-0.13753
0.242629
-0.105099
0.00274592
-0.0168482
0.0141023
-0.0359706
-0.0434073
0.0793779
0.189783
-0.160085
-0.00785105
0.00938361
-0.00153256
-0.00269946
0.00259367
0.0130527
-0.0120122
-0.00104044
0.0723353
-0.0366636
-0.0992398
0.0456857
0.0342679
0.0422107
-0.29238
0.235909
0.00731728
-0.00780478
0.000487501
0.000289036
-0.0130501
0.012761
0.0807221
0.0678691
-0.148591
0.0239889
0.0569131
-0.080902
-0.34061
0.153967
-0.223091
0.128123
0.0692505
-0.0986699
0.0294194
0.0892673
-0.213847
-0.0947519
0.195145
0.326615
0.0330189
-0.0659448
0.0329259
0.336595
-0.111404
-0.25581
0.2084
0.0971149
0.128622
-0.225737
0.0777039
0.0840244
-0.161728
-0.00214939
-0.00479398
-0.190189
0.148361
0.0418278
0.0406965
0.0393817
-0.229689
0.444825
-0.215135
0.0372241
0.0230697
-0.0602938
-0.00903314
0.0789057
-0.0698726
-0.275755
0.133447
0.0665851
-0.0480545
0.185006
0.151276
0.082939
-0.0543702
-0.0285688
0.00265408
-0.000819492
-0.00183459
-0.0435766
0.00133405
-0.00165066
0.0494036
-0.0864746
0.317998
-0.188546
-0.129452
0.128353
0.0623252
0.135833
0.0743104
-0.158935
-0.00668209
0.00165516
0.0544148
0.0284744
-0.000308882
0.0113269
-0.416372
0.200245
0.396555
-0.223478
-0.173077
-0.0866494
0.192442
-0.105793
-0.0800081
0.0327596
0.0472485
0.210325
0.121516
-0.331841
0.214552
0.167918
-0.38247
-0.153378
0.0505674
0.378667
0.0267383
-0.405405
0.0314754
0.038883
-0.0703584
0.00916448
-0.0449438
0.0357793
0.0735573
-0.272156
-0.216172
-0.173201
-0.115472
0.260191
-0.144719
0.013281
-0.000228287
-0.0679362
0.118244
-0.0503081
0.0615038
-0.283847
0.222343
0.0538663
0.0384581
-0.0923244
0.000780517
0.00932941
0.390063
0.0078238
-0.397887
0.316185
-0.108301
-0.207884
0.0172076
0.0182612
-0.0354688
-0.240208
0.301712
0.309673
-0.193624
-0.116049
0.0123805
-0.07131
-0.190128
0.170145
0.0199834
-0.399087
0.415331
-0.0162442
0.319955
-0.419607
0.099652
0.0711752
-0.0931123
0.0219371
0.405015
-0.140419
-0.264597
0.270386
0.231052
-0.260778
0.21782
0.128382
-0.346202
0.000362729
-0.000799869
-0.00653781
-0.282385
0.290103
0.0132384
0.00898474
-0.0222232
0.170594
-0.257911
0.0873164
0.000718999
-0.00293629
-0.0106498
0.180081
-0.0908814
-0.0891991
0.000164408
0.001116
-0.0012804
8.68064e-05
-0.0091971
-0.176697
-0.0134311
-0.316976
0.181211
0.135765
-0.364098
0.155703
0.00367212
-0.00185319
0.0315823
-0.0243163
-0.00726602
-0.0329131
0.00108688
-0.0391493
-0.0799086
0.399864
-0.00392223
-0.0694736
-0.207331
0.0804658
-0.00142589
0.00418911
-0.00276322
-0.0651316
0.132043
-0.066911
0.00103788
0.00950051
0.207107
0.20956
-0.0208431
-0.00595292
0.026796
-0.00410018
-0.00064403
0.00474421
-0.0289332
-0.0437505
0.0726837
-0.18716
-0.190529
0.00808645
0.00351662
-0.0136834
0.0663717
-0.103127
0.22672
-0.123593
-0.0487233
-0.0173113
-0.408819
0.322583
0.0862365
0.228658
0.146836
-0.375494
-0.0936334
-0.0846172
0.178251
-0.293312
0.163363
0.129948
0.123059
-0.0496612
-0.0733974
-0.00154526
-0.0042453
-0.00964401
-0.00138701
0.228426
-0.397588
0.169161
0.101003
0.209119
-0.310122
-0.0160217
0.0533345
-0.0373129
0.205368
-0.116634
0.119779
-0.0103687
-0.109411
-0.11798
0.273852
0.2741
0.0923276
-0.366427
0.000182329
0.00424825
-0.169395
0.325253
-0.155858
-0.2393
0.145654
0.0936459
0.237544
-0.131954
-0.105589
0.00216826
-0.006248
0.0134257
0.123991
-0.137417
-0.240172
-0.0810908
0.321263
0.00644232
-0.00883807
0.383006
-0.173954
0.12784
-0.0321336
0.0853814
-0.0547549
-0.0306265
-0.117924
-0.0722647
-0.088566
0.16627
-0.00195856
0.0771315
-0.0456561
-0.00391246
-0.00171394
0.0056264
0.0790538
-0.0550649
0.158539
-0.1015
-0.022902
-0.13059
0.153492
0.106605
-0.0536696
-0.0529353
0.000116718
0.00253736
-0.0690053
0.149727
-0.0057119
-0.00439803
0.0277491
0.0381886
-0.00115566
0.000834196
-0.0452033
-0.0498771
0.0950804
0.0345904
0.196461
-0.131333
0.0633973
0.0959346
-0.00714059
0.00757146
0.0169047
0.00510922
0.16115
-0.0701179
-0.0910321
-0.0759965
0.0366589
0.191886
-0.377831
0.185946
0.00424309
0.000310319
-0.00455341
0.0929511
0.233866
-0.326817
0.039463
-0.321848
-0.0066923
0.0388049
-0.0423159
-0.00868556
0.0106477
-0.00196216
-0.143789
-0.128306
0.272095
-0.0627965
0.0244336
0.0383629
-0.015151
0.01544
0.397302
-0.0384466
0.0753705
-0.0369239
0.288464
0.0411609
0.22545
-0.370591
-0.0849019
0.225006
-0.140104
-0.158308
0.100288
-0.0336795
0.0285463
-0.0736833