/*--------------------------------*- C++ -*----------------------------------*\
| =========                 |                                                 |
| \\      /  F ield         | OpenFOAM: The Open Source CFD Toolbox           |
|  \\    /   O peration     | Version:  v2012                                 |
|   \\  /    A nd           | Website:  www.openfoam.com                      |
|    \\/     M anipulation  |                                                 |
\*---------------------------------------------------------------------------*/
FoamFile
{
    version     2.0;
    format      ascii;
    class       surfaceScalarField;
    location    "200";
    object      phi_0;
}
// * * * * * * * * * * * * * * * * * * * * * * * * * * * * * * * * * * * * * //

dimensions      [0 3 -1 0 0 0 0];
oriented        oriented;


internalField   nonuniform List<scalar> 
41211
(
-0.0760192
-0.0978259
0.173845
0.141174
0.275493
-0.164711
0.0957067
0.0690046
-0.212188
0.144278
0.0679097
0.0933103
-0.228463
0.135152
-0.0661008
-0.00905684
0.0751576
0.258884
-0.165574
-0.0573304
0.113297
-0.0559664
0.1086
0.182754
-0.291354
-0.0547691
0.0827357
-0.0279666
0.0446937
-0.0111419
-0.0335517
-0.000688851
0.0234807
-0.0227919
0.026664
0.0867938
-0.113458
0.00474104
-0.033907
0.0291659
-0.0173154
0.00965562
0.00765982
-0.0058453
0.00635466
-0.000509363
-0.000437089
0.00111604
-0.000678946
0.315725
-0.207125
0.0372894
0.00740423
0.000269574
0.0406026
-0.0318256
-0.00877704
-0.00894233
-0.00837311
0.228311
-0.373954
0.145642
0.118847
-0.0369636
-0.0818838
0.0497706
0.0249409
-0.0747115
0.107436
-0.0401507
-0.0672852
0.392287
-0.236983
-0.155304
-0.142873
0.15966
-0.0167864
-0.523705
0.31105
0.212655
-0.00861834
0.00248673
0.00613161
0.0928597
0.0259877
-0.0669609
0.114283
-0.0473221
-0.167324
0.0913049
-0.38481
0.291127
0.0936832
-0.265881
-0.0712795
0.33716
0.0107575
-0.0107575
0.000385093
-0.0110139
-0.342305
0.218108
0.124197
0.323354
-0.214231
-0.109123
-2.63432e-05
-0.00726074
0.0262635
-0.0269523
0.147124
-0.413005
-0.208639
0.149814
0.0588249
0.480256
-0.300408
-0.179848
-0.0999628
-0.01563
0.115593
0.00382344
-0.00376278
0.166495
0.141987
-0.308482
-0.000672017
-0.00502688
0.0056989
0.0101103
-0.0101103
-0.0253903
0.0126481
0.0127422
-0.00500344
0.018569
-0.0135655
0.049723
0.0577129
0.00388202
0.00296146
-0.00684348
-0.0342854
0.0061275
0.0281579
0.12589
0.123599
-0.24949
0.246567
-0.446882
0.200315
-0.0876787
0.0847314
0.00294733
0.173264
0.10777
-0.281034
0.0774709
-0.130119
0.0526477
-0.105641
0.0447002
0.0609409
-0.00933538
0.0118909
-0.13039
0.0164777
0.113912
-0.00698243
-0.112827
0.11981
0.357435
-0.377138
0.0197035
0.409715
-0.144905
-0.26481
-0.289298
0.0956486
0.193649
-0.0526504
0.0323534
0.020297
-0.0787522
-0.00892654
-0.0842947
-0.0213464
0.132491
0.104031
-0.236522
0.167282
0.312974
0.00916202
0.00581691
-0.0149789
0.0215208
-0.0177131
-0.0038077
0.101464
-0.0535504
-0.0479138
0.00536975
0.108802
-0.114172
-0.227164
0.0759719
0.151192
-0.0356151
-0.0170353
0.0112557
-0.00225711
-0.00899864
0.00466435
-0.00470661
-0.00788249
0.00788249
-0.282217
-0.241488
0.172731
0.186554
-0.359285
-0.0880406
0.0505137
0.0375269
-0.189857
0.0954483
0.094409
-0.137225
0.237099
-0.0998741
-0.143841
0.162304
-0.018463
-0.179281
0.411349
-0.232068
-0.00367652
0.0110575
-0.007381
-0.0105745
0.000641741
-0.241008
0.154244
0.0867635
-0.276716
0.00812342
0.268593
-0.00523002
0.0061197
0.139635
-0.312924
0.17329
-0.00861834
-0.0194123
0.0122461
0.00716627
0.0573982
-0.146395
0.0889971
-0.156244
0.328975
0.17125
-0.105415
-0.0658342
0.163429
0.111977
-0.275406
-0.0329087
0.0675018
-0.034593
0.190652
0.132702
0.305593
-0.210907
-0.094686
-0.020678
0.0381886
-0.0175106
0.00162201
-0.0109574
0.0164116
0.00510924
0.114287
-0.12127
0.157192
-0.251779
0.0945873
0.109307
0.261733
-0.135842
0.0145292
-0.114492
0.000677795
-0.0065231
-0.308325
0.031609
-0.241133
-0.143677
0.141844
0.137684
-0.279528
-0.0718789
0.229071
0.0121244
0.355948
-0.368072
0.121298
-0.145107
0.0238096
-0.0286091
-0.0202676
0.0488766
-0.00442131
-0.00182038
0.00624169
-0.0393374
0.089108
-8.81043e-05
0.000566943
0.113718
-0.0690176
-0.00264244
-0.00114025
0.00378269
-0.040072
0.011463
0.0220115
-0.0146276
-0.00738387
-0.0164866
0.0490867
-0.0326001
0.114075
-0.199671
0.0855958
-0.222781
0.110843
0.111938
0.00340546
0.00442505
-0.00783051
-0.212655
0.376966
-0.16431
0.0293816
-0.0958172
0.0664356
-0.116362
0.00421362
0.112148
-0.185778
0.192481
-0.00670292
-0.00809961
0.0088447
-0.000745091
-0.000878427
-0.000143814
0.00102224
-0.0909109
0.207019
-0.116108
0.0155291
0.0324091
-0.0479382
-0.0230541
0.0277952
0.199455
0.104567
-0.304023
-0.0784406
-0.107337
-0.000326506
-0.0335805
0.0190581
-0.0738272
-0.0909445
0.0387859
0.0521586
0.0427373
-0.0940283
0.051291
-0.186643
-0.155662
0.0115996
-0.00499988
-0.00659975
-0.0979824
0.0272901
0.0706924
0.0564454
-0.144711
0.0882654
-0.270469
0.266819
0.00364973
-0.0741989
0.0412902
-0.111543
0.0668194
0.044724
-0.0792292
0.056488
0.0227412
-0.122809
-0.0858297
0.0020363
-0.00400205
0.00196576
0.247471
-0.455131
0.207659
-0.00359036
0.00509931
-0.00150895
-0.251897
0.160987
-0.0562616
0.11366
0.0530696
-0.252924
0.199854
-0.379962
0.0220605
0.357902
0.369559
-0.179049
-0.110249
0.0115266
-0.0167386
0.00521197
-0.20028
-0.150888
0.351167
0.254536
-0.438539
0.184004
-0.216127
-0.198097
0.414223
0.0131405
-0.0213693
0.0082288
-0.312192
0.112031
0.200161
0.137554
-0.215995
0.105001
0.0777334
-0.182735
-0.0880207
0.0270078
0.0610129
-0.00187089
0.00148243
0.000388454
0.000809737
-0.0011306
0.000320868
-0.0620975
0.0319075
0.03019
0.346592
-0.193247
-0.153346
-0.0313335
0.0855779
-0.0542444
-0.00130543
-0.00657706
0.0191631
-0.0451114
0.0259483
-0.0237934
0.379741
-0.127694
-0.124086
-0.0312165
0.06235
-0.0311335
0.0212447
-0.011057
-0.0101877
0.0112062
-0.0110325
-0.000173721
0.0156974
0.015132
-0.0308294
0.380787
-0.201427
-0.17936
0.00884942
-0.0271576
0.0183082
-0.00196578
0.00639556
-0.00442979
0.0310234
-0.0123554
-0.018668
0.0406657
-0.0766213
0.0359556
-0.00279066
0.00177944
0.00101122
-0.0114618
0.00772167
0.00374015
0.230752
0.185914
-0.0730895
0.144512
-0.0714223
-0.0895331
0.0441417
0.0453913
-0.195558
0.339328
-0.143771
-0.0662421
-0.0129872
-0.00359036
-0.032166
0.0384829
-0.00631688
-0.0496434
-0.0398897
0.0398248
0.0107479
-0.0505727
0.0307219
-0.0782138
0.0474918
0.00530607
-0.385268
0.0764851
0.0944277
-0.170913
-0.0220043
0.143302
-0.00663074
-0.00483108
0.11521
-0.0154015
-0.0998088
-0.253028
-0.0591635
-0.205789
0.286998
-0.0812095
0.00770691
-0.00138349
-0.00632341
0.166708
0.102351
-0.269058
-0.00229129
-0.268178
0.0210538
-0.0481397
0.0270859
-0.119996
-0.0921923
0.00860214
0.000291758
-0.0088939
0.301032
-0.247963
0.209052
0.183235
0.104132
-0.0747505
-0.174112
0.0428698
0.131242
-0.192822
-0.0860567
0.278878
-0.191402
0.422154
-0.00627181
-0.142725
0.281143
-0.138418
0.156942
-0.235253
0.0783111
-0.0473824
0.083521
-0.0361385
0.0726511
-0.165632
0.0929809
-0.0894031
0.0218891
0.067514
-0.179399
-0.00210355
0.181503
0.139535
-0.0830895
0.148018
0.170013
-0.318031
0.186373
-0.113722
0.121961
0.157037
-0.278998
0.0130894
-0.120558
0.107468
0.0747917
-0.0752857
0.000493998
0.199484
-0.36767
0.168185
0.225265
-0.00762201
0.00849984
-0.00087783
-0.0193779
0.0349069
-0.0677606
0.0525343
0.0152263
0.209239
-0.0951643
-0.0184124
0.0298436
-0.0114313
0.00223036
0.00017579
-0.00240614
-0.00122282
0.00693851
-0.00571569
0.0140014
0.00724327
-0.0136644
0.0159463
-0.00228193
0.0432896
-0.0393098
-0.00397974
-0.230676
0.127882
0.102794
-0.386222
0.243569
0.142653
0.00416199
-0.00483401
0.127863
0.354411
-0.107844
0.0701748
-0.0883518
0.018177
0.396763
-0.148035
-0.248728
-0.0535689
-0.0133589
0.0669279
0.185792
-0.0386386
-0.147153
-0.00880177
0.00512525
0.0166959
-0.0142078
-0.00248809
0.190678
-0.0874069
-0.103271
0.0764119
-0.0817758
0.00536395
-0.108725
-0.115947
0.224673
-0.10234
0.10771
0.208694
0.188858
-0.397552
-0.000105854
0.0037122
-0.00360634
0.00319459
-0.0076159
-0.0438935
0.0845592
0.127118
0.117316
-0.244434
-0.301432
0.194711
0.106721
-0.0655875
0.170602
-0.00928968
0.0181391
0.00303149
-0.10212
0.0351588
0.0020155
0.00711012
-0.00912561
-0.0846244
-0.0704877
0.155112
0.0342297
0.0090599
-0.208395
0.378127
-0.169732
0.301654
0.0951083
0.346609
-0.12761
0.0112477
-0.32351
0.0247156
0.298795
-0.0706662
0.235578
-0.164912
0.0123803
0.00356604
0.187607
-0.103207
-0.0844001
-0.11816
0.106038
0.0121218
0.0446891
0.00827453
-0.0529636
0.0600701
0.0413941
-0.00307308
0.0011073
-0.186723
0.213207
-0.0264837
-0.0300228
0.0491859
-0.205395
-0.133786
0.339181
-0.060173
0.0916961
-0.0315231
0.00504975
-0.00301345
0.0337264
-0.0750409
0.0413145
-0.00914766
0.000175836
0.00897183
-0.005786
0.00312326
0.00266274
-0.0272791
0.10475
0.326703
-0.178685
0.272773
-0.124348
-0.148426
0.120009
0.0675978
-0.000878427
-0.0017505
0.00494864
0.0563874
-0.00780715
-0.0882942
-0.0109834
0.0992776
-0.0246483
0.0142154
0.0104329
-0.0377816
-0.00610091
0.0438826
0.000299194
0.00291115
-0.00321035
0.0342156
-0.357726
0.0517548
0.0454711
-0.0972259
-0.0988645
0.231355
0.000928269
0.00116542
-0.00209369
-0.32154
0.0972133
0.224326
-0.0135665
0.0220651
-0.00849854
0.0940755
-0.0796597
-0.0144158
-0.00556639
0.00591183
-0.000345437
0.298536
-0.125272
-0.00179591
0.0103981
0.0147133
-0.0113078
-0.0411747
0.101996
-0.060821
0.248528
-0.476109
0.227581
-0.0219809
-0.120892
0.00863102
-5.11223e-06
-0.0086259
-0.238474
-0.0830657
-0.122092
0.120549
0.00154296
-0.0323807
0.0985068
-0.0661261
-0.0177301
-0.00691822
-0.00237111
0.000184062
0.00218705
0.304984
-0.165349
-0.042617
-0.0454236
-0.00351129
0.0470881
-0.0435768
-0.00319753
0.0430224
-0.156578
0.365272
0.0318053
-0.016108
0.16001
0.195564
-0.355574
-0.355067
0.360373
-0.0852617
0.052881
-0.0610595
0.0298429
0.00911835
-0.188517
-0.294534
0.168585
0.125949
-0.126758
-0.114249
0.0307358
0.0633397
-0.186409
-0.0407548
0.12257
-0.264959
0.142389
0.0451559
0.0332427
-0.0783986
-0.12254
0.236974
-0.114435
0.0764796
-0.0427532
0.00112372
0.00450925
-0.00563297
0.00147254
0.00928498
-0.160613
-0.0106754
0.171288
0.297436
-0.165668
-0.131768
-0.0962312
-0.134445
-0.198598
0.354179
-0.155581
0.0161763
-0.025466
-0.00188936
-0.0252683
-0.199954
0.3698
-0.169846
0.0808647
-0.00445285
-0.138842
-0.0949677
0.23381
-0.123131
0.289839
-0.0396849
0.144686
-0.0851217
0.238203
-0.153081
-0.00234932
0.00258053
-0.361442
0.409543
-0.0481011
-0.0210562
-0.0683469
-0.0501444
0.086274
-0.0361296
-0.0126602
0.0076568
-0.222757
-0.145141
0.367898
0.124555
-0.265573
0.141018
0.299369
-0.174813
0.00522502
-0.00644784
-0.393387
0.187992
0.0529559
-0.0598548
0.00689883
0.168567
0.158137
0.00243842
0.0723533
0.0302246
0.0604271
-0.0906517
-0.00882271
0.000723104
0.0876475
-0.209932
0.122284
0.0443082
0.141484
0.182916
0.0422884
-0.225204
0.0814795
-0.0507576
-0.151412
-0.148822
0.300233
0.0255569
-0.0751939
0.049637
-0.124353
0.108477
0.0158756
-0.0129925
-0.0849899
0.0765865
-0.431654
-0.0296371
0.186579
0.415385
-0.19012
-0.158065
-0.0972639
0.255329
0.00846339
-0.00245261
0.0535427
-0.0183129
-0.0352298
-0.0433931
-0.0622852
0.105678
0.000431118
0.00895123
-0.00938234
-0.0233352
-0.000202035
0.0235373
0.321683
-0.18175
-0.139934
0.0789664
-0.0489699
-0.0299965
-0.126865
-0.0633258
0.190191
-0.0986043
0.257333
-0.158729
-0.0425858
-0.0251749
-0.21192
0.123798
0.0881215
0.334593
0.0601566
-0.39475
0.0175578
-0.0105939
-0.0069639
0.0141972
-0.080298
-0.00579849
-0.00194377
0.00774225
-0.103627
0.112594
-0.00896697
0.00951607
-0.0231419
0.0136258
0.225191
-0.438454
0.213263
-0.377689
0.222078
0.155611
-0.0991235
0.0126576
0.0864659
-0.00637373
0.000807334
-0.254554
0.288769
0.0643343
0.0604941
-0.124828
-0.0629349
0.11469
0.117378
-0.222869
0.10549
-0.250834
0.180168
0.111954
0.00489521
-0.116849
0.0397001
-0.0552106
0.0155105
-0.00495774
0.0381156
-0.0626129
0.0244973
-0.00827938
0.0892812
0.212373
0.0147789
-0.0032523
0.188058
0.117535
0.0442589
0.0384768
-0.0568522
-0.106457
0.163309
0.00537024
-0.00424652
0.172523
0.244144
0.11616
0.0521277
-0.15901
0.106882
0.149772
-0.260583
0.110811
-0.0736146
-0.0379287
0.104705
0.216978
0.0771313
-0.269953
0.00390667
0.0382725
-0.0421792
-0.0353597
0.234815
-0.240047
0.142588
0.0974594
-0.0907936
0.0434112
0.0337295
-0.0618843
0.0281548
-0.0139671
0.122883
-0.108916
0.00494918
-0.00708538
0.00213621
0.0371523
0.0761445
0.00808561
-0.030606
0.0225204
-0.0237527
0.0939275
-0.25615
0.157546
0.0771472
0.00875754
-0.0859048
-0.000878266
-0.00099262
-0.0911582
-0.106303
0.197461
-0.286786
0.135374
0.132604
-0.0206498
-0.193073
0.0063496
0.0556581
0.000516096
-0.0561742
-0.23464
0.00821214
0.226428
0.263805
0.349124
-0.259843
-0.00151841
0.00628682
-0.00476841
-0.0111749
-0.0199646
-0.214675
-0.260543
0.357809
-0.0972658
0.0324282
-0.0229121
0.287589
0.0934331
-0.381022
0.0571816
-0.045737
-0.0114446
0.356654
-0.234903
0.0976784
0.0732652
-0.233878
-0.0738985
0.00826674
0.0656318
-0.138925
0.236562
-0.0976366
0.346857
-0.178291
0.0448441
-0.0042172
-0.0406269
-0.129812
-0.161331
0.291144
-0.126197
0.00530379
0.120894
-0.00466947
0.00284909
0.0254447
0.0311899
0.293743
-0.324932
-0.00180081
-0.017646
0.0623351
-0.0245695
0.0326551
0.0026089
0.000449767
-0.0307018
0.0302521
-0.0812134
-0.108644
-0.122172
0.0658812
0.0562907
0.367467
-0.39126
-0.021228
0.0628747
-0.0416467
0.112633
-0.367187
-0.0719495
0.0490291
0.0229204
0.260595
-0.102282
-0.158313
-0.181744
0.124891
-0.00705017
0.0012957
0.00575448
0.0130046
0.00175222
-0.0147568
0.133846
-0.39439
-0.241567
0.113873
0.0148879
0.0407702
-0.0264579
-0.147654
-0.0719161
0.254832
0.126793
-0.254743
0.12795
0.00946178
-0.370904
-0.111214
0.0711902
0.0400235
-0.0580206
-0.100327
0.158348
0.00404269
-0.0224551
0.0301422
-0.0595386
0.0293963
0.225398
-0.41662
0.191222
-0.0853921
0.0459755
0.0394166
-0.00288596
-0.00613128
0.00901724
0.101245
-0.0369107
0.0989599
0.148998
-0.247958
0.206209
-0.428967
-0.404381
0.2251
0.0659301
-0.0509691
-0.014961
-0.0833914
0.0520579
0.0751965
-0.118144
0.0429476
-0.00136154
0.00999256
0.0162121
0.0186327
-0.0348448
-0.0452168
-0.174913
0.22013
0.00802236
-0.00954077
-0.186925
-0.130507
0.317432
0.00552571
-0.0373871
0.0318614
0.106143
-0.0794786
0.280002
-0.153209
-0.00664631
0.118802
-0.112156
0.297969
-0.201095
-0.0968742
-0.105403
0.00075822
-0.00590655
0.00753237
-0.00724061
-0.0779595
0.0982309
-0.0202714
0.00241966
0.0071381
-0.00955775
0.0134551
0.0179934
-0.0314485
-0.0510644
-0.245609
0.276799
0.101693
-0.347302
-0.00711459
0.0113084
-0.00419385
0.0200788
-0.0751015
0.0550227
-0.155601
-0.25886
0.414461
0.0143558
0.0980608
-0.112417
0.0977093
0.0262599
-0.123969
0.0103918
-0.0103918
0.0721315
-0.122952
0.0508209
-0.00336545
0.00072301
-0.115224
0.0372645
0.0995217
-0.208247
-0.0270511
0.0275009
-0.212218
0.167001
-0.143508
-0.152292
0.295801
0.120134
0.00434087
-0.124475
0.0558152
-0.0446365
-0.0111787
0.344226
-0.157672
-0.00142455
-0.120201
-0.00415152
0.0119295
-0.017626
0.00569651
-0.0478713
0.0313847
0.00349968
-0.0038924
0.000392712
0.0515191
-0.264175
0.00771893
0.286024
-0.00868445
0.116958
-0.00174762
0.166527
0.149776
-0.316303
-0.102336
0.106025
-0.00368889
-0.100717
-0.111203
-0.276061
0.246644
0.0294169
0.275274
-0.0892574
-0.186016
-0.0067471
0.00754652
-0.000799416
0.0981496
-0.116167
0.0180175
0.00336685
-0.0772654
-0.0186648
0.0583648
-0.0192684
0.016241
0.00302738
0.158903
0.138533
0.0141506
-0.00498861
0.0781806
-0.0581018
0.141832
-0.26399
0.122158
-0.0334701
0.0331436
0.00145568
-0.000958694
-0.236625
0.428709
-0.192084
-0.227627
0.153542
0.0740851
0.370421
-0.196873
-0.173547
0.0319329
-0.0157207
-0.162423
-0.0930769
0.2555
0.406658
-0.0391914
0.304835
-0.076524
-0.104707
0.231824
0.0629963
-0.0100404
-0.0943991
-0.219044
0.313443
0.00860806
-0.00659257
-0.139575
0.0376508
0.101924
0.277684
-0.121031
-0.156654
0.0549389
-0.098332
0.104494
-0.00634456
0.00176611
0.00221447
-0.00398057
0.000279971
0.000648298
0.00843234
-0.00742642
0.12987
-0.268795
-0.148233
0.371843
-0.22361
-0.172201
0.397599
0.00219645
-0.00459457
0.00239812
-0.199518
-0.198271
0.397789
-0.00140981
0.001709
-0.0589324
0.0731297
-0.0320458
0.0650696
-0.0330238
0.0108908
-0.0013726
-0.00951817
-0.00693798
0.00701941
-8.14216e-05
-0.217008
0.0799995
0.137009
-0.119383
-0.135163
0.254547
0.0048966
-0.00684037
0.105369
-0.0750177
-0.0303513
-0.20036
0.380887
-0.180527
-0.394688
0.0110474
0.383641
-0.0418374
0.0159586
0.0258789
-0.0218806
-0.0504663
0.0723469
-0.00104902
0.0458932
-0.0114206
0.00571345
0.00570716
-0.034511
0.0109791
-0.111006
-0.0583698
0.169376
0.00971032
0.010923
-0.0206333
0.00770691
0.43088
-0.429455
-0.00142511
-0.000139476
-0.00372608
0.00386556
-0.00154941
0.014554
0.00505404
-0.103704
0.0986497
0.00916564
-0.0173663
0.0387042
-0.0213379
0.0233088
0.0968249
-0.000552435
-0.0677312
0.0682836
0.138066
-0.275085
0.137019
0.0508371
-0.00554973
-0.0452874
-0.163837
-0.159492
0.323329
0.195843
-0.137005
-0.0588382
-0.0217965
-0.0531645
0.0749609
-0.0630591
0.0204733
-0.0333451
0.0634873
0.0732206
0.0321484
0.00103108
0.00181722
-0.0028483
0.112018
-0.203176
-0.0090289
0.00745889
-0.20255
-0.209154
0.411704
0.0812269
-0.175625
0.0943977
0.119182
-0.00513345
-0.0269515
0.0320849
-0.316306
0.190397
0.125909
-0.0374578
-0.0344917
0.356908
-0.10838
-0.109745
-0.0164524
0.0350724
-0.0671182
0.150212
0.19638
-0.278942
0.155872
0.12307
-0.0888381
-0.0469183
0.135756
-0.00136161
0.0265179
-0.0251562
-0.12573
0.0156774
0.110053
0.0526873
-0.0772502
0.0245629
-0.16848
0.0612893
0.107191
0.0335406
-0.0200855
0.0644222
-0.0263065
0.0542323
0.0247341
-0.023843
-0.252218
-0.0206296
0.0703158
-0.0496862
-0.0448796
0.0900354
-0.00099525
0.00538467
-0.00438942
-0.0329538
-0.135527
-0.331813
0.175569
-0.00733891
0.0847859
-0.102624
0.0178379
0.18198
0.089477
-0.271457
-0.00892678
0.0186371
-0.223553
-0.178421
0.401974
0.0231479
0.0107822
-0.0339301
0.0419171
-0.0363914
-0.419643
0.219063
0.20058
0.298501
-0.160435
0.0552498
0.0146532
-0.069903
0.04313
-0.064358
0.156017
-0.136996
-0.0190202
0.179468
-0.08156
-0.0979083
0.0044754
0.00678035
0.191832
-0.187419
0.106205
-0.00969589
0.00961019
0.115664
-0.149109
0.033445
-0.102587
0.0614118
0.234112
0.0638572
0.312805
-0.186674
-0.126132
-0.322489
0.200489
0.122
-0.000142861
0.000498674
-0.000355814
-0.0894158
0.164854
-0.075438
0.272803
0.116753
-0.389556
0.00501368
-0.000349326
0.253102
0.0743301
-0.327432
0.0391664
-0.183662
-0.00339206
0.00515817
-0.183545
-0.184125
-0.023295
0.00972842
0.134753
-0.00744714
-0.127306
0.0929339
0.18234
-0.149457
0.076368
-0.175887
0.371254
-0.195366
-0.0100452
0.0109286
-0.000883356
-0.00345999
-0.00496644
0.00842643
0.0186826
0.038499
-0.306484
-0.00845155
-0.00296907
-0.00775535
-0.00146973
0.00922507
-0.389373
0.213486
-0.000646397
-0.00407802
0.00472442
0.114049
-0.0626292
-0.0514199
-0.410185
0.0300969
0.380088
-0.353764
0.153485
-0.103151
-0.136896
0.113094
0.0429224
0.0099795
-0.0011972
-0.00878229
0.367763
-0.219521
-0.148242
-0.162494
-0.257149
-0.0313775
-0.0316816
-0.0597692
0.0353829
0.0243863
0.347746
0.0105387
-0.00935173
-0.00118692
0.00807771
-0.00488313
-0.000296771
0.00443387
-0.00413709
0.126145
0.18666
0.208902
-0.121254
0.356458
-0.215284
-0.0695703
0.165019
-0.0429519
0.100436
-0.0574837
-0.186764
-0.199458
0.0808238
-0.146376
0.0655522
0.00649981
-0.416685
-0.123561
-0.0993081
0.0732365
-0.163442
0.0902051
-0.0506165
0.0351761
0.0154404
0.0633382
-0.0383973
0.0350438
0.038289
-0.0733328
0.0132747
0.0864579
-0.0997326
0.0478552
-0.0684848
0.0867828
0.0844669
-0.143003
-0.236351
-0.0167486
0.2531
-0.122974
-0.122157
0.245131
0.036955
-0.0610255
0.0240705
0.019185
0.0316522
-0.0479446
0.0305783
-0.00347472
0.00247947
-0.00116606
0.00102659
0.167403
-0.00914302
0.00202843
0.195076
0.0510659
-0.246142
0.189554
0.176328
-0.365883
0.0184081
-0.00658436
-0.0118238
-0.161883
0.334711
-0.172829
0.00989567
-0.00989567
0.0800748
-0.0475034
-0.0325714
0.0101429
-0.0101429
-0.00656091
0.00931825
-0.00275733
0.00341676
-0.00464773
0.00123097
0.196848
0.053565
-0.250413
0.0389475
-0.0115326
-0.00609333
-0.119929
-0.0239124
0.00595438
-0.00105778
0.0369924
-0.0060494
-0.030943
-0.0474104
-0.233586
0.280997
-0.021358
0.0202713
0.00108669
-0.0829098
0.246339
0.00376303
-0.0098943
0.0037997
-0.129071
-0.087937
0.144389
-0.309688
0.165299
0.0146626
0.00740246
0.156656
0.191757
-0.348413
-0.223432
0.156414
0.0670181
-0.0308708
-0.0312267
0.080268
-0.0360091
-0.00172041
0.00548897
-0.00376856
0.0538264
-0.0200969
-0.0297262
0.226575
0.0826416
0.113202
-0.090839
-0.0605209
0.0074542
0.0530667
-0.25179
0.0154387
-0.00346586
0.0115275
-0.00806169
0.140606
-0.00585205
0.124845
-0.247385
-0.0106081
0.00285274
-0.0080888
0.00629288
-0.0988369
0.0656828
0.0331541
-0.156312
0.066896
-0.161173
-0.11777
0.281773
-0.0671651
-0.214608
-0.0278739
-0.040696
0.0685699
-0.0929212
-0.0252386
-0.0120055
0.12937
-0.117364
-0.0370762
-0.0463031
0.0833793
0.00808893
-0.0115548
0.0185304
0.0475421
-0.0660725
0.210774
0.205893
0.297041
-0.130546
-0.0994604
-0.00287606
-0.256822
-0.00703037
-0.0136812
0.0207115
-0.0321339
-0.0475258
0.0310234
-0.0846979
-0.0800135
0.0111375
-0.302367
0.229505
0.0728618
0.0105233
-0.0188698
0.0083465
0.0205964
-0.108891
0.00287957
-0.000683121
-0.0291638
0.0732075
-0.0440438
-0.00239658
-0.00723964
0.00963623
-0.13347
0.00307994
0.141601
-0.124945
-0.0166557
0.00978504
-0.00736538
-0.12458
0.197845
-0.0244399
0.0230783
-0.0759431
0.0480692
0.151826
-0.0710026
-0.116795
0.0666061
0.0501886
-0.111236
0.0972685
-0.00129741
0.000651014
0.106551
-0.0915687
-0.0149818
-0.381657
0.182139
-0.000322018
0.00218418
-0.00186216
0.356363
-0.0835594
0.305075
-0.157619
-0.147456
-0.075646
0.015473
0.00194973
0.00844203
-0.0736248
0.0517441
-0.00968144
0.00201541
0.00766604
-0.0454593
0.143169
0.488086
-0.256295
-0.231791
-0.0037871
0.0107656
-0.00697845
-0.0975662
0.0479229
-0.199029
-0.197422
0.396452
-0.0429643
-0.0076523
0.0616347
-0.108892
0.0472573
-0.00172742
0.0027585
0.144272
0.156923
-0.0412589
0.110862
-0.105808
-0.19055
-0.111817
0.0692103
-0.0303567
-0.0388536
-0.0953102
0.290386
0.0637799
0.027475
-0.0912548
-0.00745072
0.00744561
0.0110219
-0.0124404
0.00141851
-0.118369
0.111723
0.041152
0.209946
-0.0796381
-0.130308
-0.353828
0.191945
-0.142308
0.280759
-0.138451
-0.0565875
0.0748343
-0.0182468
-0.047565
-0.0500012
0.0296979
-0.178398
0.1487
-0.0844503
0.276477
-0.192026
-0.00969749
0.084894
-0.10281
-0.0326909
0.135501
0.0152121
0.00335683
0.0755933
0.00155398
-0.0660342
0.0390176
0.0270166
-0.027487
0.00415172
-0.00132481
-0.012252
0.0135769
0.0973603
0.0890126
0.0171095
-0.00658625
0.00549648
-0.116542
0.129632
0.00632658
-0.00768813
0.259112
0.121025
-0.133031
0.0336284
-0.391038
0.222674
0.168363
0.0265816
-0.0443092
0.0177276
-0.0391065
-4.70572e-05
0.000688362
-0.000641305
0.0723218
-0.0996009
-0.00235667
-0.00267798
0.00503465
0.0507258
-0.143588
0.0928622
0.0152582
-0.0433558
0.0280976
0.168876
-0.405502
-0.00665715
-8.99479e-05
-0.0301759
0.119449
-0.0892736
-0.00983752
0.0920977
-0.078823
-0.29574
0.211289
0.0888816
-0.195185
0.177016
0.131788
-0.308804
0.0828918
-0.0650588
-0.017833
0.0364292
0.0423761
-0.0788054
-0.114457
0.0140403
0.100416
-0.0847688
0.0526349
0.0242772
0.147349
-0.0966234
0.0243939
-0.0745383
-0.0489713
0.0868647
-0.0378934
0.0591402
-0.0865644
0.0274242
0.0356717
0.0397159
-0.0753876
-0.0398308
-0.0823411
-0.0296266
-0.0546681
-0.00772076
0.0104437
-0.00272298
-0.0994935
0.25653
0.35342
-0.105948
0.0312222
0.0469584
-0.0157563
0.0795361
-0.0391248
-0.0195447
0.0586695
-0.0832694
0.0769227
0.00634668
0.214941
-0.387613
0.172672
-0.0339644
-0.0542459
0.0882102
-0.146454
0.257368
-0.110914
0.136729
-0.147022
0.0102929
0.0937248
0.39121
-0.136674
-0.386869
0.0633836
0.323486
0.0887342
-0.207099
0.118365
0.208646
0.196263
-0.404909
-0.142774
0.037358
0.202141
-0.335629
0.133488
-0.0720209
-0.0189236
0.00537635
-0.00883634
0.000152649
-0.00294331
0.228097
-0.216488
-0.0116087
-0.0564707
-0.240718
0.297189
-0.00705017
0.114682
-0.253524
0.00431864
0.0804672
-0.314513
0.127588
-0.0196883
0.0749381
-0.122215
0.02091
0.101305
-0.000317042
-0.00221566
0.00253271
0.0363158
0.144383
0.100393
-0.199729
0.0993364
-0.0305168
0.0739528
-0.043436
0.10652
-0.121327
0.014806
-0.394275
0.238674
-0.079447
0.0362053
0.0432417
0.486561
-0.211069
-0.0421122
-0.0379569
0.0800691
0.209862
0.137256
-0.347117
-0.0855775
-0.137855
-0.00179435
-0.0104577
0.0785359
-0.0655585
-0.0129774
0.198852
-0.329358
0.0339981
0.0453861
-0.0793842
-0.103151
0.0509036
0.0522471
-0.0699923
-0.0180284
0.0570385
0.0665326
-0.123571
0.0378076
-0.252038
-0.0107553
-0.122732
0.000639645
-0.00719192
0.00689515
0.140492
-0.25862
0.118128
0.0414703
0.0235242
-0.0649945
-0.126552
0.246378
-0.119825
-0.0621869
-0.324682
-0.125913
0.168783
-0.00277513
0.017397
0.0232056
0.0265991
0.0519367
0.0126282
-0.0101822
-0.00244602
-0.00808932
-0.000733388
-0.00579501
-0.00783676
0.0136318
0.340503
-0.141651
0.292815
-0.165237
-0.127578
-0.0733961
-0.0130959
0.086492
0.00831578
-0.00535432
-0.0141046
-0.0980407
0.112396
-0.115873
-0.126256
0.242129
0.179549
0.134641
-0.314189
-0.00484932
0.0129382
0.091974
0.00241752
-0.0943915
-0.019698
-0.0210878
0.0407858
0.102265
0.032825
0.0281039
-0.0609289
-0.14426
-0.0886335
0.0565281
0.0321053
0.186067
0.184353
0.108164
-0.00164351
-0.0176827
0.0591529
0.20477
-0.353003
0.336282
-0.160048
-0.176235
0.0862223
-0.0550001
-0.0118367
0.153437
0.0953583
-0.0539314
0.203703
0.045864
-0.101003
0.055139
-0.00225001
0.0228198
-0.0205698
-0.103421
0.294073
0.0934832
-0.0476193
-0.0430002
0.058821
-0.0158208
-0.0134303
0.00763533
0.102601
-0.0723766
0.0524551
-0.0371969
0.00413411
0.00707213
0.15635
-0.0245893
-0.13176
-0.13753
0.242629
-0.105099
0.00274612
-0.0168481
0.0141019
-0.0359707
-0.0434072
0.0793778
0.189783
-0.160085
-0.0078499
0.0093827
-0.0015328
-0.0026967
0.00259084
0.0130529
-0.0120125
-0.00104041
0.0723362
-0.0366645
-0.0992406
0.0456903
0.0342685
0.0422111
-0.29238
0.235909
0.00732052
-0.00780806
0.00048754
0.000286329
-0.0130451
0.0127588
0.0807229
0.0678685
-0.148591
0.0239887
0.0569132
-0.0809019
-0.34061
0.153967
-0.223091
0.128123
0.0692521
-0.0986697
0.0294176
0.0892676
-0.213847
-0.0947518
0.195145
0.326615
0.0330187
-0.0659446
0.0329259
0.336595
-0.111404
-0.255811
0.2084
0.0971147
0.128622
-0.225736
0.0777038
0.0840244
-0.161728
-0.00214833
-0.00478965
-0.190189
0.148361
0.0418278
0.0406985
0.0393763
-0.229689
0.444825
-0.215135
0.037225
0.0230668
-0.0602919
-0.00903327
0.0789062
-0.0698729
-0.275755
0.133447
0.0665852
-0.0480547
0.185006
0.151276
0.0829392
-0.0543697
-0.0285695
0.00265179
-0.000818638
-0.00183315
-0.0435741
0.00133257
-0.00164961
0.049401
-0.0864773
0.317998
-0.188547
-0.129452
0.128353
0.0623247
0.135833
0.0743103
-0.158935
-0.00668194
0.00165506
0.05442
0.0284718
-0.00030761
0.0113295
-0.416372
0.200245
0.396555
-0.223478
-0.173077
-0.0866495
0.192442
-0.105793
-0.0800071
0.032756
0.0472511
0.210325
0.121516
-0.331841
0.214553
0.167918
-0.38247
-0.153378
0.0505681
0.378667
0.0267383
-0.405405
0.0314755
0.0388828
-0.0703583
0.00916476
-0.0449441
0.0357794
0.0735575
-0.272156
-0.216172
-0.173201
-0.115473
0.260191
-0.144719
0.0132813
-0.000228315
-0.0679361
0.118244
-0.0503082
0.0615041
-0.283847
0.222343
0.0538663
0.0384582
-0.0923244
0.000780589
0.00932968
0.390063
0.0078238
-0.397887
0.316185
-0.108301
-0.207884
0.0172064
0.0182585
-0.0354649
-0.240208
0.301712
0.309673
-0.193624
-0.116049
0.0123785
-0.0713109
-0.190128
0.170145
0.019983
-0.399086
0.415331
-0.0162442
0.319955
-0.419607
0.099652
0.0711753
-0.093113
0.0219377
0.405015
-0.140418
-0.264597
0.270386
0.231052
-0.260778
0.21782
0.128382
-0.346202
0.000363581
-0.00080067
-0.00653737
-0.282384
0.290103
0.0132332
0.00898719
-0.0222204
0.170594
-0.257911
0.0873167
0.000719955
-0.00293562
-0.0106469
0.18008
-0.0908814
-0.0891991
0.000164915
0.00111681
-0.00128173
8.68267e-05
-0.00919712
-0.176697
-0.0134307
-0.316976
0.181211
0.135764
-0.364098
0.155703
0.00366814
-0.00185092
0.0315826
-0.0243163
-0.00726631
-0.0329127
0.00108711
-0.0391552
-0.0799087
0.399864
-0.00391987
-0.0694762
-0.207331
0.0804657
-0.00142619
0.00418936
-0.00276317
-0.0651314
0.132043
-0.0669114
0.00103785
0.0095008
0.207107
0.20956
-0.0208429
-0.00595275
0.0267956
-0.00409951
-0.000643606
0.00474311
-0.0289338
-0.0437501
0.0726839
-0.18716
-0.190529
0.00808301
0.00351662
-0.0136854
0.0663726
-0.103126
0.226719
-0.123593
-0.048723
-0.0173113
-0.408819
0.322583
0.0862365
0.228657
0.146836
-0.375494
-0.0936333
-0.0846173
0.178251
-0.293312
0.163363
0.129948
0.123058
-0.0496612
-0.0733972
-0.00154416
-0.00424184
-0.00964504
-0.00138748
0.228426
-0.397588
0.169161
0.101003
0.209119
-0.310122
-0.0160313
0.0533393
-0.0373079
0.205368
-0.116634
0.119779
-0.0103686
-0.109411
-0.11798
0.273852
0.2741
0.0923276
-0.366427
0.000183476
0.00425039
-0.169395
0.325253
-0.155858
-0.2393
0.145654
0.093646
0.237544
-0.131954
-0.105589
0.00216904
-0.00624705
0.0134255
0.123991
-0.137417
-0.240172
-0.0810907
0.321263
0.00644383
-0.00884041
0.383006
-0.173954
0.12784
-0.0321335
0.0853812
-0.054755
-0.0306262
-0.117924
-0.0722647
-0.088566
0.16627
-0.00195704
0.0771314
-0.045656
-0.00390833
-0.00171172
0.00562005
0.0790538
-0.0550651
0.158538
-0.1015
-0.0229021
-0.13059
0.153492
0.106605
-0.0536694
-0.0529352
0.000116588
0.0025352
-0.0690047
0.149728
-0.00571213
-0.00439814
0.0277518
0.0381783
-0.0011552
0.000833182
-0.0452037
-0.0498774
0.0950811
0.0345901
0.196461
-0.131333
0.0633973
0.0959348
-0.00714207
0.00757318
0.0169027
0.00510881
0.16115
-0.0701177
-0.0910321
-0.075997
0.0366596
0.191886
-0.377831
0.185946
0.00424475
0.000308131
-0.00455289
0.0929508
0.233866
-0.326817
0.0394631
-0.321848
-0.0066954
0.0388049
-0.0423162
-0.00868686
0.0106494
-0.00196253
-0.143789
-0.128306
0.272095
-0.0627996
0.0244326
0.0383669
-0.0151489
0.0154352
0.397302
-0.0384444
0.0753739
-0.0369295
0.288464
0.0411608
0.22545
-0.370591
-0.084902
0.225006
-0.140104
-0.158308
0.100288
-0.0336795