/*--------------------------------*- C++ -*----------------------------------*\
| =========                 |                                                 |
| \\      /  F ield         | OpenFOAM: The Open Source CFD Toolbox           |
|  \\    /   O peration     | Version:  v2012                                 |
|   \\  /    A nd           | Website:  www.openfoam.com                      |
|    \\/     M anipulation  |                                                 |
\*---------------------------------------------------------------------------*/
FoamFile
{
    version     2.0;
    format      ascii;
    class       volVectorField;
    location    "200";
    object      U;
}
// * * * * * * * * * * * * * * * * * * * * * * * * * * * * * * * * * * * * * //

dimensions      [0 1 -1 0 0 0 0];


internalField   nonuniform List<vector> 
27802
(
(0.985868 0.0610281 7.92244e-21)
(1.00001 0.000112701 0)
(0.944058 0.0256518 8.95417e-21)
(1.07529 -0.0201336 -6.93398e-21)
(1.00384 0.021578 0)
(1.31571 0.0878251 0)
(1.00423 0.0213896 0)
(1.19579 0.10568 -4.13188e-20)
(1.01833 0.0173408 -1.07353e-21)
(1.11859 -0.0543636 0)
(0.836773 -0.0748178 7.87316e-21)
(0.379891 0.46577 -7.5641e-20)
(1.05903 0.119445 -6.31791e-21)
(0.562176 -0.123507 -3.93833e-20)
(0.29976 -0.0625412 -3.52962e-20)
(-0.176406 0.0139722 -7.2414e-20)
(0.00706482 0.0194444 -3.73226e-20)
(1.01874 0.017903 9.7858e-22)
(0.812955 -0.0776765 0)
(0.00954641 0.00821727 1.0099e-20)
(0.686949 0.0607583 2.59967e-20)
(0.309441 -0.0618398 0)
(1.02648 0.0071462 1.04511e-21)
(1.11232 -0.0388565 0)
(1.22344 0.292063 1.38932e-20)
(0.925587 0.156102 7.11095e-21)
(1.00661 0.0106278 0)
(1.08743 -0.0240509 -9.84908e-21)
(1.01303 0.000584195 -3.96414e-24)
(-0.267512 0.00221552 7.43932e-20)
(1.11175 -0.0393888 -1.53e-20)
(1.14897 0.104412 -6.80066e-21)
(0.987234 0.0599217 -7.59476e-21)
(1.02532 -0.000129895 -1.27496e-21)
(0.999257 -3.91179e-05 5.31608e-21)
(-0.249151 -0.00210005 -3.23495e-20)
(-0.285794 -0.005724 3.33361e-20)
(1.02411 0.0113588 0)
(1.03683 0.00557749 0)
(-0.203096 -0.0108923 0)
(0.414257 0.457583 3.30752e-20)
(0.999338 -0.000132615 -3.5006e-21)
(1.08954 0.0198849 0)
(1.02253 0.00151573 1.56736e-21)
(0.947939 0.129209 -1.9205e-21)
(-0.109187 0.00708803 -3.48155e-21)
(0.995712 0.00536618 -1.65718e-22)
(-0.153527 0.0198869 0)
(0.0218212 -0.194334 7.35571e-20)
(0.451398 -0.0340564 -1.28596e-20)
(0.336261 -0.0702819 -2.95366e-20)
(0.928238 0.160965 -7.19426e-21)
(-0.189811 -0.010387 0)
(0.505205 0.82393 9.40044e-21)
(1.03478 0.00969331 2.35481e-21)
(1.00058 0.000203991 0)
(1.12997 -0.0520398 2.04743e-20)
(0.994425 0.0133352 0)
(0.957976 0.111926 6.35518e-21)
(1.20276 0.117525 0)
(0.332601 0.00662843 0)
(0.940825 0.00634446 0)
(1.0305 0.120097 -1.93048e-21)
(1.0169 0.00282699 2.03647e-21)
(1.02265 0.00190538 0)
(1.02177 0.0407777 8.03542e-22)
(0.90904 -0.0576298 4.84008e-23)
(1.13109 -0.0526042 0)
(1.20296 0.121933 3.38065e-20)
(1.01377 0.0381202 -4.14203e-22)
(1.0226 0.00131642 1.28209e-23)
(0.363626 -0.0478295 -1.12989e-20)
(0.423176 -0.071372 0)
(1.10469 -0.0577352 0)
(0.923756 -0.00495677 -2.00517e-20)
(1.0595 -0.0104987 3.79669e-23)
(0.917663 -0.0580928 -4.41603e-24)
(-0.281011 0.00383184 5.36723e-23)
(0.147504 0.00899612 9.01545e-21)
(-0.175729 -0.00477078 0)
(1.01252 0.000569664 3.83859e-24)
(1.0085 0.0113065 -5.57518e-22)
(0.812582 0.186216 0)
(1.02169 0.0685755 -8.81211e-22)
(1.03114 0.0355057 0)
(1.11586 0.0378442 -1.02795e-20)
(1.00009 0.000763285 8.51821e-22)
(0.257944 -0.0228521 0)
(-0.289961 0.00313761 -5.16712e-20)
(0.980827 0.0026811 7.94178e-21)
(0.998157 0.0155417 1.28055e-22)
(0.200821 0.00772352 -1.03228e-20)
(1.01857 0.0149705 0)
(-0.192985 0.00237844 7.11162e-20)
(0.359099 -0.0628446 -6.17102e-21)
(1.09713 -0.0204602 8.98972e-21)
(1.00874 0.0117482 3.81052e-22)
(1.09351 -0.0215274 5.40011e-21)
(0.99134 0.000376326 -6.30687e-21)
(1.11755 -0.0622216 -1.13551e-20)
(1.0371 0.00498906 9.25341e-21)
(1.02891 0.0101873 0)
(0.276576 0.768177 8.8291e-21)
(0.318768 0.00407166 0)
(0.433176 -0.0703362 -2.09074e-20)
(1.02945 0.123569 -2.87628e-21)
(0.985212 0.0140496 -4.33871e-21)
(1.02283 0.00172429 -3.57814e-21)
(1.03431 0.00934896 2.05829e-21)
(0.943996 0.126894 4.23139e-21)
(-0.188661 0.0105777 5.28033e-20)
(0.997943 0.0152935 4.32333e-22)
(1.02523 9.41371e-05 -2.23971e-21)
(0.991505 0.00211748 -6.03657e-21)
(0.984438 0.0139197 0)
(1.01662 0.00241207 2.0759e-21)
(1.07359 0.0782188 7.7757e-22)
(0.804111 0.485806 0)
(0.157818 -0.0172808 1.15944e-20)
(1.21942 0.28449 -4.76501e-20)
(0.0172263 0.00794135 0)
(1.19856 0.114142 0)
(-0.0934495 -0.0218749 -1.89309e-22)
(0.787939 0.492023 -2.08726e-20)
(0.422919 0.207597 -4.3417e-20)
(0.706199 0.35642 -2.51772e-20)
(1.03063 0.0527672 3.89726e-21)
(1.07839 0.0164628 1.37446e-20)
(0.20551 0.074607 -9.30578e-20)
(1.02566 0.000554222 -2.33909e-21)
(1.15962 -0.018692 1.88017e-20)
(1.14351 0.0665131 -1.48041e-20)
(1.00487 0.04907 5.38325e-21)
(-0.245988 0.00825559 8.67257e-20)
(-0.0221697 -0.00448073 -2.02106e-20)
(1.06286 0.00171187 0)
(0.678551 -0.0920151 0)
(0.550173 -0.111129 2.22715e-20)
(0.993561 0.00766467 -5.08092e-21)
(1.00439 0.0481524 -9.25463e-24)
(0.580929 -0.119572 0)
(1.12111 -0.0546121 4.68265e-21)
(0.845936 0.041169 -1.52887e-20)
(0.926999 0.172228 -7.83995e-21)
(1.02373 0.0116381 0)
(0.297206 -0.0157503 1.01388e-20)
(0.89564 0.0966596 -1.89021e-20)
(1.10256 -0.0102779 -1.56379e-20)
(1.04014 0.0058851 0)
(1.12844 -0.0616001 1.9861e-20)
(0.964417 0.173474 0)
(1.31204 0.152708 2.62913e-20)
(1.08942 0.0214787 2.83537e-20)
(-0.0932092 -0.026876 -2.49273e-20)
(1.00005 6.01326e-05 2.78557e-22)
(0.121649 0.00672699 -5.10008e-21)
(1.06166 0.00221942 0)
(1.09773 -0.0213407 -2.28261e-20)
(1.02336 0.00263664 -2.25959e-21)
(0.999352 0.00341366 -1.01498e-21)
(1.01695 0.00265674 -2.3692e-21)
(1.02091 0.0403784 0)
(0.354337 -0.019161 5.27158e-20)
(1.01244 0.00817965 -8.48721e-22)
(1.00008 0.00125127 3.23522e-23)
(1.00004 0.000400815 0)
(0.40063 -0.0660613 4.01811e-20)
(1.00943 0.0220825 6.15609e-22)
(1.00509 0.0473079 -2.42654e-21)
(0.975356 0.0464772 -5.298e-21)
(1.08945 0.254646 1.55521e-20)
(-0.0444943 -0.0100386 -2.645e-21)
(-0.0078322 0.0137492 -1.00197e-19)
(1.09654 0.557177 -7.19356e-20)
(1.00687 0.0172241 1.2824e-21)
(1.21428 -0.0115346 -1.90458e-20)
(-0.236689 -0.00178536 -9.17276e-21)
(0.85254 -0.0850962 -2.60161e-20)
(1.01667 0.00225804 -2.02617e-21)
(0.98579 0.0133476 0)
(1.07016 0.516217 3.10907e-20)
(0.42611 -0.0334862 1.41885e-20)
(-0.31653 -0.00188362 0)
(0.628623 -0.048543 0)
(1.02335 0.00321154 -9.67926e-22)
(0.424118 -0.0643655 7.77911e-20)
(0.13673 0.0311708 -6.01468e-20)
(0.159139 -0.951582 0)
(1.11374 -0.0505238 -1.68423e-20)
(0.0456814 0.0577348 8.33777e-20)
(0.208202 -0.0294349 -9.09033e-20)
(1 8.42018e-05 0)
(0.949794 0.0237205 1.17184e-20)
(1.14441 -0.065367 -1.63022e-20)
(1.03508 0.0044635 -4.10319e-21)
(1.3071 0.156101 6.56857e-21)
(0.0869925 0.000383184 -3.53343e-21)
(0.662582 -0.0668071 0)
(1.14617 -0.0654896 -2.88829e-20)
(0.797771 -0.058963 0)
(1.02992 0.301485 -3.78742e-21)
(0.999448 0.00327923 0)
(0.987789 0.056441 0)
(1.07405 0.0763712 0)
(0.219857 -0.0281182 -5.72509e-20)
(1.15317 0.036102 2.35951e-20)
(1.00891 0.0218609 -1.3092e-21)
(1.01969 0.0186703 1.47067e-21)
(-0.245868 -0.00641392 -7.46478e-20)
(1.0306 0.015267 -3.38895e-21)
(1.03963 0.00615938 -1.18158e-21)
(0.824698 -0.07198 7.70052e-21)
(1.07605 -0.0192641 7.42711e-21)
(-0.255573 0.00211684 0)
(1.02294 0.00256608 1.85765e-21)
(1.00692 0.0108325 0)
(1.15765 -0.0172822 3.15845e-20)
(0.96485 0.0216055 7.3288e-21)
(0.997052 0.0163189 -2.4086e-21)
(0.999992 0.000170119 0)
(0.360981 -0.0639828 -5.85078e-21)
(1.00509 0.0218783 3.34936e-21)
(0.985419 0.0214164 1.2814e-22)
(1.17087 -0.0491256 -1.35931e-20)
(0.97504 0.0227512 0)
(1.1489 -0.0538227 1.06321e-20)
(1.04245 0.0418758 -2.73811e-21)
(1.10355 -0.0114223 1.74787e-20)
(1.02223 0.000677707 -1.73884e-21)
(0.975691 0.0233611 -1.27181e-20)
(0.991697 0.00296727 0)
(1.0931 0.0899143 1.66661e-20)
(1.14308 -0.0511031 0)
(0.99932 -0.000377861 4.13806e-21)
(1 8.91737e-05 0)
(-0.265259 0.00446944 -2.59845e-20)
(0.669229 -0.0877231 -1.73698e-20)
(0.766631 0.249082 0)
(1.03122 0.0515541 -2.34479e-21)
(0.17544 0.674963 0)
(-0.0733754 0.00658451 0)
(-0.190955 -0.00629802 -7.75202e-20)
(0.423984 -0.0331259 4.56706e-23)
(0.32212 -0.0394407 -4.56449e-21)
(0.795992 0.0570871 0)
(1.06262 0.0137975 0)
(1.0052 0.0127099 -1.99831e-21)
(-0.126788 0.0235045 0)
(1.02349 0.0030502 1.20955e-21)
(1.00062 0.000153574 -5.84881e-22)
(1.21369 0.00727363 8.16503e-21)
(1.00446 0.0042049 0)
(1.16448 0.353232 0)
(0.960284 0.0194926 -1.52386e-20)
(0.239585 -0.0203742 -8.65324e-23)
(0.333085 -0.0425778 0)
(1.08313 0.0158983 -8.46068e-21)
(1.16185 0.209181 -3.00773e-20)
(1.01316 0.0408922 -7.37097e-22)
(0.923725 -0.00757856 1.23781e-21)
(1.00507 0.00365471 0)
(-0.115895 -0.00946948 -7.41232e-21)
(0.171645 -0.0199034 0)
(1.11328 -0.0500474 1.36797e-20)
(1.01738 0.0380731 -1.2201e-22)
(1.00791 0.0244826 2.54799e-21)
(0.962407 -0.00756158 1.80291e-21)
(0.420643 -0.0958375 0)
(0.343229 -0.0426874 0)
(1.14525 0.104661 1.17103e-20)
(-0.268388 0.00368054 0)
(1.08661 0.0563007 2.25827e-20)
(0.834468 0.0569365 -1.31674e-20)
(1.01191 0.00689923 -9.48238e-22)
(1.00468 0.00431458 4.34425e-22)
(0.999245 -0.000285543 -2.85709e-21)
(1.14084 0.069006 0)
(0.996566 0.00163605 2.85784e-21)
(1.03256 0.0154588 2.37882e-21)
(0.331571 -0.03933 -9.60332e-21)
(0.959496 0.00465968 -1.34452e-20)
(1.08789 0.154379 -6.46715e-21)
(1.19693 0.374802 -4.64419e-20)
(1.10422 -0.0582574 0)
(0.077537 0.025056 2.22498e-20)
(1.06883 -0.00575199 9.93829e-21)
(0.908459 -0.0857123 0)
(1.01342 0.00925605 3.38068e-23)
(1.17564 0.250841 3.17379e-20)
(-0.116626 -0.0234596 -2.84987e-20)
(1.24906 0.271417 0)
(0.234249 0.00730958 2.2696e-21)
(-0.146458 -0.0100915 -3.09294e-20)
(0.955927 0.115275 -1.94208e-21)
(1.02193 0.000609398 -1.59097e-21)
(1.01897 0.0407532 0)
(0.958006 0.00501767 -1.82206e-20)
(-0.0287599 -0.00106472 0)
(-0.161113 -0.00849781 2.10415e-20)
(1.19952 0.109891 0)
(-0.249678 0.0048902 0)
(1.03457 0.182274 0)
(0.474263 -0.0369832 -6.84707e-21)
(0.927632 0.851683 3.88355e-20)
(0.0749516 -0.0284029 7.70977e-21)
(0.996794 0.00167892 8.7242e-22)
(1.17188 -0.0107735 -3.23828e-22)
(1.01459 0.0376639 3.94221e-22)
(0.0315568 -0.0292647 -1.75818e-20)
(1.03017 0.0113654 -1.74935e-21)
(0.449873 -0.0340275 -3.57232e-21)
(1.23638 0.101985 4.79533e-20)
(-0.160415 0.0138205 -1.0029e-19)
(0.994627 0.0138091 5.58928e-22)
(-0.240561 0.00283083 0)
(0.333011 0.104286 -8.41599e-20)
(1.18231 0.0694602 0)
(1.01202 0.000633205 -9.57634e-22)
(1.08762 -0.0231079 1.63195e-20)
(-0.251415 0.00369961 -5.00964e-20)
(1.02965 0.0116475 1.98379e-21)
(0.929567 -0.0126373 8.75244e-21)
(1.14532 -0.0380612 0)
(0.469354 -0.0370403 -7.6782e-21)
(0.0543041 0.00719911 4.2123e-21)
(1.019 0.0153785 0)
(0.813851 0.176749 2.01508e-20)
(0.698195 -0.15583 0)
(0.826073 -0.0611669 3.28738e-21)
(1.00526 0.00395354 4.68596e-22)
(0.661468 -0.0502002 7.32703e-21)
(1.01139 0.00744046 3.66988e-22)
(0.999439 0.00352844 -8.81774e-21)
(1.14648 -0.0396241 0)
(1.07217 0.534493 -6.61393e-20)
(1.04121 0.0417277 -1.39921e-21)
(0.995294 0.0157187 2.51752e-21)
(0.981536 0.00269875 6.38807e-21)
(1.23501 0.0976172 2.57815e-22)
(1.06023 -0.00994417 -1.43536e-20)
(1.03177 0.0218094 -1.53967e-21)
(1.28077 0.159471 0)
(1.0015 0.0263281 -2.49854e-21)
(1.2443 0.266306 0)
(-0.164653 0.0230769 -1.30501e-19)
(-0.353257 -0.000361953 0)
(1.06848 0.0138426 0)
(1.0177 0.0231207 0)
(1.06255 0.0149213 4.43024e-21)
(1.01684 0.0175943 -7.49741e-22)
(0.435604 -0.106904 0)
(0.438192 -0.0558551 -6.05167e-20)
(1.0092 0.0109768 0)
(1.16197 0.205563 2.82109e-20)
(1.03494 0.0323448 -5.03515e-21)
(1.03045 0.0146978 3.24022e-21)
(0.973994 0.0474214 0)
(1.01457 0.0314191 -3.92128e-22)
(-0.0710046 0.00861738 2.56516e-20)
(1.01083 0.00205842 -1.50217e-21)
(1.15106 -0.0538723 -2.58784e-20)
(1.29286 0.268372 1.44329e-22)
(0.288804 -0.0668331 1.78379e-20)
(1.02044 0.00161748 -1.36279e-21)
(1.03335 0.0218198 -1.07038e-21)
(1.03426 0.0224195 -3.86547e-21)
(-0.166277 -0.00730024 0)
(1.01307 0.0088974 -4.81923e-22)
(0.987032 0.512965 0)
(1.02196 0.000348036 3.4697e-21)
(1.14151 -0.0507689 0)
(1.16539 0.169232 0)
(-0.260419 0.0068146 -3.88122e-20)
(1.06209 0.0286366 -2.44119e-21)
(0.958716 0.019903 7.24927e-21)
(1.04007 0.0214816 7.9009e-21)
(1.03233 0.292009 1.97665e-21)
(0.996078 0.014327 -3.93673e-21)
(1.11485 -0.0507338 1.45426e-20)
(0.929444 0.0396458 -5.20346e-21)
(0.89539 0.0923 2.21465e-20)
(0.999527 0.0034008 8.45158e-21)
(0.984593 0.0216967 -6.69756e-21)
(0.999992 0.000189793 2.37525e-22)
(1.03593 0.0222644 0)
(-0.252679 -0.00846329 -1.48709e-19)
(0.638727 -0.245568 0)
(1.10873 -0.0403442 -9.26703e-21)
(-0.262329 -0.00151427 -2.16609e-20)
(0.377218 -0.498401 0)
(0.999411 0.0242183 1.85675e-21)
(1.11409 -0.0652153 -8.09413e-21)
(0.978522 0.018539 1.17553e-20)
(1.00775 0.0315185 1.33111e-21)
(0.768107 0.240135 3.4189e-20)
(1.05168 0.0462801 7.81737e-21)
(0.99936 0.00310244 1.08116e-21)
(0.353745 -0.031819 -1.51069e-20)
(1.31425 0.0922176 -8.87975e-21)
(0.205046 -0.0111447 0)
(1.09451 -0.0395388 -2.00992e-20)
(0.495648 0.104014 0)
(1.0017 0.000328743 9.12507e-22)
(0.996652 0.000445595 0)
(1.10278 -0.0587138 -2.17384e-20)
(-0.151379 0.0140356 8.93865e-20)
(0.996729 0.0021038 7.47293e-21)
(0.909704 0.0307629 0)
(1.16876 -0.0103381 -1.74256e-20)
(1.07661 0.018474 -6.99679e-21)
(1.03193 0.0151234 -4.20929e-21)
(1.03073 0.129854 -5.56019e-21)
(0.994656 -0.0627071 0)
(0.394366 -0.0660888 1.20962e-20)
(0.984538 -0.060308 4.58361e-21)
(0.241498 0.00881978 0)
(1.00487 0.00429408 -3.84391e-22)
(0.300165 -0.0231704 -5.86499e-20)
(1.02934 0.00986734 0)
(1.11878 -0.0544883 1.68672e-20)
(1.08387 -0.00407704 -1.03359e-20)
(-0.138113 0.0270446 -6.4836e-23)
(0.999997 0.000131961 0)
(1.00465 0.0220399 0)
(1.06175 0.0770572 7.71553e-21)
(1.05971 0.00535228 -6.61297e-21)
(0.960122 0.169732 0)
(0.999577 0.0248809 2.22561e-21)
(0.99678 0.0159795 1.06527e-21)
(0.683209 -0.113903 2.81875e-20)
(0.993158 0.00767226 6.57783e-21)
(1.00779 0.0418305 1.16083e-22)
(1.17098 -0.0465398 2.39779e-20)
(1.02482 -0.0839904 2.0262e-23)
(1.0921 -0.03777 1.36657e-20)
(-0.176274 0.0103004 0)
(1.19704 0.101829 -2.83161e-20)
(0.605704 0.119943 4.37883e-20)
(1.21028 0.00674235 0)
(1.00796 0.0306612 0)
(0.856071 0.0957757 -2.65779e-20)
(-0.0405505 -0.0086716 2.54547e-21)
(1.06813 0.0318698 -1.00455e-20)
(0.995803 0.0139746 -4.77906e-21)
(1.03317 0.132545 7.62774e-21)
(1.06843 -0.00494866 -1.12272e-20)
(0.750904 -0.0816982 2.55602e-20)
(1.054 0.0227543 1.99483e-22)
(0.991306 0.00261479 0)
(1.00489 0.00411024 5.74341e-22)
(-0.300935 -0.00169389 6.44566e-20)
(0.44976 -0.0344849 7.33085e-21)
(1.05414 0.0234452 0)
(1.00718 0.00826443 1.13777e-22)
(0.642492 0.133336 -6.58424e-20)
(0.999273 0.00294017 4.70882e-21)
(0.931452 -0.0588005 0)
(0.999339 0.00330612 5.29484e-22)
(1.03082 0.0363412 -2.04891e-21)
(1.06751 0.0144786 -6.19151e-22)
(1.2437 -0.034098 1.40405e-20)
(1.01201 0.039097 8.02709e-22)
(1.02169 0.000267283 0)
(0.839397 -0.0609027 -1.50304e-20)
(0.994722 0.00554007 0)
(1.13176 0.00728711 1.62992e-20)
(0.142049 -0.0144343 -7.47678e-21)
(0.638021 -0.258355 0)
(0.997951 0.0119364 0)
(0.0610466 0.00921272 4.24882e-21)
(1.19526 0.367537 4.78158e-20)
(0.61352 0.127757 0)
(-0.0645529 0.00835287 0)
(0.340977 1.19459 -4.75328e-21)
(1.01985 0.0678328 1.07516e-22)
(1.00018 0.172166 2.09815e-21)
(1.01639 0.0020245 0)
(1.10715 -0.0721567 -1.84361e-20)
(0.996921 0.00219336 -6.85527e-21)
(0.894261 0.331393 -3.8979e-21)
(1.00997 0.0308526 0)
(1.08265 -0.00328885 2.07929e-20)
(0.231865 -0.00171809 3.13833e-21)
(0.362004 -0.0410332 0)
(1.00694 0.00792803 2.37608e-22)
(0.986455 0.0136603 -4.81516e-21)
(0.746156 -0.0896386 -3.96361e-20)
(0.965447 0.0205156 -2.15375e-21)
(1.03993 0.0207633 -3.56014e-21)
(1.01 0.0243156 0)
(1.01057 0.001898 1.63337e-21)
(1.19258 0.0267799 4.03625e-22)
(1.09905 0.00321018 -1.9874e-22)
(0.115745 0.65759 2.85921e-21)
(1.28472 0.30944 5.3181e-20)
(1.01288 0.00149084 -1.35577e-21)
(1.05746 0.29716 -1.19901e-20)
(0.234258 -0.0152415 1.04634e-20)
(0.907053 0.0296962 0)
(1.057 0.0116136 8.11861e-23)
(1.02013 0.00163122 3.30214e-23)
(1.00007 0.000749274 4.41991e-22)
(0.973297 -0.0788634 0)
(1.21788 -0.0126681 0)
(1.05788 0.15732 4.45894e-21)
(-0.236544 0.00489862 4.5167e-20)
(0.678041 -0.0510248 -2.98692e-21)
(0.992661 0.0124223 0)
(-0.282568 -0.00250624 -1.24339e-20)
(1.01889 0.0104859 0)
(0.722639 0.721096 0)
(1.05945 0.116707 -6.34477e-21)
(1.01032 0.0239208 -5.27478e-22)
(0.923677 0.000793454 0)
(1.00232 0.0198517 0)
(1.07832 0.017857 1.37531e-20)
(-0.174564 0.00978725 0)
(-0.27565 0.00237795 3.2057e-20)
(0.898254 0.00247839 -4.20957e-20)
(-0.288933 -0.002414 0)
(0.640733 -0.0545934 0)
(1.11444 -0.0502406 -6.77976e-21)
(0.997606 0.0121341 0)
(0.997431 0.0117712 0)
(0.281602 -0.00621323 -2.67096e-20)
(0.962979 0.213373 -3.63202e-21)
(0.999937 0.000255692 -7.77919e-21)
(1.13455 0.090379 -1.19865e-20)
(1.01279 0.125522 1.5627e-22)
(-0.232865 -0.00019604 0)
(1.09091 -0.0472261 -6.39132e-21)
(-0.0733361 -0.025822 3.45843e-20)
(0.900071 0.000792926 4.23012e-20)
(1.0123 0.0414423 9.89364e-22)
(0.421791 0.929278 0)
(0.992333 0.0122266 7.33461e-21)
(0.995341 0.00661287 4.38358e-21)
(0.931825 0.0177927 -8.02061e-21)
(0.945721 -0.0831765 1.36163e-20)
(1.00865 0.0110527 2.76304e-22)
(-0.158412 0.0133238 0)
(0.931791 0.0392061 0)
(0.249782 -0.251634 1.32532e-19)
(0.721415 0.348491 -1.17257e-20)
(-0.111589 0.00580681 3.45324e-20)
(1.02534 0.000643986 8.32242e-22)
(0.998081 0.0122498 0)
(0.215872 -0.0128261 0)
(1.15155 0.0339488 -1.29448e-20)
(0.996274 0.00631624 0)
(1.15224 0.0848745 0)
(1.05052 0.0469416 4.33446e-21)
(1.00527 0.0282453 0)
(1.01906 0.0201611 1.95405e-21)
(-0.191811 -0.0104196 0)
(1.13857 0.0223488 -2.45377e-20)
(1.24211 -0.031103 0)
(1.02545 -0.0616949 0)
(0.251177 -0.298095 5.82644e-20)
(1.0184 0.0232202 -4.93219e-22)
(0.339777 -0.0451437 1.02864e-20)
(0.967954 0.210264 -6.81136e-21)
(1.00562 0.0310205 0)
(0.591736 -0.135173 -1.20669e-19)
(0.043045 0.00838727 -1.90677e-20)
(1.00303 0.00427686 1.00195e-21)
(0.97324 0.00545488 -4.57734e-21)
(1.00759 0.0112144 -2.15338e-22)
(0.638771 -0.0504933 1.30131e-20)
(1.03755 0.0134998 2.6177e-21)
(1.01644 0.00185102 0)
(1.02704 0.0071571 0)
(1.01808 0.0374259 -4.30825e-24)
(0.996098 0.499957 -3.09509e-21)
(1.03625 0.0127921 0)
(-0.245845 0.00628578 0)
(1.10927 -0.00935214 -2.21276e-20)
(0.998664 0.0232907 -8.39617e-23)
(1.10961 -0.0409356 4.11849e-23)
(1.13955 0.0201471 2.09449e-20)
(0.104068 -0.0179365 3.80286e-21)
(0.0129722 -0.0260283 -1.11257e-20)
(0.233965 0.00888441 -3.16699e-21)
(1.01189 0.037868 -1.30413e-21)
(1.01692 0.00662478 1.13474e-21)
(1.01302 0.00124607 -6.73775e-22)
(0.106788 0.00614338 -6.69781e-20)
(1.01119 0.00448432 0)
(0.0562258 -0.02516 -1.79319e-20)
(1.29956 0.0892774 2.85172e-20)
(0.86202 0.243309 0)
(-0.309193 -0.00131135 3.64534e-20)
(0.189726 -0.00424958 -1.37215e-20)
(0.994635 0.0467339 0)
(0.990258 0.00143822 -3.63269e-21)
(0.18676 -0.00885784 -2.29016e-20)
(1.0996 -0.0515148 1.02602e-20)
(1.01078 0.0105311 -1.25611e-22)
(1.00042 7.24987e-05 -9.77318e-22)
(0.780065 0.0488938 -5.08453e-20)
(1.10035 -0.061064 0)
(0.798202 -0.0633502 0)
(-0.262328 0.000602052 -1.33198e-20)
(0.531371 -0.631022 0)
(1.02052 0.0736522 3.18513e-22)
(0.303027 -0.346775 9.28081e-20)
(-0.172399 -0.00356811 7.22687e-20)
(1.00938 0.000522532 5.52861e-22)
(0.0840584 -0.00878402 -3.3085e-20)
(0.375968 -0.0429784 5.28242e-21)
(1.15067 0.0498234 1.91518e-23)
(0.197385 0.760307 0)
(0.8945 0.128706 -2.81436e-20)
(0.930745 0.0192256 -5.25343e-21)
(1.11395 0.186932 -1.75972e-20)
(1.00529 0.0148077 -7.2057e-22)
(0.679862 -0.0394696 6.41434e-21)
(1.01107 0.0120193 0)
(1.08934 0.0120157 5.98397e-21)
(0.83527 0.012288 -1.96711e-20)
(0.757001 0.230783 -4.28923e-20)
(1.19473 0.276761 -7.19774e-21)
(1.09874 -0.0517979 -8.87616e-21)
(-0.0735393 -0.0193367 -1.03483e-20)
(1.06645 0.031997 -2.307e-21)
(-0.303885 0.00350544 3.55417e-20)
(1.00003 0.000320777 1.31766e-21)
(1.00475 0.0667671 -1.6849e-21)
(1.03207 0.126493 -5.07511e-22)
(0.630546 0.14878 -3.85613e-20)
(0.996358 0.0113403 3.50114e-21)
(0.88541 0.323138 -4.4084e-21)
(1.01125 0.000538419 1.23385e-21)
(1.1334 0.0085649 0)
(0.867733 0.236132 9.45042e-21)
(1.00724 0.0175881 -7.80903e-23)
(0.993759 0.00923863 -5.8816e-21)
(1.10386 0.0730271 -9.52531e-21)
(0.566006 -0.001116 -1.23656e-19)
(1.08932 -0.0393728 8.99371e-21)
(1.2439 0.308454 -9.48861e-21)
(1.04331 0.0786217 0)
(0.680867 -0.0551954 -7.22291e-21)
(1.01699 -0.062459 0)
(1.11299 -0.066197 -9.42897e-23)
(1.00459 0.0280586 4.00751e-22)
(0.873218 0.168691 -2.90456e-20)
(1.27653 0.155874 0)
(0.130671 -0.0191817 5.70464e-21)
(1.04143 0.0791892 0)
(1.00859 0.0120138 -2.50552e-22)
(0.262188 -0.281994 0)
(1.12832 -0.0406584 2.78152e-20)
(0.99605 0.0159035 0)
(0.273455 -0.356321 -5.0272e-20)
(0.999943 0.000481055 -4.21786e-21)
(0.447639 0.71455 0)
(0.732104 0.679631 0)
(0.999915 9.39692e-05 2.66515e-21)
(1.00552 0.0146489 1.93121e-21)
(1.14236 0.33785 0)
(1.11221 -0.0715079 0)
(1.03052 0.0836487 -1.57854e-21)
(1.08485 -8.68262e-05 9.97258e-21)
(-0.273702 0.00362854 3.90258e-20)
(0.999965 0.000363526 -4.29694e-21)
(1.0198 0.06587 0)
(-0.30666 -0.00126981 0)
(0.952276 0.0300285 2.38877e-20)
(1.18579 0.0709184 0)
(1.00247 0.0202961 -9.3962e-22)
(1.03037 0.000652662 0)
(1.01956 0.0241268 -3.14657e-23)
(-0.0119568 -0.00814387 -1.18251e-22)
(1.08577 -0.0200383 -2.78132e-21)
(0.998726 0.00117466 -2.4115e-21)
(0.138749 0.00717311 -1.9121e-21)
(1.008 0.0178302 -5.14106e-22)
(1.06934 -0.0215136 6.23753e-21)
(0.121627 -0.0205326 -1.35688e-20)
(0.999463 -0.000318058 9.29582e-21)
(0.427698 -0.031327 6.77032e-21)
(1.12343 0.0330157 -3.05202e-21)
(1.01969 0.0202756 -1.64422e-21)
(0.949499 0.0220966 -1.15511e-20)
(1.01584 0.00589297 -9.24855e-22)
(-0.305502 0.00145319 0)
(-0.229103 -0.0068531 4.10891e-20)
(0.916395 -0.058483 0)
(1.03898 -0.00372662 0)
(-0.259654 0.00133879 1.24843e-20)
(-0.241492 -0.00106786 0)
(1.0155 0.00561913 -9.33619e-22)
(0.0929714 0.0112126 -4.13279e-21)
(0.952295 0.208433 -1.13722e-21)
(1.00001 0.000460308 0)
(1.01233 0.00848305 1.3221e-21)
(1.00695 0.040939 0)
(1.03241 0.0833247 4.4226e-21)
(-0.337345 -0.00086125 0)
(1.01025 0.0106983 0)
(0.999953 7.9294e-05 0)
(0.758199 0.220247 -1.87556e-20)
(1.02988 -0.0765686 2.08488e-21)
(0.999259 0.00315275 -6.15639e-21)
(-0.271864 0.0052197 -4.74307e-20)
(0.191289 -0.0226322 1.08014e-20)
(0.115229 -0.039244 3.63994e-20)
(1.0304 0.000278598 0)
(1.06355 0.0289449 0)
(0.999989 0.00018848 0)
(1.02189 0.0704681 1.02184e-21)
(1.1846 0.0233671 1.06202e-20)
(1.00489 0.012403 1.95831e-21)
(0.990421 0.0660319 4.65558e-21)
(1.00001 0.000344508 0)
(1.07648 0.0198507 1.42568e-20)
(1.03813 0.0843074 -3.57907e-21)
(0.866001 -0.0739374 -1.53855e-20)
(1.23229 0.292651 0)
(1.13133 -0.0619202 0)
(0.991738 0.125382 0)
(0.866222 0.167313 1.55229e-20)
(1.09288 -0.0222007 2.35865e-21)
(1.03257 0.022306 1.12021e-21)
(1.02864 0.011742 9.63338e-22)
(1.01606 0.0313114 -3.71673e-24)
(0.933774 0.445504 -9.65676e-22)
(0.671614 -0.044755 3.39322e-20)
(1.00496 0.160086 5.305e-20)
(0.114021 -0.0161582 2.98828e-20)
(0.0377017 -0.00808576 3.41833e-20)
(1.01066 0.0108398 1.09004e-22)
(0.263386 -0.00342994 2.74536e-20)
(1.01909 0.021713 1.78934e-21)
(0.998927 0.00205223 0)
(0.0929072 -0.443316 -1.39895e-19)
(1.00383 0.0144433 -1.66765e-21)
(-0.216743 0.00204 6.90801e-20)
(1.12347 -0.0813648 -3.9078e-20)
(-0.220957 -0.000558083 4.90095e-20)
(-0.303928 -0.00283731 0)
(0.16332 0.00458384 0)
(0.99293 0.0169223 -1.70614e-21)
(0.956066 0.212269 1.1743e-21)
(0.259672 -0.230475 -1.06171e-19)
(1.11429 0.0392772 5.33539e-21)
(0.17766 -0.00780195 3.47545e-20)
(0.607868 -0.193146 -4.23303e-20)
(1.01221 0.0115549 3.37569e-22)
(0.460036 -0.0349711 0)
(0.991064 2.45612e-05 4.19233e-21)
(0.246653 -0.0171641 -9.85463e-21)
(-0.101519 0.00733972 -2.65649e-20)
(0.994279 0.0455056 5.23804e-21)
(1.02731 0.00372603 4.88328e-21)
(0.446465 -0.0338878 -1.12648e-20)
(1.01179 0.0087342 -7.61805e-22)
(1.02397 0.0489597 0)
(1.07779 0.565333 5.10857e-20)
(1.11623 -0.0543746 -1.80944e-20)
(-0.151483 -0.016263 0)
(0.966106 -0.0847397 4.93214e-22)
(0.993153 0.0173845 -2.89317e-23)
(1.08952 0.0106303 0)
(0.98662 0.0575765 -4.27564e-21)
(0.761074 0.0907076 -4.96057e-22)
(1.0281 0.0117978 8.76904e-22)
(0.297702 -0.0095721 -1.06038e-20)
(1.12469 0.0313717 4.19066e-22)
(1.00101 0.0263487 2.3072e-21)
(-0.257196 -0.000847709 0)
(-0.215002 0.00357054 0)
(1.1042 -0.0598976 5.82273e-21)
(1.08703 -0.0203034 -3.04544e-21)
(0.994086 0.00876259 3.24903e-22)
(0.995082 0.0047582 -2.19285e-21)
(1.11545 -0.0554027 1.04616e-20)
(1.08352 0.153808 4.21808e-22)
(1.04826 0.0648293 7.45854e-21)
(1.10872 -0.055374 1.68601e-21)
(0.312001 -0.0125648 0)
(1.1177 0.270084 0)
(1 7.90176e-05 -1.29441e-21)
(0.995408 0.00528278 4.31905e-21)
(1.14944 0.0868545 0)
(1.03678 0.0134761 -4.95498e-21)
(0.430947 -0.0514724 1.61382e-20)
(1.23452 0.105312 -4.4113e-20)
(0.0822452 -0.761088 0)
(0.945897 0.024523 2.7012e-21)
(0.307783 0.827647 -9.79368e-21)
(1.01323 0.0317619 4.22953e-22)
(0.394122 -0.0353123 -2.23506e-20)
(1.03128 0.178633 0)
(0.0684897 0.00346728 1.00394e-19)
(0.882184 0.177852 0)
(-0.260531 -0.00329368 7.27182e-20)
(0.942402 0.00526394 4.80613e-22)
(1.10688 0.0379576 2.45942e-20)
(-0.311905 -0.000504598 3.25886e-20)
(1.06621 0.0136216 -1.74679e-22)
(0.567616 -0.0152264 8.67254e-20)
(1.1236 -0.0550946 -9.16452e-21)
(0.992076 0.0659357 0)
(1.09814 -0.0532672 0)
(1.09286 -0.0386465 5.21336e-21)
(0.0407227 0.00951851 4.7141e-21)
(0.891731 0.0422818 -1.67907e-20)
(1.01096 0.00420736 7.25112e-22)
(0.0489693 -0.0187538 -1.54096e-20)
(0.99858 0.00110458 0)
(1.04011 -0.00252052 0)
(1.16907 0.249596 -3.44884e-20)
(-0.325759 -0.00344994 0)
(1.09997 -0.0603105 0)
(-0.332111 -0.000886221 0)
(1.0163 0.124064 0)
(1.00048 0.00342625 -2.07959e-21)
(0.273152 -0.0157083 0)
(1.14917 -0.0679522 3.44902e-20)
(1.00013 0.00203369 -1.49618e-22)
(0.853157 -0.0745671 0)
(1.1564 0.00431019 1.53219e-20)
(-0.0618937 -0.022249 5.43615e-21)
(1.00907 0.0112398 1.94521e-22)
(0.952418 0.0316656 -2.3938e-20)
(1.14754 0.0499624 -4.20519e-23)
(1.01268 0.0312867 0)
(0.802016 0.145391 -2.50057e-20)
(1.01934 0.0213034 -1.27904e-21)
(0.898024 0.137107 1.09771e-20)
(-0.272634 0.00340216 2.00404e-21)
(0.255318 -0.0533428 -1.90223e-20)
(0.923832 0.00342262 0)
(0.875301 0.177634 -1.51749e-20)
(0.432855 0.774069 -1.1779e-20)
(0.992731 0.0439403 0)
(1.00391 0.0140183 1.57822e-21)
(1.00686 0.0226514 2.00602e-21)
(1.17258 0.200533 3.40479e-20)
(1.15098 -0.0680295 -2.4313e-20)
(1.04846 0.0254135 6.82182e-21)
(1.00191 0.00784931 -1.69827e-21)
(1.05941 0.155062 -4.16456e-21)
(1.11277 0.00329536 0)
(0.345441 -0.0714971 2.65867e-20)
(0.850201 0.0979796 2.20013e-20)
(0.897524 0.402604 3.99806e-21)
(0.346272 -0.47139 0)
(0.381559 0.302751 0)
(0.974858 0.0245448 -1.18099e-22)
(0.371863 -0.0332022 1.16483e-20)
(0.178056 0.00776123 0)
(1.09131 0.0876028 0)
(-0.210787 0.0057472 -4.92311e-20)
(0.996322 0.0162828 3.73443e-23)
(1.04776 0.0638541 2.46543e-21)
(0.490753 0.916043 2.99183e-21)
(1.00685 0.00732547 4.8072e-22)
(0.828928 0.0674178 5.15782e-20)
(0.807626 0.804994 0)
(-0.0139831 -0.0136779 2.57846e-21)
(0.952014 0.115071 2.19392e-21)
(0.136492 -0.00559214 0)
(1.07601 0.0491694 0)
(0.874388 0.1189 0)
(1.00292 0.00403562 -1.00241e-21)
(-0.178205 -0.0136997 0)
(1.11934 -0.0140903 2.26776e-20)
(-0.292804 -0.00340735 0)
(0.994004 0.123517 3.05639e-21)
(1.00193 0.00773711 1.70552e-23)
(1.06902 0.0332021 0)
(1.00748 0.0121489 0)
(1.20379 -0.0239755 2.99014e-20)
(1.11034 -0.0551036 1.51949e-20)
(1.14684 0.0416043 0)
(1.23008 0.106258 3.76556e-20)
(1.16729 0.200521 -3.24129e-20)
(1.07497 0.0480215 4.34303e-21)
(1.30762 0.275426 -4.05533e-20)
(1.05759 0.355099 1.40583e-20)
(1.13923 -0.045891 0)
(1.23076 0.3349 -1.53961e-22)
(0.995616 0.170331 2.23268e-21)
(1.20036 0.12352 -5.92254e-20)
(-0.323169 -0.000549968 0)
(0.991525 0.00343702 0)
(1.00006 5.18824e-05 6.96752e-22)
(0.97568 0.214007 2.46242e-21)
(0.902218 0.139725 -5.53303e-21)
(0.976027 -0.0685747 0)
(0.855544 0.117307 -3.66221e-21)
(1.01297 0.00724361 1.14931e-21)
(1.20618 -0.0195227 4.52682e-22)
(1.0151 0.0359342 0)
(0.945099 -0.000786264 0)
(1.02001 0.0412881 0)
(1.00011 0.00134982 3.50277e-23)
(1.00003 0.000919994 0)
(1.05946 0.0319368 -8.9754e-21)
(1.00007 0.00141005 2.54826e-21)
(1.09493 -0.021684 -7.75968e-21)
(1.00764 0.0186186 -7.26692e-23)
(0.850123 0.0378007 4.186e-20)
(-0.207513 -0.00847914 -8.91229e-20)
(0.0602752 0.0374082 -1.85461e-19)
(1.04127 0.0226819 9.43103e-21)
(1.00181 0.00694631 -6.45854e-22)
(0.156724 7.79773e-05 0)
(1.03399 0.0317003 2.48395e-21)
(1.12717 -0.0404522 -2.01566e-20)
(1.01886 0.0108775 0)
(1.15316 0.339583 1.02486e-20)
(1.09297 -0.0407473 0)
(0.0648645 -0.0186138 -1.638e-20)
(0.673804 -0.10561 0)
(1.01408 0.0319643 0)
(1.03042 0.0436824 2.84572e-21)
(0.783581 0.0908699 2.39532e-20)
(1.1519 0.0578706 7.26935e-21)
(0.999961 0.000250251 1.99101e-21)
(1.25503 0.237799 6.76473e-20)
(1.00002 0.000183564 2.87918e-22)
(1.0571 0.274724 -4.21487e-22)
(0.998796 0.00146849 0)
(1.02269 0.0484799 7.54581e-22)
(0.125116 0.144904 1.72868e-21)
(1.16687 -0.0760225 -1.77907e-20)
(1.0184 0.0101644 -1.31857e-21)
(1.27798 0.019941 -5.5732e-20)
(1.25368 0.0727117 0)
(1.0842 0.258238 0)
(1.0732 0.0681108 0)
(1.03732 0.00589264 0)
(-0.309046 -0.000219749 0)
(0.931165 -0.011151 -8.21032e-21)
(0.159727 -0.0413125 -4.68129e-20)
(1.0583 0.0101128 6.4092e-21)
(0.778803 0.116477 -5.81177e-20)
(0.983226 0.00623682 2.78262e-21)
(1.00003 0.000780065 0)
(0.965478 0.0229808 0)
(-0.178409 -0.0123998 1.93489e-20)
(0.706908 0.059972 2.63815e-20)
(1.16893 -0.0756323 -1.60216e-20)
(-0.312878 -0.000329866 0)
(-0.254269 0.00777593 -3.59641e-20)
(0.328028 -0.0200187 1.26786e-23)
(1.01837 0.00977135 1.36493e-21)
(1.01129 0.0311183 -1.31224e-21)
(1.12534 -0.0458586 0)
(-0.211481 -0.00720704 4.8007e-22)
(0.347295 0.00443822 -2.0983e-21)
(1.13171 0.0881062 1.3121e-21)
(1.05094 0.0133032 -3.43935e-22)