/*--------------------------------*- C++ -*----------------------------------*\
| =========                 |                                                 |
| \\      /  F ield         | OpenFOAM: The Open Source CFD Toolbox           |
|  \\    /   O peration     | Version:  v2012                                 |
|   \\  /    A nd           | Website:  www.openfoam.com                      |
|    \\/     M anipulation  |                                                 |
\*---------------------------------------------------------------------------*/
FoamFile
{
    version     2.0;
    format      ascii;
    class       volVectorField;
    location    "200";
    object      U_0;
}
// * * * * * * * * * * * * * * * * * * * * * * * * * * * * * * * * * * * * * //

dimensions      [0 1 -1 0 0 0 0];


internalField   nonuniform List<vector> 
27802
(
(0.985868 0.0610288 7.91999e-21)
(1.00001 0.000112652 0)
(0.944058 0.0256525 8.9528e-21)
(1.07529 -0.0201333 -6.93484e-21)
(1.00384 0.0215773 0)
(1.31574 0.0877759 0)
(1.00423 0.0213889 0)
(1.19579 0.105668 -4.13204e-20)
(1.01833 0.0173412 -1.07472e-21)
(1.11871 -0.0543965 0)
(0.836816 -0.0748103 7.86976e-21)
(0.379889 0.465762 -7.56443e-20)
(1.05903 0.119443 -6.31904e-21)
(0.562177 -0.123513 -3.93817e-20)
(0.299803 -0.062568 -3.52812e-20)
(-0.176398 0.0139744 -7.24193e-20)
(0.00704246 0.0194655 -3.73239e-20)
(1.01874 0.0179033 9.79721e-22)
(0.812994 -0.0776673 0)
(0.00964432 0.0082275 1.0097e-20)
(0.686941 0.0607656 2.6e-20)
(0.309484 -0.0618693 0)
(1.02648 0.00714653 1.04547e-21)
(1.11234 -0.038855 0)
(1.22345 0.292076 1.38941e-20)
(0.925586 0.156101 7.10994e-21)
(1.00661 0.0106272 0)
(1.08743 -0.0240502 -9.84942e-21)
(1.01303 0.000584201 -3.9679e-24)
(-0.267505 0.00221576 7.43921e-20)
(1.11177 -0.0393889 -1.53002e-20)
(1.14897 0.104407 -6.80094e-21)
(0.987234 0.0599225 -7.59241e-21)
(1.02532 -0.000129995 -1.27526e-21)
(0.999257 -4.05726e-05 5.31343e-21)
(-0.249103 -0.00209949 -3.23488e-20)
(-0.28579 -0.00572194 3.33377e-20)
(1.02411 0.0113583 0)
(1.03683 0.00557857 0)
(-0.203099 -0.0108924 0)
(0.414255 0.457575 3.30767e-20)
(0.999338 -0.000134066 -3.49885e-21)
(1.08954 0.019888 0)
(1.02253 0.00151607 1.56782e-21)
(0.947938 0.129208 -1.92017e-21)
(-0.109256 0.00709732 -3.48291e-21)
(0.995712 0.0053673 -1.65655e-22)
(-0.153523 0.0198896 0)
(0.0218214 -0.194341 7.35543e-20)
(0.451365 -0.034123 -1.28485e-20)
(0.336285 -0.0702579 -2.95217e-20)
(0.928236 0.160963 -7.19324e-21)
(-0.189708 -0.0103937 0)
(0.505199 0.823921 9.3996e-21)
(1.03478 0.009694 2.35543e-21)
(1.00058 0.000203954 0)
(1.13001 -0.0519879 2.0475e-20)
(0.994425 0.0133344 0)
(0.957975 0.111925 6.35393e-21)
(1.20276 0.117513 0)
(0.332624 0.00661423 0)
(0.940825 0.00634515 0)
(1.0305 0.120095 -1.93153e-21)
(1.0169 0.00282689 2.03755e-21)
(1.02265 0.00190581 0)
(1.02177 0.0407779 8.04725e-22)
(0.909045 -0.0577191 4.85322e-23)
(1.13113 -0.0525488 0)
(1.20296 0.121921 3.38083e-20)
(1.01377 0.0381211 -4.13038e-22)
(1.0226 0.00131671 1.28299e-23)
(0.363544 -0.0477629 -1.13033e-20)
(0.423134 -0.0712882 0)
(1.10469 -0.0577997 0)
(0.923756 -0.00495629 -2.00491e-20)
(1.0595 -0.0104989 3.79243e-23)
(0.917663 -0.0581793 -4.30377e-24)
(-0.281016 0.00383406 5.37234e-23)
(0.147714 0.00899764 9.01337e-21)
(-0.175655 -0.00477267 0)
(1.01252 0.000569673 3.84224e-24)
(1.0085 0.0113062 -5.55379e-22)
(0.81258 0.186213 0)
(1.02169 0.0685749 -8.83242e-22)
(1.03113 0.035505 0)
(1.11586 0.0378463 -1.02796e-20)
(1.00009 0.000762972 8.5093e-22)
(0.257776 -0.0228437 0)
(-0.289933 0.00313168 -5.16766e-20)
(0.980826 0.00267938 7.93951e-21)
(0.998157 0.0155408 1.27993e-22)
(0.201016 0.00771775 -1.03254e-20)
(1.01857 0.0149706 0)
(-0.19298 0.00237864 7.11153e-20)
(0.359082 -0.0627561 -6.16879e-21)
(1.09714 -0.0204572 8.98976e-21)
(1.00874 0.011748 3.79597e-22)
(1.09351 -0.0215254 5.4002e-21)
(0.99134 0.00037661 -6.30448e-21)
(1.11758 -0.0621382 -1.13588e-20)
(1.0371 0.00499011 9.25554e-21)
(1.02891 0.0101873 0)
(0.276573 0.768166 8.83139e-21)
(0.318792 0.00406183 0)
(0.433129 -0.0702511 -2.0903e-20)
(1.02945 0.123568 -2.87841e-21)
(0.985212 0.014048 -4.33736e-21)
(1.02283 0.00172468 -3.57917e-21)
(1.03431 0.00934968 2.05882e-21)
(0.943995 0.126893 4.23072e-21)
(-0.188654 0.0105786 5.28072e-20)
(0.997942 0.0152926 4.32126e-22)
(1.02523 9.41169e-05 -2.24027e-21)
(0.991505 0.00211778 -6.03431e-21)
(0.984438 0.013918 0)
(1.01662 0.00241199 2.07702e-21)
(1.07359 0.0782172 7.77661e-22)
(0.804103 0.485801 0)
(0.157673 -0.0172602 1.16005e-20)
(1.21943 0.284502 -4.76533e-20)
(0.0173416 0.00794781 0)
(1.19856 0.11413 0)
(-0.0933352 -0.0218757 -1.89241e-22)
(0.787931 0.492017 -2.08722e-20)
(0.422873 0.20761 -4.3408e-20)
(0.706195 0.356415 -2.51771e-20)
(1.03063 0.0527664 3.89957e-21)
(1.07839 0.0164654 1.37454e-20)
(0.20547 0.0746116 -9.30582e-20)
(1.02566 0.000554338 -2.33969e-21)
(1.1596 -0.0186675 1.87992e-20)
(1.1435 0.06651 -1.48043e-20)
(1.00487 0.0490709 5.37963e-21)
(-0.245986 0.00825673 8.6725e-20)
(-0.0222202 -0.00447516 -2.02121e-20)
(1.06286 0.00171368 0)
(0.678552 -0.0920195 0)
(0.550175 -0.111135 2.22707e-20)
(0.993561 0.00766501 -5.07891e-21)
(1.00439 0.0481533 -9.24968e-24)
(0.58093 -0.119577 0)
(1.12123 -0.0546421 4.68443e-21)
(0.845935 0.0411673 -1.52876e-20)
(0.926998 0.172227 -7.83876e-21)
(1.02373 0.0116376 0)
(0.297106 -0.0157817 1.01333e-20)
(0.89564 0.0966584 -1.89003e-20)
(1.10256 -0.0102721 -1.56378e-20)
(1.04014 0.0058863 0)
(1.12852 -0.0615195 1.98676e-20)
(0.964416 0.173473 0)
(1.31207 0.152705 2.62911e-20)
(1.08942 0.0214817 2.83548e-20)
(-0.0931219 -0.0268961 -2.49188e-20)
(1.00005 6.01069e-05 2.7821e-22)
(0.121843 0.00672651 -5.09929e-21)
(1.06166 0.00222119 0)
(1.09773 -0.0213379 -2.28262e-20)
(1.02336 0.00263719 -2.26029e-21)
(0.999352 0.00341289 -1.01446e-21)
(1.01695 0.00265665 -2.37045e-21)
(1.02091 0.0403787 0)
(0.354386 -0.0192095 5.2718e-20)
(1.01244 0.00818007 -8.50367e-22)
(1.00008 0.00125073 3.23254e-23)
(1.00004 0.000400639 0)
(0.400593 -0.0659808 4.01728e-20)
(1.00943 0.0220828 6.14778e-22)
(1.00509 0.0473088 -2.42494e-21)
(0.975356 0.0464781 -5.29672e-21)
(1.08945 0.254648 1.55543e-20)
(-0.044455 -0.010026 -2.64455e-21)
(-0.00786224 0.0137716 -1.00205e-19)
(1.09648 0.557138 -7.19221e-20)
(1.00687 0.0172235 1.28094e-21)
(1.21423 -0.0115413 -1.90426e-20)
(-0.236576 -0.00178791 -9.16944e-21)
(0.852516 -0.0850299 -2.60036e-20)
(1.01667 0.00225797 -2.02726e-21)
(0.98579 0.013346 0)
(1.07015 0.516224 3.10983e-20)
(0.42602 -0.0335411 1.41859e-20)
(-0.316571 -0.00188872 0)
(0.628588 -0.0485982 0)
(1.02335 0.0032121 -9.68239e-22)
(0.424119 -0.064372 7.7789e-20)
(0.136701 0.0311923 -6.015e-20)
(0.159142 -0.951598 0)
(1.11379 -0.0505428 -1.68443e-20)
(0.0456809 0.0577272 8.33771e-20)
(0.208226 -0.0294935 -9.09001e-20)
(1 8.40183e-05 0)
(0.949794 0.0237211 1.17164e-20)
(1.14442 -0.0652717 -1.63003e-20)
(1.03508 0.00446447 -4.10416e-21)
(1.30713 0.156104 6.56965e-21)
(0.087151 0.0003748 -3.53283e-21)
(0.662654 -0.0668427 0)
(1.14618 -0.0653926 -2.88805e-20)
(0.797638 -0.0589257 0)
(1.02991 0.301486 -3.78816e-21)
(0.999447 0.00327831 0)
(0.987788 0.0564419 0)
(1.07405 0.0763696 0)
(0.219883 -0.0281761 -5.72499e-20)
(1.15316 0.0361024 2.35944e-20)
(1.00891 0.0218611 -1.3073e-21)
(1.01969 0.0186705 1.47218e-21)
(-0.245874 -0.00641408 -7.46533e-20)
(1.0306 0.0152666 -3.39013e-21)
(1.03963 0.00616056 -1.18184e-21)
(0.824549 -0.0718801 7.70204e-21)
(1.07605 -0.0192636 7.42789e-21)
(-0.25563 0.00212305 0)
(1.02294 0.00256662 1.85822e-21)
(1.00692 0.0108319 0)
(1.15763 -0.0172587 3.15808e-20)
(0.964849 0.0216056 7.32731e-21)
(0.997051 0.0163178 -2.40749e-21)
(0.999992 0.000169774 0)
(0.360963 -0.0639019 -5.85042e-21)
(1.00509 0.0218778 3.34665e-21)
(0.985419 0.0214152 1.28132e-22)
(1.17084 -0.0490688 -1.35901e-20)
(0.97504 0.0227509 0)
(1.1489 -0.0537512 1.06302e-20)
(1.04245 0.0418748 -2.73882e-21)
(1.10356 -0.0114164 1.74786e-20)
(1.02223 0.000677807 -1.7393e-21)
(0.975691 0.0233607 -1.2715e-20)
(0.991697 0.00296759 0)
(1.09309 0.0899122 1.66675e-20)
(1.14309 -0.0510394 0)
(0.99932 -0.000379311 4.13597e-21)
(1 8.90179e-05 0)
(-0.265296 0.00446294 -2.59911e-20)
(0.66923 -0.0877274 -1.73691e-20)
(0.766628 0.249079 0)
(1.03122 0.0515534 -2.34614e-21)
(0.175439 0.674953 0)
(-0.0733771 0.00659432 0)
(-0.191005 -0.00631586 -7.75221e-20)
(0.423895 -0.0331815 4.54885e-23)
(0.322014 -0.0393927 -4.56673e-21)
(0.796007 0.057082 0)
(1.06262 0.0137994 0)
(1.0052 0.0127091 -1.99598e-21)
(-0.126787 0.0235077 0)
(1.02349 0.00305075 1.20992e-21)
(1.00062 0.000153547 -5.84094e-22)
(1.21365 0.00726018 8.16416e-21)
(1.00446 0.00420472 0)
(1.16448 0.353241 0)
(0.960284 0.0194927 -1.52356e-20)
(0.239413 -0.0203662 -8.66223e-23)
(0.332986 -0.042525 0)
(1.08313 0.0159013 -8.46109e-21)
(1.16185 0.209181 -3.00798e-20)
(1.01316 0.040893 -7.3567e-22)
(0.923725 -0.00757807 1.23765e-21)
(1.00507 0.0036545 0)
(-0.115797 -0.00946413 -7.40987e-21)
(0.171507 -0.0198791 0)
(1.11333 -0.0500668 1.3681e-20)
(1.01737 0.0380737 -1.23139e-22)
(1.00791 0.0244829 2.54521e-21)
(0.962407 -0.00756177 1.80254e-21)
(0.420643 -0.095844 0)
(0.343129 -0.0426349 0)
(1.14525 0.104656 1.17108e-20)
(-0.26839 0.00368225 0)
(1.08661 0.0563003 2.25842e-20)
(0.83449 0.0569266 -1.31692e-20)
(1.01191 0.0068996 -9.50029e-22)
(1.00468 0.00431438 4.333e-22)
(0.999245 -0.000286965 -2.85566e-21)
(1.14084 0.0690029 0)
(0.996566 0.00163694 2.85657e-21)
(1.03256 0.0154584 2.37959e-21)
(0.331464 -0.0392826 -9.60818e-21)
(0.959496 0.00465967 -1.34426e-20)
(1.08789 0.154377 -6.46799e-21)
(1.19692 0.374814 -4.6445e-20)
(1.10421 -0.0583222 0)
(0.0775113 0.0250782 2.22509e-20)
(1.06883 -0.0057506 9.93942e-21)
(0.908431 -0.0856394 0)
(1.01342 0.00925649 3.38584e-23)
(1.17564 0.250846 3.17405e-20)
(-0.116536 -0.0234773 -2.84891e-20)
(1.24907 0.271429 0)
(0.234411 0.00730313 2.27148e-21)
(-0.146343 -0.0100888 -3.09179e-20)
(0.955926 0.115275 -1.94173e-21)
(1.02193 0.000609523 -1.59137e-21)
(1.01897 0.0407536 0)
(0.958006 0.00501777 -1.82172e-20)
(-0.0287995 -0.00105833 0)
(-0.161117 -0.00849783 2.10435e-20)
(1.19953 0.109879 0)
(-0.249718 0.00488199 0)
(1.03457 0.182273 0)
(0.474233 -0.0370544 -6.84177e-21)
(0.928009 0.85132 3.88143e-20)
(0.0749714 -0.0283643 7.70873e-21)
(0.996794 0.0016797 8.7203e-22)
(1.17185 -0.0107571 -3.23638e-22)
(1.01459 0.0376648 3.93161e-22)
(0.031627 -0.0292336 -1.75769e-20)
(1.03017 0.0113654 -1.74992e-21)
(0.449849 -0.0340922 -3.56885e-21)
(1.23639 0.101964 4.79555e-20)
(-0.160425 0.0138315 -1.00293e-19)
(0.994627 0.0138082 5.58701e-22)
(-0.240617 0.00283836 0)
(0.332959 0.10429 -8.41612e-20)
(1.1823 0.0694504 0)
(1.01202 0.000633224 -9.5871e-22)
(1.08762 -0.0231069 1.632e-20)
(-0.251459 0.00370779 -5.01001e-20)
(1.02965 0.0116474 1.98447e-21)
(0.929568 -0.0126368 8.75116e-21)
(1.14532 -0.0380184 0)
(0.469319 -0.0371101 -7.67288e-21)
(0.0544642 0.00720582 4.21109e-21)
(1.019 0.0153786 0)
(0.813849 0.176746 2.01497e-20)
(0.698196 -0.155834 0)
(0.825946 -0.0611354 3.28916e-21)
(1.00526 0.00395329 4.67092e-22)
(0.661448 -0.0502601 7.32898e-21)
(1.01139 0.00744085 3.67822e-22)
(0.999439 0.00352764 -8.8131e-21)
(1.14648 -0.0395789 0)
(1.07216 0.534501 -6.61588e-20)
(1.04121 0.0417267 -1.39962e-21)
(0.995294 0.0157176 2.51648e-21)
(0.981536 0.00269703 6.38619e-21)
(1.23501 0.0975959 2.57683e-22)
(1.06023 -0.00994421 -1.43562e-20)
(1.03177 0.0218087 -1.54022e-21)
(1.2808 0.15946 0)
(1.0015 0.0263277 -2.49711e-21)
(1.24431 0.266315 0)
(-0.16465 0.023077 -1.30498e-19)
(-0.353186 -0.000360771 0)
(1.06848 0.0138448 0)
(1.0177 0.0231214 0)
(1.06255 0.0149232 4.43072e-21)
(1.01684 0.017595 -7.5097e-22)
(0.435605 -0.10691 0)
(0.438193 -0.0558616 -6.05151e-20)
(1.0092 0.0109767 0)
(1.16198 0.205563 2.82132e-20)
(1.03494 0.0323439 -5.03698e-21)
(1.03045 0.0146974 3.24135e-21)
(0.973994 0.0474222 0)
(1.01457 0.0314201 -3.90333e-22)
(-0.0710211 0.0086291 2.56575e-20)
(1.01083 0.00205857 -1.50473e-21)
(1.15106 -0.0538004 -2.5874e-20)
(1.29291 0.26838 1.43958e-22)
(0.28884 -0.0668124 1.78286e-20)
(1.02044 0.00161782 -1.36324e-21)
(1.03335 0.0218191 -1.07075e-21)
(1.03426 0.0224188 -3.86673e-21)
(-0.166327 -0.00732007 0)
(1.01307 0.00889784 -4.82708e-22)
(0.987021 0.512968 0)
(1.02196 0.000348106 3.47057e-21)
(1.14153 -0.050707 0)
(1.1654 0.169229 0)
(-0.260417 0.00681543 -3.88117e-20)
(1.06209 0.0286373 -2.44148e-21)
(0.958716 0.0199034 7.24789e-21)
(1.04007 0.0214813 7.90284e-21)
(1.03233 0.292011 1.97727e-21)
(0.996078 0.0143263 -3.935e-21)
(1.11491 -0.0507484 1.45444e-20)
(0.929444 0.0396462 -5.20278e-21)
(0.895389 0.0922989 2.21444e-20)
(0.999527 0.0033999 8.44712e-21)
(0.984593 0.0216955 -6.69555e-21)
(0.999992 0.000189476 2.37405e-22)
(1.03593 0.0222637 0)
(-0.252683 -0.00846301 -1.48719e-19)
(0.638729 -0.245573 0)
(1.10875 -0.0403493 -9.26703e-21)
(-0.262393 -0.00151881 -2.16623e-20)
(0.377222 -0.49841 0)
(0.999411 0.0242175 1.85576e-21)
(1.11409 -0.0653479 -8.09147e-21)
(0.978522 0.018538 1.17522e-20)
(1.00775 0.0315193 1.32993e-21)
(0.768104 0.240131 3.41877e-20)
(1.05168 0.0462791 7.81883e-21)
(0.99936 0.00310152 1.08061e-21)
(0.353602 -0.0318237 -1.5114e-20)
(1.31428 0.0921706 -8.88071e-21)
(0.204858 -0.0111514 0)
(1.09451 -0.0395454 -2.00981e-20)
(0.495592 0.104023 0)
(1.0017 0.000328755 9.11033e-22)
(0.996652 0.000446363 0)
(1.10277 -0.0587752 -2.1732e-20)
(-0.15139 0.0140476 8.93888e-20)
(0.99673 0.00210466 7.46959e-21)
(0.909703 0.0307626 0)
(1.16874 -0.0103213 -1.74234e-20)
(1.07661 0.0184764 -6.9972e-21)
(1.03193 0.0151231 -4.21066e-21)
(1.03073 0.129852 -5.56337e-21)
(0.994541 -0.062656 0)
(0.394333 -0.0660068 1.20939e-20)
(0.984586 -0.0604294 4.58354e-21)
(0.241662 0.00881052 0)
(1.00487 0.00429385 -3.83385e-22)
(0.300201 -0.0232204 -5.86526e-20)
(1.02934 0.00986749 0)
(1.1189 -0.0545291 1.68727e-20)
(1.08387 -0.00407393 -1.03364e-20)
(-0.13811 0.0270445 -6.49998e-23)
(0.999997 0.000131794 0)
(1.00465 0.0220393 0)
(1.06175 0.0770556 7.71668e-21)
(1.05971 0.00535412 -6.61384e-21)
(0.960121 0.169731 0)
(0.999577 0.0248802 2.22445e-21)
(0.99678 0.0159784 1.06479e-21)
(0.68321 -0.113908 2.81861e-20)
(0.993158 0.00767254 6.57524e-21)
(1.00779 0.0418315 1.16066e-22)
(1.17094 -0.0464867 2.39721e-20)
(1.02481 -0.0839122 1.96367e-23)
(1.0921 -0.0377745 1.36652e-20)
(-0.176288 0.0103115 0)
(1.19704 0.101817 -2.83171e-20)
(0.605703 0.119938 4.37875e-20)
(1.21025 0.00673102 0)
(1.00796 0.030662 0)
(0.85607 0.0957738 -2.6576e-20)
(-0.0405154 -0.00865915 2.54503e-21)
(1.06813 0.0318705 -1.00465e-20)
(0.995803 0.0139739 -4.77703e-21)
(1.03317 0.132543 7.63157e-21)
(1.06843 -0.00494717 -1.12285e-20)
(0.750905 -0.0817016 2.55587e-20)
(1.054 0.022755 1.99513e-22)
(0.991306 0.002615 0)
(1.00489 0.00411001 5.72689e-22)
(-0.30099 -0.0016989 6.4459e-20)
(0.449724 -0.0345514 7.32513e-21)
(1.05414 0.0234458 0)
(1.00718 0.00826403 1.13326e-22)
(0.642432 0.133344 -6.58451e-20)
(0.999273 0.00293925 4.70644e-21)
(0.931352 -0.0587953 0)
(0.999339 0.00330532 5.29214e-22)
(1.03082 0.0363406 -2.04989e-21)
(1.06751 0.0144807 -6.19209e-22)
(1.2436 -0.0341106 1.4036e-20)
(1.01201 0.0390979 8.01341e-22)
(1.02169 0.000267252 0)
(0.839478 -0.0609331 -1.50256e-20)
(0.994722 0.00554104 0)
(1.13176 0.00729614 1.62984e-20)
(0.1419 -0.0144163 -7.48068e-21)
(0.638024 -0.25836 0)
(0.997951 0.0119365 0)
(0.0612047 0.00922175 4.24764e-21)
(1.19526 0.367549 4.7819e-20)
(0.613519 0.127752 0)
(-0.0645604 0.00836545 0)
(0.34097 1.19458 -4.74633e-21)
(1.01985 0.0678323 1.08607e-22)
(1.00018 0.172164 2.09437e-21)
(1.01639 0.00202443 0)
(1.10711 -0.0722719 -1.84219e-20)
(0.996921 0.00219408 -6.8522e-21)
(0.894256 0.331391 -3.89719e-21)
(1.00997 0.0308535 0)
(1.08265 -0.00328582 2.0794e-20)
(0.23185 -0.0017239 3.13454e-21)
(0.361897 -0.0409872 0)
(1.00694 0.0079276 2.36738e-22)
(0.986455 0.0136587 -4.81363e-21)
(0.746157 -0.0896421 -3.96338e-20)
(0.965447 0.0205157 -2.1533e-21)
(1.03992 0.020763 -3.56099e-21)
(1.01 0.0243162 0)
(1.01057 0.00189813 1.63618e-21)
(1.19255 0.0267726 4.03472e-22)
(1.09905 0.00321528 -1.98785e-22)
(0.115744 0.65758 2.85948e-21)
(1.28468 0.309513 5.31835e-20)
(1.01288 0.00149084 -1.35713e-21)
(1.05745 0.297163 -1.19927e-20)
(0.234076 -0.01525 1.0467e-20)
(0.907052 0.0296962 0)
(1.057 0.0116154 8.11845e-23)
(1.02013 0.00163156 3.30284e-23)
(1.00007 0.000748963 4.41541e-22)
(0.973182 -0.078739 0)
(1.21783 -0.0126771 0)
(1.05788 0.157319 4.45994e-21)
(-0.236586 0.00490824 4.51703e-20)
(0.677983 -0.0510487 -2.98836e-21)
(0.992661 0.0124214 0)
(-0.282623 -0.0025123 -1.24344e-20)
(1.01889 0.0104856 0)
(0.722638 0.721085 0)
(1.05945 0.116705 -6.34592e-21)
(1.01032 0.0239214 -5.26592e-22)
(0.923677 0.000793858 0)
(1.00232 0.0198506 0)
(1.07832 0.0178595 1.3754e-20)
(-0.174571 0.00978956 0)
(-0.275708 0.00238315 3.20598e-20)
(0.898254 0.00247821 -4.20913e-20)
(-0.288961 -0.00242225 0)
(0.640632 -0.0545672 0)
(1.11449 -0.0502553 -6.78067e-21)
(0.997606 0.0121341 0)
(0.997431 0.0117713 0)
(0.281604 -0.00622643 -2.6674e-20)
(0.962977 0.213372 -3.63066e-21)
(0.999937 0.000254944 -7.77526e-21)
(1.13455 0.0903753 -1.1987e-20)
(1.01279 0.125521 1.55163e-22)
(-0.232853 -0.000198683 0)
(1.0909 -0.0472356 -6.39036e-21)
(-0.0732231 -0.0258227 3.45709e-20)
(0.900071 0.000792776 4.22967e-20)
(1.0123 0.0414432 9.87784e-22)
(0.421783 0.929267 0)
(0.992333 0.0122257 7.33183e-21)
(0.995341 0.00661384 4.38172e-21)
(0.931824 0.0177933 -8.01949e-21)
(0.945722 -0.0831223 1.36099e-20)
(1.00865 0.0110525 2.75214e-22)
(-0.158425 0.0133359 0)
(0.93179 0.0392065 0)
(0.249784 -0.251642 1.32527e-19)
(0.721411 0.348486 -1.17255e-20)
(-0.111647 0.00581473 3.4545e-20)
(1.02534 0.000644135 8.32453e-22)
(0.998081 0.0122499 0)
(0.215686 -0.0128329 0)
(1.15154 0.0339498 -1.29445e-20)
(0.996273 0.00631734 0)
(1.15224 0.0848695 0)
(1.05052 0.0469405 4.3353e-21)
(1.00527 0.0282456 0)
(1.01906 0.0201616 1.95647e-21)
(-0.191714 -0.0104279 0)
(1.13856 0.0223538 -2.45368e-20)
(1.24201 -0.0311244 0)
(1.02535 -0.061647 0)
(0.251179 -0.298104 5.82618e-20)
(1.0184 0.0232208 -4.94011e-22)
(0.339693 -0.0450807 1.02906e-20)
(0.967952 0.210263 -6.80887e-21)
(1.00562 0.0310211 0)
(0.591738 -0.135179 -1.20663e-19)
(0.0431859 0.00839532 -1.9063e-20)
(1.00303 0.00427703 1.00037e-21)
(0.97324 0.00545366 -4.57624e-21)
(1.00759 0.011214 -2.14778e-22)
(0.638711 -0.0505153 1.30193e-20)
(1.03755 0.0135002 2.61837e-21)
(1.01644 0.00185097 0)
(1.02704 0.00715749 0)
(1.01808 0.0374265 -4.15603e-24)
(0.996089 0.49996 -3.09561e-21)
(1.03625 0.0127924 0)
(-0.245846 0.00628819 0)
(1.10928 -0.00934461 -2.21272e-20)
(0.998664 0.0232897 -8.39548e-23)
(1.10963 -0.0409405 4.12222e-23)
(1.13955 0.0201527 2.09441e-20)
(0.103983 -0.0179103 3.8041e-21)
(0.0130422 -0.0260005 -1.11229e-20)
(0.234137 0.00887616 -3.16942e-21)
(1.01189 0.0378689 -1.30211e-21)
(1.01692 0.00662453 1.13553e-21)
(1.01302 0.00124607 -6.7445e-22)
(0.106762 0.0061521 -6.69884e-20)
(1.01119 0.00448457 0)
(0.0562444 -0.0251256 -1.79302e-20)
(1.29958 0.0892333 2.8519e-20)
(0.862017 0.243306 0)
(-0.309243 -0.00131605 3.64546e-20)
(0.189572 -0.00425628 -1.37202e-20)
(0.994635 0.0467349 0)
(0.990258 0.0014381 -3.63135e-21)
(0.18657 -0.00886309 -2.29093e-20)
(1.0996 -0.051545 1.02585e-20)
(1.01078 0.0105314 -1.26726e-22)
(1.00042 7.24791e-05 -9.7604e-22)
(0.780093 0.0488828 -5.08526e-20)
(1.10032 -0.0611218 0)
(0.79828 -0.0633797 0)
(-0.262394 0.000604684 -1.3321e-20)
(0.531377 -0.631031 0)
(1.02052 0.0736515 3.19857e-22)
(0.303029 -0.346784 9.28029e-20)
(-0.172404 -0.00356812 7.22739e-20)
(1.00938 0.000522553 5.53951e-22)
(0.0840342 -0.00880758 -3.30891e-20)
(0.375861 -0.0429327 5.28518e-21)
(1.15067 0.0498215 1.90637e-23)
(0.197383 0.760296 0)
(0.894451 0.128708 -2.81458e-20)
(0.930745 0.0192261 -5.25272e-21)
(1.11395 0.186931 -1.7599e-20)
(1.00529 0.0148068 -7.1981e-22)
(0.679863 -0.0394739 6.41407e-21)
(1.01107 0.0120196 0)
(1.08934 0.0120192 5.98417e-21)
(0.83527 0.0122861 -1.96697e-20)
(0.756999 0.230779 -4.28907e-20)
(1.19468 0.276787 -7.19824e-21)
(1.09874 -0.0518268 -8.87451e-21)
(-0.0734307 -0.0193271 -1.03448e-20)
(1.06645 0.0319976 -2.30729e-21)
(-0.303833 0.00350169 3.55431e-20)
(1.00003 0.000320638 1.31616e-21)
(1.00475 0.0667673 -1.68368e-21)
(1.03207 0.126492 -5.07793e-22)
(0.630545 0.148775 -3.85605e-20)
(0.996358 0.0113404 3.49958e-21)
(0.885406 0.323136 -4.40785e-21)
(1.01125 0.000538434 1.23523e-21)
(1.13339 0.00857377 0)
(0.867731 0.236129 9.4495e-21)
(1.00724 0.0175876 -7.79961e-23)
(0.993759 0.00923871 -5.87926e-21)
(1.10386 0.0730256 -9.52582e-21)
(0.566006 -0.00112144 -1.23652e-19)
(1.08932 -0.0393768 8.9933e-21)
(1.2439 0.308476 -9.48891e-21)
(1.04331 0.0786202 0)
(0.680764 -0.0551735 -7.22698e-21)
(1.01704 -0.0625865 0)
(1.11298 -0.0663323 -9.44248e-23)
(1.00459 0.0280588 4.00475e-22)
(0.873216 0.168689 -2.90431e-20)
(1.27655 0.155864 0)
(0.130568 -0.0191534 5.70677e-21)
(1.04143 0.0791877 0)
(1.00859 0.0120136 -2.49682e-22)
(0.26219 -0.282002 0)
(1.12835 -0.0406287 2.78147e-20)
(0.99605 0.0159024 0)
(0.273457 -0.35633 -5.02692e-20)
(0.999943 0.000480304 -4.21572e-21)
(0.447634 0.714541 0)
(0.7321 0.679619 0)
(0.999915 9.30692e-05 2.6638e-21)
(1.00552 0.014648 1.92918e-21)
(1.14236 0.337857 0)
(1.11214 -0.0716186 0)
(1.03051 0.0836474 -1.57935e-21)
(1.08485 -8.34217e-05 9.97303e-21)
(-0.273707 0.00363076 3.90262e-20)
(0.999965 0.000362917 -4.29477e-21)
(1.0198 0.0658695 0)
(-0.306598 -0.00127184 0)
(0.952276 0.0300292 2.38836e-20)
(1.18578 0.0709079 0)
(1.00247 0.0202951 -9.39028e-22)
(1.03037 0.000652907 0)
(1.01956 0.0241273 -3.15118e-23)
(-0.0119665 -0.00813133 -1.18088e-22)
(1.08577 -0.0200369 -2.78145e-21)
(0.998726 0.00117377 -2.41035e-21)
(0.138961 0.00717471 -1.91169e-21)
(1.008 0.0178299 -5.13394e-22)
(1.06935 -0.0215142 6.23857e-21)
(0.121543 -0.0205019 -1.35733e-20)
(0.999463 -0.000319542 9.2911e-21)
(0.427665 -0.0313873 6.76393e-21)
(1.12343 0.0330185 -3.05201e-21)
(1.01969 0.0202759 -1.64596e-21)
(0.949499 0.0220973 -1.15491e-20)
(1.01584 0.00589277 -9.25588e-22)
(-0.305527 0.00145656 0)
(-0.229125 -0.006871 4.10872e-20)
(0.916297 -0.0584823 0)
(1.03898 -0.00372698 0)
(-0.259719 0.00134104 1.24854e-20)
(-0.241558 -0.00107131 0)
(1.0155 0.00561897 -9.34365e-22)
(0.0929435 0.0112321 -4.13332e-21)
(0.952293 0.208432 -1.13691e-21)
(1.00001 0.0004601 0)
(1.01233 0.00848349 1.32464e-21)
(1.00695 0.0409401 0)
(1.03241 0.0833233 4.42519e-21)
(-0.337368 -0.000863875 0)
(1.01025 0.0106985 0)
(0.999953 7.8624e-05 0)
(0.758197 0.220243 -1.8755e-20)
(1.02976 -0.0764461 2.08482e-21)
(0.999259 0.00315194 -6.15328e-21)
(-0.271872 0.00522279 -4.74318e-20)
(0.191154 -0.0226049 1.0807e-20)
(0.115259 -0.0392995 3.63918e-20)
(1.0304 0.000278748 0)
(1.06355 0.0289457 0)
(0.999989 0.000188397 0)
(1.02189 0.0704674 1.0242e-21)
(1.18458 0.0233636 1.06195e-20)
(1.00489 0.0124023 1.95615e-21)
(0.99042 0.0660324 4.65397e-21)
(1.00001 0.000344352 0)
(1.07648 0.0198529 1.42578e-20)
(1.03813 0.0843059 -3.58045e-21)
(0.865857 -0.073831 -1.53874e-20)
(1.23229 0.292667 0)
(1.13143 -0.0618412 0)
(0.991737 0.125381 0)
(0.866221 0.167311 1.55217e-20)
(1.09288 -0.0221991 2.35869e-21)
(1.03257 0.0223052 1.12059e-21)
(1.02864 0.0117418 9.63678e-22)
(1.01606 0.0313122 -3.77547e-24)
(0.933766 0.445503 -9.67259e-22)
(0.671615 -0.0447593 3.39308e-20)
(1.00491 0.160085 5.3054e-20)
(0.113916 -0.0161338 2.98947e-20)
(0.0376688 -0.00810832 3.41875e-20)
(1.01066 0.0108401 1.10019e-22)
(0.263386 -0.00343783 2.74169e-20)
(1.01909 0.0217135 1.79162e-21)
(0.998927 0.0020513 0)
(0.0929078 -0.443325 -1.39887e-19)
(1.00383 0.0144423 -1.66624e-21)
(-0.216745 0.00204073 6.90811e-20)
(1.12343 -0.0812725 -3.90597e-20)
(-0.220953 -0.000560159 4.90176e-20)
(-0.303919 -0.00283514 0)
(0.163525 0.00458107 0)
(0.99293 0.0169209 -1.70549e-21)
(0.956064 0.212267 1.17397e-21)
(0.259674 -0.230483 -1.06167e-19)
(1.11429 0.039279 5.33545e-21)
(0.177469 -0.00780631 3.47661e-20)
(0.60787 -0.193152 -4.2328e-20)
(1.01221 0.0115554 3.38653e-22)
(0.460023 -0.0350363 0)
(0.991064 2.47533e-05 4.19075e-21)
(0.246474 -0.0171727 -9.85812e-21)
(-0.101581 0.0073496 -2.65745e-20)
(0.994279 0.0455066 5.23605e-21)
(1.02731 0.00372675 4.88466e-21)
(0.446442 -0.0339511 -1.12531e-20)
(1.01179 0.00873465 -7.63639e-22)
(1.02396 0.0489596 0)
(1.07783 0.56518 5.10762e-20)
(1.11633 -0.0544167 -1.81003e-20)
(-0.151491 -0.0162736 0)
(0.966085 -0.0846665 4.92641e-22)
(0.993152 0.017383 -2.89206e-23)
(1.08952 0.0106339 0)
(0.98662 0.0575773 -4.27435e-21)
(0.761074 0.0907042 -4.96035e-22)
(1.0281 0.0117976 8.77236e-22)
(0.297691 -0.00959197 -1.05904e-20)
(1.12468 0.0313749 4.19062e-22)
(1.00101 0.0263483 2.30594e-21)
(-0.257261 -0.000851338 0)
(-0.215057 0.00357966 0)
(1.10418 -0.059968 5.82101e-21)
(1.08703 -0.0203019 -3.04555e-21)
(0.994086 0.00876287 3.24772e-22)
(0.995081 0.0047593 -2.19192e-21)
(1.11552 -0.055423 1.04653e-20)
(1.08353 0.153806 4.21797e-22)
(1.04826 0.0648279 7.46031e-21)
(1.10875 -0.0554373 1.68592e-21)
(0.311983 -0.0125891 0)
(1.1177 0.270088 0)
(1 7.89843e-05 -1.29299e-21)
(0.995408 0.00528389 4.31721e-21)
(1.14943 0.0868497 0)
(1.03678 0.0134764 -4.95623e-21)
(0.430857 -0.0514064 1.61451e-20)
(1.23452 0.105292 -4.41153e-20)
(0.0822463 -0.761101 0)
(0.945897 0.0245237 2.70077e-21)
(0.307779 0.827636 -9.79622e-21)
(1.01323 0.0317629 4.21921e-22)
(0.393993 -0.0353119 -2.23616e-20)
(1.03128 0.178632 0)
(0.0684572 0.00347469 1.0041e-19)
(0.882182 0.17785 0)
(-0.260592 -0.00330015 7.27221e-20)
(0.942402 0.00526464 4.80537e-22)
(1.10688 0.0379594 2.45946e-20)
(-0.311933 -0.000510082 3.25877e-20)
(1.06621 0.0136237 -1.74696e-22)
(0.567617 -0.0152319 8.67228e-20)
(1.12372 -0.0551056 -9.168e-21)
(0.992076 0.0659362 0)
(1.09813 -0.0532987 0)
(1.09286 -0.0386519 5.21311e-21)
(0.0406893 0.00953748 4.7147e-21)
(0.89173 0.0422812 -1.67891e-20)
(1.01096 0.0042076 7.26408e-22)
(0.0489551 -0.0187262 -1.541e-20)
(0.99858 0.00110382 0)
(1.04011 -0.0025206 0)
(1.16908 0.2496 -3.44912e-20)
(-0.325743 -0.00345389 0)
(1.09994 -0.0603647 0)
(-0.332116 -0.000889934 0)
(1.0163 0.124062 0)
(1.00048 0.00342582 -2.07796e-21)
(0.273006 -0.0157327 0)
(1.14918 -0.0678458 3.44892e-20)
(1.00013 0.00203289 -1.49509e-22)
(0.853014 -0.0744598 0)
(1.15639 0.00432071 1.53206e-20)
(-0.0617838 -0.022239 5.4342e-21)
(1.00907 0.0112397 1.93426e-22)
(0.952418 0.0316662 -2.39339e-20)
(1.14753 0.049961 -4.19759e-23)
(1.01268 0.0312877 0)
(0.802015 0.145388 -2.50043e-20)
(1.01934 0.0213039 -1.28065e-21)
(0.898023 0.137106 1.0976e-20)
(-0.272679 0.00340904 2.00419e-21)
(0.255363 -0.0533913 -1.90162e-20)
(0.923832 0.00342304 0)
(0.8753 0.177632 -1.51736e-20)
(0.432851 0.77406 -1.1785e-20)
(0.992731 0.0439412 0)
(1.00391 0.0140174 1.57688e-21)
(1.00686 0.0226513 2.00413e-21)
(1.17259 0.200533 3.40506e-20)
(1.15098 -0.0679182 -2.43109e-20)
(1.04846 0.0254135 6.82308e-21)
(1.00191 0.00784989 -1.69683e-21)
(1.05941 0.15506 -4.16546e-21)
(1.11277 0.00330259 0)
(0.345461 -0.0714687 2.65732e-20)
(0.8502 0.0979776 2.19998e-20)
(0.897517 0.402602 3.99601e-21)
(0.346275 -0.4714 0)
(0.381344 0.302635 0)
(0.974858 0.0245446 -1.181e-22)
(0.371727 -0.0332031 1.16541e-20)
(0.178261 0.00775733 0)
(1.09131 0.0876008 0)
(-0.210827 0.00575881 -4.92346e-20)
(0.996321 0.0162816 3.73278e-23)
(1.04776 0.0638527 2.46598e-21)
(0.490748 0.916033 3.00005e-21)
(1.00685 0.00732507 4.78883e-22)
(0.828932 0.0674156 5.15851e-20)
(0.807481 0.805192 0)
(-0.0139504 -0.0136598 2.57807e-21)
(0.952013 0.115071 2.19352e-21)
(0.136295 -0.00559197 0)
(1.076 0.0491692 0)
(0.874347 0.118907 0)
(1.00292 0.0040358 -1.00083e-21)
(-0.178107 -0.0137089 0)
(1.11935 -0.0140786 2.26768e-20)
(-0.292793 -0.00340455 0)
(0.994003 0.123515 3.05487e-21)
(1.00193 0.00773767 1.70534e-23)
(1.06902 0.0332028 0)
(1.00748 0.0121483 0)
(1.20385 -0.0240251 2.98973e-20)
(1.11039 -0.0551674 1.51953e-20)
(1.14683 0.0416043 0)
(1.23008 0.106239 3.76575e-20)
(1.16729 0.20052 -3.24155e-20)
(1.07497 0.0480213 4.34344e-21)
(1.30767 0.275434 -4.0558e-20)
(1.05758 0.355102 1.40613e-20)
(1.13925 -0.0458402 0)
(1.23077 0.334914 -1.54069e-22)
(0.995615 0.17033 2.23074e-21)
(1.20037 0.123509 -5.92283e-20)
(-0.323138 -0.00054676 0)
(0.991525 0.00343725 0)
(1.00006 5.18605e-05 6.95882e-22)
(0.975679 0.214006 2.46098e-21)
(0.902217 0.139724 -5.53245e-21)
(0.976135 -0.0686988 0)
(0.855543 0.117305 -3.66194e-21)
(1.01297 0.00724392 1.15095e-21)
(1.20613 -0.0195182 4.52271e-22)
(1.0151 0.0359351 0)
(0.945099 -0.000785676 0)
(1.02001 0.0412885 0)
(1.00011 0.00134926 3.49982e-23)
(1.00003 0.000919583 0)
(1.05946 0.031937 -8.97653e-21)
(1.00007 0.00140941 2.54636e-21)
(1.09493 -0.0216817 -7.75973e-21)
(1.00764 0.0186183 -7.25796e-23)
(0.850122 0.0377991 4.18569e-20)
(-0.207536 -0.00850034 -8.91192e-20)
(0.0602751 0.0374009 -1.85459e-19)
(1.04127 0.0226816 9.43325e-21)
(1.00181 0.00694691 -6.45284e-22)
(0.156705 7.50956e-05 0)
(1.03399 0.0316995 2.48484e-21)
(1.12719 -0.0404245 -2.01562e-20)
(1.01886 0.0108773 0)
(1.15316 0.339591 1.02495e-20)
(1.09297 -0.0407542 0)
(0.0648339 -0.018585 -1.63818e-20)
(0.673806 -0.105615 0)
(1.01408 0.0319652 0)
(1.03042 0.0436818 2.84727e-21)
(0.78358 0.0908669 2.3952e-20)
(1.15189 0.0578676 7.26932e-21)
(0.999961 0.000249606 1.99e-21)
(1.25504 0.237808 6.76524e-20)
(1.00002 0.000183483 2.87614e-22)
(1.05709 0.274725 -4.21469e-22)
(0.998796 0.00146755 0)
(1.02269 0.0484798 7.5595e-22)
(0.125088 0.144912 1.71636e-21)
(1.16682 -0.0759119 -1.77839e-20)
(1.0184 0.0101642 -1.31953e-21)
(1.27794 0.019887 -5.57238e-20)
(1.25369 0.0726764 0)
(1.0842 0.25824 0)
(1.0732 0.0681095 0)
(1.03731 0.00589375 0)
(-0.309013 -0.000215699 0)
(0.931165 -0.0111504 -8.20917e-21)
(0.15976 -0.0413698 -4.68029e-20)
(1.0583 0.0101147 6.41005e-21)
(0.778802 0.116474 -5.81151e-20)
(0.983226 0.00623513 2.78179e-21)
(1.00003 0.000779709 0)
(0.965478 0.022981 0)
(-0.178309 -0.0124084 1.93425e-20)
(0.706905 0.0599772 2.63849e-20)
(1.1689 -0.0755147 -1.60179e-20)
(-0.312946 -0.000329316 0)
(-0.254267 0.00777719 -3.59638e-20)
(0.327931 -0.0200582 1.26294e-23)
(1.01837 0.00977108 1.36592e-21)
(1.01129 0.0311193 -1.31017e-21)
(1.12538 -0.045829 0)
(-0.211376 -0.00721223 4.80135e-22)
(0.347282 0.00442698 -2.10437e-21)
(1.13171 0.0881026 1.31215e-21)
(1.05094 0.0133045 -3.4399e-22)