/*--------------------------------*- C++ -*----------------------------------*\
| =========                 |                                                 |
| \\      /  F ield         | OpenFOAM: The Open Source CFD Toolbox           |
|  \\    /   O peration     | Version:  v2012                                 |
|   \\  /    A nd           | Website:  www.openfoam.com                      |
|    \\/     M anipulation  |                                                 |
\*---------------------------------------------------------------------------*/
FoamFile
{
    version     2.0;
    format      ascii;
    class       volScalarField;
    location    "100";
    object      ddt0(omega);
}
// * * * * * * * * * * * * * * * * * * * * * * * * * * * * * * * * * * * * * //

dimensions      [0 0 -2 0 0 0 0];


internalField   nonuniform List<scalar> 
37190
(
-1.26471e-06
-0.011282
3.31883e-06
-2.32187e-05
0.0491085
1.80829e-06
-0.000325579
-2.32999e-05
0.000101828
-0.00175719
-3.18278e-06
1.33991e-06
-4.00168e-05
-6.51838e-07
-0.047765
2.27898e-06
-1.43466e-05
-2.01398e-05
-0.0423258
-0.125201
-2.81169e-05
-2.04484e-06
0.153495
2.0483e-05
-2.14575e-05
1.67694e-06
-8.84417e-05
0.000295252
-0.00759117
-0.0464605
-0.150923
9.48099e-07
0.00142045
-0.00210747
-0.00181707
4.06277e-06
1.62384e-06
2.07616e-05
1.39442e-05
7.09218e-06
4.38558e-05
0.0192641
-7.12204e-06
-0.00239382
-3.49856e-07
-4.38777e-05
-0.116248
0.00570125
3.28228e-06
0.0370936
6.21045e-06
9.31615e-06
0.000120914
-2.17313e-05
5.96543e-07
5.94208e-06
-0.00106097
1.63186e-06
0.0964574
-1.96656e-07
0.0851894
1.61155e-05
-5.36458e-07
0.026793
-2.36126e-05
-1.19529e-05
-7.51019e-07
0.000477627
0.000367043
-4.40418e-07
6.04125e-07
2.73986e-06
1.43063e-05
3.04607e-06
8.94285e-06
-8.37361e-06
-0.216587
5.09792e-05
-0.0304037
1.48629e-05
9.69469e-08
-2.80076e-05
3.11458e-06
0.000251368
0.391478
-1.33624e-05
0.167278
-0.0345342
-0.0498322
1.00205e-06
-0.207123
0.00155829
-9.55185e-06
2.18684e-06
-7.03721e-08
-1.36513e-05
-0.0239374
-8.81296e-07
0.000315
0.0529379
-1.28309e-05
-0.00136838
-0.144287
0.00252876
5.34582e-07
-9.46169e-06
-0.136007
6.29145e-07
-5.74085e-07
-0.123968
-0.154481
-0.0428866
1.54328e-05
2.29212e-06
3.55274e-06
-1.6521e-06
5.41279e-05
1.33492e-05
7.12429e-06
-1.12686e-05
5.2101e-06
0.0491408
-4.98669e-07
2.4567e-06
-1.97576e-06
0.221991
2.25889e-06
-1.65288e-06
-0.012774
-7.80047e-05
-1.79668e-06
-0.0580472
2.54901e-05
-1.51309e-05
-0.141655
-3.30476e-06
0.000195544
0.000715278
0.000300449
1.61987e-06
2.70444e-05
0.000246049
9.45285e-05
-2.05969e-05
-6.99556e-07
-8.58134e-06
-0.157989
-1.97216e-05
0.00128991
8.23687e-07
-2.63496e-06
-3.16701e-05
-0.00520552
1.3217e-07
0.086585
-8.73898e-07
-0.0299237
-3.33216e-06
-0.152733
0.000168731
0.000381321
-5.50209e-08
-0.0268153
0.236514
-1.94125e-05
-1.1789e-05
-0.0208971
-0.00236131
0.283379
-0.000590438
-3.30856e-06
0.237821
3.77794e-07
1.89241e-06
0.067091
-0.000152504
3.53827e-07
-1.31932e-05
0.000287119
2.5537e-05
-0.0023265
9.04487e-07
8.27681e-07
1.37072e-06
-0.232284
4.49385e-07
0.00162835
-2.93244e-05
0.16437
-0.0037717
6.61238e-07
0.000156605
2.38351e-06
9.80957e-06
-0.00814743
2.57194e-05
7.14567e-06
-0.000158369
0.128728
-0.0843475
0.00221186
9.05061e-07
-2.71338e-06
4.44739e-07
0.220044
5.19598e-05
-0.000314181
9.06771e-06
5.10654e-06
0.164913
-3.17903e-06
0.273493
8.66677e-07
6.94868e-05
-0.0604814
0.188674
0.00129038
0.00136245
-0.00202791
4.30954e-07
0.101844
1.25351e-06
-7.50662e-07
-0.001333
-0.2055
-1.0206e-06
-0.0357438
2.81993e-07
6.41538e-05
0.0540374
-1.06746e-05
1.25258e-06
-2.53413e-07
0.151229
5.35375e-05
-0.00178966
0.000582031
0.0171259
-2.37844e-07
2.86447e-06
0.000133654
3.97034e-07
0.215958
8.4517e-06
1.94111e-06
-0.228195
-1.17395e-06
0.0490915
0.00147113
-0.00110665
-4.60081e-06
0.000208372
1.06374e-06
-5.3264e-05
2.34586e-05
-2.87453e-07
0.000193152
5.86458e-07
0.00019432
-1.0115e-06
0.0385231
2.12717e-05
9.61324e-07
-0.119359
1.10504e-05
-4.87489e-07
1.11936e-07
-8.3585e-06
-0.214793
1.76497e-06
0.140172
-0.147744
-0.00215094
-1.93056e-05
0.00690329
3.26523e-06
-2.58527e-06
0.0130213
9.84065e-05
2.72942e-05
-0.00443491
3.39725e-06
0.00182923
7.24119e-05
1.16101e-05
1.50575e-05
5.20263e-06
2.84058e-06
-0.00030273
-7.40853e-08
4.36714e-06
-0.00133081
0.000809811
-0.000103093
0.0103396
-1.24976e-06
-4.86916e-06
-0.227691
-0.000131381
1.75242e-06
-0.0230662
-0.386536
-2.20087e-06
-0.000937775
2.28689e-06
2.30006e-06
-6.55899e-07
6.03974e-07
0.0662554
2.02041e-06
-2.15266e-07
-0.223867
6.72218e-06
-0.00182158
0.021942
-0.256729
-2.58178e-05
-0.00664286
0.000187348
2.32991e-06
-8.30211e-07
-1.91436e-05
-0.00150868
-5.24543e-06
-0.0365095
-0.00156924
-0.000146269
0.113578
-4.29139e-07
0.216977
6.77086e-05
-0.000107062
-3.52982e-06
0.1708
-0.00502211
-0.00498324
-0.0131928
4.89412e-05
1.02788e-05
0.0392014
-1.18716e-05
-0.00101985
3.26995e-06
5.87729e-06
-0.140626
0.00123476
-0.000555894
-2.0701e-07
-1.83203e-07
1.39167e-06
1.07344e-06
-0.0150172
2.05289e-06
2.98398e-06
-3.61767e-05
-0.549004
-3.68283e-07
-0.0241042
0.000494448
-2.03228e-05
2.36417e-05
-0.0339854
0.000339377
-0.154813
-3.41925e-05
-0.00043993
9.2912e-07
1.39878e-07
-0.00112388
4.70785e-05
-1.12198e-05
0.000822964
-3.27955e-05
-0.230912
-1.99506e-05
0.00152945
-0.00109793
-0.00399496
-0.000886361
-0.0304662
-0.0286996
0.00370174
-0.0512834
1.01478e-05
-0.000265538
0.00185207
-0.000167274
6.33883e-05
-0.00169073
-1.73004e-05
3.93264e-06
0.000931724
2.69444e-05
3.26341e-06
-2.07572e-05
-1.11528e-07
0.0409626
-4.84769e-05
-1.3974e-07
0.00140139
1.16119e-07
-0.200298
-3.13103e-05
5.82406e-06
-2.05342e-05
-4.24749e-07
-2.17326e-07
0.0462145
1.00263e-05
1.52559e-07
-6.17743e-06
0.275212
-0.238881
5.21252e-06
-2.96224e-06
4.81746e-07
-0.000156705
-1.8417e-06
1.79218e-06
1.57368e-07
-0.203509
0.00398513
-0.0107335
-1.55828e-06
1.83688e-06
0.00126822
-0.228041
-7.23111e-10
-2.78839e-05
3.13012e-06
0.0147556
1.1322e-07
-3.12655e-05
0.00038248
4.98319e-06
0.144312
8.24794e-07
0.00205398
-8.59678e-06
-1.5615e-06
-1.78899e-06
1.38149e-06
0.0609832
-1.4132e-05
-4.02227e-06
0.154659
-0.0367301
-2.46379e-07
-0.0233802
-9.00441e-06
-0.000131312
-0.00126239
-1.46742e-06
0.0347883
-1.22074e-06
-0.144442
2.36573e-06
-1.84777e-08
2.24793e-05
1.30028e-06
0.0109361
2.97984e-05
3.48689e-07
0.0882278
0.0004615
-4.33158e-07
-0.000673407
-0.672887
-1.00995e-05
-3.24137e-08
-0.000144779
-0.233224
0.0545426
-0.00202566
0.361984
-0.0112636
-0.000104384
-0.227708
7.23012e-06
1.75683e-06
2.2333e-06
-2.83881e-06
0.241443
0.0730968
-2.20396e-06
0.000100528
-0.00145846
-8.59868e-07
0.0430106
8.13111e-05
1.20158e-05
-5.28798e-05
-1.84784e-06
0.000345619
-0.00149981
-1.01278e-05
-4.42121e-06
-2.56755e-06
-0.00379213
-0.03082
-3.18155e-05
-1.27276e-08
-3.04937e-06
-0.00959617
5.04202e-05
0.00821132
1.69386
-0.0215124
-0.0900529
4.66616e-06
0.159997
-1.16874e-08
-0.127429
2.40113e-06
0.00723093
0.167164
2.40465e-05
3.13771e-06
1.27935e-07
-0.232245
1.98464e-05
-0.00188905
-0.764202
0.498861
2.16185e-06
2.36289e-05
2.60273e-05
-1.567e-05
0.0146186
-1.96542e-08
0.000590018
-8.06957e-07
0.387922
-2.47928e-06
-1.03273e-07
-0.00522783
8.85238e-07
6.61013e-07
7.22658e-06
-1.59162e-05
-1.36955e-08
-1.09832e-07
3.25736e-05
-2.15129e-05
0.107517
1.38146e-07
1.91634e-05
-0.000221386
-1.73719e-05
9.41832e-07
-8.69313e-08
2.27939e-05
-6.32728e-05
0.0366009
-0.00137183
-3.05103e-06
1.55208e-05
0.00883847
-0.084469
-4.40987e-07
1.64388e-06
0.073819
0.155163
-0.120328
0.0373415
-9.87596e-06
4.07902e-05
-1.0028e-06
0.0854741
-1.06215
4.33428e-05
-3.29983e-05
0.118926
-0.000469056
-2.86347e-06
0.0015447
0.0502648
-0.0353223
-5.13535e-06
-0.00025926
-0.000196402
4.67924e-06
1.42372e-05
4.29908e-06
-0.223434
0.0112703
-6.71187e-08
0.00219108
-0.00242449
-1.743e-07
-2.55544e-06
-1.98017e-06
-0.00110211
-9.88332e-06
1.82111e-07
0.024182
-0.00088843
-2.07541e-05
-0.279393
-1.92751e-06
-7.59377e-06
4.2291e-05
-3.25748e-05
2.0863e-05
-0.00103801
-8.82115e-07
-0.000111281
3.27658e-07
0.233763
0.000158092
1.08974e-06
0.00731357
-6.16082e-07
-0.204866
0.0116484
-1.41444e-07
-0.020418
1.74522e-06
-5.09987e-06
2.35672e-05
-2.05866e-07
0.000616648
2.29403e-05
1.19929e-06
-0.000253413
3.16455e-06
0.000661459
0.0195914
-1.0231e-06
2.06873e-06
-0.0441649
-1.26771e-07
1.83558e-06
0.000228105
-1.9048e-05
-3.31552e-05
0.000889779
-2.71649e-05
2.47949e-06
-3.27854e-06
1.53849
0.0756535
-0.00123531
0.0862731
-3.1646e-07
-0.00236315
6.85955e-06
-5.16997e-06
-0.0681838
-0.00482458
-0.000158914
-1.16437e-06
-0.00499395
-1.44567e-05
0.791543
-0.000321628
-2.87738e-05
0.033228
-8.97821e-06
0.0108915
0.00268238
-4.83514e-06
2.54274e-05
8.64061e-05
6.3299e-05
2.78486e-05
-2.47821e-07
-3.20438e-05
-9.5281e-07
-0.00135523
0.000182367
3.25788e-06
0.00077401
0.0361803
1.13913e-06
1.13272e-07
0.107269
9.51896e-06
-3.16844e-06
-0.00106544
-0.0188503
0.106874
-1.02263e-05
8.62449e-07
0.0889713
-0.00150137
0.178371
-1.03041e-05
-2.27212e-05
-0.00101138
-5.75094e-06
-0.0042629
1.10473e-06
0.00186407
8.79352e-06
0.037885
6.45613e-06
8.71609e-05
0.000519811
1.39695e-06
0.000491489
1.43883e-06
6.7509e-06
-0.00129782
5.18845e-06
-0.00861101
-7.07966e-07
0.138453
2.24238e-06
-5.44422e-07
-0.000281032
-6.44096e-07
-0.197886
-3.27944e-06
-3.19648e-05
5.88938e-08
-6.87199e-10
-0.00461298
6.18026e-05
-0.126084
-0.195592
0.00251618
0.0866012
0.000977089
-3.53621e-07
-5.05234e-08
0.0504125
-0.00921489
1.82365e-06
-0.000461857
0.0828544
0.00162216
7.95965e-06
7.95469e-05
-0.0745294
-2.5921e-06
0.000133957
0.0791931
-2.02165e-06
-0.00160547
-0.0891795
1.78419e-05
-1.77289e-06
1.99461e-06
-0.0235057
-0.00770692
1.52583e-06
0.0155363
0.173606
1.60233e-05
0.0132858
-7.04436e-05
0.0473737
6.51074e-06
-0.00096893
-0.00303592
-0.00466048
2.64991e-05
2.17393e-06
-0.0883038
-0.00194699
-6.18523e-05
1.09989e-06
0.000372367
8.60503e-07
-0.00276189
-4.58064e-06
8.65514e-06
-2.59782e-05
5.68498e-06
1.41769e-05
0.000643985
-0.000133036
1.64068e-05
0.00101532
-3.01141e-05
0.154664
0.244413
3.00543e-06
4.58221e-06
5.96826e-06
4.12831e-07
-0.194388
-0.179188
-0.000667306
1.3844e-06
-1.69411e-06
6.76379e-06
-1.42244e-05
0.0346711
1.14224e-07
2.61479e-05
0.000168633
-8.96845e-07
-4.31718e-06
-2.15226e-06
3.56254e-07
-2.35628e-05
6.07924e-06
0.000109341
7.91651e-05
-2.68366e-10
1.93688e-06
0.0108444
-0.152573
6.52283e-07
1.14153e-06
2.4336e-06
0.000141251
0.000128396
0.175924
0.00150791
-2.42752e-05
1.04542e-06
-0.000186295
-0.0310036
1.05465e-06
1.09375e-06
-9.82478e-07
-3.13884e-07
0.00012048
2.18911e-07
1.03376e-05
0.00544521
-2.98852e-06
0.038697
-0.0343445
-7.12588e-06
1.8074e-05
-2.71605e-05
-0.984916
0.000249678
0.0117783
-0.000540769
-0.157661
2.9133e-06
-1.30251e-06
8.35756e-05
0.0122696
-0.00023533
-1.15955e-06
-0.00599415
1.67911e-09
-1.00113e-06
-0.000342705
1.22594
0.000258605
0.000152418
8.18065e-07
-7.05123e-05
0.000106
0.487935
-7.66181e-07
-0.00224804
3.40906e-05
-0.808188
1.51811e-05
2.9666e-06
-0.137763
6.09257e-06
0.0493655
0.0166806
-7.61324e-07
-2.03981e-07
0.159774
-2.7482e-06
-1.62835e-06
0.0314108
-9.89667e-07
0.160685
-1.23313e-06
-0.127894
-0.000124491
-0.00325237
-0.222246
-3.75303e-09
-1.21221e-07
9.58915e-06
5.26599e-06
2.1917e-06
2.54656e-05
5.18151e-06
-1.99224e-06
-5.5429e-05
-0.832668
-1.80589e-06
-1.69695e-08
2.8639e-05
-5.90194e-07
-2.54931e-07
-4.99752e-06
-0.100538
8.84729e-06
5.69557e-07
-0.000710747
-3.28672e-06
-2.89606e-06
-0.0272985
2.74735e-05
-2.712e-05
-4.8045e-05
4.87633e-07
-5.02778e-05
3.21776e-05
1.04184e-07
0.000666793
-0.112636
1.1228e-06
-7.98014e-06
-3.42871e-05
-7.36699e-07
-0.0335573
-9.51526e-07
0.315361
-2.53509e-07
1.25856e-05
9.30727e-06
1.59032e-07
-0.00160754
-0.000124736
4.9388e-07
-3.13336e-06
-0.000236815
-0.213698
1.5988e-05
-3.36045e-05
-4.74045e-07
-0.0150667
9.37371e-07
0.176843
2.00255e-06
-2.74878e-05
9.3557e-06
0.000776622
-3.19564e-06
0.0671876
7.00031e-06
-2.83286e-05
-2.38078e-05
1.00099e-06
-0.0160112
0.00219928
8.74169e-06
1.31453e-05
1.79558e-05
2.45378
1.00806e-05
0.190485
-0.0503932
0.00061933
-9.74176e-06
-1.98943e-05
-4.51439e-07
-0.0883294
-1.33006e-06
9.75834e-06
5.29159e-06
-0.000144001
-0.0545157
-1.21954e-07
-1.14046e-05
1.48674e-05
1.98626e-05
0.017333
-0.138258
-2.02632e-05
0.0359035
2.47471e-05
1.54965e-07
0.000636839
1.49586e-05
-0.115749
-2.35412e-08
0.0298334
-3.31124e-05
1.47381e-06
0.152094
3.34534e-06
0.000303707
-0.000673383
0.173245
-1.81683e-06
0.0129092
2.57241e-05
-0.162903
0.00913389
-2.20972e-06
-9.80839e-06
4.99599e-05
0.812763
0.000558046
0.000298073
-3.63185e-06
-0.141245
-4.05148e-07
-0.00246407
6.22373e-07
-1.4151e-05
-2.29109e-05
0.000775248
1.29638e-05
-0.00153412
0.0785153
5.3189e-07
2.834e-06
2.18371e-07
-0.19609
-8.37248e-08
-1.72341e-05
0.000114964
-0.00232966
1.44655e-05
-0.0347744
1.70696e-05
-0.16775
-3.10484e-08
-4.38661e-07
-3.02495e-05
-1.04809e-06
-0.176163
2.00885e-07
-3.03339e-05
9.65721e-06
0.755642
-0.031101
8.29581e-07
0.000587193
2.27599e-05
0.000208607
-4.2714e-06
-0.000234018
8.59849e-06
-5.84812e-07
0.0648641
0.0454762
-0.000621783
-1.54782e-07
-0.00186446
2.89033e-05
1.15377e-07
1.64777e-05
-2.85066e-05
-0.000530388
0.0454139
-4.1904e-07
-1.39571e-06
-1.01145e-05
-0.00193994
3.13803e-05
0.154052
-0.187399
0.116429
0.00015883
-8.58871e-07
-0.0386091
0.0005423
-3.42983e-08
7.02786e-06
7.08463e-05
9.84933e-06
-7.9371e-06
4.8845e-07
0.00688054
4.11528e-05
-1.47883e-05
2.33968e-05
0.237311
0.0168622
0.00709348
0.219085
-0.231642
5.18267e-06
0.0265674
8.89104e-06
0.0234101
1.76154e-06
0.000281373
0.105634
-0.190249
-1.47141
4.66874e-07
5.39737e-07
0.0919907
-0.15901
-4.07383e-08
1.03147e-05
-6.6399e-05
-1.35155e-05
1.79488e-05
-0.0225632
-0.0819453
-0.00106977
-2.13969e-06
-1.13931e-06
1.74248e-05
-0.139285
-4.61958e-07
0.0842264
4.32273e-05
-0.000666286
-0.00243589
1.3621e-06
0.164159
-0.107329
8.30853e-07
9.26165e-06
4.69954e-07
9.12181e-08
0.0191205
1.56217e-06
1.17414e-06
0.154972
-2.19465e-07
-2.02362e-05
9.2718e-06
-0.174358
1.71579e-05
4.78314e-05
-0.182676
6.09827e-07
1.30492e-06
0.0538387
-3.37695e-05
-9.80357e-07
-1.98365e-06
-0.00812152
0.0466093
-3.63018e-08
-6.76516e-07
2.01946e-06
0.000496375
-0.114639
1.75287e-07
0.0718907
-2.87758e-05
1.36196e-05
-0.0157482
1.66454e-05
-0.000214511
8.93402e-06
-0.000589116
-0.00021384
-0.23642
7.88906e-07
9.5217e-06
8.74141e-08
-4.2209e-06
-2.69589e-05
-1.3169e-06
-4.33029e-05
0.00176036
-0.00362889
-4.12434e-06
-2.26358
-3.02224e-08
-0.00462808
1.02464e-06
-0.04878
0.0483574
-5.2878e-05
1.00095e-06
-1.23303e-06
6.64315e-06
-7.19929e-07
9.30953e-06
1.62555e-07
-0.00215071
0.0230923
0.199289
0.000405256
-0.00939687
0.00156054
-8.95561e-07
-0.013684
0.00133622
-8.0495e-07
-0.00139226
-2.12359e-05
0.0503579
1.16921e-05
-2.50725e-05
-0.222772
1.50946e-05
6.67795e-06
-1.37055e-05
1.1177e-06
-7.35487e-07
-0.0695039
-0.000190671
-1.71556e-07
-1.25887e-06
-4.61845e-06
0.0671422
6.73182e-07
1.11541e-06
1.50388e-07
-2.81774e-07
-0.00289622
-8.56716e-07
-7.753e-07
0.227538
9.16904e-06
-1.07849e-06
0.147385
-0.234647
-1.38355
-0.186726
-2.43969e-05
0.0350103
0.00054741
1.61729e-05
-0.0748986
0.000887438
0.000268593
3.83361e-06
8.84003e-06
0.000269125
-0.197889
0.0551137
-9.08627e-07
6.5054e-07
-2.19324e-06
-2.39893e-06
0.00416481
-0.000711393
-2.38048e-06
2.23145e-08
0.000416889
1.49979e-06
-0.00540331
-3.70656e-06
-0.227478
-0.00215212
1.88214e-06
-8.20523e-05
2.04529e-05
2.45378e-05
-5.23768e-05
-2.5214e-05
6.5363e-06
-0.096807
-0.00408203
-2.30822e-07
3.93459e-06
0.275617
-2.61756e-05
0.135096
5.79372e-06
-1.91376e-07
-7.40576e-07
0.00023476
-2.11183e-06
8.69444e-05
0.0738065
-1.34835e-07
-2.7737e-05
-0.0704678
-0.00862165
1.49114e-07
1.32668e-06
2.32457e-05
-9.09371e-07
-4.18203e-06
0.00863893
1.38351
2.10948e-06
-0.0167089
0.00788224
-0.00643674
0.00151833
1.2229e-05
6.70859e-06
0.00321306
0.000564423
0.00166813
-0.000222564
-1.03267e-05
-2.18459e-06
-0.0402671
-7.19186e-07
7.28137e-07
-0.000238605
1.20913e-08
0.186777
8.41284e-05
-1.85934e-06
0.118559
-3.71937e-05
4.34021e-07
-0.00222829
2.24423e-05
-0.00145656
1.38103e-07
9.9559e-08
0.000203484
-3.31752e-06
0.0177501
-7.25116e-07
8.22541e-07
9.30219e-06
9.04818e-07
-1.72678e-07
-2.33154e-08
1.64567e-06
-0.0297088
0.0317637
5.42932e-07
-0.000217722
2.24399e-05
3.30511e-05
-0.0465708
2.29725e-06
1.19222e-05
0.983699
0.000146606
-0.000211086
-3.9869e-05
-4.2574e-07
1.69032e-05
0.348541
2.53611
-2.46434e-07
4.66589e-05
8.74997e-07
-0.00141774
-0.0579427
0.0762262
-0.00209591
6.02796e-06
2.19409e-05
2.14271e-05
-0.227921
2.09916e-05
-6.41386e-07
0.000468501
-0.00037219
0.515929
6.64755e-06
-1.42764e-05
5.42921e-05
-3.77597e-07
0.163684
-0.00374812
7.11382e-06
-2.73449e-05
2.44075e-05
-4.44107e-07
0.229667
-1.91233e-07
-2.29088e-06
-3.80259e-08
-0.244086
-0.0420129
1.63381e-07
-0.00600827
8.14014e-07
0.836593
1.68297e-05
-0.213028
-9.50523e-07
-0.0511895
1.19993e-05
-4.85924e-06
2.40174e-09
0.00363367
-0.0219664
9.32493e-05
-0.0037654
-4.76909e-07
1.0136
-0.0516125
-0.170955
0.00653637
1.21068e-05
-1.24074e-07
-6.81139e-06
0.0950585
-0.000889693
6.40866e-07
-0.00200811
-1.94383e-06
5.54812e-06
0.00145671
-1.22668e-05
-1.30172e-06
-2.03783e-05
2.24725e-06
-0.0150301
-9.74366e-07
-0.0736161
0.000524743
0.00274267
7.99945e-07
-0.00484734
-0.153043
-2.11125e-05
-0.219181
1.03322e-06
9.64297e-06
-0.210038
-1.67327e-07
-2.21446e-07
-2.51464e-05
-3.60875e-06
1.11084e-06
2.20499e-05
-0.233948
-2.93016e-08
0.00518156
1.51907e-05
-2.89239e-07
2.5736e-05
0.802526
-8.40754e-07
0.0237173
-2.29978e-05
0.000172375
1.42836e-05
-4.63138e-06
7.71633e-06
0.0316297
0.0969155
-6.15415e-05
8.59955e-07
3.32202e-05
-0.1667
6.3918e-06
0.000700781
-2.03151e-05
1.31113e-07
-0.00568211
8.1598e-05
-2.4859e-07
-0.034867
0.00972609
1.48209e-05
3.22406e-05
0.00691477
-0.000688264
3.47684e-07
-1.16037e-06
-2.50518e-06
4.50391e-05
-2.52924e-05
-0.00480567
-2.35456e-07
-1.3483e-06
1.26878e-06
9.10898e-07
-1.09418e-06
-0.000600337
-1.15891e-09
0.0705773
0.132995
0.897529
0.000523868
0.0663852
1.61361e-05
-0.00152894
-2.12237e-06
2.32604e-06
4.40045e-07
0.0589731
6.02576e-06
-0.00211903
6.04514e-06
4.14559e-05
-2.57658e-05
-0.00306702
0.217585
1.70845e-05
4.88694e-07
1.22636e-06
7.12088e-06
0.000221192
1.62049e-07
4.26303e-06
1.28373
-2.52815e-06
0.0809938
-2.63932e-06
-1.43314e-05
3.56746e-05
0.0837098
5.61982e-07
0.00033799
-0.00250765
-0.000109189
-0.00163813
0.000323573
8.69702e-06
1.13281e-06
3.73888e-05
0.00150633
-0.00406773
6.78101e-06
1.49358e-06
1.20909e-06
2.78077e-07
-2.26246e-05
0.0846632
-1.73474e-07
0.621185
0.0871286
0.000519267
0.000128117
-3.63998e-05
-0.00349364
-0.00163492
3.15597e-07
9.07146e-06
-0.00586764
1.04725e-05
-3.9287e-07
-0.000470041
-3.20205e-05
-0.00126784
4.63821e-07
-4.5715e-06
3.70281e-05
-2.74307e-06
6.52655e-06
-0.00610968
0.047809
-0.00354187
-3.56405e-06
-5.45637e-06
6.46489e-07
2.46196e-06
0.0995197
-5.10763e-06
1.26107e-07
0.0557843
7.81483e-07
0.00221797
-0.00452422
-0.0257849
-0.0565993
0.00328303
0.153835
0.00183726
-0.00599638
-0.0222285
-3.93329e-07
-0.055779
0.0458044
-1.42444e-06
-1.51334e-05
0.0696862
6.27099e-07
4.5959e-06
-3.51476e-06
4.29418e-07
2.08794e-06
-0.00582715
0.000787973
-3.05618e-05
-0.000547796
-0.0178327
3.52934e-07
-0.0491101
-0.179608
0.000217807
-1.44789e-05
9.78158e-06
-2.38407e-05
1.85022e-05
1.12955e-05
2.09477e-05
0.000264678
0.00440351
0.0116785
2.39576e-06
0.0695686
-4.62971e-05
-0.00359205
6.42434e-06
-9.78346e-07
-1.52904e-08
-0.00418293
0.000124422
-1.23935e-06
-0.0193394
-1.27827e-06
0.519198
0.000679383
2.11723e-05
0.0069004
1.54655e-05
0.000440957
-1.32833e-06
2.31344e-05
8.47363e-07
4.62451e-07
0.000267175
-2.98512e-05
3.15114e-05
0.0695383
6.74852e-06
5.80163e-06
-1.05878e-05
4.32702e-07
9.85316e-09
-1.25995e-05
-2.63734e-05
0.0775398
-2.8482e-05
-2.01193e-06
1.45258e-07
0.000103489
-0.240264
0.00982231
0.556402
2.64153e-05
-2.2654e-05
-1.78337e-07
-5.10291e-05
-2.52966e-07
1.30678e-06
1.04926e-06
3.88498e-05
0.044913
0.00659995
0.00014968
-7.02954e-06
-0.213766
1.35127
-2.32496e-08
-7.2152e-07
0.2286
1.98109e-07
-1.29573e-06
0.000109456
-0.000140317
0.000467476
8.84523e-06
6.86545e-07
9.622e-06
7.30988e-06
2.32899e-07
1.00003e-05
-2.68233e-05
1.39366e-05
7.66724e-07
3.04627e-06
-2.27113e-07
0.00101933
0.000346627
-8.79286e-06
-0.0835036
-2.3907e-06
8.72364e-07
4.63564e-07
9.45868e-06
2.97449e-05
-1.34473e-06
7.81397e-06
4.15163e-05
0.00706582
0.520786
1.63278e-07
-4.17248e-07
0.0699667
-0.0131162
0.00243588
-0.0160683
-0.00380967
2.257e-06
6.07668e-05
0.024967
-9.35094e-07
0.00848113
-2.43028e-06
0.0397625
0.0014581
1.45649e-05
3.24722e-07
0.00285261
-0.0721347
0.000249993
0.000500361
0.000832196
-8.89914e-05
2.40437e-05
0.000138575
0.0275378
0.0316453
0.183448
2.61494e-07
1.55977e-07
-0.0625049
0.00133904
-0.000180434
0.000147382
-0.0280548
9.68605e-06
-2.59475e-06
-5.60534e-06
-0.0330433
-0.000403661
0.955693
-3.6004e-05
-0.00156032
8.63641e-07
7.46482e-06
1.0011e-05
8.38668e-07
-0.0947707
-4.60601e-05
1.5994e-07
0.000296132
-0.0750644
-1.38147e-05
-2.7342e-05
-0.142204
0.0771517
-0.136907
0.233817
0.0585997
-0.00305778
6.16362e-07
0.000219696
0.745071
-0.186731
8.08461e-07
-3.48645e-05
-2.46791e-06
2.07292e-05
-5.25463e-07
8.5829e-07
-1.16245e-06
-0.00780357
-1.12905e-06
-0.17932
0.0772096
-3.93051e-06
4.08175e-06
-0.00147412
8.66019e-05
2.81348e-06
-0.229591
6.86862e-06
0.00106896
0.000321296
-0.00410747
2.39118e-05
0.000382643
0.000151275
2.65345e-06
0.000241938
0.000795514
0.218135
-1.66996e-07
-0.24587
2.78709e-06
-3.70038e-06
2.37556e-05
0.000760279
-0.00220221
-0.0234523
9.13964e-07
-1.70912e-05
6.96624e-06
-0.00282574
-1.23844e-05
0.000208218
1.93448e-06
1.84042
-2.77082e-07
1.39009e-06
-0.194282
0.0331228
8.95544e-06
-0.258082
0.202352
0.13739
-0.153536
-0.0133996
0.190051
3.17332e-07
-1.28501e-05
1.47115e-07
2.60886e-06
-0.0487256
0.000216331
0.000292361
-0.086994
4.29818e-06
-1.37049e-05
-0.00467041
-0.0608288
0.00026427
7.4161e-06
2.62609e-05
-1.32933e-06
-1.0043e-05
-0.00229845
-1.66633e-07
-0.0076476
-7.06933e-06
-0.00013688
-2.18442e-05
0.777378
-0.00185827
8.2569e-07
-2.07994e-06
7.02943e-06
0.00273219
0.000409215
-1.63989e-05
9.70499e-07
0.000780317
5.47636e-07
-2.08079e-05
2.29592e-05
0.00278633
-2.20075e-05
0.000329317
6.00909e-07
7.36717e-07
-2.64601e-05
-7.5894e-06
0.000897257
-0.000881684
-1.57386e-07
8.8668e-06
0.000286038
0.060829
-0.187675
-7.1693e-07
1.58107e-05
-6.36046e-07
-0.0382194
3.27093e-07
-6.1926e-06
-4.46653e-05
-0.00233196
-0.0332431
-2.45797e-05
-5.67604e-07
3.48591e-07
-0.249557
0.000535035
-3.3144e-07
-0.0108443
6.81041e-05
-2.35365e-05
-1.25106e-05
-0.173547
-7.44338e-06
0.0100437
0.357824
-1.5407e-05
-8.50309e-07
0.069359
6.99061e-07
-3.62922e-07
6.56484e-07
0.0615075
1.97941e-06
5.48085e-07
0.000587107
-3.0188e-05
5.46939e-06
2.1567e-05
6.95414e-06
2.91311e-06
0.103689
-0.000258961
0.00582635
-0.000393574
0.000602641
-3.47008e-07
-0.0105174
-0.000802943
-0.000672389
0.054016
2.12337e-06
-1.11354e-05
0.000196512
0.000246059
8.25531e-06
-0.187122
-0.00349474
4.29312e-05
-0.0532057
0.218834
1.88821e-06
-0.00241041
-0.00301764
0.00270215
1.63658e-05
7.54609e-06
-2.43938e-07
7.95285e-06
2.35163e-09
0.0200345
0.00300975
1.55767e-07
4.28058e-07
-9.15447e-07
-0.000666626
0.000330455
-0.000350762
0.0292707
0.059007
1.0475e-06
0.183652
8.03307e-06
1.59954e-08
1.96918e-08
-0.0150842
-1.15668e-05
-2.65326e-05
-1.4798e-06
-0.000597862
6.23507e-06
1.43699e-05
-0.157492
-1.39324e-06
0.00127901
-0.044228
-0.0327033
-0.11179
-0.000265799
-6.40324e-05
0.00163081
7.34465e-06
0.842758
-6.79412e-07
-2.24486e-06
-1.86161e-06
1.21164e-06
0.0950809
4.11897e-06
-0.000515544
-9.23528e-07
0.000325917
-1.93048e-05
1.37263e-06
-3.10648e-07
6.651e-06
-1.49598e-05
1.33729e-06
-3.90005e-06
0.103281
-8.91533e-06
1.71987e-05
2.40674e-05
-1.72891e-05
0.00306624
1.86694e-07
2.57366e-06
0.000780285
0.0448838
0.211923
0.0762587
0.140424
-0.00141792
-4.24611e-06
6.65077e-07
-0.000135021
0.0138367
-0.000734685
-0.0435073
-5.28192e-06
-5.0346e-07
-0.000492423
-1.12812e-07
0.790314
0.000360929
0.0547975
3.41e-07
-2.12882e-07
5.98938e-08
5.06062e-07
-0.0151704
-6.25511e-06
-2.03067e-07
2.47298e-05
-0.0395541
6.77839e-06
-5.45686e-06
-2.2452e-06
-0.226433
4.06099e-06
1.32517e-05
-0.0264631
0.526038
0.00112528
0.138243
0.0926696
-0.0512493
7.20815e-06
-0.22235
8.86832e-07
-1.23952e-06
0.000779837
0.00130545
0.0013105
-0.0695594
4.28906e-07
3.43223e-06
-4.8353e-07
0.000672347
0.947246
2.62602e-06
0.0763961
4.09198e-05
0.0206124
0.119083
-6.23107e-07
-0.000767554
-4.62982e-05
2.19417e-05
-3.86322e-06
-2.07196e-07
-0.097443
-0.0458367
-1.92731e-07
6.9634e-06
0.352786
1.12464e-08
8.5056e-06
-0.0761623
-0.00430624
5.95885e-07
9.19691e-06
8.54852e-06
-1.04428e-08
0.20558
1.56249e-05
1.27801e-06
6.07982e-07
-0.0284474
-2.48723e-06
5.56339e-07
-0.0832359
8.80171e-07
0.00292995
0.131415
-2.46216e-05
1.3798e-05
9.70814e-05
-0.255353
-7.4327e-07
1.59384e-05
0.0266254
-0.000161956
6.87283e-07
0.00130699
0.000379938
-0.00752336
-0.122297
2.02619e-05
0.00907303
-9.72019e-07
-4.57165e-06
2.31254e-07
-1.40089e-06
-7.69157e-06
2.49159e-06
-0.00351237
-2.47148e-07
5.74001e-05
-1.02722e-05
0.0101038
-0.0262927
3.7091e-07
-3.49045e-07
-0.189309
-0.0780283
0.00010874
4.90147e-07
1.81355e-05
-1.45083e-06
-1.3547e-05
7.16578e-06
-0.235064
3.32325e-05
3.05203e-07
-0.160708
0.0983411
4.34597e-06
6.21683e-07
-0.0567378
7.67842e-05
5.69777e-07
-0.0841009
-0.171826
5.2507e-07
-2.65669e-06
0.00370019
0.239612
-0.00359049
-5.33908e-06
-0.00353926
-0.0136369
1.44799e-05
2.12031e-06
0.000223978
-1.58447e-07
-0.117698
1.38416e-06
-3.32844e-05
-0.0639262
-0.148395
8.61582e-07
1.16812e-06
-0.0428085
-0.00899844
-4.29933e-06
-5.69241e-06
8.5634e-06
3.26321e-07
1.84152e-06
1.74205e-05
0.0424216
-2.68628e-05
-0.000619442
-0.0042051
2.21326e-05
-1.79216e-07
1.15669e-06
-5.76484e-07
-0.202905
-0.074145
0.00112822
0.000978784
-2.16864e-05
0.00968911
0.00172335
-3.65918e-05
1.12614e-06
6.33376e-07
-0.00398274
-0.0421162
1.8939e-07
-3.06791e-05
-1.50195e-07
-5.23897e-07
0.0423841
0.00178572
-2.18282e-05
-2.63374e-06
7.59238e-07
0.0608442
0.0280122
-1.88698e-05
7.6736e-05
0.000107861
-0.0248077
1.39872e-05
0.00027929
0.178703
7.52534e-05
-2.73476e-06
8.04241e-06
-0.000149886
2.30124e-07
-3.54897e-06
-0.14751
0.00166772
0.0920491
-0.000657947
-2.78973e-06
-0.0960381
-2.6181e-05
-0.00214083
4.19003e-07
-7.5812e-06
2.87296e-06
0.000106314
-5.05608e-06
0.123072
1.35407e-06
9.34107e-07
-2.40788
-0.000172318
-0.00250247
-1.113e-06
-4.41224e-06
-0.226971
-0.0031895
-0.00147738
-2.42821e-05
0.0121205
0.00117019
-0.00358298
0.000248433
0.034463
-0.0610169
0.0713902
1.39834e-07
3.8027e-07
-2.66299e-06
-0.000242014
-0.00337278
-1.84409e-07
-3.59252e-05
0.00198017
-0.0929975
-8.41795e-08
0.0556667
3.20861e-05
6.67397e-05
1.68628e-05
3.05969e-07
2.29807e-07
0.00138429
-2.47909e-05
-0.00135993
-6.3421e-06
7.70484e-07
-0.201611
-0.170173
3.03274e-07
7.31045e-05
7.00436e-07
4.45874e-07
1.50172e-05
-0.0758858
5.64183e-05
-1.05022e-06
-1.27192e-05
0.120223
-0.10275
0.000139596
-0.0982281
7.17921e-05
0.115596
-4.92136e-06
7.93091e-07
-1.53578e-06
-1.386e-06
0.00233578
0.000337196
-9.00653e-07
2.45963e-05
2.24057e-05
1.82259
0.00172381
-7.41238e-07
-3.84336e-07
8.81537e-06
2.84228e-05
-0.0256118
0.0202194
-2.00623e-05
-0.114495
-0.00297917
6.82016e-06
4.58465e-05
1.36228e-06
1.47469e-06
-3.81698e-05
-2.25121e-05
3.14794e-05
0.000135577
-6.68546e-07
-1.01707e-06
-1.44812e-05
0.17492
1.9214e-06
-1.08889e-05
-0.104403
-0.00452184
0.00249809
2.93796e-06
0.147676
6.84125e-07
-0.005605
-0.21445
-0.153436
1.71219e-05
7.19575e-05
5.19526e-06
-2.18321e-05
0.0596006
-0.0564917
-0.032455
1.43536e-05
-5.99185e-07
-7.72971e-05
9.27002e-06
7.72466e-07
0.144736
0.000102966
-0.000474809
7.51788e-08
-2.9092e-05
1.25577e-05
0.000867903
1.56047e-06
0.000224457
1.26536
1.31848e-06
-2.61414e-05
-0.000236449
-1.35614e-06
0.0574559
2.09852e-06
-1.62374e-05
-1.64513e-07
2.19234e-05
-6.51096e-07
-2.86237e-07
0.184496
0.115525
-0.0218484
5.62483e-05
-0.000570238
0.193159
-3.74647e-05
-0.0161283
7.37173e-07
-1.87471e-06
8.99312e-05
5.68861e-05
0.00299032
0.215951
-0.233351
1.13114e-05
4.51457e-06
-0.000398409
4.20013e-06
-3.1464e-05
-0.100326
0.0725782
-0.047974
0.010737
-2.83272e-05
0.231986
0.000587325
1.2461e-06
-0.0231468
4.64992e-05
-2.6458e-05
1.04164e-07
-0.120509
2.54329e-08
-0.000791121
0.000691645
-0.0156815
-5.38326e-06
0.000652518
0.105012
-0.000674505
1.79853e-05
-0.0372775
1.27318e-06
-7.32553e-07
7.56923e-06
-1.36044e-07
-0.0575017
-0.113953
-0.00375894
4.20148e-06
-0.216113
-2.10829e-05
-1.47962e-05
0.0167002
-1.65039e-05
0.00029606
6.97751e-07
1.02871e-06
-0.0903401
-0.00230912
0.280451
1.08445e-06
-1.02783e-05
4.53738e-05
-1.10479e-06
1.25544e-06
-2.57678e-05
5.50013e-06
-6.94495e-07
-0.00254665
-1.79315e-05
7.6483e-08
1.65906e-05
0.00788559
-0.04011
-0.027039
2.79433e-05
0.0658887
-0.000471573
-5.33131e-06
-9.88109e-08
-2.54185e-05
0.0638914
0.283404
0.0284841
-3.27448e-05
4.30048e-07
7.42972e-06
-8.0097e-05
-1.05063e-07
9.22407e-06
-0.0959617
0.353006
2.58744e-07
-0.1249
0.124593
1.04398e-06
-6.07396e-07
4.49568e-06
8.22739e-06
0.0107309
-0.000526092
-0.00419196
-0.000790016
-0.00327097
0.00643802
0.000399248
2.57475e-07
7.51098e-07
0.040815
0.000102342
0.000144594
-4.33186e-05
-0.20136
2.79659e-06
-0.00202093
8.86266e-06
-2.01088e-06
-3.13307e-05
0.000240986
0.0015431
-6.27971e-07
-1.24156e-06
-0.22831
4.31155e-05
2.42637e-05
0.111667
0.286977
0.000142622
7.87536e-06
0.000491873
-7.40343e-07
1.13151e-05
1.09448
-0.0230386
-0.000396769
6.84874e-05
-2.94198e-05
-0.000355398
-4.85935e-05
0.00073956
-0.138808
3.48503e-05
-4.54019e-07
0.115939
-1.28838e-06
-2.17536e-05
-9.45424e-07
1.13337e-06
0.18447
2.74751e-05
-7.82832e-08
-0.00407075
-0.00591017
0.00226489
-0.0499098
-0.00318013
-9.47734e-07
-3.75999e-05
0.09517
0.0533948
0.000287241
-6.06376e-05
1.12269e-05
1.53457
-3.72031e-08
0.0154966
-1.91028e-06
2.66616e-07
0.000963453
-0.000118179
1.17213e-05
8.10294e-08
-1.10051e-07
0.00597867
-0.000543926
-5.54791e-07
-4.62878e-07
0.000301296
1.9144e-06
-0.654199
-1.44739e-06
-0.0285366
-0.0020977
5.1009e-07
-0.0612203
-1.47724e-07
4.10116e-05
-6.51525e-07