/*--------------------------------*- C++ -*----------------------------------*\
| =========                 |                                                 |
| \\      /  F ield         | OpenFOAM: The Open Source CFD Toolbox           |
|  \\    /   O peration     | Version:  v2012                                 |
|   \\  /    A nd           | Website:  www.openfoam.com                      |
|    \\/     M anipulation  |                                                 |
\*---------------------------------------------------------------------------*/
FoamFile
{
    version     2.0;
    format      ascii;
    class       volScalarField;
    location    "100";
    object      nut;
}
// * * * * * * * * * * * * * * * * * * * * * * * * * * * * * * * * * * * * * //

dimensions      [0 2 -1 0 0 0 0];


internalField   nonuniform List<scalar> 
37190
(
0.00583873
0.0147877
0.00588735
0.000137618
0.0104623
0.00584302
0.000688283
0.00115113
0.000159557
0.000790229
0.00584281
0.00583656
0.000699982
0.00584733
0.00767508
0.00341813
0.00107812
0.000451381
0.00931642
0.000175955
0.00108665
0.00583925
0.00888383
0.00224582
0.000907768
0.00322403
0.000522906
0.00116048
2.85909e-05
0.00968543
0.0137822
0.00583226
0.00151937
0.000690788
0.000710101
0.00105323
0.00584576
0.00228493
0.00223599
0.00446185
0.00109463
0.00753115
0.000963161
0.000629203
0.00583418
0.000468334
0.0064039
0.000254367
0.00588777
0.0109908
0.00165405
0.00349048
0.00174967
0.000200369
0.00583406
0.00287031
0.00083723
0.00584584
0.0102428
0.00583368
0.00974756
0.000976462
0.00582741
0.0153191
0.000915878
0.000788788
0.00583962
0.000414907
6.69743e-05
0.00582741
0.00583414
0.00236626
0.00118425
0.0058469
0.0033189
0.00257372
0.0153706
0.000534594
0.0109133
0.000951047
0.00583238
0.000457423
0.00584567
6.1841e-05
0.000182363
0.000997417
0.0122406
0.00964113
0.00846714
0.00583233
0.0153775
0.00150271
0.000831071
0.00584786
0.00584374
0.000812715
0.0102458
0.00583243
0.000144863
0.00843469
0.000872883
0.000125057
0.0157726
0.00907252
0.00583302
0.00202428
0.014585
0.00583333
0.00583911
0.0107302
0.0124489
0.00884879
0.00204704
0.00585819
0.00341364
0.00583449
0.000552716
0.00215974
0.00459802
0.00147434
0.00400811
0.0093578
0.00583495
0.00251644
0.00583303
0.0100555
0.00585794
0.00583254
0.000695171
8.01036e-05
0.00583268
0.0148734
0.00145205
0.000842079
0.0149521
0.0052599
0.000265099
0.000420301
0.000461308
0.00114964
0.00136896
0.00114806
0.000158301
0.000761238
0.00584296
0.00270919
0.0138452
0.00143782
0.000382995
0.00585467
0.00583574
0.000316763
0.000540902
0.00583132
0.00973766
0.00583804
0.0112057
0.00584214
0.014739
0.000299118
0.000296846
0.00342064
0.0079911
0.0120926
0.000314461
0.00159041
0.00991015
0.000575378
0.0118029
0.000831089
0.00498558
0.0119548
0.0034373
0.000872695
0.00983105
0.000822194
0.00361339
0.000910695
0.000208845
0.00216915
0.000559673
0.00583313
0.00583301
0.00588558
0.0142025
0.00583407
0.00208532
0.000940419
0.00954995
0.000665981
0.00583349
0.000428554
0.00586288
0.0029721
0.000663811
0.00154394
0.004646
0.000554928
0.00983829
0.0108243
0.000143873
0.00587214
0.00583528
0.00583448
0.0122142
0.000543674
0.000575517
0.00166153
0.00418629
0.012324
0.00583981
0.0119924
0.00587161
0.000618526
0.0151209
0.0104448
0.000435858
0.000367356
0.000619869
0.00583232
0.0103017
0.00583569
0.00461295
9.89375e-05
0.0147115
0.00583935
0.010339
0.00584331
0.000499587
0.00456621
0.000890312
0.00376393
0.0058332
0.0123654
0.00032486
0.000637406
6.63233e-05
0.0070742
0.0058267
0.00305863
0.000200561
0.0058341
0.0122051
0.00337187
0.00368119
0.00154637
0.00583236
0.010411
0.00152298
0.000520208
0.00411218
0.00101092
0.00424706
0.000437749
0.000865103
0.00583418
0.000415092
0.00583384
0.000275632
0.00583201
0.010886
0.00119553
0.00585358
0.0109082
0.00199654
0.00583813
0.0058889
0.00089848
0.0146999
0.00584682
0.00800292
0.0101979
0.000686861
0.000201159
0.0041337
0.00589679
0.00585446
0.0100763
0.00138503
0.00134594
2.80364e-05
0.0024801
0.000284022
0.001144
0.001931
0.00123307
0.00515813
0.00256776
0.000636074
0.00583399
0.00452056
0.000786849
9.95897e-05
0.000573793
0.00407943
0.00584087
0.00436745
0.0145946
0.000893142
0.00584646
0.0103909
3.20285e-05
0.000903563
0.000705933
0.00549286
0.00585813
0.00583882
0.0058339
0.000142843
0.000994336
0.00583577
0.0150514
0.00036713
0.000137337
0.00598547
0.00370885
0.000383158
0.000683381
0.00020972
0.00585869
0.00583973
0.000231746
0.000662062
0.00348442
0.0119976
0.000715198
0.000462395
0.00873906
0.0058306
0.00902376
0.000405282
0.000908866
0.00395761
0.00411877
0.000585637
0.0111443
0.000734032
9.88282e-05
0.00194368
0.0153227
0.0016147
0.000830122
0.00313496
0.00308129
0.0145815
0.000137022
0.000809487
0.00583587
0.00583746
0.00585256
0.00583361
0.0101273
0.00501056
0.00589519
0.00046864
0.000723475
0.0058355
0.00828055
0.000294798
0.00126069
0.000312259
0.010394
0.000323724
0.0147243
0.000548138
0.000492215
0.00382519
0.00582846
0.000775443
0.000532998
0.00134025
0.000103013
0.000617688
0.000131181
0.00125384
0.00175717
0.000506227
0.000627921
0.000548828
0.00973946
0.00537956
0.000307552
0.00537062
0.000424651
0.000666176
0.00836152
0.000551534
0.000482882
0.000631031
0.000219182
0.00480409
0.00105505
0.000822288
0.00318046
0.000825401
0.00583544
0.000668959
0.000660714
0.00583608
0.000366776
0.00582853
0.0155073
0.00111702
0.00391897
0.000917951
0.0058305
0.00582961
0.0105133
0.00204904
0.0058288
0.00269526
0.000408102
0.00348982
0.00437806
0.00428957
0.00586186
0.000876496
0.0058329
0.00584706
0.0058313
0.014463
0.000294989
0.00756552
0.00584003
0.00584744
0.000363077
0.0145023
0.0058361
0.00125786
0.00583911
4.11471e-05
0.00583066
0.000994256
0.000173622
0.001981
0.00840411
0.00592227
0.000254898
0.00198251
0.00405617
0.00159286
0.0058843
0.0153551
0.000985559
0.00340211
0.0123635
0.00455244
0.00583123
0.0113736
0.00206318
0.000854294
0.000750322
0.00583418
0.0111096
0.00583273
0.00651438
0.00586219
0.00583424
0.00106651
0.00585374
0.0151644
0.00107413
0.00585729
0.000314233
0.0004197
0.00583065
0.000807871
0.000663318
0.00254325
0.00587574
0.000853259
0.0141087
0.00936837
0.000609161
0.00306692
0.0120325
0.000327286
0.0146969
0.00169799
0.00584285
0.00586288
0.00242876
0.0118421
0.000449934
0.00585895
0.00128984
0.000950279
0.00454146
0.00543102
0.000515982
0.00236792
0.000473341
0.00360877
0.0010391
0.000547327
0.000206604
0.00342619
0.00585895
0.000556471
0.00748319
0.000981226
0.00583467
0.00227022
0.00796059
0.000565588
0.00894644
0.000697367
0.000686443
0.0118106
0.00210003
0.0123877
0.00583476
0.0102099
0.00589856
0.000101145
0.013251
0.00106069
0.00589447
0.00582983
0.00384303
0.00113056
0.000637892
0.000158539
0.00150473
0.00379747
0.000849014
0.000379329
0.00103372
8.75102e-05
0.00583601
0.000179598
0.00583627
0.00366378
0.00583861
0.00583394
0.0083221
0.00583198
0.00583305
0.00431508
0.00073089
0.00583616
0.00583612
9.31771e-05
0.000977031
0.0106799
0.00583124
0.00228172
0.000860723
0.000174538
0.00583735
0.00583125
0.00200923
0.000416392
0.0106251
0.000728793
0.00583951
0.00222396
0.000417521
0.0101335
0.00583065
0.00584547
0.00388371
0.0120605
0.00584739
0.0107565
0.00206971
0.000584717
0.00583733
0.0102909
0.000366632
0.00169313
0.00101799
0.00044338
0.000500453
0.00546118
0.000392942
0.0102703
0.00729614
0.0035753
0.000798148
0.000841877
0.00273455
0.0020913
0.00427632
0.0144597
0.00731348
0.00587429
0.0104365
0.00576348
0.00583549
0.000105892
0.00583312
0.000774196
0.000986851
0.00583235
0.000264926
0.0081384
0.000931274
0.000138314
0.00583317
0.00151795
0.00182661
0.000496953
0.00117317
0.00062324
0.00583391
0.000977304
0.00583457
0.0116047
0.000410417
0.00583575
8.85418e-05
0.00583358
0.0149466
0.00335245
0.00583036
0.0145709
0.00584748
0.00318375
0.00203428
0.00583032
0.000305735
0.000862134
0.00583565
0.00067154
0.00584075
0.00121075
0.00530069
0.00583214
0.00584614
0.00892015
0.00583587
0.00584807
0.000430775
0.000182301
0.00028087
0.000246222
0.00107384
0.00584726
0.000887639
0.000573054
0.0098794
0.00072117
0.0101063
0.00582675
0.000664744
0.00175503
0.00118094
0.0108975
0.000552048
0.000162678
0.00583249
0.000593661
0.000864995
0.00120345
0.000952344
0.000296642
0.00739264
0.00220349
0.00373198
5.50081e-05
0.00133245
0.00083412
0.000293184
0.000261689
0.00121903
0.00582535
0.000922661
0.00583387
0.00073832
0.000172869
0.00584053
0.000273724
0.00868108
0.00583333
0.00583114
0.00858346
0.00312696
0.00574682
0.000528487
0.00163057
0.0107384
0.00103039
0.00582895
0.0101117
0.000682605
0.000167407
0.000924064
0.000988457
0.000626601
0.00131053
0.000581251
0.00353902
0.00152356
0.00343335
0.000657073
0.00171027
0.000520641
0.0011106
0.00584495
4.82327e-05
0.00584657
0.00442146
0.000640327
0.0033447
0.00500153
0.00583277
0.00442981
0.00571701
0.00583279
7.68206e-05
0.00584599
0.0150185
0.00545393
0.000409086
0.00583369
0.00583595
0.000578297
6.09666e-05
0.00370303
0.0151779
0.00472098
0.000460194
0.00113874
0.00417282
0.00196025
0.0050805
0.00762946
0.0055842
0.00120496
0.0100249
0.00185155
0.000543053
0.00130204
0.00903152
0.00585413
0.000406725
0.00960916
0.000184417
0.000243409
0.00911293
0.00260525
0.00100939
0.00585757
0.00711307
0.0146597
0.00584508
4.74878e-05
0.0094425
0.00112806
0.00369119
0.000960649
0.00786487
0.00353087
0.000538482
5.63963e-05
0.000571843
0.000796552
0.00583931
0.0146429
0.000708278
0.000343138
0.00583332
0.000260132
0.00582858
7.36069e-05
0.000904395
0.00196416
0.00119297
0.00268974
0.00131045
0.00134413
0.000910155
0.00251573
0.000228331
0.000931366
0.00993528
0.000507979
0.00589947
0.00132855
0.00261095
0.00583225
0.0155658
0.0121362
0.000698337
0.00388505
0.000923088
0.00489312
0.00145748
0.010437
0.00583118
0.00076115
0.000324642
0.00529081
0.00468368
0.00585719
0.0021526
0.000162865
0.00300486
0.0017712
0.00132332
0.00583595
0.00583904
0.0109594
0.0141018
0.00595158
0.00584421
0.00590293
0.00195971
0.00167709
0.0114146
0.00179782
0.000963277
0.00353497
0.000500421
0.00982764
0.00116903
0.0058335
0.0058368
0.00583422
0.000339084
0.00583466
0.00292336
0.000156828
0.00373398
0.0107283
0.00891332
0.00131791
0.00131019
0.00041288
0.000229107
0.00116567
0.000369592
0.000533542
0.013764
0.00134778
0.00583236
0.000485393
0.00303197
0.000594128
0.00583904
0.000652118
0.00583427
0.00583662
0.000620251
0.000143954
0.00130071
0.000189669
0.00387677
0.000968767
0.000167815
0.00298749
0.00584021
0.000608423
0.00216284
0.000150452
0.00259529
0.00384023
0.0106105
0.00282336
0.0101158
0.00634105
0.00583473
0.0058358
0.000497484
0.00411996
0.00586672
0.0112159
0.00583601
0.0124021
0.00507154
0.0121337
0.000566954
0.000566289
0.0152988
0.0058341
0.00583364
0.00181727
0.00506177
0.00569003
0.000571616
0.00299651
0.00583294
0.000886815
0.00194667
0.0058328
0.00584308
0.000701054
0.00583285
0.00583583
0.00319777
0.0150737
0.00230636
0.00583179
0.000159014
0.00583961
0.0050932
0.00963081
0.000119406
0.00119308
0.000171847
0.00583195
0.000913534
0.00210979
0.00592048
0.000172244
0.0144163
0.000164693
0.000440325
0.000442136
0.00583658
0.00972961
0.00583552
0.00378
0.00582952
0.000980837
0.00361185
0.0058319
0.000744674
0.000533779
0.00583243
0.00545796
0.00089888
0.0152521
0.00121853
0.00102798
0.00314353
0.000275605
0.0058507
0.011004
0.00584903
0.00117312
0.00176622
0.000267723
0.00583524
0.0114238
0.0035736
0.000931352
0.000955889
0.00366203
7.57457e-05
0.000244334
0.00156811
0.00104328
0.00126235
0.000157223
0.00313781
0.010608
0.0107063
0.000279333
0.00278164
0.00135447
0.00392903
0.0122325
0.0014927
0.00281575
0.00577733
0.000871886
0.0099217
0.00583596
0.00251118
0.00251437
0.000868777
0.00328029
0.00605405
0.000691744
0.0105058
0.00086525
0.00583094
0.00101137
0.00241908
0.0153019
0.00583438
0.0004582
0.000954427
0.00150813
0.00928284
0.00589617
0.000439559
0.00068349
0.0109312
0.00583472
9.43009e-05
0.00208683
0.0137908
0.00041926
0.00585202
0.00194826
0.000330635
0.00223717
0.000292252
0.000207592
0.00160565
0.0125996
0.0058338
0.000545073
0.00583343
0.000741968
0.00126673
7.3312e-05
0.00227787
0.000783221
0.00966083
0.0058313
0.00583939
0.00582837
0.0141398
0.00583612
0.000695784
0.000225266
0.000679981
0.000425574
0.00511818
0.0014375
0.012634
0.00583466
0.00583445
0.000484761
0.00517616
0.00329433
0.00584661
0.000564632
0.00307499
0.000363511
0.0135044
0.005833
0.00176059
0.000195285
0.00097146
0.00488598
0.000622959
0.00205913
0.00583426
0.00988316
0.00941398
0.000753776
0.0058356
0.000685617
0.000850691
0.00583439
0.0025506
0.000922661
0.000655233
0.00548869
0.0058371
0.00583263
0.00254775
0.000652383
0.000650489
0.0122846
0.0153605
0.00481257
0.000428518
0.00583751
0.00941626
0.00157141
0.00583483
0.00376725
0.000213002
0.00280269
0.000159231
0.00583305
0.000596114
0.0019077
0.00137304
0.00215288
0.0121642
0.0029622
0.000245932
0.0121643
0.014263
0.00308132
0.00540339
0.003334
0.00793292
0.00161736
0.000202516
0.0104267
0.00282475
0.00123521
0.00583118
0.00583343
0.009987
0.0135518
0.00583576
0.00102797
0.000983851
0.00155889
0.0013598
0.000304978
0.00453675
9.47765e-05
0.00539001
0.00583341
0.00138882
9.87342e-05
0.00583445
0.0100495
0.00189904
0.000666601
0.000607648
0.00584337
0.0138679
0.0132024
0.00582846
0.00352078
0.00583311
0.00583132
0.00710931
0.00333229
0.00585317
0.0124307
0.00583051
0.000408913
0.00335182
0.00547803
0.00141384
0.000607275
0.0131706
0.00332311
0.00354224
0.0105712
0.000294315
0.00583248
0.00434421
0.000134803
0.00989284
0.00583587
0.00583614
0.00570642
0.00164095
0.000129479
0.00583185
0.0117371
0.000940166
0.00164476
0.000141711
0.00146722
0.00079037
0.0032471
0.000821302
0.000871734
0.0141724
0.00582824
0.00221948
0.00583479
0.00427665
0.000963165
0.00586861
0.000500674
0.00168283
0.000591247
0.00478961
0.000165548
0.00583454
0.000577166
0.00583363
0.0133203
0.00998602
0.00090568
0.00583684
0.00583336
0.00518633
0.00582861
0.000958022
0.00583121
0.00887626
8.77114e-05
0.00892141
0.000221898
0.000622093
0.00153241
0.00583265
0.00501972
0.000401367
0.00583266
0.000647126
0.000544549
0.00999196
0.00177736
0.000998096
0.0146142
0.00247421
0.00462329
0.000919196
0.00583324
0.00583366
0.0116942
0.000848304
0.00583709
0.00583953
0.00444032
0.00931692
0.00583338
0.00386911
0.0058307
0.00582535
0.000605247
0.00583465
0.00584143
0.0122068
0.00361073
0.00583252
0.00917749
0.00369937
0.00157302
0.015616
0.000410325
0.00654169
6.72826e-05
0.00021785
0.0094629
0.00104017
0.00158345
0.0021864
0.00305809
0.00163739
0.000329416
0.00643129
0.00113915
0.00583318
0.00544638
0.00415538
8.02834e-05
6.60434e-05
0.00538897
0.00583452
0.000225137
0.00585292
0.000592703
0.00343953
2.61602e-05
0.000530415
0.00590114
0.000879999
0.00235074
0.000510624
0.00043753
0.000465143
0.000159838
0.00868065
0.000585825
0.00582956
0.00187337
0.000215316
0.00106452
0.0149351
0.00552011
0.00583572
0.00583285
0.000446607
0.0058513
0.000389101
0.009538
0.00583605
0.000476624
0.00916266
0.000760181
0.00583085
0.00583847
0.00160703
0.00583226
0.0042228
0.00713599
0.000359106
0.00117541
0.00535705
0.000307363
9.5821e-05
0.000137598
0.00199691
0.00440654
0.000615346
0.000100687
0.000295805
9.56066e-05
0.00266647
0.00586282
0.000686447
0.00582848
0.00584029
0.000856748
0.00582979
0.00872547
9.75416e-05
0.000979921
0.0149643
0.000540209
0.00585201
0.000671644
0.00102114
0.000723909
0.00583065
0.00583222
0.000193719
0.0033966
4.47131e-05
0.00584125
0.00583298
0.00321245
0.00583301
0.00583533
0.00582977
0.00590139
7.83385e-05
0.00719776
0.00583306
0.00087224
0.00121796
0.00059679
0.0106838
0.00170319
0.00185069
0.00162335
0.000269269
9.06982e-05
0.000574643
0.00583668
0.00234573
0.000174662
0.000173578
0.00583412
0.000102317
0.0058286
0.000717171
0.00647433
0.00961209
0.000129325
0.00408869
0.00218745
0.000871402
0.0150623
0.00105394
0.00583474
0.000224908
0.00017913
0.00266918
0.00377493
0.000720166
8.99957e-05
0.00583466
0.000346457
0.005123
0.00480191
0.000800562
0.00093912
0.00585701
0.0108217
0.0058355
0.00487264
0.0058361
0.00434674
0.00571506
0.00583069
0.000563169
0.00583293
0.000195377
0.00141947
0.0149884
0.00583245
0.013365
0.00179222
0.00437953
0.00583349
0.000312726
0.000768064
0.000606857
0.000190845
0.00583248
0.00206818
0.00857633
0.0157017
5.99735e-05
0.00102684
0.00582574
0.00157053
0.0103817
6.22031e-05
0.00370451
0.000477447
0.00585415
0.00504728
0.00148735
0.00155979
0.0058454
0.00145908
0.00584946
0.000497486
0.00583695
0.00972733
0.000133317
0.00746523
0.00418245
0.000560422
0.0122725
0.00125333
0.00409253
0.00583332
0.00309676
0.0146586
0.00583571
0.00583713
0.000334858
0.000862284
0.00341508
0.00221806
0.0148542
0.00583619
0.00746214
0.001107
0.00583562
0.00157984
0.000296649
0.00583663
0.00680462
0.00104395
0.000192531
0.00164324
0.00413756
0.00161731
0.000477991
0.00846754
0.000460121
0.00582829
0.000148852
0.0145015
0.00274788
0.000209786
0.00015112
0.00583149
3.72777e-05
0.000457161
0.00583422
0.0109965
0.00394542
0.00163453
8.74376e-05
0.00586876
0.000782714
0.00585447
0.00571298
0.00139259
0.00190391
0.000551545
0.000594988
0.00583524
0.00584032
0.0058433
0.00584413
0.00313936
0.000668003
0.00583609
0.0138566
0.01499
0.00152005
0.000180446
0.0140038
0.00136219
0.000706121
0.00583941
0.00589484
0.00583023
0.00329298
0.00550685
0.000696808
0.000174904
0.000572467
0.000794218
0.000621247
0.0121355
0.00136431
0.00583355
0.00584552
0.00397874
0.000242104
0.00583136
0.00529305
0.000542717
0.00583782
0.014185
0.00585502
0.00182088
9.58177e-05
0.00779115
0.00583433
0.000115199
0.00063679
0.000869945
0.00054042
7.26524e-05
0.00308951
0.00583351
0.00200341
0.00163394
0.00809726
0.00361908
0.00124668
0.00415095
0.00583425
0.0013368
0.00506817
0.00583054
0.00212959
0.008918
0.000177402
0.00169889
0.000332308
0.000608905
0.000682721
0.0035097
0.00201796
0.000619072
0.00281522
0.00583438
0.000634684
0.000412145
0.00053231
0.00583342
0.00440147
0.00104917
0.00157107
0.00279529
0.0079053
0.00772349
0.000620121
0.00583767
0.0035395
0.00583183
0.00306646
0.0139011
0.0028217
0.00582922
0.0137126
0.00583782
0.000169065
0.000774721
0.00993904
0.00476472
0.000313161
0.0119156
0.000397197
0.000567128
0.0146422
0.00583265
0.0148428
0.000349776
0.00583258
0.00043473
0.0112942
0.00583307
0.00490306
0.00583723
0.00583027
0.005861
0.000593497
0.00109213
0.00054379
0.000823527
0.0149196
0.00583028
0.00740432
0.0154081
0.00122647
0.00172018
0.00309521
0.000567726
0.00260303
0.000695946
0.000901383
0.000219503
0.000133157
4.15488e-05
0.00576498
0.0125457
0.000564216
0.000613461
0.00289872
0.00583287
0.00583616
0.000543494
0.000278691
0.0058405
0.0107903
0.00583257
0.00129461
0.000224092
0.000598213
0.000108884
0.0023639
0.000213756
0.00583298
0.00165073
0.0058326
0.00583329
0.000186765
0.000874903
0.00176696
0.000360863
0.00468015
0.00561043
0.00238568
0.00583338
0.00583302
0.00134813
0.00103384
0.0123819
0.001046
0.0058547
0.00583218
0.000542532
0.000898475
0.00012881
0.000585047
0.000152444
0.00139182
0.00585798
0.000518549
0.00582958
0.00583726
0.00583316
0.0016198
0.010402
0.000131601
0.000273717
0.00100777
0.000859086
0.000552451
0.00583604
0.00587156
7.08317e-05
0.00583334
0.00583276
0.000165468
0.000895886
0.000104737
0.00334157
0.00583236
0.00220235
0.00194273
0.00583241
0.00208115
0.000155072
0.00251504
0.00583295
0.00583933
0.00583547
0.000403213
0.000309915
7.78232e-05
0.0131719
0.00585528
0.00583687
0.00594819
0.00213855
0.000111968
0.00583292
0.00313241
9.435e-05
0.000102396
0.0006602
0.00583438
0.00583835
0.000571639
0.0107562
5.75236e-05
0.00948502
0.000569057
0.00527132
0.000352089
0.00841668
0.00583283
0.000454489
0.00585566
0.00946713
0.0012755
0.00134265
0.00583333
0.000143656
0.00921513
0.000345178
0.000985923
0.000434289
0.000534551
0.00126275
0.00175097
0.000162967
0.00352889
0.0138341
0.00103771
0.00582916
0.0115902
0.000401132
0.000875958
0.00023431
0.00453909
0.00196045
0.0058545
0.00312285
0.00921436
0.000464526
0.000265317
0.000618313
0.000669673
0.0058339
0.00218415
0.00305314
0.00582789
0.000103968
0.000651872
0.0058742
0.000387647
0.00920378
0.00176026
0.000253857
0.00476144
0.0096199
0.0107284
0.0121829
0.0122176
0.000717059
0.00583234
0.000413742
0.000337083
0.00277091
0.00582782
0.000778187
0.0058584
0.0010566
0.00583076
0.00583589
0.00583228
4.5117e-05
0.0058328
0.0156543
0.00962895
0.0043432
0.00544323
0.000559423
0.00125339
0.00590036
8.3303e-05
0.00466461
0.000415809
0.000365318
0.000539572
0.000944022
0.00022508
0.000294559
0.00589782
0.00154915
0.000268895
0.00950811
0.00583126
0.000468074
0.000936784
0.00409652
0.00216844
0.000405606
7.08385e-05
0.0133264
0.00583381
0.00122497
0.00306639
0.000658537
0.000753986
0.000471678
0.00572523
0.000390175
0.00582625
0.0058375
0.0138312
0.00770433
0.00352432
0.00353085
0.0121125
0.0124632
0.0125106
0.012374
0.0112415
0.00583212
0.00182575
0.00583119
0.00456835
0.0110634
0.000288319
0.000292832
0.00932308
0.00542643
0.00188439
9.85149e-05
0.00880236
0.00155936
0.00290557
0.00159887
0.00525039
0.00255348
0.000680458
0.00583593
4.27894e-05
0.00265549
0.000547385
0.00109576
0.00140932
0.000700429
0.00585159
0.00509333
0.0035562
0.000364866
0.00099228
0.00140808
0.00404637
0.00166319
0.00583258
0.00063986
0.000911607
0.000376472
0.000190147
0.00035931
0.00585156
0.00583888
0.00117559
0.000162387
0.00118239
0.000776153
0.00158896
0.00335351
0.00154925
0.00994784
0.0137967
0.00582831
0.0010263
0.00582876
0.0112012
0.00115304
0.00151272
0.000751841
0.000675087
0.0116911
0.000429375
0.000319549
0.00583406
0.00438844
0.00166752
0.00583446
0.000102989
0.00132297
0.000234231
0.000107703
0.000141707
0.000158612
0.000474379
0.00266084
0.00039205
0.00587101
0.000387204
0.00583325
0.00583774
0.00583797
0.000574421
0.00145071
0.00585313
0.00120511
0.00087758
0.00223
0.00110254
0.00327862
0.00583958
0.0105035
0.000181313
0.000247876
0.000658516
4.97517e-05
0.00583473
0.00389467
0.000500363
0.00063829
0.00390841
0.00584257
0.00230118
0.000306787
0.000415355
0.00332232
0.0123868
0.000633244
0.000636731
0.0150686
0.0121631
0.00585707
0.000637489
9.22903e-05
0.0146789
0.0024077
0.000122225
0.00583512
0.000139063
0.00582929
4.30833e-05
0.000257558
0.00583109
0.0058339
0.00583769
0.000805152
0.00132186
6.18973e-05
0.0113046
0.010713
0.00585117
0.00485663
0.00191579
0.00583282
0.0058293
0.00071038
0.00195065
0.00100982
0.0045346
0.000678227
0.0020385
0.00160758
0.0113794
0.00583718
0.00122958
0.01025
0.000469849
0.0151514
0.00698392
0.00042885
0.00164291
0.00327471
0.000270015
0.00582881
0.00583571
0.00583949
0.00413441
0.0137761
0.00330492
0.000826601
0.0058351
0.00122042
0.00121323
0.000223295
0.00112277
0.00272804
0.000407771
0.00583669
0.00360879
0.012498
0.00238032
0.000165978
0.00159325
0.000810796
9.72087e-05
0.00583335
0.00144745
0.001143
0.00801664
0.0136163
0.0153084
0.0095268
0.000665063
0.00456245
0.00346187
0.000574457
0.00615408
0.000694338
7.91076e-05
0.00377942
0.0058307
5.26393e-05
0.00583466
0.00183471
0.00784987
0.0105704
0.00583037
0.00583557
0.00583254
0.00583019
0.0145141
0.00300529
0.00583584
0.000393548
0.0093069
0.00306902
0.00379617
0.00511541
0.00527528
0.00151169
0.000844319
0.0151354
0.000424417
0.00117889
0.0124972
0.00317377
0.0103327
0.00367667
0.0044133
0.00588207
0.0058323
0.0015767
0.0151077
0.00123019
0.0149288
0.00584995
0.00579595
0.00583429
0.00126537
0.000322098
0.00021418
0.00792255
0.00207552
0.0155553
0.0103402
0.00583352
0.000814209
0.000519594
0.00166476
0.000616471
0.00583302
0.00429361
0.00901043
0.00583572
0.00332336
0.000232439
0.00138129
0.00201477
0.0137624
0.000570835
0.00583272
0.00342628
0.00226398
0.00583234
0.0130107
0.00120875
0.00577114
0.00583194
0.014925
0.00585353
0.0058335
0.00530775
0.00583818
0.000261067
0.000191322
0.000602902
0.00262523
0.00174578
0.004107
0.00582848
0.00129787
0.00634827
0.000922991
0.00583344
0.00122046
0.00133265
0.000631281
0.0152103
0.00117359
0.00264371
0.00584041
0.00309258
0.00583398
0.00567946
0.000506511
0.000141246
0.000622848
0.00582963
0.000137971
0.000543853
0.000664854
0.000327643
0.00583366
0.00582771
0.0139213
0.00896563
0.000492086
0.00583025
0.000603721
0.00583275
0.000272875
0.00446352
0.0144068
0.000967036
0.00583052
0.00603613
0.012987
0.0058422
0.00583285
0.00507801
0.000164059
0.00583344
0.0144318
0.0156866
0.00583353
0.00583824
2.5814e-05
0.012169
0.000614795
0.00313008
0.000625093
0.00885022
0.00117706
0.00585937
0.00122138
0.00582528
0.0122423
0.00119814
0.000414416
0.0136488
0.00575462
0.00583402
0.00583344
0.00879408
0.0150449
0.00466496
0.00163394
0.00226646
0.00583211
0.00589185
6.27307e-05
0.00947928
0.000935194
0.000835917
0.000640606
0.00113395
0.0058354
0.00583342
0.00583038
0.0150139
0.00949009
0.000147086
0.000404505
0.00106901
0.015579
0.00031625
0.000320046
0.00583325
0.00583341
0.000565677
0.0110683
0.00583184
0.000238228
0.0058328
0.00583621
0.00736773
0.000298358
0.000386224
0.00586095
0.00584156
0.0119991
0.000238849
0.00129847
0.00130585
0.000181249
0.0102537
0.0026925
0.000340823
0.00927604
0.000147369
0.00583401
0.000582063
0.000909797
0.00583109
0.00583692
0.0123984
0.00160122
0.0100735
0.000815343
0.00129899
0.00668993
0.00111067
0.000622429
0.00583161
0.000407536
0.00457968
0.000353666
0.00345605
0.0121679
0.00583626
0.00357753
0.000555762
0.00087649
0.000633647
0.00583785
0.00468877
0.014962
0.000571723
0.000701889
0.000544997
6.205e-05
0.000522809
0.000594373
0.000298198
0.0108293
0.0052525
0.00988462
0.00583097
0.00584998
0.00583531
6.33885e-05
0.000563447
0.00583063
0.000375153
0.00950328
0.0086046
0.00583619
0.0102246
0.00160432
0.000964285
0.000624877
0.00583398
0.00583051
0.000156234
0.000430119
0.000523624
0.000677128
0.00583398
0.00491881
0.0122498
0.00583216
0.000982763
0.00583409
0.00583307
0.000861172
0.00493013
0.000217536
0.00583222
0.00118435
0.000520535
0.0152193
9.58774e-05
0.0110032
0.000444393
0.0129577
0.00157687
0.00583337
0.00583247
0.00583755
0.000137998
0.000391617
0.00583962
0.000101757
0.000848503
0.000602469
0.000150902
0.00583147
0.00583337
0.00195699
0.0013811
0.0109881
0.010595
0.000380491
0.00915248
0.000605741
0.00495588
0.000101045
0.00583584
0.00583585
0.000447818
0.00139812
0.00154395
0.000270419
0.00584383
0.00584329
0.000798278
0.010599
0.00409423
0.00159597
0.0124724
0.0005765
9.03491e-05
0.00440045
0.0103335
0.00583298
0.000664964
0.014835
0.0064003
0.00134729
0.000607355
0.00354402
0.00129743
0.00420765
0.0101378
0.00955463
0.00118458
0.00583638
0.000942226
0.00319381
0.00399873
0.00788617
0.0017457
0.000108409
0.0058718
0.00073128
0.000565996
0.000653452
0.00583578
0.000315029
0.001496
0.00360132
0.00123464
0.00084837
0.00100373
0.00997942
0.00564441
0.00171766
0.0058298
0.00133071
0.00582846
0.00583723
0.0131126
0.00866412
0.0150384
9.54183e-05
0.000848851
0.00889824
0.000604238
0.000109172
0.00583339
0.00583279
0.0012285
0.00036429
0.000320271
0.0142889
0.00483595
0.00184026
0.00584245
0.000668935
0.0058474
0.000301425
0.00393881
0.00948463
0.0113133
0.0037675
0.00104956
0.0135053
0.0012406
0.00584112
0.00570014
7.94039e-05
0.000537479
0.00583177
0.0125047
0.00583345
5.06446e-05
0.000324281
0.0104906
0.00245474
0.000328453
0.0105436
0.000653835
0.00256094
0.0119511
0.00584809
0.0058286
0.00131976
0.00583062
0.00863308
0.0128117
0.000588586
0.003484
0.00312088
0.0013236
0.00014184
0.000459121
0.000295189
0.00115445
0.00582743
0.00583369
0.00907662
0.000608556
0.00419401
0.00590032
0.000738989
0.000244228
0.00583234
0.00584114
0.00123567
0.00309326
0.00584101
0.000648508
0.000220557
0.00596039
0.00134776
0.000100513
0.0104698
0.0127129
0.00138782
0.000190442
0.000629028
0.000608282
0.00583053
0.00100021
0.0107837
0.000308552
0.0113686
0.000318731
0.00583334
0.00322451
0.000337622
0.00583615
0.00344829
0.0151487
2.26239e-05
0.00583603
0.00390694
0.00919259
0.00583398
0.00583123
0.00119141
0.0030203
0.000394073
0.000554708
0.000591488
0.000789074
0.000602814
0.00441544
0.000197198
0.00583097
0.0058341
0.00953967
0.000140255
6.31951e-05
0.00017257
0.0150042
0.00583887
0.00062868
0.00301165
0.00583489
0.000997686
0.000947717
0.00184951
0.00583144
0.00583661
0.0148725
0.00151236
0.00128684
0.0111766
0.0116849
0.000199506
0.00345111
0.000321947
0.00582861
0.00199926
0.00171616
0.00953329
0.000533214
0.000938766
0.000941374
0.000673631
0.000344811
0.0011593
0.0156153
0.00109288
0.00583745
0.0124345
0.00110574
0.00145377
0.00583216
0.00583646
0.0088305
0.000464951
0.00583401
0.00057511
0.000591937
0.000110234
0.0106245
0.000611103
0.00583196
0.000319531
0.0101408
0.00812317
0.00124149
0.000537053
0.00189078
0.000704689
0.00583296
0.00776228
0.0058502
0.00583795
0.000536278
0.00074532
0.00223309
0.0058303
0.00582945
0.00914319
0.0004755
0.00585953
0.00583461
0.00101172
0.001242
0.000228079
0.00585172
0.0113429
0.000702352
0.00594792
0.00857549
0.00582957
0.00136566
0.00583447
0.014987
6.62874e-05
0.000801375
0.00342453
9.1955e-05
0.00589311
0.0147214
0.00511789
0.00583796
0.00145399
0.00167863
0.0126209
0.000223073
9.38604e-05
0.00583381
0.000265098
0.00127324
0.0103213
0.00159134
0.00583177
0.0109265
9.09237e-05
0.00156692
0.00583991
3.67001e-05
0.00105
0.00367359
0.000728474
0.00583238
0.00158375
0.000378347
0.0139297
0.0081819
0.000486868
0.00586969
0.00347314
0.00254984
0.000673927
0.0031361
0.00173664
0.00176229
0.00106525
0.000931672
0.0135935
0.00290609
0.00609312
0.00142907
0.00931796
0.00196105
0.000222295
0.00342806
0.000208462
0.00585784
0.000141045
0.00585953
0.000153659
0.00862644
0.00017456
0.00583418
0.00152575
0.000518933
0.00584208
0.00512403
0.00583415
0.000267153
0.00271664
0.0099592
0.00585162
0.00583195
0.00137595
0.00583179
0.0058638
0.00046045
0.000226171
0.0157171
0.000530633
0.000193119
0.00583279
0.00985616
0.00227892
0.00511375
0.0113576
0.00583585
0.0029701
0.00254136
0.00583185
0.00559665
0.00524109
0.000400867
0.000532566
0.00425169
0.00107025
0.000317399
0.00413458
0.00309659
0.00584767
0.00132712
0.00237774
0.00583345
0.000715149
0.000440299
0.000541397
0.000575596
0.0058311
0.00584603
0.00122991
0.00126443
0.00843538
0.0101316
0.0058398
0.000948276
0.00583752
0.0058356
0.00221297
0.0147392
0.0118332
0.00477469
0.00173214
0.000579442
0.000277813
0.00098972
0.000468523
0.0119897
0.0153673
0.000198549
0.00105677
0.00152149