/*--------------------------------*- C++ -*----------------------------------*\
| =========                 |                                                 |
| \\      /  F ield         | OpenFOAM: The Open Source CFD Toolbox           |
|  \\    /   O peration     | Version:  v2012                                 |
|   \\  /    A nd           | Website:  www.openfoam.com                      |
|    \\/     M anipulation  |                                                 |
\*---------------------------------------------------------------------------*/
FoamFile
{
    version     2.0;
    format      ascii;
    class       volScalarField;
    location    "100";
    object      omega_0;
}
// * * * * * * * * * * * * * * * * * * * * * * * * * * * * * * * * * * * * * //

dimensions      [0 0 -1 0 0 0 0];


internalField   nonuniform List<scalar> 
37190
(
0.0253506
4.28092
0.0248881
0.067617
4.0115
0.0251231
0.0565451
0.0262377
0.0641364
0.195713
0.0253211
0.0247405
0.0294396
0.0249795
4.70695
0.0252623
0.0265438
0.0835954
4.8446
0.956327
0.0268688
0.0253488
7.08369
0.0270128
0.0270786
0.0252643
0.0557164
0.0559919
1.69004
5.10483
5.53945
0.0251221
0.0791774
0.205365
0.0978157
0.0566427
0.0247331
0.0270131
0.0264577
0.0252465
0.186016
4.91307
0.0268505
0.100113
0.0254007
0.172999
5.76932
0.63942
0.0248829
3.97206
0.0256617
0.0252749
0.0339295
0.043037
0.0255191
0.0254811
0.19044
0.0247368
3.68758
0.0248321
3.73406
0.0566243
0.0246013
4.56204
0.0267853
0.0269802
0.0250235
0.137028
0.100726
0.0246048
0.0255292
0.025421
0.0303997
0.0251502
0.0253004
0.0253257
4.9313
0.045754
4.25991
0.0309997
0.0254419
0.0334779
0.0251493
0.19874
4.44624
0.0265034
4.14661
4.89114
4.73052
0.0251239
4.78719
0.0860686
0.0270045
0.025141
0.025281
0.0271496
4.34173
0.0252589
0.0649588
8.89842
0.0269219
0.138504
4.87361
9.08396
0.0254317
0.0255286
4.30622
0.0254905
0.0250258
5.17087
5.43979
4.80555
0.0267338
0.0247872
0.0252989
0.025372
0.0460128
0.0264754
0.0252495
0.0261758
0.0252948
3.54418
0.0253869
0.0254157
0.0253399
4.25289
0.0247898
0.025331
0.336278
0.0860158
0.025326
4.25291
0.0288827
0.0272325
4.728
0.0250808
0.053452
0.139995
0.166217
0.0261195
0.030581
0.0566998
0.062334
0.0272152
0.0252831
0.0253196
5.53826
0.0262942
0.147314
0.0248591
0.0252933
0.0364282
0.160271
0.0253862
3.72938
0.0249
4.22046
0.0253224
4.38474
0.0516162
0.0702437
0.0253479
4.48115
3.94195
0.0363272
0.0260813
5.22381
0.109554
3.85148
0.173136
0.0250806
4.03334
0.0253497
0.0284523
3.48371
0.102562
0.0252222
0.0267329
0.075148
0.0274619
0.0970554
0.0254482
0.0254417
0.0249868
5.01632
0.0255431
0.0772184
0.0356825
7.00743
0.205608
0.025497
0.0831118
0.0248251
0.0258175
0.339768
0.029205
0.0252237
0.0568231
8.21015
4.96767
0.307864
0.0249456
0.0252973
0.025551
3.81784
0.0435843
0.0555466
0.025625
0.025292
4.09829
0.0253318
3.7588
0.024949
0.0390738
4.31031
6.8907
0.148554
0.140106
0.204969
0.0254315
3.66692
0.0247401
0.0253349
0.0666984
4.75775
0.0253535
4.32393
0.0252755
0.0399861
4.78469
0.0267689
0.0253265
0.0248341
4.12611
0.0393022
0.0850683
0.230252
4.45791
0.0246184
0.0253057
0.074722
0.0255439
3.7679
0.025272
0.0252215
4.87112
0.0252755
4.03051
0.0814151
0.0901381
0.0251388
0.059381
0.0253264
0.0332398
0.0299801
0.0254023
0.0831015
0.0255213
0.0518445
0.025274
3.99199
0.0316487
0.0248532
5.57769
0.0263594
0.0250219
0.0252515
0.0268124
4.82176
0.0247466
8.17937
5.28021
0.20533
0.0430156
4.39388
0.0249012
0.0250648
4.25193
0.0360854
0.0305844
1.76555
0.0254199
0.132074
0.185864
0.0262677
0.0300446
0.0251248
0.0254166
0.0540788
0.0254071
0.0251984
0.0974699
0.0643586
0.052164
4.37839
0.0253467
0.025135
4.96074
0.0439588
0.0247498
4.31918
0.733341
0.0267245
0.147955
0.0250146
0.0248014
0.0250204
0.0255302
1.11665
0.0281889
0.0256505
4.87068
0.038956
0.139737
4.77838
15.2571
0.0337433
0.341422
0.0526045
0.0247984
0.025351
0.0387279
0.196742
0.0252119
5.80172
0.151803
0.0700384
8.3737
0.0252454
7.45368
0.0422895
0.0434989
0.0251789
4.95231
0.15699
4.12729
0.35569
0.0722819
0.0259732
4.61906
0.025969
0.147612
0.0252971
0.0254583
4.33592
0.28298
0.173489
0.0256508
0.0252534
0.0248282
0.025491
5.92598
0.0251532
0.0248856
0.0321328
3.85873
0.0250068
4.72439
0.0758766
0.0261142
0.0453437
4.32274
0.0641049
4.40016
0.0309523
0.0876688
0.0253304
0.0249876
0.0916564
0.0398509
0.0259301
0.0630804
0.0309154
0.629622
0.0263394
0.0746578
0.0932432
0.209895
0.094026
4.42476
11.2867
0.198091
4.16418
0.0447845
0.0529843
4.67475
0.0567787
0.0389577
0.082892
0.0390471
0.0251846
0.118693
0.0318403
0.0253077
0.027033
0.0250225
0.361618
0.0296262
0.0256695
0.138235
0.0249892
4.83579
0.0268908
0.0252965
0.0270483
0.0252502
0.0252053
4.00363
0.0259382
0.0249918
0.0252984
0.465336
13.4292
0.0251041
0.0251729
0.0251956
0.0446055
0.0253454
0.0247627
0.0251951
4.92461
0.205881
4.6585
0.0252819
0.0247596
0.131187
4.93723
0.0256748
0.026451
0.0251602
0.468753
0.0250017
0.0269305
0.0684627
0.0255073
8.06475
0.0254138
0.13558
0.025488
0.0251435
0.0257609
0.0249878
4.78394
0.0266179
0.0252111
3.85551
4.07616
0.024975
5.90238
0.025455
0.0425648
0.149611
0.0253749
3.95488
0.0252717
12.1393
0.0248288
0.0255734
0.029367
0.0248356
4.43702
0.0385356
0.0249003
0.771998
0.137015
0.025245
0.16403
2.88389
0.0253949
0.02503
0.043609
4.99966
8.78601
0.18542
4.51038
5.88799
0.04384
5.05729
0.0256251
0.0251197
0.0248401
0.0255007
4.07483
0.454355
0.0250301
0.0360632
5.147
0.025335
4.47179
0.0439854
0.0261596
0.0318249
0.0251422
0.165599
0.0983378
0.0432213
0.025208
0.025044
0.162443
4.60948
0.0268601
0.0255998
0.0255462
4.75714
0.0455971
4.53776
2.67188
0.348751
5.60421
0.025503
3.89955
0.0256046
5.29092
0.0248808
0.203748
6.29989
0.0381768
0.0248877
0.0249931
11.6456
0.0285279
0.0868254
1.74813
4.15915
0.0252149
0.0315198
0.0426431
0.0266298
0.214488
0.0256719
0.0681143
0.0248885
4.40509
0.0252921
0.0254115
9.16665
0.0251311
0.0254358
0.0252234
0.0276796
0.0256777
0.0256728
0.0756105
0.0273641
3.45764
0.025384
0.027038
0.0490098
0.0442218
0.0250844
0.0252114
0.0274061
0.0341054
4.03885
0.093718
0.0253333
0.026716
0.425098
4.98102
0.0252497
0.0247777
5.80685
4.27336
12.546
4.01516
0.0254657
0.0426978
0.0253642
3.47749
2.17023
0.0290687
0.0268098
0.417985
0.0876571
0.0250753
0.147532
4.05942
4.71348
0.0251966
0.0497372
0.0466936
0.0253597
0.0264866
0.0252918
5.02703
4.69995
0.0250216
5.945
4.38067
0.025631
0.0620157
0.0253041
0.0883002
0.0340118
0.0254043
1.17979
4.69885
0.0350483
4.51066
0.0253039
0.025856
0.0289241
0.0313991
0.0287279
0.0721105
0.0252553
0.0435361
0.025558
4.1784
0.0579532
0.0252156
0.177635
0.0248629
4.70529
4.44895
0.0253115
4.22874
0.0247756
0.0252926
0.0272809
0.0253064
0.0830398
0.0315261
0.0252142
0.0513312
0.0251525
0.0604324
4.29776
0.0252704
0.0252713
4.83122
0.0256563
0.0247731
0.134026
0.0455957
0.0355568
0.0937915
0.0266181
0.0251437
0.0268152
1.99623
3.84604
0.149623
3.75333
0.024613
0.178507
0.0255775
0.0269601
5.59699
0.153926
0.0692625
0.0252716
0.156713
0.0272282
3.23229
0.112139
0.0368909
4.39493
0.0254942
4.42008
0.166305
0.0268322
0.0316505
0.0518722
0.0544198
0.03179
0.0246165
0.0823043
0.0252574
0.0937092
0.0582151
0.0251563
0.0919602
4.49015
0.0254714
0.0253787
8.39717
0.0253248
0.0250797
0.0930924
5.20546
3.47095
0.0340244
0.0247273
3.73482
0.084744
3.27447
0.0267503
0.0351508
0.070417
0.0266608
0.172324
0.025331
4.71999
0.0252741
0.368303
0.0256122
0.0380137
0.158235
0.0247184
0.150136
0.0247266
0.0252187
0.356927
0.0253286
4.42351
0.0253845
4.99325
0.0251517
0.025389
0.193977
0.024971
4.70085
0.0250798
0.0341326
0.0254174
0.0256691
0.150995
0.116321
3.83351
4.90455
4.35343
0.460204
0.0861412
0.0251428
0.0256028
5.091
4.68836
0.0252718
4.88888
3.79578
0.0772496
0.0365953
0.0348894
5.09047
0.0250603
0.0857822
3.79258
0.069443
0.67823
5.11026
0.0269942
0.0279192
0.0248214
4.81803
4.26229
0.0247793
0.18987
7.90615
0.0319772
4.41337
0.0574335
4.69297
0.025302
0.092967
0.190543
0.183137
0.0318364
0.0252291
4.20778
0.100925
0.0387952
0.0254705
0.0720971
0.0247317
0.230057
0.0268364
0.0258761
0.0265588
0.0253807
0.0270418
0.060526
0.0439704
0.0269264
0.108992
0.0272602
7.39806
23.2367
0.024899
0.026868
0.0253831
0.0254278
4.83198
5.42189
0.0616469
0.0253249
0.026673
0.0252163
0.0261843
4.08006
0.0253807
0.0306728
0.0455558
0.0253358
0.0251147
0.0250265
0.0256188
0.0452279
0.0253767
0.0336247
0.0345027
0.0256699
0.0252303
6.02564
5.54936
0.025466
0.0247047
0.0248943
0.0349974
0.0343693
6.40879
0.0761155
0.0268032
0.0253474
0.0726475
5.26934
0.026204
0.0254841
0.024917
0.025397
0.04535
0.0255646
0.0253472
0.0989669
0.0251358
3.9712
4.3647
0.0267781
0.0287094
0.0342934
1.68008
0.0450776
0.398055
0.0712302
4.77663
0.0266931
0.0253475
0.0376266
4.46675
0.0509211
0.025352
0.363206
0.025017
0.0249222
0.056675
4.53542
0.0460613
0.0738257
0.0253238
0.0575294
0.0595495
4.37605
0.0250264
0.0935242
0.0288696
1.80718
0.0270093
0.0252126
5.1753
0.0255293
4.0915
5.3729
0.0253868
0.0256433
23.3779
0.0251369
0.0250344
3.93665
0.0249367
3.9751
0.025337
5.15367
0.0522246
0.156
4.96394
0.0255649
0.0254218
0.0255556
0.0251885
0.0250025
0.0358705
0.0253916
0.0253131
0.0386539
5.28214
0.0253152
0.0252785
0.0311554
0.0253893
0.0256526
0.0252515
4.28657
0.025437
0.0250441
0.0673382
0.0253323
0.0250828
4.25446
0.0593907
0.0267154
0.0608732
0.02504
0.0375559
0.0287085
0.0252457
0.0702615
5.68128
0.0501644
0.0839473
0.0325357
0.0248821
4.42065
0.0249388
4.45783
0.0252207
0.0308542
0.0253035
0.0254405
0.095598
0.05489
0.0254385
0.0250858
0.107787
4.79672
0.0302418
0.0268417
0.0252728
0.514881
0.0248423
7.5634
0.0251419
0.0264648
0.0256029
0.091394
0.0250856
6.18139
0.0255986
0.0273494
0.0268624
0.0252207
0.195343
0.891743
0.0256786
0.030658
0.0287071
2.70378
0.0253084
6.81769
4.26919
0.0803778
0.0253327
0.0261018
0.0251539
5.72032
0.0258207
0.025381
0.0251886
0.0435039
4.37835
0.0256617
0.0253914
0.0264095
0.030372
4.47271
6.65778
0.0280427
4.06187
0.0316594
0.0253815
0.108784
0.0263609
4.36061
0.0255829
0.458954
0.0268924
0.0256991
7.4806
0.0249034
0.0738395
0.0616389
7.53861
0.025368
0.178202
0.0275423
4.79075
0.449162
0.0250654
0.025531
0.0390903
3.92908
0.0845482
0.0751637
0.0257356
5.60472
0.0248463
0.107669
0.0254958
0.0274983
0.0262586
0.0912054
0.0262464
0.100623
3.7948
0.0251606
0.0251469
0.0249917
5.40598
0.025672
0.0278216
0.0564795
0.16664
0.0359041
11.4103
0.0274664
5.44816
0.025599
0.0248498
0.0393223
0.0253356
10.5537
0.0251511
0.0294435
0.025306
0.85263
5.88717
0.0254605
0.0494802
0.0474805
0.0595428
0.0251125
0.365913
0.0254313
0.0248611
3.46006
3.51919
0.0596245
0.0256393
0.0864371
0.0308513
0.0255703
0.0270664
0.0275728
0.0587241
4.88081
0.0252561
0.0253509
0.0253533
0.0879889
0.036319
4.16999
4.87368
5.09142
0.0600698
0.0248941
4.81873
0.0481168
0.0256076
0.0253015
0.0527606
0.0253814
0.0492975
0.0254817
0.37747
0.0288085
0.0261696
0.0271451
3.58981
4.50688
0.634099
3.51236
4.96268
0.0253867
5.01174
0.0257158
4.18865
0.025687
0.0684596
3.64072
11.9832
5.35238
0.0251641
0.0254986
3.68334
5.41931
0.0256558
0.0280743
0.0394759
0.0261591
0.0277787
0.378427
3.9984
0.068627
0.0250732
0.0252623
0.0277213
1.06171
0.025396
3.77751
0.0289774
0.0626847
0.10776
0.0251148
5.03255
5.69265
0.0247412
0.0252965
0.025488
0.025198
8.79031
0.0252496
0.0248408
4.02135
0.0253108
0.0334737
0.0252751
8.25951
0.0283155
0.0355566
5.45288
0.0253488
0.0252247
3.89127
0.0349307
0.0252634
0.0251653
0.124625
4.14567
0.0256612
0.0248761
0.0251472
0.0468863
10.5286
0.025436
5.17626
0.0356993
0.0264755
1.05134
0.028054
0.0474326
0.0257129
0.181409
0.0489434
5.11936
0.0247415
0.025917
0.0255741
0.0251339
0.0268681
0.0250389
0.030707
0.0878644
0.209398
0.0251195
3.22184
0.0255911
0.182881
0.0254978
4.44577
4.12046
0.0375535
0.025086
0.025268
0.0252229
0.0248784
0.0279755
0.0254007
4.24915
0.910051
4.29787
0.0760006
0.342054
0.0863095
0.0253751
6.73641
0.157781
0.0253786
0.192506
0.0327543
3.95458
0.0262842
0.0268778
4.88149
0.0263092
0.0252508
0.0342546
0.0254661
0.025391
5.73203
0.0482197
0.0252522
0.0253512
0.0251297
3.93139
0.0254908
0.0253205
0.0253655
0.0246253
0.106741
0.024946
0.0250356
3.78752
0.0252978
0.0253591
7.97286
11.7489
4.79235
4.803
0.0313534
4.53649
0.101202
0.0464577
5.53986
0.118755
0.0395927
0.0255033
0.0256593
0.039582
52.7387
4.36164
0.0261775
0.0254817
0.025321
0.0251719
0.197644
0.15168
0.0253264
0.025574
0.0762368
0.024823
0.210151
0.025205
4.51541
0.105268
0.0248774
0.0396729
0.0270133
0.032619
0.0320841
0.030918
0.0511688
5.62265
0.198743
0.0252083
0.0255139
0.549941
0.0266595
5.00674
0.0251946
0.0256495
0.0253855
0.182842
0.0250681
0.042262
3.84865
0.0256703
0.0688273
4.91436
0.343481
0.025375
0.0247482
0.0281579
0.0252626
0.0251347
4.69932
1.35085
0.0261215
4.47549
0.411505
0.112426
0.199403
0.0262093
0.0252528
0.335365
0.0899278
0.129487
0.0857839
0.0253688
0.0250388
0.34082
0.0248747
0.0252458
0.102644
0.0253029
7.65132
0.0779634
0.0281419
4.87876
0.0299372
0.0248711
0.166534
0.0293734
0.0823272
0.0253608
0.025443
0.0672903
0.0252082
0.512145
0.0250322
0.0251869
0.0252848
0.025446
0.0250183
0.025298
0.0248761
0.208321
4.25686
0.0252042
0.0846497
0.0320655
0.0351433
5.59459
0.0256616
0.0262172
3.67959
0.0511198
0.089715
0.0298309
0.0252542
0.0265868
3.72238
10.0347
0.0248366
0.0744265
0.024711
0.0976433
5.28064
3.81777
0.126146
0.0252932
0.027063
0.0314033
4.92307
0.0291671
0.0253893
0.0754889
0.0948577
4.18279
0.0252945
0.027667
0.0800201
0.0253918
0.444538
4.36367
0.0252223
0.0274085
0.0299865
0.0247546
7.31353
0.0256301
0.0253217
0.0256732
13.7106
4.65641
0.0253486
0.226681
0.0254564
0.844278
0.0275151
4.7657
0.0253651
4.44417
0.0262098
0.0251351
0.0254277
0.197458
0.325817
0.0390367
0.80148
0.0246141
3.68862
4.78657
4.82838
0.131119
0.0308385
0.0246228
0.0257536
3.4839
0.118747
0.0253376
0.17482
0.025011
0.0251943
0.083438
0.0261882
0.0249614
0.0261864
0.0251468
0.363561
0.025366
4.93781
0.211949
4.76014
0.0251487
0.200865
5.57248
0.0262128
10.6055
0.0254708
0.0258012
4.804
0.0256455
0.0250291
0.0370256
0.0268694
0.0252483
0.0271538
5.03472
0.0256787
4.81246
0.0298259
0.0250117
0.0287819
2.10468
0.0248946
4.62986
0.0271685
0.0685238
0.0265751
0.0251408
0.0256756
0.576337
8.73012
0.0714259
0.0247067
0.0575956
5.52191
0.0253771
0.138784
0.0482645
0.0251999
5.85992
0.0404353
0.0253964
4.17846
11.819
0.0265928
0.0785673
4.32462
0.167386
0.0251556
0.0253404
0.025857
0.0291738
0.0292409
0.153629
0.0256211
0.0253482
0.0251116
0.0252727
0.0252685
0.0605966
0.0256751
4.37127
5.03931
3.7902
0.142799
4.3605
0.0272011
0.152292
0.0252884
0.0249909
0.0251329
5.10581
0.0252014
0.177952
0.0506268
0.0426327
0.0274281
0.108932
3.5279
0.0273861
0.0255115
0.0247114
0.0252281
0.0597736
0.0253964
0.02527
1.86171
0.0252918
4.4437
0.0250577
0.0257827
0.0711659
8.918
0.0255427
0.0852033
0.357491
0.0435064
0.227421
0.0983127
0.0256406
0.0254839
0.0286753
0.0761258
4.37924
0.0255583
0.0261199
0.0253217
0.0255582
0.0262776
5.12194
0.025321
4.15666
8.23822
0.0708191
0.034429
0.034635
0.175987
0.0955557
0.0252225
0.025892
0.232248
0.0253516
0.0253976
0.0581671
0.0316343
0.217489
0.0254913
0.0251295
0.0442124
0.0258
0.0253675
4.86348
4.23897
0.169029
0.0253251
0.0251927
0.0250561
0.0253154
4.53503
0.0252749
0.0251401
4.29805
0.0250802
0.25281
0.303545
4.22543
11.9755
0.192469
4.32705
0.16347
0.218342
4.23973
0.0246208
4.24703
0.431263
0.0252862
0.0350843
5.73401
0.0254367
0.0252691
0.0253274
0.0251353
0.0248353
0.231957
0.150405
0.029599
0.159246
4.30212
0.0251471
4.93978
4.85248
0.0439667
0.025847
0.0253229
0.0289593
0.026831
0.0292377
0.031419
0.0588281
0.35794
0.48006
0.0250019
4.57057
0.0297044
0.161036
0.0253609
0.0252603
0.0256769
0.149432
0.0495239
0.0252798
5.30199
0.0253556
10.8441
0.10945
0.0420832
0.959065
0.0264704
0.0759327
0.0252706
0.0280536
0.0251748
0.0254954
0.0672756
0.0357936
0.028327
0.428841
0.0252191
0.0252008
0.0253585
0.025503
0.0254929
0.0259932
0.0266997
4.3931
0.0269286
0.0250166
0.0254267
0.0391308
3.04146
0.745588
1.75627
0.0557756
0.0261791
0.0247016
0.0303349
0.0252172
0.0247489
0.0254584
0.0294574
6.95979
0.358543
0.051064
0.0336986
3.67866
1.89388
0.0256715
0.0250313
0.786772
0.025486
0.025275
0.0582925
0.0474512
0.0850029
0.0256408
0.0250607
0.0260065
0.0255275
0.0254085
0.025923
0.0684774
0.0262169
0.0251843
0.0251567
0.0256367
0.142814
0.0674517
0.0862517
4.66878
0.0250942
0.0246831
0.0253584
0.0258512
0.065604
0.0252754
0.0255166
0.0782364
0.676182
2.4236
0.0255586
0.0249927
0.418028
4.24256
0.13329
5.31128
0.162551
0.0252708
0.0404468
8.91705
0.0253781
0.432165
0.0250926
4.30927
0.107698
0.0270797
0.0252163
0.255394
6.39718
0.0615534
0.111406
0.150674
0.0558337
0.0306296
0.0350777
1.03339
12.6334
5.19599
0.0328909
0.0251327
4.55666
0.158032
0.0482265
0.0566563
12.5769
0.0255365
0.0250528
0.0252739
4.32001
0.0836391
0.893567
0.0292835
0.0803944
0.0255185
0.0254614
0.0258187
0.0246979
3.3482
0.0290903
0.025011
0.0741712
4.9566
0.0256515
0.0376755
6.12932
6.32245
5.1908
3.53495
4.50508
0.171024
0.0250539
0.083886
6.29103
22.5716
0.0246929
0.0287516
0.0250385
0.0288817
0.0252594
0.0246816
0.0253521
0.542662
0.025374
4.78019
6.33168
0.0251293
0.0250958
0.0983425
0.035441
0.0248969
0.638474
0.0252184
0.154012
0.0645504
0.154362
0.0297767
0.0763174
0.0519436
0.0248833
0.0387651
0.0920524
4.25167
0.0252185
52.5405
0.0265846
0.0251304
0.027261
0.13134
0.151782
4.24937
0.0255113
0.0261296
0.0252854
0.105933
0.0291893
0.0403536
0.025005
1.86246
0.0246144
0.0247317
4.9306
8.70161
0.0252721
17.918
3.46195
3.928
5.5771
4.25263
6.41762
0.025414
0.0256097
0.0254066
0.0250818
4.23082
0.0558553
0.0639632
5.98261
0.0250966
0.0256737
0.20536
6.47496
0.0394776
0.0255944
0.0286498
0.0250719
0.0253494
0.101505
0.0256574
0.630972
0.0252945
0.0548557
0.0269587
9.75633
0.196897
0.024849
0.0253256
0.0252817
0.199241
0.0814683
0.026101
0.0253174
0.0553921
0.025449
0.0281863
0.0298429
0.19844
0.0454426
0.0658865
0.0248593
0.0252954
0.0264866
0.0468111
0.0838679
0.086418
0.0257325
0.0255888
0.040215
3.4367
4.9328
0.0248786
0.0310247
0.0248567
5.23459
0.0273223
0.0258117
0.0286885
0.101658
4.16905
0.0312692
0.0406474
0.025039
14.5609
0.0480091
0.0252413
1.46358
0.03352
0.0386324
0.0640926
1.323
0.0468188
0.455556
4.57989
0.0318415
0.0250339
0.410393
0.0251976
0.0250277
0.025244
0.408383
0.0258365
0.0248626
0.0614913
0.0358176
0.0254878
0.0291607
0.0253221
0.0251514
3.615
0.071545
0.324117
0.0554729
0.162838
0.025396
11.541
0.0905375
0.0606669
4.78224
0.0251278
0.0253789
0.0552343
0.0837957
0.0252748
5.42348
0.169024
0.0366625
4.29968
3.50562
0.0248259
0.181785
0.206301
4.7792
0.0264636
0.0583105
0.0250081
0.0548817
0.0251571
0.189033
0.17788
0.0253911
0.0250447
0.0249058
0.0846326
0.0460108
0.12407
3.92258
3.86885
0.0248372
4.69112
0.0255492
0.0254882
0.0251544
0.351524
0.0255831
0.0267624
0.0253332
0.0591615
0.0254942
0.026601
5.21215
0.0253623
0.144836
4.25393
0.363545
4.31473
4.6242
0.0343221
0.0847097
0.0253215
0.920005
0.0248638
0.0252855
0.0252847
0.0253187
4.50826
0.0253196
0.164124
0.0249449
0.0470562
0.0261811
0.0446011
0.0272817
0.0255646
0.0315697
0.0247331
0.0251833
5.23744
0.0253983
0.0617187
0.0283847
0.0271239
0.100137
0.0254782
0.0258354
0.0883357
4.21304
5.49439
4.85879
7.02137
0.0775852
0.0251226
0.0252239
0.0536133
4.84386
0.0620403
4.00215
0.0251792
0.0252633
0.15876
0.0250154
3.92146
4.41104
6.3916
0.0251479
0.0256426
0.0248136
0.0251194
4.22686
0.0252779
0.0256513
0.0424068
5.17742
0.0255679
0.0251942
0.0250803
11.1493
0.0258025
0.0294833
4.35096
1.95856
0.0843136
4.01403
6.44489
4.31768
0.0253103
10.6406
0.0253606
0.0253482
0.0548129
4.38935
0.139105
4.50514
0.0248625
0.0252544
0.0252452
0.0604358
0.95708
0.0455495
4.56714
0.0288457
4.95692
6.62393
0.025394
0.105571
0.0302945
0.0278467
0.041468
0.0249876
3.94711
4.54322
0.0256493
0.025309
0.655391
0.0258765
0.0258782
4.22901
0.146681
0.025454
0.0252997
0.0254302
0.0253966
5.77319
0.0302602
0.0252732
0.0250521
4.28966
0.0250672
0.0255034
4.08326
0.0252422
0.179509
2.42391
0.0327132
0.0263665
0.0327593
16.6943
0.0248762
0.0272667
4.26573
0.0585393
0.025492
0.110322
0.0471308
0.349541
4.3423
0.0285008
14.639
0.025349
0.0252552
0.0255384
0.0253392
0.0293125
0.052745
0.152669
0.0252487
0.0619454
0.029178
0.316579
0.609725
0.0255181
0.0246135
4.6633
5.36284
0.0429812
0.0251226
0.0419979
0.025284
0.0359264
0.0252264
5.10292
0.0565127
0.0251619
12.8037
4.73172
0.0251978
0.0254626
4.11201
0.063506
0.0250523
4.18199
4.76418
0.0250474
0.0252934
5.19184
3.57814
0.190434
0.0252559
0.160563
5.26531
0.0367868
0.0248255
0.044831
0.0246271
5.67653
0.0261162
0.0316284
4.18313
7.12494
0.0255175
0.0254795
4.58228
4.8122
0.0251143
0.0256994
0.0254345
0.0254124
0.025007
0.132945
3.49527
0.0269312
0.15894
0.348574
0.0367944
0.0256248
0.0254793
0.0248685
4.6828
4.96004
0.0731717
0.134548
0.0271393
4.98944
0.133057
0.0350668
0.0254667
0.0254912
0.206252
5.75991
0.0250137
0.0382081
0.0248273
0.0252538
4.3745
0.131865
0.0320118
0.025048
0.025095
5.12932
1.37905
0.0261718
0.0340302
0.0721275
4.20098
0.0264129
0.0726539
7.89151
0.0625038
0.0253196
0.0460014
0.0586105
0.0251871
0.0253264
5.58913
0.0895422
3.65521
0.0791592
0.0270311
5.45205
0.0266936
0.0914745
0.0250308
0.0354255
0.0251005
0.0406177
0.0251926
5.83976
0.0251019
0.0253438
3.15231
0.0459077
0.15859
0.0253609
0.0251198
4.90407
0.175144
0.0807566
0.0292436
0.579155
0.25479
0.186113
0.0578404
3.95326
4.11646
6.28693
0.0253969
0.0248655
0.0253004
0.115862
0.152102
0.0253253
0.0327638
4.42781
5.6479
0.025678
3.91713
0.0288946
0.0575839
0.0459114
0.0255345
0.0251683
0.104763
0.0321547
0.153232
0.0278565
0.0255243
9.06862
5.19033
0.0250231
0.0576013
0.025532
0.0254276
0.0294545
6.08521
0.0514606
0.0253521
0.026194
0.452991
4.3245
0.081949
5.75398
0.042642
4.97411
0.0257736
0.0254868
0.0253372
0.0253604
0.336048
0.0849461
0.025352
0.0666814
0.0297063
2.43053
0.336395
0.0253276
0.0254002
0.0258877
0.0300402
4.23554
4.14162
0.0320073
6.65392
0.107464
0.0252218
0.0746465
0.0251033
0.0252071
0.0326655
0.0261484
0.0289873
0.0518738
0.0249492
0.0252882
0.0269946
6.99159
0.0251556
0.0260722
5.69834
0.188406
0.176549
0.0252938
7.07514
0.0254678
0.331731
4.78492
12.234
0.0284071
0.0363919
0.0257301
0.0263219
4.98155
6.13431
4.27971
0.0304017
0.0248701
0.045015
0.0256322
0.0251581
4.23112
0.0331659
0.0605957
0.0250042
0.028843
0.0340955
0.312109
0.0252046
0.0562444
3.23558
0.025342
0.0265367
0.0488324
0.026499
3.41899
0.0250148
0.0258433
0.025278
0.0295472
0.0249112
0.0248518
5.42703
4.33203
4.32741
0.0783354
0.186553
7.79195
0.0290586
0.118647
0.0254862
0.0253219
0.0354388
0.0395673
0.187065
5.4571
11.1116
0.0262042
0.0252047
0.0545017
0.0252569
0.0370051
3.89794
3.88574
4.20853
11.5627
0.0266162
5.58976
0.0615115
0.0251033
4.54134
0.0850755
0.0295386
0.0253922
5.61719
0.0255329
0.18674
0.0870605
5.2633
0.0254518
0.086318
3.59594
0.0627212
0.0269933
4.14725
0.0251295
0.0248895
0.0270492
0.0253291
4.91639
5.67124
0.181267
0.0253166
6.47512
0.0262882
0.0488622
0.559381
0.0407379
0.05853
0.0246815
0.0254966
5.88012
0.186462
4.54492
0.0248635
0.0274352
0.0551735
0.0252712
0.0247785
0.0263712
0.0254173
0.0250421
0.181994
0.0424071
0.0255654
0.028117
0.117085
5.25457
4.35046
0.0301134
2.41386
0.0594429
0.0325723
0.0253269
0.0273837
3.85116
0.686194
3.9122
0.0363524
0.0254789
0.0254726
0.0375757
0.0256732
0.0252909
4.30227
2.23303
0.0250468
3.86742
8.2232
0.024695
0.0248771
0.0270432
0.0255993
0.412512
0.0726574
0.149028
0.167847
0.113254
10.3089
0.0691718
0.0251813
0.025522
3.47253
0.0644861
0.114716
0.0566631
4.76658
0.0251488
0.188158
0.0256589
0.0253643
0.0271188
0.0832729
0.0746214
0.0253319
0.0253653
4.92387
0.0305469
0.0303044
6.56268
3.88415
0.074837
0.025272
0.0752313
0.0248872
0.0262199
3.50421
5.13167
0.0670306
0.0852062
0.0269416
0.0530913
0.0436532
0.169896
4.53637
0.0446884
0.0248634
5.46355
0.0271585
0.0260597
0.0253526
0.0250914
4.23706
0.0640877
0.025012
0.177293
0.196013
0.0868301
4.28045
0.112197
0.025269
0.0368996
3.63254
4.16411
0.0464411
0.0539496
0.0262096
2.97466
0.0252128
4.32276
0.0250089
0.0252499
0.255471
0.0427212
0.0261614
0.0253369
0.0252708
4.20014
0.0924208
0.0250839
0.0253905
0.0788433
0.0260603
1.57253
0.0250989
4.19532
0.105548
0.0254
4.84658
0.0252668
0.030525
0.0253899
4.36141
0.161012
0.0480334
0.0255486
0.202763
0.0249419
5.15348
0.0250634
0.025156
0.0303412
4.89382
4.95125
0.0512992
0.077949
0.0253216
0.0369446
0.0297626
3.89396
0.0257259
0.0249884
3.93797
0.115243
0.0260881
0.0251576
1.31889
0.0273401
4.84868
0.0777203
0.0250123
0.0260929
0.403775
4.81141
4.33485
0.0923446
0.0250848
0.0253454
0.027164
0.0759712
0.025342
0.0482401
0.0323316
0.113326
0.04735
4.68595
0.0256425
12.6287
0.0258228
4.20234
0.02987
0.565309
0.0252366
0.156342
0.0248391
0.70966
0.0250954
0.61322
4.29332
0.0607552
0.0255299
0.0257336
0.161527
0.0250917
4.73256
0.0255483
0.363456
0.0263216
6.29414
0.0250949
0.0249917
0.0273324
0.0250011
0.024837
0.0688388
0.0766742
4.63466
0.0522821
2.25739
0.0254328
4.9181
0.0254615
0.0250712
3.99212
0.0256555
0.0253611
0.0254024
0.0252724
10.2652
13.5187
0.0314056
0.399611
0.0253137
0.0294215
0.0455448
6.63777
0.0253073
0.0251482
0.0268725
0.0254897
0.0255299
14.9366
0.622007
0.489961
0.0301641
0.0251991
0.0249489
0.0539007
0.0300907
8.67879
5.92491
0.0252867
0.0266236
0.0253276
0.0247476
0.0257196
4.33607
4.31868
0.0251193
0.0285252
0.186542
0.0489673
0.0264961
0.038303
4.2631
4.4065
0.0559504
0.0308652
0.0466362
0.0247817
0.0555505
0.0249512
0.0256794
2.15657
0.0266671
0.152017
4.70063
0.0251951
0.0250258
0.0251951
0.452507
0.162264
0.0258833
0.0256735
0.0251527
0.0359872
0.0869005
0.0998735
0.0266403
0.0252631
0.0252098
0.0605648
0.161958
0.0609953
0.137344
0.105272
1.16824
0.0249825
0.0254535
0.1539
0.0316328
0.47603
0.0253434
0.0260893
0.15645
0.0257396
6.14441
0.024981
4.94905
5.69636
6.98469
0.105524
0.143312
0.0298468
0.0257349
0.0247979
4.80654
0.0256316
0.0268805
0.055214
0.0276593
2.55394
0.0278768
0.193287
0.364268
0.0290133
0.0254955
8.98361
0.107644
0.178998
0.0256367
4.91483
4.26735
0.0247467
0.0253817
4.63442
0.0250433
5.96977
0.0818402
0.0305907
0.169041
0.0250433
4.40333
29.3763
5.06662
0.0574411
4.39146
0.0253914
0.373129
4.42623
0.0252912
0.401711
5.50955
0.0246778
0.0298873
0.0396814
0.0253349
0.076229
0.0381935
0.0253344
0.0253108
0.434369
4.18856
6.47999
0.0254913
0.0253054
4.485
0.551785
0.0253928
0.029859
6.23531
0.0663716
0.0365092
0.0822324
0.0254858
0.109743
0.027372
0.0254302
3.87203
0.0347123
7.21061
0.0254777
0.0254713
0.0254515
0.0253472
0.0255228
0.151931
0.090534
0.0252722
0.033199
0.0816394
0.0279191
10.0673
0.0506701
0.0255186
0.0271518
0.106712
3.46869
0.025443
0.0254726
0.0252314
0.0782037
0.025477
0.0293804
0.503788
0.189256
0.0690535
0.0251288
0.148462
4.91663
0.0249924
5.51847
4.27756
0.0478355
4.24547
0.146413
0.0270189
0.0260883
0.0254177
3.19058
0.0250456
0.0326839
0.0251782
11.9832
0.16989
0.0505642
0.0498668
7.85472
0.0287763
0.0250252
0.0257834
0.0530368
0.0690185
0.0250024
0.0255568
0.0254073
4.09994
0.0286399
4.29294
0.11128
0.0561483
0.0255444
0.0394777
8.89801
0.153083
0.0443208
0.0252329
4.85521
0.0250923
0.0568386
5.5349
0.0353431
0.0251055
0.0254463
0.024832
3.97637
0.0289298
0.0772447
0.0481822
0.0600299
0.221801
0.025454
0.0246742
0.0583016
4.26814
0.0257608
4.75592
0.025029
0.025489
6.08279
0.356575
0.0817716
4.88645
0.0574334
4.49156
0.0482722
0.0255457
8.36553
0.0251322
0.0324121
0.0255807
9.80676
0.130658
5.57746
0.0253512
4.12001
0.0311992
0.0254657
4.17905
0.0341213
4.02203
0.0277352
0.0251952
0.0570873
5.02778
0.0252078
0.0471689
5.79213
6.71136
0.0258138
5.58652
4.20675
5.33443
0.0251972
0.0252854
0.0258242
0.0256704
0.202346
0.0272024
0.483634
0.0820304
5.31926
0.712161
0.0258073
4.15597
0.0261547
4.11716
4.01971
0.552777
0.229438
0.0978041
0.025494
7.01848
6.2483
0.0408656
0.025271
0.0391153
0.057533
0.0256244
0.0246953
0.051299
0.025408
0.0375178
0.0342601
0.0251075
0.133471
10.4801
0.031352
4.17291
0.0439931
0.0309399
0.0250189
4.34264
0.227581
0.0539749
0.0267953
0.0297072
4.59961
0.0271134
0.0254028
0.0248969
0.0436701
4.34471
0.0251599
0.025484
4.18814
0.0250959
4.93515
0.0547665
0.0250362
0.0252343
4.34145
0.156193
0.0251926
0.0249111
0.025503
0.045875
0.0834805
4.26896
0.0257828
0.0266734
0.0276235
0.0286894
4.28284
0.029641
0.0248693
5.79295
0.0250029
0.155601
0.0254338
4.20624
12.2642
0.0300407
0.0253765
0.0252902
0.0254652
0.225055
0.0252214
8.27248
0.0311561
0.0248616
0.0246734
1.34486
0.0776807
0.0252824
0.403693
0.0354436
0.281826
4.74308
0.034007
0.0254188
0.0253362
0.0524657
0.0277777
0.0254751
0.0254197
1.3722
5.34054
0.0250274
0.0252351
0.0251942
5.36704
3.47525
0.0879381
0.0251821
0.0364455
0.0254926
0.0247726
0.0392232
0.971311
0.204197
0.0250708
0.293333
0.113626
0.0472387
0.0255097
7.38483
0.0254049
0.0293114
0.0252423
0.0251421
0.0292981
0.0252247
0.025165
0.0256101
5.34637
0.0256996
0.0411587
0.0251351
0.0252655
0.0286156
0.0716307
0.0567462
0.0256176
0.0254392
0.0287097
6.13043
0.296102
0.0263842
4.21437
0.0252823
0.0284428
4.866
0.0256816
0.0254776
0.038525
0.0253266
0.0825548
0.117907
4.65598
0.0249699
6.58641
1.04995
0.0253381
6.52138
0.0744119
0.551571
0.0252656
0.169649
0.0301974
0.0254618
0.138833
0.0251694
0.0285973
0.0251197
0.0252642
5.64482
0.0939572
0.0252853
0.0253808
0.0262613
0.0425036
0.0255445
0.0254104
0.0461273
0.0326391
6.76698
0.875696
0.0252512
0.0249188
0.0254163
0.0255998
0.0256661
0.0572743
0.025439
0.0262001
0.0254125
0.0327357
4.18009
0.168374
0.0256319
1.04294
4.54216
0.0253371
0.0251433
4.67796
0.0264788
10.025
4.14774
0.0249074
0.0307153
0.0393583
0.0570571
0.0252455
0.0460646
0.0269328
0.165834
0.0829469
0.0252858
0.0253196
4.1424
0.0251439
0.244401
0.0751078
0.19175
4.6378
6.76488
4.77964
0.135778
0.04926
0.0259514
0.028789
0.025639
3.38563
0.025263
0.0251354
0.0253685
0.0249695
0.047004
4.16165
0.0734296
0.0801603
0.0283521
7.81495
0.0328231
0.0572579
0.221975
0.0252942
0.0253108
0.128524
0.0251629
0.0334647
0.0278202
0.0247975
4.26455
0.0863705
0.0255653
0.0252703
0.0270399
7.76185
0.0572619
5.89498
0.0253345
3.90808
0.0287707
0.0293588
0.0251811
0.389089
0.0265496
0.356176
0.0591635
0.0350362
0.0253261
0.025217
0.0258568
0.0254141
0.0250797
0.0266578