/*--------------------------------*- C++ -*----------------------------------*\
| =========                 |                                                 |
| \\      /  F ield         | OpenFOAM: The Open Source CFD Toolbox           |
|  \\    /   O peration     | Version:  v2012                                 |
|   \\  /    A nd           | Website:  www.openfoam.com                      |
|    \\/     M anipulation  |                                                 |
\*---------------------------------------------------------------------------*/
FoamFile
{
    version     2.0;
    format      ascii;
    class       surfaceScalarField;
    location    "100";
    object      phi;
}
// * * * * * * * * * * * * * * * * * * * * * * * * * * * * * * * * * * * * * //

dimensions      [0 3 -1 0 0 0 0];
oriented        oriented;


internalField   nonuniform List<scalar> 
55428
(
0.141758
0.0626601
-0.204418
-7.03252e-05
0.0010708
-0.00100048
0.273026
-0.169414
-0.103612
-0.00987885
-0.047886
0.0577648
-0.00338157
0.00263982
0.000741752
0.117944
-0.236824
0.11888
-0.0404911
0.0906069
-0.0501158
-0.0961442
-0.0382092
0.134353
-0.0676555
0.0127524
0.0549031
0.038591
0.0144621
-0.0530531
-0.244747
0.0755006
0.169247
-0.116122
-0.206908
0.323029
0.0747248
-0.125646
0.0509216
0.349187
-0.360323
0.0111358
-0.0272198
0.00437872
0.0228411
0.192085
-0.0641618
-0.127923
-0.126412
0.0110123
0.1154
-0.0580552
0.0949764
-0.0369212
0.0186091
-0.0238895
0.00528041
0.0635907
-0.0470699
-0.0165208
-0.0932536
-0.0451221
0.138376
-0.0546809
0.196439
0.00691271
0.0216815
-0.0285942
-0.168604
0.139299
0.0293054
-0.056641
0.118041
-0.0614003
0.0621674
0.129918
0.0543717
-0.10262
0.0482479
-0.0808029
-0.00952859
0.0903315
0.0294251
0.00381244
-0.0332376
0.00107248
0.0010689
-0.00214139
0.00824372
-0.0221171
0.0138734
0.0778001
-0.254257
0.176456
0.0280385
0.0534067
-0.0814452
0.0639986
-0.0141753
-0.0498233
0.0341929
0.0432281
-0.0774209
0.102064
-0.0701045
-0.0319597
-0.328773
0.245257
0.0835157
-0.109746
-0.0588585
-0.163042
0.164223
-0.00118087
-0.065911
-0.101092
0.167003
0.0600959
-0.0150823
-0.0450136
0.000163725
0.00290176
-0.00306548
0.110262
-0.0470937
-0.0631686
-0.0110217
0.0605494
-0.0495277
0.1366
0.108178
-0.244778
-0.0462071
-0.0247566
0.0709637
0.00176703
-0.00257275
0.000805723
-0.0555434
0.0712789
-0.0157356
0.135369
0.137657
-0.00210831
-0.00127326
-0.159928
0.10726
0.0526679
-0.17832
0.0562279
0.122092
0.0689226
0.0495382
-0.118461
0.0208582
-0.0683384
0.0474802
-0.130447
-0.142326
0.272773
0.125442
0.0487561
-0.174198
0.0595037
-0.0209126
-0.234026
-0.0947472
0.00803516
-0.00776307
-0.000272084
-0.100023
-0.184105
0.284128
0.00833883
-0.00030367
0.0859356
0.0161287
-0.344206
0.0360331
-0.00207928
0.00124886
0.000830419
0.0756054
0.0437229
-0.119328
-0.050993
0.112856
-0.0618632
-0.165091
-0.0242559
0.189347
-0.0554216
0.079094
-0.0236724
-0.0283593
-0.00929548
0.0376548
-0.282938
-0.0612683
0.17839
-0.308837
-0.116505
-0.0260247
0.14253
0.0812642
-0.139106
0.0578419
-0.120778
0.238143
-0.117365
0.0712622
0.0933307
-0.164593
0.0592364
0.0920738
-0.15131
0.00315955
0.00749615
-0.0106557
0.0814135
-0.11214
0.0307262
-0.00223025
0.00296208
-0.000731823
0.0751123
-0.137841
0.0627288
-0.354043
0.355191
-0.00114806
0.105966
-0.0658359
-0.0401298
-0.229816
0.109039
0.012489
0.0303809
-0.0428698
-0.0625444
0.0635451
-0.00100072
-0.125933
-0.000479443
-0.0117263
-0.00359452
0.0153208
-0.00123488
0.00230736
0.00209479
-0.0293146
0.28252
-0.204719
-0.00430352
0.00746306
0.0789901
-0.0309667
-0.0480234
0.0592694
-0.230058
0.139749
0.0903084
-0.199615
0.12475
0.0748646
0.0562151
-0.00291187
0.000681614
-0.128829
-0.140503
0.269332
0.0483082
-0.0581871
-0.0199812
0.00105662
0.0189246
-0.104457
0.0573634
0.0752632
-0.0354704
-0.0397928
0.00139524
-0.00764013
0.00624489
-0.0208075
0.0109083
0.00989914
-0.0628989
0.230483
-0.167584
0.0879067
0.058921
-0.146828
0.00127301
-0.00351053
0.00223752
-0.197814
0.340225
-0.142411
0.101843
-0.266934
-0.0161355
0.0258351
-0.00969961
-0.0150037
0.0237778
-0.00877409
-0.0196371
-0.00392251
0.0235596
-0.177699
0.0761223
0.101577
-0.271418
0.230651
0.0407672
-0.22426
0.177397
0.0468632
-0.0966838
0.246663
-0.14998
0.00526896
0.0761446
-0.0434418
-0.1196
-0.166098
0.100187
-0.0520056
-0.0833893
0.135395
-0.106168
0.215054
-0.108886
0.0108115
0.00143547
-0.012247
-0.111417
-0.126702
0.238119
-0.176081
-0.271093
0.185163
0.0859306
-0.0273445
0.0244083
0.0029362
-0.222301
-0.0491177
0.159997
-0.275695
0.115698
0.00670231
0.0440326
-0.0507349
0.0132926
0.0342291
-0.0475216
0.297913
-0.137915
-0.000428708
-0.000148513
0.000577221
0.0354499
0.102481
-0.137931
-0.0422304
0.0952345
-0.0530041
0.00504352
-0.00364828
-0.230734
0.18952
0.0412146
-0.0331507
0.0852201
-0.0520694
0.0201971
-0.0756186
-0.0750708
0.0288638
0.073496
0.0512825
-0.124778
0.14373
-0.118864
-0.0248666
0.0320857
-0.112889
-0.014231
-0.0534246
0.0758109
-0.136053
-0.0635621
-0.0986366
0.157873
-0.0170703
0.0141447
0.00292564
0.152594
-0.0983167
-0.0542771
-0.0795681
0.0440892
0.0354789
0.203174
-0.291313
0.0881398
-0.143128
-0.0533314
0.196459
-0.0861188
0.0165365
0.0695823
0.0472855
0.0258959
-0.0731814
0.215401
0.11453
-0.329931
0.00556393
0.0027749
0.169169
-0.295836
0.126667
0.00223074
0.000238517
-0.00246926
-0.0939796
-0.150768
0.00447064
-0.00319763
0.100027
-0.0626931
-0.0373335
-0.0487739
0.0889956
-0.0402217
0.152849
0.0380713
-0.190921
-0.0079693
0.00668789
0.00128141
-0.00353929
0.0130321
-0.0094928
-0.00102363
-0.0850952
0.085372
-0.137378
-0.020732
0.0349636
-0.0142315
-0.0327061
0.0827001
-0.049994
0.00045062
0.0185872
-0.0190378
-0.0743036
0.0336201
0.0406836
-0.0540383
-0.176696
0.0124119
-0.0159512
0.0074654
0.145384
-0.0601677
0.127691
-0.0675233
0.0122577
-0.00144615
-0.0785565
0.0111804
0.0673761
-0.218744
0.137315
0.0814294
0.0671273
0.0450121
-0.112139
0.0612054
-0.0858834
0.0246779
-0.108801
-0.0339732
0.142774
-0.0690904
0.0580687
0.2217
-0.304669
0.0829687
0.247354
-0.0256534
-0.239028
0.136302
0.102725
0.0129254
-0.0085758
-0.00434959
-0.109142
0.266659
-0.157517
-0.107529
-0.123823
0.0669915
0.0568319
-0.0193026
0.0262153
0.0688557
-0.0695817
0.000726053
0.223047
0.0810996
-0.304147
-0.0889211
0.0771516
0.0117695
-0.288439
0.180531
0.107908
0.131434
-0.18755
0.0561159
-0.0687598
0.0297374
0.0390224
0.13368
-0.0982302
0.189045
-0.110874
-0.0781708
0.110551
-0.0508677
-0.0596833
-0.0207027
0.00350719
0.0171955
-0.0291791
0.0141025
0.0150766
-0.0406846
0.0679887
-0.0273042
-0.25607
0.124209
0.131861
0.0908588
-0.233987
-0.383456
0.232352
0.151104
0.0153108
-0.00443107
-0.0108797
0.0361115
-0.0917786
0.0556671
0.036741
-0.0772321
-0.168419
0.108445
0.059975
-0.196117
0.0899493
-0.0141843
0.00245806
-0.166118
-0.005508
0.171626
0.0155028
-0.0150522
-0.161289
-0.0947814
-0.0202641
0.0945642
-0.0743
-0.00107921
0.0006505
0.0196042
-0.00405194
-0.0155523
-0.0496355
-0.0299326
-0.0731062
0.021432
0.0516742
0.0525244
0.0114742
0.344224
-0.171919
-0.172305
0.00941312
-0.00384919
-0.285321
0.169199
0.112353
-0.194347
-0.055019
0.0479354
0.00708359
-0.0108011
0.0084098
0.00239133
0.105928
0.100657
-0.206585
-0.00309248
0.00339576
-0.000303285
-0.14294
0.184119
-0.0411782
-0.0229514
0.095447
-0.0724956
0.00163645
-0.00708939
0.00545293
-0.0386522
-0.0658049
-0.180613
0.00615627
0.174457
0.191198
-0.291221
0.0110142
0.00171195
-0.0127262
-0.102184
0.0810943
0.0210897
0.0489772
0.0341813
-0.0831585
0.0456108
-0.0569505
0.0113397
-0.000683999
-0.00679524
0.00747924
0.229776
0.0292723
-0.259048
0.229358
-0.117844
-0.111514
-0.089014
0.0736738
0.0153402
-0.280188
0.171046
0.0120367
0.00327403
-0.0881643
0.170258
-0.0820935
-0.101072
0.209782
-0.108709
-0.00369977
0.0385821
-0.0348823
0.156753
0.119474
-0.276227
-0.00309615
0.000987839
-0.05116
0.0791984
-0.0365363
0.0832892
-0.0467529
-0.115455
0.230379
-0.114924
-0.0985396
0.0577779
0.0407617
0.0100611
-0.190674
0.109542
-0.0504134
-0.0591284
0.137851
-0.0805506
-0.0573003
-0.332505
0.187991
0.144514
-0.0667616
-0.0221595
-0.117769
-0.143178
0.260947
-0.0939489
0.0607982
0.148513
0.132478
-0.280991
-0.00180057
-0.00129559
-0.051314
0.124931
-0.0736169
-0.0645881
0.267762
-0.0134852
0.021729
-0.0254821
-0.104227
0.129709
0.131658
-0.258172
0.126513
-0.200821
-0.15009
0.350911
0.0640907
-0.102743
-0.00374571
-0.00705541
-0.33051
0.0964836
0.0094673
-0.038657
0.0291897
-0.00241443
-0.0150945
0.0175089
0.0264487
0.0260757
0.043414
0.0477058
-0.0911198
-0.0067006
0.00423729
0.00246331
0.155455
-0.266251
0.110796
0.140925
-0.249438
0.108512
-0.000726995
-0.000639438
0.00136643
0.116739
-0.0515492
-0.0651903
0.0316772
0.112053
-0.00252078
0.0319459
-0.150926
0.0103649
0.140561
-0.040427
0.0689385
-0.0285115
0.00676577
-0.143228
0.117746
-0.100577
0.149778
-0.0492007
-0.0460489
-0.128801
0.17485
-0.176951
-0.0773132
0.114054
-0.194084
-0.138421
0.153026
-0.180566
0.0275398
0.0493934
-0.0926845
0.043291
-0.0407598
-0.0142592
0.106475
-0.050183
-0.0562919
-0.00218598
-0.00451462
-0.105403
-0.105198
0.2106
-0.233628
0.11217
0.121458
0.00917967
0.08489
-0.124027
0.0391372
-0.233596
-0.096914
-0.000681125
0.0430813
0.016467
-0.0595483
0.0887281
0.0387106
-0.127439
-0.0694938
0.0617957
0.00769815
0.133515
-0.229587
0.0960723
0.302651
-0.0980965
-0.204554
0.233501
0.14889
0.0597828
-0.0518673
-0.00791551
-0.123158
0.0629903
-0.0687394
0.292703
-0.223964
0.00767557
-0.0109876
0.00331205
-0.0638507
-0.0383333
0.0567832
0.01848
-0.00711333
0.00642933
-0.0067659
-0.00299083
0.00975673
0.0810083
0.0249575
0.0394733
-0.032771
-0.044518
0.0794587
-0.0349407
0.0803502
0.206398
0.053621
0.0200484
-0.0736694
0.058518
-0.0320692
-0.0906207
0.201797
-0.111177
0.00818833
-0.0146514
0.00646312
0.069353
-0.0164581
-0.0528949
0.039142
-0.086843
0.047701
-0.0155005
-0.00520221
-0.246181
-0.0282832
0.274465
-0.00411001
0.0191453
-0.0150353
-0.0300833
0.0856575
-0.0555741
-0.115616
0.0910992
0.0245165
-0.0999109
0.199639
-0.0997277
0.0536464
-0.037241
-0.0164053
0.0685893
-0.0213038
7.8545e-05
-0.000805539
0.0360982
0.014607
-0.0507052
0.0379269
0.00166923
-0.0395961
0.0906301
0.0601687
-0.150799
-0.00153366
-0.000545615
-0.0553244
0.126888
-0.0715632
-0.058298
-0.0111959
-0.149847
-0.0744127
-0.0714895
0.196931
-0.00556461
0.0044134
0.00115121
0.0212491
-0.0619336
-0.0228275
-0.0514761
-0.275811
0.207072
-0.139869
0.245298
-0.105429
-0.164242
0.28169
-0.117447
0.320085
-0.160031
-0.160054
-0.00716397
0.0223373
-0.0151733
-0.136196
-0.0584525
0.194648
-0.243661
0.0941071
0.149553
-0.105007
0.0578999
0.0471074
-0.0487027
0.045003
-0.156877
-0.10788
0.264757
-0.00654853
0.0250893
-0.0185408
0.0173498
0.0618525
-0.0792023
-0.155821
0.0596769
-0.0471554
0.102629
-0.0554739
-0.00293002
0.00333396
-0.000403938
-0.030032
0.0860792
-0.0560472
-0.00109396
0.0584648
-0.107708
0.0492433
0.0897756
-0.0334676
-0.056308
0.160509
0.0416172
-0.202126
-0.216073
0.341361
-0.125287
-0.0342417
-0.0493578
0.0835994
0.0649639
-0.085228
-0.139689
0.0843648
-0.0522711
-0.0419734
0.100438
-0.0196358
0.0627172
0.118095
0.0344987
-0.0594594
0.0896474
-0.0301879
-0.0688551
0.0323189
0.0691881
-0.000332464
-0.030829
0.0821318
-0.0513027
-0.00336646
0.000436438
-0.0484869
0.0222302
0.0262567
-0.0465925
0.0717921
-0.0251996
-0.0132109
0.0407008
-0.0274899
0.0319934
-0.0815945
0.0496011
0.00838332
-0.0856965
0.0168042
-0.0242884
0.00748414
0.0719413
0.0386097
-0.0787572
0.0558058
-0.0372279
0.0862051
-0.00259096
0.056212
0.19549
-0.0424638
-0.0768129
0.0619686
0.0148443
0.134644
-0.0854927
-0.0491508
0.0795107
0.0814106
0.00838702
-0.0897977
0.16263
-0.280324
0.117694
-0.0483555
0.0126688
0.0356867
-0.00771453
0.0824394
-0.440976
0.319316
0.12166
-0.0231132
-0.049993
-0.201585
-0.135181
0.336766
-0.00863029
0.00809925
0.000531037
0.156319
-0.0943936
-0.0619255
0.114446
0.100608
0.114984
-0.0335736
0.0136466
-0.259828
-0.140322
0.324135
-0.183813
0.00131399
0.00132583
0.159995
-0.069365
0.140197
-0.341782
-0.145243
-0.0433186
0.188562
0.0326506
0.0211364
-0.053787
-0.00678986
2.39675e-05
-0.193199
0.14715
-0.20282
0.102909
0.387854
-0.200127
-0.187727
-0.0498474
0.102522
-0.0526748
-0.111793
-0.1593
0.328954
-0.222248
-0.106706
-0.201468
-0.11339
0.314858
-0.0071926
-0.00143769
0.0278486
-0.0744411
-0.0103535
0.0271578
0.150363
-0.249114
0.0987505
0.0953587
-0.0745761
0.0514629
-0.0114678
0.00289204
0.12969
0.242909
-0.372599
-0.0611638
0.135768
-0.0746046
0.131862
0.0890356
-0.220897
0.0487291
-0.0462214
-0.0025077
0.207096
-0.362473
0.155377
0.0632305
0.0930886
0.0566384
-0.0800854
0.023447
-0.130186
-0.00573746
0.135924
0.0309897
-0.0215224
-0.285903
0.085082
-0.0686136
0.0281866
0.121453
0.0426064
-0.164059
-0.21283
0.177581
0.035249
0.103013
-0.162438
0.0594241
-0.121204
-0.117824
-0.00355011
0.00201645
0.0956934
0.0359882
-0.131682
-0.207956
0.132691
0.0752649
0.00468124
-0.00844968
0.00376844
-0.0412585
0.0280476
0.24833
-0.383793
0.135463
-0.0077787
0.015967
0.142068
-0.149053
0.0069851
0.0542859
-0.107259
0.0529734
0.075694
-0.0550602
-0.0206339
-0.256579
0.159895
0.00293941
-0.00162542
-0.118264
0.265677
-0.147413
0.0165287
-0.0273336
0.0108049
-0.189374
-0.0990654
0.383165
-0.212329
-0.170836
0.159683
-0.108369
-0.0513134
-0.27366
0.109418
0.000956836
0.000292021
-0.0970909
0.12154
-0.0244494
0.383909
-0.170441
-0.213468
-0.00832583
-0.0346115
0.0429373
0.0575007
0.0215933
-0.275584
0.291242
-0.0156573
-0.0691538
0.0463263
-0.0134172
-0.0352855
-0.0548828
-0.121205
0.176088
0.110063
-0.216432
0.10637
-0.10647
0.0566224
-0.00848339
-0.00298444
0.00219412
-0.0221753
0.00288311
0.0549464
-0.0578295
-0.052757
0.0324328
0.0203242
-0.00501621
0.0157939
-0.0107777
-0.094893
0.0477377
-0.00717538
0.0108487
-0.0036733
-0.102908
-0.0570203
0.241345
-0.123401
-0.117225
0.266946
-0.149721
0.0560143
-0.183691
0.127677
-0.00438217
0.0167941
-0.0450775
0.0367516
-0.105233
-0.124656
0.229889
0.0815292
0.0352103
-0.00236709
0.183705
-0.0713524
0.00691982
-0.00528337
-0.0568344
0.0888278
0.0833825
-0.189247
0.105864
-0.0537905
-0.0512168
-0.0496148
-0.163216
-0.00870655
-0.04448
0.0531866
-0.0841544
0.0671193
0.0170351
0.0642722
-0.115371
-0.0925853
0.125319
0.100087
-0.225406
0.0261622
-0.0736649
0.0475027
-0.00756864
-0.000400661
-0.141956
0.0765255
0.0654306
-0.331396
0.272342
0.0590538
0.163907
-0.107893
0.0196442
-0.0408552
0.021211
-0.0338786
-0.0782611
0.00265409
-0.00249037
0.0421721
0.0120633
-0.0542354
-0.0147579
0.0508561
0.0144693
-0.0279546
0.0193567
-0.149543
-0.00499367
0.00967491
0.0112796
-0.342675
-0.0205573
0.0181429
0.0931867
-0.23402
0.140833
-0.033272
-0.0234435
0.0567155
-0.0177801
0.00345934
0.0143208
0.00209897
-0.0991899
-0.0882053
0.347293
0.000870007
-0.00609221
0.00522221
0.0819982
-0.14378
0.0617816
-0.0850151
0.0716859
0.0133292
-0.0521615
0.0387442
0.0349805
0.0196076
-0.0545881
-0.20134
0.100268
0.146908
-0.0870075
-0.0599006
-0.0780774
0.047994
0.106706
-0.0576265
0.0243544
-0.278633
-0.0662263
0.344859
0.0735889
-0.0169505
0.301765
-0.210035
-0.0917307
0.0473489
-0.0371973
-0.0101516
0.229162
-0.114419
-0.114744
-0.299105
0.105021
-0.0117795
-0.00902793
0.0340282
-0.288285
-0.256046
0.193147
0.0971161
0.0919284
0.124567
-0.062094
-0.0624726
-0.29459
0.0159572
-0.195357
-0.245619
0.0559138
-0.0179869
-0.0701234
-0.0542133
0.124337
0.0116933
-0.0114545
-0.000238811
0.188947
0.0851337
-0.274081
0.112928
0.0493733
-0.162301
-0.064175
0.106163
-0.0419878
0.065492
-0.0177862
-0.124761
0.266001
-0.14124
-0.339962
0.181494
0.158468
0.0331598
0.0907031
-0.123863
-0.0290961
0.0880284
-0.0589323
0.00221311
-0.00109312
-0.00111998
0.0829334
-0.0495299
-0.0334036
-0.181764
0.0156451
-0.0699503
-0.107749
-0.0440584
-0.0219526
0.0660111
-0.0140561
-0.015123
-0.303868
-0.203605
0.258805
-0.0551998
0.00102131
-0.00752658
0.00650527
0.0133546
-0.0169492
-0.0170205
0.0335491
0.00270387
-0.00138085
-0.00132301
0.148498
-0.00642984
0.101309
-0.0651976
-0.146991
0.264133
-0.117142
0.0120549
-0.000361628
-0.0456846
0.0621516
0.0755251
-0.134763
0.0592376
-0.0690249
-0.0729311
-0.0171338
0.0497844
0.0170958
0.0726798
-0.0985602
-0.110383
0.208943
-0.0493755
0.0708075
0.000903298
0.0188568
-0.0254054
-0.199229
0.108609
0.0417409
-0.105916
0.0327912
0.0565294
-0.0893205
-0.0159366
0.150648
-0.134711
0.0924626
0.0717603
-0.101906
-0.0942108
0.0102069
-0.0027108
0.0417315
-0.0286512
-0.0130804
0.227056
-0.116993
-0.02713
0.019966
-0.00921845
0.0357968
-0.0265784
-0.405735
0.281908
0.123826
-0.0504941
0.0131978
0.0372963
-0.0793929
-0.169945
0.249338
0.0472345
-0.0814761
-0.143668
0.065656
0.0780119
-0.140498
0.28229
-0.141792
-0.0070735
0.0589853
-0.0519118
0.0148806
-0.0240983
0.00921773
-0.135724
0.0815499
0.0541746
-0.0565353
0.0095872
0.0469481
-0.216914
0.137521
-0.0793286
0.142765
-0.0634364
-0.0657972
0.141322
-0.105293
0.0515027
-0.0298348
0.111833
0.0460349
0.0421521
-0.088187
-0.305979
0.208966
0.0970127
-0.0307257
-0.199631
-0.183825
-0.0186733
0.0142912
0.0445538
-0.0911079
0.0465541
0.110505
0.116813
-0.227317
0.0700431
-0.0576994
-0.0123437
0.0845446
-0.301535
0.21699
-0.00899103
0.00657546
0.00241557
-0.00605423
0.0041136
0.00194063
0.17751
0.175288
-0.352798
-0.000837489
0.000767164
0.285712
-0.0666637
-0.219049
-0.172517
0.0272739
-0.0988763
0.132036
-0.120844
0.298354
-0.050024
0.0820043
-0.0319804
0.0853581
0.0615499
0.253484
-0.142979
-0.0964923
0.104876
-0.274874
0.0686583
0.206216
-0.0999309
0.0832346
0.0166964
-0.0432592
0.0340407
0.270967
-0.122455
-0.0677479
0.165714
-0.097966
0.0244495
-0.00584037
-0.197446
0.395866
-0.19842
0.0634642
0.0818619
-0.0243612
-0.053486
-0.0088159
0.0623019
-0.0748538
0.0464627
0.028391
0.0424243
-0.0734578
0.0310335
0.145439
-0.0765885
-0.0688505
-0.113319
-0.116738
-0.112912
0.0717896
0.0411222
-0.019873
0.0620451
-0.00543923
0.00734575
-0.00190652
0.0173961
0.00831356
-0.00703861
-0.00127495
-0.0515516
0.281328
-0.0723599
0.027375
0.044985
0.156705
-0.0928764
-0.0638287
-0.0495268
0.125667
-0.0761404
-0.011437
0.0259064
-0.047658
0.0685427
-0.0208847
-0.0600063
0.0737465
-0.0137402
0.252077
-0.0953238
0.0209313
0.0909615
0.004273
-0.0180709
0.0530514
-0.0129355
-0.0482681
0.0612036
0.0718434
-0.0921731
0.0203297
0.00498314
-2.82197e-05
-0.00495492
-0.00473594
0.126189
-0.0061477
0.00383084
0.00231686
-0.0431126
0.0530939
-0.00998127
-0.13107
0.081543
-0.071465
0.137787
-0.0663218
0.0406102
0.0594165
0.0549602
0.0302599
-0.067163
0.129719
-0.0625562
-0.220189
-0.0602408
0.28043
-0.0376718
0.0842577
-0.0465859
-0.175085
-0.130893
0.0335757
0.0774956
-0.0605749
-0.0169207
-0.213721
-0.0611535
0.0742489
-0.0318246
-0.000760026
-0.000709717
0.00146974
-0.29039
0.155158
0.135232
0.296604
-0.107656
0.0183291
-0.00603914
-0.01229
0.0863794
0.0717354
-0.158115
0.241856
-0.168636
-0.07322
-0.0747352
0.00588005
-0.00190033
-0.0020497
0.00395003
0.0118021
-0.0104128
-0.00138934
-0.0931908
-0.0504771
-0.0993556
-0.207574
0.30693
0.00815421
-0.00713741
-0.0010168
-0.0485847
-0.0358057
0.0843904
-0.0117559
-0.0507885
0.103115
-0.0988041
-0.0369203
-0.0442322
0.090267
0.0400931
0.0911978
-0.131291
-0.0459066
0.0720688
0.17057
0.00247662
-0.00437695
-0.163062
0.0748977
-0.0337485
0.0537974
-0.106059
0.00290618
0.103153
-0.0582606
0.0495541
-0.141865
0.252924
-0.111059
0.00320964
0.0288925
-0.0321021
0.103393
-0.222054
0.135919
0.0861349
0.0577203
-0.0417767
-0.0159435
-0.153349
0.137413
0.00237627
-0.0046785
0.00230223
-0.215366
0.00835288
0.207014
0.039097
0.0145494
0.0481371
-0.184333
0.0514038
-0.26677
-0.0532938
0.0598639
-0.00657004
0.312584
0.0366028
-0.00644717
0.00214365
0.191147
0.0507092
-0.0763993
0.0473032
-0.161094
-0.138011
-0.211219
0.340909
-0.0477291
-0.020785
0.0685141
-0.000807504
0.0400909
-0.0392834
-0.03356
0.0452927
-0.0117327
0.00923743
-0.00673951
-0.00249791
-0.00226735
0.00464362
-0.0324087
-0.0419513
-0.0400768
0.082028
-0.0948002
-0.100015
0.194815
0.166101
-0.027895
-0.138206
0.00825045
-0.00722914
-0.00940775
-0.190004
0.122256
-0.00444458
0.00207749
0.00763361
-0.00606814
-0.00156547
-0.0394251
-0.0681043
-0.0395573
0.0842123
-0.044655
0.0581448
0.0593766
-0.117521
0.0184191
0.00434722
-0.0227663
0.252797
-0.111872
0.0307537
-0.0888088
0.00805553
9.86792e-05
0.0135826
0.00679584
-0.0623392
0.0243682
-0.00594915
0.155471
-0.0425432
0.0593943
-0.124228
0.064834
-0.272266
0.122229
0.150037
0.0318346
-0.0121904
-0.000531725
-0.000830336
0.00136206
0.0552573
-0.258862
-0.0466572
0.0141689
0.0324883
-0.0117324
0.0222312
-0.0104987
-0.108557
0.0572428
-0.00191041
-0.114835
0.0447301
-0.00147176
0.000711738
0.189759
-0.00510076
-0.184659
-0.0581137
-0.0166215
-0.0293248
0.0418137
0.0673262
-0.0209861
-0.0463401
0.0631785
-0.232806
0.181732
0.0510745
-0.000884429
0.000772215
0.000112214
0.0758325
-0.0416396
0.0950461
-0.0587793
-0.0362668
-0.311052
0.0933699
0.217682
0.0360002
-0.084774
-0.30887
0.209515
-0.0100525
0.0556633
-0.015078
0.103806
0.170329
-0.125809
-0.0445201
0.0893644
-0.159181
0.0698167
0.117145
-0.179172
0.0620278
0.140452
-0.0331485
-0.107303
-0.0697824
-0.0301485
-0.0644342
-0.0595931
-0.0975162
0.155239
-0.0577229
0.0753313
-0.0123129
-0.0630185
-0.0740923
0.133542
-0.0594501
-0.034755
0.0287344
0.00602067
-0.0447046
0.0126453
0.0320594
0.234585
-0.140478
-0.0575711
-0.106149
0.16372
-0.0309778
0.148122
0.2214
0.122824
0.00204483
-0.0214081
0.00640436
0.100795
-0.0596548
-0.0411398
-0.166768
0.172924
-0.0733744
-0.0395374
0.127808
-0.219588
0.0917806
-0.147384
0.0711131
0.0762704
0.00145471
-0.000458939
-0.000995771
0.300534
-0.0491066
0.1017
-0.0525939
-0.0906398
0.0328094
0.0578304
0.21908
-0.107236
0.120593
-0.226543
0.10595
-0.233268
0.128035
0.151841
0.01426
-0.0685407
0.0150546
0.146948
-0.177926
-0.0517447
0.120667
-0.0552743
0.113419
-0.0407263
0.283636
-0.0655145
-0.167292
0.0117529
-0.0167691
-0.0167947
-0.00532241
0.399136
-0.19199
-0.207146
-0.161073
-0.0972482
0.258321
0.236713
-0.143527
-0.0304004
0.10858
-0.0781798
0.112169
-0.0626312
-0.0128909
-0.00488925
-0.0898467
0.0303873
0.138408
-0.0628025
0.128835
0.0470481
-0.175883
0.0869173
-0.0477753
0.0094065
-0.0301385
0.13101
-0.0575139
0.181307
0.138779
-0.303828
0.109275
0.194552
0.237542
-0.100941
-0.0597001
-0.0309397
-0.359725
0.160094
-0.0466232
-0.107356
0.153979
-0.00360702
0.0537956
-0.0501886
0.21306
-0.0497823
-0.163278
0.0018435
0.00109591
-0.0060747
-0.00106692
0.00714163
-0.0909767
0.163909
-0.0637897
-0.100119
-0.0457539
-0.0481854
0.0939392
0.0627106
-0.0175721
-0.0451385
0.0327444
-0.106761
0.0740164
0.0302787
-0.0674327
0.037154
-0.038217
-0.0363565
0.0745735
-0.0157397
0.00716311
0.00857656
0.0891247
-0.146696
-0.170789
0.28896
-0.118171
0.00134712
-0.107406
-0.00572477
0.00366283
0.00206194
-0.0912236
-0.0052687
0.101175
-0.223291
0.122116
-0.0554148
0.0152144
0.0402004
0.105334
0.170723
-0.276058
-0.219745
-0.0840831
0.0711298
0.0194771
-0.0217617
-0.0347736
0.101964
-0.0692193
-0.024264
-0.06475
0.0181893
-0.184957
-0.0674799
-0.0473547
0.0632647
-0.0323146
-0.0204424
0.150251
-0.174507
0.0507285
0.0277786
-0.0785072
-0.0362077
-0.0805527
0.11676
0.0510535
0.0116571
-0.105459
0.156797
-0.051338
-0.103773
-0.0975674
-0.0230549
0.00691946
-0.10868
0.157436
0.000832254
-0.00118077
0.00408252
-0.1252
-0.113455
0.238655
-0.100589
-0.194216
0.294806
-0.010578
-0.0341266
0.174834
0.0382258
0.0832183
0.126213
-0.209432
0.00323574
-0.00139224
-0.0811769
-0.161476
0.242653
-0.0108363
0.00584263
0.234156
-0.115707
-0.118449
0.0149369
0.0108982
0.0587907
0.0476843
-0.0229221
-0.0511066
0.0740287
0.00303157
0.258156
0.125009
-0.312521
0.151427
-0.166261
0.10433
0.0619307
-0.215666
0.140226
0.0754405
0.227945
-0.0944306
0.0537723
-0.0933296
-0.231579
0.0864817
0.145097
-0.302633
0.0857191
0.0515305
-0.117851
0.0663207
0.0598273
-0.0427646
-0.0170627
-0.181762
-0.120871
0.0751071
-0.218048
-0.0258464
-0.0693075
0.0951539
0.154667
-0.23645
0.0817831
0.218727
-0.114563
0.196589
-0.082026
-0.00200244
0.00111801
-0.157729
0.0193752
0.138353
0.309335
-0.239314
-0.0700207
-0.031744
-0.0483414
0.160194
-0.165702
-0.201092
0.102532
-0.00677562
0.000700919
-0.0139105
-0.0365835
0.0392501
-0.132504
0.0771359
-0.0576077
-0.0195282
0.253704
0.0556302
-0.12145
0.0631538
0.0582959
-0.122272
0.0860639
0.341498
-0.0462591
-0.295239
-0.0595209
0.0714612
-0.0119404
0.0188449
9.87976e-05
-0.0189437
-0.0345726
-0.0228208
0.0573934
0.0379065
0.0570699
-0.0509871
0.108887
0.194357
0.107408
0.000241477
-0.25399
0.172813
0.0148333
0.0325156
0.145437
-0.326592
0.181155
0.128147
-0.0530349
0.169618
-0.0983554
0.154359
-0.354502
0.200143
-0.0785162
0.0289864
0.0957352
-0.0413635
-0.327165
0.155245
0.274701
-0.104426
-0.170275
-0.0617985
0.048863
0.00679817
-0.00921293
0.00241476
0.131949
-0.0506847
0.155306
-0.0787808
-0.186209
0.113224
0.0729854
0.0459905
-0.0157118
-0.19335
0.28964
-0.0962907
0.0267273
-0.0218217
-0.00490554
-0.053571
0.19332
-0.13312
0.0719562
-0.106821
-0.0615987
-0.055212
-0.021162
0.076374
0.106065
0.000438045
-0.00283554
0.00239749
-0.0584487
-0.093518
0.151967
0.0621531
-0.146913
0.08476
-0.0603849
0.12402
-0.0636351
-0.121401
-0.0973424
-0.0633464
-0.0512331
0.0645573
-0.0133242
0.124244
0.0215696
-0.145814
-0.0659124
0.127067
-0.0611543
0.0789244
0.0849842
-0.00997913
-0.0354979
0.045477
0.0275728
-0.126309
0.0987365
0.00431716
0.0152871
0.00366979
-0.00421851
0.000548724
-0.0566134
0.0739632
0.0712124
0.101827
-0.173039
-0.10044
-0.0553808
-0.187422
0.0926214
0.013193
0.00844947
-0.0216424
0.155085
-0.0768557
-0.0782294
0.128066
0.00270314
-0.130769
-0.109966
-0.105701
-0.0521839
0.00430277
-0.000632983
-0.387139
0.189693
-0.17338
0.0668039
0.106576
-0.0860656
0.157278
-0.0712123
-0.108215
0.0591084
-0.00222339
0.000871872
0.000895157
-0.117441
0.0382098
0.0792307
-0.000775336
0.00188998
-0.00111464
0.0507794
0.351854
-0.117346
-0.234509
-0.0449468
0.073991
-0.0290442
0.0983729
0.0584797
-0.156853
0.00248789
-0.00137658
-0.00111131
-0.377134
0.150187
0.226947
-0.0609731
0.0413373
0.0609127
0.119495
0.00474909
-0.00935843
-0.0253966
-0.121287
-0.144964
0.100551
-0.068125
-0.0324257
0.076135
0.0246596
0.00776637
0.0189609
0.206272
0.0403919
0.0465996
0.0508839
-0.159684
-0.00669788
-0.00904179
-0.0662577
0.0221993
-0.250296
0.140438
0.109857
0.130513
0.0311954
0.0585161
-0.0260833
-0.0767379
0.0267139
0.0751241
-0.0139186
0.0777435
0.0600429
-0.137786
-0.0118672
-0.00520314
-0.125002
0.273385
-0.148383
-0.0887486
0.0213019
0.0674467
0.111438
-0.309252
0.119309
-0.0559881
-0.0633213
-0.127157
0.0889481
0.0426529
-0.0293603
-0.0725249
0.155907
0.0780668
-0.0286734
0.00117615
-0.295076
0.0445862
0.25049
-0.112698
-0.118678
0.231376
-0.351254
-0.0164435
0.0156533
0.000790226
-0.216201
-0.170938
0.0689741
0.0555925
-0.0449093
-0.0328759
0.0777852
-0.0720694
0.0173128
0.0547566
-0.0473214
-0.0483431
0.0956645
-0.0225361
-0.0259508
-0.0906481
0.13779
-0.0471421
-0.0139085
-0.00749957
-0.385675
0.224571
0.161104
-0.244154
0.119153
0.0450321
-0.102099
0.057067
0.0769953
0.157161
-0.00140143
-0.00159186
0.00299328
0.21767
0.150301
-0.367971
0.0979978
-0.0374633
-0.0605346
-0.107889
0.135462
0.0425342
-0.0213978
0.0220096
0.000327688
0.152609
-0.266382
0.113773
-0.0339881
0.0884626
-0.0544745
-0.0785842
0.0138571
0.0647271
-0.0573922
-0.0411474
0.113873
-0.225487
0.111614
-0.033183
-0.0222318
-0.0094919
-0.148237
0.269478
-0.184933
-0.0106936
0.0124245
-0.0017309
0.00156407
-0.0909087
-0.00726712
0.0981758
-0.175279
-0.230456
-0.0542811
-0.030734
0.075854
-0.357513
0.263316
0.094197
-0.165797
0.0603382
0.121443
-0.0592901
-0.0461623
-0.0495276
0.0956899
0.00189612
0.00635433
0.0884781
-0.228347
-0.278264
0.125943
0.152321
0.157464
-0.0862517
0.0857727
-0.0515914
-0.050281
-0.0574045
0.107686
-0.00317007
0.00875803
-0.00617395
-0.00258408
0.0544444
-0.0255493
-0.0288951
0.0942448
-0.049691
-0.12435
0.29352
0.00481242
-0.10235
0.0683616
-0.300585
-0.0850895
0.0245587
0.165201
0.0305957
-0.0751136
-0.00421892
0.132284
0.0287278
-0.0633004
-0.404721
0.149674
0.255047
-0.0538946
0.0207116
0.0738667
-0.134307
0.0604404
-0.100995
-0.0463881
-0.170087
0.0712109
0.000859341
0.0133077
-0.014167
-0.00161117
0.0414441
0.0298349
0.0139638
-0.00779567
-0.00616816
0.0110802
-0.0034046
-0.0809313
0.00114649
-0.00825983
0.14737
0.0243174
-0.171687
-0.00106687
0.00639775
-0.00533088
-0.075464
0.146599
-0.0711349
-0.0643097
0.0854116
-0.0211019
-0.0076705
0.00961032
-0.00193982
-0.00274592
0.00134449
-0.0661487
0.022525
0.0436238
-0.260139
-0.0349365
0.311485
-0.175743
-0.135742
0.00174262
0.0113794
0.0123984
-0.29296
-0.0623682
0.355328
-0.135411
0.0334339
0.101977
0.110982
-0.0594515
0.120689
-0.0495759
0.0858328
-0.125401
0.039568
-0.0642057
0.0307215
0.0334842
0.00769731
0.0304927
-0.03819
0.0441202
0.00381515
-0.105005
-0.103079
0.208084
-0.298155
0.12307
-0.0454316
0.131264
0.00744734
0.0561433
0.247103
-0.0591117
-0.00674419
0.00855144
-0.00180725
0.0412515
0.0833234
-0.124575
-0.0420645
0.0961297
-0.0540652
-0.0595518
-0.0291967
0.129808
0.111537
0.000317945
0.000986413
-0.00130436
0.0054094
0.0134356
-0.107822
-0.201048
-0.0688255
-0.0940088
0.162834
-0.234861
-0.16986
0.0658853
-0.267353
0.013301
-0.00239265
-0.202217
0.0978824
0.104334
-0.112198
-0.161462
-0.00912434
0.290437
-0.0412475
-0.249189
0.0437059
-0.140374
-0.0379451
-0.00150591
0.00324212
-0.00173622
-0.0676277
-0.065859
0.133487
-0.0890891
-0.0029336
0.0920226
-0.00139418
-0.0150493
0.166906
0.0883801
-0.00265761
0.00501234
-0.00235472
-0.0468104
-0.0280434
-0.268432
0.139604
0.11135
-0.213216
0.101866
-0.0304871
0.0580723
-0.0275852
0.000679374
-0.301003
0.00804293
0.31063
-0.116273
-0.154865
0.203002
0.0453366
-0.101513
0.0561765
-0.0578248
0.0472468
0.34421
-0.189851
-0.000123859
0.000850024
-0.000726165
-0.0422735
0.055574
-0.150746
0.0951725
0.0397759
0.0200069
0.0906342
-0.158262
0.0797847
-0.0469935
0.0265742
0.120795
0.0652345
-0.0316145
0.0628843
0.0432786
-0.00882701
0.0126443
-0.00381728
-0.313362
0.20554
0.0469743
-0.176619
0.129644
-0.190952
-0.168773
0.247575
-0.138176
-0.109399
0.078023
0.193723
-0.110505
-0.0587526
-0.0418492
0.100602
-0.0182491
-0.058045
0.0762941
-0.0357516
-0.0338301
0.236314
-0.131254
-0.10506
-0.0421559
0.0321768