/*--------------------------------*- C++ -*----------------------------------*\
| =========                 |                                                 |
| \\      /  F ield         | OpenFOAM: The Open Source CFD Toolbox           |
|  \\    /   O peration     | Version:  v2012                                 |
|   \\  /    A nd           | Website:  www.openfoam.com                      |
|    \\/     M anipulation  |                                                 |
\*---------------------------------------------------------------------------*/
FoamFile
{
    version     2.0;
    format      ascii;
    class       volScalarField;
    location    "200";
    object      ddt0(omega);
}
// * * * * * * * * * * * * * * * * * * * * * * * * * * * * * * * * * * * * * //

dimensions      [0 0 -2 0 0 0 0];


internalField   nonuniform List<scalar> 
53008
(
3.32007e-06
0.247198
2.22095e-07
-0.00515668
0.080817
0.0297626
0.000248745
3.27822e-06
0.000154536
-6.9366e-06
0.00179677
-3.35707e-05
-0.101518
-0.179953
-8.10218e-06
9.76743e-07
-1.00434e-05
1.00511e-06
-0.0747136
-2.84835e-05
-7.01899e-06
0.000206133
-1.35565e-07
1.16099e-05
-5.74375e-06
0.103756
-0.177531
0.000106681
-0.00651774
0.00635715
-0.263821
0.00885582
-0.00380823
1.092e-05
-1.02584e-07
5.63952e-05
2.51595e-05
1.35427e-09
-0.000217578
1.23652e-05
2.40797e-05
-0.039302
0.00180666
-0.0288357
-3.09429e-05
5.22237e-07
-7.51096e-07
-1.04569e-05
0.00248547
5.20835e-07
4.33223e-07
1.15623e-05
-1.68997e-06
-4.81545e-07
-4.87078e-05
-0.0779783
-2.5854e-05
2.77931e-07
-0.0571408
0.000197592
2.28879e-06
1.59937e-05
0.056551
-0.00473878
-0.00376644
-1.30855e-06
0.00711567
-5.6834e-07
1.11749e-07
1.18134e-06
0.104174
2.84565e-07
-2.24525e-06
0.0021629
0.00149877
-1.7736e-07
5.23217e-08
0.0281888
8.96387e-07
0.101148
0.0292306
-0.102987
0.0017847
0.00436588
3.26641e-06
1.24689e-06
-0.0513257
-3.29923e-05
-1.37875e-06
-0.000172465
0.110462
-0.103013
-0.101226
0.000172508
-0.0688311
0.00196872
0.086419
-7.68253e-07
-0.00445266
0.0608754
-2.80999e-05
1.22022e-05
0.000542962
0.000114113
5.66475e-06
-0.0544
-0.0225086
0.000125545
0.00176697
3.36958e-07
0.019852
-0.688076
5.60681e-08
-0.0691194
0.0469033
1.59418e-06
-1.16559e-05
4.56279e-07
-0.048513
0.10937
0.0868331
-2.01653e-06
1.3386e-05
0.101505
0.0281841
1.68269e-06
0.103301
0.00150605
4.84453e-05
-7.58143e-06
-0.00762563
3.47286e-06
-0.00140118
3.98196e-06
7.19884e-07
-0.024974
-2.48448e-07
-0.102687
-3.72092e-06
-1.46199e-06
1.12698e-06
-1.64767e-06
-4.31662e-05
-0.019627
5.40482e-05
2.26999e-06
-1.21829e-05
4.95931e-08
-2.23957e-06
6.10953e-06
3.60377e-08
0.0551649
0.0711861
0.000776226
-1.17677e-07
-2.44203e-06
0.00688115
0.106791
3.34159e-06
-0.404643
-0.000312345
5.4156e-07
-2.84461e-07
-0.109838
-2.89034e-06
3.368e-09
-1.81634e-06
7.64077e-06
7.12166e-07
-6.9436e-06
1.56877e-06
-0.031377
-0.0654899
7.68785e-07
0.106157
1.1548e-06
1.33147e-06
0.00186111
0.0224808
-0.000134935
1.35178e-05
-3.47546e-06
-0.0353125
-5.85539e-06
5.03651e-05
-0.0150738
0.0362987
-0.0652778
-0.00924021
4.47202e-08
-0.0965981
1.01904e-05
-0.0477889
0.101322
5.01855e-07
-9.78966e-06
1.61411e-06
8.88126e-07
-1.83151e-07
4.04543e-06
-0.000335545
5.44196e-06
5.82753e-06
-3.2918e-06
0.00246452
-0.0174802
-1.10804e-05
-2.92803e-07
-0.000121347
5.75633e-07
-0.0232168
1.14729e-05
0.0142019
8.19888e-07
0.00170859
7.7504e-07
-3.59736e-07
-8.8976e-08
-0.000363322
-2.41247e-06
0.000365314
3.30832e-07
0.00185018
3.0443e-07
1.44469e-06
0.00112176
1.23965e-05
-1.19202e-05
-7.77288e-05
1.10423e-06
-0.0281331
0.0274845
-1.61807e-06
0.0165578
4.91352e-05
-0.0583659
-7.64131e-06
7.49639e-07
-0.0125276
8.41967e-07
3.25044e-06
1.06263e-05
0.00160247
6.24457e-06
8.37646e-06
4.08953e-08
-0.0010308
0.0017152
5.7789e-07
0.000160257
-3.83312e-06
-8.44961e-06
-3.53255e-06
3.72033e-06
6.326e-06
0.0435933
-0.0202759
-1.20926e-06
-0.000339807
-2.29851e-05
-1.43612
-0.0473181
9.10477e-06
1.34505e-06
1.7674e-06
-0.368233
0.0120627
3.78657e-07
0.0309743
0.00179772
-1.9285e-06
4.80302e-06
-6.88585e-06
-0.00703958
-0.0173863
-4.62852e-07
0.00238334
0.0639384
-3.95531e-05
-6.21485e-06
-9.18634e-08
1.06862e-09
-3.3593e-05
-0.000112691
3.76512e-06
2.70392e-05
3.91543e-05
-0.0165385
-0.000229876
-6.17865e-06
-4.19053
0.0130933
-0.000706725
0.0284787
-0.0484017
-1.79058e-07
0.000202483
0.00194744
0.0375538
-9.45986e-06
-0.000701719
-0.0108689
0.055572
-0.0182127
1.16878e-07
0.130147
-7.69785e-06
-1.41585e-06
1.55581e-06
-0.0005066
-0.0301196
0.0102019
-0.26081
-0.0140059
0.00138472
-0.000111383
4.10456e-11
-7.08313e-07
-4.21345e-07
0.000167031
0.00192714
-0.0384425
4.93477e-05
-0.00838964
-3.59692
-2.04763e-06
0.00708736
-1.38576e-05
-8.38938e-08
-7.78309e-06
-0.122057
8.76302e-07
2.97553e-09
7.46091e-06
-2.48816e-07
5.08815e-07
-0.00895055
-1.02079e-07
0.0836372
-4.0158e-06
2.39667e-09
6.72459e-07
-0.000280493
5.27495e-06
-8.44133e-06
-0.449478
0.000115955
0.0269091
-0.0173481
-0.0542065
0.0184512
-0.0025231
-7.28941e-06
-1.60741e-07
-0.00234588
-0.0807135
2.26928e-06
-1.99451e-06
-0.708013
0.00933023
8.88744e-09
4.96427e-05
7.49237e-07
0.0221273
-0.000442364
-0.0727726
-3.00674e-07
7.89458e-05
1.50518e-05
1.06679e-05
0.0295602
-3.73455e-05
-0.0239592
0.00174216
-0.000448942
-1.17587e-05
0.000390127
-0.0495263
-0.360907
-0.115253
-8.30038e-08
1.15788e-05
7.8542e-06
-2.49879e-05
-0.00419554
-8.07161e-07
-7.21397e-06
0.0183092
2.27789e-06
0.0326591
0.053935
1.52824e-08
1.13281e-05
1.25474e-05
1.44799e-05
2.41694e-05
-1.11343e-06
3.97808e-05
7.81286e-05
0.0595253
1.69783e-05
-1.45997e-05
-5.98533e-06
0.0242299
7.04381e-07
-5.46675e-07
-0.000102233
9.52097e-07
5.11682e-06
9.5382e-06
-2.29483e-07
0.00127608
1.02512e-07
-1.03186e-05
5.83103e-06
0.105913
-2.37035e-07
0.0322496
-7.85169e-06
1.75176e-06
-4.38931e-07
-7.23022e-06
-0.000282068
1.87902e-06
-0.000925411
5.40247e-08
-3.58281e-05
-3.12626e-05
0.0118
-3.7891e-07
-0.312092
-0.0447023
-0.891707
7.28476e-07
0.000733021
8.82008e-06
-0.0176225
-9.49295e-05
0.0243085
-8.63828e-05
2.75385e-07
-9.1908e-05
-0.0096996
0.000394644
-1.53198e-06
-0.000270961
0.0333716
-0.615105
4.45121e-06
0.129615
0.0757229
2.36337e-05
0.00701695
1.39724e-05
-7.72913e-06
-0.0012873
-6.51396e-06
-3.68994e-07
3.50676e-07
-3.70712e-07
-0.00156753
0.106732
-3.30049e-07
-3.58147e-05
0.00208019
7.25651e-08
5.60434e-06
-0.0160563
1.65633e-06
-8.31341e-06
-0.000275504
1.47995e-05
0.000101137
-0.0716972
0.0207758
0.00177957
1.47732e-05
5.92178e-06
-1.47443e-05
-0.00736359
0.213203
0.00158773
9.23433e-06
-3.73663e-05
0.000724611
-4.44538e-07
-8.61789e-06
1.23619e-05
0.00130107
-6.70998e-05
1.42627e-05
2.75428e-06
0.0231032
1.39052e-07
-1.61834e-06
0.00162078
2.62775e-08
0.0152054
-6.73209e-05
1.32144e-08
0.000139874
-1.0493e-05
0.0172081
-0.000841211
3.54211e-07
-0.0210896
0.00160778
0.000220656
3.7626e-06
0.000370855
-0.112625
-0.000326848
-4.49082e-07
1.35302e-07
-0.00360306
0.00264831
-1.69158e-05
-5.93344e-06
-1.30145e-06
-0.00980976
-5.44263e-06
0.0121009
-6.77177e-07
-7.59998e-05
-3.46623e-05
-0.0100616
0.000562482
1.60777e-05
-0.0209945
1.07813e-08
0.00788061
-2.28904e-06
-1.72357e-07
0.138716
-3.57767e-06
-1.00191e-05
0.000343113
-2.70856e-05
1.06912e-06
1.83902e-06
-1.03627e-05
0.0101163
-0.000167442
3.37575e-06
0.0297915
-3.07721e-05
0.00046659
8.5525e-07
1.89185e-06
-0.000244572
0.0825677
-0.000709332
-8.51826e-06
-0.0716394
3.27655e-06
1.9506e-07
0.103271
2.43129e-05
-3.58579e-06
4.54188e-06
9.12876e-05
-0.00967088
0.000278722
0.000221229
-3.88921e-05
3.54029e-06
0.000777098
-3.49217e-06
-6.19346e-06
0.000280766
1.96297e-05
-0.1499
0.00192825
-3.65817e-05
-8.89148e-06
8.97526e-07
-1.70471e-05
0.000348509
-0.0017366
-8.35526e-06
2.44938e-05
3.56841e-07
-3.88261e-05
-9.06511e-05
-0.00269356
0.285487
-9.05867e-08
3.08416e-06
-0.000476567
7.99321e-06
-6.99113e-07
1.28643e-06
-0.00104966
-1.16581e-05
0.0326166
-7.52956e-06
-0.0143036
-0.0170467
1.73449e-06
-0.00826678
0.00663934
0.000501302
-3.15771e-07
0.00105761
0.00192675
0.00887496
5.92564e-06
4.11454e-05
-0.111472
-2.48197e-06
-8.29266e-06
-8.44291e-06
0.0109661
8.02204e-07
0.0174097
1.61491e-06
-2.20753e-07
-3.1158e-07
-0.000243288
-1.73153e-06
-0.0844276
-6.91726
-4.95833e-07
-0.00815845
3.63668e-06
4.70549e-08
7.90833e-07
-2.00124e-06
0.000867662
-8.14143e-06
-8.0792e-05
-0.00286689
0.0965661
-0.00137081
1.50736e-10
-7.85502e-05
9.91563e-07
-6.25102e-06
-0.000144
0.0281937
-0.0146546
-0.19514
-0.210793
1.07231e-06
-9.95423e-07
-8.06157e-06
5.81667e-07
0.00137389
1.04235e-06
-1.91662e-07
-1.42926e-06
-2.77921e-07
-3.28075e-05
-2.27961e-05
-1.94184e-06
-0.0209624
-7.70512e-06
7.78091e-08
-1.96022e-07
1.7158e-06
0.00327219
-0.0688141
-6.17094e-05
3.66302e-05
-0.00178766
-0.024119
9.46005e-05
-0.112879
1.06275e-05
2.69768e-07
-0.104569
0.386804
4.62962e-07
-0.0292331
7.79001e-07
1.07496e-05
-2.91029e-07
0.116366
-0.00946947
4.28589e-06
-0.000658435
-4.36108e-06
-5.31206e-06
-0.0232313
-1.40837e-05
3.84674e-06
0.0194315
-2.05196e-06
-2.55214e-05
-3.30444e-06
9.44674e-06
0.000969317
0.0183629
1.19769e-06
-1.92692e-06
-1.2647e-06
0.297594
0.000222157
1.3581e-05
-3.38145e-07
-0.273346
-1.03471e-06
0.000254618
1.09849e-06
-1.27429e-06
-1.00287e-06
-1.01232e-07
-6.62328e-06
-2.3416e-07
-2.08619e-07
-3.8721e-06
0.00216678
9.30523e-07
0.00154422
1.01656e-05
0.0202288
-1.72028e-06
-0.311283
1.22028e-07
-0.0690498
8.60252e-09
-1.40231e-06
-0.333596
0.000162062
0.129565
-8.55158e-05
9.60294e-05
-0.00548177
0.00102487
3.75184e-07
-0.018302
-8.97324e-07
1.16198e-05
-0.127287
4.78977e-06
-0.000877806
-0.00148988
-2.45328e-05
0.00175745
0.00111306
1.86886e-06
0.034484
-2.85318e-07
-2.36178e-06
4.62577e-07
-1.39214e-05
-0.0022206
-1.22925e-06
-2.28739e-05
2.49091e-08
0.168231
-0.000266696
-1.33846e-05
-1.19428e-07
-2.27174e-05
1.41134e-07
0.0240024
-0.00463024
0.00218111
0.00126611
0.0212981
0.00409089
1.57363e-06
0.0170268
3.32573e-06
-1.25297e-07
0.0290214
-0.0646173
7.08894e-08
0.00344959
0.00859996
0.00244196
3.97864e-06
-0.00825418
0.00183805
0.00541922
2.40765e-05
-2.43642e-06
0.098126
-0.162123
-0.222848
7.67048e-06
4.99475e-08
-3.03853e-05
0.0508631
-2.38967e-06
0.075484
0.00285732
6.54568e-06
7.20058e-05
-0.0464551
-0.049322
3.60736e-05
-0.00573821
-6.50957e-06
-0.0051248
0.0790136
1.12852e-06
1.41469
4.33456e-06
-4.53172e-06
-0.0999453
-5.47557e-06
0.00207094
9.37427e-05
-2.20046e-05
1.83761e-06
-0.00310554
-0.106743
-1.04731e-05
1.75048e-06
-0.0157428
1.0744e-07
-0.705715
-2.26197e-05
-0.339961
4.23853e-07
4.0932e-06
0.100115
0.000548055
-0.0570828
-0.031427
0.00025814
-0.0141326
-0.000303779
-7.18763e-06
-0.00959724
-6.35013e-06
-7.3501e-07
-0.0118558
-0.00449644
-1.47168e-05
-5.44358e-07
-2.12528e-06
2.04025e-07
-2.88556e-07
0.00180477
0.056634
-0.0298584
5.5103e-07
-6.82181e-05
-8.56748e-07
0.00137799
1.77616e-07
0.0656464
-0.0179653
0.0334688
0.00871944
-3.08292e-06
-2.12934e-06
0.0601435
-4.43396e-06
7.20008e-06
6.89189e-06
2.17867e-07
6.43009e-05
8.33648e-07
-4.44053e-06
-3.22629e-06
-1.32534e-07
-8.25038e-06
1.66947e-06
7.48245e-07
0.0316972
-0.000539204
1.70099e-06
-1.98573e-06
-0.0164267
0.0991427
-3.50304e-06
0.445423
-0.000164328
0.000544712
-0.00119069
7.45404e-07
-3.81606e-06
-2.53627e-07
-4.28943e-06
2.19689e-06
0.0368916
8.65133e-07
5.45726e-07
8.4058e-07
2.72352e-07
0.0298854
0.000110593
5.37499e-07
-5.9206e-06
-3.39308e-07
-3.82905e-05
8.65333e-07
-0.0256603
-0.00669521
3.2688e-07
-0.0469162
-0.862176
0.00252709
0.000225112
0.0231497
-0.0443394
1.83447e-06
2.1899e-06
-4.32965e-06
-0.000219572
0.00134527
1.32488e-05
0.034811
-0.346031
-2.14071e-06
-1.63566e-06
-8.24819e-06
-0.000489321
7.83326e-06
-9.35983e-08
2.62374e-07
-9.81015e-07
-1.00875e-06
-0.0299183
-0.00659397
-4.8799e-06
0.343352
-0.0242792
3.78531e-08
-3.35862e-06
1.32579e-05
1.40205e-05
-0.0303934
-30.1602
0.0695717
0.000476475
-0.000991826
1.71727
-0.314905
-0.0213627
-6.06128e-06
7.45787e-05
-1.37561e-05
-3.08749e-05
0.0281419
1.09505e-06
0.0268911
-0.000363808
-6.32867e-06
-0.000340935
9.81983e-07
0.0946398
7.23372e-06
-0.00557712
-0.534773
9.60632e-07
0.0229957
1.73464e-07
2.92861e-08
0.0177412
1.13178e-05
-2.81634e-07
-0.0300916
-0.0354974
1.7354e-08
0.00233058
3.23912e-06
-0.00029216
-1.90621e-06
-1.04826e-06
-0.0272247
0.0278683
-0.00342617
4.56758e-07
-4.05321e-06
0.0020778
3.00349e-05
2.22033e-07
-1.80449e-07
-1.64993e-07
6.85287e-07
0.000356456
1.16293e-05
0.0294544
0.000184084
0.000105781
0.136904
-4.86279e-07
-6.08406e-07
1.51312e-05
0.00557222
0.000126417
0.0685678
-0.0280123
-0.000294712
0.00402053
2.89763e-07
4.4826e-07
8.36058e-05
-6.40502e-06
-2.0359e-06
1.96214e-05
-1.39681e-05
0.761321
-5.74311e-06
-2.63953e-05
-0.0340277
1.23253e-05
-0.0178543
-7.25658e-07
5.06748e-07
6.84018e-07
-2.39978e-07
0.000212132
-5.72739e-06
2.90734e-05
0.00580056
-0.000414303
-0.100019
-2.81394e-06
0.00305557
-0.00206387
1.77857e-07
3.20842e-07
0.0030039
-1.56004e-06
-9.38146e-07
-0.0215253
-0.319718
-0.000227721
-9.76301e-05
0.0305172
0.000114967
-0.0172451
1.19898e-05
7.53195e-07
-0.000328916
-4.9641e-07
0.00723023
-0.0316982
-1.56289e-07
-0.000736141
-7.38015e-06
-0.000236849
0.0178234
-1.29921e-07
0.00182401
1.39743
9.91082e-06
-0.310664
0.00865249
-4.14274
-0.000869131
1.85199e-05
0.00899601
-0.0031044
8.13588e-07
8.77334e-07
0.00461842
-0.0450493
-1.04757e-06
-3.00492e-05
0.0642582
0.000940323
-1.61114e-05
-0.107694
-3.09412e-07
3.04972e-05
0.11637
0.0215287
-0.0364368
3.71128e-07
-3.51612e-06
-8.34021e-07
4.07224e-06
2.37228e-06
0.00185308
0.107797
3.02374e-05
0.00156919
7.53628e-08
0.0119832
5.60617e-07
1.67914e-06
2.91625e-05
3.08441e-07
0.0224059
0.0226124
-4.79021e-05
6.5915e-05
2.55813e-06
-0.00264834
-1.0153e-07
5.39606e-07
-9.56399e-06
-2.63373e-07
0.00232928
6.44491e-06
-0.0028187
5.29465e-05
-2.82944e-07
-0.00179422
6.24102e-06
-2.75533e-06
0.00670902
-7.0618e-07
0.000428729
-0.0899384
0.00167295
-2.33349e-07
-0.0261232
4.01958e-05
2.41626e-06
-2.05888e-07
4.89084
-3.75842e-06
0.0205974
1.00217e-07
9.47988e-07
0.124191
-0.000570134
0.0001908
4.85922e-07
-1.24611e-05
0.0222115
-4.8899e-07
6.55974e-07
0.103067
-0.00291725
-9.03855e-05
0.117443
1.15146e-06
0.00264143
9.80619e-05
9.84079e-06
-0.000299118
0.10863
-0.024382
-2.61223e-05
-6.29958e-08
-0.029772
-2.16562e-06
-0.0154361
-0.0604769
7.2229e-07
0.0620698
0.0203601
0.000133917
-0.0323235
7.13337e-07
-3.63659e-08
-3.31967e-07
-0.000144489
-0.0709868
-0.00362011
-3.36902e-06
0.011587
-6.84142e-06
-2.0051e-06
-0.00502512
-4.53366e-07
-4.29078e-07
-1.98644e-07
-0.000360334
2.58623e-06
-4.90561e-06
0.0223139
-0.0626081
-0.000469265
1.19147e-06
2.44615e-08
-0.0737781
-0.00168127
0.000735202
6.14906e-07
2.23572e-05
-6.25399e-05
0.0108056
-2.00266e-07
0.0262678
-0.0989799
4.40719e-07
9.3976e-09
-6.27113e-06
0.000382662
-0.0500843
1.08531e-07
-2.02487e-05
1.91168e-05
4.45819e-08
3.37153e-07
0.115312
0.128899
0.0861827
-7.50322e-07
0.000349396
0.00216409
-0.0520247
-0.000474047
0.00229408
-8.0275e-06
-0.086401
3.52214e-05
-0.0002675
0.031341
-8.51865e-06
-2.34761e-07
-1.05541e-05
7.89615e-08
-0.0179991
-2.57019e-07
0.00112707
0.00361065
-1.03923e-06
1.5821e-06
0.0412037
6.10292e-07
-1.35564e-07
0.000510217
-3.70216e-06
-5.78238e-05
-5.6506e-05
-3.25331e-07
8.99256e-07
-0.000460519
-1.57826e-07
8.53522e-07
-0.0202293
-1.1422e-05
-1.90899e-06
4.72315e-06
-8.26057e-06
2.21422e-07
2.958e-07
0.114143
-6.69098e-07
-0.000408433
-0.000652909
8.38645e-07
3.70698e-10
-4.60603e-05
1.46722e-05
-3.0958e-07
-0.00107841
-0.0138967
-8.3336e-06
-4.70276e-06
-1.57765e-07
-1.9966e-05
4.69754e-06
-0.0749403
-0.0125874
8.07201e-07
-8.06718e-06
0.0245476
9.80672e-06
-0.0834618
-1.54385e-05
-0.0293224
-6.27253e-06
0.000118947
-0.119661
0.035683
2.04093e-07
-2.55701e-05
3.85346e-07
-6.15122e-06
0.150129
-0.00316373
0.0205785
2.86388e-05
-1.2387e-05
-9.34853e-06
4.14772e-06
-0.00948914
-0.0208984
-4.00829e-07
0.0209842
-5.72429e-06
2.21257e-07
-9.89782e-08
-2.85661e-07
-2.53802e-05
1.92586e-05
-0.112738
-7.24397e-07
-0.000943535
0.125083
9.71038e-05
-7.33965e-07
-0.0718964
0.0291866
-2.85057e-07
-0.00150545
0.104072
-3.28749e-07
-0.00421823
-9.80158e-06
-0.000825856
9.69153e-05
0.546313
3.46562e-06
-0.0978678
-0.00135109
-1.46728e-07
-2.05213e-06
-1.61346e-06
-2.71789e-05
-0.00259538
0.0320342
2.16127e-07
3.75422e-08
1.56639e-06
0.0285741
4.30778e-06
4.46583e-06
1.81133e-08
0.00216336
-0.0668937
-0.00304252
0.0858424
0.070519
-3.26689e-06
-0.00105493
-5.26522e-07
3.44049e-05
1.02371e-06
0.00493802
1.38354e-08
-0.0129941
-1.20633e-05
-6.63857e-06
-0.103072
-3.42569e-06
-0.0003303
-0.114148
-0.000142055
-2.45865e-07
-1.25405e-07
-3.61684e-07
-0.0655089
0.000212916
0.000206496
-1.15117e-05
6.30247e-05
-0.0487336
0.00180662
1.39731e-08
-0.0128282
2.54641e-05
4.06298e-06
-0.0655286
3.48713e-08
0.0659718
-5.00503e-07
0.0877679
1.34008e-05
1.13869e-06
-0.0827074
-7.15301e-05
3.72009e-06
-3.92609e-08
-0.0203518
-0.0157907
0.000177686
-0.000183319
0.000161255
-0.0123673
0.0254096
-0.107038
0.0275296
-4.27562e-06
3.05951e-07
0.000108573
-0.00249541
-6.11612e-06
-9.74773e-08
7.3151e-06
-1.78618e-07
-2.0128e-07
-0.00803963
2.53935e-05
0.00223718
2.58942e-06
-0.000499644
-3.53506e-07
-0.00608294
-0.0157651
2.49814e-06
0.00172918
2.06055e-08
-0.00702979
-1.9458e-06
0.142415
-0.000136559
0.101887
-3.07779e-07
7.91897e-07
-0.301742
-0.0011194
-1.26271e-08
-0.00773429
3.80092e-06
-9.19707e-08
2.53915e-07
-8.89684e-06
-6.84013
-0.000377857
-1.66986e-06
-2.39098e-05
0.0234991
-7.18375e-07
0.00021989
5.72227e-08
-0.00628332
-7.19767e-08
-7.14815e-08
1.86746e-05
5.13624e-05
-1.15638e-05
0.0020451
3.83505e-06
2.99296e-05
-0.000280012
0.00208356
1.79593e-06
0.0526757
1.49178e-06
-0.116216
0.0708337
-0.0369075
9.92068e-07
-0.652031
1.02097e-05
5.69497e-07
-5.27081e-08
4.38242e-07
0.0643411
1.05872e-08
0.00213244
-7.91698e-05
0.123906
-5.83679e-08
5.76789e-08
7.78082e-07
0.115864
-5.2693e-07
-0.0124851
0.468915
-3.69964e-06
0.0707772
0.00196294
5.25845e-06
0.0191412
-1.82747e-07
-0.000136397
-3.80252e-06
2.62626e-05
1.09411e-05
0.00072005
-0.000307813
-1.32014e-07
0.0563425
-2.20797e-07
-8.65097e-08
-6.23604e-06
1.08588e-07
1.2633e-06
-5.13858e-06
-1.71956e-06
0.102605
-2.18886e-05
0.00266728
-7.00705e-06
-4.4739e-06
0.00149172
-1.8409e-05
3.27485e-05
4.92548e-07
-3.46968e-06
0.00434612
6.11562
-8.46005e-06
0.0422323
-2.77364e-07
0.117734
0.00706365
1.42758e-06
-1.57133e-07
9.68308e-05
-1.55127e-05
-7.42213e-06
-0.0155793
-3.1147e-07
-3.74834e-06
-0.330573
8.67216e-05
6.20327e-07
-0.000332182
-3.41459e-08
4.79656e-05
-4.58396e-06
0.00135851
-2.85687e-06
8.95986e-06
-2.60732e-06
-0.000146397
-3.73423e-06
0.00650966
0.00903467
-9.97874e-07
3.74185e-07
0.0361572
0.0258949
-2.05295e-07
-5.58184e-06
0.000172654
-0.00532526
5.54647e-08
3.23889e-05
-0.0417681
-1.74206e-07
8.56777e-06
-0.000159269
1.33928e-09
-8.52996e-06
-0.00623485
0.00551739
1.14547e-06
1.00702e-06
-1.38627e-05
4.52286e-07
0.0294376
0.0199586
-0.0755425
2.29018e-06
-0.00566843
-0.0815588
-3.75504e-06
-0.0628387
0.0010902
-2.6002e-07
-4.13079e-06
3.63154e-05
-3.5379e-07
-7.48737e-06
-0.00150643
-3.68161e-05
6.54618e-06
-2.47319e-05
-0.000746311
0.00307062
-0.00544542
0.104817
3.9309e-07
-3.38102e-05
-0.078364
0.00154024
3.23023e-05
0.00191812
0.000157028
3.91878e-06
0.00221469
-2.07255e-05
-2.79733e-06
2.25903e-05
1.64749e-06
0.0037387
1.71566e-08
-1.01531e-07
-3.56144e-08
-2.38493e-05
0.105054
-0.00207049
0.00288035
-0.0119081
-4.42154e-05
0.595324
2.67526e-06
-1.71924e-07
2.48131e-06
3.95506e-05
-1.06196e-05
0.00873729
0.00298387
-5.52289e-07
0.000618719
-0.241182
0.00166991
2.24276e-06
9.37932e-06
-0.0047437
1.74085e-06
6.92506e-08
-0.0311548
8.16363e-06
-1.1322e-07
2.30069e-05
-4.59123e-06
2.43888e-05
5.88984e-06
-0.00105408
-3.09029e-07
12.9449
-0.183236
0.0003126
2.63151e-06
-0.00280977
0.00159323
-3.46007e-07
4.63789e-08
1.63377e-06
-3.09652e-07
-5.38999e-06
1.69225e-06
-1.08435e-07
-0.00587658
0.000983664
-2.43382e-06
1.49743e-06
1.89109e-06
-0.0129204
0.0241099
7.77833e-07
0.00226667
1.50574e-06
-0.00340683
-2.6322e-07
-7.13286e-06
8.37766e-07
1.64539e-06
1.30271e-05
-2.00809e-07
6.95624e-06
-0.0280366
-0.00377105
-0.000433603
-2.15119e-06
1.09795e-06
-0.0198953
0.000199859
0.0982313
-0.128528
-0.00069022
-3.71166e-06
-6.80741e-05
1.9449e-05
-2.51562e-05
0.0619445
0.249564
5.16683e-07
-1.72133e-06
-0.0205342
0.00221802
-3.61279e-07
-6.35936e-05
-0.0607704
-1.47593e-06
-5.4385e-06
0.0289117
-1.14195e-07
0.00231617
0.00246529
1.58031e-06
-0.0573252
4.57456e-07
0.00016498
-0.00165588
0.000231122
1.75461e-06
0.0364154
0.00181108
1.65823e-06
-1.4304e-06
0.00044831
1.17539e-05
0.0224016
0.0344804
1.56668
0.0584421
4.29538e-07
-3.72594e-06
-0.0012043
0.00741149
-0.0130678
-0.0791946
0.0108561
8.38801e-05
-2.18689e-06
-3.83454e-07
-4.71358e-07
0.000155338
1.13421e-06
-0.0668931
-0.000434457
0.0978462
-2.12795e-06
-3.85634e-06
2.28061e-06
0.991269
-2.63057e-05
1.95203e-05
-8.04925e-07
0.0673534
-7.82277e-06
0.0461011
0.0118345
0.0989202
-0.0280045
0.000137255
-5.74227e-06
-0.0283636
-3.87731e-06
-0.00172893
0.000382194
-4.98586e-07
-0.0476015
0.0011686
0.000357932
-2.08526e-06
-1.04088e-06
1.63237e-07
-0.0360382
0.0337218
-8.04143e-07
1.81327e-06
-0.0962388
-4.024e-06
0.0120885
0.00184161
-0.000197842
-1.35583e-06
-2.11751e-07
0.00140332
0.00104079
0.000276008
-1.63393e-08
-2.83105e-06
0.00030848
9.12667e-07
-0.000101747
-0.00103481
9.07583e-07
-0.000248908
6.66324e-06
7.20288e-07
-5.62011e-09
-0.017224
4.98495e-05
1.12748e-05
0.00096528
0.000185568
-0.0509692
-9.76315e-07
0.000177588
-2.5117e-06
-0.0624135
3.75383e-07
-0.000230613
-7.7699e-06
1.04696e-07
-2.3215e-05
-4.25727e-06
-2.43225e-05
-4.21871e-06
5.39892e-07
9.56106e-06
-5.87241e-06
-0.000316897
-0.110964
-0.000163297
0.0299804
-0.0881029
-9.51145e-06
0.00329026
3.34917e-06
8.84979e-08
-0.000144537
-0.0107561
0.00138586
-0.000145978
-0.0245641
-0.0046976
0.00673927
-3.9009e-06
2.7469e-07
1.85423e-05
0.0221738
0.00157168
-0.000682929
-3.30498e-06
-6.36246e-06
-5.24222e-07
-8.10144e-06
0.00167452
0.00184877
0.00168991
-0.195808
6.66747e-07
1.75209e-06
6.86105e-08
8.72698e-06
0.0015491
-0.0943852
-1.88588e-06
8.79554e-05
-2.12758e-06
1.40703e-06
-0.00272761
0.000276533
-0.00265611
0.000684393
-0.0917049
-2.16109e-06
9.94632e-06
0.00129114
0.0018189
-0.0187953
-0.0687498
0.00133376
-6.29636e-07
-1.04123e-05
-0.0145966
4.10677e-07
0.0359782
1.61357e-05
-3.48674e-07
0.000415464
-3.7084e-07
1.78176e-06
0.0623818
-9.21238e-08
-0.0309759
-8.83063e-05
0.000176088
-8.88929e-05
-0.235677
-6.08795e-05
-3.00948e-07
-0.0296368
-0.0643618
-6.31713e-06
-1.04451e-07
8.47853e-07
5.22485e-06
5.44567e-05
-0.570534
1.75785e-06
0.00980327
-6.81565e-07
-5.82077e-07
0.863246
2.26714e-05
-8.53164e-06
3.71087e-08
-0.0477669
0.000335204
-6.09084e-07
-2.37832e-06
-8.09422e-06
-0.000196201
-0.0210665
1.71307e-06
-1.60429e-06
1.3822e-06
-1.0464e-07
7.92148e-06
-0.000330628
-7.49183e-06
-0.0518482
2.47959e-05
0.000154343
-0.000137247
5.62675e-07
-0.0639706
3.0438e-05
-0.102859
0.00251102
-7.46087e-06
-3.11056e-07
-5.06962e-06
1.02304e-05
-0.00539942
1.8151e-05
-2.32377e-05
-0.114434
-6.5904e-06
-0.000476943
-7.70754e-07
-2.69226e-07
-5.87126e-06
1.65127e-06
0.00519696
0.0310465
-5.00687e-08
2.18589e-06
-7.55845e-06
-0.0179673
-6.98187e-05
-2.12824e-06
-1.52509e-06
8.34572e-07
6.93545e-06
0.00259583
-3.91064e-06
-4.64364e-06
5.49637e-07
0.0199958
-0.115773
-1.05194e-06
-0.00101909
0.0128798
0.000140633
-1.26994e-06
5.55039e-07
-2.595e-05
1.13229e-06
-9.70792e-07
-9.74039e-06
-0.0460716
0.00113309
-0.0129163
-0.0638367
-0.0237931
-3.98192e-06
-7.97684e-06
-2.12205e-06
-27.1475
7.84783e-05
-8.55584e-06
-1.12725e-08
0.0155395
0.000819602
0.00264336
0.00163557
-5.01498e-07
-0.0166402
-5.66097e-06
-0.0765509
-2.42859e-06
-1.09124e-10
-0.813334
0.000292899
-6.25129e-06
0.0034597
0.00769935
-0.419694
2.11999e-07
-1.54533e-06
0.210711
-3.8855e-06
9.73414e-07
-8.1115e-07
-4.11568e-07
-0.00350398
-3.14637e-07
-7.54767e-07
-0.0313363
-0.023329
4.18209e-07
2.91815e-06
-1.76391e-06
1.99172e-06
0.0326042
-0.112098
-0.10649
0.000639268
0.0185988
-0.0692789
6.63316e-07
0.0290345
0.0251846
-0.0711173
0.0248912
-3.9783e-06
-3.11418e-06
-3.44806e-07
1.04916e-07
-5.30398e-06
1.43897e-07
1.62469e-06
0.126256
6.71344e-06
-2.16892e-06
-0.000126469
-0.0779217
1.55201e-05
-0.00120231
-0.0235018
0.100134
1.89339e-05
7.65749e-07
-0.000355164
-0.419714
-4.93538e-06
2.31537e-07
-4.03887e-06
-0.0208934
0.0309996
-6.4563e-05
3.33599e-07
0.135517
-4.5009e-07
0.000619861
-3.21259e-07
-0.0786065
-1.0419e-06
9.09833e-07
0.00331868
-1.2804e-05
0.0181279
9.37523e-07
-1.36953e-05
-3.99189e-06
-0.0063833
2.62377e-06
-0.000413134
-0.130301
5.79995e-08
-2.16701e-07
0.045843
0.295679
0.000122125
0.000224312
-7.62154e-08
0.0846337
3.49103e-07
8.0424e-07
-8.68627e-06
9.0634e-07
1.65309e-05
-1.16503e-05
8.7132e-06
-8.08096e-06
1.37133e-06
0.0217813
1.16057e-07
-2.15028e-05
8.3513e-07
1.13885e-05
1.27143e-06
-6.0716e-07
0.000691426
-1.78407e-06
1.36904e-06
0.00175696
-3.89973e-06
-0.325834
-0.00981992
1.58564e-06
-6.16445e-06
-0.00384937
-0.000445745
0.0174932
2.19301e-06
0.000424756
1.78221e-05
8.65694e-08
-0.0371327
1.78546e-06
-0.0145293
-2.72371e-05
0.000101535
1.16685e-05
0.10172
-4.76388e-06
3.97355e-08
0.00251788
-7.74305e-07
-2.09122e-06
7.6975e-07
-0.0193848
0.122574
-0.0375043
0.104527
7.76834e-05
7.82368e-06
3.99453e-06
9.56817e-07
2.91017e-07
-1.88474e-07
0.00326855
-2.04141e-06
-5.30276e-06
5.49434e-07
0.0884513
-0.052625
-4.64933e-06
1.41589e-06
-0.00186316
-0.0536287
4.7647e-07
-1.58273e-06
0.0251332
5.8381e-07
1.90513e-05
-0.239333
1.75093e-06
4.42903e-09
0.003093
-0.0151545
6.54161e-08
4.51577e-05
1.7306e-06
1.96492e-07
-1.15946e-05
1.70386e-05
0.078295
7.95633e-05
-1.56695e-06
1.06859e-08
0.00106634
-0.0162097
-4.08717e-06
2.67683e-08
0.0271002
-3.96328e-07
-0.00109726
1.53361e-05
-5.08846e-07
-4.41029e-06
0.0358932
-4.58552e-07
-7.96242e-06
-6.84777e-06
2.37545e-07
8.52537e-07
0.0299062
1.0491e-07
0.00230352
0.0455693
-8.63955e-07
-0.107109
0.09505
-1.3293e-08
3.49665e-05
5.46165e-08
7.72963e-05
-0.0854123
8.43364e-05
-7.01614e-08
6.99426e-06
0.0326341
-1.57473e-06
0.0526564
-9.65347e-06
-4.42809e-06
0.00097331
-3.81092e-07
-6.98299e-07
1.77579e-05
-0.0941083
0.000135995
0.0155955
-7.66943e-08
0.0335778
0.000783762
-1.08919e-06
0.0277431
-0.000157627
-6.46273e-05
1.78615e-06
1.09091e-06
-3.53958e-06
-2.24736e-05
-0.0174192
0.00339278
1.21181e-07
-6.81251e-07
-1.25752e-05
-0.386496
0.00257833
0.0624655
-1.07453e-06
8.3845e-06
-0.0185368
5.95378e-07
-0.521853
-1.79051e-06
-2.60099e-07
0.0346163
-1.98097e-07
-0.000127264
-2.2871e-07
-4.53362e-06
6.4009e-05
-4.69105e-07
-3.21253e-07
-1.14679e-06
-2.17232e-07
-0.0802192
0.0285169
0.0280109
-0.00585756
-2.36974e-06
7.28195e-06
0.00172185
-3.15932e-06
0.630865
-0.0060839
4.32864e-06
-4.31989e-07
1.6697e-08
6.29292e-05
-0.194102
-0.00027779
-3.00123e-06
-1.28833e-07
-0.107583
-0.0875195
1.85989e-06
0.000121245
0.00219688
0.00104564
0.00254348
1.69849e-08
0.0154563
0.0804102
-1.09367e-06
1.41789e-07
1.16541
-0.292467
-0.000678512
0.0433505
1.68694e-05
-1.65981e-05
5.68933e-08
0.482679
-0.00191511
6.03688e-06
0.000294619
-0.126353
-3.05415e-06
-1.68508e-07
-6.80858e-06
0.00340186
-1.38122e-06
-0.00306995
0.000395781
0.0459376
1.09406e-06
-3.2063e-07
-0.000468269
-2.32113e-07
0.00179155
-0.000439103
-0.0442536
0.585142
0.01039
-5.20151e-05
3.41889e-07
1.29816e-06
-5.03829e-06
-0.0202639
-0.000257941
0.0176876
0.74975
-3.23809e-06
-7.85937e-06
-0.00150169
-1.70124e-07
-0.0155214
1.35809e-06
-1.86952e-07
0.0732241
2.84724e-10
-1.13435e-05
-6.09414e-07
8.47111e-05
-5.99888e-06
5.7018e-09
0.0611967
0.00171284
-0.000918852
-0.0356154
-0.0434854
0.0198495
-5.74501e-08
0.0755269
0.0327408
-0.0373691
-1.87481e-07
-4.45824e-07
-4.68272e-06
-0.000176445
0.0658084
-0.000191531
1.18491e-06
-9.01784e-07
0.000831123
-0.0352993
4.61233e-08
-7.274e-07
-7.95674e-06
1.00011e-06
-4.90514e-06
0.00695791
7.46605e-08
-0.00197476
0.247214
0.000384288
0.118117
0.000354242
-2.25826e-07
3.32093e-07
1.44935e-06
-4.59478e-06
0.0107028
1.51234e-05
2.96914e-05
-0.000140836
-0.0627913
-3.87691e-07
8.24123e-07
-0.000700835
0.108876
7.19655e-06
-0.0105433
0.00044807
-4.39327e-06
4.32405e-07
0.000137312
-0.107019
0.000114438
4.61974e-07
-8.5905e-07
0.0101172
-0.00109083
-9.13882e-06
-6.93092e-07
0.0197308
0.0161127
-6.47866e-05
5.84534e-08
-3.52663e-05
-0.00288709
1.85158e-07
4.47603
-0.0839587
0.00350731
5.48772e-06
-2.56143e-06
8.50512e-07
0.000379675
-5.3483e-06
-9.22826e-07
0.000155744
1.1006e-07
0.00577993
0.589815
0.0144144
0.0882413
-7.81105e-07
7.02153e-07
0.0262146
2.14987e-06
0.0064261
-0.74759
-6.16606e-07
2.46291e-08
-4.75276e-07
-0.00382872
0.104074
-6.54499e-05
0.0198875
-4.78201e-07
6.43915e-07
0.002077
-2.53244e-07
-0.000113112
1.62513e-06
1.48032e-05
-0.000473718
2.00436e-05
9.3972e-06
0.656255
4.17394e-07
2.46697e-05
-0.0161657
-0.000424167
-0.0173949
-3.24144e-07
2.88218e-07
9.62603e-06
-5.75558e-07
-3.53508e-06
-5.10705e-06
-1.91608e-06
-1.21584e-05
0.0602072
-2.84645e-07
0.0178975
-0.00076745
5.4479e-07
0.0108972
-0.000756507
-0.0530298
-0.000903883
-2.57509e-07
-0.00720994
1.1681e-07
4.12035e-05
1.06309e-06
1.76788e-06
6.23868e-07
-8.60617e-06
-0.0016097
-0.0305105
-2.32858e-07
7.66961e-11
-0.00539862
-6.44487e-05
0.050334
-6.54548e-06
-1.22032e-07
-3.61976e-06
4.82602e-07
0.0586153
6.31662e-06
-0.00520195
7.33426e-06
-4.2112e-06
0.121381
8.93841e-05
8.52829e-07
-0.0156716
1.03971e-05
0.000619735
0.00865507
-0.000422095
-0.011561
0.0848099
9.01524e-06
-0.0816814
7.66572e-06
-3.99329e-05
1.72739e-05
-5.16183e-06
-5.30005e-06
-0.0997547
0.000138905
0.0615943
-5.40303e-06
-1.80476e-06
1.13729e-07
0.00247739
-5.93662e-06
-0.638119
-4.38054e-06
-0.00012296
6.78568e-07
4.58369e-07
-6.48973e-07
0.0090076
7.18032e-05
-7.4317e-06
-2.04643e-07
0.000436701
-7.10271e-07
0.0728668
-2.98767e-08
2.39624e-07
-2.98528e-07
-0.0530937
0.00249705
0.0810735
2.14712e-08
-1.24766e-06
-4.5071e-06
2.26044e-08
7.73608e-07
-0.000121411
0.000754838
3.00739e-08
-2.33513e-06
0.00825025
-4.01272e-06
-0.089907
-2.57109e-07
2.96084e-08
0.0152159
-3.09989e-05
-1.35708e-05
0.237913
1.2897e-06
1.32884e-05
0.0414185
-2.268e-07
1.15577e-09
1.83803e-06
-5.92193e-06