/*--------------------------------*- C++ -*----------------------------------*\
| =========                 |                                                 |
| \\      /  F ield         | OpenFOAM: The Open Source CFD Toolbox           |
|  \\    /   O peration     | Version:  v2012                                 |
|   \\  /    A nd           | Website:  www.openfoam.com                      |
|    \\/     M anipulation  |                                                 |
\*---------------------------------------------------------------------------*/
FoamFile
{
    version     2.0;
    format      ascii;
    class       volVectorField;
    location    "200";
    object      ddt0(U);
}
// * * * * * * * * * * * * * * * * * * * * * * * * * * * * * * * * * * * * * //

dimensions      [0 1 -2 0 0 0 0];


internalField   nonuniform List<vector> 
53008
(
(0.000571563 4.87811e-05 -1.21437e-21)
(-0.00225759 -0.00891247 6.2418e-22)
(0.000228719 -0.000120369 4.14943e-22)
(0.00163513 0.000711621 6.71447e-22)
(0.00122875 0.00139686 8.68991e-22)
(-0.00883813 -0.00260036 -3.99954e-22)
(0.000516817 3.47404e-05 2.49991e-22)
(0.000565465 6.24827e-05 1.34526e-21)
(0.000584018 -0.000249941 2.08495e-22)
(0.000195648 -6.52977e-05 8.24246e-23)
(-0.00112855 0.00512395 3.08116e-22)
(0.000882843 4.72148e-05 -7.07516e-22)
(0.0181613 -0.00432205 -3.2945e-22)
(0.0212812 0.0149716 3.1167e-22)
(0.000179787 -9.27311e-05 0)
(0.000100445 -1.07784e-05 1.14295e-21)
(0.000266466 0.000559677 -9.82929e-22)
(0.000102937 -1.24614e-05 -1.89079e-21)
(-0.00803914 -0.007366 0)
(-1.21632e-05 0.000725646 1.12211e-21)
(0.000274234 0.000395729 8.59517e-22)
(0.000575525 -0.000735542 1.16587e-22)
(5.34427e-05 3.17032e-05 4.08552e-22)
(0.000521981 1.30003e-05 0)
(0.000260493 0.000313792 -7.84677e-22)
(0.00256284 0.000512287 -4.34126e-22)
(0.0203457 0.0144259 0)
(0.00111828 -2.00726e-05 -1.43795e-22)
(0.000117313 0.0149753 -9.49312e-22)
(0.00664455 0.0108371 -3.11036e-21)
(-0.0043522 -0.0146508 -7.45702e-22)
(0.00634282 -0.00893171 0)
(-0.0108183 0.00282576 0)
(0.000274553 -4.24777e-05 1.02131e-21)
(3.70938e-05 6.81073e-06 5.95874e-22)
(0.00050931 -0.00036749 2.98944e-22)
(0.000348949 -0.000111193 -8.16598e-22)
(1.05793e-06 -4.87863e-06 6.49789e-23)
(0.000386379 7.63944e-05 -3.38618e-22)
(0.000304835 -7.7671e-05 0)
(0.00034555 -0.000105213 7.51671e-22)
(-0.00128733 0.00484237 -2.04393e-21)
(-0.00176606 0.0049381 -1.14756e-21)
(-0.0051104 -0.00668727 0)
(-1.84592e-05 0.000737477 -5.8185e-22)
(0.000129447 2.94478e-05 -7.84532e-22)
(6.72325e-05 0.000195922 -1.56166e-21)
(1.7914e-05 0.000504361 7.80653e-22)
(0.00530098 0.00623101 1.01445e-21)
(6.08514e-05 -7.96947e-05 2.08218e-22)
(1.90333e-06 7.43037e-06 0)
(0.000182064 -0.000396316 2.30889e-22)
(0.00046302 0.000281433 -1.74359e-21)
(5.25185e-05 1.88213e-05 3.34833e-22)
(-0.0010013 0.00121353 0)
(-0.00773428 -0.00753276 2.27884e-22)
(8.97067e-06 0.00071532 0)
(4.54285e-05 -4.68341e-06 -4.27898e-22)
(-0.0141408 0.00564498 -2.10228e-22)
(1.67145e-05 0.00188618 -1.63917e-21)
(0.000261048 -4.05273e-05 -1.20426e-21)
(0.00043021 -0.000195146 9.50023e-22)
(0.00514317 0.00242858 4.36792e-22)
(0.0255722 -0.00147936 -1.36108e-21)
(0.0017665 -0.000218681 2.94477e-22)
(0.000117822 -0.000239539 -3.62636e-22)
(0.00658584 0.0104953 3.75698e-21)
(6.65317e-05 0.000189862 6.4132e-22)
(4.53359e-05 7.09854e-06 -8.49178e-22)
(0.000134456 -1.76175e-05 -6.85091e-22)
(0.00399101 -0.000903435 7.3547e-22)
(3.72185e-05 6.91185e-07 7.15823e-22)
(5.19852e-05 -0.00034173 0)
(-0.0100873 0.00220325 0)
(0.00260575 0.000380163 1.2071e-22)
(3.88613e-05 6.7068e-07 0)
(9.68969e-08 -4.27422e-05 0)
(-0.00846574 -0.00285777 -7.3355e-22)
(8.59735e-05 -4.53586e-06 0)
(0.00302888 -0.000688534 0)
(-0.00919527 -0.00252251 3.03712e-22)
(0.0107189 -0.00659286 0)
(-0.00701399 0.00231927 -4.35482e-22)
(0.00184262 0.000358768 5.63676e-22)
(0.000439887 -0.000204808 -7.90999e-22)
(0.000137984 -2.00086e-05 -6.82635e-22)
(0.0010149 -0.00101968 6.96387e-22)
(0.00057512 -0.000251071 0)
(0.000119939 -0.000236283 7.78573e-22)
(-0.0005507 0.000992205 1.19457e-21)
(0.00321477 -0.000232589 -1.92029e-22)
(0.0034646 -0.00569171 -4.41505e-22)
(0.010959 -0.00625698 0)
(0.00292669 -0.000723427 8.12207e-22)
(-0.0122922 -0.00897039 -7.70027e-22)
(-0.00424208 0.00450381 -1.78489e-21)
(0.0165354 0.00893038 7.67919e-23)
(0.000224479 -0.000118693 -3.7942e-22)
(-0.00388062 -0.00339283 -7.13295e-23)
(0.00567004 0.00218151 -3.01134e-22)
(1.62393e-06 0.000727762 0)
(0.000301764 -7.54902e-05 -5.55914e-22)
(0.00509419 0.000397311 1.37735e-23)
(0.00111292 1.23945e-05 1.27694e-22)
(0.000597348 6.96695e-05 0)
(0.00407285 0.00248883 -5.29883e-24)
(0.00558962 0.00292837 -1.53862e-22)
(0.000496118 -0.000366696 5.2935e-22)
(0.00109937 0.00502924 -8.33712e-22)
(3.67029e-05 -8.988e-07 -7.99601e-22)
(0.000628921 0.00123441 -1.42951e-22)
(0.00973092 -0.000167143 0)
(2.23648e-08 -3.91872e-05 0)
(-0.0112745 -0.00891209 -7.49904e-22)
(0.0206213 0.00977089 0)
(2.29258e-05 4.11506e-06 1.05639e-21)
(0.000180933 0.000577482 -1.04807e-21)
(6.25294e-05 1.1064e-05 -7.36371e-22)
(-0.00114223 -0.0147618 0)
(0.00290277 -0.000127948 -1.48825e-21)
(0.00136897 0.00121581 7.09957e-22)
(5.19476e-05 -0.000346285 8.17856e-23)
(0.000279825 -2.41953e-05 6.53188e-22)
(0.00169347 -0.00286263 -8.91395e-22)
(-0.00929696 -0.00268595 -7.51998e-22)
(5.37713e-05 -0.000267133 2.77431e-22)
(0.00242794 -0.000462501 7.3615e-22)
(0.00392033 0.00929583 -4.45093e-21)
(0.00014444 0.00144214 1.41196e-21)
(0.000151298 -0.000182148 -5.28709e-22)
(0.00624011 -0.00950231 0)
(0.000188403 6.94123e-05 -3.32297e-22)
(0.00185417 0.000308674 -7.74671e-22)
(0.000392665 -9.08784e-05 3.51365e-22)
(6.32993e-05 -1.38554e-05 -4.74035e-22)
(-0.0136816 0.00581577 1.20494e-22)
(1.44646e-05 -0.000191239 1.59848e-22)
(0.0180513 -0.00450628 0)
(0.000164334 1.91953e-05 -4.99415e-22)
(0.000137639 8.46196e-05 7.86528e-22)
(9.6427e-05 -2.42914e-05 0)
(0.000135797 7.63454e-05 0)
(0.000438065 -0.000187382 5.41472e-22)
(-0.0120652 0.00936535 -1.85648e-22)
(0.00013245 0.00148143 -1.0264e-21)
(0.000262341 -7.60337e-05 -6.5236e-22)
(0.000169382 0.000573282 1.33572e-21)
(4.33622e-05 2.06881e-05 -3.58965e-22)
(-1.60143e-05 0.000163783 7.26904e-22)
(0.0002627 -5.78963e-05 4.83509e-22)
(2.39504e-05 -0.000132574 -2.70158e-22)
(0.00497653 0.00226097 0)
(0.000806911 0.00142458 -9.48349e-22)
(0.000595848 -0.000737944 2.91332e-22)
(7.91167e-05 -5.22373e-05 0)
(0.000451871 0.000273594 5.89237e-22)
(0.0168723 0.0150207 -2.98864e-22)
(-0.00658189 0.0028546 -1.21312e-21)
(0.000330108 -6.10242e-05 1.29174e-21)
(-0.00153277 0.0021345 0)
(0.000413948 -0.000928198 7.19877e-22)
(5.83299e-05 -7.45648e-05 5.98925e-22)
(8.48221e-05 -5.30687e-05 7.76543e-22)
(0.00307166 -0.00592845 3.86841e-22)
(0.000348633 0.000109358 -8.01279e-22)
(1.92035e-07 -4.43511e-06 -2.35823e-24)
(0.000123701 -0.000135131 0)
(0.000445633 -0.000183987 -1.20066e-21)
(5.54128e-05 -5.68209e-05 0)
(8.97023e-05 -0.000211293 -1.69741e-22)
(0.000490757 -0.000203277 9.69046e-22)
(0.0144347 0.000282445 8.25237e-23)
(-0.0101745 -0.00814598 1.62261e-22)
(8.3937e-05 -0.00014634 0)
(0.00178783 -0.00275301 9.62705e-22)
(0.000113182 -2.27151e-05 8.57929e-22)
(0.000438518 -0.000207069 0)
(-0.00406538 0.00430608 5.0671e-22)
(0.000986239 -0.00100638 -4.51913e-22)
(0.000651951 -0.000207885 3.57084e-22)
(0.000278759 -2.25978e-05 -5.57194e-22)
(0.000341314 0.000112617 6.92213e-22)
(-0.0049757 -0.00689541 2.08787e-21)
(0.000202636 -4.8513e-05 -1.06596e-21)
(0.000854645 4.58863e-05 0)
(0.0253947 -0.00165929 0)
(0.00325918 0.00203218 -3.58627e-23)
(-0.00995147 -0.00805395 -6.18796e-22)
(0.00377224 0.00314822 0)
(4.41327e-05 2.02474e-05 0)
(0.00994754 -0.000578661 -1.53965e-22)
(0.000253021 -3.50805e-06 0)
(0.00133904 -0.000843121 -1.94234e-22)
(0.00226063 9.16978e-06 2.0059e-21)
(9.75105e-05 -0.000263652 0)
(-8.29569e-05 0.000373008 -8.53678e-22)
(0.000520224 -0.000151626 1.22492e-21)
(5.57425e-05 3.94775e-06 0)
(4.15028e-05 -8.98102e-05 0)
(0.000121271 -0.000304767 -2.39261e-22)
(0.000998915 -0.00141635 0)
(0.000210707 5.28967e-05 1.18428e-21)
(0.000592372 0.000288788 -3.32082e-25)
(0.000163147 4.32314e-05 -3.42615e-23)
(-0.000597291 0.00738698 0)
(0.00634724 0.00371454 1.1609e-21)
(0.000228948 0.000583468 -1.0832e-21)
(4.66229e-05 -6.49856e-05 -2.98492e-22)
(0.000428114 -0.000486985 3.04093e-22)
(6.44214e-05 2.25689e-06 1.34134e-21)
(0.00528843 0.00306935 -1.57228e-22)
(0.000301681 -7.72381e-05 -6.56997e-22)
(0.0107513 0.0101632 -2.87528e-21)
(0.000223182 -0.000138459 -8.92666e-23)
(0.00112272 0.00488826 0)
(1.48767e-05 -0.000189375 -6.03098e-23)
(1.95883e-05 -0.000150001 -1.53749e-22)
(5.32836e-05 3.22113e-05 -3.82768e-22)
(5.97123e-05 -0.000634125 -7.16417e-22)
(0.000120861 -0.000282601 0)
(-0.00633012 0.00940019 9.04479e-23)
(5.88935e-05 6.3476e-05 9.39322e-22)
(-0.00625555 0.00299029 2.3349e-21)
(5.77997e-05 6.83146e-05 2.34727e-24)
(0.000366771 -3.78583e-05 5.88126e-22)
(-0.00429918 0.0010964 1.00002e-21)
(0.000276644 -1.75773e-05 0)
(0.000428089 -8.46526e-05 -1.32047e-22)
(0.000472297 -0.000193779 -6.78883e-22)
(9.80423e-05 -2.49032e-05 0)
(0.0238559 0.00188933 0)
(0.0201241 0.0085102 0)
(-1.35866e-06 0.000155515 -2.26085e-21)
(0.0124922 8.2397e-05 0)
(0.00206532 -0.00091564 0)
(0.00412504 0.00231845 4.87823e-23)
(6.0992e-06 0.000435937 1.5849e-21)
(6.42374e-05 -1.47044e-05 0)
(-0.00031833 0.000917435 0)
(9.95283e-05 6.74444e-06 -7.00685e-22)
(0.000184862 7.15227e-05 6.19377e-22)
(0.000270608 -4.13827e-05 -1.78163e-21)
(0.0073263 -0.00589847 6.06949e-22)
(0.000267262 -6.03252e-05 0)
(0.000600592 0.000354669 0)
(2.04268e-06 -3.51641e-05 2.70553e-22)
(-0.000710535 0.000371634 7.19348e-22)
(-0.00645617 0.00903542 0)
(1.97535e-05 -6.37359e-07 6.98771e-23)
(-3.10206e-06 0.00182999 0)
(0.000297303 0.000163682 7.15227e-22)
(0.000150579 -0.000171814 -2.48449e-22)
(0.000165471 3.73659e-05 9.41701e-22)
(0.000119614 -0.000296611 0)
(0.000256767 -5.44006e-05 0)
(0.00389094 0.00215793 -4.36002e-23)
(-0.0118787 0.00901588 -6.54835e-22)
(0.000161619 0.000142118 1.11174e-21)
(3.56865e-05 -0.000606986 0)
(5.05784e-05 0.000715195 0)
(0.0025315 7.6564e-05 0)
(-0.0137442 0.0064942 -6.41789e-22)
(0.000441061 -0.000183919 1.03455e-21)
(3.30462e-05 3.20407e-06 1.45904e-21)
(8.18616e-05 -0.000185139 3.49814e-24)
(0.0188971 0.0163508 1.64578e-22)
(0.0019324 0.0056458 1.22515e-21)
(5.28383e-05 2.19567e-05 1.05802e-21)
(0.00302861 0.00218292 0)
(-0.00658136 0.00310538 -1.14112e-21)
(-2.1099e-05 0.000124226 -6.72552e-22)
(0.000387038 -9.05709e-05 -9.16474e-22)
(0.000147809 -0.000208696 8.80534e-22)
(0.00762102 -0.00571604 -1.78002e-21)
(0.0016563 0.004563 0)
(2.49325e-05 8.32113e-05 1.62166e-21)
(-0.000779909 0.00723106 2.04465e-22)
(0.00381955 0.00893545 1.05183e-21)
(-0.000764456 0.00130311 1.23195e-21)
(-4.03994e-05 0.000323498 -1.88108e-21)
(5.34751e-05 3.23962e-05 0)
(1.28587e-06 -5.78772e-06 0)
(-0.000754721 0.00135486 7.246e-22)
(0.000765213 6.58629e-05 4.79353e-24)
(0.000258866 -9.94354e-05 -1.10201e-22)
(0.000405455 8.06096e-05 7.98398e-22)
(0.000831393 -0.000248664 5.55181e-22)
(0.00312281 0.00175502 0)
(0.000789427 7.66272e-05 -7.03164e-22)
(0.000200923 -4.89763e-05 3.45509e-22)
(-0.00247218 0.00307882 -1.94582e-24)
(0.0155068 0.0065469 -5.41771e-23)
(-0.000244698 -0.000862155 3.23565e-22)
(0.0140851 0.000821929 -2.60971e-22)
(0.00102619 -0.000949469 5.75385e-22)
(3.81422e-05 3.24906e-07 0)
(0.00144044 0.000346421 1.24419e-21)
(-0.00521864 0.00415823 -3.17715e-22)
(0.00353845 0.0023073 0)
(3.50566e-05 0.000496962 7.7208e-22)
(-0.000285146 -0.000824919 0)
(0.0038964 0.00309322 0)
(-0.0125607 -0.00078124 0)
(0.0056649 0.00411625 -1.10357e-21)
(7.95776e-06 -0.000106174 0)
(-0.00380487 -0.00883713 -2.84654e-22)
(0.000182677 -0.000113389 1.74812e-22)
(0.000156267 0.000142454 -1.1723e-21)
(2.03407e-05 5.77094e-06 -1.58554e-21)
(-0.000149908 -0.000317859 1.37189e-21)
(0.0238467 0.00199432 5.70518e-23)
(0.0103709 0.00874105 0)
(0.0200654 0.0157294 5.5841e-22)
(-0.00131093 0.00446882 -2.30765e-22)
(0.00263669 0.00375046 -1.18257e-21)
(0.000434247 -0.000465648 0)
(2.99976e-10 -1.95216e-07 0)
(4.41351e-05 -8.73142e-05 1.5103e-22)
(2.72434e-05 8.15675e-05 8.17108e-22)
(0.00130574 0.000314586 8.50948e-22)
(-0.00498709 0.00415782 0)
(-0.00172394 0.00408871 2.12465e-21)
(0.000468131 -0.00020182 9.0311e-22)
(-0.00107373 0.00476324 1.21609e-23)
(-0.00313382 0.00295182 -2.76316e-22)
(5.43927e-05 -0.000346606 -1.69331e-22)
(0.0171182 0.0149447 3.4046e-22)
(0.000238533 0.000838145 0)
(7.76988e-05 -5.71356e-05 0)
(0.000509989 -0.000205654 6.84167e-22)
(0.00155902 -0.00664658 0)
(9.58714e-05 -0.000261451 3.26794e-22)
(1.54925e-06 -7.35551e-06 0)
(0.000247612 2.30712e-05 0)
(6.95482e-05 6.30094e-05 6.51647e-22)
(6.29773e-05 4.40276e-05 -9.27648e-22)
(0.00131838 -0.000803456 1.91102e-22)
(-9.12693e-06 9.74388e-06 -1.14528e-21)
(0.0168222 0.00868927 -8.96048e-23)
(0.000210946 -0.000110977 -1.64446e-22)
(1.31793e-06 -7.26371e-06 0)
(5.43791e-05 -4.26068e-05 2.17104e-22)
(0.000454848 -0.000929737 0)
(0.000202604 4.22445e-05 1.36087e-21)
(0.000181265 -9.04139e-05 7.92552e-23)
(0.0162026 0.0166 2.90733e-22)
(0.000503399 3.95571e-05 8.57943e-22)
(-0.00648499 -0.00329779 0)
(-0.0132504 0.00659617 9.66527e-22)
(0.00357369 -0.0058701 4.75649e-22)
(0.00368405 -0.00450782 8.05438e-22)
(-0.00495295 0.00435719 2.43006e-22)
(1.03448e-05 0.000429134 0)
(3.03733e-05 2.08954e-05 0)
(-0.00115589 9.06126e-05 -5.54988e-22)
(-0.010716 -0.00905185 3.5116e-22)
(6.86699e-05 -0.000144037 3.15749e-22)
(0.000125832 -0.000207242 3.28064e-22)
(0.00273765 -6.38945e-05 0)
(0.00173149 0.00538403 2.32363e-21)
(3.4738e-05 -0.000358029 -1.44181e-23)
(0.000830779 -0.00027191 7.7613e-22)
(0.000201936 -2.38292e-06 -1.10943e-21)
(-0.00083235 -0.000228419 -1.96161e-21)
(0.000151858 -0.000901499 3.91191e-23)
(0.0200365 -0.000225447 0)
(3.10651e-05 6.90634e-05 -7.06975e-22)
(0.000500657 0.00128846 -1.25677e-22)
(0.0004141 -0.000176129 5.09664e-22)
(0.000277215 -5.69237e-05 0)
(0.00269678 0.00193463 -2.15619e-22)
(-0.000214723 0.0005785 -1.16558e-21)
(0.000925307 -0.000962257 0)
(-0.00692978 0.00895244 -1.60405e-21)
(0.000172845 -0.000935388 -4.83475e-23)
(0.000231682 0.000599476 2.80234e-22)
(0.00126521 0.0016995 -1.94021e-22)
(0.00121375 -0.00124886 3.54469e-22)
(0.0177395 0.0161358 0)
(0.00213288 -0.00641465 0)
(3.9567e-05 2.97433e-06 -7.98006e-22)
(0.000272127 -1.76796e-05 3.19994e-23)
(0.000491367 -0.000245175 7.10229e-22)
(4.45419e-05 0.000730134 -1.58992e-22)
(0.00192343 0.00586558 -4.12872e-21)
(9.37324e-05 1.51871e-05 0)
(0.000268811 0.000409559 9.1296e-22)
(0.0152033 0.00680797 9.80944e-23)
(7.07747e-05 -0.0001552 -9.71995e-24)
(0.0145955 0.00226881 -3.003e-22)
(0.00407176 0.00860533 -1.57534e-21)
(3.54793e-05 -5.86643e-06 0)
(0.000271408 -1.90544e-05 5.30054e-22)
(0.000381816 -0.00014187 0)
(0.000284651 -2.61754e-05 -2.39855e-22)
(0.000353012 -0.000115617 0)
(0.000139239 8.58017e-05 -7.98691e-22)
(0.00222051 -0.000856707 0)
(0.000722762 -0.000525055 8.7306e-22)
(-0.0123779 -0.000726048 0)
(0.000462114 -0.000203433 -4.83779e-22)
(0.000228264 0.000829214 1.46753e-21)
(0.000253547 0.000314005 0)
(-0.0062713 -0.00365314 -2.74625e-21)
(5.6222e-05 -5.55054e-05 3.59305e-22)
(5.22831e-05 1.19192e-05 0)
(0.000813466 -0.000394595 0)
(0.000374021 -3.46577e-05 -7.73535e-22)
(0.00019922 4.62066e-05 -1.18931e-21)
(0.000607669 0.000289266 -7.20986e-22)
(3.2756e-05 6.62768e-05 1.86426e-24)
(-0.00529258 -0.00402564 -1.07864e-21)
(3.30314e-05 1.69734e-06 -2.25424e-22)
(3.75284e-05 0.000513729 -1.28527e-21)
(0.000273703 -6.34126e-05 6.02347e-22)
(0.00265102 -0.000154426 0)
(4.52677e-05 -6.72435e-05 2.82433e-22)
(-0.000690968 -0.000270727 1.36875e-21)
(0.000110671 0.000479649 7.83945e-22)
(5.9744e-05 -6.71753e-05 5.02372e-22)
(7.29106e-05 3.38325e-05 -1.13358e-21)
(0.000147196 -0.00021214 4.63874e-22)
(0.000638048 -0.000202247 -1.30232e-21)
(0.000368602 -6.55439e-05 -7.76425e-22)
(-0.00815039 0.00762317 3.30523e-22)
(2.11094e-05 -0.000130188 0)
(-0.000171545 0.000624988 -7.96754e-22)
(-5.82419e-05 0.000707161 0)
(0.00384028 -0.00438423 -3.745e-22)
(2.83991e-05 7.65759e-05 0)
(-0.00442597 -0.0144746 2.98273e-23)
(0.00762335 -0.00299416 2.03684e-22)
(-0.00878165 -0.00672894 -9.69919e-23)
(5.5829e-05 -4.85261e-05 -2.09372e-24)
(0.00677827 0.00134698 -1.94934e-21)
(0.000434305 -0.000201038 2.86363e-22)
(0.00236795 0.00162853 -8.21092e-22)
(0.000339131 -0.000196349 6.8836e-22)
(0.00253728 0.00205228 2.34096e-22)
(0.000347505 -0.000200789 5.18222e-22)
(5.34663e-05 2.48206e-05 -8.72113e-22)
(-2.3042e-05 0.000584155 0)
(0.00171775 -0.000180212 2.92076e-22)
(0.000978013 0.0019723 0)
(0.000138031 7.87904e-05 -4.88215e-22)
(0.000526231 -0.000970362 -7.54944e-22)
(-0.000788632 0.000154519 -8.37532e-22)
(-0.0121458 -0.00619993 4.85398e-23)
(0.00025233 -9.18236e-05 1.38303e-21)
(0.00135321 -0.0019619 -3.23978e-22)
(0.00411488 0.00938822 -1.0125e-21)
(0.000347461 -0.000107509 7.34522e-22)
(-0.00503874 0.00479791 -2.43626e-22)
(0.000441227 -0.000182367 0)
(0.000118651 0.000475106 1.61206e-21)
(0.00688006 3.37994e-05 -2.18426e-22)
(0.000133512 -0.000214074 0)
(8.3687e-05 0.000170513 1.6236e-21)
(3.71412e-05 2.68802e-07 0)
(4.88162e-05 -4.98618e-05 -4.18264e-22)
(-0.000404742 0.0142331 -9.9443e-22)
(0.00270834 0.00116698 -1.28999e-21)
(3.02851e-05 7.43348e-05 -1.40444e-24)
(-0.000181286 0.000610546 8.00748e-22)
(-0.00706387 0.00862133 1.73834e-21)
(0.000582038 -0.000218588 -7.55481e-22)
(0.000212148 4.80393e-05 -3.70856e-22)
(0.00247393 0.00176078 8.9367e-22)
(4.88311e-05 -3.90745e-05 -8.32679e-23)
(0.000151052 -0.0001786 2.61575e-22)
(0.000401681 0.000270454 -7.23979e-22)
(0.000410234 -0.00017509 -1.21537e-21)
(0.00110824 4.4251e-05 1.30266e-22)
(0.0192182 -0.000213038 0)
(0.00195991 0.00119005 -2.15745e-21)
(0.000588799 0.00512978 1.26168e-21)
(0.000288438 -3.00141e-05 2.48887e-22)
(0.000269745 -6.03197e-05 -1.22633e-21)
(0.000863277 0.000309271 -9.18188e-22)
(-0.00292308 9.20429e-05 0)
(-0.00972124 -0.00879927 0)
(-0.005933 -0.00732093 1.42561e-21)
(0.000390538 -0.000132024 0)
(-0.000205144 0.000592913 -1.47339e-21)
(-0.00375815 -0.00124664 0)
(7.18764e-05 3.48092e-05 -1.89266e-25)
(0.00027536 0.000499206 -1.15775e-21)
(0.000379056 -0.000137561 -1.16855e-21)
(0.00296693 0.00334655 5.89513e-22)
(0.000445341 -0.000213816 1.02678e-21)
(0.000295286 -9.34783e-05 3.24748e-22)
(0.00019076 -3.54695e-05 -4.05191e-22)
(-0.0140204 0.00087373 0)
(4.66112e-06 -0.000142401 -2.79343e-22)
(0.000123767 -0.000206505 0)
(-0.00664853 0.00107298 -1.0682e-21)
(1.2563e-06 -2.22844e-05 -4.80835e-22)
(-0.00653662 -0.00517208 -1.30831e-21)
(0.000474447 -0.00019414 -4.83909e-22)
(-1.31612e-07 -1.5091e-05 5.57679e-22)
(0.00133058 0.000274952 -1.23637e-21)
(2.55745e-05 0.000504849 -1.86328e-21)
(0.0121256 -0.000412543 0)
(-0.00121493 6.19396e-05 -1.61243e-21)
(4.62128e-05 -1.62284e-05 6.60929e-22)
(0.00107639 -0.000845951 6.12241e-22)
(-0.00686655 0.000919422 1.30724e-21)
(0.00154491 0.000361084 0)
(0.000569873 -0.00022278 4.6006e-22)
(0.00122246 0.00166731 1.86366e-22)
(0.00332773 -0.00545624 -4.21037e-23)
(0.000403231 0.000179646 3.40542e-22)
(4.34617e-05 -0.000127605 -1.37124e-22)
(5.02794e-05 2.36992e-05 4.29569e-22)
(-0.00114243 0.000129588 -1.72722e-21)
(0.0159616 0.00609356 0)
(0.000197471 0.000749761 0)
(0.000202428 -4.39824e-05 3.60258e-22)
(4.18697e-05 -0.000358642 4.86856e-24)
(0.00798633 0.00148635 4.38775e-24)
(8.69533e-05 -0.00028037 2.94437e-22)
(-0.0001816 0.00129874 0)
(4.29138e-05 -0.00010098 0)
(0.000676575 -0.000529933 -1.22565e-21)
(0.000484607 -0.000249198 -8.51428e-22)
(-0.000635392 0.000761376 0)
(-0.000518777 0.0026622 0)
(0.000431165 -0.000197806 -4.8379e-22)
(0.00135441 -0.0018144 -1.20406e-22)
(3.38176e-08 -1.16093e-05 -5.28174e-22)
(0.0068511 0.0102477 8.28137e-22)
(-1.6995e-05 0.000164657 -8.9101e-22)
(7.42704e-05 -1.49167e-05 -1.32311e-21)
(0.00223727 0.0106586 -1.36926e-21)
(0.000164305 3.2622e-05 -1.03338e-21)
(-8.41924e-05 0.000376707 0)
(0.00127963 0.00154405 8.16251e-22)
(0.000113969 0.000906584 1.34147e-21)
(9.92769e-05 3.63143e-05 -1.58623e-21)
(6.88411e-05 -0.000109063 -1.82569e-23)
(0.000920895 -0.000231936 0)
(-0.00518073 -0.00496193 0)
(0.000274861 -9.41678e-05 -5.73988e-22)
(0.000304062 0.00106275 0)
(0.0144284 0.00129579 1.29219e-22)
(-6.11599e-05 0.000695535 -6.46899e-22)
(-0.00122101 -2.0565e-05 1.5905e-21)
(0.000101393 5.39988e-06 -7.97112e-25)
(6.99512e-05 -0.000116169 0)
(0.000645837 -0.000998272 7.53601e-22)
(-0.0115543 0.00166484 0)
(1.53599e-05 0.0133685 0)
(0.000142363 -0.000191938 0)
(-0.0110656 -0.00887749 1.46397e-21)
(0.00041445 -8.30256e-05 -8.99333e-22)
(4.29081e-05 5.46827e-06 0)
(-0.00695992 0.00250485 1.2039e-21)
(0.000355327 -0.000116218 0)
(0.00018086 3.59305e-05 -8.9332e-22)
(0.000280692 -6.2366e-05 -5.84892e-22)
(0.00118765 0.000259064 -5.67576e-22)
(-0.00260564 0.000527247 -6.53866e-22)
(0.00164857 0.000799032 0)
(0.00304702 -0.000694229 -1.06904e-21)
(-0.000226195 0.000584026 1.33852e-21)
(0.000301114 0.0010362 0)
(-0.00393985 -0.00112029 -2.50554e-22)
(7.6611e-05 -0.000317318 -1.25512e-22)
(0.000106535 -0.000208716 2.79052e-22)
(0.00159338 0.000811914 -1.3755e-21)
(0.000413881 -0.000182994 4.89202e-22)
(0.00298135 -0.0012228 -5.314e-22)
(-0.00583145 0.00363271 0)
(0.000422448 -9.529e-05 -4.43697e-22)
(0.000275265 0.000512231 1.11779e-21)
(8.76155e-05 -2.94181e-06 -6.49247e-22)
(0.000198354 0.000734297 0)
(0.00123786 0.00156735 -7.30822e-22)
(1.63732e-05 0.000550411 0)
(0.000166918 -0.000124183 3.53932e-22)
(0.000353256 -0.000111276 -9.16691e-22)
(4.84271e-05 2.37377e-06 0)
(-0.000236861 0.000568897 1.50191e-21)
(0.000741915 8.25123e-05 1.68567e-22)
(0.00754777 -0.0052151 -1.33555e-21)
(-0.00792648 -0.00905965 0)
(4.15134e-05 1.51872e-06 0)
(0.000337209 -6.19275e-05 -1.45947e-21)
(-0.0078284 0.00735274 -9.54734e-22)
(0.00025266 2.09579e-05 0)
(3.90366e-05 -2.61298e-05 -2.2566e-22)
(4.90532e-05 -1.36052e-05 3.48219e-22)
(0.000421769 -0.000875421 0)
(0.000220677 0.0006117 -2.69834e-22)
(-0.000781675 0.000164311 -8.71701e-22)
(0.0001487 -0.000187095 -6.59515e-23)
(0.000697744 0.00466665 0)
(0.00193297 0.00113981 8.31143e-22)
(6.10189e-05 -6.37388e-05 0)
(0.00168175 0.00568027 3.41498e-21)
(-0.00463794 -0.00550355 0)
(-0.000533906 0.00256995 -1.43876e-21)
(3.0848e-05 1.47133e-05 0)
(0.00227102 0.00293124 1.01595e-21)
(-0.00556933 -0.00729503 -1.01316e-21)
(0.0156143 0.00634225 8.06584e-23)
(0.000606037 8.45917e-05 0)
(0.00048356 -0.000201305 1.03227e-21)
(0.000608135 -0.00124496 -2.02575e-22)
(0.000213806 -0.000110829 -1.73888e-22)
(0.000136723 -0.000202204 4.11843e-22)
(0.000145396 -0.00019436 0)
(-0.00614487 -0.0054839 -2.36821e-21)
(0.000126729 5.97798e-06 7.30206e-22)
(-0.0144725 0.00077512 0)
(5.14584e-05 -3.80503e-05 -5.13097e-22)
(4.13138e-05 9.89781e-05 9.01069e-22)
(8.66627e-05 -4.71937e-05 -3.80315e-22)
(-0.000456639 0.000764268 1.12491e-21)
(-6.32121e-06 0.000151365 0)
(-0.0103238 -0.00903226 0)
(0.00232801 0.00141395 0)
(4.27096e-05 -0.000120133 2.03956e-22)
(0.00806751 0.00136915 0)
(0.000231884 -4.59646e-05 -2.23041e-22)
(4.9676e-05 9.00406e-05 0)
(6.33413e-05 -4.73281e-06 -8.01414e-22)
(5.3468e-05 -0.000348875 1.91105e-22)
(-0.00418567 -0.000396543 -1.1452e-21)
(0.000172337 -0.000122802 -8.06809e-23)
(-0.000209502 0.00097734 -1.19935e-21)
(-0.00107077 0.000121171 1.56809e-21)
(0.00174649 -0.000138732 1.53425e-21)
(-0.000447259 -9.9074e-05 0)
(6.21985e-07 -1.92825e-06 0)
(-0.000199122 0.000991866 -1.03761e-21)
(0.000112975 -1.27221e-05 0)
(0.000292078 0.0003482 0)
(-0.000492576 0.00103767 -1.25001e-21)
(-0.00986159 -0.00253896 2.63011e-21)
(0.00518733 0.00180943 4.5003e-22)
(0.00536125 -0.0100398 4.91853e-22)
(0.00211172 -0.00108991 5.04884e-22)
(9.75527e-05 3.3244e-05 1.96692e-21)
(-1.64918e-05 7.83836e-05 -7.23887e-22)
(0.000150013 -0.000194935 -5.46055e-22)
(0.000127412 2.53971e-05 -2.42158e-25)
(0.0027455 0.00363929 1.12586e-21)
(2.08977e-05 -0.000198293 -5.53412e-23)
(3.23819e-05 1.56538e-05 0)
(4.61483e-05 -0.000356542 -4.53233e-24)
(5.39039e-05 0.000141813 2.70239e-21)
(-4.3771e-05 0.000724755 -6.3955e-22)
(-6.46142e-05 0.0006054 0)
(0.000130349 4.87489e-05 -1.14604e-21)
(0.000823941 0.00577931 1.26212e-21)
(0.000186598 -7.30323e-05 0)
(1.15497e-05 -0.00022613 2.64221e-23)
(5.73407e-05 0.000134545 -6.22681e-22)
(5.22369e-05 -0.000257394 2.40613e-22)
(0.00587883 0.00690897 -2.75485e-21)
(-0.0109163 -0.00684391 0)
(0.000696958 -0.000512419 0)
(0.000480844 -8.92469e-05 1.64722e-21)
(-0.00258666 -0.00202822 0)
(0.00329124 0.00412582 -1.59158e-23)
(-0.00112998 0.000106705 0)
(-0.0074632 -0.00888705 6.80432e-22)
(0.000260525 -2.36987e-05 9.00346e-22)
(6.39919e-05 -7.42197e-05 2.1422e-22)
(0.00361093 -0.00548358 5.18119e-23)
(0.00632805 -0.00102489 0)
(8.99563e-05 -0.000156371 0)
(0.00660225 -0.00951413 0)
(5.49689e-05 1.05459e-05 0)
(0.000258234 -8.73437e-06 1.2349e-22)
(6.02253e-05 2.10603e-05 0)
(0.00424494 -0.000764835 1.13389e-23)
(0.00104898 -0.000861211 -3.17571e-22)
(0.00021535 5.6952e-05 9.36122e-23)
(-0.00132449 -9.92938e-05 0)
(0.000159484 -1.25353e-05 -4.82081e-22)
(0.000119475 -0.000217236 -1.8414e-22)
(0.00059076 0.00545521 -2.39141e-21)
(0.000219313 0.000658807 -1.41527e-22)
(0.000236561 -4.70255e-05 1.44877e-21)
(-0.0147393 0.000671094 -2.1043e-21)
(-1.59717e-05 0.000145482 -2.71235e-21)
(-8.7567e-05 0.000616976 1.32414e-21)
(0.000432627 0.000239758 0)
(0.000385184 -0.000129919 -4.41057e-22)
(0.000708565 -0.000518134 -7.49607e-22)
(0.00141205 -0.00260024 -3.52158e-22)
(0.000115473 -2.3223e-05 -6.96029e-22)
(0.000128648 4.10823e-05 8.03221e-22)
(0.000164295 0.000128113 0)
(0.00923328 -0.000687501 1.1574e-21)
(-0.00226533 -0.00262594 -3.4471e-23)
(0.000279163 -2.55864e-05 9.57811e-22)
(5.91253e-05 2.75738e-05 -1.65536e-21)
(-0.000626482 0.00322652 -3.62097e-22)
(-1.31626e-05 8.42308e-05 -2.48802e-22)
(0.00163113 0.000588946 -8.04924e-22)
(2.51498e-05 -0.000186838 0)
(4.8138e-05 0.000229442 1.56968e-21)
(0.000168663 0.000128573 0)
(3.66325e-05 6.70421e-06 -6.35945e-22)
(0.000131508 -0.000237698 3.82693e-22)
(3.1638e-05 1.91697e-05 1.85837e-22)
(8.79533e-05 0.000144189 -8.13367e-22)
(0.000331812 0.000132101 -4.17389e-22)
(-0.00126216 -0.00225919 -4.1952e-22)
(1.71424e-05 -0.000190991 0)
(0.00618326 0.00168573 -4.41036e-22)
(0.000265123 -3.68814e-06 5.11078e-22)
(0.00654037 -0.00231085 0)
(0.000137919 0.000210622 -9.97469e-22)
(-0.00285033 -0.00749336 -7.48274e-22)
(6.21335e-06 -0.000103068 0)
(-0.0112895 -0.00693835 0)
(6.94208e-07 -7.37122e-06 4.57876e-22)
(9.98819e-05 -0.000307023 -1.95351e-23)
(-0.00258107 -0.0143878 7.66068e-22)
(0.0014732 0.000191975 1.23e-21)
(0.00146065 0.0103255 -8.94393e-22)
(0.00090252 -0.000223574 -5.64335e-22)
(0.000626293 -0.000209406 0)
(-0.00411506 -0.00327347 -4.41105e-23)
(-0.00431787 0.000356067 0)
(0.000124414 5.10601e-05 8.46422e-22)
(0.000405686 0.00441287 -1.9016e-22)
(0.000436098 0.00064392 0)
(0.000303847 -7.98547e-05 7.27415e-22)
(-0.00588033 -0.00810501 9.33283e-23)
(0.000217405 5.46077e-05 2.12212e-22)
(-0.00129214 -0.00237771 -2.38022e-22)
(-0.00131396 -0.000164256 0)
(-8.32079e-05 0.000608742 -1.0826e-24)
(-0.00690818 0.00201304 -5.47068e-22)
(-0.000868278 0.0144099 1.0783e-21)
(8.40984e-05 -0.000177687 0)
(0.00125182 -0.00127436 -4.60616e-22)
(4.8563e-05 1.44783e-05 0)
(0.000458641 0.000248674 5.81909e-22)
(1.97533e-05 7.55817e-06 1.21022e-22)
(0.000218304 0.000675859 -1.00457e-21)
(0.00061017 -0.000687305 0)
(5.10054e-05 0.000225422 0)
(6.35645e-05 0.000713513 0)
(6.40195e-07 -3.15966e-05 1.14913e-21)
(-0.00174334 0.00203231 -1.45602e-22)
(0.000563097 -0.000993141 8.57668e-22)
(0.000233062 0.000647913 1.52054e-22)
(0.000497511 -0.000201228 -8.45159e-22)
(7.21321e-05 0.000725937 0)
(5.56717e-06 -0.000158587 -1.41787e-22)
(0.0200029 0.00859186 0)
(-0.000450983 0.000498674 0)
(0.00132334 -0.000734727 4.29087e-22)
(-0.00510184 -0.0043195 -1.54919e-23)
(-0.01466 0.000780234 3.54006e-21)
(0.00543199 0.0081849 0)
(0.000229815 -2.74561e-05 -5.0687e-22)
(0.00651449 -0.00248764 0)
(0.000412296 -9.02459e-05 -8.91695e-22)
(3.31769e-05 1.05588e-06 0)
(-0.0097471 -0.00242969 -2.4561e-21)
(-0.00345302 -0.00771981 9.40619e-22)
(1.69782e-06 -5.15017e-05 2.13888e-22)
(0.00240488 -0.000122711 9.42837e-22)
(0.00756643 -0.00503176 -1.00775e-22)
(0.000933218 0.000691389 -7.68761e-22)
(0.000225907 -4.44223e-05 -9.58992e-22)
(-0.000359304 0.00097123 6.90759e-22)
(-0.000947839 0.00506875 0)
(0.00742494 -0.00492803 0)
(0.000788934 -5.99154e-05 -3.80097e-22)
(0.000129686 -0.000197485 6.04213e-22)
(0.00628507 0.00262405 4.52742e-22)
(0.00103641 -0.00135019 6.48224e-22)
(-0.0124178 -0.00771457 0)
(0.000259469 -9.12388e-06 -8.70004e-22)
(2.72746e-06 -4.46182e-05 -1.67319e-23)
(-4.34654e-05 0.000714192 6.29519e-22)
(0.002106 -0.00196604 -2.19851e-22)
(0.000305946 7.96991e-05 -7.66752e-22)
(0.00287065 -0.00288861 1.63067e-22)
(0.00556735 0.00638294 0)
(0.000260707 -5.6375e-05 -6.24924e-22)
(0.000404346 0.00135449 -8.34378e-22)
(0.0248296 0.000749494 0)
(-0.0048057 0.00128171 0)
(0.000518685 -0.000261503 -3.15557e-23)
(-0.000628338 0.000817626 -8.21355e-22)
(0.000107978 -0.000214678 -8.54657e-23)
(0.00180002 0.000638332 0)
(-0.0118251 0.00142022 6.92266e-22)
(2.20922e-05 -0.000189597 0)
(0.00652031 -0.0015065 -1.20946e-21)
(0.000269628 -9.94955e-05 1.21508e-22)
(0.000195558 1.22896e-05 4.94288e-22)
(0.0182849 -0.00405983 5.36534e-22)
(0.000120427 -0.000199654 2.21331e-22)
(0.00618585 0.00636177 0)
(0.000824174 -0.00032032 0)
(8.60218e-05 0.000720948 -1.20369e-21)
(6.68918e-05 -9.82033e-05 5.75065e-22)
(0.00176891 0.000435539 6.37532e-22)
(0.00108445 -0.00135387 -7.20342e-22)
(1.04891e-05 0.00049603 -2.14929e-21)
(5.17972e-05 -4.96373e-05 2.39818e-23)
(-0.00285915 0.00399538 -2.18636e-22)
(3.39591e-05 -4.68003e-07 0)
(0.0074564 -0.000936964 -1.12142e-21)
(0.000443426 -0.000213976 4.85309e-22)
(-0.0118173 -0.00757203 0)
(0.000125611 4.29404e-05 0)
(0.000230411 -4.62221e-05 1.22291e-21)
(0.00271092 -0.000723121 0)
(0.00372309 0.000256146 0)
(0.000355306 -0.00567825 0)
(0.00365453 0.00354514 0)
(0.00165794 0.000536835 0)
(0.00505936 0.00197801 0)