/*--------------------------------*- C++ -*----------------------------------*\
| =========                 |                                                 |
| \\      /  F ield         | OpenFOAM: The Open Source CFD Toolbox           |
|  \\    /   O peration     | Version:  v2012                                 |
|   \\  /    A nd           | Website:  www.openfoam.com                      |
|    \\/     M anipulation  |                                                 |
\*---------------------------------------------------------------------------*/
FoamFile
{
    version     2.0;
    format      ascii;
    class       volScalarField;
    location    "200";
    object      ddt0(k);
}
// * * * * * * * * * * * * * * * * * * * * * * * * * * * * * * * * * * * * * //

dimensions      [0 2 -3 0 0 0 0];


internalField   nonuniform List<scalar> 
53008
(
-4.33523e-08
0.0001832
3.60691e-09
5.39853e-07
0.000130629
1.73947e-06
3.84155e-08
-4.41728e-08
2.22149e-08
-3.33948e-08
1.27573e-06
2.21535e-07
-0.000178879
-0.005669
-4.5824e-08
1.26983e-08
-5.64031e-08
1.31192e-08
0.00162953
-2.22822e-08
-6.21842e-08
-2.04723e-08
-1.79988e-09
-1.0774e-08
-6.18913e-08
1.79745e-05
-0.00580603
-1.04464e-08
7.15683e-06
6.04397e-06
-0.000285161
-0.00273378
0.000500147
6.74063e-08
-1.33664e-09
-1.82464e-08
7.18482e-08
1.78253e-11
-5.7696e-08
6.38425e-08
7.12646e-08
0.00170774
1.31217e-06
0.000566707
-2.23925e-08
-3.86997e-09
-1.20576e-08
-1.60769e-08
1.74707e-06
6.93452e-09
5.42489e-10
1.71621e-08
-5.89126e-08
-6.2711e-09
-1.62801e-08
0.00145876
-2.36028e-08
3.75531e-09
-9.00519e-06
1.52242e-07
1.3596e-08
3.77085e-08
-0.000749035
-0.000262656
-4.86133e-06
-1.37854e-08
6.01619e-06
-9.42838e-09
1.35817e-09
1.05221e-08
0.000261177
3.8379e-09
-1.4099e-08
0.000464847
9.40563e-06
-2.30711e-09
6.95842e-10
2.92186e-06
1.20184e-08
0.000333666
1.32724e-05
5.12166e-05
2.62218e-06
-6.37043e-07
1.29312e-08
1.14594e-08
-6.88775e-06
6.3759e-08
-1.76584e-08
-1.08655e-07
0.000377992
-0.000382047
7.22979e-06
3.92455e-08
0.00232233
1.84348e-06
-0.00301865
1.76402e-10
-0.000222039
-0.000847752
-2.33574e-08
6.47639e-08
1.77303e-07
-5.93084e-09
-4.49497e-08
-0.000592549
-0.000322094
4.47203e-08
1.05293e-06
4.53428e-09
-4.22466e-07
-0.000402408
7.39435e-10
0.0020753
-0.00477841
5.06013e-09
-4.73378e-08
6.04395e-09
-0.000676699
0.000360594
0.000156152
-1.31402e-08
6.76313e-08
2.42471e-06
1.79664e-05
1.85629e-08
0.000337054
2.05182e-06
4.51282e-08
-5.17733e-08
-0.00285218
3.61846e-08
-1.16214e-06
6.15658e-09
9.53848e-09
2.73683e-06
-3.27151e-09
-0.000152655
-4.07932e-08
-1.81265e-08
1.47717e-08
-2.1159e-08
2.69773e-09
4.14549e-06
5.53602e-08
1.02478e-08
-4.72739e-08
6.99358e-10
-2.96839e-08
4.45082e-08
4.65188e-10
-0.000759341
8.7642e-05
-1.92639e-08
-1.62584e-09
-5.97779e-08
-0.00395774
0.000288807
9.90857e-09
-3.40791e-05
-1.10954e-07
7.19444e-09
-3.7853e-09
-0.000380399
-4.5921e-08
4.97979e-11
-2.46542e-08
1.46537e-08
9.44088e-09
-1.95701e-08
-1.13761e-08
-0.0012609
0.00147501
1.00868e-08
1.29646e-06
1.42704e-08
1.02158e-08
1.68992e-06
1.82631e-06
3.22842e-08
6.82217e-08
-4.64313e-08
0.000569939
-2.86238e-08
1.25227e-07
-0.000247856
-0.000698104
0.00137241
-0.000243048
6.363e-10
-0.00076502
6.60005e-08
-4.96692e-06
0.000309698
5.70076e-09
1.05358e-08
-2.06199e-08
1.17743e-08
-2.43327e-09
7.41032e-09
-1.33929e-07
4.70955e-08
-5.22143e-08
-3.55986e-08
1.88641e-06
0.000300218
-5.24241e-08
-3.88199e-09
-6.64165e-08
7.9086e-09
-0.000342544
6.21341e-08
3.60598e-06
3.01571e-09
1.01923e-06
9.12085e-09
-4.76861e-09
-1.13667e-09
-1.07436e-07
-2.45921e-08
5.24879e-06
3.93149e-09
2.41803e-06
3.79834e-09
-8.41777e-09
8.20764e-07
5.58828e-08
-1.57089e-09
2.68102e-08
1.45446e-08
-0.000169337
-0.00536117
-2.16848e-08
-0.00218938
-1.56907e-08
-0.000599232
-1.11796e-08
1.00452e-08
-7.61996e-05
1.09019e-08
3.45914e-08
6.7491e-08
-3.45463e-06
4.37045e-08
-5.07319e-08
5.41055e-10
-1.84137e-07
5.25917e-06
7.93088e-09
1.34418e-07
-5.27542e-08
-3.84713e-08
-3.64331e-08
5.7789e-09
4.76534e-08
-0.000744061
5.06761e-06
-3.55641e-08
-1.09464e-07
-2.85406e-08
0.000164209
-2.63878e-06
1.685e-08
5.79437e-09
2.40138e-08
-0.00480091
-6.91786e-05
5.06436e-09
-0.000657329
2.64484e-06
-2.5275e-08
8.25332e-09
-4.88568e-08
-2.96116e-06
0.000306745
-6.23087e-09
1.94359e-06
-0.00039039
-9.57053e-09
3.10778e-09
-1.16427e-09
1.44735e-11
-2.37933e-09
1.72575e-07
1.17023e-08
-2.04993e-08
-3.7727e-08
-0.000142007
5.67554e-08
-3.08634e-08
-0.000200311
-0.00118774
-1.5671e-07
-0.00314586
-8.39137e-06
-2.45967e-09
4.6039e-08
2.19477e-06
-0.000691485
-2.06174e-08
-1.5894e-07
-0.000254569
0.000283146
0.000282293
1.56093e-09
0.00032494
-3.47641e-08
-3.54026e-08
5.0624e-09
-1.25602e-07
-0.000188103
4.57104e-06
-0.00533489
0.000351116
7.19099e-07
-5.74552e-08
6.13617e-13
-9.34454e-09
-5.71655e-09
2.965e-08
2.11248e-06
0.00171485
5.76504e-08
0.000319077
-0.000306913
-1.35442e-08
-0.00405364
-3.59357e-08
-1.14318e-09
-1.76676e-08
-0.000328146
9.18031e-09
3.83746e-11
4.51009e-08
-3.14396e-09
6.57872e-09
-2.98056e-06
-1.12375e-09
-0.00309852
-1.1671e-08
3.13447e-11
9.17338e-09
-1.04331e-07
5.0886e-08
-4.52598e-08
-0.00419333
3.02547e-08
-5.48665e-05
6.48906e-06
-0.000231009
2.102e-06
0.000375342
-1.2498e-08
-2.11435e-09
-2.19487e-05
0.00189426
2.959e-08
-2.37662e-08
-4.12205e-05
1.08688e-05
-5.51677e-10
-3.79781e-08
-3.38025e-09
1.98744e-05
-1.33696e-07
-0.000614166
-3.85767e-09
4.60898e-08
3.89368e-08
3.6546e-08
-0.000670323
-4.60613e-09
-2.83503e-06
5.67441e-06
-1.32752e-07
-5.21786e-08
2.0096e-07
-3.16376e-06
-0.00468843
-0.000340337
4.68504e-09
5.11703e-08
-2.50148e-08
-2.77609e-08
6.15535e-05
-1.07807e-08
-6.17265e-08
-0.00126183
2.94091e-08
-0.00288276
-0.000317869
2.15125e-10
4.9477e-08
4.03515e-08
6.47477e-08
7.42353e-08
-1.6094e-08
-9.94298e-09
3.5838e-07
0.000298085
5.87093e-08
-3.60388e-08
-6.17614e-08
-4.35142e-05
9.54101e-09
-7.1802e-09
1.1814e-07
-1.24225e-08
4.98457e-08
-5.013e-08
-3.37889e-09
3.15383e-07
2.9033e-09
-2.17874e-08
3.85749e-08
0.000347719
-3.16365e-09
3.3518e-05
-3.98922e-08
2.34098e-08
-5.79871e-09
-4.86133e-08
2.37254e-08
2.26654e-09
5.09194e-06
7.05705e-10
-6.48444e-09
-1.72774e-08
3.46955e-06
-5.1369e-09
-0.000414854
-0.000363757
-0.000739902
9.87611e-09
9.95485e-07
3.30921e-08
-0.000128764
-1.00416e-08
-0.000638853
-1.25076e-08
3.76616e-09
-1.10868e-07
-3.96588e-06
2.38501e-07
-2.05957e-08
-1.04338e-07
2.3508e-05
-0.000348914
1.49698e-08
2.69447e-06
-0.000514375
7.21454e-08
0.000328551
1.63732e-08
-4.18117e-08
-6.05661e-07
-1.83525e-08
-1.46701e-08
4.34063e-09
-4.91482e-09
7.77827e-06
0.000285487
-4.57653e-09
-5.73792e-09
5.71314e-06
-3.3137e-08
4.85675e-08
-0.000133575
2.14744e-08
-5.10789e-08
8.45956e-08
4.13939e-08
-6.67492e-09
-0.000667106
-3.35362e-06
1.10449e-06
6.64801e-08
4.07965e-08
9.85996e-08
0.000882499
0.00172829
1.23079e-06
2.73901e-08
-4.83514e-09
-4.17581e-08
-5.88554e-09
-5.94589e-08
4.15894e-08
6.38641e-07
7.9887e-09
4.10052e-08
2.93223e-08
0.000351664
1.83811e-09
-2.13879e-08
2.05079e-06
3.47723e-10
0.000149474
2.79055e-08
1.75397e-10
2.97558e-08
-1.79413e-08
-0.00226537
-4.26529e-07
4.76682e-09
-4.66597e-06
2.11278e-06
6.02768e-08
-3.28087e-08
1.8967e-07
-0.00042835
-4.8231e-08
-5.92382e-09
1.84432e-09
-1.43301e-06
-0.00111141
-4.19824e-08
-2.99779e-08
-8.94688e-09
-0.000253745
-2.90705e-08
-5.83817e-05
-8.91707e-09
-5.34129e-08
-2.61057e-08
-6.71415e-05
3.95794e-07
3.87108e-08
-0.00136142
1.42632e-10
5.55182e-06
-3.02087e-08
-2.29012e-09
-0.000826425
-3.76219e-08
1.03566e-08
1.76808e-07
-2.96541e-08
1.43452e-08
2.40629e-08
5.5075e-08
3.40025e-05
-2.51908e-08
-8.79828e-09
-0.00319417
-1.46839e-08
2.2851e-07
1.13341e-08
2.48103e-08
-1.0005e-07
0.000296201
6.31931e-06
-4.6817e-08
0.00232191
-3.44608e-09
2.91335e-09
0.000308531
7.25761e-08
-3.18439e-08
2.79427e-08
1.1054e-08
0.000870498
1.13764e-07
6.20112e-08
-4.57922e-09
-1.3485e-08
3.66229e-08
-2.26226e-08
-2.07895e-08
1.13369e-07
4.94083e-08
-0.00158961
2.35891e-06
-1.57238e-08
-5.83794e-08
1.15669e-08
-4.36755e-08
1.79623e-07
-1.08369e-07
-4.5139e-08
7.40249e-08
4.83976e-09
-4.26549e-09
1.00592e-07
-2.08662e-06
0.00163103
-1.20353e-09
8.75799e-09
4.70728e-06
4.64414e-08
-9.15241e-09
1.70111e-08
4.57898e-07
-4.97009e-08
2.165e-05
-5.08962e-08
0.000309243
-5.19194e-06
2.35002e-08
0.000160693
4.24134e-05
3.62245e-07
-4.14646e-09
5.34974e-07
1.11538e-06
-0.00119659
-4.56219e-08
4.86468e-08
-1.0018e-05
-8.66923e-09
-4.21838e-08
-4.70382e-08
0.000184042
2.90416e-09
0.000373959
2.11679e-08
-2.99114e-09
-4.17912e-09
-1.79262e-07
-2.29634e-08
0.00175555
-0.000441745
-6.51667e-09
-0.00024621
3.08996e-08
8.82531e-10
1.04745e-08
-1.29782e-08
3.36022e-07
-4.52303e-08
-4.28431e-08
-8.57395e-08
0.000280558
-9.27458e-07
2.10534e-12
-4.30712e-08
1.09851e-08
-6.30132e-08
-8.56351e-08
3.28396e-05
-0.000181478
-0.00302775
-0.00158797
1.43083e-08
-1.30857e-08
-5.10583e-08
-2.28729e-09
7.17894e-07
1.22583e-08
-2.35462e-09
-9.86632e-09
-4.01871e-09
-2.10489e-08
-9.23757e-09
-2.58277e-08
0.000536964
-4.32613e-08
1.01704e-09
-2.61396e-09
1.98361e-08
2.03529e-06
0.00330508
-5.22236e-08
1.90566e-08
-0.000374568
0.00032836
-1.97606e-05
0.000862312
6.822e-08
3.58539e-09
-0.000403729
-0.000138907
5.67738e-09
-0.00323152
1.03202e-08
6.73599e-08
-3.86515e-09
0.000223885
-6.71973e-07
3.52836e-08
-6.82332e-08
-4.80724e-08
-1.62377e-08
0.000791852
-4.80368e-08
3.00391e-08
0.000345576
-2.63133e-08
-6.6601e-09
-5.95941e-08
3.06281e-08
-3.43572e-07
1.51138e-06
1.41936e-08
-2.60433e-08
-3.43869e-08
-0.00104982
-1.01261e-06
6.94254e-08
-4.5102e-09
4.3432e-05
-1.36449e-08
8.49008e-08
1.28133e-08
-1.61883e-08
-3.43683e-08
-1.32287e-09
-4.33714e-08
-3.03286e-09
-9.95948e-09
-4.92081e-08
-2.32397e-09
1.08361e-08
-3.51686e-07
4.95489e-08
-0.000293054
-3.89177e-08
6.40355e-05
1.61403e-09
0.00337732
1.08415e-10
-1.31655e-08
-0.000790175
4.11165e-08
-0.000685404
9.73172e-08
8.7979e-08
-0.000166615
6.08758e-07
-7.31285e-09
0.000337259
-4.89947e-08
6.23138e-08
0.000331115
3.85114e-08
2.81891e-07
-3.56339e-07
-7.63787e-09
2.49801e-06
8.90848e-06
2.45945e-08
2.78769e-06
-3.72849e-09
-5.85757e-08
6.28864e-09
-4.7229e-08
-8.27467e-08
-1.62555e-08
-2.96636e-08
3.26028e-10
-1.69535e-05
-1.03632e-07
-4.99231e-08
-1.39784e-08
-3.13594e-08
1.8616e-09
-0.00547315
-3.70897e-07
5.91892e-07
2.4784e-07
0.00034267
2.22374e-06
7.76281e-09
-0.000287193
-4.37673e-10
-1.695e-09
2.60311e-05
6.66933e-05
9.35793e-10
-5.0152e-06
-0.00144623
4.68453e-08
3.52186e-08
-7.67952e-05
1.252e-06
-0.00129023
-3.51699e-08
-2.96563e-08
4.04611e-05
-2.74849e-06
-9.23298e-05
3.43033e-08
6.63228e-10
-1.78124e-08
-0.000270877
-3.85397e-08
-2.45915e-05
1.86192e-06
4.77887e-08
4.89662e-08
-0.000336621
0.00258678
4.91211e-08
-6.68942e-05
-1.86207e-08
5.56479e-07
0.000298265
1.40995e-08
-0.000903645
1.49051e-08
-3.00607e-08
-0.000227953
-1.46484e-08
1.39568e-06
2.897e-08
-3.23879e-08
2.41029e-08
-1.74087e-06
-7.6564e-06
-1.42209e-08
2.28749e-08
0.000394533
2.8857e-09
0.00149611
6.32738e-09
-0.000164209
-5.81871e-09
3.46411e-08
0.000323817
1.92335e-07
-6.87911e-06
0.000378753
8.52869e-08
-0.000187981
-7.13705e-08
-2.33716e-08
0.000372092
-6.287e-08
-9.67391e-09
-1.98274e-06
-6.76579e-08
1.59205e-08
-5.67447e-09
-2.76355e-08
2.58785e-09
-3.77764e-09
1.11612e-06
0.000279863
0.000418741
7.33799e-09
-3.44423e-08
-1.93512e-09
4.25332e-06
2.13059e-09
0.000102751
-0.000131844
-0.000222803
1.40646e-06
2.39407e-08
-2.77482e-08
0.000291456
-4.75317e-08
4.19057e-08
4.05979e-08
-1.01843e-08
2.55238e-08
-2.17258e-08
-1.8309e-08
-1.38759e-08
-1.6898e-09
-3.81634e-08
2.217e-08
9.83427e-09
7.41289e-06
-1.20089e-07
2.24165e-08
-2.09933e-08
-0.000137596
4.1432e-05
-5.98402e-08
2.88037e-05
-1.01097e-07
5.91135e-08
-2.15528e-06
9.76456e-09
-4.06639e-08
-3.28147e-09
-4.72879e-08
1.10704e-08
4.06593e-06
1.14347e-08
7.25338e-09
1.11164e-08
3.67716e-09
-0.000222029
8.76673e-08
6.92749e-09
-6.33227e-08
-4.50341e-09
-5.20149e-08
1.13001e-08
-0.00135259
6.72855e-06
-7.57131e-09
0.00237991
-0.000560264
8.48322e-07
6.35226e-08
0.000267272
-0.000228507
2.00623e-08
2.84933e-08
-1.79977e-08
-0.00112666
1.07628e-06
4.53364e-08
4.06427e-05
0.000992557
-2.74845e-08
-2.17039e-08
-3.75429e-08
-1.56592e-07
1.37678e-08
-1.1984e-09
3.50019e-09
-1.21784e-08
-1.09007e-08
-0.000192653
8.26242e-07
-3.36353e-08
-0.0014621
-0.00134771
4.96219e-10
-3.67974e-08
6.005e-08
-3.83088e-08
-0.000156469
-0.00497934
7.06847e-05
3.67799e-07
3.92099e-08
-5.85492e-06
-0.000146278
-0.00013969
-6.32409e-08
8.01074e-08
-4.84061e-08
-1.37703e-08
4.81469e-05
9.29449e-09
2.7645e-05
5.7884e-06
1.1508e-08
-4.64714e-08
8.20656e-09
0.000325822
3.27013e-08
-8.85104e-07
-0.000266459
1.28419e-08
-0.000649426
1.3164e-09
3.86837e-10
-0.000624181
3.77699e-08
-3.7706e-09
-0.000197713
-0.000344932
2.82666e-10
2.0763e-06
-3.55318e-10
-7.99049e-08
-1.96702e-08
-1.38154e-08
-0.000272605
-2.56425e-05
-8.74494e-07
7.8387e-09
-5.42663e-08
-0.000880901
5.62698e-08
2.95378e-09
-2.40721e-09
-1.18088e-09
9.23843e-09
-6.37334e-07
2.46147e-08
-2.47462e-05
8.01888e-09
6.18965e-08
-0.000362462
-4.98531e-09
-3.22027e-09
-3.7215e-08
6.16565e-06
2.7386e-08
0.000500633
-0.00017684
-3.76558e-07
-0.00110105
-8.8603e-09
6.05219e-09
5.35507e-08
1.04857e-08
-2.6165e-08
7.31768e-08
-4.78038e-08
-2.33498e-06
-6.2778e-08
-3.82289e-08
-6.78127e-06
3.8843e-08
-0.000324142
-9.55475e-09
1.25794e-09
9.03003e-09
-3.12969e-09
1.69106e-07
-5.48939e-08
4.48879e-08
2.00631e-06
-3.88442e-07
-0.000248643
-3.68889e-08
1.39273e-06
-4.29719e-07
2.39368e-09
5.6215e-09
1.74321e-06
-1.92554e-08
-6.55419e-09
0.000335708
-0.00015417
-2.89671e-07
3.63611e-08
7.72778e-05
5.17397e-08
-0.000122715
-4.86674e-08
9.68184e-09
-1.41672e-07
-6.55562e-09
4.65475e-06
-0.000176758
-2.03829e-09
-6.67151e-07
-6.03411e-08
-1.00296e-07
-0.000283631
-1.68238e-09
2.27819e-06
-7.12408e-05
1.71171e-08
8.1793e-06
-2.76717e-06
0.0134047
1.45178e-08
4.48824e-08
3.03991e-06
-4.01535e-07
1.07692e-08
1.16555e-08
3.26505e-07
0.00222451
-1.38768e-08
-1.15965e-08
0.000539428
5.24291e-08
1.17927e-08
0.00100625
-4.11977e-09
-3.37933e-08
0.000149343
0.000279811
0.000404256
4.98457e-09
-4.87015e-08
-1.07152e-08
2.01217e-09
-1.13338e-09
9.95827e-07
0.000362912
5.73935e-08
1.68584e-06
-1.8104e-09
-0.0017051
7.29459e-09
2.20049e-08
5.42126e-08
4.18085e-09
0.000328818
-0.000300379
3.99985e-08
-1.27399e-07
2.32887e-08
-1.66279e-07
-1.31363e-09
-5.73859e-09
-5.63315e-08
-3.47291e-09
1.94006e-06
1.45781e-08
8.4451e-07
5.59411e-06
-3.89552e-09
-3.32587e-07
-4.66252e-08
-3.6285e-08
-6.96922e-05
-1.27396e-09
2.44253e-07
-0.00029884
1.56996e-06
-3.13497e-09
0.000858914
3.27126e-08
2.17345e-08
-2.75241e-09
-0.00092069
-1.73013e-09
0.000333244
1.33595e-09
1.25372e-08
-0.000597395
-1.23974e-07
4.2208e-08
6.70565e-09
-4.95491e-08
-0.00554497
-6.33071e-09
-9.34683e-10
0.000325296
-0.00120325
-5.25679e-08
0.000131574
1.34149e-08
5.48391e-07
7.41111e-09
4.78644e-08
-8.23648e-08
0.000363561
0.00113908
1.07762e-09
-8.00045e-10
0.00125604
-2.82645e-08
-0.000125876
-0.001582
1.124e-09
-0.00417484
0.000341169
2.27494e-08
-0.00122825
9.56365e-09
-3.47734e-10
-4.52748e-09
-1.00859e-07
0.00154846
1.95389e-07
-4.29118e-08
-0.00516994
-3.06157e-08
-1.49334e-08
1.92495e-07
-4.21242e-09
-4.9708e-10
-2.73565e-09
-1.33887e-07
2.85665e-08
-5.98737e-08
0.000314191
-0.00154642
5.10895e-09
1.26225e-08
3.22019e-10
0.00141365
-4.38402e-07
-1.3563e-07
7.90833e-09
3.988e-08
-5.11534e-09
-0.000719584
-2.6841e-09
-0.000303565
-1.18646e-06
-1.1661e-08
-1.88493e-09
-3.22058e-08
-1.27671e-07
0.00253996
1.42037e-09
-3.72671e-08
7.36241e-08
3.75592e-09
4.42933e-09
0.000171698
-0.00266644
0.000261088
-9.89018e-09
1.31147e-07
1.31492e-06
0.00273749
-9.59756e-08
2.39854e-07
-4.14139e-08
-0.000251163
5.30758e-08
-7.22784e-08
-0.000213599
-5.03409e-08
-3.09086e-09
-1.18662e-08
1.09636e-09
-0.000179636
-1.12707e-08
5.7245e-07
-0.00505585
-1.3819e-08
1.86126e-08
-0.000102675
7.94569e-09
-1.85163e-09
3.69533e-08
-3.15208e-08
3.01033e-08
8.0332e-08
-4.32598e-09
1.19093e-08
-6.17965e-07
-2.21258e-09
1.13306e-08
-0.00026799
-4.49283e-08
-2.54843e-08
1.95184e-08
-5.06704e-08
2.98991e-09
3.91627e-09
0.000166437
-9.26189e-09
-6.05441e-07
3.95587e-07
7.81926e-09
4.80141e-12
5.13602e-10
4.19057e-08
-4.1198e-09
1.26568e-06
-0.000161207
-4.17883e-08
-5.06045e-08
-2.03842e-09
-3.8397e-08
2.09996e-08
0.00221856
3.40724e-06
1.07061e-08
-4.59365e-08
-0.000304212
2.27075e-08
0.0017416
1.3926e-08
0.00090698
2.88379e-11
1.62059e-08
-0.000282529
-0.000214256
-1.74905e-10
-2.45649e-08
5.20869e-09
5.92452e-10
1.92323e-05
2.68724e-06
-0.000288658
-3.42234e-08
-5.03201e-08
-1.53778e-08
3.95254e-08
-7.78301e-05
-6.78376e-06
-5.31774e-09
-0.000300898
-6.27976e-08
2.97526e-09
-1.31028e-09
-2.35334e-09
-2.66893e-08
5.98589e-08
-0.000599708
-9.53106e-09
-1.67285e-05
-0.0028631
-4.57725e-09
-9.48239e-09
-0.000403968
-3.71182e-05
-3.75114e-09
-2.43043e-07
6.23119e-05
-4.26638e-09
-1.28722e-06
-3.64171e-08
-2.05983e-07
1.01646e-07
-5.64909e-06
2.48618e-08
-0.000303382
-6.54086e-07
-2.29055e-09
-2.57046e-08
-2.11724e-08
-1.5738e-09
-8.23372e-07
-0.00341579
2.95317e-09
4.98331e-10
1.83097e-08
7.36419e-05
-4.35837e-08
2.71502e-08
2.41067e-10
-0.000227625
-0.000329786
7.10754e-06
0.000237671
-0.00230979
-4.23062e-08
-2.2248e-06
-6.96578e-09
-3.1569e-08
1.05665e-08
2.33926e-06
1.8685e-10
-2.97651e-06
-4.64417e-08
-3.30682e-08
-0.000570474
-3.67995e-08
-1.5759e-08
-0.000302328
4.09149e-08
-3.31166e-09
-1.6494e-09
-4.1047e-09
0.0032962
-1.27402e-07
5.58459e-08
-4.15642e-08
-1.57368e-08
-0.000362803
2.7545e-06
1.82889e-10
0.000397828
6.11634e-08
4.88432e-09
0.00317924
3.94145e-10
0.000277648
-6.6427e-09
0.000252109
6.87807e-08
1.09121e-08
0.00180798
-3.23491e-08
2.52765e-08
-4.68359e-10
0.000298927
0.000986457
4.35654e-08
-2.84017e-08
3.40673e-08
-0.000161425
0.000302451
0.00103365
-3.93046e-05
-1.16709e-08
4.07171e-09
4.73942e-08
-7.54332e-08
-2.98522e-08
-1.2545e-09
4.40534e-08
-2.3252e-09
-2.67551e-09
-0.00107167
7.11005e-08
6.08168e-07
-1.56022e-08
-1.52495e-07
-3.20027e-09
4.13624e-07
0.000341982
2.74149e-08
-9.70691e-09
3.16879e-10
-8.95756e-07
-1.29678e-08
-0.000447369
-8.6089e-08
1.00629e-05
-4.12035e-09
1.04727e-08
3.24839e-05
-0.000797115
-1.23821e-10
-0.00111738
2.70826e-08
-1.20622e-09
3.36681e-09
-3.71302e-08
0.000699715
-4.11386e-07
-1.34484e-08
-9.09596e-09
-0.00548513
-9.48205e-09
-1.64105e-07
8.03193e-10
0.000374137
-8.67823e-10
-1.03011e-09
3.19603e-08
6.3846e-08
-3.24755e-08
8.92534e-07
3.73963e-08
6.98714e-08
-2.22402e-07
9.7157e-07
2.09846e-08
-0.00466054
1.96213e-08
-0.000238389
0.000272948
-2.41805e-05
1.097e-08
-0.000354818
2.54908e-08
5.89736e-09
-6.48294e-10
5.89457e-09
3.24846e-06
1.99794e-10
4.53903e-06
4.51421e-08
3.20011e-05
-8.25693e-10
5.99341e-10
1.02546e-08
-0.00264149
4.30106e-09
0.000963199
-3.45007e-06
-3.99467e-08
-0.00245886
2.49356e-06
3.02872e-08
-0.000279492
-2.38196e-09
-8.68545e-08
-6.02759e-08
7.13768e-08
6.83816e-08
2.94402e-07
-7.9556e-09
-1.80578e-09
-1.42916e-05
-2.87807e-09
3.73268e-09
2.28652e-09
1.46768e-09
6.33232e-10
-5.59633e-08
-1.1137e-08
-1.60691e-05
-1.78932e-07
1.09395e-06
-5.04435e-08
-1.93648e-08
3.66838e-06
-3.7899e-08
5.94783e-08
6.63007e-09
-3.11241e-08
1.54768e-06
0.00175986
-4.76651e-08
5.2238e-06
-3.73269e-09
-0.00251261
7.96497e-08
1.88515e-08
-1.93792e-09
-1.33784e-06
1.03862e-07
-1.91938e-08
-0.000144591
-4.13127e-09
-9.57324e-09
-4.57501e-05
-1.42038e-08
7.95392e-09
2.71854e-08
-4.65662e-10
4.72854e-08
-2.4359e-08
3.42325e-06
-3.38184e-08
1.67111e-08
-4.05403e-08
-9.37232e-08
-1.12169e-08
-0.000593571
-0.00152215
-9.05565e-09
4.27836e-09
2.61749e-06
0.000354731
-2.69579e-09
-8.75062e-09
4.34678e-08
-8.05322e-05
4.34694e-09
6.92828e-08
-1.01231e-05
-2.31498e-09
4.27273e-08
-9.16568e-08
1.75712e-11
-4.73812e-08
-0.000243074
-1.34943e-06
4.8717e-09
1.33106e-08
-4.77616e-08
6.0054e-09
2.69835e-05
0.000323504
-0.000458976
-1.586e-08
-5.8696e-07
0.00193203
-1.00312e-08
0.0031912
3.6874e-06
-3.46812e-09
-4.65678e-08
-3.0665e-08
-4.64458e-09
-2.00512e-08
5.52706e-06
1.95491e-08
1.4447e-08
-4.08771e-08
4.59161e-08
-4.94904e-09
7.67887e-07
0.000354502
4.86126e-09
-8.53551e-09
-0.000412767
1.94732e-06
4.76665e-08
1.94848e-06
2.97202e-08
4.02138e-08
2.91655e-06
-2.77753e-08
-9.92122e-09
7.32484e-08
2.18105e-08
3.78419e-06
2.28428e-10
-1.33023e-09
-4.33559e-10
-2.89089e-08
0.000270567
-1.26354e-07
4.12865e-06
-0.00189045
9.03362e-08
9.94017e-05
-5.58293e-08
-2.26158e-09
-4.39318e-08
-2.91842e-08
1.1822e-08
-6.13444e-05
3.31518e-06
-2.71076e-09
2.42668e-07
-0.00545406
1.3262e-06
2.30859e-08
1.62048e-08
-7.79197e-05
2.26979e-08
9.33077e-10
-0.000185061
2.8381e-08
-1.50555e-09
-3.09663e-08
-1.9647e-08
4.8534e-08
2.90444e-08
-1.18692e-07
-4.02698e-09
0.00194942
-0.0828927
1.51548e-07
2.79414e-08
-7.69864e-07
2.08183e-06
-4.58224e-09
3.98597e-09
2.14865e-08
-4.1103e-09
-5.51076e-08
2.2281e-08
-1.43223e-09
-2.3437e-06
4.8427e-06
-2.07895e-08
1.23616e-08
1.58704e-08
-0.000155818
0.000249756
1.03196e-08
3.4369e-06
3.47007e-09
1.17801e-06
-3.4797e-09
-6.03662e-08
4.3138e-09
2.29121e-08
5.92237e-08
-2.56385e-09
-2.50865e-08
0.000316497
-5.70342e-08
-6.79204e-07
-2.6902e-08
1.09219e-08
-0.000141199
1.55459e-07
0.000228724
-4.15138e-06
-0.00115148
-4.17194e-08
-3.53996e-08
4.82067e-08
2.58001e-08
0.000291709
1.33851e-05
7.01692e-09
-2.25152e-08
0.000313344
1.08761e-06
-4.7695e-09
-4.42148e-08
0.00311191
-1.9747e-08
-3.61506e-08
-7.13207e-05
1.45578e-09
9.34024e-07
-0.000429921
-3.20785e-09
1.14996e-06
-1.44987e-08
3.57917e-08
-0.00026442
6.63748e-09
2.25559e-08
4.0838e-06
1.31236e-06
2.18197e-08
-2.67392e-08
3.4348e-07
6.86662e-08
0.000262599
-0.00172238
0.000122473
0.00028682
5.78208e-09
-5.7353e-10
1.11646e-06
1.87679e-06
-0.00183332
-0.000138968
-0.000186682
6.53274e-08
-3.12952e-09
-5.1867e-09
-6.23799e-09
3.66468e-08
1.1537e-08
0.00152851
-7.05421e-07
0.000316445
-2.82172e-08
-4.36334e-08
2.24755e-08
-1.2947e-05
-3.03536e-08
7.35994e-08
-1.06044e-08
4.42511e-06
-4.36792e-08
-0.000536487
-0.000755602
0.000300672
0.00082588
2.06665e-08
-3.91761e-08
-0.000183272
-2.36018e-08
-7.1722e-07
1.49208e-07
-6.58932e-09
0.00241933
-2.92821e-07
2.10483e-07
-2.76505e-08
-6.53296e-09
2.13997e-09
-0.000389017
0.000272189
-1.0728e-08
2.3759e-08
-0.000330511
-4.17309e-08
6.39646e-06
1.57919e-06
-1.45759e-07
-1.78169e-08
-2.83885e-09
5.18025e-07
7.87438e-07
7.82712e-06
-2.0463e-10
-3.26434e-08
1.2621e-07
1.22141e-08
-6.36034e-08
9.42429e-07
1.20851e-08
-7.35503e-08
-4.68674e-08
9.53579e-09
-1.13781e-09
-0.000185583
5.18216e-08
3.18004e-08
5.3683e-07
4.81034e-08
-0.000604064
-1.27765e-08
-3.62423e-08
-2.38658e-08
0.00309989
5.04734e-09
-1.66148e-07
-5.49705e-08
-1.56328e-08
-3.16594e-08
-4.8269e-08
1.70919e-09
-5.61713e-08
7.24431e-09
-2.88423e-08
-2.92013e-08
-1.38165e-07
-0.000261105
1.31046e-08
3.23686e-05
-0.000287206
-3.91629e-08
2.15156e-06
3.99153e-08
1.16387e-09
-9.89925e-08
0.000310632
1.15888e-06
-9.44576e-08
-0.000558989
-0.000707518
-0.00059112
4.37333e-10
3.63676e-09
7.40653e-08
-4.01727e-05
3.77029e-06
-0.000636313
-2.206e-08
-6.13687e-08
-1.89194e-08
-3.46661e-08
3.82549e-06
1.60052e-06
3.73818e-06
-1.01168e-05
8.82532e-09
2.29378e-08
9.08745e-10
6.38586e-08
-1.07901e-06
-2.09641e-05
-2.54691e-08
1.92425e-10
-2.87029e-08
1.84545e-08
-0.00108514
-8.91863e-07
-1.27579e-06
2.50976e-07
-0.00664924
-2.90634e-08
3.40556e-08
-0.00321734
1.29527e-06
9.63004e-06
0.00249881
3.85373e-06
-8.14753e-09
-5.41341e-08
-0.000155011
5.84786e-09
-0.00512203
7.10518e-08
-4.64542e-09
1.85532e-07
-4.97507e-09
-6.66797e-09
-0.00101134
-1.25367e-09
-0.000181868
4.94913e-06
4.72817e-08
1.64861e-08
-0.00558595
-5.06628e-08
-4.0831e-09
-0.000166761
0.00325684
-3.7735e-08
-1.37433e-09
1.03014e-08
2.63866e-08
3.37142e-08
-7.63761e-06
2.30338e-08
3.33051e-06
-9.35752e-09
-7.74164e-09
4.77415e-05
-2.27175e-08
-4.96207e-08
4.91517e-10
0.00239136
2.07036e-07
-8.11312e-09
-2.30725e-08
-4.7945e-08
-2.72594e-07
-0.000177135
2.26118e-08
-1.44322e-08
1.83866e-08
-1.37591e-09
1.79894e-08
5.14244e-08
-4.87492e-08
-0.000405467
5.44398e-08
2.96094e-08
-8.91867e-08
7.4878e-09
0.00314682
2.76785e-08
1.72362e-05
2.15986e-06
-1.6097e-08
-4.01802e-09
-5.73783e-08
-3.70262e-08
-0.000253269
4.47662e-08
-3.31692e-08
-0.000464782
-6.21045e-08
-8.07101e-08
-1.01505e-08
-3.56932e-09
-2.81191e-08
2.19846e-08
-0.0019299
3.48468e-06
-6.75213e-10
2.8669e-08
-1.51071e-08
-0.000136012
-1.65529e-06
-2.79803e-08
-2.98543e-08
7.39499e-09
1.50394e-08
1.68482e-06
-9.46295e-09
-4.61939e-08
7.33212e-09
0.000308599
-0.00660235
-1.37326e-08
-1.77205e-07
4.89942e-06
2.1726e-08
-1.67281e-08
3.15405e-09
-4.10401e-09
3.75197e-09
-1.27188e-08
-2.13519e-08
-3.52427e-06
8.48095e-07
-4.15495e-06
0.00278049
0.00113428
-4.10356e-08
-4.25526e-08
-1.06346e-08
0.00146071
9.14253e-08
-3.84085e-08
-1.62208e-10
3.8558e-06
3.28516e-07
2.92192e-06
1.82745e-06
-6.65215e-09
0.000279113
-5.48183e-08
-1.36111e-05
-1.96865e-08
-1.36218e-12
0.000913591
1.21704e-07
-1.41309e-08
3.01505e-07
-0.000210831
-0.00628834
2.87988e-09
-1.3112e-08
-4.45397e-05
-5.38906e-08
1.28917e-08
-2.39255e-08
-5.54264e-09
-0.000252846
-4.16725e-09
-9.96348e-09
-0.000370926
-0.000268004
5.11015e-09
3.10583e-08
-2.2478e-08
2.60043e-08
-0.00131435
-0.000195182
-7.42584e-06
-3.28467e-07
-0.00571732
0.00139505
4.00787e-09
4.06672e-05
-0.0012922
0.00191177
-0.00120976
-1.05816e-08
-3.21814e-08
-4.56354e-09
1.3817e-09
-5.67078e-08
4.97942e-10
9.45892e-09
-0.00254358
-5.16656e-08
1.6702e-08
-7.50648e-08
-0.000334591
-4.37997e-08
-0.000260947
-0.000610052
0.000322747
-3.90602e-08
1.03124e-08
-5.29254e-08
-0.000189486
-5.82929e-08
3.08211e-09
-2.47543e-08
-0.000263762
-0.00289573
-1.04062e-08
4.49823e-09
1.82959e-05
-5.94689e-09
1.12601e-07
-4.25148e-09
-0.000126632
-1.36797e-08
1.20157e-08
-0.000874785
-3.50326e-08
8.49598e-06
1.09222e-08
-4.58368e-08
-5.39332e-08
-9.28178e-08
3.48993e-08
-2.77966e-08
-1.32677e-05
-1.46806e-08
-2.83701e-09
-9.6362e-05
-1.08504e-05
7.15823e-08
5.7789e-07
-9.75982e-10
1.47128e-05
4.65593e-09
1.05876e-08
-3.80284e-08
1.0938e-08
4.62845e-08
2.45153e-08
-3.84081e-08
-4.7005e-08
1.57023e-08
1.9484e-05
1.53201e-09
2.77142e-08
1.10256e-08
6.80602e-08
1.36497e-08
-8.038e-09
-0.000566662
-2.45465e-08
1.81409e-08
-6.36422e-05
-2.93918e-08
-0.00327839
2.69272e-06
7.67924e-09
-4.22843e-08
9.23426e-06
-9.04491e-08
-0.000168584
-1.95841e-08
8.67668e-08
3.2133e-08
1.78073e-09
-0.000597781
2.31786e-08
-0.000363805
-3.84143e-08
5.04384e-08
3.773e-08
2.61048e-05
-5.8489e-08
5.6408e-09
4.3186e-06
-6.85043e-09
-2.78507e-08
-3.67166e-08
0.000823583
-0.00270922
0.00164309
0.000349426
5.47313e-08
1.75528e-08
-4.48921e-08
6.51071e-09
4.78025e-09
-2.54145e-09
2.35459e-06
-3.82221e-09
-5.77849e-08
7.32457e-09
-0.00269306
-0.00043633
-6.21427e-08
1.65697e-08
2.04299e-07
0.0029244
2.15475e-09
-1.50351e-08
1.91226e-05
7.97553e-09
4.9591e-08
-1.39112e-05
2.29032e-08
6.16546e-11
-2.90594e-06
-0.000121702
8.62933e-10
5.49586e-08
2.11484e-08
2.70306e-09
-3.04832e-08
-3.98788e-08
0.000309535
-5.61932e-10
-8.52191e-09
1.7986e-10
4.32723e-08
-0.00189934
-4.74399e-08
3.57229e-10
-0.000193879
-6.67909e-09
-4.37933e-07
7.11242e-08
-9.15759e-09
-5.50603e-08
1.10398e-06
-6.31964e-09
-3.9793e-08
-4.44832e-08
-2.60973e-10
1.13101e-08
-0.000286378
1.38497e-09
1.72859e-06
6.39998e-06
-2.95838e-08
-0.000439279
3.80652e-05
9.99906e-11
-3.27565e-08
6.19974e-10
-2.84044e-09
-1.82821e-05
-2.42923e-08
-8.99062e-10
1.40451e-08
-0.000201328
-2.04239e-08
-0.00221739
-1.85835e-08
-1.44034e-08
4.72019e-07
-5.04667e-09
-9.3179e-09
2.20298e-08
-0.000865611
-3.97589e-08
4.52902e-05
-1.18084e-09
-0.000583928
-1.31269e-06
-2.76534e-08
8.24943e-05
-1.59243e-08
-3.23289e-08
2.7956e-09
1.31105e-08
-4.03556e-08
-3.41167e-08
0.00101766
1.07451e-07
1.79032e-09
-2.64099e-08
2.49763e-10
-0.00452505
-0.00179132
-0.000828573
-1.42884e-08
6.27795e-08
-1.4896e-06
7.56689e-09
-0.00387742
-1.80695e-08
-3.47002e-09
4.43621e-05
-2.65516e-09
-7.56437e-08
-2.91913e-09
-4.61959e-08
7.17973e-08
-6.23422e-09
-4.76151e-09
-1.59161e-08
-2.88464e-09
2.01135e-05
2.39625e-06
8.24552e-05
0.000527903
-5.83212e-09
-4.07705e-08
2.48715e-06
-1.3835e-08
2.26512e-05
-0.000252883
-1.04423e-08
-5.67216e-09
2.63436e-10
-1.50123e-08
8.29224e-06
4.20519e-08
-3.42925e-08
-1.74104e-09
0.000832433
0.00156342
2.21716e-08
1.18513e-07
6.01208e-07
5.05166e-07
2.60147e-06
2.20543e-10
-0.00464627
0.000456786
-1.33943e-08
1.91003e-09
0.00172379
3.82057e-05
-1.44305e-07
9.82601e-05
4.72736e-08
-4.85482e-08
7.58216e-10
0.00419145
-1.7339e-07
5.44666e-09
4.30112e-08
-0.000655188
-4.00364e-08
-6.50327e-10
-6.10086e-08
-2.20423e-06
-1.81821e-08
-0.000252554
1.63439e-07
-0.00203462
1.45409e-08
-4.20985e-09
-9.6006e-08
-2.68023e-09
2.60092e-06
-5.83417e-07
0.000700773
0.00397272
5.74519e-05
-3.03965e-08
4.60049e-09
1.73662e-08
-2.54755e-08
-0.000136207
-3.30043e-07
-0.00120275
0.00232988
-3.39593e-08
-3.99892e-08
3.34898e-07
-2.29435e-09
-3.35291e-06
1.45652e-08
-5.2133e-08
-0.00116981
8.46449e-11
-3.73589e-08
-2.38001e-08
1.58515e-08
-3.74859e-08
-1.32832e-08
0.000291651
1.99268e-06
-1.35571e-07
-0.00038688
7.82703e-06
-9.78915e-05
-7.62081e-10
-0.001736
-0.00196454
0.000930665
-2.51093e-09
-5.89547e-09
-1.46483e-08
-3.41239e-09
-0.00164443
-0.000914157
1.41481e-08
-9.15194e-09
6.02018e-06
0.0008782
6.10768e-10
-9.58109e-09
-3.67583e-08
1.32265e-08
-2.6874e-08
-0.000288282
1.00186e-09
-1.89515e-07
-0.000743537
5.7203e-06
0.000258174
1.4074e-07
-2.92135e-09
4.3526e-09
1.91758e-08
-5.76659e-08
-0.00463232
-1.9831e-08
5.57268e-08
-9.30391e-08
-0.000285358
-2.97813e-09
1.08752e-08
4.47328e-07
-0.000120135
7.37703e-08
-0.000319145
9.98152e-07
-2.48216e-08
5.82664e-09
2.34202e-08
-0.00021966
6.24871e-09
6.44386e-09
-1.06606e-08
-2.49787e-06
-0.00321286
-2.17265e-08
-9.14321e-09
-0.00192425
-1.42597e-07
-3.24226e-08
7.72535e-10
-8.59957e-09
7.6612e-09
2.32067e-09
-0.0108376
-0.000127975
3.60718e-06
1.5632e-08
-1.26157e-08
1.13784e-08
3.03681e-07
-6.10192e-08
-1.22411e-08
1.3138e-07
1.45953e-09
9.04625e-07
0.00271515
5.91446e-05
-0.00168191
-1.26123e-08
8.05961e-10
-7.97113e-05
1.4976e-08
-5.60942e-05
0.000198468
-8.13452e-09
3.20392e-10
-4.92153e-08
-2.2526e-08
-0.000129123
-1.11523e-07
-0.00175381
-1.29013e-08