/*--------------------------------*- C++ -*----------------------------------*\
| =========                 |                                                 |
| \\      /  F ield         | OpenFOAM: The Open Source CFD Toolbox           |
|  \\    /   O peration     | Version:  v2012                                 |
|   \\  /    A nd           | Website:  www.openfoam.com                      |
|    \\/     M anipulation  |                                                 |
\*---------------------------------------------------------------------------*/
FoamFile
{
    version     2.0;
    format      ascii;
    class       surfaceScalarField;
    location    "200";
    object      ddtCorrDdt0(phi);
}
// * * * * * * * * * * * * * * * * * * * * * * * * * * * * * * * * * * * * * //

dimensions      [0 3 -2 0 0 0 0];
oriented        oriented;


internalField   nonuniform List<scalar> 
79099
(
1.50497e-05
3.66198e-05
-5.16693e-05
-9.33862e-05
-0.000263096
0.000356484
-1.79286e-05
2.68949e-05
-8.96622e-06
-8.1355e-05
3.22067e-05
4.9147e-05
-5.67974e-05
5.38557e-05
2.94185e-06
0.0002567
-0.000250408
-6.29011e-06
-2.51134e-05
3.26093e-05
-7.49617e-06
-3.49397e-05
4.99893e-05
-1.65788e-05
3.78839e-05
-2.13052e-05
5.52718e-06
1.75234e-05
-2.30508e-05
-0.000124493
-0.000151195
0.000275686
1.02105e-05
-4.01e-05
2.98894e-05
0.000732671
-0.000302388
-0.000430282
0.000441525
-0.000908924
0.000467377
4.77666e-06
1.9093e-05
-2.38697e-05
-1.20833e-05
1.84005e-05
-6.31694e-06
-7.30277e-05
3.32243e-05
3.98029e-05
-1.97198e-05
7.63679e-06
7.28655e-05
-0.000315304
0.000242435
7.76472e-05
-6.97443e-06
-7.06726e-05
3.99051e-05
-5.69981e-05
1.7093e-05
6.20099e-05
-1.06342e-05
-5.13757e-05
-5.15939e-07
1.33666e-05
-1.28507e-05
-3.13972e-05
6.28353e-06
-2.64788e-05
-2.1495e-05
4.79733e-05
-6.44006e-05
0.000105546
-4.11433e-05
-0.000458614
0.000900119
9.56989e-05
-5.98323e-05
-3.58662e-05
0.000314499
-0.000766128
0.000451609
-0.000584824
0.000376777
0.00020805
4.88185e-06
-0.000562044
0.000557159
0.000495605
-0.00035587
-0.000139731
-0.000131837
0.000352914
-0.000221069
1.8493e-05
1.84963e-05
-3.69892e-05
1.27978e-05
-8.64817e-06
-4.14968e-06
-3.12948e-05
-6.02823e-06
3.73229e-05
1.21861e-06
2.89266e-05
-3.01451e-05
-1.56866e-06
1.69315e-06
-1.24454e-07
-2.3726e-05
1.8746e-06
2.18514e-05
2.15592e-05
1.31769e-05
-3.47359e-05
-3.13056e-05
3.25242e-05
0.000173475
1.46315e-05
-0.000188102
-0.000204919
-7.33245e-05
0.000278241
0.000266529
-3.95483e-06
-0.000262573
1.69478e-05
6.06995e-05
-1.52185e-05
2.36017e-05
-8.38347e-06
-4.06181e-05
2.30696e-05
1.75484e-05
-7.00422e-06
-4.84039e-05
5.54087e-05
0.000317312
-0.000422528
0.000105215
-1.498e-05
2.62631e-05
-1.1283e-05
-1.20684e-06
-1.11778e-06
2.32457e-06
-3.13928e-05
3.90142e-05
-7.62323e-06
-5.52726e-05
2.9353e-06
5.23371e-05
-1.35253e-05
5.09953e-06
8.42575e-06
7.68305e-05
-0.000122885
4.60547e-05
-0.000228989
0.000301851
6.90597e-05
-9.2817e-06
-5.97778e-05
-8.34852e-06
1.42908e-05
-5.94237e-06
0.000191738
-0.000577847
0.000386113
-0.000126333
9.34505e-06
0.000116988
3.79734e-05
-2.13865e-05
-1.65868e-05
-8.91133e-06
-2.94638e-05
3.83751e-05
-0.000223096
0.000163469
5.96262e-05
7.44236e-05
-0.00061107
0.000536642
2.68115e-05
4.42712e-05
-7.10827e-05
1.4198e-05
-3.72529e-05
2.30547e-05
-0.000386236
-0.000198591
-1.99381e-05
-2.06802e-05
6.29483e-06
-1.39646e-05
7.66971e-06
-1.8221e-05
-3.90028e-06
2.21213e-05
-2.05492e-05
0.000137143
-0.000116593
8.93857e-06
1.22523e-06
-1.01639e-05
8.76532e-06
2.95302e-05
-3.82953e-05
-0.000337545
0.000205716
-9.7134e-05
3.27197e-05
1.22462e-05
-8.53572e-06
-3.71047e-06
1.33992e-05
-7.62981e-06
-5.76955e-06
0.000223383
3.33174e-05
6.06809e-06
-1.72455e-05
1.11777e-05
-9.66813e-05
7.61317e-05
-0.000179831
-7.05737e-05
-0.000406973
0.000382132
2.48446e-05
-0.000380389
0.000231983
0.000148406
-7.64398e-05
-3.68559e-06
8.01249e-05
3.58571e-05
-2.85843e-05
-7.27308e-06
-2.70645e-05
8.84358e-06
-1.38582e-05
-3.76352e-05
5.14932e-05
-4.12623e-05
2.46835e-05
-2.14197e-05
3.56178e-05
-6.66256e-05
-1.33464e-05
7.99718e-05
7.69572e-05
-9.66231e-05
1.96649e-05
0.000267709
-0.000105285
-0.000162419
-0.00039346
-1.35117e-05
0.000127644
2.81301e-05
-0.000155773
-0.0003514
-0.000244426
0.000595831
-0.000291536
2.20329e-05
0.000269506
0.000402979
0.000210823
-0.000613804
7.52048e-06
-2.5449e-05
-0.000217045
9.00349e-05
0.000127015
-0.000188092
-3.50043e-05
6.20853e-05
3.66639e-05
-1.51048e-05
3.63744e-06
-0.000226863
0.000223226
4.71351e-05
4.85644e-05
5.51116e-05
-3.67989e-05
-1.83125e-05
0.000162066
-0.000139632
-2.24336e-05
-0.000127023
0.000176074
-4.90511e-05
1.02972e-05
-4.1592e-05
-0.000305993
0.00020318
0.000102815
1.08352e-05
-1.89673e-06
6.04431e-05
-5.82293e-05
-2.21444e-06
0.000235449
-0.000322409
8.69597e-05
1.01591e-05
3.24018e-06
-0.000593459
0.000242062
-0.000526189
-0.000245209
0.000771398
7.19379e-06
-7.33499e-07
-6.46034e-06
-5.7637e-05
-1.07496e-05
6.83867e-05
8.46733e-06
5.49227e-06
-1.39595e-05
0.000456424
-0.00055403
6.18334e-05
-8.86227e-05
2.67893e-05
-4.67478e-05
-1.00484e-05
4.64846e-05
-3.77191e-05
8.4137e-06
-2.60301e-05
1.76163e-05
0.000104706
-3.98432e-05
-6.48614e-05
-0.000269418
8.95893e-05
-1.59842e-05
-2.48829e-05
4.0867e-05
-7.44575e-05
9.04331e-05
-1.59772e-05
0.000418338
-0.000451934
3.35962e-05
0.000133488
-3.70522e-05
-9.64346e-05
-2.9378e-05
7.35323e-06
2.20244e-05
0.00012963
0.000365976
-2.40623e-05
3.36306e-05
-9.56846e-06
-1.72117e-05
-5.9228e-05
-2.04043e-05
-2.04482e-05
4.08527e-05
1.92629e-06
-1.25819e-05
1.06558e-05
0.000522997
-0.000331261
4.05883e-05
1.68709e-06
-4.22753e-05
0.000268611
0.00046406
1.76392e-05
7.95924e-06
-2.55989e-05
3.37846e-05
-2.91496e-05
-4.63497e-06
1.99866e-05
-1.63199e-05
-3.66579e-06
2.65912e-05
-2.60935e-05
-4.9759e-07
-1.92855e-05
3.14865e-05
-1.22004e-05
-0.000628976
0.00018948
0.000439497
5.86864e-05
7.48012e-05
-1.33141e-06
-2.13464e-05
2.26781e-05
-4.75331e-05
-1.01035e-05
-1.01253e-05
1.22594e-05
-2.13404e-06
3.06473e-05
-4.81976e-06
-2.58278e-05
7.79026e-06
-3.20957e-05
2.43056e-05
-7.46256e-07
3.20184e-05
-3.12721e-05
0.00014035
2.3119e-05
1.95887e-05
3.42672e-05
7.13248e-06
5.48775e-05
-2.66343e-05
1.9441e-05
7.19338e-06
-5.16454e-05
-3.62715e-06
0.000674168
-0.000872448
0.000198278
0.000270442
-0.000168132
-0.000102289
1.21839e-05
-4.14844e-05
2.93006e-05
-2.82684e-05
0.000107977
-7.97081e-05
5.63943e-05
-3.56822e-06
-5.28263e-05
-2.35349e-05
8.55496e-06
2.44055e-05
-2.90092e-06
-2.15045e-05
0.000190062
7.76486e-05
8.4293e-07
-3.49582e-05
3.41153e-05
1.99174e-06
-1.99165e-06
-1.33322e-05
3.64005e-05
-2.30683e-05
-2.28406e-05
3.98853e-05
-1.70446e-05
-1.65619e-05
6.64737e-07
1.58972e-05
1.81692e-05
5.45368e-06
-2.36238e-05
4.9215e-05
-3.86682e-05
-1.05467e-05
-0.000431002
0.000466925
-3.59313e-05
0.000254875
-0.000454694
0.000199818
-1.91664e-05
-1.65795e-05
3.57459e-05
1.70818e-05
8.76314e-05
-1.42233e-05
2.14327e-05
-7.20965e-06
1.21295e-06
3.4644e-05
1.3617e-05
-0.000305154
5.9017e-05
-7.28754e-05
3.37733e-05
-4.99012e-05
1.61285e-05
2.86246e-05
-2.0211e-05
3.8212e-05
-3.73691e-05
-1.9278e-05
0.000285807
-1.02783e-05
-1.35743e-05
2.38523e-05
-3.24607e-05
4.26712e-05
0.000685373
-0.00061095
0.000167851
-0.00011613
-5.17184e-05
-0.000141501
0.000396376
0.000146657
-0.000144751
-1.9062e-06
-1.33517e-05
3.22638e-06
0.000348803
-0.000113353
2.19174e-05
7.45743e-06
-2.93748e-05
3.66792e-05
3.32378e-05
-6.99171e-05
7.0978e-05
-9.14416e-06
-2.9055e-05
3.76032e-05
-8.54829e-06
4.69001e-05
-4.45514e-05
-2.34866e-06
2.10371e-05
2.89691e-05
-5.00061e-05
-1.2038e-05
8.30516e-06
3.73292e-06
1.44194e-05
-2.87087e-05
1.42893e-05
-2.97049e-06
2.5884e-05
-2.29125e-05
-5.60469e-05
-5.3294e-05
0.000109341
3.26728e-05
-5.4436e-06
-2.72292e-05
4.52605e-05
-6.35332e-05
1.82721e-05
-2.02808e-05
-5.13912e-06
2.54197e-05
-0.000358413
1.12266e-06
0.000357291
-0.000224809
0.000180624
4.41867e-05
7.26114e-05
-3.36221e-05
-3.89887e-05
1.46448e-05
6.62634e-06
-2.12711e-05
3.6138e-06
3.21941e-05
-3.5807e-05
-6.86966e-06
1.35807e-05
-6.71098e-06
-0.000188348
6.13235e-05
-2.32033e-05
3.66057e-05
-1.34029e-05
0.000310893
-0.000679718
0.000368825
-2.84342e-05
9.74184e-06
1.86922e-05
-0.000165225
-0.00014076
3.08695e-05
-2.95845e-05
-1.28486e-06
-2.41238e-05
-7.83175e-06
3.19554e-05
-1.4188e-05
1.36721e-05
-2.67876e-05
-1.26244e-05
3.94155e-05
-4.78202e-05
2.67463e-05
2.10738e-05
-0.000649289
0.00026067
0.000388629
1.35655e-05
3.92216e-06
-1.74877e-05
0.000161101
-0.000360617
0.000199507
-5.7326e-06
1.9298e-05
2.0765e-05
-4.60885e-05
2.53234e-05
0.000180139
-0.000260598
8.04582e-05
3.50198e-05
-1.88984e-05
-1.61214e-05
9.01051e-06
-2.62082e-05
1.71979e-05
3.99907e-05
-3.60691e-05
-3.9212e-06
1.35266e-06
1.86347e-05
0.00066871
-0.000710289
4.15773e-05
-0.000924137
0.000757319
0.000166825
5.31217e-06
2.43051e-05
-2.96175e-05
0.000347242
0.000101471
-0.000448712
0.000134074
-0.000131411
-2.66258e-06
2.92865e-05
0.00013278
-5.72743e-05
5.25815e-05
4.6928e-06
1.17507e-05
-9.82428e-06
-3.16235e-05
2.69108e-05
4.71227e-06
-7.92923e-06
-9.75651e-06
1.76858e-05
-3.09862e-05
6.92388e-06
3.45577e-05
-1.60648e-05
0.000415489
-0.000396841
-1.86433e-05
2.95479e-05
-2.17573e-05
6.92678e-05
-7.22437e-05
2.97572e-06
4.12387e-07
-8.1977e-06
7.7854e-06
-1.58832e-05
-2.25431e-05
3.84276e-05
-0.000187789
-0.000461496
-5.2138e-06
4.82195e-06
3.91688e-07
2.10039e-06
-0.000128433
4.6929e-05
-1.65452e-05
-3.03838e-05
2.31972e-05
-2.81764e-05
4.97926e-06
-2.55471e-05
-1.16145e-06
2.67085e-05
-2.7314e-05
2.43441e-05
8.77324e-06
-3.28313e-05
2.40582e-05
0.000191779
-0.000136716
-5.5062e-05
-0.000526127
-0.000102845
-1.31276e-05
-1.56873e-05
2.88148e-05
4.18901e-06
-3.09743e-05
6.97444e-05
-1.21704e-05
-5.75739e-05
-9.03839e-05
-3.45012e-06
9.38346e-05
0.000171318
0.00035169
-4.35163e-05
2.06759e-05
1.07916e-05
-6.12906e-06
-4.66256e-06
2.91629e-05
-3.15415e-05
2.37886e-06
-0.00121412
0.000695181
0.000518924
-0.000143714
0.000197659
-5.39484e-05
-1.49604e-05
1.07907e-05
4.16982e-06
9.40728e-05
7.37794e-05
0.000390076
-0.000228981
2.15807e-05
-2.04285e-05
-4.3118e-05
2.27139e-05
-9.05393e-06
3.11186e-05
-2.2065e-05
0.000370816
4.4676e-05
1.75909e-05
0.000112205
-0.00012981
-5.06126e-06
1.92145e-05
-1.41535e-05
-4.34289e-06
-0.000354071
0.000307872
-0.000283772
-2.40907e-05
7.61979e-05
-0.000112332
3.61346e-05
5.13156e-05
-4.41529e-05
-7.16249e-06
1.2588e-05
7.78584e-07
-1.37466e-06
-1.93973e-07
-2.21172e-05
9.83154e-05
1.71162e-06
3.45663e-05
-3.62782e-05
2.64936e-05
-9.2209e-07
-2.55718e-05
-5.23708e-06
-1.84891e-05
-2.30305e-05
-3.60516e-05
5.90823e-05
-5.58596e-05
-4.60027e-05
0.000101861
3.81168e-05
-3.64051e-05
1.38785e-05
-2.41569e-05
-0.000164692
4.14997e-05
0.000123192
-0.000597708
0.000464515
0.000133193
-1.76991e-05
4.64918e-05
-2.87915e-05
-0.000586871
0.000191756
0.000395125
4.75707e-05
-7.28784e-05
2.53074e-05
4.6542e-06
7.59199e-06
-6.89446e-05
-3.52897e-05
0.000104234
-5.49928e-05
-0.000218368
0.000273351
7.56497e-05
5.15827e-05
7.87542e-08
-5.16603e-05
-4.21498e-05
2.44512e-05
7.98536e-06
0.000138671
-0.000318429
0.000376533
-5.80985e-05
-0.000106984
-0.000117833
-3.29811e-05
2.02253e-05
1.27558e-05
0.000210626
-0.000304011
2.24236e-05
-1.71125e-05
-5.31128e-06
1.23746e-05
-2.55022e-05
3.88793e-06
3.30584e-06
-2.16504e-05
3.00657e-06
1.86419e-05
0.00063058
3.81289e-05
-0.000269153
0.000587485
-0.000318334
-0.00125589
0.000903757
0.000352112
-0.000117573
2.93831e-05
8.82024e-05
-0.000197121
0.000300167
-0.000103045
-3.13054e-05
3.49196e-05
-9.40547e-08
9.40781e-08
-1.45588e-05
-2.10469e-06
1.66633e-05
-1.83067e-05
1.32454e-05
-2.83077e-05
-7.09385e-05
9.92461e-05
-0.00026346
0.00020847
0.000132358
4.11207e-05
-3.39598e-05
-2.28573e-06
3.62457e-05
2.6657e-05
-0.000144221
-0.000136315
-2.83788e-05
3.64511e-06
4.28396e-05
0.000764149
-8.99822e-05
-8.5896e-05
1.30346e-05
7.2862e-05
-9.65334e-06
-1.6981e-05
-4.69069e-05
4.43714e-05
2.53589e-06
-0.000213426
-9.71052e-06
0.000223138
1.88706e-05
-4.79258e-05
-2.61005e-06
1.17625e-06
1.43385e-06
3.86593e-05
-1.76942e-05
-2.09651e-05
1.82697e-05
-2.22872e-05
4.01751e-06
-1.67838e-05
1.7083e-05
-2.99092e-07
6.54661e-05
-2.8787e-05
2.45973e-06
-4.39184e-06
1.93205e-06
-0.000207039
0.000610016
2.26223e-05
-2.69431e-05
4.32077e-06
-1.69591e-06
-9.14124e-07
1.14304e-05
-1.55102e-05
4.07996e-06
2.33426e-06
5.40601e-05
-3.33532e-05
2.41149e-05
9.2384e-06
2.3803e-05
-1.90265e-05
-0.000530899
-0.000683233
1.73604e-05
1.52487e-05
9.57917e-05
-0.000225851
0.000130055
-0.000316238
0.000487562
-0.000201912
3.60484e-05
0.000165859
0.000302552
-9.23238e-05
-0.000210226
-0.000152958
-1.03588e-05
0.000163329
-4.73118e-05
-9.96209e-06
-7.32271e-06
6.68115e-06
6.41568e-07
-2.83521e-05
2.9757e-05
-1.40516e-06
-0.000495499
0.00022338
0.000272124
1.14131e-05
-2.71997e-05
1.57866e-05
2.04805e-05
2.42622e-05
-4.47427e-05
-9.68498e-05
6.46673e-06
-0.000204539
6.08216e-05
4.33993e-05
1.54497e-06
-4.49437e-05
2.4222e-05
-4.72522e-05
1.49965e-05
1.21394e-05
-2.71355e-05
2.3495e-05
-2.42934e-05
7.98216e-07
1.01542e-05
-4.95251e-05
3.93694e-05
-1.39741e-06
-0.000516937
0.000518333
-7.28887e-06
1.72203e-05
-9.93152e-06
6.11897e-05
4.69464e-05
-0.000108136
-4.60122e-05
2.79926e-05
1.80199e-05
-1.84558e-05
3.16903e-05
-1.32344e-05
0.000146847
-5.27723e-05
3.86547e-05
2.753e-05
-6.61845e-05
-5.30067e-05
6.69658e-05
-1.39594e-05
-0.000576739
0.000388956
-3.34324e-05
4.35867e-05
3.09152e-05
4.16961e-05
-0.000146849
0.000133186
1.36624e-05
2.64414e-05
4.80887e-05
-7.45298e-05
-0.000560715
-5.79585e-05
-0.000155464
-1.09888e-05
1.16662e-05
-6.77411e-07
-2.04664e-05
3.47327e-05
-1.42665e-05
-4.18313e-05
4.4704e-05
-2.8727e-06
8.4497e-06
6.12948e-05
-0.000166282
-3.82615e-05
8.69621e-06
-2.26197e-05
1.39235e-05
-1.6125e-05
5.60301e-05
-0.000393869
-0.000203844
-1.83871e-05
2.98002e-05
0.000508432
-0.000541213
3.2782e-05
0.000108596
0.000199279
2.04049e-06
-9.21867e-06
7.1782e-06
6.87718e-06
-2.73437e-05
2.97598e-05
1.1967e-05
-4.17274e-05
4.08139e-05
-2.31276e-05
-1.76863e-05
-3.07364e-05
3.42546e-05
-3.51826e-06
2.96446e-05
4.14008e-06
2.87613e-05
0.000105313
-1.29393e-05
-3.51762e-05
4.81157e-05
-0.000374954
5.65283e-05
6.53396e-06
-4.04937e-05
-8.0748e-05
-5.1478e-06
-4.96952e-05
2.32162e-05
0.000210767
-0.000114977
-1.34466e-05
-3.1153e-06
-5.1065e-06
-8.41879e-06
5.77804e-05
-3.30069e-05
-2.47735e-05
4.49359e-05
-2.41709e-05
-1.26414e-05
-2.07117e-05
6.37516e-05
-1.84913e-05
8.03031e-06
-1.53191e-05
-0.000369812
8.09068e-05
0.000288904
-5.12411e-07
8.7021e-06
-8.18963e-06
-6.19526e-05
1.40548e-05
4.78989e-05
-5.60814e-06
-2.42628e-05
2.98715e-05
-1.16655e-05
-6.89177e-06
-1.37471e-05
2.06389e-05
1.8946e-05
4.54862e-06
-6.47404e-06
-4.69242e-05
5.33987e-05
1.16149e-05
-1.56889e-05
4.07414e-06
4.15888e-07
1.63617e-05
-1.67775e-05
2.19007e-05
9.13464e-06
-3.10353e-05
-1.0257e-05
4.40303e-05
2.35873e-06
3.30176e-05
-3.53763e-05
-0.000423798
0.000557079
-0.000133277
-3.3271e-05
3.25248e-05
-3.92661e-05
-1.58121e-05
5.50781e-05
-9.10478e-05
3.32828e-05
5.77651e-05
5.57654e-05
0.000246788
-7.94015e-06
-1.03667e-05
-0.00048909
0.00049397
-9.86296e-05
0.000236201
-0.000137577
0.000601944
-0.000261186
-0.00034076
-2.01623e-06
0.000320264
-4.4627e-05
-0.000275639
2.50065e-05
-3.82918e-05
1.32856e-05
3.46124e-05
3.45303e-05
-6.91494e-05
1.86171e-05
-2.49692e-05
6.3515e-06
6.97542e-05
7.70943e-05
2.66475e-05
-8.03043e-06
-2.73562e-06
-1.22248e-05
-2.30854e-05
-4.44076e-06
2.75267e-05
-4.41502e-05
7.09617e-05
9.93965e-05
-0.000168941
6.95458e-05
-2.55832e-06
3.41513e-05
-6.35047e-05
2.93536e-05
-3.02199e-05
1.22191e-05
1.80008e-05
0.000424389
0.000177553
2.04698e-05
-2.18011e-05
4.06087e-05
2.92639e-05
-6.9874e-05
-0.000306946
2.31745e-05
2.79957e-05
6.80729e-06
-3.48031e-05
2.70526e-05
-0.000179981
1.41249e-05
-3.34103e-05
4.51463e-05
-5.16205e-05
0.00033322
-0.00034871
1.54888e-05
7.36989e-06
-2.18323e-05
1.4462e-05
-1.47132e-05
-1.8798e-05
3.35111e-05
1.20642e-05
-5.84479e-06
-6.21952e-06
5.30268e-06
1.28859e-05
-1.81885e-05
0.000294465
0.000329081
-0.000623558
-7.45277e-05
9.96964e-05
-2.5168e-05
9.28008e-06
1.33666e-05
-5.26327e-05
-0.000101879
-0.000474855
-5.58481e-05
1.85556e-05
3.7293e-05
6.83882e-06
2.58339e-05
8.19617e-05
-4.73501e-05
1.77586e-06
9.37768e-06
-1.11535e-05
-7.94294e-06
-2.01912e-05
2.81339e-05
-8.74936e-06
-1.59655e-05
2.47142e-05
-1.56251e-05
-3.0387e-05
9.05587e-05
-4.34239e-05
0.000556841
-0.000558238
-0.000104715
3.13498e-05
7.3364e-05
-0.00011716
-0.000167295
0.00028447
1.63745e-05
2.44393e-05
2.39399e-05
-4.33338e-05
1.50837e-05
2.82501e-05
-9.52459e-05
8.9596e-05
5.64175e-06
-6.72499e-05
-0.000381592
0.000448844
6.23628e-05
0.00030127
-0.000363635
-1.34246e-05
-2.83863e-05
4.18111e-05
-1.96036e-05
5.82583e-05
0.000191065
1.15736e-05
-0.000202641
1.54698e-05
-1.50538e-05
5.04082e-05
7.98609e-07
-5.12072e-05
4.0773e-05
-1.10132e-05
-0.000216975
-5.75091e-05
0.000274484
3.33064e-05
-4.00802e-05
6.77286e-06
1.38251e-06
2.38786e-05
-2.52612e-05
2.49935e-05
2.3011e-06
-2.72952e-05
7.0048e-05
-0.0003837
0.000313648
1.52447e-06
3.26254e-05
-3.41498e-05
-1.87699e-05
3.92504e-05
-0.000211037
-0.000135425
0.000346463
4.61704e-07
-5.33395e-06
4.87223e-06
0.000180437
5.13246e-05
-0.000231755
2.86507e-05
1.13403e-05
3.05695e-06
-3.69774e-06
6.40881e-07
6.48761e-05
-9.31837e-05
-4.63632e-05
3.93595e-05
0.000425975
-7.87319e-05
6.00977e-05
-5.95023e-05
-5.97378e-07
1.50451e-05
-6.47718e-06
-8.5679e-06
-7.05781e-05
3.88759e-05
3.17021e-05
-0.000346269
0.000135232
6.64593e-05
-0.000107172
4.07127e-05
-2.94382e-05
-2.64098e-05
-0.000129888
-1.69607e-05
-7.06354e-05
-0.000126656
0.0001973
1.5644e-05
8.06627e-06
-2.37106e-05
-1.15241e-05
2.85762e-05
-1.7052e-05
-1.20261e-05
-6.28869e-07
1.26549e-05
4.00644e-05
2.00325e-05
-0.000602393
0.000555974
4.64229e-05
-7.90678e-05
3.20433e-05
4.70246e-05
-1.01157e-05
2.3994e-05
6.17234e-06
-4.41136e-05
3.79411e-05
-7.65235e-06
0.000198557
-0.000190904
1.02152e-05
-3.83222e-05
2.81064e-05
1.67264e-05
2.356e-05
-4.02868e-05
1.31826e-05
-2.77414e-05
5.73892e-05
-4.11723e-06
-5.32714e-05
-6.26703e-06
-3.55644e-05
-2.56889e-05
3.52425e-06
2.21628e-05
-0.000198769
6.67507e-05
0.000132019
-3.82324e-05
2.93211e-05
-0.000104534
1.88731e-05
8.56627e-05
3.37003e-06
-3.13029e-07
-0.000396146
9.90912e-06
9.22731e-06
2.14199e-05
-6.77002e-06
2.10434e-05
-1.42733e-05
0.000363474
-0.000259013
-0.000104461
-2.83834e-05
2.83612e-06
1.7566e-05
2.93341e-05
5.48387e-05
-0.000118726
6.3887e-05
-4.72768e-06
7.2354e-05
-6.76262e-05
2.49424e-06
-1.6661e-05
1.41667e-05
-1.04939e-05
-1.35381e-05
2.4032e-05
3.63826e-05
-4.9352e-05
1.29693e-05
0.000229813
-0.000110824
-0.000118985
2.06859e-05
-1.38848e-05
-6.80125e-06
-0.000110988
6.51331e-05
4.58547e-05
-8.75711e-05
-0.000499298
-2.84903e-05
-6.25575e-05
-5.90599e-05
-4.43825e-07
-1.80286e-05
1.00994e-05
1.35433e-05
-2.40372e-05
7.52011e-05
-2.02078e-05
-5.49925e-05
0.000351608
-0.000120762
-0.000230853
0.00021893
0.000353685
-0.000572618
7.27277e-06
-2.76403e-05
2.03676e-05
-0.000567859
0.000264743
0.000303125
-4.75718e-05
2.22831e-05
2.52889e-05
1.06536e-05
-4.35875e-06
0.000135641
0.000134815
-3.6232e-05
5.49559e-06
-2.49384e-05
5.38513e-06
1.95535e-05
2.27449e-05
-3.65097e-05
1.37651e-05
6.54091e-05
-9.70731e-05
3.16648e-05
-6.15229e-05
-3.37352e-05
2.30299e-06
-0.000103638
0.000101335
0.000185869
-5.82239e-05
-3.40312e-05
6.15613e-05
-4.73176e-05
-6.36697e-05
0.000227184
-3.61185e-05
-2.07838e-06
3.34225e-05
-3.1344e-05
-6.74126e-06
2.49101e-05
0.000116592
-0.000114288
4.26047e-05
-1.2125e-05
-3.04797e-05
-5.26958e-05
-4.83909e-05
0.000101085
0.000358946
-0.00018044
-0.000178523
-1.42334e-05
2.32445e-05
5.91194e-05
-8.71128e-06
1.5515e-05
-9.44674e-06
-4.16025e-05
-3.74652e-05
-7.50494e-05
4.66304e-06
-2.77482e-05
2.1148e-05
-2.5519e-05
4.37085e-06
-8.23641e-06
5.45041e-06
-1.19575e-05
6.50703e-06
1.7973e-05
-5.20042e-05
-1.59919e-06
3.61658e-05
0.000411979
-4.11633e-05
-0.000372232
0.000304984
7.16099e-06
-1.23233e-05
5.1623e-06
3.9959e-05
-2.77749e-05
-0.000497625
7.3838e-05
2.49613e-05
1.36979e-05
-1.00305e-05
1.46544e-06
8.56503e-06
1.10401e-05
-4.18286e-06
-6.85718e-06
6.81003e-06
-5.65055e-05
4.96948e-05
7.82869e-05
-4.73712e-05
-1.58881e-05
-1.43317e-05
-2.0557e-05
-8.82131e-06
5.734e-05
8.20504e-05
-0.000139402
-6.94588e-05
-3.52553e-05
-5.43515e-06
1.70502e-05
3.59617e-05
-0.000202248
6.25473e-05
0.000167266
-4.42457e-05
-0.000154523
7.39374e-06
-6.8301e-06
-5.63633e-07
0.000248497
-0.000167239
-8.1257e-05
-0.000289516
0.000351881
-0.000137876
2.58249e-05
2.92868e-05
-4.19405e-05
5.83631e-06
3.61034e-05
-4.68991e-06
-5.03118e-05
5.50016e-05
2.76362e-07
2.23459e-05
-3.25657e-05
1.21935e-05
2.03722e-05
-2.07847e-05
2.80574e-05
-9.02339e-05
0.000270675
2.37928e-05
-1.14341e-05
-1.23589e-05
0.000375435
-0.000305388
-7.65355e-07
-1.03485e-05
1.11138e-05
1.14362e-05
1.27951e-05
-2.42313e-05
9.40582e-06
1.49997e-05
-5.28889e-05
7.42914e-05
-2.14016e-05
-9.08499e-08
2.55061e-05
-2.54146e-05
-0.000237615
-0.000257882
-9.56729e-05
5.23057e-05
4.33584e-05
-2.55903e-05
1.40662e-05
-0.000191101
0.000183449
8.65888e-06
-3.19598e-05
2.33006e-05
-7.24857e-06
2.30519e-05
-1.58031e-05
-4.44961e-06
-9.7528e-06
1.42025e-05
4.2197e-05
-3.85516e-05
-0.000221125
0.000227121
-5.99603e-06
-2.35922e-06
2.35071e-05
3.0208e-05
-6.66732e-05
3.64652e-05
4.78546e-05
-7.79094e-06
-5.90642e-05
6.38716e-05
-4.80839e-06
2.21376e-06
8.56995e-06
-1.07828e-05
-6.4857e-07
3.96112e-07
2.52489e-07
-4.95405e-05
7.97483e-05
-1.4009e-05
2.2488e-05
-8.47915e-06
4.06749e-05
1.30306e-05
-5.37056e-05
7.23039e-05
-8.46875e-05
1.23836e-05
0.000232162
-0.00027803
4.58735e-05
-5.79633e-05
0.000136369
-7.84038e-05
-0.00053313
0.000182401
0.00035073
-9.48103e-05
4.21138e-05
-1.49771e-05
1.74713e-05
1.8947e-06
1.36983e-05
-2.88665e-05
1.98124e-05
7.16851e-06
-2.2387e-05
-0.000257038
5.99174e-05
2.27212e-05
-3.31449e-05
1.04241e-05
7.06049e-06
-8.24088e-06
1.18029e-06
4.79332e-05
-4.1761e-05
-1.21887e-05
3.01398e-05
-1.79512e-05
-9.5726e-05
4.4337e-05
5.13892e-05
6.02101e-05
-4.91277e-06
-5.52972e-05
-3.42477e-05
1.74517e-05
1.67961e-05
-6.78108e-05
0.000172202
-0.000104398
-1.9404e-05
-3.86457e-06
2.32687e-05
-7.29254e-06
-4.63218e-05
5.36144e-05
-3.11486e-05
1.89599e-05
-4.57218e-05
2.97375e-05
0.000482436
-0.000214409
-0.000268027
0.000604584
-0.00020871
-0.000395864
5.479e-05
2.59845e-06
-3.30953e-05
1.616e-05
1.69356e-05
0.000124465
-7.10449e-05
-5.3416e-05
9.11473e-05
4.80349e-05
-0.000139191
-5.68078e-06
-2.26714e-05
-6.04353e-05
-0.00027363
0.000334072
1.28614e-05
-3.14657e-05
1.86043e-05
-2.48902e-05
1.09882e-05
1.39021e-05
-0.00017592
2.77823e-06
-0.000163732
0.000160957
1.11689e-05
-3.4845e-05
2.36761e-05
-0.0004035
-2.93825e-06
-9.09974e-06
3.63781e-05
-1.44606e-05
1.36412e-05
-1.7486e-05
3.84487e-06
0.000101362
3.57809e-05
-2.56369e-05
-4.49413e-05
3.32346e-05
-3.07153e-06
-3.01629e-05
-5.04821e-05
-8.57895e-06
1.0078e-05
1.52293e-05
-2.53073e-05
2.30381e-05
-1.56684e-05
-0.000176464
0.000108642
8.25184e-05
-2.76919e-05
-5.48258e-05
3.12072e-05
-2.25484e-05
-0.00038747
0.000331227
5.62387e-05
2.40844e-05
-4.29207e-07
-2.36545e-05
-7.16009e-05
1.56992e-05
5.59016e-05
-1.11585e-05
-3.02731e-05
4.14316e-05
2.87701e-05
-4.21943e-05
-4.76914e-05
3.47518e-05
4.09513e-05
-8.33591e-05
4.24107e-05
-2.12153e-05
6.99197e-06
-1.67509e-05
-1.74968e-05
1.22644e-05
-2.79516e-05
-0.000302975
0.000338302
-3.53265e-05
-4.28835e-05
-0.000126577
0.000169458
-1.42877e-05
-1.6814e-05
3.11016e-05
2.04802e-05
-1.55739e-05
-4.90615e-06
-5.4537e-05
0.000130931
-7.63893e-05
-1.43995e-05
1.6294e-05
-0.000103324
-1.39658e-07
0.000103463
3.12472e-05
-8.52564e-06
-2.73661e-05
4.07664e-05
-1.34009e-05
-1.58653e-05
2.81298e-05
9.29626e-06
3.50159e-06
2.64052e-05
-3.97646e-05
1.33595e-05
7.10358e-08
1.84706e-05
9.8291e-06
-2.82997e-05
-4.14606e-06
3.72043e-05
-3.30582e-05
-0.000139349
2.00565e-05
0.000119292
3.08978e-05
-3.09504e-05
5.26491e-08
4.97706e-05
0.000233338
-0.00028311
-1.41035e-05
-1.72038e-05
3.13071e-05
0.000206931
-0.000175748
-3.122e-05
-2.33662e-05
-1.55693e-05
3.89355e-05
-0.000353507
7.90267e-05
0.000274481
-7.51872e-06
-2.54623e-05
0.000365743
0.000238844
6.65149e-07
1.32658e-06
5.26684e-05
-3.76973e-05
-1.49711e-05
-0.000519734
3.06427e-05
6.00225e-05
4.04153e-05
-0.000100438
0.000207979
0.000155498
-1.22269e-05
4.86095e-05
2.93703e-05
-3.96273e-05
-9.91763e-05
-0.000117867
-0.0002382
0.000197781
4.04181e-05
-2.60922e-05
1.02912e-05
1.58011e-05
-4.56633e-05
0.000103003
-5.67548e-05
-1.30948e-05
6.98499e-05
1.34606e-05
0.000357527
-0.000104326
-0.000253203
2.59551e-05
7.2796e-06
-4.25963e-05
-9.67521e-05
4.95195e-06
-5.54347e-05
-5.35693e-06
-6.6244e-05
-0.000239353
-0.000141036
-0.000384412
0.000678874
-5.90857e-06
3.50714e-05
-3.59493e-05
6.23908e-05
-8.67911e-06
1.39294e-05
-5.25031e-06
-4.4366e-05
-7.27956e-06
-1.7297e-06
-3.48397e-06
5.5992e-05
2.65266e-05
-4.22371e-05
5.45243e-05
-1.22872e-05
-3.58533e-05
8.48704e-06
5.70799e-05
-6.92503e-05
9.31522e-06
-4.12421e-06
-5.19102e-06
7.09527e-05
-9.92218e-05
5.70579e-05
-2.29063e-05
-7.48483e-05
4.71569e-05
7.70465e-06
4.15103e-05
-1.47891e-05
7.1869e-05
-3.81783e-05
3.97027e-05
-0.000265931
-0.000658202
3.14545e-05
-2.50736e-05
-6.37719e-06
-3.18528e-05
-3.39401e-05
6.57929e-05
-4.97711e-05
-0.000320045
-0.00033693
-5.054e-05
-3.40764e-06
0.000371466
-0.000368059
-2.03939e-05
3.04627e-05
-1.00691e-05
0.000142294
6.46412e-05
-2.6208e-05
-2.13637e-05
-1.10935e-05
5.96049e-06
5.13305e-06
-3.72554e-05
-0.000137825
-0.000215682
-1.4469e-05
1.168e-05
2.78898e-06
-7.49172e-06
-6.99172e-05
7.74128e-05
3.11201e-05
-0.000281105
0.000249984
-2.82389e-05
5.74757e-05
-2.92373e-05
8.63315e-06
-3.16699e-05
2.30368e-05
-3.01004e-05
-1.52334e-06
-0.000303645
0.000179157
0.000246577
-0.000215453
3.89333e-05
-6.80015e-05
2.90681e-05
1.36662e-05
-3.689e-05
2.32238e-05
-0.000246726
0.000179577
6.71495e-05
7.63333e-05
-6.34749e-05
-1.28582e-05
0.000216747
-0.000554174
0.000337427
-1.02523e-05
2.43371e-05
-1.40848e-05
1.09676e-05
-1.05552e-05
-6.24433e-05
-0.000143583
0.000126117
1.74571e-05
2.75869e-05
-3.87492e-05
1.11625e-05
-7.82982e-05
-6.52737e-05
-0.000114643
0.000431955
-2.33225e-05
6.40129e-05
4.45773e-05
-0.00010859
-0.000576324
0.000700668
-0.00012434
-0.000111069
0.000187865
-7.67962e-05
5.1138e-05
-2.19308e-05
-2.92074e-05
-1.31498e-06
-2.43733e-05
-1.63787e-05
8.26561e-05
-6.51306e-05
-1.75261e-05
0.0002548
9.68071e-05
-2.6017e-05
-3.87727e-06
2.9895e-05
0.000222606
-0.000219826
6.62487e-06
1.98682e-05
-2.75529e-05
1.01647e-05
1.73883e-05
-0.00056469
0.000533845
3.08463e-05
-5.39009e-06
-1.75299e-05
2.29197e-05
0.000469992
-0.000314216
-0.000155776
-5.17515e-05
3.42051e-05
1.75463e-05
-7.27655e-05
5.79764e-05
7.68224e-06
-2.12202e-05
-6.60276e-05
7.95918e-05
-1.35643e-05
2.15013e-05
5.48324e-05
8.51073e-06
-5.69145e-05
-1.64198e-05
8.23355e-06
8.18629e-06
-4.59176e-05
0.000108221
-6.23628e-05
9.47145e-06
-9.66585e-06
1.94494e-07
-4.72974e-05
-0.000191333
0.000238633
-3.7706e-06
3.70771e-05
0.000503861
-0.000287116
-7.04793e-06
-1.90442e-05
-2.33266e-05
-7.34078e-05
-2.32737e-05
-0.000199323
0.000198063
1.25581e-06
0.000304211
-0.000193958
-0.000110254
-5.31498e-05
0.000144295
-0.000106859
3.53509e-06
-0.000132571
7.46094e-05
-9.33625e-06
-6.79127e-06
1.61277e-05
1.75012e-05
-2.42428e-05
9.78502e-05
-0.000143753
-1.47175e-05
5.53924e-05
1.23914e-05
-1.44962e-05
0.000357487
5.44928e-05
-2.07416e-05
-2.48381e-05
4.55791e-05
5.71215e-05
-4.17113e-05
2.08406e-05
-4.19283e-05
2.10876e-05
-4.1765e-07
2.45024e-05
-1.22568e-05
3.38893e-06
8.86795e-06
-1.31175e-05
4.43839e-06
0.000123762
-0.000240907
0.000285635
-0.000385915
0.000100281
0.000372877
2.38877e-05
-0.000396761
1.4998e-05
2.51597e-06
-1.75139e-05
7.37859e-05
-7.87189e-05
4.93304e-06
-1.91832e-05
2.66157e-05
-7.43238e-06
-0.000260883
-0.0001946
0.000455493
-1.05588e-05
-1.69792e-06
-0.00025022
0.000187081
6.3102e-05
4.69595e-05
3.49996e-05
6.31559e-05
2.92163e-06
-6.60755e-05
6.69595e-05
1.56964e-05
-9.80087e-06
3.56429e-05
-2.5843e-05
4.94753e-06
-2.88316e-05
2.38841e-05
-8.93191e-05
2.64932e-05
-1.64151e-05
-3.49653e-05
1.72712e-05
-1.17898e-05
-2.31755e-05
4.02866e-05
-1.44014e-05
-2.58854e-05
2.10124e-05
-4.371e-05
2.26977e-05
-2.17713e-05
4.28083e-05
-2.73169e-05
2.6438e-05
8.79057e-07
2.74933e-07
2.73724e-05
-2.76473e-05
-1.34265e-05
-7.61495e-07
1.20765e-05
1.58262e-05
-2.79027e-05
-7.06212e-06
-9.3576e-06
-3.46523e-05
1.54859e-05
7.04209e-05
-2.67008e-05
-4.37202e-05
-7.46113e-06
-1.41906e-05
1.00094e-05
-4.93178e-05
2.73958e-05
2.19222e-05
9.21922e-05
-4.52335e-05
-0.000183071
-6.36523e-05
6.52999e-07
-4.5019e-05
8.4647e-05
-9.15201e-05
6.877e-06
1.17743e-05
-7.83997e-05
2.88012e-05
-4.69926e-05
1.81914e-05
0.000291268
4.19527e-05
2.59562e-05
-1.8192e-06
-2.41369e-05
-1.07442e-05
1.47023e-05
-1.34652e-05
-1.23702e-06
-1.38109e-05
2.90401e-05
2.33908e-05
1.45826e-05
5.75605e-05
-6.22503e-05
-2.15701e-05
1.69786e-05
4.5914e-06
-6.22469e-06
-6.9731e-06
1.31979e-05
-3.11541e-05
1.96679e-05
1.14862e-05
1.3601e-05
-1.39397e-05
3.38724e-07
-3.16993e-05
9.48556e-05
-8.41543e-06
3.77855e-05
-1.45453e-05
-2.23858e-06
3.85901e-05
-4.95843e-05
1.09941e-05
1.92103e-05
-1.39076e-05
-5.44074e-05
5.56092e-05
-1.20244e-06
1.0787e-05
-1.5792e-05
5.00563e-06
-5.32694e-05
-5.12644e-05
0.000599059
-0.000284576
2.88876e-05
-1.85966e-05
-5.13776e-05
0.00017019
-0.00011881
0.000617434
-0.000193047
4.98649e-05
-0.000325753
0.000275885
0.000103828
-3.73686e-05
-0.000336087
0.000381015
-4.49127e-05
-5.99842e-05
-0.000141928
-8.46106e-06
-3.72608e-05
1.38349e-05
-3.1267e-05
1.74322e-05
-2.6841e-05
-4.75814e-07
0.000408513
-0.000161941
-0.000236335
0.000273502
-3.71673e-05
2.95422e-05
-3.27352e-05
3.19311e-06
-2.322e-05
1.35579e-05
9.66109e-06
1.20837e-05
-0.000215657
0.000203571
-2.2581e-05
2.21632e-05
-3.09001e-06
-1.92524e-05
2.23425e-05
2.77976e-05
-1.5721e-05
5.18475e-05
-4.50376e-05
1.73676e-05
-3.86606e-05
2.12932e-05
-1.32309e-05
1.37521e-05
-5.21269e-07
-1.00831e-05
1.73459e-06
2.12036e-05
1.8165e-05
-3.93686e-05
-2.99375e-05
2.95284e-05
4.09169e-07
-0.000666959
0.000615822
5.11364e-05
-2.79809e-05
-5.33747e-05
-1.4742e-05