/*--------------------------------*- C++ -*----------------------------------*\
| =========                 |                                                 |
| \\      /  F ield         | OpenFOAM: The Open Source CFD Toolbox           |
|  \\    /   O peration     | Version:  v2012                                 |
|   \\  /    A nd           | Website:  www.openfoam.com                      |
|    \\/     M anipulation  |                                                 |
\*---------------------------------------------------------------------------*/
FoamFile
{
    version     2.0;
    format      ascii;
    class       volScalarField;
    location    "200";
    object      k_0;
}
// * * * * * * * * * * * * * * * * * * * * * * * * * * * * * * * * * * * * * //

dimensions      [0 2 -2 0 0 0 0];


internalField   nonuniform List<scalar> 
53008
(
0.000159788
0.00164082
0.000152336
0.000209182
0.0494488
0.0441434
0.000172502
0.000159577
0.000163151
0.000149904
0.000197276
0.000174199
0.0475216
0.0130979
0.000149412
0.000146616
0.000156677
0.000146679
0.0836403
0.000158575
0.000154572
0.000164512
0.00014803
0.000171812
0.000153314
0.000339949
0.0110581
0.000172752
0.000267688
0.000254493
0.00103628
0.0201585
0.0374824
0.000150608
0.000147849
0.000160545
0.000154157
0.000149781
0.000174732
0.000151546
0.000153973
0.0521925
0.00019749
0.0799364
0.000158909
0.000147883
0.000147567
0.000153568
0.000213972
0.000147157
0.000151533
0.000157001
0.000157572
0.0001482
0.000180947
0.0843625
0.000158208
0.000147552
0.000264953
0.000177305
0.00015034
0.00015876
0.081107
0.0277485
0.000194117
0.000147689
0.000250949
0.000147428
0.000146254
0.000147751
0.0612286
0.00014513
0.000149074
0.0404281
0.000340109
0.000148001
0.000149806
0.0460723
0.00014608
0.054896
0.0439458
0.0504637
0.00020774
0.000209101
0.000165285
0.000147796
0.000173766
0.000162856
0.0001477
0.000174934
0.0544997
0.0772614
0.0506448
0.000190754
0.0663212
0.000202402
0.05864
0.000152157
0.0532046
0.0783917
0.000158557
0.000151459
0.000201251
0.000172906
0.000160569
0.0764352
0.0571284
0.00016039
0.000196579
0.000145096
0.000204698
0.0282734
0.000149847
0.0715067
0.0505935
0.00015491
0.000155798
0.000145687
0.00744335
0.0524683
0.0500391
0.000149013
0.000151136
0.000801111
0.04554
0.000148068
0.0484813
0.000224503
0.000171355
0.000148852
0.0164779
0.000148496
0.000209132
0.000154234
0.000145567
0.000256952
0.000148748
0.0474306
0.000147772
0.000147197
0.000146455
0.000147135
0.000166276
0.000261893
0.00017198
0.000151884
0.000155645
0.000147741
0.000146657
0.000150298
0.000149145
0.0807693
0.0471499
0.00016465
0.000146644
0.000157288
0.0455214
0.0729527
0.000152179
0.000283528
0.00018093
0.000147189
0.000146644
0.07862
0.000153512
0.000149958
0.000147193
0.000158422
0.000147371
0.00015125
0.000161537
0.0551058
0.076792
0.000147212
0.000553142
0.000147099
0.000165402
0.000201202
0.000172897
0.000165732
0.000151052
0.000153358
0.0804774
0.000149938
0.000174149
0.0298969
0.0831395
0.0781972
0.0530326
0.000147774
0.0434473
0.000150148
0.000178566
0.04863
0.000147766
0.000152697
0.000160536
0.000147818
0.00014874
0.000155016
0.000186192
0.000148983
0.00016056
0.000147755
0.000207062
0.0368596
0.00015661
0.000148588
0.000174142
0.000145698
0.0593335
0.00015143
0.000283936
0.000152443
0.000196126
0.000148116
0.000148643
0.000148005
0.000180221
0.00014812
0.000229597
0.000145194
0.000205976
0.000145186
0.00015327
0.000197118
0.000151371
0.000170163
0.000163285
0.000146455
0.0340394
0.0427171
0.000145582
0.0511223
0.000186301
0.0764047
0.00015218
0.000145582
0.0289906
0.000146648
0.000148419
0.000150554
0.000268096
0.000150407
0.000161002
0.000149771
0.000194237
0.000227673
0.000148073
0.000176738
0.000152694
0.000150059
0.000147886
0.000154773
0.000150098
0.0818388
0.000258446
0.000149472
0.000180253
0.000158038
0.00044041
0.000262651
0.000158168
0.000152559
0.000147541
0.00929313
0.0710851
0.000147841
0.084762
0.000207329
0.000145894
0.000154019
0.000148822
0.000268383
0.041433
0.000144222
0.00020664
0.0576703
0.000178753
0.000150894
0.000148012
0.000149752
0.000178693
0.000173709
0.000152329
0.000174652
0.000171002
0.0345439
0.000173953
0.000149838
0.000582766
0.0572667
0.000185729
0.0470342
0.000173078
0.000147927
0.000175823
0.000204414
0.083785
0.000153294
0.000185669
0.0531345
0.0601984
0.0386606
0.000149519
0.00240439
0.000150209
0.000149404
0.000153123
0.000181625
0.0351471
0.000273413
0.0102497
0.0416993
0.000194336
0.000173623
0.000149965
0.000148543
0.000144252
0.000174101
0.000203965
0.0548637
0.000159856
0.0429885
0.000479925
0.000148984
0.0452253
0.000161179
0.000146675
0.0001623
0.0814305
0.000147758
0.000149708
0.000150252
0.000145937
0.000145244
0.000178445
0.00014681
0.0580952
0.000151456
0.000149762
0.000147424
0.000180901
0.000148759
0.00014949
0.00690534
0.000172628
0.0474421
0.000254834
0.0693257
0.000219479
0.0430779
0.000152012
0.000148188
0.0216939
0.082739
0.000147666
0.000147572
0.000440047
0.0709131
0.000148506
0.000171595
0.000149298
0.0187359
0.000182321
0.0502728
0.000144261
0.000170075
0.000156655
0.000152187
0.0840688
0.000158954
0.000171757
0.000229086
0.000182362
0.000156878
0.000179086
0.000182045
0.00827744
0.0800502
0.000149706
0.000151342
0.000164617
0.000158392
0.0684887
0.000146444
0.000154587
0.0578293
0.00014766
0.0510731
0.0563746
0.00014735
0.000151346
0.000154409
0.000151443
0.000154147
0.000147239
0.000186399
0.0001652
0.0616076
0.000159718
0.000160868
0.000153225
0.0501157
0.000147366
0.000148228
0.000166918
0.00015355
0.00014873
0.000160881
0.000144291
0.000205296
0.00014632
0.000153663
0.00015061
0.0506465
0.000148624
0.0198871
0.000153247
0.000147654
0.000146138
0.000148944
0.000165816
0.000153377
0.00022758
0.000149194
0.000158795
0.000158623
0.000218087
0.000144244
0.00137314
0.0631607
0.000896179
0.000147415
0.000211297
0.000159808
0.0332578
0.000170773
0.0855121
0.000170484
0.000147871
0.000188491
0.00019311
0.000179583
0.00014718
0.000181289
0.0284421
0.000527447
0.000152034
0.000263101
0.059227
0.000153956
0.0453883
0.000166406
0.000153229
0.000213589
0.000151454
0.000147729
0.000151682
0.000148505
0.000260988
0.0563079
0.000144269
0.000158769
0.000227642
0.000165154
0.000149016
0.0344976
0.000147872
0.000149049
0.000178708
0.000156575
0.000172375
0.0513757
0.000267618
0.000196562
0.000151494
0.000150493
0.000180186
0.0773196
0.0119128
0.000213779
0.000154548
0.000158975
0.000197107
0.000146118
0.000155959
0.000154332
0.000193986
0.000162756
0.000153107
0.000148735
0.0456275
0.000149557
0.000147543
0.00020545
0.000149853
0.0648719
0.000163334
0.000149855
0.000174545
0.000153547
0.0497683
0.000199087
0.000147481
0.000173038
0.000206086
0.000177031
0.00016517
0.000178639
0.0787709
0.000176822
0.000148716
0.000147823
0.000198448
0.0566008
0.000159233
0.000149822
0.000148768
0.0426833
0.000149319
0.0374153
0.000148567
0.000174774
0.000164733
0.0282311
0.000184669
0.000159089
0.0319362
0.000149885
0.000250862
0.000146815
0.000146419
0.0658328
0.000147845
0.000152847
0.000178172
0.000162072
0.000146569
0.000147558
0.000170194
0.061566
0.000173707
0.000165514
0.0475921
0.000158448
0.000199123
0.00014672
0.000147551
0.000181324
0.063893
0.000252956
0.000149399
0.0779641
0.000154956
0.000147123
0.0727895
0.000154172
0.00014829
0.00015076
0.000172843
0.0765265
0.00017819
0.000191167
0.000159228
0.000164965
0.000197335
0.000149306
0.000151194
0.000177789
0.0001575
0.0220774
0.00020561
0.000170059
0.000156024
0.000146148
0.00015898
0.000178139
0.000187644
0.00014954
0.000154082
0.000145366
0.000159237
0.000173757
0.000261716
0.0102616
0.000148204
0.000152396
0.000225076
0.000150289
0.000148364
0.00014791
0.000164672
0.000156944
0.0288777
0.000148864
0.0420904
0.000266921
0.000147671
0.0680161
0.0629406
0.000184237
0.000148227
0.000189668
0.000213308
0.0572575
0.000160612
0.000162135
0.000172437
0.000151604
0.000149623
0.000149314
0.0672457
0.000147669
0.0429777
0.000147861
0.000144813
0.000146622
0.000174214
0.000145676
0.0841133
0.00047082
0.00014869
0.0403116
0.000149613
0.000145046
0.00014527
0.000148918
0.000197271
0.000149535
0.000166561
0.000197776
0.0441704
0.00716161
0.000149831
0.000166557
0.000147164
0.000154345
0.000173716
0.0452754
0.0368427
0.0090537
0.0154873
0.000146536
0.000144268
0.000148878
0.000147806
0.00019434
0.000148106
0.000148195
0.000148814
0.00014588
0.000158918
0.000156572
0.000146924
0.0634619
0.000149452
0.000149267
0.000145887
0.000148055
0.000219704
0.0607591
0.000174451
0.000169266
0.0683912
0.039122
0.0227209
0.0885844
0.000150358
0.000146919
0.0773629
0.0599036
0.000147169
0.0128749
0.000147846
0.000150271
0.000145991
0.0628245
0.000172718
0.000149178
0.000199815
0.000147754
0.00015159
0.0635046
0.000157755
0.000149715
0.0429517
0.000146097
0.000157142
0.000156453
0.000154309
0.000164831
0.00045564
0.000147181
0.000146918
0.000149444
0.0379337
0.000196465
0.00015105
0.000145918
0.000297076
0.000144287
0.000177705
0.000148098
0.000147757
0.00014954
0.00014781
0.000148934
0.000148204
0.000147558
0.000153274
0.000205254
0.000148109
0.000207562
0.00015096
0.0435679
0.000149551
0.000819123
0.000149564
0.0586248
0.00014993
0.0001482
0.00221819
0.000176499
0.0648601
0.000170324
0.000165242
0.0583334
0.000197237
0.000147872
0.0410982
0.000160399
0.000151505
0.0896715
0.000149234
0.000206267
0.000200063
0.000156894
0.000207183
0.000261193
0.000147546
0.000184045
0.000148122
0.000157133
0.000148087
0.000158021
0.000164701
0.000147727
0.000158018
0.00014974
0.000287047
0.000181336
0.000157702
0.00016162
0.000158238
0.000149506
0.0405606
0.000191981
0.000178
0.000205221
0.0440853
0.00022371
0.000149725
0.0451673
0.00015491
0.000147681
0.0439157
0.00180019
0.000149748
0.000273498
0.0441051
0.000190311
0.000149449
0.0306685
0.000196957
0.0453913
0.000167121
0.00014761
0.0773298
0.00018058
0.000327954
0.000151076
0.00014972
0.00015863
0.000608313
0.000152248
0.000583813
0.000215798
0.000150227
0.000170464
0.0401311
0.0523711
0.000160889
0.029892
0.000151389
0.000215091
0.0633031
0.000148088
0.0410987
0.000152466
0.000148911
0.0481147
0.000151824
0.000219145
0.000167504
0.00015817
0.000147579
0.000205846
0.000181943
0.00015344
0.000147865
0.0403864
0.000146603
0.0242388
0.000162552
0.000395674
0.000147853
0.000149551
0.0517251
0.000193142
0.000242616
0.0364494
0.000177721
0.0388575
0.000176933
0.000151039
0.0419186
0.000154379
0.000148517
0.000261832
0.00019948
0.000154528
0.000148367
0.000146234
0.000147636
0.000148154
0.000196489
0.0595432
0.0398352
0.000147305
0.000163292
0.00015125
0.000223133
0.000147672
0.0563136
0.033227
0.0412807
0.00021495
0.000159988
0.000147158
0.0612756
0.000147798
0.000150271
0.000150225
0.000150345
0.00016238
0.000160904
0.00015023
0.000150187
0.000148021
0.000149909
0.000147881
0.000147206
0.000175471
0.000182268
0.00014786
0.000148103
0.0344807
0.0774794
0.000156866
0.000373923
0.000174386
0.000165843
0.000214483
0.000146789
0.000147818
0.000148081
0.000147739
0.000150369
0.000171305
0.000147361
0.000145588
0.000147226
0.000147857
0.042933
0.000165301
0.000145224
0.000154431
0.000148535
0.000174262
0.000145456
0.0361205
0.000269729
0.000147837
0.0531124
0.000703882
0.000213483
0.000177553
0.0432514
0.0670478
0.000148062
0.000147618
0.000150196
0.0458421
0.000196767
0.000152353
0.0198246
0.0108241
0.000146239
0.000146882
0.000149999
0.000164216
0.000155804
0.000147954
0.000147571
0.000147533
0.000147306
0.0345181
0.000204843
0.000148873
0.024594
0.055136
0.000149204
0.00014771
0.00015144
0.000166535
0.0346103
0.00264805
0.0569775
0.000188033
0.000189019
0.000421732
0.000389109
0.0296328
0.000154489
0.000177948
0.000158271
0.000158438
0.0448989
0.000147511
0.0187967
0.000227303
0.000150947
0.000167003
0.000147595
0.0689751
0.000150998
0.000199866
0.000456043
0.000146083
0.0848749
0.000146648
0.000149776
0.0861747
0.000154279
0.000146286
0.0338508
0.0608266
0.000148457
0.000207368
0.000153515
0.000177549
0.000148126
0.000144274
0.0326362
0.0467436
0.000198035
0.000147775
0.000152742
0.0477515
0.000157189
0.000146908
0.000148824
0.000153402
0.000146754
0.000196253
0.000154747
0.0450294
0.000165756
0.000171391
0.0670915
0.000148347
0.000148232
0.000166604
0.000254742
0.000189248
0.0742619
0.0336045
0.000198695
0.0445061
0.000147848
0.000147323
0.000170839
0.000150904
0.000146099
0.000152887
0.000158528
0.000285212
0.000154163
0.000165798
0.000236742
0.000159556
0.0468759
0.000148379
0.000157297
0.000146683
0.000148068
0.000178594
0.000148054
0.000162019
0.000222722
0.000190208
0.0485528
0.000147232
0.000171755
0.000196495
0.000145466
0.000147752
0.000209342
0.000146857
0.000148178
0.0404224
0.000390059
0.000190961
0.000173522
0.0399897
0.000167465
0.0330808
0.000161336
0.000147215
0.000187065
0.000148211
0.000273825
0.0360832
0.000148
0.000176463
0.00015453
0.000181392
0.0451362
0.000147984
0.00020531
0.000284525
0.000157285
0.000283963
0.000217163
0.00363846
0.000164708
0.000159669
0.000199343
0.000163047
0.000145507
0.000147374
0.000168101
0.0554301
0.000146462
0.000158272
0.0754026
0.000162697
0.000154744
0.0881964
0.000148544
0.000166874
0.0746502
0.0415341
0.0354564
0.000147444
0.00015339
0.000146926
0.000154679
0.000153292
0.000218955
0.0539595
0.000157244
0.000202626
0.000153177
0.0438955
0.000145683
0.000147949
0.000157322
0.000147515
0.0444871
0.04163
0.000168653
0.000164825
0.00014905
0.000195467
0.000147771
0.000149388
0.000156477
0.000148111
0.000206535
0.000155634
0.000178533
0.000226308
0.000143982
0.000164439
0.000160527
0.000147224
0.0366277
0.000150756
0.000180067
0.0905925
0.000207651
0.000146486
0.0609446
0.000160976
0.000149068
0.000148696
0.00397162
0.00014906
0.043236
0.00014928
0.000147278
0.0643507
0.000182181
0.000180538
0.000145702
0.000157194
0.0397056
0.000146789
0.000147665
0.0475274
0.0362629
0.000179434
0.0749744
0.000148098
0.000213857
0.000172886
0.000150993
0.000177671
0.0571771
0.0782172
0.000180865
0.000148168
0.0776244
0.000146945
0.034217
0.0317737
0.000147696
0.0532276
0.035829
0.000173568
0.0549274
0.000148312
0.000144996
0.000143963
0.000179856
0.0833667
0.000206511
0.000150671
0.0261251
0.000149995
0.000148724
0.000172705
0.000147691
0.000150724
0.000145912
0.00018697
0.000148611
0.000152978
0.0437202
0.0264263
0.000171943
0.000148173
0.000149842
0.0840558
0.000197591
0.000189212
0.000145239
0.000169618
0.000168435
0.0592555
0.000148784
0.0400205
0.000189567
0.000150371
0.00014791
0.00014973
0.000188941
0.0592575
0.000149286
0.000159298
0.000152776
0.000149248
0.000148096
0.0743869
0.0628862
0.047384
0.000148412
0.000180431
0.000208383
0.0545492
0.00018153
0.000213012
0.000149647
0.0905837
0.000161307
0.000177444
0.0424449
0.000149225
0.00014877
0.000153495
0.000147858
0.0260637
0.000147593
0.000190464
0.0241261
0.000144328
0.00014806
0.0537682
0.00014521
0.000146578
0.000165857
0.00015054
0.000161629
0.000172646
0.000148472
0.000147253
0.000187744
0.000144866
0.000147279
0.0305856
0.000155143
0.000147136
0.00015214
0.000149105
0.000147388
0.000146952
0.0744123
0.000146958
0.00018817
0.000186666
0.000147219
0.000149865
0.000166274
0.00015324
0.000145982
0.000188157
0.0384113
0.000149646
0.000147797
0.000148087
0.000159281
0.000151969
0.0796848
0.0001965
0.000145525
0.000149393
0.0403147
0.0001545
0.0840084
0.000154644
0.0574762
0.000151044
0.000173375
0.0814257
0.0404485
0.000147925
0.000158184
0.000145372
0.000150937
0.00384847
0.000172013
0.043783
0.000166979
0.00015742
0.000162244
0.000148722
0.0616463
0.000218832
0.000148778
0.0418907
0.000154127
0.000147371
0.000148181
0.000148595
0.000158422
0.000154967
0.0782476
0.000148465
0.0217311
0.0625422
0.000172547
0.000146964
0.0904136
0.0454945
0.000148704
0.000197757
0.0772894
0.000148826
0.000209038
0.00016152
0.000167772
0.000177547
0.000306706
0.000149883
0.0489986
0.000196476
0.000145676
0.000147208
0.000145601
0.000157289
0.000201945
0.0474886
0.00014543
0.000149801
0.000148071
0.0429519
0.000160146
0.000150071
0.000149162
0.0572274
0.0902152
0.000261816
0.0443306
0.0595848
0.000150545
0.000208099
0.00014847
0.000166704
0.000147237
0.000225366
0.000149867
0.000164641
0.000155331
0.00014989
0.0759651
0.00014778
0.000161507
0.080218
0.000179068
0.000148799
0.000147732
0.000147683
0.0590312
0.000190212
0.00017919
0.000155023
0.000167979
0.0414011
0.000208041
0.000149937
0.040937
0.0001571
0.000154631
0.0616304
0.000148823
0.0576358
0.000148503
0.0448878
0.000151104
0.000148196
0.0838956
0.000162952
0.000149945
0.000147855
0.0400749
0.0769232
0.000175291
0.000173813
0.000189226
0.0712508
0.045552
0.0879907
0.0471241
0.000151887
0.000146982
0.000166926
0.000164844
0.000149392
0.000147729
0.000162274
0.000148014
0.000148105
0.0559665
0.000155157
0.000215023
0.000158022
0.000189897
0.000148605
0.00020103
0.0415544
0.000148583
0.000215368
0.000147352
0.00020733
0.000148717
0.0679364
0.000167801
0.000174244
0.000146273
0.000147203
0.000291939
0.0440935
0.000147618
0.0562448
0.000150677
0.000147949
0.000148109
0.000161232
0.00307694
0.000200036
0.000148693
0.000156805
0.0411196
0.000148434
0.000168267
0.000147514
0.0424841
0.000148174
0.000144888
0.000156276
0.000169325
0.000154409
0.000213173
0.000148689
0.000156131
0.000174577
0.000213673
0.000148046
0.0518219
0.000147044
0.0812618
0.0588932
0.000290619
0.000148113
0.000429763
0.000159581
0.000148181
0.00014787
0.00014736
0.000184495
0.00014789
0.000227817
0.000172505
0.000193974
0.000146482
0.000144232
0.000145244
0.0617227
0.000160785
0.0779025
0.000250421
0.000147749
0.0591633
0.0002063
0.000150185
0.0449783
0.000148037
0.000167634
0.000156237
0.000155109
0.000150453
0.000198587
0.000176858
0.000146433
0.000220562
0.000148065
0.000148639
0.000150972
0.000148132
0.00015006
0.00015217
0.000148838
0.0786289
0.000189883
0.000212473
0.000148691
0.000150217
0.000214524
0.000165802
0.000158853
0.000145575
0.000148187
0.000179465
0.00471218
0.00014942
0.000231179
0.000148849
0.062122
0.00019222
0.000147417
0.000145918
0.000196916
0.000166417
0.000152282
0.0622731
0.000148191
0.000152246
0.000707083
0.00017235
0.000146616
0.000162155
0.000148528
0.000171149
0.000149242
0.000213642
0.00015008
0.000157072
0.000152433
0.000168862
0.00015067
0.087297
0.0452204
0.000148124
0.000150492
0.000228605
0.0326362
0.000148047
0.000150881
0.00017706
0.0327723
0.000148215
0.000156404
0.000191529
0.000148948
0.000150947
0.000174333
0.000149738
0.000149454
0.0548608
0.0100147
0.000151056
0.00014728
0.000158783
0.000145605
0.0172712
0.037573
0.0520889
0.000157969
0.000191791
0.0828196
0.000152198
0.059264
0.00022752
0.000148768
0.00014769
0.000167078
0.000145772
0.000152416
0.000254724
0.000169036
0.00015435
0.000185946
0.000162805
0.000168483
0.000207177
0.0531275
0.000146577
0.000158544
0.051958
0.00022414
0.000162383
0.000202869
0.000179823
0.000148535
0.000220811
0.000164316
0.000150623
0.000153935
0.000147457
0.000274746
0.000149859
0.000147928
0.000147922
0.000164354
0.054597
0.000195946
0.000228704
0.043274
0.000162672
0.000656627
0.000159613
0.000148868
0.000159222
0.000167309
0.000152956
0.0360394
0.000227206
0.00015308
0.000200073
0.0118868
0.000197789
0.000148592
0.000157271
0.0325102
0.000147892
0.000147968
0.0369917
0.000151919
0.000148972
0.000171589
0.000150242
0.000161754
0.00015088
0.00018764
0.000145641
0.000837819
0.000214465
0.000177821
0.000148712
0.000198486
0.000205948
0.00014862
0.000160554
0.000147902
0.000148842
0.000152234
0.000147602
0.000145896
0.00647829
0.000225527
0.000148306
0.000149341
0.000149386
0.0611433
0.0437806
0.000145195
0.000223278
0.000162265
0.000202605
0.000148881
0.000154531
0.000147583
0.000147313
0.000151378
0.000148246
0.000165982
0.0443298
0.00019086
0.000188819
0.000147588
0.000147485
0.0309872
0.000177314
0.0541019
0.000191184
0.056682
0.00014772
0.000163402
0.000161961
0.000168201
0.0598396
0.000189867
0.000145114
0.000145689
0.0377206
0.000207406
0.000145767
0.000173046
0.0593212
0.000146879
0.000148938
0.0519911
0.000152414
0.000213336
0.0636705
0.000153344
0.000190841
0.000153589
0.000175079
0.0399808
0.000166243
0.000147937
0.000172616
0.000197429
0.000147453
0.000165921
0.000187399
0.00015086
0.0421266
0.0552491
0.00124481
0.0588987
0.000147747
0.000149082
0.000226327
0.000225544
0.0432878
0.0761513
0.0565895
0.0001719
0.000152888
0.000143899
0.00014857
0.000165818
0.000147656
0.0830389
0.000189361
0.0693869
0.000146927
0.00014775
0.000148563
0.000268188
0.000162014
0.00015279
0.000146374
0.000174344
0.000149459
0.0711679
0.0626666
0.0484045
0.055944
0.000186754
0.000148908
0.0330041
0.000149202
0.000202393
0.000181176
0.000148538
0.0549599
0.000208815
0.000178884
0.000146901
0.000151832
0.00014683
0.0583543
0.0496899
0.000146423
0.000147926
0.0489731
0.000147877
0.0111037
0.000200497
0.000178604
0.000146869
0.000148112
0.00022482
0.000192468
0.000254528
0.000147999
0.000149996
0.000177308
0.000145785
0.00017954
0.00018652
0.000145796
0.000177258
0.000160562
0.000147866
0.000148227
0.0612698
0.000172143
0.000160023
0.000197009
0.00017627
0.0786262
0.000146418
0.000165811
0.00014813
0.0616636
0.000147781
0.000173765
0.000148769
0.000148089
0.00016156
0.000147666
0.00015668
0.000152728
0.000145096
0.000171175
0.000149964
0.000186608
0.0800867
0.000172376
0.0184601
0.0459393
0.000153831
0.000220565
0.000148077
0.000149303
0.000168132
0.0427128
0.000203749
0.000167781
0.0498152
0.0455928
0.0864665
0.000149212
0.00014693
0.000153004
0.000223694
0.000214169
0.0446356
0.000148947
0.000153502
0.000150998
0.000150226
0.000214508
0.00020063
0.000213971
0.000418207
0.000147151
0.000147855
0.000149203
0.000150028
0.000185646
0.0802294
0.00014718
0.0001723
0.000146934
0.000147894
0.0562806
0.000196819
0.000205508
0.000195221
0.0155679
0.000146954
0.000152178
0.0458129
0.000197247
0.000226544
0.0639561
0.000214742
0.000146163
0.000156744
0.0371315
0.00014669
0.0471845
0.000152302
0.000147483
0.000181507
0.000148781
0.000153219
0.0595854
0.000146473
0.0376094
0.000228185
0.000189857
0.00017041
0.00956463
0.000174561
0.000144789
0.0356878
0.0590994
0.000161503
0.000148024
0.000147728
0.000150772
0.00016322
0.000232398
0.000147496
0.000281854
0.00014672
0.00014653
0.000227981
0.000164107
0.000149183
0.000149763
0.061394
0.000178447
0.000146506
0.000148085
0.000149247
0.000186818
0.0626282
0.000147576
0.000148155
0.000147509
0.000147978
0.000154514
0.000162391
0.000148992
0.0431652
0.000161286
0.000179845
0.000167669
0.000144931
0.0616318
0.000159039
0.000313194
0.000225533
0.000152324
0.000148136
0.000152203
0.000167816
0.0402955
0.000159701
0.000158752
0.0788785
0.000154291
0.000180859
0.000148405
0.000148593
0.000149305
0.000147891
0.0468881
0.000231467
0.000148447
0.00014762
0.00015223
0.0332627
0.000175978
0.000146592
0.000152067
0.00014728
0.000154408
0.000212755
0.00015219
0.000147948
0.000144957
0.040507
0.0137504
0.000146458
0.000200865
0.000172118
0.000179063
0.000146821
0.000148387
0.000164292
0.000149958
0.000146418
0.000153496
0.000259857
0.000196872
0.000181475
0.0580581
0.0773357
0.000147894
0.000149562
0.000169076
0.00196633
0.000178554
0.000150078
0.000148698
0.000280989
0.000193025
0.000219956
0.000203582
0.000146539
0.037364
0.000148039
0.000268537
0.000148422
0.000149929
0.000337301
0.000176868
0.000162466
0.000168186
0.0583291
0.00967123
0.000145471
0.000148743
0.000311381
0.000151455
0.000146142
0.000150275
0.000143882
0.0385514
0.000148229
0.000148423
0.0566548
0.0313914
0.000147167
0.000148384
0.000146883
0.000147555
0.0586302
0.0810199
0.000188731
0.00019743
0.0341603
0.0837318
0.000147283
0.0435302
0.0582014
0.0779078
0.0580539
0.000152116
0.000150242
0.000148723
0.000149339
0.000152271
0.000148477
0.000149784
0.0626833
0.000160355
0.000165094
0.000168666
0.0447628
0.000162619
0.0387403
0.0506619
0.0710073
0.000169125
0.000148276
0.000178832
0.000392307
0.000152222
0.000146953
0.000149344
0.0306693
0.0502165
0.000167745
0.000147108
0.00345636
0.000145994
0.000161929
0.000148678
0.0419658
0.00014448
0.000147239
0.0444844
0.000155187
0.0499521
0.000148571
0.000159038
0.000151472
0.000188864
0.000147783
0.000179247
0.000172764
0.00014802
0.00014884
0.0543337
0.000299204
0.000160187
0.000164656
0.000147769
0.000275803
0.000147136
0.000145311
0.000150106
0.000148076
0.000156211
0.000164736
0.000168769
0.000149303
0.000148095
0.0191102
0.000149627
0.000161662
0.000145377
0.000150779
0.0001486
0.000148446
0.0869637
0.000146915
0.000147533
0.032633
0.000150571
0.00536989
0.0102258
0.000151449
0.000148883
0.000255035
0.000180812
0.0577313
0.000157846
0.000161876
0.000156356
0.000145605
0.0815363
0.000147943
0.0480699
0.000186257
0.00017062
0.000154399
0.000222156
0.000158374
0.000148948
0.00022491
0.000147765
0.000146911
0.000157985
0.0517793
0.0622086
0.0526099
0.0505019
0.000171233
0.000154405
0.000160203
0.000147618
0.00014669
0.000144064
0.000218822
0.000151404
0.000158418
0.00014727
0.0596142
0.0443449
0.000155969
0.000148086
0.000194239
0.0520088
0.000148422
0.000148195
0.0258196
0.000148061
0.00015751
0.000229355
0.000147883
0.00014997
0.000202409
0.034076
0.000149771
0.000160912
0.000147871
0.000148031
0.000154282
0.000170022
0.0640988
0.000168174
0.000149099
0.000147591
0.000212687
0.035691
0.000147624
0.000149876
0.0448297
0.000147954
0.000200357
0.000152182
0.000147381
0.000153462
0.00022541
0.000146805
0.000149612
0.000148988
0.000153499
0.000147329
0.0403632
0.000149298
0.000171852
0.000171144
0.000149484
0.0775291
0.0544517
0.000145395
0.000166347
0.000145331
0.000168116
0.0789092
0.000160182
0.000147739
0.000154717
0.0419961
0.000147285
0.0585139
0.000153295
0.000151442
0.000189287
0.000148695
0.000146698
0.00015674
0.00519492
0.00016768
0.0492753
0.000147591
0.0696922
0.000203419
0.000150259
0.046937
0.000180677
0.000180505
0.000152343
0.000147725
0.000147637
0.000158931
0.0780044
0.000177932
0.000145427
0.000149494
0.000153862
0.00898058
0.0532305
0.078789
0.000144466
0.000149889
0.00018206
0.000145614
0.00588324
0.000148033
0.000148621
0.0194461
0.000146563
0.000169085
0.000146353
0.00014793
0.000175054
0.000146566
0.000146829
0.00014677
0.000148669
0.0786197
0.000174199
0.0442101
0.0333396
0.000152356
0.000169673
0.000207652
0.000150081
0.000278141
0.0404331
0.000165694
0.00014821
0.000148828
0.000167996
0.000274221
0.000178722
0.000150188
0.000146163
0.0889223
0.0852235
0.00014788
0.000178188
0.000213035
0.000190075
0.000217365
0.000149208
0.0276023
0.0740481
0.000146804
0.000147915
0.00230174
0.000334529
0.000185005
0.0535234
0.000156052
0.000174762
0.000149803
0.00995326
0.000164119
0.000157715
0.000164964
0.0819805
0.000147278
0.000149301
0.000154488
0.000186979
0.000146849
0.0573419
0.000181637
0.058634
0.000147309
0.000148245
0.000180173
0.000147081
0.000207227
0.000187204
0.07186
0.00647316
0.0624522
0.000163003
0.000147841
0.000146729
0.000149556
0.0309615
0.000186464
0.0576023
0.00349714
0.000147925
0.000149573
0.000199215
0.00014887
0.000269216
0.000147726
0.000159838
0.0605932
0.000148407
0.000161137
0.000150392
0.000187827
0.000164673
0.000149192
0.0603604
0.000204177
0.000185018
0.0583702
0.000225755
0.049156
0.000148167
0.067214
0.0579224
0.0606091
0.000146105
0.000146013
0.000151453
0.000177174
0.067131
0.0456795
0.000147656
0.000147685
0.000229368
0.0600263
0.00014981
0.000148355
0.000150111
0.000146092
0.000186574
0.0391554
0.000149221
0.000195477
0.0404338
0.000227902
0.0654443
0.000180918
0.000148203
0.00014444
0.000146985
0.000152935
0.0257661
0.000168994
0.000157367
0.000179225
0.0408072
0.000147704
0.000145338
0.000185803
0.0785021
0.000161912
0.047881
0.000209633
0.000149531
0.000145551
0.000179152
0.0798694
0.00017853
0.000149333
0.000146939
0.000267765
0.0423954
0.000153135
0.000148383
0.0262426
0.000204806
0.000162913
0.000149775
0.000158792
0.000198895
0.000144317
0.0137387
0.0430125
0.000201707
0.000154059
0.000149559
0.000146801
0.000186241
0.000153169
0.000147699
0.000176777
0.000149647
0.000162849
0.00585127
0.0609392
0.0678318
0.000147574
0.00014764
0.0500941
0.000149785
0.0333281
0.000307396
0.000148328
0.000149178
0.000160375
0.000193114
0.0790865
0.000183759
0.0283221
0.000147646
0.000145624
0.00020613
0.000146335
0.000173268
0.000147703
0.000162143
0.000181497
0.00015302
0.000160875
0.00062663
0.000147868
0.000157181
0.0379115
0.000200893
0.0335435
0.000147694
0.00014848
0.000150761
0.000148461
0.00015207
0.000148781
0.000151219
0.00016117
0.0756727
0.00014683
0.000311537
0.000162109
0.000147744
0.000205316
0.000262722
0.0455479
0.000200033
0.000153141
0.0490032
0.000149346
0.000168248
0.000147281
0.000147585
0.00014514
0.000150032
0.000188636
0.056698
0.000148892
0.000149934
0.0387939
0.000173671
0.0653257
0.000161092
0.000147985
0.000150552
0.000164217
0.000170897
0.000157407
0.000190595
0.000157326
0.00015615
0.000409477
0.000170326
0.00014812
0.0381113
0.000150593
0.000187678
0.0390049
0.000183238
0.032661
0.0419669
0.000154183
0.0829139
0.000154148
0.000159343
0.000157288
0.0001523
0.000152086
0.080551
0.000171658
0.058446
0.000152054
0.000148268
0.00014938
0.000214003
0.000148273
0.000290867
0.000150794
0.000186576
0.00014735
0.000145029
0.000146269
0.052798
0.000170517
0.00014889
0.000148827
0.000163733
0.000148517
0.000174419
0.000146196
0.000147307
0.000145623
0.042049
0.000223404
0.000173424
0.00014911
0.000146842
0.000149401
0.00014985
0.000153229
0.000186543
0.000194344
0.000149168
0.000148381
0.000206399
0.000148263
0.0857176
0.000148744
0.000149794
0.0609147
0.000158912
0.000154106
0.000256119
0.000146682
0.000174449
0.0279079
0.000148232
0.000149646
0.00014804
0.000151659
0.00014744
0.000162186
0.00026133
0.0536227
0.000149459
0.000171329
0.000188473
0.000284371
0.000148961
0.000147764
0.000146764
0.000162024
0.000222529
0.000158429
0.000149136
0.0474407
0.000163593
0.00014524
0.0825716
0.0627131
0.000158536
0.000147319
0.000259856
0.000148504
0.000145172
0.00464106
0.034797
0.0263355
0.000148269
0.000147765
0.000160012
0.0269702
0.000147266
0.000161842
0.000156535
0.000181661
0.000163803
0.000177751
0.00014424
0.000162155
0.0422421
0.000165805
0.000147354
0.00014763
0.000164613
0.0280141
0.00016531
0.000582504
0.000147841
0.00015003
0.000174039
0.000154693
0.000148217
0.0472459
0.000191107
0.0102747
0.000155068
0.000146128
0.0792298
0.000146592