/*--------------------------------*- C++ -*----------------------------------*\
| =========                 |                                                 |
| \\      /  F ield         | OpenFOAM: The Open Source CFD Toolbox           |
|  \\    /   O peration     | Version:  v2012                                 |
|   \\  /    A nd           | Website:  www.openfoam.com                      |
|    \\/     M anipulation  |                                                 |
\*---------------------------------------------------------------------------*/
FoamFile
{
    version     2.0;
    format      ascii;
    class       volScalarField;
    location    "200";
    object      omega_0;
}
// * * * * * * * * * * * * * * * * * * * * * * * * * * * * * * * * * * * * * //

dimensions      [0 0 -1 0 0 0 0];


internalField   nonuniform List<scalar> 
53008
(
0.0325549
3.04299
0.0273385
0.40446
6.36692
4.2988
0.0725202
0.0323189
0.0437849
0.0258379
0.117752
0.092421
3.51922
4.66671
0.0256394
0.0249716
0.0288588
0.024978
6.43881
0.0297945
0.0275995
0.0563235
0.0253788
0.0695319
0.0269382
1.51933
4.6215
0.0515971
0.432032
0.359399
1.7623
3.99368
4.42564
0.0260424
0.0253573
0.0393753
0.0286014
0.0256656
0.0793313
0.026493
0.0284329
5.9193
0.118519
5.4402
0.0300307
0.0250987
0.0249894
0.0267618
0.197903
0.025234
0.0254797
0.0332548
0.0300075
0.0254052
0.0606488
6.40884
0.0295435
0.0253032
0.449165
0.0545432
0.0258364
0.0330463
10.0069
4.07346
0.312321
0.0252497
0.3444
0.0249778
0.0250393
0.0251015
17.9166
0.0248955
0.0255274
4.18606
1.51145
0.0253748
0.0256685
4.21363
0.0249257
15.4356
4.3061
3.85582
0.172425
0.434144
0.0438324
0.0251088
0.125459
0.0431197
0.0252499
0.0486211
11.4095
5.18565
3.867
0.107198
7.29206
0.140928
4.66011
0.0272063
9.22609
10.329
0.0297961
0.0264711
0.148656
0.0515835
0.0333316
5.95317
4.4844
0.0389755
0.116273
0.02489
0.303131
18.3692
0.0256755
7.22639
4.79521
0.0259004
0.0281592
0.0249463
3.42565
10.4269
6.66225
0.0255074
0.0263464
15.9943
4.22818
0.0253167
12.3992
0.242044
0.0443239
0.0254614
3.93902
0.0253237
0.436044
0.0280502
0.0249171
0.423238
0.0254992
3.51637
0.0252149
0.0251298
0.0249762
0.0251284
0.0463603
0.439438
0.0453427
0.02697
0.0280423
0.0253352
0.024862
0.0258615
0.0255633
9.98005
5.8502
0.056907
0.025146
0.0297872
5.17726
5.01105
0.0266998
0.810415
0.0823052
0.0252397
0.0251415
5.2954
0.0272438
0.0256932
0.02519
0.0321545
0.025269
0.0266083
0.0357414
4.10123
7.38792
0.0252292
14.4903
0.0250215
0.0439129
0.135447
0.119524
0.0512912
0.0263254
0.02716
5.49208
0.0258524
0.0906221
3.80141
9.43344
7.40562
4.44337
0.0253409
18.7339
0.0258628
0.168216
9.38065
0.0252694
0.0262962
0.0340691
0.0253376
0.0254986
0.0302815
0.0983986
0.0254551
0.0327814
0.0252084
0.161701
4.03994
0.0287414
0.0254738
0.0609274
0.024941
4.62839
0.0264451
0.526998
0.0274369
0.114411
0.0253344
0.0254814
0.0253748
0.0847792
0.0253046
0.267893
0.0248228
0.161616
0.0248208
0.0272956
0.118198
0.0265287
0.0598188
0.0410575
0.0249745
3.85503
4.68664
0.024788
4.35844
0.0922271
5.90888
0.0261629
0.0249167
4.0669
0.0249654
0.0253047
0.0260237
0.470315
0.0259055
0.0331744
0.0256636
0.177739
0.259281
0.0253665
0.0533998
0.0267385
0.025922
0.025229
0.0299477
0.0257877
9.67417
0.419993
0.0254309
0.0855067
0.0294748
2.63341
0.440649
0.0318915
0.0256154
0.025268
4.51796
5.79588
0.0253458
9.24223
0.168735
0.0247948
0.0278869
0.0254535
0.466364
3.85197
0.0247156
0.159719
3.93957
0.0560883
0.0256699
0.0253755
0.0256609
0.0559931
0.0851619
0.0273132
0.0791769
0.0495501
4.11942
0.0878051
0.0258021
2.05609
3.95621
0.109375
4.41443
0.119451
0.0253652
0.0566918
0.151322
9.43622
0.0266551
0.109263
4.43109
4.15853
3.92438
0.0256226
3.77807
0.0259895
0.025408
0.0256781
0.0966702
3.76498
0.454796
4.61188
3.90086
0.109581
0.0596629
0.0256945
0.0254639
0.0247201
0.0531146
0.149065
5.94038
0.0356979
3.8464
1.81874
0.0254989
5.15894
0.0323472
0.0251515
0.0366307
5.53215
0.02527
0.0256535
0.0259343
0.0250048
0.0248342
0.164794
0.0249532
4.66193
0.0266998
0.0256623
0.0252779
0.0819137
0.0253847
0.0256689
4.4328
0.0726626
4.17574
0.409795
4.62474
0.257423
3.91322
0.0260973
0.0253973
4.12002
6.83305
0.025293
0.0252316
2.15731
5.81483
0.0253766
0.0507059
0.0254488
4.83071
0.0902408
3.60085
0.024727
0.0431262
0.030485
0.0271366
9.23537
0.0297923
0.106672
0.266858
0.0902018
0.0289376
0.0607396
0.229957
4.51901
5.40746
0.0253497
0.0265283
0.0402919
0.0297353
5.83171
0.0250977
0.0275958
4.00522
0.02529
4.45189
3.87974
0.0252747
0.0265274
0.0283791
0.0265692
0.0285181
0.0251325
0.0922887
0.0558889
4.20915
0.0354375
0.0320445
0.026882
4.12119
0.0252678
0.0254104
0.0613173
0.0274667
0.025377
0.0332324
0.0247326
0.169471
0.0250076
0.0268331
0.0259783
10.2756
0.0254799
5.42141
0.0267056
0.0253034
0.0250599
0.0254885
0.0514174
0.0274088
0.262968
0.0255714
0.0297263
0.029753
0.249776
0.0247215
1.97414
4.39097
1.59414
0.0252761
0.194912
0.0344064
4.12242
0.057439
9.06119
0.0562517
0.0253513
0.153261
0.296208
0.0610011
0.0251313
0.0825327
4.78232
1.03208
0.02707
1.75177
4.02201
0.0283535
3.84496
0.0470251
0.0267093
0.209163
0.0267519
0.025022
0.025525
0.0254602
0.395643
8.07109
0.0247264
0.0296945
0.26037
0.040421
0.0254598
4.09214
0.0253349
0.0255207
0.10169
0.0304382
0.0506582
3.65906
0.862175
0.115714
0.0265861
0.025937
0.124166
5.97663
7.08491
0.225035
0.0284243
0.0298136
0.119545
0.0250568
0.0284149
0.0283336
0.10908
0.0386027
0.0278921
0.0253316
4.04785
0.0256293
0.02523
0.161956
0.0256766
4.3805
0.0411191
0.025677
0.0539669
0.0267643
4.35404
0.200954
0.0252911
0.114871
0.165905
0.0593712
0.040452
0.0595397
5.32603
0.0901982
0.025493
0.0253463
0.199116
3.91693
0.0306215
0.0257996
0.0254366
4.12283
0.025609
4.33492
0.0254683
0.0599257
0.040571
4.05871
0.0718813
0.0335148
9.86987
0.0256818
0.344706
0.024872
0.0251116
4.547
0.025223
0.0263566
0.0587782
0.032963
0.0250265
0.0252858
0.075149
4.25712
0.069323
0.0369014
4.42868
0.0296067
0.201131
0.0249723
0.0252836
0.0816495
4.3018
0.356568
0.0256437
6.80462
0.0285389
0.0251205
4.98306
0.0285335
0.0253022
0.0260182
0.0505921
5.99033
0.0609673
0.10847
0.0299694
0.0362756
0.120687
0.0256073
0.026581
0.0597655
0.0316298
9.69561
0.158429
0.0588415
0.028432
0.0249296
0.0304263
0.0586964
0.148269
0.0256969
0.0284773
0.0249157
0.0299733
0.0850334
0.430204
6.34442
0.0254144
0.0268193
0.251823
0.0259569
0.025432
0.0253444
0.0592395
0.0289465
4.76945
0.0254647
3.8437
0.859941
0.0253066
5.85376
4.30596
0.0705075
0.0254053
0.0921827
0.222643
3.96955
0.033329
0.0394339
0.122421
0.0268137
0.0257306
0.0256109
4.49182
0.025074
4.15977
0.0253341
0.0247734
0.0251378
0.047032
0.0247915
6.78423
2.84023
0.025489
4.18877
0.0255907
0.0247999
0.0248601
0.0254777
0.119967
0.0256909
0.0371752
0.193817
9.43176
8.46664
0.0256733
0.0372092
0.0250191
0.0275163
0.0466605
4.23723
4.15426
3.68899
9.28266
0.0250224
0.024668
0.0254701
0.0250869
0.10972
0.0253323
0.0253974
0.0254502
0.0248566
0.0300081
0.0283314
0.025124
5.85912
0.025656
0.0255834
0.0248602
0.0253165
0.223685
6.62216
0.0590492
0.0580244
9.10659
3.9349
4.14092
6.62984
0.0259435
0.0251961
5.20372
22.7673
0.0252178
3.89226
0.0253428
0.025917
0.0250441
17.9405
0.113144
0.025519
0.203272
0.0252183
0.0268502
5.87943
0.0295163
0.0256271
4.1888
0.0248173
0.0286672
0.0291535
0.0282369
0.0541483
5.37042
0.0250293
0.0251246
0.0254297
19.7035
0.11618
0.0263153
0.0250306
0.910516
0.0246721
0.0603081
0.0253325
0.024996
0.0254562
0.0253509
0.025486
0.0254006
0.0250086
0.0270948
0.214
0.0253334
0.175944
0.0263038
4.29169
0.0254222
1.96563
0.0256301
6.65239
0.025689
0.0253206
2.71615
0.0586406
4.43482
0.0756856
0.0495267
9.1156
0.119308
0.0250881
3.8914
0.0320534
0.0264721
6.63926
0.0255399
0.218264
0.204039
0.0285146
0.169925
0.39632
0.0252707
0.265501
0.0253973
0.0296993
0.0253703
0.0297268
0.0568337
0.0249964
0.0294805
0.0256579
0.849171
0.0825068
0.029517
0.0357518
0.0296586
0.0256213
4.68358
0.167459
0.158691
0.16913
4.12815
0.240117
0.0256022
4.22793
0.0285406
0.0253287
4.30461
2.88449
0.0256597
1.14396
4.21111
0.198118
0.0255419
4.05942
0.11646
4.20819
0.0421445
0.025232
9.53526
0.226385
0.618581
0.0263776
0.0256554
0.0297745
5.57922
0.0265733
5.78655
0.206376
0.0258409
0.0435069
3.45647
6.09642
0.0387895
4.0683
0.0267093
0.468824
4.27286
0.0253318
22.4603
0.0274134
0.0254614
3.54419
0.0270251
0.221874
0.0626889
0.0296319
0.02529
0.390623
0.240801
0.0267042
0.0253323
4.00078
0.0250178
19.6849
0.03839
0.762635
0.0250877
0.0255769
14.9754
0.11319
0.378669
4.11751
0.0605091
4.09929
0.0773264
0.0264689
3.92652
0.0275173
0.0254597
0.427615
0.229557
0.0270707
0.0253516
0.0248263
0.0253172
0.0254029
0.115302
4.13378
5.65143
0.0252599
0.033647
0.0265561
0.276759
0.0253232
3.93745
4.14318
4.4665
0.465897
0.0344959
0.0251814
4.19533
0.0252233
0.025954
0.025931
0.0257974
0.0419872
0.0345431
0.0260084
0.0259922
0.0253776
0.0258523
0.0253352
0.0252273
0.140662
0.0991114
0.0253319
0.0253031
4.10727
9.66135
0.0294631
1.81222
0.0476763
0.0537953
0.212351
0.0250617
0.0252214
0.0253879
0.0252157
0.0258399
0.110698
0.0252653
0.024931
0.0252385
0.0253494
4.35908
0.0495922
0.0248345
0.0275946
0.0254648
0.0581856
0.0248872
9.91043
0.443822
0.0250793
6.05636
1.34748
0.203207
0.0605693
4.23337
4.50976
0.0253184
0.0252837
0.0259946
4.19596
0.115689
0.0272296
5.96885
13.5433
0.0248246
0.025113
0.0258967
0.0564629
0.0293658
0.0253687
0.0253064
0.0252348
0.0251352
3.7929
0.366885
0.0254546
19.303
4.14392
0.0255736
0.0252028
0.0265602
0.0414886
3.82011
5.59268
3.95659
0.0813975
0.18604
2.2045
0.753993
4.51082
0.0276082
0.0549718
0.0299284
0.0295848
4.24994
0.0250613
5.24595
0.288512
0.0256559
0.0614294
0.0250722
4.62034
0.0263454
0.257689
0.892175
0.0249347
9.05338
0.0250601
0.0256643
8.88297
0.0282664
0.0250887
3.8268
4.30195
0.025368
0.163129
0.027495
0.0768244
0.0253073
0.0246758
3.70273
4.1925
0.221014
0.0251887
0.0267474
9.68376
0.0325072
0.0251992
0.0255116
0.0284384
0.0249665
0.115183
0.0297043
4.25803
0.0565142
0.0451057
4.58009
0.0253488
0.0252788
0.0415108
0.359791
0.101725
5.03661
3.87272
0.154338
4.18143
0.0250784
0.0252642
0.0440629
0.0256472
0.0248197
0.0274314
0.0301321
1.30919
0.0274354
0.041267
0.35433
0.0341741
3.57464
0.0254348
0.0261938
0.0249598
0.0253881
0.0569966
0.0252739
0.0392682
0.2406
0.133254
3.56449
0.0251781
0.104022
0.189899
0.0249349
0.0251857
0.228814
0.0251101
0.0252691
3.90425
0.752098
0.136762
0.0827882
4.56962
0.0627332
4.10946
0.0335835
0.0252275
0.101338
0.0254083
0.457315
3.72493
0.0253783
0.140205
0.0275419
0.0816805
4.2337
0.0253736
0.158409
0.821308
0.0338435
0.822922
0.247227
12.2422
0.0568431
0.0345829
0.339601
0.0515149
0.0249008
0.0252672
0.0738691
6.0444
0.0250867
0.0294512
5.151
0.0464523
0.0271933
6.66903
0.0254666
0.0417486
12.9591
4.33691
4.21471
0.025285
0.0271539
0.0251708
0.0283523
0.0273475
0.228693
12.1709
0.0325248
0.145465
0.0281723
4.23183
0.0249411
0.0253361
0.0327624
0.0252971
4.12145
4.37502
0.0568111
0.0586535
0.0254099
0.183925
0.0253447
0.025475
0.0287044
0.0253953
0.159266
0.0292327
0.164042
0.284461
0.0247065
0.0580902
0.0331981
0.0251783
4.23839
0.0262426
0.0623163
7.27464
0.219029
0.02512
5.88713
0.0388701
0.0254131
0.0254915
10.2023
0.0251613
4.1851
0.0255848
0.0252477
4.37881
0.101195
0.0698053
0.024946
0.0291348
4.70634
0.0251584
0.0250641
10.5596
9.8112
0.0573105
13.3043
0.0253317
0.228609
0.0512734
0.0263222
0.0768442
13.3157
6.07576
0.0606458
0.0253929
6.11381
0.0251438
4.07736
9.88238
0.0250743
4.7346
4.88877
0.0518349
4.10076
0.0252912
0.0247938
0.0247027
0.057989
6.40124
0.218469
0.0257234
4.31707
0.0258711
0.025427
0.115996
0.0251812
0.0262297
0.0249996
0.10077
0.0253006
0.0268122
4.168
9.84166
0.0715691
0.0253268
0.025675
6.37125
0.194379
0.15606
0.0248389
0.07178
0.0561177
9.63781
0.0255044
4.48592
0.343811
0.0258044
0.0252829
0.0257559
0.154589
6.16306
0.0255855
0.0305966
0.0273614
0.0255551
0.025373
12.2951
4.86112
19.2926
0.0254408
0.0668006
0.172667
6.16021
0.0983016
0.223138
0.0257297
7.32875
0.038905
0.0775425
4.3911
0.0255776
0.0255028
0.0267151
0.0253522
4.82061
0.0250084
0.0950315
4.29004
0.0246712
0.025328
3.8029
0.0248378
0.0251356
0.0573279
0.0256444
0.044379
0.0790551
0.0254549
0.0252428
0.0781419
0.0247796
0.0252502
3.88791
0.0277298
0.0251813
0.0267119
0.0255377
0.025278
0.0252018
12.0877
0.0251777
0.0795914
0.19534
0.0250161
0.0256787
0.0464408
0.0279928
0.0250421
0.212154
4.05906
0.0257435
0.0252276
0.0253851
0.0305901
0.0266135
6.76917
0.310348
0.0249047
0.0256345
4.45351
0.0293908
6.83595
0.027139
5.86288
0.0257236
0.0518302
5.51863
4.53382
0.0252854
0.0295457
0.0249151
0.0256906
39.0821
0.109388
4.28496
0.0417908
0.0292949
0.0366249
0.0253834
8.95112
0.256921
0.0255036
4.35105
0.0274345
0.0252753
0.0254107
0.0253951
0.0297381
0.0290449
5.4146
0.0254502
4.13503
4.91874
0.0506464
0.0251768
7.48104
4.24024
0.0254918
0.241435
10.6181
0.0255112
0.230368
0.0327222
0.0752676
0.0543667
1.54446
0.0256796
3.57963
0.18862
0.0248448
0.0251891
0.0247923
0.0286959
0.243884
4.45398
0.0249299
0.0256682
0.0253274
4.34271
0.0329344
0.0258704
0.0255669
4.83592
7.56451
0.397509
18.8528
4.46484
0.0256829
0.224014
0.0254532
0.0413146
0.0250266
0.247434
0.0256788
0.0592548
0.0278504
0.0258307
5.21903
0.0252131
0.0443281
5.41099
0.118526
0.0255072
0.0253377
0.0252549
6.52936
0.161858
0.0655712
0.0276417
0.0423172
3.44562
0.172055
0.02569
3.98484
0.0314025
0.0283532
6.54007
0.0255121
4.03777
0.0254588
17.0746
0.026334
0.0253289
6.69698
0.0329815
0.0257015
0.0253543
3.87722
6.02563
0.0553846
0.0695449
0.101448
8.79133
4.09382
6.62361
4.1837
0.0270359
0.0252072
0.060302
0.0569047
0.0256403
0.0253378
0.0400161
0.0253789
0.0253881
3.87618
0.0294041
0.210862
0.0312613
0.15784
0.0253967
0.236222
3.88942
0.0252943
0.219869
0.0252754
0.320273
0.0254264
4.67709
0.0382353
0.142153
0.0250857
0.025234
0.807045
9.60944
0.025318
3.90148
0.0259988
0.0253738
0.0253769
0.0324771
8.68786
0.156299
0.0254205
0.0284765
4.73249
0.0254446
0.0782415
0.0253005
3.91908
0.0253934
0.0247846
0.0317096
0.0701004
0.0272436
0.222601
0.0253745
0.0307011
0.0472479
0.225783
0.0253183
4.81587
0.0250345
5.49167
4.07907
0.791484
0.0253327
2.21135
0.033891
0.0253351
0.0253568
0.0252705
0.281595
0.0253577
0.25613
0.0774173
0.387799
0.0251239
0.0247451
0.0248597
4.73018
0.0350582
6.00628
1.53481
0.0252105
4.49962
0.161764
0.025926
4.2429
0.0253846
0.0379754
0.0289921
0.0293569
0.0259818
0.135699
0.0900357
0.0251147
0.319974
0.0253851
0.0252426
0.0256946
0.0253854
0.0257103
0.0263326
0.0254548
11.1853
0.151948
0.192136
0.0254182
0.0260072
0.210954
0.0413
0.0348978
0.0249313
0.0252819
0.167717
8.4027
0.0256457
0.372491
0.0255151
4.70842
0.171009
0.0252663
0.0249985
0.118346
0.0589053
0.0262256
4.29638
0.0254
0.0273205
1.74523
0.0507387
0.0249505
0.0476354
0.0254667
0.0441764
0.0255831
0.206599
0.0255183
0.0333741
0.0266696
0.0396349
0.0262061
8.63386
4.22897
0.0252789
0.0253916
0.363287
5.43173
0.0253844
0.0256954
0.0600197
4.07165
0.0251953
0.0310317
0.354309
0.0255317
0.0263007
0.0476905
0.0256586
0.0256582
4.58779
12.447
0.025441
0.0252444
0.0303449
0.0248601
19.0038
4.6754
3.98367
0.0311929
0.16179
6.73554
0.0272933
6.431
0.253266
0.0255025
0.0252094
0.0416792
0.0250054
0.0262771
0.363698
0.0574387
0.0293259
0.0918808
0.0466844
0.0797361
0.222752
14.0335
0.025048
0.0295865
3.96873
0.241408
0.0402698
0.143261
0.0682016
0.0253312
0.224278
0.0395683
0.0261843
0.0282751
0.0252674
0.462859
0.0256775
0.0253705
0.0253632
0.0395754
7.92205
0.22621
0.2577
5.39935
0.0427553
6.80173
0.0317554
0.0255192
0.031955
0.0419662
0.0263983
4.2671
0.251186
0.028138
0.143067
4.64099
0.119912
0.0253524
0.0337426
4.07284
0.0253345
0.0253668
3.70088
0.0269509
0.0255352
0.0500851
0.0260185
0.0391778
0.0262856
0.117828
0.0249833
5.0036
9.54658
0.0586732
0.0253262
0.157568
0.165333
0.0254773
0.0347418
0.0253369
0.0255143
0.026344
0.0252966
0.0249936
8.32308
0.290581
0.0253383
0.025588
0.0255985
4.26013
4.21803
0.0248583
0.234619
0.0372926
0.33934
0.0255207
0.0275283
0.0250618
0.0251034
0.0265277
0.0253309
0.0421931
5.66745
0.155947
0.0817248
0.0252312
0.0250612
4.37735
0.054672
7.47422
0.403928
3.92888
0.0252371
0.033753
0.0395747
0.0561781
4.13648
0.384954
0.0248802
0.024795
3.99241
0.168426
0.0250045
0.0836625
6.38249
0.0251531
0.0254712
3.75145
0.0274179
0.209395
9.28021
0.0273642
0.400695
0.02748
0.0552731
4.23437
0.0551798
0.0253355
0.117347
0.118151
0.0252659
0.0422354
0.0791882
0.0261667
4.31038
13.6249
2.50258
4.10744
0.0253314
0.0251619
0.257927
0.253154
5.41717
5.04364
4.9259
0.0454944
0.027896
0.0246933
0.0254697
0.0565103
0.0250871
6.36332
0.0837651
4.6549
0.0251381
0.0252401
0.0253461
0.665944
0.0329385
0.0273993
0.0250852
0.142746
0.0256558
5.67119
9.64087
9.16631
8.5014
0.0925083
0.0254649
3.9068
0.0255714
0.281136
0.0687384
0.0254644
6.07931
0.182123
0.0594881
0.0251317
0.0269712
0.0251798
4.30531
4.01417
0.0250943
0.025333
3.5753
0.0252305
12.7798
0.131972
0.0552136
0.025154
0.0253891
0.251266
0.0975715
0.364029
0.0253722
0.0254925
0.0579914
0.0249263
0.0573822
0.19158
0.0249285
0.076592
0.0332064
0.0253458
0.0253282
4.26873
0.045454
0.034683
0.118115
0.0577413
6.2657
0.0250781
0.0574009
0.0253064
6.44449
0.0253372
0.0462679
0.0254359
0.0251069
0.032519
0.0252084
0.0283244
0.0267205
0.0248777
0.0491301
0.0258641
0.100037
5.38807
0.0750992
5.65112
3.44374
0.0269905
0.227375
0.0252246
0.0255893
0.0384357
3.83877
0.156019
0.0380584
3.59373
4.15282
8.68955
0.0251896
0.0251985
0.0275255
0.343635
0.205394
4.14118
0.025487
0.026999
0.0260493
0.0259938
0.20842
0.132707
0.20553
4.38068
0.025225
0.0253318
0.0255724
0.0257848
0.194175
5.37136
0.0251874
0.0499109
0.0251372
0.025341
3.89213
0.11815
0.390708
0.10959
4.49003
0.0251429
0.027134
5.27005
0.117495
0.419508
7.27456
0.207884
0.025047
0.0288632
4.06776
0.025059
4.77065
0.0270044
0.0252355
0.06887
0.0255039
0.0272757
4.06868
0.0251218
3.6803
0.260621
0.103516
0.0651145
4.59131
0.0589609
0.0247683
3.78012
6.4806
0.0328057
0.0253854
0.025269
0.0262216
0.0410095
1.18821
0.025275
0.5122
0.0251446
0.0251179
1.10623
0.0359187
0.0255641
0.0256625
6.14955
0.0585191
0.0251134
0.0252995
0.0255787
0.0759888
4.31371
0.0252915
0.0253125
0.0252843
0.0253779
0.029466
0.0449343
0.025503
3.4401
0.0387793
0.0683721
0.0379852
0.0248569
6.49148
0.0372518
0.899123
0.247475
0.0262297
0.0253935
0.0263618
0.0435341
4.20951
0.0345934
0.0300799
5.35021
0.0274435
0.0961748
0.02544
0.0254748
0.0256085
0.025336
13.7146
0.372605
0.0254537
0.0252855
0.0261938
4.16195
0.131293
0.0248649
0.0265137
0.0250229
0.0293751
0.192702
0.0272684
0.0252677
0.024861
4.3916
4.44097
0.0250847
0.161875
0.109256
0.0663605
0.0251489
0.0253554
0.0506396
0.0256749
0.025077
0.0267532
0.432709
0.11679
0.214661
7.33311
6.07484
0.0252331
0.0256951
0.0649966
7.45535
0.0561929
0.0259307
0.0254939
0.507714
0.11011
0.220373
0.150393
0.0251211
3.99522
0.0252709
0.466187
0.0253603
0.0256888
1.26459
0.0569859
0.0370878
0.0739622
4.97779
4.18727
0.0249341
0.0254309
0.90299
0.0260624
0.0249383
0.0257459
0.0246901
4.29093
0.0254153
0.0254431
4.24688
3.82825
0.0252167
0.0253001
0.0251164
0.0252754
4.06312
5.45965
0.363353
0.121596
4.64752
6.33532
0.0250138
4.32425
4.03205
7.12535
4.00831
0.0272199
0.0255587
0.0254946
0.0255948
0.0263744
0.0253712
0.0256213
4.78162
0.0327096
0.0442613
0.0395529
3.41304
0.0353807
4.29158
3.61648
4.79273
0.0458827
0.0252843
0.0943388
0.764743
0.0263853
0.0252067
0.0256216
3.91278
4.43964
0.0548618
0.0252297
44.9383
0.0250353
0.0450177
0.0254873
3.34514
0.0247083
0.0252349
4.16091
0.0276971
3.71901
0.0253537
0.0305429
0.0260628
0.145953
0.0251446
0.0971306
0.12586
0.025094
0.0255139
3.82446
0.824626
0.0385036
0.05918
0.0253431
1.42519
0.0252343
0.0248653
0.0259401
0.0253375
0.0301009
0.0434518
0.0452098
0.0256007
0.0253284
4.79406
0.0256403
0.0376243
0.0248758
0.0261274
0.0253602
0.0254486
8.56677
0.02512
0.025289
4.14732
0.0256473
3.53715
4.92154
0.0266641
0.0254595
0.385642
0.0968988
5.08945
0.031033
0.0448871
0.0318256
0.0249438
6.76724
0.0253342
3.58754
0.0929944
0.044052
0.0283573
0.390697
0.0303439
0.0252961
0.243375
0.0252433
0.0251309
0.030894
8.59142
4.80998
5.90321
12.5709
0.0444415
0.0293463
0.0329342
0.025072
0.0250619
0.0247193
0.216846
0.0266516
0.0303495
0.0252539
4.60439
3.44959
0.0287103
0.0253287
0.21269
6.18338
0.0253607
0.0253189
4.72973
0.0253638
0.0316457
1.08932
0.0253335
0.0256952
0.243286
4.06837
0.0256637
0.0389792
0.0252923
0.025373
0.0271732
0.047654
4.31378
0.0420578
0.0255107
0.0253134
0.200741
5.35969
0.0252038
0.0256802
4.26765
0.0253404
0.159186
0.0269172
0.024977
0.0271593
0.477283
0.0251605
0.025725
0.0255033
0.0284907
0.0252596
4.50552
0.0255876
0.104351
0.109637
0.0254584
5.22976
27.3836
0.0249359
0.0405534
0.024927
0.042056
5.25668
0.0399223
0.0253383
0.0298021
4.42343
0.0252036
4.41275
0.026647
0.0267023
0.0915857
0.02549
0.0251413
0.0326742
3.33755
0.0651451
3.71739
0.0250402
5.70061
0.252193
0.0257309
4.15569
0.129867
0.0596968
0.0273613
0.0252703
0.025196
0.0302368
6.03463
0.153638
0.0249336
0.0254701
0.0268391
4.53072
4.3012
10.3865
0.0247051
0.0257342
0.243775
0.0248667
4.34989
0.0252929
0.0254792
6.45989
0.0251325
0.0400567
0.0251004
0.0252657
0.0499609
0.025126
0.0251666
0.0250961
0.0254872
5.23402
0.142404
4.26737
4.98737
0.0274288
0.0469742
0.172996
0.0259319
0.745414
4.1925
0.0429631
0.0254098
0.0255141
0.0422957
0.719468
0.102397
0.0255502
0.0250749
6.83126
6.57195
0.0252942
0.0557334
0.22252
0.0944169
0.208979
0.0255748
4.27748
5.04432
0.0250972
0.0253591
3.77464
0.993097
0.117223
25.3353
0.0299351
0.0587943
0.0256687
5.64449
0.05167
0.0312397
0.0576788
5.80663
0.0251754
0.0252251
0.0275264
0.207242
0.025151
4.777
0.0697977
4.35505
0.0252501
0.0254178
0.0940052
0.025195
0.169163
0.0762201
8.0594
5.43064
4.28732
0.0336023
0.0253464
0.0250343
0.0257007
4.34797
0.0746935
3.97864
4.39191
0.0252712
0.0257107
0.160886
0.0255194
0.493433
0.0251022
0.0316231
4.15954
0.025442
0.0323721
0.0257857
0.079921
0.0392163
0.0254048
4.15757
0.153346
0.118747
4.29787
0.550743
4.71963
0.0253187
5.4569
4.31905
8.29837
0.0250646
0.0250382
0.0267178
0.0936194
5.50096
4.17364
0.0250909
0.0252521
0.269546
8.35755
0.0256699
0.0254309
0.0259394
0.0249441
0.0936835
4.3576
0.0255752
0.185511
22.3883
0.263024
16.4328
0.0681984
0.0253998
0.024775
0.0250303
0.0268241
4.25203
0.0650139
0.032783
0.056628
3.3651
0.0251826
0.024871
0.181539
12.2274
0.0409138
3.59802
0.186725
0.0256934
0.0249325
0.0667945
5.35921
0.0656009
0.0255879
0.025172
0.481649
5.24408
0.0265909
0.0254353
4.01507
0.400608
0.0332815
0.0256644
0.029762
0.193004
0.0247582
16.9856
3.36439
0.196605
0.0279652
0.0257043
0.02506
0.0755457
0.0269022
0.0252523
0.0533939
0.0256434
0.0508028
4.71926
4.23656
5.41438
0.0249892
0.0250643
4.86355
0.0256287
4.22037
1.13213
0.0254285
0.0255699
0.0320595
0.170182
11.7213
0.113532
4.02526
0.02501
0.0248703
0.162302
0.0250964
0.046113
0.0253137
0.0348144
0.0990409
0.0275561
0.0331485
1.67014
0.0252808
0.031488
3.89168
0.160755
4.20936
0.0250217
0.0253711
0.0262033
0.0254512
0.0271828
0.0254445
0.0265367
0.0323762
5.16501
0.0251684
0.661956
0.0452893
0.0250753
0.258181
1.4373
18.6299
0.315544
0.0280956
3.61383
0.0255953
0.0681482
0.0252427
0.025292
0.0248347
0.0259157
0.141012
4.2362
0.025522
0.0256897
4.26034
0.0582085
5.52296
0.0324549
0.025373
0.0256577
0.0383947
0.105047
0.0309031
0.150506
0.0338463
0.0288526
1.2436
0.0435351
0.0253336
3.88716
0.0260317
0.218865
4.38146
0.111535
5.07305
16.7278
0.028146
6.7813
0.0280911
0.0300387
0.0313065
0.0264025
0.0262582
5.40188
0.0461795
4.0845
0.0262317
0.0253319
0.0256015
0.228641
0.0253235
1.35275
0.0262864
0.0751928
0.0250216
0.0248755
0.0250727
4.33178
0.0434807
0.0254733
0.0255122
0.0501063
0.0254593
0.143855
0.0248907
0.0252648
0.02498
3.42754
0.236023
0.129258
0.0255589
0.0251522
0.0256229
0.0256763
0.0281547
0.0752531
0.105305
0.0255677
0.0253517
0.267505
0.0252994
6.51576
0.0254985
0.0256675
4.23583
0.0300237
0.0269449
0.985256
0.0250292
0.0486811
5.22653
0.0254054
0.0256439
0.0253205
0.0269044
0.0249869
0.0355711
0.439104
3.80845
0.0256139
0.0451424
0.0891118
0.530669
0.0253492
0.0253424
0.0250036
0.0450025
0.516737
0.0340306
0.0255461
4.68173
0.0340245
0.0248641
6.5641
4.34567
0.0346162
0.0252526
0.382257
0.0254629
0.0248579
4.20504
4.14401
4.75387
0.0252992
0.0251967
0.0332858
4.20922
0.0251326
0.0405973
0.0287257
0.082631
0.049031
0.0932849
0.02467
0.0372758
4.66663
0.0559412
0.0252349
0.0252852
0.0537421
30.9048
0.0524684
1.50473
0.0252338
0.025903
0.0480419
0.0285404
0.025326
4.27922
0.204467
17.3401
0.0290775
0.024884
5.28409
0.0251429
4.14262
0.0455704
2.71699
0.404723
3.47997
6.64183
0.0269127
0.0255248
0.0252955
0.0254335
0.224669
7.16777
0.0251231
0.0252562
0.0256749
6.28438
0.0253234
0.0254265
0.13998
0.0255465
0.081515
0.0976478
0.0248663
0.0696036
0.0256812
0.0603568
0.0253314
0.0275094
0.0252131
0.0265286
0.0249874
0.0770488
9.89867
0.0277255
0.0256584
0.0359641
0.0551513
0.0251975
0.0253267
0.0319698
0.024875
3.60049
0.0262007
0.0328907
0.0253339
0.202996
4.11858
0.0247706
0.0268198
0.0256604
0.179116
0.0430953
5.09423
0.0853972
3.78709
0.0254209
6.28937
0.0251042
0.0256325
0.0252144
0.0255204
0.0878778
0.0344678
7.78712
0.0572962
0.0253757
0.0256808
0.143823
0.0321904
0.038987
0.0675128
8.68459
6.71112
0.0380649
1.46923
0.0400571
0.375101
4.30032
1.24858
4.55253
0.379587
0.0251977
0.0252688
0.0270566
4.23342
0.0316057
0.0256969
0.0760049
0.0247147
0.0249416
0.0562919
0.0252551
0.0254778
0.0263009
0.026785
0.0270315
0.0252342
0.0314152
4.3016
0.0274285
0.0248841
0.0252829
5.44908
6.32661
0.024784
4.66254
5.50396
0.0367568
0.0248146
0.207306
6.73098
9.35068
3.75683
2.22059
4.46737
0.0871636
0.0254088
0.024945
5.17289
0.0284686
0.132126
4.46354
0.0382328
0.0282773
0.0269899
0.0262656
0.0564932
0.117237
0.0253523
0.0526663
5.07079
0.025026
0.0249304
5.09089
0.0253376
0.0989877
0.0256948
0.0249875
0.0257097
0.0253612
0.0253977
3.96073
0.0270442
0.123594
0.839665
0.0255702
0.0251436
0.027806
4.30194
0.0249923
0.0249983
6.67486
4.71996
4.27364
0.0262801
0.111773
0.0254288
0.118733
4.91342
0.0271156
0.0703576
4.98715
0.0253156
0.172763
8.52785
0.383133
0.0749791
4.20633
0.106395
0.0733398
0.204474
0.0753568
0.0800712
0.0253649
0.645271
0.0349688
4.61471
0.0252679
0.0255446
0.0255591
0.0250808
0.0259125
5.19806
0.179545
0.0467094
0.0252255
0.452907
0.0255492
0.231267
0.0448057
5.15495
0.0250981
0.0254058
0.15115
2.36219
4.26898
0.025568
0.142998
4.22901
0.118775
0.0271674
0.0254354
0.0795684
1.19504
0.0273571
0.0375783
0.221134
0.0253058
0.0256034
4.16978
0.076628
0.0251402
0.0259487
1.09255
0.026962
0.0325444
0.0352342
0.0256726
4.43726
0.025299
0.0327354
0.0512593
0.102959
0.0248745
0.0252092
7.01926
0.0248751
0.0344338
0.0375836
0.025049
0.224614
0.0259614
0.0319456
0.260518
4.0697
0.348605
0.0250686
0.243352
0.0353118
4.58912
6.8154
0.46446
4.09494
4.34695
7.20303
0.145672
4.69848
0.131341
0.0443796
3.51734
0.0251631
4.68111
0.02545
0.0248871
0.0256924
0.0822743
7.88288
0.0448439
0.0250249
0.0253824
0.025642
0.142968
0.0370825
0.0702866
0.0252543
0.0253526
0.0251452
0.0259313
0.0450723
6.86496
0.0251823
0.0843286
0.287352
5.34429
0.0447639
5.91449
0.148609
0.0253345
4.61982
0.518439
0.075224
0.19286
0.0255492
4.09691
0.026033
0.0262931
0.247141
4.40792
3.79249
0.0282535
0.214777
4.11954
3.4645
0.220023
0.0252421
5.08053
0.0249053
0.055038
0.251525
0.194278
0.0272287
0.699525
0.025861
0.0249816
0.064638
0.0254092
0.161261
0.0263051
0.0256903
7.65083
0.0252601
0.495044
4.24054
0.0276895
0.376287
0.025431
5.47115
0.0287593
4.28357
5.33055
0.266698
0.0298326
5.4696
8.41494
0.0421748
0.200537
0.0257523
0.0650438
0.752216
0.0259048
0.0385619
3.58649
0.0265793
4.33149
0.0255238
0.0254065
6.97955
0.0295192
4.23532
0.0864971
0.0281579
0.789396
0.0250481
0.0760829
0.0667607
0.026568
0.152443
4.15625
0.0254583
0.0254008
0.0256192
0.0261687
0.211858
3.48184
0.108665
0.0288025
0.0247322
0.025164
0.0371675
0.0254473
0.0282349
0.024758
0.0616347
0.384802
5.95413
0.165423
0.039599
0.0248195
0.273534
4.7243
0.111874
0.292823
0.0453655
6.32361
0.0295373
0.0290196
0.0254085
0.0257166
0.0251423
0.0423424
0.0520844
0.025417
0.0253036
0.158322
0.0249573
0.0253742
0.100261
0.0254374
0.0250988
0.102742
0.0476213
0.0840693
0.0443487
0.0312162
0.280969
2.16991
0.0248184
5.69598
3.94051
1.7068
0.0250997
0.0476681
0.0250043
0.025046
0.0248156
8.58943
0.0268514
0.0548182
0.0252243
0.0249329
0.044554
0.0579738
0.0707998
0.0398851
0.111483
6.29829
0.0250786
0.0254508
0.545324
0.0264432
12.8063
0.248326
0.0251319
0.0419299
4.86179
0.78987
0.0440928
0.380642
0.0324749
0.0254415
0.0251245
0.0741707
0.0253366
0.0252913
0.0926362
0.0250521
4.11748
0.0288535
0.112507
4.8851
0.0273131
5.9025
0.0259654
0.0791934
0.0252021
0.0250605
0.0252335
0.0259481
8.15151
0.0256071
0.0250556
0.0759784
0.0603499
4.28726
0.0251285
0.0918688
0.025355
0.0312028
0.684751
0.0366445
0.0851066
6.68208
0.0254498
0.0255017
4.24025
0.0252624
0.0271105
3.43694
0.0262308
0.0250205
0.075976
0.0247272
0.143376
0.0254901
5.40557
0.0255011
0.0251637
0.233057
0.0784999
28.5352
0.692308
0.025478
0.0253181
0.0808218
0.0254134
0.0256828
0.054927
4.35046
0.0721856
0.0250239
0.0271072
0.146169
0.0248064
4.32413
0.0251406
0.0699242
0.121199
0.138584
0.494287
0.0733127
0.380544
1.60732
0.249382
0.0249387
0.0264334
0.0247989
0.0569695
0.025796
0.0272064
5.28629
0.0702488
0.0251431
0.21184
0.0573746
0.0252747
0.0578176
0.0614341
0.080887
0.218766
4.03469
3.99669
4.89858
0.0290524
0.0256254
0.0252311
1.41624
0.0250503
0.0515512
0.0248491
0.0259598
0.0255917
0.0256224
7.54207
0.371645
0.0254372
0.025203
0.0432514
28.4528
0.0398155
12.9768
0.0254151
0.385737
0.026608
0.025012
0.0354015
0.264454
1.98979
0.160228
3.75024
0.118052
0.401634
5.40115
0.0449289
0.0255563
4.08766
0.0250193
0.0252012
4.11161
0.0255902
0.025283
0.0262216
0.0295189
0.0419292
16.1141
6.29915
7.16443
0.0719599
3.97111
7.24747
3.84811
0.0249712
4.12422
1.65712
0.0256024
0.0255972
0.0252344
0.0250448
0.0558972
6.53035
0.0253426
0.0542227
0.0255085
0.116936
0.0419103
0.0250725
0.0253297
0.118559
0.0250382
4.34632
0.0389284
0.147327
0.0258735
0.0252319
0.0253382
0.479667
8.40911
3.42
0.0253117
0.0935658
0.02525
0.113507