/*--------------------------------*- C++ -*----------------------------------*\
| =========                 |                                                 |
| \\      /  F ield         | OpenFOAM: The Open Source CFD Toolbox           |
|  \\    /   O peration     | Version:  v2012                                 |
|   \\  /    A nd           | Website:  www.openfoam.com                      |
|    \\/     M anipulation  |                                                 |
\*---------------------------------------------------------------------------*/
FoamFile
{
    version     2.0;
    format      ascii;
    class       volScalarField;
    location    "200";
    object      p;
}
// * * * * * * * * * * * * * * * * * * * * * * * * * * * * * * * * * * * * * //

dimensions      [0 2 -2 0 0 0 0];


internalField   nonuniform List<scalar> 
53008
(
-0.0844473
-0.304719
0.0545145
-0.229318
-0.401354
-0.249383
-0.115151
-0.0835184
-0.00868595
0.0318686
-0.119027
-0.101752
-0.0923177
-0.110516
0.0313327
-0.0206856
-0.0678961
-0.0208401
-0.253403
-0.0644826
-0.0610212
0.140733
0.0116772
-0.110949
-0.0560924
-0.289808
-0.108844
-0.129874
-0.132131
-0.156476
-0.0917164
-0.0928462
-0.150174
-0.0218886
0.00292153
0.0573024
-0.00212288
0.00574226
-0.136551
-0.0274123
-0.00260396
-0.191165
-0.115899
-0.246605
-0.0650531
-0.0269093
-0.0274877
-0.0509563
-0.158175
0.0034854
-0.0137147
0.128496
-0.0748027
0.0165615
-0.0899357
-0.258908
-0.0642673
0.00485601
-0.100231
-0.10224
-0.0362093
-0.0517874
-0.370614
-0.0884298
-0.14044
0.0196725
-0.156744
-0.0270094
-0.00688823
-0.0243849
-0.400165
-0.00994209
0.0538778
-0.150364
-0.292533
0.00270378
0.0177914
-0.252389
-0.0191545
-0.40512
-0.25144
-0.0930109
-0.101143
-0.215724
-0.0806298
-0.0245292
0.112203
-0.00740831
0.0196407
-0.0819709
-0.405676
-0.3296
-0.092819
-0.179636
-0.297756
-0.108628
-0.0966451
0.0540519
-0.339482
-0.368442
-0.0648573
-0.0274888
-0.183094
-0.129451
-0.0876217
-0.365442
-0.378079
0.0583996
-0.131576
-0.0100536
-0.248763
-0.372037
0.0175654
-0.299899
-0.0990439
-0.0132739
-0.0630957
-0.0118807
-0.0923231
-0.406773
-0.403339
0.0530599
-0.00940946
-0.267092
-0.248552
0.0352309
-0.405404
-0.14739
-0.0952328
0.0333648
-0.0938489
-0.00968571
-0.209358
-0.0531603
-0.0136439
-0.100652
0.0249259
-0.0918081
0.00361077
-0.00425941
-0.0182092
-0.00363551
-0.0832145
-0.104872
-0.0960158
0.03998
-0.0622009
0.00596053
-0.0248425
-0.0304813
0.0115389
-0.376569
-0.403947
0.137549
-0.00104806
-0.0738543
-0.120596
-0.177643
-0.0444273
-0.319562
-0.17537
0.00372401
-0.000879776
-0.327394
-0.0566392
0.00913076
0.00741447
-0.0647311
0.0058616
0.0742943
-0.08334
-0.0900539
-0.312153
0.00810435
-0.292325
-0.0211704
-0.0827714
-0.108215
0.113276
-0.0344533
-0.00988172
-0.0559721
-0.247514
0.0291373
-0.101113
-0.0880818
-0.368099
-0.320372
-0.384826
0.00585501
-0.380823
-0.014637
0.00985061
-0.403243
0.0241526
-0.043735
-0.0832356
0.0152878
0.00984153
0.112791
-0.187919
-0.0101901
-0.0871337
0.00185271
-0.126634
-0.10901
-0.0666621
0.00992048
-0.14387
-0.0126259
-0.376626
-0.0287378
-0.172826
0.0588761
-0.131283
0.0372895
0.0252141
0.0113791
-0.175839
0.0289926
-0.113519
-0.0183044
-0.102769
-0.0184002
-0.0518923
-0.0978528
0.00238079
-0.107426
-0.0547312
-0.0185613
-0.0928691
-0.0952399
-0.0222759
-0.0922992
-0.174792
-0.366181
-0.0456773
-0.0138439
-0.405551
-0.0216207
-0.00949391
-0.0220617
-0.245965
-0.0311286
-0.0883357
0.010617
-0.234184
-0.11294
0.0306992
-0.101262
-0.0531665
0.0502621
0.00303241
0.110567
-0.0289525
-0.36482
-0.104783
-0.0367838
-0.176382
-0.0652486
-0.302609
-0.100995
-0.0631665
-0.0128695
0.0187538
-0.114366
-0.166674
0.0114308
-0.36757
-0.102802
-0.0229429
-0.0520583
0.03495
-0.244298
-0.115292
-0.0160311
-0.125739
-0.111059
-0.0894915
-0.0387551
0.0118449
0.00576817
-0.0902558
-0.106446
0.0452631
-0.134816
-0.127182
-0.393669
-0.108326
0.0286084
-0.342601
-0.0939091
-0.199698
-0.0943537
0.095191
0.00258636
-0.133334
-0.106398
-0.369424
-0.0506552
-0.201358
-0.385175
-0.20584
-0.109015
0.0143377
-0.306853
0.0432125
-0.036299
-0.0133956
-0.18415
-0.0917547
-0.174789
-0.11149
-0.122125
-0.142855
-0.141474
0.00565106
0.0197744
-0.0160003
-0.128965
-0.106656
-0.193139
-0.0167821
-0.120341
-0.339991
0.0523434
-0.119456
-0.0783295
-0.000782335
-0.0887743
-0.316068
0.0241557
0.00582733
-0.000796628
-0.00828446
-0.0178987
0.00889197
-0.0138726
-0.0960883
0.0513547
0.00586872
0.00642913
-0.174453
-0.0137046
0.0319504
-0.115237
-0.117885
-0.262455
-0.101477
-0.311611
-0.23682
-0.128723
-0.045194
0.0267679
-0.409314
-0.285303
0.0213368
0.0155632
-0.292227
-0.169799
0.045921
-0.128654
-0.0332834
-0.40711
-0.182755
-0.0912397
-0.0155266
-0.0999749
-0.0498411
0.0238776
-0.368467
-0.0567475
0.116719
-0.111903
-0.184032
-0.0674883
-0.122995
0.0920071
-0.113563
-0.320817
-0.00756696
0.00483226
-0.0958204
-0.0659169
-0.168066
-0.00321245
-0.0611499
-0.0936757
0.0213916
-0.0928029
-0.110311
0.00143666
0.00619373
-0.043894
-0.00421663
-0.0125583
-0.00437196
-0.174859
0.0610964
-0.204334
-0.0151111
-0.0774532
-0.055467
-0.262519
0.00606942
0.016563
0.0110538
-0.0532363
-0.0132075
-0.0883487
-0.0154538
-0.0916511
-0.00909786
-0.0520335
-0.0327066
-0.405158
0.00943214
-0.407974
-0.0526269
0.0171239
-0.00494705
0.0370911
-0.0357461
-0.0506362
-0.108431
0.0115538
-0.0584321
-0.0628574
-0.234912
-0.0157972
-0.0926657
-0.335265
-0.0935566
0.00628175
-0.18663
-0.055712
-0.396873
-0.118629
-0.36716
-0.117091
0.0113288
-0.210504
-0.138425
-0.118479
-0.00371813
-0.175106
-0.408942
-0.0935412
0.0413028
0.0539011
-0.111798
-0.00909891
-0.12885
-0.0844691
-0.0528599
-0.196367
0.0753419
-0.0279234
-0.0118853
0.0102944
-0.130734
-0.403135
-0.0157401
-0.0578801
-0.111386
-0.103492
-0.0109268
-0.39564
0.023976
0.0362256
-0.15843
-0.0483239
-0.127663
-0.0898217
-0.289649
-0.12822
-0.00530165
-0.03215
-0.14752
-0.198078
-0.307625
-0.0911369
-0.0490688
-0.0572953
-0.0919689
-0.00508734
-0.0658623
-0.0437044
-0.146466
-0.0707708
0.0308897
-0.0264999
-0.175747
0.0203357
0.0152849
-0.0989281
0.0111511
-0.25245
-0.0573027
0.00847509
-0.130707
-0.0510296
-0.0954211
-0.246883
0.00467183
0.0654186
-0.0986305
-0.136377
-0.102928
-0.121973
-0.322327
-0.147228
0.0161632
0.00802697
-0.247207
-0.0899983
-0.0727649
0.0274672
0.0497521
-0.374478
0.0536043
-0.404745
0.019763
-0.144743
-0.0963057
-0.406926
-0.107899
-0.0525548
-0.34426
0.00838597
-0.157797
-0.0251585
-0.00278263
-0.119576
0.00302673
-0.0442601
-0.122464
-0.0768043
-0.0132271
0.015454
-0.0415045
-0.263329
-0.137041
-0.0886236
-0.093304
-0.0622266
-0.245124
-0.0217811
0.0157064
-0.174296
-0.179718
-0.131957
0.0435163
-0.278178
-0.0578881
-0.0069762
-0.176872
-0.0116451
0.00545064
-0.0356424
-0.126193
-0.19702
-0.133942
-0.179768
-0.057078
-0.0877101
-0.0924617
0.0546949
0.0728773
-0.132404
-0.0420698
-0.346006
-0.104465
-0.10559
-0.0662366
-0.0194822
-0.0720802
-0.121473
-0.206276
0.0366832
-0.0102044
-0.0110235
-0.0565033
-0.110282
-0.241345
-0.308414
0.00432857
-0.0455054
-0.108614
-0.00158478
0.0231732
0.0234634
0.199454
-0.0672691
-0.408792
0.0341269
-0.117053
-0.284305
0.0168646
-0.168736
-0.264754
-0.10707
0.0262807
-0.139527
-0.0909275
-0.0929564
-0.0881232
-0.038024
0.245555
0.0518922
0.048404
0.0427424
-0.251335
-0.0252011
-0.175352
0.0233061
-0.0179878
-0.00114242
-0.0756929
-0.0225486
-0.284955
-0.33244
0.0163138
-0.373942
-0.0304009
-0.0184278
-0.0158271
0.0515343
-0.0940877
0.0358788
-0.0760922
-0.244249
-0.406453
-0.405887
0.00566163
-0.0765209
-0.0222648
-0.0605411
-0.0819356
-0.245326
-0.386865
-0.0930293
-0.344778
-0.0133415
-0.0184309
0.0355686
-0.026419
-0.143965
0.0370123
0.0276993
0.0504544
-0.0221723
-0.0639982
-0.0571185
-0.00247329
-0.173099
0.0289073
0.0220528
-0.0220956
0.0348902
-0.159765
-0.251129
-0.143076
-0.0967739
-0.347035
-0.112729
-0.409959
-0.294778
-0.0180082
0.00099132
-0.316873
-0.402455
0.00814962
-0.0931334
0.0153857
-0.0152797
-0.00526498
-0.403404
0.0748814
-0.00511506
-0.249939
0.00594456
0.0764679
-0.17728
-0.0695243
-0.0310733
-0.18301
-0.0235358
-0.0577794
-0.0703178
-0.0476264
0.0611775
-0.0826599
-0.0212986
-0.00216999
-0.0363671
-0.382685
-0.0877271
-0.0115781
-0.00570493
-0.324494
-0.0184465
-0.135053
0.036644
-0.0283495
-0.0367408
0.00276566
0.0400995
0.0264453
-0.0270667
-0.0556687
-0.251449
0.0370641
-0.180982
0.00281333
-0.32744
-0.0374614
-0.308593
0.0145512
-0.255804
0.00898445
0.0335137
-0.0915615
-0.137274
-0.12114
-0.0430736
-0.0323612
-0.33754
-0.0959151
-0.0273395
-0.117447
-0.0819474
-0.0286788
-0.306525
-0.00540953
-0.253416
-0.24828
-0.0573092
-0.100602
-0.12944
0.0184573
0.0869005
0.00851799
-0.0734458
0.0303722
-0.0702336
0.118708
-0.0282204
-0.065525
0.00958807
-0.323146
-0.175932
-0.0697472
-0.0848886
-0.0665031
0.0203519
-0.0960867
-0.226501
-0.00112011
-0.0912941
-0.181272
-0.155423
-0.0341348
-0.325095
-0.057148
0.00210947
-0.246558
-0.311192
0.0132553
-0.244866
-0.0913952
-0.197016
-0.0289627
-0.405688
-0.119744
-0.0885876
-0.112512
0.0155258
-0.387983
0.147148
-0.0931461
0.0123162
0.0106205
-0.0633416
-0.243271
-0.0502266
-0.232463
-0.159303
-0.0295256
-0.0987095
-0.0898342
-0.205535
0.0117745
-0.406946
0.0754341
-0.233109
-0.180739
0.0362152
-0.384157
0.0452553
0.0122498
-0.0879279
0.0775207
-0.162572
-0.0102443
-0.0666573
0.0155866
-0.212352
0.133979
-0.0501873
0.0245473
-0.123648
-0.0100626
-0.382323
-0.0705691
-0.0930957
-0.0270481
-0.02958
-0.405057
-0.173171
-0.268053
-0.112469
-0.135994
-0.386488
-0.15966
0.0717766
-0.125118
-0.0607061
0.0199382
-0.239736
-0.247187
-0.046656
0.0403217
-0.023844
0.00549111
0.00837369
-0.127139
-0.191188
-0.163175
0.0043787
-0.0690528
0.0376407
-0.0928358
0.0056693
-0.134336
-0.394933
-0.294997
-0.238659
-0.0624337
0.00604855
-0.192674
0.00605955
0.000277479
0.00115021
-0.0389349
-0.00210251
-0.0848371
0.0683231
0.0690878
0.0112094
0.0533777
0.0247037
0.008239
0.0608424
-0.187233
0.0242805
0.0295719
-0.394796
-0.388959
-0.0723994
-0.274665
-0.0816288
-0.0131068
-0.196176
-0.0108927
0.00361215
0.0112039
0.00532287
-0.0367231
0.241414
0.00672682
-0.0123335
0.00661804
0.0108668
-0.29627
-0.033623
-0.0176626
-0.0611604
0.0101624
-0.141904
-0.01547
-0.346227
-0.133196
-0.0271581
-0.202366
-0.093731
-0.183584
-0.137755
-0.200529
-0.310373
0.0351101
0.0202203
0.0680711
-0.0963964
-0.102074
0.0182807
-0.40705
-0.376628
-0.0238032
-0.00357397
0.0538948
0.195317
-0.0563035
0.00817312
0.00512368
0.0162889
-0.00508898
-0.0907215
-0.221447
0.0127665
-0.378198
-0.0922089
0.0232242
0.00193031
-0.000231266
-0.110741
-0.0893584
-0.359588
-0.133723
-0.099578
-0.193134
-0.287285
-0.0929387
-0.390212
-0.061421
-0.0949211
-0.0712608
-0.0616838
-0.242074
-0.0236181
-0.40733
-0.0953156
-0.0370204
0.00557197
-0.0241041
-0.181144
0.011954
-0.238886
-0.0937668
-0.0182906
-0.36731
-0.00929491
0.00943936
-0.365324
-0.0451547
-0.0036942
-0.0905914
-0.336474
0.0447056
-0.124245
-0.0513043
-0.16389
0.0300321
-0.0183164
-0.0887279
-0.256094
-0.242889
-0.00689064
-0.0538038
-0.343795
0.0373073
-1.24779e-06
0.0117504
0.100855
-0.0226096
-0.0890798
0.0730752
-0.254543
0.02658
-0.103245
-0.13729
0.0398042
-0.00167915
-0.110533
-0.154937
-0.177911
-0.192446
-0.0905581
-0.216661
-0.0937366
-0.0275024
0.00383635
-0.0999555
-0.0370862
-0.0235851
-0.0189383
-0.0719645
-0.253186
-0.060097
-0.106626
-0.265082
-0.0520968
-0.0958542
0.0223918
-0.0138531
-0.0224422
0.00825035
-0.102348
0.0137186
-0.036331
-0.173672
-0.21757
-0.08787
0.00521789
0.087327
-0.24124
-0.0102247
-0.00656395
-0.252275
-0.00384287
-0.00165922
-0.115697
-0.0930497
-0.220234
-0.108543
-0.235976
-0.0049062
-0.396504
-0.0894713
0.0087948
-0.189768
0.0145715
-0.176837
-0.0907908
0.00656387
-0.00566723
-0.0606843
-0.173039
-0.322936
0.00831981
-0.102182
-0.320378
0.131153
-0.320542
-0.235956
-0.360538
0.121967
-0.0450433
-0.183733
0.201414
-0.0146578
0.00703823
0.0725203
-0.196691
-0.00402862
-0.0610078
-0.194615
0.0767358
-0.0479072
-0.291324
0.00979746
-0.11105
-0.391013
-0.198891
-0.112989
0.00448048
-0.0563974
0.00319307
-0.0557809
-0.0506541
-0.186497
-0.404831
0.0351339
-0.100121
0.099878
-0.0912882
-0.0124334
0.029611
0.0410309
0.00467611
-0.185075
-0.329871
-0.0882483
0.164447
-0.0290504
-0.238496
0.00271677
-0.0339682
-0.0671043
0.00841522
-0.124589
-0.0556775
-0.000489368
-0.0951852
-0.0138345
0.206495
-0.0873764
0.00552536
-0.403774
0.027885
-0.119713
-0.34066
-0.248707
-0.0023179
-0.182116
0.00827489
-0.0294668
0.0097696
-0.363938
-0.03107
-0.187141
0.0152927
0.00722035
-0.124621
-0.186794
-0.150968
-0.0121235
-0.0680302
-0.0983204
0.000967624
-0.0257356
-0.406176
-0.344301
-0.0880692
-0.394032
0.0365629
-0.090124
-0.127975
0.00379206
-0.163099
-0.404092
-0.20726
-0.0906141
0.0269674
-0.207816
0.000791917
-0.397699
-0.346078
-0.0255718
-0.095755
-0.190498
-0.127491
-0.0941562
-0.00411684
-0.0183414
-0.0139212
-0.0864669
-0.24937
-0.251732
-0.0427054
-0.0971695
0.0325854
0.0471352
0.0894035
-0.00467799
0.0267387
-0.00859026
-0.188356
-0.0259673
-0.0547514
-0.18459
-0.345705
-0.106988
0.0381716
0.00943299
-0.250344
-0.244083
-0.215646
-0.0174634
-0.0409763
-0.0855478
-0.347709
0.0119166
-0.328743
0.01651
-0.0392342
0.0273977
0.0269948
-0.211722
-0.21428
0.0154873
-0.071186
-0.0183354
0.00498128
0.0303601
-0.399803
-0.103999
-0.402011
0.0222692
-0.140223
-0.157498
-0.213049
-0.183591
-0.0899077
0.0321633
-0.339337
-0.00949536
-0.163062
-0.293883
0.0360409
0.0247211
-0.0501374
0.00821316
-0.0889342
-0.0272554
-0.140165
-0.0973007
-0.0186544
0.0352557
-0.114714
-0.0172264
-0.00159362
0.0292923
-0.0412409
0.139694
-0.103163
0.00943594
0.00697559
-0.081546
-0.0181398
0.00635929
-0.0884981
-0.0599336
0.00601513
-0.042662
0.0370301
0.00303275
0.0012461
-0.397994
0.00385217
-0.0822146
-0.155971
-0.0231559
0.0056853
-0.0850817
0.0317157
-0.00535291
-0.16004
-0.392028
0.0490772
0.0077746
0.0171604
-0.0717048
-0.0417319
-0.277272
-0.175484
-0.0145186
0.0302975
-0.330721
0.0726507
-0.288074
-0.0475022
-0.182113
-0.0398577
-0.127773
-0.313158
-0.291337
0.0277765
-0.0646218
-0.0112003
-0.0393601
-0.383812
0.124258
-0.323964
-0.112
-0.0690043
-0.0873049
-0.00914586
-0.337996
-0.238271
0.0215814
-0.331682
-0.059919
0.00287717
0.00432828
0.0476069
-0.0655445
-0.0355496
-0.341328
0.0227984
-0.408637
-0.104497
-0.127838
0.00408997
-0.353293
-0.25795
0.0250859
-0.233664
-0.392709
0.0164844
-0.253811
-0.0808128
0.13485
-0.0969393
-0.256365
-0.0324102
-0.0930198
-0.241342
-0.0212775
0.00753792
-0.0223236
-0.0559016
-0.252547
-0.0925342
-0.0103314
0.0111848
0.0356256
-0.236302
-0.085861
0.00513236
0.0233174
-0.387742
-0.352093
-0.132076
-0.402631
-0.0993796
-0.0421622
-0.252206
0.0127033
-0.110601
-0.0224023
-0.157093
0.00897682
0.210914
-0.060597
0.0307104
-0.339581
0.00239878
0.136045
-0.315772
-0.141429
0.0129318
0.00226205
0.0208956
-0.246194
-0.217602
-0.145493
-0.0590452
-0.112072
-0.0902124
-0.103396
0.012464
-0.126135
-0.0288045
-0.0549452
-0.251317
0.00469819
-0.167278
0.0127262
-0.405796
-0.0111528
0.0386241
-0.276341
-0.060626
-0.0324735
0.00584848
-0.112298
-0.201473
-0.13188
-0.137751
-0.176366
-0.34251
-0.186345
-0.289336
-0.259103
0.0686084
0.00123087
-0.00184366
0.109391
0.0543354
0.00254581
-0.0339026
0.00824795
0.0170315
-0.0932705
-0.0194255
-0.185333
-0.0728523
-0.217236
0.0476719
-0.251576
-0.119189
-0.0260623
-0.203382
0.00142238
-0.254514
0.047205
-0.138239
-0.0698267
0.227229
-0.00389811
0.00640098
-0.316121
-0.343455
0.00309821
-0.09402
-0.0354611
0.00305716
0.030056
-0.0799233
-0.364145
-0.210175
0.0463748
-0.0576223
-0.098731
0.0229147
0.136952
0.00286371
-0.126953
0.0279235
-0.0179608
0.0836761
-0.037036
-0.0558075
-0.0908107
-0.0086786
0.00298903
-0.0722422
-0.0907625
0.0347444
-0.0984952
-0.0187017
-0.31013
-0.168964
-0.313394
0.0371847
-0.325848
-0.0610067
0.0393322
0.00604005
0.00407158
0.104395
0.0081309
-0.120877
-0.102006
-0.0248866
-0.00238741
-0.0134915
-0.015574
-0.101362
-0.0749093
-0.206307
0.0567132
0.00301395
-0.0985288
-0.105052
0.00521202
-0.320396
0.00655028
-0.0687191
-0.0695082
-0.0183092
-0.0185012
-0.177535
-0.149434
-0.00272148
-0.277811
0.0113532
-0.00811813
-0.0392187
0.0270049
-0.0363706
-0.0502615
0.0505381
-0.394879
-0.218679
-0.161914
0.0322821
0.0675785
-0.0996543
-0.10588
0.0212133
-0.0121073
0.00423197
-0.0315109
-0.362203
0.0372437
-0.285853
0.0162527
-0.101194
-0.2267
0.011242
-0.00878941
-0.0865149
0.0139648
-0.0469266
-0.296556
0.0235327
0.0768489
-0.309735
-0.12861
-0.0225239
0.192431
0.00492001
-0.0957505
0.0539723
-0.0992747
-0.0394916
0.128225
-0.0511916
-0.0723537
0.0315584
-0.364809
-0.0911238
-0.00255357
-0.0119991
-0.283609
-0.190013
0.0083933
-0.0403913
-0.138757
-0.405029
-0.00828024
0.00320101
-0.0155579
0.0216132
0.00605529
-0.0822358
0.00570245
0.0374276
-0.386348
-0.404
-0.0129073
0.00836316
-0.0728851
-0.0196615
-0.400182
-0.192523
-0.0904011
-0.0721035
-0.226199
-0.27842
0.0767194
-0.23863
-0.126847
0.0244639
0.00528979
-0.111814
-0.00650985
-0.0474512
-0.133217
-0.0934017
0.0842209
-0.176315
0.0729046
0.13276
-0.254314
-0.405831
-0.0101489
-0.0593369
-0.0902286
-0.152714
-0.0361743
-0.108184
-0.150032
-0.0104217
-0.127833
-0.0966332
0.0305029
-0.0192823
0.0141147
-0.179866
0.00929314
0.00299903
0.008297
-0.0979244
-0.406519
-0.228815
-0.131944
-0.138204
-0.00330776
-0.281354
-0.0825464
0.0242399
-0.0820732
-0.112727
-0.0442383
-0.40639
-0.132633
0.0994013
-0.181309
-0.114717
-0.107582
-0.00492269
0.135937
-0.404842
0.0257947
0.013051
-0.0919198
0.0259764
0.0147964
-0.127993
0.06792
-0.0270639
0.0130574
-0.208092
-0.00723356
-0.348573
-0.307894
-0.12592
-0.026608
-0.221856
-0.0981836
0.0253973
-0.0743842
0.025995
0.0216315
-0.0505288
0.014899
-0.00908661
-0.405548
-0.0928508
0.0349755
0.0033758
0.00259124
-0.297518
-0.203056
-0.0150701
-0.127954
-0.0787061
-0.215613
0.0215363
-0.0602435
-0.0246952
-0.0125492
-0.000405656
0.0374237
-0.104222
-0.163423
-0.222626
-0.0818079
0.015288
-0.0232232
-0.390753
-0.103107
-0.401462
0.21756
-0.09512
0.0151106
-0.0697402
-0.0282147
-0.0801232
-0.190228
0.255222
-0.0114463
-0.0225914
-0.109715
-0.158341
-0.00659581
-0.0946665
-0.234323
0.00176001
0.0149596
-0.112952
0.0599578
-0.201155
-0.346397
-0.0515319
0.206306
-0.0540733
-0.132171
-0.368261
-0.0159731
0.029032
0.105613
-0.114915
0.0140487
-0.103118
-0.0993254
-0.0224053
-0.201877
-0.371564
-0.311867
-0.191602
0.00951848
-0.0309691
-0.179813
-0.174724
-0.139559
-0.301444
-0.388442
-0.0992203
0.0975059
-0.0139182
0.0129963
0.0216927
-0.0239055
-0.245195
-0.0819764
-0.17918
-1.25927e-05
0.0153215
-0.00509953
-0.310667
-0.0772513
-0.0142973
-0.00394824
0.220449
0.0298756
-0.159568
-0.350447
-0.407497
-0.325659
-0.173291
0.0153089
-0.0903844
0.0530761
-0.243434
-0.140986
0.0129742
-0.203909
-0.182615
-0.117812
-0.000748953
0.0573451
0.00043245
-0.363216
-0.193608
-0.00340559
0.0289322
-0.0912816
0.00442289
-0.404991
-0.11023
-0.0838023
0.00179776
0.0176222
-0.17775
-0.105028
-0.130837
0.0131438
-0.0390144
-0.127513
-0.0155267
-0.0875658
-0.159528
-0.0153602
-0.160752
-0.0880602
0.0157313
0.0369446
-0.305723
-0.095593
-0.0577233
-0.0953708
-0.135176
-0.368077
-0.00463682
0.0342891
0.0295131
-0.240422
0.00967013
-0.07555
0.0272196
-0.0290058
-0.0766378
0.00582804
-0.0541869
-0.0536044
-0.011466
-0.126387
0.0301968
-0.190086
-0.311531
-0.107284
-0.406932
-0.0903023
-0.0548006
-0.159507
-0.0133564
0.0220138
-0.067274
-0.11824
-0.0950268
-0.0666183
-0.0963852
-0.0917978
-0.359107
-0.031281
0.00101351
-0.0170746
-0.282126
-0.102179
-0.0931789
0.0494745
-0.0566962
-0.04261
0.0423876
-0.101113
-0.108781
-0.101459
-0.0448864
0.00582908
0.0236154
0.0150851
-0.0230558
-0.140411
-0.294985
0.00690476
-0.126164
-0.000313649
0.0235384
-0.0976361
-0.0881656
-0.20859
-0.0939757
-0.100567
0.000398694
0.0254128
-0.125918
-0.116615
-0.288086
-0.29544
-0.102528
-0.00609409
-0.0675794
-0.392255
-0.0100365
-0.0977083
-0.0249722
0.0159191
-0.139271
0.0164721
-0.0510305
-0.101527
-0.00244729
-0.0920945
-0.115165
-0.177494
-0.0973985
-0.113927
-0.143754
-0.0181122
-0.0917465
-0.24186
-0.0816864
0.00378285
0.0236454
0.0127761
-0.0532009
0.00165497
0.0145653
-0.170814
5.1478e-05
-0.00210279
0.0388402
-0.0925393
0.0385932
0.0232168
-0.212318
-0.116485
-0.00236693
0.0285247
0.028276
-0.0863744
-0.303571
0.0147396
0.032055
0.0115798
0.00365572
0.0806295
0.0655409
0.0369878
-0.0906727
-0.010046
-0.150493
-0.0684302
-0.0114942
-0.243542
0.127694
-0.314644
-0.154272
-0.0468178
0.0176007
-0.0505779
-0.115385
-0.369276
-0.0439272
-0.0681914
-0.326135
-0.0600431
-0.17998
0.0205017
0.00955994
0.0536822
0.0253562
-0.369154
-0.284146
0.00481205
0.0199154
-0.0463167
-0.393954
-0.0185649
-0.0249019
-0.0486768
-0.0233545
0.083262
-0.159032
0.0732789
0.019132
-0.0113521
-0.192606
-0.0996781
-0.00434713
-0.215794
0.108441
-0.148619
0.00114947
0.0436635
0.0349321
-0.035709
-0.00493373
-0.0515073
-0.0994817
-0.0983259
0.0461796
-0.293893
-0.205105
0.00415241
0.0315674
-0.060505
-0.357258
-0.0953375
0.0504855
0.00523325
-0.174236
-0.164682
-0.128747
-0.100237
-0.00201705
-0.109134
0.0131346
-0.0996942
0.038301
0.00565872
-0.333697
-0.125893
-0.0869344
0.0664644
-0.387716
-0.0995192
-0.0103854
0.0478527
-0.316498
-0.0470978
-0.0186119
-0.0397133
-0.0140102
-0.368614
0.00831779
0.0206531
-0.364548
-0.0888793
0.00798534
-0.0087777
-0.00301008
0.0181913
-0.0952199
-0.30777
0.263733
-0.0908293
-0.0984328
-0.246312
-0.0241232
-0.243035
-0.0952142
-0.301198
-0.0948932
0.0717242
-0.0400482
0.0135295
0.0217928
-0.0508568
0.0453316
-0.0342865
-0.107746
-0.0863276
-0.0737123
-0.0750727
-0.0904703
-0.0951416
-0.368774
-0.0957581
-0.179003
-0.120387
-0.00446825
-0.165195
-0.0941691
-0.0508175
0.000212822
0.0546476
-0.0886541
-0.0940293
-0.0759729
0.00194366
-0.373163
-0.00588823
0.121176
0.0250435
-0.0879348
-0.0185785
0.00836917
-0.0913202
-0.0586436
-0.113057
-0.00231272
-0.0735228
-0.0473874
-0.21484
-0.0192364
-0.167585
0.252611
-0.0286491
0.0130107
-0.116121
-0.314147
0.0558842
0.204999
0.00349524
-0.190132
0.00211861
-0.0158829
0.0471021
0.0356606
-0.0454853
-0.0703578
-0.118741
0.0288299
0.0365185
-0.408647
0.0145799
-0.0524816
-0.0156275
-0.0227444
-0.0030091
0.0140291
-0.361174
-0.00277848
0.0117346
-0.406627
-0.0413903
-0.0929381
-0.408427
0.0337404
0.0166984
-0.112551
-0.179534
-0.390625
-0.0724763
0.117535
0.0817627
-0.00908477
-0.369219
0.029473
-0.0959463
-0.177952
-0.102647
-0.0452917
-0.284023
-0.0757374
-0.00725533
-0.120794
-0.00275106
-0.00105166
-0.0757337
-0.32644
-0.10441
-0.183033
-0.408087
-0.0984889
0.0799837
-0.0862643
-0.0244869
-0.00955054
-0.0137341
-0.144615
0.0427344
-0.0760801
0.00415667
-0.0967384
-0.0902684
-0.0681436
0.0361114
-0.223494
-0.213839
0.0441813
0.0330922
-0.40928
0.0307021
-0.0435074
0.00169536
0.0251836
0.0126517
-0.256454
-0.398976
0.0219997
0.0168185
0.0286405
0.0193556
-0.0550863
-0.123708
-0.184437
-0.110015
0.00730308
0.00308668
-0.186169
-0.136045
0.0057416
0.0124796
-0.2899
0.00134491
-0.21446
-0.0239987
-0.0268179
-0.0568798
-0.276765
0.00117844
0.0508386
0.0402611
0.10144
0.0065125
-0.316242
0.0139507
0.0785802
0.232184
-0.0364067
-0.325093
-0.391842
-0.00868994
-0.10845
-0.00889465
-0.109564
-0.293349
0.113669
0.00331621
0.0924006
-0.290345
0.00972738
-0.0902448
-0.0503169
0.0540503
-0.142822
0.0136011
-0.000215452
0.113773
-0.0924177
0.00464196
-0.11267
-0.0139234
-0.15895
-0.257195
-0.0398996
-0.235289
-0.15065
-0.0892001
0.0573679
0.0237355
0.00255253
-0.0690747
-0.198907
-0.0137238
-0.00982419
-0.0362101
-0.0491922
-0.116401
-0.0910355
-0.381383
-0.0186121
-0.0225314
0.159319
-0.0192474
-0.117212
0.0280669
0.00980181
-0.406632
-0.00167057
-0.0759348
-0.00325545
0.0186531
-0.0957874
-0.00175802
0.00176009
-0.00517548
0.00953738
-0.289595
0.242612
-0.235078
-0.150826
0.0923826
-0.12202
-0.100129
0.0679611
-0.316315
-0.374466
-0.0943874
0.0115695
0.00477996
-0.112114
-0.314832
-0.157735
-0.0400016
-0.00422891
-0.3008
-0.270027
0.028916
-0.0973757
-0.0901664
-0.14352
-0.128517
0.00592781
-0.096072
-0.192725
-0.00533398
0.0113044
-0.215165
-0.316834
-0.199747
-0.401651
-0.0439322
-0.143096
0.0218847
-0.241236
0.0718627
-0.0657439
0.114077
-0.340847
0.0042865
-0.0138918
-0.0603869
-0.14387
0.00146534
-0.387787
-0.142359
-0.0890881
0.00861196
0.00848805
-0.17604
-0.00210771
-0.101674
-0.0814313
-0.333629
-0.238863
-0.261575
-0.073455
0.0110097
-0.0142901
0.0572907
-0.392031
-0.0852234
-0.0942346
-0.196586
0.0220773
0.0501204
-0.223219
0.0239624
-0.259072
-0.023522
-0.0808511
-0.101634
0.00375245
-0.0791666
-0.0400148
-0.0915075
-0.102582
-0.0336901
-0.193737
-0.100866
-0.199955
-0.354869
-0.259079
-0.397401
0.0351119
-0.136499
-0.0943671
-0.325143
-0.00457487
-0.00579207
0.0550853
-0.150608
-0.138144
-0.0910266
-0.0232133
0.0202897
-0.110365
-0.324127
0.0224721
0.021721
0.0429607
-0.0173867
-0.177023
-0.358613
0.0152547
-0.237997
-0.383137
-0.109778
-0.403248
-0.141636
0.027327
-0.0133328
-0.0183821
-0.0545605
-0.0955342
-0.057346
0.0387745
-0.0861173
-0.0901769
-0.00516293
-0.0155879
-0.155453
-0.393194
0.00367776
-0.097769
-0.184805
0.0572696
-0.0116614
-0.1495
-0.30864
-0.149279
0.00502358
0.00348314
-0.256597
-0.125623
-0.0502913
0.0233379
-0.0888541
-0.198417
-0.0686232
0.0223788
-0.0597425
-0.245983
-0.013345
-0.378335
-0.088087
-0.246446
-0.0505488
0.0614092
-0.0113428
-0.0990434
-0.0556162
0.0202783
-0.10056
0.0147969
0.205703
-0.197256
-0.257664
-0.133524
-0.0276484
-0.0253975
-0.397748
-0.0335009
-0.406861
-0.328584
0.014296
0.00678237
-0.0819455
-0.230145
-0.394493
-0.1948
-0.0889769
-0.0276326
-0.0190667
-0.157185
-0.00346967
-0.0836108
0.0166632
-0.0937545
-0.183258
-0.0163345
-0.0879191
-0.225177
0.026945
-0.030469
-0.103604
-0.212181
-0.390962
-0.0277187
0.0452959
0.00205125
0.0138553
0.0692399
0.041467
0.0389626
-0.0792273
-0.207744
0.00167844
-0.157443
0.106462
-0.026244
-0.262457
-0.16885
-0.387741
-0.207588
0.079838
-0.0976819
0.0139829
0.00124011
0.00901935
0.0153511
-0.0167062
0.0510125
-0.214786
-0.353822
0.016261
0.00564288
-0.375285
-0.14117
-0.138239
-0.0808036
0.00982743
-0.0415948
-0.101384
0.228467
-0.0644038
-0.221852
0.136029
-0.0690767
-0.28732
-0.101196
0.0374131
-0.104267
-0.0231606
-0.140761
-0.35692
-0.191361
-0.14787
-0.40199
-0.0474814
-0.282384
-0.0487035
-0.0566821
-0.0454061
-0.0511454
-0.0492995
-0.297549
-0.108673
-0.183035
-0.0488482
0.0343591
0.0217601
-0.0904011
0.0239431
-0.248234
0.0385802
-0.0873933
-0.0243262
-0.0107547
-0.00457134
-0.0903997
-0.0982544
0.0363633
0.0241075
0.0722008
0.0224173
0.237653
-0.0228732
0.00250523
-0.007424
-0.0909611
-0.121705
0.165496
0.00756976
0.00149822
0.0170524
0.0232592
0.0791704
-0.0877835
-0.0964315
0.0229818
0.0372063
-0.263521
0.00608246
-0.268036
0.0246634
0.0232834
-0.262891
-0.064706
-0.0494002
-0.231556
-0.0144415
-0.092729
-0.409256
0.0274856
0.00558208
0.0345823
0.0761714
-0.0268965
-0.0937256
-0.0986918
-0.116639
0.0215234
-0.103662
-0.143274
-0.179878
-0.0319528
0.00332631
-0.0189678
0.102485
-0.25334
0.0193361
0.052414
-0.0962637
-0.0715575
-0.0150713
-0.261064
-0.105125
0.0314879
0.00849452
-0.167655
0.00492818
-0.0148282
-0.119824
-0.391512
-0.0884369
0.00491198
-0.00329188
-0.0825493
-0.0931239
-0.0050245
-0.00324575
-0.0666593
-0.174975
0.0411236
-0.15627
-0.0182393
-0.0770425
-0.0991281
0.0142128
0.0131802
0.0205492
0.066874
-0.381228
0.000701359
-0.310794
0.00792627
0.0417633
-0.0917994
-0.0492294
0.0365613
-0.0925706
-0.203117
-0.373425
-0.0371945
-0.02269
-0.297059
-0.00166588
-0.178201
-0.0827221
-0.0930282
-0.265198
-0.0912499
-0.369211
0.028561
0.0216939
0.0202799
0.032864
-0.161733
-0.296731
-0.00207428
0.00659604
0.00885776
-0.236874
0.0360783
0.00855916
-0.17921
0.0150361
-0.0823301
-0.155635
-0.0198251
-0.107973
0.0116849
0.00337629
0.00122584
0.0895753
-0.0192352
-0.0320656
-0.0270797
-0.135005
-0.345926
-0.0597748
0.0134461
-0.084113
-0.0834124
-0.0321162
0.00560407
-0.0427713
-0.0106481
-0.0974289
-0.046211
-0.0363415
-0.0317925
-0.201308
-0.197168
-0.0183646
-0.0506909
-0.0417295
-0.132447
-0.0996247
-0.202506
-0.0951102
-0.115133
-0.0372854
-0.353976
-0.0206039
0.0162309
-0.019633
0.0227846
-0.156589
-0.0710446
-0.348384
-0.138845
0.00966682
-0.0399247
-0.0873353
0.0707289
0.0138409
-0.144509
-0.344319
-0.259957
0.0563548
-0.285992
-0.0489959
-0.284206
-0.321422
-0.155743
-0.151621
-0.190527
0.00121865
0.0115849
0.0586178
-0.0926129
-0.0800334
-0.0404322
0.0730755
-0.0138311
-0.0119618
0.150143
0.000989038
-0.0212589
-0.0498919
-0.0542253
-0.0498192
0.0159924
-0.0814068
-0.0938188
-0.0538415
-0.010476
0.0273332
-0.304969
-0.226306
-0.0135008
-0.205611
-0.408973
-0.0445077
-0.0121143
-0.103186
-0.305445
-0.348817
-0.111569
-0.0923001
-0.357774
-0.14148
0.0251111
-0.0232507
-0.119406
-0.0662381
0.117143
-0.091677
-0.0695023
-0.00143285
-0.0546733
-0.0493662
0.189919
-0.0972899
0.0368557
-0.0693761
-0.21007
-0.00595174
-0.0101598
-0.110245
0.0362234
-0.108468
0.0057119
-0.00960106
0.061724
0.0442103
0.0178912
-0.092534
-0.0566571
-0.159201
-0.315818
0.00609996
-0.000163246
-0.0263368
-0.103578
-0.00929745
-0.018968
-0.259443
-0.0943862
-0.35487
0.0227301
-0.0957044
0.00843488
-0.0935898
-0.404778
-0.0247275
-0.129516
-0.193873
0.0168087
-0.23042
-0.360778
-0.2871
0.126836
-0.179452
0.0926888
0.176055
-0.10365
-0.153623
-0.103119
0.01143
-0.267319
-0.0923595
-0.148029
0.00267803
0.0192412
0.0360745
-0.0237944
0.0409417
-0.205855
-0.158635
0.0807372
-0.0140124
-0.0979431
0.0190312
-0.247656
0.0949465
-0.119697
-0.0205416
0.0112929
-0.185075
-0.287066
-0.0917177
0.0183448
-0.0879002
-0.202573
-0.203396
-0.0254966
0.0228715
-0.162513
-0.0940865
-0.0128854
-0.0747775
-0.0915725
-0.00827109
-0.0396378
-0.20008
-0.156112
-0.00409603
-0.00683637
-0.256021
-0.0561054
-0.0769308
-0.0805088
0.0194625
-0.214209
-0.00761638
-0.0365895
-0.0666868
-0.0957899
-0.0143275
-0.0129798
-0.369069
-0.0251943
-0.0543682
-0.0502339
-0.00922446
-0.0914753
-0.00619959
-0.081419
-0.127846
-0.406098
-0.164753
-0.010216
-0.222168
0.105601
-0.390629
-0.282013
-0.272058
-0.398615
-0.206676
-0.302723
-0.087776
-0.19025
0.125828
0.0523869
0.025714
-0.00105162
-0.376664
0.00483067
-0.0103112
0.0270536
-0.102508
-0.388316
0.12493
-0.00627333
0.0464696
-0.0318774
0.0505934
-0.0465497
-0.129035