/*--------------------------------*- C++ -*----------------------------------*\
| =========                 |                                                 |
| \\      /  F ield         | OpenFOAM: The Open Source CFD Toolbox           |
|  \\    /   O peration     | Version:  v2012                                 |
|   \\  /    A nd           | Website:  www.openfoam.com                      |
|    \\/     M anipulation  |                                                 |
\*---------------------------------------------------------------------------*/
FoamFile
{
    version     2.0;
    format      ascii;
    class       surfaceScalarField;
    location    "200";
    object      phi_0;
}
// * * * * * * * * * * * * * * * * * * * * * * * * * * * * * * * * * * * * * //

dimensions      [0 3 -1 0 0 0 0];
oriented        oriented;


internalField   nonuniform List<scalar> 
79099
(
0.0423089
0.0568937
-0.0992026
-0.0501534
0.0457648
0.00438866
-0.0964794
0.0907293
0.0057501
-0.0398353
0.0450267
-0.00519134
-0.000331566
-0.000661899
0.000993465
0.00235186
-0.00376233
0.00141047
-0.0434767
0.0723233
-0.0288466
-0.0540761
0.0963851
-0.0449914
0.0665586
-0.0215672
0.0590048
0.0542813
-0.113286
-0.0584422
0.0633026
-0.00486041
0.0336176
-0.0555441
0.0219265
0.0177237
-0.0108692
-0.00685455
0.035879
-0.0339774
-0.00190155
0.0724007
0.0499777
-0.122378
-0.101138
0.187746
-0.0866082
-0.0839373
0.13749
-0.0535531
-0.189466
0.0883285
-0.0148761
0.0159362
-0.00106011
0.0675094
-0.12227
0.0547602
0.145803
-0.0686506
-0.077152
0.0698971
-0.0453525
-0.0245446
0.110374
0.12537
-0.235744
-0.0693084
0.0258317
0.0687404
-0.130778
0.062038
-0.0476747
0.0412826
0.00639213
0.00306463
0.0328144
0.0985247
-0.0621049
-0.0364198
-0.0456173
0.00377818
0.0418392
-0.0372529
0.0547394
-0.0174865
-0.0454414
0.0402519
0.00518951
0.00980578
-0.0355511
0.0257453
-0.000695435
0.000542485
0.00015295
0.0564881
0.0802417
-0.13673
0.351675
-0.191519
-0.160156
-0.0718462
0.0210574
0.0507887
-0.0173859
0.0905909
-0.0732049
0.104376
0.191409
-0.295785
-0.0723572
0.0238979
0.0484593
0.0443433
0.0642361
-0.108579
-0.100457
0.0830715
-0.026766
0.0312814
-0.00451542
0.0656622
-0.0589825
-0.00667965
-0.00796626
0.00440377
0.00356248
0.127606
-0.0600971
-0.0865395
0.184602
-0.0980623
-0.0694706
0.182656
-0.113185
-0.164021
0.0944979
0.0695234
-0.00205336
-0.0476056
0.0496589
-0.291536
0.182643
0.108894
0.227599
-0.326998
0.0993982
0.0144717
0.0516172
-0.0660888
-0.0455209
-0.0506705
0.0961915
-0.250876
0.165378
0.0854975
-0.0876042
0.0560754
0.0315288
0.00118553
-0.0160616
0.0607978
-0.125994
0.0651965
-0.174177
0.313325
-0.139149
-0.0393362
0.0487436
-0.00940741
0.0404742
-0.0857987
0.0453244
0.151419
-0.100266
-0.0511535
0.0202979
-0.0900318
0.0697339
-0.0190835
0.025387
-0.00630354
-6.11142e-05
-0.00583919
0.0059003
0.0296376
0.0175738
-0.0472114
0.198707
-0.118324
-0.0803835
-0.0561673
0.0189144
-0.209096
0.139626
0.186011
-0.31494
0.128929
-0.116527
-0.0531031
0.16963
-0.00307884
0.014216
-0.0111371
0.245941
0.0290125
-0.274953
-0.134634
0.10423
0.0304035
-1.68701e-06
-0.000693747
-0.0438751
-0.00379955
0.320196
-0.21415
-0.106046
-0.0658595
-0.226723
0.292582
0.00372863
-0.00137677
0.0785872
-0.208689
0.130101
-0.00894851
0.00586967
-0.00404953
0.000287194
-0.0213469
0.0114609
0.00988597
0.0528286
-0.0498911
-0.00293749
-0.0558519
0.0257373
0.0301147
0.0900153
-0.0485612
-0.0414541
-0.197106
0.0805791
-0.0273865
-0.0105593
0.0379459
-0.0688241
0.0238327
0.0692388
0.129469
-0.0393708
0.0867716
-0.0474007
0.00329333
-0.00629344
0.00300011
0.00167816
-0.00239033
0.000712173
-0.0109118
-0.0104351
0.0607629
-0.00547624
-0.0552866
-0.00091514
0.027618
-0.0267029
0.0090266
0.0431548
-0.0521814
0.0179507
-0.00176812
-0.0161826
-0.014973
-0.0815064
0.0333302
-0.0375969
0.00426664
-0.026195
0.00711154
-0.0614718
0.11695
-0.0726066
0.00549881
-0.053976
0.0484772
0.0518618
0.046663
0.0973693
-0.0535704
-0.0437989
0.00422751
-0.0024396
-0.00178791
0.000399629
-0.0018182
0.00141857
-0.0143159
-0.0575302
-0.0289337
-0.0220348
0.0509685
0.298829
-0.0528887
0.0351536
0.0157708
-0.0509245
0.018452
-0.0390572
0.0206052
0.208353
-0.274213
0.0278089
-0.0287241
-0.023855
0.00219787
0.0216572
0.29123
0.00146592
-0.292696
0.0414291
-0.117352
0.0759232
0.0974425
0.125833
-0.223275
-0.0428786
-0.00288005
0.00185081
-0.0051725
0.00332169
0.000693402
-0.00102497
-0.0386332
-0.0960006
0.0281233
-0.0944979
0.0663745
0.0424771
-0.0196159
-0.0228612
-0.00346587
-0.000583653
-0.178336
0.11061
0.0677258
-0.00481531
0.00690383
-0.00208852
0.0474338
0.000635093
-0.0480689
0.0288507
-0.0920992
0.0632485
-0.0494914
-0.0754372
0.124929
-0.0283008
0.0381066
-0.0681328
0.16616
-0.0980271
-0.0299357
-0.0259163
-0.0732109
-0.0360991
0.10931
0.0766098
-0.213534
0.136924
-0.0442934
0.00495717
-0.156451
0.268952
-0.112501
0.0093678
0.00835595
0.0815597
0.0772663
-0.158826
0.108361
-0.191867
0.0835059
0.224295
-0.13872
-0.0855746
0.0946105
-0.186914
0.0923034
-0.0229755
0.0642243
-0.0412488
0.019451
0.0172483
-0.0366993
0.0900715
-0.0612209
0.0267903
-0.0982837
0.0714935
-0.061372
0.102801
-0.0638157
0.216493
-0.152677
0.0599254
-0.194292
0.134366
0.0606044
-0.134088
0.0734834
-0.294561
0.224679
0.0698815
0.0150004
0.0103866
-0.000226224
-0.000435675
0.0346092
0.0352879
-0.280165
0.0942694
0.185896
-0.0960783
0.0505573
0.0338679
-0.0226358
-0.0112321
-0.00824016
0.000901707
0.00733845
0.0560363
-0.13451
0.078474
0.0498419
-0.0565318
0.00668985
0.068272
-0.0662901
-0.00198184
-0.15175
-0.139787
0.262887
-0.152556
-0.110331
-0.000746135
0.0024243
0.0524439
-0.121572
0.0691286
0.170395
0.128112
0.0867133
0.0966843
-0.183398
-0.0840068
0.0929089
-0.00890208
-0.0558645
-0.170048
0.225912
-0.0377559
0.116343
-0.0785873
0.105359
-0.0571132
-0.0482455
-0.0179292
0.0183093
-0.000380032
-0.0271228
0.0245238
0.00259904
0.128774
-0.220012
0.0912381
0.011688
0.0307891
-0.0975289
0.191683
-0.0941545
0.0230675
0.0669478
-0.0539939
0.0630205
0.0219712
-0.0493577
0.0438898
-0.0761528
0.0322631
0.103845
-0.0757212
0.132496
-0.080052
-0.00351765
-0.00444861
-0.0701746
-0.0426798
0.112854
-0.0306037
0.0642213
0.00725897
-0.00732009
0.020167
-0.0239152
0.00374818
-0.00859107
-0.0185318
-0.00278973
0.00146149
0.00132824
-0.235285
0.171469
0.0335846
-0.0151326
0.0856242
0.0350853
-0.12071
0.0152554
0.026836
-0.0420914
0.00330677
-0.00145596
-0.179337
0.05709
0.122247
0.0247458
0.106084
-0.13083
0.0633795
0.0411998
-0.104579
-0.224005
0.146349
0.0776567
0.299699
-0.155309
-0.14439
-0.0824623
0.0727795
0.00968274
0.0330538
-0.0730676
0.0400138
0.170775
-0.062788
-0.107987
0.0309901
-0.0932607
0.0622706
-0.0853798
-0.0751302
0.16051
0.0411821
-0.0531977
0.0120156
-0.00320501
0.00347773
-0.000272711
0.0636716
-0.12609
0.0624183
0.286747
-0.18047
-0.106277
-0.0522512
0.0717633
-0.0195121
-0.0970532
0.214676
-0.117623
0.00128379
-0.000884162
-0.0547791
0.120212
-0.0654325
0.0493894
-0.0481553
-0.00123413
-0.0721652
-0.0170347
0.0891999
0.0339995
-0.0629332
0.105431
0.0726598
-0.178091
0.176335
-0.285816
0.109481
-0.137214
0.247588
-0.0685142
0.0502366
0.0182776
-0.0522482
-0.0816558
0.133904
0.0455226
-0.0515219
0.00599929
0.300766
-0.123375
-0.177391
0.000483603
0.051284
-0.0517676
0.120791
0.179975
0.0662592
-0.133658
0.0673987
-0.0590263
0.0620656
-0.00303931
0.127264
-0.0684939
-0.0587701
0.0180263
-0.0648518
0.0468255
0.0902781
-0.0623981
-0.02788
0.049994
0.174301
0.00608725
-0.00639405
0.000306802
-0.0296271
0.0320992
-0.00247207
-0.249378
0.1206
0.128778
0.0179646
0.00690974
-0.0248744
0.0768026
-0.0505252
-0.0262775
0.00294787
0.00127964
-0.0461232
-0.0846323
0.130755
0.198124
-0.121514
0.00149799
0.00356014
-0.00505813
-0.0945772
-0.0933214
0.187899
-0.167266
0.0991336
0.129684
-0.0731959
0.0606788
-0.0294461
-0.0312327
0.122817
-0.0622122
0.0587801
-0.117534
0.0587542
0.315868
-0.194476
-0.121393
0.044284
0.0139616
-0.0582456
0.0463738
-0.000851201
-0.229526
0.151199
0.0783268
0.0876094
-0.0471352
0.149944
-0.107996
-0.0419486
0.119598
-0.0569036
-0.0626946
-0.110464
-0.0491783
0.159642
-0.0609737
-0.0214886
0.0572735
-0.137239
0.079965
0.0203068
-0.0251803
0.00487343
0.0429043
-0.0234533
0.0668825
-0.147591
0.0807087
-0.0612535
-0.00726064
0.0644018
-0.136575
0.0721735
-0.0238099
-0.0203875
0.0441975
-0.0397469
-0.00454649
-0.10188
0.0178728
0.332597
-0.164791
-0.167806
-0.067607
-0.0857614
0.153368
-0.0387955
0.0394047
-0.000609216
-0.0215243
0.00992771
0.0115966
-0.193173
0.219648
-0.0264748
0.0222965
-0.00212955
-0.0515931
0.0520767
-0.135741
-0.0880357
-0.119634
0.0464227
0.0775789
0.0464223
-0.124001
0.0268117
0.0338671
-0.00273918
0.00303976
-0.000300583
-0.288919
0.188835
0.100084
0.0516441
-0.010462
0.00696848
6.44574e-05
-0.00703294
-0.0929004
0.0372243
0.0556761
-0.0928691
-0.0566339
0.149503
0.233136
-0.107766
-0.151154
0.25553
-0.0632027
-0.0296977
-0.0173813
0.0600849
-0.0427036
0.108798
-0.0324317
-0.076366
-0.032847
-0.0395103
-0.00749083
-0.0640716
0.0715624
0.00532638
-6.88276e-05
-0.00525755
0.0421503
-0.0595316
0.0475033
-0.117678
0.0515653
-0.0416002
-0.00996516
-0.012298
0.0124035
-0.000105436
-0.0757349
0.00909369
0.0666412
-0.0309187
0.00960142
0.0213173
0.0180187
-0.048624
0.0306053
0.125438
0.194758
-0.0339891
-0.045415
0.0794042
-0.036456
0.0545519
-0.0180959
-0.00360833
-0.0547208
0.163521
-0.1088
-0.0108946
-0.0648402
-0.00132401
-0.00146572
-0.00019801
-0.00105853
0.00125654
-0.00294296
-0.000262052
-0.105764
-0.1552
0.260964
-0.05336
0.00320653
0.0765321
-0.107041
0.0305086
0.14401
-0.0771279
0.238464
0.0527664
0.0523932
-0.0645559
0.0121628
0.0056229
0.000464353
-0.0484044
0.0475634
0.000840981
-0.0348455
0.0422757
-0.00743016
0.00215251
-0.00272824
0.00057573
-0.07488
0.0456809
0.0291991
-0.0747639
0.0225127
0.147801
0.150707
-0.257943
0.19592
0.0620233
-0.176137
-0.112781
-0.0429251
-0.040037
0.0829621
0.0153601
-0.0518161
0.00369286
-0.0304588
-0.0885821
0.0176607
0.0709214
0.00299217
-0.000839657
0.0162398
0.0353255
-0.127822
0.0891889
0.0193652
0.0145028
0.0286375
-0.0850918
0.0564542
-0.213686
-0.0664796
-0.104165
0.0719488
0.0322158
-0.00246157
0.00367867
-0.0012171
-0.0881521
-0.091185
-0.0876247
-0.166285
0.25391
0.152209
-0.0844461
-0.0677627
0.266755
-0.143682
-0.123074
-0.108272
0.225316
-0.117043
0.0409078
-0.0256524
-0.343828
0.240377
0.103451
0.00167444
0.0162763
0.113251
-0.0893267
-0.0239247
0.227976
-0.3156
0.249201
-0.150468
-0.0987339
0.052657
0.0156149
-0.154673
0.136172
0.018501
0.12285
-0.0504494
-0.038469
-0.000326452
0.0498381
0.0224852
-0.000908133
-0.0028433
0.00375143
0.00275005
-0.0424969
0.00089265
-0.000291379
-0.000601271
0.05478
-0.0504901
-0.00428992
-0.000653013
0.00229958
-0.00164657
0.0895453
-0.135669
-0.122443
0.226716
-0.104272
-0.00318607
0.0039984
-0.000812323
0.0180936
-0.0185863
0.000492629
0.169176
-0.105181
-0.0639952
-0.0946911
0.184096
-0.0894044
-0.0429279
0.0191179
-0.00898174
-0.0125425
-0.0941003
0.159233
-0.0651324
0.0449771
-0.0524679
0.0741178
0.0662871
-0.140405
0.00287592
-0.00299035
0.000114423
0.0821084
-0.0480001
-0.0341083
-0.00138489
-0.00960227
0.0109872
-0.328049
0.178212
0.149838
-0.063184
0.097
-0.033816
-0.1104
0.0414837
0.068916
-0.0526092
0.109723
-0.0571138
0.0189811
0.00331538
-0.135151
0.0892184
0.0459324
-0.0194183
0.0466334
-0.0272151
0.0482373
-0.00186349
0.0359267
0.0461817
0.121778
-0.0581063
-0.00434165
0.0600131
-0.0556714
0.025856
0.015173
-0.041029
0.00455916
-0.0033423
0.000880724
-0.296998
0.29614
0.000858428
-0.0767112
0.127677
-0.0509659
-0.0637244
0.101563
-0.0378385
0.120122
-0.0557201
-0.0266425
0.0176608
0.138874
-0.247196
0.108321
0.0826198
0.0631829
-0.0117942
-0.000503803
0.0566536
0.112523
0.0254553
-0.0248841
-0.000571151
0.0079287
-0.000960218
0.116388
-0.274402
0.158014
0.0253501
-0.102061
0.0438034
0.0570456
-0.100849
0.146274
-0.0809264
-0.0653479
-0.0667875
0.100311
-0.0335237
0.190094
-0.081733
0.040747
0.0360556
-0.0388112
-0.0191018
0.057913
0.00145548
-0.00165349
-0.0126344
-0.0759476
-0.0624575
0.091095
-0.0616609
0.130401
0.00238961
-0.00329774
-0.154718
0.098853
-0.132755
-0.118121
0.0633498
-0.0474111
-0.0159387
0.128586
-0.0623265
-0.0262129
-0.12846
0.0992254
-0.0682353
-0.141656
-0.186393
0.0638172
-0.0397928
-0.0240244
-0.0360336
0.276089
-0.240055
-0.0789922
0.145062
-0.0660695
-0.0490296
-0.0678216
0.116851
-0.00187917
0.188176
-0.308485
0.120309
0.00243329
0.00044263
-0.157491
0.0743239
0.0831668
-0.0563713
-0.102017
0.158388
0.125782
0.109773
-0.235555
0.144418
-0.092199
-0.052219
-0.0242341
0.0681239
0.0252449
0.0842922
-0.109537
0.00337162
-0.0447956
0.041424
-0.1604
-0.134161
0.116233
-0.0965252
-0.0197076
0.0442171
-0.0946589
0.0504417
0.0455831
0.00919692
-0.320564
0.144427
-0.0196301
-0.0258113
0.000369454
-0.00191957
0.00155012
-0.0389899
-0.00323523
0.0422252
0.0944838
0.0479282
0.00322798
-0.0511562
0.0803253
-0.0759376
-0.00438773
-0.00590235
0.000313207
0.00558914
0.0271272
-0.0642336
0.0371064
0.0207479
-0.00176672
0.0754117
-0.0482845
0.0398957
-0.233069
-0.0418362
0.0547619
-0.0129258
-0.0201597
0.0497973
-0.0405589
-0.0418349
0.0823937
-0.0972562
0.0803806
-0.0544841
-0.0258965
-0.00342151
0.00223679
0.00118472
-0.0433586
0.00436866
0.0949132
-0.0681229
0.0100444
0.017886
-0.0279304
-0.00859199
0.00865645
0.0930161
-0.00305541
-0.0899607
-0.0027445
0.00209149
0.0499277
-0.0729032
-0.0546433
-0.102847
0.0577785
-0.0594827
0.00170418
0.120884
-0.0843802
-0.0365036
0.114495
-0.190715
0.0762203
0.327014
-0.159646
-0.167369
-0.172558
0.299923
-0.127365
0.0495309
-0.0500295
0.00049865
-0.00387818
0.00224468
0.0016335
-0.142353
0.0953144
0.0209184
0.0421686
0.00606869
-0.100846
0.0557882
0.0450576
0.071207
0.0995679
-0.0055824
-0.00031995
0.171834
0.0338766
-0.205711
0.0721784
-0.132104
0.0599255
-0.0582702
0.0143875
0.0438827
-0.0585614
-0.0518382
0.0914304
-0.0395687
0.0121508
-0.0135357
-0.0548949
0.0472266
0.00766827
0.0603757
-0.0613028
0.000927181
0.0624014
0.083873
0.073787
-0.0398054
-0.0139579
0.0537633
0.013465
-0.0150416
0.00157655
0.0436829
0.00536902
-0.0490519
0.0458072
-0.0523143
0.00650707
-0.0606236
-0.0469469
0.10757
-0.0815131
-0.0536377
-0.0624223
0.0134772
0.0489451
0.240997
-0.115215
0.128743
-0.103746
-0.0249965
0.103874
-0.0600703
-0.0716769
0.0362831
0.0353938
0.0463338
-0.0875786
0.0412449
0.0261516
0.0614693
-0.0876208
0.112406
0.0385621
-0.150968
0.000845751
-0.000833363
-1.23882e-05
0.292481
-0.16504
-0.12744
-0.169647
0.0749562
0.042643
0.0114053
-0.0540483
0.310431
-0.191362
-0.119069
-0.00136662
0.0010864
0.000280217
0.0514662
0.0388118
-0.274627
0.00797414
0.266653
0.0367648
-0.0796899
-0.0794869
-0.0845344
0.0251606
-0.00719593
-0.0629553
0.065014
-0.00205871
0.293583
-0.194382
-0.0992007
-0.0486356
0.0151668
0.0334689
0.0567213
-0.0140783
0.029864
-0.0768454
0.0469814
-0.0720885
-0.0287573
-0.0618597
0.0575181
0.00290047
-0.00235005
-0.000550429
0.0659985
-0.0213828
-0.0446158
0.22559
0.0340375
-0.259628
-0.27227
0.0848796
0.187391
-0.0442823
-0.018673
-0.0117983
0.0137084
-0.00191015
-0.0456941
0.0984569
-0.0527628
-0.0673667
0.11487
0.148465
-0.0792092
-0.0692558
0.00142243
-0.0052033
0.00378087
0.131426
-0.0877592
-0.0436669
-0.0040696
0.00350447
0.00056513
-0.152154
-0.105789
0.0337758
0.0370645
-0.0708403
0.0197095
-0.0834339
8.27427e-05
-0.0038573
0.00377456
0.0408585
-0.0750002
0.0341417
-0.0678788
0.0881767
-0.046347
0.0374199
0.00892709
0.0390078
-0.313635
-0.0170767
-0.0390906
0.170185
-0.110259
-0.147589
0.294108
-0.14652
0.00259227
-0.0115499
0.00895759
-0.170602
0.0601375
0.106199
-0.0814528
0.0860433
-0.0638569
-0.0221864
-0.116426
0.0729654
0.0434605
0.101113
-0.180203
0.0790902
0.0994124
-0.192226
0.0928139
0.0412535
-0.0548416
0.0135881
0.000232623
-0.00127236
0.00103974
0.0787303
-0.0611503
-0.01758
-0.0330975
0.0945539
-0.0614564
-0.00523806
-0.0256806
0.0979387
-0.0537216
0.0557576
0.00925643
-0.183633
0.0890556
0.187172
-0.0877595
0.0722158
-0.0685487
-0.00366708
-0.00229788
-0.00100451
0.0033024
-0.0450255
0.0438686
0.00115688
-0.0862347
-0.0296053
0.11584
0.0231645
-0.0221337
-0.00103082
-0.12003
0.0696364
0.0503933
0.258548
-0.0725369
0.000348527
-0.00858868
-0.0986678
0.0318803
-0.151021
0.0701403
0.080881
0.058783
-0.128952
0.0701687
0.0411002
-0.0893022
0.0482021
0.014642
-0.00117702
0.0389995
-0.078416
0.0394165
0.0674814
-0.00671853
0.123533
-0.0343151
-0.0981538
0.0650564
-0.0580267
-0.00439565
-0.12914
0.0910777
0.0380626
-0.106556
0.0688
0.0848971
-0.0458976
0.0825161
0.00482624
-0.0873423
-0.0380312
-0.00651893
0.0445501
-0.0499636
0.0509514
-0.000987852
-0.0401403
0.0581666
0.0349037
0.0938393
0.182756
-0.104168
0.0577868
-0.103481
0.0241836
-0.0555755
0.0137393
0.0178873
-0.0974149
0.0795276
-0.00565172
0.102247
-0.24531
0.143063
0.0932154
0.030318
0.019512
0.0405729
0.0629354
-0.0361237
0.0479108
-0.00422788
0.157517
-0.296673
0.139155
0.128845
-0.0728085
0.0459994
-0.0426278
0.109798
0.0424108
-0.114457
-0.103361
0.217818
0.224437
-0.119877
-0.104561
-0.0359731
-0.00649184
0.042465
0.0673422
0.0544357
-0.00268055
-0.000740954
-0.121021
0.0715295
-0.00282538
0.00306032
-0.000234942
-0.0109916
-0.0439032
-0.169566
0.113194
-0.0155478
-0.0110948
0.00137521
-0.00114259
0.0768901
-0.0360317
0.235128
-0.139012
-0.0961164
0.029854
-0.069047
0.039193
0.0518162
-0.00600897
0.00060518
0.0598292
0.0375401
-0.0704427
-0.00946105
0.0799037
-0.0278556
-0.00429782
0.0321534
0.0462105
0.0670408
-0.0455224
-0.0709941
0.116517
-0.13222
0.0459856
3.70028e-05
-0.00140362
0.193224
-0.0861486
-0.107075
0.00122759
-0.00038184
0.136881
-0.216618
0.0797369
-0.154799
0.246539
-0.0917404
0.166544
0.0963427
-0.0418962
-0.0416243
0.0835206
-0.220634
0.107074
0.11356
0.0193187
-0.00122502
-0.0396098
-0.0122332
0.051843
0.0133818
0.212209
0.0055011
-0.00407868
0.0653174
-0.149012
0.0836949
0.194028
0.0327873
-0.226815
-0.0928006
-0.13755
0.230351
-0.0399636
-0.0878585
0.0611956
-0.0596581
-0.00153746
-0.0689022
0.0867894
-0.104332
0.0438595
0.0604725
-0.0557074
0.0114252
-0.00223536
0.00369094
-0.00145558
-0.000253376
0.00284606
-0.00259268
-0.181003
-0.111208
0.292211
-0.05608
-0.048252
-0.109095
0.203714
-0.0946189
0.146655
-0.0760499
-0.0706054
0.0295185
0.0502713
-0.0797899
0.00425622
-0.00317792
-0.0010783
0.000356499
-0.00463014
0.00427364
-0.00769445
-0.0308001
0.0384945
-0.0438479
0.00581672
-0.0809292
0.182042
-0.269666
0.100652
-0.0357378
0.113317
0.0915609
-0.1781
-0.0305756
-0.0443044
-0.153881
0.00748815
0.146392
0.254004
-0.115921
-0.138083
0.107529
0.0409358
-0.201439
0.0973757
0.104064
0.0295336
-0.0968611
0.0673275
0.0540331
-0.118001
0.0639683
-0.24162
0.180423
0.061197
-0.0268429
0.0137334
0.0131095
-0.0541747
-0.0633921
0.117567
-0.326117
0.198183
0.127934
-0.116382
-0.0850575
-0.091199
-0.0871373
0.0398417
-0.0519932
0.0121515
-0.0301145
0.000267011
0.0298475
0.0742079
-0.0404321
-0.0744172
0.0380016
0.0364157
-0.0286708
0.0326347
-0.00396386
0.000176765
0.00298362
-0.00316039
0.00028399
-0.00347006
0.0134868
0.000776443
-0.0142633
0.0565385
-0.125384
0.0688453
-0.129964
-0.131538
0.261502
0.000510141
0.00503329
-0.021653
0.0166197
0.215804
-0.128699
-0.087105
-0.0359952
-0.10087
-0.123135
0.144841
-0.0592163
0.126905
-0.276425
0.14952
0.00854332
0.00567264
-0.0307423
-0.0178934
0.121351
0.0266025
-0.147954
0.0580164
-0.00225887
0.0684484
0.0919468
-0.160395
0.0844751
0.0364087
-0.0129467
-0.0138962
0.0654657
-0.115346
0.0498802
0.144084
-0.0787665
-0.00148601
0.000707359
0.000778649
0.100492
-0.222425
0.121933
-0.0421975
0.100722
-0.0585242
0.0444126
-0.0988077
0.0543951
0.04976
-0.110384
-0.0580736
0.0192624
0.00923802
-0.0298189
0.0205809
-0.186287
0.088758
-0.0750989
-0.166521
-0.0706156
-0.0769756
-0.0281574
0.0371377
-0.00898028
-0.0382063
0.0632143
-0.025008
-0.0485749
-0.0640502
0.112625
0.307988
-0.129857
-0.178131
-0.0353611
-0.0130817
0.0484428
-0.136454
-0.133212
-0.0828104
0.0257783
0.0570321
0.0266233
-0.180504
-0.213839
0.0573974
0.156442
-0.142638
0.0720226
0.214224
0.137451
0.146074
-0.0731085
-0.0729656
0.112685
0.190831
-0.111737
-0.0790938
-0.0631455
0.1286
-0.065454
0.0466271
-0.0516166
0.00498948
0.144129
0.0446705
-0.188799
-0.00661332
0.053787
-0.0471737
-0.0593889
-0.0606423
0.120031
-0.00505689
0.00549878
-0.000441886
-0.179886
0.0896935
0.0901923
0.0383923
-0.0503928
0.0120005
-0.275399
0.169635
-0.0287843
-0.00133024
0.304507
-0.134112
0.0810508
0.0567248
-0.137776
0.0158512
-0.0354813
0.0350371
0.0429695
-0.0780066
-0.00602746
0.00861973
-0.0146376
0.0558912
0.037232
-0.0614661
-0.00208013
0.0354104
0.0596469
-0.0566455
-0.00300148
-0.202277
0.133944
0.0683331
-0.0030328
0.000207416
-0.114045
0.0782307
0.035814
0.0621708
-0.0131611
0.0125002
0.000660915
0.126701
-0.00534973
0.0548175
-0.00819034
0.00917904
0.0488374
-0.118192
0.0759944
0.0485698
0.00425882
0.0334594
0.0160715
-0.159008
0.0914008
-0.00753944
0.0333955
-0.0771683
0.234202
-0.157033
-0.0319022
-0.0641761
-0.118446
-0.11108
-0.0494174
0.114883
-0.00298627
0.0442944
-0.0413081
-0.0696959
-0.144143
-0.0728563
-0.0637189
-0.117035
0.276229
-0.159193
0.000774223
0.0490677
0.0450998
0.0352808
-0.0616603
-0.0536856
0.0461705
0.0591881
-0.120448
0.0475917
0.184556
0.107924
0.000697866
-0.030325
-0.0559607
0.0132093
0.0427514
-0.0150758
-0.0284107
0.0434865
0.0428347
0.0209825
-0.000672854
-0.000813155
-0.0469605
0.0468158
0.000144764
-0.0802387
0.139028
-0.0587893
-0.00506836
1.1469e-05
-0.082728
-0.0373017
-0.335247
0.186445
0.148802
0.000790346
0.0484549
-0.0100626
-0.0835922
-0.200646
0.284238
-0.0189875
-0.0261297
0.0451171
0.0228649
-0.0251422
0.00227734
0.0223839
0.0309625
-0.0533464
0.0636316
-0.150955
0.0873232
-0.00258583
0.00408382
-0.0122789
-0.0461632
0.0282806
-0.00541571
0.0529621
-0.0955759
0.0426138
-0.11493
-0.0405416
0.155472
-0.0115079
0.00405352
0.00745437
0.0403737
-0.0194583
-0.0209153
-0.0391725
0.0433679
-0.00419532
-0.0357755
0.0921311
-0.0563556
0.171255
0.144614
-0.0651252
-0.045126
0.0285005
0.0166255
0.0603513
-0.132571
0.0722196
-0.0279972
-0.0171288
-0.0478005
0.0457471
-0.0768143
-0.055209
0.093867
-0.038658
-0.00705041
0.00813666
-0.00108625
0.0279397
-0.0288457
0.000905952
0.0844234
-0.0146357
-0.0697877
0.00340311
-0.00332037
0.0319629
0.0569816
-0.0207722
-0.0362095
-0.00344087
0.00114299
0.11651
-0.165314
0.0488047
0.0308573
-0.025824
0.0538789
0.0549188
-0.1444
0.067764
0.0766357
-0.0157057
0.0114967
0.00420905
-0.104003
0.0140341
0.089969
0.0476278
0.000800832
-0.0484287
-0.0582714
0.0452159
0.0130555
-0.0476718
-0.0727762
-0.113787
-0.0784398
-0.0579017
0.0403688
0.0175329
0.0227072
0.0176665
0.14112
-0.0466216
-0.168758
-0.00152584
0.170284
-0.00257207
0.000342939
0.00222913
0.284163
-0.289878
0.00571417
-0.011535
-0.026568
0.038103
-0.0393946
0.0857284
-0.0444877
0.00531519
-0.10187
-0.100407
-0.0853808
-0.00625753
-0.00269098
-0.0624489
0.0651819
-0.00273303
-0.000695974
-0.0467706
0.0474666
-0.00223347
0.00241023
-0.0653929
-0.0174174
0.00422166
-0.00386517
0.0438195
-0.0762648
0.0324453
-0.0382246
-0.0683312
-0.00211321
-0.000458853
0.0783289
0.0683263
0.139328
0.0565925
0.0307297
0.0322057
-0.0381407
0.050968
-0.0128272
-0.0593108
-0.0649607
-0.138546
0.00958536
0.128961
0.227995
-0.127503
-0.291904
0.107173
0.184731
-0.233252
0.156083
0.0466243
0.0137513
-0.00233271
0.00135505
0.000977665
-0.000691835
0.0281904
-0.0274986
0.289523
-0.174177
-0.115346
-0.0748395
0.000678933
0.0741606
-0.0570241
0.107524
-0.0504995
-0.00160948
0.0411705
-0.039561
-0.185903
-0.106001
0.00345169
0.000782557
-0.00423425
-0.00576348
0.000181077
0.0044908
-0.00511116
0.000620365
0.0218834
0.0350982
-0.0595699
0.088961
-0.0293911
-0.104051
-0.0736656
0.177717
-0.000877232
0.164763
-0.096315
-0.142438
0.0579917
-0.063641
-0.0787969
0.17264
-0.0631848
-0.109455
0.0531893
-0.073059
0.0198697
-0.0229865
0.086366
-0.0907328
-0.00229323
0.093026
-0.113953
0.0863152
0.0276376
-0.24621
0.108997
0.128816
-0.0518127
-0.077003
0.0189589
-0.187717
-0.0893962
0.218171
0.0484309
-0.0305479
-0.017883
0.0682053
-0.0158121
0.170308
-0.0388328
0.132013
-0.0931799
-0.00530491
-0.000458566
-0.00494782
-0.00656008
0.0565294
-0.0884316
0.0236377
-0.0435175
0.0198798
-0.0795612
0.0401903
0.0480858
-0.0623097
0.0142238
0.0500374
0.00774113
0.208315
-0.119655
-0.0886601
-0.0890419
0.149335
-0.248139
0.0988035
-0.0913255
0.183272
0.0805156
0.0709037
0.0107525
-0.0386081
-0.127093
0.253558
-0.126465
-0.100562
-0.123071
0.223633
-0.137432
0.260799
-0.123368
0.163845
-0.252757
0.0889121
0.00524144
-0.000750638
-0.0230678
0.0602998
-0.200003
0.0917305
0.136511
-0.0624773
-0.074034
0.0979213
-0.27048
-0.0379416
0.0753406
-0.037399
0.111904
-0.231267
0.119363
-0.0401871
-0.00615992
0.00010251
-0.0457199
0.214161
-0.0802167
0.0255227
-0.0296166
0.00409391
-0.041294
-0.00206458
-0.00794624
-0.0453773
0.0533236
0.0704093
-0.0405453
-0.00116979
0.00211592
-0.000946123
-0.000283684
0.00117633
-0.187002
0.0958031
-0.109664
-0.0513006
0.160965
0.0171757
-0.107908
0.0258034
0.00247719
0.0682448
-0.0404047
-0.0278401
0.092367
-0.114539
0.0221723
-0.00289725
0.00184151
0.00105574
-0.0124672
-0.0343568
0.046824
0.15399
0.0740045
0.0871354
-0.177914
0.0907782
0.0999319
0.0288838
0.00979206
-0.0457652
0.00744516
-0.0798056
0.0723604
-0.313008
0.191126
0.121881
-0.225895
0.0517182
-0.0897563
0.165268
-0.0755121
-0.0887031
0.180685
-0.0919817
-0.00593157
0.00539958
0.000531987
0.0155206
-0.055356
-0.0852753
-0.0591243
-0.0406246
0.000191977
-0.0181212
0.307396
-0.150594
-0.156802
-0.163735
0.0783554
-0.022845
-0.0778705
0.100716
0.110253
-0.0429082
-0.0673449
-0.00518167
-0.00121238
-0.0150743
0.0445993
-0.029525
0.00431878
-0.000867095
-0.0218753
-0.04208
0.0639553
-0.0384027
0.0607866
-0.0192901
-0.046117
0.000954575
0.0451624
0.00558486
-0.00634298
0.000758125
0.0604615
0.0309059
-0.0795449
0.048639
0.0627677
-0.112185
0.0447702
0.0531685
0.00376863
-0.00289477
-0.000873858
0.0858486
-0.204127
0.118278
-0.000463954
0.0389862
-0.0467633
0.00777704
-0.148612
0.0086681
0.0152569
0.0480929
0.194489
-0.10864
0.00424986
0.000945518
-0.00519537
-0.0975576
0.061782
-0.0420306
-0.00954035
0.0515709
-0.0435133
0.00221925
0.0898988
-0.206985
0.117086
0.0159813
0.0047666
0.100606
0.0953701
-0.195976
-0.293264
0.176229
-0.00295676
0.018938
-0.047664
0.105731
-0.0580668
0.268622
-0.193911
-0.0747111
-0.00565933
0.000567031
0.0050923
0.0024745
-0.00210505
-0.153504
0.0995671
0.0539368
-0.0334968
0.0498063
-0.0163096
0.0911184
-0.0658734
0.0722917
-0.0662774
-0.00601425
0.0917393
-0.130572
0.258828
-0.173241
-0.0855868
-0.000933634
0.0069302
-0.00599656
-0.00277132
0.00380272
-0.00103139
-0.0517184
0.0135777
-0.175615
0.154353
0.0212612
0.0937076
0.0562367
-0.00312723
0.0378024
-0.0346752
0.0706739
-0.00312094
-0.067553
-0.28183
0.175769
0.106061
0.0408242
-0.223772
0.182947
0.0615553
0.0178613
-0.0794166
0.102298
0.0793741
-0.181672
0.066371
-0.0428301
-0.0235409
-0.0853353
0.0301226
0.0552127
0.000957305
-0.0152253
0.0657122
-0.0504868
-0.0971722
0.0627506
0.0344217
0.000892356
0.00639547
-0.00728783
-0.131356
-0.00719031
-0.0676977
-0.0676792
0.135377
0.0667577
0.0434954
0.0156486
0.0390908
0.0726011
-0.0111347
-0.0614664
-0.00667171
0.00654891
0.000122798
-0.000308673
0.0235661
-0.0578278
0.0342617
0.0253969
0.000406458
0.0492843
0.164876
-0.256907
0.0901745
0.166733
-0.0956237
0.0404147
-0.108008
-0.0406041
-0.105188
-0.117236
-0.0726136
-0.0283575
0.100971
-0.0429947
0.105762
-0.0441486
0.0251611
-0.133702
0.0712246
-0.0972841
0.0564596
0.0408245
-0.0482534
0.0475574
0.0868886
-0.0183201
-0.0685684
-0.00808366
0.00786017
0.000223492
-0.229078
0.133923
0.0951548
-0.0485706
0.27617
0.18886
-0.0865622
-0.313162
0.196337
0.116825
0.0911847
-0.0480797
-0.043105
0.0729027
-0.154485
0.0815826
-0.0856406
0.0151979
-0.00248451
0.0473414
-0.0448569
0.0521809
0.0118425
-0.0640234
-0.0110845
-0.00462124
-0.221989
0.0793585
0.142631
0.0484277
-0.017999
-0.0304287
-0.0455739
0.0562471
-0.0106732
0.148599
0.0985147
-0.247114
-0.152741
-0.0228733
0.00828202
-0.0548498
0.0465678
0.183002
-0.0958669
0.0811258
-0.148823
0.000321148
-0.00274917
-0.0117165
0.0638974
-0.0407267
0.0602387
-0.000657812
0.00382302
-0.0031652
-0.0469128
-0.0113586
0.00505994
0.000283984
-0.00534393
0.0954207
-0.0366406
0.220985
-0.12548
-0.0955057
0.0607995
-0.0581224
-0.00267705
-0.122877
0.230724
-0.107847
-0.0465151
-0.00188929
-0.00564493
0.000463266
-0.172079
-0.0753921
0.247471
0.0303819
0.0155663
-0.0459482
0.109954
-0.12543
0.0154759
0.0577377
0.0144781
0.00563982
-0.00489644
-0.000743383
-0.200969
-0.112039
0.0481907
0.00309321
0.0131272
-0.0484883
-0.0492527
0.0637244
-0.0400708
-0.016461
-0.0519759
0.00148587
0.027414
0.0164388
-0.0438529
0.0354308
-0.0384171
-0.067262
0.0850201
-0.0177581
-0.0351972
-0.0120027
0.0472
-0.00416089
-0.0387755
0.0429364
-0.23851
0.0768185
0.161692
-0.249449
0.122356
0.0267713
0.0125423
-0.0393136
0.0281663
-0.0026436
0.250761
-0.129751
-0.12101
-0.0630825
0.107853
-0.00682624
0.000154529
0.0602055
-0.0163689
-0.0438367
0.0592913
0.0522546
-0.111546
0.0138326
-0.000345722
0.10915
0.177596
0.0878907
-0.0349286
-0.0160942
0.00328103
0.0128132
-0.00201699
0.000847198
-0.00239656
0.000163088
0.081502
0.212081
0.0693503
-0.0932985
0.204961
-0.111663
-0.124261
0.0415335
0.13938
-0.0550881
0.0130195
-0.0540285
0.041009
-0.00184876
-0.00525743
0.00710618
0.069258
0.00141589
-0.00502055
0.0517336
-0.0467131
-0.0608811
0.0871165
-0.0262354
0.0237405
0.00130435
-0.0250449
-0.215863
0.118809
0.125522
-0.19475
0.0692285
0.0706354
0.00556914
-0.0762046
0.118943
0.00159378
-0.000886419
-0.00478722
0.00572448
-0.000937264
-0.0401441
0.061779
-0.0216349
-0.0509033
0.0183809
0.0325223
0.169947
-0.0538137
-0.116134
-0.0565646
0.0109907
0.345093
-0.130869
-0.0666705
0.140788
-0.109298
0.025361
-0.0789603
0.0181474
0.0830982
-0.0756531
0.025832
0.0458055
-0.00681931
0.308589
-0.21993
-0.0886595
0.000327249
0.0403144
-0.0406417
0.0982438
-0.0384146
-0.119363
-0.102627
-0.00116237
-0.00290723
0.0408902
-0.101307
0.0604166
-0.075183
0.0346241
0.0121349
-0.0120931
-4.17529e-05
0.0550523
-0.0467703
-0.13696
-0.112132
0.249092
0.00759878
-0.0205455
0.0279856
0.0564378
0.120487
0.0494605