/*--------------------------------*- C++ -*----------------------------------*\
| =========                 |                                                 |
| \\      /  F ield         | OpenFOAM: The Open Source CFD Toolbox           |
|  \\    /   O peration     | Version:  v2012                                 |
|   \\  /    A nd           | Website:  www.openfoam.com                      |
|    \\/     M anipulation  |                                                 |
\*---------------------------------------------------------------------------*/
FoamFile
{
    version     2.0;
    format      ascii;
    class       volVectorField;
    location    "200";
    object      U;
}
// * * * * * * * * * * * * * * * * * * * * * * * * * * * * * * * * * * * * * //

dimensions      [0 1 -1 0 0 0 0];


internalField   nonuniform List<vector> 
53008
(
(1.09703 -0.0458495 -1.4407e-20)
(1.28977 -0.0177975 3.53122e-20)
(0.964425 -0.0681184 -8.60083e-21)
(1.17634 -0.342308 2.22135e-20)
(0.0175427 -0.0261271 3.73962e-20)
(-0.142916 0.0199189 -5.37972e-21)
(1.11087 -0.196183 5.0795e-21)
(1.09618 -0.0446204 1.55257e-20)
(1.015 -0.174556 3.59915e-22)
(0.987433 -0.0518142 -7.4931e-22)
(1.12467 0.0479548 3.55407e-21)
(1.08663 -0.25583 -1.32347e-20)
(0.448523 0.0334163 -5.48965e-21)
(1.03403 0.0749289 3.2973e-21)
(0.988194 -0.0459852 0)
(1.03074 -0.0128214 3.59481e-21)
(1.08109 -0.00933358 -8.1294e-21)
(1.03099 -0.0131602 -5.97415e-21)
(0.471048 0.0693517 0)
(1.07792 0.00835249 8.15471e-21)
(1.07446 -0.0155088 6.76053e-21)
(0.851265 -0.197472 -6.3855e-21)
(1.00163 -0.00920392 -1.47603e-21)
(1.10734 -0.194233 0)
(1.06967 -0.0178405 -5.82352e-21)
(1.19967 -0.422272 -1.59186e-20)
(1.04594 0.0744359 0)
(1.13853 -0.0371561 -2.33271e-21)
(1.12897 0.0786031 -1.09567e-20)
(1.15285 0.076427 -3.19037e-20)
(1.10628 0.0611214 -9.14638e-21)
(0.98537 0.0570521 0)
(-0.00554838 0.0199695 0)
(1.03735 -0.0536575 4.25957e-21)
(1.00283 -0.00162526 -4.18565e-22)
(0.951385 -0.156719 -5.04809e-21)
(1.018 -0.0926343 -2.38193e-22)
(1.00003 -0.000125034 -9.79121e-23)
(1.13149 -0.186873 -8.17287e-21)
(1.04282 -0.0584897 0)
(1.01856 -0.0909005 5.91527e-22)
(0.820443 0.0968943 -1.89247e-20)
(1.12192 0.0487332 -1.31955e-20)
(0.193292 0.0572123 0)
(1.07848 0.00892584 -4.23657e-21)
(1.03829 -0.0151688 -3.05961e-21)
(1.03787 -0.00616342 -5.65885e-21)
(1.06425 0.00189723 4.54989e-21)
(1.15789 0.0561921 1.17882e-20)
(1.00617 -0.0103816 -1.81703e-22)
(1.01709 -1.09809e-06 0)
(0.88636 -0.0614663 -2.23919e-20)
(1.08804 -0.0280151 -1.71676e-20)
(0.999937 -0.00911859 -2.10714e-21)
(1.10131 0.0369222 0)
(0.445806 0.0668539 3.5025e-21)
(1.07768 0.00701309 0)
(1.00413 -0.00776926 5.2006e-22)
(1.10679 0.0607751 -4.52962e-21)
(1.1126 0.0232554 -1.78078e-20)
(1.05017 -0.0353313 -6.83782e-21)
(1.06435 -0.101849 8.99254e-21)
(0.676909 -0.0431593 5.98813e-20)
(0.266963 0.0110161 -1.77947e-20)
(1.07775 -0.402741 6.47993e-21)
(0.998507 -0.0253135 2.40178e-21)
(1.15345 0.0751645 3.8378e-20)
(1.0373 -0.00618932 2.30935e-21)
(1.01191 -0.000735296 -1.05177e-21)
(1.03599 -0.0181477 -2.54055e-21)
(0.389222 -0.127417 3.36717e-20)
(1.01538 -0.00312675 1.18169e-21)
(0.968735 -0.0141625 0)
(0.00808473 0.0231753 0)
(1.19778 -0.430221 4.75622e-21)
(1.00274 -0.000277249 0)
(0.999984 -0.000685671 0)
(-0.135171 0.0209192 -9.94779e-21)
(1.02843 -0.0105724 0)
(0.267252 -0.0943979 0)
(-0.141746 0.0199125 4.07969e-21)
(0.580287 0.0430077 0)
(1.10954 0.0555547 -5.71479e-21)
(1.15384 -0.37513 1.77692e-20)
(1.08884 -0.128186 -1.1211e-20)
(1.03622 -0.0186197 -2.60395e-21)
(0.836148 -0.350416 -2.22554e-20)
(1.01394 -0.172224 0)
(0.998561 -0.0257102 -5.19928e-21)
(1.09427 0.0325273 1.01609e-20)
(0.189331 -0.0665411 -8.88214e-21)
(0.0715294 0.0233776 -4.23033e-20)
(0.580404 0.0436689 0)
(1.18208 -0.00778477 1.51919e-20)
(0.841406 0.042536 -3.02459e-20)
(1.1152 0.0532724 -2.19223e-20)
(0.595955 0.0584769 3.0325e-21)
(0.964983 -0.0666862 7.86452e-21)
(1.00921 -0.0299357 -3.60791e-20)
(0.728897 -0.0533094 -4.17058e-20)
(1.07828 0.00760743 0)
(1.04287 -0.0575069 -2.75506e-21)
(1.18387 0.0226476 -1.59877e-22)
(1.13828 -0.0355609 2.0723e-21)
(1.10002 -0.0442622 0)
(0.113433 -0.00128835 1.28905e-20)
(-0.069543 -0.00451325 -2.83223e-20)
(0.950559 -0.154343 -9.42032e-21)
(1.13594 0.0438776 -9.85109e-21)
(1.01546 -0.00296568 -1.31165e-21)
(1.21322 -0.258769 -5.4882e-21)
(1.09903 -0.287572 0)
(0.999983 -0.000641071 0)
(0.783143 0.0433097 -2.65122e-20)
(0.728382 0.064965 0)
(1.01559 -6.65075e-05 2.026e-21)
(1.07642 -0.00516592 -8.01335e-21)
(1.01979 -0.00986711 -1.47491e-21)
(1.06538 0.0617889 0)
(0.152409 -0.0596521 -6.80871e-20)
(0.028091 -0.0272992 3.20956e-20)
(0.969543 -0.0139806 -4.42747e-21)
(1.02589 -0.0644225 1.36339e-21)
(0.791937 -0.994982 -4.39338e-20)
(-0.133047 0.0216776 -9.81834e-21)
(0.986821 -0.0140801 -6.74384e-21)
(0.169419 -0.0701699 3.4027e-20)
(1.14631 0.0663141 -4.64087e-20)
(1.10655 0.0160491 1.46615e-20)
(0.98668 -0.0370757 6.67299e-21)
(1.0117 0.0575211 0)
(1.02462 -0.0380245 -5.93057e-22)
(1.14715 -0.380561 -2.45121e-20)
(1.06743 -0.0548795 2.87984e-21)
(1.02154 -0.00921128 -1.03049e-21)
(1.10706 0.0609357 2.35692e-21)
(0.997922 -0.00221289 -4.90084e-21)
(0.449754 0.0323642 0)
(1.01188 -0.0318844 3.95854e-22)
(1.01726 -0.0247186 7.09851e-22)
(1.02816 -0.0139039 0)
(1.01656 -0.0241469 0)
(1.09028 -0.138422 8.23981e-21)
(1.10849 0.0645754 -3.21158e-21)
(1.1072 0.0168052 -1.07549e-20)
(0.978669 -0.0705387 8.43969e-21)
(1.07553 -0.00504936 1.00046e-20)
(1.0032 -0.00698568 5.69806e-22)
(1.0345 0.00086711 2.23319e-21)
(1.04511 -0.0425942 2.4819e-21)
(1.00032 -0.00313108 1.02806e-21)
(0.683502 -0.0463345 0)
(-0.00931727 -0.0233827 -3.95933e-20)
(0.853397 -0.202555 -1.40507e-20)
(1.00932 -0.00970461 0)
(1.08701 -0.0280882 5.82619e-21)
(0.799161 0.0831346 -2.97657e-21)
(0.253618 0.0690194 -1.02648e-20)
(1.05884 -0.0450958 9.15685e-21)
(1.28236 -0.187985 0)
(1.17717 -0.0793961 1.8445e-20)
(1.00594 -0.0102209 -5.42836e-22)
(1.00972 -0.0109613 1.50516e-22)
(0.0837562 0.02567 4.01481e-20)
(1.07053 -0.0318581 -6.43122e-21)
(1.00001 -0.000116308 -1.97227e-23)
(1.00729 -0.0227513 0)
(1.07766 -0.0825655 -1.28454e-20)
(1.00488 -0.0109013 0)
(0.946801 -0.0330012 9.18944e-21)
(1.09494 -0.0818701 1.27134e-20)
(0.561505 0.0460008 2.66201e-21)
(0.730644 0.0345161 8.93717e-21)
(1.00534 -0.0164163 0)
(0.843142 -0.982654 4.73623e-20)
(1.03193 -0.0157002 2.82269e-21)
(1.09076 -0.127325 0)
(1.11502 0.0526211 6.08257e-21)
(0.836682 -0.342651 1.44273e-20)
(1.03572 -0.19649 2.76637e-21)
(1.02629 -0.0636377 -1.12802e-21)
(1.06976 -0.0311811 5.51644e-21)
(0.198301 0.0572648 2.87909e-20)
(0.989979 -0.0531318 9.91001e-21)
(1.08708 -0.25161 0)
(0.278042 0.0125547 0)
(0.648221 -0.0345208 -9.98082e-21)
(0.719724 0.0334421 -3.63542e-20)
(-0.0790387 -0.00696257 0)
(1.00318 -0.00687768 0)
(0.980327 -0.243166 -7.23865e-21)
(1.03045 -0.0530748 0)
(0.931798 -0.394526 3.99319e-22)
(0.106194 -0.0493216 8.91235e-20)
(0.99511 -0.0227214 0)
(1.05696 0.00756136 -4.20169e-21)
(1.09525 -0.0692558 1.56807e-20)
(1.00067 -0.0125102 0)
(1.00082 -0.00426992 0)
(0.905194 -0.0415662 2.34424e-20)
(1.18891 -0.0522185 0)
(1.02555 -0.0432227 2.42412e-21)
(1.09946 -0.030277 1.21791e-22)
(1.01334 -0.0316858 1.25035e-23)
(1.12969 0.0561742 0)
(0.114537 0.0192133 1.86302e-20)
(1.07991 -0.0072151 -8.69958e-21)
(1.00102 -0.00497006 9.09976e-22)
(1.14879 -0.0919098 6.66649e-21)
(1.02072 -0.01015 2.80326e-21)
(-0.048946 -0.00495746 -2.56169e-20)
(1.04405 -0.0561801 -3.42202e-21)
(1.16627 0.0851028 -2.90403e-20)
(0.960033 -0.0671554 2.10348e-21)
(1.1359 0.0430176 0)
(0.985978 -0.00447821 3.48795e-21)
(0.997528 -0.00269123 4.71345e-21)
(1.00175 -0.00925934 1.38288e-21)
(1.1757 -0.106444 -2.00212e-20)
(0.990993 -0.0273178 0)
(1.11639 0.0640602 1.18403e-21)
(1.02616 -0.00559122 2.45578e-21)
(1.11069 0.0549974 3.01741e-20)
(1.02623 -0.00542938 -8.62263e-24)
(1.06606 -0.0448346 4.75638e-21)
(1.10762 0.0512777 1.14448e-20)
(1.01465 -0.0695352 0)
(1.10869 -0.166461 -2.45947e-21)
(1.06356 -0.138775 -6.94904e-21)
(1.02851 -0.0137965 0)
(0.212767 0.0146695 0)
(0.806106 0.0648923 0)
(1.03104 -0.000602684 -6.37145e-21)
(0.69321 0.0515021 0)
(1.17836 -0.0245687 0)
(0.111544 -0.00138372 -5.49989e-20)
(1.05868 0.00139849 8.58626e-21)
(1.02183 -0.00938611 0)
(-0.180858 -0.0120125 0)
(1.03163 -0.0119328 -2.25799e-21)
(1.02434 -0.0373467 1.2164e-21)
(1.03754 -0.0526583 -7.34967e-21)
(1.23908 0.0305696 1.20863e-20)
(1.04582 -0.0431356 0)
(1.1006 -0.0269997 0)
(1.00004 -0.000780262 -8.91809e-22)
(1.21771 -0.165692 3.01866e-20)
(1.11604 0.0634925 0)
(0.992185 -0.00542718 -2.33385e-21)
(1.11164 0.0229667 0)
(1.0668 -0.0255789 5.29397e-21)
(0.970426 -0.0415055 5.73775e-21)
(1.01262 -0.0334096 -6.78924e-22)
(0.907626 -0.0408407 0)
(1.04358 -0.0422973 0)
(0.670082 -0.0401039 -9.30459e-21)
(1.10869 0.0641514 -1.11301e-20)
(1.04934 -0.015776 5.70497e-21)
(1.17585 -0.108695 0)
(1.07861 0.00492373 0)
(1.19355 -0.485328 0)
(1.10699 0.0615101 -1.29785e-20)
(1.0761 -0.082293 1.10643e-20)
(1.01612 -3.86383e-05 2.75971e-21)
(0.999016 -0.0188901 2.00114e-23)
(1.0561 0.0786729 1.64771e-21)
(0.54226 0.0885683 1.04921e-20)
(1.00206 -0.0106752 -3.71345e-21)
(0.60282 -0.0307807 0)
(1.11063 0.0554776 -1.50543e-20)
(1.03203 0.00124216 -1.89639e-21)
(1.06632 -0.0545069 -7.69317e-21)
(0.985318 -0.0354282 -1.23238e-20)
(1.23752 0.0322625 -3.50759e-20)
(0.113684 0.0244233 0)
(1.02225 -0.00206478 3.63092e-21)
(1.12891 0.0557462 2.31362e-21)
(0.260527 0.0460473 1.41935e-20)
(1.10103 0.0336672 1.15768e-20)
(1.05127 0.00401151 -8.44844e-21)
(1.00162 -0.00941267 0)
(1.00003 -0.000145926 0)
(1.1017 0.033329 6.8771e-21)
(1.09506 -0.236987 5.62917e-22)
(0.973239 -0.0729431 1.68248e-21)
(1.12946 -0.189068 1.82376e-20)
(1.13569 -0.0558862 9.5078e-21)
(-0.204396 -0.00674517 0)
(1.09575 -0.241564 -1.33469e-20)
(0.990504 -0.0521885 -3.29463e-21)
(1.30761 -0.19366 -5.22201e-21)
(0.410188 0.0428646 -1.53944e-21)
(1.19608 -0.104452 1.05242e-20)
(0.754537 0.0554108 -9.28855e-21)
(0.857321 -0.344887 -1.44985e-20)
(1.0029 -0.000295973 0)
(1.14159 -0.0189548 1.94044e-20)
(1.11332 0.0543679 -4.00889e-21)
(0.620647 -0.0340805 0)
(1.06387 0.000403737 4.56005e-21)
(1.19698 -0.106945 0)
(-0.0801318 -0.00815062 0)
(0.0343932 0.043523 0)
(0.120814 0.0212904 -1.77051e-20)
(1.00006 -0.00188505 0)
(1.28369 -0.0190997 -1.72803e-20)
(0.976755 -0.0496967 -2.98573e-21)
(1.0488 -0.0154844 -5.87809e-21)
(1.0165 -6.68016e-05 -3.04237e-21)
(1.18005 -0.132054 4.21177e-20)
(0.219154 0.0158369 1.90822e-21)
(1.16933 0.0802213 0)
(1.04758 0.0774079 5.87126e-21)
(0.0974234 0.0249282 -2.83207e-21)
(1.14703 0.0352399 -1.50308e-20)
(1.14662 -0.0925112 0)
(1 -5.86526e-06 0)
(0.99903 -0.0063464 -1.44047e-21)
(1.02223 -0.00219982 1.83477e-21)
(1.13774 -0.0219815 1.29197e-20)
(1.11361 0.0541317 0)
(0.7982 0.0935257 1.95935e-20)
(1.02832 -0.133507 3.21484e-21)
(0.1057 0.0266536 1.49752e-22)
(1.30506 -0.189135 -1.8501e-20)
(0.970212 -0.0145904 9.00586e-21)
(0.800693 0.0831459 3.3573e-21)
(1.09123 0.000690018 0)
(1.00909 -0.00969682 0)
(1.1 -0.0798574 9.55688e-21)
(0.125235 0.0284935 0)
(0.99514 -0.0223224 -3.05689e-21)
(1.00004 -0.000185124 0)
(1.01761 -0.0583603 0)
(1.01619 -0.0102986 9.69191e-22)
(1.02577 -0.0061328 -2.38876e-21)
(0.935812 -0.387269 -1.21639e-21)
(1.01817 6.73912e-05 -2.185e-21)
(0.60686 0.0587322 -2.96183e-21)
(0.968111 -0.060205 3.43231e-21)
(1.00003 -0.000183882 0)
(1.00451 -0.0107611 -3.66941e-22)
(1.17653 -0.0777193 0)
(1.02851 -0.0393701 3.59899e-21)
(0.987574 -0.0466707 -8.5999e-22)
(1.07516 0.0782446 2.98599e-21)
(1.11344 -0.195301 1.76899e-20)
(-0.139099 0.021258 0)
(1.10733 0.0616848 1.981e-20)
(-0.0161689 0.0238881 2.10314e-20)
(1.23185 -0.00108654 2.1115e-20)
(0.0781802 0.0272643 2.62473e-21)
(1.05815 0.00096721 0)
(0.995255 -0.00641014 0)
(-0.150597 -0.0194327 -2.62368e-20)
(0.59037 0.055836 8.60953e-21)
(0.99734 -0.0169797 -2.66398e-21)
(1.00165 -0.0258014 -1.61105e-21)
(1.17549 -0.479687 0)
(0.548765 0.0882858 2.01155e-20)
(0.977047 -0.00903726 8.43874e-22)
(1.13726 -0.0561486 1.36334e-20)
(1.04641 -0.0249951 -5.64723e-21)
(-0.102616 -0.0274615 -8.98627e-20)
(1.18271 -0.09101 1.08933e-21)
(0.413125 0.0327223 0)
(1.02162 -0.00231824 -1.55985e-21)
(1.1111 0.00690333 -1.39025e-21)
(1.06344 -0.0852983 4.42933e-21)
(0.993861 -0.076927 0)
(0.630718 -0.0306137 -8.12702e-20)
(1.07071 0.0172596 -7.05343e-21)
(0.84231 -0.319086 0)
(1.11525 0.0635031 -2.1442e-20)
(1.18369 -0.0892515 -1.34666e-21)
(1.08074 -0.00672492 2.28274e-21)
(1.1314 0.0105957 -2.3544e-21)
(0.821632 -0.430515 -9.41457e-21)
(1.06728 0.0763045 0)
(0.107072 0.0264048 0)
(1.01114 -0.000317813 -1.03739e-21)
(1.01225 -0.0696141 5.02663e-23)
(1.10595 -0.0890921 1.07748e-20)
(1.07926 0.00558301 -1.18916e-21)
(0.596231 0.0887527 -3.56506e-20)
(1.01229 -0.0124288 0)
(1.0746 -0.0147547 7.14851e-21)
(0.421167 0.0439555 2.72948e-21)
(0.997297 -0.0173608 8.28838e-23)
(0.702023 0.0544374 -1.01708e-20)
(0.24952 0.0443492 -2.14748e-20)
(1.00444 -0.0026228 0)
(1.01098 -0.0699982 -7.09574e-22)
(1.05856 -0.0707677 0)
(1.02079 -0.0687506 -2.53099e-22)
(1.02822 -0.0891475 0)
(1.01749 -0.0252075 -7.20827e-22)
(1.17816 -0.0225951 0)
(0.934106 -0.224406 -1.44461e-20)
(0.0450706 0.0461281 0)
(1.02658 -0.132426 -1.66499e-21)
(1.09031 0.000723909 1.31768e-20)
(1.06895 -0.0174078 0)
(-0.123758 0.0233145 -4.15049e-20)
(1.0048 -0.0110291 -5.77779e-22)
(0.999925 -0.00883476 0)
(0.981796 -0.240167 0)
(1.06737 -0.0451726 -6.24114e-21)
(1.02795 -0.0391052 -3.09042e-21)
(1.10077 -0.03032 -8.21166e-21)
(1.02156 -0.0024397 1.7193e-23)
(1.10435 0.0567716 -1.21345e-20)
(1.01393 -0.000665169 -3.42559e-22)
(1.06533 0.000658442 -7.85015e-21)
(1.04743 -0.0432922 3.28968e-21)
(0.138886 -0.056857 0)
(1.00102 -0.00462615 -7.75595e-22)
(-0.0872111 -0.0305368 6.2854e-20)
(1.06594 -0.00459053 5.05279e-21)
(0.999873 -0.0150112 -3.13198e-21)
(1.01193 -0.0076242 -1.09244e-21)
(0.983332 -0.0358054 -6.97422e-21)
(1.03775 -0.193511 -9.61808e-21)
(1.06485 -0.0489115 -6.12772e-21)
(1.1129 0.0618805 4.6397e-21)
(1.00027 -0.00294411 0)
(1.07229 0.0154755 -4.99022e-21)
(1.07637 0.0105679 0)
(1.2301 0.000343402 -9.35235e-21)
(1.02196 -0.00221757 0)
(1.10394 0.0605405 1.8079e-23)
(-0.0748719 0.0118853 2.25394e-20)
(1.10312 0.0565808 -2.34269e-21)
(1.00464 -0.010902 -1.50828e-23)
(1.18575 0.0387599 -2.75033e-20)
(1.06789 -0.105767 2.84992e-21)
(-0.204364 -0.00778604 -5.8707e-20)
(1.12267 -0.13758 1.36311e-20)
(0.58845 -0.0274017 9.23961e-20)
(1.12128 -0.135459 9.86992e-21)
(1.00205 -0.0104269 3.06109e-21)
(1.19315 -0.198482 0)
(1.07895 -0.394996 6.68618e-21)
(1.12721 0.015925 0)
(1.01674 -0.0245915 -3.62199e-22)
(1.17709 -0.07362 -1.87702e-20)
(-0.0939858 -0.0237881 -3.69864e-20)
(1.10662 0.0566166 1.19824e-21)
(0.977271 -0.0711957 -1.88987e-20)
(0.702086 -0.665577 5.99489e-21)
(0.280895 0.048653 -1.33253e-20)
(1.02485 -0.0887979 1.54749e-21)
(0.0915831 0.0299045 -2.58896e-21)
(1.09107 -0.140274 0)
(1.06612 -0.00521387 1.03922e-20)
(1.19486 0.0342796 -3.33137e-21)
(0.945579 -0.035565 0)
(1.03854 -0.00790629 6.08492e-21)
(1.01529 -0.000117557 0)
(1.0011 -0.00552002 1.28086e-21)
(1.12844 0.0763243 -1.08307e-20)
(0.100873 -0.0345773 -5.60922e-20)
(1.02191 -0.00233668 -1.78248e-23)
(1.07176 0.0156654 5.01597e-21)
(1.11493 0.0629505 2.33132e-20)
(1.11396 -0.0728166 -1.17034e-20)
(1.02628 -0.0432446 -7.92736e-22)
(-0.198126 -0.007782 6.34741e-20)
(0.995931 -0.0129567 9.63432e-22)
(0.984018 -0.038099 -3.67397e-21)
(1.14741 -0.20637 -1.96569e-20)
(1.06206 -0.0859164 -1.04204e-20)
(1.13664 -0.0345889 2.06833e-21)
(0.431043 0.0343563 0)
(1.22347 -0.352074 -8.60751e-20)
(1.13302 0.0449181 1.49127e-20)
(1.02187 -0.0691365 2.6263e-22)
(1.04678 -0.0427462 -6.68726e-21)
(1.12673 -0.259892 -2.29727e-20)
(0.468885 0.082993 0)
(1.22954 -0.00758512 0)
(1.10562 0.0588125 1.67354e-20)
(1.06344 -0.0653617 0)
(1.07122 0.0169447 -9.04053e-21)
(1.10343 0.0530819 0)
(1.01198 -0.00743884 1.93947e-24)
(1.07915 -0.0119027 -9.47848e-21)
(1.05844 -0.0694135 -8.86954e-21)
(1.15055 0.0325987 7.7569e-21)
(1.08112 -0.115136 1.28606e-20)
(0.986646 -0.0844894 -2.65256e-21)
(1.03979 -0.0287146 -1.73252e-21)
(-0.0184613 0.0281802 0)
(0.999872 -0.00156602 3.48078e-21)
(1.00184 -0.0253466 0)
(1.10828 0.0548411 -1.40323e-20)
(1.00002 -0.000516058 1.74443e-21)
(-0.00448573 0.039119 -1.72829e-20)
(1.06586 -0.138751 -5.25874e-21)
(0.999994 -0.000380542 -1.35747e-21)
(1.13929 -0.0228511 -1.91799e-20)
(1.06433 0.00134887 -1.11753e-20)
(0.712543 0.0526482 0)
(1.23143 -0.1456 -7.32765e-20)
(1.00443 -0.00817342 -7.73474e-22)
(0.892954 -0.341212 -9.63757e-21)
(1.10807 0.0550203 1.71311e-20)
(1.14427 -0.0170155 0)
(1.1133 -0.0743675 6.90803e-21)
(1.13047 0.0101286 2.40859e-21)
(0.0866151 0.0228231 -4.69978e-21)
(1.13882 -0.198776 8.61835e-21)
(0.999991 -0.00564297 8.90815e-22)
(1.00291 -0.00869588 -9.71474e-22)
(1.23057 -0.149132 -7.77674e-20)
(0.409209 0.0418907 0)
(1.0859 -0.000643228 0)
(0.991531 -0.0523844 -3.1891e-21)
(0.973013 -0.0122603 -2.68909e-22)
(-0.194917 -0.00247262 1.39484e-22)
(0.968363 -0.0236064 -1.12409e-20)
(-0.111816 -0.0167849 0)
(0.999067 -0.00614963 0)
(1.15103 -0.0705915 -2.52678e-20)
(1.1063 -0.0910015 -1.29168e-20)
(-0.170722 -0.0143483 0)
(1.11688 0.0341022 0)
(1.06502 -0.103643 -4.7048e-21)
(1.14828 -0.0713097 -3.46518e-20)
(1 -0.000301219 1.28566e-21)
(1.15464 0.0750405 8.47213e-21)
(1.03492 0.000988584 -2.73736e-21)
(1.00985 -0.00736068 -7.32447e-22)
(0.342046 0.0626232 -1.34377e-20)
(1.01252 -0.0328216 7.53753e-22)
(1.05749 0.00779689 0)
(1.1313 0.00777434 1.06684e-20)
(1.0897 0.00694353 1.16584e-20)
(1.02376 -0.017507 -3.67306e-21)
(1.00092 -0.0161972 9.54121e-23)
(1.02858 -0.260723 0)
(-0.0458298 0.033276 0)
(1.13629 -0.154998 -1.30928e-20)
(1.10074 0.00510666 0)
(0.747573 0.0556933 4.86276e-21)
(1.0757 0.0104411 -4.44063e-21)
(1.23035 -0.143098 7.21986e-20)
(1.03189 -0.0122436 -3.0419e-23)
(1.0008 -0.0164412 0)
(1.1769 -0.0679775 1.84982e-20)
(0.109886 0.0519851 0)
(1.13018 0.0745014 0)
(0.977175 -0.0378212 0)
(0.660522 0.0605923 2.98337e-20)
(1.07192 -0.0548807 -8.08981e-21)
(1.01172 -0.000633863 0)
(0.244306 0.0682992 1.03946e-20)
(1.0272 -0.0901227 0)
(1.011 -0.0384217 1.18699e-21)
(1.05015 -0.0415456 -3.40502e-21)
(1.13528 -0.0255035 -8.67474e-21)
(0.489068 0.0842832 -6.04485e-21)
(1.14205 -0.00641927 0)
(1.18232 -0.00603346 -2.0065e-20)
(1.07099 0.0180533 8.10011e-21)
(1.09991 0.00450022 0)
(1.10382 0.0530397 -2.69852e-21)
(0.967442 -0.0210361 5.70276e-21)
(0.948151 -0.033936 -1.491e-20)
(1.14054 -0.00632681 -2.00592e-20)
(1.05549 -0.0995707 3.76334e-21)
(1.19709 -0.0912199 -7.86962e-20)
(1.11188 0.0548781 0)
(1.10738 -0.16408 -8.0356e-21)
(1.07945 -0.0112805 9.15161e-21)
(1.02886 -0.0107008 -1.9076e-21)
(1.08524 -0.0011252 0)
(1.13036 0.00828458 -9.41547e-21)
(1.18945 -0.198647 0)
(0.983176 -0.044593 -4.86885e-21)
(1.02583 -0.0897751 -1.931e-21)
(1.01768 -0.00663593 0)
(1.07048 0.0183446 8.9885e-21)
(1.09912 -0.234189 3.75661e-21)
(1.2351 0.0312387 -2.63213e-20)
(1.24807 -0.0071108 0)
(1.00198 -0.00235241 0)
(1.05991 -0.0456222 -1.04911e-20)
(1.11321 0.0612985 -1.3434e-20)
(1.01837 -0.0588192 0)
(0.997522 -0.00661598 3.29099e-21)
(0.996355 -0.0121764 -3.9641e-21)
(0.788624 -0.159088 0)
(1.08053 -0.00584484 -2.30292e-21)
(-0.0940239 -0.0258073 -3.82069e-20)
(0.986015 -0.0367168 8.82099e-22)
(0.111618 0.0251881 0)
(1.21833 -0.354724 3.2711e-20)
(1.00005 -0.0149026 0)
(0.605496 0.0891779 2.95303e-20)
(-0.0364845 0.0339289 0)
(1.11612 0.0336632 -1.60448e-20)
(0.995659 -0.00624161 0)
(1.14494 0.0273253 1.32817e-20)
(1.10541 0.0589292 -1.18676e-20)
(0.420384 0.0425947 2.72464e-21)
(1.10053 -0.0431742 0)
(1.04772 -0.141753 7.70071e-21)
(0.696006 -0.26735 2.22778e-20)
(0.967604 -0.0617099 3.49233e-21)
(0.972557 -0.036769 -9.55117e-21)
(0.978021 -0.0373837 0)
(0.0168716 0.041363 -3.23949e-20)
(1.03644 -0.0156414 2.71456e-21)
(-0.0316771 0.0249759 0)
(0.996355 -0.0131443 5.69508e-21)
(1.02531 -0.00364607 2.26323e-21)
(1.00994 -0.0109972 -8.4671e-23)
(1.08859 0.035173 8.69386e-21)
(1.03139 -0.000159402 0)
(0.5568 0.0561935 0)
(1.25672 -0.402492 0)
(0.999941 -0.00577345 -1.33363e-21)
(-0.209262 -0.00249406 0)
(1.0444 -0.0346157 -1.10028e-21)
(1.02611 -0.00453575 0)
(1.02345 -0.00709113 -1.9064e-21)
(0.971047 -0.0142642 -9.82995e-21)
(1.10496 0.0523705 -1.25116e-20)
(0.984029 -0.0446988 1.08561e-21)
(1.08905 0.0212717 -9.70329e-21)
(1.22805 -0.149627 7.06218e-20)
(0.0859707 -0.0492654 6.76917e-20)
(-0.123918 0.00547935 0)
(1.00002 -5.16361e-05 0)
(1.08945 0.0209169 -8.54939e-21)
(1.03298 -0.0148499 0)
(1.07401 -0.0180627 0)
(1.09426 0.0307445 -1.07356e-20)
(-0.130428 0.0214789 3.42159e-20)
(-0.208822 -0.00433071 3.97645e-20)
(1.0584 0.057874 9.14996e-21)
(1.2406 -0.100945 7.87349e-20)
(1.02379 -0.0171169 4.51842e-21)
(1.02567 0.000390626 -1.72519e-21)
(0.984733 -0.0359064 7.70546e-21)
(1.03771 -0.0150448 3.83642e-23)
(1.14818 0.034587 1.45036e-20)
(0.986072 -0.00626172 2.75415e-21)
(0.994751 -0.0055742 0)
(0.972272 -0.0124445 2.50267e-22)
(1.03113 -0.00513918 8.10472e-21)
(1.07756 0.0100296 -4.53668e-21)
(1.07071 0.0089689 0)
(1.01481 -0.0215262 -5.76075e-22)
(0.675601 0.0911992 1.10313e-20)
(0.990377 -0.0474637 0)
(0.999487 -0.00209733 -4.63293e-22)
(1.03105 -0.00543832 -1.88265e-21)
(0.98715 -0.0137106 -5.80251e-21)
(1.15878 0.0605698 -3.06163e-20)
(0.831149 0.0760691 0)
(1.14945 -0.0694903 0)
(1.09778 -0.172581 2.86083e-20)
(0.875873 -0.023723 0)
(0.10961 0.0217337 -5.82873e-23)
(-0.145205 -0.0201376 0)
(0.410451 0.0488777 2.11142e-20)
(1.03372 -0.0533183 3.20693e-21)
(1.00731 -0.00884365 -4.0441e-23)
(0.0720531 0.0233524 4.88296e-21)
(0.73646 -0.232391 0)
(1.00556 -0.017358 0)
(1.03371 0.0574806 0)
(1.0006 -0.0122334 0)
(1.03107 -0.0539136 3.86536e-22)
(1.01096 -0.00381866 0)
(0.417384 -0.13178 2.17112e-22)
(0.883592 -0.338008 6.34505e-21)
(1.0212 -0.0467723 9.43165e-23)
(1.23391 -0.140135 0)
(1.00987 -0.0315967 6.77759e-22)
(0.944319 -0.0362246 1.0183e-20)
(0.678663 0.0909915 -2.0898e-20)
(1.08273 -0.0042266 -1.18023e-21)
(1.04512 -0.0350755 7.38846e-21)
(-0.0460826 0.0246005 -2.0854e-20)
(1.03279 0.000743059 -7.89909e-21)
(1.0714 0.0106549 8.44865e-21)
(1.08384 -0.0290502 0)
(1.0621 -0.0648276 -3.50912e-21)
(0.934821 -0.219531 1.23407e-20)
(0.675338 -0.862569 -4.99857e-21)
(1.03217 -0.0161189 -2.28955e-21)
(1.01449 -0.0213305 3.99952e-22)
(1.04899 -0.016454 0)
(0.997663 -0.274671 5.02824e-20)
(1.10025 0.0549554 -3.1846e-22)
(1.02788 -0.0629095 2.30787e-21)
(1.0115 -0.00422655 -1.73747e-21)
(1.28277 -0.205208 -2.81619e-20)
(1.02567 0.000202042 -5.90661e-22)
(1.14318 -0.0111984 -1.21173e-20)
(0.986449 -0.00634494 0)
(1.03875 -0.00426998 5.68917e-21)
(1.04949 -0.0167147 0)
(1.00298 -0.00163923 4.12378e-22)
(0.980709 -0.0329758 -7.07165e-21)
(0.995476 -0.0064935 -3.82752e-21)
(1.03761 -0.00864005 -2.97709e-21)
(1.06944 -0.0294968 -3.26201e-21)
(1.24104 -0.0814984 -1.95025e-20)
(0.986132 -0.00535791 0)
(1.18083 0.0368592 -6.21974e-21)
(1.0143 -0.0658194 -3.50218e-22)
(-0.209073 0.00825941 0)
(1.04981 -0.01221 -4.95092e-21)
(1.29485 -0.0346878 -6.50519e-20)
(1.00003 -0.00182007 0)
(0.856084 0.072997 0)
(1.00002 -0.000195727 -1.2259e-21)
(0.987296 -0.0242138 3.09504e-22)
(1.09563 0.0599514 9.20291e-21)
(1.14513 -0.0222842 1.98147e-20)
(0.319074 0.0604995 -8.99369e-21)
(1.03142 -0.258845 -4.75336e-21)
(1.03528 -0.189093 0)
(0.963854 -0.0250329 -1.9194e-20)
(1.10624 0.0517796 0)
(1.0386 -0.0139631 3.31412e-21)
(0.103943 0.0241514 -2.50102e-21)
(1.09467 -0.0112739 0)
(1.04403 -0.0572084 3.78884e-21)
(0.361387 0.0402237 4.49081e-21)
(1.0216 -0.0473986 2.7119e-22)
(1.24281 -0.0799039 -1.10438e-20)
(1.2332 -0.137736 0)
(1.07093 0.0101465 -8.10976e-23)
(1.10923 0.0553503 -7.27325e-21)
(1.12719 0.0762986 1.20107e-20)
(0.999229 -0.0187305 0)
(0.823878 -0.445016 9.09786e-21)
(1.00194 -0.00656858 0)
(1.08669 -0.0294906 5.69063e-21)
(0.992515 -0.0052668 -4.2369e-21)
(1.08342 -0.00360185 -8.47989e-21)
(0.873914 -0.21033 0)
(1.03862 -0.00454972 0)
(1.07887 0.00422415 0)
(1.00001 -0.000726066 -3.30996e-21)
(1.28489 -0.185432 -8.81152e-21)
(1.17778 -0.0721023 2.12618e-20)
(1.08296 -0.00512469 1.268e-21)
(1.09644 -0.0803947 -1.10516e-20)
(1.0798 0.00411362 0)
(0.999837 -0.00175409 1.75933e-21)
(0.826165 0.0650269 0)
(1.20969 -0.177515 0)
(0.950405 -0.379594 6.00322e-22)
(1.10418 0.0569947 4.5625e-23)
(-0.0379856 0.0260488 3.50403e-20)
(1.15406 0.0646617 0)
(1.04778 -0.0302399 -2.66155e-21)
(-0.200641 0.00919862 0)
(1.07117 -0.0559061 -7.94508e-21)
(1.00341 -0.000564084 0)
(-0.138762 0.0201896 -3.17428e-20)
(1.29166 -0.0320774 7.64895e-20)
(1.00001 -0.00101758 -1.02016e-21)
(1.14643 -0.469001 3.00361e-20)
(0.774482 0.0531148 -2.43147e-21)
(1.1666 -0.274129 -2.38162e-20)
(1.04294 -0.0345007 -4.59627e-21)
(-0.166656 -0.0131712 3.59446e-20)
(1.12533 0.0473704 0)
(0.757687 0.0532642 0)
(1.12288 -0.048768 -5.76938e-21)
(1.00175 -0.0266981 -2.80617e-21)
(0.324864 -0.0422016 3.01005e-20)
(0.760254 -0.416273 -2.70114e-20)
(1.10814 0.0569722 0)
(1.00542 -0.0676331 2.80121e-21)
(1.00005 -0.000961821 5.58507e-23)
(1.07682 0.00980716 4.46582e-21)
(0.994207 -0.768534 3.84525e-20)
(1.06405 -0.0303217 -5.58289e-21)
(0.984888 -0.78261 -4.05727e-20)
(1.15871 0.0576217 0)
(1.04421 -0.0429705 -3.20786e-21)
(1.10986 0.00979794 -9.15133e-21)
(0.288133 0.0201213 0)
(0.845462 0.0923323 0)
(0.997581 -0.154961 9.79866e-23)
(-0.156951 -0.0155462 -4.12269e-20)
(0.945471 -0.0336531 4.97647e-21)
(1.1745 -0.357738 0)
(0.100017 0.0509081 6.31745e-21)
(0.986771 -0.00711522 0)
(0.916071 -0.293498 -5.16477e-20)
(0.973279 -0.0744187 -1.85504e-21)
(1.00543 -0.0453374 -1.58866e-21)
(0.450138 0.0326138 8.75802e-21)
(0.943065 -0.0389695 -1.13736e-20)
(1.1615 0.0592484 0)
(1.00312 -0.240147 0)
(1.07998 0.00333632 -9.31813e-21)
(1.00081 -0.0158629 -3.0016e-21)
(1.15574 -0.361498 2.03605e-20)
(0.770174 -0.426759 2.99809e-20)
(1.06347 0.00211977 -1.26663e-20)
(0.995523 -0.0129602 -2.98114e-22)
(0.0773705 0.024399 -2.54023e-21)
(1.01459 -0.000545685 0)
(1.09131 -0.348689 -5.06873e-20)
(1.0811 -0.112963 5.86864e-21)
(1.10725 0.0568021 0)
(1.0383 -0.0142483 0)
(1.04362 -0.0350394 5.99071e-21)
(0.236155 -0.0893833 0)
(1.17598 0.00908784 0)
(1.25814 -0.0270496 0)
(0.0965383 0.018884 0)
(1.14401 -0.0121057 0)
(-0.194889 -0.00457162 0)
(1.15832 -0.135266 0)
(0.949367 -0.0329902 -4.62312e-21)
(0.0828652 0.0258542 0)
(1.07417 -0.0171939 6.6133e-21)
(0.998939 -0.00649572 0)
(1.23376 0.0326196 5.79519e-21)
(1.22297 -0.201535 -1.78177e-20)
(1.06025 0.0122092 4.56174e-21)
(0.98165 -0.0189965 7.84704e-21)
(1.03319 0.000917679 3.90481e-21)
(1.00377 -0.0077314 -6.2992e-22)
(1.00195 -0.00647105 7.43006e-22)
(1.13203 0.0447861 0)
(0.0370065 0.0444939 -2.54433e-20)
(0.898796 0.0966407 1.00679e-20)
(1.00531 -0.00974654 0)
(1.08246 0.0189395 0)
(0.981273 -0.0641185 -7.97519e-21)
(1.1069 0.0576994 0)
(1.00362 -0.00762416 0)
(0.154447 0.0448175 0)
(-0.208566 -0.00719373 -4.55572e-21)
(-0.202863 0.012031 0)
(1.17958 -0.355413 0)
(1.07477 -0.100079 -3.1927e-21)
(1.00832 -0.0227304 1.46501e-22)
(0.0463504 0.0454575 1.20936e-20)
(1.00984 -0.0321305 0)
(1.01664 -0.0590708 -2.80823e-23)
(1.01581 -0.058548 4.53832e-23)
(1.05256 -0.0297426 3.39995e-21)
(1.00922 -0.168589 7.12967e-24)
(1.09689 -0.0692081 -1.84092e-20)
(0.953676 -0.0181346 -7.55004e-21)
(0.953153 -0.0131131 0)
(1.00177 -0.00906127 0)
(0.967753 -0.0366489 0)
(0.995475 -0.0127384 0)
(1.00533 -0.0167168 0)
(0.886742 -0.368748 0)
(1.18282 -0.131213 -5.08078e-20)
(0.995715 -0.0131083 -5.83608e-22)
(0.990563 -0.0263689 0)
(-0.201524 -0.00729629 8.25875e-21)
(0.330712 -0.0442349 0)
(1.08556 -0.0293564 1.79614e-20)
(1.15825 -0.488515 6.5918e-20)
(1.09397 0.0319306 0)
(1.01226 -0.211571 2.72978e-21)
(1.19435 0.0363177 0)
(1.02213 -0.0199147 -1.85719e-21)
(1.01195 -0.0324992 -9.96147e-23)
(1.00165 -0.00858518 1.17685e-21)
(1.01037 -0.0313814 -3.68215e-23)
(1.05072 -0.0347914 0)
(0.704629 -0.259056 1.87876e-20)
(1.00481 -0.012073 -8.67637e-22)
(1.02005 -0.00917803 -1.55159e-21)
(1.00553 -0.0139486 2.30884e-23)
(1.00219 -0.0102281 -3.12313e-21)
(-0.195912 0.012785 0)
(1.03693 -0.187741 0)
(1.02545 -0.00606161 1.35693e-21)
(1.07466 -0.0195241 7.06024e-21)
(1.00108 -0.0053602 -2.50645e-21)
(1.14849 -0.0661212 -6.27412e-21)
(1.02339 -0.00831713 0)
(1.12084 -0.0697824 9.7356e-21)
(1.12977 0.0796449 1.3647e-20)
(1.03832 -0.0133904 -5.58133e-21)
(0.832611 0.0922146 1.07899e-20)
(1.10422 0.0564941 -1.23845e-21)
(1.18252 0.0435244 0)
(1.1455 -0.0160216 0)
(-0.0753922 0.0237393 3.92841e-20)
(-0.0374311 0.022447 2.37835e-20)
(0.987029 -0.0131971 0)
(0.998056 -0.017789 -3.49258e-21)
(0.954034 -0.0172265 8.80499e-21)
(0.753748 0.0525201 0)
(1.11075 0.050216 -1.12399e-20)
(0.999005 -0.0794027 0)
(-0.0772219 -0.0313026 0)
(1.22149 -0.348698 0)
(1.03318 0.00120867 0)
(1.01575 -0.0212906 0)
(0.967164 -0.0374985 -9.22206e-21)
(0.794803 -0.154504 0)
(1.0705 -0.0671457 0)
(1.00252 -0.00778225 0)
(1.004 -0.00783527 0)
(1.00102 -0.0243844 -2.56217e-22)
(1.01826 -0.0258226 4.86293e-22)
(0.219533 0.0149762 0)
(1.1689 -0.343592 -1.98638e-20)
(1.00492 -0.044725 3.90762e-21)
(1.10397 -0.314639 -4.4503e-20)
(0.57428 0.0459667 0)
(0.999279 -0.00166966 -4.80211e-21)
(1.0132 -0.0311195 0)
(1.01714 -0.0699509 3.97958e-23)
(1.12096 -0.0527064 0)
(0.212639 0.0155072 0)
(1.31507 -0.253581 -3.67132e-20)
(0.16377 0.0457137 0)
(1.10926 0.0423739 0)
(1.16437 -0.269442 7.15515e-21)
(1.16956 -0.491726 -7.41323e-20)
(1.10805 0.0572491 -5.75765e-21)
(-0.243271 -0.00479425 9.87117e-21)
(1.07488 -0.0186587 7.38337e-21)
(1.10583 0.0295525 0)
(1.08442 -0.00394384 8.71188e-21)
(1.07523 0.0112096 1.32612e-20)
(-0.128085 0.021508 0)
(1.0348 -0.0164382 0)
(-0.0924559 -0.0290047 0)
(1.10705 0.0570934 -1.70717e-20)
(1.04958 0.00692219 -6.51813e-21)
(0.98727 -0.240413 -3.79572e-22)
(1.03539 -0.016648 -2.52547e-21)
(0.166626 0.0598873 2.45484e-20)
(1.00572 -0.0668979 0)
(1.20773 -0.246294 -6.34283e-20)
(1.10675 0.0566198 -3.73335e-21)
(1.02759 -0.0113105 -4.0542e-21)
(0.611922 -0.0267805 -1.24807e-20)
(1.02026 -0.0189444 4.78554e-23)
(1.00002 -0.000689413 2.13616e-21)
(0.569562 -0.0233376 1.19329e-20)
(1.05973 -0.0674952 -3.60614e-21)