/*--------------------------------*- C++ -*----------------------------------*\
| =========                 |                                                 |
| \\      /  F ield         | OpenFOAM: The Open Source CFD Toolbox           |
|  \\    /   O peration     | Version:  v2012                                 |
|   \\  /    A nd           | Website:  www.openfoam.com                      |
|    \\/     M anipulation  |                                                 |
\*---------------------------------------------------------------------------*/
FoamFile
{
    version     2.0;
    format      ascii;
    class       volVectorField;
    location    "200";
    object      U_0;
}
// * * * * * * * * * * * * * * * * * * * * * * * * * * * * * * * * * * * * * //

dimensions      [0 1 -1 0 0 0 0];


internalField   nonuniform List<vector> 
53008
(
(1.09702 -0.0458498 -1.44052e-20)
(1.28978 -0.0177359 3.53125e-20)
(0.964423 -0.0681176 -8.60127e-21)
(1.17633 -0.342313 2.22114e-20)
(0.0175343 -0.0261367 3.73932e-20)
(-0.142856 0.0199369 -5.37788e-21)
(1.11087 -0.196183 5.07897e-21)
(1.09617 -0.0446208 1.55237e-20)
(1.01499 -0.174554 3.59513e-22)
(0.987431 -0.0518137 -7.49386e-22)
(1.12468 0.0479193 3.55341e-21)
(1.08662 -0.25583 -1.3233e-20)
(0.448397 0.0334459 -5.4902e-21)
(1.03388 0.0748253 3.29679e-21)
(0.988192 -0.0459846 0)
(1.03074 -0.0128213 3.59423e-21)
(1.08109 -0.00933745 -8.12835e-21)
(1.03099 -0.0131601 -5.97318e-21)
(0.471103 0.0694027 0)
(1.07792 0.00834747 8.15372e-21)
(1.07446 -0.0155115 6.75965e-21)
(0.851261 -0.197467 -6.38572e-21)
(1.00163 -0.00920413 -1.4762e-21)
(1.10734 -0.194233 0)
(1.06967 -0.0178426 -5.82275e-21)
(1.19965 -0.422276 -1.5917e-20)
(1.0458 0.074336 0)
(1.13853 -0.037156 -2.33243e-21)
(1.12896 0.0784997 -1.09534e-20)
(1.15281 0.0763523 -3.1892e-20)
(1.10631 0.0612224 -9.14621e-21)
(0.985325 0.0571135 0)
(-0.00547269 0.0199535 0)
(1.03735 -0.0536572 4.25846e-21)
(1.00283 -0.00162531 -4.1882e-22)
(0.951381 -0.156716 -5.04862e-21)
(1.018 -0.0926335 -2.37069e-22)
(1.00003 -0.000125001 -9.79396e-23)
(1.13149 -0.186873 -8.17217e-21)
(1.04282 -0.0584892 0)
(1.01856 -0.0908998 5.90501e-22)
(0.820452 0.0968611 -1.89149e-20)
(1.12193 0.048699 -1.31933e-20)
(0.193327 0.0572586 0)
(1.07848 0.00892074 -4.23606e-21)
(1.03829 -0.015169 -3.05915e-21)
(1.03787 -0.00616477 -5.65819e-21)
(1.06425 0.00189374 4.54941e-21)
(1.15785 0.0561492 1.17847e-20)
(1.00617 -0.010381 -1.81802e-22)
(1.01709 -1.14943e-06 0)
(0.886359 -0.0614635 -2.2392e-20)
(1.08804 -0.0280171 -1.71653e-20)
(0.999936 -0.00911871 -2.10725e-21)
(1.10132 0.0369138 0)
(0.445859 0.0669061 3.50147e-21)
(1.07768 0.00700814 0)
(1.00413 -0.00776922 5.20253e-22)
(1.10689 0.0607358 -4.53049e-21)
(1.1126 0.0232423 -1.78051e-20)
(1.05017 -0.035331 -6.83666e-21)
(1.06434 -0.101848 8.99106e-21)
(0.676873 -0.0431761 5.98832e-20)
(0.266787 0.0110262 -1.7795e-20)
(1.07773 -0.402739 6.47898e-21)
(0.998506 -0.0253118 2.402e-21)
(1.15341 0.0750921 3.83638e-20)
(1.0373 -0.00619063 2.30908e-21)
(1.01191 -0.000735345 -1.05145e-21)
(1.03598 -0.0181476 -2.54013e-21)
(0.389194 -0.127411 3.3669e-20)
(1.01538 -0.00312676 1.18144e-21)
(0.968734 -0.0141601 0)
(0.00816137 0.0231575 0)
(1.19776 -0.430223 4.75579e-21)
(1.00274 -0.000277253 0)
(0.999984 -0.000685378 0)
(-0.135113 0.020939 -9.94445e-21)
(1.02843 -0.0105723 0)
(0.267231 -0.0943932 0)
(-0.141683 0.01993 4.0783e-21)
(0.580213 0.043053 0)
(1.10959 0.0555385 -5.71464e-21)
(1.15383 -0.375132 1.77674e-20)
(1.08884 -0.128185 -1.12096e-20)
(1.03621 -0.0186196 -2.60352e-21)
(0.836141 -0.350409 -2.22571e-20)
(1.01394 -0.172222 0)
(0.998561 -0.0257086 -5.19974e-21)
(1.09427 0.0325204 1.01595e-20)
(0.189309 -0.0665395 -8.88145e-21)
(0.0715053 0.0234168 -4.23042e-20)
(0.580328 0.0437119 0)
(1.18206 -0.00777973 1.51897e-20)
(0.84149 0.0425979 -3.02445e-20)
(1.11523 0.0532412 -2.19202e-20)
(0.595841 0.058415 3.03322e-21)
(0.964982 -0.0666854 7.86491e-21)
(1.00923 -0.0299124 -3.60821e-20)
(0.728858 -0.0533245 -4.17072e-20)
(1.07828 0.00760239 0)
(1.04286 -0.0575063 -2.75442e-21)
(1.18384 0.0226449 -1.59954e-22)
(1.13828 -0.035561 2.07205e-21)
(1.10001 -0.0442627 0)
(0.113404 -0.00130564 1.28917e-20)
(-0.0695815 -0.00453353 -2.83236e-20)
(0.950555 -0.15434 -9.42124e-21)
(1.13593 0.0438428 -9.84894e-21)
(1.01546 -0.00296567 -1.31137e-21)
(1.21321 -0.258777 -5.48785e-21)
(1.09897 -0.287572 0)
(0.999983 -0.000640802 0)
(0.783221 0.0433712 -2.65104e-20)
(0.728239 0.0648974 0)
(1.01559 -6.65358e-05 2.02575e-21)
(1.07641 -0.00516991 -8.01234e-21)
(1.01979 -0.00986718 -1.47459e-21)
(1.06539 0.0618907 0)
(0.152389 -0.0596511 -6.80817e-20)
(0.0280816 -0.0273076 3.20932e-20)
(0.969542 -0.0139782 -4.42743e-21)
(1.02589 -0.0644223 1.36263e-21)
(0.791925 -0.994962 -4.39301e-20)
(-0.132983 0.0216962 -9.81485e-21)
(0.98682 -0.0140783 -6.74383e-21)
(0.169403 -0.0701667 3.40242e-20)
(1.14628 0.06625 -4.63937e-20)
(1.10655 0.0160391 1.46593e-20)
(0.986679 -0.0370744 6.67337e-21)
(1.01165 0.0575864 0)
(1.02462 -0.038025 -5.92769e-22)
(1.14714 -0.380563 -2.45096e-20)
(1.06742 -0.0548789 2.8794e-21)
(1.02154 -0.00921118 -1.03029e-21)
(1.10715 0.0608952 2.35729e-21)
(0.997922 -0.00221157 -4.90066e-21)
(0.449629 0.0323952 0)
(1.01188 -0.0318845 3.96235e-22)
(1.01726 -0.0247192 7.09319e-22)
(1.02816 -0.0139037 0)
(1.01656 -0.0241474 0)
(1.09028 -0.138421 8.23884e-21)
(1.10857 0.0645104 -3.21188e-21)
(1.1072 0.0167949 -1.07533e-20)
(0.978667 -0.0705382 8.44044e-21)
(1.07553 -0.00505332 1.00033e-20)
(1.0032 -0.00698582 5.69965e-22)
(1.0345 0.000865977 2.23301e-21)
(1.04511 -0.0425938 2.48141e-21)
(1.00032 -0.00313016 1.02816e-21)
(0.683467 -0.0463502 0)
(-0.00932275 -0.0233925 -3.959e-20)
(0.853393 -0.20255 -1.40513e-20)
(1.00932 -0.00970424 0)
(1.08701 -0.0280901 5.82543e-21)
(0.799045 0.0830308 -2.97585e-21)
(0.253664 0.0689999 -1.02586e-20)
(1.05884 -0.0450953 9.1554e-21)
(1.28237 -0.188 0)
(1.17717 -0.0793897 1.84437e-20)
(1.00594 -0.0102204 -5.4312e-22)
(1.00971 -0.010961 1.50137e-22)
(0.0837349 0.0257108 4.01492e-20)
(1.07053 -0.0318588 -6.43033e-21)
(1.00001 -0.000116278 -1.97205e-23)
(1.00729 -0.0227503 0)
(1.07766 -0.0825642 -1.28436e-20)
(1.00488 -0.0109009 0)
(0.946801 -0.0329997 9.18948e-21)
(1.09494 -0.0818687 1.27119e-20)
(0.561405 0.0459986 2.66285e-21)
(0.730714 0.0345723 8.9372e-21)
(1.00534 -0.0164153 0)
(0.843129 -0.982635 4.73583e-20)
(1.03193 -0.0157 2.82221e-21)
(1.09076 -0.127324 0)
(1.11504 0.0525913 6.08184e-21)
(0.836676 -0.342644 1.44285e-20)
(1.03572 -0.196489 2.76564e-21)
(1.02629 -0.0636375 -1.12738e-21)
(1.06976 -0.0311819 5.51567e-21)
(0.198335 0.0573125 2.8781e-20)
(0.989978 -0.0531314 9.91102e-21)
(1.08707 -0.25161 0)
(0.277866 0.0125661 0)
(0.648198 -0.0345349 -9.98143e-21)
(0.719793 0.0334976 -3.63544e-20)
(-0.0790645 -0.00698411 0)
(1.00318 -0.00687782 0)
(0.980258 -0.243163 -7.23814e-21)
(1.03045 -0.0530748 0)
(0.931789 -0.39452 3.9987e-22)
(0.106178 -0.0493216 8.91161e-20)
(0.995109 -0.0227196 0)
(1.05696 0.00755878 -4.20134e-21)
(1.09524 -0.0692548 1.56788e-20)
(1.00067 -0.0125103 0)
(1.00082 -0.0042693 0)
(0.905193 -0.0415641 2.34425e-20)
(1.18891 -0.0522087 0)
(1.02555 -0.0432231 2.42302e-21)
(1.09946 -0.030279 1.21778e-22)
(1.01334 -0.031686 1.25296e-23)
(1.1297 0.0561232 0)
(0.114494 0.0191876 1.86314e-20)
(1.07991 -0.00721913 -8.69846e-21)
(1.00102 -0.00496961 9.10094e-22)
(1.14879 -0.0919064 6.66595e-21)
(1.02072 -0.01015 2.80267e-21)
(-0.0489824 -0.00497871 -2.56179e-20)
(1.04404 -0.0561796 -3.42127e-21)
(1.16619 0.0850328 -2.90275e-20)
(0.960031 -0.0671545 2.10357e-21)
(1.1359 0.0429838 0)
(0.985977 -0.00447691 3.48785e-21)
(0.997528 -0.00269019 4.71329e-21)
(1.00175 -0.00925956 1.38304e-21)
(1.1757 -0.106439 -2.002e-20)
(0.990992 -0.0273159 0)
(1.11643 0.0639951 1.18394e-21)
(1.02616 -0.00559166 2.45546e-21)
(1.11073 0.0549765 3.0173e-20)
(1.02623 -0.00542985 -8.61904e-24)
(1.06605 -0.0448344 4.75568e-21)
(1.10765 0.05127 1.14438e-20)
(1.01465 -0.069535 0)
(1.10869 -0.166461 -2.45921e-21)
(1.06356 -0.138774 -6.94784e-21)
(1.02851 -0.0137963 0)
(0.212603 0.0146563 0)
(0.805967 0.0648332 0)
(1.03104 -0.00060376 -6.37088e-21)
(0.693123 0.0515013 0)
(1.17834 -0.0245624 0)
(0.111516 -0.00139983 -5.5004e-20)
(1.05868 0.00139548 8.58537e-21)
(1.02183 -0.00938601 0)
(-0.180855 -0.0120189 0)
(1.03163 -0.0119328 -2.25765e-21)
(1.02434 -0.0373472 1.21588e-21)
(1.03753 -0.052658 -7.34776e-21)
(1.23903 0.0306105 1.20841e-20)
(1.04582 -0.0431352 0)
(1.1006 -0.0270022 0)
(1.00004 -0.000780021 -8.91911e-22)
(1.21771 -0.165695 3.01855e-20)
(1.11609 0.0634299 0)
(0.992185 -0.00542718 -2.33379e-21)
(1.11164 0.022954 0)
(1.0668 -0.02558 5.29323e-21)
(0.970425 -0.0415043 5.73792e-21)
(1.01262 -0.0334099 -6.79653e-22)
(0.907626 -0.0408386 0)
(1.04358 -0.0422969 0)
(0.670055 -0.0401189 -9.30509e-21)
(1.10878 0.0640889 -1.1131e-20)
(1.04933 -0.0157769 5.70419e-21)
(1.17585 -0.108691 0)
(1.07861 0.00491879 0)
(1.19353 -0.485327 0)
(1.10708 0.061465 -1.29807e-20)
(1.0761 -0.0822917 1.10627e-20)
(1.01612 -3.86603e-05 2.75933e-21)
(0.999016 -0.0188888 2.00093e-23)
(1.05597 0.0785598 1.64734e-21)
(0.542247 0.0885296 1.04862e-20)
(1.00206 -0.0106753 -3.71391e-21)
(0.602799 -0.0307958 0)
(1.11067 0.0554559 -1.50539e-20)
(1.03203 0.0012413 -1.89625e-21)
(1.06632 -0.0545063 -7.692e-21)
(0.985317 -0.0354267 -1.23244e-20)
(1.23747 0.0323021 -3.50694e-20)
(0.113673 0.0243918 0)
(1.02225 -0.00206535 3.63051e-21)
(1.12891 0.0556962 2.31311e-21)
(0.260501 0.0459856 1.41927e-20)
(1.10104 0.0336582 1.15751e-20)
(1.05127 0.00400927 -8.44772e-21)
(1.00162 -0.0094129 0)
(1.00003 -0.000145886 0)
(1.1017 0.0333196 6.87608e-21)
(1.09506 -0.236987 5.62906e-22)
(0.973238 -0.0729424 1.68261e-21)
(1.12946 -0.189069 1.82359e-20)
(1.13569 -0.0558845 9.50679e-21)
(-0.204417 -0.00675729 0)
(1.09575 -0.241565 -1.33452e-20)
(0.990502 -0.0521881 -3.29495e-21)
(1.30762 -0.193682 -5.22228e-21)
(0.410081 0.0428192 -1.53997e-21)
(1.19608 -0.104446 1.05237e-20)
(0.75444 0.0554048 -9.29165e-21)
(0.857314 -0.34488 -1.45e-20)
(1.0029 -0.000295976 0)
(1.14158 -0.0189572 1.94018e-20)
(1.11336 0.0543391 -4.00863e-21)
(0.620623 -0.0340965 0)
(1.06387 0.000400302 4.55955e-21)
(1.19698 -0.10694 0)
(-0.0801585 -0.00817203 0)
(0.0344799 0.0435286 0)
(0.120776 0.0212619 -1.77062e-20)
(1.00006 -0.00188432 0)
(1.28372 -0.0190387 -1.72806e-20)
(0.976753 -0.0496959 -2.98588e-21)
(1.0488 -0.0154854 -5.87728e-21)
(1.0165 -6.68414e-05 -3.042e-21)
(1.18005 -0.132052 4.21155e-20)
(0.21899 0.0158231 1.909e-21)
(1.16926 0.0801611 0)
(1.04744 0.0772991 5.87022e-21)
(0.0974328 0.0248974 -2.83172e-21)
(1.14701 0.0352141 -1.50275e-20)
(1.14662 -0.092508 0)
(1 -5.86394e-06 0)
(0.999029 -0.0063458 -1.4405e-21)
(1.02223 -0.00220038 1.83456e-21)
(1.13774 -0.0219836 1.2918e-20)
(1.11364 0.0541029 0)
(0.798212 0.0934978 1.95833e-20)
(1.02831 -0.133505 3.21333e-21)
(0.105708 0.0266207 1.49734e-22)
(1.30508 -0.189155 -1.85009e-20)
(0.970211 -0.014588 9.00579e-21)
(0.800575 0.0830426 3.35647e-21)
(1.09123 0.000684225 0)
(1.00909 -0.00969643 0)
(1.1 -0.079856 9.55578e-21)
(0.125224 0.0285393 0)
(0.995139 -0.0223206 -3.05705e-21)
(1.00004 -0.000185073 0)
(1.01761 -0.0583605 0)
(1.01619 -0.010299 9.6889e-22)
(1.02577 -0.0061331 -2.38843e-21)
(0.935803 -0.387263 -1.21692e-21)
(1.01817 6.73238e-05 -2.18479e-21)
(0.606743 0.058672 -2.96259e-21)
(0.96811 -0.0602042 3.43247e-21)
(1.00003 -0.000183832 0)
(1.00451 -0.0107608 -3.67043e-22)
(1.17653 -0.0777129 0)
(1.02851 -0.0393704 3.59778e-21)
(0.987573 -0.0466701 -8.60058e-22)
(1.07505 0.0781298 2.98536e-21)
(1.11344 -0.195301 1.76881e-20)
(-0.139055 0.0212808 0)
(1.10742 0.0616389 1.98135e-20)
(-0.0161937 0.0239285 2.10303e-20)
(1.23183 -0.00105535 2.11129e-20)
(0.0782148 0.0272343 2.62414e-21)
(1.05815 0.000964243 0)
(0.995255 -0.00641028 0)
(-0.150589 -0.0194333 -2.62348e-20)
(0.590444 0.0558986 8.60825e-21)
(0.99734 -0.0169787 -2.66411e-21)
(1.00165 -0.0258 -1.61125e-21)
(1.17547 -0.479686 0)
(0.548754 0.0882489 2.01041e-20)
(0.977047 -0.00903478 8.4386e-22)
(1.13725 -0.0561467 1.36319e-20)
(1.04641 -0.0249951 -5.64634e-21)
(-0.10261 -0.02746 -8.9855e-20)
(1.18271 -0.0910038 1.08927e-21)
(0.412987 0.0327237 0)
(1.02162 -0.00231872 -1.55966e-21)
(1.11109 0.00689443 -1.39005e-21)
(1.06344 -0.0852971 4.42859e-21)
(0.993859 -0.0769266 0)
(0.630699 -0.0306271 -8.12756e-20)
(1.07071 0.0172555 -7.05275e-21)
(0.842303 -0.319079 0)
(1.11529 0.0634411 -2.14407e-20)
(1.18369 -0.089245 -1.34658e-21)
(1.08074 -0.00672907 2.28245e-21)
(1.13139 0.010584 -2.35402e-21)
(0.821623 -0.430506 -9.41552e-21)
(1.06716 0.0761929 0)
(0.107057 0.026449 0)
(1.01114 -0.000317833 -1.0371e-21)
(1.01225 -0.069614 5.02311e-23)
(1.10595 -0.0890904 1.07736e-20)
(1.07926 0.00557796 -1.18902e-21)
(0.596218 0.0887125 -3.56303e-20)
(1.01229 -0.0124289 0)
(1.07459 -0.0147576 7.14758e-21)
(0.421062 0.0439083 2.73043e-21)
(0.997296 -0.0173597 8.28879e-23)
(0.701921 0.0544214 -1.01742e-20)
(0.249492 0.0442898 -2.14736e-20)
(1.00444 -0.00262276 0)
(1.01098 -0.0699981 -7.10191e-22)
(1.05855 -0.0707668 0)
(1.02079 -0.0687504 -2.52816e-22)
(1.02822 -0.0891467 0)
(1.01749 -0.0252081 -7.20287e-22)
(1.17815 -0.0225891 0)
(0.934101 -0.224403 -1.4448e-20)
(0.045156 0.0461333 0)
(1.02658 -0.132425 -1.66418e-21)
(1.09031 0.000718178 1.3175e-20)
(1.06895 -0.0174099 0)
(-0.123715 0.0233397 -4.14924e-20)
(1.0048 -0.0110287 -5.7795e-22)
(0.999925 -0.00883484 0)
(0.98179 -0.240165 0)
(1.06737 -0.0451724 -6.24022e-21)
(1.02795 -0.0391055 -3.08936e-21)
(1.10077 -0.030322 -8.2106e-21)
(1.02156 -0.00244015 1.7192e-23)
(1.10439 0.0567993 -1.21337e-20)
(1.01393 -0.000665181 -3.42481e-22)
(1.06533 0.00065489 -7.84928e-21)
(1.04743 -0.0432918 3.28907e-21)
(0.138867 -0.0568559 0)
(1.00102 -0.00462569 -7.75709e-22)
(-0.0872063 -0.0305349 6.28486e-20)
(1.06594 -0.00459385 5.05219e-21)
(0.999873 -0.0150107 -3.13219e-21)
(1.01193 -0.00762444 -1.09194e-21)
(0.983331 -0.0358039 -6.97455e-21)
(1.03774 -0.19351 -9.61541e-21)
(1.06484 -0.0489111 -6.12678e-21)
(1.11296 0.0618276 4.63961e-21)
(1.00027 -0.00294321 0)
(1.07229 0.0154711 -4.98971e-21)
(1.07637 0.010563 0)
(1.23007 0.000373704 -9.35131e-21)
(1.02196 -0.0022181 0)
(1.10397 0.0606402 1.78554e-23)
(-0.0749246 0.0119058 2.25401e-20)
(1.10318 0.0566268 -2.34325e-21)
(1.00464 -0.0109017 -1.50814e-23)
(1.1857 0.0387508 -2.74962e-20)
(1.06789 -0.105766 2.84946e-21)
(-0.20438 -0.00779727 -5.87059e-20)
(1.12267 -0.137579 1.36298e-20)
(0.588433 -0.0274159 9.24024e-20)
(1.12128 -0.135457 9.86898e-21)
(1.00205 -0.010427 3.06147e-21)
(1.19315 -0.198487 0)
(1.07893 -0.394994 6.68525e-21)
(1.1272 0.0159113 0)
(1.01674 -0.024592 -3.61871e-22)
(1.17709 -0.0736133 -1.87688e-20)
(-0.0939803 -0.0237891 -3.69832e-20)
(1.1067 0.056659 1.19854e-21)
(0.977269 -0.0711951 -1.89002e-20)
(0.702077 -0.665563 5.99587e-21)
(0.280867 0.0485882 -1.33242e-20)
(1.02485 -0.0887971 1.54649e-21)
(0.0916182 0.0298714 -2.58835e-21)
(1.09107 -0.140273 0)
(1.06612 -0.00521715 1.0391e-20)
(1.19481 0.0342795 -3.33059e-21)
(0.945578 -0.0355635 0)
(1.03854 -0.00790747 6.08417e-21)
(1.01529 -0.000117559 0)
(1.0011 -0.00551968 1.28102e-21)
(1.12845 0.076226 -1.08278e-20)
(0.100855 -0.0345853 -5.60878e-20)
(1.02191 -0.00233719 -1.78225e-23)
(1.07177 0.0156612 5.01545e-21)
(1.11497 0.0628908 2.33119e-20)
(1.11396 -0.0728151 -1.17022e-20)
(1.02628 -0.0432449 -7.9239e-22)
(-0.198143 -0.00779415 6.34729e-20)
(0.995931 -0.0129564 9.63452e-22)
(0.984017 -0.0380977 -3.67415e-21)
(1.1474 -0.206372 -1.96553e-20)
(1.06206 -0.0859152 -1.04186e-20)
(1.13663 -0.0345892 2.06808e-21)
(0.43091 0.0343576 0)
(1.22345 -0.352082 -8.60682e-20)
(1.13302 0.0448826 1.49096e-20)
(1.02187 -0.0691363 2.62336e-22)
(1.04678 -0.0427458 -6.68601e-21)
(1.12672 -0.259894 -2.29704e-20)
(0.468906 0.0829926 0)
(1.2296 -0.00752442 0)
(1.10566 0.0588628 1.67345e-20)
(1.06343 -0.0653608 0)
(1.07122 0.0169406 -9.03964e-21)
(1.10346 0.0530904 0)
(1.01198 -0.00743908 1.93819e-24)
(1.07914 -0.0119061 -9.47725e-21)
(1.05843 -0.0694126 -8.86799e-21)
(1.15053 0.0325756 7.75528e-21)
(1.08111 -0.115135 1.28589e-20)
(0.986644 -0.0844888 -2.65297e-21)
(1.03979 -0.0287144 -1.73219e-21)
(-0.0183619 0.0281715 0)
(0.999872 -0.00156504 3.48075e-21)
(1.00184 -0.0253452 0)
(1.10832 0.0548335 -1.40321e-20)
(1.00002 -0.000515905 1.74461e-21)
(-0.00444081 0.0391548 -1.72768e-20)
(1.06586 -0.13875 -5.25789e-21)
(0.999994 -0.000380439 -1.3577e-21)
(1.13928 -0.0228529 -1.91774e-20)
(1.06433 0.00134538 -1.1174e-20)
(0.712459 0.0526508 0)
(1.23144 -0.145601 -7.32748e-20)
(1.00443 -0.00817331 -7.73775e-22)
(0.892947 -0.341206 -9.63916e-21)
(1.10812 0.0550138 1.71308e-20)
(1.14426 -0.017018 0)
(1.1133 -0.074366 6.90728e-21)
(1.13046 0.0101171 2.4082e-21)
(0.086592 0.0228607 -4.69993e-21)
(1.13882 -0.198778 8.61763e-21)
(0.999991 -0.00564209 8.90852e-22)
(1.00291 -0.00869604 -9.71664e-22)
(1.23058 -0.149133 -7.77655e-20)
(0.409099 0.0418484 0)
(1.0859 -0.000648409 0)
(0.991529 -0.0523841 -3.18944e-21)
(0.973013 -0.0122579 -2.68906e-22)
(-0.194972 -0.00248293 1.39456e-22)
(0.968363 -0.0236044 -1.1241e-20)
(-0.111814 -0.0167938 0)
(0.999066 -0.00614893 0)
(1.15102 -0.0705879 -2.52656e-20)
(1.1063 -0.0909998 -1.29154e-20)
(-0.170718 -0.0143536 0)
(1.11688 0.0340838 0)
(1.06501 -0.103641 -4.70404e-21)
(1.14827 -0.0712973 -3.46542e-20)
(1 -0.00030114 1.28587e-21)
(1.15459 0.0749698 8.46898e-21)
(1.03492 0.000987444 -2.73714e-21)
(1.00985 -0.00736057 -7.31853e-22)
(0.342031 0.0625496 -1.34339e-20)
(1.01252 -0.0328218 7.54552e-22)
(1.05749 0.00779428 0)
(1.13129 0.00776369 1.06667e-20)
(1.0897 0.00693726 1.16568e-20)
(1.02376 -0.0175072 -3.67215e-21)
(1.00092 -0.0161965 9.54206e-23)
(1.02857 -0.260722 0)
(-0.0457943 0.0333104 0)
(1.13628 -0.154998 -1.30917e-20)
(1.10074 0.00509932 0)
(0.747473 0.0556841 4.86445e-21)
(1.0757 0.0104363 -4.44012e-21)
(1.23036 -0.143098 7.21969e-20)
(1.03189 -0.0122436 -3.04151e-23)
(1.0008 -0.0164404 0)
(1.17689 -0.0679707 1.84968e-20)
(0.109965 0.0519739 0)
(1.13018 0.074409 0)
(0.977174 -0.0378199 0)
(0.660599 0.0606537 2.98277e-20)
(1.07192 -0.0548801 -8.08865e-21)
(1.01172 -0.000633901 0)
(0.244354 0.0682821 1.03886e-20)
(1.0272 -0.0901219 0)
(1.011 -0.0384219 1.18774e-21)
(1.05015 -0.0415452 -3.40442e-21)
(1.13527 -0.0255052 -8.67362e-21)
(0.489087 0.0842798 -6.0416e-21)
(1.14204 -0.00642477 0)
(1.1823 -0.00602862 -2.00621e-20)
(1.07099 0.0180492 8.09932e-21)
(1.09991 0.00449306 0)
(1.10385 0.0530474 -2.69827e-21)
(0.967442 -0.0210339 5.70276e-21)
(0.94815 -0.0339346 -1.49101e-20)
(1.14053 -0.0063324 -2.00563e-20)
(1.05549 -0.0995694 3.7626e-21)
(1.19707 -0.0912115 -7.86998e-20)
(1.11192 0.0548529 0)
(1.10738 -0.16408 -8.03474e-21)
(1.07944 -0.011284 9.15042e-21)
(1.02886 -0.0107007 -1.9073e-21)
(1.08524 -0.00113028 0)
(1.13035 0.00827377 -9.41397e-21)
(1.18945 -0.198651 0)
(0.983175 -0.0445921 -4.86914e-21)
(1.02583 -0.0897743 -1.92975e-21)
(1.01768 -0.00663594 0)
(1.07048 0.0183406 8.98766e-21)
(1.09911 -0.23419 3.75622e-21)
(1.23505 0.0312748 -2.63165e-20)
(1.24813 -0.00704833 0)
(1.00198 -0.00235242 0)
(1.05991 -0.0456218 -1.04894e-20)
(1.11327 0.0612476 -1.34337e-20)
(1.01837 -0.0588194 0)
(0.997522 -0.0066158 3.29098e-21)
(0.996355 -0.0121764 -3.96418e-21)
(0.788621 -0.159082 0)
(1.08053 -0.00584906 -2.30262e-21)
(-0.0940185 -0.0258084 -3.82035e-20)
(0.986014 -0.0367155 8.82145e-22)
(0.111613 0.0251559 0)
(1.21832 -0.354732 3.27082e-20)
(1.00005 -0.0149022 0)
(0.605485 0.0891389 2.95135e-20)
(-0.0364528 0.033967 0)
(1.11613 0.0336454 -1.60423e-20)
(0.995659 -0.00624171 0)
(1.14493 0.0273051 1.3279e-20)
(1.10545 0.0589794 -1.1867e-20)
(0.420277 0.0425507 2.72562e-21)
(1.10052 -0.0431748 0)
(1.04772 -0.141752 7.69889e-21)
(0.696002 -0.267342 2.22782e-20)
(0.967602 -0.0617091 3.4925e-21)
(0.972556 -0.0367676 -9.55142e-21)
(0.97802 -0.0373824 0)
(0.0169138 0.0414009 -3.23838e-20)
(1.03644 -0.0156415 2.71413e-21)
(-0.0315779 0.0249678 0)
(0.996355 -0.013144 5.69521e-21)
(1.02531 -0.00364675 2.26296e-21)
(1.00994 -0.0109969 -8.4485e-23)
(1.0886 0.0351676 8.69258e-21)
(1.03139 -0.000160449 0)
(0.556871 0.0562559 0)
(1.25671 -0.4025 0)
(0.999941 -0.00577262 -1.33369e-21)
(-0.209318 -0.00250355 0)
(1.0444 -0.0346154 -1.10007e-21)
(1.02611 -0.00453637 0)
(1.02345 -0.00709109 -1.9061e-21)
(0.971046 -0.0142618 -9.82987e-21)
(1.10499 0.0523731 -1.25104e-20)
(0.984027 -0.044698 1.08568e-21)
(1.08905 0.021265 -9.70198e-21)
(1.22806 -0.149628 7.062e-20)
(0.0859586 -0.0492644 6.76859e-20)
(-0.123915 0.00548005 0)
(1.00002 -5.16229e-05 0)
(1.08945 0.02091 -8.54822e-21)
(1.03298 -0.0148498 0)
(1.07401 -0.0180651 0)
(1.09426 0.0307373 -1.0734e-20)
(-0.13036 0.0214965 3.42037e-20)
(-0.208858 -0.00434322 3.97647e-20)
(1.05837 0.057943 9.15121e-21)
(1.24058 -0.100938 7.87387e-20)
(1.02379 -0.0171171 4.51731e-21)
(1.02567 0.000390083 -1.72505e-21)
(0.984732 -0.0359051 7.70584e-21)
(1.03771 -0.015045 3.8358e-23)
(1.14816 0.0345619 1.45005e-20)
(0.986072 -0.00626036 2.75408e-21)
(0.994751 -0.00557431 0)
(0.972271 -0.012442 2.50264e-22)
(1.03113 -0.00514016 8.10377e-21)
(1.07756 0.0100246 -4.53614e-21)
(1.07071 0.00896471 0)
(1.01481 -0.0215266 -5.75355e-22)
(0.675596 0.0911595 1.10251e-20)
(0.990375 -0.0474632 0)
(0.999487 -0.00209577 -4.63283e-22)
(1.03105 -0.00543925 -1.88242e-21)
(0.987149 -0.0137088 -5.8025e-21)
(1.15873 0.0605222 -3.06065e-20)
(0.831225 0.0761166 0)
(1.14944 -0.0694868 0)
(1.09778 -0.17258 2.8605e-20)
(0.87589 -0.0237091 0)
(0.109588 0.0217052 -5.81686e-23)
(-0.145198 -0.0201384 0)
(0.410503 0.0489391 2.11122e-20)
(1.03371 -0.0533181 3.20596e-21)
(1.00731 -0.00884314 -4.05414e-23)
(0.072028 0.0233902 4.88308e-21)
(0.736417 -0.232385 0)
(1.00556 -0.017357 0)
(1.03367 0.057546 0)
(1.0006 -0.0122335 0)
(1.03106 -0.0539135 3.86405e-22)
(1.01096 -0.00381881 0)
(0.417355 -0.131774 2.17054e-22)
(0.883584 -0.338002 6.34585e-21)
(1.0212 -0.0467727 9.42272e-23)
(1.23391 -0.140135 0)
(1.00987 -0.0315966 6.78119e-22)
(0.944318 -0.0362231 1.01831e-20)
(0.678659 0.0909541 -2.08862e-20)
(1.08272 -0.00423116 -1.18008e-21)
(1.04512 -0.0350752 7.38712e-21)
(-0.0459807 0.0245958 -2.08445e-20)
(1.03279 0.000742052 -7.89846e-21)
(1.0714 0.0106506 8.44774e-21)
(1.08384 -0.0290519 0)
(1.0621 -0.0648267 -3.50854e-21)
(0.934816 -0.219528 1.23423e-20)
(0.675328 -0.862551 -4.99734e-21)
(1.03216 -0.0161187 -2.28916e-21)
(1.01449 -0.0213308 3.99448e-22)
(1.04899 -0.0164549 0)
(0.997599 -0.274666 5.02781e-20)
(1.10026 0.0549734 -3.18408e-22)
(1.02788 -0.0629093 2.30678e-21)
(1.0115 -0.00422674 -1.7368e-21)
(1.28278 -0.20523 -2.81615e-20)
(1.02567 0.000201459 -5.90612e-22)
(1.14317 -0.0112025 -1.21156e-20)
(0.986449 -0.00634366 0)
(1.03875 -0.00427157 5.68856e-21)
(1.04949 -0.0167156 0)
(1.00298 -0.00163927 4.12651e-22)
(0.980708 -0.0329742 -7.07187e-21)
(0.995475 -0.00649363 -3.82746e-21)
(1.0376 -0.00864104 -2.97671e-21)
(1.06943 -0.0294977 -3.26156e-21)
(1.24105 -0.0814829 -1.95023e-20)
(0.986132 -0.00535659 0)
(1.18079 0.0368477 -6.21819e-21)
(1.0143 -0.0658194 -3.50794e-22)
(-0.209119 0.00827532 0)
(1.04981 -0.0122115 -4.95028e-21)
(1.29487 -0.0346362 -6.50543e-20)
(1.00003 -0.00181936 0)
(0.856162 0.0730452 0)
(1.00002 -0.000195676 -1.22608e-21)
(0.987295 -0.0242116 3.09512e-22)
(1.09564 0.0600505 9.20267e-21)
(1.14512 -0.0222856 1.98121e-20)
(0.319064 0.0604283 -8.99128e-21)
(1.03141 -0.258843 -4.75201e-21)
(1.03528 -0.189091 0)
(0.963882 -0.0250105 -1.91956e-20)
(1.10627 0.051777 0)
(1.0386 -0.0139635 3.31365e-21)
(0.103941 0.024121 -2.50085e-21)
(1.09467 -0.0112783 0)
(1.04402 -0.0572079 3.78801e-21)
(0.361428 0.0402796 4.49065e-21)
(1.0216 -0.0473989 2.70985e-22)
(1.24282 -0.0798875 -1.10436e-20)
(1.23321 -0.137735 0)
(1.07093 0.0101423 -8.10819e-23)
(1.10928 0.0553362 -7.27314e-21)
(1.1272 0.076199 1.20077e-20)
(0.999228 -0.0187293 0)
(0.823869 -0.445007 9.09914e-21)
(1.00194 -0.00656868 0)
(1.08668 -0.0294923 5.68988e-21)
(0.992515 -0.00526685 -4.23679e-21)
(1.08342 -0.00360652 -8.47878e-21)
(0.873909 -0.210325 0)
(1.03862 -0.00455128 0)
(1.07887 0.00421922 0)
(1.00001 -0.000725849 -3.31041e-21)
(1.2849 -0.185446 -8.81137e-21)
(1.17778 -0.0720955 2.12603e-20)
(1.08296 -0.00512917 1.26784e-21)
(1.09644 -0.0803933 -1.10503e-20)
(1.0798 0.0041086 0)
(0.999837 -0.001753 1.75932e-21)
(0.826027 0.0649673 0)
(1.2097 -0.177518 0)
(0.950396 -0.379589 5.99104e-22)
(1.10422 0.0570243 4.57302e-23)
(-0.0378842 0.0260433 3.50242e-20)
(1.15403 0.0646053 0)
(1.04778 -0.0302397 -2.66111e-21)
(-0.200687 0.00921575 0)
(1.07117 -0.0559054 -7.94392e-21)
(1.00341 -0.000564092 0)
(-0.138695 0.0202064 -3.17313e-20)
(1.29168 -0.0320243 7.64922e-20)
(1.00001 -0.00101723 -1.02023e-21)
(1.14641 -0.469 3.00327e-20)
(0.77443 0.0531493 -2.43201e-21)
(1.16659 -0.274134 -2.38141e-20)
(1.04294 -0.0345004 -4.59541e-21)
(-0.166653 -0.0131779 3.59425e-20)
(1.12534 0.0473353 0)
(0.757636 0.053298 0)
(1.12287 -0.0487676 -5.76872e-21)
(1.00175 -0.0266967 -2.80656e-21)
(0.324821 -0.0422197 3.00997e-20)
(0.760247 -0.416264 -2.70131e-20)
(1.10822 0.057025 0)
(1.00542 -0.0676331 2.8022e-21)
(1.00005 -0.000961514 5.5857e-23)
(1.07682 0.00980222 4.46529e-21)
(0.994188 -0.768519 3.84561e-20)
(1.06405 -0.0303223 -5.5821e-21)
(0.984872 -0.782595 -4.05764e-20)
(1.15867 0.0575777 0)
(1.0442 -0.0429701 -3.20723e-21)
(1.10986 0.00978858 -9.14997e-21)
(0.287962 0.020116 0)
(0.845495 0.0923237 0)
(0.997577 -0.15496 9.80433e-23)
(-0.156947 -0.0155518 -4.12243e-20)
(0.94547 -0.0336516 4.97649e-21)
(1.17448 -0.357743 0)
(0.100098 0.0508985 6.31396e-21)
(0.986771 -0.00711392 0)
(0.916025 -0.29349 -5.16431e-20)
(0.973278 -0.074418 -1.85518e-21)
(1.00543 -0.0453375 -1.5891e-21)
(0.450011 0.0326416 8.75893e-21)
(0.943064 -0.0389681 -1.13737e-20)
(1.16146 0.0592046 0)
(1.00311 -0.240144 0)
(1.07998 0.00333134 -9.31696e-21)
(1.00081 -0.0158622 -3.00186e-21)
(1.15573 -0.361501 2.03585e-20)
(0.770167 -0.426749 2.99827e-20)
(1.06347 0.00211634 -1.26649e-20)
(0.995523 -0.0129599 -2.98119e-22)
(0.0773906 0.0243714 -2.53982e-21)
(1.01459 -0.000545682 0)
(1.09126 -0.348683 -5.06835e-20)
(1.0811 -0.112961 5.86784e-21)
(1.10733 0.056854 0)
(1.0383 -0.0142486 0)
(1.04362 -0.0350391 5.98959e-21)
(0.236136 -0.0893783 0)
(1.17595 0.00908613 0)
(1.25813 -0.0270103 0)
(0.0965135 0.0188595 0)
(1.144 -0.0121093 0)
(-0.194923 -0.00458529 0)
(1.15832 -0.135265 0)
(0.949367 -0.0329888 -4.62315e-21)
(0.0828883 0.0258245 0)
(1.07416 -0.0171964 6.61244e-21)
(0.998939 -0.00649518 0)
(1.2337 0.0326544 5.79409e-21)
(1.22297 -0.201542 -1.78169e-20)
(1.06025 0.0122066 4.56139e-21)
(0.98165 -0.0189941 7.84709e-21)
(1.03319 0.00091667 3.9045e-21)
(1.00377 -0.00773145 -6.30122e-22)
(1.00195 -0.00647114 7.43139e-22)
(1.13203 0.0447511 0)
(0.0370954 0.0444965 -2.54295e-20)
(0.898764 0.0965653 1.00624e-20)
(1.0053 -0.00974616 0)
(1.08246 0.0189337 0)
(0.981271 -0.0641181 -7.97586e-21)
(1.10696 0.0577439 0)
(1.00362 -0.00762423 0)
(0.154491 0.0447727 0)
(-0.208585 -0.00720518 -4.55564e-21)
(-0.202864 0.0120501 0)
(1.17957 -0.355418 0)
(1.07477 -0.100077 -3.19223e-21)
(1.00832 -0.0227296 1.46564e-22)
(0.046437 0.0454611 1.2087e-20)
(1.00984 -0.0321305 0)
(1.01664 -0.0590709 -2.85065e-23)
(1.01581 -0.0585481 4.5743e-23)
(1.05256 -0.0297426 3.39943e-21)
(1.00921 -0.168587 6.52689e-24)
(1.09688 -0.069207 -1.8407e-20)
(0.953675 -0.0181328 -7.54998e-21)
(0.953153 -0.0131112 0)
(1.00177 -0.00906149 0)
(0.967752 -0.0366475 0)
(0.995475 -0.0127381 0)
(1.00533 -0.0167158 0)
(0.886734 -0.368741 0)
(1.18282 -0.131211 -5.08051e-20)
(0.995715 -0.013108 -5.8362e-22)
(0.990563 -0.026367 0)
(-0.201544 -0.0073084 8.25862e-21)
(0.330668 -0.0442528 0)
(1.08556 -0.0293581 1.79591e-20)
(1.15823 -0.488513 6.59108e-20)
(1.09397 0.0319237 0)
(1.01225 -0.211569 2.72793e-21)
(1.1943 0.0363165 0)
(1.02213 -0.0199152 -1.85662e-21)
(1.01195 -0.0324994 -9.97107e-23)
(1.00165 -0.00858538 1.17699e-21)
(1.01037 -0.0313813 -3.68219e-23)
(1.05072 -0.0347911 0)
(0.704625 -0.259048 1.87879e-20)
(1.00481 -0.0120725 -8.67867e-22)
(1.02005 -0.00917803 -1.55126e-21)
(1.00553 -0.0139478 2.31042e-23)
(1.00219 -0.0102282 -3.12354e-21)
(-0.195916 0.0128055 0)
(1.03692 -0.18774 0)
(1.02545 -0.00606189 1.35674e-21)
(1.07466 -0.0195264 7.0593e-21)
(1.00108 -0.00535982 -2.50678e-21)
(1.14849 -0.0661178 -6.27353e-21)
(1.02339 -0.00831701 0)
(1.12083 -0.0697724 9.73621e-21)
(1.12977 0.0795401 1.36431e-20)
(1.03832 -0.0133908 -5.58053e-21)
(0.832639 0.0922009 1.07846e-20)
(1.10429 0.0565326 -1.23875e-21)
(1.18247 0.04351 0)
(1.14549 -0.0160241 0)
(-0.0752909 0.0237418 3.9266e-20)
(-0.0374575 0.0224857 2.37821e-20)
(0.987029 -0.0131953 0)
(0.998056 -0.0177879 -3.49278e-21)
(0.954033 -0.0172247 8.80493e-21)
(0.753699 0.052556 0)
(1.11078 0.0501991 -1.12387e-20)
(0.999003 -0.0794023 0)
(-0.0772178 -0.0313006 0)
(1.22144 -0.348706 0)
(1.03318 0.00120771 0)
(1.01575 -0.0212911 0)
(0.967163 -0.0374971 -9.22225e-21)
(0.7948 -0.154498 0)
(1.0705 -0.0671447 0)
(1.00252 -0.00778246 0)
(1.004 -0.00783525 0)
(1.00102 -0.0243829 -2.56248e-22)
(1.01826 -0.0258232 4.85958e-22)
(0.219365 0.0149638 0)
(1.16889 -0.343596 -1.98619e-20)
(1.00492 -0.044725 3.90862e-21)
(1.10391 -0.314637 -4.44992e-20)
(0.574182 0.045963 0)
(0.999279 -0.00166798 -4.80195e-21)
(1.0132 -0.0311197 0)
(1.01714 -0.0699507 3.91669e-23)
(1.12095 -0.0527058 0)
(0.212477 0.015493 0)
(1.31506 -0.2536 -3.67179e-20)
(0.163811 0.0456673 0)
(1.10928 0.0423601 0)
(1.16437 -0.269447 7.15455e-21)
(1.16954 -0.491726 -7.41237e-20)
(1.10813 0.0573081 -5.75868e-21)
(-0.243301 -0.00480339 9.87115e-21)
(1.07488 -0.0186611 7.38239e-21)
(1.10583 0.0295411 0)
(1.08442 -0.00394855 8.71074e-21)
(1.07523 0.0112048 1.32597e-20)
(-0.128014 0.0215244 0)
(1.0348 -0.0164382 0)
(-0.0924508 -0.0290029 0)
(1.10712 0.0571105 -1.70738e-20)
(1.04958 0.00692046 -6.51768e-21)
(0.987264 -0.240411 -3.80567e-22)
(1.03539 -0.0166479 -2.52506e-21)
(0.166693 0.0598761 2.45344e-20)
(1.00572 -0.0668978 0)
(1.20773 -0.246301 -6.34243e-20)
(1.10684 0.0566557 -3.73425e-21)
(1.02759 -0.0113104 -4.05353e-21)
(0.611906 -0.0267932 -1.24816e-20)
(1.02026 -0.018945 4.78387e-23)
(1.00002 -0.000689209 2.13645e-21)
(0.569548 -0.0233511 1.19338e-20)
(1.05973 -0.0674943 -3.60553e-21)
(1.01058 -0.0070941 -7.58584e-22)