/*--------------------------------*- C++ -*----------------------------------*\
| =========                 |                                                 |
| \\      /  F ield         | OpenFOAM: The Open Source CFD Toolbox           |
|  \\    /   O peration     | Version:  v2012                                 |
|   \\  /    A nd           | Website:  www.openfoam.com                      |
|    \\/     M anipulation  |                                                 |
\*---------------------------------------------------------------------------*/
FoamFile
{
    version     2.0;
    format      ascii;
    class       volScalarField;
    location    "400";
    object      ddt0(k);
}
// * * * * * * * * * * * * * * * * * * * * * * * * * * * * * * * * * * * * * //

dimensions      [0 2 -3 0 0 0 0];


internalField   nonuniform List<scalar> 
27802
(
-1.3639e-07
1.79757e-09
-4.64734e-08
4.74215e-09
-0.00029506
-2.97054e-08
4.96654e-08
-2.3792e-08
1.81508e-06
-8.91785e-09
2.45961e-10
-0.000809
-0.000155853
5.44533e-07
3.22241e-09
5.88576e-08
-1.63604e-09
-0.000868004
0.00652307
-3.02337e-09
1.6194e-09
-1.23478e-09
-1.67202e-07
9.34933e-07
-1.43619e-09
-8.58195e-10
-2.39852e-08
-8.59111e-09
-1.11717e-09
-0.00028798
-1.19406e-08
5.53976e-07
-0.00204628
-3.98093e-06
-0.0021334
5.43217e-10
3.99454e-07
0.000709278
-1.142e-08
-1.60358e-08
6.76609e-09
-1.46592e-08
-0.000661879
-1.51501e-05
4.50994e-08
2.15446e-09
7.00015e-07
-1.06401e-08
1.54069e-08
-3.92406e-07
-1.91844e-08
4.36558e-08
0.000438112
1.6327e-09
8.36329e-09
-2.63132e-08
-7.80188e-05
5.42868e-07
1.64724e-08
3.58353e-05
4.17519e-10
6.93498e-09
0.00112264
-8.5447e-07
-0.000906426
1.76413e-07
-0.000306327
-9.47663e-08
0.000339422
7.61016e-07
7.66901e-10
1.34283e-06
0.00229635
1.27523e-06
-0.00171149
-1.20683e-08
-0.00324665
-0.000279792
1.71525e-08
1.45329e-07
-0.000384092
7.51471e-05
2.15657e-08
6.00746e-07
6.8921e-08
-1.38745e-08
-1.68494e-10
4.40988e-09
1.34494e-06
1.26513e-05
-0.00166592
3.17911e-08
9.12076e-06
1.54209e-07
2.23771e-09
-1.43193e-08
1.96123e-09
-0.000213678
7.5663e-09
5.58099e-07
4.30443e-05
2.71185e-09
-1.17899e-08
-5.68771e-10
9.31554e-07
2.9546e-08
-5.84096e-05
1.966e-06
1.53818e-09
7.67432e-09
-3.6015e-07
2.90848e-09
1.71335e-09
7.44151e-06
6.51986e-09
2.98112e-06
-1.03142e-07
-9.24064e-10
-6.90931e-09
1.69026e-07
-0.000312856
-0.0016031
4.85786e-08
-4.67378e-10
8.13753e-09
1.15811e-06
-8.40677e-07
0.000634683
-0.000388699
-0.000281118
-1.07453e-08
4.56919e-08
-4.5441e-08
-8.56071e-09
2.16828e-08
-8.35752e-08
-3.83324e-08
2.79964e-08
-1.4721e-06
5.50235e-08
-7.14008e-08
-2.51302e-08
3.74172e-06
5.42101e-09
6.86332e-09
-2.99063e-09
-2.5263e-08
4.06482e-08
4.58749e-08
-2.63301e-08
1.17379e-10
-9.94333e-09
-1.26133e-08
-9.67931e-08
-1.78921e-07
1.93295e-09
-7.22544e-07
1.66443e-06
8.55542e-09
-8.16103e-07
-1.15731e-06
1.34973e-06
-1.24109e-08
-7.80336e-09
-1.92148e-09
1.2757e-08
-1.00981e-09
-2.86298e-08
-1.27293e-09
3.56824e-07
-1.29034e-09
-1.05425e-07
-3.68676e-08
-0.00716068
-1.16978e-08
-0.00096388
1.29267e-08
-5.76245e-09
4.10932e-08
-5.9859e-07
9.29736e-07
-3.07507e-07
5.63818e-09
-1.41151e-09
-3.69729e-08
-9.91389e-08
-3.41574e-10
-2.69014e-09
-1.01853e-06
0.000616843
2.50535e-10
1.5049e-07
-1.66246e-07
-1.0926e-08
-1.05629e-08
-1.78288e-08
-9.73075e-09
3.60664e-08
6.73236e-09
-2.56591e-08
-0.00130133
-2.56354e-05
-0.000114164
-4.81062e-08
2.34679e-09
4.2673e-08
-1.26407e-08
1.11955e-05
1.8158e-08
1.56565e-05
-6.53497e-10
0.000100759
-0.00108494
-5.90096e-09
-1.01145e-06
-1.05381e-08
0.000498983
2.28468e-07
-1.37047e-08
-3.50207e-08
-0.000426735
-7.71779e-09
-9.04978e-08
-4.39647e-07
-3.73473e-08
2.49597e-08
2.59945e-08
1.68187e-07
2.49308e-09
4.29136e-09
-7.21873e-09
5.49487e-05
-1.41819e-08
-6.70416e-10
0.0073591
1.55401e-08
2.3842e-09
-1.171e-05
-0.00223813
2.77833e-06
4.16052e-08
0.00118554
0.00112663
2.75435e-09
3.00251e-09
-0.00205536
3.58729e-08
0.000270874
2.15536e-07
-1.25211e-08
9.75002e-06
1.38182e-08
-8.69556e-08
4.77558e-08
2.3154e-09
-8.28385e-09
5.92778e-08
0.000141097
-4.77068e-08
-4.92058e-09
1.53164e-08
-5.53218e-10
-0.000438714
2.2621e-08
-0.00121878
-5.59285e-09
-0.00114444
3.23324e-09
-8.07495e-09
-1.21976e-08
1.69554e-06
-3.54891e-09
1.33653e-07
0.000141912
-1.05682e-08
1.73516e-06
3.37131e-08
2.99102e-09
-5.70615e-09
5.84326e-08
0.000146123
-2.75754e-09
6.72719e-08
-2.8448e-06
-8.89826e-07
-4.08425e-05
0.000117109
-7.87152e-09
-2.52586e-08
6.82125e-09
-1.24005e-08
-3.50171e-06
3.55076e-10
-7.33376e-05
2.02075e-09
-3.64809e-06
2.71937e-06
7.08477e-08
-1.11893e-05
-0.00239107
2.08954e-07
-1.81669e-09
-8.95615e-07
-8.52318e-07
0.00719946
-1.50143e-06
-2.17948e-09
-0.00126312
1.38259e-07
3.57691e-08
-1.25307e-07
-8.36047e-08
-7.76239e-09
-8.26521e-09
-2.02212e-06
-5.42703e-10
-1.20677e-07
-1.14615e-07
1.33709e-08
5.29687e-07
3.37447e-09
1.58866e-09
-1.77661e-09
-6.29711e-08
-8.67307e-05
-3.67748e-09
-0.00046271
-7.02173e-10
2.54965e-09
1.55571e-09
5.11907e-08
0.00104303
-0.0011493
1.2863e-05
-2.28041e-07
-0.00444667
-1.32831e-08
-2.53713e-08
3.52994e-07
-3.18932e-09
-2.60272e-09
-0.000952453
-0.00911406
8.50733e-07
7.62028e-07
0.000489935
6.11364e-07
-0.000496756
2.73117e-07
1.14336e-05
2.70985e-08
-0.000430052
9.37263e-09
1.59876e-08
-4.01874e-08
-2.3778e-08
0.000365894
4.46089e-05
-2.09203e-09
-5.60526e-08
-2.03177e-06
3.75818e-05
-5.36477e-08
9.46449e-08
-1.24262e-08
4.93021e-11
-0.000837956
-7.95685e-09
-1.29624e-09
4.85924e-09
-2.42644e-08
7.93778e-07
-7.42136e-07
9.01577e-07
-0.00717823
-0.0012073
-8.71251e-07
-3.2345e-07
-2.13339e-07
2.86277e-09
-2.42843e-09
-1.19959e-08
-3.30886e-08
-6.78049e-08
6.09287e-09
1.98455e-10
6.33798e-07
5.93376e-07
3.15642e-06
-1.92284e-07
-3.95283e-08
2.85654e-08
1.70958e-07
1.05513e-08
4.24305e-09
0.000990374
0.000286024
3.44605e-07
3.60273e-09
-1.71501e-07
-0.000894406
4.53761e-09
-3.58684e-08
-1.93197e-06
-1.08467e-09
-0.000312821
-3.08151e-07
-3.31982e-08
-6.42526e-05
-5.19042e-08
-2.42632e-05
5.32083e-09
-0.000272514
-0.000398034
-0.00144395
-1.31475e-08
-5.8387e-08
1.20725e-09
5.16997e-09
-0.000299272
-0.000600162
2.58589e-07
8.57689e-07
-3.00981e-09
0.000717788
-7.84829e-08
-5.62518e-07
-0.000512767
-1.33274e-05
-1.94435e-08
-3.02255e-09
-2.38887e-07
-0.00122469
-8.97495e-09
-2.14555e-09
6.69192e-09
-1.43669e-07
0.00323628
0.00213211
4.89623e-09
-5.04129e-08
5.39204e-07
-3.06647e-09
-9.62031e-10
-1.9654e-07
1.35138e-09
-5.25272e-09
-4.55878e-07
2.71222e-08
1.56264e-07
-0.00278556
-0.000156546
0.000101458
-0.000331072
7.92238e-09
-3.48075e-09
-8.12179e-10
-5.58636e-05
-0.0106428
7.20147e-09
6.18288e-08
4.39051e-05
-1.94823e-06
-1.75429e-06
-1.30358e-09
-1.25099e-08
0.000715519
1.44284e-09
-6.59403e-05
-4.91934e-09
-6.86621e-08
-1.16535e-09
-3.46173e-08
-7.72683e-07
6.74254e-05
0.000120396
-8.83793e-08
-0.00014376
-2.36278e-09
-3.91651e-08
7.04601e-07
-4.00271e-08
2.12007e-07
-1.08511e-07
2.29791e-08
-0.000754809
8.94629e-08
-1.0198e-08
7.58557e-07
-1.17452e-08
3.47931e-09
-0.00135347
-2.31573e-08
-0.00111295
-6.53471e-08
-0.00100536
-0.00169514
-0.00161164
-9.13443e-09
-3.93719e-06
-0.000436953
1.81194e-08
0.000474278
-8.05756e-07
-0.0017413
2.64881e-07
4.73449e-09
-2.34484e-07
-3.55379e-08
1.66328e-08
-2.9067e-08
-3.52404e-05
-4.95781e-07
2.31153e-09
-9.12586e-11
-5.2835e-08
-0.00171004
-1.37567e-06
3.85943e-09
1.00171e-07
-1.23398e-08
0.00239896
-2.77389e-08
1.55849e-06
1.15541e-05
-3.45026e-09
-2.41698e-09
1.42095e-08
-0.000197749
-0.000990428
3.07501e-07
0.00280046
-6.18281e-08
-5.72369e-08
-0.00111353
3.56493e-09
1.79235e-07
-7.41392e-09
-2.2686e-09
2.5128e-05
0.000433416
6.04831e-09
2.67158e-08
-5.84865e-08
-5.70333e-08
-2.0954e-09
-5.0556e-09
0.000541799
-4.06234e-08
-1.19304e-07
0.000520563
-1.21441e-07
-0.000207165
0.00135247
6.00059e-10
-0.000921306
-1.03158e-08
-1.01276e-06
2.72707e-06
-8.80372e-10
-1.44646e-09
-8.06532e-05
-2.14106e-08
-7.61962e-09
-1.20404e-10
-0.000593168
-1.84984e-09
-3.26271e-09
-3.58433e-06
2.65889e-07
1.36453e-06
-0.000413847
0.00045069
1.45539e-08
1.03291e-06
-5.11723e-09
-0.00127717
-1.21087e-08
-9.11067e-08
-0.000937554
-1.03415e-06
-0.00191792
-1.6456e-06
-1.00468e-08
-0.000322183
1.02695e-07
2.08979e-08
-0.00036644
3.77473e-07
-1.75996e-06
0.000275344
-1.756e-07
1.99076e-08
8.21646e-08
9.78966e-08
1.72024e-09
-3.62573e-06
-9.3181e-07
5.05977e-09
1.29343e-07
-1.05659e-08
-4.914e-08
-1.41384e-06
-1.03582e-08
-0.00497782
-0.000293706
-1.49048e-08
-4.98658e-09
4.01749e-09
-0.000382609
0.00059886
1.23129e-05
-1.90967e-06
1.87781e-06
-0.00122319
4.45989e-09
-1.02865e-06
1.09935e-07
-0.000938561
-0.000854276
-1.05135e-08
9.28457e-09
-2.69579e-05
-3.96255e-07
-1.09172e-09
-0.00968768
4.83737e-09
-2.68438e-05
-1.95564e-06
7.19459e-08
3.30659e-06
-0.00255423
4.03558e-07
8.43727e-09
-1.1232e-08
-1.21295e-07
-1.48937e-09
3.37524e-09
-0.00204731
8.57882e-09
-2.13684e-09
-9.59952e-09
-7.55907e-07
-0.00181648
8.69305e-07
-1.65214e-08
-0.00812873
8.21433e-08
-0.000368292
7.23966e-09
2.38348e-05
-8.82365e-08
-5.51763e-07
0.000873378
-7.57032e-07
0.000813862
3.88931e-09
1.30748e-08
8.73131e-08
-1.13748e-08
-2.87206e-08
-3.26265e-06
1.24988e-06
0.000241536
-1.57655e-09
3.28944e-07
-1.68461e-08
-1.15193e-08
1.67643e-05
1.33365e-08
-8.26735e-08
-0.000120505
2.3745e-06
-2.51767e-08
9.92381e-10
6.57033e-09
6.11131e-09
-2.17389e-07
8.29211e-08
0.000614997
0.00254726
2.04497e-07
-3.0228e-07
1.35775e-06
0.000622822
-0.000344863
1.0228e-07
-1.68528e-09
-7.83762e-05
-2.2622e-09
0.000417177
-3.69613e-08
-6.39093e-06
-3.09192e-08
-0.000543079
2.50126e-08
7.9001e-08
-2.18182e-07
4.92066e-10
-5.62793e-10
-7.63664e-07
-6.96692e-07
-6.30679e-09
-2.55391e-06
3.60425e-10
0.000632148
9.87029e-08
-8.89063e-08
-1.59977e-07
4.56758e-09
7.43105e-07
-7.49222e-05
-1.55074e-06
4.49904e-08
5.59004e-07
6.3165e-07
-0.00163448
0.000415355
-8.87272e-07
9.87226e-08
-0.00164456
3.56327e-10
4.88578e-08
-1.2647e-08
-0.00203019
-1.61251e-06
-2.97039e-08
7.25238e-07
1.41801e-05
-0.00201636
-0.0279674
-0.000931761
-3.17314e-09
5.73527e-07
-0.00991623
-9.31021e-09
4.10821e-05
0.00308297
5.44022e-05
-1.38147e-08
-1.89474e-06
-2.97408e-09
5.04089e-07
-1.86552e-09
-1.74982e-06
-0.000847247
4.89547e-09
2.44753e-08
-1.10972e-05
-0.000608536
3.5372e-08
-1.45955e-06
-1.25862e-08
-2.91142e-08
-2.01328e-07
-9.5529e-08
1.31192e-07
0.000435571
7.78111e-07
2.64768e-09
-1.44785e-08
8.55434e-07
-0.00197636
0.0116358
-9.32111e-08
-0.00144354
-0.000343024
6.61774e-07
1.30163e-08
1.78511e-09
-1.95444e-09
-0.000178218
1.77463e-09
6.19145e-07
-3.07563e-09
-0.0222299
-0.0002389
-7.88866e-10
-2.65043e-08
-5.398e-08
0.00955587
-2.40455e-09
-4.86446e-08
-1.32111e-06
1.68573e-05
-1.19161e-09
-0.00130983
-8.72339e-08
-0.00249443
6.07928e-10
4.35052e-09
-5.82125e-09
-7.5175e-07
-0.0089009
-1.52624e-07
0.000127572
-9.34721e-07
4.29252e-08
-1.01869e-06
-0.00537131
7.24249e-08
-6.47845e-07
-1.44216e-06
5.98081e-09
-8.3176e-07
1.77392e-07
-5.68956e-09
-2.73758e-07
3.70978e-06
-0.00102153
1.74351e-08
-0.00557835
1.01011e-05
0.000633927
0.000865808
-2.12597e-08
-3.77136e-08
0.000900081
-5.14645e-05
7.3199e-09
-2.04503e-09
2.47404e-09
3.64621e-09
8.09793e-06
6.0712e-09
-5.44968e-09
-0.00168118
3.36464e-05
-0.00119937
-1.1784e-08
1.23098e-08
-9.34053e-09
4.29908e-08
1.35699e-06
-2.03409e-08
-1.28751e-06
-1.19646e-08
-1.09147e-06
-9.41445e-08
-1.02212e-07
-6.93117e-07
-1.11086e-08
3.38214e-05
-7.64159e-08
-1.81238e-09
0.0121698
1.42845e-09
1.02436e-09
-0.000421466
-6.66857e-07
-1.76156e-07
6.87321e-06
5.63177e-09
-3.19507e-09
9.27173e-08
-1.00265e-08
8.09179e-06
2.1989e-07
0.000400246
-3.55769e-07
-2.70754e-08
-3.79525e-06
-5.59349e-08
-1.03355e-07
-0.00117709
-1.06858e-07
2.41235e-09
-1.95473e-07
-8.61017e-08
8.23678e-09
-0.0023311
-6.61911e-08
2.08083e-09
1.60295e-08
-1.84856e-08
2.68063e-07
-4.3779e-09
0.000206691
-1.01921e-08
-1.30447e-08
-1.06696e-05
2.7145e-09
1.19191e-08
-7.72004e-09
1.21345e-07
-7.05695e-08
1.98929e-08
-7.66007e-07
-1.72718e-07
0.00610855
5.2394e-08
9.39746e-10
2.07128e-05
-2.84507e-08
-2.83995e-08
-1.30453e-08
-2.49208e-09
-1.30294e-08
-0.00043465
-9.98196e-09
6.35226e-06
7.00632e-10
-8.5736e-07
-6.19983e-08
-2.22719e-07
-2.20918e-07
3.43392e-09
-1.52799e-07
-0.00479471
-3.61712e-06
7.87235e-06
1.48764e-09
0.00131654
2.28212e-08
1.32581e-07
-9.11626e-09
1.14657e-09
-7.83402e-09
7.13261e-08
1.80308e-08
4.17278e-06
-3.06595e-09
-6.61027e-08
8.47501e-08
-4.42811e-05
-3.09837e-08
-7.68699e-08
-5.90107e-09
-6.79664e-09
-1.89499e-06
-0.00208836
0.00105472
2.5565e-09
-2.19821e-09
2.49199e-07
-1.80758e-09
-0.00286636
-7.07304e-06
4.19433e-08
-0.00128346
-7.18921e-09
0.000501401
-8.64702e-09
-2.50044e-08
4.64175e-08
-3.05038e-05
3.02985e-08
3.74763e-08
-0.00171957
-2.44561e-08
-1.33121e-07
1.49816e-09
0.000108776
-1.91963e-06
5.04484e-08
1.93214e-08
1.4935e-07
0.000400334
-3.2628e-06
-0.0013248
-1.62819e-09
-3.61827e-06
2.6606e-09
2.87737e-07
1.41857e-07
7.72224e-06
-5.2702e-09
8.33995e-09
-3.26608e-08
-8.63878e-10
7.94777e-07
-6.21548e-09
-3.45869e-09
-3.91828e-09
1.15944e-07
-3.68209e-07
-8.96476e-07
1.365e-07
3.89107e-09
2.34315e-07
7.47935e-06
1.6439e-07
-4.96935e-05
9.84741e-08
7.94653e-06
-8.95541e-09
-0.00104896
-1.72776e-06
3.41226e-09
-1.82159e-09
1.03172e-08
9.69113e-10
-3.99261e-06
0.000838903
6.00562e-09
-1.00656e-08
-0.00233869
-0.000892091
1.87177e-08
0.000251387
-0.000249242
-7.08983e-06
-2.6637e-08
1.04402e-05
-2.22823e-06
-0.000967058
-1.03055e-08
0.00521129
-9.57559e-09
-2.11236e-07
-1.46579e-07
2.66187e-09
-3.5316e-08
3.8845e-09
-5.91516e-09
1.30514e-06
6.60258e-05
-0.000872481
7.67436e-05
5.28388e-09
5.54768e-09
8.0162e-08
-3.83374e-08
3.66856e-08
-0.000353514
1.13802e-05
-3.00821e-09
-0.00693453
1.87768e-08
0.00529501
0.000134612
3.66775e-09
-0.00123666
8.54899e-09
5.01268e-09
0.00106214
1.97119e-06
-2.61843e-09
9.94719e-08
-2.49904e-09
-1.25753e-08
-5.86567e-09
2.32065e-09
-0.00707675
0.00188124
-5.98457e-09
2.43714e-07
-6.39563e-10
1.91905e-09
0.000283908
-0.000484935
-3.92894e-08
8.84143e-07
-1.67588e-06
-0.0030981
0.00446855
6.38717e-08
5.95681e-09
-0.00203382
-1.51369e-06
1.92317e-08
-1.2546e-08
-0.000592417
-0.000263194
-0.000795157
4.55537e-07
-3.01278e-08
0.00127672
1.44304e-09
-6.12488e-08
-3.13809e-07
-9.30041e-09
-0.000427623
-8.24182e-08
-8.77842e-07
1.0301e-09
-1.02954e-08
6.96019e-07
-5.88655e-09
-4.03301e-09
-0.00151958
-0.000282792
-1.4187e-06
-1.98379e-07
-2.05905e-06
-1.86094e-06
-0.0022881
-7.21296e-05
-1.30127e-08
1.72803e-08
-1.27922e-07
-0.000671293
4.26432e-07
5.47018e-08
1.33342e-09
-2.46002e-10
9.49813e-08
1.63873e-08
5.14218e-09
7.5286e-08
-3.01012e-09
5.41924e-07
-5.7141e-09
-9.9681e-07
-0.000315787
-2.44928e-06
-3.5663e-07
-0.000507597
-8.76148e-09
3.61313e-05
-2.64887e-07
-0.000182492
-1.23676e-08
7.11695e-06
-4.1321e-06
-9.65129e-09
-7.02781e-07
8.45813e-08
-2.33219e-09
-9.27689e-08
3.16999e-08
-0.000161198
-8.17045e-09
4.14549e-07
2.71446e-09
1.09945e-07
4.24213e-08
7.7269e-09
1.67525e-09
-5.22712e-09
-5.88655e-09
-2.93143e-06
-0.021773
4.52568e-10
-0.000383642
4.07087e-06
0.000920104
-1.00033e-08
6.31552e-09
-0.00557097
1.30548e-09
-4.58525e-08
-0.000298417
1.18308e-10
1.63365e-08
-7.08769e-08
-2.77177e-06
2.12093e-06
-0.000531349
-0.000655298
-5.07234e-09
-3.41093e-08
0.000738679
2.03458e-09
-4.97389e-07
-1.25388e-07
6.33112e-08
4.47047e-07
-0.00726291
-0.00487811
-3.80923e-06
2.00313e-07
-8.68306e-07
-0.00710205
-0.000401104
-1.48595e-07
-2.15207e-08
-0.000257413
-6.95652e-05
1.92016e-05
0.000614167
-0.000140364
-1.26451e-08
2.04425e-05
9.51473e-08
-1.44571e-08
-1.08561e-09
1.68862e-06
0.00474332
2.96108e-07
-0.00154978
-0.00102889
4.47908e-08
1.44438e-08
0.000585274
2.28253e-05
-4.24943e-07
5.72675e-07
-9.92053e-09
-1.63869e-05
-0.000479843
0.000232648
3.76561e-08
-4.24549e-07
-8.13263e-09
-3.48011e-07
-5.24787e-07
-5.07761e-09
-4.37894e-07
-0.0158295
1.66651e-08
4.94306e-07
-1.31e-05
3.04176e-07
-1.39616e-08
2.70227e-08
1.77281e-09
1.35449e-07
-0.000270879
1.45289e-06
-0.000913993
0.000438586
1.0962e-06
4.34846e-10
9.4113e-09
1.46093e-06
-2.71265e-08
-0.000148719
-0.000456058
-2.35864e-07
5.50708e-08
-2.90745e-05
0.000407665
1.88755e-07
7.72676e-08
-1.77181e-09
0.00075897
-5.50972e-10
-0.00172426
0.000320367
2.00725e-09
-1.07588e-07
-1.99122e-08
1.09556e-09
-1.01619e-08
-1.39546e-08
6.26409e-09
6.99088e-09
-8.10362e-06
7.15737e-09
-1.07901e-07
-1.78255e-07
-7.92494e-07
-0.000368838
1.97381e-08
8.721e-06
1.75443e-09
-1.20834e-08
-8.27494e-07
-3.26459e-09
-5.82099e-09
-1.02412e-08
-1.8255e-08
-2.8777e-09
-0.000344284
-8.95959e-05
4.96092e-09
2.83633e-07
0.000674146
-3.56954e-06
-0.00456213
-7.10772e-08
3.93883e-10
-3.81778e-09
1.91133e-06
-6.15272e-05
8.31993e-09
-0.000461373
-1.31253e-08
-6.83019e-08
-1.13139e-09
-7.41357e-05
-1.38629e-08
6.31397e-08
-1.23761e-08
-3.67891e-08
1.35896e-05
0.000281296
1.88777e-08
-6.03412e-09
-1.59439e-07
2.85342e-09
-0.00052959
1.89383e-06
4.0129e-09
9.6278e-09
0.000362917
-0.000295846
-0.000332631
8.94478e-07
3.68903e-05
2.0913e-07
1.36405e-06
3.02429e-09
-4.487e-09
-0.00246389
-2.16783e-07
-3.48208e-09
1.10586e-06
-2.19155e-07
-2.36203e-09
5.6875e-07
-8.02207e-09
2.06653e-07
-1.90248e-10
2.78674e-09
5.78877e-08
7.0501e-07
-1.16758e-07
3.83528e-10
7.273e-07
1.56601e-06
5.57057e-08
-4.83271e-05
-1.99875e-08
0.0135066
-5.74425e-07
1.81045e-09
2.62376e-07
-0.00125944
2.12231e-06
-9.33333e-09
-1.94491e-09
-1.0664e-07
3.6975e-07
2.2211e-09
0.0013771
4.53353e-07
3.36378e-08
-2.71562e-08
0.00136611
-0.00362672
-8.40649e-09
-1.23362e-08
1.80165e-06
-1.00286e-08
2.83438e-09
6.36918e-07
0.0136353
-2.09256e-08
7.62086e-06
-0.00155608
2.12343e-07
-1.03661e-08
-1.77746e-06
2.72112e-07
1.7806e-10
7.65823e-06
0.000101729
-4.76772e-09
-0.000578117
9.52732e-11
-4.90099e-09
-0.00141978
6.37352e-09
7.53936e-09
5.94581e-06
1.03713e-07
9.54898e-06
-1.17387e-08
3.91145e-08
5.83677e-09
3.1006e-08
-9.33212e-07
-0.00130963
-1.60244e-06
-2.17447e-10
1.0438e-07
-3.1016e-09
1.47282e-07
0.000628017
1.46336e-07
-1.88176e-09
1.11162e-06
-0.000222157
0.00123552
8.62766e-08
-1.60775e-06
-0.00106932
-1.14069e-07
-6.33284e-09
0.0032066
-5.97703e-09
-0.000258014
4.17484e-08
-0.000174745
-3.22755e-09
-1.71844e-07
-6.94914e-08
4.21133e-07
6.08103e-09
3.38253e-08
7.04573e-09
-1.55204e-08
-0.000126041
-8.9522e-09
-3.70279e-09
-2.94133e-08
-0.00360135
-0.000168955
-0.000240553
-1.36452e-07
-0.000371263
1.96263e-09
2.1688e-06
8.36591e-07
-2.16817e-06
-0.000232214
5.36017e-09
2.3782e-08
1.58904e-08
-0.00102964
-7.12107e-09
2.88267e-07
3.29817e-07
4.09824e-08
5.23836e-09
-0.000448818
-0.000290706
-1.62814e-06
-1.45337e-09
1.70658e-08
1.99645e-07
0.000322126
-1.48042e-08
1.80841e-08
1.28534e-08
-5.85297e-09
6.67779e-09
-3.61985e-09
-0.000167489
-3.2238e-09
-7.13121e-10
5.67362e-06
-4.40303e-10
4.94008e-08
0.000535812
-0.000522266
-1.23427e-08
1.95345e-09
-0.000205119
1.22707e-07
-6.70722e-08
-3.3553e-08
-4.25421e-05
-7.95071e-08
-0.000839505
1.58314e-07
-0.000924372
0.000196603
-7.9817e-07
5.07874e-07
6.38141e-05
1.89229e-06
-2.18152e-08
-3.26229e-08
1.38163e-06
-1.46988e-08
-8.33922e-07
-0.00917661
-2.56278e-08
0.000202899
-4.28815e-07
0.000341293
-5.1465e-05
-0.00228778
0.00113442
1.38911e-08
8.2383e-09
7.56306e-08
-3.11985e-07
1.8706e-09
-6.48808e-08
0.00122269
-0.00453012
0.000220104
-3.84315e-07
7.4587e-08
-7.42184e-08
-1.86544e-09
0.000896706
-2.27128e-09
0.000874501
-2.21798e-08
8.12576e-09
-0.000838909
-4.5288e-07
-4.97543e-09
-0.00156879
6.02776e-09
1.65153e-07
-2.35117e-07
0.000124771
-0.00232213
-3.11489e-08
1.02904e-08
-0.00052484
2.5683e-09
9.71403e-07
-1.23452e-08
-1.00445e-09
-2.91257e-05
-1.68593e-07
-1.99067e-06
-8.33933e-09
4.82458e-08
9.54149e-10
1.1658e-07
1.8458e-06
3.92191e-06
-3.66336e-08
-0.00043785
9.19663e-09
-2.23046e-09
1.76292e-07
-3.57023e-07
-6.02515e-06
-2.30833e-07
-1.95099e-08
2.17698e-09
1.24071e-06
-2.20539e-09
0.000792846
-0.000541936
-5.81584e-10
7.66742e-10
1.88333e-07
2.58307e-06
1.23245e-06
9.75506e-07
2.1346e-08
8.91787e-08
5.72244e-09
4.71885e-07
-6.50746e-07
-3.47346e-07
0.00126211
-0.0001535
-8.18799e-09
2.34295e-07
-3.69393e-08
-9.34553e-09
3.84912e-08
-9.11133e-09
-1.38191e-09
-3.88795e-10
2.01427e-08
8.79357e-10
0.00096814
6.35998e-08
1.42127e-05
-1.00926e-08
1.39666e-08
8.19891e-06
2.94368e-07
0.00030734
-0.00190972
4.57611e-08
-2.33207e-08
-9.25177e-10
4.97541e-11
-5.63574e-09
-0.000813581
-1.1941e-05
0.0125647
-1.2777e-07
-2.63542e-08
-9.69535e-09
-5.81783e-09
8.50952e-06
-0.00190901
2.1265e-06
-0.00453654
-0.00151595
4.06982e-08
4.07559e-05
-1.23145e-08
1.60893e-07
1.85225e-05
9.61325e-09
-2.43004e-07
6.70627e-09
4.36034e-07
0.00486024
-2.08582e-08
-6.33926e-09
5.78818e-07
8.39736e-07
5.09138e-09
1.21475e-09
8.5861e-06
-9.07511e-10
-7.36263e-09
-3.47215e-08
4.72957e-06
-1.75801e-09
6.75962e-08
1.8693e-08
6.3697e-07
-0.00128924
-0.000522094
9.90423e-05
-0.00136358
1.06265e-07
0.000982682
-1.99929e-05
-9.46541e-05
1.90091e-08
5.84924e-06
-6.48728e-08
0.00494868
-0.00113615
-5.94163e-08
-0.0292245
7.87469e-06
4.96454e-09
1.01656e-06
-7.42452e-08
-9.14787e-08
0.000282345
-3.44993e-08
5.34737e-08
0.000313578
-4.91337e-08
-1.21946e-08
-2.28468e-07
-0.00044737
1.22315e-06
-1.26694e-08
-1.31947e-09
2.29454e-09
1.01965e-08
-8.17985e-07
0.000301764
1.81462e-09
7.37168e-08
-0.00386146
-0.00111071
-1.93799e-09
2.72728e-08
9.99642e-07
-0.00989654
-5.0969e-09
2.10784e-08
-3.82888e-08
6.05526e-07
3.61108e-09
-1.28549e-08
-6.01695e-09
7.12165e-07
0.000568095
-8.70748e-05
8.93364e-07
5.95149e-09
-6.65809e-10
1.23182e-09
-9.05496e-09
1.21624e-06
4.77672e-07
5.63191e-09
2.16479e-06
1.63119e-07
3.10703e-09
-9.22801e-09
-1.60807e-08
-9.18712e-09
-4.32294e-09
-0.000526245
-8.19117e-05
-0.000317777
-0.000126791
-8.21667e-07
-2.50109e-09
3.87716e-09
-2.43762e-09
3.12734e-09
1.14162e-06
7.76229e-07
-7.25319e-09
-2.28635e-08
1.24922e-08
4.91347e-08
-6.72805e-10
1.68801e-08
-4.80598e-08
-0.00130236
-5.78688e-07
5.06146e-09
8.77224e-08
-8.7722e-09
-1.91118e-09
-7.82349e-09
-8.58655e-07
5.5264e-08
4.77215e-09
2.82929e-06
3.83249e-06
0.000510752
3.87593e-09
-1.40489e-08
4.11529e-07
-0.0275585
1.39604e-08
1.85294e-06
7.78725e-08
-0.001785
6.734e-06
7.76548e-08
0.00144703
-0.000128029
2.22079e-08
-1.36567e-09
-4.91632e-09
-3.74403e-07
4.28287e-08
-0.00119563
5.29037e-09
-1.28828e-09
5.87841e-09
2.09809e-05
-3.54029e-07
-0.000450909
-1.91314e-07
6.29838e-06
8.50446e-08
-0.00037903
-0.000807026
-4.75819e-06
1.06419e-08
-2.26427e-08
8.71136e-10
-2.00006e-07
3.68466e-08
-0.00192233
0.0125698
1.01131e-09
-4.02363e-05
-1.08164e-07
5.54941e-07
-1.02709e-08
4.31219e-08
-2.34944e-06
-5.76474e-10
3.17149e-09
-2.40718e-09
-1.22538e-08
-1.76126e-09
-0.001908
9.61383e-06
-3.99867e-06
1.34501e-08
-5.4878e-09
-3.03836e-07
1.55758e-09
2.3806e-08
-1.02373e-08
-0.000497655
-9.70948e-07
1.41461e-09
-0.000430578
-0.000950644
0.000438871
0.00136821
1.33059e-08
-0.0008931
-7.62526e-07
-3.16632e-05
-2.49333e-08
-2.47123e-06
-3.61858e-06
-6.24561e-10
6.4838e-09
9.32272e-05
2.67118e-06
4.84357e-09
1.87135e-06
-7.69872e-08
-4.6595e-08
-0.00203126
-0.00062077
0.000439117
2.94251e-06
-0.000124823
5.83463e-08
1.00236e-08
3.03943e-09
1.10571e-08
-1.42779e-06
1.62406e-07
-4.05493e-09
1.10789e-06
-9.87301e-05
0.00147761
1.83899e-06
-0.000196867
-0.00399985
8.5431e-08
4.89476e-09
4.81657e-07
5.20903e-05
5.26181e-09
-4.28057e-08
5.96392e-06
-1.24074e-06
-3.62113e-09
3.85916e-06
-2.62817e-07
0.000377946
4.61979e-07
0.00141764
2.82727e-08
-1.84406e-05
0.000296022
-0.000306817
-2.0608e-07
3.07418e-07
-0.00062653
-0.00272204
4.60391e-05
-0.00202939
-7.74378e-09
0.000121475
0.005217
1.35248e-07
6.3072e-09
0.000428051
-2.77665e-09
3.97071e-08
-3.922e-07
-0.000209042
-7.85634e-09
1.09577e-09
1.32329e-09
4.52468e-07
1.32142e-07
-2.58815e-07
-1.23654e-05
-5.25784e-07
-9.95973e-07
-2.29184e-07
-8.87343e-10
-7.83194e-12
2.19202e-05
4.90498e-09
4.70951e-09
-0.00196286
1.6009e-06
-0.000388081
-2.6179e-08
3.27176e-06
-0.00202051
2.19298e-06
8.7884e-05
-9.09575e-09
-1.07762e-08
0.000657264
1.07995e-09
6.34741e-08
4.30523e-06
-2.67269e-06
-0.00179885
-1.42543e-08
2.62778e-09
-0.00160434
4.9748e-09
8.70338e-08
4.49621e-09
-5.26559e-09
-3.54193e-10
2.0067e-09
3.81142e-09
5.77513e-07
1.39026e-07
-6.83275e-07
-6.36621e-10
1.84244e-09
8.1165e-08
1.9663e-08
-1.7742e-07
1.55519e-06
4.39582e-09
-5.98257e-09
-2.42377e-08
-0.000502433
-1.96234e-08
-1.09464e-08
2.57649e-09
-0.00191816
-9.06288e-09
-0.000526923
-5.31089e-08
-4.20048e-08
0.00640069
-2.82318e-08
-1.03957e-08
-4.86511e-09
1.30789e-08
-1.6091e-09
-9.74362e-10
-1.16875e-07
-3.12912e-09
1.74638e-06
6.44526e-07
3.04722e-07
6.08364e-08
-2.13593e-08
4.17162e-07
-2.20714e-07
1.01737e-06
3.02022e-08
-0.000496255
1.50716e-06
1.02443e-08
-2.54168e-08
-1.32717e-08
6.38005e-05
0.00105731
2.05809e-05
-0.017432
3.9018e-06
5.83478e-07
4.70296e-09
1.81102e-08
-1.85472e-07
2.82842e-08
-3.5398e-10
1.05205e-09
7.85453e-09
-9.85443e-11
4.92747e-10
4.75584e-05
3.10165e-08
-1.36769e-08
-6.4096e-06
-1.11469e-06
-1.57301e-10
-2.11813e-08
2.716e-09
1.64612e-08
-1.72584e-05
-2.15253e-08
1.93072e-09
-3.75245e-10
1.9097e-06
-5.73572e-08
-1.48248e-08
-3.65846e-08
-9.65382e-07
-8.85616e-09
2.56372e-07
-2.45794e-06
-0.0014167
-1.18424e-08
-9.78441e-06
-1.01865e-08
-1.17853e-08
-1.19865e-08
5.15886e-08
2.50786e-07
2.12073e-08
8.95733e-08
-5.16413e-10
2.6929e-08
-5.963e-05
-0.000429219
-3.20147e-10
-8.13575e-07
-1.07889e-06
9.90764e-08
4.72035e-09
1.50486e-09
2.57797e-06
1.01417e-05
-5.02749e-09
2.22504e-09
-1.75335e-08
-0.00029687
8.94609e-07
7.5327e-09
-1.13031e-08
0.00543272
2.16018e-07
-3.1831e-08
-9.39143e-07
3.53867e-06
0.00129292
4.96016e-09
-0.00299338
-1.17344e-08
-4.63224e-08
4.04909e-09
9.15277e-07
1.33249e-05
2.66677e-08
-1.21304e-08
-6.16838e-08
-1.16383e-06
2.17662e-08
-0.00461803
0.000433883
-5.28647e-08
1.4152e-09
-9.55003e-07
-7.34641e-09
-1.31918e-05
-3.62146e-06
-0.00115217
-1.84624e-07
-1.00286e-08
-7.30681e-09
-0.00536718
-7.81781e-06
-6.45496e-10
-0.0302435
-3.86388e-08
6.65003e-09
-0.000138984
4.53992e-10
-1.06122e-06
-1.97951e-05
-0.000111776
-0.00162821
4.54305e-05
-3.37968e-08
0.00012052
-8.89732e-07
8.49265e-05
-6.19459e-07
-1.53752e-06
-1.05009e-08
-0.00148114
1.03603e-06
-0.000240943
-3.49998e-08
1.0987e-08
-3.40177e-07
2.10645e-08
-1.80078e-05
0.00105755
9.86382e-09
7.51969e-07
0.00120812
3.02254e-08
-1.10023e-08
-1.33944e-08
-8.38833e-07
2.84133e-09
-0.000126882
2.70481e-09
-2.53246e-09
-8.37495e-05
-0.000357034
-2.28425e-05
6.91137e-09
-6.88304e-09
-8.38513e-08
-8.494e-09
-2.11325e-05
-7.79688e-10
-1.04209e-08
-6.20685e-06
1.40663e-06
3.84819e-09
1.86524e-06
-2.63608e-07
-4.76835e-06
-1.41108e-07
-1.25175e-08
-9.39886e-06
5.2996e-07
-8.13448e-09
-1.89966e-08
1.0385e-07
-3.44937e-09
3.72715e-06
-5.11777e-09
-0.00313771
2.34987e-05
1.98931e-07
0.00351019
-2.09958e-07
8.98209e-07
0.000976429
7.99017e-07
-0.000813493
1.03616e-07
-1.50822e-05
4.04465e-09
5.70149e-10
4.82007e-09
4.99235e-09
-4.59383e-08
-1.89878e-08
-1.74182e-10
-7.49308e-08
-9.70809e-07
1.14032e-07
6.73766e-07
2.84052e-09
4.88476e-09
8.92476e-08
2.96143e-06
-3.44582e-08
-6.16678e-06
2.44042e-09
7.78314e-10
-8.91458e-09
9.44285e-06
-0.000617603
1.37068e-09
-1.03421e-08
-4.91434e-09
-0.000306942
2.40661e-08
-4.74812e-08
-1.8456e-06
9.83076e-08
1.763e-08
-3.2251e-08
6.73318e-09
-0.00117017
-7.80599e-07
-1.07525e-05
5.06167e-05
-0.00175351
1.89615e-08
-0.00497065
4.43862e-09
2.67143e-05
-2.03195e-08
0.000212244
0.000701934
9.63639e-07
-1.14441e-08
-1.15247e-08
-0.00240322
-1.76912e-07
1.30432e-06
-8.35791e-09
-0.00158534
-8.51074e-05
2.48133e-09
-1.62372e-06
-2.11126e-08
0.00527816
-0.000310473
-8.50354e-09
0.000554868
-6.31898e-09
-0.00028792
-7.17958e-08
-3.58852e-07
-0.000220197
-1.65046e-06
-2.33064e-07
-9.3604e-09
2.697e-06
-5.59487e-10
-1.90971e-09
-3.48833e-09
-9.17587e-08
1.70486e-08
-8.982e-07
-8.13772e-09
8.42112e-07
-1.22417e-08
-1.13206e-08
1.21549e-08
-5.69376e-10
4.17391e-10
-9.19867e-09
1.09277e-08
-0.00254346
-8.22055e-08
0.00108394
1.45752e-09
0.000497553
-2.29204e-07
-7.34599e-09
2.82701e-07
2.01585e-08
-2.52262e-07
1.17822e-05
-3.18477e-07
-1.18011e-08
3.0896e-09
-3.9376e-09
-6.04877e-09
3.526e-09
1.85851e-06
-0.000785271
1.97996e-08
2.63901e-06
0.000358511
2.50938e-07
1.77852e-06
-0.000116813
-1.54883e-06
1.44396e-07
-8.05254e-09
1.53141e-06
-1.06132e-09
-0.00361462
1.47822e-08
-2.29068e-05
5.11044e-09
-0.00280129
-0.00152531
1.05411e-07
-1.85344e-06
0.0011195
1.02992e-07
-0.000158928
-1.30965e-06
-2.40018e-08
0.0119429
8.4436e-10
-3.14215e-09
-1.14336e-09
8.88205e-06
-9.3498e-08
-3.56768e-10
4.30519e-09
-0.000632784
-0.00231501
-1.5119e-08
-1.02669e-06
-0.00259813
-0.000183728
0.000444287
1.23629e-09
-4.83552e-07
-0.00160603
-9.34293e-09
-9.38659e-06
2.99769e-07
3.75761e-07
0.00236438
4.85388e-07
-0.00430632
9.85454e-09
1.58613e-06
-3.46952e-10
-0.000575486
-5.03485e-08
-1.29258e-09
-6.16697e-07
3.1856e-08
6.28324e-08
1.80089e-07
-5.36348e-05
1.9626e-08
-0.00480446
1.63303e-07
-1.11961e-08
-3.08752e-05
3.9973e-07
-0.000499939
-0.001909
0.00085893
-0.000100173
-3.03629e-07
-3.03686e-09
-2.22048e-09
1.90528e-07
2.05427e-06
-9.48192e-09
2.15268e-05
1.55888e-07
1.31698e-07
-0.00168067
1.25644e-08
-8.82853e-08
9.92923e-11
2.52477e-07
1.97508e-07
0.00135178
-9.51446e-07
-6.3672e-05
0.00834915
-0.00234462
-1.09856e-08
-2.62906e-08
3.11627e-08
-9.84014e-10
5.41896e-09
-2.08411e-07
9.99509e-10
-5.29365e-10
8.11325e-07
6.44031e-10
2.69422e-07
6.29469e-09
-7.53641e-10
1.73006e-07
-0.00135528
6.39935e-09
-2.68506e-08
-3.23597e-06
-1.12638e-08
1.89945e-08
9.40884e-05
9.81525e-06
-2.68512e-07
2.58056e-09
5.00843e-09
-4.73712e-07
-1.10628e-08
-3.04241e-07
-7.44961e-09
-4.03236e-06
-1.34354e-07
-3.2778e-05
-0.000429486
5.76554e-09
-4.39174e-07
1.18371e-08
-1.9982e-07
0.00021791
-3.29569e-10
-2.2115e-08
-0.000197602
-0.00340019
-7.43764e-07
2.64756e-07
1.04506e-07
6.34297e-06
-0.000166964
-1.59784e-06
-0.000941504
3.53769e-09
1.49567e-06
-8.95358e-07
5.75296e-08
1.87497e-06
-5.77654e-09
6.8222e-08
-6.79429e-07
-1.20037e-08
2.98294e-09
1.16272e-07
-4.93884e-07
-0.0116195
-3.3264e-05
-1.96025e-09
4.35785e-08
-7.93529e-09
-2.83149e-08
-4.92222e-07
-0.000493602
-3.74202e-08
3.84076e-06
-1.22468e-08
-7.69046e-07
-6.74253e-09
-3.46514e-09
5.44434e-10
9.09586e-08
1.14056e-08
-2.52556e-09