/*--------------------------------*- C++ -*----------------------------------*\
| =========                 |                                                 |
| \\      /  F ield         | OpenFOAM: The Open Source CFD Toolbox           |
|  \\    /   O peration     | Version:  v2012                                 |
|   \\  /    A nd           | Website:  www.openfoam.com                      |
|    \\/     M anipulation  |                                                 |
\*---------------------------------------------------------------------------*/
FoamFile
{
    version     2.0;
    format      ascii;
    class       volVectorField;
    location    "400";
    object      ddtCorrDdt0(U);
}
// * * * * * * * * * * * * * * * * * * * * * * * * * * * * * * * * * * * * * //

dimensions      [0 1 -2 0 0 0 0];


internalField   nonuniform List<vector> 
27802
(
(0.00153988 0.00273527 -2.42588e-23)
(7.52213e-07 -2.58783e-06 0)
(0.000517222 0.000217822 2.17871e-22)
(-8.60112e-06 -1.96409e-06 5.08098e-22)
(0.000867833 -0.011396 -2.17401e-22)
(-2.40893e-05 -4.1815e-05 0)
(0.000508107 0.000886752 0)
(-9.14218e-05 -2.49762e-05 1.89455e-22)
(-0.007353 -0.00111526 -5.88116e-22)
(-3.18633e-05 7.1226e-05 -4.21404e-22)
(-9.32979e-06 -4.85893e-06 9.43214e-22)
(0.00454697 -0.000301192 -1.17448e-21)
(0.00130356 0.00238011 0)
(-0.00350302 0.00498707 -1.24449e-21)
(-8.89522e-06 -3.01092e-06 -6.50452e-22)
(0.000402271 0.00102837 0)
(-1.01117e-05 -3.35617e-06 -9.90805e-24)
(0.0039605 -0.00196443 -1.97069e-21)
(-0.0648483 -0.102195 -1.66841e-21)
(-0.00398158 -0.00723306 4.69347e-23)
(1.14673e-06 -2.45537e-06 0)
(-1.15428e-05 3.27697e-06 4.60926e-22)
(0.00184209 0.0028501 2.1298e-22)
(-0.00145891 0.00100361 -4.65397e-22)
(-7.53148e-06 -5.20785e-06 6.62728e-22)
(-6.63333e-06 -2.90515e-05 -1.26118e-22)
(-2.42602e-05 -1.5717e-05 3.77788e-22)
(-3.00837e-05 6.92539e-05 8.4752e-22)
(-7.46964e-06 -5.9046e-06 -6.61104e-22)
(0.02143 0.0417232 1.3053e-21)
(-1.83965e-05 1.7003e-05 0)
(-0.00132889 -0.00272568 -5.06816e-22)
(0.00620459 0.00371612 -2.74378e-21)
(0.0189772 -0.00242033 0)
(0.00746249 0.00395201 3.14019e-21)
(-1.39894e-05 -1.97194e-06 0)
(-0.0261525 0.0104435 0)
(0.0494969 0.0454021 2.31882e-22)
(-1.81653e-05 1.3366e-05 -4.14916e-22)
(-3.04668e-05 1.11962e-05 -3.68214e-22)
(-3.74765e-06 3.44805e-05 5.15322e-22)
(-3.30424e-05 1.54426e-05 -4.78788e-22)
(-0.0183007 -0.0278944 1.56074e-21)
(-0.00654055 0.0198856 -1.38521e-22)
(0.000103227 0.000195685 0)
(-9.31917e-06 3.0167e-06 -8.95456e-22)
(0.000899749 -0.00763813 0)
(-1.87084e-05 -7.11803e-06 -7.71811e-22)
(-5.34149e-05 3.24119e-05 3.22305e-22)
(0.00460701 -0.0116441 2.41598e-22)
(-0.000255339 -2.61255e-05 0)
(5.42312e-05 0.000230043 -1.8347e-22)
(0.029908 0.00695835 0)
(2.79447e-06 1.98193e-06 1.59065e-22)
(4.18601e-06 -2.93691e-05 5.82407e-22)
(-2.97007e-06 -5.44812e-05 1.68336e-22)
(0.00663146 0.000250258 -9.67328e-22)
(-0.00381335 0.00418041 -4.1818e-22)
(0.000470742 0.000850494 1.27126e-22)
(0.00216639 0.000864787 -9.58033e-22)
(-1.39312e-05 -1.50766e-06 0)
(0.000558706 0.000690126 -5.81426e-22)
(0.0317679 -0.00529748 3.86724e-22)
(0.00260267 0.0010979 1.01194e-23)
(0.0038818 -0.00219998 1.82021e-21)
(-0.000443478 -0.000626488 -4.91112e-22)
(0.0056146 -0.00118553 0)
(-8.02384e-05 -0.000308931 2.2864e-22)
(0.000856435 -0.0195723 0)
(-0.00238439 -0.000391713 -4.71161e-22)
(-1.47066e-05 -6.34697e-06 0)
(-0.00251687 0.000577653 9.31967e-22)
(0.0159106 0.117229 -8.00571e-23)
(-0.00252547 0.00021455 0)
(0.0109553 0.0493436 1.32513e-23)
(-0.000200344 0.000157032 -2.0944e-22)
(0.0540091 0.0327098 0)
(0.00584856 -0.00104465 0)
(0.00322663 -0.0108413 0)
(0.000214533 0.00098776 8.96874e-22)
(-0.00877414 -0.0154942 1.26931e-21)
(-0.0289438 -0.00678894 -2.25254e-21)
(-3.88439e-05 4.53715e-05 0)
(-0.0041979 0.00385151 8.31041e-22)
(-0.000110937 0.000257325 0)
(-5.70285e-05 -0.000120047 -6.30088e-22)
(-5.22331e-06 -7.81875e-06 4.25932e-22)
(1.72534e-06 -3.12063e-05 0)
(-0.00265215 0.000494966 0)
(0.0118606 -0.0114064 1.02142e-21)
(0.00649202 -0.000862645 -2.40012e-23)
(0.000275346 0.000806508 7.28681e-22)
(0.0320839 -0.0110533 -3.42719e-23)
(0.000103127 0.00108904 -8.9515e-22)
(3.34332e-06 2.29623e-06 1.08243e-22)
(-1.98805e-05 5.3629e-06 6.9181e-22)
(2.20416e-05 0.000220672 6.16263e-22)
(0.000673186 -0.0119857 1.62798e-21)
(-2.00024e-06 2.97071e-05 0)
(0.00111106 -0.00719777 0)
(-0.0274739 -0.0118792 0)
(-7.76118e-06 4.78468e-05 -8.89261e-22)
(-9.68655e-05 -2.00971e-05 0)
(-7.42595e-06 1.74351e-06 0)
(0.0117737 -0.0103851 0)
(0.000165632 0.000913025 -1.10202e-21)
(-0.00822792 0.0166328 0)
(-0.00784969 -0.000830486 6.53093e-22)
(-1.44716e-05 -1.11006e-05 0)
(2.32005e-05 0.000469127 -2.08769e-22)
(0.00100483 -0.000340521 6.50269e-22)
(-8.49761e-06 -1.36304e-06 9.50189e-22)
(-9.54345e-06 5.0145e-05 6.71693e-22)
(0.0341084 -0.012801 1.1619e-23)
(2.7728e-07 -9.55805e-06 3.72853e-22)
(-0.0200989 0.00798301 -1.23767e-21)
(0.000209975 -0.000690761 1.51026e-22)
(-9.34023e-06 3.7601e-06 -5.94897e-22)
(-9.29373e-06 0.000175761 0)
(-0.00414988 -0.00636846 0)
(0.00249638 0.00259525 -3.09753e-23)
(0.00632207 -0.000491913 1.01264e-22)
(7.64485e-05 0.000327215 1.28741e-21)
(-5.58784e-06 -6.9351e-06 -5.93931e-22)
(-1.47504e-05 -1.8584e-05 -4.11425e-22)
(-0.00461182 -0.00497169 5.04391e-22)
(0.0188882 0.00983369 -3.62081e-21)
(0.0264255 -0.0113573 2.71262e-22)
(0.00383892 0.00198967 1.28815e-21)
(0.0025989 0.00244245 1.32875e-22)
(-9.46248e-05 -3.08451e-05 4.82601e-22)
(7.10491e-05 0.00032431 -1.08886e-21)
(-0.00152069 0.000853709 -1.77308e-24)
(-2.95187e-05 6.50031e-05 0)
(-5.49803e-05 4.30681e-05 3.35317e-22)
(-2.01321e-05 -0.000236539 -3.37603e-22)
(0.000277631 -3.41103e-05 4.33614e-22)
(-4.16687e-05 9.34127e-05 -4.94493e-22)
(0.00918104 0.00321297 0)
(0.000438838 0.00618018 0)
(-0.000111572 -0.000228827 -2.42696e-22)
(-2.4772e-05 -2.11781e-05 -6.03571e-22)
(-0.0037222 -0.00536891 -3.12954e-23)
(8.14315e-07 -3.07438e-06 0)
(4.19085e-07 -6.94145e-06 0)
(5.2082e-05 -7.782e-05 3.19252e-22)
(0.000276737 6.65571e-06 -7.82319e-22)
(4.19867e-06 0.00011147 -1.1051e-22)
(0.000151214 0.000211275 3.60265e-22)
(-0.00145237 0.000663511 0)
(-1.05511e-05 -4.04527e-06 -1.05109e-21)
(-1.81248e-05 -9.6341e-06 2.8114e-22)
(-5.93571e-05 0.000129658 -1.85736e-22)
(-8.93217e-05 -0.000344724 -2.36489e-22)
(-0.00344706 -0.006002 7.86103e-22)
(-5.60016e-05 2.33149e-05 -5.56646e-22)
(0.0198809 -0.0109581 1.28433e-22)
(-0.00275888 0.00230223 0)
(2.34117e-05 0.000459166 0)
(0.00664945 -0.00118437 -2.63164e-22)
(0.0177117 0.0113861 6.50907e-22)
(-0.00265098 0.000349803 0)
(-4.30839e-05 -0.000125608 4.54078e-22)
(-1.28756e-05 0.000174858 -2.21801e-22)
(-1.02445e-05 -1.2749e-06 2.58689e-24)
(-2.88329e-07 -7.13761e-06 -4.92775e-22)
(-9.73814e-06 3.59995e-06 3.10328e-22)
(4.94898e-07 -6.46195e-05 -1.72053e-22)
(-3.86459e-06 3.03503e-05 3.69401e-22)
(-0.00461753 -0.00778871 -9.0798e-22)
(-8.94087e-06 2.49115e-06 1.05263e-22)
(0.000264294 -0.000655974 -5.61938e-23)
(-7.81658e-06 -7.57673e-05 -2.41365e-22)
(-0.0252974 0.0347588 4.06881e-23)
(-1.9353e-05 6.6917e-06 1.16038e-22)
(0.00348232 -0.00345178 -4.93206e-22)
(-9.09391e-07 -6.08335e-06 3.31107e-22)
(-0.000128829 0.000320771 3.40119e-22)
(1.58425e-05 0.000204896 0)
(-0.0258193 0.0138807 0)
(-0.00138084 0.00108562 -5.69647e-22)
(-0.000586049 -0.00208846 -3.95316e-22)
(-0.000750222 0.000196274 -1.36848e-22)
(4.71621e-05 -7.29264e-05 8.29492e-23)
(2.82386e-06 -8.52906e-05 0)
(0.000910583 0.00133403 0)
(-5.4727e-05 1.72365e-05 0)
(-3.24553e-06 1.22779e-07 0)
(0.0132326 0.00717838 0)
(0.0253964 0.00023989 -2.25299e-21)
(-5.10273e-06 2.76191e-06 -4.60162e-22)
(6.05213e-05 0.000600604 -3.27107e-23)
(0.00160998 0.00200735 0)
(-5.63465e-05 8.36784e-05 2.53671e-22)
(1.53245e-05 -6.15931e-06 0)
(-3.07699e-05 8.67922e-06 5.65935e-22)
(1.5869e-05 -7.23694e-06 1.54781e-24)
(2.13697e-05 0.000152893 0)
(-1.16843e-05 3.09034e-06 3.49158e-22)
(-2.01327e-05 -2.75256e-05 9.74649e-22)
(0.00601297 0.00417248 -4.0339e-22)
(0.0516674 0.0332061 7.4784e-22)
(0.00146903 0.0266276 -2.07751e-21)
(-0.000142183 -0.000355218 -3.46173e-22)
(-1.41393e-05 -1.28167e-05 -3.19324e-22)
(5.99695e-05 0.000333087 -5.95261e-22)
(-5.52663e-05 0.000124261 1.55414e-22)
(0.00619938 -0.0143851 1.72116e-22)
(8.6735e-05 5.05691e-05 0)
(0.00225825 0.0010089 2.84624e-21)
(-1.2661e-05 4.71973e-06 -6.5819e-22)
(0.029136 0.0212001 1.33757e-21)
(0.00390694 -0.00357022 -4.25363e-22)
(-0.000140728 0.000316913 -2.90265e-22)
(0.0142926 0.00682281 -1.02612e-21)
(-1.90675e-05 4.34269e-06 3.25701e-22)
(0.0330524 0.00872229 1.64031e-22)
(-8.41387e-05 0.00107218 2.71098e-22)
(-2.00579e-05 2.31594e-06 -2.50119e-22)
(2.23701e-05 -7.67346e-05 1.00445e-21)
(0.00394973 0.00198295 -1.12165e-21)
(-1.05178e-05 1.20905e-05 0)
(0.000811534 0.00141921 5.06745e-24)
(0.002616 0.0175181 -2.44811e-22)
(1.65505e-05 -8.39338e-05 -1.01776e-21)
(-5.03353e-05 7.67311e-05 8.16129e-22)
(-3.49011e-05 5.68189e-05 -1.6739e-22)
(-4.9647e-06 0.000626832 2.98568e-23)
(-9.47539e-06 3.88698e-06 0)
(-6.0953e-06 4.2876e-05 5.63049e-22)
(-9.61914e-06 1.38215e-05 -4.64901e-23)
(0.00245289 0.000669817 1.35984e-21)
(-1.97718e-05 9.59079e-06 -1.25703e-25)
(-0.000218982 0.000502023 8.01306e-22)
(-0.0556155 -0.0919694 0)
(0.000915279 0.00657796 -7.47495e-23)
(-6.5575e-06 -5.01636e-07 0)
(0.00553317 -0.0138668 -2.93982e-22)
(0.00712272 0.00341168 7.33906e-22)
(0.00325164 0.00136283 0)
(-6.65804e-06 8.29707e-05 -8.69355e-22)
(-0.0743755 -0.0227735 -9.10503e-22)
(-0.0747771 -0.0141202 0)
(-1.25516e-05 -5.47171e-07 -1.38421e-22)
(-9.80289e-06 1.497e-07 2.68107e-22)
(0.00550184 0.00324176 0)
(-3.34594e-06 0.000134166 0)
(0.028591 0.0105103 -1.6256e-22)
(-0.000158686 0.00095424 5.60727e-23)
(0.000432148 0.000239275 -6.1996e-22)
(0.00117013 0.0363885 0)
(-0.000598096 0.000506032 -3.45775e-22)
(0.00109445 0.0033383 -2.35402e-22)
(-1.17034e-05 0.000104401 0)
(-9.68886e-06 -1.04953e-06 -4.87953e-22)
(2.148e-05 -8.48285e-06 -3.26912e-22)
(-7.68412e-05 0.000203338 2.68634e-22)
(-0.0364274 -0.0148773 1.50091e-21)
(-0.000124253 -0.000380575 2.91335e-22)
(1.74734e-05 -8.23002e-06 -1.01567e-21)
(-0.000636734 0.000500059 3.47287e-22)
(-9.43229e-06 4.87348e-05 0)
(0.00515128 -0.000311574 -2.95586e-21)
(7.25905e-05 5.56267e-05 5.99774e-24)
(0.00574301 0.0027441 9.79907e-22)
(-0.000106355 0.000315117 -1.24085e-21)
(0.00525902 0.0042298 0)
(-7.28597e-06 4.61348e-05 -1.56859e-22)
(-1.1495e-05 9.49446e-06 0)
(-1.85682e-05 1.12926e-05 -1.3632e-22)
(-0.00276823 0.00248809 -2.54062e-22)
(-1.54995e-05 8.29402e-06 0)
(-0.000255167 0.00617206 0)
(-0.0418253 -0.0385059 -2.69475e-21)
(-5.38062e-05 8.12162e-05 -7.46517e-22)
(-0.00518485 -0.00188541 1.96006e-21)
(-7.75064e-06 8.25397e-05 0)
(1.54809e-05 0.000494596 -8.52632e-22)
(-0.00011724 0.00030826 8.89961e-22)
(-9.66913e-05 0.000176861 0)
(0.0284059 0.0188965 0)
(-0.000157468 0.000490315 3.47381e-22)
(-0.000459379 3.95424e-05 0)
(-0.00244774 0.014451 0)
(0.0188438 -0.000692868 -1.32197e-21)
(0.0205753 0.0508659 -1.40123e-21)
(-0.0351068 -0.0222967 -1.51948e-21)
(-1.58464e-05 -1.88554e-05 1.29562e-24)
(-0.0002969 -9.34963e-05 -5.2601e-22)
(-5.69102e-07 4.13515e-07 5.59422e-23)
(-7.93337e-06 1.64945e-05 0)
(0.0164273 -0.00272323 5.49972e-23)
(3.04794e-05 -4.55779e-06 5.23864e-22)
(0.00585451 0.0648431 -4.16461e-22)
(2.85172e-05 -2.75035e-06 0)
(0.0105719 -0.0032161 -1.22976e-22)
(-0.0190769 0.00965136 2.85117e-21)
(-8.00174e-05 0.000296705 2.3192e-22)
(0.00198958 0.00127531 0)
(-0.00881321 0.0362326 -7.985e-22)
(-0.000558331 -0.000598705 0)
(3.2912e-05 -6.78055e-05 0)
(0.00316281 -0.00214368 -3.43323e-22)
(0.00658879 -0.000749583 2.99276e-22)
(-0.0489152 -0.0883605 -1.14246e-21)
(0.00999527 0.00258244 -3.20862e-22)
(-9.83902e-06 4.81128e-05 -1.33363e-22)
(0.00579438 0.00214912 2.3169e-22)
(0.000870085 0.00278664 0)
(-8.00975e-06 9.4344e-05 0)
(-0.000434498 -0.00105821 0)
(0.000747793 0.00165672 -6.68564e-22)
(0.000537255 -0.000310847 2.30807e-23)
(-3.01833e-05 6.70485e-05 0)
(0.00553806 0.0012337 2.50157e-22)
(-1.2438e-05 3.26163e-06 2.62658e-22)
(-0.000527051 -0.00107504 1.44528e-22)
(0.00131773 0.00288615 0)
(2.63456e-05 0.000432553 1.07638e-22)
(-0.00352954 0.0055039 -5.07002e-22)
(-1.34168e-05 2.21039e-07 -1.26831e-22)
(-1.44219e-05 -1.15307e-05 3.50086e-22)
(-9.1652e-06 4.10093e-06 -1.8772e-23)
(-0.00033443 -0.000140021 -6.79786e-22)
(-0.00580458 0.0258769 0)
(-0.00150646 0.000367299 0)
(0.00504751 -0.000221292 2.86172e-21)
(-0.00162144 0.000191522 -2.59232e-22)
(-1.43261e-05 -1.35667e-05 -3.52313e-22)
(-0.000308912 0.000454081 -3.18851e-22)
(0.000213543 0.000267771 4.0786e-22)
(0.00888634 -0.0204881 -1.00221e-21)
(-0.00594477 0.0470648 0)
(-0.0254025 -0.0231414 -7.82847e-21)
(0.00134103 0.0178426 -9.45416e-23)
(-0.0214784 0.0357821 0)
(0.000595623 -0.000359261 -1.74877e-22)
(-1.57627e-06 -3.62661e-05 0)
(-0.000352299 0.000639106 1.38776e-21)
(-1.61918e-05 6.11497e-06 0)
(-9.89737e-06 4.31763e-06 -7.00996e-23)
(0.00419274 -0.00151545 -1.35276e-21)
(0.0513483 0.0867671 0)
(0.00456253 -0.0134811 -2.66955e-22)
(-0.00173533 -0.00244691 0)
(0.0817548 -0.00516991 0)
(0.00189956 -0.00798349 2.88092e-22)
(-0.0414782 0.00404369 -8.72389e-22)
(-0.000344975 0.000945722 -5.822e-23)
(0.0164312 -0.0111745 -7.45753e-22)
(3.61321e-05 6.27199e-05 4.92441e-22)
(0.00101258 -0.0087945 -7.95952e-22)
(-1.50195e-05 -1.8545e-05 0)
(2.536e-05 -1.19969e-05 -9.38686e-22)
(7.66054e-05 -0.000127487 -3.56537e-22)
(0.000323406 8.05357e-05 4.45777e-22)
(0.0285734 0.0166827 1.65028e-22)
(0.0151185 -0.0115832 0)
(-7.8047e-06 3.10324e-07 -6.60449e-22)
(-0.000405429 -3.47064e-05 3.70794e-22)
(0.0108411 0.00870485 1.74425e-21)
(0.0560565 0.0189096 -2.12817e-22)
(-0.000473758 1.36696e-05 0)
(-0.00170077 0.00030204 -1.10849e-21)
(1.20445e-05 -4.65739e-06 0)
(-7.85336e-06 -3.04247e-06 0)
(-0.0384209 0.00268695 7.98964e-23)
(-1.67925e-05 -1.6799e-05 0)
(-0.000179002 0.000484049 0)
(-5.24035e-07 -3.10268e-05 6.97464e-22)
(2.11038e-06 -3.519e-05 -2.31377e-22)
(0.0023814 -0.00841613 -2.75687e-22)
(-0.000125374 -0.00357992 -9.42355e-23)
(-0.00178373 -1.06164e-05 1.09817e-21)
(0.0576261 0.0284738 1.26544e-21)
(0.0056387 0.0039905 9.70035e-23)
(8.95148e-05 -0.00386297 0)
(0.000972765 -0.000207036 -6.17921e-22)
(0.000484844 -0.00129281 1.3439e-22)
(-8.60052e-06 -3.79038e-06 2.96405e-22)
(-2.84653e-06 1.01199e-07 0)
(1.18727e-05 -2.92543e-06 0)
(6.9083e-05 -0.000112678 -4.34181e-22)
(-0.000175601 -0.000537175 7.34075e-22)
(6.16291e-06 7.78014e-08 2.01276e-23)
(-1.42628e-05 -2.03447e-06 -2.56154e-22)
(0.000328777 -0.00886186 -2.96389e-22)
(-0.00196215 -0.00146697 0)
(0.00888001 0.00910083 -7.32314e-22)
(0.00206985 0.000518346 -7.09312e-23)
(0.000141823 -0.000137639 1.35794e-21)
(4.07115e-05 2.54522e-05 -1.98183e-22)
(0.000579357 0.00268098 0)
(3.19012e-05 0.000441816 0)
(-1.18309e-05 1.00404e-05 0)
(0.00755608 -0.0211276 1.03207e-21)
(0.0793816 0.00240728 1.08212e-21)
(-0.000303903 0.000654901 -1.04909e-21)
(-1.07815e-06 1.57885e-08 1.47576e-22)
(0.00169721 0.00185337 1.16458e-22)
(0.00411685 -0.00160378 1.9849e-21)
(2.91431e-05 0.000488684 8.21331e-22)
(0.000142001 -0.000109187 -7.87796e-22)
(0.000482059 -0.00850606 2.28624e-22)
(-3.64826e-06 3.03163e-05 -6.07605e-22)
(-0.0452796 -0.00226244 0)
(-0.000431851 -0.00199906 4.29242e-22)
(0.00838648 -0.007928 -2.34709e-22)
(0.0161612 0.0545154 8.25789e-22)
(-0.0014977 -0.0011578 0)
(0.003753 0.000893895 5.07303e-23)
(-7.07863e-06 -4.25479e-06 3.75559e-22)
(0.00225957 0.00253358 0)
(0.00459476 0.00134973 -1.34357e-21)
(0.0167723 0.0332931 0)
(-1.98742e-05 -1.7359e-06 -2.71152e-22)
(-0.000408954 -0.000118571 3.5127e-22)
(-0.000304496 0.000482337 0)
(6.45695e-07 -7.54162e-07 3.69123e-22)
(-0.0455777 -0.0141129 -9.99187e-22)
(-0.014902 -0.025072 -1.14923e-21)
(-0.000398722 0.00082413 0)
(-0.00231129 -0.0017634 -6.4422e-22)
(-9.16758e-06 -2.79247e-05 1.53927e-22)
(0.0323077 0.00210995 1.31847e-22)
(-0.000119492 -0.000266567 -2.953e-22)
(0.00223528 0.000812482 1.22685e-21)
(0.00434907 0.00171396 6.32331e-22)
(-0.00575591 0.0171418 1.43831e-22)
(-0.000241328 -3.03889e-05 7.04093e-22)
(-1.6651e-05 4.47674e-06 0)
(-0.000567809 -0.00169098 0)
(0.0126891 0.0394982 0)
(-1.93429e-05 1.41689e-05 0)
(2.95776e-07 1.41621e-07 2.09524e-22)
(-1.31912e-05 8.77144e-06 0)
(0.000619195 -0.00110926 4.33864e-22)
(-0.0253564 -0.0714711 5.39091e-22)
(-0.00612365 -0.0607514 -5.11492e-22)
(-0.00080281 0.000193496 0)
(0.000381855 0.00110965 8.85511e-23)
(-0.00121442 -0.00297866 -4.03159e-22)
(-2.29352e-07 -8.24667e-07 2.59967e-24)
(-1.00608e-05 3.1551e-06 -7.3716e-22)
(0.00201756 0.00271762 0)
(-1.30233e-05 4.65527e-07 -3.15088e-22)
(-6.09919e-06 -7.18317e-06 0)
(0.00183685 0.000996545 -1.27727e-21)
(0.000354094 -0.000319232 -1.44582e-22)
(-0.00313623 -0.00247567 0)
(0.0955444 0.103194 -6.05852e-22)
(0.00175176 -0.0137484 -2.85723e-21)
(0.0264937 0.0141596 0)
(-0.00740165 -0.0139719 -3.50936e-23)
(3.02413e-05 5.59977e-06 -1.30132e-24)
(-8.83078e-05 0.000854755 -1.80146e-22)
(-0.000227684 0.000478073 -1.47967e-21)
(-0.00821704 0.023166 4.71259e-22)
(0.06031 0.0275085 -1.58326e-21)
(8.28322e-08 -3.06993e-05 -7.76701e-22)
(-0.00724464 0.0107807 5.75845e-22)
(0.0137188 -0.0103562 -1.01285e-21)
(0.00213595 -0.00638633 3.49072e-23)
(0.00742422 -0.00553037 0)
(-9.64581e-06 -2.91169e-06 5.06675e-24)
(-7.63433e-05 0.000133208 -1.64899e-22)
(0.0214691 -0.0187031 -1.74962e-22)
(-1.20566e-05 -5.94901e-07 0)
(-0.00654224 0.0193165 4.54853e-22)
(-6.56662e-06 -8.99533e-06 0)
(-0.000418545 -0.000548348 0)
(-1.02489e-05 2.5651e-06 6.78137e-22)
(1.57704e-05 -9.29271e-05 0)
(0.00827579 -0.00238044 5.90004e-22)
(-0.0188447 0.0170396 0)
(0.0655365 0.0202643 -2.94685e-22)
(-0.00136144 0.00122544 -4.78596e-22)
(0.00724854 -9.06052e-05 -3.21983e-21)
(-9.65015e-06 4.12521e-06 -1.85869e-23)
(-0.000154674 -0.000298753 3.10218e-22)
(-0.00143811 -0.000165485 -8.75031e-22)
(-0.000131142 -0.000316397 5.87214e-22)
(-9.06282e-05 0.000760376 0)
(0.00136339 0.00318098 0)
(0.000430923 -0.000368045 -2.6671e-23)
(0.0217263 0.0348797 -1.97715e-22)
(-0.000524359 2.89332e-05 3.68868e-22)
(-3.7537e-05 1.76895e-05 0)
(-0.00153852 -6.55903e-05 1.27697e-21)
(-1.97982e-05 2.83921e-06 0)
(-1.42557e-05 -1.48741e-05 -4.77644e-22)
(-0.013256 0.0256676 0)
(-2.72729e-05 -9.50558e-06 -3.95137e-22)
(0.00545173 0.00285055 -2.02778e-21)
(-0.00109971 0.00122668 3.71103e-23)
(0.00462513 -0.000508937 2.23619e-21)
(-0.00488588 0.0294968 1.20011e-22)
(-0.00790464 0.0259155 0)
(-1.98519e-05 1.36961e-05 -2.38077e-24)
(0.0207815 -0.00500632 2.33145e-23)
(0.00449235 0.00145345 1.48024e-24)
(2.84762e-05 0.000409924 0)
(0.0849337 0.0187357 1.32624e-21)
(0.00719754 -0.00143378 -2.24502e-22)
(0.00029289 0.0276401 8.34835e-23)
(-0.00553533 -0.00191641 -2.26458e-21)
(-1.16293e-05 7.24475e-07 1.26673e-21)
(-0.000466677 -0.00175366 3.96137e-22)
(0.000738889 -0.000371265 6.49777e-22)
(1.92859e-05 -8.85374e-06 5.29089e-22)
(-1.65053e-05 -4.96693e-05 0)
(0.0117874 0.0678045 -5.22947e-22)
(-0.00127415 -0.00357584 -6.92867e-23)
(-7.55209e-06 4.93055e-06 -1.13979e-21)
(-5.80598e-06 2.14752e-06 0)
(0.00933591 -0.00715621 1.09718e-22)
(0.00651835 0.0463196 0)
(0.00928339 0.00446841 0)
(-9.4171e-07 7.2633e-08 7.08394e-23)
(-0.00290786 -0.00236175 0)
(-8.30842e-05 0.000137391 0)
(0.031611 0.120751 -2.82179e-21)
(-8.25575e-05 -2.95609e-05 0)
(-0.00642898 0.00357205 -2.71798e-22)
(-0.025509 -0.0193707 5.86989e-21)
(-1.5643e-05 9.91536e-06 5.2989e-25)
(2.48064e-05 -7.29666e-06 2.94399e-23)
(2.53288e-05 -1.71891e-05 0)
(0.0157051 0.0430025 3.38013e-22)
(0.00441543 -0.00101906 0)
(-0.00392565 -0.00331426 0)
(0.00189251 0.116899 -1.18002e-21)
(-0.000135007 -0.000252129 0)
(-4.93038e-05 -0.000153402 -5.70219e-24)
(0.00471692 -0.000629342 0)
(-9.09373e-06 -3.16361e-06 0)
(-0.00218101 0.000627309 0)
(-1.84735e-05 1.68974e-05 0)
(2.6245e-05 -7.62709e-06 8.96439e-22)
(0.00927246 0.00589242 0)
(0.0162318 -0.01217 0)
(5.50983e-06 -1.88033e-08 -2.04454e-23)
(0.000275285 0.000268356 0)
(-7.47234e-05 -0.000298636 -1.54373e-22)
(0.000813831 -0.000295474 -8.46783e-22)
(2.28114e-07 7.51393e-07 4.76853e-22)
(-0.000336431 0.000290777 5.81376e-22)
(0.0262696 0.00264858 4.84447e-21)
(0.000312267 0.00116711 0)
(0.00123097 -0.000119523 2.34685e-22)
(0.00962697 -0.0375442 0)
(0.000261823 -0.0013902 -1.94705e-23)
(0.020452 0.0387332 -2.60807e-21)
(0.0146689 -0.0165527 6.04045e-22)
(-4.19715e-07 1.69382e-05 -9.09489e-22)
(0.00429001 -0.00115011 -5.62066e-22)
(-3.62472e-05 1.36349e-05 2.28047e-22)
(0.0071587 0.00146443 0)
(0.00278135 0.00161693 2.07208e-24)
(-1.16501e-05 3.28606e-06 -5.38745e-22)
(-3.18781e-06 2.63101e-05 4.46181e-22)
(-0.000163301 0.0544083 0)
(-3.43857e-05 -1.16743e-06 6.18816e-24)
(-1.89342e-05 1.68287e-05 0)
(-5.06968e-06 -8.5916e-06 4.57521e-22)
(-0.0270639 0.040494 1.22021e-21)
(-1.54807e-05 -7.60744e-07 2.61945e-22)
(3.89676e-05 -7.25864e-05 0)
(0.0181478 -0.00638361 0)
(0.000930984 -0.00880577 -5.30886e-23)
(-0.00479366 -0.00431347 -4.87638e-22)
(0.00226047 0.00318945 0)
(0.00144194 -0.0201356 -6.64942e-22)
(3.25979e-05 0.000417088 0)
(-0.00167448 0.000964154 0)
(-9.83549e-05 0.000307208 9.36521e-22)
(0.00596211 0.00405541 0)
(-1.84225e-05 -7.19563e-06 0)
(0.000860652 0.00157436 3.64678e-22)
(-0.0200693 0.0437906 0)
(0.0121815 0.00592263 8.65682e-22)
(0.00685791 0.00511087 -8.83049e-23)
(0.00506847 0.00385032 -1.43872e-22)
(-6.16217e-05 7.82288e-05 -4.65875e-22)
(-0.00844389 -0.0221264 0)
(2.81523e-05 0.000392858 7.83343e-22)
(4.39173e-05 3.64827e-05 -2.51208e-22)
(-0.00955121 -0.0253776 0)
(-0.000812478 -7.47485e-06 -1.71088e-21)
(0.0201159 -0.00162934 0)
(-0.0455217 -0.0288921 1.53821e-21)
(0.000746136 -0.00121132 -3.64051e-22)
(5.38199e-05 2.89132e-05 7.61456e-22)
(-0.000351864 0.000166565 0)
(2.75505e-05 0.000385809 -1.65676e-21)
(-8.21305e-07 1.62745e-06 0)
(0.0123207 -0.00322971 8.86573e-23)
(0.00882031 -0.000159548 8.70445e-22)
(3.42668e-05 2.419e-06 -2.75618e-22)
(-0.000286017 0.00032177 0)
(6.43431e-06 -1.92207e-05 4.34175e-22)
(0.00454037 -0.00626131 0)
(0.0107395 -0.00910037 0)
(-5.74122e-05 7.75527e-05 7.87255e-22)
(-0.0386591 0.0450017 -1.03089e-21)
(0.00217795 0.00266808 -2.98613e-22)
(-0.000221452 6.9998e-05 -6.3861e-22)
(-8.98391e-05 0.000297552 -6.5185e-22)
(-1.57251e-05 -1.93003e-05 2.20651e-22)
(0.000875543 -0.00928022 0)
(0.0851061 0.0351692 -6.78133e-22)
(0.0397282 0.0303563 -3.30316e-22)
(0.0192753 -0.00804104 -2.37474e-23)
(-0.00750938 -0.00307667 2.49752e-21)
(-0.0151258 0.0211385 0)
(-1.0631e-05 5.48529e-06 3.70482e-22)
(0.0111559 0.00609813 0)
(-0.000255948 0.000286317 -1.69047e-22)
(0.00501713 0.00244103 0)
(0.00462434 -0.000133805 1.16427e-21)
(3.42082e-06 -1.6654e-05 8.54465e-22)
(0.00137552 0.00606187 0)
(0.0522457 0.0268265 3.66968e-21)
(0.00823802 -0.01103 -3.09337e-22)
(-2.7289e-07 7.89082e-08 -5.2923e-22)
(0.0480581 0.079914 3.74464e-22)
(-0.000823483 0.000119441 1.29912e-22)
(0.0443061 0.00810145 -4.39242e-22)
(0.0060009 0.00365609 0)
(-0.000342047 0.000125875 -1.60226e-22)
(0.0169683 0.0293171 -7.28058e-22)
(0.0535279 0.0324448 -4.62542e-22)
(-0.000776086 5.02158e-05 1.24257e-21)
(-1.30512e-05 5.68435e-06 1.70143e-22)
(5.68732e-06 0.000978977 -3.71242e-22)
(0.000203922 -0.000740201 0)
(-0.000148163 0.00153483 3.53219e-22)
(-1.3289e-05 -7.93695e-07 -6.90253e-22)
(0.00497904 0.00231951 0)
(-1.27889e-05 2.03228e-06 3.70428e-22)
(-3.88584e-06 2.62227e-05 -4.21035e-22)
(-4.39983e-05 0.000193651 0)
(-0.00875635 -0.0119347 2.56457e-22)
(0.00819347 0.00409377 -1.485e-21)
(-0.0019899 -0.00241993 4.69321e-22)
(-0.00020242 1.64473e-05 0)
(0.0462665 0.0699378 -3.0315e-21)
(-0.00160799 0.000216135 7.98422e-22)
(0.00278507 -0.00438913 0)
(-1.12927e-05 3.72132e-06 -6.07559e-22)
(-0.00664228 -0.00898771 -8.0972e-22)
(0.0010053 -0.000228808 0)
(0.00325026 -0.000992366 -5.06253e-23)
(0.00929272 -0.0285659 0)
(0.00344072 -0.00106644 1.29736e-21)
(0.0319671 0.00488397 -5.41921e-22)
(-1.02803e-05 1.27678e-06 2.81254e-22)
(-7.67089e-06 1.6448e-06 -6.78131e-22)
(-0.00134428 -0.00188447 -2.4537e-22)
(-1.81699e-05 -9.31911e-06 0)
(-4.57194e-05 -3.16147e-05 3.49475e-22)
(0.00939624 0.000738108 9.43377e-24)
(-0.00450398 -0.00447403 1.40699e-23)
(-0.0377132 -0.0488044 7.14916e-21)
(-4.48533e-07 1.12455e-07 2.01546e-22)
(-0.00372573 -0.00302983 0)
(0.000245271 -9.90493e-05 -3.45277e-22)
(-0.000208219 0.000165984 -2.78492e-24)
(-0.0288704 -0.0297351 7.3333e-21)
(-4.86541e-06 -1.66178e-06 6.52754e-22)
(-4.69861e-05 -0.000250002 2.86883e-22)
(-0.00111584 0.0241955 2.17993e-21)
(-0.0430914 -0.0315989 -7.76596e-21)
(-0.000287861 -0.000114675 2.63703e-22)
(-1.4274e-05 -4.76026e-06 0)
(-3.93758e-06 -3.10572e-07 0)
(-6.71819e-08 -3.8285e-07 -3.34865e-22)
(0.00201286 0.000274286 -4.75278e-23)
(-0.000964584 -0.00175084 0)
(0.0303109 0.0360739 5.45293e-23)
(-0.0706832 -0.0501786 0)
(-6.80131e-06 0.000728577 0)
(0.00277787 0.00130784 0)
(-0.00612326 -0.000847842 -5.47812e-22)
(0.0109062 -0.0363453 -4.29063e-22)
(0.0023527 -0.00484064 0)
(-0.000371949 0.00577041 -2.82553e-22)
(-1.2759e-05 4.47269e-07 3.29623e-22)
(-0.0219004 -0.0144907 -5.65357e-22)
(-6.91949e-07 7.40394e-07 0)
(0.014448 -0.0197697 3.28985e-22)
(0.000329752 2.98097e-05 9.70897e-22)
(0.0469259 -0.0170259 7.27609e-21)
(0.000218836 0.0011329 -3.57551e-22)
(0.00428432 0.00185367 -1.0791e-21)
(5.12661e-05 5.50924e-05 2.69521e-22)
(-6.2027e-05 0.000412125 0)
(0.00432306 -0.00567336 6.31937e-23)
(-1.65532e-05 4.16627e-07 0)
(-6.31483e-06 -6.02813e-06 0)
(0.00318638 -0.000688561 -1.47181e-21)
(0.00474751 0.000335935 -5.13287e-23)
(-1.80561e-05 1.89681e-05 2.29681e-24)
(0.0116212 -0.00661709 -3.00508e-22)
(-1.21447e-06 1.803e-05 0)
(0.030021 0.00380453 -3.47554e-22)
(0.000751496 -0.000407936 6.00781e-22)
(0.00023668 -0.000584772 5.84968e-23)
(0.00043087 -0.00135346 -2.00427e-23)
(-0.000866864 0.000107275 1.6245e-22)
(-0.00238568 -0.00118499 -3.38263e-22)
(-0.00755195 0.000561104 2.0109e-22)
(-0.000265163 -0.00861755 -5.94055e-22)
(6.59063e-05 0.000332042 0)
(-0.00388873 0.00654636 -8.60745e-22)
(-0.00201845 -0.000299226 5.25015e-22)
(0.00751582 0.00399666 0)
(0.0173195 -0.0434227 0)
(0.00943112 -0.000686159 6.12201e-22)
(-0.00197385 -0.000151593 1.70884e-22)
(0.0636125 -0.0139769 -6.87325e-22)
(-8.95701e-06 -4.97836e-06 -5.6282e-22)
(0.000248829 0.000232194 -2.16858e-22)
(-0.000199924 0.000136883 0)
(0.00467074 0.00176359 0)
(-0.000445515 -0.0104317 -6.17149e-22)
(-0.00015271 -0.000220647 -3.4964e-22)
(-0.00237997 -0.000840976 0)
(-0.0295838 -0.0251341 -3.91466e-21)
(0.00813312 0.00108822 0)
(0.154987 0.0472636 -4.92124e-22)
(0.0029722 -0.00554621 0)
(-0.000309513 0.000374808 -1.16924e-21)
(-0.00421651 0.00610825 9.5971e-22)
(0.0514061 0.0805575 -1.75504e-21)
(-3.15796e-05 7.45473e-05 -1.2944e-22)
(-0.0186356 0.0129678 9.97846e-22)
(-0.00151652 0.131019 0)
(-0.0171987 -0.00699928 -7.77091e-22)
(1.12132e-05 -8.76515e-06 3.44993e-22)
(0.00279304 -0.00669813 -1.22446e-22)
(-4.86291e-08 -2.67194e-07 -2.11128e-22)
(-0.00235688 -0.00748333 6.98658e-23)
(-9.96774e-06 4.17413e-08 1.58535e-23)
(0.000312023 -0.0107818 -5.8142e-22)
(0.00446629 -0.00056647 2.19611e-21)
(-1.02511e-05 -1.73667e-06 0)
(5.39674e-05 2.44088e-05 2.12893e-22)
(0.050924 -0.0144961 -7.03801e-21)
(0.00404193 0.00238082 8.41107e-22)
(4.25463e-05 0.000351763 -1.33746e-22)
(0.00405095 0.000881815 -4.69731e-22)
(8.71803e-06 -5.88388e-06 -6.40108e-22)
(-0.000139128 -0.000207869 0)
(0.000998453 -0.000791872 0)
(0.000833906 0.00218265 -4.09722e-23)
(-0.00136297 0.00133921 3.13568e-22)
(0.00401998 0.104447 0)
(-0.00483372 -0.00204854 2.54845e-22)
(0.000403619 0.000335679 9.72765e-22)
(0.000222949 -9.56344e-05 1.93978e-22)
(-0.00563228 0.00256127 0)
(0.00406712 0.0302508 -1.63692e-22)
(-0.118508 -0.0894286 -4.62226e-21)
(-0.000379985 -0.000290462 0)
(0.0020229 -0.005656 -1.11946e-21)
(0.00204932 -0.00532285 0)
(-0.00171107 -0.00229389 2.97287e-22)
(6.00144e-05 -2.06344e-05 6.01857e-22)
(-9.57359e-06 -8.83356e-06 0)
(1.5772e-06 -3.29408e-08 0)
(0.001482 0.00245534 0)
(-8.8871e-06 -8.33159e-06 0)
(-0.00227233 -0.00147241 -3.31946e-22)
(-1.3305e-05 5.44124e-07 2.5276e-22)
(0.141877 0.0579601 3.69455e-22)
(0.00629012 -0.000753458 0)
(-1.21206e-05 2.8554e-06 -5.08246e-22)
(-2.40896e-05 -3.42265e-05 -3.58253e-22)
(-0.000324179 -0.000395415 2.77251e-23)
(-0.118981 -0.0870232 -5.51661e-21)
(-1.06525e-05 -1.48638e-06 4.94473e-24)
(-0.000319563 -0.000366985 1.08115e-22)
(0.00828463 0.00490426 0)
(0.00825185 0.00435336 -4.33271e-23)
(-1.30719e-05 3.49026e-07 3.79294e-22)
(0.0614241 -0.0243396 5.70612e-21)
(0.000270468 -0.00054154 2.18415e-22)
(-0.00469689 0.0405616 1.73675e-21)
(-1.63925e-06 1.25801e-08 7.10049e-22)
(-5.33585e-06 4.02953e-05 -7.14992e-22)
(-0.000225348 0.000331297 0)
(0.00239451 0.00118188 0)
(0.0494088 0.0723179 1.95951e-21)
(0.000101415 -0.000996362 4.56543e-22)
(-0.00137997 -0.0205483 0)
(0.0158475 0.00719482 1.04091e-21)
(4.60107e-05 0.000353815 0)
(0.0163396 0.00848496 -1.10434e-21)
(-0.0279337 -0.00341839 0)
(0.00130045 0.0054751 9.49394e-23)
(0.00212977 0.000950234 0)
(0.00387007 0.0013019 1.61551e-23)
(-3.44516e-06 -2.00958e-05 4.60149e-22)
(0.00301726 -0.00164084 9.50162e-23)
(-0.000205311 -7.5348e-06 0)
(-0.000224828 0.000313809 5.87947e-22)
(0.00255358 0.00113738 0)
(0.00663486 -0.0126648 4.59464e-22)
(0.0234804 0.0695885 -1.27605e-23)
(9.99364e-05 4.00882e-05 -9.44679e-23)
(-0.0321619 0.0632788 0)
(-0.00128371 0.0397172 7.74619e-23)
(0.0336779 0.0244158 5.72429e-23)
(-0.0291467 -0.0277043 -5.62856e-22)
(-0.0008652 0.0165028 -8.84859e-23)
(-0.000324876 -0.000231512 2.05346e-22)
(-0.00199718 0.102989 -8.34431e-23)
(-0.0117524 0.0161235 1.88151e-21)
(3.13881e-06 -1.52541e-05 -1.7314e-22)
(-8.78178e-06 5.33976e-07 7.56298e-24)
(-2.2686e-06 6.02576e-07 0)
(-1.60951e-05 -2.01197e-05 2.2035e-22)
(0.087172 0.0557604 -8.892e-21)
(-2.64078e-06 -2.10476e-05 8.76868e-22)
(-1.17837e-05 -2.59328e-05 -6.09238e-22)
(0.0075478 0.00307167 0)
(-0.00635023 0.00212968 -1.34424e-21)
(0.0055953 0.00201751 0)
(-2.49288e-05 1.70749e-05 3.87002e-22)
(1.63689e-05 0.000307563 0)
(-3.11722e-05 7.51325e-05 3.19437e-23)
(-0.000286899 8.23631e-05 -8.5913e-23)
(-0.00633995 -0.00249005 -1.08027e-21)