/*--------------------------------*- C++ -*----------------------------------*\
| =========                 |                                                 |
| \\      /  F ield         | OpenFOAM: The Open Source CFD Toolbox           |
|  \\    /   O peration     | Version:  v2012                                 |
|   \\  /    A nd           | Website:  www.openfoam.com                      |
|    \\/     M anipulation  |                                                 |
\*---------------------------------------------------------------------------*/
FoamFile
{
    version     2.0;
    format      ascii;
    class       surfaceScalarField;
    location    "400";
    object      ddtCorrDdt0(phi);
}
// * * * * * * * * * * * * * * * * * * * * * * * * * * * * * * * * * * * * * //

dimensions      [0 3 -2 0 0 0 0];
oriented        oriented;


internalField   nonuniform List<scalar> 
41383
(
0.000279501
-2.77071e-06
-0.000276751
-3.49021e-07
8.65113e-07
-5.14771e-07
5.35745e-05
-0.000176318
0.000122744
-2.73096e-06
4.20721e-06
-1.4763e-06
-0.000358756
-0.000198262
0.000557011
-1.28264e-05
1.57168e-05
-2.8911e-06
0.000366085
-0.000299555
-6.65295e-05
-9.13423e-06
2.70414e-05
-1.79094e-05
0.000473102
0.000610361
-0.00108345
-2.02206e-05
8.9759e-06
1.1243e-05
5.08868e-06
-1.81785e-06
-3.26993e-06
-0.000179571
0.00018374
-4.15897e-06
1.22624e-05
8.74573e-05
0.000836091
-0.00079084
-4.5263e-05
-1.6833e-06
-1.88443e-06
3.56899e-06
-1.2591e-05
0.000378676
3.21735e-06
9.87789e-07
0.00025066
-0.000196538
-5.4111e-05
0.00717147
0.0174511
0.00135414
-0.00137348
1.93409e-05
-1.16395e-06
8.15495e-07
5.61538e-06
-5.64499e-06
2.85593e-08
-4.10758e-05
0.000320585
9.60961e-05
3.88849e-05
-0.000134978
1.03952e-07
-3.32496e-06
3.22059e-06
3.8368e-06
-8.1966e-06
4.36102e-06
-8.22439e-06
9.96911e-06
-1.74506e-06
-9.4181e-06
-1.08035e-05
-2.94022e-06
3.0458e-06
-0.000328116
-0.00393
0.00425811
-7.17585e-06
6.12998e-06
1.04495e-06
-0.00140997
0.000948248
0.000461732
-0.000175812
0.000422456
-0.000246647
-0.00053475
-0.00479605
0.00533079
-0.000400067
0.000224253
2.20585e-06
2.87363e-06
-5.07898e-06
0.00745073
-0.00155089
-0.00589986
0.0234615
-0.0197934
-0.00366822
-3.22261e-07
-6.85394e-06
1.01269e-05
-4.21814e-06
-5.90714e-06
-4.269e-07
8.22349e-06
-7.79444e-06
-1.88093e-07
1.03154e-05
0.00145675
1.37914e-05
-0.00573926
-0.000352188
0.00609144
5.29865e-05
2.24605e-05
-7.54441e-05
6.75805e-07
2.69137e-06
-3.36613e-06
0.000589837
-0.000284664
-0.00030514
-3.00036e-06
-2.80779e-06
5.80852e-06
2.88683e-05
-2.30638e-05
-5.80643e-06
0.00246925
-0.00387915
0.00140989
-1.32376e-06
-3.49589e-05
3.62839e-05
-5.78563e-05
0.000110844
-0.00588904
0.0147838
-0.00889477
-3.43265e-07
-8.48579e-07
1.1919e-06
1.13618e-05
-8.75831e-07
-1.04847e-05
-2.14236e-05
8.9246e-06
1.2499e-05
-3.61335e-05
-0.000804359
0.000702296
0.000102056
-0.000383483
8.27194e-06
0.000375209
4.92296e-05
4.19705e-05
-2.92165e-06
5.12873e-06
-0.00016335
-0.000220132
0.0102848
-0.0118456
0.00156076
-0.000652876
-0.000374496
0.00102737
7.3551e-05
0.000177112
2.03044e-05
-6.9233e-05
4.89309e-05
-3.71199e-05
-0.000174853
0.000211975
-0.00012149
7.02017e-05
5.12828e-05
0.000849791
0.000248649
-0.00109843
0.000443338
-0.000978156
0.000534815
5.01051e-06
-7.1228e-06
2.1126e-06
-0.000120505
0.000182219
-6.17184e-05
0.00958769
-0.0277838
0.0181956
0.000144132
2.80857e-05
-0.000172219
-0.0115326
-0.00983225
0.0213649
2.21462e-05
-4.40515e-05
2.19071e-05
0.0108971
0.0125644
-0.000249388
0.000212269
0.00297827
-0.000509032
0.000292943
-0.000305533
0.00065032
-2.6603e-05
-0.000623681
-0.00986832
0.00483941
0.00502894
-1.56658e-05
2.81482e-05
-1.24838e-05
-0.000660037
-0.00014432
-8.2648e-05
0.000115616
-3.29661e-05
5.57956e-06
1.61165e-05
-2.16959e-05
3.44874e-06
-4.00245e-06
5.54647e-07
1.08296e-05
5.34269e-07
-0.000164305
4.37977e-05
0.00109815
-0.0012337
0.000135478
-0.00035683
0.000307077
4.97543e-05
0.000292297
-0.000284027
-0.00494196
0.00824266
-0.00330063
-7.98469e-05
0.000372791
-1.78163e-06
1.43867e-06
-1.6753e-06
6.67152e-06
-4.99551e-06
-1.42836e-05
3.23351e-05
0.000313669
-0.000672426
-6.6909e-06
0.000325229
0.000264632
-0.00844739
-0.00142094
6.19785e-07
8.25837e-06
-8.87626e-06
-1.94104e-05
9.08487e-06
1.03239e-05
-2.81129e-06
-1.84875e-07
2.99527e-06
0.00104999
4.81137e-05
0.000357544
-6.52484e-05
0.0069725
-0.0025568
-0.0044157
-0.000452418
0.000925528
-5.44496e-06
5.96063e-06
-5.16044e-07
-5.91623e-05
8.2863e-06
5.08771e-05
0.000357932
-0.00012333
-0.0002346
1.38609e-06
-3.0684e-06
-9.69976e-06
1.03167e-05
0.00383255
-0.00877449
-1.926e-06
3.66553e-06
-1.74167e-06
0.00305169
-0.00152962
-0.00152207
0.000117371
-0.00013733
1.99599e-05
-5.35159e-06
2.55872e-06
2.79272e-06
-2.67418e-05
1.8177e-06
2.49271e-05
0.000911324
0.000442825
0.000193102
-7.8444e-05
-0.000114645
-0.000348055
-8.77492e-06
-2.29263e-05
3.21578e-05
1.6026e-06
1.84672e-06
-6.88802e-06
4.91885e-07
6.39785e-06
-0.000819962
-0.00128916
0.00210909
0.00138782
-0.00218231
0.000794456
-0.00899118
0.0111402
-0.00214901
9.23498e-05
8.05015e-05
-0.000172847
9.83306e-05
9.47727e-05
-9.98239e-06
-9.42862e-06
1.9139e-05
-4.20648e-05
-0.000680581
0.000625784
5.4798e-05
1.75542e-05
-5.92388e-06
-1.16308e-05
1.32018e-05
-5.3035e-05
7.16152e-05
-1.85816e-05
0.000102061
-4.36525e-05
-5.84071e-05
-4.38008e-05
4.61949e-07
4.33402e-05
-0.00111506
0.00209571
-0.000980664
0.000803338
-0.00032599
-0.000477347
-8.67467e-05
3.52283e-05
5.15164e-05
-9.34332e-06
1.11896e-06
-0.00212582
0.00130586
9.7436e-08
-1.23983e-06
1.1402e-06
-3.17024e-06
1.24373e-06
1.78744e-05
-2.58658e-06
-1.52874e-05
4.91017e-05
5.29586e-05
2.1774e-05
-2.6985e-05
5.21008e-06
0.00011203
-8.95681e-05
-0.000617362
-6.32203e-05
3.55027e-06
1.53914e-06
2.31587e-06
-5.31604e-06
-2.11235e-05
-3.79604e-07
2.15031e-05
-0.000100601
-2.0889e-05
0.00102529
-0.000113965
-2.23327e-05
1.57937e-05
6.54096e-06
0.00666548
-0.00302634
-0.00363913
0.0002489
-0.000127858
-0.00012104
-4.90254e-06
-5.42596e-05
0.000424636
-5.73491e-05
-0.000367278
0.00213161
-0.000743818
-2.01736e-05
-1.43706e-05
1.99519e-05
-2.51011e-05
-1.64073e-06
-1.18299e-06
4.40027e-06
1.6637e-06
-2.5803e-06
9.14789e-07
-1.66517e-06
-3.68672e-06
-1.4381e-05
-7.04313e-06
9.8622e-06
-1.0791e-06
-8.78446e-06
-5.99638e-05
-0.0013135
-3.61069e-06
7.994e-07
0.000108138
9.23213e-06
-2.20688e-05
2.33628e-05
-1.29143e-06
0.000430672
0.00505577
-0.00548645
5.56321e-06
-7.36005e-07
-4.82712e-06
0.000159737
-0.000236569
7.68514e-05
3.0089e-06
-1.34673e-06
-4.93453e-05
5.27793e-06
4.40673e-05
-7.30219e-05
1.51671e-05
0.00407271
0.00337801
-1.41891e-05
0.000110282
0.000347486
-0.000344934
-2.55305e-06
-6.95791e-05
0.000107361
-3.77847e-05
-7.58262e-07
1.86323e-05
1.00814e-05
-3.21487e-05
-1.26747e-05
0.000129537
-0.000116867
-1.1727e-05
-1.05998e-05
1.49893e-06
-3.42443e-07
-1.15728e-06
8.44773e-06
-0.00104862
0.00104016
0.00212397
-0.00223285
0.000108867
-2.67547e-06
2.03413e-06
6.42653e-07
2.06615e-05
8.73379e-05
-0.000108014
-0.000101033
0.000296386
-0.000195357
-2.45312e-05
1.74678e-05
7.064e-06
8.24672e-06
-1.66131e-06
-6.5861e-06
-6.56917e-06
2.35161e-06
2.36298e-06
5.88373e-06
-4.4025e-05
-2.89945e-05
2.53759e-07
-3.73721e-06
3.48352e-06
-1.19241e-05
2.5808e-06
-0.000130952
0.000361694
-0.000230856
-0.0139455
0.0104765
0.00346894
-0.00723133
-0.00249583
0.00972717
-3.51457e-05
5.69682e-05
-2.18244e-05
6.23852e-06
-6.49032e-06
2.51183e-07
1.46087e-05
-3.7424e-05
2.28141e-05
3.14178e-06
-2.42658e-05
0.00096802
0.000106524
-0.00107459
1.29399e-05
-3.61422e-05
2.32027e-05
-5.465e-05
0.000103878
-6.35878e-06
4.26799e-06
2.09054e-06
-0.00390173
0.00203584
0.00186585
0.000295258
-0.000135517
1.94418e-06
-5.12895e-05
0.00109938
-0.00109093
-1.0933e-06
6.2878e-06
-5.19485e-06
0.00729935
-0.0153918
0.00809249
-0.000347516
0.00026767
-6.23212e-06
4.55667e-06
-3.81003e-05
2.2503e-05
1.55995e-05
0.0001875
-9.51461e-05
-3.8152e-06
-3.89001e-06
7.70531e-06
0.000146627
-0.000159304
-7.45633e-05
0.00125911
-0.00118452
-2.8018e-05
-2.32777e-05
-2.05238e-05
4.8702e-06
0.000132863
-0.000112214
-2.02843e-06
2.70279e-06
2.39381e-06
5.39922e-06
-7.78797e-06
6.96114e-06
-2.21876e-06
-4.74197e-06
5.52614e-06
1.14633e-06
-7.39582e-05
6.5699e-05
8.25919e-06
-0.00985258
0.017024
0.000676154
0.000127196
3.3217e-06
-2.47779e-06
-8.43336e-07
0.00100615
-3.81531e-05
0.000178074
0.000244385
0.000617387
0.00080146
-0.00141885
2.92874e-05
-2.50535e-05
-4.23439e-06
0.00870408
0.00217582
-0.0108799
-0.00125896
0.00996305
3.08785e-06
-4.48827e-06
1.39842e-06
-4.00798e-06
4.22735e-06
-2.18353e-07
0.000377908
-0.000199839
-4.91764e-05
5.1534e-06
0.0140945
-0.0067952
-9.45228e-05
-0.00025299
0.000156058
-0.000102482
0.00293992
0.000872635
-0.00381251
-6.75774e-05
-2.31275e-05
9.07035e-05
3.52743e-05
0.000295402
-0.000330685
2.84292e-05
8.59386e-07
-3.7075e-06
9.77654e-07
5.38344e-06
4.38951e-06
-9.77301e-06
-8.43373e-05
1.6902e-06
-0.0149838
0.00653643
-6.75321e-05
3.23863e-05
7.74642e-06
-9.79902e-05
3.04112e-05
-1.45786e-05
6.90712e-06
7.6659e-06
-0.000156993
-3.25181e-05
0.000189514
-2.25784e-05
3.55184e-05
-0.00014749
0.000310418
-0.000162931
-5.24348e-05
1.04e-05
4.20345e-05
0.000191078
1.06533e-05
1.97225e-06
-5.78784e-06
5.24075e-06
0.000106325
7.72786e-06
-5.81806e-06
-1.90941e-06
-0.000709637
0.000383641
0.0178626
-0.0188382
0.000975629
-1.52507e-05
-9.27965e-06
-0.000117171
-0.000194984
0.000312154
2.46692e-05
-2.01497e-05
-4.51966e-06
4.79438e-05
1.62358e-05
-6.41785e-05
-4.71568e-05
-5.90219e-05
-2.53161e-05
-0.00250337
-0.0013984
-6.86323e-05
6.43318e-05
4.30072e-06
-3.9768e-05
0.000125041
-8.52702e-05
-0.00412013
0.00495889
-0.000838753
-0.000685828
0.00155197
-0.000866133
0.00621785
0.00399249
-0.0102103
-0.0126789
-0.00230495
5.3217e-06
-3.06773e-07
-5.01145e-06
-4.07258e-05
4.87694e-05
-8.04329e-06
-4.60507e-07
2.23593e-07
2.3644e-07
3.98673e-06
3.1173e-06
-7.10362e-06
-0.00402674
0.003492
1.46837e-05
-4.47919e-06
-1.02057e-05
0.0085319
-0.0131406
0.00460864
5.98265e-06
8.70057e-06
-0.000106055
0.00253675
-0.0024307
0.00233314
0.000718594
0.000139094
-2.34751e-05
-8.79764e-05
3.33195e-05
0.0135672
-0.00163692
-0.0119303
5.60076e-05
-3.57037e-05
-1.45422e-05
-1.25708e-07
1.46667e-05
0.00139505
-0.00100914
-0.000385909
-0.000173382
0.000598022
-0.0179851
0.00813253
0.00085233
-0.0019674
-9.99315e-06
-4.58619e-06
0.000311263
-0.000187312
-0.000123948
-0.000426871
0.000733161
-0.000306294
2.05585e-05
4.11036e-06
-9.4001e-05
-8.93031e-05
0.000183302
7.1554e-06
0.000158015
-0.000165175
7.91949e-06
-4.09244e-05
3.30059e-05
9.68928e-06
7.86406e-06
0.0019888
-0.0008577
-0.0011311
-4.02634e-06
-2.33231e-06
7.60956e-05
-0.000170106
0.000290344
-0.000293129
5.33599e-05
1.01193e-06
-5.43715e-05
0.000253929
0.000582162
-2.39441e-06
5.48201e-06
7.93452e-07
4.2039e-06
-3.41787e-06
-7.86009e-07
8.34939e-05
-0.00016146
7.79649e-05
-0.00896396
-0.000183935
0.00914791
-0.000560382
-5.69831e-05
2.71092e-05
-0.000184104
-4.69279e-05
-0.000513453
-6.17896e-06
-3.1166e-07
7.35761e-05
-6.7731e-05
-5.84614e-06
8.16622e-07
8.78789e-05
-8.86938e-05
-0.00128536
0.00126277
2.26381e-05
0.0168742
-0.0185816
0.00170735
0.00613541
-0.00391531
-0.0022201
-0.00156157
0.00148703
-0.0031766
0.00360722
5.93761e-05
-5.14518e-05
9.94464e-06
-1.60857e-05
6.14084e-06
-1.80999e-05
5.97302e-05
-4.16345e-05
-6.87163e-06
7.08049e-06
-2.08422e-07
-1.38362e-06
4.08274e-06
-2.69959e-06
0.000126326
-0.00020562
7.93124e-05
-0.00985874
-0.000958675
-0.00292045
-1.47336e-05
-0.00017953
0.000194261
0.0228956
-0.0183119
-0.00458371
-0.000314134
-0.00031124
0.000625411
-0.00241069
-0.0110499
0.0134606
-0.000350766
0.000256245
-0.00113448
-0.000485556
0.00162
-2.57013e-05
-8.07108e-06
3.37743e-05
0.000181502
0.000245426
-0.000426937
-6.33692e-06
-5.51549e-07
5.52013e-06
-7.01268e-06
1.49392e-06
4.39984e-05
-4.19493e-05
-2.04778e-06
-0.000110559
3.99535e-05
7.06071e-05
-0.0134891
0.0103695
0.00311958
9.63381e-05
-0.00123085
-3.26022e-06
3.62375e-06
-3.6247e-07
0.000122961
-0.000177639
5.46749e-05
0.000338567
0.00410319
-0.0044417
-0.0094607
-0.00669656
0.0161572
0.000177977
-5.50164e-05
-2.76465e-05
-0.00018368
0.000211337
-5.79785e-06
4.13666e-06
-2.01695e-06
3.44865e-06
-1.43233e-06
-0.0114131
0.00900232
5.65888e-06
-3.35661e-07
-1.94796e-06
-6.66845e-05
5.4812e-06
5.35081e-06
1.18213e-05
-1.87611e-06
-0.000608519
0.0002944
-0.000452617
0.000635691
-0.000183075
0.000112629
-9.96297e-05
-1.29977e-05
0.0255724
-0.0146753
0.000209268
0.000152368
0.000168112
-0.00062073
0.00031507
4.28636e-05
0.000248275
-3.54721e-05
-0.000212799
-1.25908e-06
-2.20197e-06
3.46134e-06
1.28593e-07
1.37008e-06
-2.6695e-06
-3.12797e-06
1.28271e-05
3.11723e-05
-9.68367e-05
0.000204595
-0.000107755
1.64501e-06
9.25943e-07
-2.57153e-06
7.37605e-06
-4.81333e-06
-2.56199e-06
0.000264217
0.00034315
-0.000607366
-0.000642534
0.000797786
-0.000155255
-0.00359248
0.00393109
-0.000503369
0.000300152
0.00020322
7.15874e-05
-4.82017e-05
-2.33857e-05
-4.64533e-06
1.35722e-05
-8.92667e-06
0.000100998
-0.000527876
4.84574e-05
5.35558e-06
-2.46918e-06
-2.88651e-06
8.38272e-05
-0.00136918
0.0108577
0.012038
-5.48561e-05
-4.57566e-07
4.36621e-07
2.03851e-08
0.000147683
-0.000248718
-7.02111e-05
5.62307e-05
3.12363e-05
4.03507e-05
-0.000564158
0.00130738
-0.000743258
2.63453e-06
7.22655e-06
-0.0207758
0.00972578
0.000266401
8.10854e-05
0.00105039
-0.000858379
-0.000192007
0.0127127
-0.00649482
-0.000129603
-0.000136115
0.000265723
9.68308e-05
3.43121e-05
-0.000131133
-3.05268e-06
1.03656e-06
-0.000177318
9.8888e-05
-0.000140948
-3.24662e-05
0.000173418
0.0180637
-0.00832292
-0.00974074
-3.27939e-06
-2.95259e-06
-9.41447e-05
6.45334e-05
9.04095e-06
2.35436e-07
-1.38602e-07
-0.0134141
-0.00736174
0.00130358
0.000153126
-0.000120425
-0.000230338
-0.000956406
0.000313881
-2.97386e-06
6.81159e-06
-0.00416165
-0.0112302
-1.65453e-05
0.000184996
-0.000837872
-0.000213631
0.000152399
6.1235e-05
-0.00113221
-0.00460705
-3.25221e-05
3.11994e-05
-6.72574e-06
-1.45837e-07
-0.000102713
0.000208344
-0.000105629
0.00672436
0.0113393
3.78133e-06
3.68035e-06
-7.46082e-06
-1.5885e-08
1.55556e-08
4.98562e-06
-1.57049e-06
-3.41452e-06
-1.76095e-05
9.3536e-05
-7.59276e-05
0.0135079
-0.0315226
0.0180148
0.0200147
-0.00650667
-0.000109671
4.00873e-05
-3.78163e-05
-8.04871e-05
0.000118304
-0.000759933
-0.000650036
2.35581e-07
1.97422e-07
-4.33592e-07
-4.56791e-06
2.90248e-06
0.000237891
-0.000278963
-5.03081e-06
1.86776e-06
3.1629e-06
-8.98405e-07
-2.26167e-06
3.15977e-06
-0.00052804
0.000713036
2.22728e-06
-3.216e-05
2.99311e-05
0.0004876
4.36892e-05
-0.000531296
-0.0274874
-0.000407168
-0.000379255
0.000786433
0.0112178
0.00287675
-5.87408e-06
0.000656192
-1.51399e-05
6.68949e-06
8.44939e-06
0.000119484
-6.69853e-05
-5.24982e-05
-6.01837e-05
-1.37743e-05
-0.00678729
-0.00217666
0.0111783
0.0143941
-3.36803e-06
8.85062e-06
-0.0027123
0.00444598
-0.00173367
0.00141848
-0.00675107
0.0053326
-0.0004024
0.00115309
-0.000750697
0.000623485
-0.00179899
0.00117551
2.84558e-06
1.93442e-06
-1.92372e-05
1.73016e-05
0.00270333
-0.0116945
-1.52313e-06
-3.50808e-06
0.00018523
-3.26948e-06
2.37159e-06
0.000117564
-4.0337e-05
-7.7236e-05
-3.84352e-06
-7.25031e-07
2.77089e-05
-4.28649e-06
-2.34227e-05
0.000719148
-0.000319237
-0.000399904
-0.00915199
0.00518716
0.00396484
0.010556
-0.0200168
0.000100929
0.000524853
0.000206615
-0.000220947
-4.49523e-06
3.11159e-06
-2.93997e-05
5.34113e-05
-2.40129e-05
9.67612e-05
5.72397e-06
-0.000102482
2.75683e-05
-1.05027e-05
0.00016332
-0.000152831
0.000325622
-3.86962e-05
0.00307736
0.0115358
-0.0146131
9.76127e-05
-0.000137378
-7.14273e-06
-1.12289e-06
8.26604e-06
-2.4703e-05
0.000121465
-6.38927e-06
5.29594e-06
6.79616e-06
3.65973e-07
-7.16181e-06
0.00112358
-0.0114475
0.0103239
4.64638e-06
5.32247e-06
-0.00029441
0.00014692
0.000450656
-0.00034973
4.57742e-06
0.000176983
-0.000181549
-0.0104834
-0.0024165
0.0128999
-0.00935978
8.02038e-06
-4.23852e-06
-0.00542375
0.000627751
-0.000175531
3.45856e-05
4.49581e-05
3.64605e-06
-4.86038e-05
-0.0271632
0.0153423
0.011821
0.000546266
-0.000603611
0.00793328
-0.0103498
-0.000343028
0.000225858
-4.54677e-06
5.10904e-06
-5.63186e-07
0.000163688
9.5837e-05
-3.64544e-05
4.52737e-06
9.93238e-07
6.192e-06
-1.90188e-05
-0.00692323
0.0154551
-0.000531202
0.000559593
-2.83902e-05
1.53342e-06
2.05332e-06
-3.58752e-06
-2.16539e-06
-5.09744e-07
0.000594413
0.000455975
0.00553205
-0.0170647
0.000566961
0.00152875
-3.98733e-07
-5.91371e-08
0.00046411
2.3491e-05
-1.78376e-05
1.97708e-05
-0.0297425
0.0521439
-0.0224014
-2.1534e-05
1.24009e-05
-0.000515885
0.00235698
-0.00184108
0.00328554
0.00284987
1.49144e-06
6.23669e-06
-1.32945e-05
8.81514e-06
-1.64409e-06
-5.36819e-06
-0.00392948
0.00360136
0.000148973
-0.000188656
3.97039e-05
0.000786331
-0.00021064
-0.000575705
0.0273387
-0.0177515
-7.71552e-05
-1.91071e-05
9.62641e-05
2.49723e-05
-5.54772e-05
3.05027e-05
0.000192136
-0.000187558
1.39047e-06
-3.27404e-06
0.000205259
-0.000328953
0.000123703
4.84768e-06
3.32167e-06
-8.16841e-06
-8.90517e-06
-0.00468276
0.00379303
0.000889715
-0.000773426
0.00147967
-0.000706259
2.20064e-06
-5.55106e-07
0.000112991
-0.000112174
7.22691e-05
-0.000149425
6.8197e-05
2.76419e-05
1.72956e-07
2.2677e-08
-1.962e-07
5.08797e-05
-6.37438e-05
1.28626e-05
0.00204546
7.85282e-05
-0.000141098
0.000103283
-0.000124953
0.000104567
2.03833e-05
0.0028075
-0.00176081
-0.00104671
6.88183e-05
-0.000119655
5.08359e-05
7.71685e-05
-0.00400718
0.00158272
-0.000435283
-0.00114744
6.60551e-06
-1.81958e-06
-4.78535e-06
-5.66454e-05
-7.39246e-06
2.49085e-07
-0.00165411
0.000871735
0.000782363
0.00130893
-0.000691541
3.31817e-06
2.29641e-06
-7.55904e-06
7.19144e-06
3.6776e-07
-0.0117488
0.00776192
0.00398686
-1.13377e-05
3.47381e-06
7.86384e-06
8.52841e-06
-2.72458e-06
-1.27679e-06
0.00491531
0.0123592
-0.0172745
-6.27299e-06
-9.47146e-08
6.36763e-06
-1.53006e-05
0.00118434
0.0021944
-0.00337875
0.000595904
-0.000331674
-3.91044e-05
0.000322527
-0.000283419
0.000124386
-0.000180649
5.631e-05
0.00127159
-0.0004218
4.59701e-05
9.50645e-05
-0.000153634
5.85734e-05
-3.18431e-05
4.22432e-05
-3.71492e-05
0.000246388
-2.83559e-06
5.52864e-06
-2.69289e-06
0.000153781
-0.0122275
0.0171428
-0.000247773
-0.000800865
0.000390546
-0.00042051
0.00177115
-0.00135064
8.24165e-07
-1.33445e-05
1.25217e-05
-0.000888551
0.00106658
-0.000178036
-2.36581e-05
-1.74461e-05
4.1104e-05
-2.49158e-05
2.31053e-05
1.81021e-06
0.000415029
5.07912e-05
1.08177e-05
-6.16097e-05
0.000973507
-0.00165934
0.00518372
8.90828e-05
-0.000106694
-8.53296e-06
-1.63858e-05
-9.82499e-05
2.97616e-05
6.84895e-05
-4.51741e-05
2.15167e-05
6.08713e-08
-7.35135e-07
6.74548e-07
-0.00341891
0.00331285
-0.000155073
-0.000556406
0.000711491
-9.15811e-06
-6.74063e-05
-3.6459e-05
0.000103863
6.62433e-06
-7.9878e-06
1.36387e-06
0.000459215
-0.000599904
0.000140696
0.00419101
-0.00277252
-1.44262e-05
-0.00668923
-0.0133223
0.0200111
-0.000118406
-5.8901e-05
4.08373e-05
-1.96781e-05
-2.11582e-05
1.08356e-05
-4.26781e-05
-7.28915e-06
8.71667e-07
6.41826e-06
-0.000249413
0.000430902
-0.0278157
0.0112253
0.0165904
-0.00286352
0.0133725
-0.010509
0.00124173
0.00089507
0.000291909
-0.00118698
-0.00659579
-0.00485173
1.07948e-06
2.95064e-06
-4.03007e-06
-0.000998855
0.000751068
2.6883e-05
-9.42896e-05
0.000163357
-0.000281235
0.000117886
-0.000174579
-4.98756e-06
4.96308e-07
6.12734e-06
-0.00140162
0.000586334
0.000815281
-0.00626958
-0.00767594
0.00045862
-0.000934823
0.000476111
-3.40423e-07
3.39996e-07
0.00735366
-0.00901894
0.00166547
-7.51746e-05
-3.4496e-05
-0.00366602
0.0032144
0.000451619
-0.00216503
0.00174452
-1.52382e-05
-8.3011e-05
0.000266977
0.0026119
-0.00287891
0.00174098
-0.00535973
0.00361881
6.3413e-05
-1.26235e-05
2.79048e-06
-4.29852e-06
1.50849e-06
-0.000121177
2.14783e-05
9.96954e-05
-3.49799e-05
-0.000102349
0.000135205
-0.000194528
5.93188e-05
-5.72783e-06
2.87998e-06
2.84786e-06
0.000328453
-0.000200581
-0.000127867
3.28394e-06
-4.9343e-07
-9.44441e-07
-6.61441e-06
2.85865e-05
-2.767e-05
-9.1779e-07
0.00443584
-0.000527039
-0.0039088
0.000169426
0.000293051
-0.000462511
0.000189176
-0.000203912
-3.31662e-05
2.67316e-05
6.43672e-06
0.0070859
-0.00805207
0.00096631
-0.000175814
0.00014817
-6.57137e-05
-0.000156484
0.000222197
-3.55405e-06
3.80815e-06
0.000905626
0.00353021
-0.000109125
8.66698e-05
2.24568e-05
-0.000260929
0.000311109
-5.01727e-05
0.00140687
0.000460491
-0.00186733
0.00111909
-0.00106584
-5.32507e-05
0.0151927
-0.00490796
-4.07239e-06
6.44644e-08
3.97834e-07
-3.13661e-06
2.73684e-06
0.00056935
0.000397551
-0.000966902
-5.64298e-06
-1.70492e-05
1.90452e-05
-1.99682e-06
-0.000911705
-0.00184059
0.0027523
-0.000322772
0.000283668
-0.00752488
0.00927876
-0.00175389
1.91758e-08
-3.56865e-08
0.000562473
0.00022385
-4.87559e-06
-4.17125e-05
4.65887e-05
-1.848e-05
4.06272e-05
0.00612841
-0.00446682
-0.00166163
1.5985e-06
-1.20202e-06
2.74591e-05
-8.04973e-05
-0.00741526
-0.00866575
0.00433349
0.00433227
-1.71403e-06
-3.90147e-05
-4.27788e-06
6.16183e-06
-1.8831e-06
-3.2779e-07
1.54139e-06
-1.21342e-06
3.55193e-08
4.55854e-09
-4.11762e-08
-0.000356683
-0.000146686
0.000654962
-8.56118e-05
-0.0172706
0.0186989
-0.00142829
0.0054618
-0.0131508
0.00768897
0.000122361
-0.000290333
0.000208639
8.16882e-05
0.0001555
-0.000784828
0.000629335
0.00139121
0.00141629
0.000280006
-0.000104885
-0.000175116
-0.000357686
-0.000351949
1.63146e-06
-4.92383e-06
3.2918e-06
-0.00795343
0.00935865
-0.0014052
-4.68722e-07
9.86154e-08
3.70224e-07
0.00429395
0.00650913
-0.0108031
-6.14572e-05
0.00641396
0.00279036
-0.00920427
-4.69692e-05
-9.41286e-05
-9.20081e-05
-0.000121623
-2.5956e-06
-3.07467e-07
-0.000155591
0.000155904
-7.74881e-05
0.000536713
3.13607e-07
-6.58582e-06
3.27668e-06
-1.67297e-06
0.0011219
-2.81573e-06
-0.000428888
0.00033801
9.08842e-05
-5.33101e-06
8.65293e-06
-0.00168222
-0.000497966
0.00218019
4.33588e-06
2.27134e-06
0.00562543
-0.0115145
0.00031608
-0.00025136
-6.47213e-05
0.000115817
-7.68005e-06
-3.77318e-05
0.000106549
3.50998e-05
-0.000110268
-0.000756183
0.000577353
0.000178832
0.000288381
-0.000387689
9.92912e-05
-0.00142774
0.00086361
3.37476e-05
-0.00101927
0.000523768
0.000495517
-0.00019117
0.000634506
0.00036374
-0.000194369
-0.000186073
-0.0027993
0.00298541
0.000616448
-0.000771514
-0.000258138
0.00027877
-2.06205e-05
-0.00525133
0.00389625
0.0013552
2.3121e-06
-4.12954e-06
7.97605e-05
-6.73606e-05
-1.24e-05
-1.33363e-05
-3.0715e-05
-0.000206105
0.000312534
-0.000106412
-0.000326418
0.00127571
-0.000949264
4.67558e-05
-4.19622e-05
-4.79509e-06
-0.000432536
-0.00054562
0.0022131
0.000409397
-1.15329e-05
-0.000397855
0.0340629
-0.0177156
-0.0163472
0.000300976
-0.000294939
-6.02483e-06
6.54084e-05
-6.5681e-05
2.71092e-07
-0.00076535
-0.00250504
-1.56872e-05
-5.70484e-07
1.62554e-05
-0.00219909
-0.0069529
0.00476383
0.0225743
-0.00458125
-0.00202773
0.00660901
2.6375e-06
-4.76438e-06
2.12734e-06
-0.00120597
0.00080356
5.99888e-08
-1.79528e-07
1.17929e-07
0.00055827
-0.000437053
-0.000121212
-4.14623e-06
1.67406e-06
2.47214e-06
-0.00150041
0.00117396
1.16737e-05
0.000172075
1.26241e-06
2.94499e-06
-1.93039e-05
1.46593e-05
0.00937885
-0.00296462
0.000115192
-0.00020996
9.47734e-05
1.49589e-05
-4.28137e-05
2.78534e-05
0.00128807
-0.000196954
-0.00109111
4.42675e-06
-1.78789e-06
3.40986e-05
1.26572e-05
0.000134412
-0.000212288
7.78708e-05
-0.000220682
2.08514e-05
0.000199828
0.000194306
-0.000209762
1.54487e-05
-0.0284213
-0.0147599
0.0431812
-0.000489359
-0.000188181
0.000677539
1.49093e-05
0.00014115
2.83303e-05
-3.32055e-05
0.000496216
-0.000844711
0.000348487
0.0142915
-0.00635817
-0.00806114
-0.0123273
0.0203884
-0.000176504
0.000130108
4.6394e-05
0.000214605
7.32815e-05
-0.000287888
1.6508e-05
0.000263511
0.000113937
0.000834312
-1.79944e-05
1.32789e-05
4.71519e-06
-4.59805e-06
2.46787e-07
4.35056e-06
-6.84613e-07
6.83791e-07
-7.66639e-05
8.89226e-05
-6.47389e-07
-3.95067e-06
-0.000126036
-0.000630147
5.42889e-06
-4.89695e-06
-5.31998e-07
-0.0147938
0.0335671
-0.0187733
6.03137e-05
0.000159612
-0.000219924
-7.73534e-07
-4.87185e-06
3.77826e-06
1.19383e-05
9.05957e-05
-4.30823e-05
-4.75192e-05
-0.0207833
0.0127221
4.50694e-06
-3.51909e-06
3.51352e-05
5.54595e-05
0.00187501
-0.00130804
-0.00441655
-0.000266209
-2.98385e-06
4.61592e-06
0.00585759
-0.00371055
-0.00214692
9.30404e-05
2.27758e-05
-0.0031078
0.016675
-9.54331e-07
9.54719e-07
-3.16039e-06
8.5608e-06
-5.43695e-05
5.58782e-05
-1.50924e-06
-0.000714725
-0.000175632
0.00089036
-0.00193301
1.53322e-05
0.000103517
-0.000118845
0.000496183
-0.0010708
0.000574612
0.00196948
-0.000870099
-4.07538e-05
1.45423e-05
2.62103e-05
0.000980516
0.000988954
0.0107654
-0.00812885
-0.00263646
-0.000821567
-0.000580054
-9.69478e-05
-0.000617775
-6.099e-06
0.00129417
-8.90999e-06
5.14395e-06
3.76495e-06
0.000329207
-6.58149e-07
1.33957e-05
-1.27354e-05
-4.96674e-05
-4.70215e-06
-0.000169463
-0.000120874
0.000806447
0.000199635
0.0164485
-0.0287913
0.0123429
-4.629e-05
1.10664e-05
3.52239e-05
-0.00159755
-0.00714978
0.00874736
0.00498999
-0.00205009
-0.0137975
0.0167167
-0.00291909
0.0135365
0.00203109
-0.015568
0.000651299
0.000932819
-0.0015841
-4.24369e-05
6.4837e-05
-2.23893e-05
0.00879256
-0.0372138
0.00465579
-0.00721259
-5.89849e-06
5.01023e-06
8.87938e-07
3.28389e-06
-3.56015e-06
2.76644e-07
-7.84983e-07
-2.52201e-07
1.03698e-06
-9.65511e-07
-6.32244e-06
-0.00433302
-0.0157568
0.02009
-4.92614e-06
-3.98417e-06
7.19807e-06
-5.06159e-06
-2.13684e-06
0.000146941
0.00022552
-0.000372449
-0.000269942
0.000371312
-0.000101335
0.000101433
0.00020983
-1.17452e-05
7.67058e-06
4.07562e-06
3.2838e-05
1.05804e-05
-4.342e-05
-1.87538e-06
-1.38126e-05
7.75022e-05
-7.72873e-06
-6.97731e-05
0.000170853
-0.000951711
0.000780865
5.08921e-06
4.45724e-06
-9.54646e-06
0.000776052
-0.000317446
3.44997e-05
1.44298e-06
-3.59414e-05
-0.000431112
-0.00122301
-0.000187224
-1.70711e-06
0.000188935
-3.7861e-05
-0.000149363
0.000367819
0.000524338
-0.000892157
3.24478e-05
2.05296e-06
-0.000369549
9.96387e-05
-0.000101754
-7.4563e-05
1.37335e-06
2.83027e-06
-0.0208908
0.0111767
0.00971413
-3.51269e-06
5.80319e-06
-2.28996e-06
-1.93611e-06
4.91009e-06
-2.97396e-06
-2.03345e-05
0.000144717
-0.000256091
-0.000172794
0.000153505
-0.000136593
-1.69142e-05
-0.00547818
0.00338526
0.00209292
-8.75603e-08
1.22825e-07
3.12084e-07
2.97248e-06
0.00100649
-0.000608934
-6.32533e-06
-1.06727e-06
0.00210517
0.00160086
-0.00370603
5.5767e-05
2.4103e-07
-0.00125899
6.60344e-05
-0.000594075
6.65899e-05
-0.000113559
-0.000661164
-0.00275774
4.33001e-05
-1.83289e-05
-0.000124015
-7.14919e-05
0.000195506
0.000104196
-0.000291504
-0.000178286
0.00011446
6.38084e-05
-4.20263e-06
7.90386e-07
3.41105e-06
0.000216258
-8.18516e-05
2.13479e-05
-0.00019785
-6.35731e-07
-5.2631e-06
0.000122344
-5.06357e-05
-0.000170042
1.30168e-06
-1.72705e-06
4.25635e-07
6.81292e-06
1.0251e-05
-1.70628e-05
2.40325e-05
-0.000251356
0.000227323
-3.43415e-05
1.83828e-05
1.596e-05
3.10019e-05
1.25946e-05
-4.35951e-05
-0.00067296
0.00116914
-2.00449e-05
7.08586e-06
1.29589e-05
-3.22709e-05
1.56165e-05
1.66545e-05
0.000369332
-0.000426715
5.73221e-05
1.90179e-06
-9.02906e-06
7.12798e-06
-6.26389e-06
-1.17309e-05
2.658e-05
-1.5928e-05
-1.06528e-05
-1.58881e-05
0.000210191
-4.09252e-05
-1.37017e-06
-3.6085e-07
1.73238e-06
0.000907659
-0.000539832
-0.000138493
0.0003182
-0.000179706
-0.0111949
0.00363678
0.00755819
6.2264e-05
-4.56268e-06
2.62782e-06
0.000428826
-0.000140442
4.54197e-06
-2.14883e-05
1.69454e-05
1.51166e-05
-6.49666e-06
8.52378e-07
5.64543e-06
-3.05368e-07
-1.63255e-07
-6.25398e-06
-5.49082e-06
-0.000119783
-7.23521e-05
0.000192139
3.37066e-07
-6.66332e-06
-0.00262918
0.00473433
-9.91364e-07
6.00211e-06
0.000748546
0.000373357
-0.000142694
0.000123588
0.000383183
-0.000207753
-0.000175435
0.000114544
0.000268639
6.17263e-07
0.000153013
-0.000137678
0.0107263
3.90535e-05
-0.000611965
-0.00350817
-0.00381057
0.00598162
-0.00217105
-5.70436e-06
2.1905e-06
0.000670052
0.000912647
4.01469e-05
9.61567e-06
-4.97634e-05
0.000325256
-6.70246e-05
-0.000258221
1.58192e-05
-4.92888e-06
-1.08915e-05
-2.78659e-06
-4.33615e-06
3.72179e-07
-3.478e-06
3.10559e-06
-0.000195353
0.000174166
2.11892e-05
-4.64004e-06
1.14528e-05
-0.000128432
4.74142e-06
-8.16792e-06
3.42674e-06
0.000657397
0.00034909
-5.6611e-05
-0.000138733
-4.89048e-05
0.000145735
-9.11555e-05
-0.00011134
0.000202497
0.000148937
-0.000278535
1.41946e-06
-3.6817e-06
1.40304e-06
5.55882e-06
0.00145448
-0.00246929
0.00101481
-0.0166693
0.025581
-0.00891171
-4.49104e-05
-0.00154379
0.00158873
6.44806e-07
-1.49369e-06
2.04307e-07
-1.23736e-06
1.03344e-06
-1.63734e-05
-1.79671e-05
-2.88857e-06
-3.71124e-07
0.00541702
-0.00367599
0.00520609
-0.00455357
-0.000652559
3.18774e-05
8.62068e-06
-4.04945e-05
0.00352945
0.00232823
-6.10886e-06
-0.00594631
-0.00754287
9.89436e-06
-6.04171e-05
5.89753e-05
1.44173e-06
3.42237e-05
-2.34177e-06
-0.00728425
-0.00446454
3.09873e-05
-3.05244e-05
-2.57955e-05
-0.00172185
-0.000257592
0.000166437
0.000116014
-0.000254509
1.22703e-07
-4.67002e-06
0.00667255
0.00811115
0.00230681
4.13289e-05
-1.44018e-05
-2.6928e-05
6.04556e-06
3.40908e-06
-9.45482e-06
0.000269118
-0.00016762
-0.000101501
0.0119454
-0.00080529
0.00282757
-0.00164325
3.89039e-06
0.000210716
6.37511e-05
0.00304798
-0.00351547
0.000467475
-1.41014e-06
2.9427e-06
-0.000649954
4.5611e-05
0.000604341
-7.95481e-05
0.000227503
-0.000147958
-0.00272721
0.00359984
-2.04655e-06
-8.97238e-07
2.94495e-06
2.63566e-06
-2.52138e-05
8.24604e-06
1.9463e-05
-7.32736e-05
5.54136e-06
-0.000100344
0.000596561
-1.11676e-06
2.53553e-06
7.19576e-05
-5.79362e-05
-1.40236e-05
-2.29039e-06
2.44814e-07
0.00028328
3.27985e-05
-0.000897839
0.000411101
0.000486717
0.00104019
-0.000291647
0.000125866
0.0001994
2.11233e-06
1.20957e-06
0.000955246
-0.000890361
-6.48803e-05
-0.000655198
-0.00482297
0.000189566
0.000325111
-0.00073227
-8.71757e-05
-7.97327e-05
0.000166911
-0.00599823
0.00218765
-1.76208e-06
2.13334e-06
0.000267555
0.000740621
-0.00345292
-0.000226572
-7.78328e-06
0.000234357
-1.30072e-06
-5.43746e-06
3.82749e-05
-1.71554e-05
1.96913e-05
-2.53593e-06
-0.000814319
0.00178784
-0.0167127