/*--------------------------------*- C++ -*----------------------------------*\
| =========                 |                                                 |
| \\      /  F ield         | OpenFOAM: The Open Source CFD Toolbox           |
|  \\    /   O peration     | Version:  v2012                                 |
|   \\  /    A nd           | Website:  www.openfoam.com                      |
|    \\/     M anipulation  |                                                 |
\*---------------------------------------------------------------------------*/
FoamFile
{
    version     2.0;
    format      ascii;
    class       volScalarField;
    location    "400";
    object      k;
}
// * * * * * * * * * * * * * * * * * * * * * * * * * * * * * * * * * * * * * //

dimensions      [0 2 -2 0 0 0 0];


internalField   nonuniform List<scalar> 
27802
(
0.000185157
0.00014216
0.000150503
0.000152823
0.0290548
0.000145999
0.000152289
0.000147801
0.000181506
0.000149546
0.000138743
0.0383147
0.0360053
0.000185241
0.000141419
0.000152277
0.000127902
0.0368835
0.0188219
0.000177832
0.000140964
0.000146072
0.000185994
0.000196041
0.00013567
0.000148225
0.000144761
0.000149458
0.000135636
0.000587005
0.000144741
0.000153394
0.00738913
0.000191593
0.0101111
0.000142025
0.000215698
0.000767921
0.000144695
0.000144314
0.000146975
0.000144338
0.0172089
0.000223235
0.000139825
0.000141282
0.000207492
0.000145968
0.000137034
0.00017056
0.000155963
0.000139847
0.00201802
0.000140988
0.000143245
0.00014582
0.0160225
0.000183657
0.000145349
0.0219739
0.000142011
0.000145248
0.00182164
0.000153349
0.036337
0.000189412
0.0266807
0.000150009
0.0319562
0.000153387
0.000139752
0.000201231
0.0254167
0.000200382
0.00256645
0.000156084
0.00117361
0.0246777
0.000169463
0.000151994
0.0205478
0.000265346
0.000137293
0.000183423
0.000144629
0.00015291
0.000135499
0.000143132
0.000201226
0.000162871
0.0306693
0.000145059
0.000223601
0.000151931
0.000139664
0.00014588
0.00015944
0.029921
0.000146941
0.000205815
0.000265361
0.000147289
0.000152468
0.000155574
0.000201993
0.000145029
0.000234996
0.000182393
0.000142315
0.000168362
0.000152763
0.000141331
0.000147335
0.000231793
0.000135636
0.000199142
0.000158479
0.000139326
0.000156492
0.000177534
0.0387221
0.0321605
0.000167508
0.000135626
0.000143657
0.000188013
0.000210901
0.000843112
0.0372721
0.0379132
0.000152494
0.00016717
0.00014678
0.000149084
0.000137315
0.000149206
0.000148833
0.00013826
0.000178305
0.000188877
0.000149608
0.000145071
0.000188631
0.000135291
0.000135607
0.000151164
0.000148788
0.000150331
0.000140104
0.000146365
0.000139129
0.000145841
0.000153114
0.000150232
0.000176293
0.000143346
0.000194572
0.000209536
0.000168209
0.000197333
0.000210845
0.000201263
0.000152845
0.000156405
0.000128097
0.000134876
0.000139528
0.000146117
0.000143962
0.000178853
0.000154845
0.00015828
0.000143795
0.00777689
0.000144892
0.0342417
0.000134706
0.000160017
0.000139582
0.000216576
0.000196032
0.000166005
0.000163185
0.000150965
0.00014376
0.000180717
0.000143303
0.000150154
0.000203827
0.00187033
0.000140582
0.000154804
0.000184629
0.000150945
0.000133611
0.000144448
0.000133607
0.000139136
0.000142178
0.000145095
0.0409641
0.000280473
0.000278758
0.000156615
0.000142345
0.000167238
0.00015281
0.000728481
0.000132742
0.0236304
0.000142221
0.000625337
0.0326513
0.000159843
0.000204558
0.000141824
0.000713362
0.000151928
0.000146175
0.000143478
0.0378223
0.000128627
0.000180318
0.0002023
0.00014371
0.000137977
0.000137567
0.000154757
0.000141332
0.000147368
0.000128525
0.0188718
0.000145893
0.000164169
0.015919
0.000189714
0.000146438
0.000129645
0.00890145
0.000153199
0.00014586
0.0137333
0.0147953
0.000145523
0.000159861
0.00609389
0.000138879
0.000554842
0.00015128
0.000150101
0.000214953
0.000164721
0.000184995
0.000146159
0.000160098
0.000133846
0.000144222
0.000186221
0.000156613
0.000133633
0.000164813
0.000146509
0.0339064
0.000132523
0.0400135
0.000159925
0.0422327
0.000147446
0.000128615
0.000144917
0.000210496
0.00014051
0.000188429
0.000278096
0.000150833
0.000214975
0.00014963
0.000168247
0.000159705
0.000143954
0.0004891
0.000164278
0.000151768
0.000192876
0.000213655
0.000276366
0.000115858
0.00014736
0.000156725
0.000142959
0.000129469
0.000184563
0.000134331
0.000317158
0.000134284
0.000172252
0.000199857
0.000144884
0.0264171
0.00292512
0.00018961
0.000150666
0.000154571
0.000196815
0.0151837
0.000178734
0.000146296
0.0390072
0.00016357
0.00014983
0.000162071
0.000180365
0.000185437
0.000149226
0.000163883
0.000142194
0.000162436
0.000184828
0.000168064
0.000186168
0.000146802
0.000142385
0.000129404
0.000139702
0.00030964
0.000146119
0.0346725
0.000146084
0.000142407
0.000163042
0.000149013
0.0201374
0.00310014
0.000203916
0.000202114
0.00417225
0.000185613
0.000142144
0.000185464
0.00014035
0.000128147
0.0367921
0.0401331
0.000173854
0.000198842
0.000431491
0.000207817
0.00606956
0.000151246
0.000155636
0.000135945
0.0328261
0.000143803
0.000149389
0.000147751
0.000149186
0.000957711
0.000287458
0.000142816
0.00013995
0.000192842
0.000311853
0.000140295
0.000168843
0.000133411
0.000147821
0.00552735
0.000147162
0.000164094
0.000142719
0.000141908
0.000208194
0.000169268
0.000195991
0.00176372
0.0416438
0.000169547
0.000152589
0.000161867
0.000141306
0.000150006
0.000133483
0.000147478
0.00014053
0.000142502
0.000146068
0.000213811
0.000152881
0.00018918
0.000162861
0.000142381
0.000145767
0.00016295
0.000168303
0.000141917
0.0220004
0.000366008
0.00018518
0.000144358
0.000184845
0.0369374
0.00016856
0.000142106
0.000176937
0.000144044
0.00614286
0.000165417
0.000208252
0.000288135
0.000166715
0.0227859
0.000153002
0.0380201
0.0357196
0.00320427
0.000146171
0.00013999
0.000163568
0.000135256
0.00616808
0.0182536
0.000150752
0.000153858
0.000148209
0.000825089
0.000149877
0.000152102
0.0383092
0.000204214
0.000155671
0.000140271
0.000164768
0.00347358
0.000141847
0.000147841
0.000142349
0.000189619
0.0032535
0.00208962
0.000163355
0.000176386
0.000154051
0.000142833
0.000141001
0.000186377
0.000142531
0.000136342
0.000151556
0.000185307
0.000172521
0.0252669
0.0210032
0.000515652
0.0216026
0.000134586
0.000170425
0.000163585
0.00031009
0.00299957
0.000142697
0.0001882
0.000270384
0.000174384
0.000177551
0.000128293
0.000153327
0.000965914
0.000142498
0.00024319
0.000136287
0.000159743
0.000142162
0.000147039
0.000200157
0.000300031
0.000332228
0.000147057
0.0165954
0.000128345
0.000156177
0.000193873
0.000156152
0.000155274
0.000185341
0.000185511
0.000972659
0.00015212
0.000149519
0.000194386
0.00014196
0.000142451
0.00210159
0.000144745
0.0407985
0.000146774
0.037596
0.0016312
0.00156055
0.000141965
0.000194614
0.0367195
0.000167952
0.000441235
0.000197972
0.00104715
0.000219057
0.000158847
0.000164776
0.000185855
0.000149171
0.000146038
0.000317691
0.000170342
0.000139196
0.000143099
0.000208287
0.00261407
0.000178585
0.000144174
0.000172092
0.00015338
0.00772082
0.000147646
0.000167874
0.00020274
0.000140551
0.000134017
0.000149413
0.000452472
0.0371408
0.000174719
0.0243091
0.000139179
0.000148557
0.036752
0.000141466
0.000171643
0.000141741
0.000134094
0.000235941
0.00135638
0.000143273
0.000149311
0.000139254
0.000185522
0.000144462
0.000160293
0.00173583
0.000176081
0.000185799
0.0283827
0.000190771
0.000632405
0.0133518
0.000143636
0.0373408
0.000149529
0.00017395
0.000150847
0.000147515
0.000143613
0.0002985
0.000145032
0.000141859
0.000135466
0.00434947
0.000160833
0.000150875
0.000189769
0.000213226
0.000216641
0.0419117
0.0313722
0.000168217
0.00019724
0.000159734
0.0410501
0.00014644
0.000180739
0.0041718
0.000202233
0.00896086
0.000166289
0.000150816
0.0218949
0.000173698
0.000135569
0.0214138
0.000189206
0.000214331
0.000499297
0.000189848
0.000135579
0.000151526
0.000173453
0.000144768
0.000176288
0.000199158
0.000134611
0.000152298
0.000137978
0.000202729
0.000213113
0.000150794
0.00600013
0.0388162
0.000155639
0.000159613
0.000143663
0.0324895
0.000509005
0.000296017
0.000192443
0.000181011
0.00196331
0.000141783
0.000201351
0.000151956
0.0409426
0.038419
0.000137783
0.000170613
0.000271434
0.000206487
0.000150388
0.0359193
0.000163342
0.0205935
0.000167018
0.000151275
0.000214049
0.0237489
0.000189044
0.000142536
0.000172371
0.000158879
0.000175179
0.000157205
0.00523597
0.000142546
0.000143533
0.000156196
0.000173695
0.0350734
0.000199574
0.000154996
0.029952
0.000168233
0.0313373
0.000142295
0.000209124
0.00018564
0.000192175
0.0296204
0.000154398
0.00148879
0.000159169
0.000135314
0.000148105
0.000146293
0.000146596
0.000171227
0.000215637
0.000481603
0.000146622
0.000174216
0.000153816
0.000156403
0.000212553
0.000135074
0.000149419
0.000282984
0.000236727
0.000156663
0.000140212
0.000156897
0.000151841
0.000162711
0.000147304
0.00087401
0.00668887
0.000155314
0.000188163
0.000179583
0.0288948
0.0303447
0.000187394
0.000142469
0.00017605
0.000144916
0.000645943
0.000149193
0.000234066
0.000175004
0.0389413
0.000135951
0.000145633
0.000201662
0.000159749
0.000135651
0.000154035
0.000193188
0.000141766
0.000183052
0.000143668
0.00193876
0.000141052
0.000157725
0.000190688
0.000163441
0.00015798
0.000233144
0.000177206
0.00016753
0.000187816
0.000152533
0.0377002
0.0270712
0.00020013
0.000169029
0.0251445
0.000139482
0.000153893
0.000155925
0.00495412
0.000179176
0.000155451
0.000153336
0.000208917
0.0295515
0.0146901
0.0307409
0.000161596
0.000187214
0.0375831
0.00014984
0.000284805
0.0207907
0.000163176
0.000134786
0.000175035
0.000146286
0.000220051
0.000128885
0.000179285
0.0380762
0.000154959
0.000146047
0.000241441
0.0404833
0.000167403
0.000160515
0.00013453
0.000155187
0.000160801
0.000181815
0.000172609
0.00400229
0.000176364
0.000150152
0.000153607
0.00018251
0.00107941
0.0294898
0.000140238
0.00367574
0.0309945
0.000153398
0.000150489
0.000139303
0.000148546
0.0364899
0.000139246
0.000157805
0.000160636
0.019178
0.0216414
0.000148752
0.0001457
0.000158336
0.0306616
0.000127905
0.000158216
0.000177839
0.000201475
0.000140548
0.0248936
0.000157488
0.00296583
0.000154842
0.000147518
0.000160291
0.000157274
0.0322472
0.000160443
0.0300346
0.00020655
0.000168398
0.000207095
0.00812763
0.000169493
0.000156421
0.000160681
0.000138592
0.000154278
0.000184236
0.000159886
0.0001877
0.000172179
0.00382922
0.00013867
0.0287866
0.000215315
0.00105513
0.00207507
0.00020025
0.000157548
0.00398341
0.000252189
0.000134278
0.000140386
0.000143345
0.000143802
0.00078613
0.000138731
0.000148416
0.0363398
0.0001752
0.0393906
0.000143331
0.000163113
0.000149805
0.000150652
0.000179315
0.000144445
0.000218012
0.000155627
0.000173745
0.000138292
0.000138259
0.000203529
0.000155975
0.000170398
0.000150447
0.000128917
0.0182071
0.000139559
0.000141175
0.041678
0.000192942
0.000185993
0.000189685
0.000151898
0.000139906
0.000148492
0.000149448
0.000221912
0.000189246
0.0015039
0.000150681
0.000174885
0.000177489
0.000148319
0.000159169
0.0398068
0.000162134
0.000149131
0.0001609
0.000140277
0.000134413
0.00731194
0.00018092
0.000143702
0.000145809
0.000168412
0.000185035
0.00015942
0.0303469
0.000150335
0.000154385
0.000178674
0.000145675
0.000150552
0.000147451
0.000173287
0.000185932
0.000148574
0.000202565
0.000152865
0.0365411
0.000150901
0.000141146
0.000112882
0.00014255
0.000145765
0.000138192
0.000144942
0.000143315
0.0374419
0.000149457
0.00022314
0.000139823
0.000154083
0.000139444
0.000139305
0.000139388
0.000142375
0.000160477
0.00792088
0.000190275
0.000216791
0.000139482
0.0103336
0.000167817
0.000170231
0.000148975
0.000139662
0.000134731
0.000157752
0.000145573
0.000172685
0.000130062
0.000147988
0.00015727
0.024092
0.000142728
0.000166503
0.000136482
0.000128642
0.00018193
0.0028411
0.0272414
0.000144689
0.00014039
0.000184702
0.000140861
0.0252315
0.000208998
0.000174207
0.0250558
0.000128502
0.0010116
0.000149118
0.000175694
0.000174453
0.000260826
0.000138184
0.000167704
0.0249213
0.000142731
0.000152605
0.000159171
0.00200109
0.000181369
0.000173385
0.00014585
0.000139875
0.000613211
0.000188125
0.00218165
0.000164356
0.000191405
0.000139263
0.000149244
0.000139531
0.000214243
0.000134478
0.000132094
0.000146739
0.000162858
0.000182271
0.000136553
0.000161557
0.000134279
0.000140639
0.000204804
0.000153746
0.000170463
0.000148453
0.000192084
0.000188494
0.000139894
0.0222963
0.000149526
0.000219225
0.000134776
0.040588
0.000179452
0.000148547
0.000128669
0.000163293
0.000131492
0.000184887
0.000992185
0.000143672
0.000150281
0.0149292
0.00774979
0.000146151
0.0262252
0.0216197
0.000210601
0.000142457
0.000219475
0.0199447
0.0402217
0.000147061
0.00528969
0.000129526
0.00014292
0.000142735
0.000141292
0.000155654
0.000138488
0.00016002
0.000201201
0.00110607
0.0016137
0.000225888
0.000150912
0.000175712
0.000180027
0.000138233
0.000139745
0.0306338
0.000226793
0.00014612
0.0124879
0.000148783
0.0352125
0.000619105
0.000138618
0.00304426
0.00013191
0.000157694
0.0275744
0.000181574
0.000140202
0.000148414
0.000137778
0.000154197
0.000147466
0.00014123
0.0418912
0.0194209
0.000160155
0.000192379
0.000148827
0.000148999
0.0320272
0.0350616
0.000148572
0.000191092
0.000173489
0.0021149
0.0181345
0.000140869
0.000142064
0.0285906
0.000176227
0.000145541
0.000172192
0.0123181
0.0236792
0.00622627
0.000156261
0.000146852
0.0020012
0.000141101
0.000159527
0.000165397
0.000171056
0.025187
0.000140874
0.00014233
0.000139971
0.000146818
0.000190591
0.000141673
0.000140826
0.0380185
0.017893
0.000181155
0.000186405
0.000149901
0.000150684
0.0068205
0.0265372
0.000154329
0.000164924
0.000150518
0.0403234
0.000188924
0.000179806
0.000168617
0.000168366
0.000140545
0.000145936
0.000142026
0.000144163
0.000144101
0.000184954
0.000160319
0.000153805
0.0275647
0.000182783
0.00016733
0.0352058
0.000145514
0.000341758
0.000189163
0.000353514
0.000152714
0.000303085
0.00020094
0.000134687
0.000177202
0.00014377
0.000140137
0.00018224
0.000140171
0.00403791
0.000150665
0.000150225
0.00015093
0.000169439
0.000150548
0.0001425
0.000138399
0.000140865
0.000150732
0.00016834
0.0192536
0.000140141
0.0315248
0.00017233
0.0291766
0.000151926
0.000160377
0.00606737
0.000138515
0.000138987
0.0350383
0.000138325
0.000168655
0.000148892
0.000273392
0.000215069
0.0356178
0.0187104
0.000150508
0.000155826
0.000532216
0.000143218
0.000173881
0.000150557
0.000145088
0.000188863
0.0417152
0.0136519
0.00019249
0.000184885
0.00014308
0.024509
0.0369987
0.000185873
0.000174964
0.02276
0.000301938
0.000203175
0.00125637
0.0044119
0.000153154
0.000234139
0.000190203
0.00015574
0.000148722
0.000162724
0.0192106
0.000150732
0.0024623
0.00236718
0.000149873
0.000137015
0.00137551
0.00436235
0.000140149
0.000156752
0.000151141
0.000122525
0.0347666
0.000811183
0.00015013
0.000140241
0.000149569
0.000165248
0.000192143
0.000159635
0.000153384
0.0225005
0.000145656
0.000156097
0.000248039
0.000141307
0.000152399
0.000167672
0.000138031
0.000189634
0.0237863
0.000164431
0.0173207
0.000730892
0.000178128
0.000147829
0.000163294
0.000180571
0.000145368
0.0205449
0.0395039
0.000186641
0.000140557
0.000168241
0.000969346
0.000179371
0.000190589
0.000129398
0.00145547
0.000148454
0.0339937
0.0265999
0.000149467
0.000146714
0.000138453
0.00016404
0.000152166
0.000152351
0.000143485
0.000137166
0.000178226
0.000136994
0.000162324
0.000200678
0.00019452
0.0308173
0.000149008
0.000166631
0.000163829
0.00015396
0.00019974
0.000142894
0.000160198
0.000150467
0.00013842
0.000143695
0.0292038
0.000170234
0.000141866
0.000150258
0.00178442
0.000199201
0.00977813
0.000156779
0.000135351
0.000159243
0.000216951
0.000306074
0.000138536
0.00605004
0.000154505
0.000139999
0.000138264
0.00405285
0.000138385
0.000149016
0.000152984
0.000157492
0.000195041
0.0195947
0.00016815
0.000141319
0.000185034
0.000146674
0.0357406
0.000215822
0.000141832
0.000138525
0.00294213
0.020292
0.0357884
0.000195766
0.000175829
0.000188964
0.000160473
0.000141342
0.00013854
0.00226704
0.000161554
0.000162023
0.000218458
0.000186355
0.000146598
0.00016671
0.000145479
0.0001946
0.000138431
0.000134823
0.000137596
0.000175876
0.000146448
0.000147075
0.0001997
0.000179739
0.000153932
0.000337416
0.000147828
0.0261872
0.000168569
0.000141831
0.000163088
0.0408597
0.000215905
0.000149947
0.000151276
0.000186037
0.000150774
0.000150872
0.00203216
0.000194995
0.000137693
0.00013866
0.00177655
0.0266167
0.000137838
0.000154082
0.000181151
0.000150334
0.000134832
0.000220372
0.0246823
0.000146451
0.000192821
0.0316237
0.000194786
0.000129495
0.000182482
0.000155901
0.000139766
0.000161239
0.0196977
0.000159476
0.0347533
0.000142095
0.00013791
0.0440134
0.000142257
0.000144635
0.000161977
0.000194621
0.000192388
0.000155437
0.000145303
0.000136293
0.000138485
0.000197639
0.0407013
0.000172977
0.00016341
0.00016927
0.000146572
0.000180126
0.00113979
0.000180099
0.000129031
0.000191359
0.000419834
0.00169793
0.000151761
0.000170573
0.0402013
0.000138739
0.00012995
0.00985538
0.000141254
0.026544
0.000145572
0.000310586
0.000159104
0.000186285
0.000157673
0.000189229
0.000140066
0.000139748
0.000173069
0.000138597
0.00104302
0.000152023
0.000131146
0.000142893
0.00684213
0.00025252
0.0278917
0.000138806
0.000596273
0.000137206
0.000215319
0.000195362
0.000183137
0.0170052
0.000203592
0.000148168
0.000162786
0.0286533
0.000139092
0.000162531
0.000150393
0.000145583
0.000142717
0.00610012
0.00054937
0.000172721
0.000140005
0.000146987
0.00017967
0.000757232
0.000143818
0.000151692
0.000138681
0.000160244
0.000144654
0.000175628
0.0218087
0.000130098
0.000154247
0.000200215
0.00013923
0.000150254
0.0024421
0.0366644
0.000152822
0.000137129
0.00447051
0.000158391
0.000157605
0.000146709
0.00036168
0.000160459
0.0241103
0.000171292
0.0351568
0.020567
0.000211986
0.000156933
0.000305277
0.00021203
0.000141562
0.000141346
0.000201925
0.0001384
0.000175387
0.0125539
0.000154431
0.00879997
0.000141304
0.000549793
0.000233593
0.00798204
0.0264076
0.000151035
0.000147426
0.000151204
0.000189608
0.00014259
0.000148834
0.00368907
0.00993885
0.0296459
0.00017241
0.000173084
0.000157035
0.000134166
0.000604799
0.000146907
0.000966056
0.000146196
0.000137367
0.0440995
0.000141449
0.000160726
0.00748571
0.000142007
0.000152842
0.000152321
0.000360936
0.00753152
0.000146408
0.000164685
0.039639
0.00014567
0.0184424
0.000155203
0.00013994
0.000222496
0.000147916
0.000164051
0.000145075
0.000146462
0.000141946
0.000185871
0.000215235
0.000171629
0.000141691
0.00398164
0.000137392
0.000134279
0.000218662
0.000147145
0.000203269
0.000144456
0.000141244
0.000145698
0.000212663
0.000138513
0.00571157
0.0352118
0.000139882
0.000147181
0.000153187
0.000157528
0.000200759
0.000177478
0.000151678
0.000151514
0.000140161
0.000146896
0.00017086
0.000145029
0.0118925
0.000349578
0.000149214
0.000174503
0.000147302
0.00015
0.000150799
0.00015001
0.000150345
0.000150536
0.000145774
0.000133443
0.00558438
0.000145409
0.000188015
0.000141849
0.000151032
0.000204256
0.000175852
0.000532561
0.0138425
0.00016871
0.00014505
0.000145748
0.000160689
0.000153232
0.0175652
0.000297543
0.0196574
0.000158522
0.000146173
0.000151765
0.000146795
0.000267007
0.028081
0.00021682
0.0433906
0.0390386
0.00015055
0.000172218
0.00014366
0.000171412
0.000178804
0.000142658
0.000163675
0.000146071
0.00019518
0.00611449
0.000144791
0.000146664
0.000157337
0.000200381
0.000163513
0.000143625
0.00016698
0.000146695
0.000155567
0.000147447
0.000165921
0.000148179
0.00019432
0.000146804
0.000176077
0.0343567
0.0363842
0.000235446
0.00328348
0.00015191
0.0281446
0.000260539
0.0276714
0.00014919
0.000208702
0.000139715
0.00779712
0.00809093
0.000157173
0.0126026
0.000167919
0.000149653
0.000197132
0.000149369
0.000158457
0.000368335
0.000167484
0.00013756
0.0300407
0.00018055
0.000152886
0.000205215
0.0426119
0.000213328
0.000154259
0.000142739
0.000155668
0.000147107
0.000210344
0.000412449
0.000148572
0.00014566
0.00470486
0.0313557
0.000137708
0.000143462
0.00019679
0.000975058
0.000158716
0.000137643
0.00014288
0.000176002
0.000139767
0.000154817
0.000129833
0.000192912
0.019936
0.0264719
0.000195311
0.000141912
0.000140923
0.000143667
0.000134488
0.000209372
0.000154442
0.000148162
0.000215945
0.000176199
0.000155865
0.000156439
0.000154957
0.000149889
0.000168574
0.0354192
0.00032573
0.0309295
0.029802
0.000176761
0.000161733
0.000154915
0.000154158
0.000164486
0.000211803
0.000179656
0.000141218
0.000153727
0.000141347
0.000150293
0.000140891
0.000148067
0.000142738
0.00318654
0.000169193
0.000157244
0.00017435
0.000150341
0.000140068
0.000145198
0.000198239
0.000174107
0.000143525
0.000215161
0.000161423
0.00367538
0.000149753
0.000147949
0.000183494
0.0148361
0.000141044
0.000181467
0.000145333
0.0328952
0.000212526
0.000171604
0.0105235
0.000354534
0.000142209
0.000136168
0.000160426
0.00016724
0.000150117
0.0267283
0.000163791
0.000136205
0.000143008
0.000264292
0.000166614
0.0173145
0.000149445
0.000183502
0.000172937
0.0216593
0.0162586
0.000164288
0.000164508
0.000153932
0.000156046
0.000185711
0.000172961
0.00208489
0.0200372
0.000137576
0.000240384
0.000158829
0.000154631
0.000151283
0.000143268
0.00016485
0.000137037
0.000143686
0.000170084
0.000154144
0.000147326
0.00777898
0.000193838
0.000185825
0.000163965
0.000150241
0.000149789
0.000137547
0.000168074
0.000156762
0.0351777
0.000228232
0.000137782
0.000690252
0.000919022
0.0228563
0.00284475
0.000164148
0.00403917
0.000178999
0.00469201
0.000145149
0.000180791
0.000171178
0.000147329
0.000163481
0.000388387
0.000180918
0.000145364
0.000211635
0.000157753
0.000140257
0.00430345
0.0401475
0.0163905
0.000224347
0.000372439
0.000172142
0.000134393
0.000148918
0.000134541
0.000184164
0.000140254
0.000161407
0.000201541
0.000140378
0.00203709
0.000216296
0.024133
0.0275472
0.00018441
0.000163854
0.00016696
0.0261752
0.000174027
0.000158134
0.000163058
0.00017564
0.000161081
0.000175021
0.000151724
0.0246659
0.000182941
0.0118355
0.000149987
0.0261682
0.0209229
0.000363389
0.000151313
0.000173448
0.0398184
0.00404688
0.000166439
0.0166368
0.000138001
0.0145756
0.00279021
0.000170451
0.00014706
0.0304443
0.000168481
0.00016686
0.000166441
0.00462312
0.000171688
0.000133277
0.000132975
0.000189227
0.000170346
0.000187785
0.000234547
0.000169603
0.000199338
0.000153954
0.000136162
0.000137824
0.000304415
0.000145657
0.000145516
0.0274899
0.000207739
0.000466039
0.000146569
0.000205068
0.00564841
0.00021688
0.0045416
0.000149966
0.000142615
0.00273129
0.00014217
0.000144868
0.000174302
0.000221588
0.0348985
0.000175347
0.000137243
0.0204746
0.000158536
0.000148701
0.000145242
0.000160768
0.000132444
0.00014117
0.000157747
0.000182416
0.000148862
0.000193053
0.000137782
0.000134887
0.000173469
0.000164826
0.000184607
0.000159147
0.000151881
0.000150453
0.000138654
0.0386075
0.000156105
0.000138173
0.000141436
0.0266068
0.000151147
0.0383886
0.00016852
0.000147757
0.00596475
0.000146813
0.000152166
0.000147286
0.000145094
0.000148069
0.000162948
0.00015959
0.000142634
0.000183775
0.000152787
0.000161994
0.000161172
0.000143232
0.000201999
0.000187269
0.000155662
0.000138925
0.0360376
0.000157963
0.000164433
0.000145409
0.000138387
0.000143685
0.00142846
0.000225413
0.00487593
0.000160968
0.000156651
0.000143392
0.000147855
0.00018514
0.000138656
0.00013881
0.000136133
0.0001636
0.000138837
0.00016373
0.0044568
0.000166455
0.000138495
0.000202593
0.000159167
0.000138803
0.000141542
0.000170223
0.000140841
0.0275901
0.000146723
0.000139723
0.000157611
0.000184523
0.000157133
0.000152575
0.00015508
0.000198419
0.000150219
0.000155906
0.000182211
0.0115764
0.00016219
0.000149229
0.000155953
0.000148678
0.00014477
0.000150478
0.000175504
0.000163558
0.000149528
0.000142055
0.000165902
0.0276317
0.0215797
0.000141095
0.000194825
0.000168113
0.000141067
0.000135632
0.0001452
0.000227953
0.000269884
0.000144038
0.000141424
0.000153442
0.0242187
0.0001954
0.000159562
0.000150958
0.00675978
0.000174332
0.000156743
0.000201371
0.00016974
0.00337467
0.000146911
0.0430088
0.000147504
0.000138486
0.000135567
0.000195663
0.000262604
0.000148878
0.000152639
0.000157997
0.00016959
0.000149757
0.00740553
0.00150671
0.000168736
0.00013961
0.000162423
0.000141189
0.000248716
0.000163574
0.040234
0.000152313
0.0001566
0.000155882
0.00272911
0.00016373
0.00013874
0.00666684
0.000138231
0.000142093
0.000307198
0.000136589
0.000142998
0.000164286
0.0035378
0.00157171
0.000268017
0.000174646
0.000316167
0.000167628
0.000346988
0.000192355
0.00014316
0.000133606
0.039086
0.000200673
0.0183159
0.000147033
0.000174357
0.000166362
0.000140422
0.000191918
0.00112262
0.00016354
0.000189248
0.00132014
0.000148251
0.000150955
0.000147999
0.000180079
0.000143
0.0310913
0.000162504
0.000143493
0.000253283
0.0300018
0.000202157
0.000164132
0.000149207
0.000160106
0.000151154
0.000268758
0.000142494
0.000175033
0.000207885
0.000210257
0.000139777
0.000217305
0.000162244
0.000166182
0.000186194
0.000152899
0.000222164
0.000189982
0.000137581
0.000172377
0.000173393
0.000127936
0.000173248
0.000148199
0.00213183
0.000227628
0.000186026
0.0272336
0.000161081
0.000154036
0.00289686
0.000139071
0.00999425
0.00018511
0.000243452
0.00014172
0.000136603
0.000137648
0.000145834
0.00014801
0.000144234
0.000139819
0.000188274
0.000179567
0.000149198
0.000192463
0.000145653
0.000137405
0.000198585
0.000188471
0.000174694
0.000226104
0.000131481
0.000138965
0.000150146
0.000202829
0.0412112
0.000141885
0.000155542
0.000140771
0.0236188
0.000140446
0.000167793
0.000178286
0.000189319
0.000140558
0.00015733
0.000137793
0.00285978
0.000194463
0.00019278
0.000311983
0.00352956
0.000147517
0.0132092
0.000145122
0.000244814
0.000154355
0.000353451
0.00193985
0.000216869
0.000142597
0.000138175
0.00142054
0.000151945
0.000201369
0.000130841
0.0188943
0.00435581
0.00014012
0.000166637
0.000145887
0.0104428
0.00374438
0.000153069
0.0103783
0.00015617
0.0307733
0.000159687
0.000201356
0.000939405
0.000181269
0.000187265
0.000149863
0.000160614
0.000150271
0.000140988
0.000148456
0.000158184
0.00017562
0.000202761
0.000150545
0.000195326
0.000138353
0.000151756
0.000149273
0.000162394
0.000141056
0.00014972
0.000144929
0.0214832
0.000185399
0.00209358
0.000137182
0.000840176
0.000138358
0.000132592
0.000141317
0.000173229
0.000187587
0.000234483
0.000138332
0.000142085
0.000160107
0.000144063
0.00015971
0.000139868
0.000189796
0.00383463
0.000172763
0.000149506
0.000878077
0.000200629
0.00020918
0.000272943
0.000180611
0.000139512
0.000128747
0.000202541
0.000140801
0.0112662
0.000163085
0.000324477
0.000151837
0.00319733
0.00331127
0.000147875
0.000162174
0.0266902
0.000148413
0.00433116
0.000180057
0.000154749
0.017204
0.000138946
0.000142691
0.000134215
0.000244787
0.000183473
0.000145607
0.000148603
0.00284814
0.0128195
0.000147887
0.000200177
0.0252967
0.0167831
0.00250109
0.000141084
0.000165687
0.00164014
0.000161499
0.000227546
0.000184594
0.000157735
0.00274374
0.000189144
0.043526
0.000144861
0.000216577
0.00013926
0.00429757
0.000148045
0.000138364
0.000198468
0.000166475
0.000167809
0.000138255
0.0002566
0.000175295
0.00797675
0.000139985
0.00014913
0.000228165
0.000177625
0.0398338
0.0333582
0.00171463
0.0198903
0.000152669
0.000161962
0.000138003
0.000179608
0.000218462
0.000149743
0.000275553
0.000139962
0.000147472
0.00974071
0.000135314
0.000183827
0.000136142
0.00013814
0.000179978
0.0112503
0.000158236
0.000238581
0.00647566
0.0123183
0.000149311
0.000154043
0.000166847
0.000138105
0.000141838
0.000161209
0.000133037
0.000135827
0.00015745
0.000135305
0.000138051
0.000161965
0.000139456
0.000199132
0.0393217
0.000146338
0.000140788
0.000187939
0.000141939
0.000148346
0.000222433
0.000360508
0.0001502
0.000139702
0.00014193
0.000190607
0.000156559
0.000157991
0.000149435
0.000188514
0.000187768
0.000292409
0.0329376
0.000138067
0.000200792
0.000135584
0.000141751
0.02662
0.000139567
0.000154638
0.0267204
0.0114552
0.000193759
0.00014085
0.000140559
0.000207482
0.00442179
0.000183438
0.00419024
0.000150617
0.000181123
0.000143434
0.000167293
0.00021652
0.000160112
0.000152386
0.000143383
0.000152408
0.000142565
0.000170029
0.000143499
0.0109737
0.0276743
0.000137984
0.000148954
0.000148924
0.000140881
0.000165878
0.0356912
0.00014771
0.000175075
0.0001378
0.000146036
0.00014909
0.000141031
0.00014933
0.000151572
0.000140143
0.000149441
0.0207247
0.00025189
0.000150354
0.000191659
0.000141874
0.000150236
0.000160736
0.000134887
0.000234947
0.00017082
0.000138577
0.000140815
0.000149295
0.000223925
0.000177719
0.000158099
0.000149973
0.000144693
0.000169475
0.000143513
0.000171433
0.000153171
0.00101312
0.000158104
0.00014465
0.000175583
0.00472513
0.000151753
0.000134299
0.000154991
0.0317533
0.0097866
0.000128846
0.000146201
0.000162288
0.000154833
0.00013407
0.0275339
0.000277155
0.000186799
0.000147827
0.00148361
0.000185339
0.000138146
0.000134977
0.000183018
0.000210332
0.000149775
0.00015174
0.000137107
0.000142658
0.0259658
0.000140552
0.000159852
0.0389936
0.000138145
0.000162695
0.000182623
0.0299629
0.000180711
0.00017558
0.000138629
0.00014903
0.000148272
0.000157593
0.000135737
0.000145179
0.0314686
0.000140888
0.000170943
0.000136544
0.000180686
0.000303392
0.00020493
0.0157593
0.0294292
0.000172172
0.000136148
0.000135817
0.00015703
0.00312444
0.000145551
0.000336965
0.000133009
0.000162215
0.0321525
0.000167241
0.000175536
0.000140647
0.000154165
0.000168755
0.000138234
0.000142278
0.000167932
0.000176431
0.000164685
0.000166802
0.0108414
0.000213994
0.000145205
0.00017622
0.0362139
0.00187882
0.000241145
0.000194779
0.000183196
0.000155632
0.00017066
0.0226483
0.000198845
0.0294461
0.000187765
0.000141829
0.000185561
0.000160171
0.000143773
0.000200585
0.000217728
0.000165891
0.000159975
0.000167848
0.000161759
0.000185507
0.000199803
0.00014902
0.0131379
0.0207142
0.00020993
0.000198544
0.0299337
0.000217874
0.000144195
0.000284116
0.000148946
0.00451214
0.000137136
0.000172699
0.000147362
0.0001391
0.000178873
0.000219602
0.0155744
0.00237934
0.00035681
0.000142429
0.000185195
0.000138147
0.00255348
0.0099885
0.000144388
0.000146391
0.000191649
0.00015625
0.000171562
0.000145125