/*--------------------------------*- C++ -*----------------------------------*\
| =========                 |                                                 |
| \\      /  F ield         | OpenFOAM: The Open Source CFD Toolbox           |
|  \\    /   O peration     | Version:  v2012                                 |
|   \\  /    A nd           | Website:  www.openfoam.com                      |
|    \\/     M anipulation  |                                                 |
\*---------------------------------------------------------------------------*/
FoamFile
{
    version     2.0;
    format      ascii;
    class       volScalarField;
    location    "400";
    object      k_0;
}
// * * * * * * * * * * * * * * * * * * * * * * * * * * * * * * * * * * * * * //

dimensions      [0 2 -2 0 0 0 0];


internalField   nonuniform List<scalar> 
27802
(
0.000185158
0.00014216
0.000150503
0.000152823
0.0290572
0.000145999
0.000152288
0.000147801
0.000181492
0.000149546
0.000138743
0.0383213
0.0360066
0.000185236
0.000141419
0.000152276
0.000127902
0.0368906
0.0187691
0.000177832
0.000140964
0.000146072
0.000185996
0.000196034
0.00013567
0.000148225
0.000144761
0.000149459
0.000135636
0.000589306
0.000144741
0.000153389
0.00740562
0.000191625
0.0101284
0.000142025
0.000215695
0.000762101
0.000144695
0.000144314
0.000146974
0.000144339
0.0172142
0.000223359
0.000139825
0.000141282
0.000207486
0.000145968
0.000137034
0.000170563
0.000155964
0.000139846
0.00201443
0.000140988
0.000143245
0.00014582
0.0160231
0.000183652
0.000145349
0.0219736
0.000142011
0.000145248
0.00181253
0.000153356
0.0363443
0.000189411
0.0266832
0.00015001
0.0319535
0.000153381
0.000139752
0.00020122
0.0253982
0.000200372
0.00258031
0.000156084
0.00119904
0.02468
0.000169462
0.000151993
0.0205509
0.00026474
0.000137293
0.000183418
0.000144629
0.00015291
0.000135499
0.000143132
0.000201216
0.000162767
0.0306828
0.000145058
0.000223525
0.00015193
0.000139664
0.00014588
0.00015944
0.0299227
0.000146941
0.000205811
0.000265008
0.000147289
0.000152468
0.000155574
0.000201981
0.000145029
0.000235467
0.000182377
0.000142315
0.000168362
0.000152766
0.000141331
0.000147335
0.000231732
0.000135636
0.000199118
0.00015848
0.000139326
0.000156492
0.000177533
0.0387246
0.0321735
0.000167507
0.000135626
0.000143657
0.000188004
0.000210907
0.000837969
0.0372752
0.0379155
0.000152494
0.000167169
0.000146781
0.000149084
0.000137315
0.000149207
0.000148833
0.000138259
0.000178317
0.000188876
0.000149608
0.000145072
0.000188601
0.000135291
0.000135607
0.000151164
0.000148788
0.000150331
0.000140104
0.000146365
0.000139129
0.000145841
0.000153114
0.000150232
0.000176294
0.000143346
0.000194578
0.000209523
0.000168209
0.000197339
0.000210855
0.000201252
0.000152845
0.000156405
0.000128097
0.000134876
0.000139528
0.000146118
0.000143962
0.00017885
0.000154845
0.000158281
0.000143795
0.00783452
0.000144892
0.0342495
0.000134706
0.000160017
0.000139582
0.000216581
0.000196025
0.000166007
0.000163185
0.000150965
0.00014376
0.000180718
0.000143303
0.000150154
0.000203835
0.00186534
0.000140582
0.000154803
0.000184631
0.000150945
0.000133611
0.000144448
0.000133607
0.000139136
0.000142178
0.000145095
0.0409746
0.000280682
0.00027968
0.000156615
0.000142345
0.000167238
0.00015281
0.0007284
0.000132742
0.0236303
0.000142221
0.000624508
0.0326601
0.000159843
0.000204566
0.000141824
0.000709292
0.000151926
0.000146175
0.000143479
0.0378258
0.000128627
0.000180319
0.000202304
0.000143711
0.000137977
0.000137566
0.000154755
0.000141332
0.000147368
0.000128525
0.0188713
0.000145893
0.000164169
0.0158594
0.000189714
0.000146438
0.000129742
0.00891951
0.000153177
0.000145859
0.013724
0.0147867
0.000145523
0.000159861
0.00611047
0.000138878
0.000552627
0.000151279
0.000150101
0.000214875
0.000164721
0.000184996
0.000146159
0.000160098
0.000133846
0.000144221
0.000185128
0.000156614
0.000133633
0.000164813
0.000146509
0.03391
0.000132523
0.0400233
0.000159925
0.0422419
0.000147446
0.000128615
0.000144917
0.000210483
0.00014051
0.000188428
0.000276918
0.000150833
0.000214961
0.00014963
0.000168247
0.000159705
0.000143953
0.000487912
0.000164278
0.000151767
0.000192899
0.000213662
0.000276692
0.000114917
0.00014736
0.000156725
0.000142959
0.000129469
0.000184591
0.000134331
0.000317747
0.000134284
0.000172281
0.000199835
0.000144883
0.0264172
0.00294451
0.000189609
0.000150666
0.000154579
0.000196822
0.0151255
0.000178746
0.000146296
0.0390174
0.000163569
0.00014983
0.000162072
0.000180366
0.000185437
0.000149226
0.000163899
0.000142194
0.000162437
0.000184829
0.000168064
0.000186164
0.000146802
0.000142385
0.000129404
0.000139702
0.000310345
0.000146119
0.0346762
0.000146084
0.000142407
0.000163042
0.000149012
0.020129
0.00310948
0.000203812
0.000202116
0.00420827
0.000185613
0.000142144
0.000185461
0.00014035
0.000128147
0.0367998
0.0402068
0.000173847
0.000198836
0.000427479
0.000207812
0.00607362
0.000151243
0.000155541
0.000135945
0.0328296
0.000143803
0.000149389
0.000147751
0.000149186
0.000954738
0.000287098
0.000142816
0.000139951
0.000192859
0.000311537
0.000140295
0.000168842
0.000133411
0.000147821
0.00553418
0.000147162
0.000164094
0.000142719
0.000141908
0.000208188
0.000169274
0.000195984
0.00182066
0.0416536
0.000169554
0.000152592
0.000161869
0.000141306
0.000150006
0.000133483
0.000147478
0.00014053
0.000142502
0.000146068
0.000213805
0.000152876
0.000189155
0.000162862
0.000142381
0.000145767
0.000162949
0.000168303
0.000141917
0.0219925
0.000363664
0.000185177
0.000144358
0.000184846
0.0369447
0.00016856
0.000142106
0.000176953
0.000144044
0.00614541
0.00016542
0.000208252
0.000288652
0.000166715
0.0227861
0.000153002
0.0380222
0.0357228
0.00321592
0.000146171
0.00013999
0.000163568
0.000135256
0.0061705
0.0182584
0.00015075
0.000153851
0.000148209
0.000819256
0.000149878
0.000152107
0.0383133
0.00020432
0.000155671
0.000140271
0.00016477
0.0034835
0.000141847
0.000147841
0.000142349
0.00018962
0.0032273
0.00207236
0.000163355
0.000176386
0.000154047
0.000142833
0.000141001
0.000186378
0.000142531
0.000136342
0.000151559
0.000185306
0.000172519
0.0252899
0.0210045
0.000514807
0.0216052
0.000134585
0.000170425
0.000163585
0.000310554
0.00308506
0.000142697
0.000188199
0.000270029
0.0001744
0.000177565
0.000128293
0.000153327
0.000960114
0.000142498
0.000243722
0.000136287
0.000159744
0.000142162
0.000147039
0.000200163
0.000299502
0.000331236
0.000147057
0.0165965
0.000128345
0.000156177
0.000193867
0.000156152
0.000155272
0.000185342
0.000185511
0.000978593
0.000152119
0.000149519
0.000194379
0.00014196
0.000142451
0.00211256
0.000144745
0.0408075
0.000146775
0.0376041
0.00164491
0.00157359
0.000141965
0.000194646
0.0367231
0.000167952
0.000437353
0.000197978
0.00106121
0.000219054
0.000158847
0.000164778
0.000185856
0.000149171
0.000146038
0.000317963
0.000170346
0.000139196
0.000143099
0.000208288
0.00262792
0.000178596
0.000144174
0.000172092
0.00015338
0.00770208
0.000147646
0.000167861
0.000202647
0.000140551
0.000134018
0.000149413
0.000454052
0.0371489
0.000174717
0.0242864
0.000139179
0.000148557
0.036761
0.000141466
0.000171642
0.000141741
0.000134094
0.000235736
0.0013529
0.000143273
0.000149311
0.000139254
0.000185522
0.000144462
0.000160293
0.00173144
0.000176081
0.0001858
0.0283785
0.000190772
0.000634059
0.0133409
0.000143636
0.0373482
0.00014953
0.000173958
0.000150825
0.000147515
0.000143613
0.000299153
0.000145032
0.000141859
0.000135466
0.00435431
0.000160833
0.000150875
0.000189798
0.000213224
0.00021663
0.041915
0.0313686
0.000168217
0.000197232
0.000159734
0.0410604
0.00014644
0.00018074
0.00417943
0.000202241
0.00897631
0.000166302
0.000150816
0.0218975
0.000173697
0.000135568
0.0214168
0.000189203
0.000214345
0.000497098
0.00018985
0.000135579
0.000151526
0.000173452
0.000144768
0.000176318
0.000199165
0.000134611
0.000152296
0.000137978
0.000202729
0.000213124
0.000150794
0.00604026
0.0388185
0.000155639
0.000159613
0.000143663
0.0324926
0.000504097
0.000295918
0.000192458
0.000180996
0.00197323
0.000141783
0.000201359
0.000151956
0.0409501
0.0384259
0.000137783
0.000170613
0.00027165
0.00020649
0.000150388
0.0359976
0.000163342
0.0205936
0.000167034
0.000151275
0.000214022
0.0237695
0.000189041
0.000142536
0.000172372
0.00015888
0.000175179
0.000157205
0.00525252
0.000142546
0.000143533
0.000156197
0.000173699
0.0350881
0.000199567
0.000154996
0.0300177
0.000168232
0.0313403
0.000142295
0.000208932
0.00018564
0.000192179
0.0296134
0.000154404
0.00148219
0.000159169
0.000135313
0.000148104
0.000146294
0.000146597
0.000171253
0.000215627
0.000479657
0.000146623
0.000174213
0.000153817
0.000156403
0.000212417
0.000135074
0.00014942
0.000283958
0.000236717
0.000156663
0.000140212
0.000156897
0.000151841
0.000162713
0.000147303
0.000868983
0.00666851
0.000155313
0.000188165
0.000179572
0.0288898
0.0303475
0.000187393
0.000142469
0.000176685
0.000144916
0.000642559
0.000149193
0.000234117
0.000175004
0.0389457
0.000135951
0.000145633
0.000201663
0.000159749
0.000135651
0.000154041
0.000193193
0.000141766
0.000183073
0.000143668
0.00193363
0.000141051
0.000157725
0.000190689
0.000163441
0.000157974
0.000233742
0.000177219
0.00016753
0.000187811
0.000152527
0.0377134
0.0270679
0.000200138
0.000169028
0.0251578
0.000139482
0.000153892
0.000155925
0.00497048
0.000179189
0.000155451
0.000153331
0.000208803
0.0295678
0.0149172
0.0307484
0.000161596
0.000187209
0.0376633
0.000149841
0.000284471
0.0207655
0.000162731
0.000134786
0.000175051
0.000146286
0.000220046
0.000128885
0.000179298
0.0380831
0.000154959
0.000146047
0.000241529
0.0404882
0.000167403
0.000160527
0.00013453
0.000155187
0.000160802
0.000181816
0.000172608
0.00399887
0.000176357
0.000150152
0.000153607
0.000182504
0.00109541
0.029396
0.000140238
0.0036874
0.0309973
0.000153393
0.000150489
0.000139303
0.000148546
0.0364913
0.000139246
0.0001578
0.000160636
0.0193586
0.0216434
0.000148752
0.0001457
0.000158336
0.0305842
0.000127905
0.000158216
0.00017785
0.000201339
0.000140548
0.0249042
0.000157489
0.00298607
0.000154842
0.000147518
0.000160291
0.00015728
0.032319
0.000160444
0.0300335
0.000206558
0.000168397
0.000207103
0.00817106
0.000169493
0.000156426
0.000160692
0.000138592
0.000154285
0.000184234
0.000159886
0.000187702
0.000172149
0.00383757
0.000138669
0.0288322
0.000215234
0.00105001
0.00206814
0.000200251
0.000157549
0.0039764
0.000252609
0.000134278
0.000140386
0.000143345
0.000143802
0.000785966
0.000138731
0.000148416
0.0363534
0.000174923
0.0394003
0.000143332
0.000163113
0.000149805
0.000150652
0.000179304
0.000144446
0.000218022
0.000155627
0.000173754
0.000138293
0.000138259
0.000203534
0.000155975
0.000170124
0.000150448
0.000128917
0.0181086
0.000139559
0.000141175
0.0416814
0.000192947
0.000185994
0.000189629
0.000151898
0.000139906
0.000148491
0.000149448
0.000221848
0.000189244
0.00150068
0.000150684
0.000174885
0.000177519
0.000148319
0.00015917
0.0398163
0.000162135
0.000149131
0.000160901
0.000140278
0.000134413
0.00733074
0.00018092
0.000143702
0.000145808
0.000168412
0.000185033
0.00015942
0.0303452
0.000150335
0.000154385
0.000178756
0.000145675
0.000150552
0.000147451
0.000173286
0.000185933
0.000148574
0.000202571
0.000152867
0.0364918
0.000150901
0.000141146
0.000112714
0.00014255
0.000145765
0.000138192
0.000144942
0.000143315
0.0374454
0.000149457
0.000223088
0.000139823
0.00015409
0.000139445
0.000139307
0.00013939
0.000142375
0.000160478
0.00795955
0.000190305
0.000216728
0.000139482
0.010323
0.000167817
0.00017023
0.000148975
0.000139662
0.000134731
0.000157751
0.000145573
0.000172655
0.000130062
0.000147989
0.000157269
0.0240923
0.000142728
0.000166504
0.000136482
0.000128642
0.000181946
0.00285801
0.0272329
0.000144689
0.00014039
0.0001847
0.000140861
0.0252546
0.000209055
0.000174207
0.0250662
0.000128502
0.00100752
0.000149118
0.000175694
0.000174453
0.000261068
0.000138183
0.000167703
0.0249352
0.000142731
0.000152606
0.000159171
0.00200013
0.000181385
0.000173385
0.000145849
0.000139874
0.000609966
0.000188151
0.00219234
0.000164356
0.000191435
0.000139263
0.000149242
0.00013953
0.000214181
0.000134478
0.000132094
0.000146739
0.000162858
0.000182265
0.000136553
0.000161557
0.000134279
0.000140638
0.000204807
0.000153753
0.000170462
0.000148453
0.000192082
0.000188433
0.000139893
0.0222967
0.000149525
0.00021916
0.000134776
0.0405965
0.000179466
0.000148547
0.000128669
0.000163292
0.000131492
0.000184922
0.000985388
0.000143672
0.000150281
0.0149481
0.00775703
0.000146151
0.0262231
0.0216217
0.000210658
0.000142458
0.000219396
0.0199447
0.0402295
0.000147061
0.00524757
0.000129526
0.000142921
0.000142736
0.000141292
0.000155654
0.000138488
0.00016002
0.000201191
0.00110539
0.00162044
0.000225261
0.000150912
0.000175712
0.000180026
0.000138233
0.000139745
0.0306367
0.000226697
0.00014612
0.0125447
0.000148783
0.0351697
0.000618005
0.000138618
0.0030543
0.000131909
0.000157694
0.0275658
0.000181558
0.000140202
0.000148414
0.000137778
0.000154197
0.000147466
0.00014123
0.0419487
0.0194054
0.000160155
0.000192377
0.000148827
0.000148999
0.032025
0.0350655
0.000148572
0.000191085
0.000173502
0.00213996
0.0180988
0.000140869
0.000142064
0.028607
0.000176239
0.000145541
0.000172192
0.0123234
0.0236813
0.00623272
0.000156257
0.000146852
0.00199085
0.000141101
0.000159528
0.0001654
0.000171056
0.0251904
0.000140875
0.000142337
0.000139971
0.000146818
0.000190586
0.000141673
0.000140826
0.0380308
0.0178953
0.000181166
0.000186407
0.000149918
0.000150699
0.00683899
0.0265378
0.000154329
0.000164924
0.000150519
0.0403288
0.00018892
0.000179806
0.000168617
0.000168366
0.000140544
0.000145936
0.000142026
0.000144162
0.000144101
0.00018495
0.000160319
0.000153814
0.0275673
0.000182803
0.000167332
0.0352099
0.000145515
0.000341454
0.000189165
0.000354975
0.000152714
0.000303029
0.000200974
0.000134687
0.000177208
0.000143769
0.000140137
0.000182241
0.000140171
0.00403924
0.000150665
0.000150222
0.00015093
0.000169438
0.000150547
0.0001425
0.000138399
0.000140865
0.000150732
0.000168364
0.0194307
0.000140141
0.0315279
0.000172297
0.0291692
0.000151926
0.000160377
0.00611233
0.000138515
0.000138987
0.0350407
0.000138325
0.000168655
0.000148893
0.000273418
0.000215052
0.035622
0.0187157
0.000150509
0.000155827
0.000526174
0.000143218
0.000173885
0.000150558
0.000145088
0.00018886
0.0417742
0.0136919
0.000192521
0.000184884
0.000143087
0.0245668
0.0370019
0.000185874
0.000174964
0.0227621
0.000302501
0.00020302
0.00125147
0.00441303
0.000153155
0.000233974
0.000190202
0.00015574
0.000148722
0.00016271
0.0191728
0.00015073
0.00247486
0.00237553
0.000149873
0.000137015
0.00137075
0.00436217
0.000140153
0.000156748
0.000151141
0.000122671
0.0347705
0.000809325
0.000150129
0.000140245
0.000149569
0.000165251
0.000192147
0.000159635
0.000153387
0.0226295
0.000145656
0.000156093
0.000248146
0.000141305
0.000152399
0.000167671
0.000138031
0.000189633
0.0237885
0.00016442
0.0173279
0.000727336
0.000178119
0.000147829
0.000163294
0.00018056
0.000145368
0.0205461
0.0395076
0.000186643
0.000140556
0.00016847
0.000966037
0.00017937
0.000190589
0.000129398
0.00144931
0.000148454
0.0340077
0.0265973
0.000149467
0.000146714
0.000138453
0.00016404
0.000152166
0.000152351
0.000143485
0.000137166
0.000178292
0.000136994
0.000162325
0.00020068
0.000194526
0.0308203
0.000149008
0.000166558
0.000163829
0.00015396
0.000199746
0.000142894
0.000160198
0.000150467
0.00013842
0.000143696
0.0292066
0.000170956
0.000141866
0.000150255
0.00177901
0.000199229
0.00981503
0.00015678
0.000135351
0.000159243
0.000216936
0.000306564
0.000138536
0.00605377
0.000154505
0.000139999
0.000138264
0.00405347
0.000138385
0.000149015
0.000152984
0.000157492
0.000194931
0.0195924
0.000168149
0.000141319
0.000185036
0.000146674
0.0357449
0.000215806
0.000141832
0.000138525
0.00293916
0.0202944
0.0357911
0.000195759
0.000175537
0.000188962
0.000160462
0.000141342
0.00013854
0.00228695
0.000161556
0.000162023
0.00021845
0.000186356
0.000146598
0.000166705
0.000145479
0.000194598
0.000138431
0.000134823
0.000137595
0.00017587
0.000146449
0.000147075
0.000199694
0.000179727
0.000153931
0.000337808
0.000147828
0.0260781
0.000168573
0.000141831
0.000163085
0.0408699
0.000215888
0.000149947
0.000151276
0.000186038
0.000150771
0.000150872
0.00202104
0.000194992
0.000137692
0.000138661
0.0017655
0.0266459
0.000137839
0.000154082
0.000181137
0.000150334
0.000134832
0.000220367
0.0245721
0.000146451
0.00019276
0.0316362
0.000194784
0.000129495
0.000182496
0.000155899
0.000139766
0.000161178
0.0196969
0.000159476
0.034758
0.000142095
0.000137911
0.0440253
0.000142257
0.000144635
0.000161929
0.00019462
0.000192311
0.000155437
0.000145303
0.000136293
0.000138485
0.000197647
0.0407119
0.00017299
0.00016341
0.000169269
0.000146573
0.000180124
0.00113472
0.000180098
0.000129031
0.000191351
0.00042164
0.00168793
0.00015176
0.000170586
0.0402099
0.000138739
0.00012995
0.00982975
0.000141254
0.0265461
0.000145572
0.000311986
0.000159105
0.000186286
0.000157674
0.000189226
0.000140066
0.000139748
0.000173069
0.000138597
0.00104371
0.000152023
0.000131146
0.000142893
0.0068711
0.000253862
0.0278936
0.000138807
0.00059925
0.000137206
0.000215301
0.000195356
0.000183154
0.0170071
0.000203592
0.000148168
0.000162786
0.0286617
0.000139092
0.000162529
0.00015039
0.000145582
0.000142717
0.00610374
0.000551733
0.000172734
0.000140005
0.000146987
0.000179668
0.000754641
0.000143818
0.000151692
0.000138681
0.000160244
0.000144654
0.000175628
0.02181
0.000130098
0.000154247
0.000200168
0.00013923
0.000150254
0.0024377
0.0366686
0.000152822
0.000137129
0.00447216
0.00015839
0.000157605
0.000146709
0.000362039
0.00016046
0.0241171
0.000171291
0.0351643
0.0205655
0.000211993
0.000156929
0.000304759
0.000212015
0.000141562
0.000141346
0.000201914
0.0001384
0.000175394
0.0126288
0.000154431
0.00879826
0.000141308
0.000547025
0.000233975
0.00800047
0.0263984
0.000151035
0.000147425
0.000151204
0.00018961
0.00014259
0.000148834
0.00367911
0.00997554
0.0296442
0.000172413
0.000173083
0.000157036
0.000134166
0.000597463
0.000146907
0.000958959
0.000146196
0.000137367
0.0441066
0.000141453
0.000160726
0.00749842
0.000142007
0.000152841
0.000152323
0.000359925
0.00755028
0.000146408
0.000164685
0.0396433
0.00014567
0.0184424
0.000155203
0.00013994
0.000222729
0.000147917
0.000164067
0.000145075
0.000146461
0.000141946
0.00018587
0.00021522
0.000171598
0.000141692
0.00398526
0.000137392
0.000134279
0.00021866
0.000147148
0.000203318
0.000144458
0.000141245
0.000145698
0.000212653
0.000138513
0.00570524
0.0352162
0.000139882
0.000147181
0.000153185
0.000157507
0.000200749
0.00017747
0.000151678
0.000151513
0.000140161
0.000146892
0.000170865
0.000145032
0.0118823
0.000350828
0.000149214
0.000174501
0.000147302
0.00015
0.000150798
0.00015001
0.000150345
0.000150536
0.000145773
0.000133443
0.00557659
0.000145409
0.000187902
0.000141849
0.000151032
0.000204191
0.00017585
0.000530066
0.0138579
0.000168709
0.00014505
0.000145748
0.000160689
0.000153232
0.0175717
0.000297633
0.0195557
0.000158523
0.000146173
0.000151765
0.000146795
0.000266932
0.0280964
0.000216803
0.0434276
0.0390508
0.000150549
0.000171893
0.00014366
0.000171411
0.000178654
0.000142658
0.000163677
0.000146071
0.000195176
0.00607555
0.000144791
0.000146664
0.000157332
0.000200374
0.000163513
0.000143625
0.000166911
0.000146695
0.000155567
0.000147447
0.000165883
0.000148179
0.000194319
0.000146804
0.000176072
0.0343672
0.0363884
0.000234644
0.00329467
0.000151909
0.0281367
0.000260699
0.0276721
0.00014919
0.000208655
0.000139716
0.0077573
0.0081002
0.000157174
0.0128392
0.000167855
0.000149653
0.000197124
0.000149369
0.000158458
0.000366083
0.000167484
0.000137559
0.0300382
0.000180551
0.000152886
0.000205217
0.0426155
0.000213318
0.000154259
0.000142739
0.000155668
0.000147107
0.00021035
0.000409973
0.000148572
0.000145659
0.00473592
0.0313647
0.000137708
0.000143462
0.000196782
0.00105387
0.000158716
0.000137643
0.00014288
0.000175997
0.000139767
0.000154817
0.000129833
0.000192907
0.0199314
0.0264726
0.000195304
0.000141912
0.000140923
0.000143667
0.000134488
0.000209362
0.000154438
0.000148162
0.000215928
0.000176197
0.000155865
0.000156439
0.000154957
0.000149889
0.000168574
0.0354234
0.000326393
0.030932
0.029803
0.000176768
0.000161733
0.000154915
0.000154158
0.000164486
0.000211794
0.00017965
0.000141218
0.000153727
0.000141347
0.000150292
0.000140891
0.000148067
0.000142739
0.00319705
0.000169198
0.000157244
0.000174349
0.000150341
0.000140068
0.000145198
0.000198246
0.000174107
0.000143525
0.000215139
0.000161392
0.00367119
0.000149753
0.00014795
0.00018349
0.0150593
0.000141044
0.000181453
0.000145333
0.0329097
0.000212472
0.000171604
0.0105126
0.000355579
0.000142208
0.000136168
0.000160426
0.000167243
0.000150116
0.0267382
0.000163791
0.000136205
0.000143008
0.000264122
0.000166617
0.0173182
0.000149446
0.000183451
0.000172936
0.0216624
0.016265
0.000164329
0.000164508
0.000153932
0.000156046
0.000185713
0.000172961
0.00210042
0.0199355
0.000137576
0.000240708
0.00015883
0.000154626
0.000151284
0.000143268
0.000164869
0.000137037
0.000143686
0.000170084
0.000154144
0.000147326
0.0077948
0.00019376
0.000185855
0.000163965
0.000150241
0.000149792
0.000137547
0.000168074
0.000156762
0.0351818
0.000228241
0.000137782
0.00069369
0.000926639
0.0228528
0.00283369
0.000164148
0.00404643
0.000179005
0.00469234
0.000145149
0.000180811
0.000171207
0.000147329
0.00016348
0.000387643
0.000180897
0.000145364
0.00021162
0.000157753
0.000140257
0.0043201
0.0401525
0.0163867
0.000224323
0.000373456
0.000172142
0.000134393
0.000148918
0.000134541
0.000184176
0.000140253
0.000161407
0.000201532
0.000141178
0.00202512
0.000216281
0.0241346
0.0275795
0.000184409
0.000163854
0.000166956
0.0261748
0.000174027
0.000158134
0.00016301
0.00017565
0.000161081
0.00017499
0.000151726
0.0246629
0.000182937
0.0118241
0.000149987
0.0261683
0.0209205
0.000365871
0.000151315
0.000173445
0.0398235
0.0040687
0.000166068
0.0166531
0.000138001
0.0145746
0.00274775
0.00017045
0.00014706
0.0304409
0.000168481
0.000166859
0.000166444
0.00462485
0.000171688
0.000133277
0.000132975
0.000189223
0.000170344
0.000187787
0.000234646
0.000169607
0.000199346
0.000153956
0.000136162
0.000137824
0.000304244
0.000145657
0.000145516
0.0275057
0.000207726
0.000469138
0.00014657
0.00020504
0.00566462
0.000216862
0.00454095
0.000149966
0.000142615
0.00272593
0.00014217
0.000144867
0.000174268
0.000221609
0.0349131
0.000175348
0.000137243
0.0204875
0.000158536
0.000148701
0.000145242
0.000160768
0.000132444
0.00014117
0.000157747
0.000182411
0.00014886
0.000193058
0.000137782
0.000134887
0.000173468
0.000164826
0.000184608
0.000159135
0.000151881
0.000150453
0.000138654
0.0386116
0.000156105
0.000138173
0.000141436
0.0266226
0.000151147
0.0383929
0.00016852
0.000147757
0.00591315
0.000146813
0.000152166
0.000147286
0.000145094
0.000148069
0.000162948
0.000159591
0.000142634
0.000183761
0.000152782
0.000161991
0.000161171
0.000143232
0.000201996
0.000187271
0.000155654
0.000138925
0.0360416
0.000157951
0.000164433
0.000145409
0.000138387
0.000143153
0.0014199
0.000225249
0.00501656
0.000160937
0.000156646
0.000143392
0.000147855
0.000185141
0.000138656
0.00013881
0.000136133
0.0001636
0.000138837
0.00016373
0.00445646
0.000166455
0.000138495
0.000202644
0.000159176
0.000138803
0.000141542
0.000170223
0.000140841
0.0275903
0.000146724
0.000139723
0.000157611
0.000184508
0.000157133
0.000152575
0.00015508
0.000198427
0.000150219
0.000155904
0.000182231
0.0115882
0.00016219
0.000149301
0.000155954
0.000148678
0.000144771
0.000150477
0.000175502
0.000163558
0.000149528
0.000142055
0.000165902
0.0276322
0.0215832
0.000141095
0.000194831
0.000168122
0.000141066
0.000135632
0.0001452
0.000227934
0.000269805
0.000144038
0.000141424
0.000153442
0.0242211
0.000195393
0.000159562
0.000150958
0.00671581
0.00017433
0.000156743
0.000201379
0.000169712
0.00336421
0.000146911
0.0430334
0.000147504
0.000138486
0.000135567
0.000195655
0.000262498
0.000148877
0.000152639
0.000157997
0.000169599
0.000149757
0.00744338
0.0015032
0.000168736
0.00013961
0.000162431
0.000141189
0.000248822
0.000163603
0.0402434
0.000152314
0.0001566
0.000155882
0.00277221
0.000163793
0.00013874
0.00691135
0.000138231
0.000142093
0.000308293
0.000136589
0.000143006
0.000164445
0.00353874
0.00158475
0.000267657
0.000174647
0.000315192
0.000167635
0.000346289
0.00019236
0.000143172
0.000133606
0.0390979
0.000200664
0.0183178
0.000147034
0.000174357
0.000166365
0.000140422
0.000192065
0.00111404
0.00016354
0.000189242
0.00131034
0.000148251
0.000150955
0.000148
0.000180086
0.000143
0.0310924
0.000162504
0.000143493
0.000253951
0.0300047
0.000202343
0.000164132
0.000149207
0.000160107
0.000151154
0.00026893
0.000142494
0.000175033
0.000207935
0.000210245
0.000139777
0.00021729
0.000162247
0.00016622
0.000186195
0.000152899
0.00022224
0.000189978
0.000137581
0.000172377
0.000173392
0.000127936
0.000173218
0.000148199
0.00215722
0.000227438
0.000186024
0.0272057
0.000161082
0.000154029
0.00288892
0.000139064
0.0100013
0.000185109
0.000243573
0.00014172
0.000136603
0.000137648
0.000145834
0.00014801
0.000144234
0.000139819
0.000188275
0.000179575
0.000149197
0.000192458
0.000145653
0.000137405
0.000198584
0.000188447
0.000174694
0.000226154
0.000131481
0.000138965
0.000150146
0.000202753
0.0412162
0.000141885
0.000155542
0.000140771
0.0236212
0.000140446
0.000167793
0.000178301
0.000189318
0.000140558
0.00015733
0.000137793
0.00286928
0.00019447
0.000192868
0.000311579
0.0035438
0.000147516
0.0132502
0.000145122
0.000244599
0.000154355
0.000351711
0.00193418
0.000216861
0.000142597
0.000138175
0.00143981
0.000151946
0.000201359
0.000130841
0.0189072
0.00435651
0.00014012
0.00016665
0.000145887
0.0104004
0.00374694
0.000153069
0.0103738
0.00015617
0.0307756
0.000159687
0.000201359
0.000941175
0.000181282
0.000187266
0.000149863
0.000160592
0.000150271
0.000140988
0.000148456
0.000158185
0.00017562
0.000202768
0.000150545
0.000195319
0.000138353
0.000151756
0.000149273
0.000162394
0.000141056
0.00014972
0.000144929
0.0215038
0.0001854
0.00208493
0.000137182
0.000836149
0.00013836
0.000132592
0.000141314
0.000173229
0.000187589
0.000234386
0.000138335
0.000142085
0.000160107
0.000144063
0.00015971
0.000139868
0.000189781
0.00384102
0.000172763
0.000149485
0.00087517
0.000200627
0.000209166
0.000273843
0.000180623
0.000139511
0.000128747
0.000202529
0.000140801
0.0112955
0.000163085
0.000324643
0.000151837
0.00322007
0.00332361
0.000147874
0.000162189
0.0266811
0.000148413
0.00433252
0.000180068
0.000154749
0.0171073
0.000138946
0.000142691
0.000134215
0.000244715
0.000183474
0.000145607
0.000148603
0.00285332
0.0128381
0.000147887
0.000200186
0.0253177
0.0167846
0.00249758
0.000141084
0.000165691
0.0016529
0.000161499
0.000227621
0.000184591
0.000157732
0.00272467
0.00018914
0.0435612
0.000144861
0.000216564
0.00013926
0.00430231
0.000148046
0.000138364
0.000198473
0.000166475
0.000167809
0.000138253
0.000257029
0.000175295
0.00801544
0.000139984
0.00014913
0.000228417
0.000177621
0.0398378
0.0333736
0.00170772
0.0198911
0.000152672
0.000161962
0.000138003
0.000179606
0.000218444
0.000149743
0.000275375
0.000139961
0.000147471
0.00975432
0.000135314
0.000183828
0.000136142
0.000138137
0.000179976
0.0112397
0.000158243
0.000239099
0.00640796
0.0123373
0.000149311
0.000154043
0.000166847
0.000138105
0.000141838
0.000161211
0.000133037
0.000135827
0.000157443
0.000135305
0.000138049
0.000161965
0.000139456
0.00019913
0.0393327
0.000146338
0.000140788
0.000187965
0.000141939
0.000148346
0.000221672
0.000360427
0.000150202
0.000139702
0.00014193
0.000190611
0.000156559
0.000157994
0.000149435
0.000188546
0.000187769
0.00029267
0.0329411
0.000138067
0.000200795
0.000135584
0.000141752
0.0266183
0.000139567
0.000154638
0.0267221
0.0114828
0.000193765
0.000140848
0.000140559
0.00020743
0.00442313
0.000183451
0.00419796
0.000150617
0.000181112
0.000143441
0.000167292
0.000216505
0.000160112
0.000152385
0.000143389
0.000152409
0.000142565
0.000170028
0.000143503
0.0110683
0.0276745
0.000137984
0.000148953
0.000148924
0.000140881
0.000165882
0.0356952
0.00014771
0.000175044
0.000137801
0.000146043
0.00014909
0.000141031
0.00014933
0.000151571
0.000140143
0.000149441
0.0207268
0.000252012
0.000150354
0.000191606
0.000141876
0.000150236
0.000160736
0.000134887
0.000234927
0.000170827
0.000138574
0.000140815
0.000149298
0.000223361
0.000177713
0.000158099
0.000149973
0.000144693
0.000169475
0.000143518
0.000171433
0.000153176
0.00100676
0.000158183
0.00014465
0.000175557
0.00472312
0.000151754
0.000134299
0.000154991
0.0317566
0.00981126
0.000128846
0.000146207
0.000162288
0.000154833
0.00013407
0.0275366
0.000277562
0.000186798
0.000147826
0.00147399
0.000185338
0.000138142
0.000134977
0.000183028
0.000210402
0.000149781
0.00015174
0.000137107
0.000142664
0.0260056
0.000140552
0.000159852
0.0390049
0.000138145
0.000162695
0.000182658
0.029976
0.000180711
0.000175647
0.000138632
0.00014903
0.000148272
0.000157666
0.000135737
0.000145179
0.0314718
0.000140888
0.000170942
0.000136542
0.000180671
0.000303989
0.000204935
0.0158186
0.0294727
0.000172171
0.000136147
0.000135817
0.00015703
0.00311555
0.000145551
0.000338939
0.000133009
0.000162215
0.0321686
0.000167263
0.000175534
0.000140646
0.000154165
0.000168755
0.000138234
0.000142278
0.000167936
0.000176584
0.000164685
0.00016682
0.0108389
0.000213995
0.000145205
0.000176365
0.0362186
0.00189395
0.000241274
0.000194776
0.000183202
0.000155632
0.000170851
0.0226506
0.000198236
0.0294419
0.000187794
0.000141829
0.000185576
0.000160171
0.000143773
0.00020059
0.000217711
0.000165891
0.000159975
0.000167848
0.00016176
0.000185508
0.000199803
0.00014902
0.013099
0.0207158
0.000209921
0.000198066
0.029934
0.000217724
0.000144195
0.000284236
0.000148946
0.00451438
0.000137135
0.000172678
0.000147362
0.000139101
0.000178887
0.000219605
0.0154656
0.00237371
0.000357107
0.000142429
0.000185194
0.000138147
0.00254554
0.0101001
0.000144388
0.000146391
0.000191603
0.000156377