/*--------------------------------*- C++ -*----------------------------------*\
| =========                 |                                                 |
| \\      /  F ield         | OpenFOAM: The Open Source CFD Toolbox           |
|  \\    /   O peration     | Version:  v2012                                 |
|   \\  /    A nd           | Website:  www.openfoam.com                      |
|    \\/     M anipulation  |                                                 |
\*---------------------------------------------------------------------------*/
FoamFile
{
    version     2.0;
    format      ascii;
    class       volScalarField;
    location    "400";
    object      omega_0;
}
// * * * * * * * * * * * * * * * * * * * * * * * * * * * * * * * * * * * * * //

dimensions      [0 0 -1 0 0 0 0];


internalField   nonuniform List<scalar> 
27802
(
0.0665097
0.023966
0.0255006
0.0255198
3.16622
0.0245451
0.0260934
0.0247965
0.0581624
0.0252096
0.0237759
3.29908
3.17777
0.0652292
0.0242683
0.0260874
0.0220928
3.32107
1.62888
0.0532494
0.0238424
0.0247363
0.0688615
0.110257
0.0233523
0.0248942
0.0244329
0.0251822
0.0233469
0.975869
0.0246138
0.027166
3.16496
0.0447411
3.36101
0.0243802
0.0664928
0.190943
0.0246055
0.0244167
0.0248672
0.024422
4.78965
0.0483855
0.0235652
0.0242417
0.197238
0.0246885
0.0232157
0.0377723
0.0274734
0.0235656
0.203449
0.0237017
0.0242579
0.0245159
6.31336
0.0614837
0.0246405
4.50233
0.0243812
0.0246168
0.215069
0.0267979
3.33593
0.0846238
3.04984
0.0253181
2.96378
0.0269278
0.0240117
0.139301
1.1907
0.136267
0.250198
0.0276177
0.287629
3.22028
0.0370788
0.0260214
3.5691
0.0514535
0.0232448
0.0609056
0.0243265
0.0261066
0.0233246
0.0242527
0.140147
0.249899
3.48469
0.0245811
0.0608039
0.0260083
0.0235327
0.0246924
0.0300532
3.15529
0.0248672
0.186085
0.0463829
0.0248822
0.0259881
0.0258877
0.2479
0.0245786
0.0458859
0.0597547
0.0243844
0.0380892
0.026254
0.0242572
0.0248823
0.0645803
0.0232864
0.105696
0.0286765
0.0238937
0.0280935
0.0522105
3.19661
3.509
0.0376962
0.0233412
0.0244649
0.0292801
0.190816
0.160463
3.12225
3.17098
0.0259894
0.0372747
0.0250891
0.0250974
0.0232426
0.025117
0.0250487
0.0233466
0.0458156
0.0758833
0.0252043
0.0244582
0.0291512
0.0232482
0.0232789
0.025525
0.0250378
0.025308
0.0236047
0.0249779
0.0238173
0.0246755
0.026361
0.0253826
0.0497905
0.0241869
0.04786
0.179192
0.0379283
0.121886
0.184518
0.140648
0.0260841
0.0280238
0.0221157
0.0230622
0.0239117
0.0245499
0.024612
0.0553598
0.0258626
0.0285673
0.0241984
2.08418
0.0246165
3.35509
0.0230462
0.0301765
0.023527
0.0676041
0.110104
0.0346581
0.0323087
0.0254653
0.0241937
0.0566421
0.024182
0.0249823
0.152159
1.69687
0.0238813
0.0267734
0.0655335
0.0255675
0.0228594
0.0244255
0.0228565
0.0234563
0.0243145
0.0244549
3.89052
0.139605
0.0553098
0.0277183
0.024381
0.0372945
0.0262362
1.13077
0.0224943
4.12505
0.0244186
1.14497
3.36966
0.0300182
0.157148
0.024207
0.126808
0.0260114
0.0247129
0.0241572
3.14152
0.0221655
0.0557867
0.127653
0.0241838
0.0233156
0.0232742
0.0267521
0.0242442
0.0248943
0.0221636
5.64202
0.024696
0.0334341
1.63371
0.078472
0.024658
0.472421
3.27849
0.0253202
0.0244883
2.17478
2.21806
0.0247257
0.0263457
3.06161
0.0234271
0.0976203
0.0258282
0.0253993
0.199703
0.033737
0.0657656
0.0245384
0.0264125
0.0228681
0.024245
0.0698835
0.0277032
0.0228489
0.0338113
0.0248096
2.96786
0.0224687
3.66975
0.0301396
3.88027
0.0248964
0.0221606
0.0246224
0.183941
0.0241183
0.0742639
0.224621
0.0255289
0.229468
0.0251424
0.0378624
0.0299469
0.0242076
0.775514
0.0335853
0.0258031
0.0393191
0.213276
0.121862
0.051696
0.0247979
0.0278487
0.0239924
0.0222272
0.0414
0.0228968
0.149261
0.0228888
0.0360105
0.108065
0.0243677
3.67501
0.31753
0.085395
0.0253879
0.027502
0.118376
1.61962
0.046522
0.0247921
3.62951
0.031485
0.0251891
0.0312231
0.0557439
0.0700426
0.0251269
0.0310347
0.024415
0.0314995
0.0655654
0.0378292
0.0673551
0.0248518
0.0243895
0.0222518
0.0235612
0.0559559
0.0249217
2.98626
0.0249163
0.0243853
0.0323897
0.0251215
2.86504
0.269474
0.120194
0.125802
1.98349
0.0705765
0.0240422
0.0706067
0.024098
0.0221328
3.36634
2.61298
0.0395962
0.135436
0.14823
0.198657
0.432802
0.0258209
0.563359
0.0230102
3.19253
0.0244752
0.025085
0.0247988
0.0251381
0.131001
0.631744
0.0240933
0.0236086
0.0356267
0.0945389
0.0236703
0.0378118
0.0228471
0.024826
0.424926
0.0247798
0.0334055
0.0242191
0.0240182
0.200676
0.0382451
0.113217
0.378932
3.85672
0.0385257
0.0262001
0.0309209
0.0242631
0.0249758
0.0228567
0.0247443
0.0237331
0.0238283
0.0246863
0.233082
0.0268365
0.0344785
0.0312313
0.0239544
0.0244814
0.0311082
0.038053
0.0242815
2.89588
0.123978
0.0698031
0.0242696
0.0661944
3.34226
0.0382736
0.0239183
0.0506103
0.0246204
0.431825
0.0340278
0.196071
0.123156
0.0354714
4.19862
0.0253934
3.18316
3.05852
0.250434
0.0247103
0.0236124
0.0328278
0.0232402
0.430384
4.44199
0.0256977
0.0272219
0.0248966
0.144212
0.0252852
0.0263925
3.16474
0.0441495
0.0273275
0.0240887
0.0334714
0.258267
0.0242219
0.0251315
0.0243194
0.0853066
0.453772
0.34727
0.0324291
0.0486853
0.0274609
0.0238705
0.0240618
0.0700788
0.0244349
0.0234084
0.026204
0.0697669
0.0427155
1.30535
3.04838
0.0877286
3.33512
0.0229047
0.0401448
0.0329083
0.0535836
0.446437
0.0242132
0.0378663
0.0621818
0.0450108
0.0482078
0.0221288
0.0264242
0.178407
0.0244285
0.0469887
0.023402
0.0295832
0.0241756
0.0246715
0.140769
0.0394483
0.10422
0.0251494
5.48855
0.0221537
0.0275101
0.103313
0.0274844
0.0269727
0.0667414
0.0703147
0.15705
0.0259393
0.025149
0.105427
0.0242155
0.0243836
0.234814
0.0244363
3.65254
0.0250838
3.40761
0.213488
0.214342
0.0242307
0.0463842
3.08638
0.0377649
0.143979
0.126205
0.18496
0.260173
0.0260495
0.0334661
0.0711986
0.0250449
0.0245444
0.151814
0.0397889
0.0238858
0.0241384
0.195624
0.25265
0.0457108
0.0242672
0.0421805
0.0264348
0.588654
0.0247707
0.0317147
0.117188
0.0241254
0.0228747
0.0250946
0.801441
3.39376
0.0463605
1.1501
0.0234677
0.0249539
3.44806
0.0242708
0.0412067
0.0242191
0.0228841
0.0430414
1.73727
0.0239874
0.0251856
0.0234732
0.0700655
0.0241634
0.0301997
1.51968
0.0481656
0.0706165
2.66719
0.0905534
0.896627
2.7025
0.0246024
3.35726
0.0251487
0.0411858
0.0250892
0.0249005
0.0245858
0.126359
0.0244669
0.0242286
0.0233203
0.358368
0.0263846
0.0254441
0.0661291
0.226896
0.245381
3.37514
2.97957
0.0380014
0.116458
0.0300165
3.8563
0.0247264
0.0565554
0.355378
0.14255
3.34185
0.0316963
0.0255177
3.30053
0.0458552
0.0229787
3.30234
0.083413
0.217235
0.252968
0.08621
0.0229856
0.025694
0.0454613
0.0241925
0.0379164
0.131386
0.0229122
0.0259167
0.0235296
0.163748
0.0430946
0.0255179
0.626597
3.20881
0.0273493
0.0299377
0.0244785
3.18543
0.162087
0.0812216
0.046457
0.0579833
0.230935
0.0242786
0.137269
0.0258002
3.53563
3.33731
0.0235164
0.0368751
0.136397
0.247893
0.0254426
2.59061
0.0324159
2.57355
0.032073
0.0256308
0.240609
2.52254
0.0827261
0.0243416
0.0426515
0.0289245
0.0464263
0.0260469
2.95981
0.024345
0.0245763
0.0278551
0.0321459
3.86353
0.139496
0.0270263
2.54656
0.0371391
2.8512
0.0243217
0.0308118
0.0702866
0.0949899
2.85808
0.0273404
0.183631
0.0262816
0.0230882
0.0254572
0.0247115
0.0246183
0.034683
0.237555
0.419577
0.0248113
0.0454461
0.0263829
0.0277853
0.142378
0.0230711
0.0251613
0.0554152
0.214554
0.0278084
0.0240555
0.0258023
0.0252481
0.0312036
0.0252554
0.119614
1.89356
0.0269949
0.0768725
0.0542297
2.69102
2.83782
0.0712227
0.0241811
0.104719
0.0243268
0.145363
0.025142
0.138317
0.0463978
3.20177
0.0230158
0.0245215
0.15645
0.0262584
0.0233458
0.0271698
0.0979537
0.0242269
0.0563359
0.0246019
0.201452
0.0238624
0.0282398
0.0903132
0.0324944
0.0289918
0.65281
0.0512183
0.0376548
0.0716098
0.0265611
3.88652
2.62383
0.13776
0.0380098
2.45866
0.0238457
0.0264017
0.0275335
2.90828
0.0559248
0.0271716
0.0269325
0.132588
3.58002
1.43842
3.30871
0.031204
0.0700592
2.60223
0.0252879
0.0420494
1.07706
0.0295791
0.0229758
0.0457326
0.0243986
0.25418
0.0221935
0.0559595
3.32322
0.0257747
0.0245152
0.143046
3.31366
0.0373623
0.0295002
0.0229569
0.0270457
0.0300712
0.0585167
0.0425401
0.330484
0.0487004
0.0254105
0.0263016
0.0590521
0.181832
2.0446
0.023673
2.55019
2.83804
0.0271329
0.02534
0.0239393
0.0252138
3.17337
0.0239306
0.0289205
0.0264213
1.41899
3.65513
0.0250307
0.0245124
0.0286953
2.00449
0.0220981
0.0286393
0.0448238
0.0375002
0.0239881
2.46406
0.0281169
0.317091
0.0260395
0.0249079
0.0302595
0.0279852
2.5578
0.0299618
2.75931
0.16861
0.0385345
0.171008
0.626239
0.0358802
0.0276456
0.0295474
0.0237087
0.0273439
0.0669555
0.0299865
0.0754776
0.269188
0.322375
0.0234098
2.49334
0.209723
0.127164
0.327447
0.116137
0.0282741
0.330217
0.0472914
0.023026
0.0236211
0.024185
0.024488
0.595145
0.0237183
0.0249292
3.77902
0.267092
3.59503
0.0243429
0.0329457
0.0252785
0.0254488
0.0542658
0.0244179
0.239252
0.0274543
0.0412593
0.023367
0.0233571
0.161604
0.0276416
0.255235
0.0254914
0.0222109
1.99766
0.0239799
0.0242214
3.35677
0.0969774
0.0708146
0.0377053
0.0251982
0.0235176
0.025519
0.0251311
0.186892
0.0839179
1.45954
0.0258998
0.0462398
0.0387863
0.0249084
0.0289341
3.61753
0.0312884
0.0249773
0.0300945
0.0236738
0.0230361
3.12753
0.0566402
0.0240225
0.0244845
0.0373129
0.0693003
0.029834
2.76139
0.0254247
0.0268284
0.537465
0.0247583
0.0253556
0.0247414
0.0434194
0.0712931
0.0249345
0.154681
0.0262677
2.11059
0.0255085
0.0242216
0.389596
0.0240692
0.0245158
0.0235548
0.0243876
0.0243375
3.12113
0.0251307
0.196294
0.0240198
0.0271715
0.023507
0.0235832
0.0236022
0.0243771
0.0299536
0.633163
0.0386466
0.0454501
0.0239686
2.60243
0.0376725
0.03942
0.0250713
0.023997
0.0231101
0.0280825
0.0244573
0.265773
0.0222558
0.025429
0.0278358
3.91114
0.0241067
0.0352166
0.023419
0.0221766
0.0506114
0.283535
2.88448
0.0241289
0.0236923
0.0682473
0.0238829
2.51393
0.0839781
0.0461089
2.46585
0.0221573
0.149411
0.0250968
0.0480158
0.0465013
0.102925
0.0233436
0.0377249
2.44796
0.024116
0.0261796
0.0262363
0.202615
0.0498645
0.0449716
0.0245994
0.0236384
0.121207
0.0629713
2.40739
0.0336246
0.0664258
0.0238902
0.0257125
0.0235747
0.203168
0.0229747
0.0224289
0.0246261
0.032194
0.0585929
0.0234261
0.0311168
0.0229603
0.0237817
0.175233
0.0269935
0.0397148
0.0248735
0.0850642
0.0373188
0.0236413
3.05381
0.0252643
0.0455775
0.0231189
3.55853
0.0353477
0.0252343
0.0221718
0.033089
0.0223755
0.230875
0.118913
0.0241667
0.0254106
3.44421
2.85056
0.0246216
2.59573
3.65495
0.0854941
0.0240664
0.0279563
5.04151
3.49329
0.0247751
0.570003
0.0222271
0.0242676
0.0242092
0.0242553
0.0272584
0.0237065
0.0301175
0.142907
0.155253
0.199017
0.0273251
0.025134
0.048479
0.056534
0.0233154
0.0235439
2.84463
0.0284
0.0244203
0.798231
0.0249678
2.04739
1.09334
0.0237161
0.267486
0.0224079
0.0260698
2.85601
0.0589203
0.024077
0.0249974
0.0232764
0.0267485
0.0247478
0.0242531
2.60095
1.04603
0.030189
0.0860123
0.0249874
0.0249027
2.98843
3.12556
0.0252348
0.0809675
0.0434008
0.283713
1.08141
0.0237451
0.0243015
3.55903
0.0459663
0.0245792
0.0424892
0.712925
3.34774
2.64528
0.0278754
0.0246515
0.233544
0.0242338
0.0294501
0.0331067
0.0409172
2.50982
0.0237971
0.0242511
0.0240291
0.0247531
0.0795872
0.0242195
0.0241004
3.77934
4.39508
0.047628
0.071882
0.0261174
0.0260167
3.05984
3.54294
0.0268853
0.0338805
0.025474
3.32648
0.0821461
0.0560368
0.0382843
0.0379412
0.0238739
0.0245983
0.0242942
0.0245122
0.024019
0.0643986
0.0303377
0.0269829
3.00854
0.0413639
0.0360683
2.99719
0.0246494
0.10452
0.0824885
1.15338
0.0262141
0.0856206
0.0350126
0.0229834
0.0429271
0.024419
0.0240689
0.0595884
0.0237843
0.339902
0.025415
0.0260081
0.0250588
0.0384914
0.0253574
0.0243352
0.0237058
0.024108
0.0254117
0.0333714
1.43615
0.0236458
2.86342
0.0278389
2.85606
0.0258089
0.0307779
0.611457
0.0237149
0.0234325
3.08141
0.0237065
0.0376003
0.0250329
0.0525365
0.215922
3.01827
4.12591
0.0253519
0.0273298
0.173376
0.0241673
0.0400483
0.0254898
0.0244008
0.0817771
2.603
0.80979
0.0675155
0.0687498
0.0243834
2.48172
3.10886
0.0706497
0.0468298
3.06181
0.126758
0.0309826
0.85253
0.357647
0.0263685
0.0522851
0.0795817
0.0274076
0.0249714
0.0300341
1.10131
0.0256944
0.246675
0.295664
0.0253461
0.0232091
0.158666
0.359936
0.0237742
0.0281719
0.0255969
0.252914
3.14572
0.243212
0.0252568
0.0237932
0.0252417
0.0331062
0.0951327
0.0299681
0.0264878
1.40835
0.0245763
0.0276491
0.0922151
0.0239438
0.0258995
0.0375567
0.0234102
0.0856026
3.29573
0.0304895
1.00421
0.153263
0.0521735
0.0248781
0.0330578
0.0559089
0.0244794
4.21056
3.22707
0.0720866
0.0236926
0.647267
0.130976
0.0557569
0.0807697
0.0222414
0.164428
0.0249294
3.63335
2.63013
0.0250425
0.025
0.0234101
0.0335638
0.025855
0.0258918
0.0239804
0.0234266
0.0330265
0.0234109
0.0314354
0.118908
0.102875
2.85436
0.0250124
0.0312757
0.0333774
0.0266223
0.136854
0.0239352
0.0302778
0.0254731
0.0234032
0.0240398
2.9414
0.0961312
0.0242839
0.0255822
0.268381
0.0422917
0.65219
0.0277368
0.023302
0.0297391
0.233012
0.127518
0.023693
0.421256
0.0269645
0.0236149
0.023708
0.331971
0.0235697
0.0251206
0.0263316
0.0282321
0.031035
2.58114
0.0379733
0.0241844
0.066445
0.0246529
3.02549
0.230957
0.0242769
0.0236892
1.97533
3.7295
3.08467
0.111753
0.256459
0.0828001
0.029214
0.0242646
0.0234079
0.258336
0.0306673
0.0315234
0.24894
0.0714602
0.0245214
0.0336778
0.0246458
0.110582
0.0237146
0.0231985
0.02322
0.0480231
0.0249158
0.0247605
0.142167
0.0554442
0.0264103
0.187828
0.0248023
2.09786
0.0374369
0.0243547
0.0311493
3.81751
0.219031
0.0252545
0.0255514
0.0714274
0.0257814
0.0251806
0.24732
0.112062
0.0232403
0.0233765
0.237117
2.50148
0.0232656
0.0266862
0.0576173
0.0254298
0.0232021
0.264139
2.06345
0.0246082
0.0383492
3.48199
0.11194
0.0222328
0.0642451
0.027257
0.024014
0.0266474
2.996
0.0298869
3.20631
0.024389
0.0232825
2.51549
0.0243146
0.0245463
0.0266548
0.110906
0.0398857
0.0273797
0.0244116
0.0233001
0.023376
0.116492
3.83473
0.043028
0.0327257
0.0382942
0.024416
0.0569972
0.134127
0.0568931
0.0222137
0.0386326
0.531363
0.256539
0.0258007
0.0330262
3.53363
0.0234491
0.0222533
1.97039
0.0241811
2.86165
0.0244497
0.0891825
0.0296739
0.0717577
0.0282644
0.0832391
0.0239569
0.0235485
0.0434266
0.0235941
0.170124
0.0258058
0.0223518
0.0240975
2.19138
1.17732
2.81397
0.0234695
0.872954
0.0235959
0.2183
0.110431
0.0652653
4.89602
0.051917
0.0248639
0.0327517
3.2969
0.0234475
0.0308197
0.0256951
0.0244488
0.0239202
0.421193
0.5124
0.0426324
0.0240497
0.0247011
0.0564133
0.257936
0.0243787
0.025664
0.0234156
0.0301194
0.0245521
0.0471826
3.88262
0.0222595
0.0257556
0.0420475
0.0235515
0.0253005
0.290261
3.07356
0.0262694
0.0235861
0.350191
0.0296884
0.0282473
0.0246252
0.205852
0.0300573
2.50069
0.0407474
3.34767
2.99605
0.193115
0.028319
0.120766
0.207418
0.0239939
0.023819
0.146274
0.0235792
0.0417887
0.801955
0.0266283
2.37336
0.0239844
0.106016
0.0879349
3.20305
2.85199
0.0254769
0.0247444
0.0255558
0.0842064
0.0244028
0.0250221
0.318098
0.651914
2.74069
0.0385871
0.0333138
0.0278626
0.0230461
0.190032
0.0246508
0.247684
0.0245797
0.0232381
2.51791
0.0240203
0.030501
2.8945
0.0243176
0.0261268
0.0260912
0.0940591
3.15359
0.024584
0.0335644
3.24118
0.024756
5.60964
0.0272567
0.0240393
0.0489388
0.0254088
0.0309977
0.024673
0.0245809
0.0243727
0.067232
0.226777
0.0331115
0.0238643
0.328403
0.0232445
0.023054
0.251813
0.0253185
0.0808023
0.0247043
0.0239753
0.0243226
0.229196
0.0234026
0.419733
3.16859
0.0240317
0.0244884
0.0262526
0.0273162
0.141573
0.050621
0.0256572
0.0256515
0.0239584
0.0247889
0.0404954
0.0248027
2.67513
0.0926142
0.0251282
0.0450803
0.024715
0.025262
0.0254187
0.0252477
0.0253515
0.0253636
0.0245982
0.0229352
0.419273
0.0244684
0.0305381
0.0242135
0.0254789
0.0425443
0.0470906
0.125321
0.808283
0.0389421
0.0244626
0.0248203
0.0264318
0.0261634
4.30201
0.0839601
1.98922
0.0297142
0.024551
0.0257569
0.0248184
0.0780265
3.48186
0.222588
2.57303
3.87475
0.0253588
0.284673
0.02437
0.0408886
0.0297904
0.0243603
0.0318607
0.0245945
0.113345
0.514015
0.0244472
0.0248082
0.0285682
0.146089
0.0331711
0.0246072
0.0268018
0.0249144
0.0275933
0.0247359
0.0288194
0.0250428
0.109232
0.0246815
0.0485224
3.46995
3.05775
0.029755
1.40851
0.0258276
2.88872
0.099786
3.41013
0.0250446
0.131656
0.0235596
1.90688
0.587466
0.0280002
1.35852
0.0269027
0.0251479
0.115688
0.0251528
0.0285432
0.040031
0.0362736
0.0232098
2.7455
0.0558404
0.0263084
0.177626
3.43101
0.228152
0.026761
0.0239919
0.025912
0.0247055
0.18597
0.131629
0.0249151
0.0245272
2.19223
3.35743
0.0234202
0.0241245
0.114683
0.811768
0.0294089
0.0232292
0.0241445
0.0484971
0.0239232
0.0270816
0.0222463
0.09645
2.60313
2.80678
0.107887
0.0243068
0.0241911
0.0246094
0.0229697
0.206339
0.0276438
0.0246942
0.220166
0.049413
0.026029
0.0279913
0.0270044
0.0252209
0.0380657
3.00791
0.129669
2.82966
3.24799
0.0429222
0.0312818
0.0257564
0.0255011
0.0333573
0.22142
0.0570436
0.0241651
0.0264
0.0238051
0.0253088
0.0241905
0.0248551
0.0240167
0.249357
0.0382313
0.0260627
0.0450184
0.0253294
0.0240578
0.0246845
0.126421
0.0460514
0.0244643
0.223194
0.0279854
0.346236
0.0251694
0.0248834
0.0611559
1.46513
0.0237536
0.0337106
0.0244705
3.61514
0.14073
0.0328448
0.714528
0.0912037
0.0239927
0.0234328
0.0302716
0.0359728
0.0252596
1.24797
0.0334181
0.0234368
0.0240431
0.0433209
0.0340323
4.89717
0.025505
0.0361511
0.0446223
3.26003
2.51634
0.476807
0.0334145
0.0264866
0.0260653
0.0686741
0.0431908
0.22997
2.04021
0.0236447
0.0438967
0.0287703
0.0277067
0.02564
0.0240953
0.0316772
0.0233353
0.0241738
0.0396688
0.0267001
0.0247894
0.577816
0.0401104
0.0341053
0.0329969
0.0252878
0.02562
0.0236386
0.0379481
0.028114
2.99745
0.191845
0.023488
1.38303
1.25035
2.99401
0.320663
0.0331679
0.344434
0.0444764
0.338686
0.024452
0.0595986
0.0353139
0.0247851
0.033166
0.346395
0.0342201
0.0247415
0.206062
0.0281699
0.0236684
1.82343
3.29453
1.01164
0.203525
0.10353
0.0432998
0.0230281
0.0248348
0.0230396
0.0497679
0.0237054
0.0310289
0.150715
0.0553722
0.247323
0.230833
3.48747
2.49253
0.0672682
0.0330113
0.0337931
2.5691
0.0448238
0.0286032
0.027475
0.0431866
0.0307667
0.0322484
0.0258933
3.02489
0.0598525
2.64187
0.0252558
2.55514
2.59213
1.33937
0.0257414
0.0441236
3.27562
2.11953
0.274974
0.991671
0.023573
2.51845
1.22651
0.0397123
0.024871
3.02012
0.0380162
0.0356411
0.0340295
0.338598
0.0417187
0.0229262
0.022902
0.0830687
0.0395603
0.07659
0.213879
0.0387827
0.12565
0.0266549
0.0232573
0.0234062
0.0468195
0.0247658
0.0247519
3.48602
0.193656
1.35282
0.024619
0.119381
2.11591
0.224016
0.339847
0.0252699
0.0242834
0.270573
0.0242834
0.0243652
0.0321781
0.0582861
3.75365
0.0468014
0.0235964
2.53532
0.0260505
0.0250541
0.024729
0.0266112
0.0228245
0.0242433
0.0260911
0.0588054
0.0251224
0.0959654
0.0232807
0.0232278
0.0437534
0.033786
0.0658352
0.0288758
0.0251276
0.0253425
0.0233718
3.1788
0.0275432
0.023545
0.0242473
1.27534
0.0255288
3.16784
0.0374821
0.0247892
0.570594
0.0246329
0.0258897
0.024785
0.0245728
0.0250419
0.0325091
0.0291783
0.0244848
0.0465269
0.0267635
0.0323723
0.0316721
0.0242246
0.160111
0.0748864
0.0280443
0.0234259
3.04422
0.0285695
0.0333307
0.0244787
0.0235897
0.6498
0.163259
0.173408
0.666878
0.0279416
0.027947
0.0244552
0.0248282
0.0678373
0.0233967
0.0238384
0.0232292
0.0332898
0.02386
0.0329989
0.34037
0.0352469
0.0235927
0.0488636
0.0288372
0.0238546
0.0239968
0.0397803
0.0238378
3.56168
0.0246413
0.0239137
0.0259678
0.0468657
0.027998
0.0259573
0.0269537
0.121009
0.0252998
0.0272603
0.0555718
0.704393
0.02658
0.543651
0.0277206
0.0252939
0.0246223
0.0253503
0.0465405
0.0335073
0.025266
0.024272
0.0357083
2.77003
3.22083
0.0241033
0.10517
0.0309234
0.023867
0.0233013
0.0246784
0.0483337
0.0333456
0.0246015
0.024243
0.0262985
3.0333
0.107698
0.0261728
0.0256062
0.593102
0.0448524
0.0278336
0.143482
0.0307912
0.30359
0.0246787
2.55564
0.0248646
0.023353
0.0232955
0.109227
0.0340973
0.0249841
0.0262062
0.0282802
0.0325962
0.0252067
0.563267
0.174463
0.0377241
0.0239023
0.0289838
0.0241606
0.125326
0.0301924
3.64044
0.0261257
0.0280222
0.0277655
0.567052
0.0264093
0.0238302
1.27795
0.0233118
0.0243234
0.0889652
0.0235002
0.0242936
0.0282041
0.327452
0.201441
0.0285714
0.046096
0.689518
0.035598
0.106485
0.0927469
0.0245166
0.0227452
3.85978
0.145357
4.41134
0.0246707
0.0452321
0.0350335
0.0237115
0.0300024
0.185194
0.0332767
0.0756871
0.205558
0.0251912
0.02558
0.0248843
0.0454696
0.0239215
2.80551
0.0266883
0.0241864
0.0509103
2.93379
0.0372564
0.0332605
0.0251538
0.0298025
0.0255353
0.0529439
0.024412
0.0463233
0.0849991
0.21005
0.0239766
0.236228
0.0311379
0.030398
0.0717077
0.0262845
0.0783655
0.0853964
0.0234922
0.0426989
0.0454541
0.0220971
0.0281054
0.0248965
0.28634
0.0366093
0.0674395
2.36256
0.0302979
0.0273497
0.279333
0.0236699
0.692347
0.0693038
0.119471
0.0240667
0.0235037
0.0236238
0.0247777
0.0248429
0.024403
0.0240211
0.0747463
0.045452
0.0251935
0.0943763
0.0244869
0.0235926
0.136721
0.0315364
0.0461376
0.0808384
0.0223731
0.0238839
0.0253167
0.0436989
3.3694
0.024362
0.0275224
0.0241034
3.18301
0.02372
0.0366473
0.0494026
0.0842936
0.0238138
0.028153
0.0236273
0.314723
0.104145
0.0362228
0.271957
0.335749
0.0247649
0.804594
0.0247204
0.0574382
0.0266907
0.113037
0.230701
0.197333
0.0242791
0.0235804
0.211102
0.0259669
0.144354
0.0223338
0.999039
0.374319
0.0236066
0.0317087
0.024547
1.93732
0.33449
0.0261108
2.7294
0.0279312
2.8199
0.0295373
0.153462
1.76768
0.0610101
0.072772
0.0252857
0.0275046
0.0253
0.0241011
0.0249311
0.0284135
0.0470972
0.152851
0.0253829
0.106274
0.0235928
0.0258122
0.0251784
0.0318248
0.0242105
0.0252503
0.0245101
2.55269
0.0666765
1.2109
0.0235966
0.165056
0.0234103
0.0226643
0.0239463
0.0435804
0.0739871
0.042076
0.0234171
0.024219
0.0263697
0.0246078
0.0298393
0.0239875
0.0773946
0.338434
0.0429765
0.0253137
0.1249
0.150265
0.191369
0.0773463
0.0476145
0.0235681
0.0221788
0.0587467
0.0241792
0.680248
0.0329888
0.0991074
0.0252998
0.328805
0.254142
0.0251039
0.0303262
2.82357
0.0249965
0.374341
0.0464381
0.0268552
1.93478
0.0238815
0.0244933
0.0231165
0.0651102
0.0638582
0.0245463
0.0249122
0.313309
3.39186
0.0248784
0.130854
2.42268
5.24432
0.306097
0.0242327
0.0338579
0.21754
0.0264871
0.101811
0.0680651
0.0281072
1.33794
0.0825256
2.57455
0.0245594
0.247063
0.0238409
0.366891
0.0248468
0.0237154
0.113165
0.0363292
0.0366642
0.0234669
0.342271
0.0465323
2.26816
0.023692
0.0250715
0.0737027
0.0411799
3.24944
3.82847
0.287313
4.56285
0.0262078
0.0316579
0.0237055
0.0562191
0.0582583
0.0252204
0.0821187
0.0236879
0.0250163
3.01709
0.0230823
0.0649592
0.0233821
0.0234117
0.056944
0.717454
0.0284333
0.0887091
1.61204
3.35566
0.0251087
0.0264844
0.0367289
0.0234441
0.0243022
0.0303443
0.0229006
0.0233449
0.0278692
0.0232947
0.023335
0.0319134
0.0238816
0.140293
3.73373
0.024621
0.0239151
0.0321202
0.0242075
0.0248952
0.031047
0.0527504
0.0257516
0.0239788
0.0240802
0.0852573
0.0279451
0.0294155
0.0252109
0.0320308
0.0732915
0.151864
2.9022
0.0236616
0.148914
0.023102
0.0241557
2.58023
0.0238933
0.0268177
3.12934
0.683683
0.099106
0.0238553
0.0238662
0.285678
0.351506
0.0495769
0.364684
0.0250395
0.0311641
0.0244751
0.0361182
0.233386
0.0300478
0.0258888
0.0245406
0.0259607
0.0243961
0.039186
0.0244973
0.785259
3.5171
0.0237007
0.0256873
0.025063
0.0239387
0.0339567
3.02823
0.0247849
0.0340584
0.0235238
0.0249546
0.0251266
0.0241091
0.0250811
0.0256716
0.0237771
0.0248808
3.74987
0.121122
0.0253119
0.0905475
0.0241753
0.0252779
0.0263395
0.0232234
0.0424517
0.0386739
0.023478
0.0241103
0.0254589
0.0383301
0.0522388
0.0283036
0.0252269
0.0243243
0.0389034
0.0245683
0.0414733
0.0270606
0.210393
0.027399
0.0246168
0.0402234
2.08763
0.025885
0.0229774
0.0269269
2.88305
0.677752
0.0221866
0.0250028
0.0319246
0.0271714
0.0227944
2.99192
0.0772132
0.0697105
0.0248824
0.242434
0.0659774
0.0234781
0.0232421
0.0485125
0.0687761
0.0254872
0.0253479
0.0235841
0.0243587
1.30758
0.0238282
0.0299123
3.75228
0.0236436
0.0320909
0.0403939
3.4555
0.0560265
0.0327445
0.0234871
0.0251373
0.0248796
0.0270549
0.0233644
0.0244508
2.91719
0.0241288
0.0405644
0.0231429
0.0430841
0.0507359
0.170127
2.39924
2.48984
0.042128
0.0232894
0.0233771
0.0258814
0.29122
0.0247408
0.849171
0.022708
0.0317133
3.72856
0.0327064
0.04794
0.0237818
0.0265195
0.038387
0.0236503
0.0242558
0.0350713
0.0310694
0.0270242
0.0321167
2.44319
0.219134
0.0245306
0.0347234
3.06308
0.224362
0.0901875
0.11128
0.0477126
0.0275495
0.0383974
3.02152
0.0363732
3.01865
0.0353176
0.0238758
0.0720932
0.0262407
0.0245358
0.123156
0.22737
0.0346475
0.0299742
0.0378196
0.0308624
0.0685644
0.1449
0.0250718
0.793876
3.94984
0.247014
0.0376182
3.35878
0.15747
0.0242688
0.0491029
0.0249979
0.352815
0.0231447
0.0381317
0.0247396
0.0234513
0.0353769
0.253289
1.13593
0.241106
0.0561695
0.024408
0.0694971
0.0236615
0.297652
0.769827
0.024289
0.0246213
0.0914539
0.452394
0.033198
0.0245364
2.95678
0.0241228
0.0232302
0.0234758
1.91669
3.3507
0.0227081
0.0323216
0.0304196
0.0278567
0.0229903
0.214402
0.0227549
0.0350734
0.0301954
0.024517
0.0748531
0.0238222
2.52917
0.0331015
0.0229653
0.0258983
0.0234769
0.0230907
0.0713864
0.0246887
0.109378
0.0236439
0.02452
0.067623
3.37678
2.50977
0.0241003
0.0265678
0.0244425
3.35208
3.03961
2.90948
0.0242482
3.44584
0.0238642
0.0241082
0.0268598
0.202337
0.108689
0.0255027
0.0319725
0.0244122
0.0243934
0.0246022
0.0787272
0.0561355
0.0538002
0.0238151
0.0439383
0.0321588
0.0580391
0.0244263
0.0239025
2.20722
0.0627775
0.0250596
3.34558
0.0506217
0.0804606
0.0230048
3.24797
0.718458
3.32179
0.0269736
0.0243674
0.0257345
0.0373773
0.110438
3.35617
0.235583
0.0234724
0.024554
0.100936
0.0316529
0.0273509
0.0384485
0.0386957
0.0701558
0.0289162
0.0241418
0.0253517
0.0316133
0.0241755
0.0648373
0.0357339
0.482626
0.0245704
0.321537
0.0677379
0.0239727
0.0233494
3.14003
0.0230334
0.132289
2.31679
0.0227691
0.0231445
0.0239306
2.75052
0.0231469
0.0263302
0.0241723
0.0662048
2.46997
0.024866
0.0252789
0.0311178
2.62056
0.028088
0.0327543
0.0247693
0.0457434
0.0239654
3.57795
0.023474
0.358899
0.0240489
0.0439482
0.0729543
0.163984
0.0247022
0.0266697
0.0328835
0.0239648
2.87985
0.0240071
0.0241205
0.493969
0.023034
2.8705
1.13209
0.41086
0.026323
0.0283288
0.0243068
0.0704329
0.0437492
0.0246716
0.0274334
0.379057
2.51052
2.84191
0.0445293
0.030856
0.0660826
0.0323377
0.0251984
0.0435828
0.0250921
0.0228221
3.25982
3.44743
0.0244063
0.0365822
0.0251309
3.5781
3.60002
0.0243608
0.0239515
0.203905
0.0240512
2.43316
0.10159
0.0271938
0.0430105
0.0262906
0.345487
0.0284308
3.85792
0.233489
0.0249072
0.0251919
0.0310354
2.53262
0.339856
0.0245915
2.82269
0.0263256
0.0226312
0.705553
0.0285846
0.0791691
0.024138
0.0245465
0.0248019
0.0967352
0.0226764
0.0258703
0.0565694
0.0252617
2.59268
0.0452965
0.0251605
0.0869015
0.0252772
0.18025
1.93112
0.0260413
0.252526
0.0252892
0.339286
0.024744
0.0256004
0.0346199
2.56909
0.0243756
0.0247356
0.0259003
0.100109
2.81138
0.0221012
0.0341109
0.0456165
0.0244013
0.0229391
0.0245765
0.0402306
2.82877
0.035418
2.87207
2.41935
0.191707
0.0431172
0.0236166
0.0272159
0.0242197
0.0356373
3.56979
0.0378732
0.0280966
0.0415687
0.0926665
0.0330587
0.0249152
2.72366
0.023962
0.103027
0.592181
0.243399
0.022987
0.0284453
0.0254152
0.0230327
0.0313188
0.0682188
0.114009
0.0282242
0.0272569
0.0245731
0.0230969
0.0243545
0.063984
0.0253762
0.0524517
0.0239338
0.0226472
0.0236023
0.312547
0.0238501
0.0237575
2.54839
0.0230775
0.0260985
0.0289891
1.98165
0.0227676
0.0255675
3.17951
0.0257737
3.26638
4.04936
0.0248451
0.129255
0.187115
0.0248002
0.0400408
0.0244992
0.0236398
2.62738
0.0233531
0.096893
0.0244335
0.109738
0.023065
0.108531
0.030957
0.774461
2.5296
0.284187
0.024
0.0310856
0.148869
0.0242443
0.023755
3.10911
1.09168
0.0709233
0.147973
0.0263044
2.89875
0.0242512
0.0242292
0.0227692
2.74694
0.0244745
0.0243924
0.148656
0.0321004
0.0310777
3.29737
0.0361142
0.0279675
0.129699
0.0244575
0.0247939
0.0430246
0.027944
0.0415748
0.0277053
3.1747
0.340846
0.0242126
0.0954269
0.0228512
0.0247028
2.44198
0.0243344
2.91557
0.0251232
0.185313
0.0259672
0.15174
0.0309761
0.0235095
3.48572
0.128099
0.0680952
0.342195
0.0382607
0.0256849
0.0246778
2.81986
0.0481075
0.0245815
0.0692918
0.0243113
0.0233449
0.0259056
3.50609
0.0255075
0.0227233
0.0327359
0.022723
0.0251086
2.77853
0.0553455
0.0876542
0.0228874
0.0243076
3.9056
0.0279093
2.79283
0.0227235
0.0246252
0.17108
0.0569514
0.023062
0.0668444
0.0234505
0.0248924
0.0256337
0.0259614
0.12685
0.0242026
0.0656409
0.0336147
0.0264322
0.0226828
0.0309692
0.094639
0.0313063
0.0522506
0.0235316
0.0371822
0.240989
0.0237494
0.0685513
0.0241266
0.0461113
0.0227896
0.0368456
0.0221066
3.44768
0.111902
0.0245471
0.0826942
0.0440882
2.53076
0.0948596
0.187489
0.253077
0.0239964
0.028365
0.0236295
0.0231386
0.0316869
2.53727
0.0390791
0.0229432
0.0278315
0.341001
1.61229
0.16463
3.19116
0.288124
0.0233106
0.0247832
0.0291124
0.0244979
0.0245745
0.192356
2.55957
0.0247223
0.0283963
0.997888
0.245887
0.0245442
2.81735
0.0424928
0.0245452
0.0567828
2.91135
0.134379
0.15664
0.025583
0.15011
0.0239816
0.101125
0.0503256
0.0245697
0.045579
0.102038
0.135277
0.0248813
0.0251428
0.0269901
0.0922771
0.0673599
0.0324157
0.0400973
0.0400142
3.554
0.0362525
0.0268527
0.106102
0.0909793
0.123954
0.247101
0.023948
0.0233854
0.0273322
0.056457
0.149748
1.09516
0.0906364
0.0265553
0.0390641
0.167058
2.89706
0.0809553
0.0251868
0.0575826
0.0256413
0.0292069
0.024599
2.59266
2.46929
2.35781
0.0247607
3.16239
0.176497
0.0239727
0.108964
0.0245643
0.154548
0.0344598
0.0239252
0.0284683
0.0235868
3.4214
4.95761
2.52295
0.0243779
2.99426
0.0271166
0.0288157
0.0252655
0.0238728
0.0317004
0.31414
0.0270763
0.0460904
0.0267319
0.0308877
0.0362818
3.08073
2.4309
0.133496
0.0244464
0.0229925
0.137079
0.0237464
0.0227486
3.51248
0.0256308
3.42576
0.0373308
0.184955
0.0230555
0.0253024
2.98762
0.0251282
0.0264425
0.0267584
0.025347
0.0288189
0.056813
0.134384
0.0236298
0.0231346
0.022781
0.0447525
0.0295221
0.341534
0.340248
0.0393745
0.0243092
3.1838
0.0247129
0.0239063
0.0233154
0.0305966
0.0245916
0.0319549
0.0378942
0.253054
0.241693
0.542736
0.027174
0.139001
0.0250552
0.0273923
0.0961617
0.0247237
1.72945
2.87278
2.53799
0.338039
0.0239855