/*--------------------------------*- C++ -*----------------------------------*\
| =========                 |                                                 |
| \\      /  F ield         | OpenFOAM: The Open Source CFD Toolbox           |
|  \\    /   O peration     | Version:  v2012                                 |
|   \\  /    A nd           | Website:  www.openfoam.com                      |
|    \\/     M anipulation  |                                                 |
\*---------------------------------------------------------------------------*/
FoamFile
{
    version     2.0;
    format      ascii;
    class       surfaceScalarField;
    location    "400";
    object      phi;
}
// * * * * * * * * * * * * * * * * * * * * * * * * * * * * * * * * * * * * * //

dimensions      [0 3 -1 0 0 0 0];
oriented        oriented;


internalField   nonuniform List<scalar> 
41383
(
-0.00392686
0.106775
-0.102849
0.485914
-0.098653
-0.387261
0.225812
-0.321735
0.0959225
0.326239
-0.457056
0.130817
0.0401087
-0.04165
0.00154132
0.348712
-0.130948
-0.217764
0.385492
-0.0644087
-0.321084
0.188224
-0.286975
0.0987508
-0.0764569
-0.0821567
0.158614
0.107436
0.107313
-0.214749
-0.461255
0.356458
0.104797
-0.0274494
0.0246929
0.00275645
0.0172821
0.000804659
-0.0350285
0.132896
-0.0978673
0.263084
0.0756419
-0.338726
0.300097
0.0853958
-0.215548
-0.204
0.0257045
-0.0331254
0.00742091
0.0743633
-0.112251
-0.147484
0.00369248
0.143792
0.088573
0.397341
-0.504467
0.403903
0.100564
-0.0979601
0.0940333
-0.0925122
0.0266901
0.0658222
0.291768
0.124417
-0.416186
-0.301124
0.107007
0.194116
0.107389
-0.341114
0.233725
-0.104553
0.211989
0.455439
-0.163671
0.109319
-0.12619
0.0168708
0.381087
-0.163691
-0.217396
0.149351
-0.381519
0.232167
-0.0481503
0.0586671
-0.0105168
-0.085067
-0.199723
0.28479
-0.0543724
0.0062221
-0.122866
-0.237046
0.359912
-0.211546
-0.029758
0.241304
0.340019
-0.108561
-0.231458
0.161651
0.219436
-0.335353
0.221876
0.113478
-0.319072
0.15722
0.161852
-0.157035
-0.178318
-0.0294308
0.0262512
-0.0806319
0.284246
-0.203614
0.409499
-0.339899
-0.0696002
0.0808215
-0.337521
0.2567
0.00871144
0.0650153
-0.0737268
0.245323
0.0459883
-0.291311
-0.327662
0.437794
-0.110132
-0.15836
-0.0768081
0.235168
0.0242915
0.124765
-0.149056
0.340852
0.0686469
-0.146345
0.418155
-0.27181
-0.369018
-0.0314588
0.400477
-0.2173
0.332949
-0.115649
0.0900568
-0.328663
0.238607
-0.00175967
0.151688
-0.0342734
-0.117414
-0.396653
0.366047
0.0306062
0.0112604
0.00118432
0.254889
-0.377755
-0.367469
-0.0291844
0.309857
-0.431464
0.121607
-0.112367
-0.246709
0.359075
-0.00739806
0.0331025
-0.0933066
0.0877419
0.00556475
0.00164439
-0.0177879
0.0161435
-0.0227033
-0.230027
0.25273
0.0370558
-0.0442115
0.00715564
-0.14841
0.377582
-0.229172
-0.158983
0.424194
-0.265211
0.0631529
-0.0680045
0.00485158
0.17839
-0.0704945
-0.107896
-0.0499283
-0.0244573
0.0743856
0.309709
-0.414501
0.104792
0.0394132
0.119464
-0.158877
0.241623
0.0983961
-0.0175759
0.0192203
0.109092
-0.267452
0.328614
-0.0285177
-0.0238037
0.0236515
0.000152153
0.335948
-0.202531
-0.133417
0.422368
-0.336129
-0.0862389
0.044528
0.10716
-0.052004
-0.328555
0.380559
0.209977
-0.178939
-0.0310384
-0.348811
0.090819
0.257992
0.111094
-0.328394
0.0663579
-0.003205
0.00661046
-0.0685425
0.061932
-0.0411766
0.0441612
-0.0029846
0.420355
-0.0543078
-0.0230331
0.219738
-0.196705
0.287107
0.0415074
-0.479032
0.110014
0.131826
-0.350517
0.218691
0.140194
0.0402911
0.040394
-0.000285327
-0.0988233
-0.0563293
0.0650407
0.154947
0.181002
0.268317
-0.221154
-0.0471634
0.188183
-0.0655611
-0.122622
0.416681
-0.0487178
-0.367963
0.0661507
-0.0595403
0.0528283
0.367527
-0.269807
0.36671
-0.0969031
0.0476076
-0.124064
0.0979608
-0.336738
0.238777
-0.117345
0.138036
-0.0206909
0.295697
-0.00023553
-0.295461
-0.087706
0.35079
0.193455
0.0748621
0.18592
-0.208953
0.442281
-0.0956785
-0.346602
-0.137946
0.0302162
0.10773
0.162375
-0.0325452
-0.129829
0.444529
-0.37009
-0.0744388
0.11745
-0.140439
0.0229886
0.0185103
-0.165995
0.0221091
-0.0204172
-0.00169197
-0.0450366
0.00386004
0.104997
0.0116897
-0.433443
0.0846321
0.0547173
0.230737
-0.285455
0.434603
-0.146023
-0.28858
0.0979237
-0.10364
0.00571672
-0.472057
0.344382
0.127675
0.017802
0.00156818
-0.0193702
0.0022982
0.0198109
0.146694
0.0414895
0.11264
-0.00764308
0.230441
-0.36952
0.139079
-0.129803
0.234171
-0.104368
0.0947055
-0.232658
-0.0547036
0.287362
0.374031
-0.211477
-0.162554
0.350769
-0.395651
0.0448813
-0.164439
0.217025
-0.0525864
-0.0140037
0.104656
-0.0906522
0.0438366
0.218881
-0.262718
0.3196
-0.212211
0.311706
0.122897
0.449642
-0.375958
-0.0736839
0.0560812
0.3862
-0.0276935
0.164198
-0.136505
0.149579
0.224452
-0.154564
-0.0909228
0.245486
0.101694
-0.441593
0.3767
-0.146259
-0.192642
-0.268613
-0.00953366
0.254856
-0.0462827
0.173043
-0.126761
0.204309
-0.227012
-0.127873
0.146384
0.347374
-0.134404
-0.212969
0.235431
0.0299946
-0.265426
-0.0546197
0.0662781
-0.0116584
-0.122025
0.0046803
0.0527372
0.0149878
-0.067725
0.0872782
0.0106455
0.0164296
0.210651
-0.000673784
-0.0444626
0.161913
0.212374
-0.427922
0.304903
0.0600069
-0.36491
0.0311311
0.413398
-0.223048
0.313105
-0.204687
0.315223
-0.110535
-0.131056
0.134749
0.356138
0.060543
-0.0246704
0.187045
0.399555
-0.052328
-0.347227
-0.114178
0.000645124
0.113533
-0.330379
0.146273
0.184106
-0.00808404
-0.0251164
0.0332005
-0.0493866
0.354289
0.150604
-0.137224
-0.0133805
-0.0717681
0.41262
-0.0252645
-0.186281
-0.0448929
-0.0476193
0.0417794
0.11733
-0.15911
0.124886
-0.138696
0.0138102
-0.202555
0.174862
0.332713
0.0668422
0.103958
0.00260924
-0.106567
0.119838
0.227536
-0.496138
0.117121
0.379017
-0.044642
-0.0527154
0.0973574
0.0822488
-0.0972476
0.0149988
0.323984
-0.420721
0.0967378
0.310125
-0.158918
-0.151207
-0.122736
0.115517
0.00721958
0.086101
-0.189123
0.103022
0.540723
-0.244263
-0.29646
0.213226
0.00864988
0.288438
0.252284
0.355216
-0.426984
0.0939024
0.226021
-0.319923
0.107298
0.212302
-0.0283485
0.0351073
-0.00675877
-0.22684
0.0833167
0.143523
0.294113
-0.376582
0.082469
0.213651
-0.102476
-0.111175
-0.326192
0.0943465
0.231846
-0.110704
-0.00265089
0.113355
-0.198674
0.152391
-0.0413455
0.0768919
-0.0355464
0.387624
-0.400567
0.0129427
-0.00169252
0.0129529
0.419878
-0.411002
-0.00887564
-0.0972269
0.00633546
0.0908914
0.0338384
-0.0419225
0.127479
0.0231258
0.040934
-0.085576
0.128071
-0.373508
0.245437
0.320586
-0.461471
0.140885
0.175237
0.11187
0.325935
-0.194109
-0.223737
-0.107216
0.330954
0.0198758
-0.00207378
0.487604
-0.0949643
-0.39264
0.108647
-0.00468946
0.123753
-0.0614348
-0.0623179
0.108975
-0.0770435
0.427813
-0.413172
0.13912
0.171005
0.332444
-0.251622
0.271362
-0.223524
-0.047838
-0.315404
0.40191
-0.0865063
-0.186572
-0.163945
0.0128976
-0.134185
0.121287
0.194982
-0.120619
0.0846481
-0.0986518
-0.462248
0.358936
0.103311
0.0303151
-0.0716606
0.0447806
0.0138865
0.376058
0.0319279
-0.407986
0.0936765
0.242572
-0.336249
-0.136808
0.0153777
0.12143
-0.00866373
-0.128144
-0.244048
0.378953
-0.134905
0.405604
-0.419092
0.0134886
0.0545983
-0.00981772
-0.0421032
0.397319
0.462331
-0.141746
0.315932
-0.140695
0.330285
-0.104473
0.106881
-0.119121
0.0122399
0.154312
-0.0642279
-0.0900838
-0.10379
0.106062
-0.0022717
-0.229836
0.323512
0.399203
-0.0729639
0.0425442
0.298888
-0.341432
0.308927
-0.360931
0.403171
-0.248224
0.0736817
0.13997
0.330983
0.104724
0.0495877
0.133166
-0.248299
0.115133
-0.0185653
-0.00101959
0.0195849
-0.0795443
0.467168
-0.0262033
0.0333616
-0.00715833
0.147777
-0.157117
0.00933971
0.00335862
0.0502085
0.174491
0.313113
-0.168728
0.0112732
-0.450628
0.197769
0.252859
0.00869339
0.0959625
-0.360913
0.134413
0.226499
0.186407
-0.100305
0.000876448
0.0557212
-0.0565976
0.134482
0.106861
-0.241343
-0.123249
0.121832
0.00141648
0.0105531
-0.0528857
0.361813
-0.0983332
0.00110636
0.141227
-0.00523401
-0.135993
0.107455
-0.29773
0.190275
0.21153
0.0778482
-0.289378
-0.0214686
0.0832753
-0.0618067
0.227531
-0.118533
-0.108999
0.136752
0.266419
-0.0412702
-0.171036
0.212306
0.167238
-0.151569
-0.015669
0.341974
-0.442246
0.100272
0.271725
-0.467304
0.195579
-0.278925
0.193858
0.503666
-0.22933
-0.274336
-0.140917
-0.0522492
0.193167
0.194133
0.309534
0.0838679
0.189946
-0.273814
-0.0549125
-0.083034
0.0538714
-0.382427
-0.0129363
0.0112437
-0.313459
0.394448
-0.0809894
-0.0772867
-0.0160199
0.0534524
-0.210538
0.157086
0.28241
-0.377456
0.0950468
-0.0399198
0.092657
0.1329
0.0620825
0.0348672
-0.199306
-0.132717
0.265883
0.0342219
-0.029168
-0.00505383
0.148339
0.0582239
-0.206563
-0.137083
0.271565
-0.121032
0.177647
-0.0566153
-0.103238
0.10491
-0.0016721
0.0822773
-0.0922052
0.00992789
-0.212484
0.0826803
0.355985
-0.181177
-0.174808
0.339759
0.0801186
-0.150554
0.0295218
0.100592
0.00618353
0.117354
-0.124173
0.00681944
0.0702076
-0.105236
0.169301
-0.413349
-0.228231
-0.313476
0.406101
-0.0926251
-0.333663
0.450375
-0.116713
0.2736
-0.351567
0.0779668
0.411724
-0.035024
0.000948833
-0.0195142
0.0719979
0.339726
0.300794
-0.206447
-0.0174127
0.132542
-0.11513
-0.2621
0.343772
-0.081672
-0.0520601
-0.00793354
0.0599937
-0.313456
-0.0582101
0.371666
-0.16759
0.00704253
0.160547
0.0282553
0.0954974
-0.0274201
-0.0867582
0.102742
-0.0204648
0.28879
0.0539569
-0.342747
-0.0748979
-0.00507539
0.0799732
0.284981
-0.423858
0.138876
-0.0615155
-0.282663
0.344179
0.0342462
-0.0316724
-0.00257385
-0.0270428
0.172077
-0.248885
-0.0603496
0.0760716
-0.015722
0.301296
-0.186037
-0.115259
0.0708625
-0.0669429
-0.00391953
0.0445745
0.237339
-0.281914
0.207579
0.108353
-0.0959906
0.0292888
0.0667017
-0.445716
0.278143
0.167573
0.0446572
-0.0340527
-0.0106045
0.248718
-0.194
0.155069
-0.264029
0.10896
-0.00803654
-0.259734
0.267771
-0.333013
0.202096
0.130917
-0.414821
0.121573
0.293248
-0.0496151
-0.0463755
0.410362
-0.43687
0.0265081
-0.292347
0.421282
-0.128935
0.276228
0.0370861
-0.313314
-0.207153
-0.0695701
0.276723
-0.402414
0.110067
-0.010841
0.127569
-0.116728
-0.482181
0.237919
0.213793
-0.365716
0.151923
0.33066
-0.286085
-0.209593
0.168323
0.13406
0.00716705
0.418149
-0.307055
-0.0730457
0.361836
0.00364843
0.067214
0.165138
-0.020273
-0.144865
-0.0718811
0.0612582
0.0106229
0.330121
-0.0884984
0.034486
0.000621324
0.18024
-0.0151017
0.323808
-0.0281118
0.13011
-0.175661
0.0455507
0.267356
0.0846324
-0.351989
-0.0799864
-0.416152
-0.299271
-0.18291
-0.225641
0.217605
-0.292937
-0.0985318
0.391469
0.301249
0.120868
-0.422116
-0.482509
0.378965
0.103544
0.0739158
-0.0536946
-0.0202212
0.0566069
-0.310116
0.253509
-0.080996
0.357224
-0.238452
0.0904864
0.147966
0.286325
0.0653926
-0.351717
-0.254787
0.328446
-0.0736594
0.215059
-0.0667205
-0.00467114
-0.236405
-0.0909776
0.327383
-0.0576289
0.00556874
0.139843
0.161453
0.00916104
0.44592
-0.388552
-0.0573683
-0.0284404
-0.094296
0.00112086
0.0147868
-0.072189
0.358514
-0.180214
0.029522
0.150692
-0.328667
0.12398
0.456655
-0.219316
-0.108537
0.150316
0.0908092
-0.0204686
-0.0703406
0.0639025
0.163629
0.151239
-0.0293129
-0.121927
0.0113663
0.00055537
-0.0119216
0.333478
-0.119685
-0.0223565
0.00193928
-0.0102736
-0.0078013
0.0180749
0.129054
0.246519
-0.375573
0.189388
0.136547
0.0876192
-0.127807
0.110395
0.333424
0.116218
0.166529
0.290126
-0.00879307
-0.0206377
0.306599
-0.09902
0.315049
-0.258442
-0.168097
-0.133026
-0.130856
-0.330614
-0.18619
0.231271
-0.343637
-0.0219744
0.0210938
0.000880668
-0.283499
0.202867
0.158119
-0.133827
0.396459
-0.111478
0.210872
-0.103555
-0.107316
-0.226861
0.355915
0.0839297
-0.327425
0.243495
0.409978
-0.409978
-0.183911
-0.135522
0.319434
0.0776839
0.00367713
-0.081361
0.286683
0.0595861
-0.346269
-0.0797933
0.366476
0.13801
-0.0131243
0.122251
-0.116023
-0.00622721
0.266098
-0.116746
-0.477644
0.373429
0.104215
0.376433
-0.345302
-0.011159
-0.0868012
0.390502
-0.130019
-0.260482
0.428365
-0.0407065
-0.387659
-0.115944
0.347214
0.0879258
-0.0856319
-0.00229388
-0.0403612
-0.0896953
0.130056
-0.0614112
0.048908
-0.0489184
1.04002e-05
0.181824
0.280507
-0.0162068
-0.00759685
-0.458884
0.301558
0.157325
-0.0114293
0.116935
-0.105506
0.129436
-0.116539
-0.0735038
0.347104
0.0830294
0.247092
0.312746
0.105403
-0.0938975
-0.202456
0.296354
-0.207745
-0.214023
0.421767
0.1573
0.000547388
-0.157847
-0.0637564
-0.119209
0.182966
-0.207095
0.164353
-0.0141573
-0.150196
-0.175636
-0.296422
0.121161
0.26934
-0.34331
0.329605
0.0987603
-0.155092
0.178067
-0.0229744
0.394906
-0.0184726
-0.101942
0.316144
-0.214202
0.0767302
-0.00467304
-0.0720572
0.271864
-0.373817
0.101953
0.0825228
-0.289676
-0.359913
-0.00960719
0.0114277
-0.0125657
0.339651
-0.401166
0.226554
-0.133642
-0.0929121
-0.0717612
0.000343049
0.0714182
0.124078
-0.296022
0.11079
0.185232
-0.00319834
-0.00427934
-0.327679
0.441498
-0.113819
-0.153849
0.261304
0.247463
-0.0943649
-0.153098
0.0157933
-0.0875545
0.332526
-0.204455
-0.0568037
-0.251827
0.308631
-0.398204
0.325257
0.0729475
-0.220819
-0.120295
-0.0310529
0.00484964
-0.367771
0.00785782
-0.00537194
0.0306084
-0.0252365
0.325922
-0.410165
0.084243
-0.0722818
-0.231033
0.314963
-0.313194
0.113471
-0.0191501
0.00887651
0.121432
-0.124949
0.00351734
-0.319769
0.139905
0.179864
0.0881676
-0.0731798
-0.332778
-0.0773871
0.0517983
-0.0509218
0.366278
-0.45336
0.0870821
0.102335
0.0951764
0.00756563
0.253246
-0.0981765
0.258615
0.0900963
-0.200336
0.0594182
0.136417
0.00365164
-0.140069
0.0819293
-0.356609
0.27468
0.388085
-0.0641018
0.00522753
0.0855817
0.386973
-0.0772634
0.145423
0.0716023
0.38994
0.0559804
-0.124558
0.0841971
0.165215
-0.000861561
-0.302846
0.0862077
0.216638
0.28434
-0.0961159
-0.0995354
-0.209567
0.309102
-0.0242059
-0.143384
-0.251062
-0.199566
-0.527385
0.298055
-0.192317
-0.0717127
0.0261537
0.0831654
0.0312013
-0.0260594
-0.00514188
-0.105217
-0.043407
0.148624
0.0430355
0.135355
0.402332
-0.348739
-0.0535923
0.215203
0.0621765
-0.277379
0.0266197
-0.0319916
-0.265325
0.340967
-0.130128
0.139456
-0.00932755
0.0945766
-0.330905
0.236328
-0.228497
-0.28286
0.421561
-0.138702
-0.0821972
0.059673
0.0225243
0.410136
-0.108887
0.065916
-0.328016
0.338285
0.0640467
0.0905676
0.00460888
0.399096
-0.399712
0.000615244
-0.0180135
0.140342
-0.122328
0.0786188
0.00362999
0.0104885
0.111762
-0.09965
0.0906957
0.00895426
0.0186799
0.0177651
-0.036445
0.0951219
-0.0272939
-0.067828
-0.0724
-0.0537899
0.0578045
-0.0727242
0.0149197
0.0714138
-0.337925
0.266511
-0.00047111
0.193622
0.0538405
-0.230091
0.0814176
0.148674
0.451725
-0.0756668
-0.260365
-0.244102
0.176771
0.112725
-0.289496
-0.0405015
-0.160021
0.200522
0.336082
-0.117902
-0.21818
-0.232849
0.312342
-0.221523
-0.369325
0.0876444
0.281681
0.371431
0.0241202
-0.395551
-0.149103
-0.00937491
0.159558
-0.150183
0.00192761
0.0719882
0.0509408
-0.0594458
0.00850499
0.0238636
-0.01633
-0.00753355
-0.00792808
0.0449839
-0.00274115
-0.0849349
0.0741365
0.0107984
-0.121783
-0.035334
0.00933102
0.025155
0.233044
-0.286553
0.0535095
0.00540884
-0.0906484
-0.278677
0.0261798
-0.0788951
0.0548516
-0.229991
0.309835
-0.079844
-0.193825
0.181098
0.012727
0.0320388
-0.0134313
-0.0186075
0.100197
-0.101675
0.00147794
-0.458752
0.155087
0.303665
0.0232457
-0.0753029
-0.00944601
0.0847489
0.0585798
-0.0800483
-0.22416
0.0818074
-0.00412352
-0.286173
-0.172579
0.207758
0.0450126
-0.25277
0.0110794
0.0891175
-0.386585
0.284743
0.101841
-0.195675
0.279543
-0.00651031
-0.0768343
0.0833446
-0.264751
-0.0452472
0.222675
-0.177428
-0.109082
-0.267961
0.377044
-0.020921
-0.0540346
0.0749556
0.138548
-0.346293
-0.00741801
0.255166
-0.00319894
-0.251967
-0.00567924
-0.0166772
-0.164587
0.037568
0.127019
-0.138017
0.0162338
0.073671
0.213132
-0.286803
0.0309115
0.0137457
-0.307526
0.202933
0.104594
-0.205103
0.287374
-0.0822713
-0.0777634
-0.139537
0.0165933
0.122943
-0.0809618
0.406218
0.0960752
-0.329923
0.233848
-0.0682436
0.0944233
-0.228184
0.182937
0.0280533
-0.0314551
0.0034018
-0.0237638
-0.0036856
-0.384507
0.275425
-0.0841757
0.201206
-0.11703
-0.15743
-0.06941
-0.0522715
-0.0282493
0.0805208
0.442679
-0.442679
-0.0120998
-0.0352413
0.0473411
0.116068
0.0219416
-0.0690424
0.0600643
0.00897818
-0.333191
0.1032
-0.0576191
0.265377
0.101702
-0.0193405
-0.0823619
-0.00485032
-0.0536531
0.0585034
-0.0834654
0.00816252
-0.278802
0.30049
-0.0216877
0.0317742
-0.113937
0.0821627
-0.135535
0.10299
-0.0966469
-0.00894315
0.10559
0.445062
-0.175775
-0.269287
0.0530731
-0.0483455
-0.00472759
-0.269828
-0.00897424
0.308336
-0.131565
0.0694047
0.0967534
-0.166158
-0.0648218
-0.325571
0.390392
-0.00130678
0.0382947
-0.0369879
-0.0844729
0.0241233
0.16814
-0.153357
-0.014783
-0.00829351
-0.0492471
0.0575406
0.105229
-0.11607
0.0217686
-0.022159
0.000390382
0.370506
-0.276603
0.31049
-0.375312
-0.0958389
0.092759
0.00307991
-0.104761
0.0857747
0.0189861
0.0531805
-0.0426708
-0.0105097
0.259004
-0.343817
0.0848125
0.447364
-0.137507
0.375196
0.030407
-0.0598503
0.364661
-0.304811
0.19278
-0.356562
0.163782
0.279032
0.123279
-0.33883
0.215551
-0.0946878
-0.190726
0.285414
0.055044
-0.00410318
-0.0182
-0.128136
0.146336
0.0260562
0.383921
-0.148746
0.0435291
-0.119457
-0.0872505
0.206707
0.157243
-0.11783
-0.131088
-0.00870852
0.139797
-0.371395
0.311545
-0.277513
0.0448545
-0.0574539
0.122953
0.0113441
-0.134297
0.0594624
0.107776
0.131462
-0.379626
0.248164
0.0151623
-0.355964
0.340802
0.400689
0.00738351
-0.408072
-0.183203
-0.0552495
-0.169342
0.362122
-0.421555
0.15024
0.271315
-0.123841
0.121831
0.00201079
-0.156902
-0.0943402
0.0997368
-0.00539664
-0.0379766
0.143331
-0.105355
0.0397746
-0.0210947
0.0200009
-0.0226368
0.00263596
-0.097506
0.106199
-0.117817
0.390165
-0.272348
0.0378275
-0.339742
0.301915
0.401457
-0.449447
0.0479897
-0.213391
0.478662
-0.265272
-0.183434
0.174156
-0.0107823
-0.163374
0.11095
-0.100462
-0.00153753
-0.0204369
-0.290629
-0.38109
0.290543
0.0905466
-0.0812055
0.0602845
-0.0156823
0.387113
-0.339829
-0.0936139
0.345275
-0.0862701
-0.0999789
0.0791453
0.0208336
-0.108624
-0.222282
-0.197924
0.076116
0.121808
-0.219449
0.290863
0.254928
-0.401273
0.310094
-0.433045
0.122951
0.152815
-0.177485
0.0817897
0.0133322
-0.0169272
0.132995
0.330257
-0.181115
-0.149142
-0.045184
0.0564478
-0.0112637
-0.0603656
-0.119848
0.0019364
0.0538091
0.0491296
-0.102939
0.16731
-0.315721
0.0272249
-0.0285316
0.0395553
-0.0349601
-0.00459523
0.0724233
-0.0789336
0.125346
-0.146391
0.0210452
-0.0406265
0.0469079
-0.00628145
-0.034011
0.390469
0.235375
-0.0740356
-0.161339
-0.0494198
0.168884
-0.0478028
0.055537
-0.00773422
0.212972
-0.0840457
-0.128926
-0.0241615
0.138391
-0.11423
0.290194
0.0873881
-0.124046
0.0443079
-0.00446328
-0.0398447
0.161486
-0.101261
-0.0602248
-0.00162215
-0.0332665
0.0348887
-0.0170188
0.134822
-0.117803
0.124017
-0.0391426
0.202569
-0.169611
-0.0329581
-0.103202
0.375066
0.171627
-0.128591
0.0628244
0.303409
-0.366233
-0.0507151
-0.285624
0.336339
-0.0137995
0.1711
-0.491019
0.157466
0.333553
-0.00690577
0.0578534
-0.0509476
0.416856
-0.186896
-0.229959
0.0711154
0.141857
-0.00454902
0.0292419
-0.186646
-0.27041
-0.348875
0.0940884
0.162825
0.0113313
0.00328711
-0.0234677
0.0201806
-0.115082
0.00773993
0.107342
0.365311
-0.0964816
-0.268829
0.296612
-0.347327
-0.156427
0.132265
0.191508
-0.119634
-0.0718733
-0.00053443
-0.100306
0.10084
-0.00982369
0.108615
-0.0987913
0.268576
-0.386178
0.117602
0.134607
-0.0162796
-0.118327
0.277067
0.0532183
0.0636126
-0.18307
-0.135133
0.12818
0.00695249
0.0619739
-0.394752
-0.0408679
0.11676
-0.0758924
0.409982
-0.109776
-0.300206
-0.0426509
0.0566292
-0.0139782
0.0227321
-0.00273123
-0.298673
-0.0828455
-0.236664
0.226687
0.00997669
0.358688
-0.2487
-0.109988
-0.451262
0.451262
0.00473588
0.0125462
0.277634
0.0810537
0.195061
0.135196
-0.39304
0.385766
0.00727339
-0.103166
0.165372
-0.062206
0.00126807
0.0130572
-0.0143252
-0.00396242
0.407865
0.198337
-0.329284
-0.136589
0.151975
-0.0153858
0.0528531
-0.093721
-0.427664
0.223664
-0.13752
0.000931423
0.206866
-0.0614427
-0.470345
0.187486
0.23306
-0.350877
0.0519645
-0.0129508
-0.0390137
-0.0245388
0.177354
-0.375722
0.062263
0.377187
-0.377187
-0.157736
-0.0657887
0.0196733
-0.1421
0.122426
-0.193845
-0.156588
0.350433
-0.0435348
0.179114
-0.0830123
-0.0961022
0.0349003
-0.00657333
-0.028327
0.109859
-0.0689252
0.00111885
-0.111114
0.109995
0.0252624
0.0845969
-0.294008
0.271003
0.0230054
0.109786
-0.193962
0.0769689
-0.270814
0.0935042
0.271807
0.071821
-0.337169
0.265348
-0.0614073
-0.00274885
-0.0756145
0.0783634
0.13837
-0.118697
-0.0819521
-0.012388
0.0940657
-0.0637506
0.372005
-0.146895
-0.22511
-0.431675
0.279063
0.152612
-0.0767935
0.0839364
-0.00714293
0.00546265
0.101418
-0.176365
0.432835
-0.25647
-0.0761527
-0.280823
0.356975
-0.108237
0.0883968
0.0198399
0.174659
-0.145604
-0.0290559
0.368291
-0.0997146
0.0927092
0.274
0.071396
0.288216
-0.359612
-0.360079
0.406021
-0.0459425
0.404705
-0.022085
-0.38262
-0.208995
0.282666
-0.105737
-0.0788288
0.184566
-0.279026
0.350846
-0.0922635
0.263499
-0.171236
-0.00016112
0.0311822
-0.0310211
0.0569204
-0.0492762
-0.00764417
0.00329992
0.030922
0.396235
-0.110702
-0.285533
0.12011
-0.121972
0.00186208
0.195932
0.00663652
-0.198618
-0.0584951
0.257113
0.0300764
0.114879
-0.144955
-0.159598
-0.186106
0.345704
0.0236551
-0.0759266
0.0081853
-0.143672
0.135487
-0.0544429
-0.175648
0.498035
-0.209875
-0.28816
0.203143
0.294893
0.0120976
0.0604313
-0.0725288
-0.13504
0.143225
0.052291
0.00462943
-0.223683
-0.0980516
0.102053
-0.415529
0.12203
-0.157803
0.0357722
0.00876366
-0.362936
0.354172
-0.100422
-0.243791
0.344213
0.0154093
0.00845429
-0.0555678
-0.0444111
0.0883126
-0.0912925
0.00297994
0.357944
-0.307956
-0.0499878
0.344033
0.0566557
-0.00894043
-0.351138
-0.334902
-0.0216604
0.224713
-0.0310906
0.0732069
-0.10438
0.0311731
-0.0358409
-0.0414457
-0.0529084
0.221437
-0.337381
0.105336
0.00561475
0.0786028
-0.274278
-0.0725265
0.287729
-0.158619
-0.0213735
0.179993
0.00150571
-0.0306738
0.11825
0.0286211
-0.146871
0.357005
0.0327922
-0.389797
0.135306
0.0562012
0.312066
0.097916
0.35914
-0.287744
0.00527026
0.104349
-0.104884
0.393615
-0.41464
0.0210242
0.105881
0.172515
-0.278396
-0.0992934
0.111389
-0.0120956
0.0752948
-0.0748623
-0.000432529
0.118215
-0.143464
0.0252494
0.0369093
-0.00200896
0.100612
-0.170331
0.0697197
0.110332
0.0482838
-0.158616
-0.0457278
0.0585348
-0.0128069
0.287791
-0.112611
-0.17518
-0.00678118
-0.229883
-0.315165
0.133524
0.18164
0.0926134
-0.102437
-0.00527132
-0.18609
-0.0611375
0.247228
0.0790451
-0.0669476
0.0795342
0.164095
-0.243629
0.0672498
-0.0147225
-0.0525273
-0.256237
0.257992
-0.358414
-0.0562884
0.0111043
-0.330164
0.0163057
0.313859
-0.070048
-0.272989
0.37129
-0.0983009
0.402882
-0.00142481
0.0925236
0.303711
-0.0194751
-9.29142e-05
0.019568
0.00884722
0.215866
0.108466
-0.0352588
0.195486
-0.354468
0.250668
0.0946063
0.106218
-0.454957
-0.497126
0.200964
0.296162
-0.20853
-0.288596
0.24399
0.113088
0.0660267
-0.259003
-0.035005
0.292893
-0.081363
0.307763
-0.221416
-0.0863465
0.264918
-0.256154
0.0751425
-0.017338
0.120073
-0.120452
0.000379574
-0.152691
0.0240121
0.128679
-0.15177
0.234943
-0.083173
0.331863
0.0923306
-0.397138
0.136409
0.260728
-0.032185
0.188278
-0.156093
-0.185436
0.291317
0.0658165
-0.475979
0.200912
0.275067
-0.350763
0.0158618
0.156178
-0.188363
-0.00104699
0.0124133
0.373269
-0.353617
-0.0196512
0.0354467
0.115793
-0.420996
0.38029
-0.396588
0.0811839
0.164758
-0.209269
0.0445108
-0.40492
0.144671
0.260249
0.0554815
-0.0518671
-0.00361437
0.350618
-0.382077
-0.288285
0.420218
-0.131933
0.00543183
0.069863
0.365213
0.0451484
0.0414153
-0.0462656
0.149831
-0.150656
0.000824212
-0.0738253
0.0979833
-0.024158
0.049293
0.00267152
0.306946
-0.117538
-0.297283
0.0824014
0.00225915
0.0859852
-0.0882444
0.0226951
-0.0965204
0.152736
-0.193238
-0.335553
-0.0600982
-0.113963
0.00866649
0.00664006
0.366628
0.240764
-0.161229
-0.0221437
0.388422
0.341026
0.0771285
0.199625
-0.0147711
0.101632
-0.0868614
0.0211402
-0.257308
0.236168
0.410604
-0.320731
-0.0898729
0.453115
-0.108734
0.13786
-0.147235
-0.0539761
0.0113252
-0.000124224
0.173255
-0.161675
-0.0115796
0.34389
-0.261961
0.0723027
0.244033
-0.316336
-0.32955
0.433165
-0.103615
-0.0916002
-0.0275207
-0.0576544
0.334435
-0.27678
0.327416
-0.40696
-0.300031
0.198089
0.0245031
0.108039
-0.0350117
-0.100121
-0.121726
-0.29927
-0.137922
0.0202362
0.117686
0.289335
-0.34699
0.416979
-0.106885
-0.0749696
0.0715725
0.00339715
0.346495
-0.0958263
-0.0318057
-0.120886
-0.192236
-0.270011
0.065151
0.0333754
-0.0985264
0.250448
0.107496
0.0810542
0.0446925
0.00421551
-0.336582
0.250315
0.0862672
0.246911
0.0608516
-0.260886
-0.136252
0.029559
-0.301777
0.20788
0.339947
-0.225952
-0.113994
0.209761
0.131614
-0.0115041
-0.0898988
0.398157
-0.308258
-0.0217406
0.0803204
-0.170644
-0.250912
-0.0694484
0.411422
-0.0786987
0.17931
-0.0512312
0.0451659
0.00606536
0.0316721
0.019514
-0.0511861
-0.201115
0.222255
0.0340052
0.00555015
-0.00380707
0.0157787
-0.0119716
-0.015017
0.164848
-0.276208
-0.319546
-0.0786824
0.398229
0.0101037
-0.0095483
-0.0304406
0.0259222
0.00451844
-0.0316259
-0.177967
-0.272525
0.187955
-0.0700307
0.341756
0.506678
-0.216508
-0.290169
0.19853
0.308148
-0.354688
0.266982
0.000881055
0.13751
0.0507991
-0.33034
0.279541
0.129765
-0.144845
0.0150799
-0.0586238
0.0699402
-0.0113164
0.0798999
-0.407579
-0.421669
0.302356
0.119312
-0.0683073
-0.343305
0.411613
-0.0463213
0.405257
-0.144382
0.0165085
0.0626026
0.0230911
-0.0856937
-0.342108
0.438057
-0.0959494
-0.432873
0.164384
0.268489
-0.000868188
-0.387854
-0.234479
-0.25654
0.165064
-0.273744
0.0678278
-0.253918
0.0741314
-0.0711342
-0.027199
-0.28637
0.0735164
-0.0370709
0.364486
-0.397002
0.0467821
0.00869933
-0.12776
-0.0117765
0.295695
0.100765
-0.262241
0.33447
-0.0722289
-0.443029
0.286417
0.156612
0.166345
-0.0560131
-0.210737
-0.104428
0.369651
-0.102294
-0.0484489
0.0473536
0.0010953
0.0375328
0.134094
-0.142162
0.125309
0.0168524
0.0968785
-0.0317275
-0.147591
0.212565
-0.0649739
0.378729
0.01168
-0.39041
-0.0232599
-0.0209516
0.0169966
0.0111773
-0.0281739
0.244722
0.0952243
-0.123018
0.00384385
0.119174
-0.144482
0.14503
0.292319
0.0634387
-0.355757
-0.13704
0.210227
-0.0731868
0.323213
-0.420285
0.0970724
0.324773
-0.098752
0.00924305
0.0350649
0.131761
-0.195517
0.0682646
-0.274324
0.20606
0.106694
0.00179038
-0.108485
0.0603614
-0.296479
0.236118
-0.0163079
-0.0204138
0.0520858
0.0409618
0.181082
-0.222044
0.29251
-0.169232
-0.145106
-0.286358
-0.271119
-0.101078
0.372197
-0.152209
-0.00288287
-0.220379
0.0773405
0.143038
0.0915911
-0.10302
0.00456642
0.0363122
-0.0408786
0.103022
-0.39596
-0.321803
-0.0765717
0.398375
0.326948
0.21954
-0.251166
-0.0220083
-0.101009
-0.28388
0.175256
-0.390157
0.114976
0.275181
0.0194038
-0.0195649
0.00192052
0.0141348
-0.0160553
-0.210658
0.141852
0.0688064
-0.00749054
0.0958031
-0.494515
0.19676
0.297754
-0.203744
-0.290771
0.0515896
0.00394744
0.0121134
-0.0131604
-0.117953
-0.0424481
0.160401
0.151106
-0.0977586
-0.0533476
-0.355988
0.20046
0.155528
-0.0225644
0.0256819
-0.00311745
0.0736035
-0.0790897
0.00548623
0.0827703
-0.0201676
0.126197
-0.00436463
0.116472
0.00972489
0.329651
-0.427188
0.0975368
-0.0930122
-0.187908
0.28092
0.0883681
0.249537
-0.353517
0.10398
0.330246
0.0688504
0.0986224
-0.0123964
0.0997857
-0.00191129
-0.0158767
-0.200322
0.167371
-0.134095
-0.0332768
0.0206193
-0.0229486
0.00232927
0.273955
-0.283489
-0.282557
0.188409
0.0941481
0.0749502
-0.087129
0.0121788
0.0585741
-0.00694589
-0.0516283
-0.135978
-0.0626952
0.0921217
-0.297225
-0.281806
-0.106955
0.388762
-0.0684128
-0.269368
0.33778
-0.205583
0.0693762
0.136206
-0.0940762
0.343613
0.38948
-0.0937856
-0.00109948
-0.0992064
0.440884
-0.111233
0.33662
-0.407909
0.0712893
0.163857
0.0382839
-0.202141
-0.227587
0.29989
0.31852
0.131641
-0.450161
-0.011148
0.136494
-0.223778
0.0692143
0.116578
0.0543869
-0.336844
0.282457
-0.147351
-0.242806
-0.0542497
-0.155562
0.209812
0.183246
-0.277934
-0.327627
0.436837
-0.109211
0.0233459
-0.0198391
-0.00350673
-0.436526
0.292844
0.143681
0.00677377
0.0464067
0.123962
0.0601588
-0.184121
0.0824598
0.0879786
-0.00383686
-0.275953
-0.0814967
0.419782
0.0178753
-0.0195037
0.0016284
0.068731
-0.352725
0.283994
0.0230622
-0.122356
-0.274241
0.219538
-0.346401
0.208149
0.138252
0.0620071
-0.057543
-0.00446413
0.0233614
-0.00274204
0.000465107
0.025786
-0.212346
0.158097
-0.132761
-0.179926
0.0264652
0.37824
-0.0962266
-0.120211
0.216438
-0.151679
-0.0554989
0.336755
-0.281256
0.0723144
0.0065592
-0.0788736
-0.0453962
-0.249133
0.0826393
0.166494
0.175369
-0.00211411
-0.0783116
0.0755628
-0.39666
0.074857
-0.0796844
0.00289093
0.000400724
0.0887891
-0.0887634
-2.56733e-05
-0.0840608
0.08632
-0.0285479
0.0300486
-0.00150064
-0.21227
0.388932
-0.0784422
-0.145042
0.126842
-0.299963
0.359696
-0.0597337
0.157248
0.0157949
-0.429539
0.282138
0.147401
0.0823788
-0.0995322
0.0171535
-0.153246
-0.0113402
0.130498
-0.278089
-0.197038
-0.0946207
0.291659
0.0522093
-0.18925
0.204344
0.102255
-0.372287
0.314077
-0.323642
0.409214
-0.0855722
0.342983
0.161029
0.276765
-0.416994
0.155825
0.261169
0.0783467
-0.378309
-0.504847
0.205752
0.299095
0.207801
-0.16684
-0.124478
-0.064998
0.189476
0.0489157
-0.0706563
-0.0105278
0.0275244
0.32994
-0.292113
-0.228005
-0.303883
-0.0684641
0.198315
-0.129851
-0.137469
-0.0829098
-0.0379283
-0.0668325
-0.0198021
0.252976
-0.253211
0.102477
0.209622
-0.302634
0.0584911
0.169716
-0.228208
0.0470031
-0.199703
0.1527
-0.413008
0.317432
0.0955755
-0.228313
0.165491
0.0628228
0.110277
-0.114605
0.0043282
-0.315469
0.412801
-0.0973313
0.0790885
0.00865333
0.0154133
-0.296573
0.158534
-0.0238322
-0.435132
0.281678
0.153454
-0.120796
0.150872
-0.273828
-0.20868
0.0947649
0.036849
-0.120133
0.305635
0.0131733
0.00040056
-0.0135739
0.0203623
-0.00200916
-0.0183531
-0.0937384
0.106423
-0.0126844
0.424907
0.0107199
0.300231
0.0843041
-0.384535
-0.0884343
0.0944345
-0.00600017
0.0996679
-0.0172891
0.243517
-0.430413
-0.135805
-0.281189
0.237505
0.0399545
-0.0387371
-0.00121736
-0.0426558
0.00769566
-0.0293599
0.408325
-0.300801
-0.0863102
0.387111
0.426525
-0.298258
-0.128266