/*--------------------------------*- C++ -*----------------------------------*\
| =========                 |                                                 |
| \\      /  F ield         | OpenFOAM: The Open Source CFD Toolbox           |
|  \\    /   O peration     | Version:  v2012                                 |
|   \\  /    A nd           | Website:  www.openfoam.com                      |
|    \\/     M anipulation  |                                                 |
\*---------------------------------------------------------------------------*/
FoamFile
{
    version     2.0;
    format      ascii;
    class       volVectorField;
    location    "400";
    object      U;
}
// * * * * * * * * * * * * * * * * * * * * * * * * * * * * * * * * * * * * * //

dimensions      [0 1 -1 0 0 0 0];


internalField   nonuniform List<vector> 
27802
(
(1.05155 0.0565811 7.28802e-22)
(1.00509 0.000109659 0)
(1.01561 0.00933946 2.80395e-23)
(1.01512 0.000696122 -1.90647e-21)
(0.840675 0.0560905 1.43549e-21)
(1.01742 0.00912632 0)
(1.01459 0.00877108 0)
(1.0189 0.0109171 -4.58289e-22)
(1.0343 0.0387779 8.83939e-22)
(1.0406 0.00901504 4.48691e-21)
(1.00811 0.000656447 -4.1857e-22)
(0.657735 0.0394158 6.38897e-21)
(0.427568 0.0259712 0)
(1.03612 0.0492013 6.39611e-21)
(1.0176 0.00321123 2.59215e-21)
(1.01439 0.00855876 0)
(1.00691 -0.000255123 -4.9063e-24)
(0.71148 0.041434 1.1833e-20)
(0.771812 0.0632498 3.56884e-21)
(1.03577 0.0370552 -6.5568e-23)
(1.00532 0.000142291 0)
(1.01419 0.000988808 -1.34472e-21)
(1.05148 0.057771 -7.08712e-21)
(1.08492 0.0532821 5.05401e-21)
(1.00684 0.000532524 3.05371e-23)
(1.02869 0.0122309 8.74372e-22)
(1.01724 0.00846143 -7.94909e-22)
(1.04002 0.00890101 -8.9925e-21)
(1.00676 0.000494967 -3.04622e-23)
(0.979221 0.0984945 -3.36163e-22)
(1.02706 0.00632477 0)
(1.01891 0.00323238 -2.81067e-22)
(1.03724 0.0575275 1.84707e-20)
(1.01923 0.0336449 0)
(1.01816 0.05719 -2.14539e-20)
(1.01932 0.00206797 0)
(1.00325 -0.012027 0)
(0.919033 0.125516 7.10646e-22)
(1.02686 0.00647501 2.85524e-21)
(1.01785 0.00845127 9.41192e-22)
(1.03546 0.00253087 -4.8405e-21)
(1.01807 0.00855202 1.30286e-21)
(0.533002 0.00447812 -1.08155e-20)
(0.992178 -0.00268623 -6.04514e-22)
(1.01238 0.000255928 0)
(1.01711 0.0034537 3.34678e-21)
(1.08405 0.0687419 0)
(1.02773 0.00888772 5.2687e-21)
(1.01097 2.19692e-05 1.08459e-22)
(1.02907 0.0172029 3.90876e-22)
(1.04297 0.0237782 0)
(1.01246 0.000187093 -6.01676e-23)
(0.966432 0.0771097 0)
(1.00399 -1.38671e-05 5.24242e-23)
(1.01474 0.00653464 -6.66167e-22)
(1.01687 0.00870964 -3.00936e-22)
(0.373893 0.00560877 4.91631e-21)
(1.0365 0.0473274 1.87093e-21)
(1.01351 0.00143509 4.29398e-23)
(0.335939 0.00851253 5.1907e-21)
(1.01923 0.00191558 0)
(1.01357 0.0015458 -1.91801e-22)
(1.0079 0.0640476 1.21929e-22)
(1.01437 0.00623124 8.93649e-24)
(0.726288 0.0447856 -1.09907e-20)
(1.07712 0.0532702 6.36093e-21)
(0.488175 0.0165327 0)
(1.01829 0.0114021 -3.06168e-22)
(0.744304 0.0546374 0)
(1.01605 0.00283253 -3.20858e-22)
(1.01248 0.0017382 0)
(1.08367 0.0551722 -9.04288e-21)
(0.69135 -0.0560333 -4.5002e-22)
(1.08319 0.0552201 0)
(0.947511 0.0174845 2.99565e-22)
(1.04894 0.0226044 2.2181e-21)
(0.906256 0.12317 0)
(0.473232 0.01405 0)
(1.02842 0.0160476 0)
(1.01442 0.00806793 4.98114e-22)
(0.531867 0.00652247 -8.03355e-21)
(1.02381 -0.0268997 -2.09178e-21)
(1.01104 5.83092e-05 0)
(1.03612 0.0464738 -3.64805e-21)
(1.01293 0.0023396 0)
(1.0362 0.0197331 5.18176e-21)
(1.00647 0.000365063 2.2847e-23)
(1.01475 0.00650024 0)
(1.08354 0.0552462 0)
(1.08252 0.0914588 1.05771e-20)
(0.836965 0.0497517 1.40091e-22)
(1.01341 0.00118969 2.47465e-22)
(1.03094 0.0501464 1.7234e-22)
(1.01427 0.00781973 -5.05293e-22)
(1.00444 -3.1379e-06 3.41877e-23)
(1.02831 0.00830461 -4.88784e-21)
(1.06741 0.0201776 -8.24707e-21)
(0.825424 0.0554647 -1.03385e-20)
(1.03551 0.00213493 0)
(1.08298 0.068646 0)
(1.02852 -0.0255165 0)
(1.0357 0.0039784 8.55025e-21)
(1.03928 0.0181813 0)
(1.01682 0.000175618 0)
(1.08107 0.0905296 0)
(1.01339 0.00103699 -3.72041e-22)
(0.998436 -0.00906522 0)
(1.03378 0.0388788 -1.23728e-21)
(1.0204 0.0038202 0)
(1.06502 0.0364044 2.78017e-21)
(1.01678 0.0112581 2.13064e-22)
(1.01735 0.00310627 -3.75653e-21)
(1.03571 0.00435266 -6.434e-21)
(1.0337 0.0530384 -3.3468e-23)
(1.00769 0.000551694 6.61849e-23)
(1.0195 0.0350966 -1.28443e-22)
(1.03307 0.0269006 -1.05018e-21)
(1.00962 0.000985668 5.50959e-22)
(1.06207 0.0165698 0)
(1.0356 0.0370096 0)
(0.4816 0.0307457 1.77992e-22)
(0.817692 0.0494621 -5.77688e-22)
(1.07661 0.0299698 -1.8094e-20)
(1.00647 0.000362417 -3.60653e-23)
(1.0223 0.00726519 2.12323e-21)
(1.02318 -0.00597275 1.3562e-22)
(1.03859 0.0994009 -9.94599e-21)
(1.03807 0.0335234 -1.16091e-22)
(0.501964 0.0291974 -6.85721e-21)
(0.47431 0.0293174 -7.33333e-22)
(1.03894 0.018408 -4.37811e-21)
(1.07583 0.0299073 1.53011e-20)
(1.01436 -0.00121405 2.70947e-24)
(1.03828 0.00885083 0)
(1.01114 2.77447e-05 1.12937e-22)
(1.01791 0.0108503 4.14025e-22)
(1.016 0.00917059 -1.3317e-22)
(1.01162 5.78966e-05 -1.63921e-22)
(1.01472 0.0398275 0)
(1.04043 0.0582168 0)
(1.01842 0.0114179 3.6921e-22)
(1.01729 0.00864203 1.25501e-21)
(1.02366 -0.00484708 9.66601e-24)
(1.00736 0.000472839 0)
(1.00773 0.000538065 0)
(1.03034 0.0172148 -2.22425e-21)
(1.01585 0.00902678 1.95852e-22)
(1.02407 0.0154544 6.05176e-22)
(1.01256 0.000316563 1.19002e-22)
(1.01451 -0.00111736 0)
(1.00817 0.00065196 4.97782e-22)
(1.02734 0.00881376 -1.93085e-21)
(1.0512 0.0141576 2.28182e-21)
(1.01831 0.0115076 2.79969e-22)
(1.03544 0.037018 -1.45992e-21)
(1.01315 0.00485184 1.44495e-22)
(1.02985 0.0345902 2.49057e-22)
(1.085 0.0569634 0)
(1.06525 0.0359343 0)
(1.06422 0.0746652 -5.64751e-21)
(1.03585 0.0972582 1.64388e-21)
(1.08337 0.0553271 0)
(1.03577 0.0195522 -3.72224e-21)
(1.06132 0.0165236 3.00751e-21)
(1.0068 -0.000239704 1.33435e-24)
(1.009 0.000115721 -1.6005e-22)
(1.00948 0.000915343 -2.65151e-22)
(1.01691 0.00888377 2.80662e-22)
(1.02585 0.00171187 -2.67558e-21)
(1.03598 0.0369267 1.18105e-21)
(1.01763 0.00020696 -5.76346e-22)
(1.03259 0.0266177 3.9462e-22)
(1.01295 0.00401179 -2.76298e-24)
(0.921203 -0.000633569 5.45776e-23)
(1.02696 0.0069882 -8.07128e-22)
(0.772078 0.047037 2.94836e-21)
(1.00887 0.000106819 1.08708e-22)
(1.05769 0.026645 -4.1004e-21)
(1.0123 0.000137507 0)
(0.999143 -0.0120275 0)
(1.0853 0.0531843 6.14608e-21)
(1.03489 0.0333997 1.8269e-21)
(1.04563 0.0328559 1.26066e-21)
(1.03018 0.0169278 -5.82809e-22)
(1.01294 0.00397528 0)
(1.05732 0.0513375 0)
(1.01307 0.0047714 0)
(1.00186 -3.00255e-05 0)
(1.04399 0.0883579 0)
(1.03826 0.120768 -5.28766e-21)
(1.00636 0.000297281 3.93838e-23)
(1.02233 0.0189325 1.90541e-22)
(1.05444 0.0559471 0)
(1.04327 0.0125429 -2.70762e-21)
(1.00907 -0.000117329 0)
(1.01782 0.00851286 -1.45894e-21)
(1.00908 -0.000121285 1.40509e-24)
(1.01205 0.000151206 0)
(1.01882 0.00561701 -1.38883e-21)
(1.01711 0.00855835 -1.91319e-21)
(0.709158 0.0534451 2.55088e-21)
(0.962516 0.0951435 -1.10811e-21)
(0.984089 0.00136659 -1.43682e-21)
(1.03702 0.0251124 2.74975e-21)
(1.02041 0.00413608 1.60135e-21)
(1.07471 0.0306045 8.26617e-21)
(1.05068 0.0136491 -1.90895e-21)
(1.09152 0.084258 6.08962e-21)
(1.01251 -0.000906237 0)
(0.346818 0.0103531 -1.53307e-20)
(1.01922 0.00113862 3.47129e-21)
(1.01624 0.118514 1.31593e-21)
(0.801259 0.0487994 2.44179e-21)
(1.05706 0.0265956 3.46008e-21)
(1.04528 0.0903104 -3.85146e-21)
(1.01576 0.00594216 -7.40031e-22)
(1.01722 0.0416297 1.60791e-22)
(1.01429 0.00736281 1.60842e-22)
(1.02862 0.00872647 1.783e-21)
(1.01278 0.00377831 3.91369e-23)
(0.51415 0.0303845 5.97788e-21)
(1.00834 -0.000509561 0)
(1.05658 0.0508846 -9.02675e-23)
(1.02082 0.0709718 -1.35748e-21)
(1.0129 0.00386128 -3.96555e-23)
(1.01147 4.31696e-05 2.71393e-22)
(1.0112 6.87998e-05 -5.52949e-23)
(1.02201 0.0186777 -1.73917e-22)
(1.01722 0.00360791 0)
(1.03617 0.00348863 -5.43817e-21)
(1.00805 -0.000468727 -2.6415e-23)
(0.323964 0.00669304 -7.19894e-21)
(1.02853 0.00812334 3.79224e-23)
(1.05601 0.0333364 -9.65382e-21)
(0.832944 0.0842353 0)
(1.04008 0.05944 1.94546e-21)
(1.00972 0.00067234 0)
(1.09389 0.0833498 -1.24478e-20)
(1.02539 0.0567816 -4.91415e-21)
(1.01588 0.00239124 0)
(1.01444 0.00664943 2.89087e-22)
(0.951619 -0.0243049 -2.74914e-22)
(0.927163 -0.0283185 0)
(1.01793 0.000750466 6.39634e-22)
(1.01184 0.000469718 -8.87248e-22)
(1.04552 0.0563398 0)
(1.0119 0.000119753 0)
(1.01276 0.0342467 -1.59305e-22)
(1.01436 0.00717219 2.86841e-23)
(1.01548 0.00904307 -7.4898e-23)
(0.991508 0.0749054 0)
(1.04926 0.0346662 3.61152e-21)
(1.04871 0.0557884 5.28863e-21)
(1.01447 0.0066872 0)
(1.01332 0.000373957 1.81865e-21)
(1.00947 -0.000132844 -1.27581e-22)
(1.01277 0.00238659 6.42303e-23)
(1.03379 -0.0323259 1.14938e-21)
(1.03664 0.025189 -2.26809e-21)
(1.00925 -0.000132784 -3.89753e-22)
(1.04872 0.0347699 -3.55298e-21)
(1.03347 0.00424397 0)
(0.536088 0.0264507 1.56197e-20)
(1.01235 -0.000908729 3.6262e-24)
(0.698044 0.046902 -5.48586e-21)
(1.05865 0.0260443 1.50258e-20)
(0.684859 0.0519266 0)
(1.03622 0.00387191 1.54386e-21)
(1.00841 -0.00051854 0)
(1.02717 0.00685219 9.48201e-22)
(1.08504 0.057252 2.24708e-21)
(1.01463 0.00323885 0)
(1.03938 0.0570367 0)
(1.05822 -0.0337606 -8.45779e-22)
(1.04274 0.0123608 8.02469e-21)
(1.08477 0.0565073 -1.588e-20)
(1.02392 0.0145722 0)
(1.0634 0.0367316 1.12499e-20)
(1.05794 0.0259422 -1.07962e-20)
(1.01268 0.0022992 0)
(1.02649 0.116779 0)
(1.05771 0.0331084 -4.25821e-21)
(1.01981 0.0138663 0)
(0.998422 0.00334349 0)
(1.05909 0.100737 -5.99189e-21)
(0.943352 0.0453647 3.54515e-21)
(1.04113 -0.0299624 -9.64485e-22)
(1.0287 0.0107972 -4.49736e-23)
(1.04196 0.0250879 4.68437e-21)
(1.00263 -3.10853e-05 3.19211e-23)
(1.00957 -0.00066078 0)
(1.01941 0.0302853 6.83545e-22)
(1.00995 -0.000146207 2.09151e-22)
(0.928063 0.0220486 2.08646e-21)
(1.00997 -0.000152454 0)
(1.01977 0.0232913 -3.24415e-22)
(1.01844 0.0365669 1.6895e-22)
(1.01301 0.00244326 6.33253e-23)
(0.360682 0.0133301 0)
(0.968014 -0.0229911 -2.9587e-22)
(1.07771 0.0532017 0)
(1.03042 0.0163867 0)
(1.01852 0.00752039 -1.5344e-22)
(1.06302 0.0739724 7.28773e-21)
(0.846334 0.0937956 -3.04562e-21)
(1.01544 0.0414044 1.45082e-23)
(1.03295 0.00417305 1.19352e-21)
(0.713546 0.0470572 -1.27844e-21)
(1.01753 0.0235075 0)
(1.02385 0.0148114 0)
(1.03629 0.0307794 0)
(1.05508 0.0509969 1.22686e-20)
(1.07081 0.0527667 -3.48254e-22)
(1.03882 0.00895798 0)
(1.01444 0.0163856 5.05439e-22)
(1.01909 0.00113718 -1.39499e-21)
(1.03662 0.0311284 -8.81838e-22)
(1.05062 0.0559562 0)
(1.06643 0.0353657 -1.42428e-21)
(1.03547 0.0499743 2.52515e-21)
(1.01771 0.00065074 5.99796e-22)
(1.02057 0.00400394 -1.82752e-21)
(1.00639 -0.000181226 -1.012e-23)
(1.01338 -0.000409199 -2.33158e-22)
(0.98651 -0.00804567 0)
(1.01477 -0.00111103 0)
(0.543641 0.0275446 -1.51269e-20)
(1.01508 -0.00133402 -9.35384e-23)
(1.02056 0.00432528 1.80935e-21)
(1.05349 0.0322516 3.70566e-21)
(1.01514 0.0081959 5.20964e-24)
(0.927597 0.0899729 -1.60426e-20)
(0.954917 -0.0121325 0)
(1.04376 0.0207093 -1.74409e-22)
(1.01925 0.0688219 -9.18735e-22)
(0.941313 0.00398185 0)
(1.07065 0.053253 2.71562e-21)
(1.01221 0.00364543 0)
(1.08453 0.0464587 -1.81275e-20)
(1.01429 0.00299041 0)
(1.00679 -0.000244754 -3.90852e-23)
(0.718525 0.0434405 7.20416e-21)
(0.398853 0.107078 0)
(1.03109 0.0171565 -4.32115e-22)
(1.08091 0.0582997 0)
(1.05008 0.0923307 0)
(1.08368 0.0709425 -1.0541e-20)
(0.994249 -0.0625277 -7.90236e-23)
(1.01431 0.00677541 -2.97825e-23)
(1.08106 0.100106 -4.77807e-21)
(1.01135 -0.000194508 2.1049e-22)
(0.778053 0.0495968 5.24053e-21)
(1.02249 0.00748399 0)
(1.02671 0.0145414 5.74561e-21)
(1.01676 0.00938029 3.46135e-22)
(1.01571 0.00898522 -3.98299e-23)
(1.00362 0.0420979 -1.06173e-22)
(1.08235 0.0976697 0)
(1.0056 0.000193495 1.1867e-23)
(1.01337 -0.000462392 1.26457e-22)
(1.00638 0.0166702 9.31572e-22)
(0.996667 0.0897284 6.79639e-23)
(1.01353 -0.000531583 0)
(1.04224 0.0376109 7.20044e-21)
(1.00882 -0.000113017 0)
(1.00992 0.000654943 0)
(1.0012 -0.0568404 4.35268e-24)
(1.02851 0.0104869 0)
(1.05707 0.0329015 0)
(1.01456 0.00631691 -8.26651e-22)
(1.01206 0.0035369 1.99274e-23)
(1.08402 0.072123 9.11868e-21)
(1.03345 0.0351955 3.3966e-22)
(1.08234 0.0541839 -1.17738e-20)
(0.902351 0.109464 -3.8567e-22)
(0.693591 0.0517907 -6.5324e-22)
(1.03317 0.0354648 0)
(1.01654 0.0109755 -2.02465e-22)
(1.03216 0.0299913 -7.87628e-22)
(1.01737 0.0026621 -1.21382e-21)
(1.00148 -2.38991e-05 0)
(1.00884 -0.000103565 0)
(1.01667 0.00922 4.52499e-22)
(1.01455 -0.000308316 2.54343e-22)
(1.00328 -2.07806e-05 8.18753e-24)
(1.01182 0.000856193 5.03304e-22)
(1.08689 0.069102 6.599e-21)
(1.01736 0.00288048 0)
(1.00567 0.0139667 -3.79649e-22)
(1.02333 0.0281073 8.19811e-22)
(1.01268 0.0013955 3.61883e-22)
(1.01484 0.00716957 1.04539e-22)
(1.01764 0.0228085 0)
(1.06614 0.035913 0)
(1.01806 0.00537825 0)
(0.908444 0.0868021 1.64547e-20)
(1.03804 0.0945321 6.14981e-22)
(1.08484 0.0459666 1.36856e-20)
(1.0018 -3.6642e-05 7.34737e-23)
(1.05551 0.0564075 -2.84745e-21)
(0.708697 0.0425581 -1.06804e-20)
(1.06417 0.0369416 -1.08305e-20)
(1.01249 0.00135665 -2.10437e-22)
(1.03478 0.0389716 -4.7071e-22)
(1.0262 0.00167434 4.42058e-21)
(0.99497 -0.0718527 0)
(1.03475 0.0330926 -1.97824e-21)
(1.07754 0.0832418 -4.28165e-21)
(0.938914 0.0383991 -3.09161e-21)
(1.03797 0.0345777 0)
(0.362191 0.0104766 -2.60239e-22)
(1.00892 0.000453669 -5.29643e-22)
(0.467578 0.0299778 0)
(0.506773 0.0276078 6.81469e-21)
(0.907204 0.101251 0)
(1.0284 0.00887137 1.91944e-21)
(1.01357 -0.000486901 1.21182e-22)
(1.05379 0.0328984 0)
(1.00739 0.000464521 6.9838e-23)
(1.00306 -0.070165 4.82073e-22)
(0.53723 0.00561415 7.6376e-21)
(1.01438 0.00655751 0)
(1.01776 0.00240545 -4.32357e-22)
(1.02898 0.0121139 -1.04113e-21)
(1.02501 0.0407492 2.53841e-23)
(1.01843 0.011515 3.68442e-22)
(1.0146 0.00581776 5.07509e-22)
(0.541609 0.032289 -3.37804e-21)
(0.995397 -0.00120328 6.28557e-22)
(1.04265 0.0233548 -6.40974e-21)
(1.01411 0.00284752 0)
(1.0353 0.032691 0)
(0.900058 0.102048 0)
(1.01624 0.00593761 0)
(1.0005 -4.45531e-06 9.91703e-23)
(1.0188 0.00612472 0)
(1.07281 0.056741 -7.18842e-21)
(1.06967 -0.000292209 -2.93252e-22)
(1.07231 0.0117244 1.38207e-22)
(1.04526 0.0331753 0)
(1.05749 0.0467879 -1.39442e-21)
(1.0196 0.00306805 -2.35035e-22)
(1.00347 -3.32318e-05 -1.50541e-24)
(1.00936 0.000752226 6.47886e-22)
(1.05247 0.0583455 0)
(1.01857 0.000946592 1.55811e-21)
(1.00784 0.000802887 0)
(1.01423 0.00528664 -5.24943e-22)
(1.07191 0.0521257 2.07366e-21)
(1.03616 0.0368314 0)
(0.667203 0.0865003 -2.1318e-21)
(0.935224 0.0660318 1.01492e-20)
(1.00616 0.0324539 0)
(0.533194 0.0090382 1.64103e-22)
(1.01028 -0.000167502 5.0636e-25)
(1.05641 0.0406456 2.34487e-21)
(1.05575 0.0325523 1.7606e-20)
(0.990639 -0.010431 3.10648e-22)
(0.890968 0.109709 4.83113e-22)
(1.01441 0.00621493 9.20565e-22)
(1.00346 -0.00249477 1.4775e-21)
(1.0345 0.0123135 3.25761e-24)
(1.03243 0.0385589 -1.08305e-22)
(1.02803 0.0426112 0)
(1.00672 -0.000219974 2.64224e-24)
(1.05004 0.0155164 1.98066e-21)
(1.04278 0.0284242 5.31684e-23)
(1.01845 0.000953404 0)
(0.994927 -0.00757008 2.90728e-22)
(1.00777 0.000775997 0)
(1.03833 0.0287787 0)
(1.00911 0.000673496 -5.96011e-22)
(1.01702 0.00932083 0)
(1.06615 0.0789204 8.76026e-21)
(0.999223 -0.0226363 0)
(1.00242 0.0985094 -5.0956e-23)
(1.01395 -0.000963597 -1.81794e-22)
(0.402996 0.00598509 1.65868e-20)
(1.00669 -0.000226679 -1.02203e-23)
(1.03747 0.0245293 -2.51659e-21)
(1.08146 0.0536404 9.66536e-21)
(1.03702 0.0245441 -4.68869e-21)
(1.02141 0.0186977 0)
(1.04958 0.0565117 0)
(1.07164 0.0526085 4.0051e-22)
(0.97066 0.0332766 4.47621e-22)
(1.01972 0.0139092 -8.09882e-22)
(1.03509 0.0124804 0)
(1.08183 0.053695 -1.40669e-20)
(1.01584 0.00609919 0)
(1.02056 0.00465979 2.398e-21)
(0.984535 -0.0230165 0)
(1.0174 0.00852543 8.85214e-22)
(0.678282 0.0459211 1.12792e-20)
(1.01377 -0.000604372 1.36304e-23)
(0.708361 0.0431037 -1.22293e-20)
(0.97807 -0.0115239 2.6688e-22)
(0.983786 -0.015393 0)
(1.01633 0.00610837 -2.58861e-23)
(1.02246 0.0358074 2.57595e-22)
(0.518012 0.0281668 2.32025e-22)
(1.06762 0.0347784 0)
(1.0235 0.110327 4.82148e-22)
(1.06463 0.0757426 -4.67524e-21)
(0.979736 -0.00386613 2.74786e-22)
(1.08538 0.0564031 1.74693e-20)
(1.00574 0.000309198 -1.01686e-21)
(1.03492 0.0326669 -1.98273e-21)
(1.06988 0.0539194 -1.05994e-20)
(1.02644 0.014194 -3.23437e-21)
(1.01725 0.00904818 0)
(0.922658 0.0306835 1.98978e-21)
(1.03467 0.0357055 2.25282e-22)
(1.01095 0.00275898 1.09058e-21)
(1.00592 0.000215266 0)
(1.07577 0.0837734 1.96875e-21)
(0.952431 0.00844274 0)
(1.01269 0.0393545 0)
(1.00216 -4.66093e-05 3.76149e-23)
(1.03636 0.0367478 0)
(1.04993 0.0158443 0)
(0.83697 0.0487507 8.12841e-22)
(1.01874 0.0107151 0)
(1.01188 -0.00145592 -3.65749e-22)
(1.04074 0.0214121 2.15023e-22)
(1.0148 0.00324821 -4.59793e-24)
(1.00967 -0.000143171 1.16125e-23)
(1.02703 0.0145594 0)
(0.986815 0.0923803 -5.04188e-22)
(0.716483 0.043585 0)
(1.03564 0.037065 0)
(0.686292 -0.0747651 -4.05976e-21)
(1.01329 -0.000228364 0)
(1.01804 0.010705 -5.61686e-24)
(0.73517 0.0447314 0)
(1.01769 0.00341097 0)
(1.04142 0.0395588 0)
(1.01632 0.00575386 0)
(1.00967 -0.000140914 3.49674e-22)
(1.01204 0.00837091 0)
(1.07119 0.104908 0)
(1.00274 -6.63734e-05 -8.11271e-24)
(1.01525 0.00845762 0)
(1.01347 -0.000179627 -5.50572e-23)
(1.06914 0.0537594 1.38923e-20)
(1.00277 -3.24184e-05 1.61323e-22)
(1.05066 0.0289762 -6.18554e-21)
(1.04448 0.119921 1.21163e-20)
(1.0567 0.0464555 0)
(1.06677 0.0552329 -4.66982e-21)
(0.670423 0.0613129 0)
(1.07467 0.05697 8.24387e-23)
(0.989347 0.100668 3.07084e-22)
(0.98085 0.1071 2.95793e-21)
(1.02383 0.000547619 6.02059e-21)
(0.70366 0.0432363 3.10349e-21)
(1.03485 0.0126881 -1.97563e-21)
(1.01831 0.0374599 0)
(1.01545 0.00173094 9.78998e-24)
(1.0142 0.000945854 1.63591e-21)
(1.02431 0.00133507 -3.00917e-21)
(0.943294 0.0149449 0)
(1.01785 0.00885018 -6.67141e-24)
(1.01642 0.00594296 0)
(1.00651 0.000381184 2.95266e-23)
(0.962156 -0.0494648 1.85533e-22)
(1.00924 0.000437822 -6.07243e-22)
(1.03053 0.0167324 0)
(1.02476 0.055963 0)
(1.08627 0.0700074 1.42545e-21)
(1.0864 0.058408 4.26415e-21)
(0.518575 0.0370694 0)
(0.763808 0.0587635 9.03084e-21)
(1.06734 0.0353593 0)
(1.08462 0.0539043 0)
(1.05933 0.0254649 -1.1545e-20)
(0.705626 0.0520778 0)
(1.02842 0.00940399 0)
(1.05586 0.0514789 -6.72545e-21)
(0.958928 -0.0388033 0)
(1.04661 0.0858663 4.37655e-21)
(1.02854 0.0592386 6.31659e-22)
(1.01121 0.0151406 -3.12188e-22)
(1.04211 0.0127783 4.932e-21)
(0.553853 0.0121127 0)
(1.07938 0.0368598 -1.08086e-20)
(1.01105 -0.000172456 -1.06251e-22)
(0.555092 0.0116659 0)
(1.08028 0.0512394 2.04239e-20)
(1.06031 0.10266 0)
(1.0489 -0.0390349 7.37837e-22)
(1.07262 0.0573851 5.92238e-21)
(1.01101 -0.000154104 3.17429e-22)
(1.02042 0.0144306 0)
(1.07863 0.0368569 2.28074e-20)
(1.00411 3.84974e-05 0)
(1.01979 0.0253997 3.3763e-22)
(1.06072 0.0790973 1.14659e-20)
(1.01024 -0.000157403 -1.11706e-22)
(1.02113 0.0156636 0)
(1.00968 0.00104183 7.41096e-23)
(1.07767 0.0737075 0)
(1.03169 0.00939662 0)
(1.04223 0.0125137 -8.33794e-21)
(0.842324 -0.171604 1.27269e-21)
(0.473105 0.0314564 1.7371e-21)
(1.04542 0.0227409 6.26738e-21)
(1.05943 0.0250174 8.02794e-21)
(1.02289 0.0068512 -1.15271e-21)
(0.784592 0.0505361 0)
(1.00327 0.124833 -2.98442e-24)
(0.971969 0.0676029 4.30263e-22)
(1.02605 0.0337681 -2.62467e-22)
(1.03453 0.0374598 -3.43475e-21)
(0.991101 -0.0247469 0)
(1.01806 0.00491591 -1.41718e-21)
(1.046 0.0840262 0)
(1.02123 0.015477 7.20163e-22)
(0.64859 0.0430963 0)
(0.66753 0.0401395 -6.34802e-21)
(1.00949 0.00103352 1.37448e-22)
(1.01138 0.0247971 0)
(0.971047 0.0967015 -2.86304e-21)
(1.08405 0.0841909 -5.5129e-21)
(0.999918 -3.6593e-05 -1.09886e-22)
(0.489545 0.104815 -2.03721e-21)
(1.04466 0.032932 -1.142e-21)
(0.792006 0.136534 -5.03547e-22)
(1.01146 0.0165289 0)
(1.02029 0.0141024 4.59533e-22)
(1.00582 0.0977939 -5.9971e-22)
(0.674984 0.135925 -2.17459e-22)
(1.08046 0.050924 -1.48444e-20)
(1.0193 0.0062889 -6.78288e-22)
(1.05644 0.0426788 5.21449e-21)
(1.0332 0.0272351 0)
(1.05185 0.0457384 -4.84318e-21)
(1.01515 0.000626589 2.94554e-21)
(1.0519 0.0554647 0)
(1.01941 0.0062115 -1.54052e-21)
(1.02401 0.00137461 2.83958e-21)
(1.05862 0.0180573 0)
(1.03099 -0.0093107 6.69288e-23)
(0.7992 0.0543303 9.65432e-21)
(1.08133 0.0581427 -5.34594e-21)
(1.04342 0.0220844 0)
(0.579907 0.106248 3.98131e-21)
(1.04229 0.0371021 -5.47826e-21)
(0.568273 0.0255845 0)
(1.01893 0.00586868 2.39607e-21)
(1.02777 -0.00801348 -2.24998e-22)
(1.06806 0.0544863 0)
(1.0666 0.0645381 2.7939e-21)
(0.765684 0.0748215 0)
(1.01728 0.00765602 5.54258e-22)
(1.00686 0.0583475 7.04565e-23)
(1.01299 0.000539869 -9.05673e-22)
(1.00952 9.33358e-05 -2.24577e-22)
(1.01803 -0.00119627 -8.03781e-23)
(1.02801 0.00926717 0)
(1.01805 0.00978655 -7.8805e-22)
(1.01502 0.0214261 -1.78398e-23)
(1.08618 0.0588197 -1.29752e-22)
(1.06426 0.00686407 -1.35418e-22)
(1.00095 -2.1458e-05 9.55662e-23)
(1.03582 0.0371039 0)
(1.02903 0.0208098 2.34317e-21)
(1.04914 0.02312 8.52859e-23)
(1.04869 0.0163384 2.37062e-22)
(1.0093 9.982e-05 2.1619e-22)
(1.01807 0.0110871 -3.44344e-22)
(0.987429 -0.00206601 1.482e-21)
(1.04961 0.00365478 -1.13191e-21)
(1.04151 0.0250118 -2.34815e-21)
(1.0124 0.00133861 0)
(1.00336 0.000112774 0)
(1.00126 -9.11473e-06 -5.41819e-23)
(1.02404 0.0282798 4.91362e-22)
(1.01772 -0.000906666 0)
(0.972466 0.0485138 -1.67509e-22)
(1.0163 -0.013157 0)
(1.02173 0.0189884 0)
(1.05846 0.0606888 0)
(1.03513 0.0391853 1.12384e-21)
(0.686448 0.0660865 -1.05969e-20)
(0.563951 0.024146 0)
(1.03997 0.0557717 3.47551e-21)
(1.00829 0.000543673 -2.11526e-22)
(1.03518 -0.020502 -1.64981e-22)
(1.002 -3.44673e-05 0)
(1.04414 0.0173425 -1.15016e-22)
(1.01585 0.0091408 -1.84752e-22)
(1.03414 0.0962715 1.80556e-21)
(1.05658 0.0456251 5.2939e-21)
(0.54955 0.0337204 5.68948e-21)
(1.01131 -0.000172635 1.13997e-22)
(1.01322 0.00251771 0)
(1.07671 0.0728525 -9.31537e-23)
(1.01011 0.00048046 0)
(1.00651 0.000378642 0)
(1.01666 0.00730468 -6.29025e-22)
(1.06098 0.0681291 -2.93584e-21)
(1.01652 0.0057642 4.69396e-24)
(1.02738 0.0481661 -3.60499e-22)
(1.02415 0.000646723 0)
(0.979233 0.0701536 -1.27443e-22)
(1.01495 0.000663752 2.35742e-22)
(1.03267 0.0260411 -4.10941e-22)
(1.07402 0.0571461 4.39354e-23)
(1.04433 0.0331375 -1.37468e-21)
(1.01916 0.0124493 -3.60698e-22)
(1.08662 0.055126 -1.31292e-21)
(1.0352 0.0386293 9.77587e-22)
(1.07546 0.0306699 0)
(1.03361 0.0505927 3.83912e-21)
(1.01583 0.00328362 3.57537e-22)
(0.763761 0.0531676 0)
(0.663841 0.0724541 0)
(1.06162 0.0808183 6.18808e-21)
(1.04043 0.0370567 -9.55687e-22)
(0.610798 0.150096 -1.2203e-21)
(1.00794 0.000581753 2.45689e-22)
(1.02513 0.0196545 1.33303e-21)
(1.04829 0.0224071 0)
(1.05448 0.0552159 0)
(1.03636 0.0390647 9.61906e-22)
(1.0381 0.0234869 2.89442e-21)
(1.0166 0.00265706 0)
(1.04449 0.0166931 -2.24143e-22)
(0.852944 0.0520525 0)
(0.764582 0.130982 1.79434e-21)
(0.826943 0.0504421 0)
(1.05262 0.0304102 1.30834e-20)
(1.03405 0.0498369 -4.47738e-21)
(0.452369 0.10621 1.76574e-21)
(1.04201 0.00905958 1.436e-21)
(1.00398 -0.0219009 5.0947e-22)
(0.657151 -0.0824252 0)
(1.02551 -0.0173483 -2.77262e-22)
(1.00989 -7.37241e-05 1.23502e-22)
(1.03217 0.0391868 4.23069e-22)
(1.00217 -2.41969e-05 -7.50517e-23)
(1.08789 0.0639083 -9.07791e-22)
(1.00655 -0.000197767 7.51594e-24)
(1.03627 0.0397059 8.19712e-22)
(0.673548 0.0408115 -1.19912e-20)
(1.01497 0.000656319 0)
(1.01497 0.00736561 -1.08681e-22)
(1.03033 0.101846 -1.48566e-21)
(0.564624 0.0361787 -4.56348e-21)
(1.07232 0.0321094 1.82816e-21)
(1.01488 0.0146766 -7.80672e-22)
(1.00967 -7.41567e-05 -2.32049e-22)
(1.03801 0.0231177 0)
(1.02931 0.0283732 0)
(1.05259 0.0525944 7.53382e-22)
(1.04522 0.0417652 -2.69895e-21)
(0.887149 0.019089 0)
(1.03583 0.0380408 -5.86417e-22)
(1.0153 0.00885371 1.37924e-22)
(1.02916 0.0205107 -1.31019e-21)
(1.0348 0.0432338 0)
(0.975437 0.00151646 -2.66045e-22)
(0.719912 -0.0434193 2.08068e-21)
(1.01398 -0.00048932 0)
(1.06605 0.0576203 8.35887e-21)
(0.574292 0.0262809 0)
(1.01847 0.0029105 1.40654e-22)
(1.02753 0.0161568 -3.83195e-21)
(1.01159 0.00189228 0)
(1.00023 -3.79075e-06 0)
(0.435495 0.0267665 0)
(1.01146 0.00190398 0)
(1.01936 0.0123556 -3.26537e-22)
(1.01081 0.00046897 -7.15668e-22)
(0.744653 0.109243 -3.61917e-21)
(0.450529 0.0106016 0)
(1.01356 0.000832129 1.48277e-21)
(1.01738 0.0089639 7.33411e-22)
(1.03868 0.0272073 -2.21913e-22)
(0.655309 -0.0577006 2.06221e-21)
(1.00698 -0.000277865 2.32391e-24)
(1.03892 0.0269993 -8.78516e-22)
(1.01234 0.0375707 0)
(1.01382 0.00723234 4.27069e-23)
(1.00859 0.000644031 -2.2836e-22)
(0.62198 0.145066 1.33096e-20)
(1.03228 0.0256721 -1.55303e-21)
(0.960187 -0.0181034 5.96172e-22)
(0.999763 -8.25885e-06 -1.94949e-22)
(1.03657 0.00336511 6.97041e-21)
(1.05407 0.0282772 0)
(1.01458 0.0120567 0)
(0.537194 0.108378 -1.85103e-21)
(1.03379 0.0289454 -2.8467e-21)
(0.634716 0.0355213 0)
(1.04383 0.0930141 3.92212e-21)
(1.07357 0.0327949 0)
(1.0412 0.0938193 -3.53157e-21)
(0.863039 -0.181 0)
(1.01248 0.0246646 -1.82908e-22)
(1.01491 0.0117493 0)
(1.01439 0.0141705 -4.83888e-24)
(1.00965 0.00206924 -5.32394e-23)
(1.01787 0.00727328 4.08382e-23)
(1.07651 0.0486339 0)
(1.05374 0.0276048 -6.69814e-21)
(1.05933 0.0599865 0)
(1.08756 0.0831874 1.6956e-20)
(0.905086 0.0605266 -1.13718e-23)
(1.01161 0.000289317 -3.0028e-23)
(0.740603 -0.00356624 0)
(0.987042 0.0719167 -1.12545e-21)
(0.997314 0.0537317 1.27465e-22)
(1.04306 -0.0266428 1.47412e-23)
(1.02065 0.0642446 -2.04616e-21)
(1.0403 0.0263018 -1.74531e-21)
(0.891887 0.00122363 1.77285e-23)
(0.999777 -0.013384 1.06456e-21)
(1.00815 0.000128103 -5.42761e-23)
(1.00329 -4.02435e-05 2.42732e-24)
(1.0061 0.0002694 0)
(1.02306 0.00711125 -1.1865e-21)
(0.922465 0.156615 1.29663e-21)
(1.00978 0.00212167 -9.0964e-23)
(1.02974 0.0122613 4.38186e-21)
(0.775545 0.0513168 0)
(1.08065 0.0561533 9.0159e-21)
(0.70069 0.0456274 0)
(1.01753 0.0077211 -1.0452e-21)
(1.06868 0.0268533 0)
(1.04155 0.00915139 -3.478e-22)
(1.02021 0.0136388 2.57832e-22)
(1.03498 0.037962 1.82776e-21)
(1.01753 0.00840764 2.8053e-22)
(1.08338 0.0832197 0)
(1.05277 0.0200133 5.18478e-21)
(1.01967 0.0375525 0)
(1.01328 -0.000776645 -2.2252e-22)
(1.0134 -0.000828694 0)
(1.06416 0.0859172 3.68219e-21)
(1.05317 0.0205329 0)
(1.08152 0.0558877 -1.90192e-20)
(1.0158 0.00951609 1.57527e-23)
(1.00649 -0.00019573 0)
(0.937399 0.00555938 0)
(1.01204 0.00170311 5.75944e-22)
(1.01672 0.00355457 -1.10814e-21)
(0.519467 0.0363071 6.2053e-21)
(1.06183 0.0673824 7.77186e-23)
(1.06397 0.0564593 1.00331e-20)
(1.02255 -0.0101406 -6.06265e-22)
(1.00182 -1.04899e-05 5.14649e-23)
(1.00366 -4.73063e-05 0)
(1.01775 -0.00176592 -4.3784e-22)
(1.03434 0.0125996 1.62982e-21)
(0.990647 0.0389185 5.3472e-21)
(1.0781 0.0526543 9.50359e-21)
(1.07488 0.102423 5.9673e-21)
(1.01432 0.00501661 0)
(1.05589 0.0452741 -6.37458e-21)
(1.02196 0.026374 -3.02201e-22)
(1.01784 0.0104679 -2.99086e-22)
(1.02709 0.0260731 9.96597e-23)
(0.69552 0.0460288 0)
(1.03735 0.0308655 0)
(1.0098 0.000626129 -1.05157e-22)
(1.0288 0.0283862 0)
(1.01417 -0.000444878 -2.50992e-22)
(1.00833 0.00012828 2.72527e-22)
(1.03827 0.0552425 1.24493e-21)
(1.05263 0.0515634 -7.24256e-22)
(1.00275 -2.45233e-05 -1.58638e-22)
(1.01514 0.0074404 -3.89994e-24)
(1.0374 0.035531 -8.38842e-22)
(1.07929 0.0480786 0)
(1.06036 0.0242432 9.6686e-22)
(0.647293 0.0392908 0)
(1.04432 0.00933062 6.6273e-21)
(1.04884 0.0189982 0)
(1.08594 0.0548248 0)
(1.03188 0.00226182 0)
(1.02787 0.0163506 3.45018e-21)
(1.01965 0.011107 3.43855e-22)
(1.04514 0.0424459 -4.94211e-21)
(1.0688 0.0546135 -4.38989e-21)
(1.0254 0.0133655 -7.24431e-22)
(1.06312 0.0844651 -3.41652e-21)
(1.01515 0.00993151 1.26745e-22)
(0.525507 -0.0879197 0)
(1.02037 0.0139475 0)
(1.01667 0.00337979 -1.09205e-21)
(1.08605 0.0550901 -1.33166e-21)
(1.01236 0.00361855 0)
(1.01704 0.00879475 6.30874e-22)
(1.00982 0.00111288 0)
(1.00158 -2.049e-05 0)
(1.01732 0.00761557 1.4715e-21)
(0.517298 0.0300082 -1.26542e-20)
(1.03419 0.0128239 2.2199e-22)
(0.988061 0.0366632 -4.26279e-21)
(1.01251 0.00160147 0)
(1.01597 0.00742483 0)
(1.0135 -0.000293205 0)
(1.01446 -0.00129065 3.21142e-22)
(1.01427 -0.00127767 -1.07907e-22)
(1.02038 0.00447351 -7.95458e-22)
(1.03337 0.0289676 -1.76279e-21)
(0.85845 -0.176698 -3.35361e-22)
(1.00053 0.0017015 5.01766e-22)
(1.00251 -0.0131618 0)
(1.01208 0.00181744 0)
(1.00249 0.109509 -1.07558e-20)
(1.06882 0.0341921 -6.97588e-21)
(1.04074 0.0381073 -4.8107e-21)
(1.03747 0.0091149 0)
(1.0123 0.0017536 0)
(1.00801 0.000211795 -1.00019e-22)
(1.02255 0.0221057 2.58934e-22)
(1.01507 0.00734377 3.10646e-22)
(1.08614 0.084371 -5.62284e-21)
(1.01048 -0.000771395 2.31816e-24)
(1.01719 -0.00169043 3.5689e-22)
(1.02285 0.0218181 -1.29133e-21)
(0.371414 0.0117233 -5.25029e-22)
(1.01474 0.000516493 0)
(1.03756 0.0343359 -1.39892e-21)
(1.00801 0.000840307 8.5369e-23)
(1.00815 -0.000481057 2.817e-23)
(1.01472 0.0447727 0)
(0.931796 0.0404932 -1.71593e-22)
(0.822287 0.085735 0)
(1.00312 -1.42301e-05 2.17577e-23)
(1.00474 2.06711e-05 -4.00534e-23)
(1.07871 0.0480729 0)
(1.00592 0.000214368 -1.23659e-23)
(0.635568 0.13818 0)
(1.00626 0.0687554 0)
(1.07103 0.0410106 -4.80439e-21)
(0.624619 0.144768 0)
(1.00813 -0.000480045 0)
(1.01161 0.0434765 1.02308e-22)
(1.03804 0.00919879 0)
(1.06468 0.0447614 0)
(1.07168 0.0411411 0)
(0.951975 0.0151792 0)
(1.0115 0.000104306 0)
(1.07314 0.0320756 0)
(0.600025 0.150416 0)
(1.01487 0.000614601 -8.59056e-23)
(1.01514 0.0097314 -3.46188e-22)
(1.00414 0.000151614 1.00735e-21)
(0.957898 0.0768557 -8.31141e-23)
(1.01396 0.0430763 -2.3163e-23)
(1.07227 0.0396405 0)
(1.02203 0.0103422 5.43929e-23)
(1.01376 0.000455839 -3.54014e-22)
(1.03205 0.0300798 0)
(1.02402 0.0539279 -1.8425e-22)
(1.07918 0.0559075 8.71374e-21)
(1.0567 0.0335071 8.66797e-21)
(1.01982 0.0568765 0)
(1.01101 0.00286516 2.52088e-25)
(1.01711 -0.000107919 0)
(1.01346 0.000287342 -3.38083e-22)
(0.993346 0.0796044 1.61762e-22)
(1.00936 -2.44753e-05 0)
(1.01203 -0.000890566 0)
(1.01698 0.00917958 5.79772e-22)
(1.05276 0.0321601 6.94958e-21)
(1.03544 0.0436093 0)
(1.00809 0.000869326 -9.31208e-23)
(1.05083 0.0306777 0)
(1.00915 -2.24986e-05 -2.17021e-22)