/*--------------------------------*- C++ -*----------------------------------*\
| =========                 |                                                 |
| \\      /  F ield         | OpenFOAM: The Open Source CFD Toolbox           |
|  \\    /   O peration     | Version:  v2012                                 |
|   \\  /    A nd           | Website:  www.openfoam.com                      |
|    \\/     M anipulation  |                                                 |
\*---------------------------------------------------------------------------*/
FoamFile
{
    version     2.0;
    format      ascii;
    class       volVectorField;
    location    "400";
    object      U_0;
}
// * * * * * * * * * * * * * * * * * * * * * * * * * * * * * * * * * * * * * //

dimensions      [0 1 -1 0 0 0 0];


internalField   nonuniform List<vector> 
27802
(
(1.05153 0.056559 7.27803e-22)
(1.00509 0.00010968 0)
(1.0156 0.00933771 2.95012e-23)
(1.01512 0.000696138 -1.90371e-21)
(0.840669 0.0561825 1.43662e-21)
(1.01742 0.00912665 0)
(1.01458 0.00876393 0)
(1.0189 0.0109173 -4.56701e-22)
(1.03436 0.0387867 8.83085e-22)
(1.0406 0.00901446 4.4845e-21)
(1.00811 0.000656486 -4.14472e-22)
(0.657698 0.0394181 6.39482e-21)
(0.427558 0.0259519 0)
(1.03615 0.0491609 6.38286e-21)
(1.0176 0.00321125 2.58847e-21)
(1.01439 0.00855046 0)
(1.00691 -0.000255096 -4.96097e-24)
(0.711448 0.0414497 1.18434e-20)
(0.772339 0.0640767 3.5649e-21)
(1.0358 0.0371135 -6.5572e-23)
(1.00532 0.000142311 0)
(1.01419 0.000988781 -1.34225e-21)
(1.05147 0.057748 -7.07696e-21)
(1.08493 0.053274 5.05411e-21)
(1.00684 0.000532565 3.33261e-23)
(1.02869 0.0122311 8.73482e-22)
(1.01724 0.00846155 -7.9237e-22)
(1.04003 0.00890045 -8.98766e-21)
(1.00676 0.000495015 -3.32445e-23)
(0.979051 0.0981606 -3.83023e-22)
(1.02706 0.00632463 0)
(1.01892 0.00325436 -2.82686e-22)
(1.03719 0.0574973 1.8479e-20)
(1.01907 0.033665 0)
(1.0181 0.0571579 -2.14632e-20)
(1.01932 0.00206798 0)
(1.00346 -0.0121121 0)
(0.918634 0.125147 6.96663e-22)
(1.02686 0.0064749 2.85271e-21)
(1.01785 0.00845118 9.38718e-22)
(1.03546 0.00253059 -4.83783e-21)
(1.01807 0.00855189 1.29962e-21)
(0.53315 0.00470277 -1.08323e-20)
(0.992231 -0.002847 -6.06351e-22)
(1.01238 0.000254345 0)
(1.01711 0.00345367 3.34172e-21)
(1.08404 0.0688036 0)
(1.02773 0.00888777 5.26376e-21)
(1.01097 2.17022e-05 1.10162e-22)
(1.02903 0.0172971 3.92165e-22)
(1.04297 0.0237784 0)
(1.01246 0.00018523 -6.11202e-23)
(0.966191 0.0770555 0)
(1.00399 -1.38834e-05 5.32344e-23)
(1.01474 0.00653488 -6.62822e-22)
(1.01687 0.00871008 -2.99792e-22)
(0.373839 0.00560674 4.92093e-21)
(1.03653 0.0472935 1.86742e-21)
(1.0135 0.00142823 4.3376e-23)
(0.335922 0.00850554 5.1941e-21)
(1.01923 0.00191559 0)
(1.01356 0.00154024 -1.93788e-22)
(1.00764 0.0640925 1.18506e-22)
(1.01435 0.00622244 8.95247e-24)
(0.726257 0.0448033 -1.10004e-20)
(1.07712 0.0532753 6.3599e-21)
(0.48813 0.0165422 0)
(1.01829 0.0114046 -3.04125e-22)
(0.744297 0.0547954 0)
(1.01607 0.00283563 -3.22767e-22)
(1.01248 0.00173825 0)
(1.08369 0.0551675 -9.04396e-21)
(0.691218 -0.056981 -4.50727e-22)
(1.08321 0.0552184 0)
(0.947421 0.0170863 2.9992e-22)
(1.04894 0.0226032 2.21691e-21)
(0.90582 0.122904 0)
(0.473185 0.0140584 0)
(1.0284 0.0161353 0)
(1.01442 0.00805995 5.03828e-22)
(0.531938 0.0066472 -8.04617e-21)
(1.02404 -0.0268459 -2.08993e-21)
(1.01104 5.79378e-05 0)
(1.03616 0.0464425 -3.64133e-21)
(1.01293 0.00233752 0)
(1.0362 0.019734 5.17723e-21)
(1.00647 0.000365126 2.46501e-23)
(1.01475 0.00650049 0)
(1.08356 0.0552422 0)
(1.08242 0.0915513 1.05664e-20)
(0.836913 0.0497585 1.40202e-22)
(1.01341 0.00118319 2.50036e-22)
(1.03068 0.0502367 1.78991e-22)
(1.01426 0.00781094 -5.11001e-22)
(1.00444 -3.15699e-06 3.47373e-23)
(1.02831 0.00830456 -4.88349e-21)
(1.06741 0.0201759 -8.24472e-21)
(0.825419 0.0555614 -1.03467e-20)
(1.03551 0.00213469 0)
(1.08297 0.0687042 0)
(1.02874 -0.0254215 0)
(1.0357 0.00397802 8.54547e-21)
(1.03928 0.0181815 0)
(1.01682 0.000175604 0)
(1.08098 0.090614 0)
(1.01339 0.00102962 -3.75932e-22)
(0.998502 -0.00919974 0)
(1.03384 0.0388852 -1.23595e-21)
(1.0204 0.00382029 0)
(1.06502 0.0364006 2.77907e-21)
(1.01677 0.0112608 2.1833e-22)
(1.01735 0.00310628 -3.75115e-21)
(1.03571 0.00435226 -6.43036e-21)
(1.03342 0.053143 -3.57909e-23)
(1.00769 0.000551771 6.78178e-23)
(1.01966 0.0350314 -1.28954e-22)
(1.03307 0.0269062 -1.04886e-21)
(1.00962 0.000985638 5.48207e-22)
(1.06207 0.0165684 0)
(1.03564 0.0370609 0)
(0.48158 0.0307247 1.78108e-22)
(0.817641 0.049466 -5.78162e-22)
(1.07661 0.0299672 -1.80899e-20)
(1.00647 0.000362473 -3.85852e-23)
(1.0223 0.00726534 2.12064e-21)
(1.02322 -0.00593274 1.38493e-22)
(1.03843 0.099322 -9.8977e-21)
(1.03786 0.0336164 -1.0932e-22)
(0.501933 0.0291813 -6.8626e-21)
(0.474289 0.0292976 -7.3383e-22)
(1.03894 0.0184082 -4.37491e-21)
(1.07583 0.0299047 1.52977e-20)
(1.01437 -0.00122099 2.71753e-24)
(1.03828 0.0088503 0)
(1.01114 2.73911e-05 1.1471e-22)
(1.01791 0.0108523 4.11248e-22)
(1.016 0.00917087 -1.30156e-22)
(1.01162 5.71358e-05 -1.66508e-22)
(1.01465 0.0398018 0)
(1.04042 0.0581668 0)
(1.01842 0.0114197 3.67026e-22)
(1.01729 0.0086422 1.25095e-21)
(1.02369 -0.00480383 9.70605e-24)
(1.00736 0.000472864 0)
(1.00773 0.000538121 0)
(1.03034 0.0172154 -2.22167e-21)
(1.01585 0.00902674 1.90608e-22)
(1.02407 0.0154535 6.04091e-22)
(1.01256 0.000314856 1.20866e-22)
(1.01452 -0.00112276 0)
(1.00817 0.000651993 4.93203e-22)
(1.02734 0.00881383 -1.92906e-21)
(1.0512 0.0141565 2.28086e-21)
(1.01831 0.0115104 2.77724e-22)
(1.03547 0.0370664 -1.45915e-21)
(1.01315 0.00485165 1.41902e-22)
(1.02969 0.0346793 2.51335e-22)
(1.08502 0.0569448 0)
(1.06525 0.0359306 0)
(1.06416 0.074675 -5.63985e-21)
(1.03571 0.0971666 1.6355e-21)
(1.08339 0.0553242 0)
(1.03577 0.0195532 -3.71896e-21)
(1.06132 0.0165222 3.00656e-21)
(1.0068 -0.000239693 1.34853e-24)
(1.009 0.000115776 -1.62604e-22)
(1.00948 0.000915314 -2.63728e-22)
(1.01691 0.0088843 2.79441e-22)
(1.02585 0.00171162 -2.67358e-21)
(1.03602 0.0369895 1.18128e-21)
(1.01763 0.00020694 -5.7577e-22)
(1.03259 0.026623 3.941e-22)
(1.01295 0.0040124 -3.75192e-24)
(0.921405 -0.000916225 5.43908e-23)
(1.02696 0.00698814 -8.06416e-22)
(0.77205 0.0470648 2.95104e-21)
(1.00887 0.000106866 1.10436e-22)
(1.05769 0.0266424 -4.09863e-21)
(1.0123 0.000135847 0)
(0.999351 -0.0121404 0)
(1.08531 0.0531755 6.14623e-21)
(1.03489 0.0334166 1.82463e-21)
(1.04563 0.0328543 1.25968e-21)
(1.03018 0.0169284 -5.82146e-22)
(1.01294 0.00397597 0)
(1.05731 0.0513267 0)
(1.01307 0.00477126 0)
(1.00186 -3.00266e-05 0)
(1.04388 0.0883003 0)
(1.03806 0.120767 -5.26421e-21)
(1.00636 0.000297258 3.74535e-23)
(1.02233 0.0189277 1.89886e-22)
(1.05443 0.055931 0)
(1.04327 0.0125422 -2.70615e-21)
(1.00907 -0.000117281 0)
(1.01782 0.00851279 -1.45514e-21)
(1.00908 -0.000121228 1.41836e-24)
(1.01204 0.000149966 0)
(1.01882 0.00561699 -1.38673e-21)
(1.01712 0.00855857 -1.90665e-21)
(0.709109 0.0534113 2.55218e-21)
(0.962098 0.0948766 -1.11979e-21)
(0.984076 0.00115156 -1.44295e-21)
(1.03702 0.0251152 2.74716e-21)
(1.02041 0.00413618 1.59947e-21)
(1.07471 0.0306018 8.26415e-21)
(1.05068 0.0136481 -1.90815e-21)
(1.09147 0.0843743 6.08732e-21)
(1.01251 -0.000906642 0)
(0.3468 0.0103449 -1.53409e-20)
(1.01922 0.00113858 3.46763e-21)
(1.016 0.118344 1.29997e-21)
(0.801227 0.0488281 2.444e-21)
(1.05706 0.0265931 3.45851e-21)
(1.04516 0.0902557 -3.83679e-21)
(1.01576 0.00594213 -7.38156e-22)
(1.01696 0.0415601 1.66708e-22)
(1.01429 0.00735414 1.62485e-22)
(1.02862 0.00872645 1.78143e-21)
(1.01278 0.00377893 4.31396e-23)
(0.514118 0.0303684 5.98257e-21)
(1.00834 -0.000509659 0)
(1.05658 0.0508732 -9.01884e-23)
(1.02079 0.0708303 -1.34676e-21)
(1.0129 0.00386196 -4.37112e-23)
(1.01147 4.25441e-05 2.75678e-22)
(1.0112 6.83355e-05 -5.61641e-23)
(1.02201 0.0186726 -1.73319e-22)
(1.01722 0.00360788 0)
(1.03617 0.00348828 -5.43519e-21)
(1.00805 -0.000468839 -2.66436e-23)
(0.323945 0.00668762 -7.20371e-21)
(1.02853 0.00812326 3.79169e-23)
(1.05601 0.0333323 -9.64864e-21)
(0.833397 0.0849797 0)
(1.04007 0.0593868 1.94077e-21)
(1.00972 0.000672344 0)
(1.09385 0.0834621 -1.2443e-20)
(1.02533 0.0567539 -4.91635e-21)
(1.01585 0.00238033 0)
(1.01444 0.00664876 2.84349e-22)
(0.952219 -0.0241236 -2.68325e-22)
(0.927766 -0.0282074 0)
(1.01793 0.00075047 6.38871e-22)
(1.01184 0.000469717 -8.85803e-22)
(1.04548 0.0563135 0)
(1.0119 0.000118664 0)
(1.01253 0.0341623 -1.65168e-22)
(1.01436 0.00716448 2.9011e-23)
(1.01547 0.00904115 -7.91093e-23)
(0.991498 0.0746113 0)
(1.04926 0.0346621 3.60894e-21)
(1.0487 0.0557614 5.28056e-21)
(1.01447 0.00668636 0)
(1.01332 0.000373965 1.816e-21)
(1.00947 -0.000132778 -1.29306e-22)
(1.01277 0.00238494 6.5142e-23)
(1.03409 -0.032207 1.14707e-21)
(1.03664 0.0251921 -2.26587e-21)
(1.00925 -0.00013272 -3.95084e-22)
(1.04873 0.0347659 -3.55032e-21)
(1.03347 0.00424357 0)
(0.536046 0.0264531 1.56354e-20)
(1.01235 -0.000909176 3.64991e-24)
(0.697998 0.0468797 -5.4897e-21)
(1.05865 0.0260418 1.50194e-20)
(0.684817 0.0518924 0)
(1.03622 0.00387154 1.54304e-21)
(1.00841 -0.000518617 0)
(1.02717 0.00685209 9.47365e-22)
(1.08506 0.0572319 2.24747e-21)
(1.01463 0.00323878 0)
(1.03938 0.0569869 0)
(1.05856 -0.033451 -8.3897e-22)
(1.04274 0.0123601 8.02041e-21)
(1.08481 0.0565224 -1.58862e-20)
(1.02393 0.0145715 0)
(1.0634 0.0367276 1.12451e-20)
(1.05794 0.0259397 -1.07917e-20)
(1.01268 0.00229777 0)
(1.02626 0.116628 0)
(1.05772 0.0331045 -4.25609e-21)
(1.01981 0.013866 0)
(0.998442 0.0032267 0)
(1.05894 0.100743 -5.97636e-21)
(0.943185 0.0449544 3.56295e-21)
(1.04142 -0.0297835 -9.62491e-22)
(1.0287 0.0107974 -4.49814e-23)
(1.04196 0.0250887 4.68089e-21)
(1.00263 -3.10889e-05 3.224e-23)
(1.00957 -0.000660913 0)
(1.01928 0.0303078 6.89082e-22)
(1.00995 -0.000146172 2.11928e-22)
(0.928014 0.0215255 2.09266e-21)
(1.00997 -0.000152434 0)
(1.01969 0.0233176 -3.26586e-22)
(1.01859 0.0364882 1.71097e-22)
(1.01301 0.00244086 6.40889e-23)
(0.360667 0.0133197 0)
(0.968084 -0.0232839 -2.99704e-22)
(1.07771 0.0532066 0)
(1.03042 0.0163873 0)
(1.01849 0.0075378 -1.54588e-22)
(1.06296 0.0739786 7.27826e-21)
(0.846731 0.0945107 -3.0344e-21)
(1.01536 0.0413838 1.80797e-23)
(1.03295 0.00417267 1.19278e-21)
(0.7135 0.0470397 -1.27941e-21)
(1.01752 0.023485 0)
(1.02385 0.0148107 0)
(1.03629 0.0307879 0)
(1.05507 0.0509836 1.22568e-20)
(1.0708 0.0527693 -3.48128e-22)
(1.03882 0.00895744 0)
(1.0144 0.0163758 5.08877e-22)
(1.01909 0.00113715 -1.39353e-21)
(1.03662 0.031137 -8.80874e-22)
(1.05061 0.0559329 0)
(1.06643 0.0353622 -1.42374e-21)
(1.03549 0.0499297 2.51927e-21)
(1.01771 0.000650738 5.991e-22)
(1.02057 0.00400404 -1.82546e-21)
(1.00639 -0.00018126 -1.02208e-23)
(1.01338 -0.000408083 -2.36845e-22)
(0.986556 -0.0082547 0)
(1.01478 -0.00111404 0)
(0.5436 0.0275464 -1.5142e-20)
(1.01509 -0.00133561 -9.45265e-23)
(1.02056 0.00432539 1.80727e-21)
(1.05349 0.0322479 3.7036e-21)
(1.01514 0.00819374 7.72747e-24)
(0.927525 0.0901388 -1.60355e-20)
(0.954964 -0.0125127 0)
(1.04396 0.0208954 -1.41853e-22)
(1.01924 0.0686777 -9.10428e-22)
(0.941484 0.00369126 0)
(1.07064 0.0532559 2.71459e-21)
(1.01221 0.00364572 0)
(1.08453 0.0464536 -1.81256e-20)
(1.01429 0.00299036 0)
(1.00679 -0.000244788 -3.94749e-23)
(0.718491 0.0434527 7.21121e-21)
(0.398436 0.106379 0)
(1.03105 0.0172656 -4.33541e-22)
(1.08092 0.0583195 0)
(1.04942 0.0923741 0)
(1.08366 0.0710071 -1.05391e-20)
(0.994584 -0.0625621 -7.73369e-23)
(1.01431 0.00676776 -3.0122e-23)
(1.08093 0.100197 -4.77095e-21)
(1.01135 -0.000195015 2.13071e-22)
(0.778045 0.0496678 5.24546e-21)
(1.02249 0.00748414 0)
(1.02671 0.0145415 5.73788e-21)
(1.01676 0.00938132 3.43611e-22)
(1.01571 0.00898458 -3.68339e-23)
(1.00339 0.0419641 -1.08062e-22)
(1.08223 0.0977638 0)
(1.0056 0.000193493 9.09779e-24)
(1.01337 -0.00046213 1.28465e-22)
(1.00629 0.0166002 9.38751e-22)
(0.996213 0.0895763 7.1663e-23)
(1.01354 -0.000531715 0)
(1.04225 0.0376084 7.19314e-21)
(1.00882 -0.000112982 0)
(1.00992 0.000654967 0)
(1.00151 -0.0568637 4.212e-24)
(1.02852 0.0104871 0)
(1.05708 0.0328975 0)
(1.01456 0.00631716 -8.22744e-22)
(1.01206 0.00353718 1.89834e-23)
(1.084 0.0721911 9.11725e-21)
(1.03345 0.0352244 3.39179e-22)
(1.08236 0.0541839 -1.17742e-20)
(0.901886 0.109233 -3.80442e-22)
(0.693546 0.0517584 -6.53577e-22)
(1.03317 0.035496 0)
(1.01653 0.0109772 -2.07468e-22)
(1.03215 0.0300017 -7.86474e-22)
(1.01737 0.00266213 -1.21215e-21)
(1.00148 -2.39e-05 0)
(1.00884 -0.000103544 0)
(1.01667 0.00922091 4.49495e-22)
(1.01455 -0.000303988 2.58393e-22)
(1.00328 -2.07816e-05 8.29191e-24)
(1.01182 0.00085621 5.02005e-22)
(1.08689 0.0691737 6.5993e-21)
(1.01737 0.00289227 0)
(1.0056 0.0138935 -3.82713e-22)
(1.02332 0.0281031 8.16086e-22)
(1.01267 0.00139661 3.66638e-22)
(1.01484 0.00716936 1.03398e-22)
(1.01763 0.0227868 0)
(1.06614 0.0359094 0)
(1.01806 0.00537817 0)
(0.908383 0.0869731 1.64475e-20)
(1.0374 0.0945137 5.97283e-22)
(1.08484 0.0459614 1.36842e-20)
(1.0018 -3.6642e-05 7.42838e-23)
(1.0555 0.0563926 -2.84454e-21)
(0.708664 0.0425709 -1.06907e-20)
(1.06417 0.0369377 -1.08259e-20)
(1.01249 0.00135753 -2.13192e-22)
(1.03478 0.0390403 -4.70224e-22)
(1.0262 0.00167409 4.41728e-21)
(0.995336 -0.0718365 0)
(1.03475 0.0331088 -1.97579e-21)
(1.07747 0.0833061 -4.27812e-21)
(0.938783 0.0379593 -3.10393e-21)
(1.03798 0.034587 0)
(0.362161 0.0104694 -2.60438e-22)
(1.00892 0.000453703 -5.27826e-22)
(0.46756 0.0299573 0)
(0.506736 0.0275968 6.82078e-21)
(0.907068 0.100984 0)
(1.0284 0.00887138 1.9177e-21)
(1.01357 -0.00048596 1.2309e-22)
(1.05379 0.0328945 0)
(1.00739 0.000464527 7.14878e-23)
(1.00343 -0.0700531 4.85639e-22)
(0.53735 0.0058159 7.65097e-21)
(1.01438 0.00655084 0)
(1.01778 0.00241963 -4.34632e-22)
(1.02898 0.0121141 -1.04006e-21)
(1.02475 0.0407333 2.84806e-23)
(1.01844 0.0115171 3.65819e-22)
(1.01458 0.00581125 5.11625e-22)
(0.541574 0.0322751 -3.38085e-21)
(0.995443 -0.00134187 6.30469e-22)
(1.04265 0.023355 -6.40519e-21)
(1.01411 0.00284748 0)
(1.03531 0.0327046 0)
(0.899955 0.101731 0)
(1.01624 0.00593749 0)
(1.0005 -4.45616e-06 1.00275e-22)
(1.0188 0.00612465 0)
(1.07281 0.05675 -7.18598e-21)
(1.06988 0.000285161 -2.93031e-22)
(1.07236 0.012216 1.37447e-22)
(1.04526 0.0331737 0)
(1.05748 0.046779 -1.39336e-21)
(1.01961 0.00309208 -2.36304e-22)
(1.00347 -3.32254e-05 -1.49113e-24)
(1.00936 0.0007522 6.44495e-22)
(1.05245 0.0583235 0)
(1.01857 0.000946588 1.55637e-21)
(1.00784 0.000802945 0)
(1.01422 0.00527864 -5.29234e-22)
(1.07191 0.0521283 2.07301e-21)
(1.03619 0.0368513 0)
(0.666428 0.0856694 -2.12839e-21)
(0.93521 0.0661445 1.01557e-20)
(1.00594 0.03234 0)
(0.533254 0.00915065 1.6443e-22)
(1.01028 -0.000167549 4.98729e-25)
(1.05641 0.0406387 2.34341e-21)
(1.05575 0.0325484 1.75966e-20)
(0.990704 -0.0106183 3.1165e-22)
(0.890481 0.109488 4.76552e-22)
(1.01441 0.00621518 9.16215e-22)
(1.00352 -0.00258205 1.48196e-21)
(1.03439 0.0123976 -5.33591e-24)
(1.03242 0.0386106 -1.08099e-22)
(1.02797 0.0426561 0)
(1.00672 -0.000219951 2.66952e-24)
(1.05004 0.0155153 1.9798e-21)
(1.04261 0.0285766 4.96037e-23)
(1.01845 0.000953409 0)
(0.994979 -0.00772622 2.91893e-22)
(1.00777 0.00077607 0)
(1.03833 0.0287832 0)
(1.00911 0.000673475 -5.92891e-22)
(1.01702 0.00932158 0)
(1.06608 0.0789399 8.74816e-21)
(0.999375 -0.0227744 0)
(1.00189 0.0983462 -4.66375e-23)
(1.01396 -0.000973533 -1.8358e-22)
(0.402937 0.00598581 1.66043e-20)
(1.00669 -0.000226713 -1.03218e-23)
(1.03747 0.0245317 -2.5143e-21)
(1.08147 0.0536417 9.66536e-21)
(1.03702 0.0245466 -4.68426e-21)
(1.02141 0.0186916 0)
(1.04957 0.056486 0)
(1.07163 0.0526115 4.00365e-22)
(0.970484 0.0329951 4.50505e-22)
(1.01972 0.0139089 -8.05227e-22)
(1.03509 0.0124803 0)
(1.08184 0.0536955 -1.40669e-20)
(1.01584 0.00609916 0)
(1.02056 0.00465991 2.39517e-21)
(0.984641 -0.0232242 0)
(1.0174 0.0085255 8.82578e-22)
(0.678238 0.045898 1.12872e-20)
(1.01378 -0.000614312 1.37646e-23)
(0.708324 0.0431078 -1.22404e-20)
(0.978109 -0.0117622 2.66482e-22)
(0.983849 -0.0156025 0)
(1.01633 0.00610826 -2.58881e-23)
(1.0223 0.0358484 2.6011e-22)
(0.517976 0.028155 2.32013e-22)
(1.06762 0.0347751 0)
(1.02281 0.110176 4.6355e-22)
(1.06457 0.0757543 -4.66939e-21)
(0.979733 -0.00408932 2.74742e-22)
(1.08543 0.0564185 1.74769e-20)
(1.00574 0.000309192 -1.01107e-21)
(1.03493 0.032681 -1.98026e-21)
(1.06988 0.0539224 -1.05948e-20)
(1.02644 0.0141941 -3.23004e-21)
(1.01725 0.00904858 0)
(0.922561 0.0301364 1.99747e-21)
(1.03468 0.0357343 2.25017e-22)
(1.01095 0.00275894 1.0852e-21)
(1.00592 0.000215249 0)
(1.07569 0.0838315 1.96688e-21)
(0.952377 0.00806887 0)
(1.01262 0.0393187 0)
(1.00216 -4.66097e-05 3.80089e-23)
(1.03638 0.0367668 0)
(1.04993 0.0158432 0)
(0.836712 0.0477796 8.1017e-22)
(1.01874 0.0107154 0)
(1.01193 -0.00148496 -3.66917e-22)
(1.04094 0.0215678 1.90774e-22)
(1.0148 0.00324813 -4.60034e-24)
(1.00967 -0.000143114 1.17678e-23)
(1.02703 0.0145596 0)
(0.986689 0.0920335 -5.24227e-22)
(0.716448 0.0435931 0)
(1.03567 0.0370917 0)
(0.686273 -0.0757109 -4.04785e-21)
(1.01329 -0.000226336 0)
(1.01804 0.0107063 -5.6163e-24)
(0.735132 0.0447363 0)
(1.0177 0.003411 0)
(1.04144 0.0395536 0)
(1.01632 0.00575372 0)
(1.00967 -0.000140854 3.54408e-22)
(1.01197 0.00832347 0)
(1.07106 0.105007 0)
(1.00274 -6.6374e-05 -8.21809e-24)
(1.01525 0.00845546 0)
(1.01347 -0.000177222 -5.59058e-23)
(1.06913 0.0537619 1.38862e-20)
(1.00277 -3.24246e-05 1.63775e-22)
(1.05066 0.0289739 -6.18185e-21)
(1.04427 0.1199 1.20668e-20)
(1.0567 0.0464461 0)
(1.06676 0.0552339 -4.66707e-21)
(0.670346 0.0616163 0)
(1.07467 0.0569812 8.2643e-23)
(0.989187 0.100353 3.94111e-22)
(0.980732 0.107235 2.95325e-21)
(1.02383 0.000547482 6.01584e-21)
(0.703626 0.0432455 3.10638e-21)
(1.03485 0.012688 -1.97413e-21)
(1.01825 0.0374483 0)
(1.01543 0.00171796 9.84173e-24)
(1.0142 0.000945827 1.63302e-21)
(1.02431 0.00133486 -3.00676e-21)
(0.943294 0.0145057 0)
(1.01785 0.00885019 -6.67589e-24)
(1.01642 0.00594283 0)
(1.00651 0.000381253 3.14709e-23)
(0.962373 -0.0497929 1.89464e-22)
(1.00924 0.000437828 -6.05881e-22)
(1.03053 0.016733 0)
(1.02462 0.0560151 0)
(1.08627 0.0700786 1.42535e-21)
(1.08644 0.0584428 4.2658e-21)
(0.518557 0.0370436 0)
(0.763796 0.0589261 9.03635e-21)
(1.06734 0.0353559 0)
(1.08464 0.0538965 0)
(1.05933 0.0254625 -1.15404e-20)
(0.705578 0.052045 0)
(1.02842 0.00940404 0)
(1.05585 0.0514662 -6.71908e-21)
(0.959089 -0.0391576 0)
(1.04651 0.0858188 4.3629e-21)
(1.02848 0.0591972 6.31886e-22)
(1.01117 0.0151096 -3.14126e-22)
(1.04211 0.0127776 4.92931e-21)
(0.553922 0.0122909 0)
(1.07938 0.0368566 -1.08064e-20)
(1.01105 -0.000172752 -1.07581e-22)
(0.555169 0.0118702 0)
(1.08029 0.0512395 2.04221e-20)
(1.06015 0.102674 0)
(1.04927 -0.0388033 7.33438e-22)
(1.07262 0.0573949 5.92048e-21)
(1.01101 -0.000154338 3.21485e-22)
(1.02042 0.0144292 0)
(1.07863 0.0368538 2.28027e-20)
(1.00411 3.84841e-05 0)
(1.01969 0.0254261 3.40068e-22)
(1.06065 0.0790988 1.14472e-20)
(1.01024 -0.000157423 -1.13175e-22)
(1.02113 0.015661 0)
(1.00968 0.00104199 7.58278e-23)
(1.07763 0.0737583 0)
(1.0316 0.00947046 0)
(1.04223 0.0125131 -8.3334e-21)
(0.842639 -0.171971 1.28254e-21)
(0.473088 0.0314349 1.73816e-21)
(1.04542 0.0227404 6.26352e-21)
(1.05943 0.025015 8.02472e-21)
(1.02289 0.00685136 -1.15134e-21)
(0.784585 0.0506109 0)
(1.00258 0.124549 6.12841e-24)
(0.971648 0.0673585 4.3663e-22)
(1.02589 0.0338336 -2.65029e-22)
(1.03459 0.0374844 -3.43364e-21)
(0.991223 -0.024918 0)
(1.01806 0.00491587 -1.415e-21)
(1.04591 0.0839773 0)
(1.02123 0.0154747 7.17801e-22)
(0.64855 0.0430766 0)
(0.667493 0.0401405 -6.35381e-21)
(1.00949 0.00103366 1.40852e-22)
(1.01137 0.0247482 0)
(0.970625 0.0964861 -2.90888e-21)
(1.08398 0.0842803 -5.50905e-21)
(0.999918 -3.65936e-05 -1.124e-22)
(0.489155 0.104171 -2.05391e-21)
(1.04467 0.032931 -1.14108e-21)
(0.791649 0.13647 -4.99234e-22)
(1.01141 0.0164995 0)
(1.02029 0.0141014 4.57618e-22)
(1.00568 0.097555 -5.83885e-22)
(0.674551 0.135664 -1.91269e-22)
(1.08047 0.0509236 -1.4843e-20)
(1.0193 0.00628886 -6.77248e-22)
(1.05644 0.0426709 5.21078e-21)
(1.03319 0.0272411 0)
(1.05185 0.0457259 -4.83887e-21)
(1.01515 0.000626595 2.94176e-21)
(1.05186 0.0554458 0)
(1.01941 0.00621149 -1.53825e-21)
(1.02401 0.0013744 2.83731e-21)
(1.05862 0.0180557 0)
(1.03106 -0.00921452 6.76173e-23)
(0.799134 0.0542971 9.65899e-21)
(1.08134 0.0581622 -5.34634e-21)
(1.04343 0.0220842 0)
(0.579531 0.105684 4.01122e-21)
(1.0423 0.0371003 -5.47285e-21)
(0.568251 0.0256199 0)
(1.01893 0.00586865 2.39242e-21)
(1.02782 -0.00794106 -2.27132e-22)
(1.06805 0.0544882 0)
(1.06657 0.0645462 2.7915e-21)
(0.765609 0.0750524 0)
(1.01725 0.00766473 5.5856e-22)
(1.0066 0.0583099 7.54452e-23)
(1.01299 0.000539859 -9.0416e-22)
(1.00952 9.33197e-05 -2.2812e-22)
(1.01804 -0.00118108 -8.14229e-23)
(1.02801 0.00926724 0)
(1.01805 0.0097868 -7.85434e-22)
(1.01495 0.0214204 -1.79387e-23)
(1.08621 0.0588558 -1.29797e-22)
(1.06457 0.00725739 -1.69329e-22)
(1.00095 -2.14587e-05 9.66381e-23)
(1.03585 0.0371282 0)
(1.02903 0.0208106 2.33973e-21)
(1.04914 0.0231187 8.53006e-23)
(1.04892 0.0165778 2.04446e-22)
(1.0093 9.98307e-05 2.19605e-22)
(1.01807 0.0110891 -3.41992e-22)
(0.987437 -0.00226143 1.48834e-21)
(1.04996 0.00390871 -1.09625e-21)
(1.04152 0.0250127 -2.34638e-21)
(1.0124 0.00133865 0)
(1.00336 0.000112776 0)
(1.00126 -9.11162e-06 -5.56961e-23)
(1.02402 0.0282777 4.89455e-22)
(1.01772 -0.000892551 0)
(0.97222 0.0482226 -1.70928e-22)
(1.01688 -0.0127536 0)
(1.02173 0.0189825 0)
(1.05844 0.0606783 0)
(1.03518 0.0391919 1.12266e-21)
(0.68636 0.06638 -1.05992e-20)
(0.563932 0.024185 0)
(1.03997 0.0557251 3.46795e-21)
(1.00829 0.000543669 -2.10055e-22)
(1.03536 -0.0203857 -1.6561e-22)
(1.002 -3.44734e-05 0)
(1.04402 0.017503 -1.12611e-22)
(1.01585 0.00914057 -1.78125e-22)
(1.03377 0.09641 1.78098e-21)
(1.05658 0.045616 5.29001e-21)
(0.549516 0.0337053 5.69416e-21)
(1.01131 -0.000173081 1.15424e-22)
(1.01322 0.00251438 0)
(1.07668 0.0728985 -9.36799e-23)
(1.01011 0.000480456 0)
(1.00651 0.00037869 0)
(1.01664 0.00731033 -6.33907e-22)
(1.06094 0.0681265 -2.93216e-21)
(1.01652 0.00576404 4.6915e-24)
(1.02729 0.0482199 -3.57418e-22)
(1.02415 0.000646578 0)
(0.978991 0.0701248 -1.24818e-22)
(1.01494 0.000667064 2.39173e-22)
(1.03267 0.0260458 -4.10399e-22)
(1.07402 0.057157 4.40781e-23)
(1.04434 0.0331366 -1.37354e-21)
(1.01918 0.0124588 -3.64393e-22)
(1.08668 0.0551214 -1.31366e-21)
(1.03521 0.0386989 9.77102e-22)
(1.07545 0.0306672 0)
(1.03364 0.0505398 3.82959e-21)
(1.01585 0.00328598 3.59665e-22)
(0.7637 0.0531353 0)
(0.663702 0.072805 0)
(1.06154 0.0808241 6.17709e-21)
(1.04044 0.0370578 -9.547e-22)
(0.610284 0.150211 -1.21479e-21)
(1.00794 0.000581793 2.43246e-22)
(1.02513 0.0196527 1.33021e-21)
(1.04829 0.022406 0)
(1.05444 0.0552015 0)
(1.03636 0.039149 9.61563e-22)
(1.0381 0.0234887 2.89188e-21)
(1.01662 0.00266379 0)
(1.04473 0.0168952 -2.06918e-22)
(0.852879 0.0520436 0)
(0.763328 0.130602 1.79901e-21)
(0.826919 0.0504869 0)
(1.05262 0.0304072 1.3076e-20)
(1.03408 0.0497875 -4.46668e-21)
(0.451952 0.10556 1.78622e-21)
(1.04201 0.00905898 1.43528e-21)
(1.00413 -0.0220061 5.10639e-22)
(0.65716 -0.0834854 0)
(1.02565 -0.0172923 -2.78576e-22)
(1.00989 -7.36548e-05 1.25329e-22)
(1.03215 0.039241 4.22088e-22)
(1.00217 -2.41953e-05 -7.61396e-23)
(1.08791 0.0639687 -9.07988e-22)
(1.00655 -0.000197767 7.60148e-24)
(1.03627 0.039793 8.19522e-22)
(0.673512 0.040816 -1.20023e-20)
(1.01497 0.000656333 0)
(1.01497 0.00736541 -1.07429e-22)
(1.02992 0.101964 -1.46079e-21)
(0.564592 0.0361595 -4.5669e-21)
(1.07232 0.0321065 1.82766e-21)
(1.01485 0.0146696 -7.8586e-22)
(1.00967 -7.41132e-05 -2.35425e-22)
(1.03801 0.0231193 0)
(1.0293 0.0283796 0)
(1.05258 0.0525768 7.52545e-22)
(1.04523 0.0417543 -2.69605e-21)
(0.887115 0.0182464 0)
(1.03587 0.0380572 -5.85884e-22)
(1.0153 0.00885101 1.44313e-22)
(1.02916 0.0205115 -1.30821e-21)
(1.03484 0.0432129 0)
(0.975404 0.00127218 -2.65328e-22)
(0.72087 -0.042699 2.11131e-21)
(1.01398 -0.00048699 0)
(1.06603 0.0576658 8.36406e-21)
(0.574275 0.0263237 0)
(1.01849 0.00292898 1.4154e-22)
(1.02753 0.016157 -3.82683e-21)
(1.01159 0.00189235 0)
(1.00023 -3.79052e-06 0)
(0.435483 0.0267466 0)
(1.01146 0.00190404 0)
(1.01937 0.0123675 -3.29957e-22)
(1.01081 0.000468965 -7.14325e-22)
(0.743505 0.108778 -3.62246e-21)
(0.450478 0.0106076 0)
(1.01356 0.000832106 1.48005e-21)
(1.01738 0.00896418 7.30909e-22)
(1.03868 0.0272105 -2.21709e-22)
(0.65627 -0.0570002 2.09642e-21)
(1.00698 -0.000277854 2.35134e-24)
(1.03892 0.0270023 -8.7774e-22)
(1.01227 0.0375314 0)
(1.01376 0.00719734 4.31046e-23)
(1.00859 0.000644028 -2.2668e-22)
(0.621483 0.145264 1.32679e-20)
(1.03227 0.0256764 -1.55092e-21)
(0.960224 -0.0184311 6.03732e-22)
(0.999763 -8.25895e-06 -1.91919e-22)
(1.03657 0.00336479 6.96668e-21)
(1.05408 0.0282745 0)
(1.01456 0.0120473 0)
(0.536793 0.107795 -1.87206e-21)
(1.03378 0.0289535 -2.84311e-21)
(0.634728 0.0356871 0)
(1.04371 0.0929564 3.90722e-21)
(1.07357 0.0327921 0)
(1.04107 0.0937512 -3.51568e-21)
(0.863264 -0.180976 0)
(1.01247 0.0246204 -1.85344e-22)
(1.01489 0.0117417 0)
(1.01436 0.0141601 -5.04267e-24)
(1.00965 0.0020694 -5.13624e-23)
(1.01784 0.00728662 4.11544e-23)
(1.07651 0.048634 0)
(1.05375 0.0276023 -6.69474e-21)
(1.05931 0.0599773 0)
(1.08751 0.0832899 1.69489e-20)
(0.904896 0.0599658 -1.2871e-23)
(1.01161 0.000288991 -3.04998e-23)
(0.740859 -0.00407922 0)
(0.987052 0.0715958 -1.14416e-21)
(0.997041 0.0535354 1.30325e-22)
(1.0433 -0.0264201 1.55308e-23)
(1.02066 0.0641111 -2.02874e-21)
(1.0403 0.0263037 -1.7439e-21)
(0.891902 0.000392382 1.7163e-23)
(0.999872 -0.0135145 1.06796e-21)
(1.00815 0.000128224 -5.51619e-23)
(1.00329 -4.02476e-05 2.46331e-24)
(1.0061 0.000269395 0)
(1.02306 0.00711141 -1.18512e-21)
(0.921761 0.156168 1.33962e-21)
(1.00978 0.00212184 -8.74033e-23)
(1.02974 0.0122615 4.37765e-21)
(0.775484 0.0512919 0)
(1.0807 0.056136 9.02002e-21)
(0.700645 0.045611 0)
(1.01753 0.00772096 -1.04275e-21)
(1.06868 0.0268508 0)
(1.04155 0.00915078 -3.4762e-22)
(1.02021 0.0136381 2.56884e-22)
(1.03503 0.0379819 1.82666e-21)
(1.01753 0.00840763 2.79726e-22)
(1.08332 0.083303 0)
(1.05277 0.0200118 5.18242e-21)
(1.01962 0.0375473 0)
(1.01329 -0.000778537 -2.24744e-22)
(1.0134 -0.00083006 0)
(1.06407 0.0859343 3.67574e-21)
(1.05318 0.0205313 0)
(1.08157 0.0558721 -1.90281e-20)
(1.01579 0.0095151 1.57586e-23)
(1.00649 -0.000195773 0)
(0.938119 0.00626074 0)
(1.01204 0.00170318 5.7432e-22)
(1.01672 0.00355451 -1.10638e-21)
(0.519448 0.0362817 6.20894e-21)
(1.0618 0.0673815 7.75784e-23)
(1.06396 0.0564573 1.00257e-20)
(1.02266 -0.0100985 -6.07364e-22)
(1.00182 -1.04914e-05 5.29398e-23)
(1.00366 -4.73108e-05 0)
(1.01776 -0.001753 -4.42749e-22)
(1.03434 0.0125995 1.62859e-21)
(0.990842 0.0386555 5.36041e-21)
(1.07811 0.0526582 9.50235e-21)
(1.07476 0.102526 5.95846e-21)
(1.01431 0.00501042 0)
(1.05589 0.0452646 -6.36956e-21)
(1.02185 0.0264147 -3.04519e-22)
(1.01784 0.010469 -2.97588e-22)
(1.02709 0.0260746 9.97038e-23)
(0.695475 0.0460102 0)
(1.03735 0.0308729 0)
(1.0098 0.000626153 -1.04818e-22)
(1.02879 0.0283922 0)
(1.01417 -0.000441851 -2.54958e-22)
(1.00833 0.000128395 2.76968e-22)
(1.03822 0.0552259 1.24561e-21)
(1.05262 0.0515465 -7.23451e-22)
(1.00275 -2.45134e-05 -1.60807e-22)
(1.01514 0.00744043 -3.90297e-24)
(1.03741 0.0355426 -8.37945e-22)
(1.07929 0.0480772 0)
(1.06036 0.0242409 9.66498e-22)
(0.647299 0.039468 0)
(1.04432 0.00932997 6.62416e-21)
(1.04884 0.018997 0)
(1.08601 0.0548233 0)
(1.03188 0.00226155 0)
(1.02787 0.0163508 3.44557e-21)
(1.01965 0.0111068 3.42922e-22)
(1.04515 0.042434 -4.93671e-21)
(1.06879 0.0546162 -4.38784e-21)
(1.0254 0.0133655 -7.23419e-22)
(1.06303 0.0844782 -3.41053e-21)
(1.01514 0.00992639 1.28572e-22)
(0.526142 -0.0879541 0)
(1.02037 0.0139465 0)
(1.01667 0.00337973 -1.0903e-21)
(1.08612 0.0550824 -1.33234e-21)
(1.01236 0.00361895 0)
(1.01704 0.00879514 6.28352e-22)
(1.00982 0.00111301 0)
(1.00158 -2.04932e-05 0)
(1.01732 0.00761545 1.46786e-21)
(0.517265 0.0299937 -1.26645e-20)
(1.03419 0.0128238 2.21819e-22)
(0.988281 0.0363863 -4.273e-21)
(1.01251 0.00160152 0)
(1.01594 0.00742517 0)
(1.01351 -0.000291056 0)
(1.01447 -0.00129011 3.23998e-22)
(1.01427 -0.0012782 -1.08885e-22)
(1.02038 0.00447362 -7.94513e-22)
(1.03337 0.0289759 -1.76043e-21)
(0.858726 -0.176797 -3.39743e-22)
(1.00056 0.00159674 5.0353e-22)
(1.00264 -0.013261 0)
(1.01208 0.0018175 0)
(1.00236 0.109628 -1.07355e-20)
(1.06882 0.034189 -6.97365e-21)
(1.04076 0.0381061 -4.80557e-21)
(1.03747 0.0091144 0)
(1.0123 0.00175365 0)
(1.00801 0.000211866 -1.01771e-22)
(1.02255 0.0220988 2.57999e-22)
(1.01507 0.00734381 3.08054e-22)
(1.08607 0.0844717 -5.61991e-21)
(1.01048 -0.000771543 2.34095e-24)
(1.0172 -0.00168049 3.60899e-22)
(1.02285 0.021812 -1.28677e-21)
(0.371383 0.0117154 -5.25431e-22)
(1.01473 0.000521324 0)
(1.03757 0.0343462 -1.39742e-21)
(1.00801 0.000840367 8.88986e-23)
(1.00815 -0.000481187 2.84138e-23)
(1.01462 0.0447522 0)
(0.931608 0.0400596 -1.72961e-22)
(0.822197 0.0859442 0)
(1.00312 -1.42411e-05 2.2068e-23)
(1.00474 2.06878e-05 -4.08358e-23)
(1.07871 0.0480718 0)
(1.00592 0.000214368 -9.48023e-24)
(0.635102 0.13792 0)
(1.00602 0.0687125 0)
(1.07103 0.0410078 -4.80288e-21)
(0.624122 0.144935 0)
(1.00813 -0.000480138 0)
(1.01137 0.0434057 1.04129e-22)
(1.03804 0.00919827 0)
(1.06468 0.0447572 0)
(1.07168 0.0411384 0)
(0.951986 0.0147857 0)
(1.0115 0.000103597 0)
(1.07314 0.0320728 0)
(0.599493 0.15056 0)
(1.01486 0.000619692 -8.71632e-23)
(1.01514 0.0097264 -3.51547e-22)
(1.00414 0.000151613 1.0016e-21)
(0.957668 0.0767085 -8.07615e-23)
(1.01387 0.04305 -2.49683e-23)
(1.07227 0.0396377 0)
(1.02203 0.0103421 5.4396e-23)
(1.01375 0.000454511 -3.58697e-22)
(1.03184 0.0301149 0)
(1.02388 0.0539723 -1.78762e-22)
(1.07918 0.0559515 8.71896e-21)
(1.0567 0.033503 8.66331e-21)
(1.01966 0.0569001 0)
(1.01101 0.00286511 2.51207e-25)
(1.01712 -9.68844e-05 0)
(1.01345 0.000284783 -3.42397e-22)
(0.993307 0.079309 1.76934e-22)
(1.00936 -2.45165e-05 0)
(1.01203 -0.00089092 0)
(1.01698 0.00918026 5.76987e-22)
(1.05276 0.0321565 6.94547e-21)
(1.03548 0.0435879 0)
(1.00809 0.000869368 -9.69708e-23)
(1.05083 0.0306749 0)