/*--------------------------------*- C++ -*----------------------------------*\
| =========                 |                                                 |
| \\      /  F ield         | OpenFOAM: The Open Source CFD Toolbox           |
|  \\    /   O peration     | Version:  v2012                                 |
|   \\  /    A nd           | Website:  www.openfoam.com                      |
|    \\/     M anipulation  |                                                 |
\*---------------------------------------------------------------------------*/
FoamFile
{
    version     2.0;
    format      ascii;
    class       volScalarField;
    location    "400";
    object      ddt0(k);
}
// * * * * * * * * * * * * * * * * * * * * * * * * * * * * * * * * * * * * * //

dimensions      [0 2 -3 0 0 0 0];


internalField   nonuniform List<scalar> 
54593
(
5.92547e-09
-1.37899e-08
-3.72682e-10
-1.10851e-05
-0.000119095
1.51164e-05
0.000102503
-7.44415e-08
7.29928e-09
-1.18796e-08
-6.09414e-09
-3.75564e-05
-2.64202e-07
6.90404e-09
-1.45328e-08
4.08565e-10
-1.66091e-08
-1.35899e-07
-1.18549e-08
-6.03069e-09
-5.57427e-10
1.81157e-08
-1.13152e-08
6.16054e-05
3.22009e-10
8.18647e-07
5.26132e-09
3.45913e-08
4.35586e-05
-1.15128e-08
8.01042e-07
-9.42533e-07
4.10853e-09
-1.93878e-05
-1.22243e-06
-1.31071e-10
-1.33459e-07
-9.74922e-09
4.1515e-09
1.83917e-08
5.85587e-08
-0.0246957
-1.93504e-09
6.0631e-09
6.3323e-07
-8.55717e-09
2.97773e-07
-7.85103e-07
1.5695e-09
-6.13221e-09
3.8662e-09
8.83655e-10
2.11837e-08
7.91398e-07
3.24839e-08
-4.59307e-09
0.00288528
0.0263477
5.39689e-08
5.14224e-07
-1.81597e-09
-3.84147e-09
6.94749e-09
2.75363e-05
1.52792e-09
1.69817e-09
0.000398046
-9.44817e-07
-3.22247e-05
-2.82627e-05
9.987e-10
-3.97537e-07
1.86035e-09
0.00121937
-1.38482e-08
4.269e-09
1.52593e-08
1.75167e-05
2.38572e-05
-1.97011e-07
1.95823e-11
-3.88899e-05
5.45395e-09
0.000305452
-8.11283e-09
0.00117133
-8.23837e-05
1.74375e-07
-1.6125e-07
-2.30155e-10
-3.64082e-06
1.88836e-08
-1.87013e-07
-2.4791e-08
1.4765e-08
-0.000188686
-0.000979302
2.7061e-06
1.51498e-09
-8.10235e-09
-1.2979e-08
-0.000110883
7.26015e-10
-9.42447e-10
-2.28464e-06
-6.11641e-08
4.87931e-08
1.68818e-07
3.81059e-09
-1.11884e-06
6.157e-05
-9.63871e-11
-2.49632e-10
9.0149e-07
1.2061e-08
-3.62272e-06
-3.11743e-05
3.87405e-05
-2.22108e-05
-1.50094e-07
2.71425e-05
1.17218e-10
-4.06311e-06
-1.3598e-08
-1.54493e-09
8.12858e-07
-1.68109e-09
-1.36267e-09
9.27461e-05
0.000597061
-1.53108e-09
-1.75948e-08
5.21951e-09
-1.56345e-10
1.89881e-08
4.55936e-07
2.58935e-09
-0.00164947
-9.46988e-10
2.3729e-10
-1.40763e-05
-2.86723e-07
4.30231e-09
-0.0126039
1.77238e-08
-3.49923e-06
4.39906e-05
-1.46786e-07
0.00114282
-5.38414e-09
1.10064e-07
-7.91362e-09
4.50886e-07
-1.3087e-07
-3.58119e-09
-0.000165884
-7.00919e-09
-0.000201685
-1.66417e-07
2.47568e-09
-2.01672e-05
-2.28407e-09
-1.79728e-05
-0.000139513
3.24216e-08
2.6719e-09
1.86726e-10
-7.02869e-10
-1.44261e-08
1.22788e-14
1.22991e-06
-2.51492e-07
1.60585e-06
1.22433e-10
1.23103e-08
3.6687e-09
5.16905e-05
-1.07848e-08
-3.95411e-09
-1.28939e-07
-0.000116297
-1.88438e-09
6.9142e-05
-1.35981e-08
4.497e-10
-4.73328e-05
-5.68745e-09
-1.20958e-08
6.97065e-09
0.0107575
-4.42149e-09
-0.0016207
-1.07598e-05
3.06991e-09
4.25197e-05
3.63446e-05
1.04298e-08
-1.01618e-08
8.8581e-07
-2.45986e-06
1.93075e-08
-7.82563e-06
1.31124e-07
8.63355e-10
-1.47455e-08
-1.46094e-08
-1.57121e-05
-9.19657e-09
3.32724e-09
3.45981e-10
-7.89637e-10
6.73794e-09
-1.85623e-09
2.58427e-09
1.6817e-08
1.56084e-07
-0.000737221
-0.00146805
-1.34118e-05
1.04202e-08
1.96119e-08
-0.034944
0.00376192
1.48058e-08
2.47674e-07
1.08848e-08
1.25797e-10
2.79879e-07
8.7687e-10
1.64861e-06
-2.26077e-09
1.23107e-06
-6.83701e-05
5.35922e-10
-4.52374e-10
-0.00105541
1.16696e-06
9.92822e-10
2.66409e-06
1.01414e-09
1.53744e-08
2.89993e-09
0.000468557
-2.04264e-07
2.56715e-09
-1.3597e-08
7.61166e-05
0.000196019
-1.4212e-09
5.54983e-05
-2.65402e-07
7.69539e-05
-0.000369872
1.03123e-09
-1.35733e-08
5.5197e-10
-0.000109266
-1.00019e-08
-2.20805e-06
1.74153e-08
4.43247e-07
-0.000104616
-1.05531e-09
-2.38081e-06
1.49997e-08
3.4739e-09
4.46257e-06
-1.26387e-09
-7.15952e-09
3.56449e-09
0.00122083
-0.000151492
2.06518e-08
5.93683e-09
-1.3928e-08
3.98437e-09
-3.34511e-09
0.000314047
-2.84115e-09
2.78379e-07
-3.34636e-09
8.53869e-09
-1.43468e-10
4.74051e-05
7.23113e-05
5.03121e-07
1.76446e-08
-2.60973e-09
1.78153e-08
-4.06344e-06
8.23878e-05
-2.03391e-05
8.25122e-10
-2.03657e-09
1.66161e-07
1.82344e-10
0.00125645
0.00076341
1.1966e-08
1.23028e-06
-0.000197258
1.62525e-08
-6.60781e-10
6.05068e-12
5.99516e-09
-1.09577e-08
-1.6519e-08
0.000107795
-5.24559e-09
1.06263e-08
-0.000401588
1.93018e-07
-1.15604e-05
-4.7178e-10
5.22502e-08
1.28177e-05
-6.06769e-06
-0.000613614
-5.9706e-09
8.08486e-09
-4.07978e-08
-1.92147e-09
-1.40181e-06
2.94589e-08
-0.0013513
2.74236e-08
3.6188e-06
3.24607e-09
-0.000112714
-1.07659e-08
-6.45782e-10
1.33711e-08
-4.84185e-10
-1.64353e-09
3.9274e-12
-1.79623e-07
-7.30563e-09
3.72888e-05
-2.00264e-06
1.29776e-08
8.25542e-08
2.16421e-08
3.06325e-05
-9.13171e-09
-1.10319e-08
-1.61e-06
9.52151e-10
1.16639e-06
7.72763e-07
-0.000313802
2.34758e-05
-1.9059e-09
-8.17097e-07
-2.34036e-09
3.85934e-09
-1.71539e-09
6.31582e-09
-3.47375e-09
5.29337e-09
9.59031e-09
1.34037e-07
1.94239e-08
-1.02112e-09
9.71324e-05
-5.68166e-07
-7.64236e-10
-3.51084e-09
0.0119693
1.88604e-08
3.3432e-09
-1.32387e-08
6.75956e-09
-1.87005e-09
7.9254e-09
-1.63095e-09
-9.80906e-07
6.95412e-09
0.00764512
2.07757e-08
7.35323e-05
-0.000147042
-4.90098e-07
-6.18924e-06
-3.77966e-05
1.15427e-07
2.32879e-06
2.66847e-05
-5.72625e-10
0.000507635
1.38791e-07
9.56084e-06
4.83132e-08
-7.08653e-09
-1.58991e-09
-3.09971e-06
4.57701e-05
-0.00494124
1.18236e-08
-4.61092e-06
1.18826e-07
-5.24363e-09
-3.93833e-08
-7.4519e-06
-1.18297e-07
1.42409e-06
-1.43773e-05
9.78896e-10
-8.02952e-07
4.57574e-09
6.40275e-07
-2.89519e-06
7.22252e-09
2.4029e-10
-6.88806e-07
1.33366e-09
3.06299e-05
2.92674e-08
1.22372e-09
-1.45616e-08
2.5775e-08
-6.78537e-07
0.000117794
5.15781e-08
6.57235e-09
2.65358e-05
-1.10269e-05
-0.00015082
2.67952e-09
-2.05444e-06
1.25944e-08
-1.93378e-05
-1.39237e-07
3.52205e-07
-1.09583e-09
9.08791e-08
-7.2851e-09
5.72558e-09
-0.00135556
9.70377e-08
1.57868e-06
8.92043e-05
5.05396e-10
-2.12242e-09
-3.49205e-09
4.9952e-05
1.62436e-07
8.01888e-09
2.30891e-09
4.65697e-07
-9.08337e-07
0.000949081
2.00109e-05
5.77403e-06
-3.34331e-07
-9.23395e-06
-1.30737e-07
-8.04757e-08
-6.78038e-10
-8.5082e-09
-1.75805e-07
7.52364e-09
-2.06131e-09
-1.30225e-08
-1.7686e-09
-3.72752e-09
4.43242e-08
1.36879e-07
3.44777e-09
1.67075e-08
-0.0219487
-4.49845e-05
-3.19624e-06
1.77101e-08
4.31281e-11
6.55654e-05
-8.20916e-09
1.33912e-13
-0.00154003
-8.19765e-05
3.38124e-09
7.39778e-09
1.39619e-09
-2.24165e-07
1.23358e-07
9.71412e-10
0.00384521
-1.11921e-06
-7.11448e-07
4.1402e-10
1.39868e-06
1.5567e-07
4.24309e-10
2.07747e-09
1.28579e-08
-1.54028e-06
1.2692e-08
1.33568e-06
-1.22378e-08
-8.65571e-07
-1.25359e-08
6.31576e-05
-7.25554e-05
4.65494e-06
3.15103e-07
-6.3929e-09
-2.69048e-07
1.94024e-09
-2.75268e-07
2.78369e-08
2.42344e-09
6.35732e-09
-1.25602e-07
1.879e-05
1.96766e-09
2.04042e-09
3.0036e-05
-3.08676e-07
1.47359e-09
7.50275e-05
6.36804e-09
1.95286e-07
1.31487e-08
1.24207e-08
4.27784e-10
1.04146e-08
1.11745e-07
-0.000680379
-0.000624561
-2.84898e-06
1.23669e-09
0.000672782
-5.07049e-09
-2.04107e-07
4.5145e-10
-2.2977e-09
1.33411e-09
-2.86522e-05
1.23335e-09
-1.03273e-08
2.26335e-09
-3.8485e-09
1.26323e-08
-0.0150363
7.17584e-05
-6.3199e-09
9.59022e-05
-0.000113592
2.26982e-09
-9.95587e-05
-3.64166e-09
-0.00031602
1.12966e-08
1.34546e-07
1.3216e-06
1.95705e-07
-1.30869e-07
7.34634e-08
3.62674e-05
2.99371e-06
-7.90605e-05
-3.29389e-09
5.48215e-10
-3.84291e-07
1.39922e-08
-2.21465e-06
1.31056e-08
-2.91237e-05
3.07915e-09
-1.36867e-08
5.97288e-08
1.46491e-09
1.33521e-08
-1.19617e-05
-7.92145e-09
0.00100424
4.38845e-05
-1.99666e-06
-1.39032e-06
1.69865e-05
4.7512e-08
3.26919e-09
-8.15195e-10
2.16955e-08
-5.95018e-09
-1.35628e-09
-1.2161e-08
4.24857e-07
-1.49884e-08
-2.1338e-07
2.94215e-09
-6.78578e-09
-0.000100175
2.04275e-08
4.19397e-08
-1.32629e-08
8.71288e-05
0.000104889
-1.02034e-08
4.04535e-11
-8.86315e-08
4.5715e-05
2.04947e-08
1.64371e-09
-0.000160809
-0.000109039
-5.57606e-06
-0.000118284
1.87835e-09
1.62298e-08
-8.98496e-09
4.64516e-07
4.92137e-09
3.64444e-11
-2.39202e-08
-1.60131e-08
1.1237e-08
-7.86472e-11
4.2591e-07
-0.0014188
4.87489e-10
-9.04522e-10
9.39128e-05
3.58057e-07
1.92622e-07
-0.00162078
3.76142e-08
4.44627e-07
-0.000191225
-0.000170883
7.49081e-08
-5.78868e-06
5.58457e-09
-1.32176e-08
-1.05632e-08
-1.07129e-08
1.51361e-07
-5.06539e-07
-0.0177282
-1.52335e-08
0.000362004
-5.45666e-08
-4.40487e-09
-3.26236e-07
-1.31483e-09
7.55697e-09
8.79507e-07
-5.11448e-06
-1.54937e-05
6.68544e-08
5.72737e-05
3.40514e-09
1.95754e-06
-0.000192522
0.000387961
-1.02437e-09
-9.06646e-10
-9.03655e-05
7.34733e-08
1.32574e-08
-1.50304e-10
-3.22924e-10
-1.01206e-08
1.34706e-05
3.87742e-07
6.96996e-09
-3.3913e-09
-1.07303e-05
4.36821e-07
-1.31649e-08
-9.79751e-10
7.93501e-10
3.10778e-08
1.8944e-08
-3.78816e-09
-1.17295e-07
2.00768e-05
0.00106455
-3.33398e-09
-9.97258e-10
4.80955e-09
-7.80076e-10
1.08185e-08
5.24401e-10
-3.57391e-05
6.86567e-05
-1.27292e-08
-5.22594e-10
-7.92066e-09
8.93772e-05
-0.000149845
2.00073e-09
-1.45126e-09
-0.000117821
-1.68304e-08
-9.19961e-10
-1.4713e-06
6.8686e-09
-5.13303e-07
6.75462e-07
-5.3638e-08
-6.22171e-10
-1.05205e-08
5.94692e-06
2.70788e-07
6.09294e-09
-0.000113173
5.89905e-09
4.83279e-06
6.30074e-09
-1.60241e-08
-1.53201e-08
2.50916e-09
6.48197e-05
-5.81803e-10
7.14954e-07
1.89098e-05
-1.14773e-07
9.23828e-09
1.28093e-07
-9.046e-05
8.13456e-09
-7.89171e-07
1.5854e-08
-4.10858e-05
-5.52709e-06
-5.22899e-06
-5.8685e-10
-4.80269e-05
-9.80835e-09
-2.5602e-10
-8.33921e-10
-1.47776e-09
-2.94059e-05
-4.65849e-07
0.000357394
-1.73445e-07
1.84636e-07
1.08045e-08
-8.05311e-09
-3.96069e-10
1.16509e-08
-0.00154322
2.35875e-06
-2.00994e-05
1.40434e-10
-3.03928e-05
-2.72856e-07
-7.31801e-05
9.59799e-07
-0.000562755
3.6512e-06
7.46067e-07
-8.41648e-05
3.67013e-05
0.000118322
-3.77612e-05
9.36194e-10
-0.00151717
-0.000638047
5.3122e-07
-0.000177095
-0.000568931
-0.000153412
3.68433e-09
-0.000460129
-3.81515e-08
-1.38538e-06
-1.90652e-07
-9.09699e-09
-7.2244e-10
-2.3115e-10
-3.94694e-10
2.71353e-05
1.17601e-06
1.58483e-08
2.33409e-09
-2.50832e-09
3.41696e-10
0.00625738
9.76159e-10
-1.03363e-05
5.71816e-07
-1.76197e-06
9.09656e-09
7.18358e-06
-4.15899e-06
3.83613e-09
-5.36096e-06
0.00120195
3.9032e-05
-2.1889e-05
3.49049e-11
-6.57015e-09
1.48124e-07
-1.76047e-08
2.02733e-08
-0.00131689
6.81739e-09
-0.00057385
-0.000102192
2.09955e-07
5.36507e-09
-2.16373e-10
-3.01538e-06
4.39047e-08
0.00479316
-3.95412e-09
5.06604e-07
-7.32155e-07
9.10535e-10
-7.52309e-05
-0.0209264
2.33502e-08
-4.2145e-08
-1.04099e-09
3.22765e-11
-8.91835e-10
3.69125e-07
3.14204e-07
0.00114053
2.36334e-08
8.00332e-08
0.000109315
3.0641e-08
1.14315e-08
1.70004e-09
5.16833e-06
-3.72675e-09
-2.15328e-10
-1.01325e-09
-4.47524e-05
-3.49499e-09
1.11317e-08
1.00219e-08
-1.94114e-12
2.43287e-08
-9.38747e-10
-4.38457e-10
-6.64829e-10
-0.000310786
-5.05008e-09
-7.57687e-09
-0.000110689
-9.6279e-09
-1.6128e-08
1.35944e-06
-6.34839e-08
-4.56925e-10
2.75713e-06
0.000417261
-0.000183274
5.98642e-10
-9.72612e-05
-3.51733e-09
2.56006e-06
1.06118e-09
2.65648e-07
0.00576998
-5.91144e-08
5.23609e-09
-3.79527e-05
-1.56837e-09
-3.15461e-09
-9.66466e-10
1.06198e-08
-2.05694e-05
1.82939e-08
-2.33643e-10
5.29371e-05
-1.24592e-09
1.62788e-08
1.9284e-06
1.79857e-11
1.17435e-08
-4.21233e-06
5.24118e-05
-1.97177e-09
2.81578e-10
5.81851e-05
4.31113e-05
5.11147e-07
-1.6654e-09
8.08281e-05
-1.44878e-05
4.0202e-05
-1.01169e-09
-1.69595e-08
3.79446e-09
-1.44028e-09
2.17944e-08
2.59423e-07
-1.53778e-05
-1.37383e-09
-2.69202e-09
-4.69358e-10
2.22572e-09
5.25142e-05
7.3282e-06
5.47952e-05
8.1426e-09
2.03713e-07
1.07646e-09
-0.000117406
-1.12184e-06
-2.63303e-05
-7.51735e-09
-8.01383e-05
-1.40051e-08
-6.72421e-09
-5.62447e-09
-1.79235e-08
1.27661e-08
3.35283e-09
-6.20643e-07
2.72648e-05
-7.45764e-08
-9.19917e-07
-1.14924e-08
1.21551e-06
2.55301e-06
3.68143e-07
-8.06402e-10
9.21128e-05
-0.000155276
4.63801e-09
3.55481e-06
2.20472e-10
-6.9618e-09
4.95585e-05
9.50741e-07
4.95882e-10
3.82437e-05
-3.15504e-10
0.00011454
7.91659e-07
6.06909e-07
-8.95465e-07
1.15681e-08
-2.55493e-08
-1.31406e-07
1.63471e-09
1.15447e-06
1.82846e-08
2.87338e-05
4.41624e-08
-0.00133714
-0.000482749
-2.32832e-10
5.44384e-09
-5.78804e-09
-2.81513e-09
4.06547e-08
-3.43417e-09
2.33625e-09
1.11828e-05
-5.28189e-07
6.55296e-08
2.16234e-05
1.34221e-08
-1.51338e-06
1.10466e-09
-4.48505e-10
5.33777e-07
-1.16598e-09
-1.55396e-07
-4.72436e-07
6.57038e-07
5.48142e-07
7.2186e-05
1.36567e-08
8.70968e-07
-0.00224518
-5.30221e-07
5.41945e-06
-3.42265e-09
0.00277573
-3.84706e-08
1.40903e-08
-1.00198e-06
3.25492e-07
-0.000119646
1.62193e-06
8.35297e-05
5.82777e-10
1.41382e-08
-9.67686e-05
-3.99021e-09
1.01936e-08
9.95819e-08
5.96783e-07
-0.000486755
4.07058e-09
7.07141e-08
-1.09208e-08
-7.862e-09
8.16169e-11
-1.7817e-09
-0.000188287
3.86741e-07
-9.60438e-09
-9.71284e-07
-0.000138528
-1.08788e-08
-0.000187402
-0.00850871
-1.48447e-07
-4.52337e-06
-1.34606e-07
9.45909e-08
-7.0975e-08
2.20033e-05
1.46055e-07
-8.6995e-09
4.3155e-05
-8.43645e-10
3.0039e-09
-9.53626e-10
0.000215524
5.6809e-11
4.39483e-08
1.26909e-08
-0.000133501
1.55796e-08
9.15279e-10
1.92904e-08
0.000370741
-2.06796e-09
-1.78089e-08
4.82773e-09
8.75295e-08
-6.70146e-09
-0.00217193
1.3116e-08
-3.25534e-09
-2.77455e-06
1.57816e-08
-1.26031e-05
-3.00085e-10
1.11326e-06
7.4574e-05
3.12903e-05
-4.67251e-09
1.31115e-08
-3.09492e-09
-6.19178e-09
-3.95203e-08
2.15014e-08
-1.05297e-08
1.46328e-08
6.26319e-08
3.78919e-09
-0.000532142
3.35046e-09
-1.41484e-08
1.56126e-10
-1.03719e-08
1.38953e-08
3.65644e-09
4.99484e-09
-1.89849e-07
1.16844e-10
-2.1611e-10
-3.83025e-10
-3.14211e-06
3.45049e-08
-0.00108941
1.1197e-08
-0.000102495
-0.000208492
2.13935e-07
6.81901e-08
1.01177e-07
-8.41719e-10
0.00088467
0.00012378
0.000104895
-0.00156897
9.77576e-08
-1.70832e-06
5.12532e-07
-1.31534e-07
-1.56318e-07
2.95143e-09
4.12303e-09
1.35534e-07
2.48579e-05
-9.45567e-08
3.21853e-08
-1.28563e-09
1.03844e-07
1.35805e-10
-0.000107467
1.61285e-10
-2.32845e-08
2.45167e-09
0.00079439
1.14491e-08
0.00292907
-3.57721e-09
6.46934e-07
-6.66679e-10
2.36679e-09
0.00738378
0.000279706
8.05024e-07
4.46239e-08
2.68228e-10
-4.70843e-09
-0.000107566
-0.000152835
7.76009e-05
-1.51413e-08
1.19407e-06
-6.38254e-09
2.48947e-08
-9.00097e-10
9.45362e-07
-3.40094e-09
-6.70575e-09
-1.08459e-08
-3.13689e-09
2.8407e-06
-3.44848e-09
-6.44995e-09
2.77798e-10
9.85936e-09
1.05213e-10
-7.37699e-09
-0.00100695
1.46538e-08
-0.000133152
0.114193
-1.00197e-08
9.07399e-08
1.87067e-09
-3.19919e-09
9.04394e-09
0.00480046
-0.00725396
6.29039e-09
2.61377e-10
1.18704e-08
-0.000533847
-0.000596142
5.24253e-11
-1.61732e-09
4.82874e-08
1.56612e-09
-0.000110592
1.42755e-06
-3.19619e-09
2.02419e-08
1.18555e-06
-1.41324e-05
-1.73259e-08
9.1297e-06
0.000108436
-1.27406e-09
1.98628e-07
1.44974e-08
-1.88175e-05
-3.3183e-05
-3.34011e-09
-8.4731e-10
8.39543e-06
5.76642e-05
-2.77819e-09
-1.00604e-07
1.02641e-08
-4.82039e-09
0.000750628
-9.72225e-09
1.15289e-08
-1.41453e-09
-6.42758e-06
3.69781e-07
2.27972e-08
5.42015e-07
1.57884e-08
-1.67953e-08
-5.56674e-08
2.42719e-05
4.30862e-09
-0.0014163
-2.49588e-06
-4.79893e-09
-2.94166e-09
-1.45634e-08
-2.4734e-09
1.67289e-07
-6.2814e-09
5.82784e-10
6.99981e-07
-0.00159513
-1.63065e-07
8.66896e-11
3.89208e-07
6.80169e-05
-1.40677e-09
-4.43195e-05
1.38814e-08
-4.46999e-07
2.69592e-07
4.20978e-05
3.81841e-10
-0.000596781
-4.60216e-09
-1.46979e-09
3.16848e-10
-9.52824e-09
-4.72359e-10
-4.04027e-05
-1.30678e-09
-2.61179e-09
-1.88835e-06
-1.0958e-09
-5.65097e-09
-0.000102656
-1.20595e-09
4.90341e-09
-4.3702e-10
-3.60534e-07
6.35124e-05
-0.0475598
-0.000330904
0.00156898
4.48102e-06
7.2749e-09
2.11813e-08
-6.09273e-07
-4.59399e-07
-9.23302e-06
-0.14397
-1.73563e-09
-1.45762e-06
0.000103026
3.09438e-09
8.41664e-05
3.08854e-09
4.80448e-09
2.02245e-08
-1.30375e-08
-1.81058e-10
-6.12236e-09
4.03944e-06
7.78296e-05
-3.80264e-06
5.72968e-07
7.13239e-10
9.85069e-07
4.42981e-08
3.25849e-09
0.000664923
-2.68538e-09
-4.81014e-09
1.84073e-05
1.57385e-09
8.77436e-08
-9.73588e-10
3.66782e-08
-9.81816e-06
-1.44674e-07
1.90177e-09
2.45652e-08
0.000103638
0.00105697
1.23914e-07
0.000396523
2.09258e-08
1.32283e-08
-1.19049e-05
3.78997e-08
3.5231e-09
0.00150091
-0.000463057
-1.21044e-09
-1.18224e-08
9.27934e-08
3.08811e-07
-8.93659e-08
2.47869e-07
-8.74418e-10
6.65899e-05
-6.85206e-07
-1.45091e-09
-1.08567e-08
-5.74459e-09
-8.19202e-09
-7.73674e-09
1.15358e-07
-6.87016e-06
-1.50466e-08
-5.87205e-08
2.07172e-08
-1.50602e-09
-8.88986e-05
3.21278e-08
0.000978046
3.4399e-07
-7.97774e-05
-6.06499e-08
1.92177e-06
-0.000118832
6.28669e-09
4.73119e-08
-0.00176071
8.13084e-05
-2.50541e-06
1.66395e-07
0.000108378
6.77674e-08
-6.81149e-05
4.05922e-09
6.50734e-05
1.5322e-09
1.13684e-08
1.54265e-07
-1.17937e-07
-1.23371e-09
8.85357e-08
-1.93636e-07
-1.10529e-08
-7.16849e-09
-0.0426803
7.76796e-09
3.99455e-05
3.49146e-07
-8.83161e-09
2.39407e-05
-3.71379e-09
2.22689e-08
0.00078527
2.94479e-05
8.97306e-08
5.14509e-07
0.000487115
1.93037e-09
2.33479e-10
-8.31941e-05
4.37837e-08
0.000598982
-3.26849e-09
1.0741e-08
-8.18283e-09
-5.1294e-10
4.62119e-08
3.92057e-08
1.69157e-09
-1.07228e-06
-4.27678e-09
1.97867e-07
-4.39475e-09
2.89246e-05
-0.000102616
-1.15037e-09
-1.84723e-08
8.84669e-09
-2.47876e-09
-6.09532e-06
1.50884e-09
1.9694e-06
-1.05052e-05
8.65217e-09
4.81537e-09
0.0132756
-0.000921025
1.86374e-08
2.43991e-08
1.02173e-08
-1.50197e-09
-2.47535e-10
5.35941e-05
-1.54195e-09
0.000136682
1.84144e-07
-5.11074e-06
-1.4406e-08
-3.31956e-09
-3.33392e-08
-5.70634e-08
1.69864e-10
1.78512e-05
-0.0250211
2.61143e-06
-6.11661e-10
-4.37507e-10
-4.05e-06
6.38111e-05
0.000109839
1.90211e-10
-1.08517e-09
-3.94033e-05
-1.5672e-08
-9.51589e-05
1.51376e-09
-2.72986e-09
2.00708e-08
6.84171e-09
4.0214e-09
3.92118e-10
-1.49428e-08
9.62888e-06
-3.88214e-10
9.356e-09
1.11114e-07
-4.25024e-09
-3.65958e-10
-8.55768e-09
0.000942034
1.86797e-07
0.000660536
1.32316e-08
-0.000181705
-8.56228e-09
-1.07945e-09
1.26044e-08
-4.36545e-08
-4.84137e-07
9.31484e-09
-5.01533e-05
-8.24813e-08
1.62435e-08
-1.38434e-08
1.14585e-07
-1.88098e-10
6.28983e-07
3.18015e-07
3.98968e-05
1.90491e-07
-3.40404e-08
-2.18335e-05
-5.38452e-08
-1.63186e-09
5.83611e-08
7.18346e-06
2.58074e-10
-7.71165e-06
3.88154e-05
3.85853e-09
9.1589e-08
2.94248e-07
6.92344e-10
9.11695e-09
-8.9241e-10
1.51197e-09
2.63658e-05
2.9052e-07
9.09619e-07
2.71845e-07
-4.10562e-09
0.000103135
3.42098e-09
5.5673e-09
2.46462e-09
2.34103e-08
-1.37861e-05
-0.02642
-3.91369e-08
-8.79041e-10
3.27027e-07
-3.58701e-07
-7.86441e-09
1.51671e-05
2.98564e-10
9.24726e-07
1.62499e-08
-2.05158e-05
-2.01433e-05
9.9131e-09
4.23994e-07
-8.4312e-10
1.17016e-11
-1.24647e-08
1.15302e-08
-8.05122e-08
-1.24527e-07
8.67875e-09
3.79635e-05
-6.82419e-05
2.76728e-06
5.58082e-08
1.51153e-09
5.23763e-05
-3.23386e-10
-6.89042e-05
6.17355e-09
7.12556e-09
-2.16369e-07
3.76284e-11
4.74792e-07
3.8824e-09
-2.66211e-06
5.44728e-10
-3.60079e-10
3.96521e-09
-9.49862e-09
1.92919e-07
-8.5765e-09
2.90155e-07
-5.15585e-10
-0.0281131
-5.76669e-10
-0.000254725
-7.4238e-10
-1.46325e-07
8.80865e-09
1.31803e-11
4.98498e-07
-2.68026e-09
6.68093e-11
3.44884e-08
1.04726e-09
-9.82778e-08
1.47991e-08
-6.82348e-06
5.64735e-07
0.000760826
1.57234e-10
-7.2562e-09
-5.40535e-09
1.99746e-08
4.70381e-08
0.000109068
1.9145e-08
7.97682e-11
5.83845e-11
3.13803e-09
5.1613e-07
-0.000285387
2.08854e-11
2.27466e-06
-2.87445e-08
0.000328833
9.3997e-06
2.15096e-05
3.36897e-12
1.3644e-08
1.13113e-05
3.86133e-07
-0.00154389
-1.42572e-05
1.08463e-07
-3.33251e-11
1.25558e-07
7.57843e-11
-1.48737e-08
-2.24789e-08
7.89137e-09
0.000704821
1.11833e-05
-9.07746e-08
-7.23535e-09
1.42116e-05
1.87682e-11
0.000693263
-9.02782e-06
8.25097e-05
-3.74412e-09
-7.4593e-09
-9.55287e-05
3.61308e-08
-3.84886e-05
-1.00594e-06
-2.30692e-07
9.92664e-05
8.54767e-05
-6.47808e-10
-3.57176e-09
0.000710485
9.8055e-09
-1.45372e-08
-8.77056e-06
-1.79342e-08
-4.47122e-08
-4.54669e-09
-9.73266e-05
1.25445e-09
-3.63583e-09
-9.22865e-09
1.18663e-09
1.75478e-05
3.37576e-08
9.33474e-05
1.42628e-09
-2.73607e-10
8.28733e-09
-4.12264e-09
1.34012e-07
1.78572e-10
-1.88246e-09
-8.53111e-09
-3.18518e-07
-1.60633e-07
3.08591e-09
-4.71285e-09
1.18147e-08
1.30202e-07
-3.55432e-07
6.41071e-07
6.63849e-09
1.53081e-09
-1.22987e-08
-2.49766e-09
2.14538e-08
-7.49033e-09
9.67095e-08
0.000509637
1.44031e-08
2.54061e-07
9.85817e-05
6.50704e-09
5.80236e-07
-7.39634e-05
-2.69749e-10
1.41466e-11
1.50632e-09
1.42279e-09
-0.00012061
-1.88512e-08
4.90092e-05
4.82623e-05
4.80461e-08
-5.42043e-08
7.9495e-09
9.21432e-08
-3.26418e-08
2.8518e-09
5.7877e-10
-1.37724e-08
2.36389e-08
-2.05323e-09
7.03776e-06
0.0398315
2.33201e-08
2.62466e-09
-8.18954e-10
1.02751e-08
0.000118289
4.34327e-05
7.6925e-11
-4.10607e-09
0.000105979
-9.97677e-09
-6.07638e-05
1.11696e-05
1.28094e-05
-0.00156649
-0.00172357
-4.34524e-09
9.21137e-05
-4.57395e-05
-4.09266e-05
6.27527e-09
-1.96611e-09
-1.25575e-07
1.43856e-07
6.11366e-07
-0.000101136
1.6422e-08
5.83793e-08
-1.16903e-09
-1.34964e-09
0.000182879
6.04591e-09
1.85553e-08
0.000850162
8.79026e-09
4.16516e-07
-1.11935e-06
-5.71169e-10
9.54047e-10
1.4329e-08
-7.76444e-07
-2.26507e-05
9.32309e-05
-1.6483e-05
1.54582e-09
2.20215e-08
6.77468e-07
1.89244e-08
-1.39571e-08
1.11094e-11
-0.000109719
-6.33761e-07
2.55733e-09
0.000332444
-9.11575e-10
1.21346e-08
-8.35853e-10
1.50727e-06
6.76335e-06
-4.76323e-05
-1.32063e-09
-5.80238e-08
0.0206218
-5.95328e-08
-2.48073e-11
5.08928e-08
-1.04954e-09
-2.63421e-09
2.04581e-08
-5.41506e-11
-8.05107e-06
1.39211e-08
-6.60323e-09
-3.42287e-05
-1.72046e-09
8.83779e-05
2.61869e-09
1.83277e-09
-1.79341e-07
-2.15198e-10
2.09656e-08
1.57957e-06
-7.40422e-10
8.41393e-05
-3.34458e-09
-1.21318e-05
6.57282e-07
6.11606e-05
-9.78153e-06
1.2606e-08
7.756e-09
-7.37213e-10
2.24352e-08
-0.00159894
-6.66371e-10
-5.61486e-10
1.84908e-08
-0.000430947
3.82943e-06
-0.00138634
5.47142e-10
4.77171e-07
0.00111392
1.38448e-10
6.29832e-07
1.58727e-05
0.00296728
-1.09326e-08
-1.34671e-08
1.34009e-08
-1.79638e-08
2.08576e-08
2.55377e-06
-1.38004e-09
1.01456e-09
-1.49813e-09
7.7466e-08
-2.40361e-07
-1.03562e-07
-1.79175e-08
2.92379e-07
-7.47976e-10
3.86089e-09
-6.55961e-09
-2.84625e-08
-5.74061e-10
-7.24581e-06
2.09739e-06
-4.49478e-07
-5.77166e-10
6.01855e-05
-3.22883e-09
-8.72113e-09
-4.99162e-10
9.72773e-09
1.32119e-07
1.92546e-06
5.86848e-07
-4.31172e-09
-1.45484e-08
-3.82046e-10
-1.21073e-05
-4.05746e-07
1.67304e-06
0.000102436
1.81999e-05
6.8472e-06
-1.71386e-08
-2.66548e-09
2.00612e-08
1.50516e-08
4.39959e-10
-1.57533e-05
2.58802e-09
6.18948e-09
3.64667e-05
0.00011349
0.000124624
-2.24955e-10
-9.24582e-07
4.70392e-11
-9.66958e-09
6.69478e-07
4.49061e-05
-1.11124e-10
0.00521238
-1.35373e-08
1.35809e-07
8.92711e-09
8.40307e-09
2.42209e-07
3.99761e-09
1.25779e-09
-2.73381e-07
5.80861e-05
-5.73442e-09
-3.05167e-05
-5.21046e-05
-0.000683573
1.19488e-08
5.7067e-09
0.000112944
2.9443e-09
9.57221e-06
-1.32897e-08
-1.17596e-09
0.000100315
1.5465e-07
6.1725e-07
0.0011314
-8.09657e-08
-1.06928e-08
5.21292e-09
3.64921e-06
1.24741e-08
-7.08479e-05
-0.00010118
-6.71022e-05
-2.6604e-05
2.95798e-07
-1.49915e-06
3.41378e-09
-5.89767e-09
9.38206e-06
-1.91386e-08
-1.42773e-08
-7.80285e-11
-4.90861e-07
2.10824e-08
1.51388e-08
5.99942e-07
-1.3009e-08
4.9551e-09
-0.000378597
-1.21004e-07
1.02029e-08
0.000104604
5.72771e-07
-1.96164e-09
1.81844e-08
1.36412e-08
-8.86071e-09
-0.000100983
-0.000340656
-7.90416e-06
-8.80446e-09
-1.73862e-09
-1.85613e-07
-6.85781e-07
1.82837e-08
-9.09663e-08
1.34504e-08
-0.0114527
4.51712e-09
5.6499e-08
9.09622e-10
-5.51138e-08
8.67792e-11
-6.65176e-05
-2.78302e-07
-1.53534e-05
6.1734e-07
0.00602817
5.51907e-07
-1.10145e-07
-4.96732e-11
-9.68708e-05
2.54381e-07
-1.77686e-09
-1.54724e-05
4.32533e-07
-6.07317e-10
2.09561e-08
-6.12141e-11
9.3537e-09
-7.29491e-05
-3.78976e-10
3.15886e-07
1.47783e-10
8.89796e-09
1.5433e-07
0.00111717
-1.0262e-09
-0.000163619
1.32515e-07
0.00100134
-2.23938e-09
-1.47747e-08
3.43172e-11
1.71609e-07
-4.61036e-11
-9.29724e-09
-5.76415e-09
9.44551e-10
7.68904e-09
5.02073e-08
-4.61454e-09
-0.000132565
-1.61226e-07
-3.31268e-07
-7.75776e-10
-9.60173e-05
-1.17261e-09
-2.84498e-11
6.35543e-11
6.90141e-10
4.7675e-08
1.44745e-08
1.13423e-08
8.82727e-11
9.7707e-11
-5.12016e-09
5.90194e-06
-1.47045e-10
-1.05016e-08
-1.34609e-07
1.78549e-07
-0.000424559
-9.68437e-05
-2.64671e-07
-3.5489e-10
1.14078e-08
-2.76591e-07
1.75173e-10
4.25503e-06
7.77419e-11
-3.66732e-07
7.07087e-09
8.70789e-05
-6.74349e-08
-2.86977e-05
1.24577e-08
-3.30089e-10
2.82721e-09
3.67464e-05
2.3158e-06
7.96565e-10
-0.00142683
-4.30507e-09
2.22111e-06
2.58433e-09
7.42772e-05
-9.80926e-05
2.14743e-09
2.97834e-09
-9.39523e-09
2.98524e-08
-8.64399e-09
1.85451e-08
-6.85899e-05
0.000103169
8.30771e-09
5.62445e-05
-3.64685e-09
-7.61498e-10
2.55503e-07
0.00506427
5.8125e-08
-1.0641e-06
-3.19558e-05
-2.40711e-09
-3.37163e-06
3.42256e-05
0.000140587
7.2275e-05
1.92798e-08
1.00537e-05
3.43542e-05
3.76191e-06
-0.000142735
6.17328e-05
-1.50462e-05
5.1343e-06
8.7372e-10
-0.00151297
1.78538e-07
-2.2606e-09
5.55325e-07
-5.42391e-05
1.86161e-08
6.0176e-09
5.43365e-08
4.122e-07
-0.00106429
1.35769e-08
1.19112e-08
2.29126e-09
-2.9689e-06
-0.00159046
-8.47954e-08
2.06926e-08
-1.27954e-09
1.02296e-06
1.77401e-10
0.00258301
-1.08223e-08
-1.23397e-09
-0.000100128
4.93553e-09
4.2001e-09
-2.48066e-10
-6.74963e-09
1.13716e-07
-1.25203e-08
1.24593e-05
8.69065e-05
0.000113585
-6.37894e-09
1.24821e-06
-2.04531e-09
9.58916e-08
1.29459e-08
-2.59701e-09
7.35452e-10
-7.8981e-05
2.66595e-06
5.77905e-10
2.2083e-08
1.4763e-10
-1.32554e-09
2.72058e-07
-2.37909e-05
-3.52225e-07
0.00187485
2.34126e-06
-3.43963e-08
7.6321e-10
-3.61128e-10
4.72666e-09
9.49586e-07
2.21847e-08
0.000687552
-9.16787e-08
-1.08235e-09
-0.000444627
3.86045e-07
-1.98043e-07
-0.000108596
-1.8058e-06
-0.000170288
1.69518e-09
7.83796e-05
-2.00577e-09
1.03829e-09
-9.26519e-09
-1.04738e-09
-0.000132656
1.8136e-08
-0.000100722
-9.65875e-09
9.75712e-10
0.000114841
-8.72507e-06
-4.53198e-06
-3.93576e-11
0.000179722
-0.000119355
1.03713e-06
2.29497e-07
-8.83301e-05
3.33211e-09
-1.30294e-08
3.3208e-09
-1.38577e-08
-4.89069e-09
8.56451e-09
-0.000106633
-9.09529e-09
7.20639e-09
-0.00179492
1.09875e-08
-1.25749e-08
3.247e-09
-1.29784e-07
-1.41179e-06
1.80072e-09
-2.6417e-07
8.98611e-05
4.3321e-09
1.19701e-09
-9.00602e-07
-1.09653e-08
9.31277e-09
-0.000234857
2.14498e-07
-2.22293e-05
-6.49348e-07
-3.67707e-09
-7.96582e-08
-1.13225e-08
0.000700016
4.68013e-08
-4.61413e-10
-1.32505e-08
1.34719e-09
-1.62894e-06
9.63383e-09
-1.88029e-05
-1.92828e-10
7.05916e-09
-5.20954e-07
-1.10605e-08
2.636e-07
1.71827e-05
1.17157e-05
-2.44927e-06
2.72361e-05
-1.30021e-08
0.000190163
-2.12151e-09
-3.47116e-09
-0.00158739
1.87569e-07
9.24697e-08
2.21456e-07
-1.78676e-08
7.34722e-09
-1.52336e-08
9.82689e-08
1.14921e-09
-2.45836e-07
-1.19348e-09
-0.000384885
-1.352e-08
4.74781e-05
-0.00137207
0.000120226
-3.19294e-05
9.00359e-07
1.32246e-10
-7.55586e-07
-6.54661e-05
-4.41159e-09
-2.49528e-10
4.21608e-05
1.66408e-05
-1.72559e-07
-0.000372521
-1.78899e-09
-2.86677e-05
-1.8396e-05
-1.19792e-08
2.17759e-05
1.09543e-09
1.88212e-09
2.73087e-10
2.20027e-09
-3.89901e-09
1.73311e-08
-0.00158814
-1.82482e-07
1.91321e-08
1.85826e-06
4.85837e-09
2.04525e-07
9.20763e-09
1.24499e-10
-2.68978e-05
5.41906e-05
-7.72405e-05
-2.90238e-09
-6.51308e-07
-2.58457e-05
-1.45841e-06
-6.68375e-05
2.08372e-10
-1.90666e-09
-1.86229e-10
1.91554e-09
1.4276e-08
-1.87896e-09
-1.51339e-08
7.26577e-10
2.2594e-05
8.25503e-06
-0.000499716
1.35916e-08
2.48122e-07
-9.1702e-05
-1.76591e-09
-1.73161e-08
-1.94882e-06
7.36377e-10
1.9809e-08
3.5386e-09
-1.95787e-05
7.45072e-05
-1.18318e-06
-3.13579e-09
3.11387e-07
9.90647e-05
2.46856e-07
-9.26358e-10
4.73102e-07
-8.23451e-09
-2.1933e-07
0.000101279
9.26849e-05
-3.02578e-09
1.38988e-08
-3.20959e-09
-1.05019e-08
3.27027e-09
-3.49096e-09
9.96483e-10
-3.02138e-05
-6.40285e-05
1.0169e-09
-1.74747e-10
-0.000103213
2.54636e-09
-1.90785e-09
-1.78067e-09
2.24579e-07
2.59236e-05
2.27547e-08
-1.83018e-09
7.77362e-11
3.57516e-06
6.90041e-09
5.98751e-06
1.13731e-07
-8.9527e-08
-1.19818e-08
4.69817e-09
1.14882e-08
-2.36461e-07
4.95067e-09
3.03121e-05
9.51836e-06
-7.05207e-10
-1.84163e-09
-4.25006e-09
-2.36385e-07
-1.3923e-07
-1.53573e-09
5.69026e-06
-9.71331e-06
-1.01006e-08
2.79715e-05
-9.2137e-08
2.19907e-09
5.03144e-09
6.88504e-08
-1.06129e-08
3.91736e-09
1.81685e-08
-6.65384e-05
-0.00161302
-9.42253e-09
-3.19671e-09
6.06526e-05
4.04533e-07
-9.40753e-09
2.40037e-09
2.11533e-08
1.65732e-06
4.96479e-07
-0.000110776
-6.652e-05
1.17169e-10
9.90564e-06
4.08382e-11
2.54473e-07
-1.1357e-08
-1.77724e-08
-2.92905e-06
9.36555e-09
2.266e-05
1.03429e-07
1.54178e-05
2.67744e-09
1.54046e-09
-1.48024e-08
2.56661e-09
-0.00174658
-8.05211e-07
1.1952e-05
4.69944e-11
3.56573e-09
2.47347e-08
-2.62039e-09
-1.61875e-07
-1.22694e-08
-9.11109e-05
-1.35155e-09
-5.0055e-07
0.00296392
1.88806e-08
5.09106e-07
-1.15959e-09
3.91872e-07
9.59535e-07
-5.85987e-06
1.77306e-08
2.02059e-09
1.44313e-09
5.80735e-09
2.01677e-08
-5.10445e-10
-2.14692e-08
5.05978e-09
1.72198e-10
3.22233e-07
9.16207e-06
6.08608e-10
1.48687e-06
1.84486e-05
2.13283e-05
-4.35858e-09
5.08557e-05
8.26211e-09
7.74424e-05
-1.83648e-07
1.79147e-08
-6.602e-05
0.000109197
-1.44971e-06
3.13948e-06
2.31794e-05
2.0286e-09
-3.67826e-09
-1.92899e-09
1.48124e-08
8.98389e-09
-3.35625e-09
7.14774e-07
-4.5066e-08
-0.000121065
-0.00128234
-2.59393e-06
6.84761e-11
4.02931e-08
-0.00153834
-8.9051e-05
2.14786e-08
-2.40926e-05
-7.60246e-10
-6.79423e-08
3.34647e-05
6.15594e-07
3.60766e-05
-0.00339273
-7.30229e-10
-0.000122
-1.13468e-09
0.000107238
3.60049e-09
1.72844e-07
-9.64448e-05
-1.78889e-09
4.50284e-07
2.65307e-05