/*--------------------------------*- C++ -*----------------------------------*\
| =========                 |                                                 |
| \\      /  F ield         | OpenFOAM: The Open Source CFD Toolbox           |
|  \\    /   O peration     | Version:  v2012                                 |
|   \\  /    A nd           | Website:  www.openfoam.com                      |
|    \\/     M anipulation  |                                                 |
\*---------------------------------------------------------------------------*/
FoamFile
{
    version     2.0;
    format      ascii;
    class       volScalarField;
    location    "400";
    object      ddt0(omega);
}
// * * * * * * * * * * * * * * * * * * * * * * * * * * * * * * * * * * * * * //

dimensions      [0 0 -2 0 0 0 0];


internalField   nonuniform List<scalar> 
54593
(
4.85233e-07
-1.82444e-05
-1.2366e-08
-0.00556471
-0.00692226
0.00788857
0.119416
-0.000208558
-1.76951e-05
-9.19162e-07
-2.4817e-06
-0.130956
-0.00439795
4.0405e-07
0.00378195
-4.14927e-08
-0.000215769
-0.00329649
-9.16152e-07
-5.92716e-07
-3.60171e-08
7.84975e-06
-8.67013e-07
0.0484543
2.33142e-08
0.000657884
4.18607e-07
4.07919e-05
0.0289977
-9.00479e-07
0.000785002
-0.00588933
3.09694e-07
-0.00856875
-0.00559961
-9.76841e-09
-0.000906928
-6.03437e-06
1.02145e-06
7.74371e-06
0.000142194
1.37527
-1.45825e-07
4.93601e-07
0.0248248
-1.41668e-06
0.000295316
-0.00291253
1.20739e-07
-8.2417e-05
2.94915e-07
9.34919e-08
5.62873e-06
0.00984428
-1.03193e-05
-3.70942e-07
0.100616
-1.62296
9.53686e-05
0.00240383
-1.31915e-07
1.64783e-05
4.05052e-07
-0.0083352
1.06159e-07
-3.02254e-07
-0.00958379
-0.00886348
-0.013658
-0.0139854
9.04e-08
-0.00225481
1.58015e-07
-0.00959638
-1.41739e-06
1.04339e-05
2.52281e-05
0.113563
0.00542956
-0.0348297
7.63786e-09
0.00425226
4.65182e-07
-0.00624196
-1.87877e-06
-0.0110654
0.0284275
0.000261679
0.00610536
-3.00425e-08
-0.0173593
9.92971e-06
0.00466565
0.00534773
1.08333e-05
-0.0170189
-0.00402867
0.0226921
2.16877e-07
-2.71404e-05
-1.79648e-06
-0.00357906
5.1573e-08
-7.23388e-08
-0.00575739
-0.000344515
-0.000299176
0.000251305
9.77952e-06
-0.0104005
0.0194546
-8.6057e-09
-2.72163e-08
0.000743541
9.49706e-07
0.00054251
-0.0131236
-0.00922621
-0.00718274
0.002688
-0.00898847
8.855e-09
0.015733
-1.57857e-05
-1.09785e-07
-0.0367966
-7.68529e-05
-8.43181e-08
0.00465835
-0.0257398
-3.73871e-07
-2.42548e-06
1.22309e-05
-1.20248e-08
9.12534e-06
-0.00197376
2.00159e-07
-0.0061276
-7.2655e-08
1.78051e-08
0.0194421
-0.00372168
1.13156e-05
-11.7128
1.15268e-05
0.00698381
0.0150222
-0.000820033
-0.00482738
3.49211e-07
-0.000550087
-1.18343e-06
0.000366795
-0.027409
-3.19717e-07
0.0338596
-2.0055e-06
0.0342626
-0.00197654
3.32255e-07
-0.951606
-7.39548e-07
0.0210073
-0.00533047
3.57189e-05
5.95562e-07
-1.96403e-08
-5.42491e-08
-0.000936184
-3.98453e-12
0.000421253
-0.00144651
0.00616446
9.31023e-09
2.39279e-05
2.74267e-07
0.0242483
2.90664e-06
-1.28377e-05
-0.000706942
0.00489991
-1.41319e-07
0.0319067
-2.06742e-06
3.38636e-08
-0.151597
3.14851e-07
-4.46935e-06
4.03887e-07
5.85255
1.98396e-05
-0.000844093
-0.0235641
2.20233e-07
0.0399722
0.0159839
9.05569e-07
-4.39054e-07
0.000717572
-0.00671771
7.50712e-06
-0.0309985
0.000200165
1.26342e-07
-3.04738e-06
-2.86206e-06
-0.0459885
-2.03664e-06
9.69271e-07
3.34267e-08
-6.01473e-08
3.89108e-07
-1.36858e-07
1.07148e-05
7.28989e-06
-0.00221059
-0.00498848
0.00142582
-0.0496496
9.08412e-07
7.85374e-06
0.315179
-0.327207
2.64731e-06
0.0061452
4.74343e-06
9.50628e-09
0.00705122
6.4681e-08
0.0109101
-2.38336e-05
9.98036e-05
-0.202006
4.06282e-08
-6.6491e-08
0.00324831
0.000398044
7.52878e-08
0.0454077
7.71341e-08
2.67245e-06
1.14564e-05
-0.00840103
-0.000743589
1.30774e-06
-3.39158e-06
0.0298541
0.0344626
-1.06345e-07
-0.784264
-0.00047429
0.0123526
0.0144395
7.76509e-08
-1.20528e-06
-1.33397e-07
-0.00539953
-2.07603e-06
-0.0138969
7.0261e-06
-0.00169284
0.00172506
-1.30104e-07
-0.00644699
5.54416e-07
2.5893e-07
-0.0425104
-9.27054e-08
-8.10713e-06
5.9604e-07
-0.0106512
0.0267873
1.93811e-05
4.6937e-07
-3.25945e-06
4.15274e-07
1.05863e-05
-0.00657724
-2.12437e-07
0.000265599
-4.89406e-07
1.89925e-05
4.2333e-06
0.0330119
0.0300175
0.00195285
7.74319e-06
-5.10661e-07
-4.08911e-05
-0.0788626
0.0127746
0.00240321
5.94065e-08
-1.52885e-07
0.000221174
1.4098e-08
-0.00720343
0.0676533
9.39492e-07
0.000342798
-0.077969
2.20332e-06
-4.99248e-08
4.60677e-10
6.5843e-07
-1.2299e-06
4.21168e-05
0.00169714
3.39213e-07
8.87362e-07
0.0131968
-0.000369152
-0.0447279
-6.65679e-08
0.000671159
-0.0467104
-0.100875
1.37007
-0.00202584
9.06586e-07
-0.00042612
-1.42627e-07
-0.00243966
3.28224e-05
-0.000454411
-1.16704e-05
0.0373075
2.41346e-07
0.00319102
-1.42115e-05
-4.97955e-08
8.77987e-06
-4.00612e-08
-5.71174e-07
2.92368e-10
-0.0010297
2.83908e-06
0.0145483
-0.0193908
8.04158e-06
-9.85634e-05
5.85682e-06
0.0262728
-1.84617e-06
-1.26641e-06
-0.0017855
-9.17208e-05
0.000457977
0.00111526
0.242485
0.0768623
-1.43039e-07
-0.000971734
-0.000235265
3.65945e-07
-1.2604e-07
1.43019e-05
-2.64684e-07
6.84894e-07
8.43431e-07
0.00177171
8.127e-06
6.68492e-08
0.00304936
0.00321786
-1.09629e-07
-2.71302e-07
1.16766
3.14996e-05
2.55069e-07
-1.789e-07
6.561e-07
-1.41466e-07
9.18903e-07
-8.87297e-07
-0.0157572
4.21434e-07
0.224163
6.88741e-06
0.0202194
-0.00415581
-0.00248828
-0.046652
0.0205121
0.000221919
6.64379e-05
0.0783809
-4.3431e-08
-0.00864442
0.00693511
0.122881
0.000109758
3.04853e-06
-1.13303e-07
-0.0401759
0.0210451
1.48103
3.06078e-06
-0.0560899
0.00018073
-1.03325e-06
-0.000209021
-0.00831623
0.00102528
0.00170963
-0.209631
1.42525e-07
0.010106
3.45447e-07
-0.00951021
-0.00490938
4.32037e-07
1.80828e-08
-0.00676149
1.00489e-07
0.0253488
4.83555e-05
8.79188e-08
-1.80125e-06
2.57811e-05
-0.00283055
0.0724498
0.000624893
1.35841e-05
0.0380123
-0.0461747
0.0422736
9.87347e-06
-0.00706928
0.000213224
-0.0364085
0.000115942
0.00265383
1.62039e-06
0.000152185
1.52465e-06
4.36959e-07
-0.00320728
0.0014624
0.00314761
0.00742524
3.81071e-08
-1.42981e-07
-2.6346e-07
0.0669527
0.000205302
6.13068e-07
3.14474e-07
0.000452538
-0.00482322
0.929392
0.0246345
0.062111
0.0005576
-0.00638024
-0.000810054
-0.000107555
-5.11824e-08
-1.8379e-06
0.00610165
5.69387e-07
-1.51436e-07
-0.000773157
-1.62757e-07
-2.82084e-07
-0.000155119
0.0120821
5.65597e-07
1.55595e-05
4.68687
-0.0444537
-0.0286979
6.07189e-06
6.62649e-09
0.0247185
-1.27091e-06
2.47441e-11
-0.00133742
-0.0763879
5.60343e-07
-1.45874e-05
1.12876e-07
0.000653827
0.000170444
6.70923e-08
0.778669
-0.00962673
0.00355715
2.85694e-08
0.0143509
-0.0015085
3.19584e-08
1.56395e-07
7.53645e-06
0.0372216
1.33125e-06
0.00703431
-4.30904e-06
0.00260869
-1.38488e-06
-0.244221
0.0358972
0.00481736
0.0133377
-5.1889e-07
-0.000697984
2.70412e-07
0.000235567
5.51105e-05
1.82996e-07
8.27872e-07
-0.00181351
0.0668127
2.77058e-07
-1.9759e-06
0.00818415
-0.00091741
1.07755e-07
0.0122906
4.84018e-07
0.000283337
5.26291e-06
1.26333e-06
6.41737e-08
8.61331e-07
0.000177364
0.0235763
0.0408576
-0.007271
1.19909e-07
0.0645608
-9.29308e-07
-0.00179523
9.03965e-08
-1.55928e-07
1.0593e-07
-0.0151335
8.97582e-08
-6.6465e-05
-0.00010961
-3.02416e-07
2.16085e-06
3.02316
0.0316603
-9.00889e-07
-4.65679e-05
-0.00101849
1.71366e-07
-0.124171
-2.73285e-07
0.046045
1.79321e-05
0.00599724
0.0144889
-0.000355806
-0.000397082
0.000443335
0.115417
0.00720651
-0.00910089
-2.48357e-07
4.15856e-08
-0.00116089
2.40927e-05
-0.00811507
1.3041e-06
-0.0357289
5.23081e-07
-4.08107e-07
0.000120844
1.09297e-07
7.72838e-06
-0.126569
-1.91414e-06
6.8768
0.0055542
0.00456837
-0.0338455
0.00892877
-0.0012278
2.47469e-07
-6.04149e-08
-3.64909e-05
-4.96341e-07
1.59725e-08
-1.32934e-06
0.000439325
-4.05677e-06
-0.00209397
1.21061e-05
1.96679e-06
-0.0119604
0.000195945
8.07154e-05
-1.98767e-06
0.0126785
0.0118664
-7.80153e-07
3.05981e-09
0.000271419
-0.00520563
5.82497e-06
2.3879e-07
-0.0146682
0.00932665
-0.0257299
-0.0789071
6.00268e-07
7.28623e-06
-0.000170794
0.00506105
6.45139e-07
2.74723e-09
-0.000251538
-0.000105042
1.81071e-05
2.66339e-07
-0.00904098
0.0128834
3.67054e-08
-6.7331e-08
-0.011027
0.000456589
0.000263716
-0.00355355
-0.00114255
0.00444785
-0.029735
-0.0151274
2.04768e-05
0.160576
4.3387e-07
-1.69554e-06
-0.000168033
-8.21666e-07
0.000156032
-0.00203023
1.46776
-4.07795e-06
-0.00697681
-0.000885446
-2.98058e-07
-0.0111677
-9.57295e-08
1.62144e-06
0.00908117
-0.0363775
-0.0337351
0.000219568
0.0357845
2.56482e-07
0.00259496
-0.0236642
-0.00751555
-7.67631e-08
-6.24467e-08
0.00358958
0.000252922
1.35782e-06
-1.06284e-08
-2.92825e-08
-7.79389e-07
0.0374742
0.00365339
4.20748e-07
2.5526e-07
-0.0410024
0.000463442
-1.66526e-06
-7.09605e-08
1.41594e-07
5.16155e-05
7.2067e-06
-6.84666e-07
-0.000420855
-0.0198616
-0.00769889
-3.00295e-05
-7.4808e-08
3.63177e-07
4.20484e-06
-4.44833e-06
3.97892e-08
0.00831159
0.0224209
-4.74798e-06
-3.95416e-08
-6.31619e-07
-0.0022626
-0.0100367
1.57293e-07
-1.70659e-07
-0.000300692
-3.42776e-06
1.6546e-07
-0.0135135
4.14048e-07
-0.0106701
-0.00369085
-0.000915427
-4.72997e-08
-2.46267e-06
-0.00747202
0.00113316
7.90212e-07
-0.00512285
4.45951e-07
-0.00646984
4.13036e-05
-4.33168e-06
-2.60677e-06
1.88349e-07
-0.00347585
-4.36932e-08
0.00535187
0.010784
0.000155497
5.61502e-07
0.000519325
-0.0736633
1.81377e-05
0.0369127
3.83967e-06
-0.0427033
-0.0120333
-0.00648618
-4.39925e-08
0.502063
-2.30998e-06
4.87266e-08
-5.8913e-08
-1.07956e-07
-0.0899284
-0.000746123
-0.0125811
-0.00215475
0.000694622
8.20403e-07
-1.2104e-05
-3.00254e-08
1.06654e-06
0.00199854
-0.0135421
0.207008
1.07469e-08
0.00711556
-0.00219496
0.00429107
-0.0127142
0.0173181
-0.00870792
0.000345349
-0.0173426
0.0594363
0.0296131
-0.0207569
6.89409e-08
0.00806361
0.0143605
0.000455204
0.0429621
0.0422544
0.0291001
1.7742e-05
0.0433745
-6.92933e-05
-0.0289576
0.00592897
1.45645e-06
-5.35264e-08
-1.79046e-08
-2.9326e-08
-0.0516833
0.00122291
6.48587e-06
1.88247e-07
-1.8375e-07
3.02466e-08
1.45879
7.90775e-08
-0.00777369
0.000551855
-0.00800868
5.58463e-07
0.0119012
-0.00987685
2.86434e-07
-0.00588964
-0.0119671
-0.00867969
0.032916
2.64172e-09
-1.07723e-05
0.000223524
-2.45044e-06
-1.43712e-05
-0.00554552
1.55293e-06
0.0264746
0.0075376
-0.05221
5.58607e-07
-1.38843e-08
0.0053613
-0.000966826
-12.6628
-8.46362e-07
0.000575723
-0.00809051
-0.000116067
0.00219487
0.391225
4.20221e-05
0.000387824
-7.82663e-08
2.4343e-09
-7.34867e-08
-0.000837732
0.00478794
-0.0136751
4.76148e-05
0.000413912
0.0167243
0.000123769
2.182e-05
6.07492e-07
0.269408
-2.72184e-07
-6.59662e-08
-1.9992e-07
-0.01593
-7.27665e-06
8.44178e-07
8.72909e-07
-2.45517e-08
2.86135e-05
-1.46602e-07
-3.25829e-08
-4.9493e-08
0.0107133
-4.22674e-07
-6.34205e-07
0.00268236
-7.19556e-07
-4.90514e-06
-0.0255335
-0.000676823
-3.15868e-08
-0.128106
-0.00730648
-0.0169772
5.29963e-08
0.00567719
-2.68566e-07
0.00485494
9.77087e-08
0.00081482
-0.31379
-0.000337635
5.61113e-07
-0.122887
-1.03616e-07
-2.47114e-07
-6.99165e-08
-3.86019e-06
0.0077412
4.81788e-06
-1.69817e-08
0.0272258
7.75294e-07
1.24667e-05
0.0130991
5.07588e-09
1.05475e-06
-0.0259521
0.0329285
-1.42715e-07
2.06252e-08
-0.00894604
0.028068
0.000529269
-1.23423e-07
0.0575861
0.012564
0.0478713
-7.5249e-08
-0.000150084
2.84698e-07
-1.05593e-07
1.32868e-05
0.000357257
0.00445507
-9.85973e-08
-7.30704e-06
-3.50318e-08
1.75082e-07
0.0284518
0.0504606
-0.0725368
0.00145511
0.00268527
8.09093e-08
-0.00198801
-0.0614771
-0.0412092
-2.74821e-06
0.0208542
-1.76677e-06
-6.78636e-07
1.65956e-06
-3.08391e-06
5.28465e-06
2.51641e-07
0.0406677
0.0259947
0.000915064
-0.00713256
-2.92965e-06
0.000256687
0.02658
0.00146812
-6.28618e-08
0.0232839
-0.0139146
3.39006e-07
0.0108093
1.33662e-08
3.07497e-06
-0.00851389
0.00573044
3.74171e-08
0.0407219
-2.34607e-08
-0.0013739
0.0231175
0.000466882
-0.00570058
2.12907e-05
-9.59e-05
-0.00691905
1.19821e-07
0.000272604
-1.50852e-05
0.0125009
-0.000329471
-0.00358161
0.0170081
-8.56494e-09
4.24965e-07
-4.37282e-07
-1.85689e-07
8.38173e-05
-2.60334e-07
1.79351e-07
-0.00308878
0.00284523
3.02473e-05
-0.0230253
5.53897e-06
-0.271412
8.32051e-08
-3.35476e-08
-0.00167029
-1.661e-07
0.000121147
-0.00144604
0.000254027
0.000473757
0.0186353
0.00025962
0.00520262
1.16308
-0.00998444
-0.00555879
2.56169e-05
-0.332074
-0.000146597
4.24887e-06
-0.0238753
0.00373988
-2.57291
0.0496241
0.0262916
4.41899e-08
5.67128e-06
0.0171912
-3.43265e-07
2.11608e-05
0.00015789
0.000488553
0.0429542
4.63389e-07
0.000265451
-0.000290343
-7.32935e-07
-6.86086e-09
-1.31398e-07
-0.0284898
0.00637239
-2.7009e-06
0.000515162
-0.0274613
-8.43147e-07
-0.0194968
2.04943
0.0012951
-0.0227168
-0.00036115
0.000149202
-8.79894e-05
-0.00593406
0.000184989
-6.57042e-07
0.0323838
-6.40657e-08
2.25912e-07
-7.3503e-08
-0.0209822
4.38498e-09
5.66443e-05
1.99603e-06
-0.0210464
-0.001652
6.8784e-08
5.18705e-06
-0.0119272
-1.51204e-07
-2.48217e-06
3.62448e-07
9.17994e-05
7.15837e-08
2.41592
1.48809e-05
-2.45398e-07
-0.0420436
3.39475e-05
-0.0355767
-1.10548e-07
-2.37583e-05
0.0273131
0.00806227
-3.4585e-07
8.2671e-06
2.30957e-07
-5.63532e-07
-0.000520254
-1.23299e-05
-8.17791e-07
2.73834e-06
-0.000558635
2.87136e-07
0.0186917
8.0498e-07
0.000199655
1.19626e-08
-8.75778e-07
4.34597e-06
2.78472e-07
1.11952e-05
-0.000241487
8.84004e-09
-1.67199e-08
-2.90426e-08
-0.0089025
0.000317859
0.0365309
3.48806e-06
-0.00383366
0.0285436
0.00202683
0.000318066
0.000115679
-6.41972e-08
-0.00840699
-0.00813518
0.0131481
-0.000902294
9.71069e-05
0.00261428
0.000493627
-0.0362452
0.00142159
1.32456e-06
3.09978e-07
0.00017498
-0.0326675
-0.000220395
-7.98246e-05
-9.83379e-08
0.000159094
-6.66883e-08
0.000658758
6.91333e-09
-0.00201848
7.59143e-07
0.0438835
1.02454e-06
0.198253
1.43691e-07
-0.000485157
-5.66286e-08
6.92946e-07
0.862352
0.00344853
0.00311791
5.16881e-05
1.94302e-08
3.61545e-07
-0.0421561
0.039352
0.0234022
-2.82668e-06
0.000410736
4.27082e-06
4.3977e-05
-7.04658e-08
0.000445698
-2.5754e-07
-5.36402e-07
-2.52007e-06
-2.36735e-07
-0.00584095
-2.61792e-07
-5.87592e-07
2.10763e-08
2.28644e-06
8.08388e-09
-6.35907e-06
-0.00564608
6.33124e-06
-0.0260681
9.13877
-8.82476e-07
9.69658e-05
1.45984e-07
-7.00967e-06
5.49858e-07
-7.57301
-6.97411
8.03221e-07
-3.86562e-08
5.27127e-05
0.0425305
-6.85241
-1.42618e-09
-1.19934e-07
5.93825e-05
1.15631e-07
-0.0190307
0.00835306
-2.40143e-07
2.40606e-05
0.000336483
-0.172981
-2.5274e-06
0.10548
0.0146686
-9.69876e-08
-0.0204769
1.45241e-06
0.00554499
-0.0538757
-2.53288e-07
-9.67939e-05
-0.00635376
0.0237952
-2.07778e-07
-0.00237833
9.88485e-07
-3.6553e-07
-0.00745578
-3.10852e-06
3.60541e-06
-1.0704e-07
-0.00586886
-0.00125688
3.84393e-05
-0.00215972
8.99949e-06
-3.46459e-06
-0.000128706
-0.0190295
3.26366e-07
0.0067919
-0.00637046
4.14529e-06
-3.67712e-06
-3.13003e-06
-2.24261e-07
0.000165139
-4.70222e-07
4.40609e-08
0.00428866
0.00488712
-0.000728603
6.47048e-09
0.0014819
0.0203871
-1.02635e-07
0.0257485
2.37686e-06
0.000561802
0.000336462
-0.0468583
2.9068e-08
0.0413018
-3.48311e-07
-1.12794e-07
1.48197e-08
-2.11832e-05
-3.59249e-08
-0.00391449
-9.93082e-08
-3.15359e-07
-0.004729
-9.03588e-08
-4.45201e-07
0.00871441
-1.27103e-07
3.63329e-07
-3.33754e-08
-0.00104969
0.0356456
-3.87797
0.0290307
0.775214
-0.00714492
5.58235e-07
5.21286e-06
-0.00476448
-0.00143814
-0.0142678
-0.481097
3.18596e-07
-0.042356
0.00978291
2.3277e-07
0.0268317
-5.14382e-05
3.83711e-07
7.7959e-06
-1.81237e-06
-1.30287e-08
-1.13226e-06
0.00863037
0.0273167
-0.00928326
0.000562741
5.2862e-08
0.00610275
4.9449e-05
2.45479e-07
-0.0240956
-1.92725e-07
-3.60989e-07
0.205636
1.14846e-07
0.000135
-6.9923e-08
8.00237e-05
-0.00416771
-0.000339287
-2.44752e-07
0.000144458
0.0106078
-0.0109124
3.28393e-05
0.671064
0.000278273
1.21182e-05
-0.0444571
7.76482e-05
2.66213e-07
0.573411
0.000223285
-9.1523e-08
-2.77688e-06
-0.000800534
0.00301147
-0.000123702
0.000330404
-6.48086e-08
4.38483
0.000660323
-1.67717e-07
-2.80901e-06
-9.97907e-07
-6.15457e-07
-9.28613e-07
0.000265036
0.0169662
-3.90296e-06
0.00024498
6.23039e-06
3.6136e-07
0.00196092
0.000432555
-0.0093958
0.000442453
-0.0327301
-0.000475801
-0.011809
-0.00722951
1.49581e-06
5.9248e-05
-0.00442172
0.0124413
-0.0333078
0.000177313
0.0461717
0.0107127
-0.00922874
4.23833e-07
0.0299271
1.14493e-07
1.01336e-06
-0.000144384
-0.000365036
3.67998e-07
-0.000709442
-0.0126112
-2.9821e-06
-8.47938e-07
-28.742
5.94199e-07
0.0208005
0.00211261
-1.15042e-06
0.0145757
3.56033e-06
0.000323126
-0.00582276
0.0137515
0.000157995
-0.000964044
2.49809
1.45241e-07
1.7739e-08
0.0311828
0.000420795
-0.025373
-2.43283e-07
2.19563e-05
-6.27979e-07
-9.92873e-08
0.00628415
6.72814e-05
1.26759e-07
-0.0316225
-3.22435e-07
0.000207671
1.26313e-05
-0.00737087
-0.00201555
-7.73161e-08
4.34197e-05
1.90138e-06
-1.98992e-07
0.0152989
1.13893e-07
0.0157736
0.0237041
6.62074e-07
3.77943e-07
8.85031
-1.57854
2.8422e-06
4.30039e-05
9.80303e-07
-1.19961e-07
-1.86501e-08
0.0571643
-8.28743e-06
1.61473
0.0023165
-0.0315697
-6.76679e-06
-2.38287e-07
-9.60833e-06
-1.82791e-05
1.28845e-08
-0.00021015
3.401
0.0130104
2.01547e-06
-3.3202e-08
0.0338406
0.0166302
0.0583409
1.42853e-08
-8.16951e-08
-0.145188
-2.62202e-06
0.00537475
1.13312e-07
-5.20328e-07
7.70344e-06
4.36477e-07
3.02488e-07
2.99294e-08
-3.1957e-06
0.000466089
-1.92125e-08
6.57737e-06
0.000194491
-0.000177643
-2.75812e-08
-1.14937e-06
-0.0115502
0.000201099
-0.00792154
5.42645e-06
-0.0192211
-6.28802e-07
-8.09224e-08
8.08019e-06
-0.000865312
-0.00141577
1.87387e-05
-0.00275164
-0.000224528
-4.90933e-05
-9.46764e-07
-2.58914e-05
-1.38259e-08
0.0141744
0.00059445
-0.0410751
0.000909577
1.63239e-06
-0.130739
-0.000301394
-1.22926e-07
0.000621683
0.0679576
1.95887e-08
-0.072189
-2.10376
2.91187e-07
0.000144952
0.00264926
5.12934e-08
8.07081e-07
-6.70869e-08
1.15565e-07
0.00915215
-0.000381546
0.00786924
0.000340744
-3.03543e-07
0.055814
2.55724e-07
1.42933e-06
1.85006e-07
0.000186852
-0.137633
-4.16101
0.000892931
-5.82449e-08
0.007106
0.000806262
-9.92079e-07
-0.355473
2.25185e-08
-0.076951
2.12672e-06
-0.0550727
0.449252
-7.5516e-06
0.00197571
-6.38509e-08
9.15675e-10
-5.56455e-05
-4.08623e-05
-0.000244731
0.0424421
6.6519e-07
0.0141529
-0.00606738
0.0267287
0.000209295
1.05886e-05
0.0550491
-8.98909e-08
0.02274
4.6869e-07
7.12096e-07
-0.00171131
2.70668e-09
-0.047735
4.12289e-07
-0.0280823
4.20556e-08
-2.00008e-08
2.99017e-07
1.68781e-07
0.034227
-6.51856e-07
-0.000163507
1.68587e-07
-5.14345
-5.78413e-08
-0.0169028
6.58981e-08
-0.000344914
7.69854e-05
9.53357e-10
0.00104996
-0.00010121
5.00994e-09
-0.000190857
9.55798e-06
-0.000270242
2.44646e-05
-0.00387038
0.00350048
-0.0214676
-3.51208e-07
-1.03966e-06
0.000130158
6.07769e-06
-0.00010229
0.0273292
8.41162e-06
6.03575e-09
4.47771e-09
2.36509e-07
0.000586663
0.00980315
1.68031e-09
0.00532038
-0.000142196
-0.00853779
0.000756466
-0.00441907
-1.80467e-08
5.75057e-06
-0.00215574
0.00100448
0.0901453
0.0263803
9.22075e-05
-2.5814e-09
0.000318335
5.65461e-09
-1.65304e-06
-0.000150407
6.05779e-07
-0.00782486
0.0288675
-0.000498052
-9.86161e-07
0.246238
1.42187e-09
-0.0229475
-0.00810842
0.0184572
-1.32068e-05
-3.30653e-09
-0.100493
6.49138e-05
-0.0427355
-0.0141953
-0.020247
-0.00011074
0.000718646
-4.89133e-08
-2.34461e-07
6.19997
3.19732e-06
-1.64534e-06
-0.0393544
-3.07195e-06
-1.36897e-05
-3.44222e-07
-0.00501868
9.63691e-08
-3.4723e-07
-1.4496e-05
8.40114e-08
0.00151274
7.54333e-07
-0.00672736
1.06882e-07
-2.01175e-08
6.36475e-07
-6.66376e-06
-0.00051166
-2.48249e-08
-8.45499e-08
-6.48283e-07
-0.0127756
0.00390979
9.02957e-06
-4.41169e-07
1.66032e-05
0.00017912
-0.00725194
0.00582608
8.19267e-07
1.16276e-07
-8.56919e-07
-9.52208e-08
5.42342e-06
-1.47893e-08
0.00164358
1.14571
1.91542e-05
0.000359001
0.00874722
7.69432e-07
0.0354435
0.0335231
-1.90019e-08
1.06776e-09
1.11774e-07
1.22262e-07
0.0302872
-4.38016e-05
0.0354342
0.792811
0.00180229
-0.000295627
-0.00392798
0.00031827
-0.000105452
4.7407e-07
4.46253e-08
-5.60624e-07
3.31046e-05
-1.55776e-07
-0.0825789
-2.8092
0.00148202
1.85325e-06
8.64008e-07
2.01059e-05
0.00923357
0.0120854
5.73367e-09
-3.10329e-07
0.0276934
-3.0051e-06
0.0646289
-0.00381008
0.00554013
-0.00501011
-0.00948624
-3.33508e-07
0.0293837
-0.00628263
0.0566595
4.76273e-07
-5.91272e-05
-0.0108259
0.00027166
0.000489754
-0.0159595
9.96838e-05
-0.0002987
-8.64799e-08
-1.493e-07
-0.0212665
4.89717e-06
2.69537e-06
-0.0114712
1.81113e-05
0.000552536
0.00119284
-4.28034e-08
7.24054e-08
4.05092e-06
-0.0123817
-0.121872
-0.00749078
0.0129995
1.15852e-07
-1.9015e-05
0.000483778
5.1598e-06
-3.06275e-06
7.47543e-10
-0.0647465
-0.000826753
1.9601e-07
-0.00808702
-6.82694e-08
5.47783e-06
-6.23954e-08
0.0486554
0.0612592
-0.00547436
-9.95321e-08
-0.000176698
-1.32568
-0.000206418
-1.43534e-09
5.68349e-05
-8.5862e-08
-1.94127e-07
4.93694e-06
2.97575e-07
-0.000157262
2.76335e-06
-1.40911e-06
-0.0254231
-1.98898e-07
-0.00832428
1.99784e-07
2.742e-07
-0.00204399
9.23015e-06
6.291e-06
0.00185367
-7.14829e-08
0.0199248
-2.60519e-07
-0.134698
0.000136261
0.0184507
-0.00882226
1.67255e-06
1.55798e-05
-5.88895e-08
3.23659e-05
-4.31032
1.64651e-06
-4.19523e-08
2.78032e-06
0.0280963
-0.0343501
0.00585865
9.06258e-08
0.000480938
-0.0112558
1.08346e-08
0.000515353
0.0519109
1.20585
0.000298083
-7.65253e-07
4.74676e-06
-2.51692e-06
4.94513e-06
-0.168553
-1.04995e-07
7.82976e-08
-1.13255e-07
8.11105e-05
0.000581717
-0.000232602
-3.08185e-06
0.00173697
-5.45092e-08
2.93342e-07
2.9208e-06
-4.13628e-05
-4.31434e-08
-0.00484281
-0.0253796
0.00295881
-4.34346e-08
0.0170888
-4.55035e-07
-6.56577e-07
-4.63869e-08
4.24732e-06
-0.000316353
0.0675366
0.0021342
-4.22359e-05
-4.29113e-06
-4.54742e-08
0.0303747
-0.00202212
0.0106786
0.0318861
-0.0611984
-0.00522421
-0.000143047
1.6088e-06
3.54289e-05
-0.000309548
1.02115e-05
-0.000532194
1.96947e-07
4.83936e-07
0.0123804
0.0288212
0.00734947
-1.74784e-08
-0.000974781
3.53579e-09
-2.10699e-06
0.00175517
0.0172362
1.61013e-06
2.62374
-7.58294e-07
-0.000443087
5.25125e-06
2.87102e-06
0.000278121
3.68056e-07
8.97437e-08
-0.00069074
-0.0464394
3.73051e-06
0.0263952
-0.0380827
0.263452
5.12555e-06
4.41016e-07
-0.205645
1.56043e-07
0.00128779
-1.37028e-06
7.86528e-07
-0.0414075
0.000468173
0.000462275
-0.0111485
-3.94714e-05
-6.38389e-07
3.79208e-07
0.0384853
2.27769e-05
-0.00610449
-0.00037355
-0.00614378
-0.0337215
0.00696404
-0.00314906
5.63531e-07
4.87318e-06
0.00728227
-8.48604e-05
-4.59196e-06
-9.61105e-09
-0.00423281
6.05867e-06
4.50182e-06
0.00383163
-4.73115e-07
3.85893e-07
0.0133846
5.7758e-05
3.31199e-06
0.0107621
0.000477386
-1.59958e-07
2.64742e-06
1.20714e-05
9.09041e-06
0.00578055
0.0169515
0.205213
-6.59867e-07
-2.07669e-07
-0.00857632
0.0260066
3.16008e-05
-0.000369659
1.29914e-05
5.03234
6.54365e-07
-0.014869
1.41791e-07
-0.000105013
6.47728e-09
-0.00657716
0.0012467
0.00197581
0.000454799
-0.00820029
0.00166415
-0.000403225
-3.74586e-09
-0.00300727
0.000348188
-1.33485e-07
0.0209477
0.000611319
-5.09246e-08
4.80283e-05
-4.68853e-09
1.97736e-06
-0.00577005
-3.17143e-08
-0.0064496
1.02103e-08
1.82386e-05
0.0011515
-0.0109823
-7.75424e-08
-1.86467
0.000216061
-0.0130376
-1.68848e-07
-3.89681e-06
2.59499e-09
-0.000122709
-2.89557e-09
-1.01188e-05
3.24268e-07
6.3942e-08
5.78636e-07
6.29394e-05
1.6149e-06
0.0305274
-0.00830055
0.000403427
-7.6151e-08
-0.00429153
-9.03399e-08
-2.09444e-09
4.65996e-09
5.26514e-08
1.22978e-05
1.49049e-06
5.05256e-06
6.19459e-09
7.34271e-09
5.33803e-06
-0.00659906
-1.10957e-08
-6.82564e-06
0.0137963
-0.000178202
0.0133094
0.0310243
-0.0310986
-2.63492e-08
2.13682e-05
-0.0009911
1.3759e-08
-0.00123639
5.77245e-09
0.0878106
5.36754e-07
0.0306331
-0.000393548
0.0364939
5.10342e-06
-4.9466e-08
1.41464e-06
0.0239466
0.0507504
6.73987e-08
0.00536833
-5.89484e-07
0.0252872
1.95203e-07
0.022239
-0.00305002
3.35383e-07
1.68783e-07
1.43456e-05
0.00738633
2.29878e-07
5.57155e-06
-0.00624811
0.00761905
1.65888e-06
0.0212187
-8.7118e-07
1.54205e-06
0.000293199
0.46317
8.24608e-05
-0.00277617
-0.00101391
3.22535e-07
-0.0061664
0.0506719
-0.0384892
0.0195848
9.62928e-06
-0.0319867
0.00753319
0.0272627
0.293065
-0.0058193
0.022474
0.0539652
6.29277e-08
0.00869865
-0.000945713
-1.35589e-06
0.00594095
-0.00971359
3.36994e-05
4.68474e-07
3.51198e-05
0.000475709
-0.167342
5.1443e-06
8.92644e-06
1.71211e-07
0.0473558
-0.0102388
-0.0117909
3.74201e-05
-9.4648e-08
0.00771936
6.68176e-09
5.16829
7.79161e-08
-1.76172e-07
-0.00258397
3.76937e-07
3.21852e-07
1.54893e-07
9.36621e-08
0.000315028
-1.5443e-06
0.00471098
0.0338998
0.0162641
-4.80603e-07
-0.000190813
-1.86639e-07
0.000107897
1.47502e-05
-1.45715e-06
5.56623e-08
0.0237612
-0.0451025
-1.57528e-07
-1.76457e-08
1.1133e-08
-9.96102e-08
0.0415475
0.0610459
-0.0447075
5.99184
0.072258
-0.000375942
6.30521e-08
-2.95243e-08
3.43383e-07
0.00371018
1.60319e-05
-0.022689
0.00115217
-9.27763e-08
0.0279384
0.000471269
-0.000760273
-0.0101042
-0.000938174
-2.0209
1.30229e-07
-0.00946324
-1.50722e-07
7.6959e-08
-9.7482e-07
-7.82221e-08
0.0342251
4.53021e-05
-0.00318355
-1.02621e-06
7.61884e-08
0.0143639
-0.0102182
-0.015506
-2.51265e-09
-0.0221805
0.00115356
0.00396031
0.000255661
0.0123477
1.13657e-06
-1.40209e-06
8.30747e-06
-1.53706e-06
-8.82106e-07
-0.000166037
0.00202041
-1.35481e-06
5.47286e-07
-0.0120839
6.79481e-06
-2.24997e-07
1.5045e-06
0.0013064
-0.0102594
1.35548e-07
-3.10566e-05
0.0251294
3.26243e-07
9.03834e-08
-0.00595339
-2.63314e-06
5.76918e-07
0.471752
0.00144986
-0.00617397
0.0020306
-1.03207e-06
-0.00033007
-1.36861e-06
4.30233
-3.97607e-05
-3.39116e-08
-1.39771e-05
-2.49171e-08
-0.118059
8.38247e-07
0.00557038
-2.00274e-08
4.33963e-07
-0.0319593
-1.24012e-06
0.000269742
0.0853489
-0.00452122
-0.0109857
0.0492492
9.20195e-05
-0.025148
-1.59388e-07
-2.84036e-06
0.00653009
-0.00011836
0.000155988
0.000970875
-2.41881e-06
5.61384e-07
-2.60178e-06
0.0012276
8.66278e-08
-0.00802775
-8.85506e-08
0.0171126
-1.70065e-06
0.0505839
0.00995277
-0.0384732
0.148352
0.0063523
9.96991e-09
-0.00138106
-0.48958
-2.96416e-07
-1.84238e-08
-0.0452479
-0.0275764
-0.00897549
-5.22133
-1.34534e-07
-0.0484107
-0.00950778
-1.30886e-06
0.0289995
8.33961e-08
1.43974e-07
-2.72089e-07
1.16796e-05
-6.2977e-07
6.72816e-06
-0.0134295
0.000463295
1.24462e-05
0.00502228
3.65718e-07
0.000931058
5.59213e-07
9.57294e-09
0.0600134
0.0181301
-0.525996
-2.13029e-07
-0.00238835
1.26296
-0.00520799
-0.0339715
1.56647e-08
-8.32763e-07
-3.68027e-08
1.41837e-07
-9.77027e-05
-1.41047e-07
0.00033158
5.51117e-08
0.0919878
-0.245471
0.0324913
2.68734e-05
0.000313054
0.368947
-1.21295e-07
-2.9029e-06
-0.010473
5.57834e-08
5.67638e-06
2.65141e-07
0.0112266
0.0212063
-0.00374309
-2.36831e-07
-0.0056791
0.00957456
0.000312295
-6.87401e-08
0.0013364
-6.21542e-07
-0.00263454
-0.0168361
-0.00683905
-2.30299e-07
1.0212e-05
-2.44255e-07
7.58837e-08
5.14764e-07
-2.57805e-07
7.54733e-08
0.312576
-0.215556
7.73531e-08
-3.85703e-09
-0.0089678
1.92066e-07
-1.43591e-07
-1.3887e-07
0.00176481
-0.022148
3.89025e-05
-1.04606e-06
5.80012e-09
0.00676839
6.88747e-07
0.00579268
-3.19103e-05
-0.000293676
-1.17267e-06
3.53952e-07
1.38018e-06
-0.000579601
3.73142e-07
0.0158255
-0.0358906
-5.27303e-08
-2.78253e-06
-3.25046e-07
-0.0013121
-0.00047079
-1.83252e-06
0.0514303
-0.0851365
2.96406e-08
0.0284525
-0.0281555
1.66024e-07
3.81345e-07
0.000678003
4.66746e-06
5.61929e-07
1.38354e-05
-0.0295854
-0.00867678
-7.91415e-07
-2.45067e-07
0.0363284
0.000483907
-8.40401e-05
1.85698e-07
6.6775e-06
0.00761636
0.00339964
-0.00688124
-0.00606143
-1.01237e-07
0.147856
3.06174e-09
0.000338867
-8.38161e-06
-9.61398e-06
0.383615
-5.57273e-05
0.104258
0.000303941
-0.0671252
1.97771e-07
1.14873e-07
-3.84806e-06
1.94383e-07
-0.00506516
-0.0486171
-0.000916761
3.5513e-09
-5.18092e-06
3.33488e-05
2.83261e-07
1.45998e-05
-1.37102e-06
-0.0167916
-1.0482e-07
6.46459e-05
-0.43153
3.65159e-06
0.000420086
-1.58264e-07
-0.00240223
0.0113901
0.000198523
2.68145e-06
1.20504e-05
1.10926e-07
1.23729e-05
7.70414e-06
-3.77219e-08
-0.0301875
3.79895e-07
1.29389e-08
0.000774899
0.00117127
4.59736e-08
0.000629671
-0.000848146
0.00957741
-0.000162338
-0.0258428
9.65157e-07
0.0384333
-0.00324767
5.02817e-06
-0.00899626
0.0211456
-0.00687684
-0.000505248
-0.0155746
1.50858e-07
-3.04948e-07
-1.43183e-07
5.21452e-05
4.05739e-06
-2.42181e-07
0.00278955
-0.000147217
0.00240225
-5.07871
3.44479e-05
5.32787e-09
3.69077e-05
0.00341245
0.0294988
5.95858e-06
-0.00777908
-5.5871e-08
-0.000902503
0.00889524
0.000788068
2.24352
-2.66045
-5.48988e-08
0.00148298
-8.33412e-08
0.0212777
5.64946e-07
0.00241914
-0.00560051
-1.34205e-07
0.000398425
0.0535826
-2.30554e-08
-4.20913e-07
-5.97499e-07
7.56584e-08
0.0127067
-0.00320185
-0.0162418
-4.35793e-07
8.62682e-07
-0.00936361
6.37641e-06
-1.40541e-06
-3.7192e-07
-4.82342e-09
1.45377e-08
-0.0199193
-0.000840834
-0.171681
-4.63035e-06
-0.00164334
-1.52702e-06
-6.557e-06
-3.8301e-07
0.00881654
-8.14657e-08
0.0260762
0.00131193
-1.99775e-07
0.0031513
-7.43061e-08
-7.56321e-07
-0.0467166
-0.00165255
-0.0597177
-2.43131e-06
1.0047e-06
7.62317e-07
-1.45422e-06
1.50617e-06
-1.28107e-07
0.00913807
7.7995e-06
1.19173e-07
-0.0334012
-0.957563
0.0171709
0.0664628
-4.52648e-07
-8.43e-05
-0.000100243
0.0018202
-0.00275388
-1.36777e-06
-3.95349e-06
-0.0171715
-0.000948202
-0.00121394
-0.0203885
1.95718e-08
-0.00723479
-0.00937793
-0.0109338
4.44419e-07
1.30185e-06
-0.0205711
1.47281e-07
-4.50086e-06
-2.63533e-08
-2.5934e-07
-3.10623e-07
1.3932
-3.57225e-05
-2.95934e-08
0.0110965
-0.00865118
3.36203e-06
2.66813e-06
-1.20843e-07
4.88051e-10
-0.00242557
-0.00310733
0.000242138
3.76667e-07
0.030608
0.00773546
1.28812e-06
-7.48398e-09
0.055415
-0.587753
-8.1882e-08
-0.000471402
-4.4506e-06
0.00491858
-2.97838e-08
1.35628e-07
-0.000974334
0.00726189
0.0132102
-5.88586e-05
-0.00251283
-0.0247424
0.00807239
0.0629528
1.4163e-05
1.80168e-06
3.8279e-07
0.0173849
-2.01972e-07
0.00292872
8.96829e-06
4.60701e-07
1.57568e-07
-0.000192002
9.8044e-09
0.057353
-7.22063e-05
1.68842e-05
-0.000336033
0.106153
-0.0173204
6.60152e-08
0.00167267
4.03581e-06
5.04153e-06
4.68048e-06
-1.11271e-05
0.0243267
-0.0558259
5.76209e-06
0.000186176
-2.01949e-06
-2.93799e-07