/*--------------------------------*- C++ -*----------------------------------*\
| =========                 |                                                 |
| \\      /  F ield         | OpenFOAM: The Open Source CFD Toolbox           |
|  \\    /   O peration     | Version:  v2012                                 |
|   \\  /    A nd           | Website:  www.openfoam.com                      |
|    \\/     M anipulation  |                                                 |
\*---------------------------------------------------------------------------*/
FoamFile
{
    version     2.0;
    format      ascii;
    class       volVectorField;
    location    "400";
    object      ddt0(U);
}
// * * * * * * * * * * * * * * * * * * * * * * * * * * * * * * * * * * * * * //

dimensions      [0 1 -2 0 0 0 0];


internalField   nonuniform List<vector> 
54593
(
(2.28184e-05 3.55098e-05 -9.95404e-24)
(0.00045014 0.000165324 0)
(3.98741e-05 1.89613e-05 -2.69623e-22)
(0.00512227 -0.00122804 0)
(0.00313447 0.000119842 0)
(-0.000183007 -0.000693965 0)
(-0.00350777 -0.000147965 1.52941e-22)
(0.000510443 0.000507021 -2.98703e-22)
(0.000474267 7.12953e-05 2.08589e-22)
(7.19475e-05 -7.46129e-07 4.16039e-22)
(0.000166149 7.24156e-05 0)
(-0.0012439 -0.000164407 -8.49836e-23)
(0.000109866 0.000826667 0)
(5.20426e-05 -4.00223e-05 -4.99741e-22)
(0.000386046 0.000383792 8.72108e-23)
(-1.17486e-06 0.00020961 2.08254e-22)
(0.000545509 0.000504769 5.28845e-22)
(0.000269086 0.000315822 1.2828e-24)
(7.14448e-05 2.77016e-06 1.71218e-22)
(6.2242e-05 0.000230299 2.172e-22)
(4.04744e-05 1.89372e-05 2.66054e-22)
(0.000196574 -2.25571e-05 5.82621e-22)
(7.06381e-05 -1.22191e-05 -1.92522e-22)
(5.86205e-05 0.000122101 0)
(9.99256e-06 -6.193e-06 0)
(-4.34438e-05 -0.00311384 1.35439e-22)
(2.20455e-05 3.34124e-05 1.12802e-22)
(-1.64613e-05 -0.000674856 2.71281e-22)
(0.00105834 -0.00130888 -4.57884e-22)
(7.14505e-05 -1.11799e-05 -4.18047e-22)
(-0.000125366 -0.00308711 -1.33363e-22)
(0.000670096 0.000417366 0)
(3.2519e-05 2.39886e-05 -2.55984e-22)
(0.000319233 -0.000506865 2.63388e-22)
(9.3468e-05 0.000334968 0)
(-3.22804e-07 7.82486e-05 -1.08212e-23)
(0.000319711 -7.30306e-05 2.84877e-22)
(0.000430312 0.000169207 -4.191e-22)
(8.35593e-05 -6.84511e-05 5.02467e-22)
(0.000197262 -2.27584e-05 9.89156e-25)
(3.99971e-05 0.000677743 0)
(-0.00244847 0.00227101 -1.92379e-22)
(3.69177e-05 -6.46724e-06 2.49812e-22)
(2.17004e-05 4.08492e-05 2.34676e-22)
(-8.89121e-05 0.000608074 -1.48636e-22)
(6.2853e-05 0.000166194 -2.85097e-22)
(-0.000999483 -0.000866631 -5.28701e-22)
(0.000391378 0.000297683 1.50803e-22)
(1.71229e-06 -4.53206e-05 6.45782e-22)
(0.000168146 2.80507e-05 -5.48586e-23)
(3.182e-05 2.2427e-05 0)
(6.0147e-08 -5.06043e-05 0)
(0.000165633 -3.83365e-05 0)
(-9.85853e-05 0.000617251 6.44682e-23)
(0.00183823 -0.000234194 2.49325e-22)
(2.27606e-05 2.73802e-07 4.42983e-22)
(-0.000758444 -0.00232697 -2.55125e-22)
(0.00496475 -0.0088636 -1.02718e-21)
(0.00166753 -0.00028831 2.90451e-22)
(-1.86106e-05 0.000430448 -3.44835e-23)
(3.6928e-05 -4.29895e-06 -2.64687e-22)
(3.02097e-05 0.000182897 -6.70037e-23)
(5.10751e-05 -3.94185e-05 0)
(0.00518558 -0.000904685 0)
(2.94967e-05 1.02078e-05 3.65253e-22)
(-2.25638e-06 0.000207776 0)
(-0.00178961 0.00118489 0)
(0.000599684 0.000454713 2.60972e-22)
(0.00162078 -0.000386097 0)
(0.00143845 -0.00038195 0)
(1.90975e-07 -4.90545e-05 7.33417e-25)
(9.85596e-05 0.000333173 0)
(2.99856e-05 1.02435e-05 1.39283e-24)
(-0.00425786 0.00290655 1.93324e-22)
(-2.14036e-05 -0.000194855 8.0634e-23)
(0.000210102 -0.000177181 5.86369e-23)
(0.000161762 -0.000453466 0)
(0.000360998 0.000781733 -1.24171e-23)
(-0.000666416 -0.000110307 1.34352e-22)
(-0.000242436 0.000797192 0)
(2.12683e-05 1.18779e-06 3.05468e-22)
(0.0031641 -0.00189794 -4.87604e-22)
(2.09458e-05 3.87848e-05 -2.90229e-22)
(-0.00029578 -0.00132753 1.25444e-22)
(0.000146792 2.23769e-05 -2.30021e-22)
(-0.00406478 0.00286809 -7.98439e-23)
(-0.00147342 0.000275535 1.55803e-23)
(0.00102159 -0.000983505 -1.6868e-22)
(-0.000180892 0.000495079 0)
(-6.9368e-07 7.34877e-05 2.44941e-22)
(0.000499707 9.18491e-06 2.32992e-22)
(0.000215586 -2.18368e-05 1.73871e-22)
(0.000893862 0.00110282 1.71832e-22)
(0.000550896 -0.000484858 -1.27767e-22)
(0.000210764 -9.33439e-06 9.54342e-22)
(0.00200549 -0.000678059 0)
(0.00522904 -0.00486052 3.86472e-22)
(0.00139974 0.00178065 0)
(7.73077e-06 0.000124349 -9.22947e-23)
(0.000165488 3.55895e-05 -4.94123e-22)
(0.000112061 -4.46686e-06 -1.67284e-22)
(0.0036358 -5.43187e-06 0)
(-1.13317e-05 0.000183505 0)
(2.93201e-05 6.69656e-06 0)
(0.000665028 0.000397975 0)
(0.00035511 7.78014e-05 0)
(0.000358296 -2.62014e-05 -3.79348e-22)
(0.000979201 -0.000968999 8.94417e-22)
(0.000202429 -0.000179968 -5.21404e-22)
(1.40392e-05 0.000454653 0)
(-0.000389315 -0.000213223 -5.20483e-23)
(3.01354e-05 3.69187e-06 1.53849e-22)
(-7.19045e-07 7.88219e-05 0)
(-0.000268286 -0.0031681 -1.72382e-22)
(4.58889e-05 6.53508e-05 1.48002e-24)
(1.24317e-05 -0.000165545 1.19875e-22)
(0.00148876 -0.000412754 1.7152e-22)
(0.00520603 -0.00079358 -1.93245e-22)
(0.000304798 -0.000571453 -4.6456e-22)
(0.000914099 0.00103912 0)
(0.00531819 -0.000858183 0)
(2.66229e-07 2.91078e-05 -1.69973e-22)
(-0.000252436 -0.000219387 -2.91595e-23)
(-0.000179799 -0.00054445 -7.97679e-22)
(4.97979e-05 3.20375e-05 3.53575e-22)
(6.33755e-05 0.000670382 0)
(3.31868e-05 0.000181314 -1.30654e-22)
(4.91134e-05 3.36316e-05 2.90915e-22)
(0.00219076 -0.000387465 7.35704e-22)
(-0.00272214 0.00261575 7.5479e-24)
(1.05974e-05 -1.30524e-06 1.86231e-22)
(9.86069e-05 5.59549e-05 2.48406e-22)
(0.000218316 -0.000197099 0)
(-4.29924e-07 8.34463e-05 9.72325e-23)
(0.000216087 -2.24042e-05 -7.26525e-22)
(-7.3927e-05 0.000970031 -2.10721e-23)
(1.26082e-06 -6.45317e-05 0)
(0.00721574 -0.00404079 0)
(2.94103e-05 6.17291e-06 0)
(-1.07304e-06 4.95825e-05 8.65552e-24)
(-0.000186344 -0.000127851 4.23582e-23)
(0.000180856 0.000435822 0)
(0.000212794 -0.000191318 0)
(0.000752671 -0.00154278 1.25784e-22)
(0.000228684 -2.95779e-05 -2.53517e-22)
(0.000610656 0.000446159 -2.21708e-22)
(-0.00440756 0.00022617 1.29193e-23)
(0.000320105 -7.19265e-05 -3.42587e-22)
(-0.00170387 0.00022786 0)
(4.20143e-05 -9.07215e-05 -1.23034e-24)
(-4.31828e-05 0.000440062 1.08199e-24)
(7.48038e-05 0.000129636 1.3653e-22)
(0.000827185 -0.00240415 -7.23953e-22)
(0.000539554 -0.000525854 2.62594e-22)
(6.93891e-05 8.37959e-05 -1.0031e-22)
(0.00377399 -0.000497304 0)
(0.000164271 7.1537e-05 2.21562e-22)
(0.00392299 -0.000396463 -1.14943e-22)
(0.00035607 0.000409448 2.41856e-22)
(1.26494e-05 0.000123388 -2.9164e-22)
(0.000742595 -0.000102723 -1.3803e-22)
(1.57863e-05 0.000193881 3.11427e-22)
(-0.000130183 -0.000123139 -9.38965e-23)
(0.0017496 -0.00124394 3.01524e-22)
(-2.25012e-05 -0.000662701 0)
(5.75006e-05 -5.66452e-05 -3.45825e-22)
(1.83687e-05 -2.8141e-06 -4.57181e-23)
(3.23294e-05 1.4038e-07 -2.51715e-22)
(-2.69664e-05 0.000731622 2.48053e-22)
(1.7727e-08 7.11344e-08 -3.65694e-23)
(-0.00110682 -0.0031469 4.16758e-22)
(-7.60098e-05 0.000922127 8.98342e-23)
(-0.00018757 0.000501075 -1.11527e-22)
(1.35505e-07 2.57158e-05 1.50647e-22)
(0.000494779 5.08358e-05 1.00669e-22)
(3.26502e-05 2.5636e-05 0)
(0.000577923 0.00107434 0)
(7.94771e-05 0.000161334 1.64906e-22)
(3.36187e-05 0.0001838 0)
(4.63994e-05 0.000666599 0)
(0.00250062 0.000705784 2.96379e-22)
(-7.09154e-06 -4.00961e-05 6.23064e-22)
(0.000921365 -0.00115861 1.43743e-22)
(0.000113733 1.85102e-06 1.73091e-22)
(7.75107e-07 2.37389e-05 4.15755e-23)
(-0.00483198 -6.52939e-06 0)
(3.35534e-05 -9.05277e-05 0)
(0.000139486 8.36345e-05 1.14435e-22)
(5.29977e-05 -4.1196e-05 4.13678e-22)
(0.00038433 -0.00113684 -4.28463e-22)
(3.2418e-05 0.000183422 7.39972e-23)
(0.00742573 -0.00206322 -8.07706e-22)
(0.000785657 -2.83308e-05 3.86768e-24)
(3.06914e-05 1.16919e-05 0)
(-0.00313513 -9.1998e-05 0)
(-0.00432779 0.000237199 1.48334e-23)
(3.28151e-05 6.0215e-05 -2.93705e-22)
(0.000142718 0.000107875 0)
(-0.0001888 -0.00319701 1.59673e-22)
(0.000399902 2.98181e-05 2.8905e-23)
(0.000219599 -2.32547e-05 0)
(6.75791e-05 0.000638854 -1.1919e-22)
(0.000988724 -0.000749336 -6.53566e-22)
(-1.07674e-05 0.000182953 1.27873e-22)
(9.32904e-05 0.000113293 -5.66557e-25)
(9.37126e-05 0.000111785 1.60317e-22)
(-0.000279825 0.000987271 -4.83901e-22)
(0.000144196 2.19913e-05 1.84668e-22)
(8.29823e-05 -7.02953e-05 1.71596e-22)
(2.1609e-05 9.83783e-07 3.39375e-22)
(3.59634e-06 5.22858e-05 0)
(5.27616e-05 -4.21764e-05 3.11285e-22)
(-6.78357e-06 -3.89089e-05 -2.96641e-22)
(0.000192915 -0.000226407 4.17978e-22)
(0.000211195 -8.62554e-06 -5.12151e-22)
(0.00267757 -0.00133734 0)
(0.000534694 0.00113307 0)
(0.00710053 -0.00155752 -5.55528e-22)
(0.000242963 -0.000169343 0)
(3.28122e-05 5.7253e-05 1.95564e-22)
(0.000192626 -2.59508e-05 3.10465e-22)
(-0.00601037 0.00411907 -5.06483e-22)
(0.000286823 -0.00189509 2.37377e-21)
(0.000125849 -5.53754e-05 2.62982e-22)
(-0.000127371 0.000596126 -7.16938e-25)
(0.000232488 1.37031e-05 7.15169e-25)
(3.14588e-07 4.86658e-06 0)
(0.000274047 0.000309675 -2.40482e-22)
(3.71804e-05 2.47954e-05 1.23363e-22)
(0.000353884 0.000400069 -3.03617e-22)
(3.533e-05 0.000178109 0)
(-0.00226101 -0.00167451 -8.44568e-22)
(0.00342385 -4.03128e-05 0)
(7.98423e-07 2.7418e-05 0)
(-5.08299e-06 0.000160095 -6.6635e-24)
(0.00522344 -0.00447027 -3.57559e-22)
(-0.00100606 -0.00312424 -7.21528e-22)
(4.98739e-06 7.49939e-05 -7.32665e-24)
(-0.000215024 0.000601859 -1.69009e-24)
(5.4199e-06 7.78899e-05 0)
(0.000124945 -5.49112e-05 2.62396e-22)
(0.000201398 -0.000227181 0)
(-0.000909015 -0.000722259 7.40805e-23)
(-0.000291348 -0.000233147 1.88647e-22)
(9.54025e-05 -8.19971e-05 -3.0341e-22)
(-6.95791e-05 -0.000219489 0)
(-0.00272501 -0.00143357 0)
(-0.00370248 -0.00361813 1.05264e-21)
(3.15319e-05 -8.24706e-06 -2.57077e-22)
(0.000703915 -0.000368775 -6.9402e-22)
(-0.000307146 -0.000198114 -1.73799e-22)
(-0.00398913 0.000495847 -5.82656e-24)
(0.00256331 -0.00308556 -2.29885e-22)
(2.39472e-05 1.24348e-06 0)
(-1.79479e-05 -0.000189612 -3.36181e-23)
(1.52465e-05 -1.83631e-06 3.89259e-22)
(0.00175681 0.000154315 1.13228e-22)
(0.000138621 1.41645e-05 -1.91808e-22)
(-0.000317312 0.00118988 2.61813e-22)
(0.000196613 -2.12296e-05 3.93365e-22)
(0.00044461 0.000104195 0)
(0.00222674 0.000947833 0)
(-9.54045e-06 0.000153893 0)
(0.000383187 3.54327e-05 0)
(0.000212223 -5.12657e-06 -6.15226e-22)
(3.80653e-05 -3.14199e-05 1.22373e-22)
(0.00414186 0.00010403 0)
(3.14691e-05 -6.52961e-06 7.21122e-22)
(0.000166272 0.000106758 0)
(5.91963e-05 -5.52575e-05 0)
(-0.00392717 0.00212852 1.41469e-22)
(0.00116239 -3.36929e-05 -7.98423e-22)
(0.000203142 -2.1081e-05 2.21903e-22)
(2.32372e-05 3.47648e-05 -2.75188e-22)
(-6.44888e-05 -0.000216888 0)
(6.11662e-05 8.74429e-05 -1.80553e-22)
(2.62466e-05 0.000186214 -6.91766e-23)
(-0.000213242 -0.00150432 -8.66612e-23)
(4.59203e-05 -4.29995e-05 0)
(-0.00095946 -0.000836359 4.42408e-22)
(7.68497e-06 -7.64362e-07 -9.91699e-23)
(0.000237557 -0.000271132 7.43147e-22)
(0.000148746 -0.000146655 -4.32919e-23)
(-0.00312087 -0.000116535 0)
(-0.002652 -0.00148296 1.28127e-22)
(-1.42033e-05 0.000647353 4.72917e-23)
(0.000198535 -2.14087e-05 -3.38304e-22)
(1.14454e-05 -9.722e-07 0)
(0.000226201 -2.91798e-05 0)
(-7.02853e-05 0.000804016 -2.21578e-22)
(-0.00386724 0.000547889 1.81405e-23)
(0.00313611 -0.0017843 5.5233e-22)
(2.37727e-05 -1.22738e-07 2.10799e-22)
(2.33768e-05 2.79287e-05 0)
(0.000298371 -0.00108747 3.58205e-22)
(3.59774e-07 6.01715e-06 3.10957e-23)
(7.15528e-05 0.000608013 0)
(0.000161551 0.000833649 5.88576e-22)
(4.52631e-05 6.22325e-05 -1.52461e-22)
(-0.00131243 -0.00287445 -4.58304e-22)
(-0.00323692 -0.00330662 -4.88748e-22)
(0.000114985 -5.15258e-05 4.85173e-22)
(2.79088e-06 5.53588e-05 7.89975e-24)
(6.34358e-08 6.55084e-07 8.67761e-24)
(5.69369e-05 9.13013e-05 -1.29287e-24)
(8.1342e-05 8.19636e-05 -2.07923e-22)
(0.000205557 9.06017e-05 1.96222e-22)
(-0.000687045 -0.000270361 0)
(3.95959e-05 -9.03523e-05 1.00307e-21)
(3.37824e-05 5.47675e-05 8.31905e-24)
(0.00269612 -0.00320194 0)
(0.000377451 4.79359e-05 -7.39427e-23)
(0.00223095 -0.000163026 2.02902e-24)
(-4.14645e-06 0.000158324 4.70235e-23)
(3.35136e-06 0.000654588 1.74865e-22)
(0.0040703 0.000175015 0)
(-0.000211367 0.000614302 -1.96242e-24)
(0.00562992 -0.00461628 0)
(0.00293392 4.39147e-05 5.06292e-22)
(0.000103975 -5.30002e-05 -2.44023e-25)
(0.000205256 0.000280105 0)
(3.43718e-05 -9.74289e-06 0)
(0.00267389 -0.00342906 1.9389e-22)
(-4.20325e-05 -0.000665024 -2.30155e-22)
(0.00659337 -0.00456046 0)
(0.000247666 -8.3628e-05 3.52355e-25)
(0.000414772 0.000543406 4.63837e-23)
(3.7449e-05 -3.15718e-05 -9.20773e-22)
(0.00252969 0.000773405 -2.65186e-22)
(-0.000185759 -0.000553401 1.44422e-21)
(3.18436e-06 8.01224e-05 -2.19505e-22)
(0.000223774 -4.59764e-07 0)
(2.93465e-05 6.56036e-06 0)
(1.25e-05 0.000194261 8.39099e-23)
(3.63991e-08 4.68228e-07 0)
(-3.04877e-05 0.000827692 -1.67085e-22)
(0.000109976 -0.00020897 6.04971e-22)
(0.00613732 -0.000313281 7.24273e-22)
(0.00199966 -0.00406984 0)
(0.00020778 -6.95833e-05 -3.95199e-25)
(0.000375243 5.61175e-05 -7.09747e-23)
(0.000168105 -3.76638e-05 -2.8833e-22)
(-0.00168126 -0.00193497 2.03475e-22)
(0.000139186 1.2647e-05 0)
(8.14846e-05 8.08262e-05 -1.96113e-22)
(0.000603226 -0.00016693 6.16059e-23)
(0.000167315 2.27372e-05 -2.24899e-22)
(-0.00129227 -0.0027943 5.47434e-22)
(0.000682774 -0.000173334 0)
(0.0043165 -0.000665582 1.15699e-23)
(-0.00175155 -2.08563e-05 -2.23113e-23)
(2.29793e-05 2.86388e-05 3.61272e-22)
(0.0023163 -0.00356349 0)
(-0.000311527 -6.2281e-05 -7.57675e-22)
(1.22658e-05 7.24387e-05 -3.55781e-23)
(3.7451e-05 -2.3438e-06 0)
(7.70141e-06 0.00024225 -1.73105e-23)
(2.35136e-05 4.54635e-05 -9.82973e-23)
(5.4101e-05 0.000117243 -1.842e-22)
(3.02312e-05 5.81804e-05 1.71056e-23)
(0.00259149 -0.00127814 -2.92444e-22)
(0.000194678 -2.54227e-05 0)
(0.000144376 -1.37158e-05 4.43634e-22)
(0.00134784 -0.000312656 1.0798e-21)
(0.000219434 0.000507227 0)
(-5.7004e-06 0.000150201 0)
(2.31465e-05 4.62688e-05 -9.99714e-23)
(-0.000298221 -0.000213306 -1.05704e-21)
(0.000258839 -0.000376204 3.22853e-22)
(3.10096e-05 1.16704e-05 0)
(3.89239e-05 -0.000206483 0)
(5.67505e-05 9.19942e-05 -3.78071e-22)
(3.38065e-05 -9.99375e-06 -2.78788e-22)
(0.000105619 -5.24813e-05 -4.17667e-22)
(1.58543e-05 0.000195937 1.98538e-22)
(-0.000128687 0.00104619 -2.69882e-24)
(4.72743e-05 -3.47245e-05 4.04246e-22)
(0.00226883 -0.00766295 -4.5002e-22)
(0.000202238 -2.1289e-05 0)
(-0.000255261 6.63397e-05 0)
(0.00165671 -0.00125972 3.05576e-22)
(6.12911e-05 0.000295526 -8.93127e-23)
(0.000267354 0.000589055 0)
(-0.00340696 -0.0037265 -1.11626e-21)
(0.00095583 -0.000756679 0)
(0.000412805 0.00096227 0)
(-0.00225024 -2.06776e-05 0)
(2.95937e-05 6.01541e-06 0)
(-0.000848544 -0.000859426 -7.3678e-23)
(-0.000138788 0.000573444 0)
(2.07291e-05 0.000549581 0)
(0.00168185 -0.000362403 3.07852e-22)
(0.000107895 -0.000205148 7.662e-22)
(3.7354e-05 -3.17435e-07 0)
(-0.00784879 -0.000202127 2.81609e-22)
(0.00562306 -0.000249418 1.03926e-21)
(0.000809823 -0.00317287 -1.68978e-22)
(0.00049302 6.69325e-05 0)
(0.000115103 0.000525896 -1.80691e-22)
(0.000553076 -0.00082016 -1.82642e-22)
(0.000153876 1.42718e-05 2.47464e-22)
(0.000254838 -0.0001725 2.47243e-22)
(-0.00016358 -0.000393496 1.19739e-22)
(0.000197892 -0.000613043 9.16411e-22)
(0.00263629 -0.00329383 1.98307e-22)
(0.000504077 0.000597553 -1.0123e-22)
(3.93443e-06 -1.99383e-06 -8.17732e-22)
(0.000269598 0.000617961 0)
(3.24399e-05 1.84625e-05 0)
(0.00147096 0.00185441 0)
(-0.00188901 -0.00385318 -8.57097e-22)
(4.87551e-05 -3.56101e-05 0)
(-9.4198e-07 5.39206e-05 -8.27082e-24)
(0.00055157 3.08159e-05 2.21595e-22)
(3.10268e-05 3.50647e-06 0)
(0.000937586 -0.00132188 3.03256e-22)
(0.000383114 -0.00034038 -1.11737e-21)
(1.07971e-05 2.65431e-05 0)
(8.89294e-05 7.62182e-05 2.33179e-22)
(-4.97431e-05 -0.000653635 -4.04417e-22)
(9.92786e-05 0.000406853 -1.25382e-22)
(-0.00361161 -0.00017611 0)
(0.000231512 -8.23207e-05 0)
(0.00128665 -8.11886e-05 5.54022e-22)
(-0.00480724 9.49779e-05 -1.2557e-23)
(0.00222704 -0.000124627 -7.57433e-23)
(0.000370491 -0.00288099 -4.24438e-22)
(0.000201932 2.46463e-05 -3.35562e-22)
(0.00037822 -4.39004e-05 0)
(0.000301836 4.11594e-05 -1.57115e-24)
(0.000588214 0.00229889 -2.68904e-22)
(0.000249266 0.0002573 6.2684e-23)
(-2.963e-06 0.000644864 -2.39837e-22)
(0.000212545 8.92362e-05 -8.94124e-23)
(0.000681111 -0.000627568 0)
(9.32539e-06 -0.000413194 -5.77526e-22)
(2.32033e-05 3.25191e-05 2.4044e-22)
(0.00642262 -0.00460771 0)
(0.000557837 0.000283625 1.2276e-22)
(0.000572318 0.000287048 0)
(0.00130053 -0.00023102 -1.18782e-21)
(4.98485e-07 2.25543e-05 8.47031e-23)
(4.97418e-05 2.97187e-05 -2.82399e-22)
(2.1882e-05 5.47046e-05 1.41029e-24)
(-0.00495085 -9.02836e-07 5.18871e-23)
(0.000279706 -0.00106939 3.57244e-22)
(3.53265e-05 2.39712e-05 0)
(1.1954e-05 0.000126381 3.21949e-22)
(0.000765488 -0.00234064 3.75886e-22)
(-0.000121883 0.00116359 5.3986e-22)
(0.00584579 -0.00612055 9.90766e-23)
(0.002221 -0.00403511 -3.03813e-22)
(0.000229136 0.000514552 0)
(0.000312868 0.000313201 -1.82182e-22)
(0.00527437 -0.001168 0)
(-3.91314e-05 0.000859715 -4.34997e-23)
(0.000327285 0.000114624 1.34244e-22)
(3.75467e-06 8.29249e-05 2.38314e-22)
(6.27841e-05 0.000166866 3.50757e-22)
(0.00120309 0.00106855 3.31111e-22)
(3.47915e-05 2.25728e-05 -5.70315e-23)
(3.30555e-05 -1.26876e-05 3.79768e-22)
(-2.84283e-05 0.000718929 -2.72928e-22)
(6.45014e-05 0.000129821 1.99542e-22)
(4.3334e-05 -3.47433e-05 -5.17306e-22)
(6.01055e-05 -0.000110599 -2.48685e-22)
(0.00260887 -0.00114689 6.76545e-22)
(2.53076e-05 0.000142902 0)
(0.000414593 -9.6281e-05 0)
(-0.00215586 0.000181704 8.3406e-22)
(0.00316308 -0.000137377 -8.18573e-25)
(0.000752412 1.75698e-05 -2.03908e-22)
(0.000248569 0.000108679 -1.97026e-22)
(1.90531e-05 -2.04839e-05 0)
(0.00417312 -0.000278632 -9.16132e-22)
(7.58343e-05 0.000127021 -2.45595e-22)
(3.40254e-08 1.10044e-07 -9.04349e-23)
(0.00709932 -0.00155428 6.94784e-22)
(0.00457624 -7.00809e-05 8.31127e-23)
(2.64493e-05 0.000144293 0)
(0.000471774 8.70237e-05 -4.51152e-22)
(1.21126e-05 2.61385e-05 -3.05659e-23)
(-0.000143866 0.000566036 5.81056e-23)
(0.00030603 -0.000909177 0)
(1.01239e-05 2.57955e-05 9.0037e-23)
(-4.87784e-05 -0.0029388 -9.59177e-23)
(0.00189913 -0.00401274 0)
(0.000167177 0.00072566 9.86469e-23)
(9.98734e-06 -6.39126e-06 -2.27732e-22)
(0.000108454 0.00094259 0)
(-0.000116014 0.0008781 0)
(5.55314e-07 2.4127e-05 -2.0661e-23)
(2.86555e-05 1.64684e-06 2.12343e-22)
(0.000203371 -6.77416e-05 -3.70094e-22)
(-0.000156297 -0.000214385 -1.25291e-22)
(0.000100394 -5.43049e-05 2.42078e-22)
(0.000143563 0.000376875 0)
(9.16889e-05 0.000144378 0)
(-0.00190778 -0.00374223 8.5643e-22)
(8.45595e-05 7.52652e-05 0)
(0.000667778 -0.000590379 -3.88023e-22)
(-0.00200503 0.000260622 1.22707e-22)
(-0.00241626 -0.00337453 5.25665e-22)
(-0.00012585 0.00058824 0)
(6.12841e-05 2.58392e-05 0)
(0.000344545 0.000182111 0)
(9.81828e-06 0.000124426 0)
(8.60191e-05 0.000402907 1.33873e-22)
(0.000245163 0.000263575 -7.12142e-23)
(3.61325e-05 3.05022e-05 1.18999e-22)
(4.90992e-05 0.000117714 4.50515e-23)
(0.000779239 -7.7336e-05 -2.08607e-22)
(-0.00483585 0.000112176 6.04204e-23)
(1.06827e-05 0.000127005 0)
(6.09841e-05 0.00023289 -1.92087e-22)
(0.000738176 -0.00180583 0)
(0.000118104 0.000808386 0)
(2.40883e-05 5.07716e-06 0)
(-0.0003741 0.00064556 -5.58538e-25)
(3.04484e-05 2.44604e-05 -1.60504e-22)
(0.00103263 -0.00107426 3.21105e-22)
(0.00018303 -1.8893e-05 -7.41939e-23)
(9.96295e-05 -5.4575e-05 -1.78288e-22)
(5.33513e-06 0.000151033 2.25175e-22)
(3.27175e-05 5.09251e-05 2.47122e-22)
(0.000558266 -0.000796195 3.57202e-23)
(0.0043592 -0.00065811 -5.33047e-22)
(0.00409034 -0.00375299 0)
(0.000411887 3.90081e-05 -4.46468e-22)
(1.52232e-06 -4.6789e-05 1.52992e-24)
(0.00041168 4.61107e-05 0)
(0.000152813 1.1993e-05 0)
(0.00018726 0.000427995 0)
(6.55637e-05 8.81639e-05 -8.45064e-23)
(5.05149e-05 2.79723e-05 1.51821e-22)
(3.7519e-05 2.8239e-05 0)
(0.00157922 -0.000362076 0)
(1.14704e-05 2.56335e-05 5.01183e-23)
(4.19931e-06 0.000244453 8.1183e-23)
(0.000351986 -2.98626e-05 3.49405e-22)
(6.17459e-05 4.94376e-05 -3.17196e-22)
(0.000117616 -5.86173e-05 -2.91545e-22)
(0.00235665 0.00715779 -1.28526e-21)
(0.000867216 -0.00112101 0)
(6.02077e-05 0.000160205 -5.98599e-23)
(0.00234419 -0.000374161 7.46373e-22)
(0.00167005 0.000205857 0)
(3.60312e-05 3.01115e-05 0)
(0.00375576 -0.000144319 0)
(4.23814e-05 -3.49703e-05 0)
(0.00389384 -0.000658881 0)
(0.000283667 -0.000160038 0)
(0.00251328 -0.00112573 0)
(8.48548e-06 0.000732932 -1.579e-23)
(0.000120629 -0.000454316 3.09389e-22)
(-0.000139462 0.000474271 0)
(3.4199e-05 0.000674353 1.21961e-22)
(-8.58525e-05 0.000126729 0)
(0.00212365 -0.00396321 2.51919e-22)
(0.00769885 -0.000723787 -6.80627e-22)
(2.13148e-05 5.84742e-05 0)
(5.17721e-07 2.72201e-05 0)
(0.000534106 3.26908e-05 1.88333e-22)
(0.000405997 -8.42013e-05 0)
(0.000425044 3.07328e-05 4.05093e-22)
(9.77893e-05 -5.41953e-05 -8.81668e-25)
(0.000718661 0.00226051 1.51722e-22)
(3.37849e-05 0.000145518 -3.05114e-22)
(3.28241e-05 -0.000210405 6.42593e-22)
(0.00162825 -0.00039627 -2.49666e-22)
(2.38969e-05 5.50101e-06 2.19222e-22)
(0.000221973 1.2932e-07 -3.75003e-22)
(2.25871e-05 0.000570105 -1.1479e-22)
(0.000157525 5.09045e-05 2.34409e-22)
(0.000552626 0.00069586 1.15918e-23)
(0.000807351 -0.00166824 0)
(0.000348346 0.000756813 1.3854e-23)
(-0.000245278 0.000821601 -2.5072e-22)
(-0.000128605 -0.000731338 -1.53797e-22)
(-3.05851e-05 0.00087174 0)
(3.55999e-05 3.12271e-05 3.76652e-22)
(3.06456e-05 -3.00337e-06 -3.2107e-22)
(0.000196291 -2.52282e-05 -3.61711e-22)
(6.05946e-05 2.81616e-05 -1.83163e-22)
(0.000149046 -9.1859e-06 0)
(8.31428e-05 7.71737e-05 0)
(0.000788602 -0.0022561 8.04547e-22)
(0.000111368 0.000107196 0)
(-0.00186728 -0.00352017 -1.04596e-22)
(0.000189669 -0.000263015 0)
(1.86766e-05 -0.000407636 4.91018e-22)
(0.00370051 -3.23461e-05 0)
(0.000202407 2.96669e-05 3.80415e-22)
(0.000716238 -0.000204293 -2.46528e-22)
(0.000113872 -1.28008e-06 -4.38249e-23)
(-0.00367495 0.00065646 0)
(-0.00458407 -5.86345e-05 9.12984e-23)
(6.79217e-05 1.86513e-05 0)
(3.43727e-07 3.28723e-06 -1.57562e-22)
(2.89714e-05 0.00066365 -5.06775e-23)
(0.00624957 -0.000294542 -7.20799e-22)
(0.000170301 -3.48851e-05 0)
(8.632e-06 0.00012671 1.8827e-22)
(0.0023401 -0.000760554 0)
(0.00149778 0.000695103 -2.68468e-22)
(0.000183175 0.000723583 -9.03994e-23)
(0.00273063 -0.000329324 2.32703e-22)
(-1.54227e-05 0.000190603 0)
(0.000197201 -1.89982e-05 -4.08114e-22)
(0.000351008 7.09592e-05 0)
(0.00207503 -0.00298155 0)
(5.52324e-05 0.000119162 0)
(2.74599e-07 2.86823e-06 9.11503e-24)
(-9.2855e-05 0.00032955 0)
(0.000920405 0.000419871 7.94399e-22)
(0.000283892 -0.000152125 3.30219e-22)
(0.000145957 -1.57475e-05 0)
(0.000947629 0.00211719 0)
(0.00755499 -0.00333956 3.82292e-22)
(9.40795e-08 2.35516e-05 2.10298e-23)
(3.02444e-05 -4.17918e-06 0)
(0.000110085 0.000214896 0)
(0.00114863 -0.00194068 2.01924e-22)
(0.00100441 -0.00103908 3.40861e-22)
(0.00730495 -0.0040901 -6.22784e-22)
(-9.47279e-05 0.000871456 -4.9935e-23)
(0.00211506 -0.00290735 0)
(0.00211161 0.000346055 0)
(0.00219227 -0.000778908 0)
(0.00113079 0.000190317 0)
(-0.00118672 0.000238593 2.71097e-22)
(2.99098e-05 2.19582e-05 -4.38266e-22)
(8.64401e-05 8.76349e-05 -2.4312e-22)
(0.000249299 -0.000167192 0)
(6.86206e-05 1.57157e-05 1.11485e-22)
(-0.000455843 -0.000936954 -1.8206e-22)
(0.00054572 0.000274461 0)
(0.00083037 0.00247822 -4.10934e-24)
(0.000112641 0.000104196 -9.22252e-23)
(-0.0018053 0.00118633 0)
(0.00110759 0.00141107 -4.32095e-22)
(6.5782e-05 5.78516e-05 0)
(0.00104493 0.00146367 5.58369e-22)
(3.75081e-05 3.67661e-06 1.35867e-22)
(0.000105142 -6.7679e-05 -1.40384e-22)
(0.000441711 0.000964286 1.02154e-22)
(-1.43678e-05 0.000578297 1.88764e-22)
(0.000599354 0.00230085 1.40933e-22)
(0.000142441 0.000244297 0)
(-0.00208526 -0.00159993 0)
(3.46802e-05 3.01131e-05 -6.30489e-22)
(0.000584189 0.000276903 0)
(0.00225255 -0.000247991 -1.74773e-22)
(-0.000309901 -0.00163639 1.27141e-22)
(2.20931e-05 7.55153e-07 0)
(-3.5476e-06 -3.38921e-05 2.95598e-22)
(0.00138892 0.00107206 0)
(4.9201e-05 0.000261269 3.40592e-22)
(9.96399e-05 -5.43443e-05 -2.46981e-22)
(1.76244e-05 2.95367e-06 4.00761e-22)
(1.18555e-07 0.000126629 0)
(6.81544e-05 2.18216e-05 9.43166e-23)
(0.00137499 9.11999e-05 0)
(9.53206e-07 0.000452457 -5.47081e-25)
(4.98286e-05 -3.79491e-05 3.20937e-22)
(8.17001e-06 -8.20132e-05 -8.23945e-22)
(0.000566988 -3.5206e-05 0)
(0.00071199 -0.00221118 -4.06702e-22)
(8.66747e-05 8.58648e-05 2.76859e-22)
(3.23772e-05 -1.84299e-06 0)
(6.51471e-05 8.94715e-05 0)
(0.000385007 -0.000352289 8.85719e-22)
(0.000212234 -1.27929e-05 2.36172e-22)
(0.000153568 7.20331e-06 2.68993e-22)
(-0.000105552 0.00046688 0)
(-2.85153e-05 -9.46226e-05 -3.83247e-22)
(-0.00185955 0.000444228 -4.00265e-23)
(3.57053e-05 0.00018123 -1.20575e-24)
(2.19656e-05 1.7541e-07 -3.12696e-25)
(3.01181e-05 1.78232e-05 1.10694e-22)
(0.000146038 -0.000152583 -6.17697e-22)
(0.000296026 3.95019e-05 2.92077e-22)
(7.22351e-07 2.75026e-05 -4.86541e-23)
(-0.00123117 0.0010579 2.72797e-23)
(4.43586e-05 -0.000627534 1.3011e-22)
(0.000137269 8.56e-05 0)
(1.90921e-06 5.57018e-05 0)
(6.58126e-05 3.65189e-05 0)
(-0.00492362 -0.00209732 -1.46355e-21)
(-0.000308268 0.00095635 7.73627e-22)
(1.3727e-06 -6.00394e-05 2.38834e-22)
(-5.60703e-06 0.000116931 -1.61128e-22)
(0.00344896 0.000416793 -1.66279e-22)
(0.000109279 8.71324e-05 3.98345e-22)
(0.000177817 2.89765e-05 7.69258e-23)
(-5.96649e-05 0.000596135 9.3556e-24)
(4.88739e-05 -3.84699e-05 0)
(-0.000115031 0.000595153 -2.91262e-22)
(0.000138573 1.14259e-05 -2.83956e-22)
(0.0004558 0.00010721 2.84115e-24)
(2.47832e-06 5.29434e-05 -5.93787e-26)
(0.000143955 3.56099e-05 -3.23961e-22)
(-0.000658474 -0.000165043 2.24428e-22)
(-2.2806e-05 0.000417741 0)
(5.04741e-05 0.000118631 2.65272e-23)
(0.00360581 -1.78551e-06 0)
(3.443e-05 1.51365e-05 -2.79072e-22)
(-0.000688439 -0.000177032 -2.26793e-23)
(0.000164099 -5.63226e-06 0)
(-4.42332e-05 -0.000331274 2.44056e-22)
(9.56527e-05 9.62408e-05 1.423e-22)
(9.32604e-07 -6.25468e-05 8.74658e-22)
(0.00512752 -0.000400464 4.55926e-22)
(1.94313e-05 5.27316e-07 0)
(0.000288547 0.00030342 -1.30079e-22)
(6.18554e-08 -0.00081823 -3.54284e-23)
(0.000256301 0.000170953 -5.707e-23)
(6.34166e-05 -4.60511e-05 3.49698e-22)
(-8.79979e-05 0.000331907 -2.11099e-22)
(0.0031805 7.63164e-05 0)
(0.000234054 -0.000261626 -1.1274e-21)
(-0.00166181 -0.00016463 0)
(0.000254116 0.000109499 0)
(0.000112066 0.00204453 -2.38993e-22)
(-0.00014424 0.000110294 -2.12897e-22)
(0.00065629 4.13845e-05 2.3913e-22)
(1.93791e-05 1.0276e-07 8.7569e-23)
(0.00120379 -0.000362176 0)
(0.00014167 2.52379e-05 -1.80149e-22)
(-1.27657e-06 0.000126374 -8.94545e-23)
(3.85325e-05 1.24556e-05 0)
(3.77496e-05 1.63718e-06 1.48283e-22)
(0.00186275 -2.79756e-05 0)
(-0.000108372 1.84474e-05 5.56616e-22)
(-0.00189625 0.00168195 1.03527e-23)
(0.000303547 0.000313912 0)
(2.89904e-05 0.000638577 7.16622e-23)
(4.02932e-05 4.21777e-05 2.34332e-22)
(0.000140712 0.000112803 0)
(1.85939e-05 9.17228e-06 5.92923e-22)
(3.96134e-05 7.39699e-05 -1.66797e-22)
(0.00750654 -0.0020975 8.27902e-22)
(0.000414655 0.000916924 -7.89612e-23)
(-0.00127643 0.000239463 0)
(2.92852e-07 4.77973e-06 1.07918e-22)
(-0.00115731 0.00114333 2.7094e-23)
(7.85722e-05 0.000403808 -8.63677e-24)
(0.00137898 -0.00144795 3.09809e-22)
(-0.00208139 -0.00355538 -8.74888e-22)
(0.00385392 -0.00102295 -1.7227e-22)
(-0.00219021 -0.00347139 0)
(0.00122556 -0.00323701 0)
(-0.00122026 -0.000291703 0)
(-0.00294197 -0.000111881 1.94546e-22)
(-0.00504127 -0.00223622 1.71379e-21)
(0.00239569 -0.000217029 -2.61971e-22)
(3.07964e-05 3.63592e-06 0)
(0.00774572 -0.00329944 -8.90133e-23)
(0.000606157 0.00205596 -5.93968e-22)
(0.00026955 -0.00243155 0)
(0.000503668 -0.00295674 4.53948e-22)
(0.00376679 -0.00368765 -1.00775e-23)
(0.00297073 -0.00124433 3.92697e-22)
(0.000454903 0.000106385 -4.24562e-22)
(0.00297348 -0.00358224 -1.37565e-22)
(-4.82241e-05 0.00025443 -6.59135e-23)
(0.000111595 0.000540699 1.96479e-22)
(0.000254101 0.000988707 1.23198e-23)
(8.41991e-05 -0.000191798 3.85167e-22)
(1.9866e-05 1.62589e-05 -2.26283e-22)
(8.3955e-07 5.59747e-05 -1.01378e-23)
(1.86174e-05 8.60892e-06 -1.74917e-22)
(-0.00880695 -6.92238e-05 5.61631e-22)
(0.00066362 -0.000183555 5.83497e-23)
(0.000195522 -1.86034e-05 -3.81532e-22)
(1.1706e-06 -6.53168e-05 0)
(4.22258e-05 2.85928e-07 6.10758e-22)
(-2.50684e-06 2.69373e-05 7.22536e-23)
(0.000546044 -0.00388573 -1.02179e-22)
(3.83332e-05 2.74675e-05 2.81498e-22)
(-0.00776297 -0.000272509 -1.26829e-24)
(-0.000145065 -0.00232094 -5.71792e-22)
(0.000312254 2.46341e-05 0)
(6.18849e-05 -4.53947e-05 -4.21728e-22)
(-0.00235725 -0.0034941 5.18315e-22)
(-0.000142556 -0.000340122 1.11968e-22)
(3.11515e-05 2.01763e-05 0)
(0.000647058 4.34852e-05 0)
(-0.004 0.00236453 0)
(0.00508621 -0.000852467 1.89257e-22)
(-0.00363782 0.000221593 0)
(3.40323e-07 3.04459e-06 2.93907e-22)
(0.000157367 0.000165938 1.20274e-24)
(0.00174337 -0.000822267 0)
(0.000100329 5.22446e-05 0)
(0.000229497 -5.22302e-05 1.74013e-22)
(0.00627248 -0.00473778 -5.09553e-22)
(0.000105097 -6.99188e-05 0)
(0.00377891 -0.000799253 6.4583e-22)
(0.00142729 0.000825802 -4.2074e-22)
(-0.000358246 0.00122922 -2.74656e-22)
(5.89239e-05 8.99252e-05 -2.30357e-22)
(3.29497e-05 7.12993e-06 0)
(-0.000140011 0.000956992 2.62928e-22)
(0.00032189 0.000151953 -2.71741e-22)
(-0.0031681 0.00318676 0)
(0.000154436 9.21614e-06 -2.99751e-22)
(0.000660621 -0.00247397 8.48992e-22)
(9.1788e-05 0.000410203 -3.15564e-22)
(0.000220299 0.000270727 0)
(0.00140236 -0.00139508 3.07336e-22)
(-0.0010925 0.0100342 4.10107e-22)
(0.00037439 -0.000267436 -1.72256e-22)
(0.000139246 -0.000434391 9.96853e-23)
(4.70607e-06 5.54371e-05 0)
(2.63629e-07 2.6923e-06 -1.6826e-22)
(4.23475e-06 5.2251e-05 -3.11069e-23)
(0.000627603 -0.000178095 1.4068e-22)
(0.000207959 0.000977646 0)
(-0.00302832 0.000302325 0)
(0.000418767 -0.000229592 4.80738e-23)
(0.00024321 -8.59121e-05 -1.74806e-22)
(-0.00166074 0.000207791 -1.71806e-24)
(0.00182752 -0.000164062 2.96076e-22)