/*--------------------------------*- C++ -*----------------------------------*\
| =========                 |                                                 |
| \\      /  F ield         | OpenFOAM: The Open Source CFD Toolbox           |
|  \\    /   O peration     | Version:  v2012                                 |
|   \\  /    A nd           | Website:  www.openfoam.com                      |
|    \\/     M anipulation  |                                                 |
\*---------------------------------------------------------------------------*/
FoamFile
{
    version     2.0;
    format      ascii;
    class       surfaceScalarField;
    location    "400";
    object      ddtCorrDdt0(phi);
}
// * * * * * * * * * * * * * * * * * * * * * * * * * * * * * * * * * * * * * //

dimensions      [0 3 -2 0 0 0 0];
oriented        oriented;


internalField   nonuniform List<scalar> 
81198
(
-7.89573e-06
6.0306e-06
1.86513e-06
-3.6634e-05
8.82146e-06
2.78122e-05
-9.02506e-07
-8.67527e-06
9.57778e-06
0.000172875
-7.88501e-05
-9.40257e-05
-3.87192e-05
9.50332e-05
-5.63142e-05
-1.45857e-05
-6.08745e-06
2.06735e-05
8.30487e-05
-9.21723e-05
9.12299e-06
4.45531e-05
6.72443e-07
-4.52257e-05
3.65043e-05
-3.11645e-05
-5.3402e-06
-1.60263e-05
4.87386e-06
1.11524e-05
-1.45715e-06
1.32571e-05
-1.17998e-05
4.41478e-06
1.9995e-05
-2.44095e-05
-1.04086e-05
2.34694e-05
-1.3062e-05
1.412e-05
-3.64441e-06
-1.04756e-05
2.5953e-05
2.16628e-06
-2.81192e-05
-4.09474e-06
-1.25267e-05
1.66214e-05
5.23325e-05
-7.77943e-06
2.87107e-05
-2.57569e-05
-2.95403e-06
-3.83625e-06
-1.219e-05
-8.40889e-06
-9.88533e-06
1.82943e-05
9.30518e-06
-1.02077e-05
2.78589e-05
-1.34771e-05
-1.43818e-05
-2.97079e-06
1.12389e-05
-8.26813e-06
2.59034e-06
-4.59273e-06
2.00174e-06
3.15894e-06
-3.17946e-06
2.05363e-08
-2.37186e-05
0.000125598
-0.000101878
-4.90348e-06
-2.99224e-06
-6.33879e-05
1.81898e-05
4.51979e-05
7.18595e-05
-3.70933e-05
-3.47662e-05
8.05287e-06
-1.10237e-05
0.00010436
-0.000128078
2.14846e-05
-3.75348e-05
1.60511e-05
1.5261e-06
7.47228e-06
-8.99836e-06
-1.41226e-05
1.90799e-05
-4.95721e-06
2.29844e-05
-1.75895e-05
-5.39485e-06
-1.10571e-06
1.7327e-05
-1.62213e-05
-2.51823e-05
9.17266e-06
1.60098e-05
-2.9854e-05
-6.7804e-06
1.54683e-05
-1.40195e-06
-1.40663e-05
1.3111e-05
1.47479e-05
1.09411e-05
-2.25004e-05
1.15591e-05
7.80133e-05
-9.6839e-05
1.88259e-05
-1.15202e-05
5.77413e-06
5.74606e-06
-8.91684e-06
2.26645e-06
6.65032e-06
-2.79764e-05
1.87949e-05
9.18131e-06
-9.33659e-06
2.10206e-05
-1.16841e-05
-9.38338e-05
6.7684e-05
2.615e-05
-2.08049e-05
-5.5008e-06
2.63053e-05
1.02528e-05
-2.95247e-06
-7.30017e-06
1.21373e-05
-1.30356e-05
8.9816e-07
-7.6291e-06
9.15521e-06
-1.24034e-05
6.07394e-06
6.32958e-06
1.71175e-05
2.52601e-06
-1.96436e-05
-1.73938e-05
-1.05827e-05
-0.00013749
6.53102e-05
7.21789e-05
-3.63709e-06
7.92308e-06
-4.28594e-06
-3.65245e-06
-8.78474e-06
1.24625e-05
-0.000103601
-0.000212546
0.000316141
9.95545e-05
-3.62541e-05
-6.33005e-05
-1.65213e-05
2.55351e-05
-9.01364e-06
-6.94802e-06
-4.5722e-06
2.10224e-05
-1.62807e-05
-4.74172e-06
3.88513e-06
1.02349e-05
-8.0073e-05
0.000170438
-9.0365e-05
6.2727e-06
-4.87183e-07
-5.78556e-06
1.56365e-05
-1.97312e-05
-7.04107e-05
6.80013e-05
2.40898e-06
3.78336e-05
-2.3857e-05
-1.39773e-05
-3.87289e-05
4.23661e-05
-3.63699e-06
3.90043e-05
6.04251e-07
-3.96084e-05
-3.79355e-06
-8.6097e-06
7.94675e-06
1.50375e-05
6.95793e-06
-6.85245e-07
-0.000214686
0.000189643
2.50441e-05
-2.54105e-05
3.01366e-05
-4.72591e-06
-7.72006e-06
3.1038e-05
-2.33178e-05
3.27702e-05
-5.17759e-05
1.90057e-05
5.99276e-06
-3.04183e-05
2.44267e-05
-7.11441e-06
1.96969e-05
-1.2582e-05
-1.88236e-05
-3.59363e-06
2.24171e-05
7.28151e-06
-5.17921e-06
-2.10228e-06
2.54945e-06
9.22496e-05
-9.47991e-05
-7.11954e-06
-1.79752e-06
-5.19604e-05
9.43693e-06
4.2523e-05
-7.80303e-06
1.76356e-05
-9.83248e-06
-0.0001984
-1.62866e-05
4.25977e-05
-3.8946e-05
-3.65177e-06
-8.35427e-05
8.81076e-05
-4.56592e-06
-1.6652e-05
-6.60633e-06
2.32585e-05
-2.66344e-07
-9.15861e-06
9.42499e-06
1.51873e-05
-1.51872e-05
2.46709e-05
-1.10569e-05
-1.36139e-05
8.53654e-05
-6.74644e-05
-1.7901e-05
1.9144e-05
1.55214e-05
-3.46664e-05
9.01126e-06
-1.65965e-05
7.58532e-06
6.48463e-05
-6.48892e-05
4.29217e-08
-7.87599e-07
0.000247699
-0.000246911
-2.2656e-05
0.000102961
-8.03049e-05
1.52633e-05
-1.561e-05
3.46714e-07
1.27776e-05
-6.4042e-07
-6.02424e-06
-1.03797e-05
1.6404e-05
4.34854e-05
5.44766e-05
-9.79619e-05
4.94686e-06
-1.8318e-05
1.33711e-05
2.90897e-06
4.09332e-06
-7.00228e-06
3.80599e-05
-1.65735e-05
1.3499e-05
-2.60282e-05
1.25287e-05
1.61861e-05
3.82902e-06
-2.00151e-05
-8.87538e-05
5.21054e-06
-3.03527e-05
2.26327e-05
-2.52264e-05
1.71976e-05
8.02873e-06
2.0198e-05
-1.68312e-05
-3.36788e-06
4.59969e-06
2.58954e-06
-7.18922e-06
1.12254e-05
-1.14917e-05
2.92592e-05
9.02084e-05
-0.000119467
6.01725e-06
-1.30767e-05
7.05947e-06
-4.54483e-06
-1.42099e-06
5.97154e-06
3.98923e-05
-8.87841e-07
-0.000153948
7.38754e-05
-1.89585e-05
4.83606e-06
6.04169e-05
2.49486e-05
0.000103491
6.69467e-05
6.79898e-06
-6.91967e-06
1.20679e-07
-1.09158e-05
4.66002e-06
5.79388e-05
-5.08399e-05
-7.09877e-06
-1.05682e-05
1.16767e-05
-1.10852e-06
-2.33505e-05
1.9745e-05
3.60549e-06
2.32758e-05
-1.97326e-05
-3.54305e-06
-1.14633e-05
8.95098e-07
6.75221e-05
-3.82698e-05
-2.92522e-05
0.000150761
-0.000111915
-3.88462e-05
1.89328e-06
-3.46768e-06
1.57442e-06
1.67696e-05
-1.76567e-05
8.87031e-07
-2.97457e-05
2.52875e-05
4.45828e-06
1.78608e-05
-1.89665e-05
9.0661e-06
1.56048e-05
2.70529e-05
-2.40795e-05
-2.97389e-06
-1.14633e-05
1.40859e-05
-2.62258e-06
-3.41016e-05
0.000287879
-0.000253777
2.12246e-06
4.32827e-06
-6.45072e-06
6.89433e-07
8.59652e-06
-9.28591e-06
3.34761e-06
2.56513e-06
-5.91276e-06
2.73946e-05
-2.12358e-05
-6.15929e-06
-2.56658e-05
-4.0799e-06
7.75274e-05
-5.04972e-05
-2.70327e-05
2.19008e-05
-6.14739e-06
-1.57534e-05
1.55847e-05
2.2248e-05
0.000121904
-0.000105205
-1.66982e-05
-7.68932e-06
-1.74929e-05
-4.84187e-05
6.64609e-05
-1.80363e-05
-1.32274e-05
1.50575e-05
-1.82998e-06
-2.24129e-05
2.01996e-05
2.21332e-06
2.23156e-05
-1.90766e-05
-3.239e-06
-0.000114625
0.000140316
-2.56899e-05
3.38194e-05
-1.46761e-05
-2.11579e-05
1.43911e-05
6.76684e-06
0.000131089
-0.000142826
1.17366e-05
-1.68546e-05
1.53975e-05
0.00012262
8.46848e-06
3.01764e-06
1.90366e-05
-2.20539e-05
-1.43661e-05
1.72578e-05
-2.89155e-06
7.14316e-07
-3.67492e-05
3.60366e-05
-2.07986e-05
5.73056e-06
1.5068e-05
5.27873e-06
-1.93103e-06
-4.95803e-05
6.64337e-05
-1.68534e-05
-1.19294e-05
-5.14585e-05
-8.72555e-06
1.36506e-05
-4.92503e-06
5.98509e-06
-4.10135e-06
-1.88373e-06
9.01521e-06
-5.38585e-06
-3.62935e-06
1.84256e-05
-2.05745e-05
2.14897e-06
-2.13841e-08
2.40996e-08
-2.69088e-09
-2.54149e-05
-0.000102572
0.000127987
7.10906e-06
1.99437e-05
5.23437e-06
6.67011e-06
1.28855e-07
-3.1943e-05
4.15087e-05
-9.56555e-06
6.67357e-06
-9.62979e-06
2.95625e-06
-2.43871e-05
-3.04839e-05
5.48734e-05
-8.22014e-06
-1.03152e-05
1.85353e-05
-1.59478e-05
2.11857e-05
-5.23787e-06
2.2655e-05
-1.1714e-05
3.80649e-05
-6.84865e-05
3.04217e-05
-1.13117e-05
8.60325e-06
-2.74004e-05
5.50848e-05
-2.76843e-05
1.19064e-05
1.80508e-06
-1.37115e-05
7.24217e-06
-7.20345e-06
-3.87219e-08
-0.000160646
0.000160646
1.15235e-05
-1.64142e-05
4.8906e-06
-1.50118e-05
1.80265e-05
-3.01472e-06
-1.29409e-05
9.29646e-06
7.41823e-05
-1.24901e-05
-6.16886e-05
5.0746e-06
0.000179588
-0.000300395
0.000120807
-1.69631e-05
9.21886e-07
1.60413e-05
5.86881e-06
1.08912e-06
7.66609e-05
-7.6621e-05
-4.00145e-08
8.049e-05
4.14135e-05
6.18428e-06
4.22923e-06
-1.04135e-05
-5.37853e-06
-1.09428e-05
1.63214e-05
0.000133619
-1.04472e-05
1.00877e-05
3.59752e-07
-2.18308e-05
1.33086e-05
8.52218e-06
-5.86636e-06
-1.74842e-05
-1.87707e-05
6.71272e-05
-4.83571e-05
-1.08035e-05
1.57503e-05
1.94757e-05
-1.91967e-05
-2.78966e-07
1.95591e-05
-8.34298e-08
4.02017e-07
2.47269e-05
-2.00747e-05
1.22717e-05
5.31184e-06
1.01565e-05
4.37033e-06
2.91118e-06
-1.14497e-05
1.23223e-05
-8.72624e-07
-4.84773e-06
-8.09313e-06
-2.1197e-06
1.9795e-05
1.62751e-05
-3.60702e-05
1.79554e-05
-8.94419e-06
-0.00013494
-2.11069e-05
0.000156048
2.19962e-05
-3.16693e-06
-1.88215e-05
-0.000248365
-3.63765e-05
0.000284741
-2.17499e-06
4.33143e-06
-2.15723e-06
1.27627e-05
-6.57845e-06
-1.79796e-06
1.68162e-05
-1.50182e-05
5.71591e-05
-6.07761e-05
-9.85948e-05
0.000176624
-2.31839e-05
1.05702e-05
1.26137e-05
-1.51897e-06
1.99647e-05
-1.84458e-05
2.30138e-05
-1.65697e-05
-6.4441e-06
1.61426e-06
4.88177e-08
-1.66305e-06
2.40842e-05
4.62637e-06
8.35354e-06
-1.05969e-05
2.24343e-06
-1.95635e-05
2.25811e-05
2.74219e-06
2.05336e-05
-3.72689e-05
0.000136936
-9.96673e-05
0.000120261
-0.000120261
8.51162e-06
-1.26945e-06
1.58971e-05
3.41676e-06
-1.93139e-05
-0.000259556
0.00025877
0.000119757
-0.000145172
1.44559e-05
-1.82914e-05
3.83553e-06
6.36434e-06
1.6694e-05
1.94452e-05
-4.98935e-06
-1.15667e-05
-1.16172e-05
-9.03371e-06
2.88287e-05
-5.30693e-05
2.43883e-05
2.86811e-05
-2.04438e-05
4.998e-06
1.54457e-05
3.2568e-07
-1.37275e-05
1.34018e-05
-1.27181e-05
3.16524e-05
-9.80111e-05
8.40061e-05
1.40053e-05
9.26111e-05
-0.000196008
0.000103398
-9.74786e-06
6.27913e-06
3.46878e-06
2.31228e-05
-2.24076e-05
-1.7788e-05
-2.65582e-06
6.68769e-05
-0.000102134
3.52568e-05
9.24774e-05
5.69234e-05
-0.000149401
-6.59025e-06
4.20897e-06
2.38128e-06
-2.69318e-05
1.52138e-06
-5.15231e-06
2.92556e-06
2.22677e-06
4.87768e-05
-7.13271e-06
-4.16437e-05
1.73906e-05
-1.5521e-05
-1.8696e-06
3.82632e-06
5.1511e-05
-5.53379e-05
2.38458e-05
-9.44416e-06
-1.44017e-05
1.28576e-05
-2.83462e-05
1.54885e-05
4.8099e-05
-7.08166e-05
2.27175e-05
-3.50654e-06
1.8976e-05
-1.54694e-05
-9.64937e-06
-7.97622e-07
-1.09961e-05
-7.18468e-06
1.81807e-05
-9.4914e-06
1.25258e-06
8.23881e-06
-9.15352e-05
0.000103852
-1.23179e-05
-4.35834e-06
-5.38951e-06
-5.98309e-06
1.67599e-05
-1.07767e-05
3.70566e-06
-1.24312e-05
0.000152336
-0.000156211
3.87532e-06
4.06702e-05
-3.31285e-05
-7.6044e-06
1.11912e-05
8.31602e-06
-1.95073e-05
1.38602e-06
4.64464e-06
1.69702e-05
-2.96884e-05
-1.93087e-05
1.28021e-05
6.50654e-06
-2.42065e-05
1.05273e-05
1.36791e-05
-5.79413e-05
5.98122e-06
1.43725e-05
-5.81913e-06
-8.5534e-06
-3.55767e-05
-5.82569e-05
6.27741e-07
-2.31223e-06
1.68449e-06
-4.60356e-05
2.34096e-05
2.2626e-05
2.1387e-05
-2.65008e-05
5.11377e-06
7.35462e-05
3.11467e-06
-1.02537e-05
-8.77572e-05
8.71613e-06
-2.09056e-05
1.21899e-05
1.03686e-05
3.04434e-06
-1.15105e-06
6.26723e-06
1.56336e-05
1.96446e-05
2.80002e-06
-2.24454e-05
0.000112955
-4.6078e-05
-7.10268e-05
7.35761e-05
-3.37803e-06
-3.21222e-06
3.81653e-06
5.63551e-06
-9.45202e-06
-8.52271e-05
7.30929e-05
1.21336e-05
7.66563e-08
1.53762e-06
-1.87797e-05
4.07779e-05
1.24217e-05
2.82229e-05
-8.10284e-06
1.41201e-05
-0.000182608
0.000110411
7.21968e-05
-0.000117289
-8.51917e-05
0.000202481
-2.55329e-06
-1.24547e-05
1.50079e-05
-1.1015e-05
-4.34677e-07
-1.71604e-07
3.92366e-09
1.67711e-07
-2.26328e-05
6.59842e-06
1.60344e-05
2.11e-05
-1.88796e-05
-2.2204e-06
1.77107e-05
-8.36682e-07
-1.68739e-05
-1.98517e-05
1.59073e-05
3.94415e-06
-1.32164e-05
-1.10262e-08
-7.11802e-06
-4.41339e-06
1.15314e-05
0.000145925
-5.34473e-05
-2.82804e-05
1.7717e-05
1.05632e-05
4.60729e-05
8.85713e-06
-5.49301e-05
-2.74264e-06
1.86398e-05
-8.13522e-06
-1.13496e-05
1.94844e-05
1.0646e-05
-0.000102182
-1.6614e-05
2.29784e-05
7.8581e-05
-0.000283473
0.000204886
9.73113e-05
-0.000167971
7.066e-05
2.77467e-06
-1.60538e-05
1.32791e-05
2.6822e-05
-1.85295e-05
-8.2925e-06
4.16707e-07
-6.20302e-06
5.78633e-06
-0.000202278
0.000155631
4.66471e-05
-6.60715e-05
5.41421e-05
-0.000271878
-2.02186e-05
0.000292097
2.148e-05
-1.1588e-05
-9.89221e-06
-1.52327e-05
-1.50809e-05
3.03115e-05
-2.27816e-06
-7.21325e-06
7.65298e-05
-3.84648e-05
1.83981e-05
3.95407e-05
1.68671e-05
-1.96167e-05
2.74969e-06
-2.33329e-05
1.79428e-05
5.39012e-06
-2.21903e-06
5.12802e-06
-8.75914e-06
-1.20395e-05
-3.94547e-09
-1.67662e-07
2.04307e-05
-2.15923e-05
1.16141e-06
-3.02869e-05
7.42074e-06
2.28662e-05
0.000181956
-0.000120932
-6.10242e-05
-0.000121383
-5.61105e-05
0.000177493
-1.9527e-05
6.76542e-07
1.88504e-05
-1.76411e-05
-1.06394e-05
-1.42824e-07
1.72603e-05
-5.88335e-05
-1.54136e-05
7.42472e-05
3.71983e-06
1.36708e-05
1.85951e-05
2.50484e-06
1.96477e-05
-3.6613e-05
1.69655e-05
-6.11562e-06
-6.91995e-06
-8.26072e-05
-0.000100001
1.34682e-05
2.09949e-05
-3.44631e-05
-2.97285e-05
-0.000155245
0.000184975
5.47861e-05
-5.47861e-05
-5.61766e-06
9.43421e-06
0.000220823
-0.000143784
-7.70387e-05
1.93898e-05
-9.53123e-06
-9.85849e-06
8.55183e-06
1.21259e-06
-9.76439e-06
-1.13705e-05
4.42245e-06
-1.58647e-05
1.72384e-05
-1.37367e-06
-1.3633e-05
4.64894e-06
8.98401e-06
4.86239e-06
1.363e-05
-1.84924e-05
-5.77809e-06
1.22767e-05
-6.49852e-06
-0.000147821
1.28812e-05
1.32457e-05
-1.50436e-05
1.83321e-05
-8.08629e-06
-1.02457e-05
-8.40264e-06
3.06211e-05
-2.22184e-05
1.94491e-05
-2.65568e-05
7.10738e-06
-1.76831e-05
-4.40487e-07
1.81237e-05
-1.08046e-05
-2.82836e-06
-0.000200444
-2.5744e-05
4.66251e-05
-2.0881e-05
-1.43267e-06
7.30147e-06
4.54225e-06
-2.66573e-05
2.21151e-05
-6.97895e-06
-1.56538e-05
6.76636e-06
-6.34962e-06
1.32564e-05
-1.04817e-05
-9.57541e-06
-8.39416e-06
1.79696e-05
2.36068e-06
2.24237e-05
-2.47851e-05
1.46808e-06
-8.92154e-06
7.4535e-06
0.000105271
-0.000200453
9.51805e-05
-1.12111e-05
2.24024e-05
1.05036e-06
-7.17703e-06
6.12686e-06
2.14447e-05
-7.1025e-05
1.10977e-05
1.07365e-05
-2.18342e-05
-4.84744e-06
2.74562e-05
-2.26104e-05
0.000211083
-0.000118472
-7.48135e-05
5.60425e-05
-2.99929e-05
5.50211e-06
2.44997e-05
6.51337e-05
-1.03476e-05
6.21579e-06
-2.99248e-05
-2.31446e-05
-2.03697e-06
1.84616e-05
-1.64248e-05
1.12446e-05
1.08266e-05
-2.20713e-05
3.84928e-05
6.10615e-05
-1.78656e-05
-1.24211e-05
-7.0613e-06
-4.30923e-06
6.06006e-05
-0.000211497
0.000150897
0.000143312
-0.000147785
4.47338e-06
2.05397e-06
0.00010321
4.56125e-06
-9.66997e-06
2.37625e-05
-1.40928e-05
-7.60476e-05
2.7017e-05
4.90303e-05
5.65361e-06
9.87648e-06
-1.55301e-05
-1.35078e-05
1.85381e-05
-5.03012e-06
1.19931e-05
-4.28368e-06
-7.70934e-06
-2.77473e-05
-8.09463e-07
2.85537e-05
-0.000161417
-4.08613e-05
-6.77239e-06
-1.98449e-05
2.66116e-05
-1.45339e-06
4.1095e-07
1.04245e-06
-2.59144e-05
2.10664e-05
-1.42566e-06
-6.94253e-06
8.36821e-06
-9.62302e-05
7.35742e-05
-0.000213914
3.38159e-05
0.000180099
-7.45167e-06
8.91977e-06
-1.02423e-05
1.09317e-05
-1.53242e-05
3.15247e-05
-1.62e-05
-4.64071e-06
7.40788e-06
-2.76715e-06
3.46804e-05
3.7179e-05
5.02411e-05
-2.7765e-05
-2.24758e-05
-5.52237e-06
4.01081e-06
1.51186e-06
-1.77886e-05
1.51686e-05
2.61998e-06
-5.70927e-05
-8.97887e-06
-2.33153e-05
1.75498e-05
5.76551e-06
7.06112e-05
1.24369e-05
1.3094e-05
-1.87936e-05
5.69975e-06
4.39364e-05
-8.78201e-05
4.38834e-05
-0.000153383
7.65109e-05
7.68726e-05
5.40567e-05
-7.98392e-06
-0.000101666
1.3058e-05
8.86078e-05
1.6445e-05
-4.86594e-06
-1.1579e-05
-1.36589e-05
1.36587e-05
-5.58254e-06
-1.44464e-05
2.00291e-05
-5.41691e-05
-2.69372e-05
8.11068e-05
-2.19256e-05
2.95086e-06
1.89748e-05
-2.02697e-05
1.21345e-05
1.65424e-05
1.16829e-06
7.47199e-05
-2.47355e-05
-4.99846e-05
-2.15198e-05
4.12368e-05
-1.97171e-05
6.54457e-06
-5.1585e-06
-0.000312211
4.03324e-05
2.23293e-05
1.92874e-06
-2.42577e-05
3.79292e-05
-1.55995e-05
1.56373e-05
-2.404e-05
-6.7785e-06
6.94282e-06
-1.64241e-07
1.0217e-05
1.45972e-06
-3.8034e-06
-8.91692e-06
1.27203e-05
0.000128574
-0.000129971
1.39793e-06
-2.18579e-05
-6.33697e-05
-1.07403e-05
4.02123e-06
6.71909e-06
-1.87106e-05
4.34449e-06
-0.0001569
4.22753e-05
1.8583e-05
-1.62227e-05
-0.000182774
0.000261347
-0.000139313
0.000207388
-6.80758e-05
-6.65814e-06
2.61071e-05
-2.4978e-05
1.03262e-05
1.46519e-05
0.000110363
6.25119e-05
1.17754e-05
-2.43143e-05
1.25387e-05
1.35756e-06
-2.08227e-05
1.94647e-05
1.73948e-05
-5.27759e-07
-1.89522e-05
9.61554e-06
9.25825e-05
-7.86911e-05
-1.38913e-05
-3.20251e-06
-7.53779e-06
-1.47039e-06
7.26429e-06
-5.79385e-06
2.14004e-07
1.82116e-05
1.57523e-05
-2.41418e-05
8.38957e-06
-2.65483e-06
1.03219e-05
-7.66707e-06
9.0743e-06
-3.17666e-06
-5.89757e-06
-0.000120983
-2.6837e-05
2.02634e-05
-2.02851e-06
-1.82349e-05
-4.04471e-05
2.58774e-05
1.45697e-05
8.89025e-05
-8.09643e-05
-7.92738e-06
6.39751e-05
1.4495e-05
-7.84702e-05
-5.07189e-07
1.56946e-05
1.76537e-05
-2.05528e-05
2.89919e-06
-1.61796e-06
-4.39866e-06
6.01661e-06
-0.00011567
0.000110985
4.68537e-06
1.50409e-05
7.27467e-06
-2.79648e-08
6.59366e-09
-0.000321965
7.35998e-05
0.000111581
-0.000116044
4.4639e-06
3.0792e-06
1.71842e-05
-3.45471e-05
3.38234e-06
-5.63915e-06
4.27379e-06
1.36566e-06
-1.89417e-05
1.69047e-05
7.98123e-05
-4.06539e-05
-3.91589e-05
-3.82443e-06
-1.69785e-06
0.000163091
-0.000182208
6.08256e-05
8.3765e-06
-2.35759e-05
1.51997e-05
3.49286e-06
-3.33898e-07
-2.76813e-05
5.80717e-06
2.18766e-05
1.28428e-05
1.38348e-05
-2.66779e-05
7.28583e-06
-6.8387e-06
-4.47083e-07
7.34923e-06
-4.36872e-06
-2.98049e-06
2.85995e-06
-2.2387e-05
-8.52596e-06
3.9833e-06
-1.81396e-05
8.81986e-06
9.31979e-06
-4.306e-06
2.05219e-05
-1.62157e-05
-1.28021e-05
-4.68471e-06
1.74867e-05
-0.000160392
-5.35218e-05
-1.0971e-05
1.79744e-05
-7.00339e-06
-2.25691e-05
-1.41808e-05
5.3928e-05
-9.99493e-06
-4.39329e-05
9.78713e-05
-0.000186257
8.8387e-05
1.69426e-05
-1.14382e-05
1.27205e-05
-1.28224e-06
-9.19966e-06
-1.57555e-05
2.49552e-05
1.68826e-05
-1.62385e-05
-6.44012e-07
-2.59137e-05
1.76668e-05
8.24698e-06
-1.99222e-05
-2.00351e-06
1.19909e-05
-1.07801e-05
-1.21078e-06
2.31755e-05
-6.18472e-06
-1.69908e-05
3.88633e-05
-3.57355e-05
-3.12728e-06
-5.34231e-05
-9.99595e-05
-1.82795e-06
-1.74741e-05
9.06523e-06
5.75496e-05
-2.86763e-05
-2.88732e-05
1.48048e-05
-2.52146e-05
3.90618e-06
-5.45473e-06
1.54855e-06
-1.08723e-05
-1.35122e-05
-5.20486e-06
6.91759e-06
-1.71274e-06
-9.56312e-05
8.00985e-05
1.55314e-05
-7.41029e-06
2.03405e-05
-1.29302e-05
-1.34782e-05
-4.66141e-06
1.61824e-05
-2.03377e-05
4.15534e-06
3.30554e-06
-1.04235e-05
-2.39794e-05
-5.20683e-05
1.50609e-06
0.000159262
-0.000160768
-8.73261e-06
0.000175519
-0.000166787
9.98447e-06
1.03408e-07
6.45927e-06
-2.98605e-05
-2.4225e-07
3.01698e-05
1.54297e-05
-9.77607e-06
2.10282e-05
6.36642e-06
-2.31814e-05
1.48129e-05
8.36855e-06
1.24963e-05
-2.27926e-06
9.0351e-06
-1.14618e-05
2.42675e-06
1.16349e-06
-1.62826e-06
-1.67668e-05
9.02031e-07
-9.39378e-06
2.55799e-05
1.44646e-05
-1.67716e-05
2.30701e-06
-1.53291e-05
1.02678e-06
1.43022e-05
-0.000348204
0.000401258
-5.30605e-05
2.19493e-05
-4.93496e-05
-1.00054e-05
-1.10672e-05
2.10726e-05
2.89813e-05
3.85409e-05
1.46882e-05
3.40891e-05
8.9559e-06
3.035e-06
8.78699e-05
-0.000103891
1.60213e-05
7.22117e-06
-9.876e-06
0.000108707
-0.000138436
-2.83429e-05
-2.67521e-06
3.1018e-05
2.03389e-05
-0.000141322
-7.20423e-06
-2.0476e-05
-1.99312e-05
2.19269e-05
-1.99555e-06
2.90365e-05
-2.65106e-05
-2.52581e-06
-2.3856e-05
1.30214e-05
1.08341e-05
2.5901e-06
-0.000195423
-8.88419e-05
-0.000131941
0.000220782
9.88474e-06
-1.36882e-05
6.97325e-06
1.53841e-06
-3.20673e-05
1.67434e-05
-2.17776e-05
-1.86696e-05
1.1086e-05
-1.10152e-06
3.43755e-06
-1.69927e-05
1.35552e-05
-7.39396e-05
1.97707e-05
-2.18561e-05
1.35484e-05
8.30773e-06
2.88806e-05
-2.43382e-05
0.000104932
-6.64394e-05
5.70894e-06
-1.80277e-06
-1.43068e-05
-9.02613e-06
2.42553e-05
-1.23484e-05
-1.19076e-05
5.02696e-06
1.13581e-05
-1.6385e-05
3.01973e-05
-2.59675e-05
-4.22004e-06
4.34048e-05
1.41448e-05
2.90715e-05
-2.30802e-05
5.57131e-06
-2.4395e-05
1.20251e-05
-2.66104e-05
-6.64443e-06
1.84197e-05
-6.61523e-06
-4.56367e-06
1.1179e-05
3.35153e-06
4.18322e-06
-7.53472e-06
2.36839e-05
-8.75308e-06
-1.49308e-05
-1.28047e-05
1.3665e-06
-1.98709e-05
8.5356e-06
1.13354e-05
7.62411e-06
-8.90406e-05
-6.78586e-05
1.72518e-05
-1.55803e-05
-1.67147e-06
0.00020885
-8.76482e-05
-0.000121201
1.97514e-05
-3.23099e-05
1.25585e-05
2.64229e-05
-4.79428e-05
-9.2244e-06
-8.10846e-05
9.03092e-05
1.3609e-05
2.83595e-06
-2.35982e-05
-2.66586e-05
5.02566e-05
-2.91122e-06
1.48176e-05
-7.90421e-05
0.000107308
-2.82659e-05
7.00606e-05
5.8507e-05
-0.000128571
1.3331e-05
-1.27176e-05
-6.1337e-07
-8.88542e-07
7.86832e-07
1.01744e-07
-1.72292e-05
-6.62697e-06
9.06315e-05
9.13247e-05
2.53006e-05
-9.10752e-06
-1.6193e-05
-9.75108e-07
-2.03408e-06
-7.01247e-05
7.21589e-05
4.11622e-05
3.28966e-06
-4.44518e-05
2.71382e-05
-1.87626e-05
7.3263e-05
-6.6619e-05
-6.64335e-06
2.02733e-05
-1.79778e-05
-2.29545e-06
-2.21742e-05
1.45475e-05
7.62663e-06
2.35132e-05
-1.00142e-05
-0.000177465
3.80303e-05
0.000139435
1.87089e-05
-1.38465e-05
-8.43075e-07
-4.54547e-08
2.05483e-05
-2.29425e-06
-1.82541e-05
4.81101e-05
1.49342e-05
-6.30443e-05
-2.3791e-05
-4.55196e-06
6.84965e-06
1.14824e-05
-8.17217e-05
-3.76522e-05
0.000119374
3.05162e-05
0.000217467
-0.000247982
6.9929e-06
-1.96209e-08
-4.66909e-06
8.02063e-06
4.02466e-07
-4.99566e-06
4.93811e-05
-0.000123416
7.40354e-05
-7.52396e-06
-0.00028834
0.000254239
1.99519e-05
-0.000151639
-2.58263e-05
-7.41798e-05
5.26012e-05
2.15787e-05
7.339e-05
-7.54239e-05
-1.95853e-05
-4.96773e-05
6.92624e-05
-4.49858e-05
5.56624e-05
-1.06765e-05
-6.78588e-06
1.58102e-06
1.93002e-05
-1.80874e-05
-1.21285e-06
-1.83463e-05
4.83846e-06
1.28202e-05
5.1081e-07
6.79095e-05
8.4765e-06
-7.63856e-05
-2.39555e-05
2.58845e-05
-9.78793e-05
-5.48111e-06
0.000103363
1.48327e-05
2.41911e-06
-7.19574e-05
1.54627e-06
-9.15692e-05
7.42102e-05
1.7359e-05
1.78349e-05
-1.44297e-05
-3.40531e-06
-1.88494e-05
-7.27198e-05
1.01959e-05
-7.02283e-06
-3.17307e-06
1.82683e-05
-7.19324e-06
-1.1075e-05
-5.92997e-06
-2.40648e-05
8.39757e-06
1.28689e-05
-2.12663e-05
-4.3845e-05
8.42967e-05
-4.04513e-05
1.57097e-05
-8.98763e-07
-1.48108e-05
6.33235e-05
1.65985e-05
-7.99218e-05
-9.88399e-06
3.26879e-06
1.81116e-05
1.98178e-05
-6.84262e-05
5.5876e-06
6.28386e-05
-5.89012e-05
9.60251e-07
2.57071e-06
-5.01733e-06
2.44667e-06
9.36117e-06
-8.16843e-06
-1.19272e-06
-1.14528e-06
-4.55135e-05
4.66582e-05
-1.89524e-05
2.0009e-05
-1.05651e-06
1.22574e-05
1.66467e-06
-5.07822e-06
3.41353e-06
-1.90169e-05
1.17338e-05
7.28315e-06
-1.49307e-05
2.21312e-06
-4.74486e-05
4.7448e-05
-1.36808e-05
-1.15455e-05
-1.25496e-05
5.38283e-06
7.16678e-06
-1.37725e-05
3.37898e-07
1.34348e-05
-1.6963e-05
-0.000146273
5.72335e-05
1.82744e-05
1.02586e-06
6.33322e-06
2.682e-06
-1.46021e-05
-8.57937e-06
2.35374e-05
2.67037e-05
-2.29958e-05
1.51709e-05
7.82487e-06
-6.93586e-06
-9.53066e-06
1.64666e-05
3.88761e-06
2.51489e-05
-1.44452e-06
1.67173e-06
-2.26822e-07
-7.79516e-05
2.95345e-05
1.73163e-05
3.86948e-06
5.11056e-06
-2.53982e-06
1.91273e-06
4.12711e-06
-6.03988e-06
2.65583e-05
-5.17147e-06
1.29362e-05
-1.85187e-05
8.23848e-08
3.03687e-05
9.5203e-06
-3.98887e-05
-1.6988e-05
2.12917e-05
-4.30367e-06
1.06746e-06
-1.60792e-05
1.10808e-05
-1.06952e-05
-3.85569e-07
1.3793e-05
-1.37138e-05
-7.91258e-08
0.00021372
-0.00023342
1.96991e-05
-6.6266e-06
-2.15468e-06
1.05358e-06
1.0668e-05
-1.17215e-05
-1.48065e-06
-1.23826e-05
1.38633e-05
4.07316e-05
5.60251e-05
-9.67565e-05
-1.93422e-05
8.23447e-06
1.11078e-05
-1.31931e-05
1.68322e-05
-3.639e-06
-1.48052e-05
2.07162e-05
-5.91131e-06
-8.66442e-06
-1.71532e-06
2.16799e-05
-3.821e-07
-2.56508e-06
2.94703e-06
2.91616e-05
-1.6304e-05
6.58385e-08
-1.06408e-05
1.69994e-05
-6.35866e-06
7.89485e-06
-1.60121e-05
8.11738e-06
-2.07095e-05
4.18824e-06
7.56466e-06
1.56108e-05
0.000117897
-7.44115e-05
6.88274e-06
-5.07992e-07
-6.37473e-06
1.8809e-05
-1.09141e-05
-2.6906e-07
1.17538e-05
-1.14846e-05
-4.60891e-05
3.22397e-05
1.38495e-05
1.95919e-05
-1.69574e-05
-2.63452e-06
1.39207e-05
-1.25736e-05
-1.34702e-06
9.26224e-05
3.70896e-05
-0.000129712
2.64813e-06
-4.89404e-06
2.24592e-06
2.50966e-05
-2.39874e-05
-1.10916e-06
-2.34852e-05
2.6845e-05
-3.35907e-06
1.85154e-05
-2.24288e-05
3.91353e-06
-1.60458e-06
1.10063e-05
-9.4019e-06
1.89349e-05
1.61338e-06
2.41259e-05
-6.28463e-05
-2.2014e-05
-2.40216e-05
-4.40537e-05
4.4346e-05
-2.92187e-07
2.16166e-05
-3.96275e-06
-8.89062e-06
6.23976e-05
-5.35068e-05
-3.53789e-06
1.10768e-06
2.43139e-06
-1.92054e-05
1.11484e-05
8.05719e-06
5.04483e-06
-2.39668e-06
5.06501e-05
-1.32021e-05
-3.74458e-05
-1.1851e-05
-8.22369e-06
-8.93132e-06
-1.00855e-05
9.29266e-06
-5.70656e-07
-8.722e-06
3.13456e-06
-6.2627e-05
6.2627e-05
-2.82445e-06
-7.13259e-07
-5.82908e-05
8.52716e-05
-2.6981e-05
-3.41789e-06
-2.15601e-05
-1.11006e-05
2.44349e-05
-1.33348e-05
1.41788e-05
-7.38284e-06
-6.79596e-06
-1.62843e-05
1.09058e-05
4.41109e-06
-5.66887e-06
1.2578e-06
6.85632e-06
6.63731e-06
-1.34936e-05
0.00030954
-0.000129952
2.92241e-05
-2.37197e-05
5.87398e-06
2.90108e-05
-3.48848e-05
-1.30977e-06
1.27915e-06
3.07397e-08
-1.82944e-05
4.86633e-05
-1.76759e-05
-8.23788e-06
6.7283e-05
-4.00754e-05
-2.72074e-05
-0.000107489
-8.53777e-05
0.000192867
-5.91098e-07
-0.000136691
0.000137283
8.9537e-05
-0.000197026
0.000188384
-0.000109199
-7.91846e-05
-2.66633e-05
3.10781e-05
-5.04345e-05
7.0949e-05
-2.05146e-05
0.000228115
-1.43952e-05
3.22003e-06
4.64943e-05
-4.97144e-05
-7.14269e-06
2.50198e-06
0.000286057
-0.00025554
-6.53019e-05
2.29907e-05
4.23145e-05
-3.30264e-05
0.000137874
-0.000104847
-7.86765e-05
-2.29896e-05
0.000130843
-0.000139577
-4.37305e-05
0.00010702
-6.32883e-05
2.62341e-05
1.05657e-05
-3.68e-05
-0.000182919
9.55324e-05
8.7387e-05
-8.58131e-06
1.81947e-05
-9.61331e-06
-2.4372e-05
1.47021e-05
-3.13657e-05
3.98145e-06
2.73812e-05
1.63404e-05
-2.78703e-05
1.153e-05
2.25487e-06
3.63364e-06
-5.88853e-06
1.04336e-05
1.52976e-07
-1.05865e-05
5.03357e-06
-6.2247e-07
-0.000255047
8.54531e-05
0.000169594
-2.11613e-05
3.46297e-05
-8.47886e-06
-1.36954e-05
2.45736e-06
4.47856e-06
-1.02187e-05
5.74018e-06
4.18802e-06
-4.73857e-06
5.50632e-07
-8.7428e-05
-0.000125119
1.06441e-05
-1.60902e-06
-9.74922e-05
0.000158093
1.30955e-05
9.27356e-05
-0.000105831
6.20629e-06
-8.09137e-06
1.88537e-06
9.444e-06
-1.10486e-05
0.000187408
8.14456e-06
3.84861e-06
-8.04996e-06
4.20861e-07
-9.76485e-06
-9.44043e-06
0.000185206
-3.28703e-05
-7.41662e-05
-7.97822e-05
0.000101289
-7.54835e-05
-2.58049e-05
-8.41732e-07
1.26075e-07
7.15701e-07
-1.99385e-05
9.3938e-06
1.05448e-05
-0.000103905
0.000131125
-2.72205e-05
7.23427e-07
1.60462e-05
1.70461e-07
-1.30487e-05
1.28782e-05
0.000274033
-0.000278709
4.67622e-06
4.60229e-06
1.3666e-05
-0.000108964
0.00011047
4.24454e-05
-5.29709e-05
1.05251e-05
4.71041e-05
-4.32774e-05
1.85226e-05
-1.62057e-05
-2.31691e-06
8.33366e-06
-7.78805e-06
-5.456e-07
-2.88211e-06
2.25262e-05
-2.47809e-05
9.88592e-06
1.48949e-05
-0.000324122
0.000187514
0.000136621
8.49385e-06
8.89855e-05
4.99622e-05
-0.000138947
-5.64843e-06
8.98663e-06
1.78353e-05
1.57874e-05
5.14956e-05
0.000332944
-0.000191056
-0.000141888
4.44862e-05
-1.32807e-05
-3.12054e-05
-1.95717e-05
-3.603e-07
-1.00816e-05
1.11719e-05
-1.0903e-06
-5.48928e-08
2.24073e-06
-9.1005e-06
2.87484e-05
-2.55596e-05
-5.52115e-05
0.000122875
-6.76572e-05
8.95913e-06
-3.62481e-05
2.72884e-05
7.59227e-06
1.38878e-05
-3.96934e-05
4.48267e-05
-5.13518e-06
-5.27111e-05
-8.47786e-05
-2.90382e-05
-2.81316e-06
3.18513e-05
1.93689e-05
9.04436e-07
-3.91117e-05
5.8634e-06
6.91925e-06
-1.27826e-05
1.76403e-05
4.89934e-06
-2.25396e-05
-1.61283e-05
1.26218e-05
5.52049e-05
-5.19848e-05
3.74138e-06
-2.0022e-05
7.03351e-06
7.14536e-06
9.19688e-07
9.84345e-06
-1.07632e-05
2.92906e-06
3.05603e-06
-3.80034e-05
-4.72112e-05
8.52146e-05
-1.86033e-07
-1.74971e-05
-4.22459e-06
-9.6689e-07
5.1915e-06
6.12786e-06
-3.87299e-06
2.21607e-05
-5.96825e-05
3.75224e-05
1.28697e-05
-1.33359e-05
4.66257e-07
-5.83463e-06
2.19758e-06
4.14169e-05
3.5113e-05
-1.29271e-05
-2.00362e-06
-1.19922e-05
-3.4097e-05
0.000196887
-1.38618e-05
-0.000183025
-1.77258e-05
1.80768e-05
-3.51153e-07
7.68267e-06
6.50993e-07
7.96904e-06
3.40754e-05
-4.20451e-05
4.61018e-06
-6.3511e-05
7.24666e-05
-7.62013e-06
9.81688e-06
-1.46332e-06
4.82184e-05
-5.77339e-06
-4.54203e-06
1.04054e-05
-9.65115e-06
2.27717e-05
-1.31206e-05
1.09216e-05
3.7237e-07
-1.12939e-05
-9.3183e-06
-1.0353e-05
1.96711e-05
9.78763e-05
0.000235074
6.09804e-06
3.27657e-05
1.72252e-05
1.29744e-06
6.52392e-05
-6.52391e-05
-2.06191e-05
7.42603e-06
-9.52464e-06
-1.04444e-06
1.05691e-05
-3.74185e-06
7.92508e-06
1.94799e-05
-1.70255e-05
-2.45446e-06
1.33167e-05
-1.23947e-05
1.55296e-05
3.46987e-06
-1.89995e-05
-5.26336e-06
2.22287e-06
3.04046e-06
1.74568e-05
3.76279e-05
5.42576e-06
-1.58499e-05
1.04241e-05
2.5276e-05
-1.03083e-05
-1.49678e-05
-9.41491e-06
2.03972e-05
-1.09822e-05
-1.02053e-05
1.53e-06
1.31091e-05
-6.25281e-06
-2.31924e-05
1.37773e-05
-6.92998e-05
-7.32119e-06
1.33594e-06
4.54827e-06
-3.60221e-07
8.90528e-05
4.64606e-05
-0.000135513
-7.70152e-05
2.65806e-05
-5.3263e-05
0.000142249
1.32402e-06
-4.26027e-06
2.93627e-06
-8.27633e-05
9.44459e-05
-1.16833e-05
1.37501e-05
-4.83769e-05
3.4627e-05
-8.05588e-05
1.1259e-05
9.41393e-06
-7.17944e-06
-2.2345e-06
4.66138e-07
-5.03268e-06
4.56668e-06
7.82319e-06
-8.18839e-06
3.65194e-07
-1.01261e-05
8.00641e-06
6.22134e-06
1.41179e-05
-2.03392e-05
-0.00010046
5.09149e-05
4.95407e-05
-5.87017e-05
2.38589e-05
3.48431e-05
-2.24681e-06
-7.87929e-06
-1.14964e-05
-1.27101e-05
-1.72972e-05
-2.31952e-06
-1.30282e-05
4.54652e-07
5.23597e-05
-3.49031e-05
-3.60163e-05
4.58265e-05
-9.81004e-06
2.52866e-06
3.65704e-05
-3.90938e-05
6.0081e-06
1.73009e-05
-2.3309e-05
-1.15535e-05
5.6501e-06
-2.2169e-07
-5.4284e-06
-5.74261e-05
9.81579e-05
6.24711e-07
9.55291e-05
8.32259e-06
1.62382e-05
-1.12112e-05
2.7771e-05
1.4826e-05
-1.60592e-05
-1.7294e-06
-1.59635e-05
3.88495e-06
1.20787e-05
1.34898e-05
-1.94728e-05
1.32063e-05
-1.79032e-05
4.69687e-06
2.07321e-05
2.28167e-06
-6.03481e-06
7.66685e-06
-1.63204e-06
-4.24047e-05
-1.64895e-06
-8.61236e-05
2.72904e-05
-1.80449e-05
1.8263e-05
-2.18069e-07
4.82005e-06
1.78191e-05
-2.26391e-05
7.8194e-06
-1.84602e-05
7.27308e-06
0.000122934
1.63215e-05
2.47337e-06
-2.5493e-05
2.13109e-06
2.33627e-05
3.85497e-06
-3.92806e-06
7.3108e-08
-9.02068e-05
7.44328e-06
5.94498e-06
-7.60698e-05
-5.22021e-06
7.13292e-06
-3.15698e-05
4.31023e-05
-1.15303e-05
3.3323e-06
1.216e-06
3.74002e-05
-4.19372e-05
4.53694e-06
-5.90352e-05
0.000148088
2.87786e-05
-3.33452e-05
4.56659e-06
-6.74056e-06