/*--------------------------------*- C++ -*----------------------------------*\
| =========                 |                                                 |
| \\      /  F ield         | OpenFOAM: The Open Source CFD Toolbox           |
|  \\    /   O peration     | Version:  v2012                                 |
|   \\  /    A nd           | Website:  www.openfoam.com                      |
|    \\/     M anipulation  |                                                 |
\*---------------------------------------------------------------------------*/
FoamFile
{
    version     2.0;
    format      ascii;
    class       volScalarField;
    location    "400";
    object      k;
}
// * * * * * * * * * * * * * * * * * * * * * * * * * * * * * * * * * * * * * //

dimensions      [0 2 -2 0 0 0 0];


internalField   nonuniform List<scalar> 
54593
(
0.000148002
0.000178308
0.000146477
0.03426
0.020395
0.0515546
0.0181648
0.000188107
0.00017637
0.000147433
0.000154761
0.00886699
0.000395328
0.000147666
0.000172149
0.000155507
0.000188166
0.000166246
0.00014742
0.000157918
0.000146475
0.000157216
0.000147416
0.00827165
0.000144743
0.0002136
0.000148005
0.000172911
0.0741305
0.000147438
0.0002135
0.000190868
0.000147042
0.0347996
0.000163369
0.0001492
0.000170829
0.000178177
0.000150958
0.000157259
0.000280119
0.000682474
0.000146109
0.000148048
0.000191385
0.000151006
0.000194078
0.000169753
0.000145004
0.000173973
0.000147047
0.000145147
0.000154218
0.000193
0.000199935
0.000148472
0.0394821
0.00231399
0.000197203
0.000167313
0.000146127
0.00015095
0.000147677
0.0294811
0.000147804
0.000155242
0.0748432
0.000187479
0.0285493
0.0282589
0.000145074
0.000163279
0.000147779
0.0447599
0.000153261
0.000159865
0.000166529
0.000249138
0.0401517
0.000284968
0.000146557
0.0414799
0.000148045
0.0609832
0.000152236
0.0493329
0.0217385
0.000190246
0.000173309
0.000148313
0.00269856
0.000160222
0.000202274
0.00020349
0.000165531
0.0777398
0.0318851
0.00022224
0.000148667
0.00017419
0.000149489
0.0473332
0.000150237
0.000147824
0.00019018
0.000165935
0.000169063
0.000189617
0.000159608
0.000169286
0.05216
0.000147754
0.000148338
0.000214788
0.000147665
0.0054187
0.0294953
0.0274669
0.0373615
0.000201306
0.0288863
0.000149594
0.0212632
0.000169203
0.000146771
0.00021522
0.000150464
0.000146768
0.0185191
0.0786056
0.000149781
0.000149023
0.000160732
0.000149154
0.00016039
0.000680494
0.000146696
0.033037
0.000147817
0.000148216
0.0148195
0.000169124
0.00016032
0.000665803
0.000164532
0.00018718
0.0303072
0.000170547
0.0424231
0.000150343
0.000168265
0.000149225
0.000205103
0.000203021
0.000147926
0.0744439
0.00015458
0.0733373
0.000172165
0.000148652
0.000280048
0.000153088
0.0142666
0.0756589
0.00017249
0.000149586
0.000146659
0.000146094
0.000454973
0.00014988
0.000217647
0.00059845
0.000173659
0.000149626
0.000176329
0.00014696
0.058154
0.000152421
0.00015096
0.000263282
0.0425961
0.000143976
0.0722553
0.000149576
0.000149628
0.00560667
0.000149992
0.000153034
0.000147696
0.000509153
0.000151
0.0349245
0.00476381
0.000147762
0.0150221
0.0308143
0.000147993
0.000154048
0.00021483
0.00418947
0.00016121
0.00021376
0.000187684
0.000150151
0.000150024
0.000149993
0.000467632
0.000152021
0.000150982
0.000146395
0.000148234
0.000147661
0.000143946
0.000160402
0.000165275
0.000215893
0.0433887
0.0359974
0.00851846
0.000147983
0.000157139
0.0233769
0.00127332
0.000152061
0.000185339
0.000166083
0.000149794
0.000166183
0.000146561
0.000171571
0.000150407
0.000212727
0.0062177
0.000149592
0.000149182
0.0285236
0.000217319
0.000149146
0.000184815
0.000149119
0.000152032
0.000160712
0.0623688
0.000198104
0.000151947
0.000154474
0.0563604
0.000243289
0.000145951
0.000294429
0.00019792
0.0502795
0.0603969
0.000147256
0.000153063
0.000148663
0.0169513
0.000151419
0.000216763
0.000157156
0.000169934
0.0479648
0.000149061
0.0050243
0.000165265
0.000146834
0.0164514
0.000145964
0.00015602
0.000149566
0.0477415
0.00045012
0.000159641
0.000147988
0.000154396
0.000147816
0.000151098
0.0590731
0.000146457
0.000193509
0.000151728
0.00016321
0.000156347
0.0180253
0.0562175
0.000242563
0.000157289
0.00015349
0.000164698
0.00160776
0.0521519
0.0401176
0.000147285
0.000148212
0.000184458
0.000149759
0.0465586
0.000479665
0.000147648
0.000215402
0.000245477
0.000151101
0.000148247
0.000149846
0.000147906
0.000148369
0.000174556
0.0164477
0.000150269
0.000147941
0.0598857
0.000167465
0.0163437
0.000149138
0.000261365
0.0201335
0.000187509
0.000567079
0.00022172
0.000149459
0.000181915
0.000146003
0.000244158
0.000172525
0.0415884
0.000171782
0.000182432
0.000146731
0.0451673
0.000169822
0.000148404
0.000159226
0.00014781
0.000153143
0.000149892
0.000605872
0.000156899
0.0170836
0.000245312
0.000158049
0.000167334
0.000154498
0.0521383
0.0001515
0.000148374
0.000185641
0.000173914
0.000214038
0.000190341
0.0515486
0.00604867
0.00014823
0.000241574
0.000196057
0.000148281
0.000146164
0.000158073
0.000148252
0.000148382
0.000148032
0.000214061
0.000157349
0.000151817
0.0179702
0.000174498
0.000149012
0.000148252
0.00360337
0.000166556
0.000147739
0.000154828
0.000147915
0.00014599
0.000149507
0.00015367
0.000690052
0.000147708
0.00442835
0.000159533
0.047034
0.0780294
0.000161297
0.000182898
0.000243403
0.0001873
0.000520283
0.00779449
0.000147804
0.0604227
0.000182453
0.000179313
0.000197227
0.000156653
0.000146176
0.0151534
0.0143782
0.00389509
0.000176631
0.000175289
0.000182144
0.000152665
0.000177995
0.0326599
0.000202674
0.000241163
0.000203503
0.000146612
0.000185393
0.000147203
0.000224771
0.000239405
0.00014777
0.000148237
0.000176137
0.000147685
0.0719888
0.000169886
0.000148062
0.000148677
0.000172231
0.000166624
0.020481
0.000172197
0.000191301
0.021805
0.0130509
0.0593616
0.00017063
0.00572797
0.000163951
0.0789146
0.000163824
0.000254211
0.000174207
0.000181671
0.000162681
0.00014798
0.0386624
0.000176742
0.000178163
0.0145819
0.00014963
0.000146732
0.000148327
0.0179939
0.000183978
0.000147613
0.00014868
0.000204135
0.000729912
0.00054255
0.000248379
0.000174988
0.0001674
0.033611
0.000592601
0.000164543
0.000148423
0.000151139
0.000204043
0.000147627
0.00014594
0.000424321
0.000148789
0.000146237
0.00018213
0.000213812
0.000148848
0.000170054
0.000707543
0.0177814
0.00277411
0.000160671
0.000145294
0.0147854
0.000149192
0.000149841
0.033766
0.0175476
0.000148857
0.000176691
0.000148053
0.000181495
0.000181173
0.000148062
0.00114296
0.000243043
0.000239793
0.000144726
0.00115937
0.000447918
0.000149629
0.000147405
0.0001577
0.00617316
0.000149523
0.000165922
0.000152022
0.000237585
0.000148395
0.000266992
0.0214012
0.000237382
0.00018379
0.000147026
0.000165847
0.000148661
0.000166407
0.000163859
0.00014676
0.000148398
0.000195433
0.0218514
0.000148683
0.000158016
0.0418632
0.000355166
0.000147137
0.057693
0.000147809
0.000191169
0.000155374
0.000149493
0.00014901
0.000147935
0.000182008
0.0577038
0.0567115
0.00532553
0.000145071
0.000547797
0.000152583
0.000169027
0.00014789
0.000146735
0.000146638
0.0272111
0.000148051
0.000158161
0.000169183
0.000147254
0.000151873
0.00280991
0.0714407
0.000150018
0.0180736
0.0193734
0.000146731
0.0170011
0.000146199
0.0654984
0.000163243
0.000212321
0.00112169
0.000194872
0.000193531
0.000267592
0.00676264
0.000245394
0.0332305
0.000148364
0.000149591
0.000175181
0.000169853
0.00402989
0.000149451
0.0784222
0.000148898
0.000154875
0.000196545
0.000147135
0.000159046
0.000182902
0.000153516
0.00040551
0.0400249
0.000229732
0.000299912
0.0528223
0.000654193
0.000146868
0.000146001
0.00015828
0.00014701
0.00015212
0.000148375
0.000202987
0.000151495
0.000232605
0.000161284
0.000162683
0.0227482
0.000170756
0.000179873
0.000149608
0.0542132
0.0452602
0.000147283
0.000149672
0.000274791
0.0168604
0.000154676
0.000148679
0.0711819
0.038062
0.000230462
0.0177407
0.000152041
0.000156883
0.000165999
0.000225104
0.000148404
0.000149704
0.000163074
0.00019046
0.000163162
0.000151881
0.000235874
0.0448657
0.000149626
0.000145971
0.0182785
0.000201394
0.000190599
0.0359471
0.000484228
0.00022512
0.0779586
0.0739434
0.000190635
0.000256144
0.000147811
0.000148742
0.000177606
0.000147303
0.000185982
0.000176354
0.00686709
0.000151439
0.0748145
0.000210803
0.000147455
0.000211007
0.000146228
0.00015177
0.000555565
0.000190655
0.0775994
0.000160459
0.0607802
0.000146884
0.000178203
0.0763349
0.0556107
0.000147795
0.000143946
0.047417
0.000159475
0.00014956
0.000148011
0.000148704
0.000147305
0.00692462
0.000169004
0.000147673
0.000148469
0.00462024
0.000202109
0.000148726
0.000146056
0.000147903
0.000170003
0.000161493
0.000152624
0.000192914
0.0126296
0.0462244
0.000150959
0.00014779
0.00014779
0.000156364
0.000163605
0.000149595
0.045124
0.0589861
0.000152877
0.00014825
0.000147292
0.000229266
0.0451956
0.000146094
0.000148603
0.0458832
0.000150403
0.000154788
0.000190974
0.000147654
0.000187346
0.00296387
0.00017057
0.000148234
0.000152092
0.0277367
0.00016682
0.000148404
0.0499263
0.000147487
0.0292568
0.000173849
0.000158998
0.000149521
0.000146421
0.0195596
0.000147801
0.000166412
0.0554037
0.000162078
0.000148145
0.00016361
0.0140964
0.000162883
0.0157338
0.000160901
0.0843009
0.0053153
0.00696777
0.000147788
0.000295937
0.000151908
0.000148707
0.000146365
0.000146214
0.00632075
0.0029173
0.0761797
0.000167217
0.000217025
0.000147546
0.000154243
0.000148086
0.000147977
0.037683
0.000410888
0.000264971
0.000149838
0.0475397
0.000166405
0.0700735
0.000235236
0.0683232
0.000235354
0.00022015
0.0163143
0.0145151
0.000224949
0.0223411
0.000147705
0.0425506
0.0488085
0.000203893
0.0600775
0.0570829
0.0872557
0.000176961
0.0583935
0.000159113
0.000176462
0.00063651
0.000155541
0.00014818
0.000148251
0.000148094
0.0150398
0.000190518
0.000156717
0.000146616
0.000146307
0.000148094
0.00119131
0.000146611
0.0185616
0.000202586
0.00354502
0.000148093
0.000237373
0.0299494
0.000147074
0.00712169
0.0486993
0.0279517
0.0223491
0.000149671
0.000157764
0.000199061
0.000149089
0.000169283
0.0347933
0.000151839
0.0673023
0.0413885
0.000217208
0.000147864
0.000146209
0.00160807
0.000164513
0.000739834
0.000152704
0.000205469
0.000166808
0.000181628
0.0680688
0.00531125
0.000168507
0.000193923
0.000148248
0.000149701
0.000148233
0.000187974
0.000648054
0.0430076
0.000169868
0.00017195
0.0169612
0.000199971
0.000164061
0.000152125
0.000258633
0.000146509
0.000150143
0.000149105
0.0258047
0.00015104
0.000147531
0.000149317
0.000146339
0.000198289
0.000148972
0.00014802
0.000148193
0.0825678
0.000147026
0.000149787
0.0459977
0.000147285
0.000158776
0.0138955
0.000558213
0.000146187
0.000278271
0.0535476
0.0757801
0.000146547
0.0442893
0.000146552
0.000190707
0.000145989
0.000337922
0.00212798
0.000195276
0.000147855
0.00635842
0.000154537
0.000146657
0.000145996
0.000156909
0.011577
0.000153689
0.000147933
0.0698607
0.000151527
0.000160599
0.00023195
0.000146491
0.000147957
0.000224719
0.0180521
0.000143385
0.000148089
0.0247681
0.0183497
0.000206614
0.000143334
0.0158869
0.0661084
0.014059
0.000146279
0.000184519
0.000147129
0.000143978
0.000157975
0.000192023
0.0525682
0.000143946
0.000151084
0.000148405
0.00014634
0.0712762
0.0131536
0.000285131
0.000165691
0.000250644
0.000146614
0.0485112
0.00457511
0.0172265
0.000153729
0.0218193
0.00014869
0.000148264
0.00015617
0.000149759
0.000166232
0.000147237
0.0129491
0.0519234
0.00057515
0.000171899
0.000151937
0.000213387
0.000193951
0.000198155
0.000144954
0.0193066
0.0702516
0.000147784
0.000230532
0.000148092
0.000161047
0.0266411
0.000183461
0.000149627
0.0176704
0.000148422
0.0184576
0.000180029
0.000213487
0.000171051
0.000164026
0.000190451
0.000171269
0.000146097
0.000212782
0.000174192
0.000264006
0.000167506
0.0379923
0.050236
0.00014808
0.000147579
0.000147046
0.000147927
0.00018023
0.000148369
0.00014619
0.0243404
0.000188037
0.000165255
0.0144303
0.0001558
0.0102496
0.000146586
0.000148028
0.000224278
0.000148359
0.00016079
0.0001724
0.000211198
0.000210508
0.0173778
0.000173279
0.00021104
0.000617676
0.00017115
0.0297198
0.000150278
0.00722524
0.000190352
0.000153736
0.000176686
0.000172107
0.000311805
0.0158704
0.0607063
0.000149594
0.000155981
0.0170107
0.000147043
0.000163948
0.000181576
0.000212021
0.0584824
0.000147833
0.0001924
0.000582034
0.000148226
0.000148378
0.000143427
0.0768591
0.000167367
0.000151028
0.00420279
0.0204996
0.000147425
0.0763894
0.00690054
0.000201805
0.0002169
0.000196968
0.000181838
0.000183553
0.0126887
0.000182591
0.000147004
0.0151973
0.000148424
0.000147292
0.000146963
0.0848413
0.000149169
0.00019791
0.000151689
0.0225325
0.000173699
0.000147521
0.000154021
0.0760302
0.000145954
0.000149121
0.00014719
0.000180273
0.000149295
0.000512995
0.000162449
0.000148395
0.000176893
0.000197251
0.020241
0.000150074
0.000211929
0.0542286
0.0422999
0.000147271
0.000158289
0.000148411
0.000147856
0.000196866
0.000158328
0.000147401
0.000152076
0.000167109
0.000147619
0.0505603
0.000153735
0.000172857
0.000148168
0.000147854
0.000153858
0.000146945
0.00016024
0.000209594
0.000149837
0.000148083
0.000147779
0.00464478
0.000167947
0.0242435
0.000153437
0.0538255
0.0856124
0.000223826
0.000161146
0.000181086
0.000148403
0.0505914
0.0212385
0.0471731
0.0388716
0.000188208
0.000173647
0.000203761
0.000236559
0.000167834
0.000152032
0.000147015
0.00018205
0.0162215
0.000195032
0.000169494
0.00014823
0.000181576
0.000148271
0.0486814
0.000145263
0.000200813
0.000152082
0.000294309
0.000148003
0.000381544
0.000157721
0.000222102
0.000148047
0.000152125
0.00101903
0.0729863
0.00016175
0.000173255
0.000147732
0.000149655
0.0206563
0.076776
0.0550542
0.000150004
0.000211735
0.000161363
0.000169647
0.000148056
0.000215506
0.000148375
0.000147701
0.000151749
0.000148397
0.0314576
0.000148369
0.000147835
0.000149747
0.000151808
0.000149841
0.000156631
0.0351536
0.000156159
0.0203773
0.00845224
0.000147834
0.000180642
0.0001467
0.000151283
0.000148072
0.000614736
0.000586939
0.000148524
0.000148234
0.00015835
0.0571027
0.000371395
0.000148086
0.000145885
0.000173411
0.000147078
0.0170823
0.00164562
0.000148393
0.00015807
0.000213874
0.00018099
0.000149152
0.000193541
0.0491385
0.000148402
0.0160367
0.000149608
0.0509725
0.0138462
0.000146158
0.000174383
0.0267046
0.0642776
0.000146313
0.000187882
0.000148095
0.00014638
0.046611
0.000152593
0.000153511
0.000148244
0.00708023
0.000196557
0.000168656
0.000226776
0.000160743
0.000150367
0.000189649
0.0298229
0.000147602
0.0405534
0.00529198
0.000162785
0.000150217
0.000154577
0.000148271
0.000186617
0.000147685
0.000149595
0.000168492
0.0402011
0.000161025
0.000149876
0.000166173
0.0531229
0.000143373
0.0153885
0.000151957
0.000243371
0.000190008
0.0196582
0.000148958
0.0565509
0.000146356
0.000143374
0.000148158
0.000157721
0.000147529
0.0367609
0.000148423
0.00014825
0.00460151
0.000148025
0.000147311
0.019468
0.000149448
0.00014732
0.00014751
0.000319154
0.0611215
0.0148774
0.0802816
0.000774036
0.0291529
0.000147606
0.000153775
0.000399994
0.000169702
0.00022472
0.0105689
0.000155593
0.000239824
0.0410267
0.000147328
0.0678797
0.000283347
0.000147334
0.000157101
0.000149375
0.000147994
0.000149781
0.000244493
0.0544246
0.00387061
0.000202668
0.000147543
0.000171757
0.000173323
0.000147261
0.0775759
0.000146473
0.000147065
0.000179828
0.000147055
0.000180662
0.000143978
0.000179925
0.00919168
0.000190306
0.000158169
0.000159245
0.0430307
0.0523192
0.000166351
0.000260372
0.000160643
0.000161236
0.0156517
0.00018031
0.000147207
0.000336346
0.0585756
0.00014342
0.000151701
0.000168082
0.00017999
0.000182727
0.000191303
0.000148022
0.000336496
0.000172566
0.000148642
0.000152345
0.000149936
0.000147049
0.000148642
0.00018779
0.0194962
0.000151357
0.000322179
0.000154748
0.000148301
0.0493602
0.000163052
0.0505071
0.000202048
0.0176831
0.00016746
0.0263226
0.0203161
0.000151746
0.000173431
0.0282802
0.0523591
0.000256653
0.000186061
0.0164509
0.000190487
0.0318989
0.000148267
0.0557062
0.000147598
0.000147984
0.00016607
0.000190812
0.000148222
0.000171553
0.00020683
0.00015235
0.000148617
0.00697879
0.000147583
0.0257017
0.000159695
0.000149319
0.0595575
0.000157737
0.000164888
0.0438848
0.0570959
0.000181299
0.00408178
0.000284091
0.000147581
0.00014975
0.0871825
0.000164549
0.0784345
0.000146491
0.000164269
0.000147082
0.000147727
0.000392779
0.000180698
0.000148055
0.0172398
0.00014628
0.000189354
0.000157966
0.0308157
0.0519438
0.000148737
0.000157696
0.000151612
0.000148273
0.0200753
0.000147704
0.000166195
0.0150015
0.000147301
0.000147227
0.00295915
0.0236128
0.000151365
0.000168607
0.000148084
0.000148792
0.00014862
0.0205348
0.000157326
0.000317764
0.000169399
0.000224213
0.000162091
0.000146465
0.000190547
0.000190405
0.000149623
0.0109965
0.00206922
0.00243739
0.000153907
0.000148102
0.0838782
0.0466687
0.0203132
0.000149773
0.000147848
0.00523675
0.000149519
0.0448678
0.000146921
0.000151073
0.000157257
0.000147788
0.000147169
0.000148986
0.000151423
0.0147099
0.000148155
0.00015843
0.000198689
0.000187597
0.000148235
0.00014937
0.0523631
0.000188857
0.0519444
0.000155832
0.074604
0.000147036
0.000147861
0.000159126
0.000534204
0.000467673
0.000164943
0.0378521
0.000195393
0.000174538
0.000157231
0.000160151
0.000148643
0.000214214
0.000168115
0.0823517
0.000163545
0.000160208
0.00639468
0.000184987
0.00014847
0.00016292
0.00019362
0.000149126
0.000182931
0.000319506
0.000147195
0.000181359
0.000388596
0.000146384
0.000148017
0.000147721
0.000147014
0.049279
0.000174388
0.000172586
0.000190062
0.000146242
0.000250417
0.000146909
0.000151801
0.000146912
0.000170719
0.000263408
0.0121078
0.000173076
0.000146454
0.00016781
0.000172055
0.000148812
0.00706051
0.000149155
0.00063043
0.000150989
0.0140301
0.000266977
0.000177833
0.000163672
0.000148614
0.000149532
0.000156778
0.000161867
0.000195354
0.000205703
0.000147303
0.0335598
0.0437299
0.000226134
0.000161119
0.000160407
0.015036
0.000148869
0.021292
0.000147145
0.000148254
0.000167077
0.00014959
0.0164999
0.000148304
0.0172134
0.000146033
0.000148144
0.000146002
0.000151467
0.000213852
0.000147054
0.000168762
0.000151593
0.0181058
0.000148038
0.000243075
0.00015513
0.000164868
0.000162101
0.000149967
0.000333076
0.000168322
0.000149762
0.000184587
0.000160105
0.00018492
0.000166562
0.00863231
0.000161587
0.0754202
0.000155075
0.000149175
0.000155565
0.000154701
0.000167372
0.0575132
0.000161415
0.000149626
0.000149592
0.000147628
0.000205557
0.0855907
0.000149625
0.00548761
0.000181761
0.0755693
0.0136387
0.0105197
0.000148351
0.000165919
0.0264369
0.000163507
0.000499972
0.0121845
0.000187896
0.000149124
0.000161426
0.000149873
0.000148432
0.000170886
0.000147653
0.050566
0.0533245
0.000192837
0.000148799
0.000197722
0.000149864
0.0766396
0.00857126
0.0278293
0.000158066
0.000149558
0.0178722
0.0001801
0.0839374
0.000169255
0.000417591
0.0180368
0.0167647
0.000148635
0.000147448
0.000517877
0.000153429
0.000148459
0.0193384
0.000149743
0.000188651
0.000146359
0.0468932
0.000147199
0.000148245
0.000170514
0.000147208
0.00927901
0.000158313
0.023216
0.000147589
0.00014791
0.000147642
0.000158072
0.000191548
0.000148842
0.000147686
0.000147316
0.000210519
0.000217908
0.000159259
0.000148268
0.000162842
0.000181669
0.000207765
0.000172573
0.000148483
0.000146985
0.000151892
0.00014768
0.000154033
0.000149552
0.000167091
0.000327066
0.000170854
0.000193276
0.0384473
0.000148503
0.000238734
0.0821041
0.000148084
0.00014989
0.000146934
0.000148045
0.0866568
0.000178501
0.0172637
0.000306666
0.000169931
0.000196112
0.000166565
0.000165399
0.000160323
0.000148928
0.000146041
0.000156491
0.000169067
0.000147832
0.0178601
0.00679086
0.000559698
0.000156561
0.000151606
0.000163431
0.0499546
0.0456643
0.000149882
0.000146244
0.0574
0.000153565
0.0138695
0.0241018
0.0090035
0.028942
0.0282907
0.00014634
0.0675346
0.0422567
0.0110378
0.000147973
0.000150913
0.000206169
0.000331805
0.000206367
0.0201883
0.000167792
0.000180985
0.000143887
0.000147701
0.0851665
0.000157612
0.000151327
0.0550245
0.000164993
0.000347263
0.00018516
0.000147867
0.000146458
0.000153444
0.000190996
0.018004
0.0229989
0.0672216
0.000146857
0.000157801
0.00020198
0.000153974
0.000154448
0.000149968
0.0183015
0.000171603
0.000144304
0.0754446
0.000147735
0.000158884
0.000148041
0.000178605
0.000209949
0.0446777
0.000147758
0.000183063
0.00318631
0.000163231
0.000149153
0.000173589
0.000149125
0.000146427
0.000153894
0.000151599
0.0123121
0.000166289
0.000150108
0.0198118
0.000148585
0.0253585
0.000144345
0.000148938
0.000200641
0.000160356
0.00015466
0.000241327
0.000147671
0.0486334
0.000146188
0.000226517
0.000212534
0.0532083
0.00685246
0.000150865
0.000165206
0.00014495
0.000168685
0.000421331
0.000153501
0.000147877
0.000165455
0.0753892
0.0055933
0.0398474
0.000148963
0.000197899
0.0506637
0.000149155
0.000206562
0.0199741
0.00044297
0.00016721
0.000157773
0.000166088
0.000149123
0.000153859
0.0146808
0.000145895
0.000146463
0.000147775
0.000179992
0.000562677
0.000196203
0.00014973
0.000169004
0.000145977
0.0001471
0.000156282
0.00017809
0.000147653
0.00853559
0.000227468
0.000168874
0.000147632
0.0441023
0.00015184
0.000147021
0.000148903
0.000155424
0.000191714
0.0142169
0.000168827
0.000183178
0.000151194
0.000148976
0.0538261
0.00016467
0.000169962
0.0638383
0.000247974
0.0290191
0.000177896
0.00015384
0.000168208
0.000162405
0.000160608
0.0100502
0.000146778
0.000147192
0.0516113
0.0595852
0.020465
0.00014899
0.000415387
0.000149842
0.000151144
0.000171345
0.0160058
0.000152961
0.00325419
0.000157439
0.00019048
0.00015823
0.000153412
0.000188518
0.000148241
0.000148027
0.000171125
0.000225104
0.000162315
0.000254489
0.0148429
0.000285658
0.000155852
0.000147963
0.0104022
0.000147655
0.0159266
0.000152938
0.000156102
0.010297
0.000162351
0.000200673
0.0469702
0.000277056
0.000151817
0.000147416
0.0157651
0.000165883
0.0380448
0.0505467
0.0417828
0.0226438
0.000213661
0.000243868
0.000148837
0.000161339
0.0524755
0.000174392
0.000151096
0.000145322
0.000511931
0.000154718
0.000153716
0.00021426
0.000158004
0.000147182
0.0776313
0.000168604
0.000153488
0.0432703
0.000211941
0.000148077
0.000151278
0.000161205
0.000152193
0.0177009
0.0828322
0.00633196
0.000147049
0.000148549
0.000179579
0.000215218
0.000166471
0.000192292
0.000167336
0.00107948
0.00014862
0.000206073
0.000147206
0.000186965
0.000149877
0.0374285
0.000201876
0.0114425
0.00020059
0.00371483
0.000344383
0.000201257
0.000149597
0.0403002
0.000192596
0.000148566
0.0220193
0.000342247
0.00014782
0.000171483
0.000149625
0.000151532
0.0407178
0.000148121
0.000215753
0.000147598
0.000165565
0.000169828
0.0506888
0.000143859
0.000331716
0.000196096
0.0569189
0.000148451
0.000151228
0.000149861
0.000183374
0.000148791
0.000151951
0.000150096
0.000148071
0.00014757
0.000173705
0.00015549
0.0860477
0.000207982
0.000234608
0.000148522
0.0448677
0.000146178
0.000148409
0.000148429
0.000149041
0.000189811
0.000149669
0.000155793
0.000148202
0.000149709
0.000161291
0.0283308
0.000148428
0.000151873
0.000180457
0.000183355
0.0728617
0.0863907
0.000209136
0.000147837
0.000165209
0.000165342
0.000148759
0.00018945
0.000149874
0.000236131
0.000147581
0.0670958
0.000196848
0.018071
0.000155465
0.000147783
0.000152216
0.0690134
0.000243426
0.000145142
0.0391972
0.000149622
0.000172795
0.000146685
0.0549994
0.0414134
0.000148892
0.000148235
0.000157078
0.000210793
0.00015124
0.000160988
0.0385908
0.0157099
0.000151334
0.0609679
0.00015276
0.000153107
0.000189074
0.000399926
0.000190922
0.000190231
0.0150502
0.000148342
0.00572087
0.0171821
0.0819153
0.0456228
0.000161152
0.0118188
0.0533687
0.0522556
0.000270597
0.0217763
0.0147021
0.000190575
0.000144641
0.0425446
0.000164337
0.000151125
0.00017066
0.032121
0.000179009
0.000147467
0.000158459
0.000201077
0.0375654
0.000155467
0.000165976
0.000146681
0.0119393
0.0276847
0.000219273
0.000168175
0.000143804
0.00393502
0.000146126
0.000545736
0.000152361
0.000148888
0.0407314
0.000147084
0.000146001
0.000152115
0.000149365
0.000167871
0.000152653
0.0102493
0.0218196
0.0488629
0.00014733
0.000215826
0.000152068
0.000180492
0.000162496
0.000150974
0.000149239
0.0175832
0.0119265
0.000149363
0.000157413
0.000149126
0.000147903
0.000287662
0.0175732
0.000212777
0.000394224
0.0108437
0.000192729
0.000148077
0.000148136
0.000147239
0.0001713
0.000176914
0.0765684
0.000569073
0.000146144
0.0749353
0.000200061
0.000161616
0.0228974
0.000180452
0.000327663
0.000144076
0.0255899
0.000148481
0.000144629
0.000148308
0.000145706
0.0774556
0.000178139
0.043404
0.000148329
0.000148079
0.0469664
0.00730875
0.000253325
0.000148812
0.0766211
0.0443222
0.000179854
0.000187801
0.0175927
0.000152852
0.000152782
0.000158821
0.000148411
0.000151583
0.000160484
0.0473873
0.000149259
0.000147246
0.0260981
0.000166156
0.000158566
0.000152308
0.000188188
0.000249586
0.000147577
0.000181592
0.0524248
0.000146004
0.000146544
0.000162003
0.00015186
0.000148166
0.000267057
0.000192744
0.0390179
0.000188625
0.000152846
0.000160322
0.000148735
0.00034932
0.000163217
0.000145767
0.00015556
0.000150006
0.000264922
0.000149267
0.0117737
0.000147831
0.000147843
0.000213262
0.000148785
0.000194392
0.000249721
0.0226706
0.000232927
0.0133898
0.00016811
0.0857325
0.000148171
0.000156788
0.0243874
0.000192968
0.000182271
0.000358468
0.000149011
0.000147254
0.000149939
0.000169397
0.000146557
0.000201769
0.000146263
0.050115
0.000148731
0.0142489
0.0422877
0.0816621
0.000261964
0.000166012
0.000149677
0.000167978
0.000283377
0.000147394
0.000148407
0.0156032
0.0144357
0.000223665
0.000388311
0.000145818
0.016522
0.0332673
0.000152291
0.0536157
0.000148071
0.000144123
0.000151918
0.000163942
0.000151794
0.000160174
0.0316509
0.000203176
0.000176272
0.0509052
0.000147017
0.000243153
0.000148123
0.000149839
0.0141383
0.0563638
0.000277107
0.000146174
0.000232501
0.00027782
0.000184137
0.0147672
0.000149777
0.000153409
0.000149206
0.000145612
0.000163211
0.000148156
0.000164134
0.000149083
0.00827429
0.00607861
0.0536858
0.000165423
0.000188985
0.00953341
0.000146364
0.000149586
0.00163386
0.000149264
0.000154311
0.000145999
0.0140295
0.0483385
0.000249648
0.000148392
0.0102637
0.0406774
0.00018895
0.000145717
0.000186084
0.000147137
0.000166847
0.0191662
0.0267075
0.000146169
0.000165774
0.000146025
0.000152179
0.000155531
0.000148265
0.000149123
0.000273149
0.00580743
0.000149147
0.000146006
0.0256648
0.000147651
0.000148131
0.00014799
0.000312461
0.0264976
0.000168697
0.000153299
0.000149872
0.000221428
0.000148232
0.00802778
0.000167636
0.000572674
0.00014824
0.000147021
0.000149888
0.000181664
0.000147362
0.0302084
0.0143259
0.00014571
0.000157581
0.00014628
0.00016153
0.000262225
0.000169318
0.000173908
0.000182876
0.000151592
0.0244552
0.000224801
0.000144243
0.000147595
0.000160301
0.00015228
0.000148431
0.000161009
0.0183396
0.026283
0.000147694
0.000146003
0.0172748
0.000201023
0.00016054
0.000146761
0.000154763
0.000304085
0.000252514
0.0259046
0.0447084
0.000149574
0.000184871
0.000149707
0.000167989
0.000165361
0.000160892
0.00889871
0.000163063
0.00758211
0.000169426
0.000248015
0.000146781
0.000146874
0.000151284
0.000144297
0.0289468
0.000215409
0.0208262
0.000149676
0.000176833
0.000178792
0.000148441
0.000200829
0.00015247
0.0214499
0.000147967
0.000223415
0.00396564
0.00015222
0.000206649
0.000148236
0.000240969
0.000171173
0.021483
0.00015113
0.000161313
0.000144037
0.000156201
0.000157781
0.000145766
0.000236401
0.00014706
0.000149786
0.00035519
0.0150958
0.000149408
0.000217641
0.0111994
0.052483
0.000170549
0.0216528
0.000148351
0.0143546
0.000201986
0.000154587
0.0322822
0.0619901
0.00340483
0.000217816
0.0135942
0.000145569
0.00014798
0.000146364
0.000180907
0.000155378
0.000148277
0.000186408
0.000167541
0.042996
0.000360882
0.000185227
0.000149145
0.000175975
0.0418465
0.0204844
0.000154573
0.0369046
0.000145689
0.000164994
0.0433854
0.000326174
0.00029322
0.000825069
0.000148668
0.0300559
0.000147953
0.016078
0.000148418
0.000329906
0.0480607
0.000148273
0.000205375
0.000252915
0.000148755
0.00014891
0.000147389
0.000146264
0.0237542
0.0810659
0.0161064
0.000150095
0.000147606
0.0434987
0.000165982
0.000148066
0.000147376
0.000147372
0.000148766
0.0752165
0.000166033
0.000236333
0.000168752
0.000164972
0.000148441
0.000165248
0.000147436
0.048513
0.000148101
0.0258933
0.000220705
0.000148373
0.00860017
0.000147702
0.000147714
0.00744814
0.000167544
0.000227757
0.000149025
0.000148309
0.000149587
0.000148048
0.000166228
0.000148121
0.0486144
0.000158168
0.000146682
0.0772752
0.0380711
0.000187459
0.0002032
0.000146967
0.000335639
0.000166721
0.0107261
0.000167075
0.000148083
0.000152054
0.0217238
0.000162922
0.000460743
0.000212745
0.000148817
0.0534488
0.0316082
0.0301451
0.000148335
0.000149623
0.074555
0.000147659
0.000158365
0.000148639
0.000148369
0.000148197
0.000714192
0.00015735
0.000146021
0.0518954
0.0127181
0.000156637
0.00016007
0.000145825
0.000149709
0.0452617
0.000536233
0.000197888
0.000147388
0.0181619
0.0408522
0.000156351
0.000147394
0.000183495
0.0114462
0.000146341
0.000166832
0.000151041
0.0694938
0.000148617
0.000148304
0.000162646
0.0711846
0.0746446
0.000191302
0.0547986
0.0778755
0.0373432
0.0146215
0.000160309
0.000156301
0.000147061
0.0454881
0.000148353
0.000214308
0.000163622
0.000147919
0.000147436
0.000187364
0.000149848
0.0136652
0.000188837
0.000162871
0.000191666
0.0175734
0.0263042
0.000146333
0.00305716
0.000156942
0.000154542
0.000164623
0.000151959
0.0516822
0.0160244
0.000181675
0.000182228
0.000149675
0.000147334
0.000229769
0.000187911
0.000165161
0.000161373
0.000147988
0.0484765
0.00014776
0.000147332
0.000155946
0.0487298
0.000226563
0.000180111
0.000257265
0.0154851
0.000148143
0.00019774
0.0170653
0.000147185
0.000157765
0.0355226
0.000149669
0.000147941
0.000155836
0.0529137
0.0837982
0.0176816
0.000180442
0.000147918
0.0505198
0.000148294
0.000183475
0.000148101
0.0457225
0.00178983
0.000148252
0.000181497
0.000146599
0.00015648
0.000163393
0.0128198
0.0560317
0.000148178
0.022041
0.0122161
0.000167354
0.000261333
0.0289403
0.000145837
0.000235748
0.000157929
0.000191097
0.080968