/*--------------------------------*- C++ -*----------------------------------*\
| =========                 |                                                 |
| \\      /  F ield         | OpenFOAM: The Open Source CFD Toolbox           |
|  \\    /   O peration     | Version:  v2012                                 |
|   \\  /    A nd           | Website:  www.openfoam.com                      |
|    \\/     M anipulation  |                                                 |
\*---------------------------------------------------------------------------*/
FoamFile
{
    version     2.0;
    format      ascii;
    class       volScalarField;
    location    "400";
    object      k_0;
}
// * * * * * * * * * * * * * * * * * * * * * * * * * * * * * * * * * * * * * //

dimensions      [0 2 -2 0 0 0 0];


internalField   nonuniform List<scalar> 
54593
(
0.000148002
0.000178308
0.000146477
0.0342601
0.0203958
0.0515545
0.0181641
0.000188107
0.000176369
0.000147433
0.000154761
0.00886725
0.000395329
0.000147666
0.000172148
0.000155507
0.000188166
0.000166247
0.00014742
0.000157918
0.000146475
0.000157216
0.000147416
0.00827122
0.000144743
0.000213594
0.000148005
0.00017291
0.0741302
0.000147438
0.000213494
0.000190874
0.000147042
0.0347997
0.000163377
0.0001492
0.00017083
0.000178177
0.000150958
0.000157259
0.000280118
0.000804494
0.000146109
0.000148048
0.000191381
0.000151006
0.000194076
0.000169758
0.000145004
0.000173973
0.000147047
0.000145147
0.000154218
0.000192995
0.000199935
0.000148472
0.0394586
0.00215002
0.000197203
0.000167309
0.000146127
0.00015095
0.000147677
0.0294809
0.000147804
0.000155242
0.0748405
0.000187485
0.0285496
0.0282591
0.000145074
0.000163281
0.000147779
0.0447514
0.000153261
0.000159865
0.000166529
0.000249014
0.0401516
0.000284971
0.000146557
0.0414802
0.000148045
0.0609811
0.000152236
0.0493248
0.021739
0.000190245
0.000173311
0.000148313
0.00269858
0.000160222
0.000202276
0.00020349
0.000165531
0.0777411
0.0318919
0.000222231
0.000148667
0.00017419
0.000149489
0.047334
0.000150237
0.000147824
0.000190197
0.000165936
0.000169062
0.000189615
0.000159608
0.000169294
0.0521595
0.000147754
0.000148338
0.000214781
0.000147665
0.00541873
0.0294956
0.0274667
0.0373617
0.000201307
0.0288861
0.000149594
0.0212632
0.000169204
0.000146771
0.000215218
0.000150464
0.000146768
0.0185184
0.0786015
0.000149781
0.000149023
0.000160732
0.000149154
0.000160389
0.000680493
0.000146696
0.0330484
0.000147817
0.000148216
0.0148196
0.000169126
0.00016032
0.000741425
0.000164532
0.0001872
0.0303069
0.000170548
0.0424151
0.000150343
0.000168264
0.000149225
0.0002051
0.000203021
0.000147926
0.074445
0.00015458
0.0733387
0.000172166
0.000148652
0.000280002
0.000153088
0.0142667
0.0756598
0.00017249
0.000149585
0.000146659
0.000146094
0.000454973
0.00014988
0.000217639
0.000598452
0.000173649
0.000149626
0.000176329
0.00014696
0.0581535
0.000152421
0.00015096
0.000263283
0.0425969
0.000143976
0.0722548
0.000149576
0.000149628
0.005607
0.000149992
0.000153034
0.000147696
0.000466104
0.000151
0.0349358
0.00476388
0.000147762
0.0150218
0.030814
0.000147993
0.000154048
0.000214824
0.00418948
0.00016121
0.000213815
0.000187683
0.000150151
0.000150024
0.000149993
0.000467763
0.000152021
0.000150982
0.000146395
0.000148234
0.000147661
0.000143946
0.000160402
0.000165275
0.000215892
0.0433957
0.0360076
0.00851855
0.000147983
0.000157139
0.0235372
0.0011982
0.000152061
0.000185337
0.000166083
0.000149794
0.000166182
0.000146561
0.00017156
0.000150407
0.000212718
0.00621817
0.000149592
0.000149182
0.0285308
0.000217311
0.000149146
0.000184798
0.000149119
0.000152032
0.000160712
0.0623656
0.000198105
0.000151947
0.000154474
0.0563598
0.000242393
0.000145951
0.000293956
0.000197922
0.050279
0.0603994
0.000147256
0.000153064
0.000148663
0.0169521
0.000151419
0.000216777
0.000157156
0.000169931
0.0479655
0.000149061
0.00502431
0.000165265
0.000146834
0.0164514
0.000145964
0.00015602
0.000149566
0.047733
0.000451642
0.000159641
0.000147988
0.000154396
0.000147816
0.000151098
0.0590709
0.000146457
0.000193507
0.000151728
0.00016321
0.000156347
0.0180249
0.056217
0.00024256
0.000157289
0.00015349
0.000164698
0.00160779
0.0521513
0.0401177
0.000147285
0.000148212
0.000184457
0.000149759
0.0465514
0.000475682
0.000147648
0.000215393
0.0002468
0.000151101
0.000148247
0.000149846
0.000147906
0.000148369
0.000174556
0.016447
0.000150269
0.000147941
0.0598885
0.000167464
0.0163438
0.000149138
0.000261364
0.0201334
0.000187552
0.000573568
0.000221721
0.000149459
0.000181915
0.000146003
0.00024417
0.000172525
0.0415977
0.000171782
0.000182409
0.000146731
0.045168
0.000169822
0.000148404
0.000159226
0.00014781
0.000153143
0.000149892
0.000605873
0.000156899
0.0170833
0.000245322
0.000158048
0.000167333
0.000154498
0.0521381
0.000151501
0.000148374
0.000185653
0.000173914
0.00021403
0.000190336
0.0515515
0.00604851
0.00014823
0.000241576
0.000196057
0.000148281
0.000146164
0.000158073
0.000148252
0.000148382
0.000148032
0.00021406
0.000157349
0.000151817
0.0179696
0.000174506
0.000149012
0.000148252
0.00364052
0.000166555
0.000147739
0.000154829
0.000147915
0.00014599
0.000149507
0.00015367
0.000690057
0.000147708
0.00435941
0.000159533
0.0470335
0.0780304
0.000161301
0.000182943
0.000243744
0.000187299
0.000520267
0.0077943
0.000147804
0.0604191
0.000182452
0.000179257
0.000197227
0.000156653
0.000146176
0.0151534
0.0143779
0.00389316
0.000176631
0.000175321
0.000182143
0.000152665
0.000177996
0.0326599
0.000202675
0.000241152
0.000203579
0.000146612
0.000185402
0.000147203
0.000224766
0.000239422
0.00014777
0.000148237
0.000176142
0.000147685
0.0719886
0.000169886
0.000148062
0.000148677
0.000172231
0.000166629
0.0204802
0.000172196
0.000191301
0.0218048
0.013051
0.0593627
0.00017063
0.00572798
0.00016395
0.0789147
0.000163825
0.000254209
0.000174207
0.00018167
0.000162681
0.00014798
0.0386718
0.000176745
0.000178154
0.0145813
0.00014963
0.000146732
0.000148327
0.0179936
0.000183976
0.000147613
0.00014868
0.000204132
0.000729917
0.000537279
0.000248231
0.000174956
0.000167403
0.033611
0.000592602
0.000164544
0.000148423
0.000151139
0.000204045
0.000147627
0.00014594
0.000424321
0.000148789
0.000146237
0.00018213
0.000213811
0.000148848
0.000170054
0.00080341
0.0177817
0.00277414
0.000160671
0.000145294
0.014785
0.000149193
0.000149841
0.0337767
0.0175482
0.000148857
0.000176691
0.000148053
0.000181497
0.000181172
0.000148062
0.00107492
0.00024305
0.000239796
0.000144726
0.00115936
0.000447917
0.000149629
0.000147405
0.0001577
0.00617317
0.000149523
0.000165912
0.000152022
0.000237588
0.000148395
0.000266614
0.0214017
0.00023734
0.000183787
0.000147026
0.000165849
0.000148661
0.000166409
0.000163859
0.00014676
0.000148398
0.000195434
0.0218513
0.000148683
0.000158016
0.041863
0.000355168
0.000147137
0.0576925
0.000147809
0.000191168
0.000155374
0.000149493
0.00014901
0.000147935
0.000182007
0.0577084
0.0567158
0.00532555
0.000145071
0.000547354
0.000152583
0.000169028
0.00014789
0.000146735
0.000146638
0.0272113
0.000148051
0.000158161
0.000169183
0.000147254
0.000151873
0.00292462
0.0714402
0.000150018
0.0180729
0.0193742
0.000146731
0.0170018
0.000146199
0.0655006
0.000163243
0.00021232
0.00112168
0.000194871
0.000193532
0.000267591
0.00676239
0.000245359
0.0332311
0.000148364
0.000149591
0.000175183
0.000169853
0.00402991
0.000149451
0.0784224
0.000148898
0.000154875
0.000196544
0.000147135
0.000159046
0.000183
0.000153516
0.00039973
0.0400246
0.00022974
0.00029992
0.0528222
0.000654193
0.000146867
0.000146001
0.00015828
0.00014701
0.00015212
0.000148375
0.000202984
0.000151495
0.000232606
0.000161284
0.000162683
0.0227489
0.000170756
0.000179873
0.000149608
0.0542126
0.0452595
0.000147283
0.000149672
0.000274791
0.0168601
0.000154676
0.000148679
0.071183
0.0380628
0.000230499
0.0177415
0.000152041
0.000156883
0.000165999
0.000225101
0.000148404
0.000149704
0.000163074
0.000190461
0.000163162
0.000151881
0.000235871
0.0448755
0.000149626
0.000145971
0.0182778
0.000201391
0.000190598
0.0359583
0.000484228
0.000225117
0.07796
0.0739446
0.000190635
0.000256183
0.000147811
0.000148742
0.000177606
0.000147303
0.000185981
0.000176358
0.00701891
0.000151439
0.074812
0.000210803
0.000147455
0.000211009
0.000146228
0.00015177
0.000555559
0.000190694
0.0775995
0.000160459
0.0607798
0.000146884
0.00017819
0.0763362
0.055608
0.000147795
0.000143946
0.0474177
0.000159474
0.00014956
0.000148011
0.000148704
0.000147305
0.00692453
0.000169002
0.000147673
0.000148469
0.00462032
0.000202106
0.000148726
0.000146056
0.000147903
0.000170003
0.000161493
0.000152624
0.000192914
0.0126294
0.0462169
0.000150959
0.00014779
0.00014779
0.000156364
0.000163605
0.000149595
0.0451243
0.0589856
0.000152877
0.00014825
0.000147292
0.000228684
0.0451954
0.000146094
0.000148603
0.045884
0.000150403
0.000154788
0.000190984
0.000147654
0.000187351
0.00296387
0.00017057
0.000148234
0.000152092
0.0277367
0.000166818
0.000148404
0.0499271
0.000147487
0.0292567
0.000173849
0.000158998
0.000149522
0.000146421
0.0195592
0.000147801
0.000166407
0.0554035
0.000162079
0.000148145
0.000163609
0.014097
0.000162883
0.0157338
0.000160901
0.0843012
0.00531534
0.00696781
0.000147788
0.000296282
0.000151908
0.000148707
0.000146365
0.000146214
0.00632095
0.0029173
0.0761772
0.000167218
0.000217023
0.000147546
0.000154243
0.000148086
0.000147977
0.0376937
0.000410872
0.000265149
0.000149838
0.0475399
0.000166406
0.070074
0.000235233
0.0683271
0.000235334
0.000220145
0.0163149
0.0145148
0.000224335
0.0223414
0.000147705
0.0425612
0.0488128
0.000203889
0.0600787
0.0570868
0.0872567
0.000176961
0.0583967
0.000159113
0.000176475
0.000636511
0.000155541
0.00014818
0.000148251
0.000148094
0.0150396
0.000190511
0.000156717
0.000146616
0.000146307
0.000148094
0.00111021
0.000146611
0.0185617
0.000202582
0.00354503
0.000148093
0.000237317
0.0299495
0.000147074
0.00712172
0.048691
0.0279514
0.0223493
0.000149671
0.000157764
0.00019906
0.000149089
0.000169282
0.0348024
0.000151839
0.0673063
0.0413892
0.000217203
0.000147864
0.000146209
0.00160809
0.000164513
0.00068397
0.000152704
0.000205465
0.000166813
0.000181628
0.0680694
0.00543633
0.000168507
0.000193923
0.000148248
0.000149701
0.000148233
0.000187972
0.000648052
0.0429997
0.000169868
0.00017195
0.0169605
0.000199971
0.000164061
0.000152125
0.000258611
0.000146509
0.000150143
0.000149105
0.025805
0.00015104
0.000147531
0.000149317
0.000146339
0.000198289
0.000148972
0.00014802
0.000148193
0.0825699
0.000147026
0.000149787
0.0459984
0.000147285
0.000158776
0.0138955
0.000558214
0.000146187
0.000278246
0.0535447
0.0757813
0.000146547
0.04429
0.000146552
0.000190693
0.000145989
0.00033792
0.00206598
0.000195277
0.000147855
0.00635869
0.000154537
0.000146657
0.000145996
0.000156909
0.0115772
0.000153689
0.000147933
0.0698604
0.000151527
0.000160599
0.00023194
0.000146491
0.000147957
0.000224752
0.0180518
0.000143385
0.000148089
0.0247677
0.0183494
0.00020661
0.000143334
0.0158864
0.0661084
0.0140587
0.000146279
0.000184519
0.000147129
0.000143978
0.000157975
0.000192022
0.0525683
0.000143946
0.000151084
0.000148405
0.00014634
0.0712758
0.0131535
0.000284826
0.000165691
0.000250642
0.000146614
0.0485121
0.00457511
0.0172267
0.000153729
0.0218198
0.00014869
0.000148264
0.00015617
0.000149759
0.000166231
0.000147237
0.0129491
0.0519232
0.00057515
0.000171907
0.000151937
0.000213378
0.000193936
0.000198152
0.000144954
0.019306
0.0702527
0.000147784
0.000230515
0.000148092
0.000161047
0.0266408
0.000183453
0.000149627
0.0176701
0.000148422
0.0184568
0.000180022
0.000213483
0.000171059
0.000164026
0.000190451
0.00017127
0.000146097
0.000212774
0.000174192
0.000263767
0.000167506
0.0380015
0.0502393
0.00014808
0.000147579
0.000147046
0.000147927
0.00018023
0.000148369
0.00014619
0.0243403
0.00018804
0.000165255
0.0144301
0.0001558
0.0102496
0.000146586
0.000148028
0.000224274
0.000148359
0.000160791
0.000172403
0.000211194
0.000210504
0.0173773
0.000173279
0.000211033
0.000642395
0.000171154
0.0297197
0.000150278
0.00707072
0.000190352
0.000153736
0.000176692
0.000172105
0.000312099
0.0158704
0.0607058
0.000149594
0.000155981
0.0170114
0.000147043
0.000163948
0.000181575
0.000212017
0.0584858
0.000147833
0.0001924
0.000582034
0.000148226
0.000148378
0.000143427
0.0768604
0.000167365
0.000151028
0.00420279
0.0205005
0.000147425
0.0763907
0.00697155
0.000201806
0.000216928
0.000196969
0.000181838
0.000183553
0.0126886
0.00018259
0.000147004
0.015197
0.000148424
0.000147292
0.000146963
0.0848398
0.000149169
0.00019791
0.000151689
0.0225334
0.000173699
0.000147521
0.000154021
0.0760277
0.000145954
0.000149121
0.00014719
0.000180273
0.000149295
0.000591246
0.000162449
0.000148395
0.00017691
0.000197251
0.0202411
0.000150074
0.000211921
0.0542281
0.0422997
0.000147271
0.000158289
0.000148411
0.000147856
0.000196866
0.000158328
0.000147401
0.000152076
0.000167108
0.000147619
0.050564
0.000153735
0.000172858
0.000148168
0.000147854
0.000153858
0.000146945
0.00016024
0.000209595
0.000149837
0.000148083
0.000147779
0.0046448
0.000167947
0.0242509
0.000153437
0.0538262
0.0856138
0.000223824
0.000161146
0.000181085
0.000148403
0.0505852
0.0212377
0.0471724
0.0388825
0.000188207
0.000173658
0.000203757
0.00023656
0.000167835
0.000152032
0.000147015
0.000182049
0.0162214
0.000195032
0.000169494
0.00014823
0.000181576
0.000148271
0.0486821
0.000145263
0.000200813
0.000152082
0.000290849
0.000148003
0.000366813
0.000157721
0.000222097
0.000148048
0.000152125
0.000964689
0.0729844
0.000161744
0.000173254
0.000147732
0.000149655
0.0206571
0.0767771
0.0550536
0.000150004
0.000211727
0.000161363
0.000169647
0.000148056
0.000215499
0.000148375
0.000147701
0.000151749
0.000148397
0.0314576
0.00014837
0.000147835
0.000149747
0.000151808
0.000149841
0.000156631
0.0351606
0.000156159
0.0203783
0.00812974
0.000147834
0.000180641
0.0001467
0.000151283
0.000148072
0.000568626
0.000642087
0.000148524
0.000148234
0.00015835
0.0571064
0.000373593
0.000148086
0.000145885
0.000173411
0.000147078
0.0170831
0.00164561
0.000148393
0.00015807
0.000213866
0.000181083
0.000149152
0.000193481
0.0491377
0.000148402
0.0160367
0.000149608
0.0509726
0.0138464
0.000146158
0.000174383
0.0267045
0.0642772
0.000146313
0.000187884
0.000148095
0.00014638
0.0466058
0.000152593
0.000153511
0.000148244
0.00708027
0.000196554
0.000168656
0.000226772
0.000160743
0.000150367
0.00018965
0.0298228
0.000147602
0.0405633
0.005292
0.000162785
0.000150217
0.000154577
0.000148271
0.000186616
0.000147685
0.000149595
0.000168487
0.0402121
0.000161026
0.000149876
0.00016617
0.0531225
0.000143373
0.0153888
0.000151957
0.000243379
0.000190006
0.0196579
0.000148958
0.056555
0.000146356
0.000143374
0.000148158
0.000157721
0.000147529
0.0367611
0.000148423
0.00014825
0.00460152
0.000148025
0.000147311
0.0194687
0.000149448
0.00014732
0.00014751
0.000319156
0.061121
0.0151857
0.0802839
0.000747845
0.0291528
0.000147605
0.000153775
0.000399998
0.000169705
0.00022479
0.0116254
0.000155593
0.000239827
0.041026
0.000147328
0.0678791
0.000283347
0.000147334
0.0001571
0.000149375
0.000147994
0.000149781
0.000244469
0.054424
0.00387064
0.000202665
0.000147543
0.00017175
0.000173323
0.000147261
0.0775713
0.000146473
0.000147065
0.000179696
0.000147055
0.000180661
0.000143978
0.000179924
0.00919175
0.000190307
0.000158169
0.000159245
0.04303
0.0523119
0.00016635
0.000258295
0.000160643
0.000161236
0.0156517
0.00018031
0.000147207
0.000324227
0.0585787
0.00014342
0.000151701
0.000168082
0.000179986
0.000182728
0.000191301
0.000148022
0.000336374
0.00017257
0.000148642
0.000152345
0.000149936
0.00014705
0.000148642
0.00018779
0.0194963
0.000151357
0.000322179
0.000154748
0.000148301
0.0493609
0.000163052
0.0505003
0.000202045
0.0176837
0.000167461
0.0263226
0.0203169
0.000151746
0.000173431
0.0282924
0.0523585
0.0002567
0.00018606
0.0164501
0.000190485
0.0318993
0.000148267
0.0557058
0.000147598
0.000147984
0.000166069
0.000190813
0.000148222
0.000171553
0.000206832
0.00015235
0.000148617
0.007276
0.000147583
0.0257015
0.000159692
0.000149319
0.0595573
0.000157737
0.000164888
0.0438793
0.0570957
0.000181298
0.00408177
0.000280948
0.000147581
0.00014975
0.0871831
0.000164549
0.0784303
0.000146491
0.000164269
0.000147082
0.000147727
0.000392778
0.000180698
0.000148055
0.0172399
0.00014628
0.000189352
0.000157966
0.0308155
0.0519445
0.000148737
0.000157696
0.000151612
0.000148273
0.0200753
0.000147704
0.000166181
0.0150016
0.000147301
0.000147227
0.00294662
0.0236026
0.000151365
0.000168607
0.000148084
0.000148792
0.00014862
0.0205344
0.000157326
0.000316914
0.000169398
0.000224248
0.000162091
0.000146465
0.000190547
0.000190405
0.000149623
0.0109964
0.00221025
0.00243737
0.000153907
0.000148102
0.0838783
0.0466682
0.0203124
0.000149773
0.000147848
0.00523703
0.000149519
0.0448685
0.000146921
0.000151073
0.000157257
0.000147788
0.000147169
0.000148986
0.000151423
0.0147098
0.000148155
0.00015843
0.000198688
0.000187597
0.000148235
0.000149371
0.0523566
0.000188855
0.0519398
0.000155832
0.0746053
0.000147036
0.000147861
0.000159126
0.000534204
0.000467676
0.000164943
0.0378525
0.000195394
0.000174538
0.000157231
0.00016015
0.000148643
0.000214211
0.000168113
0.0823515
0.000163543
0.000160209
0.00639483
0.000184987
0.00014847
0.00016292
0.000193571
0.000149126
0.000182991
0.000318923
0.000147195
0.000181359
0.000388594
0.000146384
0.000148017
0.000147721
0.000147014
0.0492788
0.000174386
0.000172581
0.00019006
0.000146243
0.00024971
0.000146909
0.000151801
0.000146912
0.000170719
0.000263601
0.0122295
0.000173076
0.000146454
0.000167807
0.000172058
0.000148812
0.00706041
0.000149155
0.00063043
0.000150989
0.0140302
0.000267122
0.000177832
0.000163669
0.000148614
0.000149532
0.000156778
0.000161867
0.000195354
0.000205703
0.000147303
0.0335595
0.0437304
0.000226116
0.000161119
0.000160407
0.0150357
0.000148869
0.0212925
0.000147145
0.000148254
0.000167079
0.00014959
0.0164999
0.000148304
0.0172135
0.000146033
0.000148144
0.000146002
0.000151467
0.000213851
0.000147054
0.00016876
0.000151593
0.0181667
0.000148038
0.000244724
0.00015513
0.000164869
0.000162101
0.000149967
0.000333073
0.000168322
0.000149762
0.000184587
0.000160105
0.00018492
0.000166562
0.00863236
0.000161584
0.0754149
0.000155075
0.000149176
0.000155565
0.000154701
0.000167372
0.0575125
0.000161415
0.000149626
0.000149592
0.000147628
0.000205554
0.0855927
0.000149625
0.0054876
0.000181762
0.075567
0.0136386
0.0105195
0.000148351
0.000165919
0.0264368
0.000163504
0.000510813
0.0121846
0.000187895
0.000149124
0.000161425
0.000149873
0.000148432
0.000170886
0.000147653
0.0505611
0.0533244
0.000192838
0.000148799
0.000197621
0.000149864
0.0766348
0.00857132
0.0278288
0.000158066
0.000149558
0.0178728
0.0001801
0.0839377
0.000169262
0.000417593
0.0180361
0.0167641
0.000148635
0.000147448
0.000503683
0.000153429
0.000148459
0.0193384
0.000149744
0.000188651
0.000146359
0.0468939
0.000147199
0.000148245
0.000170514
0.000147208
0.00927888
0.000158312
0.0232153
0.000147589
0.00014791
0.000147642
0.000158072
0.000191547
0.000148842
0.000147686
0.000147316
0.000210521
0.000217909
0.000159259
0.000148268
0.000162842
0.000181668
0.000207765
0.000172568
0.000148483
0.000146985
0.000151892
0.00014768
0.000154033
0.000149552
0.00016709
0.000324155
0.000170854
0.000193275
0.0384466
0.000148503
0.000238743
0.0821046
0.000148084
0.00014989
0.000146934
0.000148045
0.0866577
0.000178501
0.0172633
0.000306567
0.00016993
0.000196112
0.000166565
0.000165399
0.000160324
0.000148928
0.000146041
0.000156491
0.000169067
0.000147832
0.01786
0.0065243
0.000559698
0.000156561
0.000151606
0.000163431
0.0499533
0.045664
0.000149882
0.000146244
0.0573992
0.000153566
0.0138699
0.0241017
0.00900341
0.0289529
0.0283026
0.00014634
0.067534
0.0422571
0.0110381
0.000147973
0.000150913
0.00020617
0.000331804
0.000206362
0.020189
0.000167792
0.000180984
0.000143887
0.000147701
0.0851653
0.000157612
0.000151327
0.0550186
0.000164993
0.000347261
0.000185167
0.000147867
0.000146458
0.000153444
0.000190993
0.0180042
0.0229982
0.0672217
0.000146857
0.000157801
0.000201976
0.000153974
0.000154448
0.000149968
0.0183022
0.000171608
0.000144304
0.0754423
0.000147735
0.000158884
0.000148041
0.000178593
0.000209903
0.044678
0.000147758
0.000183064
0.00307822
0.000163232
0.000149153
0.000173589
0.000149125
0.000146427
0.000153894
0.000151599
0.0123121
0.000166289
0.000150108
0.0198121
0.000148585
0.0253579
0.000144345
0.000148938
0.000200642
0.000160356
0.000154659
0.000241315
0.000147671
0.0486329
0.000146188
0.000226571
0.000212529
0.0532079
0.00685253
0.000150864
0.000165206
0.00014495
0.000168684
0.000422595
0.000153501
0.000147877
0.000165454
0.0753922
0.00559327
0.039857
0.000148963
0.000197895
0.0506559
0.000149155
0.000206558
0.0199739
0.000420332
0.00016721
0.000157773
0.000166088
0.000149123
0.000153858
0.0146808
0.000145895
0.000146463
0.000147775
0.000179992
0.000562679
0.000196204
0.00014973
0.000169002
0.000145977
0.0001471
0.000156282
0.00017809
0.000147653
0.00853564
0.000227407
0.000168877
0.000147632
0.0441019
0.00015184
0.000147022
0.000148903
0.000155424
0.000191713
0.0142168
0.000168824
0.000183178
0.000151194
0.000148976
0.0538261
0.000164673
0.000169952
0.0638376
0.000247794
0.0290191
0.000177896
0.00015384
0.000168208
0.000162405
0.000160608
0.0100503
0.000146778
0.000147192
0.051611
0.0595844
0.0204641
0.00014899
0.000415394
0.000149842
0.000151144
0.00017134
0.0160054
0.000152961
0.00327821
0.000157439
0.000190479
0.00015823
0.000153412
0.000188516
0.000148241
0.000148027
0.000171128
0.000224648
0.000162315
0.000254653
0.0148432
0.000290925
0.000155851
0.000147963
0.0104014
0.000147655
0.0159266
0.000152938
0.000156102
0.0102963
0.00016235
0.000200669
0.0469624
0.000277056
0.000151817
0.000147416
0.0157651
0.000165883
0.0380453
0.0505474
0.0417832
0.022644
0.000213659
0.000243878
0.000148837
0.000161339
0.0524755
0.000174392
0.000151096
0.000145322
0.000511935
0.000154718
0.000153716
0.000214256
0.000158005
0.000147182
0.077634
0.000168605
0.000153487
0.0432696
0.000211937
0.000148077
0.000151278
0.000161205
0.000152194
0.0177016
0.0828345
0.00633201
0.000147049
0.000148549
0.000179581
0.000215225
0.000166471
0.000192293
0.000167336
0.00116531
0.00014862
0.000206072
0.000147206
0.000186965
0.000149877
0.037429
0.000201878
0.0114426
0.000200586
0.0036555
0.000344379
0.000201258
0.000149597
0.0403008
0.000192594
0.000148566
0.0220194
0.000342244
0.00014782
0.000171483
0.000149625
0.000151532
0.0407183
0.000148121
0.000215749
0.000147598
0.000165565
0.000169827
0.0506811
0.000143859
0.000332304
0.000196095
0.0569119
0.000148451
0.000151228
0.000149861
0.000183373
0.000148791
0.000151951
0.000150096
0.000148071
0.00014757
0.000173705
0.00015549
0.0860486
0.000207984
0.000234604
0.000148522
0.0448683
0.000146178
0.000148409
0.000148429
0.000149041
0.000189811
0.000149669
0.000155793
0.000148202
0.000149709
0.000161291
0.0283308
0.000148428
0.000151873
0.000180457
0.000183354
0.0728647
0.0863914
0.000209138
0.000147837
0.000165209
0.000165344
0.000148759
0.00018942
0.000149874
0.000236134
0.000147581
0.0670952
0.000196849
0.0180712
0.000155465
0.000147783
0.000152216
0.0690131
0.00024343
0.000145142
0.0392072
0.000149622
0.000172781
0.000146685
0.0549988
0.0414141
0.000148892
0.000148235
0.000157078
0.000210793
0.00015124
0.000160988
0.0385913
0.0157092
0.000151334
0.0609675
0.00015276
0.000153107
0.000189072
0.000381088
0.000190922
0.00019024
0.0150504
0.000148342
0.00572089
0.0171818
0.0819143
0.0456223
0.000161151
0.0118188
0.0533684
0.0522555
0.000271552
0.0217759
0.0147022
0.000190542
0.000144641
0.0425551
0.000164335
0.000151125
0.000170657
0.0321214
0.000179009
0.000147467
0.000158459
0.000201074
0.037576
0.000155467
0.000165976
0.000146681
0.0119393
0.0276957
0.000219274
0.000168175
0.000143804
0.00393501
0.000146126
0.00053712
0.000152361
0.000148888
0.0407321
0.000147084
0.000146001
0.000152115
0.000149365
0.00016787
0.000152653
0.0102492
0.021819
0.0488621
0.00014733
0.000215818
0.000152068
0.000180491
0.000162495
0.000150974
0.000149239
0.0175837
0.0119265
0.000149363
0.000157413
0.000149126
0.000147903
0.000287657
0.0175734
0.00021278
0.000380271
0.0108437
0.000192729
0.000148077
0.000148136
0.000147239
0.000171293
0.000176913
0.0765637
0.000569073
0.000146144
0.0749384
0.000200058
0.000161617
0.0228981
0.000180465
0.00032901
0.000144076
0.0255894
0.000148481
0.000144629
0.000148308
0.000145706
0.0774565
0.000178139
0.0434047
0.000148329
0.000148079
0.0469656
0.00730881
0.000253354
0.000148812
0.0766199
0.044323
0.000179845
0.000187799
0.0175933
0.000152852
0.000152782
0.000158821
0.000148411
0.000151583
0.000160484
0.047388
0.000149259
0.000147246
0.0261105
0.000166156
0.000158566
0.000152308
0.000188188
0.000249596
0.000147577
0.000181594
0.0524242
0.000146004
0.000146544
0.000162009
0.00015186
0.000148166
0.000267709
0.000192742
0.039018
0.000188629
0.000152846
0.000160323
0.000148736
0.00034435
0.000163216
0.000145767
0.00015556
0.000150006
0.000264932
0.000149267
0.0117739
0.000147831
0.000147843
0.000213265
0.000148785
0.00019439
0.000249606
0.0226706
0.000232944
0.0133896
0.00016811
0.0857312
0.000148171
0.000156788
0.0243983
0.000192967
0.00018227
0.000358466
0.000149011
0.000147254
0.000149939
0.000169397
0.000146557
0.00020177
0.000146263
0.0501176
0.000148731
0.0142486
0.0422972
0.0816612
0.0002621
0.000166006
0.000149677
0.000167982
0.000283893
0.000147394
0.000148407
0.0156029
0.0144355
0.000223666
0.000388908
0.000145818
0.0165222
0.0332674
0.000152291
0.0536156
0.000148071
0.000144123
0.000151918
0.000163942
0.000151794
0.000160174
0.031662
0.000203177
0.000176272
0.0509052
0.000147017
0.000243152
0.000148123
0.000149839
0.0141385
0.0563635
0.000277562
0.000146174
0.000232506
0.000278014
0.000184147
0.0147677
0.000149777
0.000153409
0.000149206
0.000145612
0.000163211
0.000148156
0.000164134
0.000149083
0.00827413
0.00607856
0.0536892
0.000165423
0.000188983
0.00953405
0.000146364
0.000149586
0.00163387
0.000149264
0.000154311
0.000145999
0.0140297
0.048338
0.000249655
0.000148392
0.0102637
0.0406768
0.000188948
0.000145717
0.000186081
0.000147137
0.000166849
0.0191655
0.0267069
0.000146169
0.000165774
0.000146025
0.000152179
0.000155531
0.000148266
0.000149123
0.000273324
0.00580787
0.000149147
0.000146006
0.0256655
0.000147651
0.000148131
0.00014799
0.000312459
0.0264975
0.000168697
0.000153299
0.000149872
0.000221394
0.000148232
0.00802773
0.000167636
0.000572674
0.00014824
0.000147021
0.000149888
0.000181667
0.000147362
0.0302082
0.0143258
0.00014571
0.000157581
0.00014628
0.000161532
0.000262226
0.000169318
0.000173869
0.000182949
0.000151592
0.024455
0.000224802
0.000144243
0.000147595
0.0001603
0.00015228
0.000148431
0.000161009
0.0183401
0.0262942
0.000147694
0.000146003
0.0172744
0.00020102
0.000160541
0.000146761
0.000154763
0.000304073
0.00025251
0.0259053
0.0447089
0.000149574
0.000184807
0.000149707
0.000167988
0.000165361
0.000160892
0.00889873
0.000163063
0.00758195
0.000169426
0.000247885
0.000146781
0.000146874
0.000151284
0.000144297
0.0289589
0.000215414
0.0208261
0.000149676
0.000176833
0.000178792
0.000148441
0.00020083
0.00015247
0.0214505
0.000147967
0.000223418
0.00396608
0.00015222
0.000206646
0.000148236
0.000240968
0.000171168
0.0214831
0.00015113
0.000161313
0.000144037
0.000156201
0.000157781
0.000145766
0.000236402
0.00014706
0.000149786
0.000355187
0.0150958
0.000149407
0.000217631
0.0111993
0.0524828
0.000170549
0.0216524
0.000148351
0.014354
0.000201988
0.000154587
0.0322827
0.0619893
0.00340484
0.00021779
0.013594
0.000145569
0.00014798
0.000146364
0.000180907
0.000155378
0.000148277
0.000186404
0.000167541
0.0429969
0.000361101
0.000185245
0.000149145
0.000175974
0.0418571
0.0204851
0.000154573
0.0369048
0.000145689
0.000164995
0.0433852
0.00032617
0.000293208
0.000858103
0.000148668
0.0300568
0.000147953
0.0160773
0.000148418
0.000329906
0.0480614
0.000148273
0.000205372
0.000252689
0.000148755
0.00014891
0.000147389
0.000146264
0.0237646
0.081067
0.0161066
0.000150095
0.000147606
0.04349
0.000165981
0.000148066
0.000147376
0.000147372
0.000148766
0.0752178
0.000166033
0.000236348
0.000168752
0.000164974
0.000148441
0.000165248
0.000147436
0.0485166
0.000148101
0.025893
0.000220707
0.000148373
0.00860006
0.000147702
0.000147714
0.0074478
0.000167546
0.000227771
0.000149025
0.000148309
0.000149587
0.000148048
0.000166228
0.000148121
0.0486178
0.000158168
0.000146682
0.0772753
0.038086
0.000187447
0.000203164
0.000146967
0.00033564
0.000166721
0.010726
0.000167074
0.000148083
0.000152055
0.0217232
0.000162922
0.000460747
0.000212747
0.000148817
0.0534496
0.0316086
0.0301455
0.000148335
0.000149623
0.0745496
0.000147659
0.000158365
0.000148639
0.000148369
0.000148197
0.000719199
0.00015735
0.000146021
0.0518949
0.0127181
0.000156637
0.00016007
0.000145825
0.000149709
0.0452624
0.000536236
0.000197887
0.000147388
0.0181612
0.0408529
0.000156351
0.000147394
0.000183453
0.0114551
0.000146341
0.000166832
0.000151041
0.0694942
0.000148617
0.000148304
0.000162647
0.071185
0.0746449
0.000191302
0.0547991
0.077874
0.0373429
0.0146219
0.000160309
0.000156301
0.000147061
0.0454876
0.000148353
0.000214309
0.000163622
0.000147919
0.000147436
0.000187365
0.000149848
0.0136647
0.000188842
0.000162871
0.000191667
0.0175728
0.0263036
0.000146333
0.00305716
0.000156942
0.000154542
0.000164623
0.000151959
0.0516816
0.016025
0.000181674
0.000182228
0.000149675
0.000147334
0.000229787
0.000187911
0.000165161
0.000161373
0.000147988
0.0484803
0.00014776
0.000147332
0.000155946
0.0487335
0.000226556
0.00018011
0.000257041
0.0154848
0.000148143
0.00019774
0.0170658
0.000147185
0.000157765
0.0355234
0.000149668
0.000147941
0.000155836
0.0529136
0.0837967
0.0176821
0.000180442
0.000147918
0.0505245
0.000148294
0.000183474
0.000148101
0.0457233
0.00184315
0.000148252
0.000181497
0.000146599
0.000156481
0.000163391
0.0128199
0.0560365
0.000148178
0.0220401
0.0122163
0.000167359
0.000260601
0.0289403
0.000145837
0.000235766
0.000157929
0.000191098
0.0809704
0.000145812
0.000147921