/*--------------------------------*- C++ -*----------------------------------*\
| =========                 |                                                 |
| \\      /  F ield         | OpenFOAM: The Open Source CFD Toolbox           |
|  \\    /   O peration     | Version:  v2012                                 |
|   \\  /    A nd           | Website:  www.openfoam.com                      |
|    \\/     M anipulation  |                                                 |
\*---------------------------------------------------------------------------*/
FoamFile
{
    version     2.0;
    format      ascii;
    class       volScalarField;
    location    "400";
    object      nut;
}
// * * * * * * * * * * * * * * * * * * * * * * * * * * * * * * * * * * * * * //

dimensions      [0 2 -1 0 0 0 0];


internalField   nonuniform List<scalar> 
54593
(
0.0056134
0.00059809
0.00583569
0.00966647
0.00212668
0.0114328
0.00182346
0.000536485
0.000664831
0.00489284
0.000689502
0.000359208
2.31226e-05
0.00481758
7.91886e-05
0.000437085
0.000506456
0.00011221
0.00444513
0.000289813
0.00583604
0.000714767
0.00460948
0.000275412
0.00582956
0.00111844
0.0058444
0.00147662
0.0111987
0.0046991
0.00113484
6.3474e-05
0.00583387
0.00812801
0.000132051
0.00583423
0.000268883
0.000621644
0.00249592
0.000840067
4.09903e-05
0.000236748
0.00583551
0.00481868
3.61895e-05
0.00100457
0.00194429
0.000105158
0.0058592
0.00043784
0.00583363
0.00586352
0.0011316
3.82162e-05
0.0006377
0.00587366
0.00110817
0.000506211
0.00067483
8.66974e-05
0.00583523
0.00100775
0.00494182
0.00737972
0.00583666
0.000443696
0.0120629
5.85173e-05
0.00538356
0.00534912
0.00586169
0.000135052
0.00583666
0.00736389
0.00271356
0.00132071
0.00146606
3.00801e-05
0.00920471
2.40171e-05
0.00583572
0.0120758
0.00570691
0.00971071
0.00104126
0.00812037
0.00232588
0.000959157
5.58458e-05
0.00381096
4.89611e-05
0.000559616
0.000471994
0.000229201
0.000563371
0.0141878
0.00702362
0.000584491
0.00265795
0.000485186
0.00196073
0.0115482
0.00131153
0.00583483
6.87678e-05
0.000220156
0.000297107
0.000850363
0.00136123
8.05931e-05
0.00180508
0.00583454
0.00365901
0.00110449
0.00520714
0.000133696
0.00577415
0.00639307
0.00898909
0.000532512
0.00712006
0.00583532
0.00349669
0.00184534
0.00584112
3.56131e-05
0.00103649
0.00584075
0.00222675
0.0117521
0.00591645
0.0020832
0.00134834
0.00583412
0.000591541
1.75952e-05
0.00589579
0.00735095
0.0058347
0.0058351
0.00145133
6.96389e-05
0.00134515
0.000200283
0.000475273
5.8394e-05
0.00542032
0.000261806
0.00781091
0.00282984
8.17028e-05
0.00186841
0.000989411
0.000214563
0.00357254
0.00607179
0.000668464
0.00597127
7.49405e-05
0.00254504
0.000342477
0.000687694
0.0014844
0.0124279
0.00150766
0.00328869
0.00585336
0.00583274
4.41796e-05
0.00583619
0.00103845
1.79424e-05
5.37881e-05
0.00583542
0.000706451
0.00583378
0.00233235
0.000752702
0.00111787
3.89702e-05
0.00993109
0.00584246
0.0108201
0.00192603
0.00583554
0.000145259
0.00346796
0.000759659
0.00467525
0.000306849
0.00101474
0.00786617
0.000169231
0.00583708
0.00119299
0.00561965
0.00481771
0.000642152
0.00110383
0.00049187
0.000554546
4.00282e-05
0.000821448
0.00117308
0.0014001
0.00141584
2.44364e-05
0.00100787
0.00256175
0.00583328
0.00583491
0.00439213
0.00584159
0.00136076
0.000595404
0.00075012
0.00138289
0.00760966
0.000131078
0.0044595
0.000751576
0.00070974
0.000356065
0.00183761
4.07077e-05
0.000629664
0.00583607
0.000124223
0.00583461
7.603e-05
0.0013885
0.00111282
0.000160289
0.00583544
0.00196968
0.00636193
0.00104602
0.00583435
3.67865e-05
0.00583429
0.0016877
0.00129795
0.00956528
0.000326093
0.00227289
0.00289872
0.0143811
0.000684433
0.00583306
0.00032162
0.000314241
0.0129997
0.0115509
0.00583141
0.00293971
0.00589509
0.0013267
0.00111349
0.000474618
0.000600447
0.000163592
0.0117394
0.00200934
0.000663412
0.000595937
0.00587596
0.0012759
0.00583294
0.000519985
0.00357427
0.00813198
0.000132201
0.000773861
0.00562259
0.00310081
0.00415647
0.000973888
0.0100216
0.00585484
0.0019782
0.0059443
0.00122272
0.00167851
0.00175896
0.0143727
4.06871e-05
0.000680685
0.00595514
0.000481047
4.27687e-05
0.0134474
0.0116335
0.00583134
0.00583251
0.00147278
0.00583586
0.00150171
0.0001438
0.00543909
0.00108111
0.000632852
0.00196793
0.00583467
0.00583611
0.00395618
0.00269362
0.000468581
0.00152101
0.00342534
0.00496279
0.0120837
0.000222217
0.00149187
0.00193081
4.46037e-05
0.00201385
3.53982e-05
0.000542843
0.000700404
0.00234871
0.000447036
0.00583486
0.000737571
0.00168827
0.00778628
0.00032852
4.71198e-05
0.00587342
0.0108399
0.00219865
0.00583381
0.000489459
0.00583502
0.00064566
0.00583622
3.7306e-05
0.00184242
0.0020353
0.000724568
0.00115462
0.000222127
0.00108361
0.0139424
0.00125577
0.00262454
0.000172657
0.000470768
0.00111192
0.000155825
0.00398028
8.36266e-05
0.0058325
0.000761997
0.000319061
0.00373878
0.00583543
0.00028895
0.00583326
0.00311483
0.00449193
0.000738758
0.000723512
0.00120627
0.00201629
5.67193e-05
0.00203242
0.00583328
0.000680714
0.00134317
0.00583693
0.00235332
0.00365341
0.00583436
0.00233566
0.000540781
1.02226e-05
0.00484001
0.000755289
0.000769288
0.00773607
0.0128737
0.00017904
4.01084e-05
0.000685201
0.000917048
6.45104e-05
0.000218299
0.00583488
0.0105473
3.81932e-05
4.61453e-05
0.000682755
0.00171585
0.00583511
0.00155576
0.00131572
0.000670935
0.000677827
5.04688e-05
0.00107127
0.000928002
0.000262251
0.00760938
0.000237847
0.000767063
4.13561e-05
0.00587619
3.71498e-05
0.0058341
0.000543697
0.000749709
0.00471548
0.0058348
0.000142647
0.00583476
0.0116912
0.00118764
0.00573776
0.00243103
0.00151378
8.62302e-05
0.00245716
0.00034143
0.000662342
0.00255871
0.000971356
0.0141431
0.000527907
8.47669e-05
0.000282939
0.0145825
0.000156533
4.12226e-05
0.000531662
0.000958293
0.00172747
0.00530647
0.00777548
9.43502e-05
8.19948e-05
0.00123228
0.00583559
0.00584119
0.0058333
0.00155922
0.00115039
0.00583871
0.00247017
0.00105786
1.24846e-05
0.000537951
0.00070167
4.92594e-05
0.000112346
0.00940413
2.86525e-05
0.00022601
0.00583373
0.00103378
0.000506901
0.00583856
0.00583446
4.69856e-05
0.00230348
0.00584667
0.000310334
0.000742031
0.00268349
0.000837706
0.000271619
0.00167678
0.000122189
0.000339495
0.00583989
0.00134297
0.00190808
0.00583606
0.0082461
0.0015368
0.00225181
0.000665725
0.00584263
4.00572e-05
0.00120897
0.00584239
0.000360831
0.000745299
2.62207e-05
0.00582972
3.63247e-05
2.26874e-05
0.00583552
0.00583289
0.00120816
0.000117146
0.00232076
9.1722e-05
0.000845874
0.00076493
0.00263167
0.000377122
0.00224306
0.000761751
4.08256e-05
0.0056363
0.000161036
0.0027363
9.11203e-05
0.000162063
0.00583459
0.00293547
0.000134652
0.00250524
0.0024328
0.000269034
0.0118674
2.4996e-05
0.00583139
0.00257139
0.00584051
0.000862834
0.000826044
0.00229046
0.00214261
0.00526335
0.00111822
0.0059704
0.0129314
0.000712015
0.00586084
0.000135999
0.000952777
7.55032e-05
0.00366794
0.00584146
0.00583485
0.00489667
0.00584221
0.000262385
0.000261095
0.00565894
0.00192945
0.000854403
0.0113456
0.0013362
0.00217538
0.00171133
0.00583438
0.00146837
0.00584621
0.00504451
0.00117114
0.000719035
7.07659e-06
0.000256178
0.00036793
4.18799e-05
0.000128867
0.000725158
0.00985217
0.00583329
0.00583544
0.000155709
0.000873072
0.000429579
0.00256682
0.0152414
0.00226439
0.00226074
0.000662618
0.00583128
0.000550749
4.31416e-05
0.000769652
0.000194641
0.0112464
2.7922e-05
2.00007e-05
0.0115435
3.45555e-05
0.00583464
0.00583215
0.000829992
0.0058494
0.00110146
0.00326673
0.00103791
0.00102931
0.000816894
0.00140228
0.00189364
0.0028226
0.000530523
0.000796779
0.00182383
0.0138654
0.0118087
0.00548591
0.00583558
4.09214e-05
0.00207257
0.000945278
0.00252023
0.0146646
0.00816822
2.7875e-05
0.00176824
0.000751973
0.000673369
0.000241983
0.000929765
0.00277372
0.00583568
0.00014602
0.000609905
0.00114374
0.00117982
0.000632436
0.00886146
0.00583555
0.00583205
0.0015024
0.000909227
0.000861811
0.00807673
2.04704e-05
0.000928516
0.0139072
0.0146096
0.000628762
0.000510618
0.00584
0.00232412
0.000296977
0.00471641
0.00177403
0.000106694
0.000673558
0.000992863
0.0123811
0.000537532
0.00474204
0.000466419
0.00583498
0.0021876
3.79181e-05
3.87373e-05
0.0150537
0.000228187
0.0145527
0.00583429
8.93081e-05
0.0139578
0.0100913
0.00583132
0.00583912
0.0116045
0.000244168
0.00242601
0.00583096
0.00278491
0.00495385
0.000164708
7.04367e-05
0.00494137
0.0050965
6.34665e-05
0.00101828
0.00226651
0.0058329
0.00374612
0.00114185
0.000769734
0.000987227
0.000394817
0.00107534
0.00849014
0.00110915
0.00583126
0.00583899
0.00164458
0.0003018
0.00583544
0.0109942
0.010867
0.000805094
0.00583471
0.00526594
0.000659713
0.00137815
0.00588333
0.00271458
0.0110414
0.00132733
0.000710524
3.76645e-05
0.0046948
3.914e-05
0.000469532
0.000158633
0.00583482
0.00101634
0.00626031
8.47574e-05
0.00308914
0.0122866
0.00583601
0.00680672
0.000470175
0.00205444
0.00161447
0.00588994
0.00283422
0.00583079
0.000118061
0.0117624
0.000228461
0.00392378
0.000120963
0.000728392
0.00122479
0.00151646
0.000290668
0.01464
0.00037965
0.000773963
0.00583074
0.000296548
0.00103229
0.00263079
0.00583524
0.0058353
9.35939e-05
0.000395952
0.0142164
0.000110481
3.63671e-05
0.0058412
0.000651293
0.00583141
0.00439992
0.0083133
4.57475e-05
0.000463048
0.00583616
0.0117987
8.79343e-05
0.0132507
0.00078865
0.00688894
0.000786278
0.00100073
0.00151635
0.00092258
0.000589532
0.00308284
0.00583474
0.00845058
0.00601458
0.00121429
0.0140659
0.0122796
0.00748529
0.000631305
0.0132841
0.000247157
4.79348e-05
3.72679e-05
0.00194799
0.00583175
0.00583472
0.00583135
0.00166
0.000150979
0.000611873
0.0058946
0.00583787
0.00583781
0.000380374
0.00583517
0.0026248
0.00129286
0.000351222
0.00398478
0.000761833
0.00664302
0.00583345
0.000840369
0.00825695
0.00657241
0.00250594
0.00583557
0.000356067
0.000747427
0.00204662
0.000430973
0.00749589
0.00214168
0.00703207
0.00948449
0.000482796
0.00387455
0.00583265
4.66103e-05
0.000202285
0.00040806
0.000977157
0.00101586
8.98519e-05
0.000484275
0.0125362
0.00120309
0.00109575
0.000223661
0.00583472
0.00583567
0.00583492
0.000154489
2.01096e-05
0.00782142
0.000929415
0.000339893
0.00114125
0.000628734
0.00129102
0.000743948
0.000498834
0.00585404
0.00134244
0.00192198
0.00423027
0.000979562
0.00584137
0.00312
0.00584864
0.000643024
0.00215988
0.00583118
0.00583181
0.00906314
0.0058487
0.00589928
0.0111079
0.00521423
0.00218829
0.00130696
6.71306e-05
0.00583295
0.000298853
0.00885719
0.0146582
0.00583491
0.0105504
0.00585512
3.63801e-05
0.00588211
4.61615e-05
0.000639672
0.000140793
0.00382392
8.92037e-05
0.000717049
0.00584201
0.00583224
0.000339006
0.00105585
0.0011015
0.00583081
0.0115828
0.00247397
0.000965415
3.00807e-05
0.00583533
0.00447728
3.19821e-05
0.00179549
0.00582937
0.00583811
0.00501751
0.00196665
0.00104122
0.00582729
0.00105294
0.0127705
0.00104682
0.00583482
0.000333083
0.00583336
0.00584125
0.000816777
0.000995274
0.0132073
0.00584035
0.000967073
0.00583379
0.00588878
0.0110906
0.000887824
0.000381732
0.000114445
4.11468e-05
0.00582991
0.0118635
6.64237e-05
0.00134706
0.000818126
0.00241975
0.00219968
0.00302515
0.000496147
0.00161495
0.000664379
0.00583312
0.00104717
0.0139233
7.27589e-05
6.00566e-05
0.00107579
0.00106175
3.41841e-05
0.000258772
0.00582978
0.00194051
0.0146343
0.00583863
0.000105024
0.00583787
0.00170338
0.00588732
0.00015036
0.00583557
0.00166431
0.00583368
0.00202929
5.88235e-05
0.00100847
6.82241e-05
0.00126374
0.000593699
5.93545e-05
0.00588415
0.00113895
0.000515025
0.000547766
0.00039087
0.00786343
0.0109232
0.005839
0.00583661
0.00584942
0.00358433
0.000793237
0.00583347
0.00588499
0.00564249
4.03812e-05
9.92217e-05
0.00145556
0.000683639
0.000422913
0.00582986
0.00583124
0.000941546
0.00589696
0.000192175
8.36317e-05
0.00112669
0.00100818
0.0019606
0.000361515
3.85613e-05
0.000253625
5.94422e-05
0.00700223
0.00118573
0.000257799
0.000554982
0.00105743
4.31061e-05
6.45641e-05
0.000284547
0.00153987
0.0106224
0.00583547
0.000755055
0.00160483
0.00584801
0.00132022
0.00107133
0.00101446
0.0126919
0.00380188
0.00022077
4.02552e-05
0.00314281
0.00340839
0.00582939
0.0150557
8.54141e-05
0.00104313
0.000621444
0.0024074
0.00497582
0.0146721
0.00170403
0.000194649
3.24124e-05
0.000318647
0.000960733
0.000387864
0.00136853
0.00137631
0.00585465
0.00125965
0.00583372
0.00583304
0.00584535
0.0109298
0.00583407
0.000625452
0.00194515
0.00303136
5.41935e-05
0.00583275
0.0010972
0.0124167
0.00583462
0.00201619
0.00583423
0.00154858
0.0046449
4.05521e-05
0.00101556
0.00583349
4.97484e-05
0.000628303
0.00203894
0.00129157
0.00110307
0.0141715
0.00932756
0.00555258
0.00103411
0.00548331
0.00360934
0.000330233
0.000898131
0.00450483
0.0017376
0.000246265
0.00583575
0.0131962
0.000574097
0.000336529
0.00448714
0.0042713
0.000970411
0.00583394
0.00132974
0.000362323
0.00583617
0.00583865
0.0058309
0.000473681
0.000408857
0.00547149
0.00102588
0.0133044
0.00724582
0.000664207
0.000238429
0.00150055
0.00583377
0.00782918
0.00229927
0.0123812
0.00790595
0.000691683
5.37486e-05
0.0011029
0.000739607
0.000107026
0.00219514
0.00583411
0.00112944
0.00205461
0.000525052
0.000420682
0.0058348
0.000936948
0.00323113
0.011954
0.00583961
0.000332265
0.000796751
0.000376049
0.00433218
0.000506695
0.000358583
0.000972745
0.00583852
0.000775137
0.000590079
0.0139404
0.000158938
0.00160976
0.00583453
0.00357991
0.00233138
0.00651726
0.00988962
0.00149278
0.00114022
0.00164643
0.0010007
0.00583831
0.00108847
0.00583349
0.00392709
0.00121253
0.00583346
0.0074965
0.00583341
0.00343391
0.00583594
0.0013623
0.00583618
0.000416201
0.00642658
0.000817202
0.00253935
0.000521107
0.00381457
0.00166248
0.00583468
0.000873206
0.00405808
0.000479961
0.000314711
0.00269983
0.00309638
0.000266861
0.0110535
0.000224029
0.00583815
0.00583291
0.00151979
0.00583138
0.00128894
3.68886e-05
0.00583342
0.000289448
0.00111426
4.35184e-05
0.00196884
4.07215e-05
0.012927
0.00583374
0.00185946
0.00248803
0.0128013
0.00100909
0.00584634
0.000384348
0.0060446
0.0115053
0.00583833
0.000155585
0.00426555
0.00584491
0.00796254
0.000753961
0.000962553
0.00583466
0.000764769
0.000255243
0.00109231
0.00091213
0.000932928
0.00120898
0.000541794
0.00511984
0.00583592
0.00871701
0.000674638
0.00172611
0.00136692
0.00280411
0.00317235
0.00198385
0.00471644
0.00583549
0.000123785
0.00821463
0.000177808
0.00583627
9.50918e-05
0.00993201
0.0058271
0.00189506
0.00189747
0.000744664
0.00107127
0.0018723
0.0058337
0.012667
0.00584408
0.00582735
0.00484954
0.000333784
0.005831
0.0107428
0.00583372
0.00285503
0.000673994
0.0058378
0.00535076
0.00228763
0.00217668
0.0058915
0.00583091
3.85794e-05
0.0145639
0.0009664
0.00750453
0.00053182
0.00671919
0.00583819
0.00123938
2.15719e-05
0.000100526
8.48432e-05
0.000667458
0.00041663
0.000707221
0.0102669
0.00583329
0.0122609
4.28229e-05
0.00584506
0.000778388
0.00197405
0.00583093
0.00147504
0.000735088
0.0141874
0.000326965
0.00129481
0.00583279
6.17082e-05
0.00143242
0.00583319
0.011075
0.00585557
0.00584144
4.46754e-05
0.00583154
0.000943984
0.0058401
0.000750988
0.00103921
0.000369916
0.000287097
0.000223898
0.011023
0.0084096
0.000101982
0.000654387
0.000207288
0.00102742
0.00132477
0.00078541
0.00583327
0.000490849
0.00722434
0.00582718
0.00109259
0.000126696
8.79116e-05
0.000317896
0.00100811
0.00583815
0.000255726
0.000107996
0.00265286
0.000886895
0.00142328
0.00585257
0.00252509
0.000194296
0.00291947
0.000966496
4.23912e-05
0.00101655
0.00504171
0.0121884
0.000127197
0.00795968
0.000919977
0.00153755
7.99416e-05
0.0053336
0.00200032
0.00214014
0.00144786
0.0070823
0.013483
0.000514983
0.00171589
0.00107303
3.90585e-05
0.00924257
0.00374539
0.0143234
0.00583395
0.00460566
0.000114478
0.000368874
0.00575348
7.23555e-05
6.47296e-05
0.00102668
0.00254237
0.000700161
0.00583812
0.00376423
0.000223796
0.00217553
0.0119307
0.000332352
0.000228151
0.00836273
0.0116892
0.000874729
0.000759622
0.000393427
0.00583402
0.00583595
0.00789678
0.000113985
0.0117822
0.00585456
0.00127322
0.00585297
0.00413711
3.78775e-05
0.000697343
0.00575999
0.00180578
0.00584423
0.0018581
0.000337727
0.00792826
0.0128528
0.0022611
0.000323044
0.0013564
0.00587438
0.00316255
0.00583515
9.28505e-05
0.00153519
0.00584058
0.00589365
0.000477691
0.00189155
0.0017003
0.00108162
0.00430126
0.00232218
0.00583342
0.00219538
0.000351037
0.000271001
0.000292625
3.06018e-05
0.00195993
0.00585417
0.000609379
0.000654028
0.00583541
0.00113376
0.000635815
4.67423e-05
0.00193499
0.00583759
0.00761907
0.0128977
0.00230519
0.005836
0.00583141
0.000124153
0.00172256
0.0107524
0.005831
0.00593574
0.00076955
0.00496127
0.00583365
0.00583377
0.000953781
0.0030824
0.00490148
0.000539118
0.000702277
0.000532527
0.0058348
0.00215739
0.00821601
0.00195066
0.00943786
0.000911274
0.0147695
0.00576992
0.00583138
0.000514525
7.11715e-05
4.79061e-05
0.00147071
0.011147
0.000541878
0.000522968
0.00211531
0.000224579
0.00583342
0.000462035
0.000112613
0.0136736
0.000151138
0.000199961
0.000193233
0.000489313
0.00583311
0.000144162
3.50032e-05
0.00583406
4.15761e-05
0.00026903
0.00583345
0.000947879
1.22601e-05
0.00583258
0.00480222
0.00583114
0.00583113
0.0108121
5.17737e-05
6.14484e-05
0.00114343
0.00584459
0.00067383
0.00587723
0.00209319
0.00583236
0.000523768
0.000474438
0.00112092
5.55599e-05
0.00583639
7.55356e-05
0.000114652
0.00288037
0.000262168
0.00583414
3.25623e-05
0.00204593
0.000920178
0.00039419
0.000637799
0.000150284
0.00583343
0.00583519
0.000433956
0.000399945
0.000545977
0.0002156
0.00584009
0.00676344
0.0106268
2.80469e-05
0.000235984
0.00146901
0.001054
0.0025691
0.00228819
0.00583997
0.00365623
0.000260787
0.0058353
0.00125151
0.00364315
0.00190879
0.00582919
0.00489679
0.00586546
0.00278392
0.000440117
0.00585344
7.52162e-05
0.00127948
0.000906638
0.00583848
0.000650541
0.00044882
0.000103334
0.000387965
0.00583649
4.58104e-05
0.000437706
0.00583584
0.000333837
0.00141686
0.000510233
0.00139752
0.00110005
0.000174248
0.0107673
0.000465772
0.00179928
0.000445827
0.00101262
0.00041031
0.0144934
0.000693452
0.00583541
0.00583531
0.00583539
0.00103239
0.00872064
0.00583541
0.000870036
0.000323583
0.0136195
0.00274528
0.000966018
0.00339103
0.000700867
0.00631617
0.000165286
0.000116671
0.000998039
0.000730683
0.00583404
0.000223777
0.00583625
0.00258443
0.000570657
0.00583919
0.00921661
0.0140938
0.000394694
0.00257468
3.57343e-05
0.00583617
0.0111567
0.000824493
0.0046893
0.000364029
0.00453962
0.00167636
0.000696537
0.0146904
7.60509e-05
3.08685e-05
0.00211203
0.00175482
0.00583342
0.00584389
0.000285965
0.00100054
0.00282375
0.00184837
0.00164273
0.000612481
0.00584352
0.0114497
0.00583139
0.00325384
0.000560283
0.00583137
0.000827432
0.000280796
0.00403992
0.00583377
0.00583077
0.00583931
0.000377091
0.000221757
0.00243048
0.00456997
0.00511906
0.000449098
0.000642937
0.00138501
0.00357184
0.00110911
0.00118998
7.40887e-05
5.71878e-05
0.0030139
0.00583125
0.000856612
0.00401449
0.00119953
0.004329
7.76584e-05
0.000551245
0.000544209
0.000893773
0.00921386
0.00274981
2.84783e-05
0.00756814
0.00583873
0.00583626
0.00583101
0.00538396
0.00784228
0.000600638
0.00159477
0.000276864
0.000228541
0.000320453
0.000114512
9.81091e-05
0.000212916
0.00213798
0.00582915
0.00212208
0.00139001
0.0058333
0.00153301
0.00175315
5.79326e-05
0.000568213
0.00244706
0.00122041
0.0017165
0.009482
0.00583628
0.00584489
0.0144839
0.00080428
0.00139692
0.0055029
0.000871229
0.00731525
0.00680531
0.00584274
0.0116236
0.0102926
0.000848489
0.00569894
0.00100144
0.000377757
3.80735e-05
0.00109476
0.00212466
0.000415389
0.000333244
0.00583844
0.00417441
0.0118631
0.000515158
0.00175977
0.00853402
0.0014922
5.25443e-05
0.000146559
0.00583089
0.00583272
0.00107229
5.7883e-05
0.00159747
0.00398628
0.0127994
0.00583097
0.000828934
0.00151002
0.00110338
0.00264726
0.0058365
0.0017874
6.21387e-05
0.00583622
0.0130396
0.00583125
0.000528641
0.00583811
5.98719e-05
3.20507e-05
0.0109583
0.00583304
0.000399196
0.000953918
0.000174936
0.00583412
0.00142034
0.00589081
0.00585463
0.00125622
0.00124687
0.0021833
0.000639183
0.00128408
0.00239159
0.00276825
0.00503454
0.00583676
0.00228021
0.000455589
0.00149449
0.00103747
0.000763565
0.00583287
0.00475568
0.00584667
6.74097e-05
0.00115794
0.010286
0.000572211
0.0021659
0.00153222
0.00582999
0.00147689
0.000409023
0.00197052
0.00583094
0.000598135
0.00769163
0.00017779
0.00980125
0.00209466
0.00134417
0.00822149
0.00583412
0.00113043
0.00191316
0.000203958
0.000401068
0.00203936
0.000650368
0.00210864
0.00114288
0.000995173
0.00583257
0.00583251
0.005833
0.0016522
7.04199e-05
0.000516701
0.00162448
0.000112146
0.00583182
0.0058335
0.00179178
0.000465969
0.00583051
0.000994363
0.000711316
0.000162578
0.00583045
0.00795623
0.00116063
0.00583137
0.00224471
0.000706872
0.000270302
0.00112826
0.000108797
0.000366338
0.00104563
0.00209826
0.0141454
0.000107539
7.26938e-05
0.010363
0.000681402
0.00684179
0.000464947
0.00192144
0.000946226
0.000149476
0.00146088
0.000960498
0.00583417
0.0058414
0.0108533
0.014648
0.00211261
0.002074
4.54113e-05
0.00583613
0.00101751
8.79367e-05
0.00170815
0.00194326
0.00102597
0.00207362
0.000230915
0.000488134
0.000959379
0.00163443
0.00385957
0.0058409
7.50569e-05
0.000687909
0.00176172
0.000630704
0.00129968
0.000559054
0.000693656
0.00570637
0.00046534
0.00443593
0.00364881
0.00298492
0.000543719
0.000553882
0.000232613
0.00157157
0.00852074
3.77136e-05
0.00089349
0.00580567
0.00151708
0.00143145
0.00868424
0.0124928
0.0100183
0.00279887
4.03338e-05
0.000739942
0.00219209
0.00181799
0.0116584
0.000348714
0.00108444
0.00583984
6.43657e-06
0.00105094
0.000999318
3.60966e-05
0.00200473
0.00589473
0.00935879
0.000204998
0.00096735
0.011125
0.00103861
0.0058496
0.00181144
0.000984737
0.000802733
0.00135549
0.00949805
0.000224996
0.00585439
0.00283796
4.11836e-05
0.000441416
0.00122615
0.000389214
0.000756861
0.000509505
0.0025133
0.000230008
0.00588505
0.000472598
0.00583626
0.00849215
0.000436538
0.00127656
0.00157371
0.000967508
3.47889e-05
0.000244453
0.00583532
0.00929386
0.00103521
0.00583344
0.00245136
4.89091e-05
0.00583511
0.00083011
0.00583541
0.00140282
0.00962869
0.00520681
0.000476297
0.00583274
0.00147058
0.000275221
0.00826253
0.00583748
0.000251292
0.000730813
0.00916964
0.00583324
0.00112654
0.00583618
0.000304652
0.00583354
0.000822886
0.0031768
0.00584256
0.00583784
0.00140034
0.000490048
0.00920559
0.000384719
0.000797006
0.00588106
0.0108421
0.0058529
0.00583377
0.00583374
0.00583414
0.000646764
0.00240784
0.000661941
0.00583521
0.00583567
0.00197202
0.00651712
0.00583373
0.000846673
3.89712e-05
0.000330408
0.00876621
0.00920404
0.000475887
0.00583064
0.00141002
0.000115587
0.00583319
3.60603e-05
0.00583627
0.000643927
0.00583768
0.0141046
0.000333927
0.00146542
0.000734625
0.00583442
0.00204506
0.0119802
0.0007376
0.0058638
0.00843006
0.00156803
5.77106e-05
0.00587034
0.0100734
0.00968775
0.00209648
0.00332881
0.000329056
0.000509909
0.00289682
0.000564777
0.0089025
0.00139751
0.00143478
0.0113659
0.000793096
0.00209297
0.00136512
0.00022624
0.000658276
7.00841e-05
0.00153989
0.00522237
0.000731625
0.00155725
0.012845
0.00635534
0.000552654
0.000697836
0.0134948
0.0139751
0.0005249
0.00368287
0.00144527
3.58051e-05
0.00582961
0.00873451
0.00020264
0.00100517
9.1593e-05
0.00655139
0.000713972
0.00583599
0.000276167
0.00102018
0.00290301
0.000792052
0.000714064
0.00586965
0.000878749
0.00651561
0.000388874
0.00104797
0.00583689
0.000471891
0.00588702
0.000222298
0.00265065
0.00221812
0.00943931
0.0058928
0.00586674
0.000798919
0.00430366
0.000336687
0.00318309
0.00112835
0.00257882
0.0130205
0.00522921
0.00101716
0.00112568
0.00155888
0.000977923
0.00111149
0.00583461
0.00142547
0.00068937
0.0059062
0.000852239
0.00583406
0.0058316
7.65249e-05
0.0014009
0.000476353
0.000303287
0.000716657
0.000261186
0.00584263
0.00491455
0.00588804
8.09397e-05
0.00182964
0.0124531
7.24039e-05
0.00585186
0.0076861
0.000991213
0.000176058
0.00280129
0.000100157
0.000271993
0.00583391
0.00519929
0.00583326
0.0058294
0.00321349
0.00583
0.00657256
0.000710608
0.010369
0.00264592
0.00573993
0.0125219
0.000562876
0.000644767
0.00583356
0.0134147
0.010518
9.08391e-05
0.00147908
0.00137536
0.000671844
0.00305736
0.00135953
0.00262592
0.00116177
0.000221438
0.0115631
0.00180849
0.00584149
0.00635797
0.000722297
0.00197458
0.00211335
0.000187846
3.65745e-05
0.00583392
0.000282744
0.00844025
0.00586754
0.00583011
0.00015395
0.00104491
0.00407966
0.000520825
0.000147975
0.00949214
0.000181332
0.000653974
0.000196048
0.00248347
0.000253715
0.000182505
0.00582918
0.000498745
0.00591177
0.000322843
0.00313269
0.00109711
0.00583166
0.00482177
0.000500007
0.00240695
0.00191804
2.74512e-05
0.00498067
3.64055e-05
0.00092981
0.000435171
0.0115106
0.00583248
0.000382443
0.00579454
0.000263236
0.000912938
4.8187e-05
0.00202902
0.00584148
0.001602
0.000316785
0.00583002
0.000515824
0.00583517
0.0135453
0.00235093
0.00102333
0.00895481
0.0147703
0.000614485
9.47967e-05
0.00583558
9.13815e-05
0.000394703
0.00536413
0.00583376
0.00112756
0.00126604
0.000417546
0.000212513
0.00583291
0.00143044
0.00757532
0.00321161
0.014118
0.00579986
0.00583445
0.00594286
0.00164002
0.00119911
0.000897174
0.00628335
0.000519597
0.00178287
0.0116095
0.00583571
4.02351e-05
0.00393967
0.00583616
0.00144644
0.0109871
0.000406033
0.00583801
0.00081801
0.000364778
0.000121443
0.00123136
0.00583603
0.000614821
0.0018647
0.00585094
0.000399347
0.00583232
0.000114393
0.00583424
0.00024786
0.000212481
0.0134168
0.00126361
0.00127575
0.000416761
0.00583684
0.00167366
4.35887e-05
0.00583469
0.00102363
0.00586333
0.00157721
0.00822223
3.62911e-05
0.00583344
0.00149373
0.0101159
0.00143544
0.00582987
0.000194772
0.00548243
8.39093e-05
0.00169471
0.00554348
0.00583828
0.000751927
0.00583957
0.00271846
0.00599222
0.00583312
0.00583428
0.000411981
0.000138137
0.00583437
0.00588459
0.00367726
0.00583527
0.00583226
0.0058366
4.67957e-05
0.00388702
0.0010662
0.000627082
0.00583626
7.54046e-05
0.00385571
0.00104204
0.000321977
7.98159e-05
0.00304621
0.00583549
0.00218708
0.000145405
0.00589352
0.0053736
0.00118605
0.00582921
0.000344218
0.00584462
0.000166314
3.76135e-05
0.0018156
5.40346e-05
4.21624e-05
0.00280003
0.00320092
0.000450547
0.00583686
0.00583633
0.000201652
0.000788606
0.00258853
0.00055021
0.00183689
0.00681983
0.00396047
0.00583933
0.0015773
0.000991288
0.00027415
0.00583391
0.00104285
2.43252e-05
3.68605e-05
0.00369048
0.0109256
0.00200231
4.177e-05
0.0058357
0.000213869
0.00187964
0.00212765
0.000286498
0.000404424
0.000261976
0.000229879
0.000678215
0.0058344
0.00583098
0.000990777
0.00583555
0.00697001
0.000514273
0.00483432
0.0058356
0.00195632
0.000703819
0.00475347
0.000526303
0.0032205
0.00248836
0.00583678
0.00067474
0.00109161
0.00144331
0.0010431
0.00328629
0.000766678
6.2995e-05
0.00382863
0.00174635
0.00145267
0.00583395
0.000427121
0.000955623
0.0058293
0.000738443
0.00583543
0.00583604
4.93498e-05
0.0034574
0.00583503
0.000973279
0.00114719
0.0114004
0.000575836
0.00229018
0.00302802
0.00112637
0.000450707
0.00135107
0.00938964
0.00419131
0.00039936
3.25142e-05
0.00137467
0.00585041
0.00586517
0.0058372
0.000690348
0.000700617
0.00583322
0.000120912
0.000373634
0.0100612
0.000210032
0.000155242
0.00583396
0.00163443
0.00822291
0.00195413
0.00117913
0.00880223
0.00582939
0.000112344
0.00946528
2.65603e-05
0.000306072
0.000559824
0.00583343
0.00523479
0.00583689
0.00110398
0.00288059
2.85943e-05
0.0117797
0.00583255
0.000878185
0.000663026
0.00583371
0.00204521
0.00498194
0.00582945
0.00564548
0.0129627
0.00174115
0.00592274
0.00584238
0.00781389
0.000744859
0.00321912
0.00546008
0.00583074
0.00583325
0.014784
0.000106558
0.000463932
0.00181636
0.000113145
0.00267135
0.0019492
0.00524567
0.0127698
0.00583718
0.003849
0.000657521
0.00583319
0.000689909
0.00583248
0.00412827
0.000238608
8.73375e-05
0.000324605
0.00211654
0.00326331
0.00290993
0.00324303
0.00041207
0.00583216
0.011906
0.00035089
0.00583532
0.0153156
0.00295376
3.97586e-05
3.25812e-05
0.00586103
4.02479e-05
0.000422203
0.00111521
9.41697e-05
0.00320624
0.000812705
0.00228606
0.000187218
3.94327e-05
0.000428995
0.00583337
0.0131335
0.00911179
0.0057938
0.00345155
0.00231961
0.00999499
0.00583491
0.000801788
0.00583342
0.00583344
0.00583402
0.000479958
0.000316539
0.00583147
0.0133174
0.00139871
0.000447869
0.000228673
0.00583257
0.00583565
0.010911
3.71661e-05
0.000734986
0.00589461
0.00152001
0.00929327
0.000475427
0.00583082
5.7886e-05
0.00298709
0.00583555
0.000214017
0.00103656
0.0134601
0.00583343
0.00374588
0.000144683
0.0132064
0.0127254
0.000594683
0.0135839
0.0140402
0.00330079
0.00156897
0.000326805
0.000603271
0.00583529
0.00522099
0.00583319
0.000624248
0.000652337
0.00584271
0.00583309
0.0005066
0.00583619
0.000968288
0.000212141
0.00111062
0.000410724
0.0015506
0.00369426
0.00583055
0.000463398
0.00035515
0.00131051
0.000618092
0.000838003
0.00792589
0.00104101
0.000688388
0.00112117
0.00194123
0.0053375
0.000410126
0.000628954
0.00114291
0.000241854
0.0034421
0.0128221
0.00502595
0.00575843
0.000465082
0.0127487
0.000915987
0.000992399
0.000622526
0.00150115
0.00583217
0.00032596
0.00178378
0.00584065
0.000957336
0.00714831
0.00228309
0.0058432
0.00154243
0.014052
0.0101135
0.00195031
0.00167794
0.00372118
0.012764
0.00342028
0.00139402
0.00583757
0.0110003
0.000624544
0.00583468
0.000703483
0.00582997
0.00167559
0.000153464
0.00122475
0.0127374
0.00583405
0.00245003
0.00121708
0.000136462
0.000541088
0.006326
0.00583659
3.5787e-05
0.000342152
0.000291273
0.00958705
0.00583636
0.00584119
0.00584157
0.002177
0.00162731
0.00583345
0.000764705
0.00782641
0.000506513
0.00583551
0.00270435
0.00305376
0.00123811
0.000942453
0.00583441
0.00061053
0.0124642
0.00583557
0.00975209
0.000879519
0.000286561
0.00119602
0.0101597
0.000158627
0.00583234
0.000497452
0.00544714
0.00583244
0.0148869
0.00583315
0.000177145
0.0011732
0.000693783
0.000694357
0.000639044
0.000409667
0.0058344
0.00435658
0.0104963
0.00583691
0.000722383
0.00288042
0.00482822
0.00272177
0.00583301
0.00583133
0.00123684
0.00510396
0.00690684
0.00254771
0.00852938
0.000279749
0.00583471