/*--------------------------------*- C++ -*----------------------------------*\
| =========                 |                                                 |
| \\      /  F ield         | OpenFOAM: The Open Source CFD Toolbox           |
|  \\    /   O peration     | Version:  v2012                                 |
|   \\  /    A nd           | Website:  www.openfoam.com                      |
|    \\/     M anipulation  |                                                 |
\*---------------------------------------------------------------------------*/
FoamFile
{
    version     2.0;
    format      ascii;
    class       volScalarField;
    location    "400";
    object      omega;
}
// * * * * * * * * * * * * * * * * * * * * * * * * * * * * * * * * * * * * * //

dimensions      [0 0 -1 0 0 0 0];


internalField   nonuniform List<scalar> 
54593
(
0.0253221
0.063269
0.0251002
3.54421
9.59006
4.50937
9.96175
0.0968385
0.0576161
0.0251504
0.0293239
24.6848
3.77238
0.0250827
0.107957
0.0309701
0.0967263
0.0643327
0.0251509
0.0350222
0.0250984
0.0311213
0.0251406
30.0337
0.0248291
0.188467
0.0253242
0.0455935
6.316
0.025146
0.188132
0.312047
0.0252049
4.28144
0.052981
0.0255732
0.0620562
0.0632846
0.0258924
0.0311388
1.57255
2.8827
0.025038
0.0253236
0.399737
0.0264476
0.0998199
0.083501
0.0247481
0.0592113
0.0252067
0.0247543
0.0280175
0.410969
0.134448
0.0252776
35.628
4.57119
0.122043
0.0773719
0.0250421
0.0264075
0.0250823
3.99489
0.0253234
0.0305668
5.4225
0.281412
5.30306
5.28291
0.0247495
0.0524579
0.0253191
6.07829
0.0265649
0.031507
0.0376715
1.51228
4.36208
2.05962
0.0251137
3.43496
0.0253245
5.31429
0.0270833
6.0752
9.34633
0.0906691
0.131893
0.0253458
30.206
0.0348002
0.159863
0.2703
0.0412412
5.3544
4.53969
0.258899
0.0254064
0.0594186
0.0256334
4.09877
0.0260091
0.0253348
0.294407
0.0527696
0.0592423
0.0881892
0.0312701
0.0934639
28.8962
0.025324
0.0253484
0.194469
0.025255
14.2796
5.10817
4.29636
4.15632
0.154376
4.05703
0.025636
6.08096
0.0397632
0.0251273
0.728004
0.0261448
0.0251283
8.31665
5.89545
0.0253161
0.0255034
0.0322569
0.0255659
0.0349449
7.50297
0.0248815
4.26211
0.0253342
0.0254008
10.2109
0.0900527
0.0318666
3.32431
0.041216
0.27563
5.5914
0.0610976
5.43126
0.0256052
0.0853859
0.0255805
0.148962
0.265182
0.025257
12.2606
0.0292511
12.2817
0.108625
0.0254038
0.817714
0.0281145
9.61105
5.39872
0.0448959
0.0254343
0.0250556
0.0250472
3.73624
0.0256811
0.209589
7.54485
0.135387
0.025641
0.0571806
0.0251912
24.9336
0.0274686
0.0264351
1.38816
4.28917
0.0246431
6.34252
0.0256664
0.0256408
38.5977
0.0254892
0.0278416
0.0250899
1.6593
0.0264424
4.05576
28.1497
0.0253144
12.5919
5.48331
0.0253042
0.0288325
0.194622
8.51742
0.0360232
0.714293
0.0828219
0.0259632
0.0259074
0.0258948
5.80748
0.0269538
0.0258947
0.0250966
0.0254047
0.0250871
0.0246415
0.0317942
0.0409454
0.205952
31.3753
4.0109
64.9879
0.0253044
0.0309194
32.9372
3.57609
0.0264576
0.299418
0.0411212
0.025667
0.0644471
0.0251192
0.104192
0.0260946
0.19116
38.7905
0.0256351
0.0255509
4.48348
0.207759
0.0255634
0.298926
0.0255591
0.0264535
0.0321133
5.39242
0.179147
0.0262802
0.0270371
3.91905
0.35546
0.0250214
0.915456
0.177214
3.86774
4.97021
0.0252522
0.0264791
0.0252181
12.7771
0.0265701
0.253494
0.0311093
0.0719257
4.08579
0.0255108
7.57342
0.0407804
0.0249889
12.894
0.025024
0.0310298
0.0254323
5.87083
3.40481
0.0331448
0.0253206
0.0270153
0.0252505
0.0264946
5.28408
0.0250146
0.0978207
0.0255249
0.0345178
0.0286939
10.2477
3.91142
1.08465
0.0312348
0.0257745
0.0413447
37.592
3.8782
3.44845
0.0252575
0.0254113
0.0700829
0.0256618
31.0037
3.33563
0.025255
0.199241
0.387891
0.0260585
0.025408
0.0256757
0.0252673
0.0253347
0.0577917
10.8137
0.0255775
0.0253
4.95591
0.0572121
10.9552
0.0255356
1.33528
9.9975
0.337486
1.04465
0.240246
0.0255569
0.0790873
0.0250226
0.331031
0.0449091
4.50801
0.0606162
0.242091
0.0249822
4.16674
0.0406192
0.0254386
0.0340711
0.0253315
0.0281872
0.025683
5.91208
0.0288526
8.39365
0.338563
0.0304788
0.0570922
0.028227
3.73956
0.0266171
0.0253366
0.156379
0.0591214
0.192493
0.19529
12.951
42.1796
0.0254144
0.317027
0.161935
0.0253413
0.0250477
0.0355275
0.0254149
0.0253476
0.0253105
0.197663
0.0310451
0.0267487
8.91255
0.143151
0.025499
0.0254149
5.29352
0.0381404
0.0253111
0.0274435
0.025269
0.0250224
0.0255705
0.0287164
10.5476
0.0250739
5.86312
0.0330045
6.07983
5.63853
0.0446022
0.26203
0.355229
0.0814651
6.27474
35.7056
0.0253311
5.36301
0.254899
0.205707
0.121949
0.0286946
0.0250512
9.74022
10.928
5.80547
0.0577857
0.15634
0.0651028
0.0273528
0.0865283
4.29206
0.241303
0.314399
0.584881
0.0249502
0.303993
0.0252316
0.268734
0.319331
0.0250838
0.0254058
0.105141
0.0253112
6.01127
0.0429795
0.0253411
0.0254086
0.0444027
0.0718329
8.33525
0.0608388
0.100072
8.52185
13.4358
4.19721
0.0501741
38.6163
0.0448147
5.18892
0.0520702
1.25136
0.0573413
0.0649321
0.0331306
0.0253216
4.47506
0.133354
0.147116
11.8333
0.025641
0.0251202
0.0254276
11.5404
0.0685201
0.0252818
0.0254099
0.144399
15.6557
1.00855
0.353982
0.148546
0.0703524
3.57406
5.4512
0.0494083
0.0254423
0.026536
0.166085
0.0252848
0.0250135
3.49294
0.0254441
0.0250121
0.0942414
0.197273
0.0254541
0.0445812
2.60491
10.6045
22.7035
0.0387005
0.0248795
11.0095
0.0255692
0.025675
3.98348
11.4183
0.0254565
0.0582184
0.0253401
0.240369
0.0617636
0.0253427
3.16758
0.326102
1.25198
0.0248256
31.9169
4.81411
0.025641
0.0252714
0.0301693
52.6963
0.025553
0.066929
0.0271322
0.310597
0.0253394
0.707972
9.54107
0.311627
0.275411
0.0251327
0.0569091
0.0254054
0.0708314
0.0520584
0.0251534
0.0253519
0.254473
8.72227
0.0254091
0.0352556
3.52759
2.98869
0.0252319
22.4365
0.0253075
0.093692
0.0294193
0.0255438
0.0254973
0.0253011
0.0648588
9.66497
4.38556
7.47952
0.0247526
4.02794
0.0273382
0.0891769
0.0252562
0.0251195
0.0251314
5.55707
0.0253416
0.0356682
0.0595046
0.0251674
0.0263471
3.28874
6.29677
0.0259028
8.30824
11.3207
0.0251495
11.5782
0.0250076
12.9841
0.035102
0.190111
34.8958
0.177858
0.132739
1.41697
46.6508
0.338401
3.37292
0.025434
0.0256349
0.0993545
0.0444267
9.38104
0.025528
5.14533
0.0254705
0.0274447
0.118481
0.0252319
0.0338095
0.258247
0.0281609
2.08337
3.55889
1.14516
2.37444
4.57593
5.05179
0.0251716
0.0250338
0.0315333
0.0251324
0.0269424
0.025335
0.139462
0.0267309
0.284744
0.0325143
0.0331522
8.05934
0.0502845
0.0629442
0.0256814
3.90996
3.83278
0.0251456
0.0256481
1.4928
8.13502
0.0284728
0.0254077
4.85399
4.65977
1.10147
10.033
0.0272055
0.0308759
0.052764
0.242109
0.0253518
0.0256532
0.0512725
0.101467
0.0350606
0.0267741
0.32034
4.29747
0.0256404
0.0250291
12.1661
0.133315
0.0916235
4.30611
5.13764
0.242452
5.19143
5.06131
0.0996362
0.501636
0.0253101
0.0254274
0.0824821
0.0251463
0.0722847
0.128591
10.1953
0.026688
5.33197
0.203168
0.0251896
0.20428
0.0250605
0.0262503
6.64801
0.378059
5.06868
0.041021
4.17656
0.0251759
0.146293
5.13494
5.25498
0.0253451
0.0246521
4.08611
0.0388592
0.0255567
0.0253836
0.0254128
0.0251509
42.0417
0.0916451
0.0250767
0.0250841
39.3321
0.135327
0.0254247
0.02504
0.0252586
0.0430967
0.0350901
0.0273497
0.1287
11.7447
5.44448
0.0264321
0.0253444
0.0253108
0.0286881
0.0439367
0.0256357
4.10434
5.42798
0.027706
0.0254082
0.0251589
0.347523
32.7943
0.0248318
0.0253918
4.15556
0.0260802
0.0292457
0.385034
0.0250771
0.334118
6.31239
0.0761382
0.0254051
0.0270374
4.43056
0.0746704
0.0253522
4.06349
0.0252719
4.29821
0.0601562
0.0299098
0.025682
0.0248595
6.90125
0.0253484
0.0646943
4.71024
0.0437387
0.0251727
0.0543134
19.3527
0.0342376
10.3754
0.039256
5.75825
10.7757
9.00272
0.0253463
0.997939
0.0268892
0.0254143
0.0250829
0.0250569
40.8536
7.36781
5.35858
0.069523
0.752131
0.0252596
0.028991
0.0253945
0.0252943
4.08763
4.39743
0.572232
0.0256741
4.02923
0.0706982
5.15915
0.298277
9.91782
0.299326
0.21999
10.759
15.7331
0.381573
7.24692
0.0253148
4.26967
8.11504
0.142701
4.27115
4.35814
9.00906
0.0591029
4.39575
0.0378967
0.170485
8.67126
0.0279646
0.0254092
0.0254084
0.0253963
9.06007
0.194746
0.0307332
0.0248729
0.0250616
0.025368
3.13195
0.0251254
7.07163
0.136387
10.0934
0.0251626
0.311582
4.50841
0.0252121
8.47447
5.89798
4.25289
8.91845
0.025648
0.0340923
0.127416
0.0255215
0.0514915
4.44008
0.0262676
9.57077
4.36381
0.255451
0.02526
0.0250674
34.5002
0.050566
1.81305
0.0273793
0.15047
0.0733184
0.0777593
4.97956
4.41467
0.0413683
0.171793
0.0254079
0.0256527
0.0254045
0.172612
9.02734
5.4987
0.0435152
0.0608105
14.862
0.134955
0.0356026
0.0272477
0.518476
0.025027
0.0259579
0.0255271
6.10001
0.0264662
0.0252562
0.0254082
0.025021
0.128224
0.0254853
0.0253842
0.0254111
7.95239
0.0251382
0.0253908
4.141
0.0251503
0.0297217
10.6319
4.29457
0.0250623
0.93113
5.22822
5.16981
0.0251156
4.19789
0.0250297
0.384095
0.0248191
2.29279
3.32667
0.253431
0.0252582
43.947
0.0289919
0.0251038
0.0250325
0.0330976
10.9647
0.0277573
0.0253709
5.96401
0.0260718
0.0332789
1.05202
0.0251041
0.0252926
0.95925
10.0541
0.0245971
0.0253659
4.93634
9.33047
0.155731
0.024597
15.0882
5.17663
13.4302
0.02507
0.10306
0.0252221
0.0246485
0.0313344
0.0951598
3.98024
0.0246468
0.026488
0.0254389
0.0248506
6.09347
14.8155
0.746939
0.0633406
1.18936
0.0251487
4.08913
68.8777
12.7882
0.0283345
9.01715
0.0254082
0.0252651
0.0312759
0.0257675
0.0412152
0.0252415
12.3658
3.72924
4.01058
0.116808
0.0269281
0.200976
0.432225
0.20005
0.0248645
9.94925
4.80047
0.0253115
0.799129
0.0253676
0.0318042
4.52517
0.146191
0.0256405
10.6173
0.0254424
9.09562
0.198026
0.188655
0.103181
0.0355915
0.101265
0.112039
0.024829
0.186823
0.0568496
0.481969
0.0479624
4.47492
3.78035
0.0253604
0.0252851
0.0251385
0.0252584
0.0637894
0.0254341
0.0248412
4.31377
0.340779
0.0640587
9.91392
0.0298288
24.2358
0.0251441
0.0253853
0.238201
0.0251585
0.0427557
0.109212
0.177246
0.174503
8.86352
0.0628848
0.668219
2.43539
0.111031
4.24433
0.026044
28.0266
0.102575
0.0279115
0.167592
0.119496
1.09579
10.3063
5.71493
0.0256352
0.0299713
10.5996
0.0251441
0.0352951
0.0643842
0.181685
4.44381
0.0252526
0.173838
4.75107
0.0252596
0.025354
0.0246042
5.10498
0.0784807
0.0264609
6.76294
8.51523
0.0251387
5.20643
4.04954
0.270357
0.821395
0.169244
0.0652164
0.0914934
9.27179
0.0650861
0.0251089
12.0647
0.0254424
0.0252514
0.0251419
6.6302
0.0255687
0.125687
0.0262627
7.43314
0.136576
0.0252918
0.0279735
5.37352
0.0250151
0.0255301
0.0252286
0.0583949
0.0252492
12.6503
0.0348495
0.0254386
0.169854
0.124035
9.92724
0.0259219
0.192127
3.82659
4.53494
0.0251663
0.0306891
0.0250711
0.025184
0.163415
0.0315424
0.0251348
0.0264606
0.0541911
0.0252957
3.83143
0.0287723
0.0629501
0.0253383
0.0251935
0.02802
0.025188
0.0318485
0.234668
0.0256739
0.0253625
0.025344
9.80572
0.048191
4.43089
0.0277404
4.0457
9.25214
0.248152
0.0414227
0.0601597
0.0254387
6.4619
9.23709
3.81005
4.36485
0.08718
0.137023
0.142202
0.302363
0.0732187
0.0263164
0.0251992
0.0636954
7.8952
0.122965
0.0522166
0.0254044
0.0643043
0.0252491
4.07238
0.0248754
0.18932
0.0272342
0.782634
0.0252999
0.753005
0.0340496
0.228325
0.025357
0.0272434
1.72694
5.06318
0.0460204
0.0463151
0.0253204
0.0253946
8.86015
11.7804
5.56686
0.0258935
0.185697
0.0320912
0.0431353
0.0253594
0.19799
0.0254351
0.025217
0.0267818
0.0254389
4.1963
0.0254344
0.0251808
0.0256594
0.0266575
0.0256745
0.0322219
4.57811
0.0301652
8.02462
16.2198
0.0251896
0.0590882
0.0251428
0.0266309
0.0251542
1.2808
1.86501
0.0253775
0.0252423
0.0360926
4.29236
1.6578
0.0253653
0.0250107
0.0465777
0.0252219
13.253
24.6685
0.0254384
0.0354019
0.191943
0.232739
0.0255441
0.415234
3.80122
0.0254386
8.62437
0.0255653
3.98181
13.7215
0.0249999
0.0615219
4.41792
5.58679
0.0250607
0.173828
0.0253113
0.0250439
5.2823
0.0276182
0.0277899
0.0254074
9.258
0.190705
0.0416473
0.248622
0.0333581
0.0260647
0.0998972
5.82497
0.025292
4.10373
7.84418
0.0333188
0.0259888
0.0271176
0.0252568
0.0741672
0.0252155
0.0256353
0.0723212
4.22853
0.0434045
0.0256801
0.0685365
5.34866
0.0246045
8.12035
0.0263977
0.32682
0.0868026
10.4995
0.0255341
4.3531
0.0250434
0.0246036
0.0253382
0.0339938
0.0253007
3.42189
0.0254422
0.0252535
6.82722
0.0253563
0.0251685
8.5101
0.0255826
0.0250055
0.0252979
2.18619
4.19677
15.3947
9.57154
1.45545
4.33875
0.0252827
0.0276772
4.0117
0.083262
0.727686
15.8345
0.0310696
0.339108
3.99603
0.0252564
4.9173
1.60473
0.0249891
0.0308003
0.025594
0.0253809
0.0257953
0.332604
3.83611
11.1133
0.136688
0.0252955
0.116704
0.046304
0.0252454
5.94449
0.0250144
0.0251443
0.214935
0.0252172
0.0627052
0.0246534
0.0634071
8.84489
0.121599
0.0357054
0.0382261
3.90373
6.22137
0.0670071
0.397887
0.0415931
0.0335549
11.8146
0.0643503
0.0252357
0.685234
8.10808
0.0246122
0.0267627
0.0699971
0.163194
0.0969814
0.0925982
0.0253543
1.31585
0.0964309
0.025401
0.02724
0.0258663
0.0251256
0.0254032
0.154493
6.67801
0.0266445
2.09461
0.0285021
0.0250724
4.04977
0.0515228
6.34537
0.136344
11.5008
0.0785173
4.93524
10.1564
0.0262279
0.0465453
3.99308
3.88334
0.498372
0.0727584
15.3313
0.374564
3.4513
0.0253402
3.88918
0.0252999
0.0252983
0.065196
0.124621
0.0250556
0.114796
0.506254
0.0272318
0.0253969
9.96742
0.0252792
6.82789
0.03959
0.0255622
4.99194
0.0344019
0.0506645
5.24766
4.88448
0.0643019
5.37343
0.722093
0.0252965
0.0256599
8.96739
0.0590607
5.8793
0.0250218
0.0356087
0.0251294
0.0251446
10.3697
0.0656967
0.0253405
9.54703
0.0250298
0.0826911
0.0348089
3.88681
4.04142
0.02543
0.0345532
0.0265267
0.0252406
6.34781
0.0253128
0.0702236
9.77174
0.0252203
0.0249806
6.1947
12.4833
0.0262297
0.041409
0.0253113
0.0254463
0.0254774
9.35364
0.0336307
1.17256
0.05819
0.927964
0.0323563
0.0250189
0.0977838
0.0970435
0.0256406
9.6991
3.25443
28.9416
0.0272072
0.0253705
10.4362
3.61836
8.81195
0.0256636
0.0253537
42.18
0.0256855
4.17284
0.0251966
0.0254514
0.0309173
0.0250758
0.0252276
0.0255386
0.0266855
4.77222
0.0253382
0.0333292
0.126805
0.0943049
0.0254053
0.0255719
6.3733
0.0810636
5.30727
0.0298459
5.05121
0.0251201
0.0253561
0.0340666
4.34931
3.8584
0.0358877
3.39572
0.123106
0.0574525
0.0288207
0.040829
0.0254812
0.239742
0.0726923
5.55727
0.0511839
0.041241
33.0931
0.0874338
0.025453
0.0509546
0.432026
0.0255613
0.259345
1.18762
0.025233
0.0645465
14.7046
0.0250976
0.0253106
0.0253331
0.0252118
4.55776
0.145757
0.127322
0.0869219
0.0250218
0.371632
0.0249964
0.0262399
0.0251892
0.0499768
0.555199
10.8017
0.130628
0.0250932
0.0809806
0.0924089
0.0254016
26.9313
0.0255658
8.88385
0.026022
15.2471
0.677281
0.0611503
0.0515683
0.0254762
0.0256259
0.0323421
0.0388392
0.122771
0.283523
0.0252227
4.96194
4.11508
1.07389
0.0414388
0.0317695
14.2657
0.0253986
9.30518
0.0251961
0.0253351
0.0536455
0.0256354
13.1839
0.025344
9.01799
0.0250521
0.0253391
0.0248919
0.0259492
0.241774
0.0251226
0.0884844
0.0266
19.9703
0.0253556
0.373651
0.0304557
0.0609884
0.0392846
0.0256948
2.22003
0.0482714
0.0256625
0.103053
0.0314888
0.0875906
0.0376587
7.84721
0.0455032
5.96103
0.0303728
0.0255636
0.0309257
0.0285232
0.0477104
3.96824
0.0350663
0.025641
0.0256356
0.0252987
0.150627
7.85815
0.0256408
6.30734
0.092067
5.26533
4.96804
10.8897
0.0253502
0.040631
4.18558
0.0503182
4.28533
12.2084
0.0858639
0.025561
0.0424479
0.0256796
0.0253448
0.049566
0.0252865
5.30839
3.78354
0.128086
0.0253962
0.490041
0.0256784
5.91365
10.3958
5.93464
0.0343197
0.0253093
10.6613
0.0641936
5.71376
0.0899053
13.5281
8.54003
9.55351
0.0254798
0.0252312
1.81098
0.0277624
0.0253521
10.4624
0.0257655
0.0924504
0.0250464
4.09558
0.0252425
0.0252527
0.0491255
0.0252442
11.2142
0.0358496
5.74664
0.0252991
0.0253672
0.0252841
0.0343489
0.163708
0.0253935
0.0252236
0.025159
0.217
0.225475
0.0309701
0.0252597
0.0348868
0.0630519
0.511388
0.124391
0.0253693
0.0252065
0.0270357
0.0252228
0.0278592
0.0253073
0.075284
0.593323
0.0501615
0.10011
4.17277
0.0253748
1.2945
10.8486
0.0253623
0.0256826
0.0251988
0.025341
9.22941
0.0656077
10.8252
1.10764
0.064946
0.162246
0.0652534
0.0649203
0.0407888
0.0254829
0.0250535
0.0283562
0.0405619
0.0253428
11.6503
3.87352
3.77349
0.0311663
0.0260997
0.0349877
29.1026
4.8159
0.0256811
0.0250208
3.96301
0.0282647
9.92864
4.37983
10.3343
3.88747
4.15714
0.0250465
4.81738
4.10555
13.0087
0.02532
0.0264041
0.210615
2.33751
0.153889
9.50186
0.0478711
0.0882771
0.0246447
0.0251436
6.62987
0.0324625
0.0262116
6.44766
0.0358867
2.35764
0.158475
0.0253592
0.0251097
0.0276791
0.317285
11.2703
5.76951
5.25193
0.0251857
0.0311703
0.13376
0.0279787
0.0270404
0.0256949
10.2391
0.115307
0.0247256
5.26388
0.0253351
0.0337038
0.0253577
0.178444
0.70408
4.07706
0.0253312
0.091169
3.34023
0.0488
0.0255656
0.0469752
0.0253149
0.0250104
0.0276531
0.0266075
5.63921
0.041247
0.0259509
8.28396
0.0253895
5.03692
0.0247303
0.025478
0.158118
0.0316239
0.0284216
0.316054
0.025317
8.97212
0.0250037
0.900429
0.183544
5.17288
11.9754
0.0259286
0.0359916
0.0248628
0.040136
1.03009
0.0269753
0.0253607
0.0409783
9.80147
31.4602
4.06554
0.0254831
0.115602
6.16235
0.025566
0.154802
10.4404
2.17187
0.0477124
0.0291901
0.0412725
0.0255314
0.027647
14.752
0.0250138
0.0251115
0.0253343
0.0576846
4.17101
0.127713
0.0257554
0.0780297
0.0250311
0.0252163
0.0284703
0.0684744
0.0253241
8.58398
0.319785
0.0680022
0.0253209
5.54312
0.0267706
0.0251146
0.0254656
0.0295587
0.147648
12.6007
0.0775035
0.0912816
0.0265397
0.0254855
3.80521
0.0603799
0.0965818
6.16023
0.363917
4.24145
0.0682675
0.0271243
0.0413905
0.0487562
0.0318481
10.4635
0.0251583
0.0251981
4.75535
4.06781
9.68707
0.0254882
3.44788
0.0256749
0.0265317
0.098261
9.37022
0.026708
3.17182
0.0289525
0.155731
0.0330787
0.0277779
0.0807007
0.0253377
0.0253433
0.103352
0.327229
0.0328689
0.4035
11.4204
0.510966
0.0299336
0.0253207
22.354
0.025119
4.36489
0.0264132
0.0308329
18.5905
0.0442602
0.127689
5.51246
1.58658
0.0269992
0.0250152
10.3918
0.036913
4.3809
4.04607
4.17065
8.09033
0.710113
0.329577
0.0254522
0.0320929
4.50109
0.0685718
0.0264828
0.0248847
17.1148
0.0284476
0.0278997
0.718604
0.0293493
0.0249684
8.2212
0.0625336
0.0277943
3.88947
0.181432
0.0253141
0.0261801
0.0335648
0.0272916
13.0586
8.34894
28.1425
0.0251177
0.0253811
0.212943
0.24674
0.0380918
0.124285
0.0418063
2.11868
0.0254
0.287704
0.0250135
0.0939313
0.0256804
4.40742
0.160054
8.96355
0.127463
3.83958
2.48107
0.227577
0.0256364
4.33621
0.0975569
0.025468
8.98251
2.30579
0.0253329
0.0468173
0.0256409
0.0264948
4.2288
0.0253401
0.25143
0.0253051
0.0364128
0.063903
6.13478
0.0246441
1.32005
0.115204
6.20732
0.0254492
0.0265572
0.0256779
0.103549
0.0255062
0.0271
0.0255196
0.0253436
0.0252782
0.0470787
0.0304944
9.34733
0.222731
0.294362
0.0252543
4.13827
0.0249752
0.0254397
0.0254433
0.0255463
0.096352
0.0255826
0.0298964
0.0253978
0.0256541
0.0320888
4.34714
0.0254431
0.0270325
0.226836
0.103768
8.31165
9.3001
0.202022
0.0253552
0.036259
0.0613689
0.0255022
0.358765
0.0256798
0.327651
0.0252808
4.75703
0.163272
12.3316
0.0294913
0.0253295
0.0263954
5.76062
0.330024
0.0247523
4.06969
0.0257276
0.126992
0.0249875
5.45985
4.27482
0.0254639
0.0252341
0.0334418
0.200185
0.0258768
0.0358536
4.33483
11.2414
0.0263717
5.36409
0.0277889
0.0267803
0.08265
1.7677
0.0979983
0.291279
9.77356
0.0250701
7.8194
11.0336
5.57063
6.88888
0.0359772
16.9364
3.95475
3.73918
0.515521
5.91287
10.1726
0.383751
0.0248114
4.26142
0.0501849
0.0265312
0.0925075
4.90293
0.062303
0.0252685
0.036191
0.130764
12.9402
0.0294439
0.0404239
0.0249897
13.5867
4.24898
0.307814
0.0414099
0.0246371
8.33882
0.0248218
2.45497
0.0262958
0.0254615
4.31509
0.0249599
0.0248862
0.0272655
0.0252676
0.0508131
0.0262834
9.08345
8.46107
3.75276
0.0251679
0.212184
0.0269165
0.0589752
0.0348421
0.0264292
0.0255783
12.335
17.3006
0.0252892
0.0307459
0.0255613
0.0253623
1.93703
12.5442
0.225686
1.29984
15.131
0.155641
0.0253442
0.0253395
0.0250065
0.0994218
0.051359
5.89094
4.12536
0.024974
9.74946
0.126575
0.0452292
8.17387
0.158523
1.20467
0.0246963
4.92182
0.0254543
0.0248102
0.025322
0.0249925
11.7847
0.0603472
4.18593
0.0253264
0.0253427
3.75075
12.9847
0.392894
0.0255096
5.07594
4.21394
0.159665
0.0783138
12.7913
0.0279023
0.0263492
0.0306353
0.0253421
0.0266181
0.0404654
4.09815
0.0255917
0.025207
4.10478
0.040571
0.029765
0.0264432
0.16081
1.22325
0.0252964
0.0976072
6.21129
0.0248833
0.0251358
0.0471137
0.0268684
0.0251622
0.512757
0.219823
4.11055
0.16741
0.0278459
0.0412085
0.0253909
1.37682
0.0488553
0.0250065
0.0306895
0.0253741
0.82059
0.0253931
10.7316
0.0253497
0.0250851
0.220749
0.0254017
0.101349
1.53479
4.55172
1.01866
14.4005
0.0479109
6.53023
0.0254044
0.03278
4.20868
0.159763
0.0669032
2.49525
0.025494
0.0252083
0.0258164
0.0585738
0.0251383
0.158996
0.0250657
3.6998
0.0254249
13.9241
4.13982
5.52881
0.426314
0.0681963
0.0256491
0.0817414
0.71795
0.0251829
0.0254393
13.8381
11.4022
0.33348
1.82723
0.0249992
11.5503
4.39154
0.0261392
3.79769
0.0253419
0.0247021
0.0255632
0.0346306
0.0267582
0.0329709
4.29377
0.160555
0.0502063
4.38477
0.0251927
1.09482
0.0251641
0.0256742
9.77459
5.13001
0.682473
0.0250384
0.284228
0.761612
0.169734
11.9926
0.0256642
0.0284235
0.0255594
0.0248869
0.0406207
0.0254025
0.0573499
0.0255531
33.3829
28.6078
4.00139
0.036875
0.0828951
22.875
0.0250759
0.0257038
21.5664
0.0255821
0.028212
0.0249004
8.89518
5.879
1.23706
0.0254382
6.8712
4.02114
0.0828645
0.0249948
0.144252
0.0251001
0.0731265
11.3094
4.81782
0.0250363
0.0398055
0.0250062
0.0262185
0.0259555
0.0254179
0.0255597
0.663014
42.0411
0.0255635
0.0248116
6.97932
0.0253033
0.0253985
0.0253554
1.94943
6.81695
0.0416349
0.0283152
0.0256795
0.769419
0.025333
7.70388
0.0500409
3.95883
0.0252726
0.0251943
0.0256931
0.138003
0.0250041
5.62163
12.0786
0.0249965
0.0340393
0.0250282
0.0449296
1.38983
0.0401599
0.140511
0.258302
0.025989
7.64004
0.340147
0.0247125
0.025289
0.0414442
0.0273595
0.0253585
0.0359961
9.98404
3.85391
0.0252104
0.0250034
10.9521
0.130749
0.0396858
0.0251565
0.028465
2.23534
1.25263
7.0193
4.09206
0.0256196
0.288365
0.0256536
0.0595032
0.035493
0.0312508
31.0603
0.0402793
28.942
0.0606285
0.365688
0.0251579
0.0251885
0.0265924
0.0247272
4.15305
0.232499
4.30799
0.0256488
0.0509903
0.0621506
0.0250891
0.148524
0.0262079
8.62008
0.0253508
0.248634
3.63283
0.0267439
0.156034
0.0252467
0.314302
0.110365
5.61115
0.0261604
0.0325083
0.0246894
0.0318741
0.0307191
0.0250058
0.300839
0.0252012
0.0256656
2.45755
4.36624
0.0256053
0.223616
9.76245
4.60361
0.0494905
9.45463
0.0253451
12.7442
0.164775
0.027991
3.43807
13.6226
8.52572
0.825447
9.8891
0.0248818
0.0252303
0.0250744
0.0673203
0.0295408
0.0254194
0.184147
0.0489543
4.27345
1.71823
0.155871
0.025565
0.0500181
4.38612
10.4826
0.0283028
4.19264
0.0249921
0.0604764
4.58364
2.50097
0.958009
1.4738
0.0254856
5.74158
0.0253479
14.5636
0.0253549
2.54991
4.07994
0.0254216
0.150432
0.381456
0.0254992
0.0254796
0.0251703
0.0250905
4.20764
5.95609
9.25047
0.0253421
0.0252648
5.56684
0.0401588
0.0252649
0.0251792
0.0252749
0.0255031
5.08771
0.065298
0.410937
0.0393999
0.060345
0.0253489
0.0354327
0.025186
3.74733
0.025372
6.72728
0.237301
0.025436
12.4657
0.0253241
0.0252139
31.215
0.0783715
0.423747
0.025499
0.0253384
0.025453
0.0252568
0.0456092
0.0253972
3.71725
0.0351027
0.025137
5.04552
12.889
0.32515
0.613764
0.0250752
2.32997
0.0460249
9.61798
0.0746832
0.0252687
0.0271398
9.50276
0.0473911
4.03361
0.252097
0.0255113
4.06967
3.46894
5.20299
0.0253474
0.0255984
5.91103
0.0253061
0.0317914
0.0254806
0.0254341
0.0254021
1.48803
0.0339366
0.0250401
3.8968
9.09268
0.0318962
0.0398931
0.0250019
0.0256541
4.14825
10.125
0.122601
0.0250038
11.9485
4.39589
0.0314258
0.0252783
0.234376
3.8319
0.0250775
0.0549627
0.0264658
5.16293
0.0254767
0.0253452
0.0499672
5.33456
5.75662
0.102762
4.03408
5.21085
11.3134
9.31919
0.0380864
0.0310399
0.025202
8.10792
0.0254325
0.205665
0.0380056
0.0253168
0.0252758
0.0941083
0.0256757
14.1128
0.153113
0.0348727
0.120147
11.3333
7.1203
0.0250977
6.59727
0.0332279
0.0279873
0.0395888
0.0270977
6.52068
15.3932
0.0696883
0.0647915
0.0256919
0.0251762
0.378443
0.0889693
0.0366331
0.0419094
0.025268
3.78071
0.0252686
0.0250154
0.0311312
3.76586
0.247343
0.0613655
0.41326
10.3154
0.0254011
0.170485
9.56693
0.0252001
0.03073
4.96937
0.0256064
0.0253185
0.0283681
3.76556
6.71129
9.06605
0.0585512
0.0252589
3.95798
0.0252571
0.0663487
0.0253703
4.15649
2.86582
0.0254088
0.0687115
0.0251457
0.0286105
0.0505909
10.4672
4.39505
0.0253988
8.99623
10.0372
0.0658371
0.482976
4.57482
0.0249866
1.05705
0.0344155
0.142031
8.08861
0.0249834
0.0253237
0.0251115
0.0260419
0.0282262
0.0254743
0.0400427
6.1842
0.122589
0.0251868
0.0253971
0.0253124
0.0261411
0.238044
0.0255649
6.39549
3.61452
0.0255235
4.32205
0.0306069
27.7668
0.175176
4.39942
0.0714892
0.0251178
0.0307329
0.0251737
0.0253303
5.05194
0.0254989
0.0501099
0.0352849
0.196503
0.239784
0.397947
0.0323613
0.0249323
5.45083
4.4385
0.0253091
0.339483
0.0253195
0.0253012
0.0254003
0.0252651
0.0253729
0.0298321
0.0252678
4.99045
0.0254071
9.5346
0.147162
0.025409
0.555426
0.0254491
0.0332422
0.0656895
5.1526
11.8524
0.0608478
0.0462305
0.530457
0.0835862
0.179127
4.05408
0.0251126
0.025461
0.0250693
0.512584
0.030465
10.5817
0.0320977
0.0554676
0.0250915
0.0314075
0.027076
0.025316
0.0287724
0.0285018
0.0354654
2.60806
0.0253758
0.0253363
0.0262377
4.99952
0.0250894
0.0259987
0.0356465
3.92551
4.23065
0.271561
0.0888988
0.804146
0.0247574
0.0249772
0.0927886
0.203573
0.0254964
13.2787
0.0254344
0.510665
0.0254391
3.59412
4.11287
0.025022
0.0249333
5.02334
0.0253588
0.0253463
0.0316242
14.5438
0.0454063
1.06368
0.0946557
0.025442
0.0928484
0.0726697
0.0388085
4.12806
0.144808
0.034958
0.168852
0.0254455
0.025222
0.0256595
0.0321114
21.8947
0.0249405
0.0246903
0.0655881
0.0487099
9.29423
9.00439
0.122455
0.0306629
0.0490007
0.0249211
6.37116
0.0255654
5.0516
0.0603616
0.024869
0.0256458
6.60128
0.100017
0.0251063
0.0252831
0.0260896
0.222839
0.102146
0.0251037
0.0247611
0.0246742
0.0614052
5.22972
10.6172
0.0251668
0.0255884
5.03129
0.024828
0.199457
9.80328
0.103364
0.0730305
0.034713
0.0255773
0.0546084
4.09953
0.025517
1.46863
0.0786569
0.0275655
0.0254648
0.0501931
0.0259994
0.0568569
4.2557
0.0433841
0.0602107
0.0254072
0.0251134
6.63062
0.106062
12.9504
0.0249733
5.6364
0.0251073
0.0348925
0.0257382
0.0254252
0.0254761
0.025516
12.3497
0.0249747
0.150628
0.034216
0.0260502
0.0413179
0.0251896
3.63279
0.211679
0.0255197
4.32415
0.0255968
13.0786
0.0344375
0.237435
0.744961
0.0255207
16.0545
0.0299983
0.0246836
5.98217
0.0251956
4.36031
0.0249755
0.0253378
0.0917468
0.0253339
0.060362
1.72992
0.268803
0.025404
7.49593
0.308282
6.86851
0.0252002
9.05164
14.1534
0.0254537
0.0604768
0.025357
0.340908
0.0578188
4.06116
1.60121
0.124061
0.0247655
0.0256794
0.0384558
10.1936
3.98822
1.06109
0.0253426
4.10485
0.0256186
0.025371
0.0253013
0.155599
0.0254337
0.0254354
5.29199
0.191006
0.0353455
0.253711
0.0254797
11.1473
0.0250471
0.0353036
0.0770185
0.0248972
11.4508
5.43406
1.26974
0.60054
5.45251
0.0250906
0.0252378
0.024721
0.0855099
0.669166
0.0252623
0.0500731
5.5749
1.18742
0.492618
0.0392838
0.0407989
0.0293687
8.97079
0.0255612
0.025309
0.0246748
0.0650463
6.7065
3.81472
22.0034
0.0338553
5.34488
0.0253375
0.0255746
0.0253555
0.0951497
0.0481171
0.190895
0.0975979
0.0341467
0.0253409
0.0413266
0.0333327
0.0427873
12.1141
0.0253523
0.0253161
0.127024
0.172382
0.0249093
8.17515
0.0258133
0.0253585
0.026872
4.69921
0.0252824
0.0254491
4.93895
0.146514
11.2423
0.574837
0.0251419
10.1214
0.0254417
5.93111
4.28739
0.0339089
0.25878
0.0324625
2.43284
6.54634
0.0711965
0.0249151
29.9768
0.0252751
0.0482083
0.0253382
4.1289
0.0275655
0.122264
0.0324962
0.0608359
0.0279624
0.29705
6.21613
0.0258745
0.123061
0.644681
0.0888562
0.0403709
5.25608
0.0252232
0.0802958
0.0250986
0.0352467
0.0251872
12.6376
13.2275
28.451
0.0250865
2.12476
0.0699902
0.0352954
4.31665
0.0255147
0.0251042
0.126734
0.0256759
0.205619
0.162884
0.0252379
0.039967
4.5571
0.0256406
0.0253516
0.0388676
5.09542
0.0492947
0.0423727
0.0316205
0.130836
0.170883
0.0381797
43.7374
6.99185
0.0271439
0.0250777
0.0485158
0.0254256
0.0253461
4.1028
0.0250684
0.0253139
28.3338
10.3474
5.58617
4.2508
0.0251241
4.86459
0.0253787
0.0951595
11.5291
0.0255658
0.0253472
4.06695
0.0659632
0.0899321
0.0254958
0.0451138
0.0253363
0.030027
4.43469
12.9808
0.141744
0.0254385
0.0249629
0.0267617
0.0264643
4.66852
4.02744
0.0266169
2.62676
0.480729
0.733242
0.687867
4.19932
0.0255081
5.42867
7.40569
5.39116
0.0251572
0.0600073
19.4464
0.34296
0.0483925
0.0477056
0.0351672
0.398459
3.40802
0.0251467
0.0254632
6.68305
11.337
3.95128
0.0255128
0.0253428
16.161
4.42236
0.0271424
0.0366438
0.0254381
0.0260131
10.4335
8.34395
0.0344903
4.20863
4.10449
0.0253214
0.0269363
10.6488
0.0657804
0.0509557
10.0344
0.025117
0.0256217
0.0253586
0.0253782
0.0261017
4.25344
0.0267587
0.0256401
0.0252388
0.0582449
3.27844
3.65145
0.0254594
0.383325
0.0253903
0.317631
4.33578
40.3216
0.0267858
20.8885
0.347495
0.224629
4.3875
0.235129
0.092466
3.89655
4.06055
4.08583
0.0250459
13.3654
0.0422119
4.01264
0.0254524
0.161551
0.0246368
8.25363
0.0818035
3.8893
5.31702
0.0886686
0.0254667
0.0916945
0.0860017
0.210625
0.307786
0.0251842
0.0412383
6.68337
0.386583
0.0483875
0.0726102
0.0253135
3.98593
0.0251709
20.8135
4.2051
12.9271
3.96465
0.0601714
4.03173
0.157666
11.3466
4.01414
4.16021
6.96738
7.03353
0.0409316
0.16029
12.437
0.728661
0.221174
3.87924
0.0250745
0.0254383
0.0253341
0.10278
0.0253438
6.95623
0.0256949
0.058103
0.0253116
0.0959462
0.0260646
0.0255553
0.0248604
0.0285409
0.0397501
0.0254935
0.0544798
3.70005
0.0869472
3.44007
0.028788
11.1789
0.0251788
2.75713
0.0256353
0.0254051
0.0256643
0.0254806
22.1843
0.0398794
0.031051
0.0253325
0.0253933
0.0252604
0.756149
0.0252144
0.0516777
5.0881
13.6851
5.062
0.0252043
12.5362
3.91874
0.0268698
9.10615
0.0404948
0.16026
0.061066
0.153558
0.025342
0.0257589
0.0471544
0.0269381
9.07079
0.0246951
0.0251083
6.64994
31.5343
0.0253124
0.0251636
0.134974
0.0336368
0.0254267
0.3115
0.0253218
30.7429
0.0254573
5.1284
0.0277003
0.029376
0.707785
5.51418
24.4365
0.0397791
3.97509
0.0251716
0.0593732
0.189026
0.0253421
0.0254696
0.0248952
0.0249599
0.0612816
0.0608248
4.16187
11.5226
0.122876
0.127089
10.6149
4.20506
2.11229
0.0285864
0.0344275
0.0252032
4.97885
0.0253341
0.0251261
0.0419176