/*--------------------------------*- C++ -*----------------------------------*\
| =========                 |                                                 |
| \\      /  F ield         | OpenFOAM: The Open Source CFD Toolbox           |
|  \\    /   O peration     | Version:  v2012                                 |
|   \\  /    A nd           | Website:  www.openfoam.com                      |
|    \\/     M anipulation  |                                                 |
\*---------------------------------------------------------------------------*/
FoamFile
{
    version     2.0;
    format      ascii;
    class       volScalarField;
    location    "400";
    object      p;
}
// * * * * * * * * * * * * * * * * * * * * * * * * * * * * * * * * * * * * * //

dimensions      [0 2 -2 0 0 0 0];


internalField   nonuniform List<scalar> 
54593
(
0.0321845
-0.140642
-0.00306724
-0.0744284
-0.285818
-0.389388
-0.112031
-0.169688
-0.130716
-0.00468181
0.0334676
-0.0843371
0.272045
-0.0233429
0.0882555
0.126968
-0.168583
0.132025
-0.00428938
0.147351
-0.00307262
-0.0457864
-0.00643618
-0.224061
-0.0117573
-0.100619
0.032243
-0.0791782
-0.374681
-0.00628474
-0.0999505
-0.0830451
0.00393477
-0.38163
0.219485
0.0239876
-0.108716
-0.140983
-0.0437843
-0.0474393
0.482305
-0.342175
-0.00644074
0.0336059
0.407228
0.0681963
-0.0782028
0.0587212
-0.0206702
-0.138944
0.00384077
-0.0212566
-0.0489666
0.403779
-0.148443
-0.00420212
-0.39324
-0.346706
-0.145202
0.300036
-0.00618317
0.0765564
-0.02369
-0.0742307
0.0216525
0.124376
-0.165289
-0.0376289
-0.36528
-0.367721
-0.0209778
0.216477
0.0213624
-0.212493
-0.046076
-0.0778205
-0.0813062
0.0883161
-0.404164
0.207643
-0.00408418
-0.0792639
0.0334878
-0.139969
0.00815633
-0.211268
-0.212608
-0.119265
0.277393
0.0418735
-0.407551
-0.0572873
-0.189402
-0.251096
-0.098989
-0.323802
-0.0983811
-0.202191
0.0485831
-0.140986
-0.00258451
-0.311099
0.0702981
0.0188892
-0.0804886
-0.0233567
-0.0808401
-0.118683
-0.0766736
0.320549
-0.399193
0.0165004
0.0424136
-0.0989046
0.0195624
-0.421527
-0.367134
-0.0742597
-0.381682
-0.187256
-0.0745422
0.0232414
-0.385737
-0.0661534
-0.000871796
0.44364
0.0697172
-0.000530704
-0.0816815
-0.20156
-0.0106773
0.0126047
-0.0795489
0.0240957
-0.0598245
0.128888
-0.0253156
-0.0823144
0.0182225
0.0294284
-0.386704
0.241424
-0.0785872
-0.352099
-0.0810287
-0.0457788
-0.164371
-0.105023
-0.16276
-0.0401688
0.31
0.0368952
-0.109993
-0.250039
0.0142413
-0.386459
0.0325127
-0.385206
0.117744
0.0480163
-0.31338
0.101456
-0.387928
-0.342564
-0.078485
-0.0369116
-0.00831234
-0.00562959
0.456895
0.00566527
-0.0925235
0.188802
0.276246
0.023178
-0.129052
0.00291675
-0.401367
0.0773807
0.0754351
0.476566
-0.266138
-0.017952
-0.38019
-0.000820944
0.0211297
-0.0640633
-0.0384218
0.0389985
-0.0233074
-0.333268
0.0764374
-0.0747665
-0.398251
0.021481
-0.340407
-0.163902
0.030969
0.0544654
-0.0996938
-0.40259
-0.0638051
0.445248
-0.120872
0.0693959
0.0371078
0.0360349
-0.0460312
0.00768694
-0.0441739
-0.00431673
0.0289878
-0.0228531
-0.0177891
-0.0767106
-0.0982156
-0.140949
-0.396886
-0.0719812
-0.414605
0.0304785
-0.050296
-0.385832
-0.346318
-0.0482392
0.367871
-0.105641
0.0118448
0.126072
-0.00181029
0.115955
0.0689695
-0.0817476
-0.139928
0.0210373
0.0568228
-0.0977755
-0.0930839
0.0207716
0.281574
0.0207049
-0.0474741
-0.0777379
-0.14826
-0.23609
-0.0485782
-0.0457835
-0.11488
-0.0835426
-0.00680371
-0.320055
-0.235046
-0.157112
-0.10834
0.00347459
-0.0457425
-0.00923482
-0.25723
0.00448977
-0.232062
-0.0432666
-0.0430156
-0.259544
0.054898
-0.40236
-0.0992169
-0.0209456
-0.168659
-0.00657959
0.0532016
-0.036802
-0.199947
-0.208872
-0.0740045
0.0319192
-0.0457962
0.0171392
0.0789843
-0.140385
-0.0130686
-0.0778311
-0.0122341
-0.0834568
-0.0659305
-0.341022
-0.11387
0.490533
-0.0452865
-0.0108225
-0.0833574
-0.32211
-0.160301
-0.0806698
0.00367146
0.0102873
-0.0981869
0.0117136
-0.400136
-0.219023
0.0192483
-0.0906905
-0.0847762
-0.0415993
0.0288512
0.00621895
0.0208689
0.0158862
-0.138401
-0.0915296
-0.0396789
0.0293722
-0.109365
-0.0460287
-0.35799
0.0563635
0.497897
-0.169817
0.286948
-0.14435
-0.162999
-0.0227369
-0.164957
-0.00680437
-0.12491
-0.0778271
-0.0869216
-0.122066
0.101174
-0.0204734
-0.265116
-0.0665852
0.0273231
-0.0309717
0.0191591
0.101296
0.00626241
0.371807
-0.0644301
-0.072597
-0.116715
-0.0750821
-0.0412068
-0.0503449
-0.101885
0.00324668
0.0151982
-0.180666
-0.13848
-0.0904731
-0.19699
-0.377395
-0.3511
0.0101024
-0.120958
-0.227937
0.0406347
-0.00594518
0.159569
0.0170542
0.0328489
0.0323277
-0.14082
-0.0506693
-0.00946971
-0.0844278
0.249022
0.0540754
0.0172892
-0.352319
-0.0873441
0.0210658
-0.0547739
0.0213798
-0.00688756
-0.0226091
0.106539
-0.00477505
-0.0249
-0.34378
-0.0738947
-0.407006
-0.33953
0.197638
0.226291
-0.0840234
-0.119965
-0.139081
-0.356167
0.0185293
-0.144896
0.351001
0.396456
-0.143993
-0.0636834
-0.00568168
-0.061511
-0.0732834
-0.343263
-0.130696
0.332933
-0.105703
0.0033251
-0.158837
-0.389337
-0.252921
-0.125176
0.015569
-0.013812
0.22779
0.00642212
-0.202457
-0.0887664
-0.0251017
0.0291177
-0.106379
0.0156955
-0.368832
-0.0979756
0.0340592
0.0159905
-0.077078
0.266047
-0.112737
-0.127029
-0.144661
-0.155361
-0.356367
-0.0960802
-0.122669
-0.377754
-0.0255479
-0.247599
0.113321
0.494797
-0.136949
-0.111958
-0.0681204
0.0314936
-0.0896639
-0.0350906
-0.0455026
-0.0839473
0.0200499
-0.00129882
0.0185187
-0.144467
-0.0975513
0.0187729
0.0485019
-0.10944
-0.136998
-0.14307
-0.118589
0.246437
0.106675
-0.0749653
0.303299
0.00689727
0.0271739
0.0694807
-0.18533
0.0190813
-0.00727553
0.461673
0.0356632
-0.0106568
-0.181832
-0.14263
0.0498222
-0.109816
-0.337537
-0.339466
-0.407288
0.0339049
-0.0139875
-0.0760436
0.0360925
0.00567035
-0.0715218
-0.127184
0.0499046
-0.132337
0.0338106
0.345815
-0.0968822
0.0339752
-0.340012
-0.11622
0.312074
-0.0118798
-0.22329
0.209232
0.0214493
0.00739902
-0.0739737
-0.402137
-0.0276331
0.229662
0.065528
-0.0884029
0.0141851
-0.306943
-0.205479
-0.0856828
0.363148
-0.00131156
0.033421
0.0484201
0.26769
0.117896
0.000381899
0.0350895
-0.203038
-0.153552
0.0486528
0.150201
-0.0874579
0.29031
0.0027821
-0.398443
0.0254058
-0.118716
-0.0296379
-0.0268339
0.054221
0.0292898
-0.105761
-0.341276
-0.0857126
-0.402811
-0.0209275
-0.256548
0.00227438
0.235182
0.0163131
-0.00156628
-0.000992465
-0.366229
0.0337253
0.16151
-0.0832139
0.00327349
-0.0474124
-0.158446
-0.382262
0.0566989
-0.080783
-0.256121
0.000151087
-0.116119
-0.0107446
-0.381425
-0.0894582
-0.142309
-0.358874
-0.233385
-0.2059
0.484543
-0.225718
-0.118012
-0.0697397
0.018441
0.020881
-0.101042
-0.109978
-0.402719
-0.0278142
-0.249378
0.0486783
-0.0543264
-0.142312
0.00262777
-0.0288219
0.413456
0.0218393
-0.312634
-0.0856722
0.102265
0.181641
-0.390167
0.318641
0.00180031
-0.00601427
-0.0692297
-0.00103831
-0.008144
0.0143791
-0.109724
0.0443497
-0.0886256
-0.0775302
-0.0684641
-0.312188
-0.124006
-0.123885
-0.00176219
-0.162232
-0.138971
-0.00189793
0.00660861
0.487223
-0.0720206
-0.0464044
0.0488962
-0.329377
-0.250178
0.307842
-0.106234
0.0903165
-0.0393258
-0.0250114
-0.12145
0.0331986
0.00667839
0.215905
-0.160588
-0.089581
-0.0108866
-0.216066
-0.0801138
0.0207554
-0.00619121
-0.224157
-0.115811
-0.118306
-0.0826564
0.226752
-0.122178
-0.30018
-0.327088
-0.151996
-0.283134
0.0252181
0.0195049
-0.156227
-0.00229748
-0.0798866
-0.0332942
-0.365051
0.0430127
-0.163917
-0.196237
0.0055753
-0.198114
-0.00517825
-0.0476935
-0.140706
0.440779
-0.246267
0.145428
-0.114854
0.00196076
-0.0539038
-0.315056
-0.140202
0.00530038
-0.0173986
-0.245814
0.173048
-0.0279007
0.00339517
0.0492576
-0.00140667
-0.19874
0.322041
-0.0240747
-0.0305698
-0.399154
-0.108796
0.0187829
-0.00589787
0.0169846
-0.0981434
-0.0858846
-0.000333357
-0.203259
-0.389114
-0.161198
0.0754076
0.00515434
0.0238675
-0.0658065
-0.0243638
0.0213473
-0.209792
-0.391902
0.0393874
0.0289443
0.000952171
-0.07883
-0.398
-0.0238379
0.0475985
-0.289188
0.0299712
0.00695803
0.421318
-0.0236514
0.375838
-0.401401
-0.0463438
0.0290659
0.0141466
-0.3992
0.295752
0.0347434
-0.311343
0.0136654
-0.400435
-0.139167
-0.0583739
0.0279845
-0.0246748
-0.0742671
0.00362754
0.116382
-0.38551
0.063303
-0.0248445
0.21942
-0.285526
-0.0829646
-0.368116
0.0323712
-0.261546
-0.410738
-0.405514
0.00350008
-0.317832
0.00933927
0.0491553
-0.00401922
-0.00545145
-0.344565
-0.4094
-0.176079
0.112116
0.466596
0.017433
0.0559361
0.00466466
0.0289857
-0.0746745
-0.0990181
-0.288396
0.0168133
-0.210059
0.271515
-0.358924
-0.0873874
-0.353672
-0.0867865
-0.112864
-0.0847735
-0.34691
-0.0786257
-0.353401
0.0160797
-0.0772982
-0.306457
-0.103077
-0.0973676
-0.0879656
-0.367602
-0.134105
-0.0874211
0.16884
0.34004
-0.0631265
-0.0595369
0.00615914
0.0289756
0.00455695
-0.0585745
-0.195734
-0.0373987
-0.0250585
-0.00556511
0.0319067
-0.343119
-0.00128665
-0.061836
-0.0980842
-0.401392
-0.0247265
-0.0862861
-0.389459
0.00409928
-0.405678
-0.197762
-0.0747117
-0.181184
0.00646373
0.0919675
-0.136187
0.0120434
-0.107957
-0.0895917
-0.0482202
-0.352331
-0.247869
-0.233343
0.0195424
-0.00468141
-0.27661
0.028055
-0.280882
0.000602395
-0.107982
0.270829
-0.162965
-0.354516
-0.266257
-0.0982402
-0.230104
0.0287387
0.00653203
0.0289331
-0.186679
-0.0480614
-0.169185
-0.103193
-0.125159
-0.249394
-0.149807
-0.0871067
0.0914122
-0.285387
-0.0120553
0.0696913
0.0556886
-0.353449
0.0777008
0.0170449
-0.0342619
-0.00850585
-0.151781
0.0536306
0.00427993
0.00608147
-0.324695
-0.000214097
-0.00393594
-0.263589
-0.000968877
-0.0577246
-0.0610783
0.505796
-0.00491817
-0.292227
-0.138644
-0.32396
-0.0020937
-0.247594
-0.0120134
0.397607
-0.0236066
0.502606
-0.263688
-0.204816
0.0190479
-0.33679
0.00717923
-0.00290016
-0.00614983
0.128029
-0.397615
-0.039669
0.00322416
-0.378971
-0.0464399
-0.0855892
0.367424
-0.00283212
0.0285093
0.369602
-0.338445
-0.0156245
0.0320934
-0.0750437
-0.346435
-0.108668
-0.0151594
-0.313403
-0.371442
-0.336514
-0.0046729
-0.190779
0.00467094
-0.0177585
-0.0650984
-0.109932
-0.208527
-0.0176033
0.0791624
0.0273507
-0.0244188
-0.377075
-0.365996
-0.307481
0.177031
0.494355
-0.00173506
-0.288842
-0.457117
-0.168553
0.0223122
-0.215208
0.0168005
-0.0117513
0.0545303
0.01748
-0.107118
0.00578885
-0.367265
-0.102437
0.511301
0.280504
0.0142107
-0.0768019
0.41675
-0.241504
-0.0108787
-0.312267
-0.329323
0.0234356
-0.191042
0.0319925
-0.068257
-0.0752037
-0.165386
0.0204189
-0.343266
0.0272425
-0.0912689
0.0545062
-0.109843
0.17269
-0.0873352
-0.160708
0.331459
-0.0239055
-0.0894324
-0.136873
-0.228187
-0.0934483
-0.0896614
-0.0713387
0.0327018
0.0162681
-0.000509544
0.0149064
-0.125277
0.0213873
-0.0240899
-0.408419
0.415938
0.268746
-0.38835
-0.0303912
-0.13877
-0.00192436
0.00439459
-0.117789
-0.0122228
0.190166
0.0810573
-0.104796
-0.111286
-0.0765122
-0.134793
0.462291
-0.340555
0.335637
-0.401331
0.0677294
-0.362466
-0.1655
-0.0310559
0.173113
0.343768
-0.325447
-0.364706
-0.393438
0.0205555
-0.0328241
-0.0971962
0.000683594
-0.0846613
-0.109952
-0.110021
-0.0877886
0.0176911
-0.222545
0.387749
-0.0110616
0.0432777
-0.0155976
-0.303921
0.299682
0.0654433
-0.409574
-0.115764
-0.00710961
-0.322119
-0.158883
-0.240223
0.384037
-0.23159
-0.111457
-0.180592
-0.403027
-0.0972774
-0.00536093
-0.342562
0.027027
0.00633866
-0.00446333
-0.267879
0.00529156
-0.146612
-0.0465118
-0.120009
0.344027
0.0084238
-0.0424266
-0.175607
-0.00720209
0.0103336
0.00659086
-0.0806246
-0.0335173
-0.332122
-0.0913634
0.0211699
0.162931
-0.15123
-0.167597
0.0688521
-0.0770243
-0.112225
-0.403735
0.00286188
-0.0759246
-0.0302115
-0.0125223
-0.227284
-0.0704762
-0.00736864
-0.0478657
-0.0559036
0.0161947
-0.0751373
0.105557
-0.129897
0.0380394
-0.00884375
-0.0308984
0.00268628
-0.0787718
-0.247687
0.015047
0.0325108
0.00241759
-0.403404
-0.0998784
-0.097842
-0.0255171
-0.263784
-0.367823
-0.163279
0.0805497
-0.0826989
0.0271863
-0.239211
-0.248326
-0.14054
-0.0836723
-0.1345
0.302992
-0.104118
-0.169982
0.106469
-0.0489865
0.00369492
-0.0965988
-0.0584509
-0.174935
-0.108824
0.0287612
-0.109506
-0.0165444
-0.263845
-0.0139338
-0.238392
0.0902684
-0.310563
0.0301225
-0.198335
0.0943993
-0.112386
0.0313173
0.0912687
-0.200662
-0.160329
0.201484
-0.0822336
0.0161256
-0.0368827
-0.126484
-0.381092
-0.401772
0.0354412
-0.0821089
-0.0691138
-0.101992
0.0312948
-0.0984955
0.0220593
0.00791696
0.00963952
0.0222105
-0.398473
0.0206266
-0.0119483
0.0159553
-0.0247878
0.0142091
0.080623
-0.0954038
-0.0339395
-0.105641
-0.366077
-0.00899514
-0.0813432
-0.000117236
0.0802697
-0.0250792
-0.265192
-0.334722
0.0422907
-0.0167396
0.160658
-0.0855676
-0.337567
0.0322136
-0.00704203
-0.0837236
0.00231823
-0.273226
-0.410038
0.0207187
0.15167
-0.0896838
0.402188
0.0150227
0.445724
-0.139778
0.0270415
-0.0615879
-0.0301273
-0.206611
-0.337527
-0.0111696
-0.141693
-0.403163
-0.386119
-0.00564367
-0.187579
0.033246
-0.00817929
-0.150084
0.0788991
-0.0269228
0.0285785
-0.406658
-0.237821
-0.0995906
-0.118408
-0.086159
0.030961
-0.164236
-0.18668
0.0160718
-0.0729058
-0.403418
-0.0698691
0.067013
-0.0470014
-0.0152363
-0.0801458
0.0081701
0.0202116
0.0392065
-0.0776958
0.19358
0.0169834
0.234528
-0.402587
-0.0150431
-0.0670586
-0.0473714
-0.120493
-0.100221
-0.184762
0.00848237
-0.0836886
-0.00801996
-0.0151375
0.0377146
0.0899545
0.00404383
-0.0722019
0.0268885
-0.0145771
-0.401216
0.0296501
0.00296275
-0.096756
-0.0153997
-0.0245272
0.00385782
0.440426
-0.117638
-0.380819
-0.363689
-0.198969
-0.399449
0.0182896
-0.0483044
0.23892
0.0626814
-0.177874
-0.374898
0.12837
-0.217151
-0.140825
0.00712164
-0.127686
0.486144
-0.0254082
-0.0521478
-0.00257605
0.00338066
0.0532521
-0.123464
-0.112386
-0.415128
-0.0973572
0.00873474
0.335767
-0.0819865
0.00613263
-0.201953
-0.0134568
0.000348261
0.40158
0.00219606
-0.112069
-0.0175665
-0.125989
-0.406994
-0.203401
0.159718
0.171256
-0.140571
-0.223411
0.167702
-0.101032
0.14517
-0.0875753
-0.354795
-0.127235
0.0055495
-0.19662
-0.315246
-0.0150213
0.0127945
0.0401113
-0.0695497
-0.185311
-0.109968
0.0300056
-0.330828
-0.0229365
0.0482048
0.0194706
0.056295
-0.00285692
0.0249008
-0.200164
-0.384303
0.0450074
0.498126
-0.0477906
-0.0302533
-0.247786
0.220875
-0.233944
-0.116892
-0.312168
0.273315
-0.390755
-0.273029
-0.047608
-0.0833338
-0.0759673
-0.161169
-0.287164
-0.0818477
-0.280457
0.438594
-0.0713557
0.0402109
-0.111414
0.0123152
0.0296892
0.168566
-0.205876
-0.0298313
0.348383
-0.137378
0.0204782
0.025078
-0.374253
0.0180018
-0.157499
0.175848
-0.00806707
-0.386241
0.120653
0.00694552
-0.148439
-0.386405
-0.113129
-0.401135
-0.300389
0.0124573
0.0140201
-0.367694
0.249868
-0.203224
-0.012546
-0.0853095
-0.00253062
-0.016181
0.512066
-0.129403
0.0336817
-0.367922
-0.00882595
-0.0793798
0.121557
-0.0755429
-0.262189
0.0349328
0.145002
-0.0238934
-0.00542911
-0.386802
0.0171087
0.272886
-0.380376
0.0107988
-0.0251385
-0.36195
-0.367227
-0.0400199
-0.0983614
0.0330487
0.0363056
0.0259398
-0.145565
0.118229
-0.313046
-0.0939027
0.383061
-0.0621247
-0.0125868
-0.146121
-0.144802
0.0230776
-0.407078
-0.284224
-0.412671
-0.0569445
0.0315611
-0.384629
-0.0998846
-0.120381
0.0157963
0.00564182
-0.0846092
0.0270122
-0.245933
0.000729816
-0.0112767
-0.0523609
-0.0259774
0.00542716
0.00835257
0.0463092
-0.411263
0.0377048
-0.0148203
-0.138964
-0.166178
0.0291184
-0.00763825
-0.236968
-0.0793245
-0.140244
-0.0288415
-0.320102
-0.00365005
0.00549141
-0.0269754
0.508041
0.473267
-0.0793882
-0.0730989
-0.172525
-0.138506
-0.0585846
0.189684
0.0258783
-0.231396
0.0695156
-0.244465
0.121315
0.189455
-0.344635
-0.167709
0.0137183
0.218562
0.404332
0.0239377
0.407103
-0.317773
0.00566162
-0.114224
0.513626
-0.00327865
0.0320059
0.00480492
0.0016155
-0.394526
0.350817
0.346269
-0.099271
-0.00935086
-0.101034
-0.0210234
-0.0480108
0.00149822
-0.122918
-0.29035
-0.371551
0.352605
-0.00338354
0.2758
-0.0183237
-0.00971719
-0.064038
0.0238308
-0.105919
-0.0411566
-0.353002
-0.308912
-0.136021
0.125652
0.0252605
0.00560609
0.0828461
-0.0303017
-0.171326
-0.256852
0.0110048
-0.165123
-0.351503
0.151174
0.0846251
-0.0763382
-0.336718
-0.0163012
-0.207862
0.00716901
0.0387525
-0.0566483
0.0233215
-0.163902
0.0411204
-0.36985
-0.00498458
0.0372292
-0.0208895
-0.0441721
-0.235924
-0.00336202
0.308862
-0.0110438
-0.375742
0.0308528
-0.0842709
0.122683
0.252507
-0.0334875
0.0146481
0.50674
-0.104829
0.0230353
-0.192908
-0.0752784
-0.168964
-0.0808782
-0.406709
0.200319
-0.200436
0.121866
0.0372066
0.106833
-0.0448815
-0.0934662
-0.123509
-0.0842768
0.023253
0.0233007
0.0158522
-0.106826
-0.329636
0.0233013
-0.408048
-0.179679
-0.172705
-0.411353
-0.402244
0.0427254
-0.105225
-0.408285
0.106135
-0.243812
-0.379504
-0.132677
0.0241729
0.0906175
0.0144242
0.0113058
-0.123747
0.0199023
-0.142968
-0.10119
-0.202555
-0.00995251
0.0266591
0.00784298
-0.199574
-0.4059
-0.146784
0.0711019
-0.0344975
-0.116495
-0.128052
-0.26067
0.211036
0.507171
-0.0827064
-0.0784117
0.0251947
-0.0019514
-0.328292
-0.0232952
0.0119912
-0.163051
0.0165615
-0.150388
-0.00762861
-0.329229
0.00299743
-0.0135859
-0.122541
0.00317515
-0.406781
0.145297
-0.0805792
0.0117926
0.00320474
0.0196227
0.073611
-0.221937
-0.0165918
0.0114498
0.000515586
-0.224182
-0.169431
-0.0758331
-0.0135001
-0.0900147
-0.0973429
-0.148097
0.330019
0.0419954
0.00149377
0.0655239
0.0109924
-0.0496283
-0.034273
0.26816
-0.142941
-0.124527
-0.112932
-0.142113
0.042241
0.149623
-0.381232
0.0323827
0.00794652
0.000909839
0.0332959
-0.364698
-0.147033
-0.335738
-0.304744
-0.0779635
-0.227805
0.111174
0.27333
0.142877
0.0489488
-0.00488797
-0.0577594
-0.0815658
0.0136568
-0.158544
-0.164883
0.483977
0.00669339
-0.0469462
-0.0866446
-0.395794
-0.402841
0.0178159
-0.00967894
-0.123266
0.0313467
-0.0678923
-0.408194
-0.410926
-0.0740576
-0.0807069
-0.00746847
-0.124325
-0.368578
-0.0670514
0.0311954
0.0744974
-0.239644
0.445915
-0.101571
-0.306606
-0.0995293
-0.176091
-0.0172726
-0.0155777
-0.268088
-0.00180889
-0.0397264
-0.238312
-0.0788842
0.512112
-0.172164
0.00381387
-0.00262553
-0.0316459
-0.0745708
-0.142736
-0.0798399
-0.372317
0.000311369
-0.0648167
-0.0864207
-0.0409646
-0.046329
0.0154815
-0.119656
0.331584
-0.0161384
-0.17158
0.0049525
-0.0247755
0.030552
0.0600455
0.39503
-0.367419
0.0118648
-0.180379
-0.267561
0.104004
0.0241257
-0.0853186
-0.00603015
-0.0129599
-0.0531369
-0.0116783
-0.406191
-0.106507
0.057723
-0.352587
0.047208
-0.0797824
-0.0162195
0.0521446
-0.201343
-0.0743404
-0.0481049
-0.122399
0.00142103
-0.410824
-0.0111069
-0.136103
-0.104554
-0.396752
-0.405129
-0.0421967
-0.0770523
-0.0109993
-0.0806104
-0.261737
-0.0552209
0.00394671
-0.0999634
-0.355806
-0.377827
-0.0717737
0.0536649
-0.0951464
-0.218366
0.0240297
-0.100872
-0.163171
-0.343755
-0.0892585
-0.059969
-0.105571
0.00947765
-0.0521276
-0.141835
-0.00692054
-0.00256176
0.0118059
-0.0791714
0.517363
-0.17621
0.0183153
0.0607863
-0.00607066
0.00444039
-0.0629014
-0.154475
0.00299605
-0.406464
-0.0782521
-0.0248324
0.00284013
-0.407675
-0.00614031
-0.0045187
0.052552
-0.0206272
-0.220486
-0.362094
0.0683335
-0.180992
0.0487909
0.0537692
-0.0992299
0.263617
0.216103
-0.392366
-0.0998633
-0.402912
-0.153688
-0.05624
-0.102253
0.218579
-0.0753913
-0.404513
0.000883523
0.00789393
-0.394697
-0.127677
-0.279505
0.0541006
0.475744
0.00974134
0.0668173
0.0807283
-0.0732895
-0.0529475
-0.16403
-0.0594472
-0.218336
-0.0128086
-0.0208717
-0.087237
0.0397066
0.0321393
0.165155
-0.0783151
-0.0692961
-0.176549
-0.0724473
-0.14328
-0.0266295
0.0307672
-0.0981829
-0.0185519
-0.410116
-0.0447777
0.0216821
-0.0971384
0.061858
-0.0854073
-0.168448
0.46805
0.0716751
-0.0249591
-0.365806
-0.0805869
-0.346041
-0.259132
-0.349263
-0.159126
0.458135
-0.128826
0.047903
-0.0699374
-0.386456
-0.140229
0.0490207
-0.0138354
0.466002
-0.0492604
-0.0328609
0.456779
-0.0608442
-0.025415
-0.328457
-0.0509162
-0.0246954
-0.139067
-0.111138
-0.000482624
-0.0404012
-0.0871899
0.0790136
-0.242706
-0.339704
-0.0702175
-0.00423175
0.0466017
0.327982
-0.233257
-0.0877869
-0.199651
-0.109163
-0.264509
0.0402016
-0.256894
-0.0137859
-0.171148
0.0182396
-0.348545
-0.194674
-0.404087
-0.0848921
-0.20909
0.453351
-0.24873
0.0233273
-0.325877
-0.112166
0.0205726
-0.182877
0.510725
0.0194225
-0.111986
0.023284
-0.0243172
-0.34597
0.0364678
-0.23777
0.00921861
-0.0775057
-0.0771762
-0.21863
-0.0171179
-0.317623
-0.13557
-0.223726
0.0162886
0.0473386
0.00973256
-0.18872
0.0243618
0.0743637
-0.0388615
0.034238
0.017645
-0.0848266
0.0680875
-0.379126
-0.243402
-0.0889641
-0.00620832
-0.326777
-0.0144041
0.0274416
0.0273191
0.0118154
-0.1509
-0.0301922
-0.0251275
0.0296105
0.0230691
-0.0699869
-0.400885
0.027298
0.0709537
0.333914
-0.188719
-0.325788
-0.379138
-0.210293
0.00302686
-0.0809668
0.171549
0.00797491
0.38115
0.0157134
-0.221506
0.0174476
-0.125739
-0.227368
-0.18761
-0.0287223
0.00158781
-0.0498707
-0.377289
-0.10173
-0.0213404
-0.0730283
0.0531669
0.287465
-0.0193943
-0.396517
-0.324725
0.0515681
-0.0186111
0.140981
-0.191693
-0.0435401
-0.0613381
-0.347496
-0.0894854
-0.023351
-0.388429
0.0961019
-0.05362
-0.0900392
-0.337434
-0.143021
-0.0903994
-0.0647709
-0.0302436
-0.404014
-0.346336
-0.2309
-0.408285
-0.0645007
-0.377812
-0.18789
-0.0982325
-0.222375
-0.0743291
-0.383179
0.372074
-0.0121618
-0.0772963
0.0327597
0.0783294
0.0810587
-0.353513
-0.130906
0.0132906
0.14796
-0.108971
-0.370214
-0.0316186
-0.106073
-0.0190757
-0.364188
-0.085126
-0.269075
-0.102693
-0.016994
-0.408154
-0.0239401
-0.345136
-0.0474781
0.0522534
-0.322999
-0.0251376
-0.0212975
0.0911209
-0.0339286
-0.0914802
-0.0431259
-0.410707
-0.139318
-0.127858
0.00250026
-0.07744
-0.00668315
-0.0820259
-0.0917217
0.0780676
0.0115872
-0.210992
-0.369477
-0.00903698
-0.0630423
0.0240912
0.00646848
-0.120337
-0.175208
-0.220399
-0.325264
-0.360215
-0.223565
0.0344476
0.0369071
-0.0235877
0.0889661
-0.073038
-0.198516
0.5093
-0.0142122
-0.35607
-0.110226
0.183783
-0.303068
-0.0898811
-0.316753
-0.0159223
-0.0781253
0.0160178
-0.0121503
0.0168517
-0.00706986
-0.382678
-0.129821
-0.322935
0.0166765
0.0345932
-0.126874
-0.407474
-0.175952
0.0241751
-0.207012
-0.286812
-0.0697033
-0.0867472
-0.2271
0.0974478
-0.0441061
-0.074849
0.0126073
-0.00438087
0.118492
-0.261209
0.0359331
0.00931391
-0.0805782
-0.106195
-0.0622202
-0.0503324
-0.200458
0.453439
0.0119395
-0.181327
-0.403657
-0.0214887
-0.00211214
0.205973
0.0128073
-0.0264843
-0.229572
-0.200689
-0.382164
-0.20363
0.0966827
0.191007
-0.00668902
-0.326028
0.0985922
-0.0063807
0.0799167
-0.00766857
-0.28579
-0.0341242
-0.397818
0.00236191
-0.0261808
-0.210012
-0.00749419
-0.0765901
0.102376
-0.407187
0.423582
-0.344915
-0.104396
-0.267334
0.0102128
0.125916
-0.0857245
-0.226772
-0.115551
0.502849
0.00917013
0.00965125
0.00591974
-0.092689
-0.00206375
-0.192901
-0.00495336
-0.0740992
0.0182743
-0.332364
-0.0740855
-0.23427
-0.137283
0.269292
0.023036
0.27291
-0.307497
0.00498718
0.0274224
-0.183391
-0.376824
-0.272629
-0.302628
-0.00753119
-0.346892
-0.379614
-0.0421348
-0.101923
0.0343671
-0.0160012
-0.00946813
-0.0744558
-0.00491554
-0.0832713
-0.0832424
-0.182973
-0.0727438
-0.386732
0.00426771
0.4876
-0.0252202
0.0158867
-0.068322
-0.392655
-0.302528
-0.00686347
-0.0878669
-0.313988
-0.143114
-0.0775195
0.0154058
0.104644
0.057229
-0.017163
-0.0533404
0.00936696
0.253648
0.011867
-0.357997
-0.0632637
-0.078368
-0.0874036
-0.0951765
-0.14944
-0.00455951
0.0214348
-0.402651
0.0118043
-0.0436795
-0.0201892
-0.397076
-0.405716
0.458181
0.0217162
-0.406538
-0.141232
-0.0955367
-0.0069437
-0.194213
-0.00899972
0.252852
-0.228391
-0.0816049
-0.00714836
-0.104697
-0.00891407
-0.0469106
-0.0143984
0.0166005
0.0212016
-0.304331
-0.13762
0.0210509
-0.0236269
-0.313818
0.0159379
0.00914576
0.0268387
0.509524
-0.186676
-0.0995445
0.102967
0.0148573
-0.12813
0.0383892
-0.411699
-0.0883607
0.518571
-0.00697039
0.00445183
-0.0261947
-0.149874
-0.0250684
-0.168597
-0.368554
-0.00669017
0.114949
-0.00915035
0.181039
0.472016
-0.0694291
0.335444
0.411495
-0.0448006
-0.163224
-0.274422
-0.0165291
0.0164225
0.180252
0.076479
0.0327589
-0.0573317
-0.327783
-0.0743325
0.00564992
-0.00901079
-0.331271
-0.110192
0.0724369
0.000779199
-0.0494325
0.297439
0.463624
-0.303429
-0.353496
-0.0158723
0.40948
0.00684354
-0.0488749
-0.0652313
-0.0579353
-0.149955
-0.0509824
-0.349532
-0.0831612
-0.0989903
0.000669546
0.000471519
0.0474939
-0.0159501
-0.0801838
-0.211311
-0.410942
0.00676728
-0.070013
-0.131322
-0.0305953
-0.178374
-0.0428249
-0.31845
0.0264857
-0.168379
-0.239107
-0.038846
-0.109656
-0.0156736
-0.126551
0.290606
-0.0621821
-0.0358334
-0.0772396
-0.0160233
0.124407
-0.0718881
-0.00643811
-0.168181
0.00493381
0.0142005
0.509429
-0.409701
0.0116864
-0.0767727
-0.406168
-0.388137
-0.122522
-0.19547
0.0384403
-0.078361
-0.202841
-0.058996
-0.0702116
-0.407436
-0.400537
0.394325
-0.394728
-0.0171373
-0.00443697
-0.0046517
-0.135085
-0.019166
0.0163537
-0.159846
-0.091641
-0.283994
-0.340117
-0.175694
0.00526404
-0.0770266
-0.0822339
-0.217115
-0.0490733
-0.379144
-0.00673409
0.20943
-0.403009
0.330598
-0.318937
-0.126373
0.02424
-0.297093
0.0263025
-0.254485
0.0321738
0.350997
-0.331515
0.010193
-0.111112
-0.137601
0.0190671
0.0372731
0.00206527
-0.00388059
-0.0868997
-0.337741
-0.0650774
-0.0113649
0.0190992
-0.174843
-0.105818
0.00554828
0.00451328
0.00305208
0.00827336
-0.320644
0.176032
-0.286177
-0.0690102
0.205078
0.0133072
-0.0655887
0.00511064
-0.0737359
0.031018
-0.156302
-0.167985
0.0161131
-0.405432
0.00922405
0.00618399
-0.199533
0.268337
-0.287059
0.00831588
0.0367761
-0.0365605
0.00291146
-0.0842613
0.00855908
-0.0736972
0.110761
-0.000478714
-0.2451
-0.37326
0.433513
0.0801763
-0.0108693
0.45862
-0.0909924
-0.408113
0.249987
0.00614572
0.0570852
-0.22293
0.0964922
0.427496
-0.250905
0.00864992
-0.308883
-0.0694253
-0.352687
0.0417121
-0.0262504
-0.196253
0.0156244
-0.0668784
0.0256613
0.0215896
0.0236699
-0.235031
0.142948
-0.00567902
-0.168831
-0.405779
0.0553153
0.13881
-0.00736638
0.00574393
-0.308781
0.459909
-0.135937
-0.0253297
-0.284885
-0.250125
0.0499858
0.00324504
0.00221871
-0.0880779
-0.00432261
-0.037917
0.0625834
-0.357449
0.0258357
0.0415047
0.220821
-0.359116
-0.360241
-0.155508
-0.244928
-0.204199
-0.407246
-0.0686143
0.0392618
0.0196104
0.00519404
-0.404974
0.0158735
-0.163904
-0.0941257
0.0292563
0.00819417
-0.168446
0.0180472
-0.0826965
-0.210007
-0.0902086
-0.196096
-0.123969
-0.220321
-0.00391135
-0.40938
0.142192
-0.0583826
-0.0978837
0.0734354
-0.404566
-0.307744
-0.136521
-0.10114
-0.000509626
0.00439454
-0.282885
-0.145514
-0.0864575
0.0784759
0.0160271
-0.0724324
0.022403
-0.0240491
0.0780585
-0.0713681
-0.114767
-0.111345
-0.173239
-0.0738468
0.00852727
-0.231455
-0.0772841
0.00779579
-0.0710651
-0.248319
-0.0270255
0.0299702
-0.0645133
-0.0993633
-0.271941
-0.078472
-0.0799076
0.015985
-0.0738953
-0.0155377
-0.089634
0.0314382
-0.282632
-0.237769
0.0288926
-0.13418
-0.00181248
-0.06364
0.130195
-0.391128
-0.0827194
0.0235141
-0.255038
-0.398873
0.0473812
-0.23371
-0.390835
-0.00900563
0.426288
0.0971111
-0.217403
-0.331534
-0.00907827
0.0290185
-0.00219572
-0.0460801
-0.0637152
0.0204898
-0.105089
-0.405552
-0.178412
0.00362472
0.048035
0.0191548
0.0304169
-0.114182
0.0117232
-0.408616
-0.101182
0.00440952
-0.284468
-0.0627065
-0.140484
-0.080496
-0.0856028
-0.0275075
-0.00227897
0.0699325
0.00388668
0.00937431
-0.317141
0.00811636
0.131427
-0.0880003
-0.149691
-0.164405
-0.171908
0.130067
-0.0104087
-0.0741284
-0.0822172
0.0202721
-0.110878
0.0188832
0.0299285
0.0475303
0.00719909
0.00512771
-0.0723965
0.0220053
-0.295875
0.0479951
-0.362603
-0.220421
0.0289533
-0.22796
0.0246718
-0.0840445
-0.113394
-0.363979
-0.0788031
-0.0957869
-0.0966878
-0.267299
-0.0787009
-0.157299
-0.0769042
-0.00506828
0.0141879
-0.0115454
-0.20558
0.123528
-0.230192
-0.0766958
-0.0698406
-0.00355163
0.0472502
0.0258968
0.0232769
0.108211
-0.0649672
0.126799
0.10749
0.0306771
0.0362815
-0.0366282
-0.217423
-0.00403146
-0.0454759
-0.0803827
-0.0783175
-0.288256
0.404798
-0.0209178
0.322551
-0.0160774
-0.0138321
0.233835
-0.193755
0.00456905
-0.310967
-0.0361595
-0.225918
0.0231401
-0.0868822
-0.075497
-0.0288207
-0.0102557
-0.144205
0.0289288
0.0381498
0.00608601
-0.344949
-0.111116
0.289826
-0.165771
0.0267026
-0.162792
-0.0876632
0.171698
-0.352251
0.302126
0.113407
-0.231613
0.0163075
-0.0335257
0.015563
-0.0785596
-0.412313
-0.009839
-0.019326
-0.0888815
-0.0730126
-0.0723926
-0.411601
-0.139962
-0.0734962
0.137848
-0.0107648
-0.221782
0.0235484
-0.216171
-0.0476041
-0.0142098
-0.0233954
-0.250024
-0.117264
-0.0026505
0.00183789
-0.0418559
0.408384
-0.185151
-0.00290321
-0.0159783
-0.0145006
-0.122942
-0.244416
-0.401256
-0.0138791
0.0349965
-0.143734
-0.0177352
-0.235305
-0.186633
-0.190618
-0.081227
-0.0348366
0.0239392
0.0347826
0.491062
0.0246004
-0.23284
-0.0798297
0.05206
0.0144134
-0.123907
-0.0413719
-0.0818248
-0.0814978
-0.108639
-0.130063
0.028423
-0.00194984
-0.404888
0.318716
-0.406172
-0.00949728
-0.297059
-0.00253506
-0.0370439
0.0219598
0.0267472
0.0248564
0.0234333
-0.246851
-0.0135997
-0.114325
-0.0611634
0.044774
-0.0889945
0.00608514
-0.0865674
-0.21027
0.0234238
-0.380104
0.00548873
-0.39049
0.151439
-0.169716
-0.304484
0.0244561
-0.36991
-0.0730255
-0.0159482
-0.201238
0.00733002
-0.0991871
-0.0203772
0.0378909
-0.155466
0.00397639
0.11815
-0.335675
-0.244508
0.0286198
-0.0713842
-0.271487
-0.0675589
-0.00541769
-0.0867517
0.500811
-0.0379267
-0.121245
0.0403666
-0.112759
-0.114767
-0.0748705
-0.3373
-0.198819
-0.015122
0.0152688
0.169628
-0.0703325
-0.0780658
-0.301924
0.0409495
-0.330105
0.0119047
0.0455559
0.0215411
-0.174245
0.0105396
0.0230219
-0.273347
-0.133076
-0.0688616
-0.240567
0.0246594
-0.286694
-0.0063727
-0.0792716
0.263432
-0.0212183
-0.0991499
-0.288201
0.444811
0.0508273
-0.275099
-0.0037669
0.0150044
-0.0158591
0.198077
-0.301729
0.00732629
0.218726
-0.164898
0.492267
-0.265654
-0.0972261
0.189689
-0.0658786
-0.0996383
0.0241662
0.00424119
-0.0144118
0.122792
-0.275277
-0.14089
-0.10028
0.121333
-0.290922
0.00414564
0.0117665
0.00634099
-0.156871
-0.115966
-0.131907
-0.116843
0.117307
0.0361751
-0.0878323