/*--------------------------------*- C++ -*----------------------------------*\
| =========                 |                                                 |
| \\      /  F ield         | OpenFOAM: The Open Source CFD Toolbox           |
|  \\    /   O peration     | Version:  v2012                                 |
|   \\  /    A nd           | Website:  www.openfoam.com                      |
|    \\/     M anipulation  |                                                 |
\*---------------------------------------------------------------------------*/
FoamFile
{
    version     2.0;
    format      ascii;
    class       surfaceScalarField;
    location    "400";
    object      phi;
}
// * * * * * * * * * * * * * * * * * * * * * * * * * * * * * * * * * * * * * //

dimensions      [0 3 -1 0 0 0 0];
oriented        oriented;


internalField   nonuniform List<scalar> 
81198
(
-0.140867
0.00594497
0.134923
-0.0979013
0.0480428
0.0498585
0.0810334
-0.25048
0.169447
0.00866072
-0.00492821
-0.00373251
0.00328078
-0.00805312
0.00477235
-0.00231424
0.00227744
3.67994e-05
-0.000599734
0.000534974
6.47594e-05
0.0956048
-0.0581214
-0.0374834
0.0865662
-0.0635852
-0.022981
-0.226174
0.061364
0.16481
-0.0459289
0.0868891
-0.0409602
3.26307e-05
-0.00134178
0.00130915
-0.0142256
0.0212179
-0.00699225
0.23821
-0.161886
-0.0763244
0.0530923
-0.0159444
-0.0371479
-0.0823964
0.0625558
0.0198406
0.0526472
0.0429576
0.0323324
-0.0573493
0.0250169
-0.0575689
-0.168605
0.0492179
-0.0739723
0.0247544
0.243741
-0.162708
0.146632
-0.0882988
-0.0583328
-0.0894406
0.178155
-0.0887149
0.00493625
-2.88346e-05
-0.00490741
0.129068
-0.282496
0.153428
0.0763807
-0.0284665
-0.0479142
0.0536879
-0.194555
0.0513748
-0.0850432
0.0336683
0.00254122
-0.00392195
0.00138073
0.0807544
-0.170195
0.0440291
0.0323516
0.0237012
-0.0514537
0.0277526
-0.0984269
0.245706
-0.147279
-0.00173397
-0.00420145
0.00593542
0.00720985
-0.0387525
0.0315427
0.274991
-0.116257
-0.158734
-0.068033
0.00279799
0.065235
-0.0539611
-0.0439401
0.154953
-0.102888
-0.0520645
0.0529037
0.0937279
-0.00235278
-0.00600565
0.00835843
-0.0705202
0.0419057
0.0286145
-0.302394
0.112385
0.190009
-0.148004
0.17217
-0.0241659
0.0137291
0.00215157
-0.0158807
0.083367
0.0331681
-0.116535
0.0430346
-0.070306
0.0272715
-0.0200485
-0.0322329
0.0522814
0.0882808
-0.228313
0.140032
0.0866938
-0.0866
-9.38115e-05
-0.255785
0.157358
-0.0649097
0.20661
-0.1417
0.0755358
0.0518229
-0.127359
-0.00431182
0.0180409
-0.0872143
0.04848
0.0387343
-0.157552
0.349526
-0.191974
0.0152737
0.00703149
-0.0223052
-0.0637838
0.0288015
0.0349822
0.0688086
-0.03308
-0.0357286
-0.025182
-0.00612113
0.0313032
-0.202218
-0.100176
0.0319741
0.0775019
-0.109476
0.156235
0.0819753
-0.00410922
0.00763875
-0.00352953
0.150196
0.0522084
-0.202404
-0.060241
-0.0221554
0.00889918
-0.0150843
0.00618509
0.0504943
-0.0392496
-0.0112447
0.00734958
-0.00621908
-0.0011305
-0.00835635
0.00145203
0.00690432
-0.219686
0.154777
-0.03501
0.0422198
0.23547
-0.085274
0.0233476
-0.0392569
0.0159093
-0.0859877
-0.0484794
0.134467
0.0561863
0.0566256
-0.112812
0.114087
-0.0438967
-0.0701899
-0.00876705
-0.0225635
0.0313306
-1.54671e-05
0.00290445
-0.00288898
0.024095
-0.00635893
-0.0177361
0.343106
-0.229201
-0.113906
-0.0036318
0.00812884
-0.00449704
-0.0105326
-0.137472
0.0199152
-0.0249106
0.00499542
-0.0625955
0.121517
-0.0589211
0.0377264
-0.0143789
0.00542086
-0.00383838
-0.00158248
-0.0152759
0.0621859
-0.0469099
0.0321194
-0.0165684
-0.015551
0.169874
-0.0878245
-0.0820498
-0.00530518
0.00530518
0.118122
-0.0707543
-0.0473674
0.0330348
-0.0711222
0.0380874
0.0794571
-0.0250879
-0.0543692
0.0594534
-0.0913486
0.0318952
0.00238687
-0.00299884
0.000611971
0.0225238
0.0115378
-0.0340617
0.0439319
0.0154159
-0.0593478
0.0911352
0.0385839
-0.129719
0.0794238
0.00726996
-0.0457606
-0.101902
0.147662
-0.00228212
-0.0023498
0.00463192
-0.12576
0.0532746
0.0724851
0.140963
0.0951393
-0.236103
0.05421
-0.0305088
0.0381336
-0.0744846
0.036351
0.0658597
-0.00707335
-0.0587864
-0.0601479
0.044872
-0.0592324
0.115419
0.00250029
0.024372
-0.0268723
-0.0181724
0.00970143
0.00847099
0.132964
0.109167
-0.242132
0.0943049
0.0755694
-0.0657077
0.0423156
0.0233922
-0.110762
-0.0386159
0.149378
0.00115852
-0.00535191
0.00419339
-0.00618101
-0.00217534
-0.00671426
0.00260504
0.00472336
-0.00645733
0.0700462
-0.0370114
0.00530933
0.00232942
-0.196163
-0.0770721
0.273235
-0.00840558
0.00895855
0.0166695
0.0790345
-0.095704
-0.249241
0.166831
0.0824104
-0.0127136
0.0026683
0.0100453
-0.0577073
-0.043971
0.101678
-0.128464
-0.120777
0.00403118
-0.00265038
-0.0013808
-0.0143848
0.020024
-0.00563924
0.203699
-0.319155
0.115456
0.168759
-0.106735
-0.0620241
-0.0523152
0.112066
-0.0597508
0.158667
0.116324
0.0252886
0.0928331
-0.0258288
0.0206748
0.00515406
0.173933
0.0268777
-0.200811
-0.0187146
0.0335187
-0.0148041
0.116058
0.104467
-0.220525
-0.205518
0.124966
0.0805524
0.0101349
-0.00264759
-0.00748733
0.0144754
-0.0354267
0.0209513
-0.114295
0.0619796
0.0329438
0.0204891
-0.0534328
0.109515
-0.048505
-0.0610101
0.0143785
0.0361158
0.00167667
-0.00170839
3.17201e-05
0.00239637
-0.0704293
0.0191458
-0.0351176
0.0159718
0.0686755
0.0879321
-0.156608
0.0201154
0.0148207
-0.034936
0.0541547
-0.138224
0.0840694
0.0335892
0.0388076
-0.0723968
0.0478982
0.0315589
-0.0850703
0.16371
-0.0786401
0.031572
-0.0279545
-0.00361751
-0.106296
0.0603675
0.0215906
0.00998142
-0.0168591
0.0412361
-0.024377
0.128055
0.0293726
-0.157427
-0.0242262
-0.0346616
0.0588878
-0.0285675
0.0915543
-0.0629868
0.0064394
0.00369552
-0.00029548
0.00178228
-0.0014868
0.0920208
-0.0406459
-0.200362
0.11965
0.0807124
0.333215
-0.189169
-0.144046
0.280479
-0.164449
-0.116029
-0.0107604
0.00990232
0.000858088
0.177179
0.0982091
-0.275388
-0.0564107
0.0553151
0.00109564
-0.00963378
-0.0161951
0.0166488
0.117164
-0.313327
-0.0658843
0.0938729
-0.0279886
0.249103
-0.160042
-0.0890611
0.00759857
-0.0195457
0.0119471
0.0742114
-0.115971
0.0417598
0.0676583
0.0408323
-0.108491
0.00733964
-0.00969242
-0.00129147
0.00398435
-0.00269289
-0.088191
-0.148428
-0.00383758
0.00214264
0.00169495
0.112284
0.0107438
-0.123027
0.283953
0.0318891
-0.315842
0.00361178
-0.00361178
-0.0706521
-0.0960605
0.166713
-0.11782
0.0918478
0.0259726
-0.206205
0.0443194
0.0362615
-0.0644444
0.0281829
0.0996324
0.0129748
-0.0320074
0.0190326
0.00669442
0.000106789
-0.00680121
0.119628
0.115842
0.00758234
-0.00777034
0.000188003
0.000695018
0.00098165
-0.146504
0.166008
-0.0195036
0.0320875
-0.0977858
0.0656982
-0.0216786
0.00492367
-0.00490732
-1.635e-05
-0.102491
0.0796574
0.0228336
-0.0118105
-0.000903121
0.0360829
0.0331679
-0.0692508
-0.0836117
-0.0421481
0.0340646
-0.121588
0.0875232
0.114952
-0.0808871
0.0110657
-0.0279496
-0.141198
0.0786023
0.122388
0.0325647
0.195026
0.14808
-0.211801
0.00777353
0.204027
-0.168203
-0.0380019
-0.241205
-0.0453926
0.121032
-0.0756395
0.0948227
-0.0353692
-0.0243579
-0.0309792
0.0553371
0.0268611
-0.0214465
-0.00541465
-0.023622
-0.00863043
0.0322524
-0.0104544
0.000609264
0.00984513
0.0671527
-0.213657
-0.0409655
0.103508
-0.0625421
-0.0142462
0.0295199
-0.0452734
-0.0252468
-0.167106
0.122191
0.0449154
-0.0222099
-0.00107085
0.0232808
0.110443
-0.0799859
-0.0304575
0.253663
-0.283976
0.0303134
0.0549258
-0.0225935
0.255851
-0.162479
-0.0933719
-0.0440893
0.0272302
-0.100034
0.0423266
-0.0299493
-0.0267462
0.0566955
-0.00218065
0.00218065
0.00709373
0.276859
-0.0996642
0.101449
-0.00178498
-0.0172844
0.0398082
-0.0527933
-0.00361746
0.275653
-0.00676233
-0.268891
0.0112528
-0.0267066
0.0294287
0.246224
-0.0395088
-0.127598
-0.0973675
0.0519749
0.0199931
0.00191758
-0.0219107
0.0726568
-0.0551775
-0.0174794
-0.0997716
-0.0426741
0.142446
-0.151337
-0.00544651
0.00857182
-0.00270395
-0.00586787
-0.0532501
0.0432743
0.00997583
-0.280691
0.234161
0.0465295
0.0351522
-0.0593784
0.03557
0.0370868
-0.00173855
0.00147119
0.000267366
0.0256056
-0.00738845
-0.0182171
-0.278596
0.167104
0.111492
0.0817358
-0.167724
-0.329384
0.216095
0.113289
-0.00650225
0.00070567
0.00579659
0.125366
-0.117095
-0.00827088
-0.0677323
0.0330269
0.0347054
0.124452
-0.0352093
-0.0892426
0.0289557
-0.0661592
0.0372035
-0.00160624
0.00372083
-0.00211459
0.138086
-0.0846302
-0.0534555
0.00491496
8.71364e-06
-0.0659633
-0.0286156
0.0945789
-0.0959072
-0.108364
0.204271
0.00253138
-0.00305763
0.000526247
-0.0856449
-0.195046
0.0192879
0.0606808
-0.0799687
-0.0695339
-0.130828
-0.0369189
0.0234773
0.0134416
0.052736
-0.0297838
-0.0229522
0.0759625
0.0271734
-0.103136
-0.149064
0.155009
-0.145301
-0.00603557
-0.0719199
0.17643
-0.10451
-0.0189881
0.0929104
-0.0739222
-0.00536445
0.0252796
0.168764
-0.185664
0.0168992
-0.0253381
0.0683726
0.0423005
-0.274908
0.232608
-0.0991916
0.11957
-0.0203781
0.162287
-0.0932569
-0.0690297
0.00769871
-0.00011637
0.00514888
0.00342294
0.00792523
-0.00167771
-0.00624752
0.0361532
0.281063
-0.0773639
0.051244
0.0582712
-0.030797
0.00606445
0.0247325
-0.00183412
9.55634e-05
-0.00727563
0.00364383
-0.14787
-0.130727
-0.108941
0.265686
-0.156745
0.0033812
0.0547956
-0.0581768
0.279113
-0.0254499
0.012826
0.0140352
0.0230067
0.0297293
-0.191837
0.0810752
0.0208389
-0.0464768
0.0256379
0.0550691
-0.0228749
-0.0321942
0.053331
-0.144931
0.0916002
0.00873249
-0.220533
-0.278303
0.282399
-0.00409577
-0.0511403
-0.0949438
0.146084
0.0538571
-0.145599
0.0917417
0.0600418
0.0260025
-0.0860443
0.00216264
-0.00226628
0.000103639
-0.0752715
0.143947
-0.205267
0.115014
0.090253
0.0183193
0.00728632
-0.0789112
0.044103
0.0348082
-0.00614601
-0.00192197
0.00806798
-0.124323
0.0246586
-0.00929464
0.00496142
0.00433322
-0.000585004
0.00311638
0.0262918
-0.015039
0.0514516
-0.054012
0.0025604
0.0412606
-0.0677051
0.0264444
-0.0665896
-0.0849194
0.151509
0.0374656
-0.077069
0.0396033
0.0904714
-0.212546
0.122075
-0.0279498
0.0562291
-0.0282793
0.0656678
0.0263529
-0.0108429
-0.0157844
0.0266273
0.0872273
-0.0760916
-0.0111358
-0.00380015
-0.0348486
0.0386487
0.1137
-0.209608
-0.00400555
0.00271409
0.083103
-0.0664334
-0.217139
0.00128969
0.215849
-0.105413
0.0895392
0.0158737
-0.025858
0.166821
-0.0884408
0.0598733
-0.307635
0.0293319
-0.014221
0.0141439
7.70794e-05
-0.0124498
-0.0806247
0.0930745
0.00574936
-0.00386774
-0.00188162
0.0253213
-0.0447147
0.0193935
-0.0604415
-0.0445964
0.105038
-0.0466714
-0.0322397
-0.0398283
0.115364
0.00901643
-0.00640274
-0.00261369
0.0257349
0.0996312
0.152502
-0.0986452
0.00999093
-0.066637
0.056646
-0.0429922
-0.0436078
0.0527112
-0.0318723
0.0553282
0.00495185
-0.0602801
-0.0183881
-0.0274907
0.0458788
0.00764448
-0.00764448
-0.279585
0.170644
0.0356929
-0.0622291
0.0265362
-0.0760953
0.0409636
0.0351317
-0.0878806
0.169255
-0.0813749
-0.304233
0.102015
0.0425278
0.0229965
-0.0655243
-0.0606854
-0.140601
0.201286
0.175871
-0.0619031
-0.113967
-0.202443
0.137865
0.0645779
-0.0547242
0.0303664
0.0539404
-0.0949059
0.132901
-0.0765528
-0.0563482
-0.00139257
0.00291426
-0.0015217
0.0421142
-0.0243037
-0.0178104
-0.0684222
0.12221
-0.0537883
-0.203708
0.143022
-0.021878
-0.113684
0.0678135
0.0458706
-0.106305
0.225932
0.152709
-0.0999086
-0.0528004
0.0890782
-0.140218
0.224696
-0.134224
0.0642563
-0.130846
-0.0904364
0.0804191
0.0100173
0.00283801
-0.0244069
0.0215689
-0.0959883
-0.084807
0.180795
0.0703235
-0.0295057
-0.0408179
-0.0425761
0.118539
-0.000637729
0.000146842
0.000490887
0.00268521
-0.00298069
-0.0405126
0.0533643
-0.0128517
0.0148974
0.0202766
-0.035174
-0.0355414
-0.0177087
-0.0308617
0.0669446
-0.0268846
-0.00528986
0.0321744
0.00919021
-0.00154573
0.211197
0.0281486
-0.00815553
-0.0227031
-0.00118813
0.0238913
0.020502
-0.0168577
-0.0036443
0.0392027
0.029606
-0.100219
0.0877693
-0.189359
-0.114874
-0.00156195
0.00526126
-0.00369931
0.00467354
-0.00473252
5.89788e-05
0.0482535
0.02207
0.0206818
0.0175473
0.00947993
-0.0270272
-0.076511
0.0767111
-0.000200097
0.0365673
0.0654139
-0.101981
0.00745288
0.0478154
-0.0552683
0.000975025
0.00500695
-0.00598198
0.0316952
-0.0677222
0.0360271
-0.0586285
0.0306787
-0.0222013
-0.0135325
0.0357338
-0.349424
0.234057
0.115367
-0.0146118
0.0295092
0.0851118
-0.235984
0.150872
-0.00505554
0.0489875
0.0443929
-0.0524006
0.00800774
-0.17536
0.0793716
-0.125601
-0.0799169
-0.0196823
0.0601431
-0.0404608
-0.129675
0.236579
-0.106904
-0.000338256
0.00287948
0.0893829
-0.00433331
-0.0850496
-0.132118
-0.0340302
0.166149
-0.074283
0.160278
-0.0859948
-0.0319715
0.0976393
-0.00828688
0.0373916
-0.0291047
-0.000285741
-0.000313993
0.0266648
-0.0803734
0.0537085
0.0438531
-0.0795536
0.0357004
-0.0024153
0.000904416
0.00151088
-0.00781182
0.00166581
-0.0100759
0.0115422
-0.00146631
0.094263
-0.0313115
-0.0629515
0.00773407
-0.00773407
-0.0168603
-0.050888
0.0677483
-0.00574539
0.00506116
0.000684237
-0.0242457
-0.0287926
0.0530383
-0.0026167
-0.00667794
0.0840561
-0.0240143
0.0896442
-0.0724107
-0.0172335
-0.138318
0.0379202
0.100397
0.0331839
-0.182248
-0.0316198
0.020777
0.0418656
-0.00527711
-0.0365885
0.0622778
-0.0204123
0.00092517
-0.00231774
0.24567
0.0827362
-0.328406
0.262575
-0.0957439
-0.242066
0.0889953
0.15307
0.00146499
-0.00155657
9.15788e-05
0.0594744
-0.0560932
-0.183521
-0.00649943
0.190021
-0.000888225
0.128943
-0.0288414
0.0624306
-0.0195733
0.0224113
0.00182405
0.0496275
0.0192611
0.0253843
-0.0446454
0.0137811
0.0283331
-0.0552278
0.0416831
0.0135447
0.00649318
0.00216754
-0.00737497
0.0188578
-0.0114828
0.0144659
-0.0667366
0.0522707
0.00854208
-0.225681
-0.00653481
0.0899018
0.0373919
-0.0713375
0.0339456
0.0364424
-0.219964
-0.131626
0.237211
-0.105585
-0.00278911
-0.0079713
-0.0684764
-0.0744984
0.142975
0.105931
0.0913589
-0.19729
0.0242768
0.0487229
-0.0729997
-0.0267067
-0.0280175
0.115584
-0.134756
0.0191713
-0.105977
0.0469298
0.0590471
-0.0649831
0.0462692
0.0187139
-0.00616142
-0.00178417
0.00794559
3.16204e-05
-0.0053368
0.0768644
-0.0664526
-0.0104118
0.158028
-0.278187
0.120159
-0.00436999
0.00430802
6.19622e-05
0.14047
-0.0863158
-0.0861699
0.263349
-0.0370546
0.0134327
-0.000811652
0.000792518
1.9134e-05
0.118383
-0.00279876
-0.0849805
0.0213953
-0.161359
0.00204321
0.159316
0.00236969
-0.0250728
0.0183565
0.058019
-0.0763755
0.0543135
-0.186432
-0.0287216
-0.0244128
0.0497341
-0.0043805
-0.0145071
0.0188876
0.292739
-0.163671
-0.0288266
-0.00166327
0.0304899
-0.00721859
-0.0161211
0.0233397
0.237458
0.0889363
-0.326394
0.256108
-0.145225
-0.110883
0.0583126
-0.118754
0.00505211
-0.00389359
-0.160985
0.131285
0.0297003
0.0367225
0.00400051
-0.040723
-0.102921
0.0615843
0.0413362
-0.0101856
0.0545785
-0.199189
0.154602
0.0445869
-0.0588377
0.0241761
0.00478057
-0.00163366
-0.00314691
-0.0536285
0.02847
0.0251585
-0.0233981
-0.226037
0.178428
0.0476085
-0.0421037
-0.0230572
0.0651609
0.122625
0.0311411
-0.153766
-0.00538261
0.0356299
-0.0302473
-0.0501038
0.0258581
0.157482
-0.278872
0.12139
0.135973
-0.155139
0.0191652
0.0671977
-0.0444946
-0.0227031
-0.000954356
-0.00146094
0.121737
0.000705765
0.0485121
0.00234092
-0.00673459
0.00439367
0.00577323
-0.0199989
0.0987323
-0.209269
0.110537
-0.00556176
0.0131603
-0.183497
0.117696
0.0658005
-0.0198948
0.0621756
-0.0422808
-0.0622394
0.11907
-0.0568302
-0.0466145
-0.114371
-0.099008
-0.0230648
0.122073
-0.130125
-0.0751423
-0.0777284
0.00121738
-0.00888006
0.0386318
-0.0297517
-0.0126761
0.0190491
-0.00637304
-0.00449872
-0.000408603
-0.131405
-0.0450064
0.0211949
0.0238114
0.102445
-0.0658781
0.0366887
-0.0222133
-0.102258
0.183181
-0.0809237
0.204538
0.058037
0.248271
-0.161512
-0.0867593
0.00116857
-0.195389
-0.0199419
0.0624697
-0.0115607
0.0774204
0.234256
-0.138937
-0.0953191
-0.0758344
-0.0598572
0.135692
0.0214187
0.0259452
-0.0473639
-0.00136066
-0.00247693
-0.135679
0.101212
0.0344671
0.00225064
0.00178054
-0.00111112
-0.00539114
0.253096
-0.0956136
-0.000138712
0.000174177
-3.5465e-05
0.203285
-0.0973537
0.0149205
-0.0333085
-0.118128
0.0415551
0.0765734
0.0295514
-0.0562581
-0.00237886
-0.0264477
-0.0566145
-0.0154898
0.0721043
0.0261764
0.0383609
-0.0645374
-0.00416022
0.00834817
-0.00418795
0.00493625
-0.0254536
-0.00396751
-0.00534956
0.00931707
-0.0841651
-0.157901
-0.269195
0.276288
-0.0661833
0.046501
-0.0384696
-0.0675073
-0.00516305
0.000664329
-0.0575795
-0.103475
0.161054
-0.000246056
-0.00549934
-0.0365736
-0.0915952
0.128169
0.0761468
0.0765623
0.0749052
-0.0357026
0.214847
-0.116115
-0.0732763
-0.0321366
0.00621566
-0.0194954
0.0132797
0.0567334
0.048096
-0.104829
0.0165579
-0.0466101
0.0300522
0.00600315
-0.00366224
0.0246046
-0.0333716
0.00160396
0.022491
-0.00212459
-0.000189646
0.00604054
-0.0134155
-0.252983
0.0656328
0.18735
0.139453
0.108294
-0.247748
0.128688
-0.0658017
-0.0628859
-0.167958
-0.0580786
-0.140533
0.0764231
0.0641099
-0.0466868
0.0341058
-0.0629472
0.0406176
-0.0989332
0.0583156
-0.0381894
0.0591182
-0.0209288
0.114154
-0.0557616
-0.0583928
-0.0893094
-0.0490081
0.000877165
0.00602294
-0.00690011
0.0715088
0.0227541
-0.0559746
-0.0192035
0.0751781
-0.01931
0.131594
0.00197431
-0.00198675
1.24456e-05
-0.00185332
0.000120736
0.00173259
0.209036
-0.153667
-0.0553692
-0.229273
-0.0629067
0.292179
-0.00733404
0.00317382
0.00263939
0.00310997
0.150317
-0.0809352
-0.0693819
0.122276
-0.000205934
-0.000328438
0.000534372
-0.00250921
-0.00200297
0.00451218
0.0191964
-0.0235769
0.000514133
-0.000581391
6.7258e-05
0.0398134
0.0549148
-0.0947282
-0.114458
0.0892635
0.0251941
0.0685659
-0.0304323
-0.0586188
0.0483537
0.0102652
0.129016
0.0468541
0.0671344
-0.296407
0.0135244
-0.0395842
0.0260598
0.0771036
-0.0141591
-0.0629446
-0.0564021
-0.0617263
0.070569
0.062332
0.0322126
-0.0581888
0.0259762
0.0132302
0.0126771
-0.0259072
0.0174855
-0.28668
-0.123163
0.262616
-0.00505074
0.00502191
-0.0389617
-0.0224514
0.0614131
0.042291
-0.0341838
0.0154692
-0.0168524
-0.0165267
-0.0420921
-0.00229613
0.00275632
-0.000460193
0.00180738
-0.00201332
-0.0346073
-0.0373411
0.0719483
0.0416788
-0.062696
0.0210172
-0.123444
-0.0600521
0.0619656
-0.150964
0.0889983
-0.0485777
0.0560306
0.171531
0.0375057
0.0116622
-0.0772924
0.0656302
-0.0469845
0.0417074
-0.0508447
0.00512319
0.0457215
0.105913
-0.065295
0.0137614
-0.00486219
-0.0638342
0.0128245
0.0510097
0.107823
-0.19089
0.0830666
-0.0551556
-0.00867852
0.27753
-0.170941
-0.106588
0.159486
-0.128395
-0.0310909
-0.000165141
-0.0267194
0.0166616
-0.0133205
-0.00334106
-0.00511024
0.00104221
0.00406803
0.0641617
-0.0481854
-0.0159763
-0.010314
0.00617158
0.00414243
-0.201761
-0.0512216
0.0337091
0.0285687
-0.00186855
-0.000237056
0.00210561
0.022703
-0.0280675
0.113358
-0.221624
0.108266
0.094579
0.153102
-0.247681
0.00154891
0.00164256
-0.00319147
0.0184495
0.0405591
-0.0590086
0.0737052
0.140118
-0.297737
0.157619
-0.0314053
-0.103837
0.135242
-0.232642
0.0789751
0.00460321
-0.00460321
-0.0257373
0.0282376
-0.20278
0.171794
0.0309867
0.124621
-0.197009
0.0723883
0.00669442
-0.0285
0.0626058
0.141105
-0.0791392
0.212943
0.0675362
-0.178794
0.0765367
0.0871375
0.0022454
-0.115997
0.0866457
0.0293509
-0.0487364
-0.0611882
0.109925
0.0701451
-0.0439687
-0.00818542
3.30967e-05
0.00815232
0.0342251
-0.0150793
-0.0549595
0.0957918
0.234812
-0.121454
-0.0755454
0.183927
-0.108382
0.07722
0.0850666
0.0475643
-0.0644246
0.269347
-0.00104183
0.00215945
-0.00111762
8.27791e-05
-0.000373809
0.00029103
-0.0458224
-0.071998
0.175874
0.0477896
-0.223663
0.219415
-0.125011
-0.0944048
-0.0225028
0.0497022
-0.0271994
-0.00650965
0.0135411
0.220216
-0.144537
-0.0756792
0.138113
-0.0781599
-0.0599527
-0.0016803
-0.00292664
0.00460694
-0.130089
0.111848
0.0182401
-0.0810268
0.0942217
-0.0131949
-0.0109363
-0.00517846
0.0161148
-0.0465455
0.0169692
-0.0180401
-0.000244122
0.00331021
-0.00306608
0.0658808
-0.0369251
0.184606
-0.0922707
0.115885
-0.0236144
0.00458056
-0.00610286
0.0015223
0.0118966
-0.0370786
0.144581
-0.00860732
-0.00498081
0.0026987
0.118815
0.0750711
-0.193886
0.00587577
-0.00129521
-0.0138303
0.087455
-0.0736248
0.0606733
0.059867
-0.12054
0.059573
-0.132505
0.072932
0.0526591
0.167447
-0.220106
0.00372298
0.00110428
-0.00482726
0.13294
-0.249158
0.116218
0.0596725
-0.0286995
-0.030973
0.00164334
1.44272e-05
-0.00165777
0.072082
-0.0580635
-0.0140186
0.0962208
0.0722784
-0.168499
-0.0255904
0.0391148
-0.00225409
0.00553487
-0.103837
0.00464558
-0.00804797
0.00923568
-0.0011877
0.0753139
0.00155058
0.00990885
-0.00557199
-0.00433686
-0.00421137
0.00515557
-0.000944201
0.00696247
-0.00419581
-0.00276666
0.26273
-0.12979
0.0595869
-0.0273214
-0.0322656
-0.096621
-0.0445768
-0.114741
0.0833359
0.249848
-0.0819164
-0.167932
0.0881713
0.00757794
-0.00757794
-0.00414499
-6.6376e-05
0.0134084
-0.0122827
-0.00112567
-0.0327911
-0.0224367
-0.0126313
0.00704809
0.00558321
0.176218
0.0380244
-0.214242
-0.0528421
0.0849297
0.0882977
-0.236336
0.148039
-0.109399
0.165395
-0.055996
0.031091
-0.0181161
0.0265784
-0.0318682
0.00275464
-0.0384731
0.0357184
-0.229451
-0.0596603
0.289112
-0.0018516
0.000809764
-0.032367
0.0269843
0.000401016
-0.000775423
0.000374407
0.0630833
-0.0317726
-0.0313107
-0.0111695
-0.0222454
0.0334149
0.0290534
0.0340299
0.0281595
0.0270976
-0.0552571
0.00220431
-0.00217167
-0.00586925
0.00804437
-0.00217512
-0.044245
0.0217421
-0.00131206
-0.00537972
0.00669178
-0.234356
0.104681
0.0289509
-0.0157207
-0.0103077
0.0413223
-0.0310146
-0.0745615
0.0393178
0.0352438
0.00385016
-0.013926
0.00198021
-0.0146563
0.0027324
0.0126862
-0.0154186
0.049083
0.0418235
-0.0909065
-0.01562
-0.000712576
0.0163326
0.0718064
-0.0286165
-0.0431899
-0.00653121
0.0240785
-0.0261327
-0.00478666
0.0309193
0.140606
-0.0637649
-0.0768411
-0.0985434
0.223962
-0.125419
0.138707
-0.207698
0.0689914
0.242933
-0.154635
0.00648295
-0.00204367
-0.00443927
-0.00885822
0.0641864
-0.0292938
-0.0851638
0.226592
0.103317
-0.247363
0.144046
0.14251
0.0634619
-0.205972
0.0628557
-0.0340542
0.151531
0.0967397
0.00274242
-0.00430437
0.0637085
-0.0454155
-0.0182931
-0.00367275
0.00464056
-0.000967812
0.176273
-0.0800525
-0.0245751
0.00722251
-0.00624749
-0.138879
-0.116906
0.00337093
0.00359155
-0.0302632
-0.00665573
-0.00273047
-0.00398379
0.00356779
-0.00239308
-0.00117471
-0.19362
0.290885
-0.0972644
-0.0476974
-0.0270133
0.0747107
-0.0406274
0.07995
-0.0393226
0.0660649
0.102694
-0.032482
-0.0396554
0.0721374
0.0142371
-0.0327972
0.0185601
0.109578
0.0499084
-0.0295728
0.0206928
-0.00175031
0.00477779
-0.00302748
-0.0438944
-0.0238379
0.0429586
-0.141452
0.0984938
0.271896
-0.200887
-0.071009
-0.00496953
-0.0258274
-0.0715736
0.0416203
0.0299534
0.0318316
-0.0543174
0.0224858
0.053709
-0.0392049
0.0678778
-0.0286729
0.0273431
-0.0362378
0.0737034
0.000238736
0.00016228
-0.0338477
-0.0210836
0.0549313
0.0992564
-0.0781056
-0.0211508
-0.00110806
-0.0555065
0.195764
0.0226021
-0.218366
-0.256527
0.203537
-0.0463698
0.0563607
-0.0277959
0.0181161
-0.0353183
0.0172022
0.0714675
-0.0995556
0.0280881
0.0605757
0.0266517
-0.00536923
0.00643168
-0.00106245
-0.0350996
-0.0521147
-0.122453
0.065275
0.0571776
-0.0662327
0.106046
0.0444335
-0.0716334
0.190196
-0.118562
-0.0934681
0.101373
-0.00790457
0.0714072
0.0666785
-0.00684374
0.00553169
0.0946219
-0.01712
0.184728
-0.00851046
0.0954468
0.0452936
-0.14074
0.208085
0.12513
-0.0268463
-0.0308602
0.0577065
-0.126696
0.0582734
-0.131098
-0.129033
0.260131
0.144374
-0.242917
-0.0027563
-0.0193052
0.0220615
0.253015
-0.15946
-0.0935548
-0.246244
0.0886917
-0.00138933
-0.00261623
-0.140725
-0.0919176
0.125274
-0.0646011
-0.00493454
0.000337991
0.00459655
-0.00498202
0.00451693
0.000465089
0.222213
0.0496834
0.0276774
0.026397
-0.0540744
0.0253376
-0.00263457
0.002483
-9.61316e-05
0.182386
0.0734656
-0.00366791
0.0019176
-0.176423
0.104789
0.0113252
0.00871249
-0.0200377
-0.135982
0.226262
-0.0902807
-0.00235028
0.00645216
-0.00410189
-0.05472
0.0208723
0.0329064
0.0342913
0.147313
-0.104355
-0.00701917
0.00701917
-0.118486
0.0374593
-0.107337
-0.101442
0.208779
-0.143463
0.251758
-0.00892818
-0.0603847
0.0693129
-0.00768314
0.00778993
0.071196
0.0570118
-0.128208
-0.303131
0.159309
0.143821
0.00270494
-0.000562304
-0.0926899
-0.0517637
0.144454
0.122213
-0.0669844
-0.0552283
-0.0173291
0.0180427
-0.000713587
-0.203481
-0.046999
0.0485661
-0.157965
-0.0161669
-0.00116226
-0.00667198
-0.00109836
-0.283312
-0.0291884
0.171699
0.00431893
0.00146665
-0.00578557
-0.00822665
0.0023574
-0.0732243
0.0340194
-0.314723
0.162809
0.151914
-0.00683935
0.00779332
-0.000953975
0.000676325
-0.000701232
2.49073e-05
-0.00801234
0.00134036
0.258209
-0.155721
-0.102489
0.0816339
-0.0145424
-0.0670915
0.26335
-0.164413
-0.0989372
-0.0939324
-0.147272
0.0553444
0.0577559
-0.1131
-0.0343208
0.0696379
-0.0353172
-6.92199e-05
0.0010852
-0.00101598
-0.244544
0.150612
-0.0773447
0.0583565
-0.205444
0.206733
-0.0592593
0.226706
0.00188466
0.000820286
-0.00687941
0.00847649
-0.00159708
0.0147495
-0.0497001
0.0349506
-0.0265955
0.0567493
-0.0301538
0.00530853
0.143599
0.120669
-0.264267
0.0024599
-0.00414019
-0.00438995
-0.00288718
-0.000170445
0.105831
-0.0490978
0.00256215
0.00285871
-0.141542
0.0672589
-0.174893
0.103898
0.0709953
0.0865454
-0.0672575
0.0562242
-0.131565
0.0753413
0.0971552
0.0132882
-0.139864
0.262245
-0.122381
-0.0082103
0.000162332
0.00473214
0.00428429
0.00337633
-0.00396101
0.000584682
0.0222602
-0.0343357
0.0120755
0.0354807
-0.127751
-0.0185797
-0.0376709
-0.012109
0.0142606
-0.0461403
0.0723499
-0.0262096
0.11537
-0.277195
0.161826
-0.00728384
0.000444489
0.000436892
-0.00076533
-0.20057
0.125025
-0.0415982
0.0490818
-0.00748356
0.175462
-0.20465
-0.0505816
-0.0675606
0.118142
-0.00200682
0.00632575
0.0292777
-0.0638007
0.034523
0.259603
0.0317156
-0.291319
-0.00720974
-0.0010169
0.0227384
-0.228182
0.000483817
0.00167883
-0.0264248
-0.0151121
0.0415369
-0.026453
0.0560758
-0.0296229
0.0201832
-0.0417736
0.0215905
-0.0508811
-0.0715715
0.0541621
0.0229416
-0.00417255
0.0267166
-0.0225441
0.0842345
-0.0307915
0.0546145
-0.023823
-0.0584726
0.0834065
-0.0249339
0.0237971
0.0334607
-0.0572579
0.061835
0.023109
-0.084944
-0.0173827
-0.00347722
0.0109741
-0.00749693
-0.124984
0.17832
-0.0533354
-0.240891
0.0893373
0.151553
0.0850568
-0.172302
0.0872314
-0.0719068
0.0159322
-0.236802
0.00728125
0.229521
-0.203796
-0.000414938
-0.00502149
0.00543643
-0.0144457
0.00350934
0.0416402
-0.00815778
-0.0334824
-0.00684109
-0.00134433
0.128028
-0.0842891
-0.0437386
-0.00187735
-0.000303298
-0.123596
0.267195
0.111835
-0.024183
-0.0271357
0.0513187
-0.206332
0.248632
0.061906
-0.0282686
-0.0336373
0.0261141
0.0269782
0.0226094
-0.0557935
0.0331841
0.0266614
-0.058345
0.0316836
-0.00377692
-0.000593067
-0.0393619
-0.0376584
0.0770203
-0.00474741
-0.00788388
0.057517
-0.0527453
-0.00477166
0.0259134
-0.0300859
-0.00484771
-0.000944972
0.00579268
-0.0486415
-0.0513924
-0.0379115
0.0236653
-0.0243065
-0.0352961
0.0596026
-0.0464038
0.11236
-0.0659563
0.0397027
-0.0322772
-0.00742548
0.00239878
0.0235146
0.054446
-0.0192938
-0.00813562
0.00125621
0.00078855
-0.000705771
0.277089
0.0787852
0.0492425
0.00126934
2.43607e-05
-0.00129371
0.24242
-0.141918
-0.100502
0.0709151
-0.113084
0.0421691
-0.072008
0.0982502
-0.0262422
-0.0574615
0.0310085
-0.0124015
-0.00321851
-0.142568
0.0706476
-0.0369881
0.0705071
-0.0335189
-0.00930384
-0.00491712
-0.104756
-0.0701367
-0.189385
0.133289
0.056096
-0.163189
-0.120123
-0.00291561
0.000619484
0.0286697
-0.0347909
0.0668778
0.0349713
-0.101849
-0.00388395
-0.000261042
6.544e-05
-0.000204152
0.0832933
0.0948622
0.0021123
0.000370699
0.042514
-0.0210953
0.0678114
-0.0478002
-0.0200112
0.0187629
-0.0154471
-0.00331576
0.0748009
-0.0392309
0.0176362
-0.0861068
0.0483716
0.0377352
-0.0061465
-0.00142764
0.00757414
-0.00662603
0.0564525
-0.0498265
-0.108736
-0.0900706
0.198807
0.000488963
0.207812
0.0242721
-0.232085
0.257111
-0.155578
-0.101532
-0.10505
0.300076
-0.0209594
0.0140844
0.00687498
0.284542
0.0021167
-0.286659
0.021827
-0.054907
-0.134087
0.0582526
0.000175223
-0.000107995
-6.72275e-05
0.0258323
0.00152552
-0.0273578
-0.139405
0.248226
-0.10882
-0.122803
0.0715372
0.0512657
0.00957888
0.00382953
0.0930696
0.121131
-0.176413
0.0552825
0.204279
-0.119167
-0.0655423
0.0855191
-0.0199767
-0.132831
-0.0557114
0.188543
-0.045011
0.0171206
0.0278904
0.118829
-0.0434543
-0.0753748
0.00701248
-0.243814
0.0320831
0.0076196
0.0345418
-0.0613881
-0.00258353
-0.000303651
-0.117239
0.0237712
-0.0547244
-0.00751761
0.00317498
0.00434262
-0.00221963
0.00220416
0.107731
0.126525
-0.099753
0.0551566
0.176418
-0.0517972
-0.204807
0.16128
0.0435267
0.0685332
-0.0319584
-0.0365747
0.0858416
0.0428461
0.185584
-0.102291
0.0479576
0.0742334
0.0437245
0.0289859
-0.0727103
0.273732
-0.151643
-0.122088
-0.0146116
0.0111344
-0.0846554
0.0266861
-0.0447112
0.0713761
-0.183194
0.0195261
0.163668
0.0366197
-0.147954
0.111334
0.0622484
-0.108652
0.171331
0.077772
-0.0576693
0.0235
0.0404193
-0.0639193
-0.148806
-0.120856
0.269662
0.0787161
-0.2037
0.171633
0.133906
-0.305539
-0.00462027
-0.00054278
0.0637734
-0.08679
0.0230166
-0.0389184
0.0216341
0.135224
-0.0820027
-0.0532214
-0.00137061
0.00272293
-0.00135233
-0.0141896
0.016922
-0.015958
0.0572187
-0.0330531
0.0677141
-0.0346609
0.0497017
-0.0822109
0.0325092
0.216355
0.0196496
0.015712
-0.0353616
-0.00576727
0.000398039
0.000112465
-0.00196579
0.0144623
0.0147885
-0.0292508
0.0584631
0.0131034
-0.0715665
0.0302646
-0.0198151
-0.0104494
-0.0445665
-0.029995
0.0611516
-0.0407129
-0.0204387
0.0348824
0.00680067
0.0292124
-0.128984
0.102791
0.142915
-0.0702707
0.0636447
0.0013006
0.00518235
0.0353371
-0.0699582
0.0346211
-0.0710874
0.0386054
-0.181855
0.204458
0.0774604
0.0207898
0.0872863
-0.160337
0.0730506
-0.00355895
0.00216963
0.253482
-0.0954547
0.0662533
-0.0361913
-0.030062
0.0379253
0.0568384
-0.0947637
0.0409631
-0.0262136
-0.0935828
-0.0524336
0.146016
0.0110026
0.038255
-0.0492576
0.0316922
-0.0793895
-0.0234532
0.0516127
-0.136755
-0.0451657
0.181921
0.0928401
0.0431125
-0.0549827
0.0118702
-0.0127049
0.00495506
0.00774988
0.0379814
-0.0539365
0.0159551
0.0940909
-0.0825335
-0.0115574
-0.101392
0.0798211
-0.174137
0.0943156
-0.000576967
-0.000234684
-0.0284159
0.0195977
0.00881818
-0.00023481
-0.000326266
0.000561076
-0.0101101
0.125062