/*--------------------------------*- C++ -*----------------------------------*\
| =========                 |                                                 |
| \\      /  F ield         | OpenFOAM: The Open Source CFD Toolbox           |
|  \\    /   O peration     | Version:  v2012                                 |
|   \\  /    A nd           | Website:  www.openfoam.com                      |
|    \\/     M anipulation  |                                                 |
\*---------------------------------------------------------------------------*/
FoamFile
{
    version     2.0;
    format      ascii;
    class       surfaceScalarField;
    location    "400";
    object      phi_0;
}
// * * * * * * * * * * * * * * * * * * * * * * * * * * * * * * * * * * * * * //

dimensions      [0 3 -1 0 0 0 0];
oriented        oriented;


internalField   nonuniform List<scalar> 
81198
(
-0.140867
0.00594492
0.134923
-0.097901
0.0480427
0.0498583
0.0810334
-0.25048
0.169447
0.00865953
-0.00492767
-0.00373186
0.00328105
-0.00805379
0.00477274
-0.00231414
0.00227748
3.66564e-05
-0.000600312
0.000535616
6.4696e-05
0.0956045
-0.0581214
-0.0374831
0.0865659
-0.063585
-0.0229809
-0.226174
0.061364
0.16481
-0.0459289
0.086889
-0.0409601
3.25998e-05
-0.00134191
0.00130931
-0.0142256
0.0212177
-0.00699216
0.23821
-0.161886
-0.0763243
0.0530921
-0.0159444
-0.0371477
-0.0823963
0.0625559
0.0198404
0.0526468
0.0429577
0.0323322
-0.0573491
0.0250169
-0.0575688
-0.168605
0.0492179
-0.0739722
0.0247543
0.243741
-0.162708
0.146631
-0.0882987
-0.0583327
-0.0894406
0.178155
-0.0887149
0.00493623
-2.88028e-05
-0.00490743
0.129068
-0.282496
0.153428
0.0763809
-0.0284674
-0.0479135
0.0536879
-0.194555
0.0513753
-0.0850433
0.033668
0.00254072
-0.0039217
0.00138097
0.0807544
-0.170195
0.0440284
0.0323524
0.023701
-0.0514535
0.0277525
-0.0984269
0.245706
-0.147279
-0.00173387
-0.00420158
0.00593545
0.00720969
-0.0387524
0.0315427
0.274991
-0.116257
-0.158734
-0.0680328
0.00279793
0.0652349
-0.0539609
-0.0439401
0.154953
-0.102888
-0.0520644
0.0529037
0.0937278
-0.00235285
-0.00600549
0.00835835
-0.0705209
0.0419066
0.0286143
-0.302394
0.112385
0.190009
-0.148004
0.17217
-0.0241659
0.0137293
0.00215144
-0.0158807
0.0833671
0.0331679
-0.116535
0.0430352
-0.0703065
0.0272713
-0.0200483
-0.0322329
0.0522812
0.0882807
-0.228313
0.140032
0.0866937
-0.0865999
-9.38175e-05
-0.255785
0.157358
-0.0649096
0.20661
-0.1417
0.0755357
0.0518229
-0.127359
-0.0043117
0.018041
-0.0872134
0.0484796
0.0387338
-0.157552
0.349526
-0.191974
0.0152741
0.00703135
-0.0223054
-0.0637828
0.028803
0.0349798
0.0688079
-0.0330797
-0.0357282
-0.0251819
-0.00612131
0.0313032
-0.202218
-0.100176
0.031974
0.077502
-0.109476
0.156235
0.0819752
-0.00410867
0.00763757
-0.0035289
0.150196
0.0522084
-0.202404
-0.0602411
-0.0221553
0.00889967
-0.0150847
0.00618508
0.050494
-0.0392494
-0.0112446
0.00734984
-0.00621937
-0.00113047
-0.00835662
0.00145203
0.0069046
-0.219686
0.154777
-0.03501
0.0422197
0.23547
-0.085274
0.0233491
-0.0392582
0.0159092
-0.0859875
-0.0484796
0.134467
0.0561863
0.0566253
-0.112812
0.114086
-0.0438964
-0.07019
-0.00876709
-0.0225633
0.0313304
-1.5418e-05
0.00290431
-0.00288889
0.0240951
-0.0063589
-0.0177362
0.343106
-0.229201
-0.113906
-0.00363182
0.0081282
-0.00449638
-0.0105326
-0.137472
0.0199156
-0.0249107
0.00499513
-0.0625955
0.121516
-0.058921
0.0377278
-0.0143787
0.00542056
-0.00383811
-0.00158245
-0.0152754
0.0621852
-0.0469099
0.0321195
-0.0165684
-0.0155511
0.169874
-0.0878245
-0.0820499
-0.00530528
0.00530528
0.118122
-0.0707542
-0.0473673
0.0330342
-0.0711218
0.0380875
0.079457
-0.025088
-0.054369
0.0594533
-0.0913485
0.0318951
0.00238642
-0.00299839
0.000611972
0.0225238
0.0115361
-0.0340599
0.0439321
0.0154152
-0.0593473
0.0911351
0.038584
-0.129719
0.0794238
0.00726997
-0.0457606
-0.101902
0.147662
-0.00228242
-0.00235018
0.0046326
-0.12576
0.0532748
0.0724851
0.140963
0.0951393
-0.236103
0.0542097
-0.0305087
0.0381335
-0.0744844
0.0363509
0.0658596
-0.00707337
-0.0587862
-0.0601473
0.0448719
-0.0592322
0.115418
0.00250047
0.0243718
-0.0268723
-0.0181726
0.00970152
0.00847103
0.132964
0.109167
-0.242131
0.0943048
0.0755695
-0.0657079
0.0423149
0.023393
-0.110762
-0.0386158
0.149378
0.00115854
-0.00535189
0.00419335
-0.00618129
-0.00217534
-0.0067132
0.00260453
0.00472349
-0.00645736
0.0700458
-0.0370116
0.00530861
0.00232896
-0.196163
-0.0770721
0.273235
-0.00840551
0.00895852
0.0166691
0.0790348
-0.095704
-0.249241
0.166831
0.0824104
-0.0127134
0.00266816
0.0100453
-0.0577074
-0.0439708
0.101678
-0.128464
-0.120777
0.00403071
-0.00265011
-0.0013806
-0.0143858
0.0200248
-0.00563897
0.203699
-0.319155
0.115456
0.168759
-0.106735
-0.0620241
-0.052315
0.112066
-0.0597509
0.158667
0.116324
0.0252885
0.092833
-0.025829
0.0206749
0.00515409
0.173933
0.0268776
-0.200811
-0.0187143
0.0335167
-0.0148024
0.116058
0.104467
-0.220525
-0.205518
0.124966
0.0805525
0.0101349
-0.00264761
-0.00748729
0.0144753
-0.0354266
0.0209513
-0.114295
0.0619796
0.0329432
0.0204894
-0.0534327
0.109515
-0.048505
-0.06101
0.0143784
0.0361157
0.00167582
-0.00170766
3.18362e-05
0.00239642
-0.0704292
0.0191461
-0.0351181
0.015972
0.0686756
0.087932
-0.156608
0.0201155
0.0148205
-0.0349361
0.0541546
-0.138224
0.0840695
0.03359
0.0388067
-0.0723966
0.047898
0.031559
-0.0850702
0.16371
-0.0786401
0.0315711
-0.0279535
-0.0036176
-0.106296
0.0603674
0.0215897
0.00998138
-0.0168591
0.041236
-0.0243769
0.128055
0.0293725
-0.157427
-0.0242262
-0.0346613
0.0588876
-0.0285674
0.0915543
-0.0629869
0.00643936
0.00369554
-0.000295134
0.00178182
-0.00148668
0.0920208
-0.0406456
-0.200362
0.11965
0.0807124
0.333215
-0.189169
-0.144046
0.280479
-0.164449
-0.116029
-0.0107605
0.00990247
0.000858073
0.177179
0.0982091
-0.275388
-0.0564106
0.0553158
0.00109475
-0.00963383
-0.0161952
0.0166487
0.117164
-0.313327
-0.0658841
0.0938726
-0.0279885
0.249103
-0.160042
-0.0890611
0.0075987
-0.0195456
0.0119469
0.0742115
-0.115971
0.0417597
0.0676584
0.0408321
-0.10849
0.00733948
-0.00969233
-0.00129173
0.00398483
-0.0026931
-0.0881909
-0.148428
-0.00383739
0.00214226
0.00169514
0.112283
0.0107438
-0.123027
0.283953
0.0318891
-0.315842
0.00361289
-0.00361289
-0.0706522
-0.0960604
0.166713
-0.11782
0.0918477
0.0259726
-0.206205
0.0443194
0.0362611
-0.0644444
0.0281833
0.0996324
0.0129736
-0.0320053
0.0190317
0.00669454
0.000106783
-0.00680132
0.119628
0.115842
0.00758181
-0.00776981
0.000188003
0.00069446
0.000981363
-0.146504
0.166008
-0.0195035
0.0320876
-0.0977857
0.0656981
-0.0216795
0.00492374
-0.00490739
-1.63525e-05
-0.102491
0.0796573
0.0228335
-0.0118104
-0.000903
0.036083
0.0331675
-0.0692505
-0.0836116
-0.0421482
0.0340644
-0.121588
0.0875232
0.114951
-0.0808871
0.0110657
-0.0279497
-0.141198
0.0786022
0.122388
0.0325646
0.195026
0.14808
-0.211801
0.00777344
0.204027
-0.168203
-0.0380018
-0.241205
-0.0453928
0.121032
-0.0756393
0.0948225
-0.0353692
-0.0243569
-0.0309791
0.055336
0.026861
-0.0214464
-0.00541453
-0.0236202
-0.00863018
0.0322504
-0.0104544
0.000609236
0.00984515
0.0671526
-0.213657
-0.0409655
0.103508
-0.062542
-0.0142461
0.0295202
-0.0452726
-0.0252483
-0.167106
0.122191
0.0449153
-0.0222099
-0.00107099
0.0232809
0.110443
-0.0799857
-0.0304575
0.253663
-0.283976
0.0303134
0.0549257
-0.0225935
0.255851
-0.162479
-0.0933719
-0.0440892
0.02723
-0.100034
0.0423265
-0.029949
-0.0267471
0.0566962
-0.00218149
0.00218149
0.00709367
0.276859
-0.0996643
0.101449
-0.00178485
-0.0172826
0.0398064
-0.0527941
-0.00361645
0.275653
-0.0067622
-0.268891
0.0112528
-0.0267067
0.0294286
0.246224
-0.0395087
-0.127597
-0.0973675
0.0519747
0.0199935
0.00191742
-0.0219109
0.072657
-0.0551775
-0.0174795
-0.0997716
-0.042674
0.142446
-0.151337
-0.00544673
0.0085725
-0.00270453
-0.00586797
-0.0532507
0.0432756
0.00997509
-0.28069
0.234161
0.0465295
0.035152
-0.0593782
0.0355701
0.0370868
-0.00173902
0.0014719
0.000267122
0.0256049
-0.00738885
-0.0182161
-0.278596
0.167104
0.111492
0.081736
-0.167724
-0.329384
0.216095
0.113289
-0.0065026
0.000705719
0.00579688
0.125366
-0.117095
-0.00827086
-0.0677323
0.0330265
0.0347058
0.124452
-0.0352093
-0.0892425
0.0289556
-0.066159
0.0372034
-0.00160657
0.00372132
-0.00211475
0.138086
-0.0846303
-0.0534554
0.00491502
8.7191e-06
-0.0659633
-0.0286155
0.0945788
-0.0959071
-0.108364
0.204271
0.00253201
-0.00305835
0.000526332
-0.0856449
-0.195046
0.0192879
0.0606806
-0.0799686
-0.0695339
-0.130828
-0.0369199
0.0234784
0.0134415
0.0527356
-0.0297836
-0.022952
0.0759624
0.0271733
-0.103136
-0.149064
0.155009
-0.145301
-0.00603537
-0.0719198
0.17643
-0.10451
-0.018988
0.0929103
-0.0739223
-0.00536405
0.0252796
0.168764
-0.185664
0.0168993
-0.0253378
0.068373
0.0423005
-0.274908
0.232608
-0.0991912
0.11957
-0.0203783
0.162286
-0.0932567
-0.0690297
0.0076982
-0.000116391
0.00514895
0.00342355
0.00792517
-0.00167757
-0.0062476
0.0361531
0.281063
-0.0773639
0.0512439
0.0582711
-0.0307971
0.00606443
0.0247327
-0.0018349
9.58817e-05
-0.00727514
0.00364332
-0.14787
-0.130727
-0.108941
0.265686
-0.156745
0.00338179
0.0547951
-0.0581768
0.279113
-0.02545
0.0128261
0.0140349
0.0230066
0.029729
-0.191837
0.0810751
0.0208402
-0.0464776
0.0256374
0.05507
-0.0228743
-0.0321956
0.053331
-0.144931
0.0916001
0.00873256
-0.220533
-0.278303
0.282399
-0.00409577
-0.0511401
-0.0949438
0.146084
0.053857
-0.145599
0.0917417
0.0600417
0.0260025
-0.0860442
0.00216279
-0.0022664
0.000103612
-0.0752714
0.143947
-0.205267
0.115014
0.0902529
0.0183182
0.00728669
-0.078911
0.0441028
0.0348081
-0.00614633
-0.00192204
0.00806836
-0.124323
0.0246584
-0.00929458
0.0049615
0.00433309
-0.000585078
0.00311709
0.0262919
-0.0150391
0.0514507
-0.0540101
0.00255939
0.04126
-0.0677039
0.0264439
-0.0665896
-0.0849193
0.151509
0.0374655
-0.0770689
0.0396034
0.0904714
-0.212546
0.122075
-0.0279484
0.056228
-0.0282796
0.0656683
0.0263526
-0.010841
-0.0157843
0.0266253
0.0872272
-0.0760915
-0.0111357
-0.00380004
-0.0348485
0.0386485
0.1137
-0.209607
-0.00400609
0.00271436
0.0831028
-0.0664337
-0.217139
0.00128983
0.215849
-0.105413
0.0895391
0.0158736
-0.025858
0.166821
-0.0884407
0.0598734
-0.307635
0.0293319
-0.0142211
0.014144
7.70714e-05
-0.0124496
-0.0806248
0.0930743
0.0057481
-0.0038669
-0.0018812
0.0253221
-0.0447143
0.0193922
-0.0604414
-0.0445964
0.105038
-0.0466713
-0.0322397
-0.0398283
0.115364
0.00901684
-0.00640264
-0.0026142
0.0257349
0.0996311
0.152502
-0.0986452
0.00999079
-0.0666367
0.0566459
-0.0429922
-0.0436077
0.0527118
-0.0318716
0.0553281
0.0049517
-0.0602798
-0.0183879
-0.0274897
0.0458775
0.0076441
-0.0076441
-0.279585
0.170644
0.0356914
-0.0622281
0.0265367
-0.0760954
0.0409637
0.0351318
-0.0878806
0.169255
-0.0813748
-0.304233
0.102015
0.0425279
0.0229964
-0.0655243
-0.0606853
-0.140601
0.201286
0.175871
-0.0619032
-0.113967
-0.202443
0.137865
0.0645779
-0.0547232
0.0303663
0.0539403
-0.0949058
0.132901
-0.0765527
-0.0563481
-0.00139251
0.00291405
-0.00152154
0.042114
-0.0243035
-0.0178105
-0.0684221
0.12221
-0.0537884
-0.203708
0.143022
-0.0218762
-0.113684
0.0678132
0.0458707
-0.106305
0.225932
0.152709
-0.0999084
-0.0528006
0.0890783
-0.140218
0.224696
-0.134224
0.0642562
-0.130846
-0.0904363
0.0804191
0.0100172
0.002838
-0.0244071
0.0215691
-0.0959883
-0.0848069
0.180795
0.0703226
-0.0295044
-0.0408182
-0.042576
0.118538
-0.000637736
0.000146893
0.000490844
0.00268506
-0.0029802
-0.0405127
0.0533643
-0.0128516
0.0148974
0.0202764
-0.0351738
-0.0355429
-0.0177078
-0.0308612
0.0669442
-0.0268844
-0.00528991
0.0321743
0.00918976
-0.00154566
0.211197
0.0281489
-0.00815538
-0.0227031
-0.00118826
0.0238914
0.0205019
-0.0168578
-0.00364414
0.0392024
0.0296055
-0.100219
0.0877694
-0.189359
-0.114874
-0.00156237
0.00526273
-0.00370035
0.00467255
-0.0047315
5.89476e-05
0.0482536
0.0220691
0.0206818
0.0175474
0.00947976
-0.0270271
-0.0765105
0.0767109
-0.000200436
0.0365673
0.0654138
-0.101981
0.00745298
0.0478153
-0.0552683
0.000974942
0.00500698
-0.00598192
0.0316954
-0.0677222
0.0360269
-0.0586273
0.0306789
-0.0222012
-0.0135324
0.0357336
-0.349424
0.234057
0.115367
-0.0146116
0.0295091
0.0851118
-0.235984
0.150872
-0.00505487
0.0489869
0.0443944
-0.0524008
0.00800649
-0.17536
0.0793715
-0.125601
-0.0799169
-0.0196822
0.0601429
-0.0404607
-0.129675
0.236579
-0.106904
-0.000338496
0.00287922
0.0893826
-0.00433312
-0.0850495
-0.132118
-0.0340303
0.166149
-0.0742828
0.160278
-0.0859948
-0.0319711
0.0976394
-0.00828672
0.0373915
-0.0291048
-0.000286232
-0.00031408
0.0266648
-0.0803733
0.0537085
0.0438528
-0.079553
0.0357001
-0.00241423
0.000903885
0.00151035
-0.00781219
0.00166586
-0.0100752
0.0115421
-0.00146692
0.0942629
-0.0313115
-0.0629514
0.00773416
-0.00773416
-0.0168603
-0.0508879
0.0677481
-0.00574502
0.00506134
0.000683674
-0.0242455
-0.0287926
0.0530381
-0.00261656
-0.00667802
0.084056
-0.0240143
0.0896436
-0.0724105
-0.0172332
-0.138317
0.0379199
0.100397
0.0331839
-0.182248
-0.0316177
0.0207767
0.0418654
-0.00527712
-0.0365883
0.0622775
-0.0204121
0.000925063
-0.00231757
0.24567
0.0827362
-0.328406
0.262575
-0.0957439
-0.242066
0.0889953
0.15307
0.0014641
-0.00155567
9.15693e-05
0.0594745
-0.0560928
-0.183521
-0.00649946
0.190021
-0.000888095
0.128943
-0.0288403
0.0624303
-0.0195734
0.0224114
0.00182522
0.0496255
0.019262
0.0253829
-0.0446449
0.0137812
0.0283329
-0.0552276
0.041683
0.0135446
0.00649242
0.00216711
-0.00737505
0.018858
-0.0114829
0.0144659
-0.0667364
0.0522706
0.00854196
-0.225681
-0.00653468
0.0899017
0.0373912
-0.0713369
0.0339457
0.0364424
-0.219964
-0.131626
0.237211
-0.105585
-0.00278911
-0.00797143
-0.0684765
-0.0744983
0.142975
0.105931
0.0913589
-0.19729
0.0242767
0.0487229
-0.0729997
-0.0267059
-0.0280173
0.115584
-0.134756
0.0191715
-0.105977
0.0469297
0.059047
-0.0649839
0.0462699
0.018714
-0.00616187
-0.00178427
0.00794614
3.16239e-05
-0.00533691
0.0768643
-0.0664525
-0.0104119
0.158028
-0.278187
0.120159
-0.00436919
0.00430726
6.19297e-05
0.14047
-0.0863158
-0.0861699
0.263349
-0.0370524
0.0134322
-0.000812427
0.000793325
1.91022e-05
0.118383
-0.00279888
-0.0849803
0.0213953
-0.161359
0.00204318
0.159316
0.00236982
-0.025073
0.018356
0.0580193
-0.0763753
0.0543135
-0.186432
-0.0287228
-0.0244116
0.0497337
-0.00438056
-0.014507
0.0188875
0.292739
-0.163671
-0.0288264
-0.00166331
0.0304897
-0.00721868
-0.0161212
0.0233399
0.237458
0.0889364
-0.326394
0.256108
-0.145225
-0.110883
0.0583126
-0.118754
0.00505217
-0.00389363
-0.160985
0.131285
0.0297002
0.0367225
0.00400037
-0.0407229
-0.10292
0.0615844
0.0413361
-0.0101845
0.0545789
-0.199189
0.154602
0.0445869
-0.0588375
0.0241762
0.0047802
-0.00163359
-0.00314661
-0.0536292
0.0284713
0.0251579
-0.0233982
-0.226037
0.178428
0.0476085
-0.0421036
-0.0230571
0.0651608
0.122625
0.0311412
-0.153766
-0.00538243
0.0356298
-0.0302474
-0.0501036
0.0258581
0.157482
-0.278872
0.12139
0.135973
-0.155139
0.0191653
0.0671975
-0.0444944
-0.0227031
-0.000953985
-0.00146025
0.121737
0.000705886
0.0485121
0.00234052
-0.00673439
0.00439387
0.00577313
-0.0199987
0.0987322
-0.209269
0.110537
-0.0055617
0.0131604
-0.183497
0.117696
0.0658006
-0.0198941
0.0621751
-0.0422809
-0.0622394
0.119069
-0.0568301
-0.0466144
-0.114371
-0.0990081
-0.0230647
0.122073
-0.130125
-0.0751422
-0.0777282
0.00121774
-0.00888009
0.0386306
-0.0297506
-0.012676
0.0190479
-0.00637188
-0.00449879
-0.000408604
-0.131406
-0.045006
0.0211948
0.0238112
0.102445
-0.065878
0.0366886
-0.0222133
-0.102257
0.183181
-0.0809237
0.204538
0.058037
0.248271
-0.161512
-0.0867593
0.00116856
-0.195389
-0.0199418
0.0624697
-0.0115607
0.0774203
0.234256
-0.138937
-0.0953191
-0.0758343
-0.0598572
0.135691
0.0214207
0.0259427
-0.0473634
-0.00136081
-0.00247659
-0.135679
0.101212
0.0344669
0.00225044
0.00178027
-0.00111122
-0.00539137
0.253096
-0.0956136
-0.000139324
0.000174901
-3.55768e-05
0.203285
-0.0973536
0.0149197
-0.0333076
-0.118128
0.0415551
0.0765731
0.0295513
-0.0562571
-0.0023788
-0.0264476
-0.0566144
-0.0154899
0.0721043
0.0261762
0.0383611
-0.0645373
-0.00416006
0.00834808
-0.00418803
0.00493623
-0.0254523
-0.0039669
-0.00534864
0.00931554
-0.0841651
-0.1579
-0.269195
0.276288
-0.0661831
0.0465009
-0.0384694
-0.0675072
-0.00516312
0.000664336
-0.0575795
-0.103475
0.161054
-0.000245544
-0.00549947
-0.0365734
-0.0915953
0.128169
0.0761466
0.0765624
0.0749045
-0.0357021
0.214847
-0.116115
-0.0732762
-0.0321365
0.00621549
-0.0194953
0.0132798
0.0567333
0.0480959
-0.104829
0.0165577
-0.04661
0.0300522
0.00600285
-0.00366234
0.0246044
-0.0333714
0.00160392
0.0224912
-0.00212468
-0.000189462
0.00604059
-0.0134156
-0.252982
0.0656329
0.18735
0.139453
0.108294
-0.247748
0.128688
-0.0658017
-0.0628858
-0.167958
-0.0580786
-0.140533
0.0764231
0.0641098
-0.0466869
0.0341064
-0.0629467
0.0406175
-0.0989331
0.0583156
-0.0381908
0.0591188
-0.0209279
0.114154
-0.0557614
-0.0583929
-0.0893096
-0.0490078
0.000877229
0.00602351
-0.00690074
0.0715087
0.0227541
-0.0559744
-0.0192033
0.0751777
-0.01931
0.131593
0.00197486
-0.0019875
1.26404e-05
-0.00185381
0.000120329
0.00173348
0.209036
-0.153667
-0.0553692
-0.229273
-0.0629067
0.292179
-0.00733392
0.00317387
0.00263876
0.00310934
0.150317
-0.0809351
-0.0693817
0.122276
-0.000205919
-0.000327952
0.000533871
-0.0025095
-0.00200299
0.00451249
0.0191962
-0.0235767
0.000513644
-0.000580924
6.72801e-05
0.0398133
0.054915
-0.0947282
-0.114457
0.0892634
0.0251941
0.0685657
-0.0304322
-0.0586176
0.0483534
0.0102642
0.129016
0.0468542
0.0671344
-0.296407
0.0135243
-0.0395842
0.0260599
0.0771033
-0.0141592
-0.0629441
-0.056402
-0.0617263
0.0705689
0.0623319
0.0322132
-0.0581885
0.0259753
0.0132299
0.0126756
-0.0259055
0.0174854
-0.28668
-0.123163
0.262616
-0.00505074
0.00502194
-0.038962
-0.0224505
0.0614125
0.0422911
-0.0341818
0.0154675
-0.0168525
-0.0165257
-0.0420919
-0.00229561
0.00275595
-0.000460341
0.00180688
-0.00201279
-0.0346071
-0.0373407
0.0719478
0.0416792
-0.0626964
0.0210173
-0.123444
-0.0600521
0.0619655
-0.150964
0.0889983
-0.0485776
0.0560306
0.171531
0.0375057
0.0116617
-0.0772925
0.0656307
-0.0469843
0.0417072
-0.0508442
0.00512316
0.045721
0.105912
-0.065295
0.0137619
-0.0048622
-0.0638335
0.012824
0.0510095
0.107823
-0.190889
0.0830667
-0.0551555
-0.00867801
0.27753
-0.170941
-0.106588
0.159486
-0.128395
-0.0310908
-0.000165089
-0.0267193
0.0166615
-0.0133206
-0.00334091
-0.00510994
0.00104163
0.00406831
0.0641616
-0.0481854
-0.0159762
-0.0103145
0.00617147
0.00414298
-0.201761
-0.0512216
0.033709
0.0285686
-0.00186808
-0.000237093
0.00210517
0.0227034
-0.0280675
0.113358
-0.221624
0.108266
0.0945789
0.153102
-0.247681
0.00154892
0.00164288
-0.0031918
0.0184496
0.040559
-0.0590086
0.0737051
0.140118
-0.297737
0.157619
-0.0314052
-0.103837
0.135242
-0.232642
0.0789751
0.00460353
-0.00460353
-0.0257372
0.0282377
-0.20278
0.171793
0.0309867
0.124621
-0.197009
0.0723882
0.00669454
-0.028499
0.0626054
0.141105
-0.0791392
0.212943
0.0675362
-0.178794
0.0765368
0.0871374
0.00224521
-0.115996
0.0866456
0.0293508
-0.0487364
-0.0611881
0.109924
0.0701451
-0.0439689
-0.0081854
3.30851e-05
0.00815232
0.0342256
-0.0150796
-0.0549597
0.0957918
0.234812
-0.121454
-0.0755454
0.183927
-0.108382
0.0772198
0.0850667
0.0475642
-0.0644245
0.269347
-0.00104204
0.00215939
-0.00111735
8.28963e-05
-0.000373956
0.00029106
-0.0458224
-0.0719979
0.175874
0.0477897
-0.223663
0.219415
-0.12501
-0.0944048
-0.0225043
0.0497038
-0.0271995
-0.00650968
0.013541
0.220216
-0.144537
-0.0756791
0.138113
-0.0781598
-0.0599528
-0.00168058
-0.00292703
0.00460761
-0.130088
0.111848
0.01824
-0.0810267
0.0942216
-0.0131949
-0.0109362
-0.0051786
0.0161148
-0.0465454
0.0169692
-0.0180402
-0.000244119
0.00331022
-0.0030661
0.0658806
-0.036925
0.184606
-0.0922707
0.115885
-0.0236144
0.0045805
-0.00610275
0.00152225
0.0118967
-0.0370787
0.144581
-0.00860742
-0.00498163
0.00269921
0.118815
0.0750711
-0.193886
0.00587564
-0.00129514
-0.0138303
0.087455
-0.0736247
0.0606736
0.0598668
-0.12054
0.0595728
-0.132505
0.072932
0.052659
0.167447
-0.220106
0.00372234
0.00110402
-0.00482636
0.13294
-0.249158
0.116218
0.0596723
-0.0286993
-0.030973
0.0016435
1.42415e-05
-0.00165774
0.0720819
-0.0580633
-0.0140186
0.0962208
0.0722783
-0.168499
-0.0255905
0.0391148
-0.00225426
0.00553531
-0.103837
0.00464575
-0.00804767
0.00923537
-0.0011877
0.0753137
0.00155061
0.00990891
-0.00557242
-0.00433649
-0.00421134
0.00515555
-0.00094421
0.00696261
-0.00419589
-0.00276672
0.26273
-0.12979
0.0595865
-0.0273212
-0.0322653
-0.0966209
-0.0445768
-0.114741
0.0833359
0.249848
-0.0819164
-0.167932
0.0881713
0.00757837
-0.00757837
-0.00414496
-6.63744e-05
0.0134088
-0.0122833
-0.00112548
-0.0327911
-0.0224366
-0.0126312
0.00704792
0.0055833
0.176218
0.0380245
-0.214242
-0.052842
0.0849296
0.0882977
-0.236336
0.148039
-0.109399
0.165395
-0.055996
0.0310888
-0.0181152
0.0265781
-0.031868
0.00275458
-0.0384733
0.0357187
-0.229451
-0.0596603
0.289112
-0.00185147
0.000809427
-0.0323668
0.0269844
0.000400549
-0.000775146
0.000374597
0.063084
-0.031772
-0.031312
-0.0111695
-0.0222445
0.0334139
0.0290528
0.0340313
0.0281582
0.0270983
-0.0552566
0.00220449
-0.00217189
-0.0058689
0.00804388
-0.00217498
-0.0442465
0.0217422
-0.00131208
-0.00538004
0.00669212
-0.234356
0.104681
0.0289489
-0.0157189
-0.0103073
0.0413221
-0.0310148
-0.0745613
0.0393168
0.0352445
0.0038507
-0.0139259
0.0019793
-0.0146553
0.00273271
0.0126854
-0.0154181
0.0490828
0.0418234
-0.0909062
-0.0156188
-0.000713239
0.016332
0.0718064
-0.0286167
-0.0431898
-0.00653104
0.0240784
-0.0261324
-0.00478669
0.0309191
0.140606
-0.0637647
-0.0768412
-0.0985434
0.223962
-0.125419
0.138707
-0.207698
0.0689915
0.242933
-0.154635
0.00648472
-0.00204427
-0.00444045
-0.00885807
0.0641862
-0.0292937
-0.0851637
0.226592
0.103317
-0.247363
0.144046
0.14251
0.0634619
-0.205972
0.0628563
-0.0340533
0.151531
0.0967397
0.00274309
-0.00430547
0.0637085
-0.0454161
-0.0182923
-0.00367279
0.00464062
-0.000967825
0.176273
-0.0800525
-0.0245764
0.00722246
-0.00624751
-0.138879
-0.116906
0.00337099
0.00359161
-0.0302644
-0.00665549
-0.00272995
-0.00398324
0.00356708
-0.00239256
-0.00117453
-0.19362
0.290885
-0.0972644
-0.0476972
-0.0270134
0.0747106
-0.0406266
0.0799491
-0.0393224
0.0660649
0.102694
-0.032482
-0.0396553
0.0721373
0.0142352
-0.0327953
0.0185601
0.109578
0.0499083
-0.0295721
0.020692
-0.0017506
0.00477816
-0.00302756
-0.0438948
-0.0238376
0.0429585
-0.141452
0.0984939
0.271896
-0.200887
-0.071009
-0.00496952
-0.0258276
-0.0715734
0.0416202
0.0299533
0.0318334
-0.0543185
0.0224851
0.0537089
-0.0392055
0.0678774
-0.0286719
0.0273431
-0.0362378
0.0737033
0.000238625
0.000161924
-0.0338496
-0.0210828
0.0549323
0.0992561
-0.0781055
-0.0211506
-0.00110792
-0.0555065
0.195764
0.022602
-0.218366
-0.256527
0.203537
-0.0463697
0.0563605
-0.0277958
0.0181165
-0.0353191
0.0172026
0.0714674
-0.0995553
0.0280879
0.0605756
0.0266516
-0.00536895
0.00643137
-0.00106242
-0.0350992
-0.0521141
-0.122452
0.065275
0.0571774
-0.0662328
0.106046
0.0444338
-0.0716334
0.190196
-0.118562
-0.0934682
0.101373
-0.00790441
0.0714073
0.0666784
-0.00684413
0.00553205
0.0946219
-0.0171198
0.184728
-0.0085105
0.0954468
0.0452935
-0.14074
0.208085
0.12513
-0.026846
-0.0308599
0.0577059
-0.126696
0.0582735
-0.131098
-0.129033
0.260131
0.144374
-0.242917
-0.00275645
-0.0193048
0.0220613
0.253015
-0.15946
-0.0935548
-0.246244
0.0886917
-0.00138961
-0.00261647
-0.140725
-0.0919176
0.125274
-0.0646009
-0.0049359
0.000338087
0.00459782
-0.0049819
0.00451681
0.000465091
0.222213
0.0496833
0.0276773
0.0263968
-0.0540741
0.0253376
-0.00263413
0.00248249
-9.60798e-05
0.182386
0.0734656
-0.00366825
0.00191765
-0.176423
0.104789
0.0113253
0.00871233
-0.0200376
-0.135982
0.226262
-0.0902806
-0.00235021
0.00645224
-0.00410202
-0.0547206
0.020871
0.0329064
0.0342911
0.147313
-0.104355
-0.00701962
0.00701962
-0.118486
0.0374593
-0.107337
-0.101442
0.208779
-0.143463
0.251758
-0.00892832
-0.0603846
0.0693129
-0.00768323
0.00779002
0.0711959
0.0570118
-0.128208
-0.303131
0.159309
0.143821
0.00270482
-0.000562564
-0.0926899
-0.0517636
0.144453
0.122213
-0.0669843
-0.0552282
-0.0173291
0.0180426
-0.000713511
-0.203481
-0.046999
0.048566
-0.157965
-0.0161667
-0.00116236
-0.0066715
-0.00109831
-0.283312
-0.0291884
0.171699
0.00431831
0.00146633
-0.00578464
-0.00822611
0.00235722
-0.0732239
0.0340184
-0.314723
0.162809
0.151914
-0.00683877
0.00779267
-0.000953894
0.000676231
-0.000700898
2.46669e-05
-0.00801178
0.00134029
0.258209
-0.155721
-0.102489
0.0816339
-0.0145424
-0.0670916
0.26335
-0.164413
-0.0989372
-0.0939323
-0.147272
0.0553443
0.0577558
-0.1131
-0.0343201
0.0696376
-0.0353175
-6.88138e-05
0.00108504
-0.00101623
-0.244544
0.150612
-0.0773446
0.0583566
-0.205443
0.206733
-0.0592592
0.226706
0.00188429
0.000820527
-0.00687916
0.00847617
-0.00159701
0.0147495
-0.0497003
0.0349509
-0.0265955
0.0567492
-0.0301537
0.00530861
0.143599
0.120669
-0.264267
0.0024603
-0.00414088
-0.00438995
-0.00288784
-0.000170503
0.105831
-0.0490977
0.00256196
0.00285861
-0.141542
0.0672589
-0.174893
0.103898
0.0709952
0.0865454
-0.0672574
0.0562241
-0.131565
0.0753412
0.0971551
0.0132882
-0.139864
0.262245
-0.122381
-0.00821001
0.000162343
0.00473274
0.0042841
0.00337646
-0.00396114
0.000584683
0.0222602
-0.0343358
0.0120757
0.0354806
-0.127751
-0.0185797
-0.0376717
-0.0121092
0.0142606
-0.0461401
0.0723499
-0.0262097
0.11537
-0.277195
0.161826
-0.00728321
0.000444437
0.00043685
-0.000764802
-0.20057
0.125025
-0.041598
0.0490815
-0.00748348
0.175462
-0.20465
-0.0505818
-0.0675603
0.118142
-0.00200641
0.00632472
0.0292775
-0.0638005
0.034523
0.259603
0.0317156
-0.291319
-0.00720925
-0.00101686
0.0227385
-0.228182
0.000483918
0.00167887
-0.0264248
-0.0151119
0.0415367
-0.0264517
0.0560753
-0.0296236
0.020183
-0.0417734
0.0215905
-0.0508808
-0.0715715
0.0541617
0.0229416
-0.00417273
0.0267168
-0.022544
0.0842344
-0.0307927
0.0546151
-0.0238223
-0.0584725
0.0834064
-0.0249339
0.0237978
0.0334598
-0.0572577
0.0618349
0.0231089
-0.0849439
-0.0173824
-0.00347645
0.0109731
-0.00749662
-0.124984
0.17832
-0.0533354
-0.24089
0.0893373
0.151553
0.0850568
-0.172302
0.0872314
-0.0719064
0.015932
-0.236802
0.00728136
0.229521
-0.203796
-0.000414922
-0.00502136
0.00543628
-0.0144457
0.00350948
0.0416401
-0.00815763
-0.0334825
-0.0068411
-0.0013443
0.128028
-0.084289
-0.0437385
-0.00187809
-0.000303397
-0.123596
0.267195
0.111835
-0.0241837
-0.0271345
0.0513182
-0.206332
0.248632
0.0619059
-0.0282685
-0.0336374
0.0261141
0.026978
0.0226081
-0.0557931
0.033185
0.0266603
-0.0583445
0.0316842
-0.00377627
-0.000592917
-0.0393618
-0.0376584
0.0770202
-0.00474725
-0.00788396
0.0575166
-0.0527453
-0.0047713
0.0259133
-0.0300861
-0.00484763
-0.000944912
0.00579254
-0.0486416
-0.0513923
-0.0379112
0.0236651
-0.0243065
-0.0352958
0.0596023
-0.0464038
0.11236
-0.0659562
0.0397025
-0.0322771
-0.00742537
0.00239861
0.0235147
0.0544458
-0.0192937
-0.00813528
0.00125612
0.000788688
-0.000705791
0.277089
0.0787851
0.0492425
0.00126905
2.43884e-05
-0.00129343
0.24242
-0.141918
-0.100502
0.0709148
-0.113084
0.0421692
-0.0720079
0.0982497
-0.0262418
-0.0574608
0.0310091
-0.0124011
-0.00321764
-0.142567
0.0706476
-0.0369879
0.0705069
-0.033519
-0.00930395
-0.00491716
-0.104756
-0.0701367
-0.189385
0.13329
0.0560959
-0.163189
-0.120123
-0.00291518
0.000619569
0.0286696
-0.0347909
0.0668779
0.0349712
-0.101849
-0.00388392
-0.000261046
6.4878e-05
-0.000204202
0.0832933
0.0948621
0.00211183
0.000370667
0.0425149
-0.0210941
0.0678112
-0.0478002
-0.020011
0.0187628
-0.0154469
-0.00331583
0.0748011
-0.0392309
0.0176358
-0.0861068
0.0483716
0.0377352
-0.0061464
-0.0014276
0.007574
-0.00662547
0.0564521
-0.0498266
-0.108736
-0.0900706
0.198807
0.000488948
0.207813
0.024272
-0.232085
0.257111
-0.155578
-0.101532
-0.10505
0.300076
-0.0209597
0.0140851
0.00687464
0.284542
0.0021167
-0.286659
0.0218267
-0.0549064
-0.134087
0.0582526
0.000175356
-0.000107463
-6.78928e-05
0.0258323
0.00152567
-0.0273579
-0.139405
0.248226
-0.10882
-0.122803
0.0715371
0.0512657
0.00957942
0.00382938
0.0930696
0.121131
-0.176413
0.0552825
0.204279
-0.119167
-0.0655429
0.0855191
-0.0199762
-0.132831
-0.0557113
0.188543
-0.0450108
0.0171201
0.0278906
0.118829
-0.0434542
-0.0753747
0.00701237
-0.243814
0.032083
0.00761948
0.0345415
-0.0613875
-0.0025842
-0.000303646
-0.117239
0.0237711
-0.0547252
-0.00751825
0.00317559
0.00434266
-0.00221951
0.00220409
0.107731
0.126525
-0.0997529
0.0551565
0.176418
-0.0517971
-0.204806
0.16128
0.0435266
0.0685333
-0.0319585
-0.0365748
0.0858415
0.042846
0.185584
-0.102291
0.0479576
0.0742333
0.0437244
0.0289858
-0.0727101
0.273732
-0.151643
-0.122088
-0.0146104
0.011134
-0.0846554
0.026686
-0.0447112
0.0713759
-0.183194
0.0195261
0.163668
0.0366197
-0.147954
0.111334
0.0622483
-0.108652
0.171331
0.077772
-0.0576693
0.0235002
0.0404193
-0.0639195
-0.148806
-0.120856
0.269662
0.0787161
-0.2037
0.171633
0.133906
-0.305539
-0.00462033
-0.000542789
0.0637734
-0.0867899
0.0230165
-0.0389166
0.021634
0.135224
-0.0820026
-0.0532213
-0.00137076
0.00272345
-0.00135269
-0.0141889
0.0169216
-0.0159577
0.0572176
-0.033053
0.0677139
-0.0346609
0.0497023
-0.082211
0.0325088
0.216354
0.0196508
0.0157118
-0.0353626
-0.00576701
0.000398061
0.000112869
-0.00196668
0.0144622
0.0147869
-0.0292491
0.0584628
0.0131032
-0.071566
0.0302647
-0.0198151
-0.0104496
-0.0445672
-0.0299941
0.0611504
-0.0407123
-0.0204382
0.0348823
0.00680073
0.0292123
-0.128984
0.102791
0.142915
-0.0702703
0.0636449
0.00130094
0.00518377
0.0353372
-0.0699579
0.0346207
-0.0710873
0.0386053
-0.181856
0.204458
0.0774603
0.0207894
0.0872863
-0.160337
0.0730506
-0.00355948
0.00216987
0.253482
-0.0954547
0.0662534
-0.0361913
-0.0300621
0.0379251
0.0568385
-0.0947636
0.0409633
-0.0262139
-0.0935829
-0.0524336
0.146016
0.0110028
0.0382534
-0.0492562
0.0316922
-0.0793894
-0.0234542
0.0516124
-0.136755
-0.0451658
0.181921
0.0928401
0.0431113
-0.0549816
0.0118703
-0.0127054
0.00495513
0.00775029
0.0379815
-0.0539364
0.0159549
0.0940906
-0.0825337
-0.011557
-0.101392
0.0798209
-0.174137
0.0943156
-0.000577702
-0.000234725
-0.028415
0.0195969
0.00881811
-0.00023491
-0.000326246
0.000561156
-0.0101101
0.125062
0.0193229
-0.049272