/*--------------------------------*- C++ -*----------------------------------*\
| =========                 |                                                 |
| \\      /  F ield         | OpenFOAM: The Open Source CFD Toolbox           |
|  \\    /   O peration     | Version:  v2012                                 |
|   \\  /    A nd           | Website:  www.openfoam.com                      |
|    \\/     M anipulation  |                                                 |
\*---------------------------------------------------------------------------*/
FoamFile
{
    version     2.0;
    format      ascii;
    class       volVectorField;
    location    "400";
    object      U;
}
// * * * * * * * * * * * * * * * * * * * * * * * * * * * * * * * * * * * * * //

dimensions      [0 1 -1 0 0 0 0];


internalField   nonuniform List<vector> 
54593
(
(0.989453 0.0122991 -2.57646e-22)
(1.14985 0.0250302 0)
(1.01262 0.0131926 3.82946e-22)
(0.268922 -0.0192207 0)
(-0.266521 -0.00447818 0)
(-0.0820014 0.0079496 0)
(0.0187497 -0.00488405 -7.79802e-21)
(1.17544 0.0156634 1.63877e-20)
(1.14105 0.0197969 -8.74521e-21)
(1.01862 0.0280517 -8.41029e-22)
(0.983186 0.0988627 0)
(0.0711897 0.00222624 -6.01306e-21)
(0.272256 0.652966 0)
(1.03533 0.0184176 4.17128e-21)
(0.871798 0.327173 5.73011e-21)
(0.890363 -0.00137722 2.70601e-20)
(1.1746 0.0137922 -2.85663e-20)
(0.853188 0.228529 -4.38316e-22)
(1.01818 0.0277913 -2.35584e-22)
(0.865522 0.0492381 2.84891e-20)
(1.01279 0.0135674 -3.51496e-22)
(1.06 0.0921351 -1.12964e-20)
(1.02012 0.0272866 5.70254e-22)
(-0.23473 0.00265267 0)
(1.01739 0.00238251 0)
(1.1106 -0.0627947 -3.15402e-21)
(0.989498 0.0119305 2.95772e-21)
(1.09371 -0.0271138 -4.68463e-21)
(0.107457 0.00469349 6.08179e-20)
(1.02005 0.0277472 1.14204e-21)
(1.10995 -0.0625975 3.05197e-21)
(1.00697 0.443801 0)
(1.00735 0.0139565 -5.21392e-22)
(-0.22727 0.00182584 -3.29902e-20)
(0.773408 0.0920361 0)
(0.99913 -0.00020278 -3.03944e-22)
(1.10958 0.170651 -1.39881e-20)
(1.15012 0.0267555 1.90008e-20)
(1.05793 0.0177485 -6.8444e-21)
(1.0615 0.0918275 6.10185e-23)
(0.218827 0.18389 0)
(1.32579 0.182279 -3.84862e-22)
(1.01488 0.0109548 -6.64305e-22)
(0.988294 0.011782 6.55743e-21)
(0.433881 -0.20438 -5.85967e-20)
(0.952548 0.0381444 -1.54115e-20)
(1.09203 -0.0508371 7.05396e-21)
(0.918791 0.290484 5.65291e-21)
(1.02932 0.001895 -4.29264e-21)
(1.14561 0.0846865 2.67264e-21)
(1.00728 0.0136088 0)
(1.03015 0.00153619 0)
(1.06413 0.0597254 0)
(0.436907 -0.218206 2.41317e-20)
(1.15592 -0.0377284 -1.36951e-20)
(1.00904 0.000360565 -7.88331e-22)
(0.612485 0.344708 7.51189e-20)
(1.32205 0.173415 3.09538e-20)
(1.15312 -0.0346991 -1.4649e-20)
(0.668195 -0.0213944 -1.04151e-20)
(1.01459 0.0109043 7.03862e-22)
(0.944785 0.0187037 -4.59346e-21)
(1.03574 0.0182684 0)
(0.238194 -0.0138717 0)
(0.997198 0.0143358 5.34421e-21)
(0.893177 -0.00198127 0)
(0.427601 -0.0711158 0)
(0.959327 0.445563 -7.44285e-21)
(-0.272788 -0.000630167 0)
(-0.27264 -0.000831721 0)
(1.02976 0.00156843 1.01702e-23)
(0.777084 0.0965307 0)
(0.997373 0.014602 -5.01508e-23)
(0.940175 -0.0733942 -2.33069e-20)
(1.06063 -0.00500242 -9.29958e-22)
(1.09229 0.012332 -1.30949e-21)
(1.09572 -0.0121152 0)
(0.681554 0.63729 -9.35292e-21)
(-0.117144 0.0151024 -3.36584e-20)
(0.477791 -0.633965 0)
(1.00962 0.000908496 -5.27696e-22)
(0.281432 -0.0278242 5.78607e-21)
(0.988431 0.0113737 -8.10857e-21)
(0.662392 -0.0812079 -3.00129e-20)
(1.00922 0.0779111 -9.47102e-22)
(0.899612 -0.0753432 9.85925e-21)
(-0.176796 -0.0045327 -3.00715e-21)
(1.12971 -0.0355656 5.69e-21)
(0.65768 -0.24381 0)
(0.981088 -0.00039263 1.11603e-20)
(-0.175058 -0.000150701 -6.07599e-20)
(1.06996 0.105417 -4.35419e-21)
(1.19267 -0.00925325 -1.08802e-20)
(1.22299 0.221149 1.69208e-20)
(1.1102 0.0864673 -3.54275e-20)
(0.0946682 -0.0198199 0)
(0.895432 -0.078838 -9.92375e-21)
(1.20318 -0.0282397 0)
(0.974134 0.00438084 -4.4101e-21)
(1.14743 0.0831225 2.45052e-20)
(1.01943 0.0509088 2.04375e-22)
(-0.167759 -0.011026 0)
(0.951811 -0.00692421 0)
(0.998874 0.0132504 0)
(1.00995 0.43162 0)
(1.02381 0.205031 0)
(1.08137 0.189933 1.53611e-20)
(1.12909 -0.0348417 -3.01574e-20)
(1.09119 0.0117784 1.13261e-20)
(0.636686 0.0204517 0)
(0.48994 0.226875 3.50154e-20)
(1.00015 0.01369 1.53699e-21)
(0.980521 -0.000441092 0)
(1.10884 -0.0633016 3.80245e-21)
(0.998567 0.0235282 1.74208e-23)
(-0.177122 -0.0755829 -5.54977e-20)
(-0.267603 -0.000724628 -1.68891e-20)
(0.227289 -0.0118809 1.89389e-21)
(-0.212325 0.00183107 5.87157e-20)
(1.19063 -0.00896904 0)
(0.23827 -0.0133684 0)
(0.999787 0.00027192 -4.17605e-21)
(-0.296385 -0.00238435 4.38696e-20)
(1.08155 -0.0288988 1.05637e-20)
(1.01278 0.018748 -1.72851e-22)
(0.346984 0.193057 0)
(0.951649 0.019758 -8.09578e-21)
(1.01243 0.0185512 -3.92786e-23)
(0.137646 -0.00579337 -9.86756e-21)
(0.494929 -0.071609 -1.33357e-21)
(1.01495 0.000313001 -7.62003e-22)
(1.00534 0.0473851 1.63884e-21)
(1.09397 0.00999829 0)
(0.999018 -0.000235843 2.75985e-21)
(1.07234 0.105216 1.85257e-20)
(0.184381 -0.881165 -1.63235e-21)
(1.03578 0.00211763 0)
(0.86414 -0.0695065 0)
(0.999235 0.0132758 0)
(0.993664 -0.000628471 2.89655e-22)
(-0.322554 -0.00447762 -4.225e-20)
(0.718593 0.212306 0)
(1.09305 0.0105977 0)
(1.32636 0.265882 -1.57758e-20)
(1.09126 0.113903 8.40257e-21)
(0.968955 0.444131 5.97293e-21)
(-0.0626585 -0.0118074 -4.5569e-21)
(1.10606 0.170761 1.6929e-20)
(0.895065 -0.0872682 0)
(1.05384 0.00811938 -8.93794e-23)
(0.652526 -0.0556003 3.392e-22)
(0.983141 0.0406341 3.33712e-21)
(1.11968 -0.0572367 2.16305e-20)
(1.22347 0.217346 -3.41802e-20)
(1.00327 0.0325641 -7.91481e-22)
(0.766269 0.0942004 0)
(0.984195 0.0975455 4.00009e-21)
(0.794807 0.0960898 1.976e-20)
(0.839095 0.325257 2.3159e-20)
(0.974655 0.0072821 -1.34242e-20)
(1.26802 0.243007 1.3816e-20)
(0.918365 0.010377 3.05113e-20)
(-0.325262 -0.00134146 8.82447e-20)
(0.0766599 -0.0126706 -2.04195e-20)
(1.09299 -0.0267572 0)
(1.05028 0.014163 4.02475e-21)
(1.01356 0.000725045 1.53129e-22)
(1.01318 0.00864374 5.94504e-22)
(0.0953707 -0.351012 9.62582e-20)
(1.00001 2.75852e-05 -1.06939e-22)
(1.10306 -0.0635093 -7.56232e-21)
(0.180024 -0.794822 1.26816e-20)
(0.655444 -0.255527 -3.01178e-20)
(0.999818 0.000297154 3.70123e-21)
(1.13958 0.0172767 -4.08039e-21)
(1.00793 0.0135758 0)
(0.537755 0.209439 0)
(0.942369 0.0506797 9.90321e-21)
(0.945795 0.02112 0)
(0.23914 0.189259 0)
(-0.159638 -0.013896 -2.25476e-20)
(1.02526 0.000266152 -3.66386e-21)
(0.101095 0.008582 -2.20021e-20)
(1.01782 0.0525852 -3.81284e-23)
(0.999879 0.00113965 7.4366e-22)
(0.108429 0.000910837 0)
(1.05173 0.00670545 0)
(0.978791 0.0826981 2.77281e-21)
(1.03546 0.0190154 -3.44398e-21)
(1.31158 0.161033 1.47432e-20)
(0.944678 0.0203763 5.07299e-21)
(0.8331 -0.061404 7.69532e-21)
(-0.330642 -0.000191536 -1.61034e-21)
(0.997296 0.0150562 0)
(-0.32446 -0.00013577 0)
(-0.0631233 -0.0124316 -4.77332e-21)
(0.989887 0.0180753 -6.60287e-21)
(0.963137 0.0864835 0)
(1.10951 -0.0634767 -3.52277e-21)
(-0.195941 -0.00614189 -7.27564e-21)
(1.07598 0.107379 0)
(0.3492 0.181547 -6.49363e-20)
(1.13157 -0.0298484 2.30679e-20)
(0.952772 -0.00669627 9.75287e-21)
(0.982517 0.0513321 8.94769e-23)
(0.983645 0.0512942 3.67518e-21)
(0.573147 -0.894269 1.34767e-20)
(1.00962 0.0762761 7.60359e-22)
(1.0583 0.0173361 -2.35e-21)
(1.0099 0.000940734 -6.35587e-22)
(0.993975 0.00136885 0)
(1.03491 0.0191104 -2.54842e-21)
(1.025 0.000298436 1.73814e-21)
(1.09131 0.00622018 -8.78058e-21)
(1.1094 0.0847297 1.89803e-20)
(1.14756 -0.0596061 0)
(0.635407 0.309299 0)
(0.816471 -0.0605262 4.78361e-21)
(0.114324 -0.221021 0)
(0.990342 0.0179325 4.40052e-21)
(1.06475 0.0862429 -6.60546e-21)
(0.825191 0.455595 6.42797e-20)
(1.32163 0.186159 6.15792e-20)
(1.0629 0.0314637 -4.28128e-21)
(0.500615 -0.249422 8.94871e-22)
(1.11728 0.0623218 1.55107e-22)
(1.00002 0.000814999 0)
(0.860325 0.229422 -2.33695e-20)
(1.01138 0.0128341 -8.9331e-23)
(0.844306 0.317482 -2.85354e-20)
(0.952575 0.0202858 0)
(1.09427 -0.0593389 1.08922e-20)
(-0.0699915 0.00353373 0)
(0.999867 0.00126309 0)
(0.965722 -0.00301043 -4.15523e-22)
(0.920813 -0.0793802 9.25098e-21)
(1.10365 -0.0633162 1.28988e-20)
(0.999466 0.00303132 -1.22423e-22)
(0.593409 -0.363555 6.66082e-23)
(0.999449 0.00318198 0)
(1.06218 0.0318412 -4.19922e-21)
(1.09241 0.00633116 0)
(0.659878 -0.0819712 -3.12303e-20)
(1.22668 0.103887 -1.43328e-20)
(1.063 0.0176716 4.48371e-21)
(1.0607 -0.0104995 0)
(0.232417 -0.0458774 0)
(1.09592 -0.0663396 -1.27608e-20)
(1.01417 0.00829628 7.00182e-22)
(1.27062 0.246998 5.68478e-20)
(1.22634 0.100551 1.32006e-20)
(0.0488456 -0.0324594 6.42004e-21)
(0.595989 -0.075248 1.09534e-20)
(1.00568 0.00909263 0)
(1.06021 -0.00438628 3.92587e-22)
(1.01387 0.000405624 -1.4271e-21)
(-0.246086 -0.00202055 -8.74212e-21)
(1.01292 0.0706778 -4.80821e-22)
(1.22834 0.0144515 -1.60526e-20)
(1.05736 0.0943593 -7.24095e-21)
(1.03312 0.251037 0)
(-0.124073 -0.0179047 0)
(0.967732 -0.00548322 0)
(-0.190487 -0.0077682 0)
(1.11044 0.0813267 2.27535e-20)
(1.03184 0.0142505 -8.70958e-22)
(-0.125578 0.00254434 0)
(1.01392 0.00823973 -1.98319e-21)
(0.962756 0.10475 0)
(1.05018 0.0146985 0)
(0.896957 -0.0789976 -1.91384e-20)
(0.987986 0.684804 3.47586e-20)
(1.08752 0.0756023 -6.32575e-21)
(0.989678 0.0126718 -6.99098e-21)
(1.06064 -0.00996458 0)
(1.00067 0.0294367 -1.81996e-21)
(0.942182 0.0161075 -5.21636e-21)
(0.685521 -0.0824122 2.16841e-20)
(1.02375 0.0168833 0)
(1.0917 -0.0504806 -5.95617e-21)
(1.01608 0.000258565 4.48253e-22)
(1.09778 0.00255576 -1.67967e-20)
(1.08067 0.0137677 8.19725e-22)
(-0.316336 0.000739407 0)
(0.234815 -0.0454558 -7.04028e-21)
(0.256425 0.0041856 2.54679e-20)
(1.05935 0.0945452 6.61945e-21)
(1.01389 0.000352633 0)
(1.09347 0.11274 0)
(0.489359 -0.994829 3.21289e-20)
(0.0597314 -0.0339701 -2.16576e-20)
(0.27033 -0.0257376 -6.53878e-21)
(1.00547 0.00892994 4.0024e-22)
(1.00163 0.00737241 0)
(1.11073 -0.0351721 -8.45688e-21)
(1.00005 0.000926069 2.13373e-22)
(0.656907 0.313636 0)
(1.00286 0.673806 -2.6326e-20)
(0.998805 0.0231352 -1.74338e-21)
(1.1015 -0.062204 7.81326e-21)
(1.0975 -0.0673906 7.39683e-21)
(1.05643 0.0328867 -6.98887e-21)
(0.994166 0.00122999 2.43242e-22)
(1.00003 0.000187476 2.8029e-23)
(0.997666 0.0285439 4.67906e-23)
(1.00209 0.0389125 -1.88383e-21)
(1.14691 0.0646945 -9.33267e-21)
(0.083979 -0.00438527 0)
(1.05321 0.00794727 -1.17638e-20)
(0.991197 0.0182617 1.75467e-22)
(0.602218 -0.0755829 0)
(1.04499 0.209265 1.97609e-21)
(-0.320055 0.000725353 -1.81031e-22)
(0.966262 -0.00246347 2.86818e-21)
(0.223523 0.035934 9.47922e-20)
(-0.119437 0.00359445 0)
(0.578796 -0.371638 1.43172e-22)
(1.15411 -0.0843079 0)
(1.16793 -0.0549268 -4.04944e-20)
(1.03789 0.0403357 -3.80748e-23)
(1.17079 0.0464305 0)
(1.01482 0.00982092 0)
(1.13127 -0.075355 -1.03903e-20)
(1.09241 -0.0275164 3.8639e-21)
(0.793622 -0.072545 0)
(1.12533 0.141722 -2.47865e-22)
(0.808627 0.43265 5.08798e-21)
(1.03127 0.0141124 6.73083e-21)
(-0.146343 -0.0155298 1.96749e-20)
(1.08199 -0.0294361 -1.93084e-20)
(0.995657 0.00127589 -6.30296e-21)
(1.04391 0.118938 0)
(0.998717 0.0135111 0)
(0.918525 0.00844077 8.51643e-21)
(1.00002 0.000152777 0)
(0.0719431 -0.554217 -4.59792e-20)
(1.07927 0.00436056 -1.05955e-20)
(0.196437 -0.00460088 -6.69796e-21)
(1.12329 -0.0758605 0)
(1.08964 0.032586 1.32496e-22)
(1.04022 0.209732 1.6805e-21)
(1.06556 0.0601549 5.55703e-21)
(0.244417 -0.0410611 -6.45011e-21)
(1.01409 0.0708584 0)
(1.00279 0.0388132 -1.63212e-21)
(1.15713 0.25553 -6.03716e-21)
(1.14536 0.0866755 1.10423e-20)
(1.10143 -0.0616765 -9.31367e-21)
(1.16781 0.272178 0)
(0.992 0.136037 -1.67309e-20)
(-0.255571 -0.00653395 -6.19724e-21)
(1.00163 0.00718386 2.01946e-21)
(1.12802 -0.074315 0)
(1.22104 0.0902575 5.40208e-20)
(0.982042 0.00691136 -1.3687e-21)
(1.0145 0.0111968 0)
(0.852823 0.00674812 -2.71675e-21)
(0.999741 0.00871265 -1.06773e-21)
(0.987514 0.0286421 -4.13688e-21)
(0.988869 0.0165097 4.18171e-22)
(1.14759 -0.0582382 1.76354e-20)
(1.06511 0.0879358 0)
(1.02621 0.0702072 -1.86557e-21)
(0.12213 -0.00486548 -1.60043e-20)
(0.68262 0.284799 0)
(0.968571 -0.0032902 0)
(0.999644 0.00869147 -1.12647e-21)
(1.31527 0.176638 1.62116e-20)
(1.10138 -0.00568269 -7.32784e-21)
(0.997536 0.0152881 0)
(1.06955 -0.000246116 0)
(0.997179 0.0285077 -4.89622e-21)
(1.01478 0.00959866 7.89288e-22)
(1.03785 0.0410317 3.78676e-21)
(0.912754 0.010771 2.07378e-20)
(0.355567 -0.982235 3.80837e-21)
(1.03681 0.0163741 -3.4655e-21)
(1.30582 0.143743 1.60124e-20)
(1.08742 0.0739111 0)
(-0.0116175 0.0264505 0)
(0.105559 -0.0128571 -2.02261e-20)
(0.804725 0.0567177 -1.58562e-20)
(0.663327 0.392017 0)
(1.09588 -0.0665214 1.45087e-20)
(1.13061 -0.0293977 0)
(0.766232 0.859753 0)
(-0.31067 -0.000187144 0)
(0.999067 0.0134919 0)
(0.683729 -0.0838283 3.12122e-20)
(0.528482 -0.259479 0)
(0.501397 0.0477392 0)
(1.15193 -0.0358326 -1.52524e-20)
(1.07852 0.00462266 -1.31037e-20)
(1.0142 0.0111321 0)
(0.198143 0.0046514 3.94398e-21)
(0.178153 -0.00367004 -9.95983e-21)
(1.30226 0.139656 -1.55244e-20)
(1.14111 0.0179029 0)
(0.585768 0.193188 -6.5238e-20)
(1.11787 -0.0271085 4.98501e-21)
(1.01366 0.0811117 3.76392e-22)
(1.15624 0.156956 -1.68402e-20)
(-0.228996 0.00373992 -1.74896e-20)
(1.2327 0.173642 -1.00952e-19)
(1.13196 -0.0741105 -9.85398e-21)
(0.852106 0.537461 -2.56016e-21)
(1.0187 0.000231268 4.02457e-21)
(0.652017 0.406557 0)
(1.00592 0.0146676 0)
(1.20343 -0.0302285 0)
(1.09844 -0.0679824 1.33174e-20)
(1.0371 0.0168052 0)
(0.993979 -0.000574002 -2.76782e-22)
(1.0876 0.272457 -1.29711e-20)
(1.00062 0.0143616 0)
(0.0826205 0.00114196 -4.06133e-20)
(1.11126 -0.00356552 3.02728e-20)
(0.988581 0.00571091 0)
(1.00217 0.0428206 2.02839e-21)
(1.09164 -0.0272996 6.74491e-21)
(0.707641 0.115288 -3.14405e-20)
(0.0224993 -0.00621664 0)
(1.13062 0.135241 0)
(1.15313 -0.0225804 -2.63385e-20)
(-0.0763085 -0.00743659 4.43466e-21)
(-0.327425 8.36375e-05 6.67563e-21)
(0.37863 -0.0552972 1.17401e-20)
(1.13179 0.0781827 1.47002e-20)
(-0.235826 -0.00067581 0)
(1.03215 0.172321 9.5285e-23)
(0.173986 -0.0447174 2.85649e-20)
(0.883547 0.195706 5.35208e-21)
(0.237904 0.0297437 -1.2891e-19)
(1.14555 0.063339 4.16465e-21)
(1.12379 -0.0216421 0)
(1.0832 -0.0145612 9.15741e-21)
(0.990057 0.0125819 6.11255e-21)
(0.824223 -0.0728867 0)
(0.997117 0.350697 -2.57487e-21)
(1.00352 0.357764 0)
(0.110797 -0.00247619 1.76648e-20)
(0.999891 0.00133538 1.31515e-21)
(1.01304 0.0184652 1.38056e-22)
(0.999246 0.00820334 -3.43932e-23)
(-0.0615246 -0.00490877 -4.00845e-20)
(1.11009 -0.0347864 -8.15614e-21)
(0.998975 0.0179703 0)
(0.974082 0.00706541 1.48205e-20)
(1.11915 -0.056261 -1.1292e-20)
(0.258764 -1.22252 -4.63945e-20)
(1.15221 -0.0836601 -3.01113e-21)
(1.1246 -0.0769267 1.41474e-20)
(0.681577 0.29682 0)
(0.875778 0.254832 -1.45349e-20)
(0.267874 -0.0183881 0)
(0.103001 -0.661027 -8.62654e-21)
(0.995242 0.200176 6.88885e-22)
(0.995829 0.001359 6.84349e-21)
(0.951142 0.0384635 1.89485e-20)
(1.18885 -0.0179483 -2.16618e-20)
(0.998772 0.0177306 -6.94439e-22)
(1.01507 0.00934704 -1.14258e-21)
(0.10743 -0.332392 -1.04949e-19)
(0.984692 0.0344775 4.8091e-21)
(1.02065 0.0151147 2.23046e-21)
(1.18039 0.11479 1.67002e-20)
(1.14928 -0.0575371 -4.02391e-20)
(0.972449 0.0141843 0)
(1.12217 0.0150805 0)
(1.32107 0.155154 2.90791e-20)
(-0.310828 0.000662642 -4.69346e-23)
(-0.25755 -0.00221691 5.29524e-20)
(0.975519 0.156532 -3.86931e-21)
(1.02171 0.00766545 0)
(0.1569 -0.00392634 9.88712e-21)
(0.984009 0.0408032 -5.64277e-21)
(1.00001 3.72672e-05 -2.65922e-22)
(0.839582 -0.0602641 -6.1518e-21)
(-0.0345185 0.0045841 -6.93729e-21)
(0.97226 0.0146381 0)
(1.14259 0.0205389 1.86287e-20)
(0.988733 0.0063636 -9.60496e-22)
(0.540628 -0.253807 1.85837e-20)
(1.10977 -0.0301275 0)
(0.988715 0.00532205 2.92642e-21)
(1.31921 0.158927 -2.74442e-20)
(1.12319 -0.074946 0)
(0.426412 0.489693 5.55266e-20)
(1.01756 0.00251647 1.028e-21)
(0.388231 1.01975 0)
(0.267183 -0.744906 0)
(0.999868 0.00106597 -3.77696e-22)
(1.00458 0.012396 8.47837e-22)
(1.0884 0.0332351 8.79763e-21)
(0.0539292 0.112681 6.06252e-20)
(1.04236 0.0361124 -2.51909e-21)
(0.750605 0.155147 0)
(0.954014 0.0571493 0)
(1.09838 -0.0673701 -1.32548e-20)
(1.0037 0.0396413 0)
(1.26407 0.24482 3.95695e-20)
(-0.16752 -0.00452346 -3.71769e-20)
(1.09599 -0.0661978 -7.2916e-21)
(0.512132 -0.245223 0)
(1.01458 0.0235407 0)
(0.962683 0.227185 0)
(0.974278 0.0056388 0)
(0.707309 0.100987 3.49502e-20)
(0.878331 0.195021 -6.08371e-21)
(1.00992 0.0137365 3.07152e-23)
(0.985616 0.0265557 1.12763e-21)
(1.16385 0.307102 2.24802e-20)
(-0.0733543 -0.00666439 -2.241e-20)
(0.973906 0.00605945 0)
(0.86206 0.0489732 -2.5306e-20)
(0.232129 -0.0278775 0)
(0.292611 0.61687 0)
(1.0062 0.00917586 0)
(0.406421 0.154149 1.42041e-22)
(0.994519 0.0159033 -2.83909e-21)
(1.12903 -0.0375745 -1.11079e-20)
(1.04483 0.0893571 1.04739e-21)
(1.0416 0.0361669 1.85532e-21)
(0.968342 0.0030251 1.22929e-20)
(0.991311 0.017754 5.15425e-21)
(1.11806 -0.0263895 -9.7896e-22)
(0.956745 0.0442555 4.86886e-20)
(0.534534 -0.0610095 0)
(-0.196263 -0.00787064 1.1234e-19)
(1.02968 0.00186567 -2.19415e-23)
(1.05312 0.687472 0)
(1.01478 0.0801116 0)
(0.727296 0.216339 0)
(1.00146 0.0312737 -7.71854e-22)
(1.01334 0.0186474 -1.42433e-22)
(1.01095 0.013497 0)
(-0.278646 -0.000651136 0)
(0.98889 0.00609847 1.55699e-21)
(0.850503 0.00395513 1.31184e-20)
(1.08371 0.18801 -1.42022e-20)
(1.01122 0.0256344 -5.5397e-22)
(1.06211 0.0280459 4.45171e-21)
(1.15125 -0.0848605 -1.57405e-20)
(0.0952743 0.00848603 0)
(0.964428 0.0347229 -2.5313e-21)
(0.137799 -0.00525885 -9.6923e-21)
(-0.237604 -0.00341935 0)
(1.01004 0.0135405 0)
(-0.00706433 0.00432235 0)
(1.02063 0.0148008 0)
(0.88577 0.120121 0)
(1.10332 0.0145516 0)
(1.14914 -0.0562758 0)
(0.229844 0.971276 4.58203e-20)
(1.21859 0.155239 -2.91874e-20)
(1.20553 0.0480447 0)
(0.23152 0.153229 7.00753e-20)
(-0.166924 0.00465856 0)
(1.12452 -0.075926 -1.13585e-20)
(0.3268 -0.0190499 5.49153e-21)
(0.999294 0.00794204 0)
(0.999838 0.00132317 0)
(1.08365 0.268094 -1.04418e-20)
(1.12234 0.0166079 0)
(-0.201369 -0.00533148 -1.02569e-19)
(1.04249 0.0348702 2.26965e-23)
(0.164673 -0.0445998 -1.48317e-20)
(0.973252 0.0191501 -1.22373e-20)
(1.06917 -0.000960251 -9.05028e-21)
(1.15045 -0.0351678 1.24073e-20)
(1.00627 0.00910137 2.80248e-22)
(1.04191 0.118197 5.03747e-21)
(0.465135 0.0565371 -5.04528e-20)
(0.995262 0.0896624 2.88269e-21)
(1.21213 0.43865 4.05851e-20)
(0.220606 -0.0257333 0)
(0.688075 0.606642 1.17911e-20)
(0.490305 -0.665213 -2.96152e-20)
(-0.0743161 0.0082414 2.69541e-20)
(0.0724528 -0.65087 0)
(1.00904 0.0142751 3.39865e-22)
(1.01319 0.00768096 8.14286e-22)
(1.0832 0.0685183 9.43918e-21)
(1.01425 0.0232984 9.1054e-23)
(1.0249 0.0738436 0)
(1.0035 0.0390859 0)
(1.1196 -0.0553405 -2.37152e-20)
(0.974784 0.0647895 0)
(1.0992 -0.0662392 1.60517e-21)
(1.0921 0.00254345 0)
(1.08354 -0.0138893 -7.68433e-21)
(-0.283988 -0.00171284 0)
(1.1331 0.0768101 -1.66627e-20)
(1.1349 -0.00617993 9.18275e-21)
(1.01872 0.0524829 4.70619e-23)
(0.0686795 -0.0362141 0)
(0.0633235 -0.0281193 -8.04817e-21)
(1.01581 0.0265085 0)
(1.00007 0.000512587 -5.44552e-22)
(0.225799 0.137847 -3.06285e-20)
(0.196745 -0.00451609 6.55572e-21)
(1.0616 0.0674785 0)
(0.973806 0.00494239 9.08708e-21)
(0.0199322 -0.0157898 0)
(-0.164347 -0.0124137 2.30658e-20)
(0.450057 0.477886 -5.03324e-20)
(0.0205606 0.00429761 -1.50181e-20)
(0.930411 -0.0104357 0)
(1.0536 0.0958551 7.09945e-21)
(1.02646 0.201721 0)
(1.12912 -0.0685555 0)
(0.987189 0.029166 0)
(1.00006 0.00048048 3.21152e-23)
(0.779094 -0.0914463 0)
(1.16768 -0.00444011 -4.25946e-20)
(1.10347 0.0155129 -8.63032e-21)
(1.02759 0.0705937 0)
(1.21545 -0.0247633 0)
(0.734412 -0.0626999 -4.24118e-21)
(0.999867 0.00123245 3.50929e-22)
(1.01327 0.00745019 0)
(-0.210318 0.0045411 0)
(1.12537 -0.0526431 -6.85202e-21)
(1.12873 -0.0364415 -1.14237e-20)
(0.838362 -0.0690948 8.21526e-21)
(0.226214 -0.737262 -8.47538e-21)
(1.12992 -0.0682156 0)
(0.101761 -0.0286554 0)
(0.0495871 -0.017096 0)
(1.15982 -0.0141392 0)
(1.26712 0.0662653 -2.24486e-20)
(0.994678 0.0155171 -7.81069e-21)
(0.999011 0.0426659 -2.747e-21)
(1.15393 0.155397 0)
(1.01624 0.0268075 -1.14788e-22)
(1.09382 -0.0435082 2.76536e-21)
(0.996658 0.34563 0)
(1.28354 0.235375 -8.72416e-21)
(0.976142 0.0650438 -2.47126e-21)
(0.396926 -0.0695681 0)
(1.19849 -0.0186982 2.92896e-20)
(1.00979 0.0280989 0)
(1.2001 -0.0179095 -3.77675e-20)
(1.01381 0.0113458 -2.88897e-22)
(1.06214 0.0223409 2.10447e-21)
(0.74924 0.888128 1.71251e-20)
(0.406276 0.0248753 8.71506e-20)
(0.158996 -0.043838 -1.43437e-20)
(0.86084 0.115934 0)
(0.286446 -0.0527829 0)
(1.00881 0.0140444 -6.11855e-22)
(1.01238 0.357198 0)
(0.0772717 -0.0228367 9.57765e-21)
(0.730442 -0.0857895 -2.79004e-20)
(1.00321 0.00621212 0)
(1.02439 0.00077672 -1.71289e-21)
(-0.11273 -0.0189539 0)
(0.835738 0.0421964 5.47886e-20)
(1.04272 0.0355377 2.60112e-21)
(1.00249 0.00156246 6.62822e-22)
(0.973495 -8.93133e-05 0)
(1.01546 0.0268285 -5.23645e-23)
(-0.144552 0.0015058 0)
(0.634494 0.0114506 1.02211e-21)
(1.03603 0.0175077 -2.71102e-21)
(1.04244 0.00268177 7.41873e-21)
(-0.225564 0.00175602 0)
(1.11878 -0.0545873 1.19366e-20)
(0.999739 0.0424954 2.89414e-21)
(1.01344 0.00869156 0)
(1.00089 0.0312723 0)
(1.11134 -0.00428687 -2.39629e-20)
(1.09871 0.0700684 -7.493e-21)
(1.01729 0.0798487 2.1571e-23)
(1.20309 0.0478032 0)
(-0.320108 8.33271e-05 5.50645e-20)
(0.859468 -0.0881567 1.61235e-20)
(0.945764 0.0224249 -8.03487e-23)
(1.00328 0.00612209 9.9343e-24)
(0.995642 0.0154604 1.83188e-21)
(1.0806 0.0128411 1.1518e-20)
(1.03147 0.168731 -3.8416e-21)
(0.999865 0.00119538 -8.70274e-22)
(-0.0768842 -0.0213718 -9.18654e-21)
(0.0016589 0.0135883 -2.92647e-20)
(0.978534 0.0809494 0)
(0.994118 0.000711967 0)
(1.01336 0.0265654 0)
(1.09336 -0.062999 1.51367e-20)
(0.413684 0.233139 -1.33279e-19)
(1.03376 0.00187311 -1.75678e-21)
(0.975225 -0.00323787 -8.67955e-21)
(-0.163184 -0.0138196 1.14296e-20)
(0.988958 0.0589633 7.18259e-21)
(1.00914 0.0992132 2.33376e-22)
(0.430055 -0.140096 3.88394e-21)
(1.0356 0.0176193 0)
(0.485541 -0.240557 -1.01463e-19)
(-0.157285 0.00564322 6.42991e-20)
(1.0349 0.256388 -8.02655e-23)
(0.993972 0.000915414 2.78104e-24)
(1.00346 0.0772684 -2.46251e-21)
(-0.232372 0.00588162 -4.12513e-20)
(0.675389 -0.0267439 0)
(0.985877 0.0269825 6.32817e-22)
(-0.152037 -0.0123978 0)
(1.00204 0.0167467 -2.22421e-21)
(-0.222149 0.00691524 4.33992e-21)
(1.14527 0.0959728 0)
(1.07374 -0.0131293 -3.25524e-21)
(0.99114 0.0497173 2.41297e-21)
(1.03491 0.00209089 -6.58813e-21)
(0.188291 -0.0056249 -4.51826e-21)
(1.00316 0.00378288 0)
(0.870035 0.236517 -1.18036e-20)
(-0.0557305 0.00699496 6.03484e-21)
(0.941518 0.176242 -2.33321e-21)
(1.03771 0.0222072 -3.11913e-21)
(0.773895 -0.089565 -5.04615e-20)
(-0.282688 -0.00301799 0)
(1.0972 0.00340494 2.55886e-20)
(-0.327557 0.000425743 0)
(0.976759 0.159115 0)
(0.254477 -0.0458078 1.5237e-20)
(-0.157672 -0.0336518 4.60735e-20)
(-0.238461 -0.00700908 -6.34542e-20)
(1.00322 0.0036858 1.47077e-22)
(1.26475 0.269 0)
(1.0081 0.0752345 -9.77074e-22)
(0.973578 -0.000648156 -4.79375e-21)
(1.01312 0.0122957 0)
(1.01411 0.0114297 -3.37895e-22)
(-0.233817 -0.000726606 0)
(-0.170341 -0.00759754 -1.11815e-19)
(0.370387 -0.0679891 -5.8092e-21)
(0.870649 0.250781 0)
(0.321122 0.0999892 3.78986e-20)
(0.999959 0.0205114 2.42096e-21)
(0.96149 0.0875572 0)
(1.0023 0.0034523 1.4079e-21)
(0.991263 0.0214453 -3.38427e-21)
(0.804371 -0.0605931 -7.76852e-21)
(0.750984 0.821479 -6.36265e-21)
(1.27006 0.063755 0)
(1.00002 0.000682668 1.2318e-21)
(-0.0639965 -0.0233203 -7.88414e-21)
(0.702732 0.0938649 -2.26739e-21)
(0.0280945 -0.00575647 -2.66296e-20)
(1.09786 -0.0664029 1.30353e-20)
(0.863243 0.0471216 1.78189e-20)
(1.09736 -0.0661323 0)
(1.12122 -0.0664794 0)
(0.0893311 0.00421966 0)
(-0.331732 0.00162903 5.0184e-20)
(1.09523 -0.063515 -1.68889e-20)
(-0.299701 0.000599899 2.24948e-20)
(1.00041 0.0142362 0)
(0.761502 -0.0642425 9.50611e-22)
(1.00419 -0.00153363 4.22528e-20)
(1.11343 -0.0566549 0)
(0.393889 -0.0569831 -1.25041e-20)
(0.518489 -0.0599905 1.69341e-22)
(0.518339 0.0233465 -4.35278e-20)
(1.14432 0.0230081 1.80889e-20)
(0.496191 -0.0604346 2.60727e-21)
(0.841261 -0.0403946 -1.21362e-20)
(0.572675 0.195499 7.12887e-20)
(0.536596 0.934746 3.80367e-21)
(1.07434 0.0043121 -6.23897e-21)
(1.00212 0.00475457 -7.3772e-22)
(0.994109 0.000213873 -2.71821e-22)
(1.00233 0.00337935 -4.07645e-22)
(0.222699 0.00366498 7.16978e-21)
(1.16799 0.266891 -5.57106e-21)
(1.05174 0.0956225 6.17663e-21)
(1.03545 0.0018991 0)
(1.01505 0.0135362 -1.47769e-21)
(0.991171 -0.00134073 2.707e-21)
(1.32058 0.172593 -4.65955e-22)
(1.01126 0.013644 -1.81383e-22)
(0.210146 0.00587321 4.65447e-23)
(1.10898 -0.0557846 1.27376e-20)
(-0.178599 -0.00409969 0)
(1.03749 0.0217065 3.76424e-21)
(1.09653 -0.0665079 -7.45468e-21)
(-0.245042 0.00335762 -1.66312e-20)
(1.00701 0.013377 0)
(-0.237283 -0.00679362 0)
(0.888238 -0.0784672 0)
(0.226959 -0.0123466 -1.81364e-21)
(-0.124082 -0.00614159 0)
(1.00007 0.000477753 1.00341e-21)
(0.921462 0.109842 -2.49141e-22)
(1.14457 -0.0425819 0)
(1.0059 0.0482427 0)
(1.11503 0.124628 -7.76873e-21)
(0.860162 -0.0748537 9.25638e-21)
(1.06265 0.021766 0)
(0.878456 0.0384488 -5.91914e-20)
(-0.147109 -0.0147266 3.52465e-20)
(1.22934 0.0165256 1.8629e-20)
(0.998707 0.0291302 -2.70416e-21)
(1.01244 0.00910418 0)
(0.425582 -1.05499 -3.87725e-20)
(0.972323 0.20742 -4.74022e-21)
(1.28078 0.0129475 0)
(1.01637 0.0808061 -2.40376e-23)
(1.11771 -0.0575037 -2.44931e-20)
(0.702006 0.108705 -8.33049e-20)
(1.16876 0.0456351 0)
(0.00696307 -0.00630731 -2.64691e-20)
(1.23894 -0.0187932 1.11327e-20)
(1.11164 0.00200869 4.7504e-21)
(1.21565 0.156414 -9.25102e-21)
(0.994223 0.00191593 0)
(1.00006 0.000454139 -5.6762e-22)
(0.994005 0.00182213 -9.32012e-22)
(1.16214 0.259521 -1.39634e-20)
(0.494245 0.936193 0)
(0.898023 -0.086996 0)
(1.11621 0.00383296 -1.43535e-21)
(1.12827 0.14042 9.07829e-21)
(-0.242555 0.00496165 -1.0503e-20)
(1.15715 -0.0367915 -1.61014e-20)
(1.10117 0.00420964 1.58344e-20)
(0.92928 -0.00867406 0)
(1.2684 0.0639976 0)
(1.02296 0.0176135 1.91174e-21)
(0.952299 0.00243917 1.40403e-20)
(0.966931 -0.00556709 -6.30539e-21)
(-0.28567 -0.000152012 -1.93791e-20)
(0.943494 0.0182231 -2.73698e-21)
(1.00026 0.0207213 -2.79443e-21)
(1.04781 0.020704 0)
(1.01385 0.000736145 -1.54457e-22)
(1.15899 -0.032559 0)
(0.969058 -0.00391718 0)
(1.00253 0.0033958 0)
(1.00209 0.0046272 0)
(0.653843 -0.00886149 0)
(1.01354 0.023294 0)
(1.0082 0.000173285 3.80002e-22)
(-0.139747 -0.0163387 -2.36395e-20)
(1.015 0.0265419 1.55615e-22)
(1.073 -0.0129599 0)
(0.20009 0.00404705 -3.50244e-21)
(0.0368568 0.183974 -7.48354e-20)
(1.01271 0.00918921 0)
(1.22963 0.346231 0)
(0.750208 -0.0881534 3.69656e-20)
(0.0703262 -0.0193772 0)
(1.01168 0.0129556 -1.42468e-22)
(-0.132018 -0.0165088 8.02506e-23)
(1.02305 0.017933 -2.29406e-21)
(0.448759 0.224956 0)
(1.03343 0.00137626 -4.50454e-22)
(0.141307 -0.147567 0)
(1.25779 -0.015726 0)
(1.1673 0.302355 2.88651e-20)
(0.999156 0.0290046 0)
(-0.231182 -0.00171852 -4.8746e-20)
(1.00899 0.0972682 0)
(1.01438 0.0182459 -4.07686e-22)
(1.01339 0.00792369 -1.35524e-21)
(0.886981 0.0554642 -2.07435e-22)
(-0.315517 -0.0006716 1.51494e-21)
(1.05517 0.0664915 0)
(1.0027 0.001753 -4.26219e-22)
(0.0706109 0.00672959 1.14941e-20)
(1.06066 0.0138733 7.3444e-21)
(1.09929 0.0450616 1.23948e-20)
(0.389177 0.39981 1.54576e-19)
(1.01233 0.0130429 4.11624e-22)
(0.991675 0.0212744 1.70227e-21)
(0.397654 0.384879 2.80084e-20)
(-0.315788 -0.000453468 0)
(1.02154 0.000220544 -1.91614e-21)
(0.990965 -0.0011199 1.57321e-21)
(0.208039 -0.0093677 1.36372e-20)
(-0.319577 0.0027894 -4.67938e-20)
(1.11831 -0.0585141 1.11278e-20)
(1.0208 0.000246156 -2.7417e-21)
(-0.305073 0.00326182 -3.14833e-21)
(0.0116805 0.00115244 -8.77389e-20)
(-0.323805 -2.80453e-05 8.78005e-21)
(1.01342 0.0115346 2.97136e-22)
(1.18884 0.106338 -4.89262e-20)
(1.00659 0.0132854 5.24734e-22)
(1.02496 0.000514726 -1.84489e-21)
(1.07914 0.0739671 3.68795e-23)
(1.12091 -0.0423019 -1.09541e-20)
(-0.032667 -0.0279216 3.0464e-20)
(1.0247 0.000547702 1.81211e-21)
(0.942008 0.0147861 -6.18165e-21)
(0.995647 0.000893209 5.77184e-21)
(1.03457 0.00190362 8.04693e-21)
(0.0844167 0.00573662 0)
(-0.336733 0.000320149 1.24216e-20)
(1.28157 0.0993281 -2.83773e-20)
(0.807542 0.198172 3.59851e-20)
(0.240754 0.00817003 -5.38741e-20)
(1.00828 0.00525097 -3.21856e-22)
(-0.147664 -0.0151883 -1.13748e-20)
(0.289783 -0.444247 0)
(-0.123289 0.0037235 0)
(0.994655 0.0911369 -1.49485e-21)
(-0.180656 -0.00539323 -2.17955e-20)
(1.00141 0.0429152 -1.43112e-21)
(1.02654 0.0349429 -1.55207e-21)
(0.960887 0.106449 0)
(1.00085 0.0551482 1.9755e-21)
(1.11856 0.0613163 5.21846e-21)
(1.00575 0.0129668 5.77028e-22)
(-0.335416 0.000214003 -1.44687e-21)
(0.245983 -0.0401518 0)
(0.034336 -0.148785 7.39112e-20)
(0.661349 -0.220537 4.81381e-22)
(1.00345 0.0758664 4.34581e-21)
(1.09048 -0.0584384 -4.72638e-21)
(0.418375 -0.195049 1.00547e-19)
(1.22544 0.157373 -2.97294e-20)
(1.01657 0.00272724 4.93136e-22)
(-0.296307 0.00384509 0)
(0.0115308 -0.0156075 0)
(0.995973 0.0153933 3.08465e-21)
(1.09174 0.483228 9.59159e-21)
(0.991088 -0.000664962 -7.00798e-21)
(1.08328 -0.0093704 -8.25576e-21)
(0.216949 -0.0110272 -1.64337e-20)
(1.14234 0.263611 1.98376e-20)
(0.999875 0.00128821 -6.18229e-21)
(-0.318405 0.00123845 8.89412e-20)
(0.995808 0.000776857 -7.78801e-21)
(0.0919879 -0.00551686 0)
(0.874968 0.4144 4.43741e-21)
(1.11881 -0.0630996 4.72532e-23)
(0.782268 0.294542 2.69998e-20)
(1.1014 0.00509472 -1.322e-20)
(1.16748 -0.0057035 3.5748e-20)
(0.612094 -0.0924471 5.52316e-20)
(1.03383 0.00154072 1.86308e-21)
(1.10061 -0.0609654 1.56372e-21)
(1.14542 0.0596741 1.17999e-21)
(1.22402 -0.0320068 5.36444e-20)
(1.10085 0.131657 -2.83924e-21)
(0.830796 -0.0739285 0)
(0.504207 -0.0465464 -1.06667e-20)
(0.990337 0.000284095 1.61869e-20)
(1.00048 0.016745 -1.19679e-21)
(1.01389 0.023544 3.28987e-23)
(1.00268 0.0325754 -7.77126e-22)
(1.13618 -0.00589571 0)
(0.998168 0.00739105 0)
(1.0341 0.00206189 -9.25083e-22)
(-0.207806 0.0113186 0)
(0.442102 -0.145502 0)
(0.71337 0.0169719 3.25543e-20)
(-0.317458 0.000703927 -2.44612e-20)
(1.04527 0.093179 3.47104e-21)