/*--------------------------------*- C++ -*----------------------------------*\
| =========                 |                                                 |
| \\      /  F ield         | OpenFOAM: The Open Source CFD Toolbox           |
|  \\    /   O peration     | Version:  v2012                                 |
|   \\  /    A nd           | Website:  www.openfoam.com                      |
|    \\/     M anipulation  |                                                 |
\*---------------------------------------------------------------------------*/
FoamFile
{
    version     2.0;
    format      ascii;
    class       volVectorField;
    location    "400";
    object      U_0;
}
// * * * * * * * * * * * * * * * * * * * * * * * * * * * * * * * * * * * * * //

dimensions      [0 1 -1 0 0 0 0];


internalField   nonuniform List<vector> 
54593
(
(0.989453 0.0122989 -2.57653e-22)
(1.14985 0.0250291 0)
(1.01262 0.0131924 3.82947e-22)
(0.268887 -0.0192121 0)
(-0.266542 -0.00447901 0)
(-0.0820001 0.00795439 0)
(0.0187742 -0.00488302 -7.79683e-21)
(1.17544 0.0156599 1.63874e-20)
(1.14104 0.0197964 -8.74503e-21)
(1.01862 0.0280517 -8.40946e-22)
(0.983184 0.0988622 0)
(0.0711982 0.00222738 -6.01272e-21)
(0.272255 0.652961 0)
(1.03533 0.0184179 4.17131e-21)
(0.871795 0.32717 5.73037e-21)
(0.890363 -0.00137867 2.70604e-20)
(1.1746 0.0137887 -2.85658e-20)
(0.853186 0.228526 -4.38318e-22)
(1.01818 0.0277913 -2.35549e-22)
(0.865522 0.0492365 2.84894e-20)
(1.01279 0.0135672 -3.51493e-22)
(1.05999 0.0921353 -1.12959e-20)
(1.02012 0.0272867 5.70222e-22)
(-0.23473 0.00265183 0)
(1.01739 0.00238256 0)
(1.1106 -0.0627731 -3.15389e-21)
(0.989497 0.0119303 2.95781e-21)
(1.09371 -0.0271091 -4.68456e-21)
(0.10745 0.00470256 6.08167e-20)
(1.02005 0.0277473 1.14196e-21)
(1.10995 -0.0625761 3.05186e-21)
(1.00696 0.443798 0)
(1.00735 0.0139563 -5.21428e-22)
(-0.227272 0.00182935 -3.29898e-20)
(0.773407 0.0920338 0)
(0.99913 -0.000203322 -3.03956e-22)
(1.10958 0.170652 -1.39877e-20)
(1.15012 0.0267543 1.90005e-20)
(1.05793 0.017749 -6.84438e-21)
(1.0615 0.0918276 6.10143e-23)
(0.218827 0.183885 0)
(1.3258 0.182268 -3.83596e-22)
(1.01488 0.0109548 -6.64328e-22)
(0.988294 0.0117817 6.55761e-21)
(0.433881 -0.204384 -5.85969e-20)
(0.952548 0.0381433 -1.54118e-20)
(1.09204 -0.050831 7.05409e-21)
(0.918788 0.290482 5.65329e-21)
(1.02932 0.00189532 -4.293e-21)
(1.14561 0.0846863 2.6726e-21)
(1.00728 0.0136086 0)
(1.03015 0.00153655 0)
(1.06413 0.0597257 0)
(0.436907 -0.21821 2.41318e-20)
(1.15591 -0.0377268 -1.36943e-20)
(1.00904 0.000360563 -7.88405e-22)
(0.612494 0.344738 7.51163e-20)
(1.32202 0.173466 3.09624e-20)
(1.15311 -0.0346971 -1.46482e-20)
(0.668195 -0.0213974 -1.04151e-20)
(1.01459 0.0109043 7.03887e-22)
(0.944785 0.0187024 -4.59353e-21)
(1.03574 0.0182686 0)
(0.238158 -0.0138654 0)
(0.997198 0.0143357 5.3444e-21)
(0.893177 -0.00198271 0)
(0.427614 -0.0711241 0)
(0.959322 0.44556 -7.44203e-21)
(-0.272799 -0.000627486 0)
(-0.27265 -0.00082907 0)
(1.02976 0.00156877 1.0165e-23)
(0.777084 0.0965284 0)
(0.997373 0.0146019 -5.01518e-23)
(0.940205 -0.0734145 -2.33056e-20)
(1.06063 -0.00500106 -9.29972e-22)
(1.09229 0.0123333 -1.30947e-21)
(1.09572 -0.0121121 0)
(0.681551 0.637285 -9.3537e-21)
(-0.117139 0.0151031 -3.36573e-20)
(0.477792 -0.63397 0)
(1.00962 0.000908488 -5.27746e-22)
(0.28141 -0.027811 5.78676e-21)
(0.988431 0.0113734 -8.1088e-21)
(0.662395 -0.0811988 -3.00071e-20)
(1.00921 0.0779109 -9.47283e-22)
(0.89964 -0.0753633 9.85868e-21)
(-0.176786 -0.00453461 -3.00689e-21)
(1.1297 -0.0355588 5.68973e-21)
(0.657681 -0.243814 0)
(0.981088 -0.000393139 1.11605e-20)
(-0.175061 -0.000150765 -6.07615e-20)
(1.06996 0.105417 -4.35404e-21)
(1.19266 -0.0092609 -1.088e-20)
(1.22299 0.221152 1.69205e-20)
(1.1102 0.0864673 -3.54268e-20)
(0.0946543 -0.0198152 0)
(0.895396 -0.0788038 -9.92293e-21)
(1.20317 -0.028252 0)
(0.974134 0.00437998 -4.4102e-21)
(1.14743 0.0831223 2.45049e-20)
(1.01942 0.0509089 2.04294e-22)
(-0.167784 -0.0110259 0)
(0.951811 -0.00692548 0)
(0.998874 0.0132503 0)
(1.00994 0.431618 0)
(1.02381 0.205031 0)
(1.08137 0.189933 1.53605e-20)
(1.12908 -0.034835 -3.0156e-20)
(1.09119 0.0117796 1.1326e-20)
(0.636686 0.0204486 0)
(0.489943 0.226876 3.50142e-20)
(1.00015 0.0136899 1.53705e-21)
(0.980521 -0.000441638 0)
(1.10884 -0.0632796 3.80234e-21)
(0.998567 0.0235278 1.74215e-23)
(-0.177122 -0.0755818 -5.54969e-20)
(-0.267613 -0.000721763 -1.68891e-20)
(0.227253 -0.0118754 1.89426e-21)
(-0.212328 0.00183502 5.87149e-20)
(1.19062 -0.00897625 0)
(0.238234 -0.0133624 0)
(0.999787 0.000271719 -4.17622e-21)
(-0.296383 -0.00238283 4.38699e-20)
(1.08156 -0.028895 1.05637e-20)
(1.01278 0.0187478 -1.72813e-22)
(0.346984 0.193052 0)
(0.951649 0.0197568 -8.09592e-21)
(1.01243 0.0185509 -3.92442e-23)
(0.137631 -0.00579068 -9.86836e-21)
(0.494948 -0.0716271 -1.33345e-21)
(1.01495 0.00031301 -7.62081e-22)
(1.00534 0.0473847 1.63898e-21)
(1.09397 0.00999965 0)
(0.999018 -0.000236421 2.75996e-21)
(1.07234 0.105217 1.85251e-20)
(0.184382 -0.881172 -1.63232e-21)
(1.03578 0.00211808 0)
(0.86409 -0.0694784 0)
(0.999235 0.0132758 0)
(0.993664 -0.000628816 2.89665e-22)
(-0.322553 -0.00447673 -4.22504e-20)
(0.718591 0.212303 0)
(1.09305 0.010599 0)
(1.32635 0.265893 -1.57746e-20)
(1.09126 0.113904 8.40234e-21)
(0.968951 0.444128 5.97224e-21)
(-0.0626279 -0.011809 -4.55615e-21)
(1.10606 0.170762 1.69285e-20)
(0.895077 -0.087269 0)
(1.05384 0.00812001 -8.93724e-23)
(0.652527 -0.0556033 3.39202e-22)
(0.98314 0.0406332 3.33723e-21)
(1.11967 -0.0572201 2.16291e-20)
(1.22346 0.21735 -3.41795e-20)
(1.00327 0.0325636 -7.91526e-22)
(0.766243 0.094204 0)
(0.984194 0.097545 4.00033e-21)
(0.79478 0.0960931 1.97595e-20)
(0.839092 0.325254 2.31597e-20)
(0.974655 0.00728124 -1.34245e-20)
(1.26802 0.243009 1.38161e-20)
(0.918365 0.0103757 3.05116e-20)
(-0.325261 -0.0013406 8.82455e-20)
(0.0766478 -0.0126619 -2.04201e-20)
(1.09299 -0.0267526 0)
(1.05028 0.0141634 4.02477e-21)
(1.01356 0.000725064 1.53144e-22)
(1.01318 0.00864374 5.94536e-22)
(0.0953709 -0.351017 9.62584e-20)
(1.00001 2.75848e-05 -1.06942e-22)
(1.10306 -0.0634874 -7.56232e-21)
(0.180024 -0.794828 1.26815e-20)
(0.655445 -0.25553 -3.01179e-20)
(0.999818 0.000296976 3.70137e-21)
(1.13958 0.0172764 -4.0803e-21)
(1.00793 0.0135756 0)
(0.537752 0.209434 0)
(0.942369 0.0506786 9.9034e-21)
(0.945795 0.0211187 0)
(0.23914 0.189254 0)
(-0.159655 -0.0139009 -2.25473e-20)
(1.02526 0.00026643 -3.6643e-21)
(0.101089 0.00859001 -2.20016e-20)
(1.01782 0.0525852 -3.8038e-23)
(0.999879 0.00113949 7.43688e-22)
(0.108462 0.000910884 0)
(1.05173 0.00670608 0)
(0.97879 0.0826975 2.77293e-21)
(1.03546 0.0190157 -3.444e-21)
(1.31158 0.161041 1.47468e-20)
(0.944678 0.020375 5.07307e-21)
(0.833048 -0.0613896 7.69673e-21)
(-0.330647 -0.00019134 -1.61037e-21)
(0.997295 0.0150561 0)
(-0.324439 -0.00013513 0)
(-0.0630933 -0.0124332 -4.77255e-21)
(0.989887 0.0180749 -6.60306e-21)
(0.963136 0.0864828 0)
(1.10951 -0.0634545 -3.52266e-21)
(-0.195943 -0.00614209 -7.27583e-21)
(1.07598 0.107379 0)
(0.3492 0.181543 -6.49368e-20)
(1.13156 -0.0298432 2.30669e-20)
(0.952772 -0.00669754 9.753e-21)
(0.982517 0.0513313 8.94782e-23)
(0.983644 0.0512934 3.67531e-21)
(0.573149 -0.894276 1.34774e-20)
(1.00962 0.0762759 7.60505e-22)
(1.0583 0.0173366 -2.35e-21)
(1.0099 0.000940727 -6.35645e-22)
(0.993975 0.00136848 0)
(1.03491 0.0191107 -2.54843e-21)
(1.025 0.000298706 1.73835e-21)
(1.09131 0.00622175 -8.78046e-21)
(1.1094 0.0847298 1.898e-20)
(1.14754 -0.0595969 0)
(0.635404 0.30929 0)
(0.816422 -0.0605153 4.78457e-21)
(0.114322 -0.221019 0)
(0.990342 0.0179321 4.40065e-21)
(1.06475 0.0862431 -6.60523e-21)
(0.82522 0.455578 6.42762e-20)
(1.32162 0.186184 6.15689e-20)
(1.0629 0.0314641 -4.28122e-21)
(0.500615 -0.249426 8.94877e-22)
(1.11728 0.0623217 1.55105e-22)
(1.00002 0.000814966 0)
(0.860323 0.22942 -2.337e-20)
(1.01138 0.0128339 -8.93293e-23)
(0.844303 0.317479 -2.85363e-20)
(0.952575 0.0202846 0)
(1.09429 -0.0593273 1.08929e-20)
(-0.0700152 0.00353401 0)
(0.999867 0.0012629 0)
(0.965722 -0.00301154 -4.1553e-22)
(0.920777 -0.0793488 9.2502e-21)
(1.10366 -0.0632945 1.28989e-20)
(0.999466 0.0030308 -1.22428e-22)
(0.593411 -0.36356 6.661e-23)
(0.999448 0.00318144 0)
(1.06218 0.0318416 -4.19916e-21)
(1.0924 0.00633274 0)
(0.659884 -0.0819663 -3.12243e-20)
(1.22668 0.103889 -1.43328e-20)
(1.063 0.0176722 4.48369e-21)
(1.0607 -0.010498 0)
(0.232436 -0.0458675 0)
(1.09595 -0.0663142 -1.27625e-20)
(1.01417 0.00829634 7.00219e-22)
(1.27061 0.247001 5.68487e-20)
(1.22634 0.100552 1.32005e-20)
(0.0488732 -0.0324629 6.41886e-21)
(0.595971 -0.0752266 1.09517e-20)
(1.00568 0.00909262 0)
(1.06021 -0.00438496 3.92593e-22)
(1.01387 0.000405636 -1.42724e-21)
(-0.246098 -0.00202161 -8.74196e-21)
(1.01292 0.0706777 -4.80958e-22)
(1.22834 0.0144432 -1.60527e-20)
(1.05735 0.0943595 -7.24064e-21)
(1.03311 0.251037 0)
(-0.124089 -0.0179113 0)
(0.967732 -0.00548429 0)
(-0.19049 -0.00776844 0)
(1.11044 0.0813267 2.2753e-20)
(1.03184 0.0142507 -8.70981e-22)
(-0.125607 0.00254362 0)
(1.01392 0.00823978 -1.9833e-21)
(0.962755 0.104749 0)
(1.05017 0.0146989 0)
(0.896985 -0.0790126 -1.91369e-20)
(0.987977 0.6848 3.47602e-20)
(1.08752 0.0756025 -6.3256e-21)
(0.989678 0.0126716 -6.99118e-21)
(1.06064 -0.00996307 0)
(1.00067 0.0294361 -1.82005e-21)
(0.942181 0.0161062 -5.21643e-21)
(0.685523 -0.0824018 2.168e-20)
(1.02375 0.0168836 0)
(1.0917 -0.0504748 -5.95626e-21)
(1.01608 0.00025857 4.48303e-22)
(1.09778 0.00255764 -1.67964e-20)
(1.08067 0.0137687 8.19716e-22)
(-0.316314 0.000740218 0)
(0.234833 -0.0454455 -7.03914e-21)
(0.256425 0.00418112 2.54681e-20)
(1.05935 0.0945453 6.61918e-21)
(1.01389 0.00035264 0)
(1.09347 0.11274 0)
(0.48936 -0.994835 3.21296e-20)
(0.0597582 -0.0339739 -2.16536e-20)
(0.270308 -0.0257252 -6.53957e-21)
(1.00547 0.00892995 4.0026e-22)
(1.00163 0.00737222 0)
(1.11073 -0.0351645 -8.45662e-21)
(1.00005 0.000926028 2.13382e-22)
(0.656907 0.313632 0)
(1.00286 0.673799 -2.6327e-20)
(0.998804 0.0231348 -1.74345e-21)
(1.10151 -0.062184 7.81332e-21)
(1.09752 -0.067368 7.397e-21)
(1.05642 0.0328871 -6.98876e-21)
(0.994166 0.0012296 2.4325e-22)
(1.00003 0.000187471 2.80301e-23)
(0.997666 0.0285433 4.6791e-23)
(1.00209 0.038912 -1.88394e-21)
(1.14691 0.0646939 -9.33254e-21)
(0.0839839 -0.0043834 0)
(1.05321 0.0079479 -1.17639e-20)
(0.991196 0.0182613 1.75472e-22)
(0.602199 -0.0755607 0)
(1.04499 0.209265 1.97597e-21)
(-0.32007 0.000726486 -1.81032e-22)
(0.966262 -0.00246457 2.86823e-21)
(0.223523 0.0359295 9.47928e-20)
(-0.119466 0.00359323 0)
(0.578797 -0.371642 1.43175e-22)
(1.15407 -0.0842832 0)
(1.16791 -0.0549271 -4.04911e-20)
(1.03789 0.0403361 -3.80719e-23)
(1.17079 0.0464286 0)
(1.01482 0.00982099 0)
(1.13126 -0.0753312 -1.03891e-20)
(1.09241 -0.0275117 3.86385e-21)
(0.793576 -0.0725134 0)
(1.12532 0.141723 -2.47865e-22)
(0.808624 0.432647 5.0882e-21)
(1.03127 0.0141126 6.73098e-21)
(-0.146361 -0.0155352 1.96747e-20)
(1.08199 -0.0294322 -1.93083e-20)
(0.995657 0.00127533 -6.30318e-21)
(1.04391 0.118938 0)
(0.998717 0.0135111 0)
(0.918525 0.00843942 8.51652e-21)
(1.00002 0.000152774 0)
(0.0719433 -0.554222 -4.59792e-20)
(1.07927 0.00436201 -1.05954e-20)
(0.196394 -0.0045987 -6.69941e-21)
(1.12327 -0.0758323 0)
(1.08964 0.0325865 1.32493e-22)
(1.04021 0.209731 1.68038e-21)
(1.06556 0.0601552 5.55688e-21)
(0.244428 -0.0410477 -6.4494e-21)
(1.01409 0.0708583 0)
(1.00279 0.0388127 -1.63222e-21)
(1.15713 0.255531 -6.037e-21)
(1.14536 0.0866753 1.10421e-20)
(1.10144 -0.0616571 -9.31375e-21)
(1.16781 0.27218 0)
(0.991971 0.13604 -1.67296e-20)
(-0.255558 -0.0065338 -6.19711e-21)
(1.00163 0.00718366 2.01954e-21)
(1.128 -0.0742903 0)
(1.22104 0.0902579 5.40208e-20)
(0.982042 0.00691086 -1.36873e-21)
(1.0145 0.0111968 0)
(0.852823 0.00674644 -2.71677e-21)
(0.999741 0.00871233 -1.06777e-21)
(0.987513 0.0286413 -4.137e-21)
(0.988869 0.0165093 4.18183e-22)
(1.14757 -0.0582294 1.76338e-20)
(1.06511 0.0879359 0)
(1.02621 0.0702072 -1.86528e-21)
(0.12212 -0.00486331 -1.60051e-20)
(0.682618 0.284796 0)
(0.968571 -0.00329124 0)
(0.999644 0.00869115 -1.12651e-21)
(1.31527 0.176616 1.62145e-20)
(1.10138 -0.00568008 -7.3277e-21)
(0.997536 0.015288 0)
(1.06955 -0.000244682 0)
(0.997179 0.028507 -4.89642e-21)
(1.01478 0.00959873 7.89325e-22)
(1.03785 0.041032 3.78664e-21)
(0.912754 0.0107697 2.07381e-20)
(0.355567 -0.982242 3.80841e-21)
(1.03681 0.0163744 -3.46555e-21)
(1.30581 0.143792 1.60164e-20)
(1.08742 0.0739113 0)
(-0.0116157 0.02645 0)
(0.105547 -0.0128483 -2.02267e-20)
(0.804725 0.0567157 -1.58563e-20)
(0.663325 0.392013 0)
(1.0959 -0.0664958 1.45097e-20)
(1.1306 -0.0293924 0)
(0.766229 0.859746 0)
(-0.310655 -0.000187 0)
(0.999066 0.0134919 0)
(0.683735 -0.0838224 3.12062e-20)
(0.528483 -0.259483 0)
(0.501397 0.0477353 0)
(1.15192 -0.0358301 -1.52516e-20)
(1.07852 0.00462408 -1.31036e-20)
(1.0142 0.0111321 0)
(0.198197 0.00465281 3.94272e-21)
(0.178115 -0.0036683 -9.96185e-21)
(1.30225 0.139689 -1.55233e-20)
(1.14111 0.0179024 0)
(0.585767 0.193185 -6.52385e-20)
(1.11786 -0.0271029 4.98484e-21)
(1.01366 0.0811116 3.76591e-22)
(1.15624 0.156957 -1.68398e-20)
(-0.228995 0.00374264 -1.74893e-20)
(1.2327 0.173646 -1.00951e-19)
(1.13194 -0.0740876 -9.85291e-21)
(0.852103 0.537457 -2.56082e-21)
(1.0187 0.000231282 4.0251e-21)
(0.652015 0.406552 0)
(1.00592 0.0146674 0)
(1.20342 -0.0302413 0)
(1.09845 -0.0679556 1.33178e-20)
(1.0371 0.0168055 0)
(0.993979 -0.000574377 -2.76791e-22)
(1.0876 0.272456 -1.29706e-20)
(1.00062 0.0143615 0)
(0.082614 0.00115112 -4.06125e-20)
(1.11126 -0.00356316 3.02721e-20)
(0.98858 0.00571073 0)
(1.00217 0.0428201 2.02852e-21)
(1.09164 -0.027295 6.74483e-21)
(0.70764 0.115285 -3.14408e-20)
(0.0225245 -0.00621542 0)
(1.13061 0.135242 0)
(1.15312 -0.0225799 -2.63374e-20)
(-0.0762752 -0.00743726 4.4339e-21)
(-0.327441 8.45032e-05 6.67568e-21)
(0.378628 -0.0552772 1.17389e-20)
(1.13179 0.0781826 1.47e-20)
(-0.235828 -0.000675505 0)
(1.03215 0.172321 9.52887e-23)
(0.173982 -0.0447334 2.85649e-20)
(0.883545 0.195704 5.35221e-21)
(0.237904 0.0297392 -1.2891e-19)
(1.14555 0.0633384 4.16459e-21)
(1.12379 -0.0216378 0)
(1.0832 -0.0145583 9.15735e-21)
(0.990057 0.0125817 6.11273e-21)
(0.824178 -0.0728547 0)
(0.997113 0.350695 -2.57453e-21)
(1.00352 0.357762 0)
(0.110788 -0.00247459 1.76656e-20)
(0.999891 0.00133522 1.3152e-21)
(1.01304 0.018465 1.38025e-22)
(0.999245 0.00820296 -3.43942e-23)
(-0.0614903 -0.00490877 -4.00774e-20)
(1.11009 -0.034779 -8.1559e-21)
(0.998975 0.0179702 0)
(0.974082 0.00706454 1.48208e-20)
(1.11915 -0.0562448 -1.12913e-20)
(0.258765 -1.22253 -4.63957e-20)
(1.15217 -0.0836211 -3.01098e-21)
(1.12459 -0.0768987 1.41458e-20)
(0.681575 0.296816 0)
(0.875776 0.25483 -1.45353e-20)
(0.267837 -0.01838 0)
(0.103002 -0.661032 -8.62652e-21)
(0.99524 0.200175 6.89116e-22)
(0.995829 0.00135843 6.84373e-21)
(0.951142 0.0384623 1.89488e-20)
(1.18884 -0.0179557 -2.16611e-20)
(0.998772 0.0177305 -6.94465e-22)
(1.01507 0.00934712 -1.14264e-21)
(0.10743 -0.332397 -1.04949e-19)
(0.984692 0.0344766 4.80924e-21)
(1.02065 0.015115 2.2305e-21)
(1.18038 0.11479 1.67e-20)
(1.14927 -0.0575292 -4.02356e-20)
(0.972449 0.0141833 0)
(1.12217 0.0150812 0)
(1.32108 0.155155 2.90704e-20)
(-0.31085 0.000663599 -4.69285e-23)
(-0.257555 -0.00221703 5.29538e-20)
(0.975518 0.156531 -3.86959e-21)
(1.02171 0.0076656 0)
(0.156871 -0.00392441 9.88866e-21)
(0.984008 0.0408024 -5.64295e-21)
(1.00001 3.72664e-05 -2.65932e-22)
(0.839533 -0.0602533 -6.15304e-21)
(-0.0345504 0.00458455 -6.93836e-21)
(0.972259 0.0146371 0)
(1.14259 0.0205383 1.86283e-20)
(0.988733 0.00636342 -9.60523e-22)
(0.540629 -0.253811 1.85837e-20)
(1.10977 -0.0301212 0)
(0.988715 0.00532187 2.9265e-21)
(1.31921 0.15895 -2.74465e-20)
(1.12318 -0.0749182 0)
(0.426411 0.489688 5.55275e-20)
(1.01756 0.00251651 1.0281e-21)
(0.388231 1.01975 0)
(0.267184 -0.744912 0)
(0.999868 0.0010658 -3.77711e-22)
(1.00458 0.012396 8.47879e-22)
(1.0884 0.0332356 8.79748e-21)
(0.0539306 0.112683 6.06242e-20)
(1.04236 0.0361128 -2.51904e-21)
(0.750604 0.155144 0)
(0.954014 0.0571483 0)
(1.0984 -0.0673441 -1.32552e-20)
(1.0037 0.0396408 0)
(1.26407 0.244825 3.95696e-20)
(-0.167506 -0.00452527 -3.71731e-20)
(1.09601 -0.0661743 -7.29205e-21)
(0.512133 -0.245227 0)
(1.01458 0.0235405 0)
(0.962681 0.227184 0)
(0.974278 0.00563794 0)
(0.707309 0.100984 3.49504e-20)
(0.87833 0.19502 -6.08386e-21)
(1.00992 0.0137363 3.07238e-23)
(0.985616 0.0265548 1.12766e-21)
(1.16385 0.307102 2.24796e-20)
(-0.0733208 -0.00666518 -2.24061e-20)
(0.973906 0.00605857 0)
(0.86206 0.0489716 -2.53062e-20)
(0.232124 -0.027865 0)
(0.29261 0.616864 0)
(1.0062 0.00917583 0)
(0.406423 0.154145 1.42038e-22)
(0.994519 0.0159031 -2.83918e-21)
(1.12903 -0.037567 -1.11073e-20)
(1.04483 0.0893572 1.04733e-21)
(1.0416 0.0361673 1.85528e-21)
(0.968342 0.00302405 1.22931e-20)
(0.991311 0.0177537 5.15441e-21)
(1.11805 -0.0263839 -9.78928e-22)
(0.956714 0.0442607 4.8689e-20)
(0.534505 -0.0609834 0)
(-0.196266 -0.00787091 1.12343e-19)
(1.02968 0.00186599 -2.19435e-23)
(1.05311 0.687471 0)
(1.01478 0.0801115 0)
(0.727294 0.216336 0)
(1.00146 0.031273 -7.71893e-22)
(1.01334 0.0186473 -1.42419e-22)
(1.01095 0.0134968 0)
(-0.278657 -0.000648621 0)
(0.98889 0.00609829 1.55704e-21)
(0.850503 0.00395343 1.31185e-20)
(1.08371 0.18801 -1.42016e-20)
(1.01122 0.0256341 -5.54052e-22)
(1.06211 0.0280464 4.45166e-21)
(1.15124 -0.0848966 -1.57292e-20)
(0.0952683 0.00849378 0)
(0.964427 0.0347218 -2.53136e-21)
(0.137783 -0.00525625 -9.69318e-21)
(-0.237615 -0.00342077 0)
(1.01004 0.0135403 0)
(-0.0070905 0.00432335 0)
(1.02063 0.014801 0)
(0.885743 0.120125 0)
(1.10332 0.0145527 0)
(1.14912 -0.056268 0)
(0.229844 0.97127 4.58192e-20)
(1.21859 0.155242 -2.91871e-20)
(1.20553 0.0480414 0)
(0.23152 0.153224 7.00757e-20)
(-0.166923 0.00465768 0)
(1.1245 -0.0758985 -1.13573e-20)
(0.326747 -0.0190449 5.49292e-21)
(0.999294 0.00794163 0)
(0.999838 0.00132298 0)
(1.08365 0.268094 -1.04413e-20)
(1.12234 0.0166084 0)
(-0.201372 -0.00533169 -1.02572e-19)
(1.04249 0.0348706 2.26978e-23)
(0.164668 -0.0446155 -1.48317e-20)
(0.973251 0.0191491 -1.22376e-20)
(1.06917 -0.000958791 -9.05029e-21)
(1.15044 -0.0351651 1.24066e-20)
(1.00627 0.00910133 2.80262e-22)
(1.04191 0.118197 5.03709e-21)
(0.465135 0.0565331 -5.04531e-20)
(0.995261 0.089662 2.88292e-21)
(1.21213 0.438648 4.05823e-20)
(0.220601 -0.0257217 0)
(0.688073 0.606636 1.17921e-20)
(0.490307 -0.665219 -2.96151e-20)
(-0.0743151 0.00824645 2.69533e-20)
(0.072453 -0.650876 0)
(1.00904 0.0142748 3.39903e-22)
(1.01318 0.00768098 8.14333e-22)
(1.0832 0.0685184 9.43896e-21)
(1.01425 0.0232982 9.1023e-23)
(1.0249 0.0738436 0)
(1.0035 0.0390854 0)
(1.11959 -0.0553249 -2.37138e-20)
(0.974783 0.0647888 0)
(1.09922 -0.0662147 1.60523e-21)
(1.0921 0.00254528 0)
(1.08354 -0.0138865 -7.68429e-21)
(-0.284014 -0.00171261 0)
(1.13309 0.0768099 -1.66624e-20)
(1.13489 -0.00617852 9.18248e-21)
(1.01872 0.0524829 4.70393e-23)
(0.068705 -0.0362187 0)
(0.0633553 -0.0281189 -8.04664e-21)
(1.01581 0.0265083 0)
(1.00007 0.000512564 -5.44572e-22)
(0.225799 0.137842 -3.06287e-20)
(0.196702 -0.00451404 6.55717e-21)
(1.0616 0.0674787 0)
(0.973806 0.00494151 9.08727e-21)
(0.0199159 -0.0157845 0)
(-0.164357 -0.0124185 2.3065e-20)
(0.450056 0.477881 -5.03333e-20)
(0.0205418 0.00429895 -1.50194e-20)
(0.930412 -0.010437 0)
(1.0536 0.0958552 7.09912e-21)
(1.02646 0.20172 0)
(1.1291 -0.0685348 0)
(0.987189 0.0291652 0)
(1.00006 0.00048046 3.21164e-23)
(0.779095 -0.0914486 0)
(1.16767 -0.00444304 -4.25933e-20)
(1.10347 0.0155139 -8.63016e-21)
(1.02759 0.0705938 0)
(1.21544 -0.024778 0)
(0.73436 -0.0626766 -4.24175e-21)
(0.999867 0.00123228 3.50942e-22)
(1.01327 0.00745022 0)
(-0.210319 0.0045396 0)
(1.12536 -0.0526296 -6.85158e-21)
(1.12872 -0.0364343 -1.14231e-20)
(0.838312 -0.0690663 8.21585e-21)
(0.226215 -0.737268 -8.47534e-21)
(1.1299 -0.0681955 0)
(0.101747 -0.0286578 0)
(0.0495719 -0.0170906 0)
(1.15981 -0.0141405 0)
(1.26713 0.0662636 -2.24486e-20)
(0.994678 0.0155169 -7.81094e-21)
(0.99901 0.0426653 -2.74714e-21)
(1.15393 0.155399 0)
(1.01624 0.0268074 -1.14765e-22)
(1.09383 -0.0435017 2.76535e-21)
(0.996654 0.345628 0)
(1.28354 0.235355 -8.72299e-21)
(0.976141 0.065043 -2.47134e-21)
(0.396938 -0.0695764 0)
(1.19849 -0.018708 2.92889e-20)
(1.00979 0.0280985 0)
(1.20009 -0.0179197 -3.77667e-20)
(1.01381 0.0113458 -2.88907e-22)
(1.06214 0.0223414 2.10445e-21)
(0.749237 0.888121 1.71234e-20)
(0.406276 0.0248713 8.71511e-20)
(0.158991 -0.0438539 -1.43435e-20)
(0.860839 0.115933 0)
(0.286461 -0.0527719 0)
(1.00881 0.0140442 -6.1192e-22)
(1.01237 0.357196 0)
(0.077256 -0.022835 9.5781e-21)
(0.730445 -0.0857782 -2.7895e-20)
(1.00321 0.00621212 0)
(1.02439 0.000776955 -1.7131e-21)
(-0.11274 -0.0189613 0)
(0.835738 0.0421946 5.47891e-20)
(1.04272 0.0355381 2.60106e-21)
(1.00249 0.00156244 6.62839e-22)
(0.973495 -9.01909e-05 0)
(1.01546 0.0268283 -5.23443e-23)
(-0.144561 0.00150517 0)
(0.634494 0.0114474 1.02212e-21)
(1.03603 0.017508 -2.71105e-21)
(1.04244 0.00268234 7.41901e-21)
(-0.225568 0.00175626 0)
(1.11877 -0.054572 1.19359e-20)
(0.999738 0.0424948 2.8943e-21)
(1.01344 0.00869158 0)
(1.00089 0.0312716 0)
(1.11133 -0.00428443 -2.39624e-20)
(1.09871 0.0700685 -7.49284e-21)
(1.01729 0.0798486 2.178e-23)
(1.20309 0.0478 0)
(-0.320108 8.39829e-05 5.50635e-20)
(0.859481 -0.0881594 1.61208e-20)
(0.945764 0.0224237 -8.03499e-23)
(1.00328 0.00612209 9.93451e-24)
(0.995642 0.0154602 1.83194e-21)
(1.0806 0.0128422 1.15179e-20)
(1.03147 0.16873 -3.84118e-21)
(0.999864 0.00119519 -8.70307e-22)
(-0.0768757 -0.0213791 -9.18562e-21)
(0.0016586 0.0135927 -2.92636e-20)
(0.978533 0.0809488 0)
(0.994118 0.000711579 0)
(1.01336 0.0265652 0)
(1.09339 -0.0629842 1.51391e-20)
(0.413682 0.233137 -1.33277e-19)
(1.03376 0.00187353 -1.75689e-21)
(0.975225 -0.00323868 -8.67973e-21)
(-0.163208 -0.0138225 1.14297e-20)
(0.988957 0.0589627 7.1829e-21)
(1.00914 0.099213 2.3345e-22)
(0.430055 -0.1401 3.88395e-21)
(1.0356 0.0176195 0)
(0.485542 -0.240561 -1.01463e-19)
(-0.157285 0.00564313 6.43006e-20)
(1.0349 0.256387 -8.02594e-23)
(0.993972 0.000915046 2.78107e-24)
(1.00346 0.0772681 -2.46277e-21)
(-0.232368 0.00588276 -4.12502e-20)
(0.67539 -0.0267468 0)
(0.985876 0.0269816 6.32836e-22)
(-0.152062 -0.0123977 0)
(1.00204 0.0167466 -2.22431e-21)
(-0.222145 0.00691646 4.3398e-21)
(1.14527 0.0959729 0)
(1.07374 -0.013127 -3.25524e-21)
(0.991139 0.0497166 2.41307e-21)
(1.03491 0.00209133 -6.58854e-21)
(0.188255 -0.00562211 -4.51912e-21)
(1.00316 0.00378287 0)
(0.870033 0.236515 -1.18039e-20)
(-0.0557305 0.00700062 6.03467e-21)
(0.941516 0.176241 -2.33331e-21)
(1.03771 0.0222076 -3.11913e-21)
(0.773896 -0.0895673 -5.04617e-20)
(-0.28271 -0.00301851 0)
(1.0972 0.00340676 2.55882e-20)
(-0.327545 0.000426886 0)
(0.976757 0.159114 0)
(0.254476 -0.0458219 1.52373e-20)
(-0.15767 -0.0336523 4.60732e-20)
(-0.238466 -0.00700937 -6.34559e-20)
(1.00322 0.0036858 1.47082e-22)
(1.26474 0.269001 0)
(1.0081 0.0752343 -9.77215e-22)
(0.973578 -0.000649032 -4.79384e-21)
(1.01312 0.0122956 0)
(1.01411 0.0114297 -3.37905e-22)
(-0.23383 -0.00072641 0)
(-0.17034 -0.00759752 -1.11815e-19)
(0.3704 -0.0680008 -5.80832e-21)
(0.870647 0.250779 0)
(0.321121 0.0999848 3.78988e-20)
(0.999958 0.0205111 2.42106e-21)
(0.961489 0.0875564 0)
(1.0023 0.00345223 1.40795e-21)
(0.991262 0.0214448 -3.38437e-21)
(0.804318 -0.0605784 -7.77e-21)
(0.750981 0.821472 -6.3615e-21)
(1.27007 0.0637528 0)
(1.00002 0.000682635 1.23185e-21)
(-0.0639885 -0.0233283 -7.88338e-21)
(0.702731 0.0938621 -2.26741e-21)
(0.028085 -0.00574641 -2.66299e-20)
(1.09787 -0.0663782 1.30359e-20)
(0.863216 0.0471285 1.78188e-20)
(1.09737 -0.0661082 0)
(1.12121 -0.0664569 0)
(0.0893395 0.00422168 0)
(-0.331712 0.00162981 5.01828e-20)
(1.09527 -0.0634992 -1.6892e-20)
(-0.299717 0.000601408 2.2495e-20)
(1.00041 0.0142362 0)
(0.761448 -0.0642195 9.50748e-22)
(1.00418 -0.00154708 4.22539e-20)
(1.11342 -0.0566381 0)
(0.393886 -0.0569626 -1.25029e-20)
(0.518463 -0.0599649 1.69341e-22)
(0.518318 0.0233551 -4.35273e-20)
(1.14431 0.0230073 1.80886e-20)
(0.496171 -0.0604097 2.60719e-21)
(0.841262 -0.0403964 -1.21363e-20)
(0.572674 0.195495 7.12894e-20)
(0.536594 0.934739 3.8028e-21)
(1.07434 0.00431344 -6.23894e-21)
(1.00212 0.00475446 -7.37749e-22)
(0.994109 0.000213484 -2.7183e-22)
(1.00233 0.00337929 -4.0766e-22)
(0.22276 0.00366546 7.16728e-21)
(1.16798 0.266893 -5.57091e-21)
(1.05174 0.0956226 6.17631e-21)
(1.03545 0.00189955 0)
(1.01505 0.0135362 -1.47771e-21)
(0.991171 -0.00134091 2.70708e-21)
(1.32058 0.172625 -4.65415e-22)
(1.01126 0.0136438 -1.81373e-22)
(0.2102 0.00587511 4.65549e-23)
(1.10898 -0.0557685 1.27372e-20)
(-0.178601 -0.00409986 0)
(1.03749 0.0217068 3.76424e-21)
(1.09654 -0.0664835 -7.45505e-21)
(-0.245041 0.00335997 -1.66309e-20)
(1.00701 0.0133769 0)
(-0.237287 -0.00679393 0)
(0.888266 -0.0784839 0)
(0.226924 -0.0123407 -1.814e-21)
(-0.124057 -0.00614313 0)
(1.00007 0.000477732 1.00344e-21)
(0.921461 0.109841 -2.49141e-22)
(1.14456 -0.0425763 0)
(1.0059 0.0482424 0)
(1.11502 0.124629 -7.76855e-21)
(0.860119 -0.0748208 9.25622e-21)
(1.06265 0.0217665 0)
(0.87843 0.0384548 -5.91919e-20)
(-0.147119 -0.0147323 3.52453e-20)
(1.22935 0.0165169 1.8629e-20)
(0.998706 0.0291296 -2.70428e-21)
(1.01244 0.00910413 0)
(0.425583 -1.055 -3.87732e-20)
(0.972321 0.207419 -4.74071e-21)
(1.2808 0.012934 0)
(1.01637 0.0808061 -2.42705e-23)
(1.1177 -0.0574866 -2.44916e-20)
(0.702006 0.108702 -8.33056e-20)
(1.16876 0.0456332 0)
(0.00695337 -0.00629761 -2.64693e-20)
(1.23894 -0.0188507 1.11289e-20)
(1.11163 0.00201054 4.7503e-21)
(1.21565 0.156417 -9.25091e-21)
(0.994223 0.00191555 0)
(1.00006 0.000454121 -5.67642e-22)
(0.994005 0.00182176 -9.32042e-22)
(1.16214 0.259522 -1.3963e-20)
(0.494244 0.936186 0)
(0.898044 -0.086999 0)
(1.11621 0.00383455 -1.43532e-21)
(1.12827 0.140421 9.0781e-21)
(-0.242544 0.00496021 -1.05031e-20)
(1.15714 -0.0367904 -1.61005e-20)
(1.10117 0.00421142 1.58342e-20)
(0.92928 -0.00867539 0)
(1.2684 0.063997 0)
(1.02296 0.0176138 1.91176e-21)
(0.952299 0.00243789 1.40405e-20)
(0.966931 -0.00556818 -6.3055e-21)
(-0.285687 -0.000150095 -1.93792e-20)
(0.943494 0.0182218 -2.73702e-21)
(1.00026 0.020721 -2.79454e-21)
(1.04781 0.0207043 0)
(1.01385 0.000736165 -1.54471e-22)
(1.15898 -0.0325587 0)
(0.969058 -0.00391821 0)
(1.00253 0.00339576 0)
(1.00209 0.00462708 0)
(0.653833 -0.00885741 0)
(1.01354 0.0232938 0)
(1.0082 0.000173283 3.80037e-22)
(-0.139764 -0.0163444 -2.36392e-20)
(1.015 0.0265417 1.55519e-22)
(1.073 -0.0129577 0)
(0.200147 0.0040481 -3.5013e-21)
(0.0368566 0.183969 -7.48359e-20)
(1.01271 0.00918917 0)
(1.22962 0.346231 0)
(0.750209 -0.0881409 3.69585e-20)
(0.0703112 -0.0193727 0)
(1.01168 0.0129555 -1.42466e-22)
(-0.132028 -0.0165153 8.02744e-23)
(1.02305 0.0179332 -2.29408e-21)
(0.448758 0.224952 0)
(1.03343 0.00137669 -4.50485e-22)
(0.141307 -0.147571 0)
(1.25779 -0.0157444 0)
(1.1673 0.302355 2.88643e-20)
(0.999155 0.0290039 0)
(-0.231197 -0.00171833 -4.8747e-20)
(1.00899 0.097268 0)
(1.01438 0.0182458 -4.0766e-22)
(1.01339 0.00792372 -1.35532e-21)
(0.88698 0.0554627 -2.07437e-22)
(-0.315521 -0.000671221 1.51497e-21)
(1.05517 0.0664917 0)
(1.0027 0.00175299 -4.2623e-22)
(0.0706056 0.00673772 1.14938e-20)
(1.06066 0.0138739 7.34439e-21)
(1.09929 0.0450618 1.23946e-20)
(0.389176 0.399805 1.54578e-19)
(1.01233 0.0130427 4.11622e-22)
(0.991674 0.0212739 1.70232e-21)
(0.397653 0.384874 2.80087e-20)
(-0.315766 -0.000452675 0)
(1.02154 0.000220694 -1.91642e-21)
(0.990965 -0.00112008 1.57326e-21)
(0.208005 -0.00936309 1.36397e-20)
(-0.319556 0.00279028 -4.67927e-20)
(1.1183 -0.0584964 1.11271e-20)
(1.0208 0.000246268 -2.74212e-21)
(-0.305048 0.00326184 -3.14824e-21)
(0.011675 0.00116144 -8.77379e-20)
(-0.323783 -2.7479e-05 8.77983e-21)
(1.01342 0.0115346 2.97144e-22)
(1.18884 0.106338 -4.89258e-20)
(1.00659 0.0132853 5.24766e-22)
(1.02496 0.000514989 -1.84512e-21)
(1.07914 0.0739672 3.68785e-23)
(1.1209 -0.0422922 -1.09535e-20)
(-0.0326599 -0.027931 3.04611e-20)
(1.0247 0.000547956 1.81233e-21)
(0.942008 0.0147848 -6.18174e-21)
(0.995647 0.000892651 5.77204e-21)
(1.03457 0.00190404 8.04743e-21)
(0.0844107 0.00574512 0)
(-0.33672 0.000321137 1.24214e-20)
(1.28157 0.099333 -2.83787e-20)
(0.807541 0.19817 3.59856e-20)
(0.240754 0.00816548 -5.38744e-20)
(1.00828 0.0052509 -3.21885e-22)
(-0.147688 -0.0151915 -1.1375e-20)
(0.289783 -0.444248 0)
(-0.123319 0.00372272 0)
(0.994654 0.0911366 -1.49497e-21)
(-0.180646 -0.00539514 -2.17937e-20)
(1.00141 0.0429146 -1.4312e-21)
(1.02654 0.0349432 -1.55199e-21)
(0.960886 0.106449 0)
(1.00085 0.0551477 1.97563e-21)
(1.11856 0.0613162 5.21837e-21)
(1.00575 0.0129667 5.7706e-22)
(-0.335405 0.000214805 -1.44686e-21)
(0.245994 -0.0401382 0)
(0.0343361 -0.14879 7.39114e-20)
(0.66135 -0.220541 4.81386e-22)
(1.00345 0.0758661 4.34628e-21)
(1.0905 -0.0584351 -4.72683e-21)
(0.418375 -0.195054 1.00548e-19)
(1.22543 0.157377 -2.9729e-20)
(1.01657 0.0027273 4.93182e-22)
(-0.296281 0.00384516 0)
(0.0115145 -0.015602 0)
(0.995972 0.0153932 3.08476e-21)
(1.09174 0.483224 9.59127e-21)
(0.991088 -0.000665148 -7.00819e-21)
(1.08328 -0.00936793 -8.25569e-21)
(0.216915 -0.0110218 -1.64367e-20)
(1.14234 0.263612 1.9837e-20)
(0.999875 0.00128805 -6.18252e-21)
(-0.318384 0.00123929 8.89391e-20)
(0.995808 0.000776279 -7.78828e-21)
(0.091992 -0.00551432 0)
(0.874964 0.414396 4.43782e-21)
(1.1188 -0.0630789 4.7216e-23)
(0.782266 0.294539 2.70004e-20)
(1.1014 0.00509643 -1.32197e-20)
(1.16747 -0.00570636 3.57469e-20)
(0.612094 -0.0924504 5.52319e-20)
(1.03383 0.00154115 1.8632e-21)
(1.10062 -0.060947 1.56375e-21)
(1.14541 0.0596734 1.17998e-21)
(1.22402 -0.0320251 5.36422e-20)
(1.10085 0.131657 -2.83916e-21)
(0.830752 -0.0738965 0)
(0.504168 -0.0465304 -1.06689e-20)
(0.990337 0.000283925 1.61874e-20)
(1.00048 0.0167449 -1.19684e-21)
(1.01389 0.0235437 3.28656e-23)
(1.00268 0.0325748 -7.77169e-22)
(1.13618 -0.00589444 0)
(0.998168 0.0073906 0)
(1.0341 0.0020623 -9.25142e-22)
(-0.2078 0.0113184 0)
(0.442102 -0.145506 0)
(0.71337 0.0169693 3.25545e-20)
(-0.317459 0.000704759 -2.44608e-20)
(1.04527 0.0931791 3.47083e-21)
(-0.0819146 0.00214716 -4.32209e-21)