/*--------------------------------*- C++ -*----------------------------------*\
| =========                 |                                                 |
| \\      /  F ield         | OpenFOAM: The Open Source CFD Toolbox           |
|  \\    /   O peration     | Version:  v2012                                 |
|   \\  /    A nd           | Website:  www.openfoam.com                      |
|    \\/     M anipulation  |                                                 |
\*---------------------------------------------------------------------------*/
FoamFile
{
    version     2.0;
    format      ascii;
    class       volScalarField;
    location    "300";
    object      ddt0(omega);
}
// * * * * * * * * * * * * * * * * * * * * * * * * * * * * * * * * * * * * * //

dimensions      [0 0 -2 0 0 0 0];


internalField   nonuniform List<scalar> 
54593
(
6.60094e-07
7.21996e-05
-2.7842e-07
-0.0124209
0.0266554
-0.00464725
-0.164618
0.000143856
6.48389e-05
-3.55918e-07
4.41563e-06
-0.489555
-0.00142671
3.75315e-07
0.00651902
-1.04036e-07
0.000145419
-0.00553109
-4.02613e-07
-3.68846e-05
-3.01338e-07
4.66335e-06
-1.96673e-07
-0.134926
1.91206e-07
0.000567147
6.14328e-07
-6.33608e-05
-0.0171356
-1.78312e-07
0.000607595
0.0903886
6.84977e-08
-0.00249719
0.00193808
3.3428e-09
-0.000341175
7.93557e-05
-1.27818e-06
4.41699e-06
0.000900471
-0.203331
-1.98706e-07
5.49522e-07
-0.030864
-1.38645e-06
-0.000123518
-0.00395175
-3.23339e-07
-9.84618e-06
7.96841e-08
-3.69656e-07
1.85227e-06
-0.0100533
0.000370326
3.30399e-08
0.0910467
1.98538
0.000588912
0.00247789
-2.03895e-07
1.45494e-05
3.68658e-07
-0.00805424
6.19804e-07
1.54545e-07
0.0346255
-0.00437273
0.00121385
0.00042032
-3.62765e-07
0.00212236
6.34607e-07
-0.00962844
-3.73243e-06
-6.05025e-06
-2.49313e-05
-0.0864858
0.000244993
0.0286277
3.56509e-08
-0.0167573
5.87338e-07
0.0126478
3.36507e-06
-0.0102952
0.0388717
0.000324284
0.0314028
-1.46333e-08
-0.00684838
2.94342e-06
0.00101927
-0.0385195
-1.65375e-06
-0.0375631
-0.00208511
-0.0498026
-6.61536e-08
3.28353e-05
1.02709e-06
0.00513932
4.00435e-07
4.62267e-07
0.0449204
-5.1235e-05
1.04004e-05
0.000289995
-6.51097e-06
-0.00896423
0.0381788
4.64018e-07
-2.38139e-08
0.000466761
-9.78132e-08
0.00526615
0.000939864
-0.00652392
-0.00268712
0.00147349
-0.00745768
7.13949e-09
0.00841483
-6.53496e-05
-5.55523e-07
0.0429545
-5.38587e-05
-5.40141e-07
0.0326527
0.00283952
-1.39923e-07
-1.49112e-06
-6.73724e-06
7.21276e-09
2.14025e-06
-0.00283942
-4.30839e-07
0.00262899
4.58321e-07
-1.51221e-09
0.0284311
-0.00149488
-6.40427e-06
-9.62878
-2.11431e-05
0.00307301
-0.0038522
-0.00136142
-0.00621465
-1.03722e-06
0.00137123
-2.67787e-06
0.000441456
0.0239402
-1.67874e-06
0.00830544
5.16292e-06
0.0128355
-0.0032777
-1.69074e-07
0.816505
-3.73368e-07
0.0279655
-0.0358365
-6.37983e-05
-5.64926e-07
7.89339e-09
-1.71359e-07
-0.000231092
1.18815e-11
0.000426699
-0.00185524
-0.00188517
7.80059e-09
8.87149e-05
-4.13756e-10
0.0369832
3.92003e-06
-3.1241e-06
0.000942346
0.0101782
-3.00965e-07
-0.0102313
8.2628e-07
2.99442e-08
0.0309601
-9.21711e-07
1.29976e-06
4.0002e-07
-12.4372
2.49977e-05
0.00299311
0.0664937
6.46538e-07
0.00852475
-0.00297136
4.38256e-07
5.02688e-06
0.00050084
0.00289698
7.02952e-07
0.019928
0.000284329
5.03679e-07
-2.56444e-06
-2.39632e-06
0.00284916
3.26476e-06
-1.31624e-06
1.99634e-08
4.3472e-09
4.14892e-07
-2.91355e-07
-8.40505e-06
-3.37675e-06
-0.00135188
0.0429393
5.50828e-05
-0.0419229
4.65938e-07
3.63337e-06
0.159523
-1.00425
-9.57432e-07
-0.00237033
5.17405e-06
1.69952e-08
0.00415888
-2.39618e-07
0.0183607
-3.45453e-05
0.000114682
-0.211909
3.03216e-08
2.01104e-07
-0.0021032
0.000317183
-3.5747e-08
-0.0748486
-4.87909e-08
-9.08345e-07
-8.65979e-06
0.0117286
-0.00218678
-1.92095e-06
-4.84446e-06
0.0130515
-0.0419135
-1.56721e-07
1.79325
-0.00030341
0.00992393
0.0263409
1.44924e-07
-3.40476e-06
-5.92821e-08
0.0448394
2.85056e-06
0.0446175
5.00589e-06
0.000191007
0.00902869
3.54293e-07
0.00298995
-3.1836e-06
3.40231e-07
-0.0336062
-1.57153e-07
5.84675e-07
-5.65798e-07
-0.00818956
-0.0186613
-4.92727e-06
5.80407e-07
-4.90429e-06
-1.24965e-06
1.0108e-05
0.0103762
2.40203e-07
-0.000157221
1.49623e-07
-8.48969e-06
-5.36654e-06
0.00141614
0.0123846
0.000925398
5.26118e-06
-5.24459e-07
-4.76311e-05
-0.00527824
0.0126129
-0.0158027
1.37431e-07
-9.44067e-08
5.24978e-05
2.02707e-08
0.0177219
-0.0258094
-7.26717e-08
-2.79224e-06
0.0203344
-1.22832e-07
-3.93101e-09
1.18945e-09
-1.03147e-06
-2.06412e-06
9.42359e-05
0.0558229
-1.01298e-06
5.02799e-07
0.0252501
-0.00029327
-0.0241581
1.12635e-07
-0.00139611
-0.0265124
0.23351
-1.70077
0.00369353
1.72679e-06
-8.97166e-05
-1.62542e-07
-0.0109266
-6.6649e-05
0.00576906
0.000429243
0.0131086
3.40348e-07
0.00938534
-7.06824e-05
-3.62077e-08
5.62035e-06
5.03747e-07
4.4783e-09
8.79281e-10
-0.00175674
-7.71816e-06
0.0263623
0.0191842
-2.43047e-06
-6.71871e-05
1.42529e-06
0.000842954
3.12381e-06
-1.97376e-06
-0.00388451
-3.97108e-05
0.000109927
0.00102394
-0.244638
0.136608
-9.93138e-08
0.00859084
-6.38861e-05
1.91588e-07
-2.11879e-07
2.61268e-05
-1.13369e-07
-1.30764e-06
4.8422e-07
-0.00790454
4.17114e-06
3.97045e-06
0.020199
-0.00529263
2.22815e-07
-1.17196e-07
1.33028
-1.03787e-05
6.69117e-07
-5.62513e-06
-1.03805e-06
-1.66164e-07
1.85583e-06
-1.28094e-07
-0.0110002
2.70399e-07
-0.314137
-8.19349e-06
0.0186004
-0.0392217
0.00323255
-0.110221
-0.0701208
0.000256277
0.00641626
0.118424
4.90967e-07
0.00920452
-0.0002645
0.0492938
0.000596611
-7.18555e-06
-2.15888e-07
-0.0366213
0.0190237
-0.0724099
8.42551e-05
-0.00955838
8.82637e-05
4.20258e-06
-8.99693e-05
-0.00432499
-0.00413974
0.0104778
-0.0898568
1.73007e-07
0.144615
1.96699e-07
-0.00308936
-0.00952669
2.85063e-07
3.67766e-10
0.000122772
5.10849e-07
-0.0172238
1.22577e-05
3.10413e-07
-2.06126e-06
-6.85685e-05
-0.00353168
-0.112622
0.000113696
0.000393593
-0.000928163
-0.0305141
0.0116513
0.000165643
-0.113892
0.000334608
-8.2438e-06
-0.000663651
-0.00139329
2.3903e-05
0.00011347
-2.62275e-05
6.2569e-07
0.00433277
-0.00747544
-0.00224298
-0.00798382
3.35569e-08
-5.34067e-07
-1.61424e-07
0.00744936
4.12237e-05
6.00182e-07
-1.27958e-07
0.000518033
-0.0050304
-0.247863
-0.0924744
0.0324751
-0.00720965
-0.0114701
-0.00117094
0.000673154
-3.45178e-08
-1.81046e-06
0.00352774
6.13941e-07
-1.49146e-07
-0.00014525
-2.19148e-06
6.37943e-08
2.82919e-05
0.00254299
-5.2774e-07
2.37332e-05
2.52634
-0.00639318
-8.0138e-05
1.15571e-05
2.375e-07
0.0362202
-2.73874e-06
-2.26245e-12
0.00217418
0.0315311
-5.70781e-07
5.87108e-05
3.66257e-07
0.00707435
2.57195e-05
2.94044e-07
5.55092
0.00926829
-0.00548058
1.91896e-07
0.0126458
-0.000615449
2.75772e-08
2.84835e-07
-2.58411e-06
0.0323727
1.27909e-06
-0.00144211
-1.87997e-06
0.00332471
-1.95904e-06
0.681066
0.0412855
0.00841088
-0.00813113
-7.35337e-07
0.00126713
-7.51911e-08
-0.00422132
-0.000437039
-1.74461e-07
-1.02714e-06
0.00257353
0.00471846
-1.18102e-07
-1.73785e-05
-0.0119188
-0.00225397
1.20307e-07
0.0672767
7.1401e-07
0.000348217
5.66718e-06
1.34701e-06
-1.06242e-07
5.21386e-07
8.92763e-05
0.00822264
0.00353781
0.00365794
-3.39764e-07
0.130585
4.23294e-06
-0.00112496
-1.53356e-06
-5.39693e-07
-2.35051e-07
0.000307857
3.29728e-07
1.52631e-05
0.000424286
-1.0111e-06
-1.26384e-06
3.29933
-0.00924959
-2.21249e-06
0.00334757
0.0468379
-1.79921e-07
0.13984
6.06003e-08
0.0162949
-3.11553e-07
0.00698416
0.010439
0.000309119
-2.89195e-05
0.00031582
-0.179943
-0.0182721
-0.0115619
-1.83297e-07
3.09308e-08
0.00162321
1.88661e-05
0.00276436
1.14056e-06
-0.000469871
-9.35572e-07
-5.67199e-06
0.000570363
1.2184e-07
5.37639e-06
-0.0758579
4.44395e-06
-4.78589
-0.0116767
-0.0795775
-0.0224649
-0.00495436
-0.0018252
-1.08755e-07
-1.54493e-07
3.67011e-05
-7.3991e-07
4.17857e-06
-1.95375e-06
0.000514702
-1.38638e-06
0.000634156
-1.09272e-05
-2.61196e-05
0.0167972
0.000281886
0.000128755
1.04866e-06
0.0155552
0.00111372
-7.50633e-07
3.80584e-09
-5.04972e-05
-0.00245033
2.91021e-06
-7.37351e-08
-0.0272159
0.0112707
0.0692988
0.015598
5.94343e-07
5.93802e-06
0.000155535
0.00621383
-1.36756e-06
3.63706e-09
-9.90521e-05
0.000313548
-1.63514e-07
4.02474e-06
-0.0462776
0.000371199
3.22735e-08
-1.54498e-07
-0.0411867
0.000605173
0.000326126
0.00333077
-0.000327804
0.00632761
-0.0292276
-0.0317823
0.000402377
-0.0560099
7.15529e-07
-2.24533e-06
0.000189663
-6.76151e-07
-0.000142417
-0.00838469
-3.28963
-1.19889e-06
0.0386885
3.34571e-05
-1.1902e-06
-0.00785505
-2.25932e-07
-1.57833e-06
0.00125358
0.0398657
0.0036875
-0.000182019
0.0231224
-8.44147e-08
-9.60466e-05
-0.0316378
0.00610233
6.79684e-09
-2.73749e-07
0.00936868
0.000272621
1.26343e-06
-3.56784e-08
-2.38664e-10
-7.61911e-07
-0.201599
0.0015195
3.37031e-07
-5.31646e-07
0.0329724
0.00051746
-2.19932e-06
-1.70459e-07
-1.53633e-06
1.26004e-05
2.30303e-06
4.41213e-06
-6.87509e-05
-0.034883
-0.00353171
-2.04719e-05
9.66488e-09
7.11857e-07
-5.37945e-06
-2.53225e-05
2.98182e-08
0.007912
0.00142653
7.10005e-07
-9.59141e-09
-9.38085e-07
0.0367103
0.0611368
-4.28297e-07
6.36761e-08
0.00829668
-1.53395e-06
6.01634e-06
-0.0262139
3.49673e-07
0.010074
-0.000746504
0.00258639
-7.08864e-09
2.86414e-06
-0.00694925
1.87213e-05
-1.08973e-06
0.00309487
4.80867e-07
-0.00630984
-6.87672e-05
-1.5212e-05
-2.50973e-06
-4.31943e-07
0.00338009
-2.33345e-08
0.0118157
-0.00595768
0.000888469
4.73963e-07
0.000367006
0.0387591
-7.31594e-06
0.0223268
1.19162e-05
-0.0201042
0.00681182
0.00735319
-2.43027e-08
-0.396902
2.87532e-06
1.44371e-07
-2.61954e-07
-2.2348e-07
-0.139528
0.00151366
0.0359907
-0.0129275
-0.0142081
3.36535e-07
-4.92118e-06
-4.18159e-08
1.53268e-07
0.00118467
0.00939002
-0.324238
2.04737e-08
0.00913538
-0.00470199
-0.0257315
0.0110124
0.00333616
0.00460608
0.000729932
-0.0626533
0.034334
0.0406694
0.000142422
4.98874e-07
0.00153792
0.0091315
0.000433245
0.014518
0.00285866
-0.00528132
7.15529e-05
0.00841965
1.36413e-05
0.0677308
0.00379977
-6.07836e-06
-5.85309e-08
-5.72466e-09
-4.28905e-08
-0.0400464
0.000161673
5.7019e-06
-4.39774e-07
-2.71828e-07
-4.90684e-08
2.94853
-2.51372e-07
-0.0134875
0.000450304
-0.00148231
4.69611e-07
-0.00555672
-0.00503176
1.08802e-07
0.00753003
-0.00888794
-0.00604733
0.0194404
3.31269e-09
-7.1459e-06
0.000650157
-1.305e-06
8.5165e-05
0.00241522
-1.63729e-06
-0.00865811
0.00996612
0.0348982
-1.14818e-06
-1.72125e-07
0.0319101
0.000351126
-0.189953
4.45793e-06
0.000683873
-0.00370481
9.57026e-05
-0.0237443
-1.95022
1.46053e-05
-0.000309079
2.08638e-08
3.20307e-09
1.41466e-08
0.00138796
0.00273242
-0.00256519
2.23007e-05
0.000632436
-0.0625413
0.000566752
-5.49606e-06
7.98519e-07
-0.224242
2.05282e-07
-1.60053e-07
2.43565e-07
0.00361755
-8.33702e-06
2.924e-07
-1.90124e-07
2.20769e-08
0.000555171
1.84239e-07
-3.97141e-08
-5.68907e-08
-0.0217984
-7.84261e-07
-1.19181e-07
0.00926366
-8.21898e-07
-1.4467e-05
-0.0200091
0.000522468
-1.76335e-07
0.0305271
0.00448683
-0.033902
-2.5023e-07
0.00942786
2.09296e-07
0.0164859
-4.70463e-07
0.000565845
-1.30837
0.00164545
-1.17383e-06
-0.150765
6.15318e-06
-4.97605e-07
-1.58785e-07
8.10366e-06
0.0240179
3.25328e-06
-3.65236e-08
-0.011317
-1.75363e-06
-1.90262e-06
0.00882832
-2.71299e-07
2.03754e-07
0.0443479
-0.000814986
-1.68106e-07
-4.04711e-08
-0.00449964
-9.75201e-05
0.000692485
-1.58035e-07
-0.00284853
-0.0176973
0.00992557
-2.34422e-07
-0.000210188
1.5249e-07
-2.968e-07
-1.21489e-05
0.000306369
0.0125167
-2.8517e-07
-7.78781e-06
-2.9678e-08
-4.32981e-07
-0.0122413
0.0448527
0.184825
-0.000523142
-5.69024e-05
3.57033e-08
0.00686596
-0.0439125
-0.0302415
3.53358e-06
0.0245384
-2.09312e-06
8.17981e-07
7.55775e-06
-1.11844e-06
6.51629e-06
2.23504e-07
0.0294429
7.1312e-05
0.000101772
-0.00248808
2.15782e-06
0.000648416
-0.0256757
6.21566e-06
1.40601e-07
-0.0158517
-0.025931
7.20049e-07
0.0385391
-1.29803e-08
-1.92009e-05
-0.00511212
-0.00336721
3.24541e-08
0.00686031
-2.70289e-08
0.0409598
-0.0073727
0.000987704
0.017004
-5.06275e-06
0.000317441
0.00385369
-4.59981e-07
0.000257686
6.46923e-05
0.0204024
-0.000294746
0.00391261
-0.0330885
3.04921e-08
5.82773e-07
-7.84195e-07
-1.68549e-06
0.000134405
-1.77476e-07
-4.15243e-07
-0.00658642
0.00566656
-0.000465874
-0.0342005
5.84405e-06
-0.0698356
3.29238e-08
-3.936e-08
-0.00061053
1.98851e-07
0.000421754
-0.000176038
0.000298958
0.000728674
0.0379531
0.00043014
-0.0107578
-1.31387
0.0069703
-0.00600426
2.09444e-05
-0.550378
0.000242606
4.49242e-06
-0.0127538
-0.00127291
2.41454
0.0243341
0.00369052
3.40995e-08
5.65409e-06
-0.133255
-8.23078e-07
-8.41639e-06
0.000118777
0.00097439
0.0104658
-1.20976e-06
-0.00103818
-0.00080252
7.60325e-07
-3.08456e-08
-1.80721e-07
-0.0276878
0.00466726
-3.03808e-06
0.000808876
0.061642
-9.40678e-08
-0.0345642
-1.76353
0.00051895
0.0161511
5.42617e-05
0.000130557
-0.000205231
-0.0245958
3.34613e-05
-3.77679e-07
0.00742808
-6.26895e-08
2.51441e-07
6.52014e-08
-0.0255719
2.60529e-09
0.000611745
-1.16843e-06
0.0375584
0.00333638
2.86928e-07
2.95962e-06
0.0359817
-1.5154e-07
-1.05982e-06
1.80414e-07
-0.000109354
-8.75009e-07
0.23975
1.72509e-06
-1.86966e-07
-0.00827034
0.000529019
-0.0177333
-2.74195e-07
0.000580078
0.00826175
0.00205971
-1.01836e-06
-2.25109e-06
-5.80317e-07
6.31861e-07
-0.000306764
4.1781e-05
-9.25832e-08
-8.66816e-07
-0.000705733
5.75518e-07
-0.0320351
2.66499e-06
-0.000208032
4.56742e-09
2.99855e-07
4.75255e-06
-1.5415e-08
-6.09716e-06
-0.00327283
1.90578e-08
3.98899e-08
-4.666e-08
0.00184669
0.000223223
0.0128851
4.77229e-06
0.00765953
-0.00398098
0.0008667
0.000268139
-8.81655e-05
-5.21834e-08
-0.0173674
-0.0314738
0.00389472
0.00430958
0.000296951
-0.0379948
0.000486406
-0.0382647
-0.00101173
-1.92828e-06
3.22772e-08
2.4529e-05
-0.0277447
0.000328065
7.40646e-05
5.88116e-09
0.000117005
1.03407e-06
0.0086192
2.43439e-07
0.00141344
7.78195e-07
-3.31191
2.73643e-07
-1.22145
2.92584e-07
2.88187e-05
2.83296e-07
6.80294e-07
-1.49654
0.0450973
-0.00424525
-5.53215e-05
4.78377e-07
-7.4502e-07
0.0308026
0.0115753
0.00827552
-2.35003e-06
0.000274815
-1.94043e-05
1.81115e-05
2.50888e-07
0.000393901
-1.75893e-07
-1.45999e-06
2.58054e-06
-1.79636e-07
-0.00558339
-1.81658e-07
5.22152e-07
2.85966e-08
3.6224e-06
1.64136e-08
1.50998e-06
-9.41209e-05
5.77293e-06
-0.0198567
0.0352333
2.8849e-07
-0.000104172
-2.05236e-07
-7.79465e-06
4.16596e-07
-0.191806
2.26464
-4.57278e-07
1.04075e-06
-6.71834e-05
0.000600173
3.52977
-3.7876e-09
-1.46412e-07
-4.47498e-05
1.0851e-07
0.0406536
0.00629152
-1.81695e-07
-1.91096e-05
0.000114155
-0.0213667
-1.59019e-06
0.139359
0.00649652
-6.61229e-08
-0.0218414
9.22464e-07
0.0114037
-0.0168106
8.80891e-08
-0.000262917
-0.00729846
-0.00562569
-2.75611e-07
2.78574e-05
2.32853e-07
-1.31454e-07
-0.000880753
-3.30883e-06
4.96842e-06
-1.71521e-08
0.00881657
-6.23195e-06
1.22099e-05
-0.000284736
-4.64719e-07
-1.59422e-06
0.000219804
-0.00516888
5.73097e-07
-0.00206165
0.0042304
-2.53599e-05
-3.52581e-06
-5.30636e-06
1.0171e-06
-0.000131571
-1.42752e-06
3.4728e-08
0.00039745
0.00168253
-0.000992676
1.58352e-08
-0.00317562
0.00681336
-1.64818e-07
0.0173552
-1.15731e-06
-0.00201457
0.000163705
-0.0421706
-2.84472e-08
0.0015973
-1.52607e-07
-1.67543e-07
1.3544e-08
-1.24398e-05
6.46363e-08
-0.0150144
-6.95744e-08
9.7121e-07
0.00204883
3.67626e-07
-1.04507e-06
-0.0773795
1.8859e-06
2.10955e-07
6.64347e-08
-4.39488e-05
0.0242665
0.399644
-0.00256288
0.446698
-0.00632594
5.95945e-07
1.48674e-06
5.08359e-05
-0.000856248
0.0532341
-3.12114
-3.51574e-07
-0.0403864
-0.00367213
2.74131e-07
0.0449442
0.000518147
1.3796e-07
3.30899e-06
8.79573e-07
-3.69645e-08
-2.72495e-06
0.00547865
0.00895411
0.0073384
0.000425695
2.8455e-07
-0.00288023
-5.68691e-05
2.358e-07
-0.000443885
2.7583e-07
-8.24238e-07
0.0779895
1.03857e-07
9.73567e-05
-2.8626e-07
0.000132113
0.0157296
-0.000148447
3.7468e-05
5.27524e-05
-0.00144221
-0.0129405
0.00175463
-0.113346
-0.000158167
2.70596e-07
-0.0242133
0.000135154
2.03857e-07
-0.138415
-0.0230008
-1.73912e-07
2.32418e-06
0.00238976
0.00375745
-1.92369e-05
0.000288125
3.66895e-07
-2.67865
-0.00807498
6.67896e-08
2.98624e-06
-2.23952e-06
-6.27482e-07
-2.40041e-06
-0.00204855
0.0104131
-1.51546e-06
3.15603e-05
2.66477e-06
-3.63295e-07
0.00944826
-0.00016396
-0.0128906
0.000631294
0.0139176
2.59704e-05
-0.00685798
0.0397124
-1.64097e-06
-4.57705e-05
0.00277083
0.0127859
-0.329193
-0.00012293
-0.0372317
0.00700049
-0.00939997
2.2629e-07
0.0107271
4.27046e-07
3.39851e-07
-0.000587965
-0.000205732
-3.61541e-07
-0.000854205
0.0151554
2.77967e-06
-2.36686e-06
-22.8038
5.8282e-07
-0.00473278
-0.00125024
1.42271e-06
-0.00773479
-2.07545e-06
0.000207351
-0.0025108
-0.00535833
0.000106084
-0.000845811
-0.417073
4.4127e-07
2.45535e-08
-0.00317134
-0.000268361
0.00378805
2.27483e-07
-8.78634e-06
-6.38303e-07
7.28416e-07
0.00406004
0.000147015
4.16093e-07
-0.0184029
-8.5105e-08
-0.000150025
1.83467e-05
-0.00903651
0.00815491
-2.12538e-06
4.25301e-06
3.43909e-06
2.019e-07
0.00845448
5.5915e-07
0.00384526
0.0214451
-1.49231e-07
1.07649e-07
0.733238
3.22732
5.74512e-07
1.17387e-05
2.57151e-07
-2.1963e-06
-4.40331e-08
-0.000478797
6.72859e-07
0.784209
0.00200419
0.0366925
-2.59729e-05
2.29986e-07
0.00031611
0.000325346
7.38413e-09
-0.0202598
-11.5377
0.00635115
-3.55995e-06
7.92032e-08
0.0119725
-0.00469942
-0.0581922
2.1789e-08
-5.43014e-09
-0.141373
-2.43631e-06
0.00939695
7.43006e-08
-2.08131e-07
3.63104e-06
1.92169e-07
1.75758e-07
-2.36633e-08
-7.75803e-07
-0.00616067
-4.93287e-08
7.35426e-06
0.0006981
0.000179567
-4.63626e-09
1.42905e-06
-0.0143098
-0.000156302
0.000360895
5.64548e-06
-0.0311859
-5.55635e-07
-5.06107e-09
4.52578e-06
0.000250717
-0.000389096
-2.14989e-05
-0.016222
0.000363919
1.04195e-05
-1.05551e-05
5.45182e-05
-3.59747e-08
-0.033881
0.00685107
-0.00419217
0.000535884
1.28246e-05
-0.130477
5.45632e-05
-1.75296e-07
9.26711e-05
-0.0758656
-1.27139e-08
-0.00310042
2.54944
1.98608e-07
0.000123054
0.0017081
-1.4721e-07
5.19523e-07
2.32247e-08
9.95238e-08
-0.00174505
0.0015923
-0.00258917
0.000156094
-4.2856e-08
-0.0998856
3.40775e-07
-1.68322e-06
4.45008e-08
0.000121263
0.220581
-4.75503
0.0086646
-3.05525e-07
-0.00593969
-0.000714643
1.10613e-06
-0.291504
-1.19218e-08
-0.0413684
-2.14953e-07
-0.0450037
0.295226
8.94832e-05
-0.000111051
-1.1765e-07
1.00397e-09
-4.55874e-05
-1.60379e-05
0.000358991
-0.0632993
-7.12938e-08
-0.00274418
0.00106521
-0.0155494
0.000550078
-8.87467e-06
0.0149799
1.44772e-06
0.0222058
-3.31134e-07
2.17049e-07
-0.0045694
9.17325e-10
-0.0355545
1.9012e-07
-0.0140834
-7.48516e-08
-4.99155e-08
2.1583e-07
-1.87523e-06
-0.00709018
-5.65638e-07
0.000147575
3.86151e-06
10.3864
3.22335e-07
-0.107369
-4.50217e-08
0.000548868
8.29532e-05
3.43028e-09
0.00193218
4.60977e-05
5.87086e-09
-0.000218357
-9.55562e-06
1.76959e-05
-2.56283e-05
0.00981404
0.00201687
-0.00266708
4.19263e-07
-2.58039e-06
0.000138165
3.08542e-06
2.38491e-06
0.0181278
-2.62368e-07
3.94759e-09
1.56203e-10
5.55382e-07
0.000726668
-0.0238237
-5.24356e-10
-0.00164369
4.42941e-05
0.0393285
-0.00640551
-0.0282963
-1.78193e-08
4.88749e-06
-0.005298
0.000413568
0.00147312
0.0313401
0.000283599
7.51781e-10
-0.000228558
1.348e-08
-1.76612e-06
-3.96176e-05
6.36741e-07
-0.000216286
0.00163242
-0.000264094
1.10846e-06
0.000568007
3.94894e-09
0.00069613
0.017942
-0.0108195
-6.97346e-06
-9.76197e-07
0.11956
0.000136558
-0.0184606
-0.0122512
-0.0107377
-0.00187081
-0.000564162
-9.95144e-08
-1.74428e-07
2.35405
5.01803e-06
-1.77784e-06
-0.0188465
-1.05523e-06
0.000318955
-1.74385e-07
0.00282191
1.38355e-07
9.44856e-07
9.32092e-05
1.29185e-07
-0.0211775
8.7535e-06
-0.00294271
4.08499e-07
-3.74424e-08
6.21534e-07
1.24576e-06
-0.00072669
1.47031e-06
-1.41436e-06
-9.27326e-07
0.0330253
0.00926658
-6.29796e-06
9.29179e-07
1.22664e-06
3.47192e-05
0.0260796
-0.00211749
-3.06808e-07
8.53279e-08
6.31298e-07
-1.39394e-06
1.20059e-06
-1.0122e-06
-0.000768499
-0.0629943
-4.41614e-05
0.000370911
-0.0062145
-3.47401e-07
-0.0148058
0.0128353
1.00464e-07
3.06075e-09
7.76865e-08
4.3147e-07
-0.00146561
4.36072e-05
-0.000344762
0.433788
0.00169462
-6.72743e-05
0.0050772
-1.38166e-05
0.000148895
-9.75283e-07
-6.71587e-08
-8.79273e-06
-3.4683e-05
2.5924e-07
-0.0299503
1.27184
-0.000743516
6.62579e-06
-1.75519e-06
-4.60638e-06
0.0303013
0.00452807
1.43584e-08
-1.82448e-08
0.0176327
3.49414e-06
0.0407471
-0.00723367
-0.0134997
0.00192499
-0.000819962
-1.85755e-07
0.0440781
-0.00149593
0.0234861
6.54154e-07
-5.67502e-05
0.0209947
0.000231587
0.000523759
0.0187505
-8.50173e-05
-0.000181975
-2.75429e-07
7.13511e-07
-0.0276711
7.75891e-06
4.36399e-07
-0.0188614
-2.28253e-05
0.000990975
-0.0045291
-3.04312e-08
-1.46417e-07
4.2256e-06
0.0520584
-0.00103651
-0.00540544
-0.0188962
5.80323e-08
2.61166e-05
0.000148885
3.09758e-06
-4.9154e-06
3.18008e-09
0.0600537
0.00385083
-4.14962e-08
0.0395651
2.15878e-08
5.59002e-06
3.18997e-07
-0.0862231
-0.0849609
-0.00290597
2.63663e-07
4.49581e-05
0.8352
0.000509862
8.68248e-10
-4.50084e-05
9.92207e-08
2.41763e-07
2.44262e-07
3.88952e-06
0.00923974
5.41034e-06
-2.66472e-06
-0.00284254
3.15021e-08
-0.00778777
-3.41526e-08
-4.6948e-07
0.000918113
-1.11953e-05
2.16498e-06
0.00609017
-1.1666e-07
0.0309914
8.22173e-08
-0.0309046
0.000329187
0.0040975
0.0173543
-7.61583e-07
-2.60622e-05
1.48805e-07
-3.56217e-05
-5.20055
-3.30126e-06
-2.95383e-08
-6.04475e-06
-0.000900799
-0.127316
-0.00284183
-1.54434e-07
0.000253577
-0.0121412
-9.65318e-10
0.000543087
0.0236961
7.42775
0.000132699
-1.16579e-05
2.00179e-06
-1.00457e-06
2.61241e-07
-0.0161147
-1.4562e-07
-1.31714e-07
2.40052e-07
-0.000112626
0.000874064
0.000366131
-1.29123e-06
-0.0110669
-1.48271e-07
1.24745e-07
-6.53771e-06
0.000114102
-1.14816e-08
0.0112115
-0.0472594
-0.000528536
-1.00529e-08
0.0150491
3.78023e-06
-4.64816e-07
1.36317e-07
6.13498e-06
-0.000620784
0.0412983
-0.008539
0.000157646
-1.29103e-06
9.24039e-08
0.00105417
-0.00112882
0.00668271
0.00604724
-0.0783847
-0.00618355
3.30598e-05
-3.67661e-06
1.45593e-05
-0.000112788
-1.05449e-05
0.0189482
-1.52154e-07
-4.1272e-07
-0.000731696
0.0227182
-0.0259354
2.67678e-08
-0.000540545
7.7773e-09
-1.1659e-06
0.00997549
0.0230359
-2.64882e-06
1.95133
-1.07696e-05
-0.00112321
6.69569e-06
5.15161e-06
-3.64015e-05
2.33054e-07
4.08656e-07
0.0121569
-0.0142057
-2.35124e-05
-0.0379482
-0.0478327
-1.28914
5.97527e-06
6.48874e-07
0.700096
6.71342e-07
-0.00105204
-3.30049e-06
6.80468e-06
0.239222
0.000301337
0.000100968
-0.00324421
0.000237413
-1.41692e-06
1.9756e-07
0.0215722
-2.315e-05
0.00572999
0.00862599
0.00255071
-0.00163502
-0.0192269
-0.00529122
-9.79542e-07
-1.89185e-05
-0.00575738
-0.000280643
-2.23711e-06
2.35414e-07
-0.00192977
2.05039e-06
4.29793e-06
-0.0219995
-1.18854e-05
7.60092e-08
-0.0207336
-0.000666084
5.07875e-06
-0.00128973
0.000927685
-4.53589e-07
3.21689e-07
4.63171e-07
9.88178e-06
0.0545388
-0.0179055
0.145314
-4.88395e-07
2.91821e-08
0.0149347
-0.0567535
-9.51175e-06
-6.57482e-05
6.01757e-06
7.94526
-1.22413e-06
0.0654365
2.32365e-07
0.00014659
1.53821e-08
0.00536744
-0.00109108
0.0189565
8.47895e-05
-0.662934
0.000536622
-0.00195922
-7.66011e-09
0.0080015
0.00033134
-2.16545e-07
0.0103612
0.00115067
5.05961e-07
4.05516e-05
-5.55252e-09
3.3673e-06
0.00427442
-8.41081e-08
0.0361807
2.73938e-07
-2.7921e-05
0.001165
-0.0117864
-2.62224e-07
-0.132433
0.000558395
-0.0143076
-1.95463e-07
-1.42832e-06
6.20456e-09
-0.000168913
-9.54729e-08
-9.62617e-06
-9.46916e-07
2.6696e-07
5.69179e-07
-3.81235e-05
8.37295e-06
-0.000260424
0.0151016
-0.00752425
1.33544e-07
0.00454516
2.75549e-07
-1.10466e-08
-5.92488e-09
-4.14271e-08
0.000385164
1.02561e-06
6.00587e-06
-2.32837e-09
7.42024e-09
-1.84903e-05
-0.0066177
-1.78132e-08
-6.70076e-06
-0.00301568
-0.000219653
-0.021044
-0.000148357
0.0629912
-3.5591e-08
-2.03456e-05
-0.000578856
-5.07544e-08
0.0123254
1.46206e-08
0.000362523
5.82083e-07
0.0428174
-0.000570651
0.0394453
5.66176e-06
-1.48261e-07
-2.06767e-06
-0.0129089
0.0246384
-3.95971e-07
-0.00208901
-2.06344e-06
0.0258284
3.70409e-07
0.00669705
0.007318
-4.36619e-07
1.01893e-06
9.82128e-08
-0.00876957
-1.69954e-06
1.88633e-06
0.00503118
0.0653224
3.28051e-06
-0.00300859
-2.70906e-07
-2.91545e-06
7.97443e-06
0.0351195
0.000409005
0.0399002
0.0042984
-4.37318e-07
0.0049343
0.0150733
0.00393027
0.023164
3.54215e-06
-0.0621537
0.0139023
-0.00111892
0.439195
0.000907862
0.0261101
-0.0689331
1.95142e-07
0.000931783
-0.000866573
-1.25848e-06
-0.00203824
0.00536868
0.000111685
4.69035e-07
1.85838e-05
0.000510959
-0.87189
5.24458e-06
1.02139e-05
3.78224e-07
0.0359974
0.00133367
-0.0132647
1.7935e-05
-2.57131e-07
-0.000315879
-5.41506e-07
0.702855
-2.66068e-06
1.70074e-07
0.00806597
4.04538e-08
1.86937e-07
-1.31044e-07
-8.50357e-07
0.000123198
-2.98356e-06
-0.0148092
-0.0109336
0.00413983
-1.05811e-06
0.000995807
4.12743e-06
-9.71393e-05
1.78437e-06
-2.86773e-06
-1.75533e-09
0.0448614
-0.0635896
-1.34003e-07
-1.20541e-05
-6.72605e-09
-3.91398e-09
-0.00927481
0.0432623
0.032963
-9.38307
0.0495607
-0.000633776
2.27334e-07
-7.48584e-08
2.54431e-07
0.0129755
-0.000116157
0.0015046
0.000137266
2.65062e-07
-0.00166277
0.000496122
0.000893666
0.0208886
-0.00599312
-2.07674
-1.24811e-07
-0.00892844
-1.99372e-07
1.96919e-07
-2.12492e-06
-1.18213e-07
0.0168517
0.000112657
0.0062822
-2.14047e-06
2.45172e-07
0.00149808
0.0127595
-0.0188288
-9.83175e-08
0.0263276
0.00916279
0.00504827
-4.98112e-05
0.0460773
8.9226e-07
-3.17071e-06
-5.92663e-06
-1.83203e-06
3.35806e-06
0.000193274
0.00904091
-2.54423e-06
-3.51559e-07
7.86762e-05
7.129e-07
-1.32426e-05
-2.08406e-06
-0.00187292
0.000887324
4.28486e-07
-2.61071e-05
0.0181504
1.64295e-07
1.34577e-08
-0.000130266
2.537e-06
3.11621e-07
-0.413507
-0.000914437
-0.0032224
-0.00083517
-1.10087e-07
0.000254719
7.16511e-07
6.07055
0.000583445
-1.13163e-07
-3.31708e-06
-1.40851e-07
-0.0936094
-1.89669e-07
0.0240726
-7.16582e-08
1.98796e-07
0.0156441
8.64809e-07
-0.000187058
-0.0190289
-0.00827377
-0.0173811
0.0235167
0.000179458
-0.0259563
-8.01348e-08
-3.67196e-06
-0.00348631
-0.000979848
0.000143393
0.000543027
-1.07839e-06
-3.27888e-07
5.09125e-07
0.00145149
2.01691e-08
0.00122268
-2.32661e-07
-0.0303815
-2.13503e-06
0.00700068
-0.00379064
0.00381679
-0.07622
0.000240572
1.14317e-08
-0.00978545
1.0507
-1.11159e-06
-2.24237e-08
-0.0528327
-0.0325271
-0.00898937
1.26878
-1.30783e-07
-0.0176015
-0.00231592
-2.63087e-06
0.00300146
2.83284e-07
-1.07758e-07
-5.25127e-07
-2.50492e-05
3.79126e-06
-6.99198e-07
0.00205886
0.000329657
-0.000112526
-0.00593236
-7.46474e-08
0.00166839
4.23494e-07
1.86401e-08
0.0481426
-1.84236e-05
-0.512185
-2.03338e-07
0.00322743
0.69281
-0.00111101
-0.0620075
2.40949e-08
-3.11742e-07
-1.48955e-08
2.92045e-07
-4.29167e-05
-7.30082e-08
-0.000214995
-3.25878e-08
0.114598
-0.137032
-0.0183584
-8.38748e-06
6.81168e-05
0.1292
-2.90017e-07
-1.76417e-06
-0.00764414
2.22508e-09
3.04078e-06
2.56322e-07
0.0204357
0.0170052
-0.00295057
-1.77845e-07
0.00776822
-0.0039137
7.11978e-05
-1.16323e-07
-0.00102342
3.58136e-08
-0.00117744
-0.0606504
-0.00612622
-1.90836e-07
1.55589e-05
-7.44744e-08
-2.45035e-06
3.27618e-07
-1.24323e-07
-4.16825e-08
0.162428
-0.222061
-3.59876e-08
-5.41143e-07
0.0167139
5.53296e-07
-6.47541e-08
4.01331e-07
0.0021586
-0.00832148
1.26777e-05
-3.57368e-07
1.38212e-08
-0.0389888
2.30841e-07
-0.00633064
1.74409e-05
0.00055208
3.36352e-07
-4.9049e-08
1.79338e-06
0.00537821
1.77658e-07
-0.00209189
-0.0349289
-1.14544e-07
-4.1833e-06
-6.25651e-08
0.000908149
0.000759031
-6.48342e-05
0.0115799
-0.0271451
-1.96978e-06
0.00434789
-0.0143234
-1.03578e-07
5.90786e-07
-0.000683487
7.23876e-06
-1.58077e-06
4.70161e-06
0.0101869
0.00195248
-1.36604e-06
-7.03097e-08
-0.00354971
0.000517896
-9.9276e-05
-1.16636e-07
1.64659e-06
-3.81336e-05
0.00380315
0.020501
6.6413e-05
2.03549e-06
0.047175
4.33236e-09
0.00111488
-4.08253e-05
-2.07587e-05
0.192463
-6.46177e-05
0.112203
0.000296815
-0.0435379
-1.55024e-07
6.13727e-08
-1.32762e-06
-2.72923e-08
-0.000403841
0.0407825
-0.00532615
4.64327e-09
-0.000125168
0.000109331
-4.66346e-07
0.000392388
-2.78508e-06
0.014434
4.45613e-07
-0.000744014
2.0145
1.98288e-06
0.000528709
1.02497e-06
0.0080982
0.0293815
-0.00771229
1.36502e-06
-1.10439e-05
-1.41917e-07
8.02487e-06
-2.4252e-06
-1.15505e-07
-0.00912462
-1.84636e-08
2.08472e-08
0.00129408
-0.00237917
1.80321e-08
0.000221731
-0.0223586
-0.00409108
-0.000175271
-0.0258433
-2.91308e-07
0.0732784
-0.000838152
-1.11862e-06
-0.0100644
0.038185
0.000195932
-0.0404997
-0.0341316
2.93588e-07
6.7436e-08
-2.98677e-07
0.000143116
6.22541e-06
-1.25977e-07
-0.00198482
-0.000346777
0.00991334
-1.73698
-0.00518263
2.88342e-09
-9.42197e-05
0.00514977
0.051541
1.73381e-06
-0.00226162
-1.11125e-07
-0.000173015
0.00233338
-0.00560294
-0.423098
-2.94163
-1.45443e-07
0.0172114
4.77738e-07
-0.0776571
-1.49761e-06
-0.00426401
0.00144688
-1.10771e-07
0.000481962
-0.0284066
-1.77911e-07
-2.43426e-06
-1.06086e-06
-8.08701e-10
-0.0212908
-0.0431216
-0.0168017
-9.64916e-08
3.59748e-07
-0.00656843
1.70091e-05
-1.37271e-06
-1.1366e-06
8.1355e-08
-5.3279e-08
-0.0318408
0.0026512
0.105479
-6.0649e-05
0.000290513
-1.90382e-06
-4.07724e-05
-1.19613e-06
-0.0378787
1.11522e-07
-0.00462828
0.00155947
-1.71606e-07
-0.02585
1.98033e-07
-1.38923e-06
-0.227904
0.00114363
0.312277
-1.02842e-06
-3.57631e-07
-4.28125e-07
-1.09336e-06
3.54586e-05
-6.10093e-08
-0.0374852
1.34924e-05
-2.54052e-07
0.00300176
-0.0737389
-0.0102701
0.0384791
1.76575e-07
0.000438125
-6.90427e-05
-0.0192346
0.00716654
-1.40402e-06
-1.0554e-06
-0.0327032
-0.000260992
-0.00103858
0.0148872
-5.30764e-08
0.000720222
-0.00924747
0.00573278
1.50905e-07
1.54634e-06
-0.000927343
5.19123e-07
3.36404e-06
-7.02073e-08
-1.75154e-07
-1.0028e-08
0.416274
-4.08766e-06
-1.42077e-07
0.0123292
0.0129205
9.47728e-06
8.09759e-07
-1.31176e-07
6.66896e-10
0.00668657
-0.00220234
0.000631525
1.66326e-07
-0.0348646
0.0099628
8.01384e-06
8.07576e-08
-0.0722188
-0.470958
-2.62063e-07
-0.000948551
-4.09544e-06
-0.0253188
-6.35712e-08
6.61621e-08
0.00010352
-0.0267641
-0.0288759
0.000345071
0.0101821
0.025448
0.033024
0.0426039
1.16544e-05
7.51509e-06
-1.10049e-08
0.0270996
-1.60985e-07
-0.0079361
1.51774e-06
6.75984e-07
3.06078e-07
0.000114063
2.08845e-08
0.186121
0.000796733
8.32356e-07
9.22645e-06