/*--------------------------------*- C++ -*----------------------------------*\
| =========                 |                                                 |
| \\      /  F ield         | OpenFOAM: The Open Source CFD Toolbox           |
|  \\    /   O peration     | Version:  v2012                                 |
|   \\  /    A nd           | Website:  www.openfoam.com                      |
|    \\/     M anipulation  |                                                 |
\*---------------------------------------------------------------------------*/
FoamFile
{
    version     2.0;
    format      ascii;
    class       surfaceScalarField;
    location    "300";
    object      ddtCorrDdt0(phi);
}
// * * * * * * * * * * * * * * * * * * * * * * * * * * * * * * * * * * * * * //

dimensions      [0 3 -2 0 0 0 0];
oriented        oriented;


internalField   nonuniform List<scalar> 
81198
(
-6.57738e-06
6.7944e-06
-2.17067e-07
-3.97772e-05
2.5183e-05
1.45941e-05
3.21878e-06
-4.76272e-06
1.54394e-06
0.000246896
-0.000165494
-8.14018e-05
1.14832e-05
-4.28923e-05
3.14091e-05
3.25296e-05
-5.09456e-05
1.84158e-05
-7.91383e-05
8.2213e-05
-3.07464e-06
6.90322e-05
-3.95716e-05
-2.94606e-05
3.15029e-05
-1.14211e-05
-2.0082e-05
-7.65783e-06
7.18091e-06
4.76916e-07
-3.26586e-06
4.60968e-06
-1.34379e-06
-1.06001e-05
0.000162594
-0.000151993
-8.98552e-06
1.66634e-05
-7.67776e-06
3.31502e-06
-4.86042e-06
1.5454e-06
1.35979e-05
-2.52185e-06
-1.10762e-05
-4.72733e-07
-1.83477e-06
2.30752e-06
3.567e-05
3.33621e-05
1.06345e-05
-1.15453e-05
9.10792e-07
-7.86555e-06
2.07722e-07
-1.25986e-06
-3.27348e-06
4.53338e-06
4.51549e-06
-1.2967e-06
8.13671e-06
-8.65694e-06
5.20318e-07
6.67474e-06
1.35241e-06
-8.02714e-06
-8.75325e-05
-3.37115e-06
9.09036e-05
-5.37022e-07
-1.3694e-06
1.90636e-06
-0.000181533
0.000102456
7.9077e-05
-6.71363e-06
1.36234e-07
-2.97954e-05
2.55733e-05
4.22198e-06
5.72948e-05
-3.98892e-05
-1.74059e-05
7.38161e-06
-7.06864e-07
-7.86589e-05
-0.000102874
4.17709e-07
-1.49416e-05
1.45234e-05
5.08765e-06
2.741e-06
-7.82865e-06
7.48796e-06
4.92228e-05
-5.67108e-05
9.3185e-06
-7.67125e-06
-1.64734e-06
-8.99216e-07
1.49963e-05
-1.40971e-05
1.77116e-06
-2.76218e-06
9.90841e-07
-1.85303e-05
-2.12468e-05
5.36605e-06
-3.31285e-07
-5.03478e-06
-5.27301e-07
8.66396e-06
6.29127e-06
-1.33756e-05
7.08444e-06
0.000160336
-0.000142694
-1.76451e-05
-5.78658e-06
6.24661e-06
-4.60033e-07
-7.33102e-06
-2.32447e-07
7.56342e-06
-1.60669e-05
1.03456e-05
5.72132e-06
9.40968e-07
1.9301e-06
-2.87112e-06
2.84045e-05
2.64323e-05
-5.48368e-05
-5.17199e-06
-5.81434e-06
1.09867e-05
7.5517e-06
-2.35349e-06
-5.19806e-06
5.4074e-06
-1.6611e-05
1.12037e-05
-2.78366e-06
7.87131e-06
-8.61748e-06
4.30437e-06
4.31336e-06
8.46229e-07
7.32422e-06
-8.17051e-06
-9.26291e-06
-6.80403e-06
-4.48462e-05
-5.24114e-05
9.72574e-05
-1.82614e-06
3.681e-06
-1.85489e-06
-0.000109453
9.16347e-05
1.78102e-05
-4.2001e-05
-8.75401e-05
0.000129541
2.9988e-05
6.57575e-05
-9.57458e-05
-7.89413e-06
1.27603e-05
-4.86615e-06
-2.7873e-07
-5.50787e-06
3.16238e-06
-1.51575e-06
-1.64667e-06
4.53181e-06
-1.2168e-06
-0.000157694
0.000257325
-9.96322e-05
2.57442e-06
-1.07951e-06
-1.49494e-06
2.04979e-06
-2.52251e-06
0.000106587
-4.36611e-05
-6.29259e-05
1.57877e-05
-1.49684e-05
-8.18987e-07
-7.41279e-05
6.33983e-05
1.07298e-05
8.47809e-05
-1.27523e-05
-7.20287e-05
-2.86838e-06
-5.74899e-06
2.47351e-06
6.84494e-06
1.65385e-06
9.20568e-07
1.85629e-05
5.41948e-05
-7.27491e-05
-9.00314e-06
1.29694e-05
-3.96624e-06
-1.23301e-05
1.89097e-05
-6.57966e-06
-2.21298e-06
-2.13249e-05
2.35378e-05
-3.13659e-06
-1.53199e-05
1.84563e-05
-1.73963e-05
-4.79225e-06
2.21879e-05
-1.4673e-05
9.7449e-07
1.36981e-05
4.04984e-06
-2.5557e-06
-1.49409e-06
-0.000113196
0.000212291
-9.90958e-05
-7.50802e-06
1.76929e-07
3.38418e-05
-0.000190792
0.000156951
-4.68199e-06
5.42353e-06
-7.415e-07
-3.50375e-05
5.36072e-05
0.000143035
-0.000103313
-3.97218e-05
-7.76974e-05
2.00539e-05
5.76425e-05
-9.92757e-06
-1.92309e-06
1.18506e-05
-2.24416e-07
-8.79721e-06
9.02161e-06
5.29688e-06
-5.29682e-06
5.7815e-06
-8.39864e-06
2.61714e-06
3.64446e-05
-9.36559e-05
5.72113e-05
-2.68671e-05
1.53551e-05
1.15113e-05
1.44487e-05
-1.11487e-05
-3.3001e-06
-2.64912e-05
-3.17592e-05
5.82502e-05
9.9215e-05
0.000134884
-0.0002341
0.000104431
1.4481e-05
-0.000118912
9.89922e-06
-1.0515e-05
6.15752e-07
1.89139e-05
-1.35065e-05
-5.76037e-06
3.03507e-07
5.45689e-06
4.25382e-05
-1.16988e-05
-3.08395e-05
1.34889e-06
-4.1102e-06
2.76127e-06
2.31168e-06
-7.54333e-07
-1.55736e-06
1.54649e-05
-1.50474e-05
3.07407e-06
-6.63267e-06
3.55906e-06
2.80684e-06
-6.58067e-07
-2.14882e-06
-2.98568e-05
-4.78406e-05
-1.78193e-05
5.48915e-06
-1.27088e-05
8.90776e-06
3.80109e-06
-4.84279e-05
1.62856e-05
3.21333e-05
7.47877e-07
1.21683e-06
-1.96471e-06
1.04859e-05
-1.07103e-05
0.000161841
-8.52349e-05
-7.66061e-05
8.40169e-06
-1.10724e-05
2.67069e-06
2.88784e-06
-6.41461e-06
3.5253e-06
6.37837e-05
2.09972e-05
-0.000240624
8.29299e-05
-5.91412e-05
6.6629e-05
9.02626e-05
-5.3818e-05
0.000191286
6.6039e-05
1.2367e-05
-1.24971e-05
1.30114e-07
-6.53563e-05
6.47124e-05
5.60154e-06
-1.88889e-05
1.32872e-05
-5.41844e-06
2.78274e-06
2.63579e-06
-1.40829e-05
1.13257e-05
2.75718e-06
3.09265e-06
-2.91091e-06
-1.81781e-07
-2.49918e-06
-2.91919e-06
0.000239189
-0.000168246
-7.09434e-05
-1.82928e-05
-8.5778e-06
2.68707e-05
9.84417e-07
-1.3029e-06
3.18494e-07
5.27083e-06
2.55063e-07
-5.5259e-06
-1.82154e-05
6.96985e-06
1.12455e-05
1.35495e-05
-1.44487e-05
-3.89241e-06
9.67389e-06
1.99937e-05
-1.64854e-05
-3.50699e-06
-7.94258e-06
9.64442e-06
-1.70177e-06
-0.000116328
0.000126228
-9.90047e-06
2.41346e-06
-7.64748e-07
-1.64873e-06
-2.60526e-07
-6.45274e-06
6.71327e-06
6.95321e-05
-1.55516e-05
-5.39805e-05
1.24665e-05
-1.09253e-05
-1.54108e-06
-7.54911e-06
-1.06663e-05
-3.23012e-05
-5.80278e-06
3.81013e-05
7.36068e-06
-8.56118e-06
1.20045e-06
1.23301e-06
1.45549e-05
8.2254e-05
-8.401e-05
1.75589e-06
3.36796e-06
-1.59675e-06
0.00023671
-0.000136169
-0.000100526
-9.27769e-06
8.08586e-06
1.19191e-06
-1.12879e-05
9.81219e-06
1.47572e-06
3.87028e-06
-4.87216e-06
1.00193e-06
-0.000131611
7.71589e-06
0.000123895
-1.18807e-05
-1.49866e-05
-5.60853e-06
4.85857e-06
7.49962e-07
6.90193e-05
-8.13203e-05
1.23027e-05
-5.48927e-06
2.22341e-06
6.75862e-05
1.43626e-06
-2.02961e-06
1.07384e-05
-8.70901e-06
-1.001e-05
1.15257e-05
-1.51565e-06
4.22845e-05
-1.47829e-05
-2.74965e-05
-1.7062e-06
7.44545e-07
9.61659e-07
4.71073e-05
2.24249e-05
3.96775e-05
1.04812e-05
-5.01584e-05
-2.41615e-05
-5.63401e-06
-3.20142e-06
5.27473e-06
-2.07328e-06
1.53014e-06
-1.14632e-06
-3.8381e-07
4.28965e-06
5.21377e-07
-4.81103e-06
1.17112e-05
-1.26958e-05
9.84643e-07
-1.15676e-07
1.39706e-07
-2.40263e-08
0.000150727
-0.000138788
-1.19391e-05
6.45158e-06
1.35424e-05
1.22895e-06
1.1976e-05
3.90972e-07
-1.00595e-05
3.30122e-05
-2.29528e-05
1.97122e-06
-7.59395e-06
5.62275e-06
3.98459e-05
-5.78589e-05
1.80218e-05
2.0233e-06
-3.2987e-06
1.27539e-06
-1.85484e-06
3.0994e-06
-1.24473e-06
1.36644e-05
-7.37315e-06
1.69478e-05
4.42025e-05
-6.11502e-05
-5.27204e-06
4.16035e-06
-3.5911e-05
5.48848e-05
-1.89738e-05
-2.26413e-07
5.19741e-06
-4.97099e-06
1.26416e-05
-1.2722e-05
8.03743e-08
-0.000187353
0.000187353
8.17604e-06
-9.34356e-06
1.16748e-06
-5.45807e-06
2.73255e-06
2.72553e-06
-2.68603e-06
-2.17438e-06
-4.55156e-05
5.18635e-05
-6.35237e-06
1.3075e-06
-0.0001149
1.53743e-05
9.95264e-05
2.49157e-05
2.36367e-06
-2.72794e-05
3.60317e-06
-1.94934e-06
5.2994e-05
-5.54651e-05
2.47103e-06
4.07555e-05
4.14985e-05
1.01766e-05
4.21247e-07
-1.05978e-05
2.48951e-06
-4.95438e-06
2.46483e-06
8.31819e-05
-5.3898e-06
5.40792e-06
-1.81759e-08
-4.72571e-06
8.78425e-06
-4.05851e-06
-3.40611e-06
-1.06768e-05
-7.05526e-05
4.88e-05
2.17526e-05
-2.48726e-06
3.83612e-06
-3.45129e-07
-3.12623e-06
3.47136e-06
2.732e-06
-3.07714e-06
-7.88084e-06
1.94654e-05
-5.90894e-06
1.22702e-06
1.44945e-06
3.91659e-06
1.97033e-06
2.07958e-06
6.88334e-06
-8.44747e-06
1.56413e-06
-4.54298e-06
1.857e-06
-1.08473e-06
2.02151e-05
-1.61313e-06
-1.8602e-05
9.66876e-06
4.77994e-06
-0.000181779
0.000128547
5.32334e-05
8.13048e-05
-6.94424e-05
-1.18761e-05
0.00016387
-0.000117425
-4.64453e-05
8.90486e-06
-1.04115e-06
-7.86106e-06
1.21651e-05
-1.98856e-06
-9.20452e-06
8.78186e-06
4.22604e-07
-0.000161394
5.19311e-05
-5.08303e-05
0.000211162
-7.48687e-06
5.8222e-06
1.66466e-06
5.74091e-07
1.06519e-05
-1.1226e-05
1.33576e-05
-1.49236e-05
1.56605e-06
4.64974e-06
1.87516e-07
-4.83724e-06
1.08179e-05
-1.8334e-07
4.27354e-06
-3.41276e-06
-8.60793e-07
-1.08848e-05
8.85513e-06
-5.17495e-07
3.61012e-06
0.000144756
-4.53254e-05
-9.94308e-05
1.21807e-05
-1.21806e-05
1.44522e-05
-1.81055e-06
7.18338e-06
1.50944e-06
-8.69285e-06
-0.000142276
0.00024149
0.000136437
1.429e-05
1.11816e-05
-1.40499e-05
2.8683e-06
1.09734e-06
1.08666e-05
1.38873e-05
-2.7057e-06
-1.08809e-06
-6.39877e-06
4.70655e-06
1.55085e-05
2.33719e-05
0.000133406
-0.000156777
-6.20695e-06
3.67753e-05
-3.05681e-05
1.5386e-06
-5.76974e-06
4.23112e-06
-3.11866e-07
8.04677e-06
8.28171e-05
2.48776e-05
-0.000107695
0.00025901
-0.000127997
-0.000131012
-5.29093e-06
8.14292e-07
4.47663e-06
2.77306e-05
1.45575e-05
3.48139e-05
-4.10207e-05
-1.14139e-05
-5.27163e-05
6.41303e-05
0.000209711
2.49076e-05
-0.000234618
-1.3259e-06
3.87229e-06
-2.54642e-06
-1.23663e-05
3.36321e-06
-1.08876e-06
6.67435e-07
4.21341e-07
-8.40347e-05
5.99151e-06
7.80431e-05
3.61794e-06
-6.06481e-06
2.44687e-06
-8.6252e-05
9.71766e-05
-1.09246e-05
6.71446e-06
1.0398e-06
-7.75416e-06
5.90454e-06
-7.8171e-06
1.91269e-06
1.65906e-06
6.97258e-05
-7.13848e-05
-1.68116e-06
9.29176e-06
-7.6106e-06
-5.553e-06
1.63187e-07
-1.37771e-05
4.39648e-06
9.38063e-06
1.70965e-06
-4.37213e-06
2.66248e-06
-7.27422e-05
8.66733e-05
-1.39312e-05
-5.25568e-06
-3.52485e-08
1.15614e-06
3.36834e-06
-4.52446e-06
1.25835e-06
-4.45975e-06
2.24154e-05
6.93031e-05
-9.17172e-05
4.44e-05
-1.4752e-05
-2.96394e-05
1.16547e-05
-3.47386e-06
-8.18091e-06
4.52491e-06
2.26948e-06
7.75002e-06
-8.06179e-06
-8.65353e-06
5.1216e-06
3.53192e-06
-3.1218e-06
1.83926e-06
1.28271e-06
-0.00017541
0.000209252
3.40327e-06
-1.487e-06
-1.91625e-06
5.21896e-05
-2.37851e-05
1.35179e-07
-1.68523e-06
1.55009e-06
-2.13783e-05
-2.20974e-07
2.15993e-05
4.48514e-06
-1.23876e-05
7.90261e-06
5.71089e-05
-4.11493e-06
0.000105179
-2.23617e-05
5.66773e-06
-1.23649e-05
6.69651e-06
-1.94247e-06
1.35746e-06
-3.73028e-07
9.83974e-06
-2.47909e-06
2.30357e-05
-5.41314e-06
-1.76202e-05
7.45626e-05
-8.59767e-05
-0.000206099
9.29037e-05
-3.42085e-06
2.09494e-06
-5.40018e-06
3.17069e-06
2.2295e-06
-4.30658e-05
1.60147e-07
4.29056e-05
2.6342e-07
4.38632e-06
3.66116e-05
4.46861e-05
2.43748e-05
2.00286e-05
-2.73061e-06
1.11323e-05
-2.0436e-05
0.000104368
-8.39317e-05
-0.000270802
0.000148404
0.000122397
4.61217e-06
-7.21291e-06
2.6007e-06
7.27339e-06
-3.9004e-07
-8.16065e-07
4.18855e-08
7.74187e-07
-1.22678e-05
4.84886e-06
7.41894e-06
8.1137e-07
-3.95481e-06
3.14343e-06
2.63956e-05
-5.00916e-06
-2.13864e-05
0.000163742
-0.00017019
6.44798e-06
-7.13657e-06
-2.14106e-06
-2.61339e-06
-7.77745e-06
1.03908e-05
0.000225438
-1.57275e-05
-6.11395e-06
4.11558e-06
1.99853e-06
5.45341e-05
1.80878e-05
-7.26219e-05
-1.37671e-06
8.56009e-06
-5.18401e-06
-6.34063e-06
1.15254e-05
2.10973e-05
-9.38395e-05
-1.12194e-05
1.23167e-05
-0.000194779
5.23478e-05
0.000142393
0.000170287
-9.27478e-05
-7.75397e-05
-2.76398e-06
-2.44806e-06
5.21191e-06
3.22282e-05
-3.45822e-05
2.35409e-06
-4.05663e-06
-2.84829e-07
4.34146e-06
-0.000106661
-7.13436e-05
0.000178005
-3.18612e-05
7.6997e-06
-7.99055e-05
-9.24433e-05
0.000172349
-2.54504e-06
-4.83645e-06
7.38152e-06
-3.34897e-06
-1.18174e-05
1.51671e-05
4.97152e-06
-3.26183e-06
-5.32925e-05
7.02403e-05
-1.02497e-05
1.58512e-05
-5.59074e-06
5.87528e-06
-2.84541e-07
-4.9009e-06
6.35856e-06
-1.45766e-06
1.12799e-06
1.18369e-06
-9.24921e-07
-7.81277e-07
-8.12106e-09
-8.07931e-07
1.31914e-05
-1.37143e-05
5.23347e-07
-1.80165e-05
9.95079e-06
8.06555e-06
0.000241833
-0.000173994
-6.78388e-05
-0.000200068
0.000127574
7.2494e-05
-9.67788e-06
1.38431e-06
8.29359e-06
-4.18652e-06
-1.92737e-06
-7.44194e-06
8.28815e-06
0.000149999
-0.00013765
-1.23488e-05
-9.67953e-07
4.58588e-06
3.90141e-06
-3.09004e-06
7.71965e-06
5.72347e-08
-7.77688e-06
2.96984e-06
-1.95809e-05
-0.000117189
9.67526e-05
-1.31866e-05
1.25636e-05
6.23432e-07
-3.44919e-05
-6.01423e-05
9.46349e-05
6.16452e-05
-6.16452e-05
-3.33803e-06
-2.06215e-06
6.76375e-05
0.000109615
-0.000177253
6.76746e-06
-4.05803e-05
3.38127e-05
8.91945e-06
-1.61475e-07
-8.75791e-06
-5.79899e-06
5.52024e-06
-3.98653e-06
4.38089e-06
-3.94366e-07
6.32252e-06
-5.71491e-06
-6.07644e-07
1.16569e-06
7.54841e-06
-8.71409e-06
-1.67406e-06
9.98944e-06
-8.31539e-06
-6.00829e-05
-0.000121695
-6.56837e-07
-8.54776e-06
5.57408e-06
-2.2115e-06
-3.36258e-06
-9.6945e-05
0.000184638
-8.76934e-05
1.22572e-05
-1.35397e-05
1.28253e-06
-9.24201e-06
-2.03526e-07
9.44552e-06
1.30603e-06
5.01647e-06
-0.000184695
3.98531e-06
2.03532e-05
-2.43385e-05
1.87313e-06
1.73002e-06
-3.36148e-06
-1.02442e-05
1.36057e-05
-4.60562e-06
-7.66222e-06
1.3141e-06
-5.37073e-06
1.74498e-06
-4.50896e-06
-1.27027e-06
-3.7104e-07
1.64135e-06
-1.79218e-06
1.79973e-05
-1.62035e-05
-4.38895e-06
7.42138e-07
3.6468e-06
3.70892e-06
2.66342e-05
-3.03446e-05
1.80766e-06
9.84705e-06
1.47628e-05
1.05945e-05
-2.53589e-05
3.6633e-05
3.04482e-06
3.46497e-06
4.53222e-06
-7.99719e-06
6.76595e-07
1.38139e-05
-1.44899e-05
9.6207e-05
0.000162803
-6.31819e-05
-7.37081e-06
-1.98918e-05
-4.60801e-06
2.44981e-05
7.49631e-05
-1.33179e-05
1.65912e-06
0.000197358
-0.000173986
4.49123e-07
9.72574e-06
-1.01749e-05
6.40203e-06
5.74664e-06
-1.21487e-05
-6.27103e-05
9.26982e-05
-4.94386e-06
-1.30729e-05
-1.03893e-07
-5.69512e-06
4.50179e-05
-0.000199015
0.000153997
0.000218237
-0.000217918
-3.17753e-07
-1.84128e-06
5.54937e-06
2.14432e-05
-3.90577e-06
1.26438e-05
-8.73807e-06
-1.33867e-05
-2.69507e-05
4.03374e-05
-3.40293e-08
3.98726e-06
-3.95324e-06
9.02393e-06
-9.29243e-06
2.68437e-07
2.86155e-06
-4.87845e-05
4.59227e-05
-5.74333e-06
2.58899e-05
-2.01475e-05
6.57864e-05
-0.000172447
-1.05867e-05
-4.47766e-06
1.50661e-05
-2.03862e-06
8.1985e-07
1.21873e-06
-1.24237e-05
1.31004e-05
-6.58556e-06
-1.58815e-06
8.17371e-06
5.48871e-06
9.89421e-05
-0.000118822
0.000192353
-7.35306e-05
-3.68407e-06
-7.04891e-07
6.75192e-06
-7.01244e-06
-7.46847e-06
6.64938e-06
8.19008e-07
-2.02639e-06
2.00913e-06
1.72735e-08
1.41535e-05
4.31413e-05
2.17071e-05
-2.61346e-05
4.4275e-06
-2.75867e-06
2.53217e-06
2.26675e-07
-1.87347e-07
4.61911e-06
-4.43176e-06
-8.51824e-06
-2.3343e-05
-1.08709e-05
8.97681e-06
1.89408e-06
-5.60148e-05
-2.31235e-05
-8.86415e-06
2.32702e-06
6.53706e-06
-3.3735e-05
-3.78138e-05
7.15488e-05
-6.96775e-05
2.79345e-05
4.17429e-05
6.90296e-05
-1.44954e-05
-0.000167504
0.000127829
3.96753e-05
8.89911e-06
6.60288e-06
-1.5502e-05
-6.04202e-05
6.04202e-05
-4.95381e-09
-4.40919e-06
4.41405e-06
5.01825e-05
-8.40389e-05
3.38563e-05
-7.40416e-06
-6.4932e-07
8.05346e-06
-1.21161e-05
6.93206e-06
1.97036e-05
6.69203e-06
1.56449e-05
2.73537e-05
-4.29986e-05
6.29436e-06
1.14315e-05
-1.77258e-05
6.83436e-06
-2.30945e-06
-0.000198012
0.000118106
1.2035e-05
-6.07548e-06
-5.95918e-06
1.29162e-05
-8.80717e-07
6.76568e-05
-0.000164602
-1.19917e-05
1.23497e-05
-3.57972e-07
6.26166e-06
-3.47889e-06
-2.9251e-06
5.70425e-06
-2.77915e-06
2.64098e-05
-3.07359e-05
4.32604e-06
-4.49527e-05
1.88678e-06
-9.11364e-06
7.09709e-06
2.01655e-06
-1.21929e-05
2.18297e-06
-4.16878e-05
-8.99224e-05
1.50984e-05
-1.68894e-05
-0.000146926
-4.78666e-05
-0.000199658
8.13009e-05
0.000118357
-1.37272e-06
1.363e-05
-1.12796e-05
6.51831e-06
4.76147e-06
0.00020216
4.4736e-05
7.30997e-06
-1.61918e-05
8.88226e-06
1.23481e-06
-6.62541e-06
5.39099e-06
-5.60814e-06
1.74051e-08
-1.26875e-06
2.20967e-06
2.95367e-05
-9.86773e-05
6.91407e-05
-6.96112e-06
-2.15251e-06
2.90935e-06
1.85917e-06
-4.76851e-06
5.43939e-07
1.11673e-05
4.45652e-06
-7.52869e-06
3.07219e-06
-2.48272e-06
4.35308e-06
-1.87034e-06
-2.40565e-05
1.55435e-05
8.51305e-06
-0.000159188
9.91056e-05
1.02125e-05
-4.30843e-07
-9.78171e-06
-2.43907e-05
2.79749e-05
-3.58404e-06
0.00016011
-0.000122668
-3.74365e-05
4.28294e-05
1.66197e-05
-5.94492e-05
5.52024e-07
4.74491e-06
5.9138e-06
-6.21596e-06
3.02187e-07
3.67894e-06
-2.62698e-06
-1.05208e-06
-0.000229157
0.00022791
1.24726e-06
4.17849e-06
-3.08233e-07
-1.56616e-07
4.09426e-08
4.66483e-05
0.000117222
-2.87118e-05
3.55963e-05
-6.88435e-06
1.18833e-06
9.02417e-06
-3.03653e-05
1.89441e-05
-2.65849e-06
2.52628e-06
1.32387e-07
-9.58306e-06
1.00321e-05
3.31954e-05
-5.00744e-05
1.68788e-05
-2.37226e-06
-3.8635e-07
0.000114594
-5.8355e-05
-0.000141712
2.74939e-06
-1.37953e-05
1.10457e-05
1.27534e-06
-1.81229e-06
-2.19441e-05
-3.83905e-07
2.23271e-05
7.145e-06
1.09654e-05
-1.81103e-05
1.29431e-05
-1.20822e-05
-8.60839e-07
2.2016e-06
-4.72029e-06
2.51871e-06
6.1577e-07
-1.02937e-05
5.02777e-06
-2.14087e-06
-4.73269e-06
5.40783e-06
-6.7518e-07
-6.26838e-07
9.02367e-06
-8.39701e-06
-3.18558e-06
2.32098e-06
8.64501e-07
7.8188e-05
-0.00019701
-6.34432e-06
3.54239e-06
2.80189e-06
1.78193e-05
-3.26001e-05
0.000132719
-4.44061e-05
-8.83131e-05
0.000181488
-3.14756e-05
-0.000150012
1.02998e-05
-6.69632e-06
2.09433e-06
4.60199e-06
-5.0484e-06
-3.74436e-06
8.79279e-06
1.06653e-05
-1.0877e-05
2.11659e-07
-1.20701e-05
8.94161e-06
3.12838e-06
-8.18165e-06
7.77474e-07
6.2153e-06
-5.2387e-06
-9.76589e-07
1.14998e-05
-1.95765e-06
-9.54213e-06
-1.1701e-06
-9.89406e-06
1.10643e-05
-3.4387e-05
-3.52905e-05
-1.52754e-06
-4.1241e-06
2.86428e-06
6.97866e-05
-0.000191734
0.000121947
7.50268e-06
-1.64878e-05
6.61296e-06
-3.72983e-06
-2.88316e-06
-1.54353e-05
5.52907e-05
-1.14634e-06
5.60626e-06
-4.45993e-06
-8.03916e-05
4.94077e-06
7.54503e-05
-6.15078e-06
6.91798e-06
-7.67189e-07
4.91242e-07
-5.22391e-06
8.47192e-06
-1.03778e-05
1.90593e-06
7.38015e-06
-9.99354e-06
3.01035e-05
-4.34901e-05
-1.7374e-05
-5.99204e-05
7.72942e-05
-9.31045e-05
0.00016635
-7.32451e-05
4.82425e-06
5.83646e-07
4.68339e-06
-5.94937e-05
6.73871e-05
-7.908e-06
4.06709e-06
-4.10113e-06
1.10986e-05
1.36789e-06
-8.14019e-06
5.43659e-06
2.7036e-06
3.11031e-06
3.15138e-06
4.30073e-06
-4.44258e-06
1.41839e-07
-1.03442e-05
-1.26266e-07
-4.24184e-06
2.55301e-07
5.46494e-07
2.26031e-06
5.63145e-06
-3.18219e-06
-2.44927e-06
-3.37628e-06
-2.23145e-06
5.60778e-06
0.000420382
-0.00029855
-0.000121849
9.80388e-06
-4.5715e-05
-3.17933e-06
-2.21377e-07
3.40068e-06
0.000131603
0.000107586
-7.15512e-06
-7.68796e-05
4.25641e-06
1.95887e-06
-6.66983e-05
8.62689e-05
-1.95705e-05
1.68946e-06
-4.17217e-06
6.22239e-05
-9.67157e-05
-8.47204e-06
-1.00239e-05
1.84959e-05
-0.000102981
-5.62064e-05
-2.16069e-06
-1.97839e-05
2.614e-05
-6.33236e-06
-1.98077e-05
5.77568e-05
-1.41728e-05
-4.3584e-05
-1.40276e-05
7.98257e-06
6.04537e-06
-8.75326e-05
-7.20838e-05
-0.000114948
-6.2308e-05
0.000177256
-4.85043e-06
1.92533e-06
1.20721e-05
2.38009e-06
-5.99409e-06
-1.47433e-06
-2.52669e-05
8.76355e-07
5.83079e-06
-1.00662e-06
-4.35026e-06
-1.35664e-06
5.70687e-06
-2.97635e-05
7.9946e-05
-1.0372e-05
7.00269e-06
3.36931e-06
1.16759e-05
-1.50374e-05
2.28818e-05
-8.55923e-05
3.67524e-06
2.93772e-06
-5.80623e-06
9.05351e-07
1.35316e-05
-7.09044e-06
-6.44049e-06
4.04669e-06
8.40719e-07
-4.8874e-06
-2.41224e-06
1.22232e-05
-9.85706e-06
0.000188231
-0.000118445
1.46868e-05
-1.78231e-05
9.77812e-07
-1.56509e-05
5.13711e-05
-1.88413e-05
-4.78774e-06
1.2098e-05
-2.318e-06
-4.30361e-06
6.62165e-06
-1.70762e-06
4.9061e-06
-3.19848e-06
1.05358e-05
-9.95875e-06
-5.77095e-07
-2.19668e-06
-4.49963e-06
-5.97351e-06
2.51356e-06
3.45995e-06
-2.44291e-06
-0.00011129
6.96023e-05
-8.38896e-07
-2.69884e-06
3.53774e-06
8.36564e-05
-0.00018752
0.000103864
9.57077e-08
-1.64495e-05
1.63538e-05
2.0185e-05
-1.38905e-05
-9.78794e-06
-8.9151e-06
1.8703e-05
1.5557e-05
-6.65786e-06
1.97534e-05
-4.35133e-05
2.37598e-05
-5.09684e-06
4.87044e-06
-8.74126e-06
8.28974e-05
-7.41562e-05
-2.64131e-05
5.55004e-05
-2.90872e-05
6.24631e-06
-1.00297e-07
-6.14605e-06
-2.2795e-06
1.9678e-06
3.11699e-07
-1.03886e-05
-3.63875e-06
0.000108573
0.000133259
8.50747e-06
-8.36723e-06
-1.40236e-07
-9.77719e-07
5.86627e-05
-6.38492e-05
5.1865e-06
-3.12491e-05
-5.90916e-05
9.03408e-05
1.5839e-05
-1.30892e-05
-0.000108312
0.000110543
-2.23075e-06
1.59007e-06
-1.87115e-06
2.81088e-07
-5.7357e-06
7.36745e-06
-1.63175e-06
5.69243e-06
-2.61848e-06
2.43573e-05
-0.000126699
0.000102341
7.99943e-06
-6.83374e-06
-2.11662e-06
-1.62871e-07
8.08771e-06
-1.07041e-07
-7.98064e-06
7.78573e-05
-3.88182e-05
-3.9039e-05
-1.51217e-05
6.64962e-06
2.33213e-06
3.24197e-06
5.84658e-05
-0.000124887
6.64209e-05
0.000111368
-1.18514e-05
-9.95156e-05
1.23974e-05
-3.25312e-07
-5.13525e-06
3.42764e-06
0.000107648
-0.000111019
0.000114939
-6.38358e-05
-5.11024e-05
-6.0338e-05
-0.000150691
3.43626e-05
1.35966e-05
-9.83409e-05
0.000122698
-4.57649e-05
-3.14173e-05
7.71823e-05
4.631e-05
1.23526e-05
-7.20664e-05
1.42314e-05
5.7835e-05
-6.79647e-05
6.47709e-06
6.14883e-05
-5.17244e-06
4.0261e-06
6.11769e-07
-4.07051e-06
3.45875e-06
8.37428e-06
6.49642e-07
8.73479e-07
5.37284e-06
-1.84594e-05
3.74566e-05
-1.89972e-05
-1.24556e-05
6.38017e-06
2.80455e-06
-2.27736e-05
1.99643e-05
3.31071e-06
-4.1496e-06
5.34779e-05
5.31086e-05
-0.000102648
1.13534e-05
9.12943e-05
2.82389e-06
-4.92128e-06
2.09737e-06
-9.26535e-05
-9.9941e-06
4.95224e-06
1.32535e-07
-5.0848e-06
6.30424e-06
-3.03199e-06
-3.27231e-06
-7.54319e-07
-1.91379e-05
4.67288e-06
7.43649e-06
-1.21096e-05
5.81092e-05
2.21008e-05
-8.02103e-05
6.32608e-06
-1.56576e-06
-4.76033e-06
-9.21466e-05
0.00012796
-3.58141e-05
-5.9312e-06
3.61324e-06
1.17053e-05
1.21109e-06
-4.70582e-05
7.15322e-05
-2.4474e-05
4.79991e-05
-0.000223409
-2.74e-06
-4.17454e-07
3.15744e-06
5.60175e-06
-4.60128e-06
-1.00056e-06
8.17034e-05
8.25545e-06
-8.99589e-05
-5.60761e-06
6.51019e-06
-9.02567e-07
1.05755e-06
2.21023e-06
-2.37139e-06
1.61187e-07
-1.2654e-05
7.84905e-06
4.805e-06
-6.29042e-06
6.19013e-06
-0.000107089
0.000107089
-6.71078e-06
-5.99797e-06
-2.4306e-06
4.47677e-06
-2.04622e-06
-9.3336e-06
5.85571e-07
8.74844e-06
2.49157e-05
-3.74697e-05
-7.38198e-05
3.56721e-06
-2.95543e-06
1.80766e-07
4.10888e-06
-5.53465e-06
-2.60553e-06
-4.43235e-06
2.61394e-05
-1.03038e-05
1.25827e-05
-2.27894e-06
-9.29866e-07
-3.6278e-06
4.55767e-06
4.50394e-05
1.27176e-05
5.38367e-05
9.86499e-07
-5.48234e-05
0.000178257
5.84563e-05
1.77495e-06
1.32439e-06
7.33521e-07
-3.47353e-06
5.14343e-06
-6.18411e-07
-4.52505e-06
1.31583e-05
-8.67307e-06
4.1413e-06
-4.1463e-06
2.21111e-07
-2.089e-05
0.000102363
-8.14734e-05
-4.72328e-05
2.5895e-05
2.13373e-05
-3.70719e-06
-1.75089e-06
-6.82279e-06
7.0577e-06
-2.34895e-07
5.64752e-06
-6.36525e-07
-5.01101e-06
-0.000125332
-8.61963e-05
0.000211528
5.74282e-06
8.589e-05
8.67347e-07
7.36087e-06
-8.22794e-06
-8.24958e-07
-9.06672e-06
9.89167e-06
2.69733e-05
-4.03483e-05
1.3375e-05
-3.10383e-06
5.12276e-06
-2.01893e-06
-4.2679e-06
4.72844e-06
-4.60539e-07
-7.9379e-06
1.16003e-05
-3.66233e-06
2.10121e-06
-1.95667e-06
1.26086e-05
-3.45222e-07
-3.27936e-06
3.62498e-06
7.93032e-06
-2.02579e-06
4.50611e-07
-6.03594e-06
4.62093e-06
1.4151e-06
-3.17189e-05
3.13601e-05
3.58822e-07
-1.00943e-05
2.20022e-06
2.9003e-06
8.59948e-06
3.60648e-05
6.47343e-06
7.32892e-06
-5.8409e-06
-1.48802e-06
-2.58138e-05
-5.90515e-06
-1.75472e-05
1.68887e-05
6.58408e-07
-1.82128e-05
6.17332e-06
1.20395e-05
-1.96583e-07
-3.4851e-06
3.6817e-06
9.59009e-06
-8.70554e-06
-8.84252e-07
0.000171315
4.36709e-05
-0.000214985
-1.52487e-06
-9.76155e-07
2.50102e-06
1.13095e-05
-8.70449e-06
-2.605e-06
-6.60295e-05
2.2123e-05
4.39066e-05
7.13996e-06
-7.3399e-06
1.9982e-07
4.94512e-06
-9.86218e-07
-3.95896e-06
8.03893e-06
4.8833e-08
-1.35981e-05
2.50812e-05
-1.74147e-06
-1.96368e-05
-7.06612e-05
8.05376e-05
-9.87638e-06
6.67079e-06
-7.56979e-07
-7.91592e-05
9.3299e-05
-1.41399e-05
-3.6374e-06
6.42776e-06
-2.79065e-06
-3.59075e-06
2.15783e-06
1.43297e-06
1.14326e-06
-2.66813e-06
-2.72651e-05
5.62934e-05
-2.90324e-05
-6.33738e-06
4.2848e-07
-5.98201e-06
-6.67205e-06
4.33782e-06
-3.76523e-06
-5.72601e-07
4.84835e-06
-5.88582e-05
5.88582e-05
-3.9986e-06
3.61269e-07
-1.2177e-05
-3.88102e-05
5.09869e-05
-3.67305e-06
-7.60651e-06
-6.68614e-06
1.42297e-05
-7.54302e-06
1.10479e-05
-1.04081e-05
-6.39817e-07
-1.77043e-06
4.25993e-06
-2.07705e-06
-7.90625e-07
2.86766e-06
8.94619e-06
2.45575e-06
-1.14019e-05
-2.97427e-05
-8.51576e-05
1.78497e-05
-2.24569e-05
6.94664e-05
-2.94675e-05
-3.99983e-05
-4.57649e-06
4.51854e-06
5.79829e-08
-0.000120247
9.93565e-05
-8.7292e-06
-3.34096e-06
2.43577e-05
-4.83094e-05
2.39516e-05
-0.000202498
0.000145555
5.69433e-05
-5.41492e-08
2.8913e-05
-2.88589e-05
-0.000150715
-5.1783e-05
4.54199e-05
-0.000147689
0.000102269
-0.000193282
0.000182682
-4.66714e-05
6.26171e-05
-1.59458e-05
2.66111e-05
-0.000151943
1.40605e-05
4.73769e-05
-6.14373e-05
-1.857e-06
-1.69388e-07
8.83058e-05
2.30619e-05
-5.52176e-06
-0.00019252
0.000198043
0.000115967
-1.91194e-05
-9.68474e-05
-1.68395e-05
-0.000150665
4.18076e-05
-0.000134912
-1.27505e-05
2.41648e-06
1.03345e-05
7.97024e-06
2.3425e-05
-3.13952e-05
-0.00017484
2.88607e-05
0.000145979
-3.45034e-06
5.80926e-06
-2.35892e-06
-1.26212e-05
8.71525e-06
-1.96727e-05
-2.07719e-06
2.17498e-05
2.51861e-06
-1.35433e-05
1.10244e-05
-3.9292e-06
2.72772e-06
1.20147e-06
-6.61852e-06
-2.84493e-07
6.90303e-06
1.32155e-06
-3.39861e-06
-0.000195552
7.1453e-05
0.000124101
-9.95732e-06
-3.22954e-06
1.33359e-06
-7.0693e-06
1.64755e-06
6.23203e-06
-4.74541e-06
-1.4866e-06
-3.4526e-06
3.35448e-06
9.81307e-08
-8.90031e-05
1.46209e-06
3.40962e-06
8.91102e-07
-0.000107976
0.000152993
-0.000100642
9.34731e-05
7.16905e-06
4.43443e-06
-5.89918e-06
1.46487e-06
4.16781e-06
7.77283e-07
3.07732e-05
-5.11409e-05
5.40024e-05
-7.73429e-06
4.95063e-06
-1.03581e-06
-2.55491e-06
-3.69681e-05
5.93867e-05
-8.02495e-05
-0.000160374
0.000115291
-7.52949e-05
-3.99958e-05
-2.1586e-06
3.75694e-07
1.78291e-06
-4.51316e-06
4.77508e-07
4.03556e-06
-0.00010167
2.63117e-05
7.53576e-05
5.71034e-06
-4.395e-07
-1.0821e-05
5.68066e-06
5.14036e-06
0.000101479
-0.000194526
9.30472e-05
1.7255e-06
4.57874e-06
3.71679e-05
-5.45422e-05
-9.84067e-06
0.000103326
-9.34852e-05
-1.36702e-05
-7.25819e-05
8.971e-06
-7.30717e-06
-1.66386e-06
4.90778e-06
-1.14756e-06
-3.76022e-06
3.97862e-06
1.90583e-05
-8.37076e-06
4.43469e-06
3.93622e-06
3.28449e-05
-0.00018383
0.000150987
3.13723e-06
0.000123703
-0.000102208
-2.14949e-05
-1.92942e-06
5.66014e-08
3.21716e-05
-2.70559e-05
5.14135e-05
1.14693e-05
9.68481e-05
-0.000108317
1.82178e-05
9.66015e-06
-2.7878e-05
1.10889e-05
1.50506e-05
7.99245e-06
-8.23906e-06
2.46592e-07
-1.90792e-07
-4.55014e-07
1.06562e-05
-2.93675e-06
-2.00564e-05
0.000186383
-0.000133082
-5.32941e-05
-1.53241e-05
-1.00914e-05
2.54157e-05
5.58801e-06
-8.13309e-06
7.19663e-05
-8.83641e-05
1.63977e-05
4.26829e-05
-8.75291e-05
-3.51379e-06
-1.39495e-05
1.74632e-05
2.04262e-06
-4.52524e-07
1.50181e-06
2.70763e-06
1.68103e-06
-4.38867e-06
4.13131e-06
1.10446e-06
-5.23579e-06
-7.68391e-06
6.00276e-06
6.63116e-05
-5.22511e-05
1.28055e-06
-2.79622e-06
1.81334e-06
9.2346e-06
3.30098e-06
2.35538e-07
-3.53653e-06
6.65343e-07
8.6481e-07
-8.69623e-05
3.75633e-05
4.93992e-05
-1.70359e-07
-9.07166e-06
1.46883e-06
-2.91355e-06
1.44471e-06
-1.1167e-06
-2.81251e-06
-6.00435e-05
0.000137338
-7.72949e-05
6.89235e-06
-2.27697e-06
-4.61537e-06
-2.81503e-06
9.88823e-07
1.09288e-05
-6.42212e-05
7.82364e-08
-6.36866e-06
-1.11249e-05
-7.08793e-06
0.0001771
-4.85947e-06
-0.000172241
-1.04317e-05
1.07047e-05
-2.72933e-07
1.65854e-06
3.24924e-06
-2.0081e-05
2.56674e-05
-5.57507e-06
0.000191915
-0.000143915
2.87187e-05
-5.52099e-05
3.03766e-06
1.23588e-06
-8.76966e-05
7.7856e-05
-6.41703e-07
3.34933e-06
-4.10639e-06
1.22545e-05
-8.14815e-06
7.03578e-06
4.64491e-07
-7.5001e-06
-4.98936e-06
-6.77551e-06
1.17649e-05
-8.71442e-05
9.86147e-05
-1.27121e-05
1.15417e-05
7.32416e-06
1.64683e-06
4.83575e-05
-4.83575e-05
-5.84073e-06
1.57282e-06
1.5234e-06
-5.45817e-06
3.93477e-06
1.29323e-06
3.61287e-06
2.89782e-06
-4.03664e-06
1.13879e-06
-3.55988e-05
3.79624e-05
1.07915e-06
6.65933e-06
-7.7385e-06
-2.3776e-06
2.59424e-06
-2.16601e-07
3.25997e-05
2.22852e-05
4.8117e-06
-7.54871e-06
2.737e-06
1.4425e-05
-7.55994e-06
-6.86511e-06
-7.61046e-06
1.26151e-05
-5.00465e-06
-3.125e-06
-1.63773e-06
1.13488e-05
-2.40264e-06
-1.44544e-05
6.84399e-06
-4.41072e-05
-1.1358e-05
4.83203e-07
-3.3024e-06
-1.50201e-07
0.00018059
4.92029e-05
-0.000229793
-6.31756e-05
1.65042e-05
0.000114863
8.84067e-06
4.18843e-07
-2.04766e-06
1.62902e-06
-2.23122e-05
2.32427e-05
-9.30555e-07
5.71821e-05
-5.9317e-05
2.13505e-06
-5.42896e-05
1.01824e-05
4.43774e-06
1.3096e-07
-4.56871e-06
-1.05315e-05
2.52881e-05
-1.47565e-05
2.75806e-06
-7.90169e-06
5.14362e-06
-5.39629e-06
4.3115e-06
9.32148e-06
-7.01617e-07
-8.61992e-06
-3.58298e-05
-4.1686e-05
7.75133e-05
-9.07607e-05
0.000121509
-3.07481e-05
-1.40399e-06
-3.99238e-06
-1.87893e-06
-1.24286e-06
4.55562e-06
1.31967e-06
-9.12662e-06
4.21237e-07
5.40032e-05
-2.14034e-05
-5.99937e-05
7.35425e-05
-1.35489e-05
-5.90772e-05
5.1019e-05
8.05523e-06
8.57514e-07
9.09982e-06
-9.95727e-06
-6.4484e-06
3.74257e-06
-8.94046e-07
-2.84852e-06
3.94874e-05
-1.25141e-05
3.49221e-06
8.40107e-05
2.66244e-06
5.29558e-06
-1.2489e-06
7.44614e-05
6.85734e-05
-3.5572e-06
3.36986e-06
-5.21945e-06
-4.71443e-07
5.6909e-06
4.95447e-06
-3.79832e-06
-2.06763e-06
-2.35851e-06
4.42614e-06
1.66016e-05
-3.24404e-06
-6.76084e-06
2.49853e-06
4.2623e-06
-7.16771e-05
1.01592e-06
4.11861e-05
0.000108813
-1.00352e-05
1.01474e-05
-1.12237e-07
1.03915e-06
1.00521e-05
-1.10913e-05
-1.14337e-06
-4.89254e-06
0.00014728
-0.000125849
9.6652e-06
6.80344e-07
2.72018e-05
-2.64699e-05
-7.31654e-07
-2.90807e-07
-1.12591e-06
1.41672e-06
-1.69248e-05
-5.38743e-06
-4.38134e-05
-2.00359e-05
-5.73171e-07
5.71659e-06
-2.43803e-05
1.32527e-05
1.11293e-05
-2.59956e-06
-7.0284e-07
2.25368e-05
-1.34657e-05
-9.07117e-06
-5.9347e-05
0.000239938
8.90552e-06
-7.45716e-07
-8.15939e-06
-1.19071e-05
1.23881e-05