/*--------------------------------*- C++ -*----------------------------------*\
| =========                 |                                                 |
| \\      /  F ield         | OpenFOAM: The Open Source CFD Toolbox           |
|  \\    /   O peration     | Version:  v2012                                 |
|   \\  /    A nd           | Website:  www.openfoam.com                      |
|    \\/     M anipulation  |                                                 |
\*---------------------------------------------------------------------------*/
FoamFile
{
    version     2.0;
    format      ascii;
    class       volVectorField;
    location    "300";
    object      ddtCorrDdt0(U);
}
// * * * * * * * * * * * * * * * * * * * * * * * * * * * * * * * * * * * * * //

dimensions      [0 1 -2 0 0 0 0];


internalField   nonuniform List<vector> 
54593
(
(8.76273e-06 4.21151e-05 1.34694e-23)
(0.000466956 -7.6205e-05 0)
(1.80413e-05 -7.29845e-06 1.83749e-22)
(0.00782191 0.000310926 0)
(-0.00142525 0.000236159 0)
(0.00137395 -0.000849524 0)
(0.00320635 -0.000204323 -2.6741e-22)
(0.000843208 2.81754e-05 4.1211e-22)
(0.000385646 -0.000164501 -2.48845e-22)
(2.39284e-05 -3.44683e-05 -3.26058e-22)
(4.87473e-05 -3.63906e-06 0)
(-0.00796383 -7.54551e-06 -1.97252e-22)
(0.000139059 0.000551253 0)
(1.92087e-05 1.85956e-05 3.06679e-22)
(0.000216608 0.000115875 -1.43042e-22)
(-5.80096e-07 2.87365e-05 -3.55515e-22)
(0.000856831 -8.9193e-06 -7.33876e-22)
(0.000139488 0.000109586 -4.05518e-25)
(2.38782e-05 -3.30135e-05 -1.35096e-22)
(2.7025e-05 5.23733e-05 -3.3563e-22)
(1.76125e-05 -8.11097e-06 -1.83193e-22)
(6.3828e-05 4.94923e-05 -6.01471e-22)
(2.19693e-05 -3.47358e-05 1.46716e-22)
(0.00447197 4.08181e-05 0)
(5.85143e-06 4.18826e-06 0)
(-0.00257298 -0.000708939 -1.43022e-22)
(6.49386e-06 3.81394e-05 -1.54528e-22)
(-0.000264351 -0.000184436 -2.25789e-22)
(0.0010615 -0.000750322 2.71626e-22)
(2.27085e-05 -3.4276e-05 3.22141e-22)
(-0.00256478 -0.000619831 1.38378e-22)
(0.000369561 -1.14234e-05 0)
(1.38582e-05 3.1788e-05 2.01555e-22)
(0.00227472 -0.000333365 -2.19249e-22)
(5.29852e-05 0.000137496 0)
(-1.80405e-07 6.64981e-05 2.07198e-23)
(3.26603e-06 4.389e-05 -3.44458e-22)
(0.000458193 -5.74685e-05 5.0426e-22)
(2.8195e-05 -2.58803e-05 -3.31033e-22)
(6.50868e-05 5.03334e-05 4.07468e-25)
(3.19232e-05 0.000402902 0)
(-0.00177573 -0.00143186 -1.12479e-23)
(1.32697e-05 -2.08433e-05 -1.55948e-22)
(8.54573e-06 4.46459e-05 -3.28108e-22)
(-6.71958e-05 0.000348294 1.75751e-22)
(2.16757e-05 1.15697e-05 3.98392e-22)
(-0.000418199 0.00075588 4.82559e-22)
(0.000188214 7.25106e-05 -2.2489e-22)
(1.9382e-06 -3.34149e-05 -2.23457e-22)
(0.000142143 0.000205482 6.01771e-23)
(1.34197e-05 3.1174e-05 0)
(1.05612e-06 -3.50327e-05 0)
(6.8049e-05 3.89411e-05 0)
(-7.6984e-05 0.000353722 -7.46049e-23)
(0.000686123 -0.00158981 -4.80532e-22)
(1.04879e-05 -8.63024e-07 -2.63409e-22)
(-0.000173811 -0.00565685 1.0523e-21)
(-0.00101153 0.000427247 -1.58291e-21)
(0.000578979 -0.00144699 -5.07073e-22)
(-1.35077e-05 0.000216725 5.38785e-23)
(1.36309e-05 -2.01905e-05 1.65235e-22)
(1.1971e-05 2.06342e-05 1.03811e-22)
(1.97141e-05 1.88874e-05 0)
(0.00812021 0.000198357 0)
(7.78943e-06 6.71018e-06 -4.10133e-22)
(-1.52925e-06 2.73698e-05 0)
(0.00108526 -0.00264857 0)
(0.000366221 7.91636e-05 -3.99502e-22)
(0.00280156 -3.91744e-05 0)
(0.00277414 -6.27999e-05 0)
(8.92294e-07 -3.4187e-05 2.09811e-24)
(5.46562e-05 0.000135439 0)
(8.03881e-06 9.27456e-06 1.42701e-25)
(-0.00136134 -0.00118451 -9.24921e-22)
(-2.55622e-05 -7.9183e-05 -3.95644e-23)
(4.88013e-05 -0.000144497 -4.99333e-23)
(-0.000103607 -0.000250992 0)
(0.00036619 0.000411761 2.18295e-22)
(0.000575266 -0.000629679 -2.90394e-22)
(-0.0002458 0.000483745 0)
(1.179e-05 -7.97702e-07 -1.82407e-22)
(0.00734988 -0.000190022 2.9231e-22)
(7.08326e-06 4.30232e-05 4.05575e-22)
(0.00477927 -0.0041286 -1.33833e-21)
(4.24115e-05 -1.49025e-05 2.44159e-22)
(-0.00122677 -0.00104942 3.91669e-22)
(-0.0047385 3.09686e-05 -1.1778e-22)
(-0.000273411 -0.00110622 2.17113e-22)
(-0.000126755 0.000245897 0)
(-5.69441e-07 6.98762e-05 -4.42898e-22)
(0.000174937 -1.62733e-05 -1.67492e-22)
(6.24511e-05 6.25173e-05 -1.85431e-22)
(0.00159675 -0.000120953 -2.93028e-22)
(-0.000331463 -0.0002396 1.80811e-22)
(0.000104616 0.000106917 -1.01239e-21)
(0.000691373 0.00158372 0)
(0.00568261 -0.00190981 -4.01401e-22)
(0.0024284 -0.000336051 0)
(2.55322e-06 8.37349e-05 1.51539e-22)
(0.000149559 0.000211844 5.43689e-22)
(3.45945e-05 -3.10363e-05 1.54409e-22)
(0.000900777 0.00101861 0)
(-4.7653e-06 4.04575e-05 0)
(7.71034e-06 -8.34933e-06 0)
(0.000359762 -8.71306e-06 0)
(9.20602e-05 1.50488e-05 0)
(3.71186e-05 1.45451e-05 4.71829e-22)
(-0.00026458 -0.00107215 -1.14853e-21)
(4.37718e-05 -0.000144292 4.36901e-22)
(1.01739e-05 0.000230197 0)
(0.00135125 0.000333155 9.22951e-23)
(7.86852e-06 -2.56846e-06 -1.54991e-22)
(-4.60173e-07 7.42459e-05 0)
(-0.00267532 -0.000475696 1.74038e-22)
(1.62422e-05 5.92678e-05 -1.5288e-24)
(-0.000243595 -3.77829e-05 -3.58237e-22)
(0.00278162 -6.28967e-05 -1.20435e-22)
(0.00820155 0.000167096 1.20211e-22)
(0.0022554 -0.000371196 3.86482e-22)
(0.00154103 -0.000162416 0)
(0.00810283 0.000221288 0)
(-5.80219e-07 4.91926e-05 2.936e-22)
(-0.00223143 -0.000178202 2.96435e-22)
(-0.000187944 -7.44062e-05 5.43467e-22)
(2.14166e-05 -4.82532e-06 -2.64213e-22)
(5.16312e-05 0.000396574 0)
(1.36593e-05 3.49809e-05 2.00155e-22)
(2.12347e-05 -2.14163e-06 -2.19685e-22)
(0.00813677 -9.22825e-05 -4.39771e-22)
(-0.000329303 -0.000760242 -5.93903e-23)
(4.26063e-06 3.82019e-07 -8.38325e-23)
(3.15671e-05 -2.54421e-05 -2.4751e-22)
(4.54954e-05 -0.000164966 0)
(-3.76195e-07 6.4838e-05 -1.87656e-22)
(6.38229e-05 6.52262e-05 7.74157e-22)
(-0.000113464 0.000695617 4.32838e-24)
(2.15748e-06 -4.52619e-05 0)
(0.0033378 0.000930251 0)
(7.8003e-06 -7.57658e-06 0)
(-3.25669e-07 -3.57159e-05 -1.62807e-23)
(-0.00227807 -0.000146316 -2.83291e-22)
(0.000115961 0.000201198 0)
(4.3744e-05 -0.000159007 0)
(-0.000695574 6.66658e-05 -5.26517e-22)
(5.94534e-05 8.71909e-05 2.76253e-22)
(0.00036827 6.96062e-05 3.4116e-22)
(-0.00297914 -0.00049848 -1.84733e-22)
(6.3814e-06 4.64796e-05 4.14023e-22)
(0.00280881 -0.00433738 0)
(1.04576e-05 -5.6833e-05 -3.26328e-24)
(-2.79315e-05 0.000217328 -1.66661e-24)
(2.51214e-05 2.01623e-05 -1.60667e-22)
(-0.00164138 -0.00135248 9.39885e-22)
(-0.000353165 -0.000217233 -3.58485e-22)
(2.58471e-05 1.87728e-05 9.74438e-23)
(0.0020766 -0.00036506 0)
(5.00661e-05 -3.52256e-06 -2.60373e-22)
(0.00210413 -0.000378198 1.00306e-22)
(0.000209772 0.000138349 -4.12004e-22)
(5.13682e-06 8.20631e-05 4.66511e-22)
(-0.000319845 -0.000989997 1.95976e-22)
(4.26169e-06 1.52144e-05 -5.14611e-22)
(-0.00224635 -0.000120968 5.88429e-22)
(0.00116847 0.000816497 -1.16114e-22)
(-0.000254799 -0.000179109 0)
(2.13466e-05 -2.17258e-05 2.05611e-22)
(4.71803e-06 -1.32287e-06 2.32582e-23)
(1.27767e-05 -1.49427e-05 1.53936e-22)
(-3.50174e-05 0.000450644 -2.09911e-22)
(1.16381e-07 4.27378e-07 2.82867e-23)
(-0.00288204 0.000395907 -3.68522e-22)
(-0.000103843 0.00064155 -2.74155e-23)
(-0.000134084 0.000251486 1.28433e-22)
(-5.42514e-07 4.71774e-05 -2.60217e-22)
(0.000375885 -0.000196981 -1.20272e-22)
(1.43633e-05 2.92872e-05 0)
(0.00199471 1.7435e-05 0)
(2.75305e-05 2.17043e-06 -2.29204e-22)
(9.78219e-06 2.69567e-05 0)
(3.92124e-05 0.000400713 0)
(-0.00244612 0.000820881 -6.25759e-22)
(-2.78698e-06 -1.87351e-05 -1.78474e-22)
(0.00106828 -0.00087183 -1.09481e-22)
(3.47238e-05 -3.00578e-05 -1.63883e-22)
(1.01533e-06 4.36536e-05 -5.67217e-23)
(-0.00568959 0.00013237 0)
(8.54681e-06 -5.81675e-05 0)
(4.25002e-05 -1.39231e-05 -1.36345e-22)
(1.94103e-05 1.84701e-05 -2.53351e-22)
(-0.00129594 0.000677049 -5.26051e-22)
(1.01446e-05 2.33413e-05 -1.14645e-22)
(0.000282471 0.00303219 5.76084e-22)
(-0.00132322 -5.07176e-05 -9.10043e-24)
(8.05855e-06 1.28714e-05 0)
(-0.00232445 6.21056e-05 0)
(-0.00309648 -0.00049106 -1.95133e-22)
(9.36395e-06 6.34931e-05 3.62806e-22)
(4.37996e-05 -5.59779e-06 0)
(-0.00267253 -0.000566567 -1.61144e-22)
(0.000225904 6.0003e-06 -1.64821e-23)
(6.30813e-05 6.97934e-05 0)
(3.25068e-05 0.000395669 2.42862e-22)
(-7.98768e-05 -0.000999187 8.56375e-22)
(-3.96458e-06 4.3085e-05 -2.36402e-22)
(3.00102e-05 -7.02681e-06 -1.14143e-25)
(2.99979e-05 -6.82492e-06 -1.8601e-22)
(-0.000399933 0.000614538 -3.60989e-24)
(4.29273e-05 -1.62167e-05 -1.96015e-22)
(2.85932e-05 -2.78664e-05 -1.12217e-22)
(1.20286e-05 -1.0434e-06 -2.00531e-22)
(2.64135e-06 -3.67108e-05 0)
(1.85859e-05 1.83934e-05 -1.92689e-22)
(-2.61857e-06 -1.8577e-05 8.46191e-23)
(1.73467e-05 -0.000170633 -3.4409e-22)
(0.000106985 0.000104291 5.43014e-22)
(-6.46364e-05 -0.00275095 0)
(0.00165609 0.000992552 0)
(-0.00057966 0.00338524 4.28166e-22)
(-0.000117499 0.000212034 0)
(1.1596e-05 6.18942e-05 -2.41619e-22)
(6.64321e-05 5.38517e-05 -3.15069e-22)
(0.00277887 -0.000958673 3.04243e-21)
(0.000294696 -0.00579878 -3.2621e-21)
(5.1541e-05 5.62082e-06 -2.03266e-22)
(-9.57984e-05 0.00032673 -2.69231e-24)
(0.000162816 7.13475e-05 5.94339e-25)
(7.9136e-07 1.50021e-05 0)
(0.000139738 0.000105977 3.71582e-22)
(1.7122e-05 2.6426e-06 -8.59726e-23)
(0.000205497 0.000133757 5.14999e-22)
(1.64186e-05 2.80255e-05 0)
(-0.00156778 0.00202164 7.22942e-22)
(0.000391402 -0.000173775 0)
(1.89158e-06 4.65357e-05 0)
(-2.15531e-06 7.22137e-05 1.21965e-23)
(0.00545939 -0.00155002 3.81765e-22)
(-0.00283628 0.000283884 6.34533e-22)
(5.14967e-06 5.766e-05 9.49485e-24)
(-0.00017822 0.000310054 -3.16654e-24)
(6.62784e-06 5.56613e-05 0)
(4.92875e-05 7.44305e-06 -2.02916e-22)
(1.93798e-05 -0.000172192 0)
(0.00432679 -0.00406867 -1.43742e-21)
(-0.00029489 0.000681768 -1.8533e-22)
(2.96382e-05 -3.86508e-05 2.07261e-22)
(-3.97605e-05 -5.45135e-05 0)
(0.00217516 -0.00251834 0)
(-0.00419957 0.0027741 -8.09829e-22)
(1.13608e-05 -1.71415e-05 1.53854e-22)
(-0.000205871 -0.000798668 8.93482e-22)
(-0.000269696 0.000712526 1.70477e-22)
(-0.00273906 -0.00138355 2.80822e-22)
(0.00533437 -0.00344279 4.45632e-22)
(7.75211e-06 1.52861e-05 0)
(-2.42607e-05 -7.86851e-05 1.67898e-23)
(3.3492e-06 -2.40482e-07 -1.90279e-22)
(-0.00321902 0.000156514 -2.56836e-22)
(4.20685e-05 -1.98645e-05 1.9775e-22)
(0.00132352 0.00132639 -3.08958e-22)
(6.29252e-05 4.82334e-05 -4.08615e-22)
(0.000121762 -1.37367e-05 0)
(-0.00270973 0.000938844 0)
(-4.96697e-06 7.44406e-05 0)
(0.000204957 8.95058e-06 0)
(0.000113297 0.000101853 6.49232e-22)
(1.53329e-05 1.68238e-05 -6.63409e-23)
(0.00356306 -0.000109409 0)
(1.13685e-05 -1.66098e-05 -4.29633e-22)
(5.49322e-05 4.27788e-06 0)
(2.17935e-05 -1.95646e-05 0)
(-6.51016e-05 -0.00227686 -8.08298e-22)
(0.000682943 0.00087125 3.50948e-22)
(9.22523e-05 6.79679e-05 -2.24099e-22)
(6.9324e-06 3.88688e-05 3.68974e-22)
(-3.92319e-05 -5.8111e-05 0)
(2.41855e-05 3.99799e-05 1.81914e-22)
(8.62668e-06 2.29367e-05 1.09451e-22)
(0.00493899 -0.00418709 9.55506e-22)
(1.18746e-05 -1.01114e-05 0)
(-0.000376558 0.000717395 -4.02882e-22)
(6.55409e-06 2.51483e-07 4.0287e-23)
(1.69474e-05 -0.000217749 -6.47878e-22)
(3.51185e-05 -0.000101545 3.33084e-23)
(-0.00231799 8.63823e-05 0)
(0.00230515 -0.00250593 -2.77554e-22)
(1.15e-05 0.000367041 -7.51496e-23)
(6.44337e-05 4.95744e-05 3.50127e-22)
(4.95471e-06 3.14344e-07 0)
(6.23594e-05 9.04822e-05 0)
(-0.0003893 0.000731468 -2.5549e-23)
(-0.00275835 -0.00145495 -9.53592e-22)
(0.00746751 -0.000190116 -3.29766e-22)
(7.31061e-06 1.35035e-05 -1.60941e-22)
(1.03101e-05 -1.94098e-05 0)
(-0.000546462 -0.000504027 -3.71956e-22)
(1.25368e-06 1.68743e-05 -2.85974e-23)
(0.00202595 0.00129294 0)
(0.000861117 0.000551623 -2.5903e-22)
(1.67832e-05 5.76575e-05 1.56523e-22)
(-0.00265706 0.00069372 4.01145e-22)
(-0.00495065 0.00144727 2.13213e-22)
(4.55137e-05 1.73743e-05 -3.70415e-22)
(1.69358e-06 -3.58304e-05 -1.38465e-23)
(4.0024e-07 2.92968e-06 -6.81824e-24)
(2.18082e-05 5.17331e-05 1.65131e-25)
(2.80372e-05 -1.82428e-06 2.09142e-22)
(0.000238272 0.000176351 -2.17843e-22)
(0.00657575 -0.000195622 0)
(8.74592e-06 -5.69514e-05 -5.64267e-22)
(1.18689e-05 6.02121e-05 -1.01059e-23)
(0.0053936 -0.00342812 0)
(8.0522e-05 4.94505e-06 9.45729e-23)
(0.00288527 2.75582e-06 -1.34113e-24)
(-1.30931e-06 7.33048e-05 -8.44789e-23)
(1.44016e-05 0.000377212 -2.79786e-22)
(0.00366134 -0.000163629 0)
(-0.000174284 0.000322269 -3.54738e-24)
(-0.00250973 -0.00442773 0)
(0.0013654 -0.00251548 -1.51206e-21)
(3.45252e-05 4.95244e-06 -1.40228e-24)
(0.000451343 0.00025666 0)
(1.16317e-05 -1.94745e-05 0)
(-0.00190972 -0.00351348 -4.11716e-22)
(-0.000259107 -0.000168781 1.8833e-22)
(0.00503999 -0.000747034 0)
(3.22791e-07 0.000110577 -6.76803e-25)
(0.000290307 0.000202873 -1.0142e-22)
(1.49375e-05 1.68498e-05 5.12263e-22)
(-0.00238934 0.000901329 5.56504e-22)
(-0.00019111 -7.20319e-05 -1.0035e-21)
(1.28513e-06 -2.40291e-05 3.81488e-22)
(5.86891e-05 3.71168e-05 0)
(7.0207e-06 -5.3388e-06 0)
(3.53675e-06 1.56244e-05 -1.40933e-22)
(2.61794e-07 2.38119e-06 0)
(-3.41671e-05 0.000531843 9.43167e-23)
(-2.46255e-06 -0.000131424 -4.39524e-22)
(0.00830001 0.00012481 -4.57916e-22)
(-0.00272959 -0.00317403 0)
(9.42972e-05 -4.19838e-05 2.42376e-24)
(8.39569e-05 6.63439e-06 9.15609e-23)
(6.89325e-05 4.01946e-05 2.66047e-22)
(0.00400962 -0.00204305 -2.40681e-22)
(4.35544e-05 -1.7116e-05 0)
(2.81405e-05 -1.91503e-06 1.95118e-22)
(-2.53663e-05 -0.000167799 -8.51628e-23)
(0.000130605 0.000210738 2.46717e-22)
(-0.00255073 0.000692705 -4.82743e-22)
(-1.15346e-05 -0.00023121 0)
(0.00212674 0.00053358 -2.08783e-22)
(-0.00205147 -4.93456e-05 -4.37224e-23)
(1.03383e-05 -1.84595e-05 -3.17107e-22)
(-0.00228169 -0.0031869 0)
(-0.000125447 0.000751661 7.57077e-22)
(4.03528e-06 6.89488e-05 5.59915e-23)
(1.40988e-05 -1.99328e-05 0)
(2.96315e-06 6.07227e-05 2.89065e-23)
(9.53732e-06 -2.5401e-05 1.03154e-22)
(2.02415e-05 5.99969e-05 2.18004e-22)
(1.02384e-05 6.19575e-05 -2.19292e-23)
(-3.03845e-05 -0.00265493 6.90902e-22)
(6.67823e-05 5.5949e-05 0)
(4.39191e-05 -5.49106e-06 -4.3871e-22)
(0.00778989 -0.000117778 -6.74137e-22)
(0.000157697 0.000239248 0)
(-2.37919e-06 7.7561e-05 0)
(9.27827e-06 -2.52512e-05 1.06178e-22)
(-0.00167013 0.00777968 8.68374e-22)
(-3.23662e-05 -0.000277681 -2.89747e-22)
(1.00053e-05 1.58277e-05 0)
(-1.9559e-05 -0.000107782 0)
(2.16667e-05 5.30345e-05 3.98991e-22)
(1.1396e-05 -1.91898e-05 1.68143e-22)
(3.52682e-05 4.4587e-06 3.36137e-22)
(5.64836e-06 1.62273e-05 -3.29817e-22)
(-0.000248738 0.00074172 -4.56966e-24)
(1.90115e-05 1.59382e-05 -2.35454e-22)
(-0.000562962 -0.00118849 -4.29994e-22)
(9.37336e-05 6.62399e-05 0)
(0.000534045 -0.000550088 0)
(0.000890957 0.000835519 -1.17359e-22)
(3.12584e-05 0.000107326 1.43058e-22)
(0.000215173 0.000296933 0)
(-0.00438564 0.0025948 7.99273e-22)
(-9.59388e-05 -0.000968587 0)
(0.000588795 0.000587951 0)
(-0.00251023 -4.34191e-06 0)
(7.69392e-06 -5.50365e-06 0)
(0.00448077 -0.00418619 1.42886e-21)
(-0.000103958 0.000311077 0)
(2.04839e-05 0.000302119 0)
(0.000518373 -0.00148979 -5.33868e-22)
(-3.00204e-06 -0.000127324 -5.46871e-22)
(1.44074e-05 -1.8911e-05 0)
(-0.00772029 0.000206075 3.14304e-23)
(0.00841063 3.59604e-05 -6.48558e-22)
(0.00042514 -0.00208898 5.95874e-23)
(0.000389821 -0.000187735 0)
(8.34098e-05 0.000279065 3.40786e-22)
(-0.00026966 -0.000648544 2.00918e-22)
(4.52844e-05 -8.45181e-06 -2.62455e-22)
(-9.58787e-05 0.000115604 -2.93058e-22)
(0.00185381 -0.000397216 -1.1965e-22)
(-0.000527147 4.83186e-05 -1.04954e-21)
(-0.00183633 -0.0033779 -3.92918e-22)
(0.000373283 0.000187801 2.65141e-22)
(5.71679e-06 -1.8952e-06 2.74107e-22)
(0.000220513 0.000303483 0)
(1.20274e-05 3.36536e-05 0)
(0.00251242 -0.000465159 0)
(-0.00384655 0.00114719 6.4885e-22)
(1.96245e-05 1.64129e-05 0)
(-2.78346e-07 -3.56641e-05 1.55571e-23)
(0.00010624 -8.26864e-05 -3.02349e-22)
(8.25394e-06 5.848e-06 0)
(0.00118992 -0.000711698 -1.86409e-22)
(3.42246e-05 -0.000340459 1.12615e-21)
(2.84565e-06 1.65557e-05 0)
(3.00388e-05 -1.22201e-05 -2.35568e-22)
(-0.000252724 -0.000159441 3.25469e-22)
(6.30615e-05 0.000187706 2.10428e-22)
(0.00305842 -0.000268471 0)
(6.89685e-07 0.000129023 0)
(0.000628122 -0.00100216 -8.69122e-22)
(-0.00220776 -0.000309589 1.82526e-22)
(0.00289766 2.53615e-06 5.06567e-23)
(0.00419524 -0.00241712 4.55142e-22)
(0.000150076 0.000146988 3.62511e-22)
(0.00181126 -1.8827e-05 0)
(6.90363e-05 2.55036e-05 3.37293e-25)
(-0.00194011 0.00168385 9.48782e-22)
(0.000114429 8.14708e-05 -9.24608e-23)
(5.1163e-06 0.000366451 3.85311e-22)
(0.000241102 0.000165711 9.90416e-23)
(-7.61396e-05 -0.000687604 0)
(-0.000109895 -0.000154444 4.06842e-22)
(6.65484e-06 3.66405e-05 -3.22488e-22)
(0.00499857 -0.000687608 0)
(0.000248719 -1.73853e-06 -1.77221e-22)
(0.000257852 -7.03841e-06 0)
(0.00768622 -7.31558e-05 7.40729e-22)
(4.80343e-07 4.1315e-05 -1.06384e-22)
(2.08977e-05 -7.29297e-06 2.11023e-22)
(9.57946e-06 -2.33315e-05 1.64751e-25)
(-0.0010727 -0.000263803 -1.64279e-21)
(-0.000527611 -0.000489641 -3.63227e-22)
(1.1317e-05 3.8745e-05 0)
(3.13675e-06 8.23779e-05 -5.15047e-22)
(-0.00160078 -0.00126981 -4.89963e-22)
(-0.000184039 0.00092961 1.64319e-23)
(-0.00249367 -0.00175684 -2.02917e-22)
(-0.00251739 -0.00322463 5.49933e-22)
(0.000165588 0.00024201 0)
(0.000159626 0.000101441 2.80756e-22)
(0.00783146 0.000332733 0)
(-4.76501e-05 0.000570756 1.78895e-23)
(0.00010102 2.44356e-05 -1.76038e-22)
(7.36356e-07 -1.92511e-05 -4.14203e-22)
(2.05653e-05 1.08467e-05 -4.9004e-22)
(0.00169697 -0.000444925 -6.30038e-22)
(1.03814e-05 3.69139e-05 5.98295e-23)
(1.0588e-05 -1.88963e-05 -2.26434e-22)
(-3.49027e-05 0.000443334 2.27383e-22)
(2.2059e-05 3.85716e-05 -2.36331e-22)
(1.18665e-05 -1.87332e-05 3.22162e-22)
(-6.14621e-05 0.000329308 2.73127e-22)
(0.000105127 -0.00263074 -1.57241e-21)
(8.89866e-06 7.71049e-05 0)
(0.00021748 -0.0002199 0)
(-0.00292055 -0.000960275 1.01925e-21)
(0.0022789 9.69771e-05 1.73967e-24)
(0.000226427 -1.21331e-05 1.4573e-22)
(7.96746e-05 2.66571e-05 2.50485e-22)
(8.06467e-06 1.05922e-05 0)
(0.00849738 -5.64351e-05 5.4515e-22)
(2.5246e-05 1.8163e-05 2.84634e-22)
(1.91363e-07 5.80282e-07 7.00091e-23)
(-0.000535585 0.00350525 -5.37194e-22)
(-0.00138558 -0.000317061 -5.78309e-23)
(1.06941e-05 7.60899e-05 0)
(0.000399713 -0.000152644 5.33415e-22)
(3.12369e-06 1.59462e-05 4.69767e-23)
(-0.000112631 0.000300676 -6.34519e-23)
(-0.000396239 -0.000473206 0)
(2.62748e-06 1.3758e-05 -1.41802e-22)
(-0.0020271 -0.00222949 1.46756e-21)
(-0.00276328 -0.00300897 0)
(0.000167159 0.000428658 -3.47093e-22)
(5.98375e-06 4.38011e-06 9.79936e-23)
(0.000259942 0.000770965 0)
(-0.000148365 0.000587426 0)
(1.09658e-06 4.4107e-05 2.85896e-23)
(8.33854e-06 1.71697e-05 -1.77796e-22)
(9.27042e-05 -3.67153e-05 3.26775e-22)
(-8.74461e-06 0.000139685 3.91563e-22)
(3.58918e-05 1.55538e-05 -1.86168e-22)
(8.33915e-05 0.000162563 0)
(2.81931e-05 -3.45523e-06 0)
(-0.00370075 0.00124636 -6.52187e-22)
(2.90667e-05 -9.35363e-06 0)
(-0.000294988 -0.000622778 5.48618e-22)
(-0.00472037 -1.28796e-05 -1.51137e-21)
(-0.00352702 0.00177043 -3.91925e-22)
(-9.155e-05 0.000321545 0)
(2.31984e-05 -2.04668e-05 0)
(0.000128232 3.7879e-05 0)
(2.50044e-06 8.34333e-05 0)
(5.38898e-05 0.00018772 -2.24772e-22)
(0.000113311 8.56253e-05 1.05119e-22)
(1.74444e-05 1.75726e-05 -8.75663e-23)
(1.79345e-05 6.59442e-05 -5.49801e-23)
(8.98491e-05 -0.000267104 2.99379e-22)
(-0.00211339 -0.000312183 -9.21637e-22)
(3.85066e-06 8.32385e-05 0)
(2.54357e-05 5.44622e-05 2.96059e-22)
(0.00666792 -0.00082231 0)
(0.000145198 0.000521279 0)
(8.38939e-06 1.87766e-05 0)
(0.00175265 0.00041419 5.90393e-25)
(9.08581e-06 3.28507e-05 1.88342e-22)
(-0.000347407 -0.0011433 -4.25165e-22)
(5.65607e-05 3.19121e-05 7.77737e-23)
(3.42035e-05 1.39642e-05 1.3711e-22)
(1.34281e-06 7.74238e-05 -3.80344e-22)
(1.08794e-05 5.79427e-05 -2.9983e-22)
(-0.000249306 -0.00064361 -3.91533e-23)
(-0.00169706 0.000817999 2.39065e-22)
(0.00450084 -0.00110381 0)
(0.000202387 3.29174e-06 2.57743e-22)
(1.81169e-06 -3.39967e-05 4.75832e-25)
(0.00249546 -0.000198363 0)
(4.44483e-05 -8.81597e-06 0)
(0.000117701 0.000191305 0)
(2.50745e-05 2.9395e-05 8.36841e-23)
(2.11518e-05 -1.00094e-05 -1.11534e-22)
(1.76942e-05 7.86927e-06 0)
(0.00279899 -4.3079e-05 0)
(2.37887e-06 1.44065e-05 -7.71572e-23)
(8.10094e-07 6.27788e-05 -1.36277e-22)
(3.52579e-05 1.882e-05 -4.34332e-22)
(2.43571e-05 -1.24502e-06 2.6601e-22)
(4.47087e-05 -1.65142e-06 2.16113e-22)
(0.00167355 -0.00459992 5.91425e-23)
(0.00108387 -0.000901851 0)
(2.13981e-05 2.36184e-05 7.98191e-23)
(0.00821484 -0.000145709 -4.45471e-22)
(-0.00330792 0.000192727 0)
(1.71817e-05 1.6207e-05 0)
(-0.00315089 -0.00030553 0)
(1.13507e-05 -1.77792e-05 0)
(0.00246613 -0.000289275 0)
(9.76558e-05 -0.000169905 0)
(0.000120298 -0.00254159 0)
(0.000136919 0.000751814 3.23532e-22)
(-0.000417665 0.000200568 -3.43426e-22)
(0.000537709 0.000722954 0)
(2.74582e-05 0.000399292 -2.32024e-22)
(0.00288098 4.63073e-05 0)
(-0.00255534 -0.00319587 -4.48863e-22)
(0.00632911 0.000993179 5.54588e-22)
(9.91512e-06 -2.06844e-05 0)
(5.55513e-07 4.59408e-05 0)
(0.000102386 -7.42379e-05 -2.54809e-22)
(0.00021863 -0.00020432 0)
(0.000232161 -7.9031e-07 -2.35321e-22)
(3.42385e-05 1.69371e-05 -2.12105e-25)
(-0.00192301 0.00171676 -4.98103e-22)
(1.23887e-05 7.04662e-05 4.32977e-22)
(-2.26669e-05 -0.000106804 -3.89344e-22)
(0.000461033 -0.00145014 4.34111e-22)
(8.3399e-06 1.95351e-05 -1.62857e-22)
(5.76481e-05 3.61924e-05 4.1703e-22)
(2.24104e-05 0.000315593 1.87512e-22)
(4.61208e-05 -9.01255e-06 -2.66275e-22)
(-0.000604603 -0.000567125 -2.42543e-24)
(0.00684326 -0.000745279 0)
(0.000360683 0.000368035 -2.73847e-22)
(-0.000261885 0.000495151 7.12788e-23)
(0.00142663 -0.000830718 1.82568e-22)
(-3.58402e-05 0.000573753 0)
(1.70811e-05 2.44851e-05 -2.85033e-22)
(1.17794e-05 -1.467e-05 1.9212e-22)
(9.11601e-05 5.59602e-05 3.55252e-22)
(2.30339e-05 -1.80689e-05 1.4252e-22)
(4.55629e-05 -3.70001e-06 0)
(2.85526e-05 -5.76349e-06 0)
(-0.00150585 -0.00126515 -1.03067e-21)
(3.34248e-05 -1.45304e-05 0)
(-0.00341422 0.00117494 8.15921e-23)
(2.39031e-06 -0.000188225 0)
(-0.000107164 -0.000158624 -3.41216e-22)
(0.000673579 0.00030337 0)
(0.000158189 0.000148527 -4.10909e-22)
(0.000276697 -0.000536731 3.05914e-22)
(3.52337e-05 -2.92246e-05 4.12311e-23)
(-0.00285902 -0.00148999 0)
(-0.000924863 -0.0015181 -3.31966e-22)
(2.38711e-05 -2.73418e-05 0)
(1.20872e-06 7.92717e-06 1.25177e-22)
(2.28083e-05 0.000390027 1.0106e-22)
(0.00828026 9.67801e-05 4.66191e-22)
(6.6148e-05 4.15002e-05 0)
(2.88122e-06 8.33188e-05 -3.11772e-22)
(0.0013535 0.00132587 0)
(-0.00347968 0.00051801 7.32484e-22)
(0.000169962 0.000418627 3.16968e-22)
(-0.00450053 -0.000181613 -3.66659e-22)
(-6.22054e-06 1.68447e-05 0)
(6.20712e-05 4.32603e-05 4.25046e-22)
(8.75221e-05 1.50053e-05 0)
(-0.00184567 -0.00272397 0)
(2.0561e-05 5.68977e-05 0)
(9.91911e-07 7.48431e-06 -7.26647e-24)
(-5.08494e-05 0.000133548 0)
(0.000937798 -0.000427649 -1.22802e-21)
(0.000101438 -0.000164705 -3.08363e-22)
(4.44592e-05 -3.19152e-06 0)
(0.00262687 0.000233988 0)
(0.00242415 0.00149191 -2.38691e-22)
(1.59557e-07 4.31202e-05 -2.74731e-23)
(1.1332e-05 -1.47976e-05 0)
(0.00445178 6.53825e-05 0)
(-0.00110208 -0.00151584 -2.8687e-22)
(-0.000326998 -0.00110404 -4.39466e-22)
(0.00355824 0.000731515 3.84791e-22)
(-0.000127081 0.000591127 1.80938e-23)
(-0.0017612 -0.00273601 0)
(-0.000115947 0.00221721 0)
(0.00113114 0.00138791 0)
(0.000811893 -0.000737158 0)
(-0.000456193 0.00144537 -1.91122e-22)
(8.76327e-06 2.90459e-05 5.17697e-22)
(2.88285e-05 -4.95375e-06 2.53064e-22)
(-8.73747e-05 0.000119998 0)
(2.3995e-05 -2.92397e-05 -8.84994e-23)
(-0.000473686 0.000179424 1.62574e-22)
(0.000238353 -3.65201e-06 0)
(0.00114503 0.00167311 -3.12964e-22)
(3.40508e-05 -1.58725e-05 1.09669e-22)
(0.000720849 -0.0025638 0)
(0.00199302 -0.000242708 8.20338e-22)
(2.60687e-05 2.17343e-06 0)
(0.00201704 -0.000157666 -1.07409e-21)
(1.50308e-05 -1.71317e-05 -8.7147e-23)
(3.75256e-05 -1.8754e-05 9.94836e-23)
(0.000523556 0.00065185 3.42483e-22)
(-1.76422e-05 0.000318002 -3.00577e-22)
(-0.00205436 0.00154508 -5.02782e-22)
(6.48663e-05 7.29877e-05 0)
(0.00219543 -0.00289905 0)
(1.65566e-05 2.60883e-05 4.7795e-22)
(0.000257135 -1.67074e-05 0)
(0.000490301 0.00190271 1.17333e-22)
(0.00506707 -0.00428426 -1.22959e-21)
(6.1413e-06 -1.13289e-05 0)
(-1.1467e-06 -2.02895e-05 -8.75628e-23)
(-0.00349591 0.000721226 0)
(2.30073e-05 8.00979e-05 -5.43456e-22)
(3.48487e-05 1.66822e-05 1.8825e-22)
(7.23507e-06 -4.05072e-06 -2.92926e-22)
(1.71132e-07 8.45662e-05 0)
(2.4457e-05 -2.59769e-05 -7.54021e-23)
(0.00319164 1.62305e-05 0)
(-2.50318e-06 0.000227041 3.75346e-25)
(1.97929e-05 1.7996e-05 -1.90089e-22)
(2.78946e-06 -5.4557e-05 3.56983e-22)
(-0.00083759 -4.39177e-05 0)
(-0.00148414 -0.00117616 5.18793e-22)
(2.92144e-05 -5.41679e-06 -2.85225e-22)
(1.26413e-05 -1.60666e-05 0)
(2.48896e-05 3.1288e-05 0)
(2.79742e-05 -0.000348711 -8.9248e-22)
(0.000113569 6.79055e-05 -2.39795e-22)
(4.47854e-05 -6.96766e-06 -2.81775e-22)
(0.000536107 0.000690554 0)
(0.00212272 -8.97317e-05 3.65901e-22)
(0.002894 -0.0043892 7.76773e-22)
(9.75499e-06 2.08815e-05 1.83528e-24)
(6.16702e-06 -1.10008e-05 5.72157e-26)
(7.58437e-06 2.40765e-05 -1.27769e-22)
(3.21097e-05 -0.00010438 4.70247e-22)
(6.95611e-05 2.56381e-05 -3.59545e-22)
(1.8848e-06 4.72223e-05 6.63792e-23)
(-0.00458334 -2.16877e-05 -3.74533e-22)
(0.00108317 -0.000927928 -2.11124e-22)
(4.22008e-05 -1.34893e-05 0)
(9.81173e-07 -3.55604e-05 0)
(2.45164e-05 -1.5777e-05 0)
(-0.00229369 0.00392501 1.0734e-21)
(0.00256268 -0.000506429 -1.55236e-21)
(1.52282e-06 -4.14111e-05 -8.75251e-23)
(-2.54387e-06 8.36942e-05 3.03e-22)
(-0.000679536 0.00104573 2.47563e-22)
(3.54716e-05 -1.95317e-05 -4.48013e-22)
(5.09325e-05 3.73199e-06 -8.56005e-23)
(-4.29861e-05 0.000334449 -1.2208e-23)
(1.89875e-05 1.79031e-05 0)
(-8.95876e-05 0.000333469 3.1921e-22)
(0.000169548 1.32738e-05 5.37508e-23)
(0.000126144 -1.82526e-05 -3.83452e-24)
(1.85375e-06 -3.56965e-05 1.30345e-26)
(4.26811e-05 -1.78043e-05 3.50422e-22)
(0.00110429 -0.000359489 -3.13007e-22)
(-1.49627e-05 0.000200495 0)
(1.96484e-05 6.49382e-05 -3.19163e-23)
(0.00090816 0.00110999 0)
(1.062e-05 3.23379e-05 2.65541e-22)
(0.00104384 -0.000394174 3.31223e-23)
(9.15163e-05 0.00020924 0)
(-8.12569e-05 -0.000104391 -1.44337e-22)
(3.05e-05 -1.05194e-05 -1.57599e-22)
(1.89552e-06 -4.35893e-05 -3.21336e-22)
(0.0084801 8.61664e-05 -2.79618e-22)
(5.92043e-06 -7.8628e-06 0)
(0.000143606 9.92847e-05 1.99779e-22)
(0.00145081 -0.000832342 3.9903e-23)
(9.65162e-05 4.47008e-05 7.76516e-23)
(2.21991e-05 1.87607e-05 -2.25939e-22)
(-4.6902e-05 0.000137379 3.45855e-22)
(-0.00139908 0.000180655 0)
(1.92601e-05 -0.000210186 9.86369e-22)
(-0.00288227 -2.27973e-05 0)
(8.18395e-05 2.60666e-05 0)
(-0.00170854 0.00219556 4.2861e-22)
(-0.00013936 -9.58528e-05 2.99791e-22)
(0.000122345 -1.72282e-05 -1.72549e-22)
(5.90465e-06 -7.46289e-06 -6.45355e-23)
(-0.000257511 -0.00119953 0)
(4.13726e-05 -1.80847e-05 1.91803e-22)
(-1.16596e-06 8.47043e-05 1.60831e-22)
(1.63456e-05 -1.22017e-05 0)
(1.48059e-05 -1.84242e-05 -9.49422e-23)
(0.0018025 2.77903e-05 0)
(-0.000163963 -1.11568e-05 -7.317e-22)
(3.95619e-05 -0.00205944 -2.79029e-22)
(0.00015385 0.000103185 0)
(2.60002e-05 0.000368993 -1.27329e-22)
(1.35875e-05 5.20584e-05 -2.36463e-22)
(4.46734e-05 -4.46559e-06 0)
(8.34893e-06 -8.94924e-06 -4.51615e-22)
(1.34043e-05 6.80564e-05 1.97407e-22)
(0.000308626 0.00288509 -5.90599e-22)
(0.000545442 0.000539195 -2.17941e-22)
(-0.000437974 0.00162951 0)
(9.05353e-07 1.63553e-05 -1.17283e-22)
(-0.00453981 -1.85269e-05 -3.22982e-22)
(4.87902e-05 0.000188956 1.44976e-23)
(0.00168388 -3.01054e-06 -1.16479e-22)
(-0.00345885 0.00145804 6.58372e-22)
(-0.000751603 0.000301134 9.3426e-23)
(-0.00339355 0.00158146 0)
(-0.00234518 -0.00201036 0)
(-0.00803724 -0.00012532 0)
(-0.00256187 7.5335e-05 3.28763e-22)
(-0.00203182 0.00414927 -1.28289e-21)
(0.00273335 4.92015e-05 1.8036e-22)
(8.09559e-06 3.86214e-06 0)
(0.00234536 0.0016657 5.50209e-23)
(-0.00519331 0.000882481 1.94668e-22)
(-0.00181846 -0.00080531 0)
(0.0041359 -0.00250521 -4.85572e-22)
(0.00456403 -0.00118508 6.97773e-24)
(-0.000176086 -0.000323064 -2.31932e-22)
(0.000412577 -0.000123315 5.05208e-22)
(0.00460376 -0.00171839 1.05221e-22)
(-2.27619e-05 7.33092e-05 1.14397e-22)
(8.49046e-05 0.000274736 -3.74348e-22)
(0.000354732 0.000679934 2.15689e-22)
(-2.99242e-06 -0.000116169 -2.6363e-22)
(9.14555e-06 -1.20558e-05 1.80232e-22)
(4.22437e-07 -3.53854e-05 1.56507e-23)
(8.22423e-06 -9.04326e-06 1.32943e-22)
(-0.00668695 0.000323467 -4.37391e-23)
(-2.7129e-05 -0.000221205 -8.06292e-23)
(5.9735e-05 4.22328e-05 3.98835e-22)
(1.04599e-06 -4.4721e-05 0)
(1.57069e-05 -2.18627e-05 -4.00244e-22)
(-7.03967e-07 -2.09927e-05 -1.39248e-22)
(-0.00119019 -0.00254206 1.66195e-22)
(1.78799e-05 5.10788e-06 -1.98925e-22)
(-0.00774639 0.000279897 -4.03544e-25)
(-0.00181106 -0.000370019 6.04648e-22)
(0.000229656 4.45246e-06 0)
(2.19509e-05 1.88701e-05 2.72124e-22)
(-0.00355641 0.0016586 -3.85072e-22)
(0.00188317 -0.000344966 -1.14629e-22)
(1.27574e-05 3.09882e-05 0)
(0.000126438 -1.75156e-05 0)
(-0.000239386 -0.00199407 0)
(0.0082081 0.000158693 -1.17409e-22)
(-0.004056 -0.000168425 0)
(1.12613e-06 7.37246e-06 -2.33018e-22)
(6.00362e-05 2.77016e-05 -6.44015e-25)
(0.000115419 -0.00170443 0)
(3.1732e-05 -2.70702e-05 0)
(3.61781e-05 0.000118013 -1.95746e-22)
(0.00495863 -0.000882226 3.7842e-22)
(3.70482e-05 -2.23043e-05 0)
(-0.00157137 0.000640459 -2.78758e-22)
(-0.00352631 0.000585217 1.1335e-21)
(0.00126181 0.0012023 3.39158e-22)
(2.24508e-05 4.48732e-05 2.38435e-22)
(1.4357e-05 -1.10149e-05 0)
(-0.000323251 0.000773369 3.14293e-23)
(0.00011179 3.28762e-05 3.65888e-22)
(0.00495438 0.00304856 0)
(4.47421e-05 -6.79908e-06 3.13998e-22)
(-0.00175858 -0.00119963 -1.07187e-21)
(5.88891e-05 0.00019178 5.32309e-22)
(0.000448139 0.000240743 0)
(0.00182662 6.01098e-05 -1.32432e-22)
(-0.000114775 -0.00123183 3.60746e-22)
(8.18571e-05 -0.000302516 1.71386e-22)
(-0.000395636 0.000190678 -1.12282e-22)
(5.53807e-07 -3.28085e-05 0)
(9.34532e-07 7.05113e-06 1.33136e-22)
(1.78505e-06 -3.60267e-05 5.29105e-23)
(-3.11755e-05 -0.000187868 -1.95706e-22)
(0.000328352 0.000692479 0)
(0.00286307 -0.00403088 0)
(0.000123743 -0.000307358 -5.02046e-23)