/*--------------------------------*- C++ -*----------------------------------*\
| =========                 |                                                 |
| \\      /  F ield         | OpenFOAM: The Open Source CFD Toolbox           |
|  \\    /   O peration     | Version:  v2012                                 |
|   \\  /    A nd           | Website:  www.openfoam.com                      |
|    \\/     M anipulation  |                                                 |
\*---------------------------------------------------------------------------*/
FoamFile
{
    version     2.0;
    format      ascii;
    class       volScalarField;
    location    "300";
    object      k;
}
// * * * * * * * * * * * * * * * * * * * * * * * * * * * * * * * * * * * * * //

dimensions      [0 2 -2 0 0 0 0];


internalField   nonuniform List<scalar> 
54593
(
0.000147989
0.000178277
0.000146479
0.0343673
0.0205728
0.0516556
0.0179383
0.000188102
0.000176331
0.000147445
0.000154751
0.00877978
0.000395098
0.00014765
0.00017212
0.000155501
0.000188154
0.000166234
0.000147433
0.000157908
0.000146477
0.00015718
0.000147426
0.00823135
0.000144737
0.000212171
0.000147992
0.000172913
0.0742973
0.000147448
0.000212063
0.000190754
0.000147037
0.0349062
0.000163419
0.0001492
0.000170803
0.00017815
0.000150961
0.000157222
0.000280224
0.000779352
0.000146112
0.000148036
0.000191336
0.000151017
0.000193999
0.000169784
0.000145001
0.000173966
0.000147041
0.000145145
0.000154184
0.000193052
0.000199626
0.000148471
0.0394315
0.00249623
0.000196901
0.000167321
0.000146129
0.000150953
0.000147662
0.0295458
0.000147795
0.000155237
0.0745786
0.000187716
0.0286738
0.0283774
0.000145072
0.0001633
0.00014777
0.0427824
0.000153278
0.000159874
0.00016653
0.000248677
0.0401997
0.000284932
0.000146554
0.0416323
0.000148033
0.0613414
0.000152228
0.0474689
0.0217795
0.000189922
0.000173225
0.000148312
0.0027058
0.000160187
0.000202341
0.000203542
0.00016551
0.0781016
0.0339305
0.000222246
0.000148663
0.000174184
0.000149491
0.0475329
0.000150231
0.00014782
0.000190119
0.000165911
0.000169034
0.000189304
0.000159617
0.000169275
0.0520894
0.000147748
0.000148337
0.000213249
0.000147652
0.00542503
0.0296184
0.0275193
0.0374752
0.000201344
0.0289521
0.000149594
0.0212502
0.00016926
0.000146777
0.000214963
0.000150468
0.000146773
0.0184972
0.0778579
0.000149771
0.000149044
0.000160739
0.000149155
0.000160355
0.000680222
0.000146693
0.0352537
0.000147813
0.000148216
0.0148213
0.000169083
0.000160329
0.000641298
0.000164503
0.000187473
0.0301634
0.000170523
0.0415299
0.000150355
0.000168263
0.000149242
0.000204243
0.000203066
0.00014794
0.0748339
0.000154571
0.073762
0.000172068
0.000148648
0.000280689
0.000153086
0.0142734
0.0760125
0.000172496
0.000149587
0.000146655
0.000146095
0.000455054
0.00014988
0.000215858
0.000598552
0.000173495
0.000149625
0.000176287
0.000146955
0.058082
0.000152429
0.000150964
0.000263411
0.0427447
0.000143977
0.072377
0.000149579
0.000149627
0.00565314
0.000150003
0.000153037
0.00014768
0.000463306
0.000151003
0.0363608
0.00477314
0.000147752
0.0149353
0.0306826
0.000147978
0.000154048
0.000213299
0.00419742
0.000161176
0.000214075
0.000187435
0.000150145
0.000150044
0.000150013
0.000467164
0.000152015
0.000150986
0.000146393
0.000148235
0.000147646
0.000143946
0.000160413
0.000165253
0.000215112
0.0433118
0.0370666
0.00853884
0.000147967
0.000157103
0.0236663
0.00161927
0.000152047
0.000185252
0.000166066
0.000149794
0.000166223
0.000146561
0.000171501
0.000150412
0.000211557
0.00634255
0.000149591
0.000149179
0.0306091
0.000215538
0.000149145
0.000184874
0.000149119
0.000152017
0.000160723
0.0624604
0.000198245
0.000151953
0.000154488
0.0564051
0.000227769
0.000145952
0.000295783
0.000198061
0.0501629
0.0614725
0.000147253
0.00015308
0.000148653
0.0170779
0.000151414
0.000217193
0.00015712
0.000169887
0.0480922
0.000149058
0.00503264
0.000165244
0.000146822
0.0165664
0.000145965
0.000156011
0.000149566
0.0460268
0.000446575
0.000159611
0.000147975
0.00015441
0.000147821
0.0001511
0.0594671
0.000146453
0.000193451
0.000151714
0.000163213
0.00015636
0.0179323
0.056269
0.000242455
0.000157253
0.000153477
0.000164669
0.00161135
0.0520347
0.0402465
0.000147282
0.000148215
0.000184256
0.000149758
0.0464895
0.000476811
0.000147635
0.00021374
0.000248819
0.000151081
0.000148248
0.000149846
0.000147906
0.00014839
0.000174547
0.0163749
0.000150281
0.000147925
0.061004
0.000167425
0.0164286
0.000149135
0.00026133
0.0202491
0.000187555
0.000436489
0.000221229
0.000149434
0.000181922
0.000146005
0.000241478
0.000172534
0.0437327
0.000171757
0.000182279
0.000146719
0.0453128
0.000169878
0.000148405
0.000159192
0.000147804
0.00015314
0.000149892
0.000606038
0.000156919
0.017143
0.000242671
0.000158042
0.000167287
0.000154464
0.0522369
0.000151494
0.000148395
0.000185691
0.000173906
0.000212478
0.000190294
0.0523311
0.00600028
0.000148232
0.000238941
0.000196195
0.000148274
0.000146166
0.000158067
0.000148256
0.000148383
0.000148017
0.000213349
0.000157313
0.000151798
0.0179359
0.000174306
0.000149009
0.000148256
0.00328074
0.000166546
0.000147728
0.000154852
0.000147915
0.000145991
0.000149481
0.000153667
0.000689893
0.000147695
0.00480659
0.000159503
0.0470038
0.0784007
0.000161286
0.000183016
0.000229567
0.000187049
0.000519763
0.00773803
0.000147799
0.0604895
0.000182379
0.000178675
0.00019692
0.000156674
0.000146178
0.0150659
0.0144152
0.00429302
0.000176588
0.000175443
0.000181971
0.000152653
0.000177994
0.0327449
0.00020274
0.000238718
0.000203647
0.000146601
0.000185602
0.000147196
0.000224933
0.000235659
0.000147756
0.000148237
0.000176157
0.000147678
0.0721616
0.000169851
0.000148057
0.000148699
0.000172246
0.000166637
0.0202502
0.000172173
0.000191119
0.0216774
0.013127
0.0597876
0.000170616
0.00576316
0.00016392
0.078847
0.000163817
0.000254155
0.000174199
0.000181511
0.000162708
0.000147967
0.0408585
0.000176644
0.000178076
0.0145455
0.000149629
0.000146738
0.000148332
0.0178477
0.000183781
0.000147598
0.000148677
0.000203291
0.000730018
0.000438067
0.000244954
0.000174858
0.000167438
0.0337163
0.000592533
0.00016452
0.000148424
0.00015115
0.000204062
0.000147612
0.000145942
0.000424328
0.000148799
0.000146238
0.000182152
0.000213133
0.000148845
0.000170024
0.000820341
0.0179121
0.00278098
0.000160647
0.000145288
0.0147904
0.00014921
0.000149841
0.0349503
0.0177765
0.000148854
0.000176651
0.000148047
0.000181412
0.000181032
0.000148057
0.00141978
0.000240195
0.000239904
0.000144721
0.001158
0.000447893
0.000149628
0.000147399
0.000157694
0.0061767
0.000149496
0.000165877
0.000152033
0.000234143
0.000148417
0.00026656
0.0214237
0.000233731
0.000183784
0.000147037
0.000165829
0.000148658
0.000166419
0.000163847
0.000146758
0.000148396
0.0001954
0.0217341
0.00014868
0.000158007
0.0419326
0.000354911
0.000147134
0.057612
0.000147794
0.000190814
0.00015534
0.000149466
0.000149008
0.000147918
0.000181837
0.0583122
0.0576806
0.00533475
0.000145069
0.000534826
0.00015257
0.000169035
0.0001479
0.00014674
0.000146638
0.02733
0.000148045
0.000158154
0.000169157
0.000147265
0.000151864
0.00285056
0.0715551
0.000150029
0.0180357
0.0195086
0.00014673
0.0172762
0.000146199
0.0660691
0.000163238
0.000211666
0.00112037
0.000194915
0.00019364
0.000267703
0.00677615
0.000242669
0.0333754
0.000148369
0.00014959
0.000175189
0.000169825
0.00403758
0.000149424
0.0783729
0.000148897
0.000154898
0.000196224
0.000147131
0.000159013
0.000182831
0.000153508
0.000413398
0.0400719
0.000229669
0.000299919
0.0529258
0.000654153
0.000146864
0.000146001
0.00015825
0.000147021
0.000152101
0.000148396
0.000202198
0.000151508
0.000229674
0.000161295
0.000162709
0.0229375
0.000170742
0.000179772
0.000149611
0.0540956
0.0451164
0.000147298
0.000149672
0.000274956
0.016902
0.00015464
0.000148676
0.0715059
0.0381749
0.000230591
0.017942
0.000152034
0.000156847
0.000165971
0.000223586
0.000148405
0.000149704
0.000163069
0.000190392
0.000163157
0.000151861
0.000236086
0.0464002
0.000149625
0.000145972
0.018251
0.000200703
0.000190262
0.0381279
0.000484098
0.000223619
0.0782376
0.0742865
0.00019051
0.000257389
0.000147797
0.000148764
0.000177602
0.000147318
0.000185941
0.000176329
0.00693043
0.000151452
0.0745656
0.000210909
0.000147468
0.000211115
0.000146229
0.000151769
0.000554979
0.00019078
0.0775306
0.000160444
0.0609052
0.00014688
0.00017814
0.0766618
0.0559475
0.000147796
0.000143945
0.047509
0.000159475
0.000149533
0.000148011
0.000148703
0.00014732
0.00697188
0.000168971
0.000147658
0.000148474
0.00462846
0.000201338
0.000148748
0.000146057
0.000147912
0.000169968
0.000161469
0.000152609
0.00019302
0.0126454
0.0454278
0.000150963
0.00014779
0.000147777
0.000156378
0.000163574
0.000149595
0.0451139
0.0590371
0.000152881
0.00014825
0.000147307
0.000224176
0.0451347
0.000146091
0.000148603
0.046067
0.00015042
0.000154769
0.000190864
0.000147639
0.000187229
0.00296652
0.00017056
0.000148234
0.000152089
0.0277895
0.000166798
0.000148402
0.050129
0.000147475
0.0293135
0.00017384
0.000159026
0.000149543
0.000146418
0.0195783
0.000147802
0.000166392
0.0555143
0.00016206
0.000148127
0.000163605
0.0142374
0.000162886
0.0157081
0.000160878
0.0842302
0.00532417
0.00698049
0.000147788
0.000296019
0.000151903
0.000148705
0.000146367
0.000146216
0.00639099
0.00292055
0.0758606
0.000167221
0.000217099
0.000147531
0.000154242
0.000148086
0.000147963
0.0390146
0.000410803
0.000266141
0.000149838
0.0475274
0.000166432
0.0703539
0.000231833
0.0688939
0.000231809
0.000218656
0.0163484
0.0144373
0.000217196
0.0224703
0.000147699
0.0441787
0.0485054
0.000203027
0.0605514
0.0579864
0.0875584
0.000176923
0.0592245
0.000159109
0.000176378
0.000636204
0.000155564
0.000148181
0.000148251
0.000148095
0.0149162
0.000190462
0.000156681
0.000146613
0.00014631
0.000148093
0.00152003
0.000146612
0.0184824
0.000201764
0.00355102
0.000148074
0.000233554
0.0300264
0.000147068
0.00713523
0.0469677
0.0280037
0.0222881
0.000149671
0.000157755
0.000198625
0.000149109
0.000169257
0.0370271
0.000151839
0.0678209
0.0414933
0.000217671
0.000147866
0.00014621
0.00161066
0.000164485
0.000907654
0.000152689
0.000204559
0.000166814
0.000181634
0.0683414
0.00483676
0.00016848
0.000193961
0.000148249
0.000149701
0.000148234
0.000187926
0.000647749
0.0419206
0.000169835
0.000171925
0.0168815
0.000199664
0.000164059
0.000152118
0.000259901
0.000146508
0.00015014
0.000149102
0.0259444
0.000151043
0.000147516
0.000149306
0.000146335
0.000198027
0.000148969
0.000148021
0.000148194
0.0826888
0.000147036
0.000149788
0.0461389
0.0001473
0.000158803
0.013807
0.00055808
0.000146188
0.000277779
0.0538719
0.0761282
0.000146548
0.0443898
0.00014655
0.00019022
0.000145988
0.000337856
0.00221275
0.000195233
0.000147857
0.00643761
0.000154519
0.000146663
0.000145997
0.000156908
0.0115961
0.000153653
0.000147933
0.0699938
0.000151537
0.000160584
0.000231465
0.000146492
0.000147943
0.000224526
0.0179536
0.000143384
0.000148088
0.0247965
0.0182605
0.000205674
0.000143332
0.0157718
0.0663089
0.013975
0.000146281
0.000184555
0.000147123
0.000143978
0.000157943
0.000191613
0.0525438
0.000143946
0.000151085
0.000148406
0.000146337
0.0714169
0.0131145
0.000287378
0.00016568
0.000250558
0.000146612
0.0486932
0.00458107
0.0173851
0.00015372
0.0218533
0.000148712
0.000148259
0.000156161
0.000149777
0.000166215
0.00014723
0.0129196
0.0520266
0.000575161
0.000171948
0.000151935
0.000212691
0.000193833
0.00019821
0.000144951
0.0191763
0.0705689
0.000147772
0.000229757
0.000148091
0.000161071
0.0266804
0.000183419
0.000149626
0.0175891
0.000148423
0.0183737
0.00018036
0.000212274
0.000171009
0.000164024
0.00019038
0.000171198
0.000146096
0.000211327
0.000174182
0.000264973
0.000167475
0.0401993
0.050744
0.000148079
0.000147567
0.000147057
0.000147941
0.000180128
0.000148374
0.000146187
0.0243728
0.00018808
0.000165239
0.0144457
0.000155766
0.0103611
0.000146584
0.000148028
0.000222694
0.000148348
0.000160786
0.000172359
0.000210003
0.000209435
0.0173821
0.000173263
0.000211046
0.000591245
0.000171127
0.0297759
0.000150282
0.00762978
0.000190304
0.000153701
0.00017683
0.000172068
0.000314546
0.0158373
0.0607411
0.000149593
0.000155946
0.0170463
0.000147053
0.000163948
0.000181415
0.00021089
0.0593695
0.000147837
0.00019242
0.000581971
0.000148223
0.000148376
0.000143426
0.0771389
0.00016736
0.00015104
0.00420743
0.0207818
0.000147433
0.0767385
0.00614364
0.00020182
0.000217411
0.000197107
0.000181677
0.000183589
0.0126851
0.000182427
0.000147014
0.0151092
0.000148425
0.000147286
0.000146961
0.0842008
0.000149169
0.000197619
0.000151679
0.0228058
0.000173687
0.000147516
0.000153985
0.0757126
0.000145956
0.00014914
0.000147182
0.000180251
0.000149303
0.000302319
0.000162439
0.0001484
0.000177098
0.000197011
0.0203908
0.000150072
0.000211217
0.054262
0.0423413
0.000147284
0.000158283
0.000148415
0.000147852
0.000197013
0.000158299
0.000147408
0.000152063
0.000167075
0.000147609
0.0511081
0.000153726
0.000172836
0.000148167
0.000147858
0.000153824
0.000146941
0.000160248
0.000209899
0.000149837
0.000148082
0.000147779
0.00465369
0.000167919
0.0263593
0.000153404
0.0539538
0.0859509
0.000223253
0.000161125
0.000181041
0.000148404
0.0487501
0.0211544
0.0470363
0.041004
0.000188009
0.000173769
0.000202907
0.000235938
0.000167818
0.000152039
0.00014701
0.000181896
0.0161012
0.000195012
0.000169469
0.000148231
0.000181416
0.000148256
0.0488187
0.000145257
0.000201001
0.000152074
0.00028931
0.000147989
0.000325514
0.000157713
0.000220474
0.000148045
0.000152117
0.000794058
0.072814
0.000161753
0.000173241
0.000147727
0.000149665
0.0209074
0.0771344
0.0550656
0.000150024
0.000210597
0.000161386
0.000169613
0.000148053
0.000213915
0.00014838
0.000147717
0.000151746
0.000148402
0.031522
0.000148374
0.000147832
0.000149746
0.000151778
0.000149841
0.000156624
0.0372248
0.000156124
0.020569
0.00708572
0.000147835
0.000180615
0.000146699
0.000151286
0.000148054
0.000628013
0.000524565
0.000148518
0.000148219
0.000158345
0.0579262
0.000381653
0.000148086
0.000145886
0.000173388
0.000147075
0.0172329
0.00164495
0.000148397
0.000158066
0.000212326
0.000181334
0.000149173
0.000193169
0.0490092
0.000148404
0.0159427
0.000149581
0.0509515
0.0139544
0.000146157
0.000174373
0.0267503
0.064375
0.000146316
0.000187846
0.000148081
0.000146383
0.0464247
0.0001526
0.000153478
0.000148245
0.0070948
0.000196588
0.000168628
0.000225017
0.000160729
0.000150385
0.000189608
0.0299375
0.000147591
0.0417195
0.00530119
0.000162809
0.000150221
0.000154593
0.00014826
0.000186561
0.000147701
0.000149594
0.000168435
0.0418897
0.000161024
0.000149876
0.000166188
0.0531425
0.000143371
0.0155224
0.000151945
0.000240424
0.000189663
0.0197285
0.000148958
0.0574854
0.000146359
0.000143372
0.000148156
0.000157712
0.000147528
0.0368982
0.000148424
0.00014824
0.00460892
0.000148022
0.000147325
0.0195381
0.000149432
0.000147308
0.000147509
0.000319071
0.0612395
0.0150809
0.080696
0.000642718
0.029211
0.000147591
0.000153742
0.000399736
0.000169713
0.000224208
0.00974935
0.000155588
0.000240288
0.040865
0.000147321
0.0681462
0.000283457
0.000147323
0.000157064
0.000149378
0.000147995
0.000149793
0.000241657
0.0544525
0.00387703
0.000201849
0.000147539
0.000171738
0.000173309
0.000147255
0.0767322
0.00014647
0.000147076
0.000179992
0.000147052
0.000180519
0.000143978
0.000179829
0.00921068
0.000190397
0.000158162
0.000159236
0.0428773
0.0504922
0.000166337
0.000245471
0.000160633
0.000161228
0.0157346
0.000180213
0.0001472
0.000310395
0.0583531
0.000143418
0.0001517
0.000168042
0.000180013
0.000182755
0.000190915
0.000148019
0.000336614
0.000172596
0.000148641
0.000152342
0.000149947
0.000147061
0.00014866
0.000187732
0.0194852
0.000151371
0.000322168
0.000154712
0.000148304
0.0494524
0.000163045
0.0486459
0.000201353
0.017847
0.000167453
0.0263866
0.0204787
0.000151747
0.00017341
0.0299966
0.0522426
0.000257393
0.000185981
0.0163344
0.00019069
0.032038
0.00014826
0.0557684
0.000147592
0.000147969
0.000166042
0.000190904
0.000148224
0.000171537
0.000207161
0.000152348
0.000148634
0.00686608
0.000147569
0.0255595
0.00015969
0.000149315
0.0596793
0.000157731
0.000164856
0.0436737
0.0571992
0.000181149
0.0040858
0.000284698
0.000147574
0.000149749
0.0874337
0.000164548
0.0776988
0.000146489
0.000164269
0.000147094
0.000147716
0.000392685
0.000180603
0.000148048
0.0173105
0.000146282
0.000189297
0.000157959
0.0308781
0.0520716
0.000148747
0.000157689
0.000151582
0.000148268
0.0200635
0.000147696
0.000166116
0.0149909
0.000147292
0.000147216
0.00285459
0.0245274
0.000151337
0.00016858
0.00014807
0.000148802
0.000148621
0.0203821
0.00015732
0.000319238
0.000169367
0.000224314
0.000162123
0.000146462
0.000190388
0.000190242
0.000149623
0.0109905
0.00220597
0.00243615
0.000153921
0.000148101
0.0840403
0.0466894
0.020095
0.000149772
0.000147849
0.00531178
0.00014954
0.0449648
0.000146918
0.000151062
0.000157221
0.000147775
0.000147163
0.000148986
0.000151436
0.0147201
0.000148154
0.0001584
0.000198301
0.000187581
0.000148235
0.000149366
0.0505388
0.000188812
0.0518921
0.000155798
0.0749402
0.000147047
0.000147862
0.000159093
0.000533973
0.000467442
0.000164949
0.0380012
0.000195347
0.000174527
0.000157256
0.000160135
0.000148643
0.000214587
0.000168087
0.0821782
0.000163528
0.000160194
0.00645625
0.000184992
0.000148473
0.000162913
0.000193613
0.000149126
0.000182829
0.000322953
0.000147189
0.00018121
0.000388127
0.000146383
0.000148002
0.000147721
0.00014701
0.0493554
0.000174368
0.000172389
0.000189715
0.000146244
0.000244646
0.000146898
0.000151803
0.000146909
0.000170705
0.00026408
0.0126181
0.000173042
0.000146456
0.000167816
0.000172055
0.000148807
0.00697167
0.000149154
0.000630342
0.000150969
0.0141188
0.000267166
0.000177793
0.00016365
0.000148616
0.000149532
0.000156772
0.000161834
0.000195304
0.000205767
0.000147294
0.0334303
0.0439065
0.000225862
0.000161097
0.000160419
0.01494
0.000148853
0.0213057
0.000147141
0.000148244
0.000167043
0.00014959
0.0166228
0.000148297
0.0172876
0.000146032
0.000148144
0.000145991
0.000151484
0.000214234
0.000147065
0.000168759
0.000151574
0.0187141
0.000148035
0.000229803
0.000155125
0.000164866
0.000162068
0.000149967
0.00033307
0.000168297
0.000149762
0.000184623
0.000160118
0.000184931
0.000166564
0.00864749
0.000161501
0.0744605
0.00015507
0.000149192
0.000155564
0.000154665
0.000167341
0.0574937
0.00016139
0.000149626
0.000149592
0.000147618
0.000204646
0.0857369
0.000149625
0.00548955
0.000181786
0.075283
0.013647
0.0105128
0.00014835
0.000165903
0.0264731
0.000163479
0.000490086
0.0121807
0.000187693
0.000149124
0.000161408
0.000149872
0.000148454
0.000170872
0.000147638
0.0504409
0.0534618
0.000192942
0.000148793
0.000198051
0.000149864
0.0757997
0.00858863
0.0276466
0.000158053
0.000149567
0.0181467
0.000180009
0.0838636
0.000169288
0.000417869
0.0179874
0.016739
0.000148636
0.000147451
0.000585737
0.000153397
0.000148482
0.0194834
0.000149761
0.000188539
0.000146363
0.047093
0.000147196
0.000148235
0.000170502
0.000147205
0.00927159
0.000158309
0.0231924
0.000147583
0.000147911
0.000147626
0.00015806
0.000191605
0.000148825
0.000147697
0.000147331
0.000210822
0.000217607
0.000159269
0.00014826
0.000162836
0.000181517
0.000208036
0.000172571
0.000148476
0.000146982
0.000151903
0.000147692
0.000154001
0.00014956
0.00016708
0.000291081
0.000170841
0.000192837
0.0382757
0.000148497
0.00023807
0.082348
0.000148082
0.00014989
0.000146931
0.000148038
0.0869334
0.000178484
0.0171699
0.000305553
0.000169906
0.00019625
0.000166496
0.000165387
0.000160314
0.000148928
0.000146039
0.000156515
0.000169065
0.000147831
0.0179853
0.00566887
0.000559639
0.000156538
0.000151617
0.000163429
0.0498906
0.0456956
0.000149882
0.000146245
0.0573872
0.000153562
0.0140272
0.0241344
0.00899909
0.0300917
0.0305142
0.000146344
0.0677451
0.0424091
0.0111622
0.000147959
0.000150918
0.000206442
0.000331727
0.000205381
0.0203719
0.000167765
0.000180999
0.000143886
0.000147691
0.0845762
0.000157585
0.000151299
0.0532903
0.000165001
0.000347334
0.00018525
0.000147868
0.000146457
0.000153409
0.000190959
0.0181724
0.0229739
0.0674285
0.000146854
0.000157768
0.000201308
0.000153938
0.000154463
0.000149968
0.0185677
0.000171579
0.000144297
0.0751636
0.000147736
0.000158851
0.000148038
0.000178791
0.000209726
0.0448365
0.000147756
0.000183097
0.00275384
0.000163206
0.000149153
0.000173559
0.000149116
0.000146423
0.000153867
0.000151579
0.0123271
0.000166272
0.00015012
0.0199347
0.000148585
0.0253416
0.000144338
0.000148936
0.000200773
0.000160371
0.000154624
0.000238696
0.000147672
0.0485447
0.000146188
0.000227264
0.000211257
0.0532426
0.00686989
0.000150853
0.000165216
0.000144946
0.000168683
0.000427452
0.000153514
0.000147877
0.000165434
0.0758737
0.00561603
0.0409096
0.000148961
0.0001973
0.0488046
0.000149155
0.000205559
0.0198648
0.000485033
0.000167179
0.000157799
0.000166071
0.000149141
0.000153831
0.0148145
0.000145896
0.000146462
0.000147773
0.000179987
0.000562762
0.000196179
0.000149749
0.000168998
0.000145977
0.000147094
0.000156303
0.000178095
0.000147653
0.00855114
0.000223229
0.000168869
0.000147633
0.04409
0.000151825
0.000147032
0.000148901
0.000155393
0.000191787
0.0141856
0.000168701
0.000183218
0.000151208
0.000148973
0.0540016
0.000164652
0.000169961
0.0638562
0.000244244
0.0290712
0.000177903
0.000153855
0.000168183
0.000162405
0.000160622
0.0100719
0.000146776
0.000147189
0.0516809
0.0595776
0.0203352
0.000148987
0.000415223
0.000149842
0.000151156
0.000171352
0.0160506
0.000152973
0.00229948
0.000157465
0.00019053
0.000158201
0.000153382
0.000188311
0.000148234
0.000148021
0.000171063
0.000219549
0.00016234
0.000254438
0.0148314
0.000273783
0.000155818
0.00014795
0.0104045
0.000147641
0.0159358
0.000152953
0.000156084
0.0102976
0.000162318
0.000200096
0.045961
0.000277065
0.000151827
0.000147404
0.0157296
0.000165887
0.0382183
0.0506693
0.0419555
0.0228179
0.000213703
0.000241363
0.000148836
0.000161362
0.0525877
0.000174377
0.000151111
0.000145317
0.000512559
0.000154683
0.000153681
0.000214357
0.00015803
0.000147171
0.077788
0.000168584
0.000153456
0.0431177
0.000210815
0.000148081
0.000151252
0.000161195
0.000152201
0.0177947
0.0830986
0.00641327
0.00014706
0.000148549
0.000179566
0.000215572
0.000166461
0.000192389
0.00016732
0.000844668
0.00014862
0.000206131
0.000147194
0.000186979
0.000149877
0.0375974
0.000201974
0.0114652
0.000200031
0.00309035
0.000344311
0.000201319
0.000149597
0.0404941
0.000192173
0.00014857
0.0219474
0.000342302
0.000147815
0.000171446
0.000149626
0.000151502
0.040895
0.000148121
0.000216193
0.000147594
0.000165575
0.000169795
0.0488377
0.000143858
0.000333241
0.000195733
0.0552073
0.000148455
0.000151243
0.000149861
0.000183388
0.000148792
0.00015196
0.000150108
0.000148067
0.000147556
0.000173677
0.000155486
0.0863318
0.000208277
0.00023154
0.000148514
0.0450638
0.000146172
0.000148409
0.000148429
0.00014904
0.000189686
0.000149642
0.000155761
0.000148201
0.000149709
0.000161313
0.028384
0.000148429
0.000151884
0.000180401
0.00018337
0.0729887
0.0866461
0.000209347
0.000147837
0.000165212
0.000165346
0.00014876
0.000189319
0.000149874
0.00023648
0.000147568
0.0672987
0.000196995
0.0180263
0.000155432
0.000147784
0.000152223
0.0691645
0.000239002
0.000145141
0.0403197
0.000149632
0.000172784
0.000146674
0.0550175
0.0416084
0.000148889
0.000148218
0.000157074
0.000210856
0.000151256
0.000160954
0.0387625
0.0156528
0.000151305
0.061049
0.00015276
0.00015312
0.00018882
0.000350562
0.000190724
0.000190059
0.0150073
0.000148345
0.00573127
0.0171053
0.0816216
0.0455754
0.000161118
0.0118539
0.053286
0.0523978
0.000276208
0.0218004
0.0147036
0.000190144
0.000144635
0.0441523
0.0001643
0.000151126
0.000170689
0.0322744
0.000178941
0.000147455
0.00015846
0.000200349
0.0384488
0.000155433
0.00016596
0.00014667
0.0119145
0.0300418
0.000219668
0.000168151
0.000143803
0.00393667
0.000146127
0.000511226
0.00015238
0.000148886
0.0409273
0.000147073
0.00014599
0.000152111
0.000149373
0.000167836
0.000152666
0.0102467
0.0216292
0.0487547
0.000147344
0.00021483
0.000152051
0.000180453
0.000162487
0.000150975
0.000149238
0.0176236
0.0119755
0.000149353
0.000157381
0.000149126
0.000147904
0.000286961
0.0175212
0.000213073
0.000396617
0.0108121
0.00019281
0.000148073
0.000148136
0.000147227
0.000171315
0.000176967
0.0757492
0.000569134
0.000146139
0.0754199
0.000199376
0.000161616
0.0230866
0.000180453
0.000326581
0.000144071
0.0255869
0.000148485
0.000144622
0.000148328
0.000145707
0.077787
0.000178078
0.0436013
0.000148349
0.000148074
0.0468467
0.00732454
0.00025304
0.000148813
0.076348
0.0445015
0.000179838
0.000187619
0.0176546
0.000152842
0.000152797
0.000158831
0.000148433
0.00015157
0.000160466
0.0475192
0.000149277
0.000147241
0.0283234
0.00016614
0.000158592
0.000152315
0.00018816
0.000249442
0.00014757
0.000181614
0.0523908
0.000145993
0.000146542
0.00016207
0.000151857
0.00014815
0.000270046
0.00019272
0.0391341
0.000188645
0.000152846
0.000160321
0.000148738
0.000353561
0.000163188
0.000145767
0.000155558
0.000149993
0.000264511
0.000149257
0.0117929
0.000147831
0.000147831
0.000213506
0.000148785
0.000194415
0.000249559
0.0227
0.000232916
0.0133226
0.000168086
0.0851738
0.000148173
0.000156783
0.0267667
0.000193027
0.000182111
0.000358454
0.00014903
0.000147248
0.000149947
0.000169366
0.000146555
0.000201858
0.000146264
0.050582
0.000148753
0.0141588
0.0434662
0.081394
0.000259822
0.000165988
0.000149677
0.000168027
0.000284036
0.000147407
0.000148407
0.0156586
0.0144682
0.000224133
0.000391735
0.000145819
0.0166303
0.033371
0.000152303
0.0537378
0.000148066
0.000144118
0.000151903
0.000163959
0.000151779
0.000160157
0.0339498
0.000203168
0.000176325
0.0510218
0.000147012
0.000243016
0.000148105
0.000149838
0.0142682
0.0564263
0.000278227
0.000146177
0.000229631
0.000278377
0.000184115
0.0147751
0.000149777
0.000153406
0.000149203
0.000145603
0.000163177
0.000148158
0.000164129
0.000149083
0.00822206
0.00601117
0.0543591
0.000165419
0.000188691
0.00958069
0.000146367
0.000149607
0.00163852
0.000149263
0.000154274
0.000145989
0.0140465
0.048315
0.000249644
0.000148397
0.0102698
0.0405163
0.000188653
0.000145717
0.000186005
0.000147141
0.000166853
0.0191263
0.026683
0.000146172
0.000165758
0.000146027
0.000152197
0.000155501
0.00014827
0.000149122
0.000274095
0.00592343
0.000149146
0.000146007
0.0258584
0.000147643
0.000148133
0.000147987
0.000312423
0.0266074
0.00016867
0.000153296
0.000149872
0.000221734
0.000148222
0.00802872
0.000167603
0.000572638
0.000148245
0.000147016
0.000149859
0.000181632
0.000147351
0.0300822
0.0143719
0.00014571
0.000157575
0.000146282
0.000161531
0.000262281
0.000169361
0.000173638
0.000182606
0.00015161
0.0243284
0.000225254
0.000144238
0.000147583
0.000160284
0.000152288
0.000148435
0.000160974
0.0184958
0.0275085
0.000147712
0.000146004
0.0171701
0.000200299
0.000160523
0.000146759
0.000154729
0.000303989
0.000252503
0.0260981
0.0448849
0.000149557
0.00018418
0.000149707
0.000167962
0.0001654
0.000160924
0.00884553
0.000163029
0.00753046
0.0001694
0.000244984
0.000146779
0.000146871
0.000151298
0.00014429
0.0311319
0.000215668
0.0208472
0.000149676
0.000176913
0.000178728
0.000148445
0.000200803
0.000152482
0.0216305
0.000147963
0.000222977
0.00323855
0.000152186
0.000205708
0.000148223
0.000238554
0.000171053
0.0213998
0.000151099
0.000161326
0.000144032
0.000156198
0.000157758
0.000145766
0.000235728
0.000147054
0.000149785
0.000355209
0.015105
0.000149407
0.00021659
0.0111939
0.0525781
0.000170537
0.0217175
0.000148343
0.0143319
0.000202127
0.000154569
0.0324211
0.0618579
0.00341044
0.000218366
0.0136003
0.000145559
0.000147978
0.000146367
0.000180828
0.000155347
0.000148281
0.000186375
0.00016751
0.0431742
0.000388689
0.000185319
0.000149145
0.00017599
0.0438491
0.0205415
0.000154538
0.0370205
0.000145689
0.000165019
0.0434267
0.000325904
0.00029316
0.000934862
0.00014867
0.0302531
0.000147949
0.0159813
0.000148422
0.00032963
0.0482622
0.000148275
0.000204507
0.000250816
0.000148757
0.000148922
0.000147404
0.000146261
0.0261498
0.0814534
0.0160493
0.000150084
0.00014759
0.0422352
0.000165965
0.000148087
0.00014739
0.00014737
0.000148766
0.0755531
0.00016602
0.000236832
0.000168795
0.000164998
0.000148463
0.000165286
0.00014745
0.048913
0.0001481
0.0257535
0.000220318
0.000148377
0.00859158
0.000147701
0.000147732
0.00743776
0.000167556
0.000228031
0.000149044
0.000148301
0.000149584
0.000148068
0.000166196
0.000148123
0.0490181
0.00015816
0.000146682
0.0772216
0.0388045
0.000187545
0.000202885
0.000146967
0.000335544
0.000166691
0.0107217
0.000167056
0.000148104
0.000152065
0.0217106
0.00016291
0.000460614
0.000213089
0.000148817
0.0536562
0.0317415
0.0302972
0.000148328
0.000149595
0.0736484
0.000147651
0.000158333
0.00014864
0.000148373
0.0001482
0.000593083
0.000157343
0.000146021
0.0517833
0.0127257
0.000156627
0.000160059
0.000145826
0.000149709
0.0454591
0.000536883
0.000197486
0.000147377
0.0180361
0.0409618
0.000156341
0.000147392
0.000183041
0.0137205
0.000146343
0.000166802
0.000151054
0.0697654
0.000148618
0.000148301
0.000162642
0.0714601
0.0749242
0.000191185
0.0548706
0.0775635
0.0372865
0.0147759
0.000160288
0.000156282
0.000147055
0.0454258
0.000148357
0.000213947
0.0001636
0.000147905
0.00014743
0.000187358
0.000149848
0.0136602
0.000188896
0.000162865
0.000191752
0.0173779
0.0263072
0.000146331
0.00306039
0.000156936
0.000154523
0.000164602
0.000151968
0.0516379
0.0161813
0.000181591
0.000182058
0.000149678
0.000147346
0.000230219
0.000187781
0.000165157
0.000161353
0.000148002
0.0488838
0.000147746
0.00014732
0.000155942
0.0491535
0.000224681
0.000179977
0.000256803
0.0155362
0.000148145
0.000197894
0.0170886
0.00014718
0.000157741
0.0356346
0.00014964
0.000147927
0.000155849
0.0530518
0.0831161
0.0177134
0.000180431
0.00014793
0.0511706
0.000148281
0.000183336
0.0001481
0.045898
0.00144136
0.000148251
0.000181408
0.000146596
0.000156501
0.000163362
0.0128321
0.0570704
0.000148181
0.0219475
0.0122358
0.000167346
0.000262246
0.0290132
0.000145838
0.000235681
0.000157921
0.000191185
0.0811233