/*--------------------------------*- C++ -*----------------------------------*\
| =========                 |                                                 |
| \\      /  F ield         | OpenFOAM: The Open Source CFD Toolbox           |
|  \\    /   O peration     | Version:  v2012                                 |
|   \\  /    A nd           | Website:  www.openfoam.com                      |
|    \\/     M anipulation  |                                                 |
\*---------------------------------------------------------------------------*/
FoamFile
{
    version     2.0;
    format      ascii;
    class       volScalarField;
    location    "300";
    object      k_0;
}
// * * * * * * * * * * * * * * * * * * * * * * * * * * * * * * * * * * * * * //

dimensions      [0 2 -2 0 0 0 0];


internalField   nonuniform List<scalar> 
54593
(
0.000147989
0.000178277
0.000146479
0.0343681
0.0205732
0.0516562
0.0179368
0.000188101
0.000176331
0.000147445
0.000154751
0.00877877
0.000395104
0.00014765
0.000172118
0.000155501
0.000188153
0.000166235
0.000147433
0.000157908
0.000146477
0.00015718
0.000147426
0.00823142
0.000144737
0.000212166
0.000147992
0.000172914
0.0742986
0.000147448
0.000212059
0.000190692
0.000147037
0.0349066
0.000163417
0.0001492
0.000170803
0.00017815
0.000150961
0.000157222
0.000280223
0.000699423
0.000146112
0.000148036
0.000191342
0.000151017
0.000194001
0.000169786
0.000145001
0.000173966
0.000147041
0.000145145
0.000154184
0.000193053
0.000199624
0.000148471
0.0394267
0.00254257
0.000196899
0.000167319
0.000146129
0.000150953
0.000147662
0.0295465
0.000147795
0.000155237
0.0745799
0.000187709
0.0286744
0.0283779
0.000145072
0.000163298
0.00014777
0.0427768
0.000153278
0.000159874
0.00016653
0.000248732
0.0402
0.000284955
0.000146554
0.0416332
0.000148033
0.0613483
0.000152228
0.0474638
0.0217789
0.00018992
0.000173199
0.000148312
0.00270581
0.000160187
0.00020234
0.000203542
0.00016551
0.0781026
0.033942
0.000222294
0.000148663
0.000174184
0.000149491
0.0475334
0.000150231
0.00014782
0.000190077
0.000165912
0.000169034
0.000189303
0.000159617
0.000169284
0.0520893
0.000147748
0.000148337
0.000213244
0.000147652
0.00542502
0.029619
0.02752
0.0374757
0.000201343
0.0289529
0.000149594
0.0212498
0.00016926
0.000146777
0.000214913
0.000150468
0.000146773
0.0184977
0.0778568
0.000149771
0.000149044
0.00016074
0.000149155
0.000160355
0.000680232
0.000146693
0.0352608
0.000147813
0.000148216
0.014821
0.000169089
0.000160329
0.00063713
0.000164503
0.000187454
0.0301622
0.000170525
0.0415332
0.000150356
0.000168262
0.000149242
0.00020424
0.000203067
0.00014794
0.0748359
0.000154571
0.0737641
0.000172079
0.000148648
0.000280599
0.000153086
0.0142732
0.0760139
0.000172496
0.000149588
0.000146655
0.000146095
0.000455054
0.00014988
0.000215854
0.00059855
0.000173489
0.000149625
0.000176286
0.000146955
0.0580818
0.000152429
0.000150964
0.000263411
0.0427446
0.000143977
0.0723781
0.000149579
0.000149627
0.00565308
0.000150003
0.000153037
0.00014768
0.000512583
0.000151003
0.036361
0.00477309
0.000147752
0.0149347
0.0306815
0.000147978
0.000154048
0.000213294
0.00419743
0.000161176
0.000214064
0.000187434
0.000150145
0.000150044
0.000150013
0.000467346
0.000152015
0.000150986
0.000146393
0.000148235
0.000147646
0.000143946
0.000160414
0.000165253
0.000215107
0.0433162
0.0370649
0.00853886
0.000147967
0.000157103
0.0233877
0.00148058
0.000152047
0.000185247
0.000166066
0.000149794
0.000166224
0.000146561
0.000171482
0.000150412
0.000211558
0.00634306
0.000149591
0.000149179
0.0306209
0.000215534
0.000149145
0.000184917
0.000149119
0.000152017
0.000160723
0.0624663
0.000198246
0.000151954
0.000154488
0.056406
0.000228401
0.000145952
0.000295479
0.000198063
0.0501621
0.0614797
0.000147253
0.00015308
0.000148653
0.0170779
0.000151414
0.000217175
0.000157119
0.000169885
0.048092
0.000149058
0.00503265
0.000165244
0.000146822
0.0165673
0.000145965
0.000156011
0.000149566
0.0460237
0.000447517
0.000159611
0.000147975
0.00015441
0.000147821
0.0001511
0.0594744
0.000146453
0.000193453
0.000151714
0.000163213
0.000156361
0.0179317
0.0562699
0.000242456
0.000157253
0.000153477
0.000164669
0.00161135
0.052034
0.0402474
0.000147282
0.000148215
0.000184256
0.000149758
0.0464933
0.000479661
0.000147636
0.000213737
0.0002438
0.000151081
0.000148248
0.000149846
0.000147906
0.000148391
0.000174547
0.0163752
0.000150281
0.000147925
0.0610113
0.000167426
0.0164291
0.000149135
0.000261331
0.0202501
0.000187466
0.000429184
0.000221223
0.000149434
0.000181922
0.000146005
0.000241412
0.000172535
0.0437415
0.000171757
0.000182269
0.000146719
0.0453128
0.000169879
0.000148405
0.000159192
0.000147804
0.00015314
0.000149892
0.000606038
0.00015692
0.0171438
0.000242669
0.000158043
0.000167286
0.000154464
0.0522379
0.000151494
0.000148395
0.000185692
0.000173906
0.000212475
0.000190287
0.0523364
0.00599999
0.000148232
0.000238918
0.000196194
0.000148274
0.000146166
0.000158067
0.000148256
0.000148383
0.000148017
0.000213344
0.000157313
0.000151798
0.0179364
0.000174305
0.000149009
0.000148256
0.00355391
0.000166546
0.000147728
0.000154852
0.000147915
0.000145991
0.000149481
0.000153667
0.00068988
0.000147695
0.00475516
0.000159503
0.0470038
0.0784022
0.000161282
0.00018309
0.000229097
0.000187048
0.00051975
0.00773768
0.000147799
0.0604957
0.000182379
0.000178644
0.000196918
0.000156674
0.000146178
0.0150651
0.0144159
0.00422381
0.000176588
0.000175448
0.000181971
0.000152653
0.000177995
0.0327453
0.000202742
0.000238689
0.000203711
0.000146601
0.000185519
0.000147196
0.000224942
0.000235662
0.000147756
0.000148237
0.000176151
0.000147678
0.0721629
0.000169851
0.000148057
0.0001487
0.000172246
0.000166638
0.0202489
0.000172173
0.000191117
0.0216763
0.0131274
0.0597902
0.000170616
0.00576341
0.00016392
0.0788457
0.000163818
0.000254157
0.000174199
0.000181511
0.000162708
0.000147967
0.0408678
0.000176645
0.000178077
0.014546
0.000149629
0.000146738
0.000148332
0.0178467
0.000183781
0.000147598
0.000148677
0.000203288
0.000730014
0.000443856
0.000245153
0.000174854
0.000167441
0.0337171
0.000592533
0.00016452
0.000148424
0.00015115
0.000204061
0.000147612
0.000145942
0.000424327
0.0001488
0.000146238
0.000182153
0.000213128
0.000148845
0.000170024
0.000740526
0.0179127
0.00278099
0.000160647
0.000145288
0.0147909
0.00014921
0.000149841
0.034949
0.0177777
0.000148854
0.000176651
0.000148047
0.000181407
0.000181032
0.000148057
0.00130588
0.000240128
0.000239901
0.000144721
0.001158
0.000447889
0.000149628
0.000147399
0.000157694
0.00617668
0.000149496
0.000165878
0.000152033
0.000234144
0.000148417
0.000266551
0.021423
0.000233736
0.000183785
0.000147037
0.000165827
0.000148658
0.000166422
0.000163848
0.000146758
0.000148396
0.0001954
0.021733
0.00014868
0.000158007
0.0419333
0.000354917
0.000147134
0.0576117
0.000147794
0.000190813
0.00015534
0.000149465
0.000149008
0.000147918
0.000181837
0.0583123
0.0576843
0.00533476
0.000145069
0.000543308
0.00015257
0.000169037
0.0001479
0.00014674
0.000146638
0.0273306
0.000148045
0.000158154
0.000169157
0.000147266
0.000151864
0.0028923
0.0715562
0.000150029
0.0180362
0.0195086
0.00014673
0.0172777
0.000146199
0.0660718
0.000163238
0.000211661
0.00112037
0.000194914
0.00019364
0.000267702
0.00677654
0.000242747
0.033376
0.000148369
0.00014959
0.000175194
0.000169825
0.0040376
0.000149424
0.0783717
0.000148897
0.000154898
0.000196222
0.000147131
0.000159013
0.000182866
0.000153508
0.000409448
0.0400726
0.0002297
0.000299919
0.0529265
0.000654153
0.000146864
0.000146001
0.00015825
0.000147021
0.000152101
0.000148396
0.000202195
0.000151508
0.000229674
0.000161295
0.000162709
0.0229382
0.000170742
0.000179772
0.000149611
0.0540949
0.0451157
0.000147298
0.000149672
0.000274957
0.0169027
0.00015464
0.000148676
0.0715068
0.0381746
0.000230559
0.0179423
0.000152034
0.000156847
0.00016597
0.000223578
0.000148405
0.000149704
0.000163069
0.000190391
0.000163157
0.000151861
0.000236092
0.0464029
0.000149625
0.000145972
0.0182514
0.0002007
0.000190261
0.0381349
0.000484097
0.000223612
0.0782379
0.0742875
0.000190509
0.000257391
0.000147797
0.000148764
0.000177602
0.000147318
0.000185942
0.000176334
0.00700216
0.000151452
0.0745667
0.000210908
0.000147468
0.000211115
0.000146229
0.000151769
0.000554976
0.000190776
0.0775294
0.000160443
0.0609067
0.00014688
0.00017814
0.0766625
0.0559551
0.000147796
0.000143945
0.0475087
0.000159475
0.000149533
0.000148011
0.000148703
0.00014732
0.00697237
0.000168969
0.000147658
0.000148474
0.0046284
0.000201335
0.000148748
0.000146057
0.000147912
0.000169968
0.000161469
0.000152609
0.00019302
0.0126456
0.0454313
0.000150963
0.00014779
0.000147777
0.000156378
0.000163574
0.000149595
0.0451131
0.0590377
0.000152881
0.00014825
0.000147307
0.000225209
0.0451315
0.000146091
0.000148603
0.0460673
0.00015042
0.000154769
0.000190869
0.000147639
0.00018721
0.00296652
0.00017056
0.000148234
0.000152089
0.0277898
0.000166799
0.000148402
0.0501294
0.000147475
0.0293138
0.00017384
0.000159026
0.000149543
0.000146418
0.019579
0.000147802
0.00016638
0.055515
0.000162059
0.000148127
0.000163605
0.0142378
0.000162887
0.0157077
0.000160878
0.0842288
0.00532417
0.0069805
0.000147788
0.000296225
0.000151903
0.000148705
0.000146367
0.000146216
0.00639131
0.00292056
0.0758608
0.000167228
0.000217114
0.000147531
0.000154242
0.000148086
0.000147963
0.0390145
0.000410791
0.000266313
0.000149838
0.0475267
0.000166436
0.0703552
0.000231793
0.0688949
0.000231781
0.000218649
0.0163479
0.0144368
0.000219233
0.022471
0.000147699
0.0441816
0.0484987
0.000203024
0.0605543
0.05799
0.0875596
0.000176923
0.0592282
0.000159108
0.000176327
0.000636205
0.000155564
0.000148181
0.000148251
0.000148095
0.0149153
0.000190454
0.000156681
0.000146613
0.00014631
0.000148093
0.00138843
0.000146612
0.0184815
0.000201762
0.00355103
0.000148074
0.000233594
0.0300268
0.000147068
0.00713524
0.0469644
0.0280044
0.0222872
0.000149671
0.000157755
0.000198623
0.000149109
0.000169257
0.037037
0.000151839
0.0678213
0.041493
0.000217669
0.000147866
0.00014621
0.00161066
0.000164486
0.000848238
0.000152689
0.000204556
0.000166814
0.000181634
0.0683426
0.00472036
0.00016848
0.000193958
0.000148249
0.000149701
0.000148234
0.000187916
0.000647754
0.0419224
0.000169835
0.000171924
0.0168815
0.000199662
0.000164059
0.000152118
0.000259887
0.000146508
0.00015014
0.000149102
0.0259451
0.000151043
0.000147516
0.000149306
0.000146335
0.000198025
0.000148969
0.000148021
0.000148194
0.0826874
0.000147036
0.000149788
0.0461388
0.0001473
0.000158803
0.0138061
0.000558081
0.000146188
0.000277695
0.0538798
0.0761291
0.000146548
0.0443895
0.00014655
0.000190224
0.000145988
0.000337855
0.00211946
0.000195233
0.000147857
0.00643793
0.000154518
0.000146663
0.000145997
0.000156908
0.011596
0.000153653
0.000147933
0.0699948
0.000151537
0.000160584
0.000231457
0.000146492
0.000147943
0.000224483
0.017953
0.000143384
0.000148088
0.0247971
0.0182599
0.000205671
0.000143332
0.0157713
0.0663101
0.0139745
0.000146281
0.000184555
0.000147123
0.000143978
0.000157943
0.000191611
0.052543
0.000143946
0.000151085
0.000148406
0.000146337
0.071418
0.0131141
0.000287019
0.000165679
0.00025056
0.000146612
0.0486934
0.0045811
0.0173861
0.00015372
0.0218527
0.000148712
0.000148259
0.000156161
0.000149777
0.000166215
0.00014723
0.0129192
0.0520276
0.000575163
0.000171951
0.000151935
0.000212695
0.000193837
0.000198209
0.000144951
0.0191758
0.0705698
0.000147771
0.000229718
0.000148091
0.000161071
0.0266811
0.000183432
0.000149626
0.0175885
0.000148423
0.0183739
0.000180331
0.000212268
0.000170988
0.000164024
0.000190379
0.000171198
0.000146096
0.000211325
0.000174182
0.000264648
0.000167475
0.0402088
0.0507447
0.000148079
0.000147567
0.000147057
0.000147941
0.000180128
0.000148374
0.000146187
0.024373
0.000188073
0.000165239
0.0144459
0.000155766
0.0103619
0.000146584
0.000148028
0.000222688
0.000148348
0.000160786
0.000172366
0.000209998
0.00020943
0.0173828
0.000173263
0.000211051
0.000610356
0.000171126
0.0297762
0.000150282
0.00747012
0.000190303
0.000153701
0.000176844
0.000172069
0.000313618
0.0158369
0.0607416
0.000149593
0.000155946
0.0170458
0.000147053
0.000163948
0.000181415
0.000210885
0.0593735
0.000147837
0.000192424
0.000581971
0.000148223
0.000148376
0.000143426
0.0771392
0.000167357
0.00015104
0.00420743
0.020783
0.000147433
0.0767395
0.00600471
0.000201821
0.000217389
0.000197109
0.000181676
0.000183589
0.0126851
0.000182427
0.000147014
0.0151086
0.000148425
0.000147286
0.000146961
0.0841971
0.000149169
0.000197616
0.000151679
0.0228069
0.000173686
0.000147516
0.000153985
0.075713
0.000145956
0.00014914
0.000147182
0.000180252
0.000149303
0.000380855
0.000162439
0.0001484
0.000177101
0.00019701
0.0203919
0.000150072
0.000211221
0.0542627
0.0423416
0.000147284
0.000158283
0.000148415
0.000147852
0.000197013
0.000158299
0.000147408
0.000152063
0.000167075
0.000147609
0.0511087
0.000153726
0.000172836
0.000148167
0.000147858
0.000153823
0.000146941
0.000160248
0.0002099
0.000149837
0.000148081
0.000147779
0.00465371
0.000167919
0.0263716
0.000153404
0.0539536
0.0859522
0.000223247
0.000161125
0.000181042
0.000148404
0.0487425
0.0211545
0.0470357
0.041011
0.000188008
0.000173787
0.000202904
0.000235931
0.000167817
0.000152039
0.00014701
0.000181896
0.0161004
0.000195011
0.000169468
0.000148231
0.000181415
0.000148256
0.0488186
0.000145256
0.000201001
0.000152074
0.000294791
0.000147989
0.00032224
0.000157713
0.000220467
0.000148045
0.000152117
0.000778469
0.0728149
0.000161759
0.000173241
0.000147726
0.000149665
0.0209085
0.0771363
0.0550659
0.000150024
0.000210598
0.000161386
0.000169613
0.000148053
0.00021391
0.00014838
0.000147717
0.000151746
0.000148402
0.0315223
0.000148374
0.000147832
0.000149746
0.000151777
0.000149841
0.000156624
0.0372363
0.000156124
0.0205693
0.00797125
0.000147835
0.000180615
0.000146699
0.000151286
0.000148054
0.000603033
0.000561732
0.000148518
0.000148219
0.000158345
0.0579294
0.00037615
0.000148086
0.000145886
0.000173388
0.000147075
0.0172332
0.00164494
0.000148397
0.000158066
0.000212323
0.000181347
0.000149173
0.000193078
0.0490087
0.000148404
0.0159418
0.000149581
0.0509507
0.013955
0.000146157
0.000174374
0.0267506
0.0643758
0.000146316
0.000187838
0.000148081
0.000146383
0.0464311
0.0001526
0.000153478
0.000148245
0.00709481
0.000196588
0.000168628
0.00022501
0.000160729
0.000150385
0.000189607
0.0299385
0.000147591
0.041719
0.0053012
0.00016281
0.000150221
0.000154593
0.00014826
0.000186562
0.000147701
0.000149594
0.000168433
0.0418925
0.000161025
0.000149876
0.000166191
0.0531428
0.000143371
0.0155232
0.000151945
0.000240385
0.000189662
0.0197293
0.000148958
0.0574889
0.000146359
0.000143372
0.000148156
0.000157712
0.000147528
0.0368989
0.000148424
0.00014824
0.00460893
0.000148022
0.000147325
0.0195378
0.000149432
0.000147308
0.000147509
0.000319071
0.0612409
0.0150355
0.0806971
0.000640849
0.0292114
0.000147591
0.000153742
0.00039974
0.000169708
0.000224107
0.00996299
0.000155588
0.000240278
0.0408642
0.000147321
0.0681495
0.000283456
0.000147323
0.000157064
0.000149378
0.000147995
0.000149793
0.0002417
0.0544533
0.00387703
0.000201847
0.000147539
0.000171743
0.000173309
0.000147255
0.0767309
0.00014647
0.000147076
0.000179957
0.000147052
0.000180518
0.000143978
0.000179829
0.00921069
0.000190398
0.000158162
0.000159236
0.0428766
0.0504862
0.000166337
0.000246581
0.000160634
0.000161228
0.0157351
0.000180213
0.0001472
0.00031069
0.0583485
0.000143418
0.0001517
0.000168036
0.000180009
0.000182756
0.000190914
0.000148018
0.000336924
0.000172602
0.000148641
0.000152342
0.000149947
0.000147061
0.000148661
0.00018774
0.0194849
0.000151371
0.000322169
0.000154712
0.000148304
0.049452
0.000163045
0.048639
0.00020135
0.0178477
0.000167454
0.026387
0.0204789
0.000151747
0.00017341
0.0299983
0.0522419
0.000257413
0.000185982
0.0163342
0.000190687
0.0320386
0.00014826
0.0557693
0.000147592
0.000147969
0.000166041
0.000190905
0.000148224
0.000171538
0.000207154
0.000152348
0.000148635
0.00692239
0.000147569
0.0255583
0.000159692
0.000149315
0.0596801
0.000157731
0.000164856
0.0436802
0.0572
0.000181148
0.0040858
0.00028679
0.000147574
0.000149749
0.087435
0.000164548
0.0776978
0.000146489
0.000164269
0.000147094
0.000147716
0.000392685
0.000180603
0.000148048
0.017311
0.000146282
0.000189298
0.000157959
0.0308788
0.0520714
0.000148747
0.000157689
0.000151582
0.000148268
0.0200632
0.000147696
0.000166113
0.0149906
0.000147292
0.000147216
0.0029726
0.0244885
0.000151337
0.00016858
0.00014807
0.000148802
0.000148621
0.0203809
0.00015732
0.000319307
0.000169366
0.000224281
0.000162123
0.000146462
0.000190387
0.000190241
0.000149623
0.0109905
0.00210657
0.00243614
0.000153921
0.000148101
0.0840414
0.0466899
0.0200938
0.000149772
0.000147849
0.00531205
0.00014954
0.0449645
0.000146918
0.000151062
0.000157221
0.000147775
0.000147163
0.000148986
0.000151436
0.0147202
0.000148154
0.0001584
0.000198299
0.000187581
0.000148235
0.000149366
0.0505319
0.000188813
0.0518988
0.000155798
0.074941
0.000147047
0.000147862
0.000159093
0.000533974
0.000467445
0.000164949
0.038002
0.000195346
0.000174527
0.000157256
0.000160134
0.000148643
0.000214598
0.000168079
0.0821767
0.000163528
0.000160192
0.00645656
0.000184991
0.000148473
0.000162913
0.000193658
0.000149126
0.000182825
0.000321543
0.000147189
0.00018121
0.000388126
0.000146383
0.000148002
0.000147721
0.00014701
0.049356
0.000174368
0.000172386
0.000189715
0.000146244
0.000244769
0.000146898
0.000151803
0.000146909
0.000170705
0.000264318
0.012515
0.000173037
0.000146456
0.000167821
0.000172058
0.000148807
0.006971
0.000149154
0.000630371
0.000150969
0.0141193
0.000267276
0.000177793
0.000163651
0.000148616
0.000149532
0.000156772
0.000161834
0.000195303
0.00020577
0.000147294
0.0334292
0.0439071
0.000225878
0.000161097
0.000160419
0.0149394
0.000148853
0.021305
0.000147141
0.000148244
0.000167044
0.00014959
0.0166238
0.000148297
0.0172881
0.000146032
0.000148144
0.000145991
0.000151484
0.000214237
0.000147066
0.000168759
0.000151574
0.0184235
0.000148035
0.000226973
0.000155125
0.000164865
0.000162068
0.000149967
0.000333068
0.000168297
0.000149762
0.000184622
0.000160118
0.000184931
0.000166564
0.00864749
0.000161497
0.0744591
0.00015507
0.000149192
0.000155564
0.000154664
0.000167341
0.0574942
0.00016139
0.000149626
0.000149592
0.000147618
0.000204643
0.0857359
0.000149625
0.00548955
0.000181788
0.0752833
0.013647
0.0105128
0.00014835
0.000165903
0.0264733
0.000163478
0.000490657
0.0121804
0.000187692
0.000149124
0.000161408
0.000149872
0.000148455
0.000170873
0.000147638
0.0504473
0.053463
0.000192943
0.000148793
0.000197971
0.000149864
0.0757987
0.00858864
0.0276454
0.000158053
0.000149567
0.0181481
0.000180009
0.0838622
0.000169299
0.00041787
0.0179877
0.0167395
0.000148636
0.000147451
0.000551578
0.000153397
0.000148482
0.0194844
0.000149761
0.000188537
0.000146363
0.0470935
0.000147196
0.000148235
0.000170502
0.000147205
0.00927159
0.000158309
0.0231929
0.000147583
0.000147911
0.000147626
0.00015806
0.000191609
0.000148825
0.000147697
0.000147331
0.000210822
0.000217603
0.00015927
0.00014826
0.000162836
0.000181517
0.000208016
0.000172573
0.000148476
0.000146982
0.000151903
0.000147693
0.000154001
0.00014956
0.00016708
0.000292454
0.000170841
0.000192835
0.0382748
0.000148497
0.000238075
0.0823494
0.000148082
0.00014989
0.000146931
0.000148038
0.0869347
0.000178484
0.0171693
0.000306115
0.000169907
0.000196251
0.000166495
0.000165386
0.000160314
0.000148928
0.000146039
0.000156516
0.000169065
0.000147831
0.0179863
0.00557489
0.00055964
0.000156538
0.000151617
0.000163429
0.04989
0.0456959
0.000149882
0.000146245
0.0573877
0.000153562
0.014028
0.0241346
0.00899909
0.0300898
0.0305208
0.000146344
0.0677478
0.0424097
0.011163
0.000147959
0.000150918
0.000206443
0.000331727
0.000205378
0.0203725
0.000167765
0.000180999
0.000143886
0.000147691
0.0845726
0.000157585
0.000151299
0.0532834
0.000165001
0.000347332
0.000185264
0.000147868
0.000146457
0.000153409
0.000190904
0.0181736
0.0229744
0.0674297
0.000146854
0.000157768
0.000201308
0.000153938
0.000154463
0.000149968
0.018569
0.000171576
0.000144297
0.0751639
0.000147736
0.000158851
0.000148038
0.000178835
0.000209801
0.0448371
0.000147756
0.000183097
0.0029308
0.000163206
0.000149153
0.000173559
0.000149116
0.000146423
0.000153867
0.000151579
0.0123271
0.000166272
0.00015012
0.0199353
0.000148585
0.0253422
0.000144338
0.000148936
0.000200773
0.000160371
0.000154624
0.000238693
0.000147672
0.0485443
0.000146187
0.000227382
0.000211252
0.053243
0.0068699
0.000150853
0.000165217
0.000144946
0.000168683
0.000407285
0.000153514
0.000147877
0.000165434
0.0758748
0.00561622
0.0409084
0.000148961
0.000197299
0.048799
0.000149155
0.000205556
0.0198638
0.000472529
0.000167179
0.000157799
0.000166071
0.000149141
0.000153831
0.0148155
0.000145896
0.000146462
0.000147773
0.000179988
0.000562763
0.000196178
0.000149749
0.000169011
0.000145977
0.000147094
0.000156303
0.000178095
0.000147653
0.00855115
0.000222844
0.000168868
0.000147633
0.04409
0.000151825
0.000147032
0.000148901
0.000155393
0.000191791
0.0141852
0.000168712
0.000183219
0.000151208
0.000148973
0.054003
0.000164654
0.000169963
0.0638567
0.000244519
0.0290715
0.000177903
0.000153856
0.000168183
0.000162405
0.000160622
0.0100719
0.000146776
0.000147189
0.0516814
0.0595783
0.0203349
0.000148987
0.000415226
0.000149842
0.000151156
0.000171341
0.0160513
0.000152973
0.00238356
0.000157465
0.000190535
0.0001582
0.000153382
0.000188312
0.000148234
0.000148021
0.000171047
0.000219721
0.00016234
0.000254367
0.0148308
0.000268552
0.000155818
0.00014795
0.0104057
0.00014764
0.0159358
0.000152953
0.000156084
0.0102986
0.000162316
0.000200097
0.0459633
0.000277065
0.000151827
0.000147404
0.0157292
0.000165887
0.038219
0.0506691
0.0419561
0.022819
0.000213716
0.000241386
0.000148836
0.000161362
0.0525884
0.000174378
0.000151111
0.000145317
0.000512561
0.000154682
0.000153681
0.000214377
0.00015803
0.000147171
0.0777866
0.000168585
0.000153456
0.043117
0.00021081
0.000148081
0.000151252
0.000161195
0.000152201
0.0177945
0.0830983
0.00641391
0.00014706
0.000148549
0.000179561
0.000215576
0.000166461
0.000192389
0.00016732
0.000870347
0.00014862
0.000206133
0.000147194
0.000186979
0.000149877
0.037598
0.000201973
0.0114652
0.000200032
0.0029489
0.00034431
0.000201321
0.000149597
0.0404946
0.000192172
0.00014857
0.0219464
0.0003423
0.000147815
0.000171446
0.000149626
0.000151502
0.0408956
0.000148121
0.000216192
0.000147594
0.000165575
0.000169796
0.0488321
0.000143858
0.000332084
0.000195731
0.0552018
0.000148455
0.000151243
0.000149861
0.000183388
0.000148792
0.00015196
0.000150108
0.000148067
0.000147556
0.000173677
0.000155486
0.0863331
0.000208279
0.00023155
0.000148514
0.0450644
0.000146172
0.000148409
0.000148429
0.00014904
0.000189685
0.000149642
0.00015576
0.000148201
0.000149709
0.000161313
0.0283843
0.000148429
0.000151884
0.000180408
0.00018337
0.0729869
0.0866474
0.000209346
0.000147837
0.000165213
0.000165346
0.00014876
0.000189337
0.000149874
0.000236463
0.000147568
0.0673013
0.000196996
0.0180255
0.000155431
0.000147784
0.000152223
0.0691656
0.000238972
0.000145141
0.0403187
0.000149632
0.000172765
0.000146674
0.0550179
0.041609
0.000148889
0.000148217
0.000157074
0.000210855
0.000151256
0.000160954
0.0387631
0.0156532
0.000151305
0.0610497
0.00015276
0.00015312
0.00018882
0.000392101
0.000190723
0.000190015
0.0150065
0.000148345
0.00573129
0.0171048
0.0816199
0.0455753
0.000161118
0.0118542
0.0532852
0.052399
0.000276358
0.0218011
0.0147034
0.000190158
0.000144635
0.044155
0.000164299
0.000151126
0.000170691
0.032275
0.000178941
0.000147455
0.00015846
0.000200346
0.0384613
0.000155433
0.00016596
0.00014667
0.0119141
0.0300508
0.000219673
0.000168151
0.000143803
0.00393666
0.000146127
0.000536639
0.00015238
0.000148886
0.0409279
0.000147073
0.00014599
0.000152111
0.000149373
0.000167836
0.000152666
0.0102467
0.0216281
0.0487544
0.000147344
0.000214833
0.000152051
0.000180453
0.000162487
0.000150975
0.000149238
0.0176231
0.0119759
0.000149353
0.000157381
0.000149126
0.000147904
0.000286958
0.0175204
0.000213072
0.000406582
0.0108117
0.000192814
0.000148073
0.000148136
0.000147227
0.000171302
0.000176968
0.0757484
0.000569137
0.000146139
0.0754209
0.000199374
0.000161616
0.0230872
0.000180459
0.000326841
0.000144071
0.0255874
0.000148485
0.000144622
0.000148328
0.000145707
0.0777888
0.000178077
0.0436018
0.000148349
0.000148074
0.0468463
0.00732454
0.000253037
0.000148813
0.0763468
0.0445017
0.000179832
0.000187619
0.0176542
0.000152842
0.000152797
0.000158831
0.000148433
0.00015157
0.000160465
0.0475191
0.000149277
0.000147241
0.0283297
0.00016614
0.000158592
0.000152315
0.000188167
0.000249442
0.00014757
0.000181614
0.0523908
0.000145993
0.000146542
0.000162072
0.000151857
0.00014815
0.000267911
0.00019272
0.0391347
0.00018866
0.000152846
0.00016032
0.000148738
0.000354019
0.000163187
0.000145767
0.000155558
0.000149993
0.000264461
0.000149257
0.0117928
0.000147831
0.000147831
0.00021351
0.000148785
0.000194418
0.000249579
0.0227002
0.000232921
0.0133221
0.000168086
0.0851705
0.000148173
0.000156783
0.0267759
0.000193028
0.000182111
0.000358453
0.00014903
0.000147249
0.000149947
0.000169365
0.000146555
0.000201857
0.000146264
0.050583
0.000148753
0.0141583
0.0434661
0.0813923
0.000259573
0.000165987
0.000149677
0.000168033
0.000284384
0.000147407
0.000148407
0.0156593
0.0144685
0.000224139
0.000388572
0.000145819
0.0166309
0.0333715
0.000152303
0.0537389
0.000148066
0.000144118
0.000151903
0.000163959
0.000151779
0.000160157
0.0339582
0.000203166
0.000176326
0.0510224
0.000147012
0.000243016
0.000148105
0.000149838
0.0142691
0.0564269
0.000278517
0.000146177
0.000229629
0.0002785
0.000184119
0.0147746
0.000149777
0.000153406
0.000149203
0.000145602
0.000163176
0.000148158
0.000164129
0.000149083
0.0082217
0.00601065
0.0543611
0.000165419
0.000188691
0.00958005
0.000146367
0.000149607
0.00163853
0.000149263
0.000154274
0.000145989
0.0140463
0.048315
0.000249647
0.000148397
0.0102698
0.0405155
0.000188653
0.000145717
0.000185995
0.000147141
0.000166854
0.0191266
0.0266835
0.000146172
0.000165758
0.000146027
0.000152197
0.000155501
0.00014827
0.000149122
0.000274071
0.00592389
0.000149146
0.000146007
0.0258591
0.000147643
0.000148133
0.000147987
0.000312421
0.0266083
0.00016867
0.000153296
0.000149872
0.000221773
0.000148222
0.00802871
0.000167602
0.000572638
0.000148245
0.000147016
0.000149859
0.000181616
0.000147351
0.0300811
0.0143723
0.00014571
0.000157575
0.000146282
0.00016153
0.000262279
0.000169361
0.000173621
0.000182634
0.00015161
0.0243273
0.00022526
0.000144238
0.000147583
0.000160285
0.000152288
0.000148435
0.000160974
0.0184965
0.027507
0.000147712
0.000146004
0.0171695
0.000200296
0.000160523
0.000146759
0.000154729
0.00030399
0.000252502
0.0260986
0.0448855
0.000149556
0.000184204
0.000149707
0.000167962
0.0001654
0.000160924
0.00884487
0.000163029
0.00753012
0.0001694
0.00024509
0.000146779
0.000146871
0.000151298
0.00014429
0.0311381
0.000215667
0.0208474
0.000149676
0.000176914
0.000178728
0.000148445
0.000200802
0.000152482
0.0216311
0.000147963
0.000222972
0.00330695
0.000152186
0.000205704
0.000148223
0.000238564
0.000171033
0.021399
0.000151099
0.000161326
0.000144032
0.000156198
0.000157758
0.000145766
0.000235715
0.000147054
0.000149785
0.000355207
0.0151051
0.000149407
0.000216594
0.0111939
0.0525787
0.000170537
0.0217183
0.000148343
0.0143324
0.000202127
0.000154569
0.0324217
0.0618573
0.00341044
0.000218414
0.0136004
0.000145559
0.000147978
0.000146367
0.000180828
0.000155347
0.000148281
0.000186372
0.000167511
0.0431743
0.00037389
0.000185324
0.000149145
0.000175991
0.0438552
0.0205411
0.000154538
0.037021
0.000145689
0.000165021
0.043427
0.000325911
0.000293518
0.000978395
0.00014867
0.0302535
0.000147949
0.0159811
0.000148422
0.000329635
0.0482628
0.000148275
0.000204503
0.00025088
0.000148757
0.000148922
0.000147405
0.000146261
0.0261596
0.0814549
0.0160485
0.000150084
0.00014759
0.0422361
0.000165966
0.000148088
0.00014739
0.00014737
0.000148766
0.0755539
0.000166018
0.000236808
0.000168796
0.000165
0.000148463
0.000165286
0.00014745
0.0489124
0.0001481
0.0257523
0.000220315
0.000148377
0.00859158
0.000147701
0.000147733
0.00743803
0.000167556
0.000228012
0.000149044
0.000148301
0.000149584
0.000148068
0.000166196
0.000148123
0.0490177
0.00015816
0.000146682
0.0772204
0.0388036
0.000187548
0.000202859
0.000146967
0.000335543
0.000166691
0.0107217
0.000167052
0.000148104
0.000152065
0.0217111
0.00016291
0.000460617
0.000213091
0.000148817
0.0536566
0.0317421
0.0302978
0.000148328
0.000149595
0.0736476
0.000147651
0.000158333
0.00014864
0.000148373
0.0001482
0.000611427
0.000157343
0.000146021
0.0517826
0.0127256
0.000156627
0.000160059
0.000145826
0.000149709
0.0454595
0.000536885
0.000197483
0.000147377
0.0180358
0.0409615
0.00015634
0.000147392
0.000183074
0.0137305
0.000146343
0.000166801
0.000151054
0.0697667
0.000148618
0.000148301
0.000162643
0.0714615
0.0749257
0.000191184
0.0548701
0.0775623
0.0372861
0.0147768
0.000160288
0.000156282
0.000147055
0.0454255
0.000148357
0.000213943
0.0001636
0.000147905
0.00014743
0.000187357
0.000149848
0.0136608
0.000188891
0.000162865
0.000191751
0.0173766
0.0263078
0.000146331
0.00306039
0.000156936
0.000154523
0.000164602
0.000151968
0.0516378
0.0161818
0.000181591
0.000182057
0.000149678
0.000147346
0.000230209
0.00018778
0.000165157
0.000161353
0.000148002
0.048883
0.000147746
0.00014732
0.000155942
0.0491531
0.000224674
0.000179977
0.000256884
0.0155371
0.000148146
0.000197894
0.0170881
0.00014718
0.000157741
0.0356344
0.00014964
0.000147927
0.000155849
0.053053
0.0831121
0.017713
0.000180431
0.00014793
0.0511711
0.000148281
0.000183336
0.0001481
0.0458981
0.00144182
0.000148251
0.000181408
0.000146596
0.000156501
0.000163361
0.0128319
0.0570743
0.000148181
0.0219475
0.0122357
0.000167345
0.000262727
0.0290136
0.000145838
0.000235682
0.000157921
0.000191188
0.0811221
0.000145813
0.000147909
0.000146697