/*--------------------------------*- C++ -*----------------------------------*\
| =========                 |                                                 |
| \\      /  F ield         | OpenFOAM: The Open Source CFD Toolbox           |
|  \\    /   O peration     | Version:  v2012                                 |
|   \\  /    A nd           | Website:  www.openfoam.com                      |
|    \\/     M anipulation  |                                                 |
\*---------------------------------------------------------------------------*/
FoamFile
{
    version     2.0;
    format      ascii;
    class       volScalarField;
    location    "300";
    object      nut;
}
// * * * * * * * * * * * * * * * * * * * * * * * * * * * * * * * * * * * * * //

dimensions      [0 2 -1 0 0 0 0];


internalField   nonuniform List<scalar> 
54593
(
0.00562548
0.000601776
0.00583573
0.00964794
0.00214719
0.0114554
0.00180245
0.000538422
0.000671289
0.00489004
0.000689691
0.000347644
2.31257e-05
0.00481608
7.92568e-05
0.000437263
0.00050901
0.000112276
0.00445039
0.000289908
0.00583609
0.000715219
0.00461396
0.000273423
0.00582944
0.00113129
0.00584413
0.00148633
0.0112234
0.00470288
0.0011329
6.35222e-05
0.00583375
0.00812798
0.00013217
0.00583423
0.000268415
0.000626922
0.00250369
0.000840237
4.10085e-05
0.000263458
0.00583556
0.00483891
3.61498e-05
0.00100419
0.00184835
0.000105283
0.00585913
0.000437412
0.00583351
0.00586349
0.00113282
3.82065e-05
0.000673738
0.00587362
0.00110797
0.000529097
0.000710685
8.67834e-05
0.00583528
0.00100854
0.00494096
0.00736426
0.00583647
0.000443649
0.0120785
5.86702e-05
0.00539129
0.00535496
0.00586165
0.000135115
0.00583646
0.00701816
0.0027152
0.00133324
0.001485
3.00342e-05
0.00922044
2.39972e-05
0.00583567
0.0120768
0.0057588
0.00977724
0.00104194
0.00778815
0.00234391
0.00101646
5.57824e-05
0.00381152
4.89018e-05
0.000559695
0.000474401
0.000228986
0.000563016
0.0140964
0.00735809
0.00058666
0.00266042
0.000483396
0.0019625
0.0115881
0.00131224
0.00583473
6.88337e-05
0.000220155
0.000296694
0.000894116
0.00137311
8.05748e-05
0.00180477
0.00583442
0.00366046
0.00110147
0.00523859
0.000133941
0.00578116
0.00638025
0.00899055
0.000537104
0.00710604
0.00583532
0.0035049
0.00184828
0.00584124
3.55855e-05
0.00103691
0.00584087
0.00222941
0.0115438
0.00591621
0.00208228
0.0013617
0.00583412
0.000591487
1.75684e-05
0.00589573
0.00775863
0.0058346
0.00583509
0.00145656
6.96431e-05
0.00135775
0.00018754
0.000475135
5.85772e-05
0.00540325
0.000261445
0.00763011
0.00284195
8.16312e-05
0.00186444
0.00110937
0.00021485
0.00357607
0.00612281
0.00066879
0.00602443
7.49668e-05
0.00255041
0.000339588
0.000687987
0.00149083
0.0123676
0.00151965
0.00329826
0.00585324
0.00583275
4.41476e-05
0.00583619
0.00103309
1.79248e-05
5.37055e-05
0.00583541
0.000714745
0.00583367
0.00233272
0.00075272
0.00111732
3.8999e-05
0.00998681
0.00584246
0.0108579
0.0019274
0.00583552
0.000145905
0.00348058
0.000760073
0.00467524
0.000296986
0.00101618
0.00817125
0.000169661
0.00583685
0.00118972
0.00560659
0.00484004
0.000642528
0.00110083
0.000492334
0.000554459
4.01814e-05
0.000860858
0.00117422
0.00139899
0.0014159
2.43999e-05
0.00100874
0.00256974
0.00583323
0.00583491
0.00439158
0.00584159
0.00137239
0.000595201
0.000815836
0.00138201
0.00784093
0.00013122
0.00448997
0.000752082
0.000719378
0.000443788
0.00184224
4.06678e-05
0.000631176
0.00583606
0.000124329
0.00583461
7.60719e-05
0.00138653
0.00111077
0.00016198
0.00583542
0.00197036
0.00680845
0.00104103
0.00583433
3.67632e-05
0.00583428
0.00169247
0.0013121
0.00958371
0.000321406
0.00228041
0.00289131
0.01452
0.000620065
0.00583308
0.000311092
0.000309894
0.0130231
0.0119217
0.00583135
0.00294198
0.00589485
0.0013391
0.00111487
0.000463712
0.000601
0.000163609
0.0117845
0.00200945
0.000663863
0.000595991
0.0058757
0.00127777
0.00583296
0.000520302
0.00358168
0.00781657
0.000131411
0.000774246
0.00563438
0.00308803
0.00415497
0.000973636
0.010085
0.00585477
0.00198171
0.00594415
0.00123744
0.0016897
0.00175457
0.0145122
4.06566e-05
0.000681019
0.005955
0.000480738
4.28086e-05
0.0134805
0.0116261
0.00583128
0.00583257
0.0015195
0.00583585
0.00150123
0.000143217
0.00547564
0.00107653
0.00059527
0.00197054
0.00583468
0.00583611
0.00396564
0.00269034
0.000467989
0.00151853
0.0034365
0.00499236
0.0123837
0.000222161
0.00149054
0.00193169
4.46115e-05
0.00201176
3.53745e-05
0.000465494
0.000745491
0.00235034
0.000446142
0.0058349
0.000731145
0.00170167
0.00816051
0.000327663
4.71287e-05
0.00587316
0.0108923
0.00219546
0.00583382
0.000489657
0.0058349
0.000645561
0.00583622
3.72789e-05
0.00185489
0.00204895
0.000714709
0.00116072
0.000222086
0.00108496
0.0140503
0.00125724
0.00262428
0.000172635
0.000469655
0.00110812
0.000155906
0.00404426
8.40195e-05
0.00583256
0.000755437
0.000314505
0.00374811
0.00583547
0.000288955
0.00583335
0.00311495
0.00451771
0.000811275
0.000723821
0.00120749
0.00201427
5.66887e-05
0.002034
0.00583337
0.000601803
0.00136324
0.00583669
0.00236348
0.00365284
0.0058344
0.00233656
0.000541046
1.02083e-05
0.00484319
0.000803263
0.000770185
0.00776881
0.0128075
0.000179083
4.01672e-05
0.000625977
0.000959102
6.44892e-05
0.000217625
0.00583477
0.0105324
3.81403e-05
4.5984e-05
0.000721275
0.00172786
0.00583516
0.001535
0.00132235
0.000726474
0.000686402
5.05347e-05
0.00111288
0.000928733
0.000261316
0.00760398
0.000236541
0.000761211
4.14712e-05
0.00587603
3.72189e-05
0.00583394
0.000553576
0.000737999
0.0047168
0.00583478
0.000142727
0.0058346
0.011709
0.00121042
0.00575412
0.00242923
0.001528
8.62676e-05
0.00242808
0.000340405
0.000687576
0.00255387
0.000971656
0.0143991
0.0005277
8.45907e-05
0.000282971
0.0144292
0.000156654
4.12032e-05
0.000531825
0.000993415
0.00174104
0.00533351
0.00816317
9.44257e-05
8.20402e-05
0.00122832
0.00583557
0.00584133
0.0058334
0.00155622
0.00118787
0.00583839
0.00247117
0.00118474
1.24726e-05
0.000461612
0.000692242
4.92642e-05
0.000112475
0.00938656
2.86218e-05
0.000226066
0.00583375
0.00103401
0.000513584
0.00583824
0.0058345
4.69451e-05
0.00230329
0.00584668
0.000308066
0.000804139
0.00268598
0.00084899
0.000306355
0.00168076
0.000122295
0.000339594
0.00583976
0.00134857
0.00190901
0.00583606
0.008529
0.00155029
0.00225138
0.000672618
0.0058425
4.00028e-05
0.00124223
0.00584228
0.000431107
0.000736415
2.62529e-05
0.00582959
3.6306e-05
2.26668e-05
0.00583551
0.00583276
0.00121418
0.000117331
0.00232252
9.17893e-05
0.0008457
0.000752044
0.00262613
0.00036777
0.00226071
0.000751726
4.08155e-05
0.00563682
0.000161145
0.00273756
9.11542e-05
0.000162137
0.00583455
0.00294356
0.000134734
0.00251173
0.00243445
0.000269095
0.0118703
2.49942e-05
0.00583132
0.00257197
0.00584019
0.000915209
0.000826544
0.00229321
0.00214352
0.00529383
0.00116008
0.00603877
0.0132692
0.00071252
0.00586079
0.00013291
0.000953405
7.55305e-05
0.00366736
0.00584159
0.00583485
0.00490249
0.00584208
0.000262397
0.000260806
0.00565921
0.00193367
0.000936379
0.011394
0.00133544
0.00217006
0.00172793
0.00583434
0.00149225
0.00584621
0.00509729
0.00118439
0.000785808
7.07684e-06
0.000254334
0.000363411
4.19223e-05
0.000127451
0.000715535
0.00983566
0.0058334
0.00583542
0.000155737
0.000884494
0.000429946
0.00256764
0.0151092
0.00226711
0.00227041
0.000697841
0.00583121
0.000550965
4.31258e-05
0.000770163
0.000203281
0.0112369
2.79153e-05
1.99831e-05
0.0115679
3.45236e-05
0.00583458
0.00583216
0.000831157
0.00584964
0.00110251
0.00326015
0.0011581
0.0010288
0.00080446
0.00141676
0.00190633
0.00284505
0.000530323
0.00081654
0.00182525
0.0139071
0.0117997
0.00548622
0.00583558
4.0967e-05
0.00207482
0.000946282
0.00252234
0.0146099
0.0082176
2.79146e-05
0.0017909
0.000752301
0.000673857
0.00024198
0.000927423
0.00277395
0.00583568
0.000145851
0.000620517
0.00115542
0.00118112
0.000624641
0.00924481
0.00583554
0.00583207
0.00149413
0.00100081
0.00091195
0.00850274
2.04422e-05
0.000926169
0.0137843
0.0145491
0.000646394
0.000518437
0.0058397
0.0023218
0.0002959
0.00471789
0.00172923
0.000106782
0.000671903
0.000993007
0.0124076
0.000537742
0.00474195
0.000465426
0.00583503
0.00219356
3.78895e-05
3.87822e-05
0.0149122
0.000228224
0.0147505
0.00583421
8.93868e-05
0.0138574
0.010144
0.00583133
0.0058391
0.0116466
0.000244273
0.00242639
0.00583097
0.00278156
0.0049547
0.000165293
7.04526e-05
0.00494128
0.0051091
6.35896e-05
0.00112942
0.00226733
0.00583292
0.00374561
0.00116439
0.0007705
0.000988046
0.000391076
0.00107202
0.00832516
0.00110692
0.00583127
0.00583871
0.00165589
0.00030179
0.00583542
0.0110203
0.0109119
0.00080503
0.00583472
0.00526873
0.000585283
0.00137765
0.00588328
0.00271508
0.0110923
0.00132709
0.000710773
3.76434e-05
0.00469789
3.90943e-05
0.000469429
0.000158702
0.00583482
0.00101676
0.00625072
8.4761e-05
0.00309213
0.0123173
0.00583575
0.00679812
0.000468367
0.00205912
0.0016131
0.00588988
0.00283495
0.00583081
0.000118145
0.0117896
0.000228613
0.00392241
0.000120919
0.000733856
0.0012394
0.00152088
0.000290918
0.0144692
0.00037957
0.000774955
0.00583075
0.000308178
0.00103379
0.0026343
0.00583528
0.00583534
9.33062e-05
0.000396247
0.0141812
0.000110573
3.63935e-05
0.00584087
0.000651486
0.00583143
0.00441351
0.00861238
4.57462e-05
0.000469916
0.00583616
0.0118257
8.79741e-05
0.0132278
0.000775819
0.00696042
0.000774076
0.000998185
0.00150837
0.000922073
0.000475748
0.0030905
0.00583459
0.00882797
0.00597295
0.00135569
0.014338
0.012681
0.00751089
0.000636896
0.0136104
0.000247175
4.792e-05
3.72681e-05
0.00196131
0.00583177
0.00583472
0.00583136
0.00162999
0.000150915
0.000612531
0.00589455
0.00583794
0.0058378
0.000470846
0.00583518
0.0026057
0.00142446
0.000351342
0.00398379
0.000751073
0.00663613
0.00583332
0.000841574
0.00793887
0.00655988
0.0025115
0.00583557
0.000356006
0.000796708
0.00204567
0.000429954
0.00788942
0.00214838
0.00709631
0.00953356
0.000475327
0.00386974
0.00583266
4.6639e-05
0.000202364
0.000519635
0.000977995
0.0011421
8.98759e-05
0.000483837
0.0125204
0.00115389
0.00111463
0.000222114
0.00583473
0.00583567
0.00583492
0.000154382
2.01153e-05
0.00760632
0.000944794
0.000338945
0.00113296
0.000660094
0.00130818
0.000744416
0.000504387
0.00585401
0.00134306
0.00192034
0.00424199
0.000979542
0.00584105
0.00312351
0.00584853
0.000669257
0.00216108
0.0058312
0.00583183
0.00908679
0.00584893
0.00589927
0.0111583
0.00521294
0.00219411
0.00129364
6.71653e-05
0.00583296
0.00029849
0.00890523
0.014589
0.00583493
0.0105973
0.00585507
3.62955e-05
0.00588209
4.61421e-05
0.000715595
0.000140864
0.00383028
8.90206e-05
0.000717662
0.00584214
0.00583226
0.000338987
0.00105955
0.00110297
0.00583082
0.0116088
0.00248513
0.000969423
3.00268e-05
0.00583536
0.00449744
3.19624e-05
0.00179026
0.00582935
0.0058381
0.00500768
0.00196166
0.00117757
0.00582726
0.00104848
0.0127925
0.00104421
0.00583486
0.000330295
0.00583323
0.00584125
0.000817541
0.00106003
0.013234
0.00584034
0.000967154
0.00583381
0.00588872
0.0111171
0.000889712
0.000384604
0.000114491
4.11241e-05
0.00582986
0.0119069
6.64214e-05
0.00135233
0.000818494
0.00243299
0.00219944
0.00302797
0.000496629
0.0016151
0.000665838
0.00583299
0.00104947
0.0140295
7.2707e-05
6.00138e-05
0.00107591
0.0010625
3.4158e-05
0.000256769
0.0058297
0.00192833
0.0145833
0.00583835
0.000104446
0.00583785
0.00171733
0.00587608
0.000150307
0.00583555
0.00166274
0.00583369
0.00202418
5.90007e-05
0.00113116
6.82598e-05
0.00128011
0.000604253
5.93189e-05
0.00588411
0.0011357
0.000515229
0.000553203
0.000390356
0.00825552
0.0109217
0.00583899
0.00583635
0.00584967
0.00358086
0.000813524
0.00583358
0.00588493
0.00563616
4.0355e-05
9.92097e-05
0.00144935
0.000684194
0.000422271
0.00582981
0.00583126
0.000938867
0.0058968
0.000192172
8.36833e-05
0.00119169
0.00115212
0.00196955
0.000360335
3.85855e-05
0.000239737
5.94277e-05
0.00699457
0.00118543
0.000272708
0.000562024
0.00105832
4.31833e-05
6.45201e-05
0.000286348
0.00154585
0.0106711
0.00583545
0.000755569
0.00159107
0.00584823
0.00133765
0.00111103
0.00116698
0.0131493
0.00380005
0.000219789
4.02115e-05
0.00314551
0.00341168
0.00582937
0.0149501
8.53237e-05
0.00104258
0.000621968
0.00244624
0.00497937
0.0145958
0.00157104
0.000194461
3.25227e-05
0.000314284
0.000996419
0.00038471
0.00136385
0.00142043
0.00585486
0.0012555
0.00583375
0.00583291
0.00584528
0.0107708
0.00583407
0.000658368
0.00194936
0.00307094
5.4172e-05
0.00583265
0.00109814
0.0124058
0.00583466
0.00201563
0.00583407
0.00155061
0.00465041
2.39443e-05
0.00102299
0.00583359
4.98634e-05
0.000654805
0.00204346
0.00129207
0.00110386
0.0142864
0.00934895
0.00555325
0.00103982
0.00549349
0.00361454
0.000325317
0.00089905
0.00451014
0.00174239
0.000246134
0.00583552
0.0133018
0.000574256
0.000335501
0.00448386
0.00427417
0.000971251
0.00583384
0.00134316
0.000355544
0.00583617
0.00583863
0.00583092
0.000474035
0.00040822
0.00592519
0.00102704
0.0133293
0.00726619
0.000709991
0.000238561
0.00150196
0.00583379
0.00752108
0.00228103
0.0123856
0.00832234
0.000719152
5.37688e-05
0.0012268
0.000771198
0.000107085
0.00220284
0.00583399
0.00116302
0.00202396
0.000530425
0.000419699
0.00583482
0.000969903
0.00323311
0.0119978
0.00583947
0.000327162
0.000797016
0.000387682
0.00435148
0.000474497
0.000358822
0.000969465
0.00583846
0.000775417
0.000526753
0.0140595
0.000158992
0.00162736
0.0058344
0.00359183
0.00235532
0.00656926
0.00993478
0.00149098
0.00113862
0.00165544
0.00101821
0.00583826
0.0010849
0.00583359
0.00392253
0.00121259
0.00583357
0.00748924
0.00583352
0.00343693
0.00583593
0.00136369
0.00583618
0.000416465
0.00671634
0.000817532
0.00256268
0.00043703
0.0038134
0.00166088
0.00583466
0.000872398
0.00405801
0.00049239
0.000278906
0.0027033
0.0030981
0.000267037
0.0113689
0.000232082
0.00583812
0.00583293
0.00154085
0.00583131
0.00130101
3.69666e-05
0.00583352
0.000289426
0.00111041
4.35991e-05
0.00196779
4.06751e-05
0.0129459
0.00583378
0.00183978
0.00248913
0.012829
0.00101173
0.00584632
0.000383177
0.00603527
0.0115496
0.00583841
0.000155565
0.00428327
0.00584499
0.00795849
0.000754224
0.000963704
0.00583469
0.000766077
0.000253295
0.00111112
0.000908823
0.000937061
0.00120978
0.000548388
0.0051171
0.00583568
0.00899742
0.000675252
0.00173895
0.00136834
0.00279945
0.00317564
0.00193551
0.0047116
0.00583547
0.000123857
0.00859972
0.000177849
0.00583626
9.51488e-05
0.00997366
0.00582707
0.00191894
0.00190222
0.000737444
0.00111499
0.00186473
0.00583369
0.0130713
0.00584416
0.00582731
0.00486408
0.000333758
0.00583098
0.0107252
0.00583375
0.00285971
0.000674416
0.00583773
0.00534884
0.0022774
0.00217832
0.00589125
0.0058309
3.85536e-05
0.0147618
0.000976231
0.00753178
0.000495783
0.00671021
0.00583788
0.00124097
2.15721e-05
0.000100623
8.43084e-05
0.000613724
0.000416806
0.000708749
0.0102363
0.00583314
0.0125849
4.28407e-05
0.00586272
0.000778812
0.0019755
0.00583094
0.00147424
0.000727535
0.0143027
0.000328063
0.00142189
0.00583269
6.16767e-05
0.00145097
0.00583305
0.0108678
0.00585549
0.00584568
4.47205e-05
0.00583146
0.000976107
0.00584008
0.000767613
0.0010418
0.000365412
0.000287054
0.00022388
0.0110012
0.00808825
0.000102067
0.000619409
0.000207425
0.00103379
0.0013243
0.000805457
0.00583313
0.00047832
0.00718902
0.00582715
0.00109461
0.000126761
8.80421e-05
0.000315416
0.00107278
0.00583808
0.000267896
0.000108115
0.00265344
0.000887487
0.00142207
0.00585283
0.002519
0.000193799
0.00292676
0.000966447
4.23588e-05
0.00101766
0.00505703
0.0122269
0.000127153
0.00764282
0.00101418
0.00154827
7.98913e-05
0.00532541
0.00202021
0.00214702
0.00146746
0.00750662
0.0135156
0.000502108
0.0016927
0.00106608
3.91001e-05
0.00923268
0.00375366
0.014461
0.00583381
0.00463291
0.000114519
0.000364315
0.0057699
7.22762e-05
6.50975e-05
0.00102617
0.00254009
0.00069662
0.00583781
0.00375095
0.000223889
0.00217667
0.0119631
0.000332379
0.000228204
0.00830867
0.0117214
0.000904765
0.000759766
0.000400261
0.00583387
0.00583594
0.00791904
0.000113965
0.0115868
0.00585451
0.00128953
0.00585324
0.00413749
3.79029e-05
0.00071417
0.00578516
0.0018039
0.00584428
0.00177465
0.000337893
0.00790958
0.0128851
0.00226052
0.00032308
0.00135789
0.00587425
0.00316942
0.00583498
9.28272e-05
0.00153946
0.00584039
0.00589342
0.000450755
0.00195111
0.00170243
0.00109976
0.00431823
0.00232055
0.00583343
0.00219214
0.000351138
0.000272819
0.000292177
3.06505e-05
0.00196709
0.00585412
0.000626932
0.000676376
0.00583541
0.00113076
0.000730349
4.68579e-05
0.00194488
0.00583756
0.00763251
0.0129339
0.00228526
0.00583599
0.00583143
0.000125117
0.00172065
0.0107983
0.00583093
0.00593553
0.000769982
0.00496549
0.0058335
0.00583376
0.00095372
0.00308012
0.00489877
0.000539296
0.00074766
0.000537255
0.0058348
0.00215903
0.00790131
0.00186059
0.00938582
0.000911161
0.014696
0.00577394
0.00583139
0.000514679
7.11699e-05
4.79003e-05
0.00148824
0.0111308
0.000547883
0.000523076
0.00212398
0.000224618
0.00583343
0.000454124
0.000112686
0.0134909
0.00015123
0.000200035
0.000193689
0.00048902
0.00583318
0.000144172
3.50227e-05
0.00583406
4.15536e-05
0.000264934
0.00583331
0.000980563
1.233e-05
0.00583256
0.00482716
0.00583115
0.00583107
0.0108375
5.17433e-05
6.1349e-05
0.00120296
0.00584464
0.000651798
0.00587697
0.00210009
0.00583228
0.000523842
0.000459453
0.00116635
5.55067e-05
0.00583645
7.56099e-05
0.000114762
0.00288179
0.00025306
0.00583413
3.25372e-05
0.00204946
0.000920311
0.000390433
0.000644983
0.000150329
0.00583347
0.00583519
0.000434085
0.00039998
0.000553343
0.000214577
0.00583989
0.0067497
0.0106481
2.802e-05
0.000236099
0.0014826
0.00105149
0.00257129
0.00229831
0.00583988
0.00367448
0.00026069
0.0058353
0.00125349
0.0036539
0.00190808
0.00582917
0.00490081
0.00586522
0.00279457
0.000431085
0.0058537
7.52018e-05
0.00128083
0.000929423
0.0058384
0.000585473
0.000448863
0.000103324
0.000387955
0.00583649
4.57856e-05
0.000437083
0.00583584
0.000330855
0.00143032
0.000508757
0.0014163
0.00110198
0.000174186
0.0105549
0.000465843
0.00179853
0.000445835
0.00101395
0.000409724
0.0146203
0.000694417
0.00583541
0.00583531
0.00583519
0.00115794
0.00873714
0.00583541
0.000870462
0.000321256
0.0136252
0.00274319
0.000962633
0.00338608
0.000702451
0.00631169
0.000165362
0.000114534
0.00100125
0.000758494
0.00583404
0.000223873
0.00583625
0.00258407
0.000570963
0.00583886
0.00918458
0.014223
0.000390576
0.00257497
3.58654e-05
0.00583617
0.0109457
0.000826254
0.00466443
0.000364235
0.00454575
0.00170296
0.000711627
0.0145201
7.61143e-05
3.08257e-05
0.00210424
0.00175104
0.00583346
0.00584396
0.000299122
0.0010015
0.00282057
0.00185235
0.00164213
0.000626806
0.00584361
0.0114812
0.00583132
0.00325501
0.000560784
0.0058313
0.000825285
0.000281146
0.00402679
0.00583363
0.00583078
0.00583898
0.000377204
0.000220675
0.00243306
0.00456333
0.00512356
0.000441652
0.000671902
0.00139655
0.00357293
0.0011204
0.00122683
7.44557e-05
5.71576e-05
0.00302153
0.00583119
0.000856203
0.00401907
0.00120124
0.0043344
7.76233e-05
0.000505626
0.000544091
0.00095564
0.00917581
0.00276225
2.84111e-05
0.00761657
0.00583869
0.00583626
0.00583094
0.00543189
0.00786954
0.00060623
0.00159025
0.000276214
0.000228498
0.000315975
0.000114565
9.80818e-05
0.000212998
0.00214111
0.00582912
0.00213095
0.00140753
0.00583328
0.00153025
0.00151469
5.78699e-05
0.000568533
0.00245717
0.00123485
0.00171632
0.00951099
0.00583627
0.00584492
0.0146126
0.000804428
0.00142454
0.00549554
0.000869973
0.00756116
0.00732769
0.00584283
0.0119139
0.0103036
0.000861998
0.00572909
0.00100249
0.000370481
3.80467e-05
0.00124155
0.00214267
0.000414669
0.000330925
0.00583842
0.00417498
0.0116903
0.00051544
0.00176279
0.00823352
0.00150954
5.25546e-05
0.000146609
0.00583091
0.00583271
0.0010733
5.79541e-05
0.0015964
0.00397145
0.012821
0.00583091
0.000829758
0.00151307
0.00110453
0.00264537
0.0058365
0.0018107
6.21028e-05
0.00583607
0.0130503
0.00583126
0.000528836
0.00583805
6.00055e-05
3.20403e-05
0.0109682
0.005833
0.000396259
0.000867632
0.000175027
0.00583412
0.00144245
0.00589061
0.00585455
0.00125922
0.00124833
0.00218749
0.000640423
0.0012843
0.00239744
0.00276938
0.00501387
0.00583661
0.00227914
0.000452114
0.0015087
0.00103865
0.000756787
0.0058329
0.004779
0.00584665
6.77923e-05
0.00115704
0.0103255
0.000573632
0.00217
0.00154985
0.00582991
0.00149395
0.000433993
0.00198038
0.00583095
0.000598132
0.00775798
0.0001777
0.0100715
0.0020962
0.00142019
0.00789302
0.00583412
0.0012683
0.00191504
0.000210712
0.00040053
0.00204937
0.000651474
0.00210834
0.00114575
0.00099303
0.0058326
0.00583249
0.00583296
0.00164659
7.04028e-05
0.000522337
0.00162374
0.000112232
0.00583183
0.00583337
0.00180367
0.000464868
0.00583052
0.000996147
0.000672503
0.000162648
0.00583046
0.00798881
0.00116178
0.00583691
0.00224547
0.000707391
0.000267668
0.00113395
0.000108816
0.000363599
0.00104471
0.0020994
0.0142878
0.000107514
7.27388e-05
0.0104159
0.00066151
0.006834
0.000463755
0.00193177
0.000958863
0.000149472
0.00147528
0.000963408
0.00583412
0.00584132
0.0108845
0.0147937
0.00209523
0.0020752
4.54126e-05
0.00583613
0.00101709
8.80364e-05
0.00171777
0.00195273
0.000777459
0.00208351
0.000229792
0.000488605
0.000960319
0.00163226
0.00386609
0.00584075
7.50826e-05
0.000629068
0.00177466
0.000636425
0.00128919
0.00059114
0.000694143
0.00574288
0.00047042
0.00443431
0.00364924
0.00298499
0.000544172
0.000557266
0.000232691
0.00157521
0.00831775
3.77252e-05
0.000893218
0.00581261
0.00152069
0.00144935
0.00871465
0.01253
0.0100424
0.00280784
4.03583e-05
0.000733368
0.00219249
0.00183102
0.0116797
0.0003474
0.00108521
0.00583971
6.42403e-06
0.00105218
0.00100049
3.61333e-05
0.00201467
0.0058945
0.00937153
0.00020496
0.000968319
0.0111043
0.0011684
0.00584969
0.00181346
0.000990885
0.000802586
0.00136711
0.00953037
0.000230158
0.00585463
0.00283817
4.11572e-05
0.000427921
0.00124398
0.000385019
0.000761188
0.000416385
0.00251545
0.000229719
0.00588488
0.00047384
0.00583626
0.00852007
0.000434112
0.00128081
0.0015773
0.000896561
3.47564e-05
0.000242403
0.00583532
0.00933847
0.00110593
0.00583352
0.00244989
4.88696e-05
0.005835
0.000842408
0.00583541
0.00140426
0.00965813
0.00520909
0.000467038
0.00583266
0.00148632
0.000274888
0.00793433
0.00583746
0.000251612
0.00077386
0.00885843
0.00583333
0.00112498
0.00583618
0.000302304
0.00583356
0.000822733
0.00318751
0.00584246
0.00583753
0.00142225
0.000490285
0.00925962
0.00037732
0.000784353
0.00588087
0.0108789
0.00585279
0.00583377
0.00583373
0.00583414
0.000664434
0.00240923
0.000662528
0.0058352
0.00583566
0.00198943
0.00650819
0.00583373
0.000846677
3.89283e-05
0.000327839
0.00877578
0.00921795
0.00047282
0.00583066
0.00142777
0.000115655
0.00583319
3.60189e-05
0.00583626
0.000624134
0.00583738
0.0143199
0.000328825
0.00146917
0.000735149
0.00583445
0.0020533
0.0120212
0.000726889
0.00586377
0.00869255
0.00156706
5.76756e-05
0.00587009
0.0101173
0.0097319
0.00209775
0.00332956
0.000328925
0.000515109
0.00290673
0.000564713
0.00893111
0.00139768
0.00143636
0.0114086
0.000793254
0.00210237
0.0014024
0.000195299
0.000682556
7.01187e-05
0.00153525
0.00523593
0.000732416
0.00155802
0.0126759
0.00639001
0.000552612
0.000696371
0.0135215
0.0140926
0.000538192
0.00368154
0.00145057
3.57229e-05
0.00582947
0.00911956
0.000202714
0.00100625
9.16897e-05
0.00657137
0.000726554
0.00583574
0.000276286
0.00112601
0.00297127
0.000792614
0.000716448
0.00586941
0.000881208
0.0069894
0.000383026
0.0010701
0.00583687
0.000472294
0.00588704
0.000200293
0.0026597
0.00221869
0.00948557
0.00589258
0.0058665
0.000798713
0.00431284
0.000336282
0.00317893
0.00112668
0.00256407
0.0130445
0.00523044
0.00101568
0.00112675
0.00156085
0.000984792
0.00111239
0.00583459
0.00143485
0.000688199
0.00590593
0.000853068
0.00583405
0.00583162
7.62045e-05
0.00140688
0.000467219
0.000322011
0.000719347
0.000258699
0.00584255
0.00491517
0.00588778
8.10305e-05
0.00181729
0.0122247
7.2391e-05
0.00585174
0.00775219
0.00108784
0.000176107
0.00282513
0.000100242
0.000274455
0.0058338
0.00517853
0.00583334
0.00582926
0.00320562
0.00583002
0.00662254
0.000722306
0.0104121
0.00264164
0.00575336
0.0125285
0.000563801
0.000649187
0.00583358
0.0133585
0.0105721
9.09468e-05
0.00147778
0.00138475
0.000672119
0.00305525
0.00137066
0.00262472
0.00116297
0.000221528
0.0116099
0.00180597
0.00584136
0.00688318
0.000725171
0.00198488
0.00212119
0.000187468
3.65623e-05
0.00583377
0.000280995
0.00848058
0.0058673
0.00583006
0.000154043
0.0010453
0.00408005
0.000539164
0.000147959
0.00949397
0.00018101
0.000653988
0.000196124
0.00248634
0.000242499
0.000182581
0.00582918
0.000498829
0.00591146
0.000323052
0.00313674
0.00110078
0.00583167
0.00482445
0.000498053
0.00240935
0.00192193
2.74461e-05
0.00497255
3.64202e-05
0.000928879
0.000434445
0.0113291
0.00583254
0.000382517
0.00633517
0.000260828
0.000945526
4.81257e-05
0.00202856
0.00584136
0.00160287
0.000316241
0.00582997
0.000515168
0.00583521
0.0136305
0.00234795
0.00102032
0.00925005
0.0146132
0.000615845
9.4813e-05
0.00583558
9.1453e-05
0.000385231
0.00536237
0.00583377
0.00112435
0.00126259
0.000410592
0.000210549
0.00583293
0.0014317
0.00757498
0.00320936
0.0142473
0.00581363
0.00583433
0.0059425
0.00165683
0.00120002
0.000900398
0.00663923
0.00052566
0.00177238
0.0116267
0.0058356
4.02177e-05
0.003939
0.00583615
0.00147267
0.0110267
0.000409021
0.00583807
0.000805378
0.000363617
0.000121538
0.00122244
0.00583602
0.000614761
0.00186542
0.00585074
0.000399291
0.00583238
0.000114449
0.00583423
0.000247495
0.000207358
0.0136286
0.00128116
0.00132886
0.000427996
0.00583691
0.00167263
4.3564e-05
0.00583468
0.00102435
0.00586309
0.00158299
0.0082594
3.62806e-05
0.00583354
0.00149403
0.0100849
0.00150134
0.00582988
0.000194222
0.00548572
8.39682e-05
0.00168121
0.00552129
0.00583835
0.000754542
0.00583961
0.00272773
0.0059922
0.00583321
0.00583427
0.000410985
0.00013961
0.00583435
0.00588462
0.00370524
0.00583507
0.00583231
0.00583654
4.67822e-05
0.00388533
0.00108374
0.00062757
0.00583625
7.58611e-05
0.00386974
0.00104176
0.000321604
7.97246e-05
0.00304847
0.00583538
0.00218881
0.000145393
0.0058933
0.00536169
0.00118318
0.00582921
0.000344378
0.00584466
0.000166275
3.76334e-05
0.00182031
5.39507e-05
4.21032e-05
0.00280818
0.00319632
0.000443083
0.00583673
0.00583607
0.000201682
0.000788301
0.00258834
0.000550094
0.0018478
0.00713529
0.0039603
0.00583936
0.00157156
0.00109295
0.000274278
0.00583387
0.0010439
2.43287e-05
3.68446e-05
0.00372087
0.0109444
0.0020053
4.16052e-05
0.0058357
0.00021384
0.00188767
0.00213306
0.000289984
0.000404375
0.000261768
0.000229787
0.00066067
0.00583434
0.00583092
0.000990321
0.0058354
0.00748544
0.000510093
0.00483083
0.0058356
0.0019372
0.000715391
0.00476499
0.000534591
0.00321583
0.00250659
0.00583669
0.000706424
0.000959835
0.00144469
0.00117454
0.00328691
0.000760492
6.29182e-05
0.00380815
0.00174864
0.0014676
0.00583385
0.000427245
0.00095784
0.0058293
0.00078444
0.0058353
0.00583603
4.93538e-05
0.00345705
0.00583501
0.000971036
0.00114396
0.0114261
0.000575697
0.00228515
0.00303502
0.00113162
0.000447332
0.00135462
0.00937801
0.00418991
0.000399509
3.26412e-05
0.00136895
0.0058502
0.00586512
0.00583727
0.000703746
0.000701185
0.00583332
0.00012101
0.000373151
0.0101181
0.000221812
0.000155293
0.00583395
0.001638
0.00864458
0.00197185
0.00118019
0.00880423
0.0058294
0.000112356
0.0094885
2.65538e-05
0.000312841
0.000618113
0.00583348
0.00527927
0.0058368
0.001094
0.00288313
2.85862e-05
0.0118065
0.00583261
0.000978054
0.000664053
0.00583375
0.00204308
0.00498247
0.0058294
0.00618663
0.0129
0.00172832
0.00592253
0.00584202
0.00756857
0.000747102
0.00321931
0.00546048
0.00583072
0.00583325
0.0147071
0.000106639
0.000468468
0.00182254
0.00011307
0.00266913
0.00195515
0.00524111
0.0126885
0.00583716
0.00383939
0.000695323
0.00583328
0.000687961
0.00583245
0.00412559
0.000236553
8.73525e-05
0.000328853
0.00211647
0.0032681
0.00291886
0.00324127
0.000411611
0.00583221
0.0118433
0.000350977
0.00583531
0.0151943
0.00300676
3.9772e-05
3.25633e-05
0.00586104
4.02053e-05
0.000421548
0.0011127
9.41912e-05
0.00320414
0.000813104
0.00227363
0.00018732
3.94419e-05
0.000420356
0.00583337
0.0131509
0.00910103
0.00581254
0.00345615
0.002321
0.00980428
0.00583474
0.000802551
0.00583344
0.00583354
0.0058341
0.000432309
0.000316724
0.00583148
0.0133447
0.00139917
0.000448172
0.000228861
0.00583259
0.00583565
0.0109568
3.71052e-05
0.000786286
0.0058944
0.0015091
0.00934296
0.000475721
0.0058308
5.78164e-05
0.00349992
0.00583559
0.000214019
0.00103609
0.0134602
0.00583345
0.0037501
0.000144659
0.0131869
0.0127012
0.000606066
0.0136052
0.0139705
0.00330381
0.00160002
0.000326945
0.000603394
0.00583516
0.00524342
0.00583328
0.000655484
0.000653014
0.0058424
0.00583296
0.000509527
0.00583619
0.000979926
0.000211343
0.00112144
0.000406864
0.00154284
0.00367691
0.0058305
0.000463838
0.00035539
0.00131402
0.000618405
0.000837797
0.00796114
0.00104753
0.000702059
0.00116212
0.00194184
0.00533476
0.000412263
0.000645916
0.0011578
0.000241964
0.00344038
0.0128515
0.00504624
0.00576243
0.000465806
0.0127002
0.000912019
0.0010251
0.000626523
0.00152005
0.00583222
0.000321074
0.00177523
0.00584055
0.000959395
0.00719496
0.00228459
0.0058429
0.00155143
0.0141765
0.00998822
0.00194581
0.00167352
0.00371916
0.012914
0.00342152
0.00142269
0.00583755
0.0110524
0.000554811
0.00583466
0.000718512
0.00582992
0.00168623
0.000153547
0.00123022
0.0130949
0.00583413
0.00243016
0.00122133
0.000136546
0.000547171
0.00631862
0.00583661
3.57915e-05
0.000342364
0.000288411
0.00960785
0.00583638
0.00584094
0.00584172
0.00218617
0.00163767
0.00583353
0.000768993
0.00786068
0.000509815
0.00583541
0.00270649
0.00305014
0.00123762
0.000938962
0.0058344
0.000611117
0.0124826
0.00583553
0.00980943
0.000880445
0.000284159
0.00119623
0.0105266
0.00015867
0.00583232
0.000497598
0.00544739
0.00583242
0.0148025
0.00583316
0.000177189
0.00118744
0.000741511
0.000736926
0.000644948
0.000409646
0.00583438
0.00436907
0.010918
0.00583666
0.000710306
0.00287851
0.00485543
0.00272783
0.00583288
0.00583135
0.00124359
0.00513541
0.0069605
0.00254893
0.00858981
0.000276885
0.00583469
0.000497308
0.0021319
0.000893833