/*--------------------------------*- C++ -*----------------------------------*\
| =========                 |                                                 |
| \\      /  F ield         | OpenFOAM: The Open Source CFD Toolbox           |
|  \\    /   O peration     | Version:  v2012                                 |
|   \\  /    A nd           | Website:  www.openfoam.com                      |
|    \\/     M anipulation  |                                                 |
\*---------------------------------------------------------------------------*/
FoamFile
{
    version     2.0;
    format      ascii;
    class       volScalarField;
    location    "300";
    object      omega_0;
}
// * * * * * * * * * * * * * * * * * * * * * * * * * * * * * * * * * * * * * //

dimensions      [0 0 -1 0 0 0 0];


internalField   nonuniform List<scalar> 
54593
(
0.025321
0.0632066
0.0251003
3.56223
9.58108
4.50931
9.95331
0.0968429
0.0575336
0.0251513
0.0293193
25.2585
3.77065
0.0250816
0.107779
0.0309664
0.096727
0.0642521
0.0251519
0.0350181
0.0250985
0.0311074
0.0251413
30.1058
0.0248287
0.187544
0.0253232
0.0455972
6.30827
0.0251468
0.187181
0.310315
0.0252045
4.29458
0.0532727
0.0255732
0.0620884
0.0632221
0.0258919
0.0311251
1.57307
2.96146
0.0250382
0.0253225
0.398556
0.0264504
0.0995698
0.0837572
0.0247479
0.0592417
0.0252063
0.0247541
0.0280089
0.412679
0.133825
0.0252775
35.5885
4.70599
0.121444
0.0774988
0.0250423
0.0264074
0.0250812
4.0121
0.0253227
0.0305633
5.41064
0.285089
5.31853
5.29927
0.0247493
0.052592
0.0253184
6.09603
0.0265692
0.0315006
0.0376638
1.50949
4.35984
2.0611
0.0251136
3.4474
0.0253235
5.31262
0.0270811
6.09509
9.29165
0.0901319
0.131086
0.0253457
30.2405
0.0347857
0.159953
0.271035
0.0412351
5.40603
4.54805
0.258796
0.0254059
0.0594471
0.0256337
4.10183
0.0260077
0.0253344
0.292723
0.0527535
0.0592357
0.0876846
0.0312649
0.093517
28.8618
0.0253236
0.0253482
0.193602
0.025254
14.2788
5.12326
4.31325
4.1683
0.15446
4.07435
0.025636
6.06293
0.0398244
0.0251277
0.728865
0.0261472
0.0251287
8.29668
5.92224
0.0253153
0.0255064
0.0322493
0.0255659
0.0349307
7.50657
0.0248813
4.26506
0.0253338
0.0254008
10.1753
0.0895775
0.0318596
3.4598
0.0412075
0.279296
5.58247
0.0611404
5.44293
0.0256053
0.0853826
0.0255831
0.147979
0.266284
0.0252583
12.2221
0.0292466
12.2437
0.108196
0.0254033
0.820457
0.0281131
9.57396
5.43758
0.0449051
0.0254336
0.0250553
0.0250473
3.73754
0.0256811
0.20894
7.54845
0.134245
0.0256409
0.0570889
0.0251908
24.8986
0.0274711
0.0264361
1.38874
4.28004
0.0246431
6.32649
0.0256671
0.0256408
38.7451
0.0254893
0.0278424
0.0250888
1.62267
0.0264422
4.05355
28.133
0.0253136
12.5535
5.47262
0.0253029
0.0288321
0.193758
8.52554
0.0360096
0.7163
0.0823902
0.0259617
0.0259114
0.0258986
5.81194
0.0269519
0.0258942
0.0250965
0.0254047
0.025086
0.0246415
0.0317895
0.0409392
0.204994
31.3395
4.00835
65.0728
0.025303
0.0309063
32.898
3.65564
0.0264549
0.299502
0.0411096
0.025667
0.0645659
0.0251192
0.103906
0.0260963
0.190458
39.1578
0.025635
0.0255502
4.49576
0.207041
0.0255634
0.296444
0.0255591
0.0264507
0.0321081
5.39379
0.179861
0.0262798
0.0270445
3.88455
0.367685
0.0250215
0.941109
0.177967
3.85178
4.93789
0.0252519
0.026483
0.0252175
12.753
0.0265687
0.253147
0.0310955
0.0719938
4.0809
0.0255102
7.58082
0.040774
0.024988
12.9653
0.0250241
0.0310249
0.0254317
5.88842
3.39841
0.0331321
0.0253196
0.0270226
0.0252509
0.0264946
5.28421
0.0250144
0.0976195
0.0255232
0.0345047
0.0286934
10.2203
3.87727
1.08406
0.0312206
0.0257727
0.041337
37.6407
3.85992
3.46185
0.0252573
0.0254115
0.0697998
0.0256618
30.9674
3.32949
0.0252539
0.198545
0.417522
0.0260556
0.025408
0.0256757
0.0252672
0.0253372
0.0577984
10.783
0.0255776
0.0252986
4.92599
0.0572098
11.0221
0.025535
1.33502
10.0656
0.340535
0.947353
0.239059
0.025554
0.0791587
0.0250227
0.330343
0.0449216
4.50384
0.0606253
0.240479
0.0249813
4.16
0.0406825
0.0254387
0.0340555
0.0253311
0.0281853
0.025683
5.91477
0.0288554
8.36654
0.339446
0.0304716
0.0570841
0.0282185
3.71784
0.0266153
0.0253391
0.156695
0.0591529
0.191745
0.195233
12.9418
42.0208
0.0254146
0.316234
0.162578
0.0253406
0.0250478
0.0355304
0.0254152
0.0253476
0.0253091
0.196813
0.0310315
0.0267442
8.90427
0.14137
0.0254985
0.0254152
5.44527
0.0381153
0.0253103
0.0274478
0.0252689
0.0250225
0.0255675
0.0287144
10.5539
0.0250728
5.97155
0.0329938
6.05019
5.67922
0.0445443
0.263666
0.36721
0.0810337
6.26761
35.556
0.0253307
5.36626
0.253959
0.199244
0.121335
0.0286968
0.0250513
9.81516
10.9011
5.90804
0.0577001
0.158471
0.0648435
0.027349
0.0866186
4.30631
0.241924
0.313527
0.58908
0.024949
0.305074
0.025231
0.269169
0.319388
0.0250827
0.0254057
0.105494
0.0253107
6.00679
0.0429186
0.0253407
0.0254115
0.0444228
0.0721149
8.34078
0.0608486
0.0996997
8.48806
13.5101
4.15209
0.0501766
38.7286
0.0447844
5.23098
0.0520418
1.25095
0.057351
0.0646744
0.0331485
0.0253206
4.47482
0.133002
0.147046
11.8419
0.0256409
0.0251206
0.025428
11.4686
0.0682609
0.0252807
0.0254094
0.143417
15.6559
0.952654
0.354457
0.147738
0.0705592
3.59206
5.45304
0.0493778
0.0254423
0.0265386
0.166024
0.0252837
0.0250136
3.49407
0.0254455
0.0250121
0.0944362
0.195841
0.0254536
0.0445226
2.63464
10.6572
22.74
0.0386855
0.0248791
10.9672
0.0255719
0.025675
3.98146
11.4664
0.0254561
0.058141
0.0253396
0.239119
0.0615699
0.0253423
3.30005
0.326109
1.25274
0.0248252
31.8954
4.81604
0.025641
0.0252709
0.0301626
52.6433
0.0255501
0.0666509
0.0271356
0.311332
0.0253419
0.721654
9.47624
0.310888
0.275158
0.0251336
0.0568775
0.0254049
0.0709378
0.0520423
0.0251533
0.0253516
0.254337
8.65302
0.0254086
0.0352534
3.53264
2.98739
0.0252316
22.3995
0.0253064
0.0931074
0.0294075
0.0255409
0.0254968
0.0252998
0.0646004
9.65629
4.34691
7.48713
0.0247524
4.02319
0.0273343
0.0894058
0.0252571
0.0251199
0.0251314
5.57472
0.0253412
0.035661
0.0594914
0.0251683
0.0263452
3.02298
6.28014
0.0259051
8.31115
11.2898
0.0251493
11.5763
0.0250076
12.9617
0.0350827
0.188778
34.8762
0.178309
0.133163
1.41756
46.6975
0.339333
3.39339
0.0254344
0.0256348
0.0994702
0.0443693
9.39089
0.0255252
5.1871
0.0254702
0.0274492
0.117881
0.0252317
0.0337943
0.257548
0.0281578
2.03642
3.5662
1.14189
2.37619
4.57527
5.05471
0.0251714
0.0250338
0.0315235
0.0251333
0.0269377
0.0253374
0.138475
0.0267345
0.285503
0.0325101
0.0331695
8.06214
0.0502812
0.0627523
0.0256819
3.88968
3.82351
0.0251468
0.0256481
1.49405
8.14626
0.028463
0.0254072
4.89454
4.64543
1.10208
10.0183
0.0272024
0.0308621
0.0527385
0.241038
0.0253518
0.0256532
0.0512663
0.101304
0.0350411
0.0267694
0.319676
4.28457
0.0256403
0.0250292
12.2154
0.132356
0.0910742
4.30623
5.13932
0.241402
5.24898
5.10614
0.0993564
0.496538
0.025309
0.0254303
0.0825627
0.0251474
0.0722083
0.128687
10.3374
0.0266915
5.31475
0.202938
0.0251906
0.204342
0.0250606
0.0262492
6.64109
0.378514
5.10516
0.0409958
4.12887
0.0251757
0.14632
5.1882
5.2588
0.0253451
0.024652
4.07917
0.0388754
0.0255537
0.0253837
0.0254125
0.025152
42.1803
0.0914399
0.0250756
0.0250839
39.363
0.134362
0.0254276
0.0250401
0.0252594
0.043035
0.0350788
0.0273453
0.1291
11.7961
5.45671
0.0264337
0.0253444
0.0253098
0.0286876
0.043918
0.0256356
4.09366
5.41032
0.0277073
0.0254082
0.0251601
0.382853
32.7617
0.0248316
0.0253917
4.153
0.0260839
0.0292381
0.385092
0.025076
0.334868
6.31942
0.076083
0.0254051
0.0270362
4.44586
0.0746173
0.025352
4.06978
0.025271
4.31204
0.0601903
0.0299257
0.0256858
0.0248593
6.90603
0.0253484
0.0647082
4.70879
0.0436927
0.0251713
0.0543168
19.4006
0.0342243
10.3281
0.0392395
5.8215
10.7858
9.00755
0.0253464
0.962797
0.026888
0.0254138
0.0250831
0.025057
41.0677
7.37054
5.34912
0.0694463
0.753248
0.0252584
0.0289901
0.0253945
0.025293
4.08384
4.39285
0.568357
0.0256741
4.01894
0.0710413
5.18046
0.298753
9.89793
0.299419
0.219048
10.8389
15.6572
0.456444
7.27078
0.0253143
4.26021
8.12078
0.141744
4.22305
4.31901
8.99076
0.0590308
4.35137
0.037898
0.169497
8.66362
0.0279677
0.0254093
0.0254084
0.0253963
9.15137
0.194769
0.0307195
0.0248727
0.0250619
0.025368
3.18266
0.0251254
7.09314
0.135489
10.107
0.0251612
0.311019
4.52472
0.0252117
8.47838
5.91623
4.26898
8.87429
0.025648
0.0340858
0.126651
0.0255244
0.0514951
4.44432
0.0262667
9.55727
4.35227
0.257168
0.0252601
0.0250674
34.5344
0.0505771
1.72593
0.0273751
0.149459
0.0736683
0.0778071
5.00117
4.2056
0.0413158
0.172202
0.025408
0.0256527
0.0254046
0.172742
9.02043
5.51131
0.0434518
0.0608091
14.9008
0.134342
0.0355832
0.0272446
0.516546
0.0250269
0.0259571
0.0255266
6.11608
0.0264668
0.0252551
0.025407
0.0250207
0.127681
0.0254849
0.0253843
0.0254112
7.96353
0.025139
0.025391
4.13489
0.0251514
0.0297377
10.6731
4.29456
0.0250624
0.930274
5.23272
5.21844
0.0251157
4.1887
0.0250296
0.378832
0.024819
2.29291
3.0981
0.253118
0.0252583
44.2026
0.0289846
0.0251043
0.0250326
0.0330939
10.9442
0.0277484
0.0253709
5.95288
0.0260719
0.0332666
1.04911
0.0251042
0.0252913
0.957658
10.0285
0.024597
0.0253658
4.95172
9.30871
0.154725
0.0245969
15.0425
5.18353
13.3833
0.0250701
0.103317
0.0252216
0.0246485
0.0313235
0.0945448
3.97028
0.0246468
0.0264885
0.0254389
0.0248504
6.08206
14.7398
0.744128
0.0634072
1.18892
0.0251485
4.08946
68.9701
12.8559
0.0283314
8.98192
0.0254111
0.0252647
0.0312712
0.0257707
0.0412025
0.025241
12.3104
3.70838
4.00967
0.117358
0.0269276
0.200175
0.432402
0.200545
0.0248642
9.94462
4.83921
0.0253105
0.795219
0.0253675
0.0318156
4.54055
0.145948
0.0256405
10.5783
0.0254424
9.07682
0.202059
0.187653
0.102891
0.0355722
0.1011
0.111673
0.0248288
0.186075
0.0568521
0.479156
0.0479661
4.47647
3.79381
0.0253604
0.0252842
0.0251393
0.0252596
0.0635944
0.0254345
0.024841
4.32442
0.339635
0.0640131
9.96726
0.0298164
24.5371
0.0251439
0.0253853
0.237199
0.0251574
0.0427065
0.10895
0.176221
0.173479
8.82517
0.0629092
0.669042
2.47769
0.110982
4.25704
0.0260439
27.9763
0.102484
0.0279021
0.170057
0.118583
1.07939
10.2449
5.69206
0.0256351
0.0299588
10.7146
0.0251449
0.0352796
0.0641302
0.180707
4.39802
0.0252528
0.174148
4.75213
0.0252594
0.0253539
0.0246041
5.15996
0.0784236
0.026464
6.7647
8.49496
0.0251393
5.25781
3.91694
0.270471
0.824416
0.169928
0.0649563
0.0916843
9.30109
0.0648585
0.0251096
12.0343
0.0254425
0.0252509
0.0251417
6.67388
0.0255687
0.125105
0.0262609
7.42605
0.136725
0.0252915
0.0279643
5.36337
0.0250153
0.0255328
0.0252281
0.0583682
0.0252496
12.6282
0.034832
0.0254389
0.173113
0.123541
9.9787
0.0259213
0.19134
3.7981
4.52897
0.0251672
0.0306813
0.025071
0.0251837
0.16407
0.0315294
0.0251354
0.0264578
0.0541905
0.0252949
3.8424
0.0287675
0.0629764
0.0253382
0.0251938
0.0280103
0.0251877
0.0318415
0.236003
0.0256739
0.0253624
0.0253441
9.81718
0.0481795
4.44862
0.0277317
4.04771
9.2332
0.246806
0.0413854
0.0601008
0.0254388
6.48191
9.27429
3.79762
4.36165
0.0867949
0.13822
0.141248
0.300873
0.073346
0.026316
0.0251988
0.0634853
7.9555
0.122903
0.052221
0.0254045
0.0640515
0.0252479
4.0689
0.024875
0.190282
0.0272308
0.761417
0.0252986
0.694716
0.0340436
0.227419
0.0253568
0.0272401
1.52089
5.03087
0.0461601
0.0463003
0.0253199
0.0253945
8.87644
11.7416
5.54265
0.0258974
0.184957
0.0321013
0.0430733
0.0253592
0.197171
0.0254355
0.0252184
0.0267809
0.0254393
4.20901
0.0254348
0.0251806
0.0256594
0.0266512
0.0256745
0.0322165
4.58402
0.0301523
8.02651
16.2238
0.0251899
0.059053
0.0251427
0.0266316
0.0251529
1.26315
1.85859
0.0253767
0.0252411
0.0360904
4.2551
1.60821
0.0253653
0.0250108
0.0465523
0.0252216
13.2456
24.6645
0.0254387
0.0354012
0.191213
0.236482
0.0255472
0.410039
3.78565
0.0254387
8.6657
0.0255625
3.97152
13.7927
0.0249999
0.0615655
4.43239
5.57381
0.025061
0.173999
0.0253099
0.0250442
5.29125
0.0276204
0.0277808
0.0254075
9.26114
0.191216
0.0415938
0.247594
0.033346
0.0260684
0.099804
5.85052
0.0252911
4.09902
7.85065
0.0333334
0.0259897
0.0271251
0.0252558
0.0740734
0.0252168
0.0256352
0.0721394
4.22163
0.043466
0.0256801
0.0687062
5.32823
0.0246044
8.08896
0.0263954
0.326019
0.086323
10.5801
0.0255341
4.31571
0.0250437
0.0246035
0.0253381
0.0339869
0.0253007
3.44043
0.0254423
0.0252526
6.83393
0.0253561
0.0251696
8.57966
0.0255806
0.0250045
0.0252978
2.1864
4.14834
15.4338
9.5512
1.29505
4.35327
0.0252816
0.0276695
4.00966
0.0834986
0.722906
15.9361
0.0310658
0.339364
3.9922
0.0252559
4.86166
1.60537
0.0249882
0.0307875
0.0255945
0.0253809
0.0257976
0.332134
3.80709
11.1204
0.135801
0.0252952
0.116256
0.0462918
0.0252449
5.97179
0.0250141
0.0251451
0.216913
0.025217
0.0624705
0.0246533
0.0632208
8.84098
0.121989
0.0357
0.0382121
3.89751
6.24275
0.0669923
0.39689
0.0415966
0.0335411
11.8816
0.0641597
0.0252353
0.650574
8.11711
0.0246121
0.0267622
0.0699346
0.162992
0.0971859
0.0920146
0.025354
1.27585
0.0967394
0.0254008
0.0272388
0.0258684
0.0251265
0.0254055
0.154666
6.65753
0.0266482
2.09509
0.0284924
0.0250719
4.04449
0.0515137
6.36501
0.135383
11.527
0.0785336
4.9549
10.1366
0.0262271
0.0465213
3.996
3.86526
0.515142
0.0726461
15.3223
0.376893
3.47013
0.0253395
3.85639
0.0252994
0.0252969
0.0651983
0.125037
0.0250551
0.11455
0.508078
0.0272309
0.0253991
9.93705
0.0252781
6.81416
0.0395794
0.0255616
4.98866
0.0343972
0.0506135
5.25642
4.87996
0.064054
5.37771
0.716753
0.025296
0.0256599
8.94555
0.0590567
5.90496
0.0250216
0.035592
0.0251303
0.0251437
10.3603
0.0655037
0.0253399
9.59627
0.02503
0.0825617
0.0348042
3.90395
4.04116
0.0254312
0.0345472
0.026521
0.0252403
6.33027
0.0253122
0.0695615
9.73765
0.0252196
0.0249798
6.3514
12.546
0.0262255
0.0413566
0.02531
0.0254476
0.0254774
9.29779
0.0336261
1.16686
0.0581282
0.929513
0.0323823
0.0250187
0.0974389
0.0966984
0.0256405
9.71973
3.09052
28.9354
0.0272075
0.0253704
10.4002
3.60988
8.79372
0.0256635
0.0253538
42.4556
0.0256893
4.16399
0.0251963
0.0254504
0.0309041
0.0250748
0.0252271
0.0255386
0.0266892
4.77911
0.0253381
0.0333142
0.1261
0.0942859
0.0254053
0.0255713
6.39636
0.0809492
5.31579
0.0298337
5.09958
0.0251209
0.0253561
0.0340508
4.34961
3.85814
0.0358846
3.41417
0.122985
0.0574574
0.0288297
0.0408168
0.0254813
0.241457
0.0725737
5.6072
0.051172
0.0412335
33.334
0.0874845
0.0254532
0.0509183
0.430059
0.0255613
0.257872
1.19841
0.0252325
0.0642967
14.7004
0.0250976
0.0253093
0.0253331
0.0252116
4.55415
0.145765
0.125012
0.0864413
0.025022
0.375987
0.0249955
0.0262391
0.0251889
0.049974
0.575461
10.831
0.130399
0.0250934
0.0809812
0.0925544
0.0254012
27.5515
0.0255658
8.89078
0.0260193
15.3416
0.682356
0.061071
0.0515072
0.0254764
0.0256259
0.0323375
0.0388227
0.122655
0.283204
0.025222
4.95288
4.12339
1.07053
0.041405
0.0317652
14.2082
0.0253971
9.27
0.0251958
0.0253341
0.0537081
0.0256354
13.2615
0.0253432
9.06031
0.025052
0.025339
0.024891
0.0259502
0.242918
0.0251235
0.0884611
0.0265956
20.0855
0.0253554
0.392979
0.030452
0.0610199
0.0392646
0.0256948
2.22036
0.0482733
0.0256625
0.103312
0.0314861
0.0876491
0.0376524
7.84714
0.0451044
5.98707
0.0303697
0.025566
0.0309248
0.028513
0.047707
3.93232
0.035055
0.025641
0.0256356
0.0252979
0.149642
7.87178
0.0256408
6.30649
0.0922483
5.24949
4.9749
10.9211
0.02535
0.0406173
4.19434
0.0502702
4.27912
12.1652
0.0854719
0.025561
0.0424284
0.0256796
0.0253474
0.0495671
0.0252854
5.31731
3.75882
0.128472
0.0253958
0.496543
0.0256784
5.93878
10.3945
5.92717
0.0343114
0.0253099
10.6551
0.0640117
5.7758
0.0908088
13.5559
8.54818
9.55948
0.02548
0.0252314
1.9788
0.0277537
0.0253547
10.5184
0.0257686
0.092207
0.0250467
4.10172
0.0252423
0.0252519
0.0491201
0.025244
11.2345
0.0358424
5.75955
0.0252987
0.0253672
0.0252829
0.0343403
0.164087
0.0253918
0.0252245
0.0251601
0.217778
0.224466
0.0309653
0.025259
0.0348678
0.0628411
0.512541
0.124788
0.0253684
0.0252062
0.0270392
0.0252237
0.0278515
0.0253078
0.0752445
0.579755
0.0501626
0.099434
4.17141
0.0253741
1.28989
10.8116
0.0253622
0.0256826
0.0251986
0.0253405
9.20682
0.0655851
10.797
1.10445
0.0648752
0.162892
0.0650144
0.0648903
0.0407742
0.0254827
0.0250534
0.0283635
0.0405523
0.0253427
11.7534
3.72368
3.77263
0.0311555
0.0260998
0.0349701
29.0682
4.80447
0.0256811
0.0250209
3.92711
0.0282635
9.84651
4.39169
10.3442
3.88757
4.16423
0.0250468
4.75991
4.11597
12.9491
0.0253189
0.0264066
0.211435
2.33763
0.152903
9.50758
0.0478688
0.0884534
0.0246446
0.0251428
6.67572
0.0324488
0.0262077
6.47249
0.0358849
2.3586
0.158575
0.0253593
0.0251096
0.0276701
0.316637
11.3834
5.7848
5.25935
0.0251855
0.0311594
0.133045
0.0279695
0.0270475
0.0256949
10.254
0.114716
0.024725
5.24744
0.0253351
0.0336884
0.0253574
0.179204
0.705069
4.08789
0.0253311
0.0913564
3.16097
0.0487407
0.0255656
0.0469396
0.0253142
0.0250102
0.0276467
0.0266029
5.63521
0.0412339
0.0259532
8.31503
0.0253894
5.05436
0.0247298
0.0254777
0.158429
0.0316229
0.0284121
0.315366
0.0253171
8.93426
0.0250036
0.902176
0.182581
5.15637
11.976
0.0259268
0.0359946
0.0248625
0.0401284
1.01582
0.0269757
0.0253607
0.0409723
9.78009
31.605
4.06194
0.0254827
0.114873
6.18335
0.025566
0.153815
10.3729
2.26224
0.0476957
0.0291998
0.0412622
0.0255341
0.0276406
14.9186
0.0250139
0.0251114
0.0253342
0.0576779
4.16972
0.127631
0.0257587
0.0778947
0.0250311
0.0252159
0.0284721
0.06852
0.0253242
8.58414
0.332227
0.0678793
0.0253209
5.51886
0.0267668
0.0251154
0.0254652
0.0295474
0.148127
12.5096
0.0770377
0.0914642
0.0265435
0.0254851
3.77956
0.0602926
0.0963313
6.13061
0.36979
4.25395
0.0683193
0.0271251
0.0413403
0.0488125
0.0318456
10.4543
0.0251582
0.0251978
4.7481
4.02707
9.70567
0.0254877
3.44614
0.0256749
0.0265349
0.0986497
9.34369
0.026708
2.94616
0.0289615
0.156086
0.033064
0.0277693
0.080428
0.025337
0.0253428
0.103097
0.34897
0.0328827
0.399991
11.5048
0.467607
0.0299214
0.0253197
22.1126
0.025118
4.36688
0.0264172
0.0308236
18.4771
0.0442079
0.127028
5.52568
1.58661
0.0270021
0.0250142
10.3436
0.0369064
4.38549
4.04379
4.17782
8.12651
0.711466
0.329172
0.025452
0.0321021
4.50254
0.0686263
0.0264867
0.0248842
17.1203
0.0284382
0.0278902
0.720732
0.0293588
0.0249676
8.22739
0.0625101
0.0277854
3.88299
0.180424
0.0253143
0.0261763
0.033551
0.0272937
13.0159
8.3505
27.8636
0.0251185
0.025381
0.212958
0.246521
0.0380651
0.124636
0.0417797
1.99558
0.0253999
0.287559
0.0250122
0.0939793
0.0256804
4.41276
0.160457
8.95141
0.126818
3.45084
2.48105
0.228234
0.0256364
4.33621
0.096914
0.0254683
8.95843
2.30675
0.0253325
0.0467436
0.0256409
0.026489
4.23423
0.0253401
0.253014
0.0253048
0.0364146
0.0638566
6.15532
0.024644
1.3212
0.114527
6.23228
0.0254495
0.0265611
0.0256778
0.103769
0.0255062
0.0271029
0.0255196
0.0253432
0.0252771
0.0470436
0.0304924
9.32348
0.22368
0.295258
0.0252538
4.14229
0.0249748
0.0254397
0.0254433
0.0255462
0.0960808
0.0255797
0.0298842
0.0253978
0.0256541
0.0320973
4.36132
0.0254432
0.0270356
0.225321
0.103994
8.31721
9.2757
0.202321
0.0253552
0.036252
0.0614982
0.0255023
0.358219
0.0256798
0.324314
0.0252798
4.69936
0.163923
12.2695
0.0294795
0.0253296
0.026395
5.75363
0.328625
0.0247521
4.06595
0.0257293
0.126446
0.0249866
5.43794
4.27542
0.0254635
0.0252327
0.0334387
0.200444
0.0258776
0.0358398
4.34013
11.1987
0.0263664
5.35118
0.0277882
0.0267805
0.0823148
1.79465
0.0975995
0.289133
9.77509
0.0250697
7.82512
10.9788
5.61152
6.85679
0.0359638
17.0229
3.94073
3.71813
0.511555
5.92155
10.1362
0.380921
0.024811
4.25178
0.0502245
0.0265308
0.0929086
4.91132
0.0621662
0.0252676
0.0361815
0.129821
12.9453
0.0294322
0.0404072
0.0249889
13.5203
4.2603
0.30963
0.04136
0.024637
8.33522
0.0248218
2.57428
0.0262976
0.0254611
4.31464
0.0249591
0.0248853
0.0272636
0.0252679
0.0507939
0.0262874
9.09474
8.4356
3.73753
0.0251689
0.211505
0.026912
0.0589286
0.0348246
0.0264292
0.0255782
12.2822
17.4017
0.0252886
0.030737
0.0255613
0.0253624
1.93045
12.4537
0.224993
1.2921
15.0301
0.15616
0.0253439
0.0253394
0.0250055
0.0993613
0.0514205
5.91517
4.12421
0.0249736
9.72886
0.125654
0.0452324
8.17173
0.157959
1.19795
0.0246959
4.94102
0.0254546
0.0248098
0.0253242
0.0249926
11.7457
0.0602242
4.18752
0.0253287
0.0253424
3.73921
12.9913
0.389899
0.0255097
5.08385
4.20928
0.159295
0.0780764
12.749
0.0278979
0.0263532
0.0306309
0.0253447
0.0266151
0.0404482
4.09294
0.0255945
0.0252066
4.11489
0.040554
0.0297754
0.0264428
0.160879
1.22252
0.0252959
0.0977713
6.1776
0.0248825
0.0251356
0.0474345
0.0268675
0.025161
0.504302
0.219687
4.12202
0.167384
0.0278452
0.0412059
0.0253912
1.42858
0.0487935
0.0250065
0.0306878
0.0253733
0.81927
0.0253919
10.7131
0.0253497
0.0250841
0.221874
0.0254018
0.101157
1.53292
4.56511
1.01953
14.3425
0.0479076
6.57851
0.0254046
0.032777
4.22512
0.16024
0.0666339
2.49509
0.0254967
0.0252079
0.0258178
0.0585274
0.0251381
0.159313
0.0250658
3.71116
0.0254278
13.8768
4.13387
5.56985
0.422439
0.0680633
0.0256491
0.0822771
0.730406
0.0251839
0.0254393
13.9271
11.4593
0.335239
1.86757
0.0249993
11.6159
4.40544
0.0261426
3.77177
0.0253415
0.0247016
0.0255622
0.0346372
0.0267545
0.0329598
4.29916
0.160489
0.0502688
4.38836
0.0251923
1.09393
0.0251627
0.0256742
9.68838
5.11723
0.683106
0.0250386
0.285108
0.762588
0.169778
12.087
0.0256642
0.0284216
0.0255589
0.0248862
0.0406053
0.0254027
0.0573184
0.0255531
33.2203
28.9903
3.98874
0.0368552
0.0824991
22.3841
0.0250761
0.0257073
21.5915
0.025582
0.0282024
0.0248996
8.87321
5.84958
1.237
0.0254386
6.87385
4.01755
0.0824632
0.0249949
0.144254
0.0251004
0.0733304
11.3769
4.83279
0.0250365
0.0397849
0.0250063
0.0262201
0.0259506
0.0254182
0.0255597
0.66604
42.43
0.0255634
0.0248117
6.97877
0.0253026
0.0253987
0.0253552
1.94883
6.84823
0.0415817
0.0283135
0.0256795
0.771953
0.025332
7.70689
0.0500305
3.95864
0.0252731
0.0251939
0.0256896
0.137887
0.0250032
5.6106
12.1471
0.0249965
0.0340343
0.0250283
0.0449458
1.3904
0.0402075
0.138029
0.255425
0.0259902
7.61134
0.342376
0.0247121
0.0252881
0.0414303
0.0273618
0.0253588
0.0359819
10.0096
3.85526
0.025212
0.0250035
10.9255
0.1298
0.0396739
0.0251564
0.0284556
2.23387
1.25263
7.01383
4.10116
0.0256174
0.278057
0.0256536
0.0594679
0.0355308
0.031276
30.5022
0.0402637
28.7669
0.0606123
0.371172
0.0251578
0.0251883
0.0265963
0.0247267
4.15899
0.232476
4.31549
0.0256488
0.0510787
0.0620165
0.0250888
0.148399
0.0262115
8.62935
0.0253505
0.247432
3.3599
0.0267376
0.155013
0.0252457
0.313633
0.10912
5.61953
0.0261558
0.0325042
0.024689
0.0318711
0.0307099
0.0250058
0.29927
0.0252008
0.0256656
2.45782
4.36936
0.0256052
0.22305
9.7854
4.60159
0.0494949
9.50392
0.0253442
12.6644
0.164909
0.0279857
3.45721
13.5795
8.53657
0.830005
9.93505
0.0248811
0.0252302
0.0250746
0.0671585
0.0295296
0.0254197
0.184101
0.0489536
4.26695
1.7581
0.156082
0.025565
0.0500408
4.37829
10.417
0.0282938
4.20487
0.0249922
0.0605324
4.57676
2.49985
0.940251
1.52861
0.0254857
5.73042
0.0253476
14.6086
0.0253551
2.54863
4.08776
0.0254218
0.149426
0.377843
0.0254993
0.0254814
0.0251715
0.0250903
4.227
5.99922
9.28618
0.0253412
0.0252636
5.58038
0.040139
0.025267
0.0251802
0.0252748
0.0255031
5.13742
0.0653262
0.417812
0.0394469
0.0604494
0.0253515
0.0354688
0.025187
3.77208
0.0253719
6.70773
0.236198
0.0254363
12.4886
0.025324
0.0252155
31.4439
0.0784576
0.426316
0.0255016
0.0253374
0.0254521
0.0252588
0.0455985
0.0253974
3.74144
0.0350968
0.025137
5.08225
12.9037
0.326005
0.610534
0.0250753
2.32985
0.0460212
9.63583
0.0745687
0.0252708
0.0271431
9.54908
0.0474166
4.03304
0.253226
0.0255113
4.08005
3.48774
5.21234
0.0253467
0.0255952
5.93462
0.0253055
0.0317808
0.0254807
0.0254345
0.0254024
1.37483
0.0339337
0.0250402
3.88037
9.09503
0.0318907
0.0398833
0.025002
0.0256541
4.1489
10.1298
0.121892
0.0250029
11.9518
4.38417
0.0314198
0.0252783
0.228274
3.92313
0.0250777
0.0549676
0.0264692
5.18328
0.0254768
0.0253448
0.0499463
5.35393
5.77251
0.102502
4.033
5.22202
11.2857
9.23455
0.0380712
0.0310301
0.0252016
8.07512
0.0254328
0.204988
0.0379948
0.0253157
0.0252754
0.0941191
0.0256756
13.9387
0.153263
0.0348538
0.120454
11.264
7.15484
0.0250975
6.59796
0.0332229
0.0279819
0.0395803
0.0271006
6.4861
15.4471
0.0695147
0.0645473
0.0256925
0.0251772
0.385204
0.0886906
0.0366121
0.0418877
0.0252693
3.804
0.0252674
0.0250144
0.0311287
3.78788
0.246362
0.0611465
0.409681
10.2204
0.0254012
0.171184
9.6264
0.0251997
0.0307206
4.95263
0.0256032
0.0253174
0.0283671
3.74223
6.75196
9.10356
0.0585348
0.0252599
3.96261
0.0252561
0.0661747
0.0253702
4.15271
2.58894
0.0254087
0.0685262
0.0251455
0.0286126
0.0505095
10.4305
4.35818
0.025399
9.03153
10.0183
0.0658336
0.481278
4.59174
0.0249867
1.05655
0.0344091
0.142496
8.09679
0.0249834
0.0253228
0.025112
0.0260416
0.0282252
0.0254745
0.0400241
6.15272
0.122599
0.0251864
0.0253968
0.0253142
0.0261445
0.237093
0.0255649
6.39542
3.60892
0.0255234
4.31508
0.0305956
28.1913
0.174424
4.36589
0.0716356
0.0251177
0.0307305
0.0251747
0.0253302
5.10278
0.0254989
0.0500262
0.0352652
0.195303
0.23866
0.394112
0.0323601
0.0249322
5.44114
4.40641
0.0253083
0.341682
0.0253214
0.0252998
0.0253997
0.0252647
0.025373
0.0298265
0.0252666
4.98001
0.0254065
9.51398
0.147655
0.0254089
0.548574
0.0254519
0.0332305
0.065427
5.16795
11.9247
0.0606618
0.0462243
0.52451
0.0834617
0.178847
4.05601
0.0251134
0.0254613
0.0250692
0.513956
0.0304616
10.6469
0.0320936
0.0553015
0.0250915
0.0314015
0.0270767
0.0253152
0.0287704
0.0285009
0.035459
2.60593
0.0253757
0.0253353
0.0262329
5.01113
0.0250892
0.0259987
0.0356396
3.91862
4.22577
0.265082
0.0888784
0.801146
0.0247568
0.0249769
0.0930105
0.203079
0.0254964
13.2528
0.0254336
0.505643
0.0254394
3.58852
4.10945
0.0250214
0.0249333
4.97777
0.0253586
0.0253454
0.0316122
14.6235
0.0453413
1.05941
0.0946199
0.0254421
0.0927791
0.0726556
0.0387977
4.13609
0.146197
0.0349524
0.169532
0.0254458
0.0252217
0.0256595
0.0321059
21.8754
0.0249405
0.0246903
0.0654234
0.0487666
9.36135
9.00532
0.121796
0.0306542
0.0490081
0.024921
6.40219
0.0255654
5.06355
0.0603047
0.0248684
0.0256426
6.62915
0.0993655
0.0251068
0.0252831
0.0260928
0.225643
0.102343
0.0251036
0.0247605
0.0246739
0.0612276
5.27069
10.6529
0.0251648
0.0255913
4.98571
0.0248273
0.199831
9.74734
0.103603
0.0729238
0.0346977
0.0255773
0.0546694
4.09899
0.025517
1.34375
0.0785512
0.0275677
0.025465
0.0501961
0.025997
0.0568965
4.25779
0.0433321
0.0600909
0.0254073
0.0251139
6.63246
0.106187
12.9209
0.0249733
5.70384
0.0251073
0.0348771
0.0257418
0.0254277
0.0254762
0.0255161
12.3911
0.0249744
0.149605
0.034202
0.0260541
0.0413117
0.0251906
3.62485
0.211652
0.0255198
4.33734
0.0255968
13.0334
0.0344328
0.236373
0.758205
0.0255208
16.1549
0.0299921
0.0246832
6.00801
0.0251953
4.39246
0.0249746
0.0253375
0.091578
0.025334
0.0603755
1.64905
0.268893
0.0254041
7.47873
0.311151
6.88045
0.0252011
9.09774
14.1271
0.0254537
0.0604935
0.0253561
0.33762
0.0578304
4.05931
1.49329
0.124412
0.0247649
0.0256794
0.0384459
10.1417
3.9789
1.06118
0.0253422
4.11065
0.0256186
0.025371
0.0253002
0.155362
0.0254339
0.0254357
5.35078
0.189984
0.0353322
0.253875
0.0254799
11.1542
0.0250474
0.0352997
0.0770485
0.0248963
11.4117
5.49746
1.26965
0.59896
5.51555
0.0250905
0.0252369
0.0247205
0.0843664
0.670539
0.0252618
0.0500289
5.57905
1.18698
0.492789
0.039275
0.0407865
0.0293716
8.95492
0.0255612
0.025309
0.0246745
0.065147
6.74842
3.79589
22.5043
0.0338511
5.4061
0.0253376
0.0255774
0.0253556
0.094981
0.0480479
0.189789
0.0969713
0.0341414
0.0253409
0.04132
0.0333275
0.0427362
12.0787
0.0253513
0.0253181
0.126256
0.172009
0.0249085
8.15641
0.0258145
0.0253583
0.0268722
4.69861
0.025281
0.0254494
4.9856
0.145506
11.3027
0.563628
0.0251418
10.1076
0.0254418
5.9466
4.28519
0.0339044
0.260299
0.0324513
2.33265
6.59494
0.0712383
0.024915
30.1249
0.0252747
0.0482134
0.025338
4.13533
0.0275575
0.121377
0.0324827
0.0608718
0.0279654
0.296805
6.21245
0.0258728
0.122362
0.64348
0.0888625
0.0403554
5.24747
0.0252229
0.0801667
0.0250991
0.035241
0.0251869
12.6
13.2904
28.7401
0.0250867
1.82725
0.0700606
0.0352756
4.31703
0.0255168
0.0251048
0.126031
0.0256759
0.204852
0.163245
0.0252365
0.0399457
4.57533
0.0256405
0.0253513
0.0388551
5.10563
0.0493137
0.0423542
0.0316089
0.130124
0.170151
0.0381695
43.4195
6.97166
0.0271444
0.0250768
0.0484486
0.0254255
0.0253458
4.11996
0.0250683
0.0253129
28.9089
10.4047
5.5897
4.26179
0.0251239
4.88119
0.0253787
0.095314
11.5356
0.0255658
0.0253469
4.06987
0.065938
0.089754
0.025496
0.0450747
0.0253362
0.0300382
4.4468
13.0148
0.140754
0.0254388
0.0249629
0.0267574
0.0264679
4.39611
4.02425
0.0266178
2.70188
0.602649
0.732518
0.695076
4.20503
0.0255111
5.41571
7.41202
5.43784
0.025157
0.0599934
19.4735
0.339899
0.0483193
0.0476603
0.0351529
0.399718
3.4077
0.0251466
0.0254632
6.71821
11.3265
3.93831
0.0255123
0.0253427
16.1643
4.43514
0.0271399
0.0366329
0.0254383
0.0260162
10.4725
8.32807
0.0344826
4.21552
4.10805
0.0253209
0.0269421
10.6402
0.0655212
0.0509024
10.1228
0.0251168
0.0256216
0.0253587
0.0253775
0.0260981
4.26203
0.026762
0.02564
0.025238
0.058284
3.28481
3.6693
0.0254594
0.379133
0.0253903
0.31754
4.3444
40.2296
0.02678
20.8739
0.345431
0.225158
4.38717
0.234852
0.0925466
3.86409
4.06727
4.04222
0.0250452
13.3529
0.0421854
4.00291
0.0254524
0.161543
0.0246367
8.25637
0.0817251
3.85795
5.45408
0.0886653
0.0254663
0.0918819
0.0858739
0.209958
0.311228
0.0251839
0.0412542
7.2974
0.374935
0.0483163
0.0725506
0.0253135
3.97811
0.0251718
20.7802
4.20903
12.9325
3.93136
0.0600024
4.03232
0.156679
11.3849
3.97624
4.1612
6.99597
7.06097
0.0409207
0.160669
12.3835
0.744772
0.222335
3.84835
0.0250745
0.0254384
0.0253342
0.102518
0.025343
6.98603
0.0256958
0.0580281
0.0253116
0.0956983
0.0260616
0.0255582
0.0248598
0.0285307
0.0397493
0.0254953
0.0545355
3.92979
0.0869169
3.456
0.0287881
11.2161
0.0251786
2.75582
0.0256352
0.0254047
0.0256643
0.0254806
22.1257
0.0398584
0.0310513
0.0253323
0.0253933
0.0252606
0.752531
0.0252138
0.0517253
5.14307
13.65
5.03016
0.025204
12.5725
3.93612
0.0268633
9.06216
0.0403806
0.160372
0.0608891
0.153642
0.025342
0.0257609
0.0470823
0.0269331
9.11579
0.024695
0.025109
6.63955
31.7646
0.0253116
0.0251647
0.135146
0.0336324
0.025427
0.318532
0.0253213
30.7782
0.0254575
5.08757
0.0276914
0.0293789
0.707607
5.50278
24.3965
0.0397415
3.97464
0.0251718
0.0591761
0.189702
0.0253416
0.0254692
0.024895
0.0249599
0.0610627
0.0607883
4.16406
11.552
0.12223
0.126399
10.5805
4.21822
2.11256
0.0285949
0.0344138
0.025204
4.92672
0.0253334