/*--------------------------------*- C++ -*----------------------------------*\
| =========                 |                                                 |
| \\      /  F ield         | OpenFOAM: The Open Source CFD Toolbox           |
|  \\    /   O peration     | Version:  v2012                                 |
|   \\  /    A nd           | Website:  www.openfoam.com                      |
|    \\/     M anipulation  |                                                 |
\*---------------------------------------------------------------------------*/
FoamFile
{
    version     2.0;
    format      ascii;
    class       volScalarField;
    location    "300";
    object      omega;
}
// * * * * * * * * * * * * * * * * * * * * * * * * * * * * * * * * * * * * * //

dimensions      [0 0 -1 0 0 0 0];


internalField   nonuniform List<scalar> 
54593
(
0.025321
0.0632071
0.0251003
3.56214
9.58127
4.50928
9.95218
0.0968439
0.057534
0.0251513
0.0293193
25.2551
3.77064
0.0250816
0.107826
0.0309664
0.096728
0.0642134
0.0251519
0.0350178
0.0250985
0.0311075
0.0251413
30.1048
0.0248287
0.187548
0.0253232
0.0455967
6.30815
0.0251468
0.187186
0.310893
0.0252045
4.29457
0.0532832
0.0255732
0.0620852
0.0632227
0.0258919
0.0311252
1.57307
2.95816
0.0250382
0.0253225
0.398353
0.0264504
0.0995689
0.0837281
0.0247479
0.0592416
0.0252063
0.0247541
0.0280089
0.412599
0.133827
0.0252775
35.5889
4.7179
0.121448
0.0775165
0.0250423
0.0264075
0.0250812
4.01205
0.0253227
0.0305633
5.41088
0.285009
5.31854
5.29927
0.0247493
0.0526053
0.0253184
6.09596
0.0265692
0.0315006
0.0376637
1.50893
4.35984
2.06136
0.0251136
3.44728
0.0253235
5.31271
0.0270811
6.09502
9.29192
0.0901342
0.131308
0.0253457
30.2405
0.0347857
0.159957
0.270814
0.0412351
5.40577
4.54803
0.258477
0.0254059
0.0594473
0.0256337
4.10186
0.0260077
0.0253344
0.293042
0.0527529
0.0592355
0.0876867
0.0312648
0.0934485
28.862
0.0253236
0.0253482
0.193605
0.025254
14.2788
5.12327
4.31321
4.16829
0.154468
4.0743
0.025636
6.06299
0.039824
0.0251277
0.729136
0.0261468
0.0251287
8.2969
5.92226
0.0253153
0.0255064
0.0322492
0.0255659
0.0349308
7.50655
0.0248813
4.26508
0.0253338
0.0254008
10.1755
0.0895735
0.0318595
3.41952
0.0412074
0.279278
5.58245
0.061131
5.44289
0.0256053
0.0853923
0.0255831
0.147982
0.266339
0.0252583
12.2221
0.0292466
12.2438
0.108184
0.0254033
0.826557
0.0281131
9.57416
5.43734
0.0449046
0.0254336
0.0250553
0.0250473
3.73754
0.0256811
0.208943
7.54844
0.134261
0.0256409
0.0570895
0.0251908
24.8989
0.0274711
0.026436
1.38875
4.28011
0.0246431
6.32642
0.0256671
0.0256408
38.7453
0.0254893
0.0278424
0.0250888
1.56002
0.0264424
4.05357
28.1334
0.0253136
12.5536
5.4726
0.0253029
0.0288321
0.193762
8.52556
0.0360096
0.716408
0.0823922
0.0259617
0.0259114
0.0258986
5.81201
0.0269519
0.0258942
0.0250965
0.0254047
0.025086
0.0246415
0.0317894
0.0409392
0.204983
31.3398
4.00835
65.0725
0.025303
0.0309063
32.8983
3.64875
0.0264549
0.299487
0.0411096
0.025667
0.064586
0.0251192
0.10401
0.0260961
0.190459
39.1563
0.025635
0.0255502
4.49576
0.207043
0.0255634
0.295915
0.0255591
0.0264507
0.0321081
5.39387
0.179847
0.0262798
0.0270445
3.88464
0.36733
0.0250215
0.95079
0.177962
3.85185
4.93807
0.0252519
0.026483
0.0252175
12.7533
0.0265687
0.253489
0.0310955
0.0719937
4.08096
0.0255102
7.58084
0.040774
0.024988
12.9651
0.0250241
0.0310249
0.0254317
5.88836
3.3983
0.0331321
0.0253196
0.0270226
0.0252509
0.0264947
5.28428
0.0250144
0.0976185
0.0255232
0.0345046
0.0286933
10.2204
3.87736
1.08407
0.0312206
0.0257727
0.0413367
37.6407
3.86
3.46174
0.0252573
0.0254115
0.0698002
0.0256618
30.9676
3.3293
0.0252539
0.198545
0.417993
0.0260556
0.025408
0.0256757
0.0252672
0.0253371
0.057799
10.7834
0.0255776
0.0252986
4.92616
0.0572076
11.0219
0.025535
1.33501
10.0654
0.342002
0.93769
0.239082
0.025554
0.079158
0.0250227
0.330274
0.0449211
4.50388
0.0606279
0.240575
0.0249813
4.16006
0.040682
0.0254387
0.0340556
0.0253311
0.0281853
0.025683
5.91476
0.0288553
8.36672
0.339538
0.0304716
0.0570835
0.0282185
3.71785
0.0266153
0.025339
0.156667
0.0591525
0.191746
0.19524
12.9396
42.0218
0.0254146
0.316295
0.162578
0.0253406
0.0250478
0.0355306
0.0254152
0.0253476
0.0253091
0.196755
0.0310315
0.0267442
8.90441
0.141316
0.0254985
0.0254152
5.45152
0.0381152
0.0253103
0.0274478
0.0252689
0.0250225
0.0255675
0.0287144
10.5539
0.0250728
5.98383
0.0329938
6.05032
5.67895
0.0445659
0.262825
0.366734
0.0810355
6.26765
35.5568
0.0253307
5.36633
0.253963
0.199538
0.121339
0.0286968
0.0250513
9.81491
10.9012
5.90939
0.0577007
0.158371
0.0648441
0.0273491
0.0866179
4.30628
0.241894
0.313602
0.5885
0.024949
0.306022
0.025231
0.269108
0.319321
0.0250827
0.0254057
0.105491
0.0253107
6.00667
0.0429186
0.0253407
0.0254115
0.0444223
0.0720874
8.34
0.0608498
0.0997024
8.48805
13.5099
4.15217
0.0501776
38.7278
0.0447867
5.23098
0.0520376
1.25095
0.0573512
0.0646752
0.0331483
0.0253206
4.47485
0.132952
0.147028
11.8418
0.0256409
0.0251206
0.025428
11.4687
0.0682612
0.0252807
0.0254094
0.14342
15.6558
0.948996
0.353856
0.147953
0.070503
3.59198
5.45303
0.0493822
0.0254423
0.0265386
0.166051
0.0252837
0.0250136
3.49407
0.0254455
0.0250121
0.0944363
0.195877
0.0254536
0.0445228
2.67775
10.6572
22.74
0.0386856
0.0248791
10.9674
0.0255719
0.025675
3.98147
11.4666
0.0254561
0.0581414
0.0253397
0.239176
0.0615701
0.0253423
3.29333
0.326169
1.25269
0.0248252
31.8955
4.81603
0.025641
0.0252709
0.0301626
52.6435
0.0255501
0.0666432
0.0271356
0.311342
0.0253418
0.7248
9.47653
0.310925
0.275106
0.0251336
0.0568856
0.0254049
0.07091
0.0520399
0.0251533
0.0253516
0.254355
8.65305
0.0254086
0.0352533
3.53256
2.98737
0.0252316
22.4
0.0253064
0.0931098
0.0294075
0.0255409
0.0254968
0.0252998
0.064601
9.65631
4.34694
7.48716
0.0247524
4.02395
0.0273343
0.0893992
0.0252571
0.0251199
0.0251314
5.57472
0.0253412
0.0356611
0.0594938
0.0251683
0.0263452
3.04424
6.28007
0.0259051
8.31117
11.2902
0.0251493
11.5773
0.0250076
12.9616
0.0350827
0.188833
34.8763
0.178312
0.133162
1.41757
46.6963
0.339144
3.39331
0.0254344
0.0256348
0.0994775
0.0443694
9.39091
0.0255252
5.1871
0.0254702
0.0274492
0.117885
0.0252317
0.0337943
0.256975
0.0281578
2.03363
3.56611
1.14137
2.37608
4.57524
5.05469
0.0251714
0.0250338
0.0315237
0.0251333
0.0269377
0.0253374
0.138479
0.0267345
0.285501
0.03251
0.0331693
8.06226
0.0502831
0.0627532
0.0256819
3.88979
3.82352
0.0251468
0.0256481
1.49405
8.14624
0.028463
0.0254072
4.89436
4.64551
1.10254
10.0184
0.0272024
0.0308621
0.0527393
0.241083
0.0253518
0.0256532
0.0512657
0.101307
0.0350411
0.0267694
0.31938
4.28457
0.0256403
0.0250292
12.2152
0.13236
0.0910765
4.30625
5.13932
0.241445
5.24877
5.10592
0.0993592
0.496471
0.025309
0.0254303
0.082564
0.0251474
0.0722073
0.128629
10.3146
0.0266915
5.31502
0.202929
0.0251906
0.204276
0.0250606
0.0262492
6.6411
0.37873
5.10519
0.0409946
4.12903
0.0251757
0.146315
5.18798
5.25884
0.0253451
0.024652
4.07923
0.038877
0.0255537
0.0253837
0.0254125
0.025152
42.1789
0.0914522
0.0250756
0.0250839
39.3632
0.134366
0.0254276
0.0250401
0.0252594
0.0430351
0.0350788
0.0273454
0.1291
11.7959
5.45668
0.0264336
0.0253444
0.0253098
0.0286875
0.0439178
0.0256356
4.09372
5.41033
0.0277073
0.0254082
0.0251601
0.383022
32.7621
0.0248316
0.0253917
4.15306
0.0260839
0.0292381
0.384909
0.025076
0.334932
6.31941
0.0760998
0.0254051
0.0270362
4.44581
0.0746172
0.025352
4.0698
0.025271
4.312
0.0601899
0.0299256
0.0256858
0.0248593
6.90606
0.0253484
0.0647884
4.70875
0.0436988
0.0251713
0.0543192
19.4008
0.0342243
10.3283
0.0392396
5.82136
10.7859
9.0076
0.0253464
0.960544
0.026888
0.0254138
0.0250831
0.025057
41.0667
7.37055
5.34937
0.0693576
0.753153
0.0252584
0.02899
0.0253945
0.025293
4.08385
4.3929
0.566359
0.0256741
4.019
0.0710085
5.18029
0.298824
9.89795
0.299465
0.219053
10.8385
15.6574
0.456537
7.27079
0.0253143
4.26022
8.12086
0.141747
4.22315
4.31904
8.99072
0.0590314
4.35143
0.037898
0.169946
8.66365
0.0279676
0.0254093
0.0254084
0.0253963
9.15109
0.194771
0.0307196
0.0248727
0.0250619
0.025368
3.2283
0.0251254
7.09305
0.135492
10.107
0.0251612
0.310961
4.52469
0.0252117
8.47843
5.91617
4.26894
8.87443
0.025648
0.0340857
0.126655
0.0255244
0.0514956
4.44433
0.0262667
9.55721
4.35234
0.257358
0.0252601
0.0250674
34.5346
0.0505788
1.74671
0.0273751
0.149463
0.073638
0.0778078
5.00101
4.19169
0.0413159
0.1722
0.025408
0.0256527
0.0254046
0.17275
9.02045
5.51129
0.043452
0.0608134
14.9004
0.134347
0.0355832
0.0272446
0.51528
0.0250269
0.0259571
0.0255266
6.1161
0.0264668
0.0252551
0.025407
0.0250207
0.127685
0.0254849
0.0253843
0.0254112
7.96337
0.025139
0.025391
4.13496
0.0251514
0.0297376
10.673
4.29456
0.0250624
0.930614
5.23275
5.2182
0.0251157
4.18877
0.0250296
0.378985
0.024819
2.29292
3.09218
0.253131
0.0252583
44.2016
0.0289846
0.0251043
0.0250326
0.0330939
10.9444
0.0277485
0.0253709
5.9528
0.0260719
0.0332666
1.04919
0.0251042
0.0252913
0.957979
10.0285
0.0245969
0.0253658
4.95169
9.30871
0.15473
0.0245969
15.0425
5.18341
13.3834
0.0250701
0.103316
0.0252216
0.0246485
0.0313234
0.0945469
3.97036
0.0246468
0.0264884
0.0254389
0.0248504
6.08198
14.7402
0.747204
0.0634039
1.18892
0.0251485
4.08951
68.9698
12.8557
0.0283314
8.98209
0.0254111
0.0252647
0.0312712
0.0257707
0.0412025
0.025241
12.3106
3.70838
4.00967
0.117331
0.0269277
0.20018
0.432226
0.200546
0.0248642
9.94451
4.83903
0.0253105
0.795495
0.0253675
0.0318154
4.54052
0.14593
0.0256405
10.5784
0.0254424
9.0771
0.201954
0.18766
0.102999
0.0355722
0.101102
0.111702
0.0248288
0.186076
0.0568525
0.47898
0.047964
4.4765
3.79358
0.0253604
0.0252842
0.0251393
0.0252596
0.0635953
0.0254345
0.024841
4.32437
0.33969
0.06401
9.96702
0.0298164
24.5366
0.0251439
0.0253853
0.237195
0.0251574
0.0427097
0.108955
0.176223
0.173484
8.82544
0.062912
0.668975
2.46623
0.111032
4.257
0.026044
27.9779
0.102485
0.0279021
0.169966
0.118578
1.09848
10.245
5.69209
0.0256351
0.0299589
10.7137
0.0251449
0.0352795
0.0641311
0.180713
4.3981
0.0252528
0.174141
4.75212
0.0252594
0.0253539
0.0246041
5.15977
0.0784549
0.0264639
6.76471
8.49539
0.0251393
5.25757
3.91055
0.270476
0.824487
0.169927
0.0649572
0.091683
9.30092
0.0648588
0.0251096
12.0344
0.0254425
0.0252509
0.0251417
6.6737
0.0255687
0.12511
0.0262609
7.42631
0.136747
0.0252915
0.0279644
5.36362
0.0250153
0.0255328
0.0252281
0.0583675
0.0252496
12.6259
0.034832
0.0254389
0.173042
0.123545
9.97858
0.0259213
0.191344
3.79815
4.52898
0.0251672
0.0306813
0.025071
0.0251837
0.164069
0.0315297
0.0251354
0.0264578
0.0541858
0.0252949
3.84218
0.0287675
0.0629753
0.0253382
0.0251938
0.0280103
0.0251877
0.0318414
0.235968
0.0256739
0.0253624
0.0253441
9.81719
0.0481812
4.44869
0.0277317
4.04776
9.23317
0.246813
0.0413874
0.0601002
0.0254388
6.48179
9.27407
3.79765
4.36168
0.086797
0.137942
0.141251
0.300608
0.073332
0.026316
0.0251988
0.0634854
7.95531
0.122906
0.0522214
0.0254045
0.0640523
0.025248
4.06896
0.024875
0.190275
0.0272308
0.746257
0.0252986
0.686019
0.0340436
0.227418
0.0253568
0.0272401
1.50746
5.03118
0.0461313
0.0462999
0.0253199
0.0253945
8.87666
11.7417
5.54271
0.0258974
0.184959
0.0321012
0.0430734
0.0253592
0.197174
0.0254355
0.0252184
0.026781
0.0254393
4.20897
0.0254348
0.0251806
0.0256594
0.0266512
0.0256745
0.0322165
4.58402
0.0301523
8.02638
16.2133
0.02519
0.0590523
0.0251427
0.0266315
0.0251529
1.27544
1.88079
0.0253767
0.0252411
0.03609
4.2551
1.64447
0.0253653
0.0250108
0.046552
0.0252216
13.2459
24.6646
0.0254387
0.035401
0.191213
0.236321
0.0255472
0.411026
3.7857
0.0254387
8.66555
0.0255625
3.97159
13.7926
0.0249999
0.0615638
4.43234
5.57378
0.025061
0.173998
0.0253099
0.0250442
5.29125
0.0276204
0.0277808
0.0254075
9.2612
0.191214
0.0415939
0.247591
0.033346
0.0260683
0.0998055
5.85049
0.0252911
4.09901
7.85068
0.0333332
0.0259897
0.0271251
0.0252558
0.0740725
0.0252168
0.0256352
0.0721441
4.22165
0.0434587
0.0256801
0.0686838
5.32828
0.0246043
8.08908
0.0263954
0.326024
0.0863242
10.5798
0.0255341
4.31572
0.0250437
0.0246035
0.0253381
0.0339868
0.0253007
3.44033
0.0254423
0.0252526
6.83395
0.0253561
0.0251696
8.57912
0.0255806
0.0250045
0.0252978
2.1864
4.14851
15.4481
9.55118
1.29637
4.35322
0.0252817
0.0276695
4.00966
0.0834946
0.723283
15.8856
0.0310658
0.339032
3.99218
0.0252559
4.86198
1.60537
0.0249882
0.0307875
0.0255945
0.0253809
0.0257976
0.332158
3.80715
11.1204
0.135804
0.0252952
0.116238
0.0462914
0.0252449
5.97178
0.0250141
0.0251451
0.217487
0.025217
0.0624712
0.0246533
0.0632217
8.84108
0.121988
0.0357002
0.0382124
3.8975
6.24266
0.067005
0.396299
0.0415954
0.0335411
11.8814
0.0641607
0.0252353
0.648928
8.11697
0.0246121
0.0267622
0.0699498
0.163019
0.0971857
0.0920166
0.025354
1.25651
0.0966859
0.0254008
0.0272388
0.0258684
0.0251265
0.0254055
0.154652
6.6576
0.0266481
2.09509
0.0284924
0.0250719
4.04456
0.0515126
6.36492
0.135388
11.5271
0.0785331
4.95485
10.1369
0.0262271
0.0465209
3.99602
3.86535
0.512624
0.0726453
15.322
0.37693
3.47006
0.0253395
3.85646
0.0252994
0.0252969
0.0651938
0.125035
0.0250551
0.114545
0.50814
0.0272309
0.0253991
9.85628
0.0252781
6.81413
0.0395712
0.0255616
4.98861
0.0343972
0.0506151
5.25641
4.87992
0.0640547
5.3777
0.711281
0.025296
0.0256599
8.94553
0.0590547
5.90498
0.0250216
0.0355919
0.0251303
0.0251437
10.3603
0.0655047
0.0253399
9.59615
0.02503
0.0825607
0.0348043
3.90389
4.04122
0.0254312
0.0345473
0.026521
0.0252403
6.33033
0.0253122
0.0695942
9.7378
0.0252196
0.0249798
6.33291
12.571
0.0262255
0.0413567
0.02531
0.0254476
0.0254774
9.29779
0.0336261
1.17014
0.0581427
0.929745
0.0323822
0.0250187
0.0974411
0.0967007
0.0256405
9.71959
3.02043
28.9355
0.0272074
0.0253704
10.4003
3.60985
8.79332
0.0256635
0.0253538
42.4547
0.0256893
4.16405
0.0251963
0.0254504
0.0309041
0.0250748
0.0252271
0.0255386
0.0266892
4.77907
0.0253381
0.0333142
0.126105
0.0942871
0.0254053
0.0255713
6.39626
0.0809481
5.3158
0.0298337
5.09937
0.0251209
0.0253561
0.0340508
4.34961
3.85813
0.0358845
3.41406
0.122988
0.0574575
0.0288297
0.0408172
0.0254813
0.241179
0.0726204
5.60717
0.051176
0.0412335
33.3331
0.0874848
0.0254532
0.0509192
0.429539
0.0255613
0.257825
1.21899
0.0252325
0.0642975
14.7004
0.0250976
0.0253093
0.0253331
0.0252116
4.55414
0.145776
0.125011
0.0864424
0.025022
0.37534
0.0249955
0.0262391
0.0251889
0.049975
0.57477
10.8184
0.130463
0.0250934
0.080943
0.0925491
0.0254012
27.5494
0.0255658
8.89059
0.0260193
15.3413
0.684282
0.0610716
0.0515069
0.0254764
0.0256259
0.0323371
0.0388225
0.122658
0.282917
0.025222
4.95286
4.12339
1.07045
0.0414088
0.0317652
14.2083
0.0253971
9.27016
0.0251958
0.0253341
0.0536792
0.0256354
13.2613
0.0253432
9.06021
0.025052
0.025339
0.024891
0.0259502
0.242834
0.0251235
0.0884654
0.0265957
20.1352
0.0253554
0.392508
0.030452
0.0610235
0.0392651
0.0256948
2.22037
0.0482735
0.0256625
0.103311
0.031486
0.0876492
0.0376522
7.84721
0.0451212
5.98705
0.0303697
0.025566
0.0309258
0.028513
0.0477069
3.93245
0.035055
0.025641
0.0256356
0.025298
0.149647
7.87161
0.0256408
6.30648
0.0922486
5.24976
4.97486
10.9209
0.02535
0.0406173
4.1943
0.0502733
4.27895
12.1655
0.0854739
0.025561
0.0424271
0.0256796
0.0253474
0.0495667
0.0252854
5.31731
3.75883
0.128471
0.0253958
0.496843
0.0256784
5.93879
10.3947
5.9271
0.0343113
0.0253099
10.6559
0.0640126
5.77567
0.0907221
13.5558
8.54817
9.55948
0.02548
0.0252314
1.95819
0.0277537
0.0253547
10.5182
0.0257686
0.0922092
0.0250467
4.10174
0.0252423
0.0252519
0.0491206
0.025244
11.2344
0.0358425
5.75953
0.0252987
0.0253672
0.0252829
0.0343403
0.164082
0.0253918
0.0252245
0.0251601
0.217975
0.224528
0.0309652
0.025259
0.0348678
0.0628413
0.512707
0.124773
0.0253684
0.0252062
0.0270392
0.0252237
0.0278515
0.0253078
0.0752399
0.575685
0.0501624
0.0994366
4.17137
0.0253741
1.28982
10.8117
0.0253622
0.0256826
0.0251986
0.0253405
9.20681
0.0655854
10.797
1.10622
0.0648874
0.162891
0.0650586
0.0648898
0.0407752
0.0254827
0.0250534
0.0283634
0.040552
0.0253427
11.7532
3.74261
3.77262
0.0311555
0.0260998
0.03497
29.0684
4.8045
0.0256811
0.0250209
3.92724
0.0282635
9.8468
4.39164
10.3441
3.88758
4.16423
0.0250468
4.76022
4.11596
12.9493
0.0253189
0.0264062
0.21157
2.33763
0.152906
9.50771
0.0478684
0.0884522
0.0246446
0.0251428
6.67553
0.0324489
0.0262077
6.47236
0.0358847
2.35861
0.158546
0.0253593
0.0251096
0.0276701
0.317001
11.3834
5.78476
5.25922
0.0251855
0.0311596
0.133046
0.0279695
0.0270474
0.0256949
10.2545
0.114746
0.024725
5.24771
0.0253351
0.0336885
0.0253574
0.178609
0.704473
4.08787
0.0253311
0.0913566
3.17398
0.048744
0.0255656
0.0469393
0.0253142
0.0250102
0.0276467
0.0266029
5.63528
0.0412339
0.0259532
8.31501
0.0253894
5.0543
0.0247298
0.0254777
0.158434
0.0316228
0.0284121
0.315407
0.0253171
8.93447
0.0250037
0.901992
0.182583
5.1564
11.9761
0.0259268
0.0359944
0.0248625
0.0401281
0.984928
0.0269756
0.0253607
0.0409723
9.78008
31.6041
4.06192
0.0254827
0.114875
6.18327
0.025566
0.153818
10.373
2.30187
0.0476968
0.0291997
0.0412622
0.0255341
0.0276406
14.9185
0.0250139
0.0251114
0.0253342
0.0576771
4.16973
0.127634
0.0257587
0.0778161
0.0250311
0.0252159
0.0284721
0.0685208
0.0253242
8.58422
0.331937
0.0678773
0.0253209
5.51897
0.0267669
0.0251154
0.0254652
0.0295475
0.148122
12.5099
0.076988
0.0914652
0.0265435
0.0254851
3.77957
0.0602855
0.0963714
6.13065
0.369222
4.25391
0.0683195
0.0271251
0.0413404
0.0488115
0.0318455
10.4545
0.0251582
0.0251978
4.7481
4.02723
9.70549
0.0254877
3.44614
0.0256749
0.0265349
0.0987141
9.34385
0.026708
2.95769
0.0289614
0.156078
0.0330641
0.0277694
0.0804277
0.025337
0.0253428
0.103175
0.349007
0.0328825
0.399793
11.5044
0.463144
0.0299214
0.0253197
22.1174
0.025118
4.36688
0.0264172
0.0308236
18.4788
0.0442103
0.127029
5.52566
1.58661
0.0270021
0.0250142
10.3438
0.0369062
4.38553
4.04385
4.17784
8.1265
0.711336
0.329116
0.025452
0.032102
4.5025
0.0686243
0.0264867
0.0248842
17.1202
0.0284382
0.0278903
0.720573
0.0293587
0.0249676
8.22725
0.062506
0.0277855
3.88298
0.180431
0.0253143
0.0261763
0.033551
0.0272937
13.0163
8.35037
27.8646
0.0251185
0.025381
0.213059
0.246205
0.038065
0.124636
0.0417797
2.02857
0.0253999
0.287981
0.0250122
0.0939803
0.0256804
4.4128
0.160443
8.95154
0.126819
3.44689
2.48106
0.22822
0.0256364
4.33626
0.0969163
0.0254682
8.95851
2.30675
0.0253325
0.0467439
0.0256409
0.026489
4.23426
0.0253401
0.253243
0.0253048
0.0364144
0.063865
6.15524
0.024644
1.32442
0.114531
6.23218
0.0254495
0.0265611
0.0256778
0.103768
0.0255062
0.0271028
0.0255196
0.0253432
0.0252771
0.0470434
0.0304925
9.32347
0.223768
0.295199
0.0252538
4.14232
0.0249748
0.0254397
0.0254433
0.0255462
0.0960835
0.0255797
0.0298843
0.0253978
0.0256541
0.0320971
4.36128
0.0254432
0.0270355
0.22533
0.103992
8.31706
9.2757
0.20275
0.0253552
0.0362519
0.0614941
0.0255023
0.358309
0.0256798
0.324385
0.0252798
4.69965
0.16392
12.2698
0.0294796
0.0253296
0.026395
5.75355
0.328801
0.0247521
4.06594
0.0257292
0.126618
0.0249866
5.43799
4.27547
0.0254635
0.0252327
0.0334387
0.200379
0.0258776
0.0358398
4.34016
11.1991
0.0263664
5.35116
0.0277882
0.0267805
0.0823148
1.795
0.0976023
0.289426
9.77512
0.0250697
7.82516
10.9789
5.61155
6.85695
0.0359638
17.0224
3.94083
3.71812
0.513214
5.92156
10.1364
0.380479
0.024811
4.25178
0.0502181
0.0265308
0.0928843
4.91136
0.062167
0.0252676
0.0361816
0.129825
12.9402
0.0294322
0.0404073
0.0249889
13.5206
4.2603
0.309548
0.0413601
0.024637
8.33521
0.0248218
2.55239
0.0262976
0.0254611
4.3147
0.0249591
0.0248853
0.0272636
0.0252679
0.050795
0.0262874
9.09463
8.43553
3.73756
0.0251689
0.211512
0.026912
0.0589279
0.0348246
0.0264292
0.0255782
12.2825
17.4013
0.0252886
0.0307369
0.0255613
0.0253624
1.93041
12.454
0.225274
1.23169
15.0305
0.156155
0.0253439
0.0253394
0.0250055
0.0994498
0.0514197
5.91518
4.12421
0.0249736
9.72885
0.125657
0.0452382
8.17187
0.157924
1.18992
0.0246959
4.94096
0.0254546
0.0248098
0.0253242
0.0249926
11.7458
0.060225
4.18757
0.0253287
0.0253424
3.73922
12.9913
0.389779
0.0255097
5.08403
4.20934
0.159333
0.078076
12.7493
0.0278979
0.0263532
0.0306309
0.0253447
0.0266152
0.0404494
4.093
0.0255945
0.0252066
4.11488
0.040554
0.0297753
0.0264428
0.160867
1.22252
0.0252959
0.0977712
6.17773
0.0248825
0.0251356
0.0474306
0.0268675
0.025161
0.500861
0.219682
4.122
0.16738
0.0278452
0.0412075
0.0253912
1.45799
0.0487974
0.0250065
0.0306878
0.0253733
0.818786
0.0253919
10.7132
0.0253497
0.0250841
0.221914
0.0254018
0.101156
1.53278
4.56506
1.0194
14.3426
0.0479087
6.57833
0.0254046
0.032777
4.22509
0.160234
0.0666349
2.49509
0.0254967
0.0252079
0.0258178
0.0585373
0.0251381
0.159319
0.0250658
3.71095
0.0254278
13.8769
4.13385
5.56988
0.421896
0.0680668
0.0256491
0.0822078
0.737313
0.0251839
0.0254393
13.9268
11.4591
0.33518
1.86054
0.0249993
11.6158
4.40542
0.0261426
3.77179
0.0253415
0.0247016
0.0255622
0.034637
0.0267545
0.0329598
4.29918
0.160493
0.050268
4.38832
0.0251923
1.09394
0.0251627
0.0256742
9.68872
5.11723
0.680227
0.0250386
0.285123
0.765577
0.169769
12.0866
0.0256642
0.0284216
0.0255589
0.0248862
0.040605
0.0254027
0.0573169
0.0255531
33.2211
28.9893
3.98862
0.0368551
0.0824996
22.385
0.0250761
0.0257073
21.5914
0.025582
0.0282024
0.0248996
8.87336
5.8497
1.23698
0.0254386
6.8739
4.01753
0.0824637
0.0249949
0.144248
0.0251004
0.07332
11.3765
4.83274
0.0250365
0.039785
0.0250063
0.0262201
0.0259506
0.0254182
0.0255597
0.666922
42.4284
0.0255634
0.0248117
6.97889
0.0253026
0.0253987
0.0253552
1.94885
6.84817
0.0415817
0.0283134
0.0256795
0.77169
0.025332
7.70685
0.0500305
3.95864
0.0252731
0.0251939
0.0256896
0.137922
0.0250032
5.61059
12.1469
0.0249965
0.0340342
0.0250283
0.0449516
1.3904
0.040207
0.13816
0.255219
0.0259902
7.61137
0.342284
0.0247121
0.0252881
0.0414258
0.0273619
0.0253588
0.0359819
10.0097
3.85528
0.025212
0.0250035
10.9255
0.129804
0.0396732
0.0251564
0.0284556
2.23388
1.25266
7.01397
4.10116
0.0256174
0.278504
0.0256536
0.0594748
0.0355305
0.0312758
30.5035
0.0402633
28.7677
0.0606143
0.370811
0.0251578
0.0251883
0.0265962
0.0247267
4.15899
0.23278
4.31545
0.0256488
0.0510778
0.0620173
0.0250888
0.148402
0.0262115
8.62945
0.0253505
0.24743
3.37407
0.0267376
0.155016
0.0252457
0.313684
0.109329
5.61948
0.0261558
0.0325041
0.024689
0.0318712
0.0307099
0.0250058
0.299163
0.0252008
0.0256656
2.45783
4.36935
0.0256052
0.223051
9.78524
4.60156
0.0494937
9.50374
0.0253442
12.665
0.164902
0.0279857
3.45714
13.5797
8.53657
0.829696
9.93481
0.0248811
0.0252302
0.0250746
0.0671595
0.0295296
0.0254197
0.184088
0.0489514
4.26702
1.75233
0.156047
0.025565
0.0500401
4.37832
10.4174
0.0282939
4.20485
0.0249922
0.0605309
4.57678
2.49981
0.937089
1.51245
0.0254857
5.73054
0.0253476
14.6081
0.0253551
2.5486
4.08777
0.0254218
0.14943
0.377705
0.0254993
0.0254813
0.0251715
0.0250903
4.22683
5.99892
9.28606
0.0253412
0.0252636
5.58034
0.0401391
0.025267
0.0251802
0.0252748
0.0255031
5.1372
0.0653444
0.418257
0.0394465
0.060451
0.0253515
0.0354685
0.025187
3.77182
0.0253719
6.70769
0.236212
0.0254363
12.4885
0.025324
0.0252155
31.4423
0.0784651
0.427742
0.0255016
0.0253374
0.0254521
0.0252588
0.0455987
0.0253974
3.74118
0.0350969
0.025137
5.08227
12.9058
0.325925
0.610913
0.0250753
2.32985
0.0460207
9.6357
0.0746162
0.0252708
0.0271431
9.54886
0.0474144
4.03303
0.253327
0.0255113
4.08005
3.48768
5.21238
0.0253467
0.0255952
5.93461
0.0253055
0.0317808
0.0254807
0.0254345
0.0254024
1.3719
0.0339337
0.0250402
3.88046
9.09512
0.0318907
0.0398833
0.025002
0.0256541
4.14895
10.1298
0.121897
0.0250029
11.9516
4.38424
0.0314198
0.0252783
0.227873
3.92024
0.0250777
0.0549613
0.0264692
5.18311
0.0254768
0.0253448
0.049947
5.35375
5.77231
0.102505
4.03307
5.22219
11.2859
9.23485
0.0380713
0.0310302
0.0252016
8.07531
0.0254328
0.20493
0.0379948
0.0253157
0.0252754
0.0941199
0.0256756
13.94
0.153269
0.0348538
0.120454
11.2636
7.15472
0.0250975
6.59796
0.033223
0.0279819
0.0395803
0.0271006
6.48624
15.4472
0.0695156
0.0645477
0.0256925
0.0251771
0.384159
0.0886927
0.036612
0.0418867
0.0252693
3.80374
0.0252674
0.0250144
0.0311287
3.78763
0.246356
0.0611472
0.409886
10.2209
0.0254012
0.171182
9.62612
0.0251997
0.0307205
4.95272
0.0256032
0.0253174
0.0283671
3.74224
6.75178
9.10338
0.058534
0.0252599
3.96241
0.0252561
0.0661745
0.0253702
4.15277
2.59793
0.0254087
0.0685273
0.0251455
0.0286126
0.0505146
10.4308
4.3582
0.025399
9.0313
10.0184
0.0658253
0.479277
4.5917
0.0249867
1.05655
0.0344092
0.142495
8.09665
0.0249834
0.0253228
0.025112
0.0260416
0.0282252
0.0254745
0.0400242
6.15286
0.122601
0.0251864
0.0253968
0.0253142
0.0261445
0.237091
0.0255649
6.39543
3.60888
0.0255234
4.31516
0.0305959
28.1905
0.174425
4.3659
0.0716143
0.0251177
0.0307305
0.0251747
0.0253302
5.10257
0.0254989
0.0500313
0.0352652
0.195365
0.238666
0.393736
0.0323604
0.0249322
5.44119
4.40644
0.0253083
0.341917
0.0253214
0.0252998
0.0253997
0.0252647
0.025373
0.0298265
0.0252666
4.98011
0.0254065
9.51397
0.147653
0.0254089
0.552315
0.0254519
0.0332304
0.0654278
5.1678
11.9244
0.0606619
0.0462252
0.527028
0.0834606
0.178866
4.05603
0.0251134
0.0254613
0.0250692
0.513784
0.0304616
10.6465
0.0320936
0.0553349
0.0250915
0.0314016
0.0270767
0.0253152
0.0287704
0.0285009
0.035459
2.60592
0.0253757
0.0253353
0.0262329
5.01129
0.0250892
0.0259986
0.0356395
3.91847
4.22583
0.265851
0.088883
0.801221
0.0247568
0.0249769
0.0930118
0.203096
0.0254964
13.2527
0.0254336
0.506705
0.0254394
3.58844
4.10947
0.0250214
0.0249333
4.9781
0.0253586
0.0253454
0.0316122
14.6233
0.0453418
1.0597
0.0946212
0.0254421
0.0927809
0.0726466
0.0387978
4.1361
0.146438
0.0349525
0.169534
0.0254458
0.0252217
0.0256595
0.0321058
21.8754
0.0249405
0.0246903
0.0654232
0.0487658
9.36106
9.00528
0.1218
0.0306542
0.0490088
0.024921
6.40208
0.0255654
5.06371
0.0603065
0.0248684
0.0256426
6.629
0.0993682
0.0251068
0.0252831
0.0260928
0.225597
0.102342
0.0251036
0.0247605
0.0246739
0.0612283
5.27071
10.6526
0.0251648
0.0255913
4.98603
0.0248273
0.199796
9.74755
0.103602
0.072923
0.0346977
0.0255773
0.0546607
4.09898
0.025517
1.34813
0.0785502
0.0275677
0.025465
0.0501952
0.025997
0.0568858
4.25781
0.0433322
0.0600917
0.0254073
0.0251139
6.6325
0.10619
12.9211
0.0249733
5.70358
0.0251073
0.0348771
0.0257418
0.0254276
0.0254762
0.0255161
12.3908
0.0249744
0.149609
0.034202
0.0260541
0.0413116
0.0251906
3.62477
0.211526
0.0255198
4.33733
0.0255968
13.0337
0.0344328
0.236393
0.750604
0.0255208
16.1544
0.0299921
0.0246832
6.00797
0.0251953
4.39154
0.0249746
0.0253375
0.0915801
0.025334
0.0603604
1.65396
0.268878
0.0254041
7.47885
0.310858
6.8804
0.0252011
9.09748
14.1272
0.0254537
0.0604944
0.0253561
0.337425
0.0578284
4.05933
1.47742
0.124412
0.0247649
0.0256794
0.0384461
10.1419
3.97876
1.05888
0.0253422
4.11067
0.0256186
0.025371
0.0253002
0.155363
0.0254339
0.0254357
5.35064
0.189993
0.0353322
0.253881
0.0254799
11.154
0.0250474
0.0352996
0.0770584
0.0248963
11.4125
5.49728
1.26964
0.59851
5.51538
0.0250905
0.0252369
0.0247205
0.0844506
0.668933
0.0252618
0.0500334
5.57915
1.18699
0.492509
0.039275
0.040787
0.0293716
8.95531
0.0255612
0.025309
0.0246745
0.0652536
6.74824
3.79596
22.4985
0.0338511
5.40592
0.0253376
0.0255774
0.0253556
0.0949833
0.0480482
0.189802
0.0969739
0.0341414
0.0253409
0.04132
0.0333275
0.0427363
12.0789
0.0253513
0.0253181
0.126261
0.171958
0.0249085
8.15656
0.0258145
0.0253583
0.0268722
4.69861
0.025281
0.0254494
4.9854
0.145511
11.3024
0.562305
0.0251418
10.1075
0.0254418
5.94653
4.28521
0.0339044
0.259378
0.0324512
2.26867
6.59475
0.0712366
0.024915
30.1241
0.0252747
0.0482126
0.025338
4.13535
0.0275575
0.121381
0.0324827
0.0608722
0.0279654
0.296807
6.21252
0.0258728
0.122366
0.642764
0.0888636
0.0403572
5.24742
0.0252229
0.0801658
0.0250991
0.0352411
0.0251869
12.6001
13.2901
28.7384
0.0250867
1.81323
0.0700574
0.0352756
4.31705
0.0255168
0.0251048
0.126032
0.0256759
0.204856
0.163295
0.0252365
0.0399464
4.57527
0.0256405
0.0253513
0.0388551
5.1055
0.0493068
0.0423552
0.0316089
0.130126
0.170152
0.0381695
43.4214
6.9716
0.0271444
0.0250768
0.0484488
0.0254255
0.0253458
4.11991
0.0250683
0.0253129
28.9073
10.4044
5.58982
4.26175
0.0251239
4.88113
0.0253787
0.0953139
11.5356
0.0255658
0.0253469
4.06991
0.065938
0.0897557
0.025496
0.0450781
0.0253362
0.0300381
4.44675
13.0145
0.140759
0.0254388
0.0249629
0.0267574
0.0264679
4.38685
4.02432
0.0266177
2.66745
0.602769
0.732446
0.705306
4.20506
0.0255111
5.41568
7.41204
5.43783
0.025157
0.0599952
19.453
0.339923
0.0483197
0.04766
0.0351529
0.399899
3.40769
0.0251466
0.0254632
6.71806
11.3266
3.93839
0.0255123
0.0253427
16.1643
4.43509
0.0271399
0.0366328
0.0254383
0.0260161
10.4726
8.3285
0.034483
4.21549
4.10809
0.0253209
0.0269421
10.6401
0.0655217
0.0509044
10.1216
0.0251168
0.0256216
0.0253587
0.0253775
0.0260981
4.26204
0.026762
0.02564
0.025238
0.0582818
3.26494
3.66922
0.0254594
0.379208
0.0253903
0.317593
4.34436
40.2294
0.02678
20.8739
0.345565
0.225172
4.38717
0.234861
0.0925765
3.86414
4.06729
4.04236
0.0250452
13.3532
0.0421855
4.00277
0.0254524
0.161538
0.0246367
8.25624
0.0817394
3.85805
5.45612
0.0886662
0.0254663
0.0918814
0.0858433
0.209962
0.31106
0.0251839
0.0412493
6.97705
0.374941
0.0483494
0.0725467
0.0253135
3.97797
0.0251718
20.7856
4.20904
12.9323
3.93149
0.0600024
4.03235
0.156683
11.3852
3.97638
4.1612
6.99581
7.0608
0.0409207
0.160672
12.3829
0.740988
0.222112
3.84845
0.0250745
0.0254384
0.0253342
0.102521
0.025343
6.98587
0.0256958
0.0580285
0.0253116
0.0957006
0.0260616
0.0255582
0.0248598
0.0285308
0.039749
0.0254953
0.0545173
3.86614
0.0869395
3.45589
0.0287881
11.216
0.0251786
2.75581
0.0256352
0.0254047
0.0256643
0.0254806
22.1227
0.0398589
0.0310512
0.0253323
0.0253933
0.0252606
0.752672
0.0252138
0.0517196
5.14289
13.6407
5.03047
0.025204
12.5722
3.93606
0.0268633
9.06222
0.0403855
0.160352
0.0608892
0.153658
0.025342
0.0257609
0.0470827
0.0269332
9.11565
0.024695
0.025109
6.63969
31.7639
0.0253116
0.0251647
0.135138
0.0336324
0.025427
0.318218
0.0253213
30.7778
0.0254575
5.08789
0.0276915
0.0293789
0.707605
5.50289
24.4043
0.0397416
3.97463
0.0251718
0.0591768
0.189758
0.0253416
0.0254692
0.024895
0.0249599
0.0610635
0.0607871
4.1641
11.5517
0.122234
0.126403
10.5807
4.21819
2.11257
0.0285948
0.0344138
0.025204
4.92702
0.0253334
0.0251251
0.0418704
0.0253368
0.171229