/*--------------------------------*- C++ -*----------------------------------*\
| =========                 |                                                 |
| \\      /  F ield         | OpenFOAM: The Open Source CFD Toolbox           |
|  \\    /   O peration     | Version:  v2012                                 |
|   \\  /    A nd           | Website:  www.openfoam.com                      |
|    \\/     M anipulation  |                                                 |
\*---------------------------------------------------------------------------*/
FoamFile
{
    version     2.0;
    format      ascii;
    class       volScalarField;
    location    "300";
    object      p;
}
// * * * * * * * * * * * * * * * * * * * * * * * * * * * * * * * * * * * * * //

dimensions      [0 2 -2 0 0 0 0];


internalField   nonuniform List<scalar> 
54593
(
0.032038
-0.139136
-0.00281677
-0.075522
-0.284238
-0.388889
-0.109437
-0.167924
-0.129221
-0.00437625
0.0337555
-0.0840723
0.272643
-0.0228779
0.0888114
0.126604
-0.166782
0.132342
-0.00398897
0.147178
-0.00282162
-0.0451526
-0.0061167
-0.230241
-0.011439
-0.0992275
0.0320902
-0.0778544
-0.375326
-0.00596625
-0.0985862
-0.0819736
0.00410957
-0.381781
0.219375
0.0236524
-0.107917
-0.139508
-0.0431115
-0.0467974
0.482212
-0.341803
-0.00615955
0.0334442
0.406579
0.0681074
-0.0767741
0.05929
-0.0202651
-0.13799
0.00401549
-0.020846
-0.048293
0.403102
-0.145397
-0.00395859
-0.391126
-0.346497
-0.142332
0.299632
-0.00590484
0.0763331
-0.0232218
-0.0753733
0.0216204
0.124008
-0.158087
-0.036663
-0.366286
-0.36863
-0.02057
0.21638
0.0213363
-0.206037
-0.0453702
-0.0767645
-0.0800578
0.0891857
-0.402553
0.206182
-0.00384085
-0.080387
0.0333216
-0.134523
0.00850373
-0.204733
-0.206316
-0.117074
0.276536
0.0415342
-0.410841
-0.0566088
-0.186925
-0.250165
-0.0981256
-0.325201
-0.0977883
-0.198919
0.048289
-0.140027
-0.00223485
-0.311404
0.0699001
0.0188805
-0.0794248
-0.0227127
-0.0800756
-0.116518
-0.075627
0.320237
-0.397034
0.0165237
0.0420737
-0.0976178
0.019619
-0.41943
-0.368077
-0.0754199
-0.381838
-0.184797
-0.0756697
0.0229449
-0.386898
-0.0650237
-0.000630173
0.44358
0.0695132
-0.000292885
-0.0825443
-0.194208
-0.0103695
0.0128366
-0.0784584
0.0237596
-0.0591358
0.127081
-0.0248569
-0.0836573
0.0182219
0.029091
-0.387882
0.241541
-0.0775113
-0.350695
-0.0802751
-0.0447964
-0.157949
-0.10423
-0.155727
-0.039532
0.30953
0.036942
-0.107955
-0.249131
0.0143965
-0.38562
0.0328002
-0.384435
0.118239
0.0477526
-0.312249
0.101156
-0.389182
-0.34436
-0.0771765
-0.0363104
-0.00802677
-0.00536169
0.456114
0.00579116
-0.0917163
0.187165
0.27537
0.0228872
-0.127529
0.00310194
-0.399172
0.0773321
0.0752257
0.476482
-0.263104
-0.0175845
-0.38045
-0.00048049
0.0209569
-0.0635788
-0.0378064
0.0392156
-0.0228426
-0.33321
0.0762214
-0.0758972
-0.400309
0.0214578
-0.340074
-0.157453
0.0308881
0.0546358
-0.0983522
-0.405897
-0.0631025
0.445167
-0.118728
0.0690004
0.0372117
0.0361438
-0.0482664
0.00803221
-0.0434967
-0.00407058
0.028695
-0.0223931
-0.017423
-0.0756379
-0.0973498
-0.137279
-0.394724
-0.0726748
-0.417875
0.0304006
-0.0496363
-0.383756
-0.346088
-0.0475375
0.367119
-0.104657
0.011879
0.126402
-0.00157488
0.116443
0.0687698
-0.0810831
-0.145702
0.0208689
0.0564549
-0.0972781
-0.0922288
0.0206304
0.28055
0.0205677
-0.0467801
-0.0766527
-0.142137
-0.235659
-0.0478549
-0.0450898
-0.112082
-0.0838846
-0.00652396
-0.318875
-0.234606
-0.150818
-0.106154
0.00364094
-0.0450417
-0.00894028
-0.253538
0.00484075
-0.230774
-0.0426454
-0.0422635
-0.256068
0.0545069
-0.405665
-0.098338
-0.0205109
-0.175931
-0.00630265
0.0534351
-0.036202
-0.192735
-0.207302
-0.0732145
0.0317761
-0.0451022
0.017255
0.0787383
-0.134979
-0.0127081
-0.0763882
-0.0119152
-0.0822752
-0.0650109
-0.340684
-0.111181
0.490209
-0.0446557
-0.0105141
-0.082595
-0.325201
-0.153949
-0.0817309
0.00383512
0.0103603
-0.0965202
0.01175
-0.397966
-0.217424
0.0193064
-0.0898907
-0.0851198
-0.0409561
0.0285543
0.00633735
0.0209479
0.0160588
-0.13733
-0.0913161
-0.0390476
0.029306
-0.10729
-0.0453225
-0.359226
0.0560004
0.497622
-0.177119
0.285922
-0.139088
-0.158736
-0.022253
-0.163703
-0.00652146
-0.121557
-0.0765249
-0.0876041
-0.121256
0.101832
-0.0200434
-0.2621
-0.0654416
0.0270319
-0.0303928
0.0191488
0.100986
0.00638022
0.370709
-0.0634958
-0.0737294
-0.114018
-0.0741468
-0.0405116
-0.0496623
-0.100606
0.00360449
0.0153757
-0.179643
-0.137539
-0.0896594
-0.195896
-0.376569
-0.350713
0.0101775
-0.117954
-0.227421
0.0403833
-0.00566869
0.159231
0.0170344
0.0328442
0.0322233
-0.137206
-0.0500086
-0.00904029
-0.0850682
0.249248
0.0537047
0.0172646
-0.352137
-0.0860546
0.021049
-0.0539532
0.0214552
-0.00660429
-0.0221251
0.106239
-0.00694297
-0.024422
-0.344109
-0.0731011
-0.405068
-0.341345
0.197446
0.22669
-0.0843246
-0.117844
-0.137587
-0.355688
0.0185267
-0.138837
0.350227
0.396191
-0.141114
-0.06276
-0.00540812
-0.0613213
-0.0744891
-0.343625
-0.129182
0.332922
-0.103934
0.00370433
-0.158015
-0.388935
-0.252321
-0.121851
0.0165019
-0.0134834
0.228203
0.00657086
-0.199104
-0.0886541
-0.0246212
0.0287815
-0.105458
0.0157331
-0.369499
-0.0965558
0.0338159
0.0161806
-0.0757911
0.265951
-0.110052
-0.126211
-0.142164
-0.149282
-0.357595
-0.0954179
-0.121712
-0.378388
-0.0249381
-0.243059
0.113613
0.494507
-0.135872
-0.110122
-0.0670569
0.0313531
-0.0904389
-0.0342272
-0.0446113
-0.0846115
0.0199116
-0.0010535
0.0184728
-0.138979
-0.0959004
0.0187999
0.0482322
-0.107426
-0.139523
-0.137992
-0.115711
0.246683
0.107088
-0.0760439
0.301996
0.00745845
0.026884
0.0693893
-0.182539
0.0191028
-0.00698884
0.460916
0.0356818
-0.010324
-0.18105
-0.13897
0.0496177
-0.108437
-0.337628
-0.340727
-0.410569
0.0343173
-0.0136365
-0.0772521
0.0361447
0.00579618
-0.0722555
-0.131755
0.0497055
-0.130849
0.0335783
0.345034
-0.0952652
0.0337268
-0.340135
-0.113591
0.312469
-0.0115602
-0.22149
0.207683
0.0212646
0.00752783
-0.0730502
-0.400103
-0.0271118
0.229679
0.0655407
-0.0882585
0.0143762
-0.305817
-0.198957
-0.0857346
0.362406
-0.00105057
0.0339543
0.0481383
0.267561
0.118176
0.000595477
0.0350545
-0.201844
-0.147547
0.0483762
0.150021
-0.0879171
0.290851
0.0029573
-0.396259
0.0253504
-0.116503
-0.0290809
-0.0263195
0.0539073
0.0292193
-0.103997
-0.342905
-0.0866715
-0.406119
-0.0205196
-0.25485
0.0026572
0.235312
0.0164454
-0.0013175
-0.000764156
-0.367209
0.0334882
0.161161
-0.0824489
0.0034965
-0.046713
-0.152348
-0.382453
0.0566257
-0.0816856
-0.252345
0.000366852
-0.11944
-0.0104116
-0.380552
-0.0882873
-0.138722
-0.356951
-0.232756
-0.204862
0.484413
-0.23183
-0.115206
-0.0698829
0.0183941
0.0207173
-0.100138
-0.10862
-0.406026
-0.0272915
-0.244956
0.0485209
-0.0535096
-0.139503
0.00280434
-0.0282519
0.413203
0.0221503
-0.310845
-0.0861412
0.103085
0.180106
-0.389733
0.317384
0.00200028
-0.00574366
-0.0684489
-0.000780682
-0.0077166
0.0145655
-0.1077
0.0444794
-0.0883547
-0.0764231
-0.0673991
-0.312473
-0.123037
-0.122072
-0.0014155
-0.155777
-0.133875
-0.00162229
0.00672162
0.48707
-0.0731326
-0.045754
0.0486073
-0.330823
-0.245959
0.308229
-0.10835
0.0899026
-0.038722
-0.0243667
-0.118567
0.0331962
0.00679043
0.215289
-0.158371
-0.0884153
-0.0104478
-0.213083
-0.0816533
0.0205946
-0.00591919
-0.230278
-0.113509
-0.116119
-0.0840353
0.225237
-0.119271
-0.300107
-0.328568
-0.149619
-0.283581
0.0251609
0.0196699
-0.155407
-0.00201726
-0.0784559
-0.0324435
-0.363856
0.0431494
-0.156815
-0.19341
0.00578615
-0.195325
-0.00490966
-0.0469854
-0.139195
0.440469
-0.2415
0.14547
-0.111989
0.00215789
-0.0529935
-0.315867
-0.134747
0.0054376
-0.0170353
-0.241326
0.172828
-0.0273762
0.00355175
0.0489188
-0.00113501
-0.205997
0.321706
-0.0236037
-0.0300489
-0.401255
-0.106813
0.0189521
-0.00562714
0.0171118
-0.0967118
-0.0850225
6.22633e-05
-0.202195
-0.388873
-0.154131
0.0752018
0.00529316
0.0238222
-0.0648846
-0.0237605
0.0211673
-0.203356
-0.391132
0.0395973
0.0286362
0.00120045
-0.0791698
-0.395886
-0.0233966
0.0472273
-0.288021
0.0301456
0.0073559
0.420776
-0.0231847
0.37511
-0.404653
-0.0455772
0.0287621
0.0144636
-0.397987
0.295338
0.0347149
-0.311659
0.013741
-0.399193
-0.138265
-0.0574736
0.0281301
-0.0242239
-0.0755043
0.00378269
0.116743
-0.385215
0.0636711
-0.0243598
0.218817
-0.283922
-0.0817955
-0.368163
0.0327939
-0.258189
-0.408651
-0.408804
0.00365676
-0.316504
0.00967238
0.0488098
-0.00376109
-0.0051798
-0.345918
-0.407305
-0.168696
0.112509
0.466403
0.0174912
0.0561045
0.00480601
0.02895
-0.0758125
-0.0976422
-0.288993
0.0167542
-0.203635
0.271368
-0.360443
-0.0872697
-0.355021
-0.0867065
-0.110622
-0.0845502
-0.346517
-0.0789353
-0.354669
0.0161117
-0.0787945
-0.307799
-0.101394
-0.0966153
-0.0888943
-0.368655
-0.132633
-0.0879322
0.168336
0.340033
-0.0617627
-0.0586628
0.0062826
0.0286565
0.00469993
-0.0590394
-0.194659
-0.0368045
-0.0246032
-0.00528773
0.0315564
-0.343
-0.00105455
-0.0616438
-0.0966127
-0.404685
-0.0242437
-0.0862952
-0.389051
0.00427039
-0.408976
-0.190543
-0.0758833
-0.174393
0.00657875
0.0921003
-0.133312
0.0122825
-0.10715
-0.0900718
-0.0475059
-0.353979
-0.243545
-0.23212
0.0196355
-0.00442247
-0.279573
0.0285703
-0.281116
0.000995139
-0.106046
0.270716
-0.161701
-0.355893
-0.264927
-0.09687
-0.229453
0.0284536
0.00664609
0.0286472
-0.185635
-0.0467151
-0.161937
-0.101775
-0.124345
-0.253947
-0.146756
-0.0858902
0.0910074
-0.285904
-0.0117027
0.0693625
0.0552979
-0.354723
0.0774674
0.0171085
-0.0336861
-0.00821798
-0.148828
0.0532543
0.00442632
0.00620572
-0.326657
3.52349e-05
-0.00369395
-0.260463
-0.000702172
-0.0568367
-0.0610852
0.505694
-0.00465659
-0.290666
-0.133303
-0.325299
-0.00185517
-0.243251
-0.0116602
0.397607
-0.023169
0.5021
-0.262411
-0.20363
0.0191436
-0.338004
0.00757201
-0.00263885
-0.00587746
0.127902
-0.399686
-0.0390584
0.00338304
-0.379274
-0.0457356
-0.0846286
0.367663
-0.00258492
0.0284744
0.36982
-0.33814
-0.015285
0.0317478
-0.0762337
-0.346043
-0.106701
-0.0148246
-0.313868
-0.372257
-0.336239
-0.00440928
-0.190016
0.0048351
-0.0173922
-0.0643505
-0.107938
-0.202068
-0.0172385
0.0789076
0.0270523
-0.0239708
-0.377466
-0.36589
-0.308127
0.177212
0.494043
-0.0015143
-0.287663
-0.460484
-0.175816
0.0226251
-0.208966
0.0169843
-0.0113668
0.0547617
0.0177088
-0.106122
0.00593892
-0.367284
-0.101247
0.510799
0.2797
0.0145225
-0.0758209
0.416125
-0.240906
-0.0105676
-0.312763
-0.330782
0.023394
-0.189631
0.0316517
-0.0672136
-0.0763735
-0.164365
0.0202692
-0.342904
0.0269398
-0.0911044
0.0552357
-0.107812
0.173042
-0.086123
-0.158462
0.330931
-0.0234643
-0.0886272
-0.135771
-0.224985
-0.0926772
-0.0902228
-0.0723213
0.0323768
0.0163146
-0.000256216
0.0150564
-0.123449
0.0212903
-0.0236452
-0.406528
0.415384
0.268423
-0.388145
-0.0298298
-0.144442
-0.00170168
0.00453955
-0.115176
-0.0119037
0.189977
0.0816389
-0.103081
-0.109164
-0.0777038
-0.133961
0.462089
-0.340093
0.335131
-0.400001
0.0675208
-0.36055
-0.163395
-0.0304967
0.173557
0.34327
-0.324264
-0.36461
-0.392583
0.0204026
-0.0322511
-0.0982707
0.000923979
-0.0834539
-0.108142
-0.107977
-0.0882361
0.0178029
-0.221738
0.386706
-0.0106833
0.0429464
-0.0152576
-0.303956
0.2993
0.0653838
-0.40748
-0.119042
-0.00678318
-0.323399
-0.152608
-0.239166
0.384196
-0.231118
-0.109616
-0.179643
-0.401699
-0.0956402
-0.00506157
-0.342208
0.0267488
0.00648166
-0.00421583
-0.265298
0.00542261
-0.143689
-0.0458209
-0.123795
0.343433
0.00853829
-0.0417984
-0.168272
-0.00691579
0.0105856
0.00673879
-0.0792228
-0.0329651
-0.330088
-0.0902838
0.0210755
0.163402
-0.148335
-0.174842
0.0685289
-0.076027
-0.109736
-0.402091
0.00309008
-0.0749843
-0.0296948
-0.0121422
-0.226747
-0.069686
-0.00704097
-0.0471637
-0.0551925
0.0162352
-0.0762103
0.105083
-0.129077
0.037705
-0.00849085
-0.0303401
0.00287471
-0.0777004
-0.247382
0.0150239
0.0321913
0.00258647
-0.406715
-0.0990859
-0.0972219
-0.024989
-0.260606
-0.368904
-0.158928
0.0808421
-0.081272
0.0269076
-0.234469
-0.252922
-0.135359
-0.084979
-0.13221
0.302209
-0.102378
-0.165219
0.106893
-0.0482596
0.00387322
-0.0949791
-0.0590257
-0.172625
-0.108017
0.0284886
-0.107693
-0.0161232
-0.260717
-0.0135837
-0.237993
0.0898363
-0.3113
0.030066
-0.192772
0.0945188
-0.110168
0.0310846
0.0908452
-0.194819
-0.153629
0.201328
-0.0808818
0.0161545
-0.0362852
-0.130986
-0.380473
-0.400452
0.0355573
-0.0814005
-0.0680576
-0.100587
0.0310582
-0.0972546
0.0219466
0.0081214
0.00997053
0.0220924
-0.397363
0.0205409
-0.0115734
0.0159147
-0.0242724
0.0142017
0.0807602
-0.0948047
-0.0333597
-0.107707
-0.363969
-0.00864224
-0.079932
0.000102271
0.0800346
-0.0245937
-0.264221
-0.334674
0.0421508
-0.0163177
0.160395
-0.0864502
-0.33637
0.0318751
-0.00676
-0.0823547
0.00249882
-0.270674
-0.407892
0.0206285
0.151482
-0.0889082
0.401997
0.0152432
0.445428
-0.134614
0.0267736
-0.061546
-0.0295858
-0.200123
-0.338745
-0.0108329
-0.140797
-0.401721
-0.385943
-0.00536476
-0.18652
0.033156
-0.00786866
-0.143828
0.0788466
-0.0263867
0.0283068
-0.409937
-0.237193
-0.0982203
-0.115734
-0.0851879
0.0311265
-0.162173
-0.194034
0.0161161
-0.0739523
-0.40673
-0.0687864
0.0668063
-0.0462877
-0.0148256
-0.0787157
0.00837027
0.0200696
0.0397897
-0.0791769
0.193396
0.0169206
0.234546
-0.401237
-0.0147086
-0.0668545
-0.0466735
-0.117484
-0.0985059
-0.192151
0.00857067
-0.0847173
-0.00771176
-0.0148023
0.0373837
0.0900897
0.00419825
-0.0732424
0.0266222
-0.0141727
-0.40451
0.0294632
0.00319195
-0.0977812
-0.0149676
-0.0240585
0.00401424
0.439624
-0.114632
-0.378948
-0.364927
-0.193132
-0.398281
0.0183193
-0.0476306
0.239597
0.063246
-0.176503
-0.372757
0.127997
-0.214071
-0.1356
0.00725694
-0.123506
0.48603
-0.0249328
-0.0514775
-0.00223164
0.00353745
0.0531888
-0.120219
-0.10979
-0.413037
-0.0959277
0.00884552
0.335223
-0.0806337
0.00627902
-0.194657
-0.0130923
0.000593098
0.401327
0.00237764
-0.110255
-0.0172016
-0.12418
-0.410141
-0.202559
0.159444
0.170742
-0.135339
-0.217511
0.167937
-0.0998232
0.145223
-0.0865378
-0.356043
-0.125413
0.00570317
-0.191197
-0.316676
-0.0146864
0.0131093
0.0406848
-0.0685908
-0.184541
-0.107979
0.0298141
-0.329712
-0.0221591
0.0478321
0.0197625
0.0562152
-0.0025806
0.0250145
-0.199237
-0.385411
0.0451279
0.497607
-0.0471321
-0.0297332
-0.243406
0.220288
-0.22867
-0.114532
-0.312454
0.272662
-0.390296
-0.270415
-0.0468986
-0.0819665
-0.0771569
-0.154755
-0.287659
-0.0804187
-0.282831
0.43822
-0.0715381
0.039967
-0.108991
0.0123906
0.0296333
0.168786
-0.205068
-0.0293164
0.34795
-0.136141
0.0207679
0.0251864
-0.372554
0.0180372
-0.151316
0.175615
-0.0076863
-0.386069
0.120649
0.00750996
-0.142275
-0.386062
-0.111292
-0.404386
-0.301176
0.0125326
0.0140163
-0.36845
0.249326
-0.195799
-0.012189
-0.0840872
-0.00225613
-0.0157727
0.511928
-0.127577
0.0334528
-0.368888
-0.00851112
-0.0779511
0.12156
-0.0767088
-0.258907
0.0349545
0.144821
-0.023385
-0.00517086
-0.388006
0.017131
0.272709
-0.381076
0.0109287
-0.0246665
-0.360573
-0.366299
-0.0393946
-0.0969767
0.0329558
0.0363163
0.0256464
-0.140009
0.118207
-0.311416
-0.0931269
0.383238
-0.0611467
-0.0122301
-0.143699
-0.142379
0.0227999
-0.405392
-0.284435
-0.410512
-0.0561288
0.0312603
-0.38409
-0.098802
-0.116896
0.0157589
0.00577446
-0.084371
0.0271639
-0.241462
0.000927085
-0.0109662
-0.0516907
-0.0254897
0.00558424
0.00844249
0.0464227
-0.409119
0.0373592
-0.0143015
-0.13606
-0.164377
0.0288038
-0.00725897
-0.231781
-0.0778912
-0.13406
-0.0282858
-0.321303
-0.00336632
0.00562588
-0.0264109
0.507921
0.473321
-0.0781838
-0.0741514
-0.170123
-0.137411
-0.0576978
0.189368
0.0255797
-0.230196
0.0700296
-0.239605
0.121575
0.189132
-0.345983
-0.166215
0.0137391
0.217983
0.404333
0.0236552
0.406923
-0.316207
0.00581514
-0.112374
0.513474
-0.00303418
0.0318997
0.00494845
0.00180365
-0.393578
0.350227
0.345788
-0.0975815
-0.00903121
-0.0998317
-0.020587
-0.0472969
0.00169207
-0.121939
-0.290931
-0.370286
0.352186
-0.00312884
0.275726
-0.0175639
-0.00933498
-0.0636074
0.0235555
-0.108343
-0.0405173
-0.354304
-0.308167
-0.134499
0.125901
0.0250212
0.00573284
0.0829778
-0.0297068
-0.168884
-0.255957
0.0111305
-0.158647
-0.35288
0.151886
0.0849067
-0.0752599
-0.336445
-0.0158717
-0.201372
0.00733355
0.0385728
-0.0559375
0.0230079
-0.17104
0.0408696
-0.370788
-0.00473097
0.0368844
-0.0204655
-0.043489
-0.235001
-0.00308011
0.308372
-0.0106082
-0.373627
0.0306382
-0.0845821
0.122325
0.251951
-0.0328818
0.0146323
0.506561
-0.104018
0.0227498
-0.192152
-0.0742121
-0.167494
-0.0796302
-0.409982
0.200136
-0.193091
0.121528
0.0372472
0.106767
-0.0442408
-0.0926899
-0.119693
-0.0834258
0.0229504
0.0229923
0.0158948
-0.104954
-0.331616
0.0229833
-0.405921
-0.178884
-0.165423
-0.409207
-0.400943
0.0423933
-0.104218
-0.406391
0.106434
-0.242159
-0.380157
-0.130421
0.0238536
0.0908917
0.0144128
0.0115205
-0.122726
0.0199164
-0.13669
-0.100054
-0.201458
-0.00956994
0.0275582
0.00793849
-0.192127
-0.409009
-0.141192
0.0713263
-0.0339334
-0.119905
-0.126243
-0.257179
0.211247
0.506629
-0.0834135
-0.0794904
0.0249509
-0.00173058
-0.328795
-0.022779
0.0122015
-0.17016
0.0167957
-0.148152
-0.00732445
-0.330371
0.00316954
-0.0131878
-0.121514
0.00334483
-0.405113
0.145191
-0.0815367
0.0118732
0.00336389
0.0196417
0.0738251
-0.221191
-0.0161608
0.0116169
0.000769467
-0.222813
-0.165356
-0.0747993
-0.0131015
-0.0888794
-0.0957136
-0.14683
0.329395
0.0418477
0.00168273
0.0655325
0.0111624
-0.0489457
-0.0337122
0.267501
-0.137913
-0.123538
-0.110838
-0.136832
0.0420865
0.150358
-0.380786
0.032088
0.00804052
0.00110544
0.0330706
-0.365425
-0.145677
-0.335475
-0.303152
-0.0771814
-0.227289
0.111557
0.273018
0.142916
0.0487842
-0.00463543
-0.056889
-0.0802721
0.013704
-0.165469
-0.15839
0.483305
0.00711683
-0.0462357
-0.0854549
-0.393641
-0.401245
0.017734
-0.00935596
-0.119561
0.0316161
-0.0677494
-0.406351
-0.408936
-0.0746611
-0.082044
-0.00716672
-0.120199
-0.369523
-0.0669708
0.0310621
0.0742985
-0.239175
0.445124
-0.100007
-0.30651
-0.0987336
-0.175285
-0.0169113
-0.0151747
-0.265694
-0.00134379
-0.0391038
-0.233523
-0.0776816
0.511887
-0.171126
0.00396658
-0.00238682
-0.0310842
-0.0735258
-0.148733
-0.0808236
-0.373226
0.000513215
-0.0640668
-0.0853079
-0.0403452
-0.0456247
0.0154495
-0.123419
0.331018
-0.0157802
-0.164351
0.00509432
-0.0242203
0.030342
0.0607509
0.395139
-0.368366
0.0119355
-0.179488
-0.266275
0.104299
0.0238019
-0.0839289
-0.00576805
-0.0126005
-0.0524208
-0.0112399
-0.409456
-0.105501
0.0576468
-0.353868
0.0468309
-0.0807875
-0.01586
0.0518995
-0.199526
-0.073271
-0.0474432
-0.119288
0.00160247
-0.408617
-0.0107703
-0.134802
-0.102873
-0.395566
-0.408224
-0.0415447
-0.075862
-0.0106868
-0.079332
-0.260584
-0.0544235
0.00409769
-0.099088
-0.357072
-0.378435
-0.0726786
0.0533565
-0.0936936
-0.212144
0.0237293
-0.0993505
-0.156762
-0.342515
-0.0884971
-0.0590603
-0.104606
0.00973515
-0.0514209
-0.147771
-0.00664039
-0.00232432
0.0118761
-0.0777813
0.516923
-0.173847
0.0185377
0.0613402
-0.00580019
0.00460806
-0.0619904
-0.153384
0.00315918
-0.409702
-0.0783741
-0.0241266
0.00300507
-0.405734
-0.00572742
-0.00422693
0.052197
-0.0201099
-0.219883
-0.361944
0.0688632
-0.18009
0.048879
0.0534187
-0.0983825
0.263264
0.216315
-0.391554
-0.0988645
-0.401469
-0.152613
-0.055427
-0.100912
0.218059
-0.0743093
-0.40734
0.00109091
0.00805536
-0.393744
-0.123639
-0.281934
0.0537564
0.47578
0.00980872
0.0667554
0.0812846
-0.0744886
-0.0521755
-0.157581
-0.058548
-0.217591
-0.0122996
-0.0203676
-0.0857746
0.0394614
0.0319328
0.165522
-0.0785015
-0.0682256
-0.171097
-0.0716291
-0.138346
-0.0260842
0.0306376
-0.0971642
-0.0181255
-0.407953
-0.0440903
0.0220411
-0.0962058
0.0622383
-0.0842438
-0.161166
0.468035
0.0716262
-0.0244855
-0.365783
-0.079354
-0.347408
-0.255633
-0.350617
-0.166076
0.457979
-0.125202
0.0477491
-0.0688706
-0.386129
-0.139407
0.0491033
-0.0134862
0.465244
-0.0485909
-0.0322917
0.456645
-0.0599227
-0.0249418
-0.330482
-0.0501823
-0.0241712
-0.133946
-0.109026
-0.000278652
-0.0397721
-0.0861627
0.0789263
-0.237945
-0.341792
-0.0710842
-0.00394192
0.0462258
0.327163
-0.232125
-0.086498
-0.198519
-0.108016
-0.263303
0.0401326
-0.255983
-0.0134576
-0.169543
0.0181474
-0.349895
-0.192464
-0.406895
-0.0837243
-0.203383
0.452586
-0.248097
0.0229898
-0.32686
-0.110103
0.0204737
-0.176064
0.510492
0.0194083
-0.110559
0.0229424
-0.0238065
-0.347344
0.0361182
-0.236852
0.00932242
-0.0763037
-0.0763998
-0.212279
-0.0167582
-0.315995
-0.132846
-0.217566
0.0162716
0.0474353
0.00980001
-0.187968
0.0241273
0.074299
-0.0382399
0.0339779
0.0176838
-0.0834397
0.0682406
-0.379768
-0.242999
-0.0887207
-0.00594289
-0.327871
-0.0140352
0.0271214
0.0269945
0.0118544
-0.148569
-0.0296498
-0.0245892
0.029278
0.0227839
-0.0689296
-0.39959
0.0269847
0.0709146
0.333095
-0.187967
-0.327781
-0.379729
-0.208235
0.00318832
-0.0797461
0.171732
0.00807116
0.380417
0.0156769
-0.21886
0.0174863
-0.121647
-0.226825
-0.180809
-0.0281689
0.00176682
-0.0491343
-0.377736
-0.100463
-0.0209294
-0.0739745
0.0530835
0.286668
-0.0189739
-0.395274
-0.325676
0.0513278
-0.0181747
0.140762
-0.188641
-0.042865
-0.0606448
-0.348857
-0.0895127
-0.0228473
-0.387995
0.0958535
-0.0528397
-0.0885605
-0.33699
-0.140567
-0.0893147
-0.0642394
-0.0297249
-0.407329
-0.345995
-0.225039
-0.406208
-0.063794
-0.378265
-0.181045
-0.0974325
-0.218641
-0.0755403
-0.384069
0.372166
-0.0118399
-0.0788741
0.0332596
0.0780618
0.081604
-0.354805
-0.129197
0.0133711
0.147847
-0.106978
-0.369462
-0.0310518
-0.105031
-0.0186584
-0.364148
-0.0861038
-0.269081
-0.101348
-0.0166363
-0.406028
-0.0235008
-0.343852
-0.0467545
0.0518729
-0.323862
-0.0246677
-0.0208703
0.090735
-0.033371
-0.0907172
-0.0424622
-0.408731
-0.134193
-0.123718
0.00273469
-0.0766244
-0.00626439
-0.0806094
-0.0906307
0.0778078
0.0116279
-0.204657
-0.370298
-0.0087449
-0.0623008
0.0237944
0.00659172
-0.119001
-0.1685
-0.218666
-0.325624
-0.360071
-0.222976
0.0341767
0.036556
-0.0231271
0.0895068
-0.0717165
-0.191019
0.508784
-0.0138458
-0.357398
-0.108179
0.183728
-0.302797
-0.0888976
-0.31515
-0.0155694
-0.07923
0.0160039
-0.0118288
0.0170129
-0.00679352
-0.381964
-0.128162
-0.323806
0.0168417
0.034327
-0.122807
-0.410628
-0.170625
0.0239444
-0.200057
-0.285424
-0.0687517
-0.0852903
-0.221445
0.0969858
-0.0434282
-0.0738293
0.0128099
-0.00398142
0.118638
-0.257851
0.0359928
0.00946129
-0.0819308
-0.10512
-0.0612768
-0.049592
-0.199503
0.453431
0.0120196
-0.180552
-0.401899
-0.02106
-0.00188656
0.20581
0.0131233
-0.0259863
-0.226289
-0.199556
-0.382272
-0.202659
0.0964416
0.190593
-0.00633075
-0.32443
0.0989012
-0.00611276
0.0800092
-0.00739005
-0.284276
-0.0335501
-0.400051
0.0025316
-0.0256905
-0.207667
-0.00712893
-0.0751046
0.10323
-0.405362
0.423643
-0.344584
-0.103581
-0.264432
0.0102877
0.125798
-0.0866145
-0.226179
-0.113664
0.502335
0.00942631
0.00979601
0.0062248
-0.0919121
-0.00183899
-0.190647
-0.00468658
-0.0751909
0.0184498
-0.332167
-0.07524
-0.228493
-0.132808
0.26913
0.0227576
0.272856
-0.308119
0.00520075
0.0271134
-0.190766
-0.377294
-0.272685
-0.300877
-0.00724493
-0.34822
-0.379787
-0.0414838
-0.10063
0.0341122
-0.0156469
-0.00917266
-0.0733101
-0.00451031
-0.082346
-0.0842797
-0.180212
-0.0714348
-0.386445
0.00444667
0.487205
-0.0247328
0.0158468
-0.0686712
-0.391851
-0.303094
-0.0065743
-0.0876585
-0.313241
-0.142043
-0.0768154
0.015376
0.104337
0.0568875
-0.0167766
-0.0526766
0.00945224
0.253333
0.0119047
-0.357645
-0.0628749
-0.0797217
-0.0861413
-0.0935932
-0.143681
-0.00429316
0.0216298
-0.405956
0.0118414
-0.0430445
-0.0197709
-0.399103
-0.403866
0.457538
0.0216078
-0.40443
-0.135927
-0.0939467
-0.00666878
-0.193288
-0.00866392
0.252823
-0.234213
-0.0824764
-0.00685617
-0.103624
-0.00860456
-0.0461942
-0.0140699
0.0165873
0.0210497
-0.304921
-0.143196
0.0209019
-0.0231916
-0.314176
0.0159769
0.00923434
0.0267049
0.509262
-0.194095
-0.0981675
0.10267
0.0148377
-0.12686
0.0382083
-0.409548
-0.0876045
0.518145
-0.00662261
0.00462753
-0.0256821
-0.148861
-0.0245949
-0.162027
-0.36939
-0.00641891
0.114966
-0.0088322
0.180979
0.471959
-0.068258
0.33537
0.411267
-0.04411
-0.156811
-0.2745
-0.0161682
0.016465
0.180095
0.0764244
0.0327631
-0.056655
-0.32874
-0.0749454
0.00587368
-0.00870088
-0.3311
-0.108143
0.0727385
0.000987252
-0.0487581
0.297929
0.46301
-0.3032
-0.354848
-0.0154353
0.409333
0.00695331
-0.0481565
-0.06417
-0.0570308
-0.1441
-0.0503268
-0.349371
-0.0823878
-0.0981106
0.000879692
0.000671854
0.0475972
-0.0155939
-0.081529
-0.208912
-0.408849
0.00687813
-0.0687057
-0.129633
-0.0300721
-0.175644
-0.0421646
-0.319041
0.0263639
-0.164064
-0.235236
-0.0382362
-0.107637
-0.0152593
-0.123131
0.289867
-0.0621044
-0.0352432
-0.0761307
-0.0156699
0.124246
-0.0710567
-0.00616944
-0.163453
0.00510391
0.0141934
0.509245
-0.407542
0.0117245
-0.0759621
-0.404543
-0.387568
-0.121516
-0.202731
0.038332
-0.0794502
-0.200992
-0.0582196
-0.0704821
-0.405209
-0.403824
0.394456
-0.394023
-0.0167516
-0.00418981
-0.00438356
-0.133278
-0.0186555
0.0163446
-0.158742
-0.0908751
-0.282354
-0.339557
-0.174673
0.00539544
-0.0756923
-0.0836167
-0.21101
-0.0484001
-0.379412
-0.00646221
0.209497
-0.401403
0.331029
-0.317651
-0.122533
0.0240322
-0.296438
0.0261865
-0.258606
0.032184
0.351379
-0.332737
0.010266
-0.109019
-0.133167
0.0189872
0.0372869
0.00230773
-0.0036391
-0.0877628
-0.339608
-0.064508
-0.0110521
0.0191422
-0.167482
-0.10475
0.00579138
0.00473065
0.00321924
0.00836536
-0.321796
0.176228
-0.286233
-0.0678525
0.205144
0.0135049
-0.0645254
0.00532559
-0.0741008
0.0307461
-0.150175
-0.163792
0.0161009
-0.403832
0.00932351
0.00640431
-0.206744
0.268294
-0.286461
0.00857754
0.0366925
-0.0359616
0.00317602
-0.0835102
0.00865556
-0.0741132
0.110824
-0.000253787
-0.240447
-0.372296
0.433153
0.0809783
-0.0105203
0.457883
-0.0902225
-0.406342
0.249976
0.00638519
0.0571763
-0.229125
0.0967973
0.427709
-0.250648
0.00873671
-0.309124
-0.0696322
-0.353986
0.0414687
-0.0257392
-0.188718
0.0156653
-0.0661224
0.025389
0.0214857
0.023548
-0.231294
0.142755
-0.00541306
-0.162197
-0.403668
0.0555573
0.138861
-0.00708219
0.00586879
-0.309033
0.459121
-0.133121
-0.024854
-0.286893
-0.245909
0.0502399
0.00340951
0.0030818
-0.0885947
-0.00406095
-0.0372338
0.0625526
-0.358891
0.0255594
0.0411971
0.22029
-0.360588
-0.361692
-0.153119
-0.240354
-0.197188
-0.405046
-0.0686461
0.0396508
0.0199829
0.00536215
-0.402863
0.0158659
-0.159987
-0.0932358
0.0291495
0.00831497
-0.166727
0.0179599
-0.0834406
-0.209166
-0.089062
-0.194887
-0.120156
-0.226636
-0.00366965
-0.407283
0.141736
-0.0576132
-0.0969956
0.073381
-0.402708
-0.3077
-0.134678
-0.0994436
-0.00016896
0.00461125
-0.282889
-0.143284
-0.0852107
0.0787822
0.0161721
-0.0727608
0.0224304
-0.0235836
0.0781767
-0.0717965
-0.112352
-0.109559
-0.167729
-0.0751025
0.0086237
-0.230974
-0.0765722
0.00795623
-0.0702421
-0.24404
-0.0265078
0.0298527
-0.0636152
-0.0983251
-0.269675
-0.0778083
-0.0785096
0.0161236
-0.0749618
-0.0151234
-0.0881253
0.0311491
-0.281
-0.234176
0.02854
-0.132327
-0.00159059
-0.0627189
0.130429
-0.392677
-0.0837994
0.0233977
-0.259128
-0.401153
0.0479221
-0.230925
-0.390376
-0.00869981
0.426353
0.0972295
-0.216788
-0.333613
-0.00877218
0.0289006
-0.00194128
-0.0453801
-0.0628257
0.0203898
-0.104025
-0.40364
-0.176252
0.00380943
0.047716
0.0192906
0.0305951
-0.111824
0.0117624
-0.40652
-0.100035
0.0045525
-0.282998
-0.0619637
-0.146315
-0.0796486
-0.0868397
-0.0267884
-0.00204482
0.0700834
0.0041066
0.00947092
-0.318031
0.00821074
0.131647
-0.0868067
-0.145902
-0.160164
-0.166475
0.129885
-0.0100943
-0.0733326
-0.0834512
0.0202643
-0.108714
0.0190245
0.0298593
0.0472782
0.00733129
0.00526508
-0.0714744
0.0220363
-0.295131
0.047737
-0.363801
-0.219823
0.0286119
-0.224559
0.0247996
-0.0831185
-0.111532
-0.365255
-0.0781533
-0.0941918
-0.0958981
-0.267043
-0.0772621
-0.156213
-0.0782533
-0.00477077
0.0142008
-0.0111906
-0.2042
0.123181
-0.235945
-0.0756034
-0.0691045
-0.00330409
0.0475165
0.0261526
0.0232328
0.107906
-0.0640605
0.126796
0.108398
0.0304048
0.0361989
-0.0360314
-0.210751
-0.00378842
-0.0447826
-0.0791757
-0.0796648
-0.287007
0.404643
-0.0201618
0.321499
-0.0157169
-0.0134694
0.23398
-0.190738
0.00470983
-0.311539
-0.0355652
-0.222412
0.0230017
-0.0874426
-0.0767544
-0.0283162
-0.00994326
-0.138559
0.0287515
0.0380484
0.00651581
-0.346243
-0.109718
0.290248
-0.163921
0.0264487
-0.160895
-0.0868459
0.171159
-0.3536
0.301323
0.113457
-0.231141
0.0162914
-0.0329673
0.0155304
-0.0774681
-0.410158
-0.00953093
-0.0189402
-0.0873826
-0.0717161
-0.0715817
-0.409449
-0.137099
-0.0726307
0.138036
-0.0104474
-0.228016
0.0232969
-0.209437
-0.0468832
-0.0138574
-0.0229046
-0.246096
-0.115041
-0.00239129
0.00201518
-0.0412088
0.408119
-0.184384
-0.00266126
-0.0156183
-0.0141652
-0.12116
-0.239552
-0.400011
-0.0135506
0.0350637
-0.138169
-0.0173495
-0.234739
-0.179833
-0.189871
-0.0797994
-0.0342434
0.0236104
0.0353044
0.490431
0.024338
-0.229006
-0.0784053
0.052193
0.0144221
-0.122906
-0.0407298
-0.0810673
-0.0828334
-0.107307
-0.128427
0.0281623
-0.0016973
-0.408199
0.318122
-0.403972
-0.00918755
-0.296873
-0.00229071
-0.036443
0.0221553
0.0268507
0.0246333
0.0232286
-0.251574
-0.0132395
-0.112056
-0.0604659
0.04485
-0.0882036
0.00629005
-0.0871647
-0.208074
0.0232169
-0.380382
0.00561711
-0.391991
0.151027
-0.165538
-0.305225
0.0241974
-0.370847
-0.072106
-0.0155963
-0.193879
0.00749471
-0.0983655
-0.0199487
0.0375858
-0.153366
0.00412865
0.118484
-0.334224
-0.243461
0.0283568
-0.0724249
-0.271366
-0.0668824
-0.00509384
-0.0867367
0.500746
-0.0373173
-0.120436
0.0402343
-0.111614
-0.113964
-0.0760303
-0.336141
-0.197639
-0.014771
0.0152413
0.169096
-0.0713929
-0.0794554
-0.300325
0.0406418
-0.331282
0.0119387
0.0451759
0.0215281
-0.171231
0.0106067
0.0228886
-0.271262
-0.129786
-0.0681328
-0.239546
0.0244414
-0.288602
-0.0060882
-0.07808
0.263385
-0.0207906
-0.0979898
-0.286854
0.4441
0.0516896
-0.273092
-0.00352529
0.0150983
-0.0155044
0.198308
-0.30237
0.00745818
0.218177
-0.157738
0.491878
-0.265382
-0.0963329
0.189288
-0.0649176
-0.0984127
0.023854
0.00439276
-0.0140774
0.123141
-0.27318
-0.135643
-0.101729
0.121307
-0.289676
0.00429592
0.0120141
0.0064663
-0.154726
-0.114546
-0.128681
-0.114647
0.117309
0.0358196
-0.0870476