/*--------------------------------*- C++ -*----------------------------------*\
| =========                 |                                                 |
| \\      /  F ield         | OpenFOAM: The Open Source CFD Toolbox           |
|  \\    /   O peration     | Version:  v2012                                 |
|   \\  /    A nd           | Website:  www.openfoam.com                      |
|    \\/     M anipulation  |                                                 |
\*---------------------------------------------------------------------------*/
FoamFile
{
    version     2.0;
    format      ascii;
    class       surfaceScalarField;
    location    "300";
    object      phi;
}
// * * * * * * * * * * * * * * * * * * * * * * * * * * * * * * * * * * * * * //

dimensions      [0 3 -1 0 0 0 0];
oriented        oriented;


internalField   nonuniform List<scalar> 
81198
(
-0.140855
0.00593248
0.134923
-0.0978386
0.0480263
0.0498123
0.0810371
-0.250466
0.169429
0.00833669
-0.00474512
-0.00359157
0.00330883
-0.00810951
0.00480068
-0.00232191
0.00231981
2.10301e-06
-0.000635983
0.000578933
5.70499e-05
0.0955104
-0.0581024
-0.037408
0.0865095
-0.063537
-0.0229725
-0.226155
0.0613608
0.164794
-0.0459319
0.0868781
-0.0409461
3.74519e-05
-0.00150053
0.00146307
-0.0142107
0.0211852
-0.00697456
0.238192
-0.161867
-0.0763249
0.0530623
-0.0159478
-0.0371145
-0.0823963
0.0625724
0.0198239
0.0525602
0.0429502
0.0322974
-0.05732
0.0250226
-0.0575672
-0.168588
0.0492303
-0.0739645
0.0247342
0.243727
-0.16269
0.146606
-0.0882764
-0.0583293
-0.0894315
0.17814
-0.088708
0.00499793
-2.15987e-05
-0.00497633
0.129064
-0.28248
0.153416
0.0765419
-0.028661
-0.0478809
0.0536998
-0.194555
0.0514425
-0.0850756
0.0336331
0.00243941
-0.0038685
0.00142909
0.0807478
-0.170179
0.0439928
0.032549
0.0236799
-0.0514114
0.0277314
-0.0984362
0.245696
-0.14726
-0.00172657
-0.00425796
0.00598453
0.0071807
-0.0387325
0.0315518
0.274993
-0.116285
-0.158708
-0.0680203
0.00279864
0.0652217
-0.05391
-0.0439286
0.154935
-0.102874
-0.0520616
0.0529005
0.0937052
-0.00236832
-0.00597454
0.00834286
-0.0705727
0.0418792
0.0286934
-0.302376
0.112379
0.189996
-0.147991
0.17217
-0.0241798
0.0137695
0.00212591
-0.0158954
0.0833797
0.0331454
-0.116525
0.0430947
-0.0703945
0.0272998
-0.0200236
-0.0322286
0.0522522
0.0882735
-0.228296
0.140022
0.0866861
-0.0865744
-0.000111683
-0.255775
0.157339
-0.0649035
0.206594
-0.14169
0.0755305
0.0518051
-0.127336
-0.00428856
0.018058
-0.0870459
0.0484482
0.0385977
-0.157545
0.349509
-0.191965
0.0152622
0.00703155
-0.0222937
-0.0637885
0.0288625
0.0349259
0.0686891
-0.0330854
-0.0356037
-0.0251624
-0.00615574
0.0313182
-0.202204
-0.100172
0.0319516
0.0775224
-0.109474
0.156217
0.0819751
-0.00392873
0.00730781
-0.00337908
0.150186
0.0522125
-0.202399
-0.0602606
-0.0221357
0.00890811
-0.0151581
0.00625
0.0504511
-0.0392208
-0.0112303
0.00744498
-0.00630938
-0.0011356
-0.00846038
0.00146168
0.0069987
-0.21967
0.154766
-0.0350225
0.0422032
0.235463
-0.085277
0.0235772
-0.0395344
0.0159572
-0.0859718
-0.0484951
0.134467
0.0561885
0.0565966
-0.112785
0.114062
-0.0438466
-0.0702151
-0.00877209
-0.0225249
0.031297
5.42078e-06
0.00288799
-0.00289342
0.024127
-0.00635702
-0.0177699
0.34309
-0.229189
-0.113901
-0.00356295
0.00790675
-0.0043438
-0.0105188
-0.137472
0.019982
-0.0248252
0.00484328
-0.0625921
0.1215
-0.0589081
0.037997
-0.0144198
0.00526056
-0.00371445
-0.00154611
-0.0151479
0.0620908
-0.0469429
0.032146
-0.0165626
-0.0155834
0.169877
-0.0878102
-0.0820669
-0.00532594
0.00532594
0.118101
-0.0707336
-0.0473672
0.0329144
-0.0709827
0.0380684
0.0794646
-0.0251115
-0.0543531
0.0594252
-0.0913246
0.0318993
0.00235582
-0.00292632
0.000570495
0.022504
0.0112033
-0.0337074
0.0438803
0.0152982
-0.0591786
0.0911142
0.0386081
-0.129722
0.0793948
0.00729123
-0.0457579
-0.101887
0.147645
-0.00235582
-0.00239059
0.0047464
-0.125769
0.0532969
0.0724724
0.140962
0.0951336
-0.236095
0.0541672
-0.0304873
0.0381159
-0.0744587
0.0363428
0.0658418
-0.00707079
-0.058771
-0.0600459
0.044898
-0.0592046
0.115393
0.00253444
0.0243508
-0.0268853
-0.0181537
0.00969097
0.00846271
0.132957
0.109167
-0.242124
0.0942874
0.0755898
-0.0658596
0.0422974
0.0235622
-0.110779
-0.0385912
0.14937
0.0011611
-0.00534632
0.00418523
-0.00626922
-0.00219115
-0.00640921
0.00248048
0.00478697
-0.00651355
0.0699188
-0.0370044
0.005085
0.0022228
-0.196179
-0.0770557
0.273235
-0.00834758
0.00890729
0.0166299
0.0790838
-0.0957137
-0.249227
0.166812
0.0824144
-0.0126821
0.00264148
0.0100407
-0.0577353
-0.0439501
0.101685
-0.128445
-0.120781
0.00380772
-0.0025021
-0.00130562
-0.0145521
0.0201901
-0.00563796
0.203687
-0.319137
0.11545
0.168742
-0.106714
-0.0620272
-0.0522867
0.112038
-0.0597513
0.15864
0.116353
0.0252923
0.0928085
-0.0258735
0.020713
0.00516044
0.173923
0.0268732
-0.200796
-0.0186254
0.0331997
-0.0145743
0.116057
0.104461
-0.220518
-0.20552
0.124963
0.0805564
0.010082
-0.00263904
-0.00744293
0.0144401
-0.0354009
0.0209608
-0.114266
0.0619796
0.0328681
0.0205546
-0.0534227
0.109493
-0.0484875
-0.061005
0.0143624
0.0360887
0.00148106
-0.00152967
4.86059e-05
0.00239385
-0.0704141
0.0190398
-0.0351438
0.016104
0.0686728
0.0879221
-0.156595
0.020147
0.0147953
-0.0349423
0.0541275
-0.138203
0.0840758
0.0337919
0.0386729
-0.0724648
0.0478838
0.0315808
-0.0850403
0.163693
-0.0786528
0.0314253
-0.0277861
-0.00363918
-0.106281
0.0603494
0.0214458
0.00997946
-0.0168637
0.0412139
-0.0243503
0.128079
0.029347
-0.157426
-0.0242643
-0.0346182
0.0588825
-0.0285471
0.0915521
-0.0630051
0.00640039
0.00368157
-0.00027943
0.00171997
-0.00144054
0.0920481
-0.0406057
-0.200341
0.119641
0.0806998
0.333198
-0.189159
-0.144039
0.280463
-0.164438
-0.116025
-0.0107882
0.00993284
0.000855405
0.177179
0.0982089
-0.275388
-0.0565061
0.0555207
0.000985439
-0.00964696
-0.0162265
0.0166448
0.117148
-0.313327
-0.0658366
0.0938099
-0.0279733
0.249095
-0.160022
-0.0890729
0.00758235
-0.0195098
0.0119275
0.0742225
-0.115963
0.0417408
0.0676783
0.0408098
-0.108488
0.00730839
-0.0096767
-0.00134133
0.0040121
-0.00267076
-0.0881842
-0.148417
-0.00379549
0.00205651
0.00173897
0.112267
0.0107459
-0.123013
0.283936
0.0319061
-0.315842
0.00393402
-0.00393402
-0.0706495
-0.0960501
0.1667
-0.117807
0.0918294
0.025978
-0.20619
0.0443226
0.0362696
-0.0645257
0.0282561
0.0996299
0.0129082
-0.0317862
0.0188781
0.00669432
0.00010415
-0.00679847
0.119617
0.115846
0.00746961
-0.00765585
0.000186236
0.000576234
0.000904829
-0.146522
0.166005
-0.0194835
0.0320956
-0.0977767
0.0656811
-0.0218668
0.00493959
-0.0049229
-1.66926e-05
-0.102473
0.0796356
0.0228376
-0.0118036
-0.000878561
0.0361438
0.033074
-0.0692179
-0.0836019
-0.0421674
0.0340422
-0.121568
0.0875257
0.114931
-0.0808889
0.0110738
-0.0279917
-0.141178
0.0785863
0.122373
0.0325626
0.195016
0.148074
-0.211796
0.00776799
0.204028
-0.168185
-0.0380044
-0.241187
-0.0454088
0.121014
-0.0756049
0.0948013
-0.0353761
-0.0240993
-0.0310498
0.055149
0.026836
-0.0214265
-0.00540944
-0.0235468
-0.00852598
0.0320728
-0.0104615
0.00060679
0.00985469
0.0671292
-0.213651
-0.040946
0.103484
-0.0625382
-0.0142352
0.0294974
-0.0452803
-0.0252923
-0.167083
0.122169
0.0449143
-0.0222113
-0.00109805
0.0233093
0.110421
-0.0799545
-0.0304664
0.253657
-0.283976
0.030319
0.0548987
-0.0226013
0.255838
-0.16246
-0.0933783
-0.0440668
0.0272031
-0.10004
0.0423042
-0.0300323
-0.0268406
0.0568729
-0.00229479
0.00229479
0.0070741
0.276862
-0.0996873
0.101447
-0.00175976
-0.0169144
0.0394184
-0.0530124
-0.00349371
0.27563
-0.00673338
-0.268897
0.0112475
-0.0267337
0.0293987
0.246232
-0.0395088
-0.127575
-0.0973558
0.051947
0.0200703
0.00179417
-0.0218645
0.0726839
-0.0552209
-0.017463
-0.0997583
-0.0426694
0.142428
-0.151331
-0.00546154
0.00863776
-0.00281856
-0.00581919
-0.0535373
0.0435599
0.00997745
-0.280674
0.234147
0.0465272
0.0351057
-0.0593701
0.0355526
0.0371313
-0.00180483
0.00162662
0.000178208
0.0254145
-0.00748154
-0.017933
-0.278588
0.167094
0.111494
0.0817484
-0.16772
-0.329367
0.216083
0.113283
-0.0064809
0.000707703
0.0057732
0.125346
-0.117082
-0.00826455
-0.0676677
0.0328919
0.0347758
0.12443
-0.0352087
-0.0892215
0.0289456
-0.0661323
0.0371867
-0.00165262
0.00372842
-0.0020758
0.138093
-0.0846573
-0.0534361
0.00493021
9.38171e-06
-0.0659357
-0.0286229
0.0945586
-0.0959082
-0.108348
0.204256
0.00266729
-0.003215
0.000547707
-0.0856407
-0.195033
0.0192976
0.0606625
-0.0799601
-0.0695227
-0.130818
-0.0371229
0.0236185
0.0135044
0.0526766
-0.0297542
-0.0229224
0.075936
0.027179
-0.103115
-0.149072
0.155004
-0.14531
-0.00602153
-0.0718904
0.176415
-0.104524
-0.0189621
0.0929017
-0.0739396
-0.00518283
0.0251648
0.168752
-0.18565
0.0168988
-0.0253563
0.068451
0.0422987
-0.274891
0.232592
-0.0991444
0.119546
-0.0204012
0.16226
-0.0932335
-0.0690265
0.00758596
-0.000116346
0.00509647
0.00354128
0.00791352
-0.00164876
-0.00626476
0.0361537
0.281047
-0.0773598
0.0512243
0.0582682
-0.0308382
0.00606739
0.0247708
-0.00201965
0.000214816
-0.00707703
0.00351408
-0.14786
-0.130728
-0.108943
0.265678
-0.156735
0.00348328
0.0547341
-0.0582174
0.279112
-0.0254551
0.0128133
0.0140227
0.0229833
0.0296932
-0.191829
0.0810499
0.0210255
-0.0466629
0.0256374
0.0553855
-0.022915
-0.0324705
0.0533154
-0.144907
0.0915918
0.00873764
-0.220534
-0.278303
0.282399
-0.0040966
-0.0511039
-0.0949583
0.146062
0.0538292
-0.145576
0.0917471
0.0599939
0.0260177
-0.0860116
0.00207583
-0.00217126
9.54272e-05
-0.0752634
0.143936
-0.205261
0.115028
0.0902327
0.0180472
0.00736737
-0.0788855
0.0440908
0.0347946
-0.00623358
-0.00194486
0.00817845
-0.124322
0.0246345
-0.00928389
0.00497768
0.00430621
-0.000610251
0.00327754
0.026319
-0.0150716
0.0514763
-0.0537578
0.00228152
0.041045
-0.067472
0.026427
-0.0665789
-0.0849113
0.15149
0.0374037
-0.0770237
0.03962
0.0904653
-0.212533
0.122068
-0.0276806
0.056136
-0.0284554
0.065739
0.0263091
-0.0105373
-0.0157246
0.0262619
0.0872172
-0.0760766
-0.0111407
-0.00378192
-0.0348298
0.0386118
0.113682
-0.209591
-0.00403267
0.00269133
0.0831034
-0.0664734
-0.217152
0.0013042
0.215848
-0.105394
0.0895185
0.015876
-0.025854
0.166816
-0.0884353
0.0598882
-0.307635
0.0293328
-0.0142523
0.0141767
7.56025e-05
-0.0124264
-0.0806272
0.0930536
0.00541529
-0.00363647
-0.00177882
0.0255804
-0.0447587
0.0191783
-0.0604294
-0.0445826
0.105012
-0.0466594
-0.0322261
-0.0398108
0.115341
0.00899408
-0.00630467
-0.0026894
0.0257277
0.0996186
0.15248
-0.0986512
0.00997275
-0.0666102
0.0566375
-0.0429964
-0.043578
0.052882
-0.0318565
0.0553254
0.00492924
-0.0602546
-0.0183394
-0.0273144
0.0456538
0.00754705
-0.00754705
-0.279577
0.170635
0.0354327
-0.0621737
0.026741
-0.0761241
0.0410153
0.0351088
-0.0878975
0.169257
-0.0813593
-0.304214
0.102011
0.0425486
0.022978
-0.0655266
-0.060675
-0.140602
0.201277
0.175869
-0.0619262
-0.113942
-0.202439
0.137846
0.064593
-0.0545387
0.0304394
0.0539374
-0.0948834
0.132881
-0.0765381
-0.0563433
-0.00132057
0.00276296
-0.00144239
0.0420905
-0.0242699
-0.0178206
-0.0683996
0.122214
-0.0538141
-0.203697
0.143022
-0.0219093
-0.113661
0.0677653
0.045896
-0.106307
0.225925
0.152702
-0.0998877
-0.0528141
0.0890929
-0.140197
0.224682
-0.134216
0.0642504
-0.130829
-0.0904302
0.0804312
0.00999892
0.00283787
-0.0244454
0.0216075
-0.0959714
-0.084807
0.180778
0.0702961
-0.0294881
-0.040808
-0.0425781
0.118514
-0.000650729
0.000149909
0.00050082
0.00264692
-0.00292635
-0.040529
0.0533543
-0.0128252
0.0149034
0.0202415
-0.0351449
-0.0358128
-0.0177246
-0.0307524
0.0668962
-0.0268431
-0.00529342
0.0321365
0.00907308
-0.00152604
0.211191
0.0280849
-0.00801461
-0.0227041
-0.00121311
0.0239172
0.0204882
-0.0168737
-0.00361446
0.0392044
0.0294847
-0.100202
0.0877753
-0.189345
-0.11487
-0.00166347
0.00564775
-0.00398428
0.00439153
-0.00444629
5.47612e-05
0.048275
0.0220211
0.0206729
0.0175612
0.0094485
-0.0270097
-0.0764353
0.0767039
-0.000268594
0.0365559
0.0654085
-0.101964
0.00744975
0.0478138
-0.0552635
0.000961633
0.00504922
-0.00601085
0.0317206
-0.0677451
0.0360245
-0.0585254
0.0308449
-0.0221911
-0.0135085
0.0356996
-0.349398
0.234039
0.115359
-0.0145791
0.0294825
0.0851226
-0.235976
0.150854
-0.00495892
0.0488393
0.0446927
-0.0525871
0.00789444
-0.175343
0.0793719
-0.125597
-0.0799222
-0.0196688
0.0601152
-0.0404465
-0.129667
0.236571
-0.106905
-0.000382773
0.00282218
0.0893268
-0.00429877
-0.085028
-0.132112
-0.0340369
0.166149
-0.0742612
0.160262
-0.0860005
-0.0319258
0.0976648
-0.00825661
0.037371
-0.0291144
-0.000324288
-0.000311695
0.0266692
-0.0803649
0.0536957
0.0438268
-0.0794389
0.0356121
-0.00219629
0.000800195
0.00139609
-0.00791873
0.00168514
-0.00987702
0.0114668
-0.00158983
0.0942482
-0.0313242
-0.0629241
0.00779645
-0.00779645
-0.0168618
-0.0508693
0.0677311
-0.00575717
0.00517263
0.00058454
-0.0242187
-0.0287991
0.0530178
-0.00258846
-0.00669543
0.0840269
-0.024033
0.0895656
-0.0724026
-0.0171631
-0.138307
0.0378871
0.10042
0.0331711
-0.182243
-0.0312229
0.0206856
0.0418409
-0.00527835
-0.0365626
0.0622372
-0.0203963
0.000865089
-0.00218566
0.245686
0.0827197
-0.328406
0.262561
-0.095749
-0.24206
0.0890012
0.153059
0.00130556
-0.00139251
8.69534e-05
0.0595247
-0.0560414
-0.183502
-0.00651205
0.190014
-0.000860177
0.128939
-0.0286668
0.0624587
-0.0196053
0.0224432
0.00207593
0.0494003
0.019542
0.0251318
-0.0446737
0.0137906
0.0283
-0.0551997
0.041673
0.0135267
0.00625677
0.00207992
-0.00739265
0.0188957
-0.0115031
0.0144691
-0.066718
0.0522489
0.00852949
-0.225681
-0.00651392
0.0898936
0.0372703
-0.0711846
0.0339143
0.0364543
-0.219956
-0.131618
0.237197
-0.105579
-0.00279006
-0.00799819
-0.0685003
-0.0744672
0.142967
0.105925
0.091351
-0.197276
0.0242984
0.0487094
-0.0730078
-0.0264776
-0.028061
0.115558
-0.134756
0.019198
-0.105923
0.0468966
0.0590264
-0.0650553
0.0462796
0.0187757
-0.00625672
-0.0018112
0.00806793
3.16846e-05
-0.00535762
0.0768498
-0.0664302
-0.0104196
0.158011
-0.278168
0.120157
-0.00410653
0.00404983
5.67088e-05
0.140455
-0.0863275
-0.0861697
0.263349
-0.036845
0.0132983
-0.000884883
0.00086359
2.12933e-05
0.118382
-0.00282349
-0.0849258
0.0213888
-0.161352
0.0020365
0.159316
0.00239504
-0.0250991
0.0182675
0.0580866
-0.0763541
0.05432
-0.186432
-0.0287857
-0.0242006
0.0497811
-0.00439152
-0.0144753
0.0188668
0.292723
-0.163659
-0.028787
-0.00166933
0.0304563
-0.0072369
-0.0161448
0.0233817
0.237441
0.0889524
-0.326393
0.256099
-0.145213
-0.110886
0.0582964
-0.118726
0.0050583
-0.0038972
-0.160967
0.131267
0.0297001
0.0367307
0.00397357
-0.0407043
-0.102909
0.0615913
0.041318
-0.0100956
0.0547883
-0.199179
0.154582
0.0445976
-0.0588312
0.024213
0.00461726
-0.00158709
-0.00303018
-0.0538673
0.0286714
0.0251958
-0.0234244
-0.226023
0.17841
0.0476125
-0.0420976
-0.0230377
0.0651354
0.122602
0.0311662
-0.153768
-0.00534865
0.0356091
-0.0302604
-0.0500817
0.025863
0.15746
-0.278855
0.121395
0.135942
-0.155134
0.0191922
0.0671679
-0.044461
-0.0227069
-0.000870294
-0.00132599
0.121742
0.000726294
0.048504
0.00223942
-0.00658739
0.00434797
0.00575369
-0.0199644
0.0987181
-0.209258
0.11054
-0.00555095
0.0131333
-0.183492
0.117684
0.065808
-0.0197532
0.0620982
-0.0423449
-0.0622221
0.119048
-0.0568258
-0.0466131
-0.114354
-0.0990326
-0.0230374
0.12207
-0.130137
-0.0751232
-0.0777252
0.00128987
-0.00887699
0.0385782
-0.0297012
-0.012631
0.0188004
-0.0061694
-0.00451363
-0.000409266
-0.131396
-0.0449532
0.0211722
0.023781
0.102429
-0.0658727
0.0366632
-0.0222231
-0.102224
0.183164
-0.0809394
0.204519
0.0580427
0.248257
-0.161491
-0.0867661
0.00117576
-0.195389
-0.0199239
0.0624725
-0.0115591
0.0774009
0.234238
-0.138912
-0.0953253
-0.0758283
-0.0598429
0.135671
0.0211927
0.0260105
-0.0472032
-0.00139281
-0.00240267
-0.13567
0.101227
0.0344429
0.00213586
0.00167185
-0.00111944
-0.00536146
0.253082
-0.0956226
-0.000159501
0.000192617
-3.31152e-05
0.203271
-0.0973456
0.0147909
-0.0331303
-0.118093
0.0415539
0.0765392
0.0296032
-0.0560808
-0.00237006
-0.0264169
-0.0566256
-0.0154996
0.0721251
0.0260928
0.0384074
-0.0645002
-0.00412716
0.00833055
-0.00420339
0.00499793
-0.0252168
-0.00380781
-0.00519033
0.00899814
-0.0841725
-0.157888
-0.269211
0.276285
-0.0661546
0.0464858
-0.0384431
-0.0674799
-0.00518006
0.000666433
-0.0575677
-0.103466
0.161034
-0.000156071
-0.0056011
-0.0365436
-0.091617
0.128161
0.0761251
0.0765767
0.074786
-0.0355815
0.214836
-0.116118
-0.0732576
-0.0321368
0.00618277
-0.0194801
0.0132973
0.0567328
0.0480813
-0.104814
0.0165631
-0.0465725
0.0300094
0.00584195
-0.00360254
0.0245675
-0.0333396
0.00159822
0.0225287
-0.00217291
-0.000149002
0.00605133
-0.013444
-0.252974
0.0656455
0.187329
0.139444
0.10829
-0.247733
0.128661
-0.0657784
-0.0628828
-0.16794
-0.0580829
-0.140512
0.0764079
0.0641039
-0.0466987
0.0342696
-0.0629364
0.0405988
-0.0989181
0.0583193
-0.0384543
0.059351
-0.0208967
0.114134
-0.0557305
-0.0584039
-0.0893373
-0.0489696
0.000893773
0.00610717
-0.00700094
0.0714812
0.022767
-0.0559569
-0.0191567
0.0751136
-0.0193107
0.131578
0.00207033
-0.0021735
0.000103168
-0.00191074
1.31606e-05
0.00189758
0.20902
-0.153649
-0.0553709
-0.22927
-0.0629092
0.292179
-0.00731038
0.00318322
0.00248101
0.00293428
0.150292
-0.0809144
-0.0693775
0.12228
-0.000247162
-0.000222553
0.000469715
-0.00252262
-0.00195692
0.00447954
0.0191602
-0.0235518
0.000544045
-0.000615984
7.19391e-05
0.0397945
0.0549355
-0.09473
-0.114438
0.0892429
0.0251954
0.0685438
-0.0304279
-0.0584688
0.0484115
0.0100572
0.128992
0.0468765
0.067137
-0.296407
0.0135003
-0.0395852
0.0260849
0.0770044
-0.0141555
-0.0628489
-0.0563767
-0.0617164
0.0705552
0.0623261
0.0322579
-0.0580581
0.0258002
0.0131475
0.0125012
-0.0256486
0.0174689
-0.28668
-0.123157
0.262601
-0.00512907
0.00510747
-0.0390899
-0.0222916
0.0613815
0.0423376
-0.0338497
0.0152243
-0.0168839
-0.016311
-0.0421578
-0.00220298
0.00274394
-0.000540956
0.00171447
-0.00196163
-0.0345453
-0.0372942
0.0718395
0.0417844
-0.0627581
0.0209737
-0.123433
-0.0600592
0.0619416
-0.150944
0.0890021
-0.0485755
0.0560253
0.171513
0.0375072
0.0116247
-0.0773354
0.0657108
-0.0469584
0.04168
-0.0507573
0.00518164
0.0455757
0.105899
-0.0652997
0.0138285
-0.00492038
-0.0636626
0.0127339
0.0509286
0.107797
-0.190871
0.0830742
-0.0550704
-0.00859216
0.277513
-0.170928
-0.106585
0.159465
-0.128375
-0.0310899
-0.000157903
-0.0266852
0.0166516
-0.0133398
-0.00331172
-0.00513652
0.000950613
0.0041859
0.0641459
-0.0481873
-0.0159586
-0.0103402
0.00607625
0.00426397
-0.201743
-0.0512312
0.0336886
0.0285486
-0.00177899
-0.000297362
0.00207635
0.0227676
-0.0279505
0.113355
-0.221618
0.108263
0.0945715
0.15309
-0.247662
0.00148043
0.00167913
-0.00315956
0.0184736
0.0405372
-0.0590108
0.0736991
0.140115
-0.297729
0.157614
-0.0313778
-0.103856
0.135234
-0.232624
0.0789745
0.00472572
-0.00472572
-0.0257213
0.0282558
-0.202766
0.171775
0.0309911
0.124616
-0.196996
0.0723799
0.00669432
-0.0283389
0.0626085
0.141084
-0.0791426
0.212929
0.0675338
-0.178777
0.0765525
0.0871156
0.00221121
-0.115973
0.0866169
0.029356
-0.0487242
-0.0611829
0.109907
0.0701064
-0.0440136
-0.00822851
3.07906e-05
0.00819772
0.0342207
-0.0151808
-0.0549806
0.0957903
0.234805
-0.12145
-0.0755548
0.183926
-0.108371
0.0771971
0.0850629
0.0475476
-0.0644094
0.269347
-0.001055
0.00206355
-0.00100856
0.000130857
-0.000414717
0.00028386
-0.0458262
-0.0719811
0.175869
0.0477947
-0.223664
0.219398
-0.124991
-0.0944073
-0.0226081
0.0499908
-0.0273827
-0.00650601
0.0135376
0.2202
-0.144528
-0.075672
0.138117
-0.0781426
-0.0599745
-0.00173986
-0.00294542
0.00468528
-0.130069
0.111842
0.0182272
-0.0810188
0.094205
-0.0131862
-0.0109174
-0.0052075
0.0161249
-0.0465492
0.0169742
-0.0180723
-0.000243397
0.00331583
-0.00307243
0.0658534
-0.0369077
0.184607
-0.0922637
0.115868
-0.0236048
0.00459835
-0.006113
0.00151465
0.011925
-0.0370874
0.144574
-0.00863187
-0.00511699
0.00276117
0.1188
0.0750799
-0.19388
0.00587888
-0.00128053
-0.0138062
0.0874289
-0.0736227
0.060708
0.0598463
-0.120554
0.0595504
-0.132487
0.0729371
0.0526529
0.167437
-0.22009
0.0035205
0.00103991
-0.00456041
0.132936
-0.249151
0.116215
0.0596445
-0.0286704
-0.0309741
0.0017122
-2.82329e-05
-0.00168397
0.0720647
-0.0580385
-0.0140262
0.0962053
0.0722772
-0.168482
-0.0256161
0.0391165
-0.00226622
0.00557505
-0.103814
0.00466943
-0.00795398
0.00913422
-0.00118024
0.0752917
0.00155808
0.010011
-0.00572136
-0.00428962
-0.00420603
0.00515012
-0.000944087
0.00698603
-0.00420955
-0.00277648
0.262723
-0.129787
0.0595701
-0.0273526
-0.0322175
-0.0966133
-0.0445651
-0.11473
0.0833523
0.249833
-0.0819173
-0.167916
0.0881684
0.00768533
-0.00768533
-0.0041398
-6.62274e-05
0.013514
-0.0123704
-0.00114358
-0.0327893
-0.0224104
-0.0126167
0.0070146
0.00560205
0.176193
0.038044
-0.214237
-0.0528248
0.0849204
0.0882932
-0.236329
0.148036
-0.109417
0.165389
-0.0559724
0.0308736
-0.0179654
0.0265392
-0.0318326
0.00268943
-0.0384844
0.035795
-0.229446
-0.0596653
0.289112
-0.00173087
0.000675871
-0.0323459
0.0269972
0.000323542
-0.000708415
0.000384873
0.0633479
-0.0318081
-0.0315398
-0.0111734
-0.0221658
0.0333392
0.0290901
0.0342578
0.0279503
0.0273083
-0.0552586
0.00239664
-0.00235919
-0.00578647
0.00793024
-0.00214378
-0.044502
0.0218939
-0.00132631
-0.0054617
0.00678802
-0.234348
0.104682
0.0286674
-0.0155199
-0.010247
0.0414632
-0.0312162
-0.0746194
0.0392066
0.0354129
0.00395277
-0.0138298
0.00182445
-0.0144555
0.00278208
0.0126033
-0.0153854
0.0490409
0.0418058
-0.0908467
-0.0153487
-0.000831494
0.0161802
0.0718217
-0.0286397
-0.043182
-0.00649895
0.0240601
-0.0260904
-0.0047903
0.0308807
0.140589
-0.0637429
-0.0768461
-0.098544
0.223956
-0.125412
0.138702
-0.207699
0.0689966
0.242926
-0.154633
0.00691308
-0.00219288
-0.0047202
-0.00883733
0.0641627
-0.0292944
-0.0851438
0.226576
0.103313
-0.247347
0.144034
0.14251
0.063464
-0.205974
0.0629114
-0.0340489
0.151512
0.0967449
0.00293359
-0.00459706
0.0637752
-0.0455721
-0.0182031
-0.00368337
0.0046545
-0.000971135
0.176256
-0.0800505
-0.0247772
0.00725566
-0.00629402
-0.138861
-0.116914
0.00338218
0.00360385
-0.0304497
-0.00667321
-0.00260751
-0.00380169
0.00336931
-0.0022537
-0.00111561
-0.193617
0.290884
-0.0972666
-0.0476754
-0.0270269
0.0747023
-0.0404587
0.079805
-0.0393463
0.0660662
0.102675
-0.0324657
-0.039657
0.0721227
0.0139189
-0.0324352
0.0185163
0.109561
0.0499042
-0.0295302
0.0206532
-0.00178271
0.00474198
-0.00295927
-0.043939
-0.0237287
0.0429293
-0.14143
0.0985009
0.271882
-0.200872
-0.07101
-0.00497078
-0.0258674
-0.0715486
0.0416134
0.0299352
0.0320258
-0.0543619
0.0223361
0.0537045
-0.0393787
0.0679084
-0.0285297
0.0273524
-0.0362584
0.0736621
0.000241672
8.18695e-05
-0.0341293
-0.020957
0.0550863
0.0992057
-0.0780923
-0.0211133
-0.00110479
-0.0555208
0.195768
0.0225975
-0.218366
-0.256527
0.203536
-0.0463687
0.0563414
-0.0277598
0.0180622
-0.0353793
0.017317
0.0714593
-0.0995127
0.0280534
0.0605626
0.0266546
-0.0053841
0.00645373
-0.00106963
-0.0350739
-0.051972
-0.122421
0.0652774
0.0571436
-0.0662553
0.10605
0.0444738
-0.0716298
0.190182
-0.118552
-0.0934913
0.10137
-0.00787876
0.07143
0.0666634
-0.00694866
0.00562235
0.0946206
-0.0170983
0.184721
-0.0085281
0.0954306
0.0452958
-0.140726
0.208074
0.125123
-0.026752
-0.0308355
0.0575875
-0.126698
0.0582983
-0.131093
-0.129031
0.260124
0.144367
-0.242911
-0.00273081
-0.019384
0.0221148
0.252999
-0.159441
-0.0935581
-0.246232
0.0886873
-0.0014372
-0.00259547
-0.140706
-0.0919174
0.125287
-0.0645791
-0.0052878
0.000359287
0.00492851
-0.00495769
0.00449198
0.00046571
0.222198
0.0496839
0.0276889
0.0263468
-0.0540357
0.0252336
-0.00246594
0.00240515
-4.93275e-05
0.182368
0.07347
-0.00364003
0.00185732
-0.17641
0.104781
0.0113389
0.00868209
-0.020021
-0.135974
0.226246
-0.0902723
-0.00233788
0.00646792
-0.00413004
-0.0547941
0.0206649
0.0329087
0.0342593
0.14729
-0.104361
-0.00712068
0.00712068
-0.118466
0.0374473
-0.10732
-0.101443
0.208763
-0.143454
0.251743
-0.00895088
-0.060368
0.0693189
-0.00767135
0.0077755
0.07119
0.0569952
-0.128185
-0.303123
0.159306
0.143817
0.00267269
-0.000616174
-0.0926805
-0.0517572
0.144438
0.122178
-0.0669577
-0.0552201
-0.0173165
0.0180156
-0.000699158
-0.203463
-0.0470032
0.0485426
-0.157959
-0.0161354
-0.0011811
-0.00657293
-0.00108292
-0.28329
-0.02919
0.1717
0.00411446
0.00138997
-0.00550442
-0.00810603
0.00231957
-0.0732607
0.033882
-0.314699
0.162796
0.151903
-0.00674344
0.00768557
-0.000942133
0.000629145
-0.000618784
-1.03613e-05
-0.00789506
0.00132212
0.258194
-0.155707
-0.102487
0.0816502
-0.0145678
-0.0670824
0.263339
-0.164394
-0.0989452
-0.0939249
-0.147262
0.0553232
0.0577543
-0.113077
-0.0342056
0.0696217
-0.0354161
6.85769e-05
0.000956291
-0.00102487
-0.244526
0.150601
-0.0773345
0.0583724
-0.205431
0.206735
-0.059253
0.22669
0.00180175
0.000870937
-0.00680099
0.0083788
-0.00157781
0.0147915
-0.0497762
0.0349848
-0.0266052
0.0567307
-0.0301255
0.00532506
0.143586
0.120671
-0.264257
0.00247996
-0.00421982
-0.00439409
-0.00303514
-0.000179856
0.105817
-0.0490842
0.00247292
0.00278763
-0.141524
0.0672629
-0.174875
0.103888
0.0709873
0.086534
-0.0672364
0.0562087
-0.131547
0.0753379
0.0971213
0.0132997
-0.139849
0.262235
-0.122386
-0.00811719
0.000163204
0.00480487
0.00418921
0.00340179
-0.00398685
0.000585061
0.0222572
-0.0343634
0.0121062
0.0354694
-0.127733
-0.0187092
-0.0376908
-0.0121333
0.0142592
-0.0461478
0.0723737
-0.0262259
0.115366
-0.27718
0.161815
-0.00718475
0.000441307
0.000464256
-0.00068681
-0.200567
0.125012
-0.0415575
0.0490382
-0.00748068
0.175463
-0.204653
-0.0506161
-0.0675259
0.118142
-0.00191188
0.00602634
0.0292525
-0.063775
0.0345225
0.259619
0.0316991
-0.291318
-0.00710253
-0.0010035
0.0227514
-0.228182
0.000474082
0.00160175
-0.0264155
-0.0150887
0.0415042
-0.0262481
0.056066
-0.0298179
0.0201517
-0.0417444
0.0215928
-0.0508467
-0.0715743
0.0540821
0.0229223
-0.00420722
0.0267397
-0.0225325
0.0842263
-0.0309832
0.054782
-0.0237987
-0.0584303
0.0833794
-0.0249492
0.0238836
0.0332343
-0.0571178
0.0618172
0.0231125
-0.0849297
-0.017304
-0.00341018
0.0108048
-0.0073946
-0.124987
0.178321
-0.0533337
-0.24088
0.0893245
0.151556
0.0850592
-0.172285
0.0872444
-0.0718467
0.0158898
-0.236807
0.00729363
0.229513
-0.203781
-0.000407388
-0.00501402
0.00542141
-0.0144543
0.00353692
0.0416333
-0.00813113
-0.0335022
-0.00688295
-0.00134556
0.128004
-0.0842672
-0.0437372
-0.00197289
-0.000321904
-0.123598
0.267184
0.111833
-0.0243947
-0.0269394
0.0513341
-0.206318
0.248617
0.0618989
-0.028246
-0.0336528
0.0261107
0.0269516
0.022431
-0.0558113
0.0333803
0.0264785
-0.058326
0.0318475
-0.00354919
-0.00055734
-0.0393699
-0.037644
0.0770139
-0.00471629
-0.00790036
0.0575869
-0.0527682
-0.0048187
0.025905
-0.0301122
-0.00485953
-0.000932067
0.00579159
-0.0486714
-0.0513682
-0.0378781
0.0236429
-0.0243025
-0.0352277
0.0595301
-0.0463899
0.112339
-0.0659495
0.039666
-0.0322608
-0.00740517
0.00236585
0.0235392
0.0544485
-0.0193428
-0.00803557
0.00123458
0.000829044
-0.000698187
0.277088
0.0787772
0.0492272
0.00136621
2.77629e-05
-0.00139397
0.242405
-0.141898
-0.100506
0.0708679
-0.113055
0.0421873
-0.0720144
0.0981789
-0.0261645
-0.0574294
0.0311813
-0.0122959
-0.00305278
-0.14255
0.0706593
-0.0369755
0.0705098
-0.0335343
-0.00932727
-0.00492501
-0.104746
-0.0701289
-0.189383
0.133305
0.0560784
-0.163177
-0.120114
-0.00288304
0.00068006
0.0286537
-0.0348095
0.0668901
0.0349497
-0.10184
-0.00387864
-0.000261163
6.04575e-05
-0.000219959
0.0832859
0.0948537
0.00207997
0.000325182
0.0423924
-0.0211997
0.0677945
-0.0478108
-0.0199837
0.0187457
-0.0154148
-0.00333092
0.0748326
-0.03928
0.0175512
-0.086092
0.0483269
0.0377651
-0.00615359
-0.00142467
0.00757826
-0.00653255
0.0564005
-0.049868
-0.108725
-0.0900654
0.19879
0.00048343
0.207825
0.0242592
-0.232084
0.257101
-0.155564
-0.101538
-0.105045
0.300061
-0.0211201
0.0143075
0.00681257
0.284541
0.00211533
-0.286656
0.0217289
-0.0548143
-0.134067
0.0582387
0.000192066
-8.53297e-05
-0.000106736
0.025831
0.00155439
-0.0273854
-0.139397
0.248217
-0.10882
-0.122781
0.0715325
0.0512486
0.00964402
0.00386999
0.0930637
0.121111
-0.176395
0.0552839
0.204275
-0.119153
-0.065625
0.0855518
-0.0199269
-0.132829
-0.055702
0.188531
-0.0449627
0.0171027
0.02786
0.118791
-0.0434416
-0.0753492
0.0069991
-0.243806
0.032067
0.007599
0.0345125
-0.0612645
-0.00272357
-0.00031157
-0.117238
0.0237464
-0.0548818
-0.00757334
0.003286
0.00428734
-0.00220587
0.00221129
0.107735
0.126503
-0.0997266
0.055144
0.176407
-0.0517905
-0.204787
0.161265
0.0435215
0.0685571
-0.0320059
-0.0365512
0.085815
0.0428462
0.185568
-0.102282
0.0479427
0.0742264
0.0437092
0.0289792
-0.0726884
0.273721
-0.151644
-0.122077
-0.0144075
0.0109973
-0.0846601
0.0266722
-0.0446999
0.0713691
-0.183205
0.019538
0.163667
0.0366172
-0.14794
0.111323
0.0622428
-0.108633
0.171315
0.0777805
-0.0576697
0.0235857
0.040365
-0.0639507
-0.14881
-0.120852
0.269661
0.0787145
-0.203702
0.171628
0.133903
-0.305531
-0.00463521
-0.000544855
0.0637539
-0.0867756
0.0230217
-0.0385532
0.0216388
0.135203
-0.0819855
-0.0532178
-0.00132905
0.00274358
-0.00141453
-0.0141136
0.0168956
-0.015978
0.057023
-0.0330313
0.0676952
-0.034664
0.0497826
-0.0822516
0.032469
0.216354
0.0199188
0.0157367
-0.0356555
-0.00579577
0.000411676
0.000221321
-0.00213206
0.0144021
0.0145467
-0.0289488
0.0584371
0.0130306
-0.0714677
0.0302911
-0.0198104
-0.0104807
-0.044748
-0.0298714
0.0609095
-0.0405057
-0.0204038
0.0348594
0.00681357
0.029209
-0.128967
0.1028
0.142896
-0.0702346
0.0637021
0.00139461
0.00551847
0.0353175
-0.0698576
0.0345401
-0.0710726
0.0386069
-0.18186
0.204457
0.0774673
0.0207116
0.0872777
-0.160321
0.0730431
-0.00357623
0.00213903
0.253466
-0.0954548
0.0662839
-0.0362432
-0.0300407
0.0379058
0.05686
-0.0947658
0.0410401
-0.0262487
-0.0936005
-0.0524093
0.14601
0.0109725
0.0379997
-0.0489722
0.0317018
-0.0793773
-0.0237018
0.0516521
-0.136752
-0.0451682
0.18192
0.0928413
0.0428495
-0.0547206
0.0118711
-0.0128185
0.0050466
0.00777187
0.0379981
-0.053928
0.0159299
0.0940732
-0.0825724
-0.0115008
-0.101392
0.0798122
-0.174122
0.0943102
-0.000632127
-0.000252756
-0.0282757
0.0194602
0.0088155
-0.000256824
-0.000340252
0.000597076
-0.0101214
0.125053
0.0193891
-0.0494215
-0.0955879
0.0449718
-0.0179326