/*--------------------------------*- C++ -*----------------------------------*\
| =========                 |                                                 |
| \\      /  F ield         | OpenFOAM: The Open Source CFD Toolbox           |
|  \\    /   O peration     | Version:  v2012                                 |
|   \\  /    A nd           | Website:  www.openfoam.com                      |
|    \\/     M anipulation  |                                                 |
\*---------------------------------------------------------------------------*/
FoamFile
{
    version     2.0;
    format      ascii;
    class       surfaceScalarField;
    location    "300";
    object      phi_0;
}
// * * * * * * * * * * * * * * * * * * * * * * * * * * * * * * * * * * * * * //

dimensions      [0 3 -1 0 0 0 0];
oriented        oriented;


internalField   nonuniform List<scalar> 
81198
(
-0.140855
0.00593243
0.134923
-0.0978383
0.0480261
0.0498122
0.0810371
-0.250466
0.169429
0.00833497
-0.00474397
-0.003591
0.00330875
-0.00810922
0.00480047
-0.00232213
0.00232016
1.97454e-06
-0.000635438
0.000578367
5.7071e-05
0.0955099
-0.0581021
-0.0374078
0.0865093
-0.0635369
-0.0229724
-0.226155
0.0613608
0.164794
-0.0459319
0.086878
-0.0409461
3.75251e-05
-0.00150165
0.00146413
-0.0142106
0.0211851
-0.0069745
0.238192
-0.161867
-0.0763249
0.0530622
-0.0159478
-0.0371144
-0.0823963
0.0625724
0.0198239
0.05256
0.0429499
0.0322973
-0.0573199
0.0250226
-0.0575672
-0.168588
0.0492303
-0.0739645
0.0247342
0.243727
-0.16269
0.146606
-0.0882763
-0.0583293
-0.0894315
0.17814
-0.088708
0.00499853
-2.15752e-05
-0.00497696
0.129064
-0.28248
0.153416
0.0765431
-0.0286617
-0.0478815
0.0536998
-0.194555
0.0514427
-0.0850758
0.0336331
0.00243901
-0.00386822
0.00142921
0.0807478
-0.170179
0.0439934
0.0325498
0.0236799
-0.0514112
0.0277313
-0.0984362
0.245696
-0.14726
-0.00172662
-0.0042583
0.00598493
0.00718063
-0.0387325
0.0315518
0.274993
-0.116285
-0.158708
-0.0680203
0.00279866
0.0652217
-0.0539099
-0.0439284
0.154935
-0.102874
-0.0520615
0.0529005
0.0937052
-0.00236836
-0.00597445
0.00834281
-0.0705735
0.0418797
0.0286938
-0.302375
0.112379
0.189996
-0.14799
0.17217
-0.0241799
0.0137696
0.00212583
-0.0158954
0.0833797
0.0331454
-0.116525
0.0430945
-0.0703947
0.0273002
-0.0200235
-0.0322286
0.0522521
0.0882735
-0.228296
0.140022
0.086686
-0.0865743
-0.00011176
-0.255775
0.157339
-0.0649034
0.206594
-0.14169
0.0755304
0.0518051
-0.127336
-0.00428849
0.0180581
-0.0870456
0.0484485
0.038597
-0.157545
0.349509
-0.191965
0.0152628
0.007031
-0.0222938
-0.0637885
0.0288628
0.0349257
0.0686889
-0.0330859
-0.035603
-0.0251624
-0.00615583
0.0313182
-0.202204
-0.100172
0.0319515
0.0775224
-0.109474
0.156217
0.0819751
-0.00392763
0.00730602
-0.00337839
0.150186
0.0522125
-0.202399
-0.0602606
-0.0221357
0.00890737
-0.0151578
0.00625044
0.050451
-0.0392207
-0.0112303
0.0074455
-0.00630982
-0.00113568
-0.00846096
0.00146177
0.00699919
-0.21967
0.154766
-0.0350226
0.0422032
0.235463
-0.085277
0.0235771
-0.0395348
0.0159577
-0.0859717
-0.0484952
0.134467
0.0561886
0.0565965
-0.112785
0.114062
-0.0438464
-0.0702152
-0.00877207
-0.0225248
0.0312969
5.54096e-06
0.00288803
-0.00289357
0.0241271
-0.00635703
-0.01777
0.34309
-0.229189
-0.113901
-0.00356216
0.00790528
-0.00434311
-0.0105187
-0.137472
0.0199817
-0.0248239
0.0048422
-0.0625921
0.1215
-0.0589081
0.0379973
-0.0144202
0.00525957
-0.00371373
-0.00154584
-0.0151473
0.0620907
-0.0469433
0.0321461
-0.0165626
-0.0155835
0.169877
-0.0878102
-0.082067
-0.00532597
0.00532597
0.118101
-0.0707335
-0.0473672
0.0329141
-0.0709821
0.038068
0.0794648
-0.0251116
-0.0543532
0.0594251
-0.0913245
0.0318993
0.002356
-0.0029261
0.000570092
0.0225033
0.0112024
-0.0337057
0.0438796
0.0152981
-0.0591777
0.0911141
0.0386082
-0.129722
0.0793947
0.00729132
-0.0457579
-0.101887
0.147645
-0.00235611
-0.00239051
0.00474662
-0.125769
0.0532969
0.0724724
0.140962
0.0951336
-0.236095
0.0541671
-0.0304872
0.0381158
-0.0744586
0.0363428
0.0658418
-0.00707078
-0.058771
-0.0600457
0.0448984
-0.0592044
0.115393
0.00253453
0.0243508
-0.0268853
-0.0181533
0.00969081
0.00846249
0.132957
0.109167
-0.242124
0.0942873
0.0755898
-0.0658607
0.042298
0.0235628
-0.110779
-0.0385911
0.14937
0.00116108
-0.00534629
0.00418521
-0.00626966
-0.0021913
-0.00640754
0.00247991
0.00478738
-0.00651401
0.0699181
-0.037004
0.00508368
0.00222234
-0.196179
-0.0770556
0.273235
-0.00834713
0.00890684
0.0166299
0.0790839
-0.0957138
-0.249227
0.166812
0.0824144
-0.012682
0.0026414
0.0100406
-0.0577353
-0.0439501
0.101685
-0.128445
-0.120781
0.00380606
-0.00250093
-0.00130512
-0.014552
0.0201901
-0.00563815
0.203687
-0.319137
0.11545
0.168742
-0.106714
-0.0620272
-0.0522865
0.112038
-0.0597514
0.158639
0.116353
0.0252924
0.0928084
-0.0258736
0.0207131
0.00516047
0.173923
0.0268731
-0.200796
-0.0186246
0.0331988
-0.0145743
0.116057
0.104461
-0.220518
-0.20552
0.124963
0.0805564
0.0100815
-0.00263893
-0.00744255
0.01444
-0.0354008
0.0209608
-0.114266
0.0619797
0.0328683
0.0205547
-0.0534229
0.109492
-0.0484874
-0.061005
0.0143624
0.0360886
0.00148049
-0.00152909
4.85942e-05
0.00239383
-0.0704141
0.0190382
-0.0351428
0.0161046
0.0686729
0.087922
-0.156595
0.0201471
0.0147952
-0.0349423
0.0541275
-0.138203
0.0840758
0.0337928
0.0386729
-0.0724657
0.0478839
0.0315809
-0.0850403
0.163693
-0.0786528
0.0314248
-0.0277856
-0.00363927
-0.106281
0.0603494
0.0214454
0.00997946
-0.0168636
0.0412139
-0.0243502
0.128079
0.0293469
-0.157426
-0.0242646
-0.0346181
0.0588827
-0.0285471
0.0915521
-0.0630051
0.00640006
0.00368142
-0.000279704
0.0017199
-0.00144019
0.0920483
-0.0406056
-0.200341
0.119641
0.0806998
0.333198
-0.189159
-0.144039
0.280463
-0.164438
-0.116025
-0.0107883
0.00993293
0.000855398
0.177179
0.0982089
-0.275388
-0.0565071
0.0555216
0.000985518
-0.009647
-0.0162266
0.0166448
0.117148
-0.313327
-0.0658365
0.0938097
-0.0279732
0.249095
-0.160022
-0.0890729
0.00758203
-0.0195095
0.0119275
0.0742225
-0.115963
0.0417408
0.0676784
0.0408098
-0.108488
0.00730829
-0.00967665
-0.00134145
0.0040118
-0.00267034
-0.0881841
-0.148417
-0.00379524
0.00205613
0.00173911
0.112267
0.0107459
-0.123013
0.283936
0.0319061
-0.315842
0.00393532
-0.00393532
-0.0706496
-0.0960501
0.1667
-0.117807
0.0918294
0.0259779
-0.20619
0.0443226
0.03627
-0.0645261
0.0282561
0.0996299
0.012909
-0.0317863
0.0188774
0.00669415
0.000104133
-0.00679828
0.119617
0.115846
0.00746925
-0.00765547
0.000186219
0.00057595
0.000904541
-0.146522
0.166005
-0.0194834
0.0320956
-0.0977767
0.0656811
-0.0218674
0.00493963
-0.00492294
-1.66924e-05
-0.102473
0.0796355
0.0228376
-0.0118036
-0.000878487
0.0361443
0.0330737
-0.069218
-0.0836019
-0.0421674
0.0340422
-0.121568
0.0875257
0.114931
-0.0808889
0.0110739
-0.0279918
-0.141178
0.0785863
0.122373
0.0325625
0.195016
0.148074
-0.211796
0.00776805
0.204028
-0.168185
-0.0380044
-0.241187
-0.0454089
0.121014
-0.0756048
0.0948013
-0.0353761
-0.024098
-0.0310507
0.0551487
0.0268355
-0.0214261
-0.00540941
-0.0235479
-0.00852516
0.0320731
-0.0104615
0.000606794
0.00985475
0.0671291
-0.213651
-0.040946
0.103484
-0.0625382
-0.0142341
0.0294969
-0.0452803
-0.0252931
-0.167083
0.122169
0.0449143
-0.0222113
-0.00109812
0.0233094
0.110421
-0.0799544
-0.0304664
0.253657
-0.283976
0.030319
0.0548986
-0.0226013
0.255838
-0.16246
-0.0933783
-0.0440667
0.0272031
-0.10004
0.0423042
-0.0300333
-0.0268403
0.0568736
-0.00229488
0.00229488
0.007074
0.276862
-0.0996874
0.101447
-0.0017597
-0.0169134
0.0394167
-0.0530133
-0.0034938
0.27563
-0.00673328
-0.268897
0.0112475
-0.0267338
0.0293986
0.246232
-0.0395087
-0.127575
-0.0973558
0.0519469
0.0200702
0.00179325
-0.0218634
0.072684
-0.0552212
-0.0174628
-0.0997583
-0.0426693
0.142428
-0.151331
-0.0054616
0.00863719
-0.00281874
-0.00581845
-0.0535391
0.0435608
0.00997837
-0.280674
0.234147
0.0465271
0.0351056
-0.0593702
0.0355524
0.0371316
-0.00180475
0.00162699
0.000177763
0.0254131
-0.00748171
-0.0179314
-0.278588
0.167094
0.111494
0.0817485
-0.16772
-0.329367
0.216083
0.113283
-0.00648032
0.000707661
0.00577266
0.125346
-0.117082
-0.00826457
-0.0676671
0.0328912
0.0347759
0.12443
-0.0352087
-0.0892214
0.0289456
-0.0661323
0.0371867
-0.00165263
0.00372794
-0.00207531
0.138093
-0.0846574
-0.053436
0.00493025
9.38072e-06
-0.0659356
-0.0286229
0.0945585
-0.0959083
-0.108348
0.204256
0.0026678
-0.0032156
0.000547804
-0.0856407
-0.195033
0.0192976
0.0606625
-0.0799601
-0.0695227
-0.130818
-0.0371231
0.023618
0.013505
0.0526763
-0.029754
-0.0229223
0.0759359
0.027179
-0.103115
-0.149072
0.155004
-0.14531
-0.00602147
-0.0718903
0.176415
-0.104524
-0.0189621
0.0929017
-0.0739396
-0.00518162
0.0251633
0.168752
-0.18565
0.0168988
-0.0253567
0.0684512
0.0422987
-0.274891
0.232592
-0.0991442
0.119546
-0.0204014
0.16226
-0.0932334
-0.0690266
0.00758556
-0.000116318
0.00509575
0.00354144
0.00791348
-0.00164868
-0.0062648
0.0361537
0.281047
-0.0773598
0.0512243
0.0582682
-0.0308384
0.00606742
0.0247709
-0.00202017
0.000215412
-0.0070756
0.00351344
-0.14786
-0.130728
-0.108943
0.265678
-0.156735
0.00348358
0.0547341
-0.0582177
0.279112
-0.0254551
0.012813
0.0140225
0.0229832
0.0296931
-0.191829
0.0810499
0.0210256
-0.0466636
0.025638
0.0553874
-0.022916
-0.0324714
0.0533154
-0.144907
0.0915918
0.00873759
-0.220534
-0.278302
0.282399
-0.0040966
-0.0511038
-0.0949584
0.146062
0.0538292
-0.145576
0.0917471
0.0599937
0.0260178
-0.0860114
0.0020747
-0.00217008
9.53824e-05
-0.0752634
0.143936
-0.205261
0.115028
0.0902326
0.0180456
0.00736748
-0.0788854
0.0440908
0.0347946
-0.00623396
-0.00194499
0.00817895
-0.124322
0.0246345
-0.00928385
0.00497773
0.00430613
-0.000610398
0.0032782
0.0263191
-0.0150717
0.0514779
-0.053758
0.00228008
0.0410438
-0.0674713
0.0264275
-0.0665788
-0.0849112
0.15149
0.0374035
-0.0770235
0.03962
0.0904654
-0.212533
0.122068
-0.0276798
0.0561365
-0.0284566
0.0657393
0.026309
-0.0105368
-0.015724
0.0262607
0.0872172
-0.0760765
-0.0111407
-0.0037819
-0.0348298
0.0386117
0.113682
-0.209591
-0.0040323
0.00269085
0.0831034
-0.0664735
-0.217152
0.00130416
0.215848
-0.105394
0.0895184
0.015876
-0.025854
0.166816
-0.0884353
0.0598882
-0.307635
0.0293328
-0.0142524
0.0141768
7.55989e-05
-0.0124262
-0.0806273
0.0930535
0.00541361
-0.00363526
-0.00177835
0.0255818
-0.0447596
0.0191778
-0.0604293
-0.0445826
0.105012
-0.0466594
-0.0322261
-0.0398108
0.115341
0.00899304
-0.00630372
-0.00268932
0.0257277
0.0996186
0.15248
-0.0986512
0.00997269
-0.0666102
0.0566375
-0.0429964
-0.0435778
0.0528829
-0.0318572
0.0553254
0.00492915
-0.0602546
-0.0183392
-0.0273139
0.0456531
0.00754662
-0.00754662
-0.279577
0.170635
0.0354322
-0.0621745
0.0267423
-0.0761242
0.0410156
0.0351086
-0.0878976
0.169257
-0.0813593
-0.304214
0.102011
0.0425486
0.0229779
-0.0655266
-0.060675
-0.140602
0.201277
0.175869
-0.0619263
-0.113942
-0.202439
0.137845
0.064593
-0.0545382
0.0304402
0.0539374
-0.0948833
0.132881
-0.0765381
-0.0563433
-0.0013199
0.00276168
-0.00144178
0.0420904
-0.0242698
-0.0178206
-0.0683996
0.122214
-0.0538142
-0.203698
0.143022
-0.0219088
-0.113661
0.0677651
0.0458962
-0.106307
0.225925
0.152702
-0.0998876
-0.0528142
0.0890929
-0.140197
0.224682
-0.134216
0.0642504
-0.130829
-0.0904301
0.0804312
0.00999891
0.00283788
-0.0244455
0.0216076
-0.0959714
-0.084807
0.180778
0.0702961
-0.0294885
-0.0408076
-0.0425781
0.118514
-0.00065083
0.000149836
0.000500994
0.00264667
-0.00292637
-0.0405291
0.0533542
-0.0128252
0.0149034
0.0202414
-0.0351448
-0.0358135
-0.0177257
-0.0307519
0.0668963
-0.026843
-0.00529338
0.0321364
0.00907256
-0.00152595
0.211191
0.0280836
-0.00801341
-0.0227041
-0.00121317
0.0239173
0.0204882
-0.0168738
-0.00361438
0.0392048
0.029484
-0.100202
0.0877754
-0.189345
-0.11487
-0.00166379
0.00564913
-0.00398535
0.00439002
-0.00444478
5.47633e-05
0.0482751
0.022021
0.0206728
0.0175612
0.00944841
-0.0270096
-0.0764352
0.0767041
-0.000268874
0.0365559
0.0654085
-0.101964
0.00744969
0.0478139
-0.0552635
0.000961613
0.00504956
-0.00601117
0.0317207
-0.0677453
0.0360246
-0.0585259
0.0308461
-0.0221911
-0.0135084
0.0356995
-0.349398
0.234039
0.115359
-0.014579
0.0294824
0.0851226
-0.235976
0.150854
-0.00495895
0.0488386
0.0446935
-0.0525885
0.00789494
-0.175343
0.0793719
-0.125597
-0.0799222
-0.0196687
0.0601152
-0.0404465
-0.129667
0.236571
-0.106905
-0.000382871
0.00282188
0.0893266
-0.00429859
-0.0850281
-0.132112
-0.034037
0.166149
-0.0742612
0.160262
-0.0860004
-0.0319257
0.097665
-0.00825654
0.0373709
-0.0291144
-0.000323902
-0.000311535
0.0266692
-0.0803649
0.0536957
0.043827
-0.0794386
0.0356116
-0.0021958
0.0008
0.0013958
-0.0079192
0.00168524
-0.00987586
0.011466
-0.0015901
0.0942482
-0.0313242
-0.062924
0.00779687
-0.00779687
-0.0168618
-0.0508693
0.0677311
-0.00575752
0.00517321
0.000584304
-0.0242187
-0.0287991
0.0530177
-0.00258837
-0.00669548
0.0840267
-0.024033
0.0895655
-0.0724027
-0.0171628
-0.138307
0.037887
0.10042
0.033171
-0.182243
-0.0312215
0.0206847
0.0418409
-0.00527831
-0.0365625
0.0622371
-0.0203963
0.00086462
-0.00218452
0.245686
0.0827196
-0.328406
0.262561
-0.0957489
-0.24206
0.0890011
0.153059
0.00130537
-0.0013923
8.69235e-05
0.059525
-0.0560415
-0.183502
-0.00651209
0.190014
-0.000860093
0.128939
-0.0286665
0.0624593
-0.0196054
0.0224433
0.00207707
0.0494008
0.0195433
0.0251312
-0.0446745
0.0137906
0.0282999
-0.0551996
0.0416729
0.0135267
0.00625537
0.0020796
-0.0073927
0.0188958
-0.0115031
0.0144691
-0.0667179
0.0522489
0.00852953
-0.225681
-0.00651392
0.0898936
0.0372701
-0.0711839
0.0339139
0.0364543
-0.219956
-0.131618
0.237197
-0.105579
-0.00279006
-0.00799827
-0.0685003
-0.0744671
0.142967
0.105925
0.091351
-0.197276
0.0242986
0.0487093
-0.0730079
-0.0264765
-0.0280617
0.115558
-0.134756
0.0191981
-0.105923
0.0468964
0.0590264
-0.0650562
0.0462802
0.018776
-0.00625702
-0.00181132
0.00806834
3.16808e-05
-0.00535766
0.0768498
-0.0664301
-0.0104196
0.158011
-0.278168
0.120157
-0.00410495
0.00404825
5.67e-05
0.140455
-0.0863275
-0.0861697
0.263349
-0.0368454
0.0132975
-0.000884687
0.000863346
2.13409e-05
0.118382
-0.00282356
-0.0849256
0.0213887
-0.161352
0.00203648
0.159316
0.00239511
-0.0250992
0.0182673
0.0580869
-0.0763542
0.05432
-0.186432
-0.0287861
-0.0242002
0.049782
-0.00439154
-0.0144752
0.0188667
0.292723
-0.163659
-0.0287868
-0.00166932
0.0304561
-0.00723695
-0.0161449
0.0233818
0.237441
0.0889525
-0.326393
0.256099
-0.145213
-0.110886
0.0582964
-0.118726
0.00505826
-0.00389718
-0.160967
0.131267
0.0297001
0.0367307
0.00397351
-0.0407043
-0.102909
0.0615913
0.041318
-0.0100962
0.0547897
-0.199179
0.154582
0.0445975
-0.0588313
0.0242132
0.00461634
-0.00158678
-0.00302956
-0.0538685
0.0286717
0.0251969
-0.0234245
-0.226023
0.17841
0.0476124
-0.0420976
-0.0230377
0.0651353
0.122602
0.0311662
-0.153768
-0.00534857
0.035609
-0.0302604
-0.0500816
0.025863
0.15746
-0.278855
0.121395
0.135942
-0.155134
0.0191922
0.0671679
-0.044461
-0.022707
-0.000870055
-0.00132574
0.121742
0.000726323
0.048504
0.00223893
-0.00658606
0.00434713
0.00575364
-0.0199643
0.0987181
-0.209258
0.11054
-0.00555086
0.0131329
-0.183492
0.117684
0.0658081
-0.0197527
0.0620981
-0.0423455
-0.0622221
0.119048
-0.0568258
-0.0466131
-0.114354
-0.0990326
-0.0230373
0.12207
-0.130137
-0.0751231
-0.0777254
0.00129017
-0.00887686
0.0385786
-0.0297018
-0.0126304
0.0187993
-0.00616889
-0.00451367
-0.000409271
-0.131396
-0.0449528
0.0211718
0.0237811
0.102429
-0.0658727
0.0366631
-0.0222231
-0.102224
0.183164
-0.0809395
0.204519
0.0580427
0.248257
-0.161491
-0.0867661
0.00117583
-0.195389
-0.0199238
0.0624725
-0.0115591
0.0774009
0.234238
-0.138912
-0.0953253
-0.0758283
-0.0598429
0.135671
0.0211904
0.0260121
-0.0472025
-0.00139288
-0.00240235
-0.13567
0.101227
0.0344429
0.00213495
0.00167111
-0.00111939
-0.00536093
0.253082
-0.0956226
-0.000159042
0.000192022
-3.29801e-05
0.203271
-0.0973455
0.0147905
-0.0331297
-0.118093
0.0415539
0.0765391
0.0296039
-0.0560804
-0.00237005
-0.0264168
-0.0566257
-0.0154995
0.0721253
0.0260924
0.0384075
-0.0644999
-0.00412706
0.00833049
-0.00420343
0.00499853
-0.0252163
-0.00380701
-0.0051899
0.00899691
-0.0841724
-0.157888
-0.269211
0.276285
-0.0661545
0.0464858
-0.0384429
-0.0674799
-0.00518011
0.00066644
-0.0575677
-0.103466
0.161034
-0.000155864
-0.00560165
-0.0365436
-0.091617
0.128161
0.0761251
0.0765768
0.0747858
-0.035581
0.214836
-0.116118
-0.0732576
-0.0321368
0.00618267
-0.01948
0.0132974
0.0567328
0.0480813
-0.104814
0.0165632
-0.0465726
0.0300094
0.00584065
-0.00360172
0.0245674
-0.0333395
0.00159822
0.0225288
-0.00217326
-0.00014887
0.00605136
-0.0134441
-0.252974
0.0656455
0.187329
0.139444
0.10829
-0.247733
0.128661
-0.0657783
-0.0628828
-0.16794
-0.0580829
-0.140512
0.0764079
0.0641039
-0.0466986
0.0342703
-0.0629368
0.0405988
-0.0989181
0.0583193
-0.0384549
0.0593523
-0.0208974
0.114134
-0.0557303
-0.0584041
-0.0893375
-0.0489695
0.000893841
0.00610723
-0.00700107
0.0714811
0.022767
-0.0559571
-0.0191564
0.0751135
-0.0193107
0.131578
0.00207039
-0.00217408
0.000103682
-0.00191055
1.27752e-05
0.00189778
0.20902
-0.153649
-0.0553709
-0.22927
-0.0629092
0.292179
-0.00731031
0.00318325
0.00248025
0.00293336
0.150292
-0.0809143
-0.0693775
0.12228
-0.000247568
-0.00022211
0.000469678
-0.0025224
-0.00195651
0.00447891
0.0191601
-0.0235517
0.000544793
-0.000616747
7.19547e-05
0.0397945
0.0549355
-0.09473
-0.114438
0.0892428
0.0251954
0.0685438
-0.0304279
-0.0584689
0.0484124
0.0100565
0.128992
0.0468765
0.067137
-0.296407
0.0135003
-0.0395852
0.0260849
0.0770039
-0.0141553
-0.0628486
-0.0563766
-0.0617164
0.0705552
0.0623261
0.0322575
-0.0580572
0.0257997
0.0131467
0.0125012
-0.0256479
0.0174688
-0.28668
-0.123157
0.262601
-0.00512982
0.00510824
-0.0390907
-0.0222911
0.0613818
0.042338
-0.0338487
0.0152241
-0.016884
-0.0163103
-0.0421587
-0.00220266
0.00274415
-0.000541491
0.00171415
-0.00196172
-0.0345448
-0.0372943
0.0718391
0.0417848
-0.0627581
0.0209733
-0.123433
-0.0600592
0.0619416
-0.150944
0.0890021
-0.0485756
0.0560253
0.171513
0.0375072
0.0116248
-0.0773357
0.0657109
-0.0469583
0.04168
-0.0507574
0.00518188
0.0455755
0.105899
-0.0652997
0.0138281
-0.00492075
-0.0636618
0.0127338
0.050928
0.107797
-0.190871
0.0830742
-0.0550698
-0.00859208
0.277513
-0.170928
-0.106585
0.159465
-0.128375
-0.0310899
-0.000157909
-0.0266851
0.0166515
-0.0133399
-0.00331163
-0.00513692
0.000950458
0.00418646
0.0641459
-0.0481873
-0.0159585
-0.0103396
0.00607537
0.00426422
-0.201743
-0.0512312
0.0336885
0.0285486
-0.00177866
-0.000297857
0.00207652
0.0227673
-0.0279489
0.113355
-0.221618
0.108263
0.0945715
0.15309
-0.247662
0.00147986
0.00167907
-0.00315893
0.0184736
0.0405372
-0.0590108
0.0736991
0.140115
-0.297729
0.157614
-0.0313777
-0.103856
0.135234
-0.232624
0.0789745
0.00472646
-0.00472646
-0.0257213
0.0282558
-0.202766
0.171775
0.0309911
0.124616
-0.196996
0.0723799
0.00669415
-0.0283387
0.062609
0.141084
-0.0791426
0.212929
0.0675338
-0.178777
0.0765525
0.0871156
0.00221103
-0.115973
0.0866168
0.029356
-0.0487242
-0.0611829
0.109907
0.0701061
-0.0440137
-0.00822889
3.07837e-05
0.0081981
0.0342195
-0.0151812
-0.0549806
0.0957903
0.234805
-0.12145
-0.0755548
0.183926
-0.108371
0.077197
0.085063
0.0475476
-0.0644094
0.269347
-0.00105485
0.00206284
-0.00100799
0.000131184
-0.000414897
0.000283713
-0.0458262
-0.0719811
0.175869
0.0477947
-0.223664
0.219398
-0.124991
-0.0944073
-0.0226072
0.0499914
-0.0273842
-0.00650604
0.013537
0.2202
-0.144528
-0.0756719
0.138117
-0.0781425
-0.0599746
-0.00174005
-0.00294514
0.00468519
-0.130069
0.111842
0.0182272
-0.0810188
0.0942049
-0.0131862
-0.0109173
-0.00520758
0.0161249
-0.0465493
0.0169742
-0.0180723
-0.000243395
0.00331585
-0.00307246
0.0658533
-0.0369077
0.184607
-0.0922637
0.115868
-0.0236048
0.00459857
-0.00611321
0.00151465
0.0119251
-0.0370874
0.144574
-0.00863193
-0.00511724
0.00276113
0.1188
0.0750799
-0.19388
0.00587906
-0.00128049
-0.0138061
0.0874287
-0.0736227
0.0607081
0.0598462
-0.120554
0.0595504
-0.132487
0.072937
0.0526529
0.167437
-0.22009
0.00351931
0.00103961
-0.00455892
0.132936
-0.249151
0.116215
0.0596444
-0.0286704
-0.0309741
0.00171266
-2.83869e-05
-0.00168427
0.0720647
-0.0580385
-0.0140262
0.0962053
0.0722772
-0.168482
-0.0256162
0.0391165
-0.00226612
0.00557487
-0.103814
0.00466956
-0.00795349
0.00913366
-0.00118017
0.0752917
0.00155809
0.0100115
-0.00572201
-0.00428952
-0.00420601
0.00515009
-0.000944075
0.00698606
-0.00420957
-0.00277649
0.262723
-0.129787
0.0595703
-0.0273529
-0.0322173
-0.0966133
-0.0445651
-0.11473
0.0833523
0.249833
-0.0819173
-0.167916
0.0881684
0.00768574
-0.00768574
-0.00413978
-6.62264e-05
0.0135141
-0.0123702
-0.00114393
-0.0327892
-0.0224103
-0.0126166
0.00701451
0.0056021
0.176193
0.038044
-0.214237
-0.0528248
0.0849204
0.0882932
-0.236329
0.148036
-0.109417
0.165389
-0.0559723
0.0308738
-0.0179648
0.0265391
-0.0318324
0.00268896
-0.0384842
0.0357952
-0.229446
-0.0596653
0.289112
-0.00173003
0.000675182
-0.0323458
0.0269972
0.000323372
-0.000708079
0.000384708
0.0633493
-0.0318092
-0.0315402
-0.0111734
-0.022166
0.0333394
0.0290911
0.0342582
0.02795
0.0273093
-0.0552593
0.00239798
-0.00236046
-0.00578614
0.00792981
-0.00214367
-0.0445022
0.021895
-0.00132641
-0.00546203
0.00678844
-0.234348
0.104682
0.0286668
-0.0155201
-0.0102469
0.0414646
-0.0312177
-0.0746202
0.0392067
0.0354135
0.00395288
-0.0138287
0.00182416
-0.0144545
0.00278217
0.0126033
-0.0153855
0.0490408
0.0418056
-0.0908465
-0.0153474
-0.000831696
0.0161791
0.0718217
-0.0286398
-0.043182
-0.00649887
0.0240601
-0.0260903
-0.00479029
0.0308806
0.140589
-0.0637429
-0.0768461
-0.098544
0.223956
-0.125412
0.138702
-0.207699
0.0689965
0.242926
-0.154633
0.00691444
-0.00219338
-0.00472106
-0.00883726
0.0641627
-0.0292944
-0.0851438
0.226576
0.103313
-0.247347
0.144034
0.14251
0.0634639
-0.205974
0.0629118
-0.0340491
0.151512
0.0967449
0.00293434
-0.00459812
0.0637759
-0.0455728
-0.0182032
-0.0036834
0.00465455
-0.000971146
0.176256
-0.0800505
-0.0247774
0.00725601
-0.0062944
-0.138861
-0.116914
0.00338219
0.00360387
-0.0304494
-0.00667362
-0.00260696
-0.00380058
0.0033685
-0.00225317
-0.00111533
-0.193617
0.290884
-0.0972667
-0.0476754
-0.0270269
0.0747023
-0.040458
0.0798048
-0.0393468
0.0660662
0.102675
-0.0324656
-0.039657
0.0721227
0.0139182
-0.0324338
0.0185156
0.109561
0.0499041
-0.0295305
0.0206536
-0.00178264
0.00474127
-0.00295862
-0.0439389
-0.0237282
0.0429292
-0.14143
0.0985009
0.271882
-0.200872
-0.0710099
-0.00497081
-0.0258675
-0.0715486
0.0416134
0.0299351
0.0320259
-0.0543608
0.0223349
0.0537045
-0.0393796
0.0679091
-0.0285295
0.0273525
-0.0362584
0.0736618
0.000241859
8.15124e-05
-0.0341296
-0.0209573
0.0550869
0.0992055
-0.0780924
-0.0211131
-0.00110486
-0.0555209
0.195768
0.0225976
-0.218366
-0.256527
0.203536
-0.0463687
0.0563414
-0.0277596
0.0180609
-0.0353784
0.0173174
0.0714594
-0.0995126
0.0280532
0.0605626
0.0266547
-0.00538459
0.00645434
-0.00106974
-0.0350742
-0.0519713
-0.122421
0.0652775
0.0571435
-0.0662553
0.10605
0.0444738
-0.0716298
0.190182
-0.118552
-0.0934914
0.10137
-0.00787872
0.0714301
0.0666633
-0.00694912
0.00562271
0.0946206
-0.0170982
0.184721
-0.00852816
0.0954305
0.0452958
-0.140726
0.208074
0.125123
-0.0267514
-0.0308358
0.0575872
-0.126698
0.0582984
-0.131093
-0.129031
0.260124
0.144367
-0.242911
-0.0027304
-0.019385
0.0221154
0.252999
-0.159441
-0.0935581
-0.246232
0.0886873
-0.00143728
-0.00259502
-0.140706
-0.0919174
0.125287
-0.0645791
-0.00528903
0.000359321
0.00492971
-0.00495762
0.00449191
0.000465712
0.222198
0.0496839
0.027689
0.0263466
-0.0540356
0.0252322
-0.00246495
0.00240495
-4.89459e-05
0.182368
0.07347
-0.00363943
0.00185679
-0.17641
0.104781
0.011339
0.008682
-0.020021
-0.135974
0.226246
-0.0902722
-0.00233784
0.00646797
-0.00413012
-0.0547937
0.0206641
0.0329088
0.0342592
0.14729
-0.104361
-0.00712102
0.00712102
-0.118466
0.0374472
-0.10732
-0.101443
0.208763
-0.143454
0.251743
-0.0089509
-0.060368
0.0693189
-0.00767111
0.00777524
0.07119
0.0569952
-0.128185
-0.303123
0.159306
0.143817
0.00267246
-0.00061633
-0.0926805
-0.0517571
0.144438
0.122178
-0.0669576
-0.05522
-0.0173164
0.0180155
-0.000699123
-0.203463
-0.0470031
0.0485426
-0.157959
-0.0161352
-0.00118115
-0.00657263
-0.00108284
-0.28329
-0.02919
0.1717
0.0041132
0.00138963
-0.00550283
-0.00810559
0.00231945
-0.0732615
0.0338819
-0.314699
0.162796
0.151903
-0.00674328
0.00768541
-0.000942127
0.000628749
-0.000618372
-1.03768e-05
-0.00789468
0.00132205
0.258194
-0.155707
-0.102487
0.0816503
-0.014568
-0.0670823
0.263339
-0.164394
-0.0989453
-0.0939249
-0.147262
0.0553231
0.0577543
-0.113077
-0.0342053
0.069622
-0.0354167
6.92063e-05
0.000955449
-0.00102466
-0.244526
0.150601
-0.0773344
0.0583724
-0.205431
0.206735
-0.059253
0.22669
0.00180138
0.000871086
-0.00680057
0.00837829
-0.00157771
0.0147918
-0.0497765
0.0349848
-0.0266052
0.0567306
-0.0301254
0.00532511
0.143586
0.120671
-0.264257
0.00247969
-0.00421974
-0.00439412
-0.00303573
-0.000179875
0.105817
-0.0490842
0.00247241
0.00278716
-0.141524
0.0672629
-0.174875
0.103888
0.0709872
0.086534
-0.0672364
0.0562087
-0.131547
0.0753378
0.0971212
0.0132997
-0.139849
0.262235
-0.122386
-0.00811669
0.000163197
0.00480459
0.00418845
0.00340186
-0.00398692
0.000585062
0.0222572
-0.0343635
0.0121062
0.0354694
-0.127733
-0.0187102
-0.03769
-0.0121334
0.0142592
-0.046148
0.0723738
-0.0262258
0.115366
-0.27718
0.161815
-0.00718463
0.000441345
0.000464559
-0.000686669
-0.200567
0.125012
-0.0415573
0.0490381
-0.00748076
0.175463
-0.204653
-0.0506163
-0.0675258
0.118142
-0.00191147
0.00602468
0.0292524
-0.063775
0.0345226
0.259619
0.031699
-0.291318
-0.00710217
-0.00100343
0.0227514
-0.228182
0.000473824
0.00160087
-0.0264154
-0.0150887
0.0415041
-0.0262478
0.0560666
-0.0298188
0.0201516
-0.0417444
0.0215927
-0.0508465
-0.0715744
0.0540819
0.022922
-0.00420731
0.0267398
-0.0225325
0.0842263
-0.0309835
0.0547828
-0.0237993
-0.0584301
0.0833793
-0.0249492
0.0238836
0.0332334
-0.057117
0.0618171
0.0231126
-0.0849297
-0.0173033
-0.00341049
0.0108044
-0.00739387
-0.124987
0.178321
-0.0533337
-0.24088
0.0893244
0.151556
0.0850591
-0.172285
0.0872444
-0.0718465
0.0158895
-0.236807
0.00729359
0.229513
-0.203781
-0.000407338
-0.0050141
0.00542144
-0.0144543
0.003537
0.0416333
-0.00813106
-0.0335022
-0.00688329
-0.0013456
0.128004
-0.0842671
-0.0437372
-0.00197292
-0.000321959
-0.123598
0.267184
0.111833
-0.0243958
-0.026939
0.0513348
-0.206318
0.248617
0.0618988
-0.028246
-0.0336528
0.0261107
0.0269515
0.0224308
-0.055812
0.0333811
0.0264782
-0.0583266
0.0318483
-0.00354776
-0.000557181
-0.03937
-0.0376439
0.0770139
-0.00471621
-0.0079004
0.057587
-0.052769
-0.00481802
0.025905
-0.0301123
-0.00485972
-0.000932023
0.00579175
-0.0486714
-0.0513681
-0.0378775
0.0236434
-0.0243022
-0.0352275
0.0595298
-0.0463899
0.112339
-0.0659495
0.0396659
-0.0322607
-0.00740513
0.00236577
0.0235392
0.0544487
-0.0193431
-0.00803507
0.0012345
0.000829228
-0.000698044
0.277088
0.0787772
0.0492271
0.0013673
2.77621e-05
-0.00139506
0.242404
-0.141898
-0.100506
0.0708678
-0.113055
0.0421875
-0.0720147
0.0981789
-0.0261642
-0.0574299
0.0311821
-0.0122951
-0.00305231
-0.14255
0.0706593
-0.0369756
0.0705099
-0.0335343
-0.00932734
-0.00492504
-0.104746
-0.0701289
-0.189383
0.133305
0.0560783
-0.163177
-0.120114
-0.00288315
0.000680484
0.0286537
-0.0348095
0.0668901
0.0349496
-0.10184
-0.00387862
-0.00026116
6.09941e-05
-0.000220036
0.0832859
0.0948536
0.00208016
0.00032479
0.0423905
-0.0212001
0.0677945
-0.0478109
-0.0199836
0.0187457
-0.0154147
-0.00333096
0.0748327
-0.0392804
0.0175509
-0.0860918
0.0483266
0.0377652
-0.00615376
-0.00142468
0.00757844
-0.00653229
0.0564005
-0.0498682
-0.108725
-0.0900654
0.19879
0.000483397
0.207825
0.0242593
-0.232084
0.257101
-0.155563
-0.101538
-0.105045
0.300061
-0.0211208
0.0143084
0.00681234
0.284541
0.00211532
-0.286656
0.0217283
-0.0548142
-0.134067
0.0582387
0.000192068
-8.56882e-05
-0.00010638
0.025831
0.00155447
-0.0273855
-0.139397
0.248217
-0.10882
-0.122781
0.0715325
0.0512485
0.00964368
0.00387042
0.0930637
0.121111
-0.176394
0.0552839
0.204275
-0.119153
-0.0656252
0.085552
-0.0199269
-0.132829
-0.0557019
0.188531
-0.0449626
0.0171028
0.0278598
0.118791
-0.0434415
-0.0753492
0.00699913
-0.243806
0.0320669
0.00759896
0.0345127
-0.0612641
-0.00272408
-0.000311648
-0.117238
0.0237464
-0.0548822
-0.00757274
0.00328609
0.00428665
-0.00220591
0.00221145
0.107735
0.126503
-0.0997265
0.055144
0.176407
-0.0517905
-0.204786
0.161265
0.0435215
0.0685571
-0.0320062
-0.036551
0.0858149
0.0428462
0.185568
-0.102282
0.0479427
0.0742264
0.0437091
0.0289792
-0.0726884
0.273721
-0.151644
-0.122077
-0.0144069
0.0109964
-0.0846601
0.0266722
-0.0446999
0.0713692
-0.183205
0.0195381
0.163667
0.0366173
-0.14794
0.111323
0.0622428
-0.108633
0.171315
0.0777805
-0.0576698
0.0235861
0.0403645
-0.0639507
-0.14881
-0.120852
0.269661
0.0787145
-0.203702
0.171628
0.133903
-0.305531
-0.00463524
-0.00054486
0.0637538
-0.0867756
0.0230218
-0.0385515
0.0216381
0.135203
-0.0819855
-0.0532178
-0.00132855
0.0027432
-0.00141464
-0.0141136
0.0168957
-0.0159787
0.0570225
-0.0330312
0.0676952
-0.0346639
0.0497828
-0.0822518
0.032469
0.216354
0.0199194
0.0157369
-0.0356563
-0.00579637
0.000411776
0.000221735
-0.00213229
0.0144015
0.0145463
-0.0289478
0.0584373
0.0130301
-0.0714674
0.0302911
-0.0198103
-0.0104808
-0.0447489
-0.0298713
0.0609088
-0.0405045
-0.0204043
0.0348593
0.00681359
0.029209
-0.128967
0.1028
0.142895
-0.0702347
0.0637024
0.00139496
0.00551947
0.0353172
-0.0698571
0.0345399
-0.0710726
0.0386069
-0.18186
0.204457
0.0774675
0.0207113
0.0872777
-0.160321
0.0730431
-0.0035758
0.00213852
0.253466
-0.0954549
0.0662839
-0.0362435
-0.0300404
0.0379058
0.05686
-0.0947658
0.0410407
-0.0262489
-0.0936005
-0.0524092
0.14601
0.0109717
0.0379993
-0.048971
0.0317018
-0.0793772
-0.023703
0.0516529
-0.136752
-0.0451682
0.18192
0.0928413
0.0428492
-0.0547193
0.0118701
-0.0128186
0.00504719
0.00777137
0.0379982
-0.053928
0.0159298
0.0940733
-0.0825726
-0.0115007
-0.101392
0.0798121
-0.174122
0.0943102
-0.000631841
-0.000252846
-0.0282753
0.0194598
0.00881548
-0.00025687
-0.000340438
0.000597307
-0.0101214
0.125053
0.0193887
-0.0494221
-0.095588