/*--------------------------------*- C++ -*----------------------------------*\
| =========                 |                                                 |
| \\      /  F ield         | OpenFOAM: The Open Source CFD Toolbox           |
|  \\    /   O peration     | Version:  v2012                                 |
|   \\  /    A nd           | Website:  www.openfoam.com                      |
|    \\/     M anipulation  |                                                 |
\*---------------------------------------------------------------------------*/
FoamFile
{
    version     2.0;
    format      ascii;
    class       volVectorField;
    location    "300";
    object      U;
}
// * * * * * * * * * * * * * * * * * * * * * * * * * * * * * * * * * * * * * //

dimensions      [0 1 -1 0 0 0 0];


internalField   nonuniform List<vector> 
54593
(
(0.989434 0.0122236 -2.5599e-22)
(1.14909 0.0247674 0)
(1.01256 0.0131521 3.52191e-22)
(0.258988 -0.0182894 0)
(-0.268372 -0.00478735 0)
(-0.0827902 0.00923903 0)
(0.020363 -0.0045883 -7.61319e-21)
(1.17433 0.0149735 1.61922e-20)
(1.14031 0.0196938 -8.63125e-21)
(1.01853 0.028035 -7.82919e-22)
(0.983034 0.0987571 0)
(0.079211 0.00239313 -5.97274e-21)
(0.272085 0.651828 0)
(1.03524 0.0183723 4.08038e-21)
(0.871355 0.32671 5.75899e-21)
(0.89041 -0.00159999 2.69321e-20)
(1.17344 0.0131328 -2.82136e-20)
(0.852901 0.228134 -4.37264e-22)
(1.01809 0.0277706 -2.12777e-22)
(0.865494 0.0489717 2.84039e-20)
(1.01272 0.013527 -3.21234e-22)
(1.0598 0.0920375 -1.11182e-20)
(1.02003 0.0272798 5.42041e-22)
(-0.238064 0.00253776 0)
(1.01733 0.00236997 0)
(1.11261 -0.0593758 -3.10392e-21)
(0.989481 0.0118605 2.93786e-21)
(1.09393 -0.0264952 -4.5975e-21)
(0.10598 0.00647745 6.08175e-20)
(1.01996 0.0277389 1.08137e-21)
(1.11204 -0.0592693 3.00396e-21)
(1.00617 0.443395 0)
(1.0073 0.0138876 -5.42357e-22)
(-0.229351 0.00256101 -3.29487e-20)
(0.773338 0.0916093 0)
(0.999131 -0.000328355 -2.99119e-22)
(1.10936 0.170595 -1.38589e-20)
(1.14938 0.0264752 1.87723e-20)
(1.05781 0.0177256 -6.72633e-21)
(1.06131 0.0917283 6.07358e-23)
(0.218789 0.182954 0)
(1.32663 0.183671 -3.84048e-22)
(1.01481 0.0109489 -6.33623e-22)
(0.988277 0.0117003 6.51253e-21)
(0.43406 -0.205248 -5.8394e-20)
(0.952504 0.0379595 -1.53623e-20)
(1.09337 -0.0507592 6.91672e-21)
(0.918366 0.290128 5.704e-21)
(1.02924 0.00189776 -4.20053e-21)
(1.1454 0.0843649 2.64949e-21)
(1.00724 0.0135422 0)
(1.03007 0.00154208 0)
(1.06394 0.059641 0)
(0.437103 -0.219087 2.40437e-20)
(1.15362 -0.036456 -1.33851e-20)
(1.009 0.000359643 -7.40474e-22)
(0.612194 0.344435 7.46039e-20)
(1.32198 0.174705 3.08606e-20)
(1.15106 -0.0334828 -1.4335e-20)
(0.668281 -0.0219715 -1.03817e-20)
(1.01453 0.0108962 6.71356e-22)
(0.94478 0.0185033 -4.57164e-21)
(1.03565 0.0182211 0)
(0.227937 -0.0131677 0)
(0.997169 0.0143084 5.32621e-21)
(0.893225 -0.00220118 0)
(0.429683 -0.0703605 0)
(0.958604 0.445079 -7.26049e-21)
(-0.276538 -0.000237217 0)
(-0.276199 -0.000425053 0)
(1.02968 0.00157357 9.94906e-24)
(0.777009 0.0961067 0)
(0.997343 0.0145723 -4.94392e-23)
(0.94655 -0.0755507 -2.26853e-20)
(1.06062 -0.00489438 -9.1397e-22)
(1.09205 0.0124712 -1.28936e-21)
(1.09564 -0.0116472 0)
(0.681025 0.636296 -9.42152e-21)
(-0.116909 0.0156647 -3.34614e-20)
(0.478265 -0.635164 0)
(1.00957 0.000905154 -4.94788e-22)
(0.273772 -0.0258784 5.86457e-21)
(0.988415 0.0112955 -8.05296e-21)
(0.660401 -0.0768854 -2.87801e-20)
(1.00907 0.0778523 -9.86542e-22)
(0.90567 -0.0775394 9.60208e-21)
(-0.17142 -0.00483132 -2.91595e-21)
(1.12893 -0.033931 5.57403e-21)
(0.658018 -0.244486 0)
(0.981103 -0.000516711 1.10485e-20)
(-0.175741 -0.000146505 -6.11201e-20)
(1.06976 0.105304 -4.29549e-21)
(1.19059 -0.0104122 -1.07249e-20)
(1.22286 0.221679 1.68303e-20)
(1.10996 0.0862774 -3.50554e-20)
(0.0926618 -0.0204638 0)
(0.887645 -0.0725431 -9.79855e-21)
(1.19998 -0.0298578 0)
(0.974142 0.00419358 -4.37594e-21)
(1.14721 0.0827866 2.42945e-20)
(1.01931 0.0508857 1.76562e-22)
(-0.171813 -0.0118329 0)
(0.951854 -0.00713108 0)
(0.998843 0.0132381 0)
(1.00917 0.431233 0)
(1.02349 0.204893 0)
(1.08109 0.18987 1.51911e-20)
(1.12834 -0.0332471 -2.95456e-20)
(1.09096 0.0119201 1.11505e-20)
(0.636721 0.0198408 0)
(0.489412 0.226616 3.47724e-20)
(1.00012 0.0136749 1.53663e-21)
(0.980536 -0.000573723 0)
(1.11115 -0.0599915 3.74474e-21)
(0.998518 0.0233977 1.74409e-23)
(-0.176976 -0.0753976 -5.5117e-20)
(-0.271208 -0.00028849 -1.68914e-20)
(0.216931 -0.0112554 1.92612e-21)
(-0.214364 0.00265569 5.86391e-20)
(1.18858 -0.0100316 0)
(0.227888 -0.0127188 0)
(0.999787 0.000206095 -4.11515e-21)
(-0.294522 -0.00203572 4.39322e-20)
(1.08186 -0.0285056 1.03641e-20)
(1.01271 0.0186882 -1.3295e-22)
(0.346912 0.192149 0)
(0.951637 0.0195467 -8.05549e-21)
(1.01235 0.0184883 -7.30225e-24)
(0.130154 -0.00535447 -9.97667e-21)
(0.499066 -0.073721 -1.28791e-21)
(1.0149 0.000311487 -7.38712e-22)
(1.00524 0.0473104 1.66625e-21)
(1.09372 0.0101697 0)
(0.99902 -0.000365316 2.71579e-21)
(1.07214 0.1051 1.82791e-20)
(0.184571 -0.88274 -1.60495e-21)
(1.03571 0.00212906 0)
(0.856058 -0.0663831 0)
(0.999204 0.0132633 0)
(0.993671 -0.000647869 2.85772e-22)
(-0.32074 -0.00424385 -4.23185e-20)
(0.7184 0.21174 0)
(1.09281 0.0107602 0)
(1.32588 0.267231 -1.56953e-20)
(1.09106 0.113768 8.30856e-21)
(0.968224 0.44366 5.81822e-21)
(-0.055587 -0.0116665 -4.38147e-21)
(1.10584 0.170703 1.67732e-20)
(0.896172 -0.084252 0)
(1.05375 0.008137 -8.82954e-23)
(0.652646 -0.0561888 3.38056e-22)
(0.983072 0.0404678 3.33517e-21)
(1.12013 -0.0540254 2.11657e-20)
(1.22337 0.217872 -3.40013e-20)
(1.00319 0.0324363 -7.98294e-22)
(0.761895 0.0949348 0)
(0.984044 0.0974404 4.03005e-21)
(0.79033 0.0968407 1.96796e-20)
(0.838683 0.324756 2.32182e-20)
(0.974657 0.00709537 -1.33245e-20)
(1.26766 0.243982 1.37446e-20)
(0.918386 0.0101756 3.03641e-20)
(-0.323529 -0.00112976 8.83945e-20)
(0.074466 -0.0121559 -2.05353e-20)
(1.0932 -0.0261547 0)
(1.05017 0.0141328 3.95186e-21)
(1.01351 0.000725453 1.4762e-22)
(1.01312 0.00863222 5.64912e-22)
(0.095433 -0.352098 9.58994e-20)
(1.00001 2.71433e-05 -1.09099e-22)
(1.10637 -0.0608857 -7.48024e-21)
(0.180206 -0.796295 1.25629e-20)
(0.655793 -0.256212 -2.99677e-20)
(0.999818 0.000236225 3.64725e-21)
(1.13883 0.0172163 -4.02476e-21)
(1.00789 0.0135067 0)
(0.536716 0.209099 0)
(0.94231 0.0505057 9.87831e-21)
(0.945787 0.0209129 0)
(0.239094 0.188336 0)
(-0.159956 -0.0152424 -2.22226e-20)
(1.02518 0.000267266 -3.5818e-21)
(0.0997042 0.0103367 -2.19718e-20)
(1.0177 0.0525563 -9.84008e-24)
(0.999878 0.00108228 7.36032e-22)
(0.118164 0.000832012 0)
(1.05165 0.00672536 0)
(0.978664 0.0825932 2.78266e-21)
(1.03537 0.0189714 -3.36887e-21)
(1.31317 0.162233 1.47158e-20)
(0.944672 0.0201729 5.0489e-21)
(0.827241 -0.0616985 7.7565e-21)
(-0.330514 -0.00012578 -1.61567e-21)
(0.997265 0.0150216 0)
(-0.319739 -9.28486e-05 0)
(-0.0560423 -0.0123099 -4.58926e-21)
(0.989859 0.0179552 -6.5729e-21)
(0.963013 0.0863533 0)
(1.11174 -0.0600744 -3.46927e-21)
(-0.196569 -0.00617788 -7.32043e-21)
(1.07577 0.107258 0)
(0.349146 0.180662 -6.48182e-20)
(1.13067 -0.0285235 2.26102e-20)
(0.952814 -0.00690465 9.67863e-21)
(0.982431 0.0511985 8.91444e-23)
(0.983558 0.0511616 3.67893e-21)
(0.573815 -0.895789 1.40485e-20)
(1.00948 0.0762187 7.92015e-22)
(1.05818 0.0173157 -2.30965e-21)
(1.00985 0.000937636 -5.98555e-22)
(0.993974 0.00134603 0)
(1.03482 0.0190682 -2.49213e-21)
(1.02492 0.000299498 1.69915e-21)
(1.0911 0.00642283 -8.64143e-21)
(1.10916 0.0845411 1.87798e-20)
(1.14502 -0.0563744 0)
(0.634824 0.309028 0)
(0.81159 -0.0616344 4.80324e-21)
(0.114229 -0.221058 0)
(0.990312 0.0178165 4.38056e-21)
(1.06455 0.0861405 -6.50774e-21)
(0.824582 0.45524 6.38461e-20)
(1.32216 0.187467 6.13686e-20)
(1.06273 0.0314097 -4.21123e-21)
(0.500862 -0.250262 8.96678e-22)
(1.11697 0.0621237 1.54819e-22)
(1.00002 0.000797773 0)
(0.860034 0.229035 -2.33891e-20)
(1.01132 0.0127822 -7.61672e-23)
(0.843899 0.316994 -2.86098e-20)
(0.952558 0.0200832 0)
(1.09773 -0.0593869 1.07781e-20)
(-0.0732819 0.00370831 0)
(0.999865 0.0011999 0)
(0.965751 -0.00322027 -4.12019e-22)
(0.912996 -0.0730985 9.12605e-21)
(1.10683 -0.0606301 1.276e-20)
(0.999458 0.0029125 -1.21337e-22)
(0.593818 -0.364397 6.87697e-23)
(0.999439 0.00306178 0)
(1.06202 0.0317862 -4.13002e-21)
(1.09219 0.00653528 0)
(0.658852 -0.0782794 -2.98973e-20)
(1.22728 0.103412 -1.42823e-20)
(1.06286 0.0176653 4.40843e-21)
(1.06074 -0.0103974 0)
(0.234328 -0.0426314 0)
(1.10265 -0.0650265 -1.27875e-20)
(1.01411 0.00829392 6.692e-22)
(1.2702 0.248 5.65527e-20)
(1.22693 0.100019 1.31536e-20)
(0.0554477 -0.0319426 6.14786e-21)
(0.590795 -0.0697559 1.06475e-20)
(1.00564 0.0090652 0)
(1.06019 -0.00428222 3.85837e-22)
(1.01382 0.000405247 -1.37938e-21)
(-0.245163 -0.00229668 -8.59644e-21)
(1.01278 0.0706295 -5.13584e-22)
(1.22766 0.0120241 -1.59451e-20)
(1.05716 0.0942632 -7.12247e-21)
(1.0327 0.2509 0)
(-0.123874 -0.0195856 0)
(0.967766 -0.00568735 0)
(-0.191078 -0.00781246 0)
(1.1102 0.0811347 2.25125e-20)
(1.03176 0.0142032 -8.50925e-22)
(-0.131936 0.00253479 0)
(1.01386 0.00823564 -1.8961e-21)
(0.962605 0.104612 0)
(1.05007 0.014666 0)
(0.901885 -0.0798095 -1.85212e-20)
(0.986951 0.683916 3.44565e-20)
(1.08729 0.075465 -6.24737e-21)
(0.98966 0.0125997 -6.94622e-21)
(1.06068 -0.00986109 0)
(1.00061 0.0292931 -1.82828e-21)
(0.942182 0.0159032 -5.19044e-21)
(0.683334 -0.0778723 2.08007e-20)
(1.02367 0.0168858 0)
(1.09297 -0.050403 -5.8366e-21)
(1.01602 0.000256393 4.35702e-22)
(1.09754 0.00283274 -1.65283e-20)
(1.08049 0.0138526 8.06755e-22)
(-0.311625 0.000788371 0)
(0.23656 -0.04217 -6.84172e-21)
(0.256448 0.0032959 2.54065e-20)
(1.05915 0.0944471 6.51558e-21)
(1.01383 0.000351304 0)
(1.09326 0.1126 0)
(0.489824 -0.996293 3.23933e-20)
(0.0662425 -0.0334525 -2.07332e-20)
(0.262592 -0.0238986 -6.62992e-21)
(1.00544 0.00890557 4.164e-22)
(1.0016 0.00735154 0)
(1.11087 -0.0339001 -8.29455e-21)
(1.00005 0.000906189 2.13645e-22)
(0.65624 0.313355 0)
(1.00181 0.672954 -2.60984e-20)
(0.998755 0.0230091 -1.74569e-21)
(1.10484 -0.060076 7.72784e-21)
(1.10431 -0.0655111 7.40744e-21)
(1.05627 0.0328285 -6.86769e-21)
(0.994167 0.00120364 2.40252e-22)
(1.00002 0.000184302 2.85108e-23)
(0.997605 0.0283904 4.61043e-23)
(1.002 0.0387997 -1.89969e-21)
(1.14658 0.0643251 -9.2449e-21)
(0.0803739 -0.00398465 0)
(1.05313 0.00796495 -1.15544e-20)
(0.991165 0.0181488 1.74718e-22)
(0.596858 -0.0699926 0)
(1.04466 0.209156 1.94472e-21)
(-0.324488 0.000877731 -1.81148e-22)
(0.966289 -0.00267267 2.84456e-21)
(0.223533 0.035022 9.45672e-20)
(-0.125797 0.00356238 0)
(0.579199 -0.372499 1.45416e-22)
(1.14991 -0.0780298 0)
(1.16404 -0.0532295 -3.93668e-20)
(1.03777 0.0403149 -3.75288e-23)
(1.17029 0.0457911 0)
(1.01475 0.00981852 0)
(1.13019 -0.0695372 -1.01001e-20)
(1.09265 -0.0269196 3.7918e-21)
(0.784837 -0.0676787 0)
(1.12517 0.141609 -2.47232e-22)
(0.80811 0.431996 5.11026e-21)
(1.03119 0.0140663 6.57713e-21)
(-0.146718 -0.0170071 1.93863e-20)
(1.0823 -0.0290367 -1.89411e-20)
(0.995657 0.00121647 -6.22362e-21)
(1.0437 0.118841 0)
(0.998687 0.0134966 0)
(0.91855 0.00823907 8.47379e-21)
(1.00002 0.000150256 0)
(0.0720071 -0.55548 -4.57439e-20)
(1.07915 0.00452067 -1.04221e-20)
(0.185071 -0.00440018 -6.81263e-21)
(1.12347 -0.0697813 0)
(1.08938 0.0325584 1.31129e-22)
(1.03988 0.209616 1.65063e-21)
(1.06536 0.0600677 5.47155e-21)
(0.243941 -0.037681 -6.34412e-21)
(1.01395 0.0708091 0)
(1.00271 0.0387013 -1.64797e-21)
(1.15671 0.25573 -5.99403e-21)
(1.14515 0.0863539 1.0948e-20)
(1.10467 -0.0596271 -9.20749e-21)
(1.16731 0.272433 0)
(0.986814 0.136572 -1.66616e-20)
(-0.252402 -0.00648117 -6.18537e-21)
(1.0016 0.00716175 2.03108e-21)
(1.12751 -0.0685713 0)
(1.22152 0.0895653 5.38063e-20)
(0.982041 0.00678412 -1.35769e-21)
(1.01443 0.0111865 0)
(0.852865 0.00646974 -2.7059e-21)
(0.999713 0.00867987 -1.06464e-21)
(0.987462 0.0284619 -4.12785e-21)
(0.988844 0.0163943 4.15996e-22)
(1.14511 -0.0551289 1.71441e-20)
(1.06491 0.0878312 0)
(1.02607 0.0701662 -1.77315e-21)
(0.115691 -0.00448034 -1.61272e-20)
(0.682361 0.284148 0)
(0.968599 -0.00349416 0)
(0.999616 0.00865787 -1.12283e-21)
(1.31489 0.177975 1.61803e-20)
(1.10115 -0.00526441 -7.20596e-21)
(0.997504 0.0152513 0)
(1.06949 -0.000105479 0)
(0.997118 0.0283528 -4.90433e-21)
(1.01472 0.00959665 7.55068e-22)
(1.03773 0.0410109 3.69888e-21)
(0.912776 0.0105674 2.0641e-20)
(0.355945 -0.983923 3.81192e-21)
(1.03672 0.0163211 -3.39226e-21)
(1.30553 0.144627 1.59902e-20)
(1.08719 0.0737749 0)
(-0.0116575 0.0267951 0)
(0.103711 -0.0123445 -2.03438e-20)
(0.8047 0.0563508 -1.58116e-20)
(0.662984 0.39126 0)
(1.10249 -0.0650355 1.45478e-20)
(1.12976 -0.0280888 0)
(0.765512 0.858467 0)
(-0.30668 -0.000165285 0)
(0.999036 0.0134778 0)
(0.682539 -0.0799103 2.98826e-20)
(0.528751 -0.260287 0)
(0.501406 0.0469898 0)
(1.14991 -0.0345083 -1.49215e-20)
(1.0784 0.00477655 -1.28885e-20)
(1.01414 0.0111194 0)
(0.212748 0.00471709 3.91478e-21)
(0.167158 -0.00346011 -1.01298e-20)
(1.30182 0.140416 -1.55032e-20)
(1.14036 0.0178191 0)
(0.58565 0.192491 -6.51221e-20)
(1.11754 -0.0259828 4.89119e-21)
(1.01351 0.081053 4.23658e-22)
(1.15616 0.156914 -1.67235e-20)
(-0.230302 0.00441866 -1.74466e-20)
(1.23303 0.174044 -1.00533e-19)
(1.13084 -0.0685014 -9.58914e-21)
(0.851427 0.536714 -2.66488e-21)
(1.01863 0.00022896 3.92131e-21)
(0.651668 0.405779 0)
(1.00587 0.0146037 0)
(1.20008 -0.0318357 0)
(1.10333 -0.0652176 1.32711e-20)
(1.03701 0.0167524 0)
(0.993985 -0.000597661 -2.73069e-22)
(1.08711 0.272431 -1.28361e-20)
(1.00059 0.0143393 0)
(0.0811226 0.00291502 -4.06123e-20)
(1.11087 -0.00313429 2.97775e-20)
(0.988577 0.00566944 0)
(1.00207 0.0427198 2.04885e-21)
(1.09188 -0.0267223 6.61974e-21)
(0.707559 0.114758 -3.13739e-20)
(0.0243442 -0.00583218 0)
(1.13047 0.135108 0)
(1.15141 -0.0219069 -2.58394e-20)
(-0.0694264 -0.00730613 4.26205e-21)
(-0.331873 0.000199727 6.67953e-21)
(0.376217 -0.050742 1.15676e-20)
(1.13153 0.0779134 1.45594e-20)
(-0.237683 -0.000613916 0)
(1.03189 0.172203 9.52601e-23)
(0.17564 -0.0483432 2.81107e-20)
(0.883294 0.195382 5.35564e-21)
(0.237929 0.0288527 -1.28602e-19)
(1.14521 0.0629795 4.12442e-21)
(1.1232 -0.0206727 0)
(1.08325 -0.0142099 8.99785e-21)
(0.990039 0.0125136 6.0734e-21)
(0.815609 -0.0679799 0)
(0.996511 0.350406 -2.50325e-21)
(1.0029 0.357474 0)
(0.104456 -0.00219776 1.77978e-20)
(0.99989 0.00128075 1.30371e-21)
(1.01297 0.0184095 1.06185e-22)
(0.999219 0.00816094 -3.37717e-23)
(-0.0553484 -0.00470898 -3.85649e-20)
(1.11023 -0.0335432 -8.00065e-21)
(0.998937 0.0179006 0)
(0.974086 0.00687564 1.47104e-20)
(1.11964 -0.0531747 -1.10488e-20)
(0.259069 -1.22451 -4.70611e-20)
(1.14824 -0.0774353 -2.90344e-21)
(1.1245 -0.0706862 1.37818e-20)
(0.681305 0.296159 0)
(0.87544 0.254444 -1.45677e-20)
(0.257784 -0.0175311 0)
(0.10309 -0.662365 -8.56739e-21)
(0.994932 0.200004 7.31215e-22)
(0.995828 0.00129314 6.75741e-21)
(0.951099 0.0382786 1.8888e-20)
(1.1864 -0.0188324 -2.12999e-20)
(0.998735 0.017664 -6.93822e-22)
(1.01501 0.00934739 -1.09541e-21)
(0.107496 -0.333458 -1.04556e-19)
(0.984632 0.0342989 4.80183e-21)
(1.02058 0.0151221 2.15689e-21)
(1.18046 0.114499 1.66005e-20)
(1.14667 -0.0545703 -3.91185e-20)
(0.972438 0.0139783 0)
(1.12161 0.0151885 0)
(1.32244 0.156316 2.90475e-20)
(-0.315663 0.000716597 -4.74625e-23)
(-0.258547 -0.00222493 5.32673e-20)
(0.975286 0.156368 -3.9106e-21)
(1.02164 0.00763811 0)
(0.147234 -0.00362696 1.00482e-20)
(0.983939 0.0406407 -5.64069e-21)
(1.00001 3.6655e-05 -2.71249e-22)
(0.834641 -0.0614519 -6.17798e-21)
(-0.0373271 0.0049312 -7.16551e-21)
(0.972246 0.0144313 0)
(1.14185 0.0204111 1.83852e-20)
(0.988728 0.00632239 -9.52103e-22)
(0.540909 -0.254598 1.85044e-20)
(1.10979 -0.0290518 0)
(0.988712 0.00528374 2.89928e-21)
(1.3203 0.160069 -2.73825e-20)
(1.12345 -0.0690244 0)
(0.42618 0.488716 5.55063e-20)
(1.0175 0.00250304 9.98801e-22)
(0.388007 1.01838 0)
(0.26745 -0.746279 0)
(0.999867 0.00100794 -3.73713e-22)
(1.00454 0.0123647 8.60382e-22)
(1.08814 0.033203 8.67167e-21)
(0.0541135 0.112806 6.02032e-20)
(1.04223 0.0360785 -2.46666e-21)
(0.750469 0.154662 0)
(0.953941 0.0569914 0)
(1.10318 -0.0648015 -1.32081e-20)
(1.00361 0.0395395 0)
(1.26372 0.24574 3.93628e-20)
(-0.161621 -0.00477689 -3.59577e-20)
(1.10111 -0.0644338 -7.28293e-21)
(0.512375 -0.24605 0)
(1.01449 0.0234939 0)
(0.96234 0.22695 0)
(0.974285 0.00545097 0)
(0.707246 0.10046 3.48714e-20)
(0.878083 0.194689 -6.08789e-21)
(1.00986 0.0136688 4.24769e-23)
(0.985571 0.0263726 1.12426e-21)
(1.16319 0.307311 2.23111e-20)
(-0.0665111 -0.00654957 -2.15367e-20)
(0.973911 0.00586901 0)
(0.862035 0.0487031 -2.52286e-20)
(0.227267 -0.0255397 0)
(0.29243 0.615764 0)
(1.00617 0.0091413 0)
(0.405607 0.153869 1.41055e-22)
(0.99449 0.0158418 -2.8278e-21)
(1.1283 -0.0358229 -1.08746e-20)
(1.04465 0.0892792 1.02645e-21)
(1.04147 0.0361355 1.81663e-21)
(0.968357 0.00281716 1.21985e-20)
(0.991281 0.017647 5.13199e-21)
(1.11771 -0.0252908 -9.60676e-22)
(0.955255 0.0443288 4.87964e-20)
(0.528506 -0.0566252 0)
(-0.196881 -0.00791382 1.13033e-19)
(1.0296 0.0018691 -2.17055e-23)
(1.05192 0.686562 0)
(1.01464 0.0800549 0)
(0.727097 0.215787 0)
(1.00139 0.0311356 -7.76513e-22)
(1.01327 0.018595 -1.24752e-22)
(1.01089 0.0134377 0)
(-0.282361 -0.000277725 0)
(0.988887 0.00605915 1.54302e-21)
(0.85055 0.00367345 1.30653e-20)
(1.08344 0.187946 -1.40454e-20)
(1.01114 0.0255523 -5.87212e-22)
(1.06195 0.0279987 4.37713e-21)
(1.14834 -0.0804397 -1.51096e-20)
(0.0939139 0.0102322 0)
(0.964381 0.0345327 -2.52346e-21)
(0.130095 -0.00479617 -9.80634e-21)
(-0.236518 -0.00377509 0)
(1.00998 0.0134743 0)
(-0.00770431 0.00471354 0)
(1.02056 0.0148079 0)
(0.880833 0.120687 0)
(1.10297 0.0146903 0)
(1.14659 -0.05341 0)
(0.229784 0.970137 4.55297e-20)
(1.2189 0.155374 -2.90601e-20)
(1.20531 0.0468481 0)
(0.231491 0.152295 6.99318e-20)
(-0.168954 0.00452376 0)
(1.12449 -0.0698541 -1.10685e-20)
(0.315575 -0.0191303 5.51023e-21)
(0.999267 0.00789423 0)
(0.999837 0.00126057 0)
(1.08318 0.268059 -1.03315e-20)
(1.12179 0.0166927 0)
(-0.20203 -0.00536206 -1.03199e-19)
(1.04236 0.0348345 2.25198e-23)
(0.166175 -0.0481936 -1.45903e-20)
(0.97323 0.0189438 -1.21743e-20)
(1.06912 -0.000817284 -8.89725e-21)
(1.14853 -0.0338433 1.2138e-20)
(1.00623 0.00906589 2.98459e-22)
(1.04171 0.118101 4.92689e-21)
(0.465139 0.0557566 -5.03324e-20)
(0.995115 0.0895773 2.91793e-21)
(1.21089 0.438727 4.02926e-20)
(0.21553 -0.0235849 0)
(0.687552 0.605686 1.18775e-20)
(0.4908 -0.666449 -2.92978e-20)
(-0.0751714 0.0095719 2.68693e-20)
(0.0725204 -0.652221 0)
(1.00899 0.0142021 3.7509e-22)
(1.01313 0.00767375 7.76239e-22)
(1.08297 0.0683952 9.31608e-21)
(1.01417 0.023248 6.91255e-23)
(1.02475 0.0737975 0)
(1.00341 0.0389798 0)
(1.11999 -0.0523399 -2.32108e-20)
(0.974685 0.0646673 0)
(1.1037 -0.0638391 1.59747e-21)
(1.09191 0.00279185 0)
(1.08359 -0.0135393 -7.55044e-21)
(-0.288049 -0.00192331 0)
(1.13283 0.0765335 -1.65036e-20)
(1.134 -0.00573558 9.03219e-21)
(1.0186 0.0524557 3.9655e-23)
(0.0750918 -0.0357812 0)
(0.0691054 -0.0268855 -7.74134e-21)
(1.01573 0.026471 0)
(1.00007 0.000502641 -5.52879e-22)
(0.225776 0.136929 -3.05689e-20)
(0.185288 -0.00431239 6.66279e-21)
(1.06141 0.0673931 0)
(0.973814 0.00475281 9.01555e-21)
(0.0169795 -0.016128 0)
(-0.162883 -0.0135141 2.26099e-20)
(0.449813 0.47692 -5.03145e-20)
(0.0219972 0.00461065 -1.52602e-20)
(0.930467 -0.01063 0)
(1.0534 0.0957636 6.97825e-21)
(1.02614 0.201588 0)
(1.12852 -0.063718 0)
(0.987137 0.0289861 0)
(1.00006 0.00047131 3.25897e-23)
(0.779281 -0.0918599 0)
(1.16609 -0.00469642 -4.19357e-20)
(1.10313 0.0156407 -8.50259e-21)
(1.02745 0.0705519 0)
(1.2125 -0.0271762 0)
(0.726861 -0.0606616 -4.28479e-21)
(0.999867 0.00117558 3.47592e-22)
(1.01322 0.00744454 0)
(-0.213659 0.00430591 0)
(1.1251 -0.0497686 -6.69796e-21)
(1.12801 -0.0347544 -1.11879e-20)
(0.830036 -0.0658057 8.27875e-21)
(0.226441 -0.738636 -8.40829e-21)
(1.12921 -0.0634484 0)
(0.100329 -0.0307834 0)
(0.0469857 -0.017471 0)
(1.15811 -0.0139335 0)
(1.26871 0.0648163 -2.24422e-20)
(0.99465 0.0154612 -7.77773e-21)
(0.998922 0.0425504 -2.76397e-21)
(1.15385 0.155347 0)
(1.01615 0.0267739 -1.00252e-22)
(1.09466 -0.0429219 2.71176e-21)
(0.996068 0.345346 0)
(1.28057 0.2363 -8.68406e-21)
(0.976041 0.0649248 -2.47415e-21)
(0.399254 -0.0688756 0)
(1.19591 -0.0201093 2.88381e-20)
(1.00971 0.028006 0)
(1.19756 -0.0194016 -3.71918e-20)
(1.01375 0.0113281 -2.72862e-22)
(1.062 0.0223109 2.0692e-21)
(0.748549 0.886793 1.69068e-20)
(0.406331 0.0240768 8.69332e-20)
(0.16071 -0.0473572 -1.408e-20)
(0.860714 0.115634 0)
(0.287787 -0.049098 0)
(1.00876 0.0139719 -6.70244e-22)
(1.01174 0.356924 0)
(0.0751708 -0.0241409 9.61481e-21)
(0.728266 -0.0810387 -2.67668e-20)
(1.00318 0.006211 0)
(1.02431 0.0007779 -1.67396e-21)
(-0.111086 -0.0205911 0)
(0.835728 0.0418822 5.46176e-20)
(1.0426 0.0355021 2.54742e-21)
(1.00246 0.00156019 6.92461e-22)
(0.973513 -0.000276968 0)
(1.01537 0.0267873 -4.05057e-23)
(-0.148173 0.00140041 0)
(0.634552 0.0108441 1.02063e-21)
(1.03594 0.0174584 -2.65292e-21)
(1.04237 0.00270213 7.27812e-21)
(-0.225558 0.00182442 0)
(1.11923 -0.0516984 1.16834e-20)
(0.999649 0.0423817 2.91495e-21)
(1.01338 0.0086824 0)
(1.00082 0.0311319 0)
(1.11095 -0.00383811 -2.35704e-20)
(1.09845 0.0699135 -7.40498e-21)
(1.01714 0.0797937 7.43923e-23)
(1.20284 0.0466391 0)
(-0.321834 0.000243414 5.49262e-20)
(0.860532 -0.0852525 1.54485e-20)
(0.945755 0.0222247 -7.99852e-23)
(1.00325 0.00612134 9.754e-24)
(0.995613 0.0154121 1.82499e-21)
(1.08042 0.0129331 1.13348e-20)
(1.0312 0.168614 -3.7414e-21)
(0.999862 0.00113163 -8.61349e-22)
(-0.0717683 -0.0224264 -8.89045e-21)
(0.000962181 0.0148961 -2.91263e-20)
(0.978409 0.0808428 0)
(0.99412 0.000685517 0)
(1.01327 0.0265044 0)
(1.09987 -0.0641232 1.51765e-20)
(0.413613 0.232978 -1.3235e-19)
(1.03368 0.00188245 -1.72084e-21)
(0.97525 -0.00341357 -8.59481e-21)
(-0.165809 -0.0150601 1.13454e-20)
(0.988854 0.0588597 7.20945e-21)
(1.00897 0.099132 2.49102e-22)
(0.430188 -0.140932 3.87176e-21)
(1.03551 0.0175716 0)
(0.485771 -0.241403 -1.01065e-19)
(-0.157581 0.00561875 6.46945e-20)
(1.03447 0.25625 -7.88738e-23)
(0.993973 0.000891547 2.73081e-24)
(1.00332 0.0772024 -2.51217e-21)
(-0.232643 0.00631582 -4.10842e-20)
(0.67548 -0.0272968 0)
(0.985829 0.0267989 6.31131e-22)
(-0.156049 -0.0132815 0)
(1.002 0.0166892 -2.23199e-21)
(-0.222339 0.00738751 4.32121e-21)
(1.14511 0.0956834 0)
(1.07381 -0.0128927 -3.19889e-21)
(0.991047 0.0495999 2.42049e-21)
(1.03484 0.002101 -6.45499e-21)
(0.177752 -0.00530355 -4.59706e-21)
(1.00313 0.00378232 0)
(0.869728 0.236139 -1.18179e-20)
(-0.0567153 0.00841103 6.01585e-21)
(0.94127 0.176016 -2.34297e-21)
(1.03761 0.0221649 -3.05245e-21)
(0.774075 -0.089984 -5.02315e-20)
(-0.284623 -0.00324885 0)
(1.09696 0.00366768 2.51795e-20)
(-0.323851 0.000602656 0)
(0.97652 0.158951 0)
(0.256523 -0.0496046 1.50853e-20)
(-0.157447 -0.0336852 4.57531e-20)
(-0.239266 -0.00703787 -6.3835e-20)
(1.00319 0.00368549 1.53597e-22)
(1.26413 0.269937 0)
(1.00796 0.0751764 -1.00624e-21)
(0.973598 -0.000835357 -4.75091e-21)
(1.01305 0.0122656 0)
(1.01405 0.0114145 -3.2012e-22)
(-0.237058 -0.000721839 0)
(-0.170144 -0.00759699 -1.1104e-19)
(0.373287 -0.0681803 -5.5611e-21)
(0.870322 0.250391 0)
(0.321103 0.0991021 3.78166e-20)
(0.999914 0.0204107 2.42488e-21)
(0.961366 0.0874239 0)
(1.00228 0.0034451 1.44737e-21)
(0.991226 0.0213052 -3.37321e-21)
(0.79845 -0.0607557 -7.83193e-21)
(0.750287 0.82027 -6.24009e-21)
(1.27181 0.0622244 0)
(1.00002 0.000664678 1.22518e-21)
(-0.05897 -0.0244654 -7.63178e-21)
(0.702679 0.0933355 -2.26216e-21)
(0.025784 -0.00442082 -2.67292e-20)
(1.10261 -0.0642012 1.29947e-20)
(0.861034 0.0477176 1.78428e-20)
(1.10216 -0.0641154 0)
(1.1218 -0.0619808 0)
(0.0974309 0.00460827 0)
(-0.327025 0.00168153 5.01064e-20)
(1.10201 -0.0647453 -1.6942e-20)
(-0.304154 0.000766649 2.25091e-20)
(1.00038 0.0142156 0)
(0.753836 -0.0623628 9.61711e-22)
(1.00815 -0.0040783 4.23851e-20)
(1.11456 -0.0538277 0)
(0.391408 -0.0522926 -1.23214e-20)
(0.512706 -0.0556038 1.69421e-22)
(0.51636 0.0246927 -4.35553e-20)
(1.14358 0.0228401 1.78586e-20)
(0.49112 -0.0557369 2.59746e-21)
(0.841379 -0.0406894 -1.20776e-20)
(0.572559 0.194791 7.1162e-20)
(0.53617 0.933394 3.67922e-21)
(1.07424 0.00444701 -6.13582e-21)
(1.00209 0.00474144 -7.50692e-22)
(0.994112 0.000187422 -2.69109e-22)
(1.00231 0.0033728 -4.19378e-22)
(0.237517 0.00348678 7.19061e-21)
(1.16751 0.267147 -5.52976e-21)
(1.05155 0.0955323 6.06542e-21)
(1.03538 0.00191123 0)
(1.01498 0.0135216 -1.40218e-21)
(0.991182 -0.00134873 2.67191e-21)
(1.32144 0.173884 -4.66487e-22)
(1.0112 0.013587 -1.51179e-22)
(0.224695 0.00595501 4.87679e-23)
(1.11052 -0.0533984 1.25033e-20)
(-0.179139 -0.00412919 0)
(1.03739 0.0216635 3.68384e-21)
(1.10163 -0.0645439 -7.44327e-21)
(-0.246406 0.00394614 -1.65873e-20)
(1.00697 0.0133133 0)
(-0.238081 -0.00682379 0)
(0.893279 -0.0794839 0)
(0.216709 -0.0116542 -1.84478e-21)
(-0.11702 -0.00624094 0)
(1.00007 0.00046851 1.01909e-21)
(0.92132 0.109641 -2.47836e-22)
(1.1428 -0.0406475 0)
(1.0058 0.0481722 0)
(1.11485 0.124479 -7.69709e-21)
(0.851785 -0.0697485 9.23005e-21)
(1.06251 0.0217398 0)
(0.877073 0.0387276 -5.93127e-20)
(-0.14552 -0.0160107 3.45449e-20)
(1.22876 0.0141103 1.85053e-20)
(0.998643 0.0289819 -2.71134e-21)
(1.01238 0.00908306 0)
(0.426035 -1.05664 -3.90856e-20)
(0.97201 0.207213 -4.81779e-21)
(1.28161 0.00880473 0)
(1.01622 0.0807495 -8.28994e-23)
(1.11841 -0.0543424 -2.39761e-20)
(0.701934 0.108169 -8.31223e-20)
(1.16825 0.0450227 0)
(0.004512 -0.00505471 -2.65641e-20)
(1.24133 -0.0236745 1.10821e-20)
(1.11122 0.00234041 4.67557e-21)
(1.21593 0.156542 -9.20866e-21)
(0.994223 0.0018867 0)
(1.00006 0.000445503 -5.76678e-22)
(0.994005 0.00179843 -9.21107e-22)
(1.1617 0.259749 -1.38621e-20)
(0.493879 0.934838 0)
(0.899885 -0.0845765 0)
(1.11572 0.00413409 -1.41312e-21)
(1.12812 0.140303 9.00288e-21)
(-0.243411 0.00464583 -1.06819e-20)
(1.15481 -0.035619 -1.57484e-20)
(1.10088 0.00447801 1.55843e-20)
(0.929334 -0.00886979 0)
(1.27004 0.0624742 0)
(1.02288 0.0176199 1.8519e-21)
(0.952323 0.00222657 1.39479e-20)
(0.966964 -0.00577294 -6.24918e-21)
(-0.290074 5.0396e-05 -1.93924e-20)
(0.943491 0.0180225 -2.7235e-21)
(1.00021 0.0206172 -2.79887e-21)
(1.0477 0.0206511 0)
(1.0138 0.000736358 -1.489e-22)
(1.15672 -0.0316487 0)
(0.969087 -0.00411946 0)
(1.0025 0.0033915 0)
(1.00207 0.00461336 0)
(0.655635 -0.00969164 0)
(1.01346 0.0232356 0)
(1.00815 0.000172836 3.57081e-22)
(-0.139979 -0.0178826 -2.32932e-20)
(1.01491 0.0264966 1.01733e-22)
(1.07307 -0.0127315 0)
(0.214792 0.00406832 -3.48746e-21)
(0.0368335 0.182978 -7.46968e-20)
(1.01265 0.0091705 0)
(1.22862 0.34666 0)
(0.747834 -0.0831835 3.5459e-20)
(0.0680046 -0.0200535 0)
(1.01162 0.0129065 -1.25083e-22)
(-0.130493 -0.0179657 8.41072e-23)
(1.02298 0.0179395 -2.222e-21)
(0.448648 0.224136 0)
(1.03336 0.00138724 -4.41259e-22)
(0.14135 -0.148528 0)
(1.25832 -0.0206552 0)
(1.16666 0.302587 2.8654e-20)
(0.999093 0.0288562 0)
(-0.234473 -0.00172834 -4.87773e-20)
(1.00882 0.0971886 0)
(1.01431 0.0182065 -3.68883e-22)
(1.01333 0.00791732 -1.29211e-21)
(0.886936 0.055226 -2.0789e-22)
(-0.315031 -0.000550263 1.52002e-21)
(1.05499 0.0664182 0)
(1.00267 0.00175161 -4.47028e-22)
(0.0692475 0.00848244 1.148e-20)
(1.06055 0.0138799 7.21931e-21)
(1.09899 0.0449662 1.22328e-20)
(0.389 0.398875 1.54445e-19)
(1.01226 0.0129995 3.72976e-22)
(0.991638 0.0211373 1.69711e-21)
(0.397483 0.383959 2.79769e-20)
(-0.311061 -0.000408662 0)
(1.02146 0.000219617 -1.87091e-21)
(0.990974 -0.0011277 1.55337e-21)
(0.197824 -0.00880952 1.38641e-20)
(-0.314898 0.00284197 -4.67306e-20)
(1.11898 -0.0552108 1.08922e-20)
(1.02072 0.000245486 -2.67607e-21)
(-0.30089 0.00312597 -3.15293e-21)
(0.00990557 0.002805 -8.7814e-20)
(-0.319086 3.5981e-06 8.76981e-21)
(1.01335 0.0115118 2.80235e-22)
(1.18896 0.105956 -4.86474e-20)
(1.00655 0.0132256 5.42293e-22)
(1.02488 0.000516405 -1.80323e-21)
(1.07893 0.0738465 3.63864e-23)
(1.12076 -0.0403577 -1.0729e-20)
(-0.027826 -0.0292905 2.94639e-20)
(1.02462 0.000549139 1.77119e-21)
(0.942013 0.0145803 -6.14921e-21)
(0.995646 0.000834418 5.69706e-21)
(1.0345 0.00191393 7.88417e-21)
(0.0830103 0.00752211 0)
(-0.332833 0.000456909 1.24064e-20)
(1.28349 0.0990957 -2.83756e-20)
(0.807322 0.197739 3.59593e-20)
(0.240772 0.00727804 -5.37433e-20)
(1.00824 0.00522218 -2.81157e-22)
(-0.150275 -0.0165603 -1.12946e-20)
(0.290059 -0.444736 0)
(-0.129623 0.00376875 0)
(0.994508 0.0910505 -1.51487e-21)
(-0.175378 -0.00570095 -2.11431e-20)
(1.00132 0.0428122 -1.4434e-21)
(1.02643 0.0349443 -1.4993e-21)
(0.960735 0.106306 0)
(1.00075 0.0550719 1.99498e-21)
(1.11824 0.061116 5.161e-21)
(1.00571 0.0129174 5.90929e-22)
(-0.331698 0.000337159 -1.44544e-21)
(0.245323 -0.0367797 0)
(0.0343633 -0.149793 7.36757e-20)
(0.661655 -0.221177 4.80497e-22)
(1.00331 0.0758003 4.43332e-21)
(1.09329 -0.060175 -4.6619e-21)
(0.418547 -0.19592 1.0021e-19)
(1.2258 0.157569 -2.96026e-20)
(1.01651 0.00271898 4.77999e-22)
(-0.292178 0.00369115 0)
(0.00848708 -0.0158816 0)
(0.995943 0.0153474 3.07366e-21)
(1.09071 0.482879 9.50725e-21)
(0.991098 -0.000672935 -6.92037e-21)
(1.08326 -0.00905843 -8.11431e-21)
(0.206799 -0.0103763 -1.67106e-20)
(1.14188 0.263756 1.96835e-20)
(0.999875 0.00123227 -6.12462e-21)
(-0.313707 0.00129737 8.88243e-20)
(0.995809 0.000713048 -7.68717e-21)
(0.0882122 -0.00499146 0)
(0.8744 0.413845 4.49954e-21)
(1.11963 -0.059173 4.42179e-23)
(0.781937 0.293996 2.70093e-20)
(1.1011 0.00535099 -1.30124e-20)
(1.16585 -0.00592479 3.51946e-20)
(0.612245 -0.0930949 5.50363e-20)
(1.03376 0.00155153 1.82527e-21)
(1.10383 -0.0591746 1.54671e-21)
(1.14504 0.0593185 1.16837e-21)
(1.22075 -0.0352255 5.28128e-20)
(1.10065 0.131532 -2.81046e-21)
(0.822228 -0.0688864 0)
(0.49689 -0.0454803 -1.07966e-20)
(0.990345 0.000271203 1.59957e-20)
(1.00044 0.016692 -1.19816e-21)
(1.01381 0.0234892 1.1924e-23)
(1.0026 0.0324452 -7.83158e-22)
(1.13526 -0.00547078 0)
(0.998146 0.00734069 0)
(1.03403 0.00207079 -9.06374e-22)
(-0.207293 0.0114915 0)
(0.442244 -0.146336 0)
(0.71341 0.016474 3.24568e-20)
(-0.319346 0.000904825 -2.44018e-20)
(1.04508 0.0930969 3.39912e-21)