/*--------------------------------*- C++ -*----------------------------------*\
| =========                 |                                                 |
| \\      /  F ield         | OpenFOAM: The Open Source CFD Toolbox           |
|  \\    /   O peration     | Version:  v2012                                 |
|   \\  /    A nd           | Website:  www.openfoam.com                      |
|    \\/     M anipulation  |                                                 |
\*---------------------------------------------------------------------------*/
FoamFile
{
    version     2.0;
    format      ascii;
    class       volVectorField;
    location    "300";
    object      U_0;
}
// * * * * * * * * * * * * * * * * * * * * * * * * * * * * * * * * * * * * * //

dimensions      [0 1 -1 0 0 0 0];


internalField   nonuniform List<vector> 
54593
(
(0.989434 0.0122233 -2.55977e-22)
(1.14908 0.0247679 0)
(1.01256 0.0131521 3.52102e-22)
(0.258934 -0.0182915 0)
(-0.268362 -0.00478899 0)
(-0.0827997 0.00924493 0)
(0.0203409 -0.00458688 -7.61332e-21)
(1.17432 0.0149733 1.61911e-20)
(1.14031 0.0196949 -8.63068e-21)
(1.01853 0.0280352 -7.82732e-22)
(0.983034 0.0987571 0)
(0.0792661 0.00239319 -5.97277e-21)
(0.272084 0.651825 0)
(1.03524 0.0183721 4.08001e-21)
(0.871354 0.32671 5.75903e-21)
(0.89041 -0.00160019 2.69314e-20)
(1.17343 0.0131328 -2.82118e-20)
(0.8529 0.228133 -4.3726e-22)
(1.01809 0.0277709 -2.12706e-22)
(0.865494 0.0489714 2.84035e-20)
(1.01272 0.013527 -3.21147e-22)
(1.0598 0.0920371 -1.11176e-20)
(1.02003 0.02728 5.41945e-22)
(-0.238095 0.00253747 0)
(1.01733 0.00236994 0)
(1.11263 -0.0593708 -3.10374e-21)
(0.989481 0.0118602 2.93771e-21)
(1.09393 -0.0264939 -4.59704e-21)
(0.105973 0.00648268 6.08188e-20)
(1.01996 0.0277392 1.08116e-21)
(1.11206 -0.0592649 3.00378e-21)
(1.00617 0.443395 0)
(1.0073 0.0138873 -5.42392e-22)
(-0.229366 0.00256333 -3.29489e-20)
(0.773338 0.0916083 0)
(0.999131 -0.000328816 -2.99087e-22)
(1.10936 0.170595 -1.38585e-20)
(1.14938 0.0264756 1.87711e-20)
(1.05781 0.0177258 -6.72579e-21)
(1.0613 0.0917279 6.07371e-23)
(0.218788 0.182951 0)
(1.32664 0.18369 -3.84799e-22)
(1.01481 0.010949 -6.33526e-22)
(0.988277 0.0117 6.5122e-21)
(0.43406 -0.205251 -5.8393e-20)
(0.952504 0.0379594 -1.5362e-20)
(1.09337 -0.0507644 6.9157e-21)
(0.918365 0.290127 5.70408e-21)
(1.02924 0.00189799 -4.20018e-21)
(1.1454 0.0843635 2.64939e-21)
(1.00724 0.013542 0)
(1.03007 0.00154233 0)
(1.06394 0.0596408 0)
(0.437104 -0.21909 2.40433e-20)
(1.15361 -0.036445 -1.33837e-20)
(1.009 0.000359649 -7.40339e-22)
(0.612192 0.344461 7.46039e-20)
(1.322 0.174686 3.08702e-20)
(1.15106 -0.0334728 -1.43336e-20)
(0.668281 -0.021973 -1.03816e-20)
(1.01453 0.0108963 6.71254e-22)
(0.94478 0.0185032 -4.57151e-21)
(1.03565 0.018221 0)
(0.22788 -0.0131691 0)
(0.997169 0.0143083 5.32598e-21)
(0.893225 -0.00220138 0)
(0.429675 -0.0703422 0)
(0.958601 0.445078 -7.26e-21)
(-0.276557 -0.000236937 0)
(-0.276218 -0.00042461 0)
(1.02968 0.0015738 9.9474e-24)
(0.777008 0.0961058 0)
(0.997343 0.0145723 -4.94357e-23)
(0.946559 -0.0755425 -2.26817e-20)
(1.06062 -0.00489382 -9.13893e-22)
(1.09204 0.0124722 -1.28926e-21)
(1.09564 -0.0116455 0)
(0.681023 0.636293 -9.42143e-21)
(-0.116913 0.0156691 -3.3461e-20)
(0.478267 -0.635168 0)
(1.00957 0.000905159 -4.94696e-22)
(0.273721 -0.025877 5.86466e-21)
(0.988415 0.0112953 -8.05255e-21)
(0.660368 -0.0768568 -2.87767e-20)
(1.00907 0.0778524 -9.86649e-22)
(0.905679 -0.0775321 9.60056e-21)
(-0.171387 -0.00483154 -2.91551e-21)
(1.12893 -0.0339233 5.57353e-21)
(0.658019 -0.244488 0)
(0.981103 -0.000517196 1.10478e-20)
(-0.175742 -0.000146393 -6.11217e-20)
(1.06976 0.105303 -4.29527e-21)
(1.19058 -0.0104114 -1.0724e-20)
(1.22286 0.221681 1.68301e-20)
(1.10996 0.0862767 -3.50538e-20)
(0.092657 -0.0204747 0)
(0.887606 -0.0725297 -9.79865e-21)
(1.19996 -0.0298556 0)
(0.974142 0.00419299 -4.37573e-21)
(1.14721 0.0827851 2.42935e-20)
(1.01931 0.0508859 1.76473e-22)
(-0.171819 -0.0118399 0)
(0.951854 -0.00713137 0)
(0.998843 0.0132382 0)
(1.00916 0.431233 0)
(1.02348 0.204893 0)
(1.08109 0.189869 1.51907e-20)
(1.12835 -0.0332397 -2.95429e-20)
(1.09096 0.0119211 1.11496e-20)
(0.636721 0.0198392 0)
(0.489402 0.226613 3.47719e-20)
(1.00012 0.013675 1.53658e-21)
(0.980536 -0.000574238 0)
(1.11117 -0.0599881 3.74452e-21)
(0.998518 0.0233973 1.74405e-23)
(-0.176975 -0.0753973 -5.51154e-20)
(-0.271228 -0.000288045 -1.68915e-20)
(0.216874 -0.0112565 1.92604e-21)
(-0.214379 0.00265828 5.86394e-20)
(1.18857 -0.0100305 0)
(0.227832 -0.0127203 0)
(0.999787 0.000205754 -4.11474e-21)
(-0.294507 -0.00203448 4.39325e-20)
(1.08186 -0.0285051 1.0363e-20)
(1.01271 0.0186882 -1.3284e-22)
(0.346912 0.192146 0)
(0.951636 0.0195465 -8.05523e-21)
(1.01235 0.0184883 -7.21616e-24)
(0.130098 -0.00535382 -9.97715e-21)
(0.499068 -0.0737158 -1.28767e-21)
(1.0149 0.000311484 -7.38636e-22)
(1.00524 0.0473106 1.66631e-21)
(1.09372 0.0101709 0)
(0.99902 -0.000365766 2.7155e-21)
(1.07214 0.1051 1.82782e-20)
(0.184572 -0.882745 -1.60479e-21)
(1.03571 0.00212937 0)
(0.856035 -0.0663894 0)
(0.999204 0.0132633 0)
(0.993671 -0.000647623 2.85747e-22)
(-0.320724 -0.00424284 -4.23188e-20)
(0.718399 0.211738 0)
(1.09281 0.0107613 0)
(1.32588 0.267231 -1.56931e-20)
(1.09106 0.113767 8.30821e-21)
(0.968221 0.44366 5.8178e-21)
(-0.0555663 -0.0116631 -4.38091e-21)
(1.10584 0.170702 1.67727e-20)
(0.896152 -0.0842225 0)
(1.05375 0.0081374 -8.82904e-23)
(0.652646 -0.0561903 3.3805e-22)
(0.983072 0.0404676 3.33511e-21)
(1.12014 -0.054016 2.1164e-20)
(1.22337 0.217874 -3.4001e-20)
(1.00319 0.0324362 -7.98297e-22)
(0.76188 0.0949375 0)
(0.984044 0.0974404 4.03009e-21)
(0.790315 0.0968437 1.96799e-20)
(0.838682 0.324755 2.32182e-20)
(0.974657 0.0070948 -1.33239e-20)
(1.26766 0.243989 1.3744e-20)
(0.918386 0.0101755 3.03632e-20)
(-0.323513 -0.00112892 8.83951e-20)
(0.0744579 -0.0121615 -2.05357e-20)
(1.09321 -0.0261534 0)
(1.05017 0.0141329 3.95153e-21)
(1.01351 0.000725462 1.47603e-22)
(1.01312 0.00863233 5.64822e-22)
(0.0954332 -0.352101 9.58978e-20)
(1.00001 2.71403e-05 -1.09099e-22)
(1.10639 -0.0608884 -7.47982e-21)
(0.180207 -0.7963 1.25622e-20)
(0.655793 -0.256214 -2.9967e-20)
(0.999818 0.000235898 3.64689e-21)
(1.13883 0.0172176 -4.02449e-21)
(1.00789 0.0135065 0)
(0.536703 0.2091 0)
(0.94231 0.0505057 9.87812e-21)
(0.945787 0.0209127 0)
(0.239094 0.188334 0)
(-0.159939 -0.0152481 -2.22202e-20)
(1.02518 0.000267397 -3.58152e-21)
(0.0996968 0.0103428 -2.19721e-20)
(1.0177 0.0525565 -9.75166e-24)
(0.999878 0.00108198 7.35975e-22)
(0.118203 0.000831095 0)
(1.05165 0.00672577 0)
(0.978664 0.0825933 2.78266e-21)
(1.03537 0.0189713 -3.36857e-21)
(1.31318 0.162229 1.47184e-20)
(0.944672 0.0201727 5.04875e-21)
(0.827238 -0.0617194 7.7556e-21)
(-0.330505 -0.000125428 -1.61568e-21)
(0.997265 0.0150215 0)
(-0.319723 -9.32757e-05 0)
(-0.0560208 -0.0123065 -4.58866e-21)
(0.989859 0.0179547 -6.57264e-21)
(0.963013 0.0863533 0)
(1.11176 -0.0600704 -3.46907e-21)
(-0.196571 -0.00617793 -7.32063e-21)
(1.07577 0.107258 0)
(0.349146 0.180659 -6.48177e-20)
(1.13067 -0.0285165 2.26081e-20)
(0.952814 -0.00690495 9.67819e-21)
(0.982431 0.0511986 8.91426e-23)
(0.983558 0.0511616 3.67889e-21)
(0.573818 -0.895793 1.40524e-20)
(1.00948 0.0762188 7.92101e-22)
(1.05818 0.0173159 -2.30946e-21)
(1.00985 0.000937643 -5.9845e-22)
(0.993974 0.00134628 0)
(1.03482 0.0190681 -2.49191e-21)
(1.02492 0.000299627 1.69901e-21)
(1.0911 0.00642402 -8.64076e-21)
(1.10916 0.0845404 1.87789e-20)
(1.14502 -0.0563553 0)
(0.634814 0.309025 0)
(0.811594 -0.0616578 4.80242e-21)
(0.114229 -0.221059 0)
(0.990312 0.0178161 4.38038e-21)
(1.06455 0.0861401 -6.50736e-21)
(0.824549 0.455255 6.38424e-20)
(1.32216 0.187499 6.13992e-20)
(1.06273 0.0314096 -4.21091e-21)
(0.500863 -0.250264 8.96696e-22)
(1.11697 0.0621232 1.54818e-22)
(1.00002 0.00079767 0)
(0.860033 0.229034 -2.3389e-20)
(1.01132 0.0127822 -7.61318e-23)
(0.843898 0.316993 -2.86098e-20)
(0.952557 0.020083 0)
(1.09774 -0.0594009 1.07767e-20)
(-0.0732847 0.00370951 0)
(0.999865 0.00119958 0)
(0.965751 -0.00322078 -4.11998e-22)
(0.912958 -0.0730875 9.12609e-21)
(1.10685 -0.060632 1.27593e-20)
(0.999458 0.0029121 -1.21328e-22)
(0.593819 -0.364399 6.87879e-23)
(0.999439 0.00306139 0)
(1.06202 0.0317862 -4.12971e-21)
(1.09219 0.00653648 0)
(0.658822 -0.0782512 -2.98932e-20)
(1.22728 0.103408 -1.4282e-20)
(1.06286 0.0176656 4.40809e-21)
(1.06074 -0.0103971 0)
(0.234313 -0.042614 0)
(1.10268 -0.0650458 -1.27864e-20)
(1.01411 0.00829404 6.69103e-22)
(1.2702 0.248005 5.65497e-20)
(1.22694 0.100014 1.31533e-20)
(0.0554668 -0.031933 6.14699e-21)
(0.590758 -0.069732 1.06472e-20)
(1.00564 0.00906509 0)
(1.0602 -0.00428167 3.85805e-22)
(1.01382 0.000405249 -1.37923e-21)
(-0.245141 -0.00229777 -8.59546e-21)
(1.01278 0.0706296 -5.13678e-22)
(1.22765 0.012015 -1.59443e-20)
(1.05716 0.0942629 -7.12203e-21)
(1.0327 0.2509 0)
(-0.123855 -0.0195921 0)
(0.967766 -0.00568787 0)
(-0.191079 -0.00781251 0)
(1.11019 0.081134 2.25115e-20)
(1.03176 0.0142031 -8.50846e-22)
(-0.13196 0.00253554 0)
(1.01386 0.00823576 -1.89583e-21)
(0.962604 0.104612 0)
(1.05007 0.0146661 0)
(0.901886 -0.0797939 -1.85181e-20)
(0.986946 0.683915 3.44526e-20)
(1.08729 0.0754645 -6.24704e-21)
(0.98966 0.0125994 -6.94587e-21)
(1.06068 -0.00986068 0)
(1.00061 0.0292928 -1.82826e-21)
(0.942182 0.015903 -5.19029e-21)
(0.683299 -0.0778433 2.07983e-20)
(1.02367 0.0168859 0)
(1.09297 -0.0504079 -5.83574e-21)
(1.01602 0.000256391 4.35661e-22)
(1.09754 0.00283425 -1.6527e-20)
(1.08049 0.0138533 8.06693e-22)
(-0.311609 0.000787776 0)
(0.236544 -0.0421527 -6.84156e-21)
(0.256448 0.00329335 2.54063e-20)
(1.05915 0.0944467 6.5152e-21)
(1.01383 0.000351302 0)
(1.09326 0.112599 0)
(0.489827 -0.996298 3.23951e-20)
(0.0662617 -0.0334425 -2.07302e-20)
(0.262541 -0.0238972 -6.63003e-21)
(1.00544 0.00890548 4.16424e-22)
(1.0016 0.00735167 0)
(1.11087 -0.0338966 -8.29379e-21)
(1.00005 0.000906072 2.13636e-22)
(0.656226 0.313347 0)
(1.0018 0.672952 -2.60954e-20)
(0.998755 0.0230087 -1.74565e-21)
(1.10486 -0.0600807 7.72734e-21)
(1.10434 -0.0655206 7.40831e-21)
(1.05627 0.0328283 -6.86717e-21)
(0.994167 0.00120389 2.40233e-22)
(1.00002 0.000184282 2.85107e-23)
(0.997605 0.02839 4.6101e-23)
(1.002 0.0387997 -1.8997e-21)
(1.14658 0.0643238 -9.24448e-21)
(0.0803284 -0.00398329 0)
(1.05313 0.00796534 -1.15535e-20)
(0.991165 0.0181484 1.74711e-22)
(0.59682 -0.0699688 0)
(1.04466 0.209156 1.94465e-21)
(-0.324508 0.000877715 -1.81148e-22)
(0.966289 -0.00267318 2.84442e-21)
(0.223533 0.0350193 9.45662e-20)
(-0.125823 0.00356351 0)
(0.5792 -0.372501 1.45437e-22)
(1.14993 -0.0779906 0)
(1.16403 -0.053212 -3.93619e-20)
(1.03777 0.0403148 -3.75263e-23)
(1.17028 0.0457893 0)
(1.01475 0.00981866 0)
(1.1302 -0.0695129 -1.00994e-20)
(1.09265 -0.0269185 3.79142e-21)
(0.784802 -0.0676734 0)
(1.12517 0.141608 -2.4723e-22)
(0.808108 0.431994 5.11028e-21)
(1.03119 0.0140662 6.57652e-21)
(-0.146702 -0.0170133 1.93842e-20)
(1.0823 -0.0290361 -1.89391e-20)
(0.995657 0.00121664 -6.2231e-21)
(1.0437 0.118841 0)
(0.998687 0.0134966 0)
(0.91855 0.00823896 8.47355e-21)
(1.00002 0.00015024 0)
(0.0720074 -0.555484 -4.57427e-20)
(1.07915 0.00452159 -1.04212e-20)
(0.185013 -0.00440104 -6.81222e-21)
(1.12349 -0.0697593 0)
(1.08938 0.0325587 1.31122e-22)
(1.03988 0.209616 1.65056e-21)
(1.06536 0.0600674 5.47119e-21)
(0.243914 -0.0376668 -6.34427e-21)
(1.01395 0.0708092 0)
(1.00271 0.0387014 -1.64798e-21)
(1.15671 0.255732 -5.99396e-21)
(1.14515 0.0863524 1.09476e-20)
(1.10469 -0.0596318 -9.20685e-21)
(1.16731 0.272435 0)
(0.986799 0.136569 -1.66614e-20)
(-0.252388 -0.00648083 -6.18545e-21)
(1.0016 0.00716188 2.03103e-21)
(1.12752 -0.0685491 0)
(1.22152 0.0895601 5.38051e-20)
(0.982041 0.00678364 -1.35762e-21)
(1.01443 0.0111866 0)
(0.852865 0.00646931 -2.70584e-21)
(0.999712 0.00868005 -1.06458e-21)
(0.987462 0.0284615 -4.12774e-21)
(0.988844 0.0163938 4.15978e-22)
(1.14511 -0.0551105 1.71422e-20)
(1.06491 0.0878308 0)
(1.02607 0.0701662 -1.77284e-21)
(0.115637 -0.00447952 -1.61281e-20)
(0.68236 0.284146 0)
(0.968599 -0.0034947 0)
(0.999616 0.00865804 -1.12277e-21)
(1.3149 0.177934 1.61732e-20)
(1.10115 -0.00526248 -7.20536e-21)
(0.997504 0.0152512 0)
(1.06949 -0.000104729 0)
(0.997118 0.0283524 -4.90424e-21)
(1.01472 0.00959678 7.54959e-22)
(1.03773 0.0410108 3.69853e-21)
(0.912776 0.0105673 2.06405e-20)
(0.355946 -0.983928 3.81195e-21)
(1.03672 0.016321 -3.39196e-21)
(1.30554 0.144623 1.59927e-20)
(1.08719 0.0737744 0)
(-0.0116612 0.0267988 0)
(0.103705 -0.0123502 -2.03442e-20)
(0.804699 0.0563501 -1.58114e-20)
(0.662982 0.391258 0)
(1.10252 -0.0650529 1.45475e-20)
(1.12976 -0.0280821 0)
(0.765508 0.858464 0)
(-0.306663 -0.000165254 0)
(0.999036 0.0134779 0)
(0.682508 -0.0798814 2.98786e-20)
(0.528752 -0.260289 0)
(0.501406 0.0469877 0)
(1.1499 -0.034498 -1.492e-20)
(1.0784 0.00477744 -1.28875e-20)
(1.01414 0.0111195 0)
(0.212802 0.00471567 3.91599e-21)
(0.1671 -0.00346036 -1.01294e-20)
(1.30181 0.14043 -1.55048e-20)
(1.14036 0.0178204 0)
(0.585649 0.192489 -6.51216e-20)
(1.11755 -0.0259783 4.89076e-21)
(1.01351 0.081053 4.23796e-22)
(1.15616 0.156913 -1.67231e-20)
(-0.230315 0.00442142 -1.74467e-20)
(1.23304 0.174044 -1.00532e-19)
(1.13085 -0.068478 -9.58841e-21)
(0.851424 0.536713 -2.6651e-21)
(1.01863 0.000228974 3.92098e-21)
(0.651667 0.405777 0)
(1.00587 0.0146035 0)
(1.20007 -0.0318326 0)
(1.10336 -0.0652254 1.32707e-20)
(1.03701 0.0167522 0)
(0.993985 -0.000597415 -2.73045e-22)
(1.08711 0.272432 -1.28358e-20)
(1.00059 0.0143392 0)
(0.0811144 0.00291997 -4.06131e-20)
(1.11087 -0.00313193 2.97751e-20)
(0.988577 0.00566932 0)
(1.00207 0.0427198 2.04887e-21)
(1.09188 -0.0267212 6.61908e-21)
(0.707558 0.114757 -3.13735e-20)
(0.0243231 -0.00583032 0)
(1.13047 0.135107 0)
(1.15141 -0.0218999 -2.5837e-20)
(-0.069411 -0.00730399 4.26154e-21)
(-0.331893 0.000199713 6.67954e-21)
(0.376188 -0.0507252 1.15679e-20)
(1.13153 0.0779124 1.45587e-20)
(-0.237695 -0.000613785 0)
(1.03189 0.172202 9.52571e-23)
(0.175653 -0.0483549 2.81069e-20)
(0.883293 0.195381 5.35562e-21)
(0.237929 0.0288501 -1.286e-19)
(1.1452 0.0629783 4.12423e-21)
(1.1232 -0.0206679 0)
(1.08325 -0.0142088 8.99704e-21)
(0.990039 0.0125134 6.0731e-21)
(0.815574 -0.0679749 0)
(0.996509 0.350406 -2.50311e-21)
(1.0029 0.357474 0)
(0.104402 -0.00219725 1.77988e-20)
(0.99989 0.00128047 1.30362e-21)
(1.01297 0.0184095 1.06097e-22)
(0.999219 0.0081611 -3.37686e-23)
(-0.0553409 -0.00470716 -3.8561e-20)
(1.11023 -0.0335397 -7.9999e-21)
(0.998937 0.0179003 0)
(0.974086 0.00687507 1.47097e-20)
(1.11965 -0.0531658 -1.1048e-20)
(0.259071 -1.22451 -4.70655e-20)
(1.14826 -0.0774188 -2.90268e-21)
(1.12452 -0.070664 1.37812e-20)
(0.681304 0.296157 0)
(0.875439 0.254443 -1.45677e-20)
(0.25773 -0.0175333 0)
(0.103091 -0.662369 -8.56706e-21)
(0.994931 0.200004 7.31303e-22)
(0.995828 0.00129327 6.75684e-21)
(0.951099 0.0382785 1.88876e-20)
(1.18638 -0.0188294 -2.12979e-20)
(0.998735 0.0176637 -6.93799e-22)
(1.01501 0.00934752 -1.09526e-21)
(0.107497 -0.333461 -1.04554e-19)
(0.984632 0.0342987 4.80172e-21)
(1.02058 0.0151223 2.15663e-21)
(1.18046 0.114496 1.66001e-20)
(1.14667 -0.0545521 -3.91142e-20)
(0.972438 0.0139778 0)
(1.12161 0.01519 0)
(1.32245 0.156323 2.90452e-20)
(-0.315679 0.00071593 -4.74737e-23)
(-0.258549 -0.00222485 5.32686e-20)
(0.975286 0.156368 -3.91067e-21)
(1.02164 0.00763803 0)
(0.147175 -0.00362656 1.00482e-20)
(0.983938 0.0406406 -5.64059e-21)
(1.00001 3.6651e-05 -2.71251e-22)
(0.834645 -0.0614761 -6.17692e-21)
(-0.0373177 0.00493339 -7.16616e-21)
(0.972246 0.0144308 0)
(1.14185 0.0204121 1.8384e-20)
(0.988728 0.00632228 -9.52046e-22)
(0.54091 -0.2546 1.8504e-20)
(1.10979 -0.0290486 0)
(0.988712 0.00528364 2.8991e-21)
(1.32031 0.160079 -2.73926e-20)
(1.12347 -0.0690035 0)
(0.426179 0.488713 5.55059e-20)
(1.0175 0.00250301 9.98705e-22)
(0.388005 1.01838 0)
(0.267451 -0.746283 0)
(0.999867 0.00100764 -3.73684e-22)
(1.00454 0.0123646 8.60383e-22)
(1.08814 0.0332032 8.67109e-21)
(0.0541132 0.112805 6.02015e-20)
(1.04223 0.0360784 -2.46644e-21)
(0.750469 0.154661 0)
(0.953941 0.0569914 0)
(1.10321 -0.06481 -1.32077e-20)
(1.00361 0.0395395 0)
(1.26373 0.245744 3.93614e-20)
(-0.161588 -0.00477681 -3.59521e-20)
(1.10114 -0.064446 -7.2826e-21)
(0.512376 -0.246052 0)
(1.01449 0.0234941 0)
(0.962339 0.22695 0)
(0.974285 0.00545039 0)
(0.707246 0.100459 3.48711e-20)
(0.878082 0.194688 -6.08787e-21)
(1.00986 0.0136687 4.25051e-23)
(0.985571 0.0263721 1.12423e-21)
(1.16319 0.307313 2.23109e-20)
(-0.0664964 -0.00654741 -2.15342e-20)
(0.973911 0.00586843 0)
(0.862035 0.0487027 -2.52282e-20)
(0.227221 -0.0255339 0)
(0.292429 0.615761 0)
(1.00617 0.00914117 0)
(0.405595 0.153867 1.41054e-22)
(0.99449 0.0158415 -2.82768e-21)
(1.1283 -0.0358149 -1.08737e-20)
(1.04465 0.0892789 1.02637e-21)
(1.04147 0.0361354 1.81647e-21)
(0.968357 0.00281662 1.21979e-20)
(0.991281 0.0176466 5.13178e-21)
(1.11772 -0.0252863 -9.60591e-22)
(0.955267 0.044323 4.87973e-20)
(0.528475 -0.0566174 0)
(-0.196883 -0.00791384 1.13037e-19)
(1.0296 0.00186933 -2.17043e-23)
(1.05191 0.686563 0)
(1.01464 0.0800549 0)
(0.727096 0.215786 0)
(1.00139 0.0311354 -7.76509e-22)
(1.01327 0.0185951 -1.24701e-22)
(1.01089 0.0134376 0)
(-0.28238 -0.000277419 0)
(0.988887 0.00605905 1.54293e-21)
(0.85055 0.00367301 1.30651e-20)
(1.08344 0.187946 -1.40449e-20)
(1.01114 0.0255523 -5.87291e-22)
(1.06195 0.0279987 4.3768e-21)
(1.14833 -0.0804198 -1.51103e-20)
(0.0939063 0.0102384 0)
(0.964381 0.0345325 -2.5234e-21)
(0.130039 -0.00479516 -9.80676e-21)
(-0.236495 -0.00377643 0)
(1.00998 0.0134741 0)
(-0.0076826 0.00471566 0)
(1.02056 0.014808 0)
(0.880815 0.120689 0)
(1.10297 0.0146915 0)
(1.14659 -0.0533924 0)
(0.229783 0.970131 4.55289e-20)
(1.21891 0.155372 -2.90596e-20)
(1.20531 0.0468431 0)
(0.231491 0.152292 6.99312e-20)
(-0.168974 0.00452344 0)
(1.12451 -0.0698321 -1.10679e-20)
(0.315531 -0.0191371 5.50891e-21)
(0.999267 0.00789437 0)
(0.999837 0.00126025 0)
(1.08318 0.268059 -1.03313e-20)
(1.12179 0.0166941 0)
(-0.202032 -0.00536206 -1.03202e-19)
(1.04236 0.0348344 2.25187e-23)
(0.166188 -0.0482056 -1.45883e-20)
(0.97323 0.0189433 -1.21738e-20)
(1.06912 -0.00081654 -8.89651e-21)
(1.14853 -0.0338332 1.21368e-20)
(1.00623 0.00906575 2.98492e-22)
(1.04171 0.118101 4.92654e-21)
(0.465138 0.0557544 -5.03318e-20)
(0.995115 0.0895774 2.91801e-21)
(1.2109 0.438733 4.02952e-20)
(0.215483 -0.0235798 0)
(0.68755 0.605683 1.18774e-20)
(0.490801 -0.666452 -2.92958e-20)
(-0.0751812 0.00957768 2.68695e-20)
(0.0725206 -0.652225 0)
(1.00899 0.0142019 3.75167e-22)
(1.01313 0.00767385 7.76122e-22)
(1.08297 0.0683948 9.31556e-21)
(1.01417 0.0232481 6.90623e-23)
(1.02475 0.0737975 0)
(1.00341 0.0389798 0)
(1.12 -0.0523311 -2.32089e-20)
(0.974684 0.0646674 0)
(1.10372 -0.0638471 1.59741e-21)
(1.09191 0.00279316 0)
(1.08359 -0.0135382 -7.54976e-21)
(-0.288054 -0.00192541 0)
(1.13283 0.0765324 -1.65028e-20)
(1.134 -0.00573187 9.03148e-21)
(1.0186 0.0524559 3.96313e-23)
(0.0751117 -0.0357709 0)
(0.0691119 -0.026875 -7.74063e-21)
(1.01573 0.0264712 0)
(1.00007 0.000502586 -5.52876e-22)
(0.225776 0.136927 -3.05686e-20)
(0.185231 -0.00431306 6.66229e-21)
(1.06141 0.0673929 0)
(0.973814 0.00475224 9.0151e-21)
(0.0169701 -0.0161371 0)
(-0.162859 -0.0135177 2.26071e-20)
(0.449812 0.476917 -5.03142e-20)
(0.0220283 0.00461191 -1.52604e-20)
(0.930467 -0.0106301 0)
(1.0534 0.0957633 6.97781e-21)
(1.02614 0.201588 0)
(1.12853 -0.0636991 0)
(0.987137 0.0289857 0)
(1.00006 0.000471258 3.25895e-23)
(0.779282 -0.0918609 0)
(1.16608 -0.00469347 -4.19323e-20)
(1.10313 0.0156418 -8.50198e-21)
(1.02745 0.0705519 0)
(1.21248 -0.0271779 0)
(0.726844 -0.0606719 -4.28466e-21)
(0.999867 0.00117528 3.47566e-22)
(1.01322 0.00744464 0)
(-0.21369 0.00430546 0)
(1.12511 -0.0497581 -6.69737e-21)
(1.12802 -0.0347467 -1.11869e-20)
(0.830012 -0.0658106 8.27894e-21)
(0.226442 -0.73864 -8.4079e-21)
(1.12922 -0.0634294 0)
(0.10033 -0.0307987 0)
(0.0469778 -0.0174806 0)
(1.15811 -0.0139284 0)
(1.26871 0.0648063 -2.24423e-20)
(0.99465 0.015461 -7.77739e-21)
(0.998922 0.0425505 -2.76397e-21)
(1.15385 0.155346 0)
(1.01615 0.0267741 -1.00207e-22)
(1.09466 -0.0429232 2.71143e-21)
(0.996066 0.345346 0)
(1.28056 0.236298 -8.68258e-21)
(0.976041 0.0649249 -2.47412e-21)
(0.399249 -0.0688578 0)
(1.19589 -0.0201077 2.88355e-20)
(1.00971 0.028006 0)
(1.19755 -0.0194007 -3.71884e-20)
(1.01375 0.0113283 -2.72814e-22)
(1.062 0.022311 2.06904e-21)
(0.748545 0.886789 1.69069e-20)
(0.406332 0.0240745 8.69323e-20)
(0.160724 -0.0473679 -1.40779e-20)
(0.860714 0.115633 0)
(0.287772 -0.0490779 0)
(1.00876 0.0139717 -6.7037e-22)
(1.01174 0.356924 0)
(0.0751673 -0.024154 9.61462e-21)
(0.728231 -0.081009 -2.67638e-20)
(1.00318 0.00621108 0)
(1.02431 0.000778041 -1.67382e-21)
(-0.111062 -0.0205961 0)
(0.835728 0.0418817 5.46166e-20)
(1.04259 0.035502 2.5472e-21)
(1.00246 0.00156021 6.92502e-22)
(0.973513 -0.000277556 0)
(1.01537 0.0267875 -4.04707e-23)
(-0.148195 0.00140029 0)
(0.634552 0.0108425 1.02063e-21)
(1.03594 0.0174583 -2.65268e-21)
(1.04237 0.00270251 7.27751e-21)
(-0.225552 0.00182473 0)
(1.11924 -0.0516903 1.16824e-20)
(0.999649 0.0423817 2.91496e-21)
(1.01338 0.00868251 0)
(1.00082 0.0311316 0)
(1.11095 -0.00383569 -2.35685e-20)
(1.09845 0.0699131 -7.4046e-21)
(1.01714 0.0797937 7.45514e-23)
(1.20284 0.0466343 0)
(-0.321848 0.000244039 5.49264e-20)
(0.860512 -0.0852227 1.54459e-20)
(0.945755 0.0222246 -7.99829e-23)
(1.00325 0.00612142 9.75306e-24)
(0.995613 0.0154119 1.82491e-21)
(1.08042 0.0129338 1.1334e-20)
(1.0312 0.168614 -3.74114e-21)
(0.999862 0.00113131 -8.61281e-22)
(-0.0717366 -0.0224263 -8.88905e-21)
(0.000954694 0.0149026 -2.91263e-20)
(0.978409 0.0808429 0)
(0.99412 0.000685762 0)
(1.01327 0.0265045 0)
(1.09988 -0.0641506 1.51745e-20)
(0.413597 0.232983 -1.32349e-19)
(1.03368 0.00188274 -1.7207e-21)
(0.97525 -0.00341415 -8.59429e-21)
(-0.165804 -0.0150674 1.13445e-20)
(0.988854 0.0588599 7.20943e-21)
(1.00897 0.099132 2.49145e-22)
(0.430189 -0.140934 3.87171e-21)
(1.03551 0.0175715 0)
(0.485771 -0.241406 -1.01064e-19)
(-0.157582 0.00561868 6.46967e-20)
(1.03447 0.25625 -7.8871e-23)
(0.993973 0.000891793 2.73053e-24)
(1.00332 0.0772025 -2.51229e-21)
(-0.23265 0.00631831 -4.1084e-20)
(0.67548 -0.0272982 0)
(0.985829 0.0267985 6.31113e-22)
(-0.156055 -0.0132892 0)
(1.002 0.016689 -2.23194e-21)
(-0.222346 0.00739024 4.32119e-21)
(1.14511 0.0956819 0)
(1.07381 -0.012892 -3.1986e-21)
(0.991047 0.0496 2.42047e-21)
(1.03484 0.0021013 -6.45446e-21)
(0.177693 -0.00530414 -4.59694e-21)
(1.00313 0.00378238 0)
(0.869727 0.236138 -1.18179e-20)
(-0.0567254 0.00841682 6.01589e-21)
(0.941269 0.176016 -2.34298e-21)
(1.03761 0.0221648 -3.05218e-21)
(0.774075 -0.089985 -5.02303e-20)
(-0.284613 -0.0032501 0)
(1.09696 0.00366914 2.51775e-20)
(-0.323831 0.000602818 0)
(0.976519 0.158951 0)
(0.256535 -0.0496198 1.50836e-20)
(-0.157447 -0.0336848 4.57514e-20)
(-0.239267 -0.00703775 -6.38367e-20)
(1.00319 0.00368554 1.53606e-22)
(1.26413 0.269945 0)
(1.00796 0.0751765 -1.00631e-21)
(0.973598 -0.000835945 -4.75065e-21)
(1.01305 0.0122657 0)
(1.01404 0.0114147 -3.20066e-22)
(-0.237071 -0.00072203 0)
(-0.170143 -0.00759706 -1.11036e-19)
(0.373287 -0.068166 -5.56005e-21)
(0.870321 0.25039 0)
(0.321103 0.0990996 3.78163e-20)
(0.999914 0.0204104 2.42483e-21)
(0.961365 0.0874239 0)
(1.00228 0.00344516 1.4474e-21)
(0.991225 0.0213047 -3.37309e-21)
(0.798447 -0.0607756 -7.831e-21)
(0.750283 0.820266 -6.2403e-21)
(1.27181 0.0622133 0)
(1.00002 0.000664565 1.22511e-21)
(-0.0589386 -0.0244653 -7.63057e-21)
(0.702678 0.0933341 -2.26213e-21)
(0.0257723 -0.00442076 -2.67298e-20)
(1.10263 -0.0642112 1.29943e-20)
(0.861039 0.0477157 1.78431e-20)
(1.10218 -0.0641263 0)
(1.12182 -0.0619668 0)
(0.0974865 0.00460914 0)
(-0.327007 0.00168101 5.01073e-20)
(1.10203 -0.0647745 -1.69393e-20)
(-0.304173 0.000766313 2.2509e-20)
(1.00038 0.0142156 0)
(0.75382 -0.0623742 9.61682e-22)
(1.00818 -0.00408562 4.23856e-20)
(1.11458 -0.0538221 0)
(0.391379 -0.0522752 -1.23217e-20)
(0.512675 -0.0555955 1.69428e-22)
(0.516361 0.0246949 -4.3556e-20)
(1.14358 0.022841 1.78575e-20)
(0.491088 -0.0557249 2.59756e-21)
(0.841379 -0.0406899 -1.20773e-20)
(0.572558 0.194789 7.11614e-20)
(0.536168 0.933389 3.67909e-21)
(1.07424 0.00444782 -6.13532e-21)
(1.00209 0.00474152 -7.50692e-22)
(0.994112 0.000187666 -2.6909e-22)
(1.00231 0.00337287 -4.19389e-22)
(0.237563 0.00348457 7.19368e-21)
(1.16751 0.267149 -5.5297e-21)
(1.05155 0.095532 6.06502e-21)
(1.03538 0.00191154 0)
(1.01498 0.0135217 -1.40195e-21)
(0.991182 -0.00134858 2.67169e-21)
(1.32145 0.173896 -4.67396e-22)
(1.0112 0.013587 -1.51097e-22)
(0.224748 0.00595308 4.87738e-23)
(1.11053 -0.0533958 1.25023e-20)
(-0.179141 -0.00412922 0)
(1.03739 0.0216634 3.68351e-21)
(1.10165 -0.0645554 -7.44302e-21)
(-0.246419 0.00394854 -1.65873e-20)
(1.00697 0.0133131 0)
(-0.238082 -0.00682367 0)
(0.893281 -0.0794703 0)
(0.216652 -0.0116553 -1.84471e-21)
(-0.116992 -0.00623978 0)
(1.00007 0.000468459 1.01908e-21)
(0.92132 0.109641 -2.4783e-22)
(1.1428 -0.0406357 0)
(1.0058 0.0481724 0)
(1.11485 0.124479 -7.69683e-21)
(0.85175 -0.0697421 9.23036e-21)
(1.0625 0.0217399 0)
(0.877083 0.0387232 -5.93138e-20)
(-0.145495 -0.0160148 3.45405e-20)
(1.22875 0.0141022 1.85045e-20)
(0.998643 0.0289816 -2.7113e-21)
(1.01238 0.00908313 0)
(0.426037 -1.05665 -3.90876e-20)
(0.972009 0.207213 -4.81793e-21)
(1.28158 0.00877651 0)
(1.01622 0.0807495 -8.30767e-23)
(1.11843 -0.054334 -2.39742e-20)
(0.701933 0.108168 -8.31214e-20)
(1.16824 0.045021 0)
(0.00449931 -0.0050551 -2.65647e-20)
(1.24133 -0.0236636 1.10826e-20)
(1.11122 0.00234251 4.6752e-21)
(1.21593 0.15654 -9.20852e-21)
(0.994223 0.00188692 0)
(1.00006 0.000445454 -5.76676e-22)
(0.994005 0.00179868 -9.21035e-22)
(1.1617 0.25975 -1.38619e-20)
(0.493877 0.934834 0)
(0.899865 -0.0845482 0)
(1.11572 0.00413622 -1.41302e-21)
(1.12812 0.140302 9.00261e-21)
(-0.243434 0.0046447 -1.06833e-20)
(1.15481 -0.0356082 -1.57468e-20)
(1.10088 0.00447958 1.55831e-20)
(0.929334 -0.00886992 0)
(1.27004 0.0624633 0)
(1.02288 0.01762 1.85168e-21)
(0.952323 0.00222627 1.39473e-20)
(0.966964 -0.00577345 -6.24884e-21)
(-0.290093 4.98885e-05 -1.93924e-20)
(0.943491 0.0180224 -2.72342e-21)
(1.00021 0.0206168 -2.79881e-21)
(1.0477 0.020651 0)
(1.0138 0.000736366 -1.48882e-22)
(1.15672 -0.0316393 0)
(0.969087 -0.00412001 0)
(1.0025 0.00339157 0)
(1.00207 0.00461344 0)
(0.655655 -0.009703 0)
(1.01346 0.0232357 0)
(1.00815 0.000172841 3.57017e-22)
(-0.139962 -0.017889 -2.32906e-20)
(1.01491 0.0264968 1.01576e-22)
(1.07307 -0.0127308 0)
(0.214844 0.00406652 -3.48867e-21)
(0.0368334 0.182975 -7.46962e-20)
(1.01265 0.00917059 0)
(1.22861 0.346664 0)
(0.747798 -0.0831533 3.5455e-20)
(0.0679986 -0.0200644 0)
(1.01162 0.0129065 -1.25035e-22)
(-0.130469 -0.0179703 8.41128e-23)
(1.02298 0.0179396 -2.22174e-21)
(0.448647 0.224133 0)
(1.03336 0.00138752 -4.41222e-22)
(0.14135 -0.148531 0)
(1.2583 -0.0206742 0)
(1.16666 0.302589 2.86538e-20)
(0.999093 0.0288559 0)
(-0.234484 -0.00172865 -4.87767e-20)
(1.00882 0.0971886 0)
(1.01431 0.0182066 -3.68768e-22)
(1.01333 0.00791742 -1.29192e-21)
(0.886936 0.0552257 -2.07893e-22)
(-0.315021 -0.000549632 1.52004e-21)
(1.05499 0.066418 0)
(1.00267 0.00175165 -4.47058e-22)
(0.0692393 0.00848835 1.14802e-20)
(1.06055 0.0138803 7.21873e-21)
(1.09898 0.0449663 1.22321e-20)
(0.388999 0.398872 1.54444e-19)
(1.01226 0.0129995 3.72866e-22)
(0.991638 0.0211368 1.69705e-21)
(0.397482 0.383957 2.79767e-20)
(-0.311045 -0.000409265 0)
(1.02146 0.000219688 -1.87077e-21)
(0.990974 -0.00112757 1.55324e-21)
(0.197767 -0.00881014 1.38637e-20)
(-0.314881 0.00284131 -4.67315e-20)
(1.11899 -0.0552018 1.08913e-20)
(1.02072 0.000245545 -2.67586e-21)
(-0.300884 0.00312468 -3.15309e-21)
(0.00989412 0.00280901 -8.78161e-20)
(-0.319071 3.16183e-06 8.77002e-21)
(1.01335 0.0115119 2.80184e-22)
(1.18896 0.105953 -4.86461e-20)
(1.00655 0.0132254 5.42319e-22)
(1.02488 0.000516545 -1.80309e-21)
(1.07892 0.0738461 3.63844e-23)
(1.12077 -0.0403509 -1.07281e-20)
(-0.0277955 -0.0292906 2.94589e-20)
(1.02462 0.000549276 1.77105e-21)
(0.942013 0.0145801 -6.14901e-21)
(0.995646 0.000834587 5.69657e-21)
(1.0345 0.00191423 7.88351e-21)
(0.0830024 0.0075279 0)
(-0.332812 0.000456898 1.24064e-20)
(1.2835 0.0990929 -2.83765e-20)
(0.807321 0.197738 3.59591e-20)
(0.240772 0.00727549 -5.37427e-20)
(1.00824 0.00522212 -2.81053e-22)
(-0.15027 -0.0165682 -1.12937e-20)
(0.29006 -0.444738 0)
(-0.129647 0.00377008 0)
(0.994507 0.0910505 -1.51491e-21)
(-0.175345 -0.0057012 -2.11399e-20)
(1.00132 0.0428122 -1.44341e-21)
(1.02643 0.0349445 -1.4991e-21)
(0.960734 0.106306 0)
(1.00074 0.0550721 1.99501e-21)
(1.11823 0.0611156 5.16074e-21)
(1.00571 0.0129172 5.90943e-22)
(-0.331678 0.000337264 -1.44544e-21)
(0.245295 -0.0367658 0)
(0.0343634 -0.149795 7.36747e-20)
(0.661656 -0.221178 4.80491e-22)
(1.00331 0.0758004 4.43353e-21)
(1.09329 -0.0601935 -4.66099e-21)
(0.418548 -0.195923 1.00208e-19)
(1.22581 0.157568 -2.96022e-20)
(1.01651 0.00271896 4.77949e-22)
(-0.292173 0.00368962 0)
(0.00847703 -0.0158905 0)
(0.995943 0.0153472 3.07353e-21)
(1.0907 0.48288 9.50707e-21)
(0.991098 -0.000672794 -6.91981e-21)
(1.08326 -0.00905727 -8.11359e-21)
(0.206741 -0.0103771 -1.67102e-20)
(1.14188 0.263757 1.96833e-20)
(0.999875 0.00123198 -6.12416e-21)
(-0.31369 0.00129682 8.88261e-20)
(0.995809 0.000713197 -7.68651e-21)
(0.088166 -0.0049897 0)
(0.874398 0.413844 4.49967e-21)
(1.11964 -0.0591621 4.42346e-23)
(0.781935 0.293995 2.70092e-20)
(1.1011 0.00535253 -1.30114e-20)
(1.16584 -0.00592159 3.51918e-20)
(0.612246 -0.0930967 5.50354e-20)
(1.03376 0.00155182 1.82512e-21)
(1.10385 -0.0591803 1.54659e-21)
(1.14504 0.0593175 1.16831e-21)
(1.22073 -0.0352315 5.28087e-20)
(1.10065 0.131531 -2.81036e-21)
(0.822193 -0.0688801 0)
(0.496861 -0.0454904 -1.07955e-20)
(0.990345 0.000271288 1.59945e-20)
(1.00044 0.0166918 -1.19813e-21)
(1.01381 0.0234894 1.18647e-23)
(1.0026 0.032445 -7.83159e-22)
(1.13526 -0.00546706 0)
(0.998146 0.00734085 0)
(1.03403 0.00207109 -9.06299e-22)
(-0.207295 0.0114932 0)
(0.442244 -0.146338 0)
(0.71341 0.0164728 3.24563e-20)
(-0.319361 0.000905609 -2.44019e-20)