/*--------------------------------*- C++ -*----------------------------------*\
| =========                 |                                                 |
| \\      /  F ield         | OpenFOAM: The Open Source CFD Toolbox           |
|  \\    /   O peration     | Version:  v2012                                 |
|   \\  /    A nd           | Website:  www.openfoam.com                      |
|    \\/     M anipulation  |                                                 |
\*---------------------------------------------------------------------------*/
FoamFile
{
    version     2.0;
    format      ascii;
    class       volScalarField;
    location    "200";
    object      ddt0(k);
}
// * * * * * * * * * * * * * * * * * * * * * * * * * * * * * * * * * * * * * //

dimensions      [0 2 -3 0 0 0 0];


internalField   nonuniform List<scalar> 
13917
(
-0.000492593
1.08399e-07
7.75033e-06
-8.31143e-09
-3.52051e-06
7.02606e-07
3.42671e-09
-1.25161e-05
-1.77301e-08
-0.000423859
-1.51145e-05
1.80996e-08
3.07428e-09
0.000865476
2.29374e-06
-0.000434991
1.75471e-08
-5.71161e-06
-1.19387e-06
-0.000835062
-1.04234e-06
8.87661e-09
-1.31882e-07
1.38345e-08
-2.6356e-08
-1.23803e-06
0.0148454
-0.000406146
-2.74215e-06
1.32907e-07
-0.000242756
6.32431e-08
-1.03693e-08
-0.00049269
6.98791e-08
-1.96755e-05
5.38532e-08
1.18513e-08
3.84206e-10
-9.62683e-07
1.9416e-09
-5.50114e-08
-2.26272e-08
-6.61971e-07
-7.02279e-07
-8.49474e-06
-8.3045e-07
0.00153946
-0.00170216
7.54138e-08
2.2844e-08
-2.40749e-06
-0.000139004
4.52026e-09
2.43285e-08
-2.29143e-06
-6.70312e-05
-1.42697e-07
-6.4534e-08
8.66916e-06
-0.0045168
2.72102e-05
7.69088e-09
-1.78665e-08
-0.000526031
8.56882e-05
-4.1653e-06
-2.15814e-05
-1.20375e-05
-0.000330419
-0.0010422
-0.000448078
-2.38514e-08
-1.08931e-07
-1.10958e-06
-5.91761e-08
-8.57204e-07
-9.40434e-08
-4.61412e-08
-8.13321e-09
-2.26355e-08
4.32585e-09
-1.75308e-08
-0.00116127
-4.34424e-09
1.078e-05
1.38495e-08
-6.46069e-10
-1.28754e-06
2.17168e-08
6.42197e-09
-2.31861e-08
0.0050003
-5.25148e-08
6.08603e-08
-2.84797e-06
0.0130096
1.29646e-08
-1.53874e-09
1.77089e-05
1.26992e-08
9.71742e-09
1.66343e-08
1.24963e-09
-6.43685e-07
-0.0057175
-0.000184331
3.38487e-05
1.39754e-07
0.0143656
-4.91114e-09
-0.000476993
-2.61278e-06
0.00248133
-0.000528798
-8.25002e-08
-1.19653e-06
1.04367e-08
-5.66144e-07
2.29409e-09
5.48818e-09
-4.95483e-08
-2.59072e-06
-1.26294e-06
-0.000363405
-0.00134759
-1.26208e-08
-1.29369e-06
1.20275e-08
-1.22682e-06
-3.79063e-09
4.51749e-05
-0.00129385
-7.65814e-08
-8.28137e-09
0.0129657
-0.00849123
-0.000261122
-1.46115e-06
9.46044e-09
0.00163188
-4.57661e-08
-0.00592948
2.9835e-08
-2.57333e-08
8.31596e-06
-0.00109256
0.00670433
0.00213602
1.21501e-08
-1.10243e-06
4.02026e-09
-2.19388e-08
3.1482e-09
0.0157912
2.81784e-07
3.29347e-09
-0.00111305
1.3984e-08
1.3477e-08
-6.15074e-09
0.00256462
1.68869e-07
0.00150648
-0.00168817
0.000121167
-4.10748e-05
-0.00678193
6.66695e-09
-1.8242e-06
5.01421e-09
-0.00158864
-1.77578e-08
-0.00374924
4.04754e-07
1.29164e-09
-8.59671e-09
-2.84953e-06
-6.55527e-09
2.47923e-07
-2.04368e-08
2.64973e-08
2.80631e-08
-6.35505e-06
-7.10412e-07
6.07111e-05
3.23634e-08
1.48802e-06
8.77975e-08
-6.32069e-06
7.39453e-07
-7.43764e-07
-2.1627e-06
-0.000527387
-5.15748e-08
-0.000376906
-6.041e-08
-0.00145793
5.08995e-08
1.91943e-07
-6.09023e-07
-0.000343571
-0.000194897
1.98508e-07
0.00649093
-9.02999e-07
-9.99345e-07
-4.23729e-08
-2.86576e-06
-3.00619e-08
2.63204e-08
-7.07732e-06
-1.68048e-05
0.00119877
5.2532e-08
-1.42725e-06
0.00121535
2.50766e-08
1.46929e-08
5.49268e-09
-0.00843108
-2.75113e-06
-4.89541e-05
-5.74135e-10
6.71873e-09
0.00900786
-0.000283219
2.08922e-08
1.22371e-08
1.20822e-09
9.73481e-11
-9.32443e-09
-0.000419787
-0.00380948
-8.27187e-08
2.10371e-08
-6.48445e-07
-0.000485119
6.82885e-09
5.32571e-10
0.0100877
-0.00665768
-3.42832e-06
0.00100693
2.61881e-07
2.93025e-08
-0.00469357
-6.47015e-07
-2.12131e-06
-5.69633e-07
1.72659e-07
-0.00350025
-4.00621e-09
7.02724e-07
5.44278e-07
-1.00367e-07
-1.45047e-09
-1.76786e-08
8.06597e-07
-1.24297e-07
-0.000555647
-0.00651475
3.03386e-08
1.76798e-08
2.57589e-07
1.70502e-08
-2.45902e-09
6.37924e-09
8.39602e-08
1.2202e-08
-0.000198292
0.000184293
3.59721e-08
5.04154e-07
-5.6706e-05
5.08733e-09
7.66943e-06
-0.000688705
5.42535e-10
-0.000402696
-9.075e-08
0.00270427
1.28884e-09
1.07373e-06
-1.22149e-07
2.97321e-08
-1.48309e-06
1.95712e-08
0.00150565
-1.34405e-07
0.000397443
1.26291e-05
-0.00304946
-0.000159169
6.7224e-09
-1.76959e-07
-4.079e-07
-8.73437e-08
-2.61425e-06
-4.76747e-08
-6.92016e-08
2.05292e-08
-2.39274e-06
-5.61358e-05
6.25384e-07
-3.67963e-08
3.31189e-09
-0.00120415
-0.00028422
4.02549e-08
-9.9599e-06
-9.71519e-08
-0.00123863
2.26462e-06
0.000324103
-0.00315681
0.000170023
-3.77157e-06
8.12191e-07
-0.000937963
-0.0010601
6.73773e-06
3.9159e-09
1.8898e-06
0.01161
8.47092e-08
5.03645e-07
-7.87039e-07
1.13497e-08
-0.0016265
-2.81693e-09
1.00703e-07
2.09937e-08
-0.000674158
4.55058e-09
3.95855e-07
-8.22222e-07
0.000124878
1.54391e-08
-4.95523e-07
-0.00431427
5.22158e-08
9.2637e-08
-0.000557478
-0.00506276
0.00280039
0.000145865
-6.18113e-09
-6.78728e-08
-0.0071922
1.8603e-06
-1.60971e-08
-1.98399e-06
4.09272e-08
-2.84204e-06
4.50879e-07
-2.15964e-06
2.47634e-06
7.2531e-06
5.67998e-08
-0.00036761
-7.35078e-10
5.09436e-08
-9.95928e-07
-1.88306e-06
6.99409e-10
-0.000493034
7.53671e-08
1.75184e-05
2.48361e-08
2.51361e-06
-1.17595e-05
0.00222242
1.00217e-07
-3.20857e-05
4.48006e-05
-1.26905e-06
4.13167e-08
-0.000205931
-1.6171e-07
-0.00228744
-2.3639e-06
1.23762e-07
0.00357481
-2.13006e-07
0.000136429
1.0632e-08
-0.000903458
0.000279632
6.23907e-09
0.0056785
3.28675e-06
1.59684e-07
0.001012
4.4884e-06
-5.27703e-09
-1.37033e-06
-4.76161e-08
1.6411e-06
8.36322e-06
-2.53284e-09
-5.98849e-09
-3.37405e-08
3.06176e-08
-1.80304e-09
-2.76373e-08
-0.0101686
8.52463e-05
3.53611e-08
-2.50506e-08
3.59081e-08
-1.7144e-08
6.49656e-05
4.21544e-08
8.08704e-09
1.83761e-06
2.70151e-06
3.28257e-08
3.75933e-09
-0.00169899
0.0138741
0.00048647
-1.19275e-06
-0.000586723
-1.37709e-08
4.5946e-08
-6.94449e-07
-2.00304e-09
5.00445e-08
-1.00396e-07
4.1956e-08
-1.91889e-08
-0.00544112
-4.47031e-08
-1.67171e-07
-0.000260891
-1.21975e-07
2.67467e-08
-2.48255e-08
0.00172501
-5.79284e-07
-0.000287653
1.2391e-08
6.77599e-09
-3.64302e-07
-1.29814e-08
4.5138e-08
-2.74759e-07
-0.00215258
-1.54108e-06
-0.00639842
8.80539e-09
-2.64852e-08
-8.76296e-06
-6.34144e-08
-3.4441e-08
0.00253276
4.67105e-08
0.00731077
1.81304e-08
-4.44251e-10
4.3161e-08
-2.2663e-07
2.38293e-08
1.08368e-08
-0.00118904
-0.00378052
2.14601e-08
-0.00166463
1.42449e-06
1.22845e-09
-2.1747e-07
7.70107e-07
0.000304994
-1.12903e-08
-0.00511743
0.000934034
0.000719629
-2.97396e-07
8.35262e-05
-1.65796e-05
1.85754e-07
0.00389722
8.63895e-09
2.57995e-09
6.45717e-08
-1.26677e-08
-8.90823e-07
-8.40387e-07
-2.12417e-07
-1.2176e-05
2.59205e-09
-8.45368e-06
2.68865e-06
3.6369e-08
0.00186275
9.22541e-09
-1.13345e-07
-0.00210933
-3.9215e-09
3.32451e-06
-9.65164e-07
-5.09098e-10
-0.000749625
1.41264e-10
-1.94075e-08
-1.01182e-09
6.16886e-08
2.16063e-08
-1.91322e-06
-0.00100501
0.000431663
-6.15807e-09
-9.41459e-09
1.9954e-06
0.00313151
-0.00453713
2.49645e-08
2.09129e-08
-2.81474e-09
3.61451e-07
0.00221625
3.12118e-08
3.18317e-09
1.91526e-07
2.82058e-08
-2.93904e-06
1.0733e-08
8.47392e-09
-2.56267e-07
1.54923e-10
1.49597e-08
-2.84774e-08
0.000118368
-1.9003e-09
-6.61184e-09
-8.15807e-08
-2.20049e-08
-5.04894e-07
-3.2804e-06
4.53589e-07
2.24359e-05
-2.39336e-08
-4.15267e-06
-0.00157059
-0.00470517
-0.000301825
2.67259e-08
5.17618e-08
2.64888e-06
1.89279e-08
-0.000908382
1.9953e-08
-0.00158476
-4.60281e-08
-0.00164153
1.13927e-05
-2.09555e-08
0.000242754
1.94998e-08
4.40232e-07
1.83108e-08
-1.02049e-07
-0.00164434
7.68781e-08
1.14894e-05
-4.13201e-09
1.69927e-09
4.87341e-08
-5.32931e-07
-2.6651e-06
1.32949e-08
-3.86143e-07
-2.38606e-07
-0.00340428
-0.000960333
-0.00135939
-0.000266225
-1.64925e-09
-0.000322982
-2.35304e-09
-0.00636938
0.00708847
-8.78555e-07
-1.84491e-05
1.1552e-08
1.46463e-08
-2.03389e-08
6.01246e-08
1.22755e-08
9.11118e-09
-0.00063085
-1.35044e-08
8.65423e-08
-5.5652e-09
1.05484e-08
1.71631e-08
-1.13644e-05
0.00341405
0.000531861
-5.03513e-07
1.46961e-08
-0.000620714
-0.00053799
2.01035e-08
0.00394091
8.99025e-09
1.8169e-06
2.28655e-08
-0.000401818
2.57319e-08
-2.24354e-06
-2.538e-08
-0.00406951
4.98761e-08
0.000370784
1.32382e-08
7.28024e-08
6.46072e-08
5.31107e-09
-0.000301452
1.67699e-05
7.96209e-08
-1.81677e-06
2.70486e-09
-7.50746e-08
3.26864e-10
-0.000241685
-1.25717e-08
-2.98046e-08
2.56266e-08
7.84169e-08
-1.95271e-06
4.73992e-09
-1.7349e-06
9.44072e-09
1.39326e-09
-0.00606405
1.14962e-07
1.73148e-08
-7.08752e-05
-5.84501e-06
0.000248897
-6.35248e-07
1.64988e-08
2.44487e-06
-8.15852e-05
6.20441e-06
-5.21058e-07
2.55887e-08
-2.68035e-06
9.42252e-09
-5.06648e-08
0.000353336
-6.03906e-07
-8.73886e-08
-0.00320995
2.35701e-08
-0.00512641
-0.00656979
-4.7314e-05
2.45082e-07
-1.75966e-06
-0.000418299
-4.81566e-08
1.4305e-05
0.000230728
2.01545e-10
3.97285e-09
1.60095e-08
-6.21272e-06
2.02097e-08
-0.000344803
3.53324e-08
2.82433e-09
-7.25908e-07
1.14935e-08
0.00059889
-8.9235e-08
2.45725e-08
-0.000726401
-4.35002e-07
0.000724231
-3.09763e-08
-1.55833e-06
5.03024e-08
-1.09268e-08
5.42387e-09
2.55461e-09
-0.000303729
-1.47329e-07
-0.0042146
0.000189066
1.32807e-05
-0.00150096
-8.11936e-09
2.91684e-09
6.65779e-08
-0.00077194
0.00204799
-6.28084e-08
-0.000352407
0.0063378
3.99592e-09
3.86528e-08
1.1525e-07
-0.00453397
0.00131656
6.43291e-08
-1.33639e-08
-5.39812e-09
1.87381e-06
4.46688e-07
-1.93687e-06
2.51716e-08
5.7323e-08
-8.869e-09
4.85017e-09
8.72929e-09
2.95749e-07
2.20926e-07
-1.07413e-07
-1.64591e-06
-0.000318094
1.20631e-06
0.00595234
6.18724e-09
8.42913e-07
-2.12252e-08
2.75467e-06
7.54165e-09
3.89611e-07
0.00330955
-0.000235711
1.17745e-08
-1.29438e-07
1.69188e-08
1.68587e-08
-1.69228e-08
-1.44589e-06
-7.31374e-06
-9.93903e-06
-1.91712e-06
8.82924e-09
1.86589e-05
-1.6861e-08
-1.05375e-08
-1.97236e-06
-7.46011e-08
4.41431e-07
0.010352
6.40784e-09
-4.60378e-07
8.37183e-07
2.53766e-08
-1.52174e-08
2.38872e-08
-4.52941e-08
-0.00026835
-8.33632e-09
-9.22602e-08
9.39261e-08
1.15447e-08
2.89719e-08
-1.84278e-06
0.00327179
-2.86673e-06
0.0150584
-2.50081e-06
-0.00760156
-1.32615e-08
-1.01742e-06
-0.00474275
-8.6653e-07
-4.63977e-05
1.59459e-08
1.99172e-09
-3.49659e-08
-1.3113e-07
-3.53154e-06
-9.87762e-09
0.000343723
1.13637e-07
0.00594351
-7.2072e-09
-1.14241e-08
2.28026e-09
-6.01465e-07
1.52419e-06
0.00292614
-2.11909e-06
1.65302e-08
0.000188363
-1.00858e-08
-0.000496773
-2.24893e-08
-3.79353e-05
2.36083e-07
-2.43595e-09
1.22214e-08
-0.00172951
1.23007e-08
0.000205978
0.0127201
1.50197e-08
1.66407e-08
1.60891e-08
-2.87907e-06
0.00208794
2.69066e-08
-0.00411948
-9.03924e-09
-4.20946e-05
-1.17229e-06
-0.008435
-1.18768e-08
7.83552e-09
2.14717e-06
1.16759e-08
-1.23339e-08
-4.40928e-09
5.02831e-08
8.00185e-08
-8.83177e-09
1.35591e-06
5.3114e-08
-0.000447794
-0.000484876
3.88854e-05
-0.00684366
0.00878978
-0.000401924
-0.00895882
6.78413e-09
-1.43703e-08
-4.90385e-09
-6.9298e-09
-2.94779e-09
9.93129e-09
-2.16316e-08
-0.000193038
-4.36833e-09
-0.000110041
-7.16063e-09
8.63545e-09
3.2326e-06
2.27791e-08
-9.88934e-07
-1.06128e-08
-9.37721e-08
2.65933e-09
-4.53832e-07
-0.00199891
-6.88445e-07
0.000542534
4.20998e-08
-1.77922e-09
3.90215e-08
1.70184e-07
-0.00181943
8.07115e-09
9.1277e-05
2.3142e-08
0.000669796
4.31711e-07
1.26229e-08
4.31075e-07
2.47485e-05
8.73653e-09
-0.000370876
0.00430318
3.43101e-07
-5.38427e-07
-4.5589e-09
1.3921e-05
4.38231e-08
1.66073e-07
-0.000422995
7.49598e-09
-7.27227e-09
-7.12996e-07
-0.000450239
-2.34939e-06
-0.00658931
0.000686568
1.02521e-07
-3.09402e-07
5.33913e-08
-0.00033762
-6.87407e-09
-3.96837e-07
2.8616e-09
-0.000728344
1.02686e-06
-0.0129588
-3.52113e-08
-4.27735e-08
0.000452647
5.96523e-09
2.17503e-06
-0.00190198
6.07808e-08
-7.19672e-09
-0.0115149
1.31452e-07
-2.20446e-08
-6.12922e-07
4.98067e-09
-0.000718184
-3.82408e-07
7.42211e-07
-1.48161e-06
-4.66068e-09
-0.00102731
8.63214e-08
-5.08411e-07
-1.04131e-09
-0.000485389
0.00101076
-2.17843e-08
2.64168e-07
-1.54308e-07
2.67042e-08
1.56318e-07
3.20779e-08
5.55282e-08
7.39558e-09
1.12047e-08
6.98159e-09
5.85456e-08
-1.58465e-07
-0.00204575
0.00256604
-5.47282e-07
3.82544e-08
0.000435152
-1.2415e-08
-0.00371708
0.00264204
1.31925e-05
-2.81171e-08
7.60489e-09
2.54436e-09
-4.95359e-08
-2.28213e-08
-2.39983e-08
-7.40238e-09
2.90345e-07
-6.1071e-09
-0.000749608
-0.0118708
-1.58322e-08
-0.00176526
-3.17097e-09
-3.90379e-08
2.65248e-05
-0.000150307
3.47318e-06
5.14093e-09
0.00144636
3.32636e-08
-9.80363e-09
-3.30677e-05
-7.43939e-08
0.0142153
-6.29461e-09
5.56833e-05
1.86925e-08
-8.12477e-09
-6.11688e-07
-0.00217389
-2.00209e-08
-0.000641755
-2.30687e-05
8.63495e-09
-4.55045e-07
-4.88949e-09
2.25699e-08
4.54168e-07
3.35995e-08
-8.47789e-08
-0.000918952
-0.0016155
-0.0029709
6.86312e-07
3.48306e-08
-0.000722784
-4.26343e-08
-0.00400109
2.34173e-07
-9.15039e-09
-1.4756e-08
-0.0152408
-0.000987126
-0.00264438
5.33883e-06
-0.000344209
4.14046e-08
-2.32206e-08
4.79495e-08
4.4482e-08
6.0271e-09
-9.52528e-05
-0.000391179
-1.56881e-08
-1.17e-08
-0.000499521
-3.29345e-09
-2.88325e-08
-0.0031465
0.00123166
-1.79043e-09
-3.52859e-09
4.06221e-09
-2.62256e-08
1.78072e-08
-1.24893e-06
5.68014e-07
-7.08583e-09
-0.00394923
5.8379e-06
0.000381501
0.00277386
-2.44032e-05
-0.000581948
-2.78831e-08
-4.27509e-09
-0.000114463
-0.000485296
0.000211302
-1.74917e-05
-7.43713e-07
-1.17411e-08
-5.75091e-09
-2.51723e-06
0.0025246
2.24544e-06
1.54525e-07
-1.74503e-07
3.19408e-08
-0.000124749
-6.13801e-07
1.1387e-06
4.12219e-07
-1.77961e-05
0.00117296
-0.00091554
-0.00140369
9.39688e-09
-4.159e-05
-3.01981e-08
4.61546e-07
-3.37695e-07
0.00206198
-4.78423e-09
-1.33577e-07
-3.46443e-08
-0.000209638
1.31102e-07
0.000160402
1.08064e-07
5.87381e-07
-0.00146732
1.02804e-09
1.74345e-06
-2.14325e-08
-4.62246e-08
-3.7476e-06
0.000256785
-4.72269e-08
-7.07153e-09
-1.4481e-08
-0.00601565
-9.55234e-09
8.036e-08
-2.20971e-08
9.13688e-08
3.31067e-08
2.63056e-06
6.15295e-07
1.37105e-07
3.62261e-08
-6.02503e-06
-0.000218445
9.24822e-07
-0.00106016
-2.9087e-08
-1.02383e-08
0.00262385
-9.38841e-08
8.8245e-08
-0.00145451
-0.000617428
-3.0354e-06
6.22081e-07
2.74253e-08
-0.000242779
-2.13873e-06
-7.15465e-07
-0.00102028
3.45237e-08
-6.36955e-07
-0.00104621
-3.18943e-07
-0.000698506
-0.00123779
-4.76073e-08
2.51385e-08
6.67257e-09
3.79339e-08
2.58034e-09
8.97444e-06
5.58761e-09
5.49344e-08
9.46938e-09
3.45766e-07
0.0011265
1.99308e-08
0.00342577
0.0109882
-1.18361e-08
7.62083e-07
6.60641e-07
2.00186e-08
1.86732e-08
-0.000574239
-5.1375e-07
-0.000417972
-2.46807e-07
-0.0047656
1.2377e-06
-1.50452e-06
-3.02612e-05
7.93141e-08
-1.70248e-06
1.21527e-08
-8.37779e-06
1.87769e-08
-1.52547e-07
-1.22291e-06
5.96006e-07
-1.25133e-08
-1.7194e-07
-0.0141983
-8.87605e-09
-9.20934e-07
0.000125966
-1.98718e-08
-5.99703e-09
8.39792e-06
-0.00212512
-0.000916117
-2.43007e-08
4.34707e-09
1.0493e-06
-0.0087711
-0.000146109
8.08313e-09
-9.9559e-10
-5.70988e-08
-2.63031e-09
-2.86705e-08
1.23867e-07
-0.00316116
1.99807e-07
-2.14939e-09
0.000152229
3.86438e-06
-5.94982e-07
0.00145196
-0.00384523
-2.47203e-08
7.76088e-09
-1.40918e-09
6.66412e-08
6.31212e-07
-0.00277803
0.000320798
3.35992e-06
-5.49052e-07
-1.14933e-07
-1.94032e-08
2.68183e-05
-1.20622e-07
-4.89344e-07
-2.77203e-08
1.7925e-05
4.2586e-05
-1.65945e-08
-1.85461e-08
-0.000798583
3.4743e-08
5.31685e-05
-0.00240105
-1.27926e-06
4.96233e-08
-5.25207e-05
4.31665e-08
-1.69336e-09
0.00360191
-0.00496985
-3.74313e-08
-2.24375e-06
-1.29547e-06
-8.27961e-07
-9.49931e-09
2.59442e-09
-8.05448e-09
3.00202e-08
1.39317e-08
1.99523e-08
1.90636e-06
-0.000408275
-8.35401e-07
-3.49841e-09
-1.15381e-08
1.26852e-06
2.63665e-08
-9.14689e-07
-3.21484e-05
3.61357e-06
-0.000181187
1.67348e-07
1.3444e-08
-0.000499645
-5.11198e-10
7.58428e-06
-8.92493e-09
-4.47046e-07
3.71479e-08
-5.66518e-10
0.000197894
-1.78169e-08
1.52893e-07
-3.84527e-09
-0.00687812
-6.63734e-06
-0.000552148
9.42441e-08
1.26484e-08
0.00105971
1.34461e-08
1.87304e-08
4.76189e-06
-0.0023854
-1.88937e-07
7.89168e-09
-9.45731e-09
-0.00485325
5.38345e-09
-7.90757e-07
-1.19015e-08
1.49783e-08
3.76842e-06
4.04545e-09
2.75825e-08
-6.50122e-05
1.03317e-07
-0.01268
4.43795e-06
-3.28183e-09
1.80676e-09
2.20436e-08
4.21882e-08
-3.55358e-07
8.01408e-09
4.5169e-08
6.3458e-06
1.0814e-08
-3.8591e-07
-6.2266e-06
-1.31936e-05
-2.61459e-08
-1.57006e-06
-1.08962e-08
-0.000373663
-6.27565e-08
-0.00201364
-1.37233e-07
1.24434e-08
-1.17434e-07
4.67129e-10
1.55906e-09
6.52275e-09
-1.05543e-07
-1.70089e-08
-1.6846e-08
-0.00187777
7.28932e-07
-2.23241e-05
3.92611e-09
6.46719e-08
1.44706e-07
-9.27764e-06
2.99587e-08
0.00150243
1.66433e-08
1.14572e-08
6.10393e-09
3.14835e-08
9.49165e-08
-8.00689e-06
0.00268467
9.37788e-05
0.000573105
-1.52342e-05
4.44099e-07
3.18385e-07
0.00339247
6.70365e-09
-6.29182e-08
-8.94698e-08
0.000107985
2.50426e-08
-0.000667743
-4.90659e-08
1.23912e-09
4.70345e-06
3.06248e-05
-0.00024983
0.000468649
-2.34271e-08
-4.327e-06
-3.20881e-05
4.34565e-08
0.00313283
-5.97681e-09
4.3633e-09
-0.00797407
2.06318e-08
-0.000642155
0.000162565
1.9638e-08
7.22416e-09
3.07773e-08
-0.00162029
7.46511e-09
5.19776e-09
-1.13872e-07
-2.43399e-09
2.91051e-08
-8.75242e-07
5.48012e-08
-3.48917e-08
-3.51945e-08
3.66207e-07
2.45408e-09
0.00287307
0.000390119
4.6333e-09
5.67274e-09
5.33339e-10
6.61577e-09
-7.71274e-09
1.25526e-07
-4.28091e-08
-3.67018e-08
-4.87229e-10
5.79886e-08
3.42915e-08
-2.58599e-06
3.52526e-08
-6.47395e-07
2.66143e-08
-1.91692e-06
-2.68213e-08
4.498e-08
2.5336e-08
-3.47351e-08
-1.12373e-06
5.60373e-07
-1.50886e-08
-0.0120586
0.000129834
-0.00113706
0.0012711
-4.60005e-07
-0.00722726
3.75092e-09
3.14846e-08
0.0087815
-0.00436629
6.07975e-08
-0.000564468
7.6495e-09
2.09683e-06
0.00536547
-3.54048e-09
-7.26122e-07
0.00701602
0.00208232
8.39733e-09
-3.23845e-08
-1.68731e-08
-0.00028172
-1.4892e-09
-0.00139259
-0.00122322
4.12725e-08
0.000278037
3.47934e-05
1.82118e-08
0.00245583
-0.00237148
-1.7233e-08
8.90463e-11
-0.00104026
-0.000711387
4.84604e-08
-1.14848e-08
-4.40765e-08
0.00323246
-1.8079e-06
-4.26267e-09
-2.62852e-08
-0.00208168
2.8134e-08
-1.16603e-08
-1.23652e-08
-5.41759e-09
0.000843907
1.2507e-06
1.46129e-08
-0.000812893
1.28727e-08
-3.09086e-06
-1.58015e-08
-0.000222149
5.07825e-07
-0.000212175
-2.36336e-08
4.51224e-09
2.02366e-09
5.60823e-09
-2.28288e-08
1.10094e-09
0.00368293
2.31835e-08
3.86013e-09
-1.07727e-08
-0.00206892
-3.49345e-10
6.80348e-05
-0.00171194
-0.00259904
4.56069e-08
-6.0638e-09
4.58351e-09
-0.00983261
1.04185e-08
-0.00700566
1.20066e-08
0.0111814
3.01563e-08
-9.97703e-08
0.000155354
-2.84389e-08
1.92002e-08
-0.000661535
-1.30671e-06
-0.000529031
-1.55186e-07
-0.00167303
0.0114377
-4.87845e-08
-0.000693321
-4.82882e-08
4.91734e-07
-0.00386295
2.95242e-07
-1.29274e-06
-0.000426201
2.34696e-08
-4.3707e-07
-2.03522e-08
-0.00372601
-1.12668e-08
0.000926337
6.06063e-09
-0.000403316
-1.35446e-08
-5.73251e-09
4.10933e-07
4.10732e-05
1.11595e-08
8.26115e-05
3.99181e-06
0.00845176
-3.19194e-09
-4.37031e-07
-0.00165881
6.34031e-05
-0.000516854
-3.95942e-07
-2.79689e-08
-1.67051e-06
0.0075569
3.91259e-07
0.000417958
-4.9071e-08
-1.47177e-06
-0.000389987
1.68728e-08
-0.000179252
5.68922e-09
-0.00186455
0.000521289
-5.50833e-08
-5.32172e-07
0.00108041
0.00191453
-5.77529e-09
-8.88861e-09
-6.051e-09
-4.11867e-08
-0.00143347
6.36839e-07
9.32144e-05
2.18764e-08
-7.7545e-08
-0.000787434
5.48387e-07
-0.00564354
-0.00202758
-3.91137e-09
-3.0852e-09
2.60319e-06
-0.00340928
-0.0100091
0.00535092
5.58195e-06
-1.35076e-06
-1.02024e-06
-0.00174713
-0.000539925
0.000182485
-2.07017e-10
-6.84944e-07
1.23302e-07
1.07909e-06
2.35508e-08
-1.45353e-08
8.98602e-07
1.58541e-05
0.0011233
1.69034e-07
-7.95387e-05
-0.000842034
-1.74763e-06
-9.26995e-09
-1.00162e-08
0.00041305
-1.41476e-08
-0.00114688
-1.04332e-07
2.60823e-06
-1.47393e-06
9.92021e-05
3.16043e-09
1.03687e-07
3.70446e-09
3.18498e-08
-0.00217916
4.02798e-06
-0.001938
-2.71798e-08
-0.000682656
5.60421e-06
2.38582e-06
-5.76928e-08
-2.0322e-07
-1.46833e-07
-9.48526e-06
4.57422e-07
-1.82618e-07
-0.00147684
0.000753979
3.99352e-08
-1.13237e-07
-1.59473e-07
-1.72251e-06
-0.000298997
1.22787e-08
1.86933e-10
-1.2542e-08
2.74964e-05
1.29192e-05
-5.445e-08
1.56828e-06
-2.67348e-06
-4.03261e-09
4.32581e-05
1.80773e-07
-0.00179046
4.80769e-07
-0.000571937
-0.00728122
1.53592e-08
4.04435e-07
-0.000748686
-1.02782e-09
-2.24154e-06
-4.54102e-06
4.02031e-09
6.85065e-07
1.00105e-08
8.39286e-09
-0.00405658
-0.00162407
-2.28355e-08
0.0038159
0.000625135
2.28712e-08
1.72582e-06
-4.75411e-07
3.43162e-06
0.00297643
0.000109586
0.00682144
-1.48522e-06
0.000181493
-1.86901e-07
5.35856e-07
1.2759e-08
-3.10257e-08
3.80811e-08
-1.41365e-08
0.000193612
1.56182e-05
-3.04511e-08
-8.75492e-07
3.66013e-06
7.88523e-10
-0.00146689
0.000118985
1.01503e-07
2.16071e-09
9.08465e-09
1.19083e-07
-6.78821e-09
-1.0509e-08
-0.00504622
5.84702e-09
-3.08453e-07
8.69655e-07
1.19122e-06
2.23146e-05
1.32517e-06
-6.30648e-05
3.22129e-08
1.2704e-07
-5.08983e-08
-4.45475e-08
-0.00162263
1.44873e-06
-3.66522e-07
-0.00396071
5.03071e-08
-4.82608e-08
-2.99122e-07
-5.29671e-09
5.88926e-08
5.4856e-06
-2.31304e-08
-0.000391639
-0.00773321
-0.00489247
-2.75512e-09
-0.0121131
-5.33757e-10
-0.00051781
6.04037e-10
-9.578e-07
-0.0136983
2.5462e-09
4.17707e-05
-0.000504904
-7.57392e-07
1.09965e-08
1.42447e-08
-3.15229e-07
0.00274423
-1.16527e-08
-3.23845e-08
1.34257e-08
1.71002e-08
5.56066e-06
1.32977e-08
-4.53886e-08
-1.78275e-09
1.7562e-08
-0.000405709
9.19727e-08
-5.89228e-07
-1.62765e-06
-0.000252646
-0.00153188
-0.00795692
1.31651e-08
3.76921e-08
-0.000107484
2.25162e-08
-4.56883e-07
-1.0852e-08
-0.00139243
-9.81281e-08
1.42123e-07
-1.90303e-06
0.0031383
-4.86404e-09
-2.45322e-08
3.49016e-09
3.94901e-06
-0.00127702
-6.34701e-07
-3.60121e-09
3.32394e-07
-8.76236e-09
-0.000656137
6.85657e-09
-0.000504405
7.01316e-08
5.37239e-08
-1.54911e-05
1.0681e-06
0.000541118
-1.24597e-08
1.68113e-08
-1.23607e-07
-1.42011e-06
5.86287e-06
-3.42494e-08
1.94414e-08
-9.10075e-09
-0.000120724
3.19311e-09
1.04363e-08
-0.00160924
4.8775e-08
-3.62092e-07
-8.23694e-09
3.4612e-08
-6.05985e-08
0.00565116
-1.98928e-08
0.00886979
-0.00139182
-3.30105e-08
0.00878356
3.6092e-08
-1.17909e-06
1.46892e-06
9.07817e-09
-3.5957e-08
-2.95965e-08
-8.49013e-09
0.00158271
9.92252e-09
-0.000270323
0.000729203
-1.98804e-08
4.01807e-07
-1.47976e-06
-0.000189448
2.16156e-09
0.00194438
-0.00164651
-0.00125978
3.90278e-09
-1.15768e-08
-4.90403e-09
-0.00945051
-0.00168727
1.24463e-06
-5.47255e-09
8.18094e-09
-0.00640341
-3.36216e-08
-1.09749e-08
1.87969e-07
2.16991e-06
-1.60536e-05
9.53457e-09
0.00196705
1.42471e-06
-8.92361e-09
0.00398435
-1.29058e-08
0.0117803
-0.00566763
-7.23008e-07
8.65934e-07
6.38531e-09
6.68136e-08
3.42896e-08
-7.86532e-06
-2.18049e-06
-5.27166e-08
-2.09071e-09
8.01187e-06
-0.0162467
-1.20595e-08
7.6441e-07
-0.0130787
0.0161945
-6.14427e-08
1.33631e-08
-0.00252009
-0.000825749
1.92362e-05
-5.85416e-09
-0.00465244
5.2446e-07
-3.00894e-08
-0.000428456
-2.51542e-07
-5.61453e-08
-2.78217e-05
4.56464e-08
-3.58361e-05
-1.67912e-08
-2.38523e-09
6.26623e-08
1.62501e-09
-8.03876e-05
-6.39982e-08
4.03505e-09
-6.90759e-07
-1.4291e-08
5.38423e-07
-9.43009e-07
-1.93777e-08
-4.48319e-09
1.2953e-09
3.17298e-08
-0.000141613
0.000354336
-2.53453e-05
-0.00570817
3.46997e-06
0.00364461
-3.31063e-06
0.00167832
-0.0130374
0.0010209
1.15706e-08
2.31048e-08
-4.29188e-09
-4.39641e-08
-3.98227e-08
-1.21114e-07
6.12846e-06
2.45652e-07
-1.33601e-06
6.73045e-09
-5.14858e-09
3.21326e-07
-2.37809e-08
-8.50598e-09
-3.93304e-08
-0.000406936
-1.85473e-07
-0.00026707
-5.40218e-10
-0.00171866
2.93683e-08
1.30436e-07
-1.38965e-07
-9.80201e-09
1.70568e-08
-8.77369e-07
-0.0003788
-1.55198e-06
-0.00053893
0.00720869
2.23354e-08
-6.66603e-08
0.000716926
-5.58387e-07
-1.50441e-08
-1.19457e-08
-3.35356e-08
0.00063829
1.28431e-08
1.06687e-05
3.01028e-05
-5.22867e-07
9.38407e-06
-0.000203437
-1.82956e-07
-0.00236828
5.7137e-08
6.48863e-10
-0.001511
-0.00546285
2.58122e-08
-1.96871e-08
-0.00266129
-9.18602e-11
-1.09747e-05
4.80424e-09
9.27135e-09
-7.81926e-08
-1.33163e-08
-4.87249e-07
-1.18869e-05
-0.00039512
-9.7191e-09
3.31745e-09
6.43426e-06
-1.22799e-08
1.38391e-06
-1.18993e-08
5.27777e-07
6.62609e-07
7.24663e-10
-5.21647e-08
-3.01526e-08
3.95101e-06
-8.74907e-06
5.74099e-06
0.00119535
-1.79317e-07
-0.00104003
-3.69439e-08
1.74805e-06
-0.00156408
3.44968e-09
0.000977931
-4.82804e-09
-0.000295055
0.000164105
0.000683874
-0.00150874
7.98249e-09
5.19046e-07
-0.0016682
2.86977e-08
-0.000408889
-2.52337e-08
1.45626e-08
-4.03826e-09
-1.067e-08
-1.14473e-08
2.03508e-05
-0.00158592
-0.00330129
-3.23491e-08
-1.4258e-06
3.09039e-08
5.10507e-08
-2.34106e-08
-7.05978e-07
-4.4525e-07
-0.00590604
1.10204e-06
-1.96164e-08
2.98633e-09
-1.14377e-07
3.13405e-06
2.90054e-07
-1.83957e-07
-1.00493e-07
4.01628e-06
-1.11802e-08
-1.6508e-06
4.94409e-06
0.0013278
-1.98721e-07
-1.34683e-08
-2.46856e-09
-6.79104e-09
3.12198e-06
0.000281796
-2.16153e-06
-2.36934e-09
0.00350662
6.72163e-08
-1.57458e-08
-3.05725e-08
-0.000379528
-0.000196063
-8.53762e-07
-6.69037e-10
-0.000339961
1.19103e-08
-3.09216e-09
2.77534e-08
-0.0141796
0.000473264
2.09381e-08
0.00246515
-0.000477407
-3.7759e-09
4.86469e-06
6.82563e-07
-0.00166952
-2.26656e-07
-0.00174025
-5.76414e-10
-3.34294e-05
1.19732e-05
-0.00203335
2.15219e-08
1.63011e-08
-0.00105902
4.64388e-09
3.50865e-08
0.0105873
-0.00678693
0.000136948
-3.13134e-05
-1.21959e-08
-7.65658e-09
-0.000795143
9.63398e-10
-5.76987e-09
-1.64196e-08
1.85941e-07
4.49462e-09
1.05179e-06
1.35023e-09
0.00160567
-0.00108892
-9.74956e-09
-0.000416948
4.30089e-09
-0.000865341
-0.000621632
-2.30233e-08
-2.58461e-08
-4.05615e-09
0.00108185
6.19809e-06
-3.24055e-07
-0.000426444
0.000771873
0.000362587
4.08048e-07
-0.00505523
-0.000346717
-8.68088e-06
6.97941e-05
-3.47033e-08
2.10762e-08
-2.19602e-09
9.22949e-08
-2.7148e-09
-1.64236e-08
-0.000481789
2.89459e-06
-0.00218706
-0.00493843
-0.00333861
-0.00507453
-0.00160601
4.00772e-07
-0.00156198
-1.72152e-06
9.59149e-09
-1.56515e-09
4.69055e-08
-3.14284e-07
-0.00050218
2.36285e-07
0.00347288
-0.00127312
1.05563e-08
-2.44306e-08
-1.12633e-07
5.7724e-06
2.36282e-08
-5.55003e-07
0.000920015
-1.44275e-08
-4.78886e-09
9.8635e-09
-2.39705e-09
3.05044e-08
-0.000413491
-1.05991e-06
-0.00356259
-9.42399e-08
-1.14177e-08
0.000148801
4.06753e-06
9.8516e-09
7.22009e-06
-0.000433587
-0.00644355
-0.00271678
-0.000566958
2.67975e-08
-0.000822228
-0.000630122
-2.25046e-06
-0.00118887
-5.03423e-08
1.22113e-07
-4.95614e-08
-9.96616e-09
-0.00145164
-2.33202e-07
-1.74768e-08
-8.82005e-08
-0.00026892
-0.000752749
3.11066e-07
-2.38584e-06
-0.000998733
-0.00150442
-3.34085e-08
-3.20123e-07
-1.31902e-06
7.66358e-09
-8.06343e-09
-0.0162454
5.63231e-09
6.82231e-06
-0.000432716
-0.00177973
1.33185e-08
4.17109e-06
-1.30602e-06
-2.34615e-08
-3.46677e-08
0.00367074
-0.00908026
1.09477e-07
1.91387e-06
-2.73926e-06
5.35154e-06
-0.00155037
0.00157293
-1.29996e-07
0.000933426
0.0011939
1.32634e-07
-1.87606e-09
-1.54386e-05
-5.89948e-09
-6.78689e-08
-0.000407787
-1.18556e-06
-6.89236e-07
-1.17453e-09
1.6266e-06
-4.33809e-09
-2.80307e-08
-1.0719e-08
-6.96484e-09
0.00368456
-2.26077e-09
0.000437122
-0.000231506
1.04018e-06
-5.79768e-07
0.00198941
-0.00175833
0.00255626
-4.13583e-08
-1.7208e-09
1.73806e-07
-1.22277e-07
-8.27278e-06
-0.00033797
-1.15437e-08
0.000847856
-0.000748261
-2.02923e-07
-4.22351e-07
-6.32306e-07
-3.87985e-07
-2.02551e-07
-5.70775e-09
1.14626e-07
9.65704e-07
2.19258e-06
3.19549e-06
7.46104e-07
-8.05594e-07
-4.66684e-07
3.63375e-09
2.24563e-08
-5.71964e-07
1.9926e-08
9.2599e-05
-0.001595
-3.87208e-06
-0.000605976
-3.26104e-08
2.22854e-08
3.13292e-05
-0.00040182
-8.75915e-09
2.4899e-07
4.92439e-07
-0.00585633
-0.00524771
-9.56738e-09
5.06282e-07
-2.55915e-08
0.000883468
0.000158504
-1.32958e-08
0.00235436
-0.000722182
-1.01637e-06
-0.0017303
-9.30974e-07
0.00200917
-0.00148464
8.81755e-09
-0.00244965
-0.000934333
4.77913e-08
7.99299e-07
9.78648e-07
3.88158e-07
-1.22838e-08
0.0020807
0.0108358
-5.92091e-08
-4.62001e-08
-0.0054044
-0.000107533
9.66934e-07
3.58738e-08
1.64265e-05
-2.19288e-06
-0.00122392
-0.00042162
-2.54145e-08
-3.25995e-09
-8.83756e-09
2.88907e-08
-0.00174374
-0.00152037
0.00138129
-3.54767e-07
9.90237e-05
0.000586863
1.2863e-08
-8.20854e-10
-0.000775364
-3.39711e-08
-0.00160448
5.0572e-09
-0.00169813
-6.1927e-09
6.75597e-08
0.00191288
4.0561e-09
-9.1006e-07
-0.000475552
-6.86534e-10
2.89532e-07
-8.15254e-09
5.86137e-06
-0.000463444
-7.20464e-07
-0.00102791
3.17728e-08
2.6554e-08
7.08e-09
1.0871e-06
-0.00318516
-0.00362136
1.6095e-06
9.46804e-07
-7.70534e-07
-0.000851861
2.43294e-06
1.31949e-08
-1.42283e-08
-1.4565e-09
0.000231837
-2.93839e-06
-0.000659733
-1.63554e-06
-7.89053e-08
1.44787e-08
0.000583422
-0.000227082
0.000442377
-5.00567e-09
-9.13652e-09
-5.93775e-09
-0.000821234
3.89634e-06
-0.000699396
-4.30828e-05
-9.56464e-07
7.36048e-05
-3.41103e-08
-3.76156e-08
-1.01346e-06
2.62095e-05
-4.21507e-05
4.7347e-09
-5.04325e-07
-5.73392e-08
-1.04085e-07
9.48166e-06
-0.00801733
-0.00138786
-6.28024e-08
1.71367e-06
5.56399e-05
-0.00692892
-0.000400119
-0.00166099
-0.00204325
3.57026e-08
-2.53954e-08
-3.02571e-08
-2.04071e-07
-1.91476e-08
1.30138e-06
-2.23231e-07
-5.23205e-08
-4.59493e-05
0.000270259
8.97768e-09
7.31216e-06
-0.000977451
2.47999e-06
7.01009e-08
0.0115701
1.87368e-06
1.65932e-08
-2.98021e-07
-0.00157505
-2.53567e-09
-9.92373e-08
1.97247e-05
0.00124949
-0.000423328
2.62284e-08
0.000330495
-0.000272142
-0.00315178
0.00175477
4.58781e-08
-9.02718e-07
-1.03085e-06
-0.0016011
0.000203134
-1.04161e-08
9.15565e-05
1.86935e-05
7.24608e-05
-2.93289e-07
-0.00384224
5.48974e-05
-0.000661635
-1.33212e-08
0.000310719
-7.23684e-08
-0.00035349
-1.38078e-06
-0.000577015
-0.000246244
-2.42648e-10
1.17927e-08
-0.000668875
-0.00223007
-2.43529e-05
-9.05097e-09
-1.94227e-06
2.99791e-06
-0.0010024
-5.39746e-06
-0.00087857