/*--------------------------------*- C++ -*----------------------------------*\
| =========                 |                                                 |
| \\      /  F ield         | OpenFOAM: The Open Source CFD Toolbox           |
|  \\    /   O peration     | Version:  v2012                                 |
|   \\  /    A nd           | Website:  www.openfoam.com                      |
|    \\/     M anipulation  |                                                 |
\*---------------------------------------------------------------------------*/
FoamFile
{
    version     2.0;
    format      ascii;
    class       volVectorField;
    location    "200";
    object      ddt0(U);
}
// * * * * * * * * * * * * * * * * * * * * * * * * * * * * * * * * * * * * * //

dimensions      [0 1 -2 0 0 0 0];


internalField   nonuniform List<vector> 
13917
(
(0.00243082 -0.00506111 0)
(-0.00708737 0.0153173 -4.37104e-21)
(-0.00182477 -0.0118289 8.76025e-22)
(-7.73369e-05 1.07957e-05 -3.97148e-21)
(0.00500349 0.0071925 2.02885e-22)
(-0.00895751 0.0133062 0)
(-0.000379856 0.000414622 -4.17154e-21)
(0.0250197 0.0382857 0)
(-2.24262e-05 0.000368139 3.8575e-21)
(-0.00845966 0.0233486 -9.02207e-23)
(0.0209515 0.0353286 -8.31408e-22)
(2.39438e-06 -8.29075e-05 0)
(-2.13016e-06 -1.29087e-06 0)
(0.104994 0.0454059 -1.11011e-21)
(-0.0053142 -0.000816851 0)
(0.00213713 -0.00334984 0)
(-4.83873e-06 -1.04425e-06 -4.13723e-21)
(0.0210867 0.025145 -1.87428e-21)
(0.00426488 -0.00545862 0)
(-0.023321 -0.0149943 0)
(0.00514612 -0.00263231 0)
(0.000197928 -3.04124e-05 0)
(0.00057657 0.0012377 2.47056e-23)
(0.000194206 2.15521e-05 0)
(-5.39928e-05 -0.000319382 0)
(0.0075546 -0.00131864 0)
(-0.143658 -0.0748349 0)
(-0.00416791 0.0155817 0)
(0.0155027 0.0071791 1.04975e-20)
(2.72547e-05 3.11979e-05 0)
(-0.0103545 0.0151607 -1.16113e-20)
(-0.000229821 -0.000659165 0)
(-2.5918e-05 -0.000144276 -5.08464e-21)
(0.00800939 -0.00616433 0)
(-0.000311972 0.000229886 1.96755e-21)
(0.0254873 0.0464478 0)
(0.000646269 0.000595845 -3.25538e-21)
(-1.68064e-05 8.96842e-07 -6.41778e-21)
(-0.000356075 0.000449646 0)
(-0.00201586 -0.00612431 1.23511e-20)
(-1.1141e-05 1.06848e-06 0)
(-0.0007969 -0.000726524 -6.83488e-23)
(-2.8591e-05 0.000280256 -7.21962e-21)
(0.000275224 -0.00489224 0)
(0.000827329 -0.00472885 1.74513e-21)
(0.0238465 0.0444933 0)
(0.00431357 -0.002222 0)
(-0.0746041 -0.188206 -7.37808e-21)
(0.0452103 0.145682 0)
(-0.000265904 0.00030989 -2.3946e-21)
(1.52666e-06 -7.79366e-05 2.75421e-21)
(0.0116984 0.0159864 -1.54251e-22)
(0.0167203 -0.000250483 0)
(-4.83873e-05 0.000124851 0)
(-2.52252e-05 0.000130599 4.30287e-21)
(0.012587 0.0139672 4.37764e-22)
(-0.00299642 0.00677387 9.77018e-21)
(0.000535831 0.00132521 -1.29495e-23)
(-0.000523316 -0.000752471 5.75855e-21)
(0.0202222 0.0490027 3.20803e-21)
(0.0972127 0.00869786 9.60057e-21)
(-0.0124731 0.00113814 0)
(-2.52374e-05 -1.89926e-06 0)
(-5.25078e-05 -0.000287692 0)
(-0.00134875 -0.0212601 1.6619e-21)
(0.0136505 0.00845385 2.23938e-22)
(0.0175489 0.0117055 0)
(0.0203068 0.0507426 0)
(0.0244916 0.0279822 1.08837e-21)
(0.013385 -0.0015665 9.73234e-21)
(-4.19095e-05 -0.0182462 -6.54395e-21)
(0.00860916 -0.00556743 0)
(-1.97345e-05 0.000104053 -2.11082e-21)
(-0.000409626 -0.000524263 -8.5822e-21)
(0.00516954 -0.00353358 0)
(0.000209981 -0.000447478 0)
(0.00248953 0.00140748 -1.4536e-21)
(-0.000233598 -0.000520121 5.50359e-21)
(0.000190185 -0.00039965 0)
(-3.18836e-05 -0.000150204 -4.22567e-21)
(-0.00031659 -9.01332e-05 0)
(-1.32979e-05 -1.43611e-06 0)
(-1.50187e-05 0.000102474 0)
(0.00373456 -0.0140664 -1.31212e-21)
(-1.72912e-05 1.38794e-05 6.50287e-24)
(0.0549695 0.00364493 8.89729e-21)
(-0.000118692 -0.00051989 0)
(-1.30794e-05 3.9525e-06 4.24188e-22)
(-0.00122946 -0.00599912 -5.75172e-21)
(-3.70898e-06 -4.67035e-07 4.79978e-21)
(-5.51641e-06 6.17059e-06 -2.15586e-21)
(-1.97236e-05 0.000289466 8.68377e-21)
(0.0186852 0.167141 6.20751e-21)
(-9.53567e-05 -0.000140765 -8.56419e-22)
(-9.95089e-05 0.000282245 0)
(0.018135 0.00807755 -1.07019e-20)
(-0.0842249 -0.127543 -5.64251e-20)
(-9.40608e-06 -2.57252e-06 0)
(-1.42518e-05 5.09928e-06 -2.05035e-21)
(-0.0154006 -0.0553561 0)
(-1.46235e-05 4.75628e-07 -1.77056e-21)
(-1.46062e-05 1.56118e-06 0)
(-0.00035109 -3.96715e-05 -2.3654e-21)
(-1.27967e-05 -2.41967e-06 2.94458e-21)
(0.00211286 0.0016992 6.87454e-23)
(0.0165173 7.94155e-05 0)
(-0.00132796 -0.0554576 0)
(-0.0135362 -0.0027213 0)
(-0.00101619 -0.00104507 3.11266e-21)
(-0.153473 -0.0666223 -4.60541e-21)
(1.07233e-05 7.76519e-06 7.58182e-22)
(0.00691596 -0.00737237 1.07506e-20)
(0.0156271 0.00414505 2.23166e-22)
(-0.0465081 -0.190491 2.55001e-20)
(-0.00156401 -0.0199899 -7.83211e-22)
(0.000422827 -0.000499078 8.27174e-22)
(0.00394767 -0.00475415 -2.74413e-21)
(-4.97185e-06 -3.65107e-06 -1.70158e-21)
(-0.000709904 -0.0104938 1.43286e-21)
(4.02709e-06 8.44629e-05 5.87629e-21)
(-1.42145e-05 -1.31211e-06 9.65583e-22)
(-0.000220955 -0.000170375 -2.57367e-21)
(0.0204039 0.0132125 -1.31217e-20)
(0.00780954 0.00112331 -1.45834e-21)
(0.0171465 -0.000402544 8.91599e-22)
(0.00344975 -0.0135208 2.03656e-21)
(-6.60335e-05 -0.000233283 5.81359e-21)
(0.00598927 -0.00419006 1.6743e-20)
(4.74683e-05 -0.00011048 1.70601e-21)
(0.00771681 0.000502191 0)
(-3.47116e-05 0.000611542 -2.75166e-24)
(-0.04543 0.0397611 0)
(0.0143956 -0.000129254 0)
(0.000481987 -0.000440893 4.52908e-21)
(-0.000437804 -0.00164398 3.45209e-21)
(-0.164468 -0.0906358 1.03758e-20)
(0.100895 0.0355216 0)
(0.0148434 0.00104004 -4.32065e-23)
(0.00948088 -0.000352036 2.24358e-21)
(-9.47834e-06 -5.3793e-07 3.02194e-21)
(0.0717869 0.0676608 4.07943e-21)
(-0.000197009 -0.000367786 -2.67327e-21)
(0.015598 0.00114274 1.48667e-21)
(1.89513e-05 -3.14453e-05 -7.85264e-24)
(-2.00462e-05 8.31367e-05 0)
(-0.000544279 -0.00487591 -4.89754e-21)
(-6.79498e-05 -0.0174432 2.41765e-21)
(-0.0100032 -0.227667 -2.95176e-21)
(-0.0871627 -0.146592 0)
(-4.38094e-05 0.000133926 -9.56339e-22)
(-0.00041078 -0.00492901 0)
(-2.1186e-05 3.85862e-06 2.36453e-23)
(-1.76372e-05 8.49662e-05 0)
(6.6136e-06 7.83624e-05 5.11988e-24)
(-0.115637 -0.138198 -2.25482e-21)
(-0.000195752 0.000850506 8.32961e-24)
(-1.16112e-05 -1.9735e-06 -4.1281e-21)
(0.0142641 0.00205504 -9.84691e-21)
(-6.74957e-06 4.2875e-07 8.99638e-23)
(-5.55757e-06 -2.90122e-06 0)
(-1.98955e-05 -2.35731e-05 0)
(0.0271669 -0.0461508 -6.17127e-21)
(0.000538148 0.00232831 2.06181e-21)
(0.0641993 0.0735457 -1.74819e-21)
(0.0841503 -0.0414362 1.174e-20)
(-0.0191671 -0.0778277 3.10684e-20)
(0.0109428 -0.000240535 0)
(0.0956899 -0.0390958 -1.59166e-20)
(-2.12436e-05 3.70068e-06 0)
(0.0110097 -0.000514305 2.25585e-21)
(0.000250128 0.000117455 -2.44534e-21)
(0.0108008 -0.00391719 -7.8241e-21)
(-9.22521e-06 0.000348007 -3.31343e-21)
(0.085571 0.0201543 -3.00539e-20)
(-0.00394858 0.0102042 0)
(-2.01951e-05 -6.92455e-07 1.18058e-21)
(-8.28436e-05 3.10248e-05 0)
(0.0135427 0.0210452 -2.23414e-21)
(-3.62567e-05 0.000604957 -8.17299e-21)
(0.000684276 0.00272967 -2.26474e-21)
(-5.49646e-05 0.00028768 2.66119e-21)
(0.000194702 0.000105525 0)
(5.40945e-06 -7.0082e-05 -1.67075e-21)
(0.0289496 0.00365689 6.87214e-22)
(2.77784e-05 -0.0110287 0)
(-0.0539385 0.0382726 0)
(5.38661e-06 -6.27977e-05 0)
(0.0302108 0.00713373 6.18398e-22)
(5.06068e-05 -3.39091e-06 -3.38588e-22)
(0.0512472 0.00491799 7.99896e-21)
(-0.00529807 0.0104414 -4.88497e-21)
(0.000868985 -0.00400856 -1.76053e-21)
(0.019032 0.00268811 -1.25703e-22)
(-0.00154573 -0.00710889 -1.60183e-20)
(-0.000125307 -9.2748e-05 5.53984e-21)
(0.0168493 -0.000556142 7.13885e-21)
(-0.000540443 -0.000612236 4.14064e-21)
(0.0151501 -0.000348958 8.42391e-21)
(-0.000281571 0.000153979 -8.33384e-22)
(-0.000113977 0.000677139 3.35114e-21)
(0.00309987 -0.00169208 -8.3415e-21)
(0.012112 -0.00185519 0)
(0.0154597 0.000676059 9.48655e-21)
(9.71981e-05 0.000852623 0)
(-0.125889 -0.0085172 2.16896e-20)
(0.00563667 0.00765351 1.33632e-21)
(-0.00101383 -0.0050977 0)
(-0.000292316 -0.000249261 8.76345e-23)
(0.0139667 0.0175894 -3.88527e-23)
(-0.000310715 -0.000179019 -1.94605e-21)
(1.10513e-05 -1.71896e-05 1.77503e-21)
(0.00684796 0.0148983 -2.84699e-21)
(0.00938963 0.0161514 2.67226e-22)
(-0.06978 -0.156459 4.11238e-21)
(-0.000430167 -0.00139588 -1.8079e-21)
(0.00870554 -0.00173179 -5.27819e-21)
(0.00633578 -0.0365104 -5.27686e-21)
(-5.52381e-06 9.56224e-07 0)
(1.78531e-08 6.13861e-05 -5.03238e-21)
(-4.74002e-06 6.61643e-05 0)
(0.0886364 -0.0535342 1.73936e-20)
(0.0236531 0.00388451 5.132e-22)
(0.0384222 0.0103447 2.5214e-21)
(-1.06123e-05 6.57358e-06 0)
(-2.41846e-05 -1.0061e-06 -1.67604e-22)
(-0.15698 -0.0823077 -6.89582e-21)
(0.0168261 -0.000459093 7.51444e-21)
(1.39942e-06 4.43822e-05 2.85139e-21)
(-1.76503e-07 4.33585e-05 -2.55699e-21)
(-8.9448e-06 1.51717e-06 0)
(-9.42037e-06 7.62615e-05 0)
(-1.43395e-05 7.56375e-05 -5.11852e-21)
(0.00848679 -0.00534469 -4.2401e-21)
(0.0207814 -0.122197 0)
(2.74355e-05 -0.000306238 7.15512e-23)
(-2.52432e-05 -4.74491e-06 -1.28208e-22)
(0.00344837 0.0077043 0)
(0.0118839 -0.0030351 0)
(-1.33994e-05 -1.56204e-06 2.35594e-22)
(-1.13511e-05 2.98948e-06 0)
(-0.137057 -0.0227119 -1.35321e-20)
(0.0166267 0.00487742 0)
(0.0261282 0.00345787 -3.81164e-22)
(0.00490652 -0.0350564 0)
(-0.00413093 0.0201912 0)
(1.55803e-05 -4.31264e-05 3.16177e-21)
(0.0996773 -0.0392154 1.21881e-20)
(0.0044936 0.00754367 -5.24435e-22)
(0.0135102 0.00377737 -1.34914e-20)
(0.00270478 -0.000955127 -1.07682e-21)
(8.28026e-05 0.000725979 0)
(-0.0158437 -0.134316 -4.88649e-21)
(8.9034e-07 9.69266e-05 -2.41264e-21)
(-0.00495003 -0.000431548 4.52345e-21)
(-0.00382698 0.00817011 0)
(9.98359e-05 -0.000367481 -3.92639e-21)
(-6.20244e-06 -8.5503e-08 0)
(-7.30754e-05 -0.000257677 0)
(-0.00236708 0.00630135 8.50779e-22)
(-1.93015e-05 -0.000546377 0)
(0.0158538 -0.000589946 -6.88372e-21)
(0.126261 0.0954648 9.39497e-21)
(-0.000206726 0.000219267 -2.32557e-21)
(2.49991e-06 3.33252e-05 0)
(-9.3655e-05 0.000992081 2.30645e-21)
(3.19013e-06 2.41493e-05 0)
(1.62183e-06 9.08834e-05 -4.20484e-21)
(-7.30031e-06 1.88714e-07 2.35094e-21)
(-0.00107435 0.00149305 3.12743e-21)
(-0.000291625 0.000267321 -2.31593e-21)
(0.01222 0.00200729 -8.64357e-22)
(0.00509507 -0.0571988 0)
(-2.19592e-07 -3.2376e-06 1.72891e-21)
(-0.000178566 0.00392809 0)
(0.0192416 0.0639904 -5.18673e-21)
(5.92516e-06 -7.18025e-05 -1.09009e-21)
(-0.00893654 -0.0420751 1.9336e-22)
(0.0150325 -0.000643653 -2.16905e-23)
(6.95976e-07 -7.3918e-05 1.12226e-21)
(0.0131567 -0.00205123 -9.37655e-21)
(5.28364e-05 -0.000467132 0)
(0.0292519 -0.044462 0)
(-1.88854e-05 -5.46866e-07 1.65992e-23)
(-0.00335921 -0.00143887 -7.73034e-21)
(0.000109423 -0.000404663 5.12099e-22)
(1.36419e-05 3.65959e-05 -2.1709e-21)
(0.0109486 -0.0081973 0)
(-8.5244e-06 -3.32872e-06 6.58826e-21)
(-0.0351987 -0.0920641 4.6414e-20)
(-0.000865779 -0.00139638 0)
(0.0968046 0.12581 -2.84466e-21)
(-0.00142462 -0.00575349 0)
(-0.0981181 -0.0115273 0)
(0.0130694 0.0013663 9.07206e-22)
(-1.31211e-05 -2.94127e-06 -4.59978e-21)
(0.000954486 0.00271571 3.31514e-21)
(0.000312841 0.00724216 8.39919e-22)
(0.000650143 -0.000445441 5.82618e-21)
(0.00340581 0.00699815 2.76324e-23)
(0.00012675 -0.000403762 8.84506e-21)
(-6.40751e-05 -0.000251216 -1.88314e-21)
(-5.37314e-06 -2.60355e-06 -3.24737e-21)
(0.00916843 0.0255185 8.82326e-22)
(0.023071 -0.0151693 0)
(-0.00454599 -0.000575497 -7.5838e-21)
(0.000111651 -0.000368988 -2.91683e-21)
(-1.10905e-05 -3.42774e-06 1.65895e-21)
(0.014635 0.00145265 9.62538e-21)
(0.0110869 -0.00164811 0)
(5.34534e-05 -1.28998e-05 -1.76668e-21)
(0.00491108 -0.00290383 6.1272e-23)
(0.000574194 -0.000525301 0)
(0.0309858 0.053907 0)
(-0.00492129 -0.00259019 1.1087e-20)
(9.5761e-05 -0.0425018 1.92875e-21)
(0.0812572 0.0186801 2.3405e-20)
(0.00717988 0.0126129 1.81102e-23)
(-0.0391085 0.0332002 -5.45784e-21)
(-0.000738052 0.00338943 -1.02406e-21)
(0.00263532 -0.0146344 6.86568e-21)
(0.0415097 0.0532404 -1.31916e-22)
(-0.00244139 -0.0113871 0)
(-7.58562e-06 -7.55517e-07 0)
(-0.00474659 -0.00141796 0)
(-0.137162 -0.0490456 0)
(0.000302468 0.00039638 -2.47523e-23)
(-0.00739343 0.017831 2.2724e-21)
(0.00132247 -0.00379324 -1.7143e-21)
(-8.2097e-06 1.31114e-06 -5.50357e-21)
(0.0101734 -0.0044631 3.14372e-23)
(-1.59145e-05 1.13187e-05 0)
(-6.12075e-05 0.000638184 0)
(-7.37177e-05 0.000212603 -5.44465e-21)
(-0.0383371 -0.0115745 -2.24399e-20)
(-5.50232e-06 -2.83922e-05 -4.22426e-21)
(-0.00374857 -0.000354784 1.04644e-21)
(0.00683032 0.00736947 1.70897e-21)
(0.0034022 0.0110216 4.91936e-23)
(-6.58798e-06 2.68117e-06 3.48576e-21)
(0.00204112 -0.00133117 -2.47859e-21)
(0.0121139 -0.00625148 -2.33748e-21)
(-4.9896e-05 0.000241255 -2.49559e-21)
(0.00023001 0.000487796 -2.48918e-21)
(0.00616855 -0.00810865 5.4283e-21)
(0.0139537 -0.00334361 0)
(0.049361 -0.0102745 -2.18276e-20)
(0.107384 0.0677283 0)
(-5.62739e-06 -6.44369e-05 5.31835e-22)
(-8.19655e-05 -0.000204762 1.99062e-21)
(0.0172797 0.00837032 0)
(-0.0332635 0.0351665 4.00649e-21)
(-1.1993e-05 -5.94702e-05 -4.58605e-21)
(0.00173352 0.00820885 6.7824e-22)
(1.21163e-05 3.36693e-05 -2.99424e-21)
(0.0112948 -0.0136843 0)
(-0.0040663 -0.00019766 3.66171e-21)
(0.0130966 0.00374138 3.81165e-23)
(-0.0192191 0.0154487 -3.23337e-21)
(-0.0040282 -0.0416363 -1.25274e-22)
(-6.70529e-05 0.000585794 -5.24365e-21)
(0.0031463 -0.00985051 0)
(4.53167e-05 -0.000129121 -3.72645e-21)
(-2.25508e-05 0.000229883 0)
(0.00621295 0.00829992 7.59678e-22)
(0.00683825 -0.0121986 2.27044e-21)
(-1.4121e-05 -3.18161e-07 1.8187e-21)
(-0.00148652 -0.0049079 1.91405e-20)
(-4.95378e-05 0.000590688 3.77211e-21)
(-0.0120614 0.0605736 1.85499e-21)
(-2.99383e-05 0.000143665 -5.67815e-21)
(-0.0265038 0.0273168 0)
(0.00350099 -0.00395939 5.83053e-23)
(-0.0250429 0.146207 0)
(0.000313731 -0.00118534 -3.77246e-21)
(0.0363605 0.00669873 -2.75515e-21)
(0.0235223 0.0574444 4.59848e-21)
(0.0084133 0.00826231 1.43739e-21)
(3.63718e-08 -3.42831e-07 6.0092e-21)
(0.00606297 -0.0234604 0)
(-0.00028069 0.000277305 0)
(0.0880371 -0.0345032 -1.08832e-20)
(0.0212391 0.00180779 -2.87409e-22)
(0.000656895 -0.00112793 -3.94636e-21)
(-0.00188491 0.146674 -7.56756e-21)
(0.000350534 -0.00058552 -3.47143e-21)
(-0.038128 -0.0135048 6.36698e-21)
(6.2088e-06 -6.99045e-05 2.17225e-21)
(-0.0208984 -0.0209555 0)
(-0.0371812 -0.0236674 -3.98697e-21)
(0.000504164 0.000161436 1.59179e-22)
(-0.135365 -0.0446784 3.33595e-21)
(0.000691598 -0.0330908 0)
(-1.77156e-05 0.000589835 -6.82432e-21)
(0.0603147 -0.0333435 -4.0018e-21)
(-0.0103917 0.00617712 2.72215e-21)
(0.000357214 4.22057e-05 1.19008e-21)
(0.0123016 -0.00836749 -1.1912e-21)
(-0.000110386 -9.81788e-05 -2.03828e-21)
(0.00518074 -0.0356351 1.34102e-20)
(-0.000877202 -0.011607 -6.50909e-21)
(-1.63591e-05 1.07606e-05 0)
(-0.000186736 0.00044528 4.51248e-21)
(6.65384e-05 -0.000364328 -3.43325e-21)
(1.25488e-05 6.11907e-06 -2.02676e-21)
(-7.42112e-06 2.83504e-05 -5.41154e-24)
(2.08202e-05 -0.000154498 3.54127e-21)
(0.104646 0.0367004 0)
(-0.030199 -0.068878 -3.17044e-20)
(-2.73813e-05 0.00017996 -2.96548e-21)
(6.82057e-05 -0.000177283 1.69772e-21)
(0.000127581 1.18847e-05 1.282e-21)
(-0.000419727 0.00367919 6.93283e-21)
(-0.00124346 0.0730839 0)
(3.48315e-05 4.1676e-05 0)
(-2.05795e-05 1.04726e-07 0)
(-0.00439197 -0.00277017 -7.3887e-21)
(-0.0293623 0.0233093 0)
(1.89072e-05 2.76424e-05 -2.52792e-21)
(0.000444712 0.000145993 -1.32424e-22)
(0.0685202 0.0306614 0)
(-0.128357 -0.154016 4.38436e-21)
(0.0163163 0.0114715 0)
(0.00380257 -0.00613727 0)
(0.00138302 -0.0152579 -1.45609e-21)
(-0.000158636 0.000200054 9.76082e-21)
(3.07007e-05 -3.35879e-06 -3.92014e-21)
(0.0044416 -0.000259066 -1.17406e-20)
(-8.54285e-06 2.51702e-05 -4.97707e-24)
(4.27903e-05 1.59813e-05 3.98667e-21)
(2.75082e-05 -0.000343254 4.45578e-21)
(3.36178e-05 -2.63595e-05 -7.4097e-23)
(-0.000147501 0.000165701 0)
(0.0993368 -0.0600315 -8.86104e-22)
(-0.00013174 -7.68167e-05 8.93042e-24)
(-0.00387135 -0.00568919 0)
(0.0123761 0.00220615 0)
(0.000679944 0.00281821 0)
(1.16547e-05 -2.88829e-05 -4.69922e-21)
(-1.77664e-05 7.74524e-05 0)
(0.054981 -0.0373742 0)
(0.00355766 -0.00130903 3.61165e-21)
(0.017386 -0.000318176 -8.77243e-21)
(-1.18112e-05 0.000161125 0)
(-7.6758e-06 -3.0673e-05 3.37087e-21)
(-0.000307062 0.000371421 0)
(-2.31874e-05 8.19593e-05 5.53663e-21)
(0.000516461 0.000620645 -4.39512e-21)
(0.000589559 -0.00059817 2.44188e-21)
(0.0683433 0.0398123 0)
(0.00726364 -0.00115698 0)
(0.0176042 0.00354815 -9.18203e-22)
(-4.09984e-06 -3.06543e-05 0)
(-1.20198e-05 0.000765785 3.38325e-21)
(0.00836502 -0.0044488 -4.43397e-21)
(-0.000250582 -0.000208382 0)
(-0.00198235 0.0186143 0)
(0.0529067 -0.00432499 3.96882e-21)
(9.35635e-06 2.4814e-05 3.03578e-21)
(-0.16982 -0.182916 6.3135e-22)
(9.69722e-06 -5.3557e-05 -2.34899e-22)
(-9.90776e-06 6.14163e-06 -3.83655e-21)
(9.78536e-05 4.04355e-05 1.29353e-21)
(0.000245269 -0.000633277 3.5508e-21)
(8.30913e-06 5.70381e-06 -9.15981e-22)
(-1.12965e-05 -2.32181e-06 0)
(0.0142531 0.000699849 -1.16471e-21)
(0.0898025 0.00889909 2.36907e-20)
(6.38302e-06 1.47157e-05 0)
(-0.0929957 0.00716824 1.06467e-20)
(-0.00368491 -0.00354714 0)
(-8.36348e-06 4.84672e-06 -3.64175e-21)
(0.00135414 0.00349638 3.20866e-21)
(-0.00129696 0.00103865 -1.71608e-21)
(0.0639125 -0.0468857 1.03111e-20)
(-0.000158777 0.000497699 4.84272e-21)
(0.0160025 -0.00189151 -3.33247e-21)
(-0.0432973 0.0421959 2.50512e-21)
(-0.0438953 0.0484377 -2.57933e-21)
(0.000476732 -0.00069501 4.5542e-21)
(0.00992992 0.00898879 -2.19422e-22)
(0.0104457 -0.00621321 0)
(-1.75559e-05 0.000687195 -1.54864e-24)
(0.0323641 -0.0106103 0)
(-3.20325e-06 4.6076e-06 -2.35318e-21)
(-4.00069e-05 0.000114945 0)
(-6.22005e-05 0.000277349 -6.2328e-21)
(-0.000111594 0.000420524 3.20667e-21)
(0.00295515 -0.00376786 -2.9517e-21)
(0.0013608 -0.0100001 2.89915e-21)
(0.00100384 0.000495848 5.07883e-21)
(-0.00428907 -0.00143098 0)
(-0.000308373 0.00491754 1.87639e-21)
(0.0230004 0.0195707 0)
(-0.0100541 -0.0069257 1.6716e-20)
(-3.47041e-05 0.000179995 3.13326e-21)
(0.0875835 0.0358681 -5.07028e-22)
(-0.000475959 0.00132015 3.563e-21)
(-0.000934554 -0.00122507 -4.84257e-21)
(0.0838514 -0.0219682 1.24782e-20)
(-1.60555e-05 1.45499e-05 4.51176e-21)
(-0.0116021 -0.00728161 -1.90956e-20)
(0.0167181 0.0230509 0)
(-1.66928e-05 -6.11735e-06 -4.24944e-24)
(0.0128982 0.00347084 6.21103e-22)
(-1.01589e-05 7.48369e-06 0)
(-2.73026e-05 7.40169e-05 0)
(2.58294e-05 0.00375418 -7.08483e-21)
(1.82174e-05 0.000142682 0)
(-4.14817e-06 1.94943e-06 1.64478e-21)
(0.00579461 0.0256152 0)
(0.0124064 0.00732011 0)
(-0.111699 -0.0477491 5.78336e-21)
(-1.92192e-05 -1.75213e-05 -2.2604e-21)
(-8.35615e-05 0.000144358 -5.3365e-21)
(-0.00306385 0.00187125 3.11575e-21)
(0.0401852 0.00759623 6.56006e-21)
(0.0422945 0.0854853 -2.98676e-22)
(-5.09033e-05 0.000157194 -5.6298e-21)
(-3.00916e-05 0.000127586 -3.01318e-21)
(-1.763e-05 -1.93436e-05 0)
(-0.0028206 0.00648535 -7.16028e-21)
(0.0170137 0.157464 -1.23349e-22)
(0.000100787 -5.10796e-05 -1.78054e-21)
(-1.4771e-05 -8.79155e-07 7.77108e-22)
(-0.000180512 0.000578545 -4.3561e-21)
(1.03482e-05 2.42362e-06 5.8994e-21)
(0.00609338 -0.000670156 0)
(-0.00106688 -3.87057e-05 0)
(-7.12321e-06 5.04358e-06 4.16168e-21)
(0.0011669 0.000587187 -5.26955e-21)
(-1.64556e-05 -7.94252e-06 1.99385e-21)
(0.00012708 -6.9055e-05 7.60045e-21)
(5.31253e-05 -0.000336858 -1.56216e-21)
(-0.00156489 -0.0283442 -1.1684e-20)
(-1.72727e-05 -3.31717e-06 -5.21537e-21)
(-0.00016541 0.000248409 -1.65487e-21)
(-0.000146222 -0.000490348 0)
(-4.43128e-05 0.000756655 5.97135e-21)
(0.00331285 0.00370806 1.77463e-21)
(0.020124 -0.00796411 1.06638e-20)
(-0.0033916 0.00906755 0)
(-0.0260486 -0.0587194 0)
(0.000125792 -0.000257922 0)
(0.0193351 0.0176633 5.88455e-21)
(0.0153159 -0.00134825 -4.32474e-21)
(0.0936555 -0.0734172 0)
(0.0117019 0.00282501 6.0818e-21)
(2.01257e-05 7.68883e-05 1.75971e-21)
(6.93865e-05 9.96761e-05 0)
(-0.00538734 -0.00191495 -3.48374e-21)
(-7.39193e-06 -4.36639e-05 0)
(-0.00175589 -0.0175681 -3.08918e-21)
(1.57736e-05 -7.69519e-05 0)
(0.0629728 0.0938022 0)
(-0.000557422 -0.000516544 -5.97945e-21)
(0.0107031 -0.00795875 -7.36141e-21)
(-0.014646 -0.0474599 -1.18528e-20)
(-4.76598e-05 0.000293321 -7.56734e-22)
(-0.0142437 -0.0154847 -6.65879e-21)
(5.35672e-06 2.86462e-05 5.48359e-21)
(-0.000855371 0.000557836 -6.85794e-21)
(-6.55505e-06 -2.73726e-06 4.30972e-21)
(0.00178543 -0.000542932 7.49915e-21)
(0.00998172 -0.00720047 -5.44413e-21)
(2.28178e-05 9.891e-05 9.43581e-22)
(-0.00803998 -0.00806278 -1.38533e-20)
(-2.75977e-05 1.2365e-07 5.39289e-22)
(-9.71895e-06 3.20016e-06 1.96351e-21)
(9.03845e-05 8.78972e-05 0)
(0.00110643 -0.00953672 -2.82005e-21)
(0.00677171 0.000396179 -5.83329e-22)
(3.97338e-06 1.12199e-06 -2.98608e-21)
(-0.000694717 -0.00455277 0)
(0.000927555 0.00360176 8.26073e-22)
(-0.0017386 -0.0681957 -5.87746e-21)
(0.000337283 -0.0173327 0)
(0.01493 0.00322484 -4.11482e-21)
(0.0703492 -0.0471919 -4.62378e-21)
(-1.83618e-05 -8.25483e-07 6.10139e-21)
(0.015839 -0.000939909 2.3709e-21)
(-3.30922e-05 1.43859e-06 4.93356e-22)
(0.0981261 0.0266949 0)
(-0.0068377 -0.221856 0)
(0.00250819 -0.000585221 -1.99364e-21)
(0.000552329 -0.0062377 1.31283e-21)
(-1.57759e-05 1.63563e-06 2.03437e-21)
(-0.000561502 0.00126108 0)
(-4.6184e-05 0.000274328 -2.90362e-21)
(4.05546e-05 7.30887e-05 -9.7059e-22)
(-1.09275e-05 -2.66498e-06 0)
(-6.98817e-06 -6.13903e-06 1.83128e-21)
(0.000300698 -0.0173215 4.46587e-21)
(-1.97842e-05 1.30574e-05 1.38712e-21)
(-0.000188931 -0.000219056 -5.62245e-21)
(-4.29855e-05 0.000107027 0)
(3.73148e-06 7.86026e-06 7.18967e-21)
(-6.65408e-06 1.10032e-07 4.85097e-21)
(0.0198288 0.0388355 3.53299e-22)
(0.0225461 -0.0334565 1.42743e-21)
(-0.0370767 -0.0219831 1.06137e-20)
(0.00247967 -0.000622989 3.19127e-21)
(-0.000991928 4.03705e-05 0)
(0.0215 -0.0220554 6.46955e-22)
(0.0120612 -0.00298385 9.20068e-21)
(1.13789e-05 -7.56015e-05 -2.16798e-21)
(0.0387486 -0.00851075 0)
(-2.38868e-06 -6.38357e-06 -3.7864e-21)
(-0.00296149 0.00145421 8.22092e-21)
(-3.71519e-06 -3.48637e-05 -6.45517e-21)
(0.00476596 -0.0218689 -1.94489e-21)
(9.81808e-06 1.24681e-05 -2.33796e-21)
(0.00623741 -0.00223074 0)
(-1.90814e-05 8.92275e-05 0)
(-0.0169601 -0.118731 4.42464e-21)
(-0.000766705 0.00150483 4.85426e-21)
(0.000384631 -0.0260497 3.1696e-21)
(-6.36687e-07 -3.40905e-06 -3.6243e-24)
(-0.00106469 0.00130709 3.24705e-21)
(5.34325e-05 0.000301092 0)
(-1.55713e-05 1.06087e-06 -2.99705e-21)
(0.00212061 -0.0120239 2.15548e-22)
(0.00545367 -0.0760443 1.34316e-21)
(-4.13947e-05 0.00050126 -5.16594e-22)
(0.0148591 0.0033488 1.60179e-22)
(-1.15541e-05 -2.26487e-06 -2.48905e-21)
(0.00126788 0.000515086 0)
(-2.1565e-05 2.35436e-06 0)
(0.00268871 -0.0131405 -1.30886e-20)
(-2.17198e-05 1.73325e-05 -1.34585e-21)
(-0.0015038 0.007554 0)
(1.99828e-05 -6.71015e-05 2.69874e-21)
(-3.05436e-05 0.000410808 -3.79634e-21)
(0.0080465 -0.0119264 0)
(-1.86655e-05 2.95123e-06 -6.34406e-22)
(0.0115085 -4.69586e-05 6.5086e-22)
(-1.29227e-05 1.0218e-06 1.50874e-23)
(-1.03669e-05 -2.50731e-05 0)
(0.101352 0.0163458 2.43028e-21)
(-0.00027356 -0.000302407 0)
(-5.72612e-05 0.000147174 3.27879e-21)
(0.0142764 0.000528769 0)
(-0.00846498 -0.00731622 1.27174e-20)
(-0.0335351 0.0603139 -2.75338e-22)
(0.0161872 0.0260296 0)
(2.3931e-06 3.57217e-05 -3.59479e-21)
(-0.00642533 -0.000994493 -6.61209e-21)
(-0.00402577 -0.0273232 -3.74614e-23)
(-0.0129759 -0.000712478 -1.65111e-22)
(0.00375415 -0.000208108 0)
(0.000674762 0.000451807 1.32245e-21)
(0.00709024 -0.0029186 -1.48676e-21)
(-1.2974e-05 2.1805e-06 4.75787e-21)
(-5.15864e-05 -7.3793e-05 0)
(0.0095331 0.0154084 -9.85461e-23)
(0.00419586 0.00433356 0)
(-0.000159455 -0.000731795 2.09001e-21)
(0.0891625 -0.0195939 3.26125e-22)
(-0.000642539 0.00162924 -5.99405e-21)
(0.00823236 0.0823383 -4.75435e-21)
(0.053382 0.0862622 -1.21884e-20)
(0.0215961 -0.0187226 0)
(-0.00277543 0.000414285 7.59029e-21)
(0.0174093 0.000781512 0)
(0.0124134 -0.00255522 -8.3768e-21)
(-0.000113122 -0.000205243 0)
(-0.0006245 -0.0153715 1.61551e-21)
(0.00779551 0.0192016 0)
(-1.21965e-05 -2.12915e-05 0)
(-1.43051e-05 -1.80181e-06 3.96108e-21)
(-7.9989e-06 1.90352e-06 -1.41028e-21)
(-0.0042034 0.00237308 0)
(-3.83579e-06 -4.77356e-06 0)
(0.0157323 -0.00107053 -2.60241e-21)
(9.23628e-07 0.000583804 -3.10146e-21)
(-1.09528e-05 6.99995e-06 0)
(0.00128426 -0.00321462 1.77678e-21)
(-1.70973e-06 -4.03231e-06 8.12943e-21)
(0.00335905 -0.0427597 4.05344e-21)
(0.000166688 -0.000457998 0)
(6.3568e-05 -8.73893e-05 0)
(0.0119296 0.0066095 0)
(0.00265651 0.00267742 -3.87941e-21)
(-0.0154782 0.102428 -2.4546e-20)
(-3.26414e-05 8.33874e-05 0)
(-0.000217948 -0.000881755 0)
(5.65945e-05 7.92227e-05 -1.55091e-23)
(-5.80311e-05 0.000119914 2.53954e-21)
(-0.000423323 0.000576293 2.48132e-22)
(-2.19436e-06 7.42541e-05 -3.40919e-21)
(0.0169658 0.000285249 7.62592e-21)
(-0.00140681 -0.00172044 0)
(0.0603259 0.042978 -2.6758e-22)
(-0.0225915 0.0697472 -1.37728e-20)
(0.0011472 -0.0150464 -1.52752e-21)
(0.0150411 0.00404677 0)
(-9.0801e-05 0.000132257 0)
(-1.33483e-05 6.86132e-07 4.39533e-21)
(6.05393e-05 0.000365715 3.92844e-21)
(0.014447 -0.000886594 6.40465e-21)
(-0.115584 -0.030786 0)
(-0.000608031 -0.000684163 4.80561e-21)
(0.0173143 -0.000269996 0)
(-0.0153882 0.243743 1.68264e-21)
(-7.27605e-06 -3.00983e-05 5.08751e-21)
(6.35797e-05 -3.3892e-05 0)
(0.000456112 0.000775533 -8.71409e-21)
(0.0143436 -0.00488504 0)
(-0.0328944 0.117392 0)
(-0.000917008 0.00161104 1.67325e-21)
(-5.56357e-05 0.000111359 -2.17728e-21)
(-0.000181783 0.000241164 0)
(-0.00309694 0.00179023 -8.61426e-21)
(-0.000453063 0.00272134 1.04724e-21)
(0.0120766 0.00229551 -1.10061e-21)
(-3.85209e-06 0.000589582 0)
(-0.000115542 0.000251114 3.9843e-21)
(-2.36643e-05 -0.000157763 7.04959e-21)
(-1.5324e-05 1.17797e-06 -4.40702e-21)
(-0.000445715 0.000538579 0)
(-0.00162667 0.0050118 -1.8624e-21)
(-0.0114615 0.00688223 1.10668e-20)
(0.000876183 -0.000400807 -2.93078e-21)
(0.00196525 0.00457065 2.36627e-21)
(0.017211 8.48235e-05 1.02712e-20)
(0.0010593 0.000211598 0)
(0.0236013 0.184702 2.22071e-21)
(0.000570231 0.000343862 4.56226e-21)
(-0.0041082 0.00910129 2.03678e-21)
(-0.000578977 -0.000219774 2.46034e-21)
(-0.0121329 -0.0010557 -5.22877e-21)
(-1.16857e-05 -2.0776e-06 -3.84747e-21)
(-0.000656484 0.000640622 3.00596e-21)
(0.0196352 -0.0324515 -3.66893e-21)
(-0.000331662 0.0992819 -5.23782e-23)
(-9.81871e-06 -4.90121e-05 -1.90919e-21)
(0.000778744 -0.000511591 -6.26086e-21)
(-6.74409e-06 -2.23859e-06 -9.60351e-22)
(-5.0454e-06 -2.25231e-05 -3.85279e-21)
(-1.1832e-05 9.86979e-05 -5.59396e-22)
(0.00714983 -0.00975292 0)
(0.00925778 -0.00248757 0)
(0.0150282 0.0381364 2.85094e-21)
(0.0124967 0.000837125 0)
(-3.27082e-06 4.84113e-05 -3.8499e-21)
(-0.0130188 0.00621308 3.51786e-21)
(-2.89062e-05 0.000375218 -6.96723e-21)
(-0.000128359 0.000436872 -5.17159e-21)
(0.0154312 0.00154943 0)
(-8.62138e-05 -0.000265389 2.05403e-21)
(-0.000830651 0.000486529 -3.40787e-21)
(-0.0751314 -0.114389 6.65862e-20)
(-1.9672e-06 -2.23284e-05 -4.4805e-21)
(0.00258034 0.00233079 0)
(-0.00779188 0.0147116 -2.95274e-21)
(-3.14939e-06 0.000594438 0)
(-1.43394e-05 -7.29549e-05 -1.27491e-21)
(8.18377e-06 -2.05845e-05 7.52435e-21)
(-3.99284e-05 -9.70368e-05 0)
(0.012465 -0.00134556 -3.84078e-23)
(-1.40681e-05 -0.000141673 3.63799e-21)
(0.000409642 -0.000513167 -1.42495e-23)
(-5.25573e-05 0.000616765 0)
(2.45849e-06 7.27124e-05 4.57439e-21)
(1.87389e-05 -3.71448e-05 9.27164e-22)
(0.0115006 0.0130405 1.46263e-23)
(-0.0353193 -0.101967 -3.10735e-20)
(0.0182708 -0.00925179 4.94256e-22)
(-0.156496 -0.170432 -4.18963e-21)
(0.0101491 -0.0117227 0)
(0.0173631 0.0116936 0)
(-1.06117e-05 0.000101568 6.49753e-21)
(0.00302041 0.00153703 8.51734e-22)
(0.011526 -0.0211864 -2.23259e-21)
(0.00267639 0.000143274 -4.10803e-21)
(-0.0260736 0.000887238 1.09555e-21)
(-5.76746e-06 1.76158e-06 2.15591e-21)
(-1.61894e-05 3.95577e-07 4.43981e-21)
(-3.56056e-05 4.50494e-05 -2.95316e-21)
(0.00115716 -0.000306083 3.23451e-21)
(0.0207852 -0.0108771 4.19325e-21)
(-9.15203e-06 -8.06724e-05 -1.42919e-23)
(0.0243117 -0.000560203 6.00412e-22)
(-0.000416747 0.000237955 -1.03343e-21)
(-0.0167709 -0.255426 0)
(0.000573384 0.000251503 0)
(-0.000140261 0.000484239 -5.20563e-21)
(-2.99955e-05 0.000211059 -4.21298e-21)
(0.00310683 -0.000943574 7.05289e-21)
(-0.0038983 -0.00104182 7.2e-21)
(0.0415451 -0.0367777 -6.57738e-21)
(0.0197915 -0.0125247 6.20391e-22)
(-6.4971e-06 7.30072e-07 1.16863e-21)
(-0.00163521 -0.0364327 7.36219e-21)
(-3.00444e-06 -0.000183893 -2.85263e-21)
(0.0160868 -0.000653345 6.88131e-21)
(-2.73729e-05 0.000246691 0)
(0.0320189 -0.0230864 -1.3777e-22)
(0.000230155 0.00205625 -2.95674e-23)
(-2.09086e-05 0.000101121 -1.86854e-21)
(-9.79605e-06 -4.63436e-05 6.17851e-24)
(0.00615937 -0.00656853 0)
(-0.000530967 0.00048686 3.16194e-21)
(-0.0225997 0.0696322 1.74263e-22)
(-0.126363 -0.155313 -1.03922e-20)
(-4.49051e-06 -2.35109e-05 0)
(-9.55815e-06 0.000597466 0)
(-2.38049e-05 3.00039e-06 0)
(-0.00624121 -0.0034307 -1.59929e-21)
(-0.0420194 0.162038 1.34885e-22)
(-2.60353e-05 -3.54455e-06 -1.48037e-22)
(0.0978757 -0.0502869 2.90461e-21)
(-0.000147196 0.000274626 0)
(0.0344934 -0.0281048 0)
(0.00435406 -0.0040807 1.2342e-22)
(-0.00208817 0.0616712 2.57515e-21)
(-1.27832e-05 -4.97538e-05 0)
(-7.97212e-06 5.35308e-06 -6.33283e-21)
(-0.0216812 0.0192098 -3.34969e-21)
(-3.69175e-07 4.61122e-05 1.96132e-21)
(-6.21952e-05 0.000106676 -4.38271e-21)
(0.000279147 -3.25619e-05 4.59309e-21)
(2.97676e-05 0.000139936 -1.19795e-21)
(-6.52788e-05 0.000608394 5.42067e-22)
(-1.02393e-05 -5.13245e-05 -1.48574e-21)
(0.0463276 -0.0144528 3.56282e-21)
(-0.000152257 0.000241 -4.16244e-21)
(0.00580635 -0.00367648 -1.84781e-20)
(0.0163403 -0.000432221 -8.90074e-22)
(0.0309692 0.0446869 0)
(0.0182089 0.00686657 1.8323e-21)
(-0.173048 -0.172207 -1.30428e-21)
(0.00391037 -0.00320303 1.89016e-20)
(0.0308526 0.0598964 0)
(2.66479e-06 -3.96343e-06 -4.19387e-21)
(0.000811321 0.000970569 -2.38139e-21)
(-2.20314e-05 -4.10584e-05 -4.15101e-21)
(9.31708e-05 -0.000154765 4.53584e-21)
(-1.65686e-05 -2.45617e-05 0)
(-0.000500776 0.000542116 -6.7695e-22)
(-2.33194e-05 -1.84601e-05 1.55217e-21)
(0.00806986 0.0678476 4.05524e-21)