/*--------------------------------*- C++ -*----------------------------------*\
| =========                 |                                                 |
| \\      /  F ield         | OpenFOAM: The Open Source CFD Toolbox           |
|  \\    /   O peration     | Version:  v2012                                 |
|   \\  /    A nd           | Website:  www.openfoam.com                      |
|    \\/     M anipulation  |                                                 |
\*---------------------------------------------------------------------------*/
FoamFile
{
    version     2.0;
    format      ascii;
    class       volScalarField;
    location    "200";
    object      ddt0(omega);
}
// * * * * * * * * * * * * * * * * * * * * * * * * * * * * * * * * * * * * * //

dimensions      [0 0 -2 0 0 0 0];


internalField   nonuniform List<scalar> 
13917
(
0.127517
-0.000559494
0.0133552
-6.11662e-06
-0.00123232
-0.000289369
-2.4715e-05
-0.00786034
2.0502e-06
-1.25072
-0.00900974
1.74766e-06
-1.02583e-06
0.370187
0.000209775
0.191349
2.1451e-06
-0.00158345
-0.000580787
0.663409
-0.000207857
4.4197e-06
-0.000198389
4.855e-06
-7.16486e-06
-0.000321286
0.165991
-0.982527
-0.00128148
4.19176e-06
-0.857658
0.000152479
-3.243e-06
-0.0159375
1.02055e-06
-0.00828752
1.88521e-05
1.84913e-06
-2.46367e-05
2.32815e-05
4.42424e-07
1.80447e-05
-1.5343e-07
0.000204246
4.91216e-05
-0.00446701
-0.00015793
-0.301874
0.0790979
2.24916e-06
1.89014e-06
-0.000789813
0.195511
-6.935e-07
2.34066e-06
-0.000294417
-0.345751
-0.000191736
1.24791e-05
-0.0094703
-0.250064
0.0058194
9.38223e-07
-7.063e-06
0.0058847
0.0667447
-0.00242807
-0.0120002
-0.010991
0.0372936
-0.00517186
-0.00483477
-1.69811e-06
-1.14672e-05
-0.000204255
-2.4295e-06
-5.60303e-05
-2.94833e-06
-1.65987e-06
-3.16854e-06
-8.53171e-06
8.95303e-07
-1.46668e-06
-0.0337968
-3.34717e-07
-0.00901022
9.76529e-05
-2.38368e-08
-2.0516e-05
2.37724e-06
7.85247e-07
2.28019e-06
0.10969
-4.74218e-06
5.00808e-06
-0.00132945
0.588732
1.87687e-06
2.25438e-08
0.0173397
1.48603e-06
1.3274e-06
-5.89257e-06
6.17134e-08
-3.95259e-05
-0.0671363
0.275057
0.00407534
1.20082e-05
0.0653855
-2.48905e-07
-0.0166121
-0.00106097
-2.50324
0.00525021
-4.59236e-06
-0.000355758
9.98936e-07
-0.00350385
1.14092e-07
6.23667e-07
-4.10649e-06
-0.000625357
-0.000299044
0.0109737
-0.0251195
-7.01155e-06
-0.000220639
3.0302e-07
-0.000407624
-1.47638e-05
0.013368
0.0433524
-2.48673e-06
0.000217489
0.0218815
-0.3743
-0.027705
-0.000441689
1.65585e-06
0.37938
-1.26351e-05
-0.09193
2.2945e-06
-1.90339e-06
-0.000391456
-0.00823699
0.445837
-0.755517
8.39339e-07
-9.6945e-05
7.26702e-07
-1.77102e-06
2.28473e-07
0.449656
1.84612e-05
2.09799e-07
0.0536645
1.64598e-06
1.16004e-06
-4.19198e-07
-0.0254667
4.97377e-05
0.189509
-0.0324776
0.171687
-0.0640625
0.521017
5.01555e-07
-0.000524628
5.34512e-06
-0.00052579
4.38078e-06
-0.22729
-0.000276919
3.63954e-07
-5.93116e-06
-0.000451383
-1.64301e-05
4.42301e-05
-2.17743e-06
6.37597e-06
2.56068e-06
0.00293194
-0.00151494
0.0248956
3.0736e-06
0.00203129
5.95922e-06
0.0111738
-0.000237136
0.000104629
0.00159547
0.158057
-3.91647e-06
0.0103541
-2.53064e-05
0.0530456
-1.82639e-06
1.40684e-05
-0.000110356
0.0508802
-0.0210916
2.34926e-05
0.125199
-0.000421979
-2.97219e-05
-9.0235e-06
0.000954318
-9.28272e-06
2.02141e-06
-0.00126068
-0.00389864
-0.316396
0.000274759
-0.000348154
-0.0229907
2.72322e-06
1.36358e-06
8.04472e-07
1.09978
-0.000553708
-0.00772826
-7.9114e-08
7.71523e-07
-0.0955482
0.0165943
8.55512e-07
5.86152e-07
3.43441e-07
5.3328e-07
1.3603e-07
0.00987179
2.06641
-6.19628e-06
1.13357e-06
-0.000616722
-0.00536502
7.27627e-07
2.47483e-08
0.102058
-0.103548
0.00636797
-0.023144
-0.000773608
2.27014e-06
0.200615
-0.000588082
-0.000897328
-0.000269551
2.1422e-05
2.3813
-2.99506e-07
8.68832e-05
-0.000265675
-7.45372e-06
7.62695e-08
-7.69409e-06
2.21558e-05
-5.9393e-06
-0.0180808
-0.0239992
-2.6496e-06
7.42572e-07
1.91923e-05
1.1618e-06
-1.73265e-07
-2.9198e-07
-6.66209e-05
-3.17842e-06
-0.0285462
0.184055
2.88074e-06
4.07659e-06
0.02397
2.7403e-07
0.00612897
-0.0252126
4.32194e-08
0.0210772
-3.16905e-06
-0.0204254
3.77857e-07
9.41325e-05
-7.65561e-06
2.38255e-06
-0.00026814
2.02875e-06
0.42671
-2.50895e-05
0.185703
-0.000439507
-0.0184847
-0.0198647
5.96052e-07
-0.000290611
-2.48223e-05
-2.78369e-06
-0.000765122
-3.76947e-06
-4.7638e-06
1.87027e-06
-0.00150633
0.00522107
8.44809e-05
-2.32349e-06
2.30485e-07
0.0547374
0.0892897
3.21306e-06
0.000181609
-3.90095e-06
-0.750776
0.00262832
0.0807878
-0.218218
0.0339837
-0.000672301
3.61696e-05
-0.0416133
-0.768931
0.0148676
-2.24738e-07
0.000171456
0.205709
1.04366e-05
-0.000182111
5.41402e-05
1.49607e-06
-0.00218555
-2.01946e-07
9.71769e-05
1.66461e-05
-0.408752
3.06687e-07
3.67849e-05
-0.000439237
0.0282079
1.78333e-06
-0.000227925
-0.0856356
5.21002e-06
1.09193e-05
-0.0299223
-0.0976975
-0.0612143
0.290687
-5.15031e-07
-7.39784e-06
-0.108395
-0.00285457
-1.25773e-06
-0.000135162
4.19135e-06
0.000122858
1.00805e-05
0.000150398
0.000435935
0.00620271
4.42685e-05
0.0311067
-3.33357e-07
5.57766e-06
-0.000500685
-0.00103277
4.78361e-07
0.209885
6.50165e-05
0.000561796
2.47252e-06
-0.00156873
0.000647301
0.0697624
-6.28799e-06
0.00497828
0.0435305
-0.000733796
3.07795e-06
-0.00120223
-2.05857e-05
-0.0612755
0.001562
-1.75252e-05
0.0882387
-1.37574e-05
0.00319295
1.06211e-06
0.838266
0.00791838
1.26607e-05
-0.163603
0.00360022
1.72142e-05
-0.096739
-0.00433858
1.12161e-05
0.000140875
-5.85166e-06
0.00384519
0.010668
-1.78716e-07
-1.33281e-05
-3.93532e-06
2.22891e-06
-1.86265e-07
-2.21952e-06
-0.434113
0.0792427
3.64447e-06
-1.58717e-06
4.52347e-06
-0.000215249
0.155579
7.0017e-06
6.66859e-07
0.00233677
-0.000847967
2.37189e-06
1.32383e-05
-0.174337
0.336318
0.062015
-0.000216677
-0.0555794
-8.13089e-07
3.69732e-06
-0.000171533
-1.52157e-07
5.36374e-06
-7.37449e-06
3.58463e-06
-2.29685e-06
0.648603
-6.48495e-06
0.000107349
-0.0242799
-0.000270542
2.1128e-06
-1.78161e-06
-0.0788501
-0.000104846
0.026948
2.46531e-07
5.6309e-07
-4.36186e-05
-6.11837e-07
1.80534e-05
-1.72058e-05
-0.176733
0.00080268
-0.0673123
6.28801e-07
-6.29403e-05
0.0014597
-1.04202e-05
-0.00089472
-0.0810025
3.8719e-06
-0.0570188
1.47887e-06
1.73485e-07
4.49729e-06
-1.44866e-05
1.76666e-06
6.43644e-07
0.0437414
-0.226575
1.54366e-06
-0.0984411
0.00198385
4.8235e-08
-0.000360563
0.000715171
-0.0687237
-1.64696e-05
-0.049801
0.0306204
0.0277887
-1.83812e-05
0.0528855
0.00302092
1.91475e-05
0.149535
1.00166e-06
1.08225e-07
5.12301e-06
-7.12362e-06
-0.000126678
-0.00135863
-0.000193391
9.32804e-05
-4.58606e-05
-0.0045743
0.000581341
3.39998e-06
0.485385
-9.92445e-05
-3.10112e-05
-0.12295
-2.88598e-07
0.000643773
-0.00138127
-5.43385e-08
0.0331834
2.75108e-07
-9.46615e-07
-0.000242697
2.307e-06
2.38627e-06
-0.000199845
0.0934869
-0.23537
-4.27025e-07
-4.92145e-06
-1.48555e-05
0.303162
-0.638389
2.03884e-06
9.48068e-07
-2.07995e-07
-0.000229189
-0.0242623
2.37056e-06
4.67202e-07
1.18038e-05
2.00747e-06
-5.4815e-05
-2.66853e-05
9.74753e-07
-0.000251055
5.99981e-10
3.27816e-06
-3.10319e-06
0.0473464
-1.53713e-07
-9.53492e-06
-6.01897e-06
-5.86132e-05
-0.000453397
-0.000618816
-0.000342547
0.0120687
1.28609e-06
-0.00207998
0.0480986
0.855668
-0.0180882
3.45005e-06
4.05772e-06
0.00320124
1.47564e-06
-0.00352214
1.18398e-06
-0.135656
-2.44352e-05
0.00345265
0.00861152
-1.89891e-07
0.00459552
1.34498e-06
0.000462965
2.19526e-06
-8.14e-05
0.00464195
4.10583e-06
0.00283962
-8.9324e-08
-1.26776e-07
4.7101e-06
-0.000863319
-1.7603e-06
8.77697e-07
0.000539948
-0.000351873
-0.184059
-0.025016
0.0769817
-0.0560748
-1.35594e-07
0.0254043
-1.11875e-07
-0.321363
0.214819
2.52706e-05
0.00169812
1.40849e-06
-8.0211e-05
-7.84971e-07
5.98139e-06
1.72237e-06
5.26759e-07
-0.0444562
-1.02399e-06
0.000137695
-9.96821e-07
7.38248e-07
1.88376e-06
-0.0139346
0.0493379
-2.01847
-0.000276987
-2.99467e-05
0.104143
-0.0139333
8.86705e-07
0.0127707
3.36798e-07
0.00139985
1.76204e-06
-0.041747
1.89654e-06
-0.000249326
-1.91196e-06
-0.218509
-7.8149e-05
-0.00253711
1.33572e-06
-5.80491e-05
5.36173e-06
8.02838e-07
0.0195961
0.116365
6.24258e-06
0.00112187
1.66465e-07
2.53237e-05
3.5552e-07
0.00109955
-9.56696e-07
5.60186e-05
1.68072e-06
5.80084e-06
-0.00116756
7.6398e-07
0.000104215
1.24664e-06
1.27131e-07
-0.310536
0.00017698
2.14391e-07
0.200426
-0.0068994
-0.0463981
0.00176444
1.08385e-06
0.000190199
0.077653
0.00728391
-9.81708e-05
1.77566e-05
-0.000424411
1.29292e-06
-3.97689e-06
-0.00095898
-0.000462657
-1.98866e-05
-0.10064
-0.000109176
-1.51996
-0.435715
0.0142669
1.23434e-05
1.94753e-05
0.00898627
-4.53955e-06
0.000379423
-0.0648499
-1.38624e-08
3.66497e-07
1.74625e-06
-0.00203579
1.97279e-06
0.0364446
3.47441e-05
4.7722e-07
-3.66892e-05
1.08661e-06
0.0454904
-2.59605e-06
1.73132e-06
0.0770629
-0.000417545
0.0267104
-2.85331e-06
-0.000163134
3.84787e-06
-3.86178e-06
-3.31463e-05
1.05021e-06
0.00399498
-2.03645e-05
-0.259807
0.0033509
0.00272851
0.0834681
-5.41122e-06
1.69892e-07
5.81953e-06
-0.0269543
-0.220165
-2.56722e-05
0.0368073
0.026946
2.75301e-07
3.10591e-06
2.20054e-05
-0.0594613
0.0499312
-8.86044e-05
-3.92224e-06
-9.93617e-06
0.00135557
1.87032e-05
0.00020235
1.77636e-05
2.53073e-06
-2.16941e-06
7.10248e-07
-3.15397e-05
-5.96475e-05
-0.00378641
-4.19481e-06
0.000195762
0.00303062
-8.95395e-05
-0.0669395
1.41154e-05
5.36026e-05
-2.32945e-05
0.0100106
8.64748e-07
0.000398295
0.059317
-0.00686756
1.06144e-06
-5.47407e-06
2.38372e-06
1.19181e-06
-1.23598e-06
0.000253182
0.00105146
-0.00617115
0.000174271
4.12836e-07
-0.00651637
2.03761e-06
-8.39869e-06
0.000585364
-8.58023e-06
0.000475228
0.731325
4.88302e-07
-0.000404928
-0.000312372
1.85517e-05
-1.77044e-06
1.80185e-06
-3.24242e-06
0.0741638
-2.26652e-06
-2.01511e-06
8.55165e-05
1.4074e-06
2.36999e-06
-0.000914363
0.844233
0.00125148
0.188224
2.59106e-05
-0.117649
-9.7664e-07
-7.12743e-05
-0.0831878
4.16379e-05
-0.0324169
1.77334e-06
2.69932e-07
-2.99536e-06
-6.59524e-06
-0.000425396
-1.33974e-06
0.0950667
2.98699e-06
-0.00189792
1.29776e-05
-1.43099e-05
9.58207e-06
-0.000310014
0.000119157
-0.0404716
0.00209981
2.36775e-06
0.0884776
-1.22637e-06
-0.0121419
3.70973e-07
0.00151758
1.64101e-05
1.10039e-06
1.00267e-06
-0.0235997
-3.18456e-05
-0.118106
0.273652
1.16475e-06
2.69546e-06
1.04131e-06
0.000313889
0.154543
1.48193e-06
0.299742
-8.39758e-06
0.00274444
-0.000567595
-0.283979
-4.9528e-07
9.65678e-07
0.000244893
7.14859e-07
-2.08932e-06
9.72449e-06
3.46987e-06
6.89775e-05
2.05434e-07
-0.000676456
2.09084e-06
0.112192
-0.0136124
0.106233
-0.0645641
-0.061433
0.129307
-0.58336
5.22289e-07
2.80349e-05
-9.14388e-07
3.94087e-06
-2.00352e-07
-3.2513e-05
-1.52649e-06
-0.00687079
-9.12224e-07
-0.0671407
-2.09696e-06
1.57205e-05
0.000814612
2.48008e-06
7.28566e-05
-1.03677e-06
6.25422e-05
-2.24514e-05
-1.30963e-05
0.109929
-0.0004639
0.0496794
3.90754e-06
-1.20866e-07
7.16979e-06
7.92945e-06
-0.0990837
5.85312e-07
0.0935229
1.61514e-06
0.0223646
3.51829e-05
1.08322e-06
0.000451128
0.00738053
5.88504e-07
-0.01724
0.0720042
3.35563e-05
-0.000250054
-6.04367e-07
0.0106401
-9.04803e-05
8.02083e-06
0.0554748
1.2132e-06
-6.49828e-06
-0.000110826
0.071773
-0.000398731
-0.207063
-0.0849723
-4.32757e-06
-1.40553e-05
3.75271e-06
-0.0643909
-5.09565e-07
0.000663205
-1.13622e-07
0.0443975
8.9765e-05
-0.285327
-1.6588e-06
-3.6508e-06
0.0121504
9.14426e-07
8.16936e-05
0.0478981
1.37331e-05
-5.10786e-07
-0.696872
-9.52077e-06
3.05622e-05
-0.000453093
1.1717e-05
-0.00541427
7.77896e-05
0.000724659
0.000421617
-9.69668e-06
0.0171762
4.24424e-06
-0.000428908
-1.0333e-07
-0.028425
0.0327334
-2.33382e-06
-7.90046e-05
1.21327e-05
2.07319e-06
7.18815e-05
4.52327e-06
9.89115e-07
4.58313e-07
-2.89058e-05
5.36345e-07
1.25972e-05
5.81687e-05
0.103953
-0.0467632
-0.000148069
6.36336e-06
0.0110318
-9.72067e-07
-0.0847207
0.128464
0.0232132
-3.48851e-06
5.54627e-07
5.59917e-07
-4.18528e-06
-2.96087e-06
-4.60985e-05
-5.72448e-07
-1.53126e-06
-4.36566e-07
-0.374087
-0.590614
-1.30574e-06
-0.0209322
-2.73494e-07
-2.81198e-06
0.00155711
-0.00648534
0.000747363
8.4591e-07
0.0564108
3.23328e-08
2.72057e-07
-0.00522801
4.23656e-05
0.50511
-6.92226e-06
0.0667286
1.76451e-06
-4.51078e-06
-9.5199e-05
-0.520474
1.29689e-06
-0.0227612
4.35562e-05
1.13878e-06
-2.24193e-05
-3.18405e-07
1.83702e-06
0.000976819
3.38473e-05
-2.00189e-05
-0.0293858
0.719164
-0.460326
0.00111937
-1.66851e-06
-0.0248869
-4.57709e-06
-0.219763
-0.000182902
-1.36525e-05
3.00086e-06
-0.27928
-0.176289
-0.919821
-0.000113162
-0.0738428
5.60391e-05
-1.70524e-06
4.99498e-05
-3.89911e-07
3.49225e-07
-0.297417
0.0470994
-4.31543e-06
7.77457e-06
-0.00792143
5.29902e-08
-2.39018e-06
-0.170441
0.00279703
3.38054e-06
-1.07104e-07
-2.11175e-05
-1.91442e-06
2.0822e-06
0.000274628
5.04156e-05
-8.38244e-07
-0.249866
3.22861e-05
0.00251868
0.17271
8.51478e-05
-0.0263759
-2.63964e-06
-1.04499e-06
-0.0197748
0.100827
0.000173859
0.0013439
-0.000144887
-3.14839e-07
-6.66257e-06
-0.000311808
-0.054608
7.18195e-05
1.35727e-05
-0.000184313
2.37567e-06
-0.00483313
-0.000260518
0.00177302
0.000409779
0.141163
0.0496153
-0.146338
-0.0381681
1.70282e-06
0.130473
-2.61566e-06
-0.000132613
-0.000603214
0.159749
-1.93459e-05
-5.05167e-05
-2.38447e-05
-0.652463
1.62934e-05
-0.100158
-4.49841e-05
-0.000381893
-0.173449
1.76129e-07
0.0015059
1.05856e-05
-4.57417e-06
-0.000600821
0.0103707
-5.95921e-06
-8.73886e-07
2.10425e-06
-0.413251
-6.85769e-07
1.47426e-05
-4.91411e-07
5.35705e-06
2.57787e-06
0.000303792
0.000577594
1.26915e-05
3.84034e-06
-0.000566564
-0.0247136
5.8567e-06
0.0293862
-3.19133e-06
-7.64019e-07
-0.219421
-1.98168e-06
1.66885e-05
-0.0379072
-0.0264396
-4.2224e-05
1.3346e-05
1.96905e-05
0.0466704
0.0679183
-9.67905e-05
-0.00285536
3.31566e-06
-0.000530224
0.0183546
-0.00352734
-0.100077
0.0019067
-3.24883e-06
4.15981e-06
1.23123e-06
3.08069e-06
3.05291e-06
-0.00188266
9.2842e-07
-0.000113193
6.31837e-07
0.000330334
-0.0803764
1.33576e-05
0.183286
0.0661996
-9.02975e-07
0.000751936
6.77735e-05
1.14217e-05
1.34986e-06
-0.0212406
-0.000248483
0.0261151
-3.31684e-05
0.0133098
-2.89153e-05
-0.000345167
-0.00495479
-5.86601e-05
-0.00184791
1.49296e-06
-0.0134134
1.4103e-06
-8.58795e-06
-0.000266007
5.61102e-05
6.79481e-09
-0.000149897
-0.308354
-6.28796e-07
-0.00347076
0.0979626
-2.32533e-06
-4.61352e-07
-0.000314375
-1.23457
-0.005098
-1.62616e-06
1.31231e-05
0.00697541
-0.35368
-0.0235426
5.74905e-07
-6.2216e-08
-4.28136e-06
-2.08292e-07
-3.59192e-07
2.13219e-05
-0.884764
1.21411e-05
-1.30349e-05
-0.0853216
0.00853797
-0.000273224
-0.00410965
-0.100324
-2.3364e-06
7.59968e-07
-1.05593e-07
1.16086e-05
0.000627744
0.105726
0.0745233
0.00110513
-0.000111889
-0.000142617
-2.22719e-06
0.00849104
1.10377e-07
0.000143689
-3.09018e-06
-0.00171485
0.0186786
-2.16088e-06
-1.49257e-06
-0.0394265
-0.000220194
-0.0927432
0.0495561
-0.000655591
3.74803e-06
0.0972162
4.22705e-06
-9.38922e-08
-0.0327288
-0.306196
-3.80997e-06
2.66509e-06
-0.000366753
-6.63087e-05
-4.05833e-06
4.6196e-07
-7.0682e-07
2.1047e-06
1.03537e-06
-2.54457e-05
0.000401075
-0.0165915
-5.69088e-05
-2.27965e-05
-2.80564e-05
0.000143336
3.01774e-06
-0.000143647
-0.000336054
-0.00144638
0.316207
1.02101e-05
1.31112e-06
-0.0254167
-1.52638e-09
-0.00623143
-8.65764e-06
0.000115085
5.15852e-06
1.4446e-08
0.00122916
-2.4226e-05
5.39196e-06
-2.76468e-07
-0.112094
0.0283943
-0.0153247
2.91946e-06
2.49756e-06
0.0420927
1.29932e-06
-6.18867e-07
0.000881179
-0.182723
-2.27181e-05
-6.25966e-05
-3.66058e-06
-0.270427
3.8539e-07
-5.60933e-05
4.50144e-07
1.62509e-06
-0.00135169
3.16475e-07
1.95479e-06
-0.561899
0.000115036
-0.148675
0.00209198
-3.07265e-07
-4.211e-05
1.83144e-06
3.82475e-06
-1.37722e-05
2.07048e-06
3.76494e-06
0.00127509
7.01847e-07
-0.000513801
-0.000574058
-0.00135565
-1.96991e-06
-0.000405153
-7.95253e-07
-0.0109478
9.07545e-07
-1.3197
-9.12982e-06
1.98126e-06
-0.000118693
-6.52037e-05
-4.54501e-05
5.04991e-07
5.01458e-05
-1.18521e-06
-1.61186e-06
-0.0462423
-2.32231e-05
-0.00219763
1.57147e-07
2.39452e-06
3.52034e-05
-0.00530165
2.35387e-06
-0.0220534
-0.000190066
-3.73839e-06
4.5404e-07
2.24775e-06
-0.000158357
0.0150593
-0.239137
-0.0477258
0.015187
-0.00134944
-0.000799675
1.34881e-05
0.00640026
4.3939e-07
-2.11775e-06
-1.65014e-05
-0.116226
2.00119e-06
-0.0352571
-4.37663e-06
9.78141e-08
0.000987355
-0.0135007
0.0708018
0.0852061
-2.42487e-05
0.000882049
0.0116984
5.41662e-06
0.0167124
-4.78908e-07
6.29479e-07
-0.584902
1.17684e-06
-0.038319
0.0547404
1.40231e-06
7.1713e-07
5.09869e-06
0.073287
1.03654e-06
1.08281e-06
0.00013527
-1.61518e-07
2.32591e-06
0.000321987
4.04715e-06
-5.46538e-05
-2.80247e-06
1.55797e-05
2.13034e-07
0.0645847
-0.0859045
3.91902e-07
4.35025e-07
4.68595e-06
4.94888e-07
-8.68969e-06
6.81552e-06
1.06706e-07
-2.94911e-06
-3.14039e-08
1.04333e-05
2.88063e-06
-0.00100613
2.23515e-06
-0.00036275
4.71717e-06
-0.00153623
-2.49453e-06
3.61669e-06
1.69051e-06
5.99927e-07
-5.11144e-05
4.08372e-05
-3.1627e-06
-0.164936
-0.0127057
0.0305124
-0.00335129
-0.000197092
-0.0664193
2.37514e-06
2.50278e-06
0.610884
-0.216698
2.86067e-05
-0.0169189
1.93057e-07
0.00217866
0.330603
-1.08762e-05
-0.00033574
0.334376
0.0621633
1.07033e-06
-4.56704e-05
-1.27456e-06
-0.00224146
-1.37541e-05
-0.0398236
1.32687
3.93824e-06
-0.070487
-0.270398
2.3667e-06
0.317699
-0.048402
9.46953e-06
3.25539e-08
-0.0890323
-0.0262547
6.05844e-06
-2.50975e-05
-7.29031e-06
0.681495
-0.00181276
4.20083e-09
-2.48912e-06
-0.844633
3.17507e-06
-8.9417e-07
-5.04012e-06
-6.96515e-07
0.460273
0.000165784
-3.15059e-05
-0.0224028
9.93397e-07
-6.28137e-05
-1.09749e-06
-0.107777
-0.000108538
-0.00417022
-2.69028e-06
-2.4695e-05
1.62532e-07
6.22983e-07
8.66391e-07
1.52642e-07
0.169573
1.02017e-05
-6.91914e-09
-7.98635e-07
-0.0569208
-4.06884e-09
0.012662
-0.162262
-0.14019
1.39548e-06
1.95783e-07
3.48827e-07
-0.331715
-1.42418e-08
-0.269929
1.42979e-06
0.632348
1.30317e-05
-3.26307e-05
0.00984702
-3.15003e-06
2.22509e-06
-0.0254431
-0.000359139
-0.0328622
-8.69028e-06
0.00434593
0.377123
-3.69247e-06
-0.0242541
-5.54714e-06
2.83888e-05
-0.0242583
1.27753e-05
-0.000710371
0.0518292
-1.45731e-05
-0.000320373
-1.60553e-06
-0.355555
-7.98753e-07
0.0722812
4.53303e-07
0.0301099
-9.91804e-07
-2.90732e-07
2.7853e-05
-0.0576356
1.64875e-06
-0.0138537
0.000605885
0.121755
-2.08128e-07
-6.98253e-05
0.00238038
0.0979792
-0.63208
-0.000623199
-2.93798e-06
-0.000643831
0.767725
3.23728e-05
0.148146
-3.31363e-06
0.00126437
0.118213
2.00201e-06
-0.0254127
4.26385e-07
-0.00312908
0.327673
6.02558e-07
-2.70408e-05
0.0888448
-0.0979264
-4.49324e-07
-7.21719e-06
-7.40168e-07
-3.76191e-06
-0.0220056
-5.71379e-05
0.0466133
-3.94722e-06
-2.65279e-05
-0.0420185
0.000614661
-0.168127
-1.28104
-2.99518e-07
-2.32518e-07
-5.00057e-05
-0.196003
-0.485497
0.00909749
-0.000892768
-2.9281e-05
0.00318579
-0.0112307
-0.0822791
-0.0575108
-1.06804e-08
-0.000474388
-8.3242e-05
1.70939e-05
2.30644e-06
-4.02866e-06
3.61736e-05
0.0191809
-0.0705887
5.10138e-06
-0.0393151
-0.0272505
-0.000614741
-6.89549e-07
-7.9799e-07
-0.502127
-1.05616e-06
0.06453
-2.80298e-05
0.000210513
-0.00326851
0.0424053
2.54282e-07
-4.20126e-05
-3.82475e-05
2.79258e-06
0.0724244
-0.00101043
0.0995196
-1.32073e-06
-0.0269958
0.0180507
-0.00305258
2.3435e-06
-3.04741e-05
-5.91157e-05
-0.0162898
-0.00140768
-5.01342e-05
-0.020103
0.752718
2.09387e-06
-2.19789e-05
1.03403e-05
0.000150373
0.0243747
1.3002e-06
2.47396e-08
3.67638e-06
-0.124965
-0.0309274
-3.45847e-06
0.000290269
-0.00247096
-2.98844e-07
0.023252
2.48104e-05
0.0898815
5.41465e-05
-0.0156363
-0.269328
-3.11754e-05
3.82317e-05
0.0690411
-1.76967e-07
-0.0008556
0.222194
1.08185e-06
0.00337565
1.85255e-05
3.5597e-05
-0.20035
-0.00402223
-1.78739e-06
0.012867
0.492416
1.54423e-06
0.00224722
-0.000442855
0.00079043
0.286285
-0.0365797
0.264678
-0.000863586
0.255596
-2.88514e-05
0.000523799
1.31757e-06
-2.48853e-06
2.98257e-06
-1.01129e-06
0.0105498
0.00418765
-5.35119e-06
-0.00118836
0.00556171
9.91544e-08
-0.150848
0.00132065
4.21502e-06
-1.39602e-06
1.02089e-06
6.40055e-06
-2.65978e-05
-8.06311e-07
0.0919986
-3.90411e-05
-0.000503811
7.18549e-05
0.000109063
0.00150348
0.000311113
-0.0417339
2.50384e-06
8.47493e-06
-5.39627e-06
-3.36315e-06
0.00785271
0.00130865
-6.5766e-05
-0.124592
-1.18442e-06
-8.38673e-06
-9.87676e-05
-1.10354e-06
3.92785e-07
0.00141862
-2.22207e-05
0.0208693
-0.108758
-0.257478
-1.5765e-07
-0.353208
-2.65653e-10
-0.178785
5.38095e-08
-7.42135e-05
-0.281439
6.11088e-07
-0.0520783
-0.0108914
-0.00015918
7.13427e-07
1.39728e-06
-4.81629e-05
-0.0714438
-1.06153e-06
-3.16578e-06
1.47448e-06
2.27328e-06
0.00252934
1.31801e-06
-2.3183e-05
-1.451e-07
1.82671e-06
0.145065
-3.43479e-05
-4.43076e-05
0.000120099
-0.276362
-0.0364235
-0.0432489
1.63349e-06
-6.05443e-06
0.15288
2.09999e-06
-0.000326938
-8.00594e-07
-0.0227168
-2.74627e-06
9.58553e-06
-0.000400394
-0.0320963
-3.54947e-07
-2.61858e-06
2.76352e-07
0.000998166
0.363045
-0.0018306
-2.64399e-07
1.39043e-05
-6.50466e-07
-0.0172675
8.52322e-07
-0.0596572
9.0174e-05
-6.85422e-07
-0.0117971
0.000148263
0.00508297
2.67104e-07
1.79498e-06
-3.06666e-05
-0.000688794
0.00247074
-2.9308e-06
-1.29021e-06
1.76824e-06
-0.0202023
6.45358e-07
6.41164e-07
-0.00968911
1.46258e-05
0.000215012
-1.92309e-05
2.09431e-06
-4.93756e-06
0.457198
-9.22221e-07
0.166074
-0.0349596
-2.4772e-06
0.611598
5.21988e-06
-0.000851896
0.000175277
8.80846e-07
1.70922e-06
-2.01535e-06
-6.02823e-07
0.0475076
-5.81431e-06
-0.0101442
0.0748915
-1.40901e-06
0.000706819
-5.80652e-05
-0.0673218
2.22077e-07
0.0675578
-0.00485192
-0.031872
6.29367e-07
-7.72523e-06
-7.10293e-07
-0.542129
-0.00101931
0.000108471
-3.07888e-07
-4.46607e-05
0.346013
-2.71743e-06
-9.52218e-06
7.11825e-06
0.00206213
-0.0821492
7.04182e-07
-0.0632681
0.000170686
-6.85898e-07
0.0410064
1.5293e-05
0.460484
-0.0251041
-0.000123357
5.89463e-05
1.16099e-07
2.06644e-05
-1.0055e-06
-0.00490495
-5.55807e-05
-1.6802e-07
-1.58139e-05
0.0306979
-0.222295
-1.13255e-06
-0.00121144
-0.318753
0.450257
1.45989e-06
7.20393e-07
-0.0680243
-0.0565003
0.016252
-3.26052e-07
-0.0799378
0.000539513
-2.64228e-06
-0.0132633
-4.09326e-05
-5.47734e-06
-0.00806581
2.9839e-06
-0.00557109
-1.32625e-06
2.8162e-07
3.78903e-06
8.53958e-08
0.00628849
-1.18641e-06
2.84627e-07
-0.000401696
-5.46579e-06
4.05372e-05
-0.000186167
-1.38523e-06
-3.48195e-07
1.01554e-05
9.14524e-06
-0.00236325
0.00881971
-0.0832279
-0.000466692
0.000770526
0.25585
-0.00144952
-0.0221101
-0.197273
0.0156376
1.21611e-06
-1.42988e-05
-2.72643e-07
-3.54103e-06
-1.81197e-06
8.58838e-06
0.00178419
0.000261405
-0.000279252
5.89142e-07
-4.00384e-07
0.00032158
-1.94637e-06
-3.91929e-06
-3.33445e-06
0.000149466
-6.48699e-06
0.100289
-7.55017e-09
-0.0391493
1.00733e-06
6.75147e-06
-8.2077e-06
-3.43123e-05
1.18254e-06
-0.000545529
-0.018062
3.23653e-05
-0.0273774
0.458173
2.41026e-06
-3.00993e-05
0.0281565
-0.00196851
9.45105e-06
-1.65669e-07
-2.3756e-06
0.0680594
1.41394e-06
0.0165894
0.0183464
-0.000515034
0.0835212
0.14
-0.000116497
0.0843389
3.35658e-06
5.25565e-08
-0.0872361
-0.256778
1.98456e-06
-1.33213e-06
-0.079293
6.23751e-09
-0.00357882
1.77807e-06
1.12029e-06
3.29767e-06
-1.11927e-06
-0.000498
0.00260707
0.00299825
-1.96714e-05
5.72741e-07
0.00169617
1.17772e-06
0.000217409
-7.89394e-07
0.00214691
0.000952567
-3.4233e-06
-3.73212e-06
-2.0982e-06
3.26395e-05
0.000145965
0.000346432
0.51974
-2.34073e-05
-0.0399153
0.000164227
0.00186131
-0.0158802
2.84914e-07
0.0386042
2.66687e-06
0.0019122
-4.68179e-05
0.0681206
-0.0143642
1.32495e-06
-8.22435e-06
-0.123615
1.61362e-06
0.0446504
-1.71208e-06
7.71064e-07
-1.3974e-05
-3.61152e-06
-3.70173e-05
0.00378348
-1.0925
-0.131017
-2.32441e-05
-8.75105e-05
1.02224e-05
-1.96204e-06
-1.56869e-06
-0.00223128
8.94188e-06
-0.243466
0.000160838
-4.36357e-06
-3.79477e-08
-3.38844e-06
-0.00456855
2.98944e-05
-5.35204e-06
-1.46494e-05
0.00361147
-4.04374e-05
-0.000668057
0.00107175
-0.00347198
-4.23616e-05
-4.91105e-05
-1.01721e-07
-1.38158e-05
0.00282004
0.0457302
-0.000203087
-2.7488e-07
-0.010907
-3.37397e-05
-6.45104e-07
-0.000201787
-0.0311924
-0.0309489
-0.000157501
1.28986e-09
-0.121514
-1.43731e-06
-2.35712e-07
-1.25876e-06
-0.430629
0.0140188
2.28992e-06
0.169625
0.0195664
6.67528e-07
0.00112062
-8.11156e-05
0.0947492
-4.33213e-05
-0.0096452
-5.19774e-06
0.00702039
-0.000152919
0.0377816
-5.71502e-05
-6.65073e-07
-0.0414216
5.30022e-07
9.01917e-06
0.107396
-0.255129
-0.00196655
-0.0070353
-6.98755e-06
-6.50565e-06
-0.0320642
2.66996e-07
-4.11074e-07
-1.2263e-06
-0.000112714
4.30233e-07
0.000252772
1.00344e-06
0.171916
-0.24307
-5.2132e-06
0.0173118
1.40344e-06
-0.0360154
-0.0259923
-1.75195e-06
-2.40544e-06
-1.37845e-05
0.687567
0.00188683
-0.000486165
-0.0280476
-0.0417895
0.502475
1.75678e-05
-0.400926
0.270485
0.00108871
-0.108146
-3.41549e-06
6.59147e-07
-1.94123e-07
1.4453e-06
-1.15668e-07
-5.03468e-05
-0.00839301
0.000317605
-0.061565
2.3126
-0.844131
-0.237761
-0.0323537
6.4944e-05
0.0371009
-0.000514111
0.000242624
-1.15166e-07
3.55168e-06
-0.000197136
-0.0116385
1.79342e-05
-0.0167701
-0.0412532
1.12877e-06
-2.12123e-06
-1.43412e-06
0.00154871
-3.05453e-06
-0.000501856
0.0374747
-1.0632e-06
-3.52517e-07
6.90981e-07
1.83536e-06
0.00091047
-0.0113355
-0.00029341
-0.0788483
-0.00193788
-9.02499e-07
0.0031168
-0.000209968
1.28215e-06
-0.130938
-0.131255
-0.239608
-1.32188
-0.0152137
4.70101e-07
-0.0686329
-0.025939
-0.00402018
-0.038916
-3.44698e-06
1.83961e-05
3.1082e-06
-6.59858e-06
-0.0210928
-0.000477927
-1.97755e-06
-3.12086e-05
-0.00877462
-0.0277573
1.18433e-05
-0.000621766
0.0596083
-0.0349094
-2.52023e-06
-4.14384e-05
-0.000902993
6.01583e-07
-5.98423e-07
-0.276606
3.59155e-07
-0.000607204
-0.00710978
-0.011856
8.62655e-07
0.00150844
-0.000706783
-1.58748e-06
-3.99967e-06
0.171969
-0.484646
2.48709e-06
0.000389803
0.00216282
0.00641038
0.0108218
0.28595
-2.17483e-05
0.0289193
0.0441379
-1.48448e-05
-1.68515e-07
-0.0111164
-3.76318e-07
-1.53672e-06
0.0131728
-0.000105653
-0.000688548
-1.67038e-05
0.00020626
2.94385e-07
-1.85813e-06
-4.98851e-06
-5.82238e-06
0.0313098
-1.4313e-05
0.391638
-0.0169816
0.000128793
-0.0003737
-0.0960822
0.0157558
-0.023197
-8.32429e-05
-1.87045e-05
9.55711e-06
-2.00009e-05
-0.00348972
-0.0137803
-5.02325e-06
0.341485
-0.0266984
-2.26149e-05
0.000161596
-0.000277583
0.000265409
0.000578052
-7.86604e-06
0.00130686
0.00226907
0.0027331
0.0033437
0.00150527
-0.000406247
-8.56159e-05
2.76763e-07
-5.6827e-05
3.22208e-05
1.49968e-06
0.0914884
0.0613472
-0.00466069
-0.0410501
-4.29543e-06
1.71265e-06
0.0109827
0.0273896
-6.06406e-06
2.69218e-05
0.000494214
-0.295595
-0.0747733
-7.86362e-07
5.57194e-05
-2.27688e-05
-0.13094
0.00216614
-5.911e-06
-0.0398683
-0.0274706
-0.000338913
-0.0240632
-0.000574921
0.149619
0.0399003
6.5244e-07
0.0608174
-0.0273509
1.00303e-05
-4.26155e-05
-0.000492036
2.57772e-05
-3.15951e-07
0.8546
0.137679
-5.07222e-06
-6.00923e-06
-0.21788
-0.282972
-0.000131651
3.8245e-06
0.0326042
0.000472138
-0.0414252
-0.0246387
-1.91201e-06
-2.35535e-07
-5.10745e-06
3.11111e-06
-0.0153303
-0.0222372
-0.0133261
9.18194e-06
0.00373159
-0.0387669
1.4807e-06
4.61241e-08
-0.0277948
-2.724e-06
0.0141129
6.06798e-07
-0.0262702
-6.41363e-06
-4.63103e-07
0.114701
7.11798e-07
8.83181e-05
-0.0324432
5.33585e-07
1.26918e-05
-6.73686e-06
0.000528784
-0.0015773
-0.00428147
-0.0389711
3.3258e-06
3.06225e-06
-2.84497e-05
0.000116965
0.0936683
-0.162975
-6.38565e-05
0.0148739
0.000128654
0.0115837
0.000147119
6.39109e-07
-1.15026e-06
-1.1453e-07
0.0497401
-0.00356278
-0.00702941
-4.8701e-05
0.00123895
8.40565e-07
0.0210283
-0.00621672
-0.0712034
-3.79378e-07
-7.11828e-06
-5.34313e-08
-0.0336809
-0.0209259
-0.0860122
0.0469894
6.29068e-05
0.0101288
-2.70524e-06
-0.000100564
-0.0026525
0.00284049
-0.189253
4.98073e-07
8.4449e-05
-8.74744e-06
-1.81594e-06
0.00371757
-0.0253321
-1.21908
-6.83403e-06
0.000393149
0.0252262
-0.285736
0.0270376
-0.0106934
-0.0044632
3.71884e-06
-0.000368335
-5.97969e-06
0.000125563
-3.20121e-06
-0.000609295
-2.19869e-05
-0.000246496
-0.000486094
0.0262276
1.66574e-06
0.00842127
-0.0287515
0.00201676
-9.95051e-06
0.155732
0.00178286
2.47254e-06
-1.41816e-05
-0.0173013
-2.56127e-05
-0.00287365
0.0343335
0.00089518
0.061928
2.78042e-06
0.0253017
-0.0131072
-0.00312908
0.591633
-3.42996e-05
5.96632e-05
-0.00044971
-0.0139435
0.00812476
-4.5316e-06
-0.0627554
0.00522912
0.0952173
-3.68363e-05
0.030292
-0.246382
-0.137791
-5.92705e-06
-0.0367197
-1.7425e-07
0.0109189
-0.00121841
-0.0517996
0.0381558
2.31538e-08
1.17146e-06
-0.0235033
0.0505805
-0.00373751
-2.64465e-06
7.21689e-05
0.00025875
0.00438735
-0.00651736
-0.025861
-1.82476e-05
-0.0198894
-0.00104299
0.0972025
-4.00524e-06
-0.0111339
-0.162476
2.43465e-06
0.000845489
-1.93504e-06
-1.59693e-05
-2.44084e-06
0.0330937
5.43491e-07
-9.74049e-07
0.0289467
-0.0557561
-2.00175e-07
0.0781482
3.07515e-08
3.48521e-06
1.11565e-06
-1.37088e-06
-2.98478e-06
-0.214889
0.0117125
2.31249e-06
0.96371
-0.00012528
9.85175e-06
-0.0401008
0.000153624
-1.89345e-05
-9.49804e-06
4.98686e-07
0.0218968
0.000121879
0.0843523
-9.37306e-07
-0.0301987
0.00333666
-0.00046167
-1.20245
-0.0151125
4.21695e-07
-0.0109633
-0.000271893
-0.000356309
-0.00213737
2.01522e-06
0.0215893
0.000916551
-2.05804e-06
-0.0103494
-3.37733e-07
-0.0105087
0.00234584
-0.180409
0.00326686
0.00365622
0.0169704
2.80213e-06
-4.44038e-06
-3.7428e-05
5.86522e-06
-2.4555e-06
-2.89103e-06
-3.18053e-05
-4.11306e-08
-3.08131e-07
5.87911e-06
-0.000136115
4.7163e-06
-2.86795e-05
1.05378e-06
0.000861055
0.0015966
1.63495e-06
0.00509801
-5.60261e-07
8.85714e-08
0.0002594
1.6067e-05
2.91729e-06
-1.49884e-06
0.884889
-5.65514e-07
-0.0245697
-2.35467e-06
-0.00101635
9.31691e-07
-4.03015e-07
0.00819699
0.0654501
-5.77027e-05
-0.000226737
-5.39566e-07
-0.0398208
-2.6382e-06
-6.50814e-07
-8.67195e-05
-1.23359e-05
0.00180241
-0.0303673
-0.000518598
0.0194906
-9.33438e-05
0.0307424
9.73738e-07
1.75202e-06
6.02104e-05
0.0111476
-6.11239e-05
-0.0010824
-0.142619
-4.45853e-05
1.85801e-06
-2.51876e-05
0.0277709
0.000306932
-2.21399e-06
0.000576986
0.00145044
-0.00042191
-2.18347e-06
-9.87618e-07
0.00185645