/*--------------------------------*- C++ -*----------------------------------*\
| =========                 |                                                 |
| \\      /  F ield         | OpenFOAM: The Open Source CFD Toolbox           |
|  \\    /   O peration     | Version:  v2012                                 |
|   \\  /    A nd           | Website:  www.openfoam.com                      |
|    \\/     M anipulation  |                                                 |
\*---------------------------------------------------------------------------*/
FoamFile
{
    version     2.0;
    format      ascii;
    class       surfaceScalarField;
    location    "200";
    object      ddtCorrDdt0(phi);
}
// * * * * * * * * * * * * * * * * * * * * * * * * * * * * * * * * * * * * * //

dimensions      [0 3 -2 0 0 0 0];
oriented        oriented;


internalField   nonuniform List<scalar> 
20642
(
-0.000324346
-3.88008e-05
0.000363062
-0.00523577
0.00604796
-0.000812178
0.000618612
0.000502534
-0.00112117
2.64032e-05
-9.69692e-06
-1.67065e-05
-0.000685774
0.00377641
-0.00309063
-0.0037397
-0.00149603
0.000124392
-9.7278e-05
-2.71141e-05
-0.0142997
0.0148556
-0.000555862
-3.15558e-05
-4.05546e-05
7.21107e-05
-0.000865768
-0.000577016
-0.0108395
-0.00346017
3.06907e-05
-2.68953e-05
-3.79268e-06
-3.5175e-06
3.51856e-06
0.0184973
0.0105145
-0.0290114
-0.00116413
-0.000540869
0.00170501
-0.000189685
-0.000134688
-2.67306e-06
2.29929e-06
3.74054e-07
0.0111118
-0.00963425
-0.00147755
0.00058075
-0.00086474
0.000283979
-0.000631033
-0.000562146
0.00119318
0.000301472
-0.00153308
0.00123161
0.000122759
-4.93796e-05
-7.33793e-05
1.0083e-05
-0.0001484
0.000138318
8.71319e-05
3.56272e-05
9.75015e-05
-3.88133e-05
-5.86873e-05
3.4502e-05
-0.00162465
0.00159015
-0.0180486
0.034729
-0.0166803
-0.000865785
0.00399605
-0.00504338
0.0010473
-2.78087e-05
3.92011e-05
-1.13926e-05
-0.000235975
-0.000629813
9.01604e-05
-4.89263e-07
-8.96733e-05
-4.94028e-05
2.60362e-05
2.3366e-05
-0.000407218
0.000629844
-0.000222607
0.000193968
-0.000224903
3.09367e-05
0.00710312
0.00775242
-5.42834e-06
-0.000250647
0.000256076
-8.63804e-06
2.88348e-06
5.75535e-06
0.000105928
1.84637e-05
0.000632676
-0.00160679
0.000974111
7.43458e-06
-5.80963e-06
-1.6248e-06
2.50086e-05
-0.000607073
0.000582062
8.29456e-05
-1.87623e-05
-6.41841e-05
0.000331025
0.000191135
-0.000522157
0.000530435
-0.000199402
0.0055978
-0.00616343
0.000565722
0.00142698
-0.00112551
-0.01632
0.0140811
0.00223878
0.0382863
0.00509081
-0.0433769
-7.62502e-06
0.000201594
3.93663e-06
2.67553e-05
-0.00245465
0.00290154
-0.000446923
0.000658927
8.16507e-06
-0.000667094
5.9419e-05
-4.55483e-05
-1.38698e-05
5.84571e-05
-5.23828e-05
-6.07402e-06
-0.00245603
1.36291e-06
-0.000235993
0.000197041
-0.000186957
0.000442851
-0.000417843
0.00806562
-0.00246781
-0.00409141
0.0131236
-0.0090322
-0.00728862
0.00727394
1.46855e-05
-1.10611e-05
1.59519e-05
-4.89059e-06
4.85094e-05
4.89925e-05
0.00134038
7.96982e-05
-0.00142004
0.00746578
0.00171832
-0.00918409
-0.00635494
0.00551994
0.000834979
-0.00866579
0.0157689
0.000272258
6.35091e-05
0.000520364
-0.00058387
0.000333523
0.00105837
-0.00139187
5.23352e-05
-0.000459528
-3.88881e-05
4.07022e-05
-1.81401e-06
0.000122055
0.000320796
-0.000674844
-0.000858235
0.000150748
-0.000125383
-2.53665e-05
0.000545673
0.000363963
-0.00090963
0.000305228
-0.000183173
2.15019e-05
0.000129245
-3.78925e-05
-1.15116e-05
0.000109565
-0.000155961
4.63979e-05
7.85785e-06
-7.91037e-06
5.31669e-08
-9.11925e-07
-3.79761e-05
-0.00119551
0.00100258
0.000192939
-4.91451e-06
1.24876e-05
-7.57238e-06
-0.00106058
-0.0127081
0.0137688
5.3516e-05
3.66431e-05
1.11372e-05
-7.08744e-06
-4.04939e-06
0.00133543
-0.000702749
-2.08204e-06
-5.90809e-07
1.80269e-06
-5.04469e-06
3.2423e-06
5.62249e-05
-0.0292825
0.0675689
7.54988e-05
-0.000108869
3.33716e-05
1.27921e-05
-0.000108504
9.57118e-05
-0.0023589
-0.036881
0.0331998
0.00368067
-6.06719e-06
5.27484e-06
7.92146e-07
6.19717e-06
4.94012e-06
-0.00544915
0.0137454
-0.00829648
-7.37543e-06
7.746e-06
-3.70638e-07
-8.39821e-06
1.02263e-06
-1.47318e-05
0.000124298
-7.62555e-06
7.93512e-06
-3.09575e-07
-0.000684683
0.00123036
-0.00128224
0.00129074
-8.47145e-06
0.00323913
0.000711296
-0.00395043
-0.00338184
-0.00390678
-0.000690184
8.3112e-05
-0.0372233
0.019175
2.91434e-06
6.39115e-06
0.000519001
0.000110855
-0.00266557
-0.00237783
-0.000252317
0.00159271
0.000158342
-0.000184888
2.65439e-05
0.000739223
-0.000158483
-5.1449e-07
-3.22584e-06
3.74059e-06
-0.000664202
-0.000376773
0.00104084
5.17072e-06
2.38055e-05
-2.8976e-05
3.66784e-07
7.49146e-06
-0.000166962
0.000165476
1.48758e-06
0.00725024
-0.00173031
-0.000960454
0.00115157
-0.000191109
-0.000803886
-1.00865e-05
0.00081397
-0.000375987
-0.000819519
-7.65376e-05
4.24535e-05
3.40845e-05
0.00128578
-0.00196062
-7.02194e-05
2.09198e-05
4.93012e-05
-0.000670771
-0.00028968
-0.000115614
2.96023e-05
8.60111e-05
-0.00669518
-0.00322202
0.00991731
-0.000102509
-0.000736155
0.000838661
-3.00068e-05
0.000188347
0.000223703
-9.44988e-05
-0.000129206
-0.0221335
-0.0150896
0.0064607
-0.0147062
0.00824564
0.000766222
-0.000682389
-8.38357e-05
0.000277433
-0.00204386
0.00176643
-8.6378e-06
0.0445336
-0.0217204
-0.0228134
0.000209582
9.56482e-05
-0.00107683
-0.000205395
-1.19034e-05
1.41454e-05
-2.24111e-06
-2.91717e-05
3.42523e-05
-5.08021e-06
-0.00209654
-0.000422695
0.00251924
0.00122144
-0.000887902
0.115408
-0.00468897
0.00989932
-0.00521002
7.71319e-06
5.17063e-05
-0.000755293
0.00114927
-0.000393967
-1.3775e-05
1.33526e-05
4.22173e-07
-3.08286e-05
1.65764e-06
0.00630223
-0.0431832
-0.000312624
0.000376351
-6.37216e-05
-5.70078e-06
-1.92467e-06
0.00060922
-0.000871301
0.000262078
4.31191e-06
-4.04266e-06
-2.69082e-07
-2.83536e-06
2.32101e-06
1.57669e-05
-3.0594e-06
-1.27066e-05
0.00446505
0.000569021
-0.00503414
0.00100291
-0.000521589
-0.000481305
0.0253081
0.00650911
-0.00965863
0.00314951
-0.0215442
0.0144583
0.00708556
0.000658928
-0.0100164
0.00358794
0.00642863
6.75248e-06
5.82968e-06
-1.25823e-05
0.00275994
-0.00248251
-5.08804e-05
0.0001407
-8.98177e-05
0.000856635
-0.00048359
-0.000373046
-8.16225e-05
-0.00719562
-0.00487222
0.0120678
-0.000385777
-0.000951801
0.00133757
-1.17958e-05
1.58006e-06
1.02158e-05
2.00346e-05
6.36785e-06
-0.00325239
0.00327838
-2.59967e-05
-3.09362e-05
-8.46786e-05
0.000365567
0.000637353
7.98692e-05
-7.08007e-05
-9.06892e-06
3.62516e-05
2.29188e-05
-1.89804e-05
0.00426021
-0.00204179
-0.00221849
0.000409268
-0.00107352
-0.0125465
0.00585119
2.12127e-05
1.70754e-06
0.00207371
0.00218647
-2.99937e-05
2.18539e-06
0.0100865
-0.011147
-0.0019766
0.00159081
0.000397748
0.000132685
0.000360614
-0.00203242
0.00167176
-0.000158846
0.000515175
-0.000356378
5.95426e-06
6.9545e-05
0.000833344
-3.41728e-05
-0.000799174
0.000181039
-0.000203155
2.2115e-05
0.000860183
-0.000962695
-0.000147283
-7.7619e-05
-0.000284731
-2.78906e-05
0.000719382
-0.00101225
0.000292866
0.00036259
-0.000571081
0.000208489
0.000788267
-2.20471e-05
-0.00028341
0.000192824
9.05891e-05
-0.0261341
0.00621119
0.0199224
-4.12622e-05
0.00222905
-0.00218778
0.000580135
4.26206e-05
-0.000350865
-2.64074e-05
-0.000129553
-1.52021e-05
9.46653e-06
5.73747e-06
0.0070031
-0.00130268
-0.00570041
0.00833381
-0.00133071
0.00939207
0.000122759
0.000100944
-0.00200936
-0.00167195
-0.00103553
0.00270758
-3.08746e-06
2.28e-06
8.07484e-07
4.63155e-07
2.4158e-05
-2.46207e-05
2.72806e-05
-2.68169e-05
-0.00427973
-0.00018247
-0.00234433
0.00252672
-0.00542006
0.00264274
0.00277732
-7.88217e-06
1.35982e-06
6.52272e-06
-1.34041e-05
2.34324e-06
0.0183534
-0.0404866
0.000841508
-2.85466e-05
2.05645e-05
7.98294e-06
-1.55901e-05
-1.29563e-05
4.48859e-06
2.94608e-06
-7.14243e-06
3.4423e-05
2.80403e-05
-3.51832e-05
-0.00034659
0.000398957
-0.00489594
-0.00383435
0.00872995
-0.00014238
9.35784e-05
4.88044e-05
-1.11771e-05
-4.72537e-06
1.59027e-05
0.000369407
0.000956796
-0.0013262
-0.000495774
-0.000141469
0.000637252
-1.54381e-06
7.25325e-06
-5.7091e-06
-5.71684e-06
-2.1653e-06
-0.0229211
-0.00321299
0.00146461
-0.000961524
-0.00050303
-0.00222429
0.000934846
-0.00260674
-0.000874338
-0.00247346
0.00334779
7.67484e-06
-1.95778e-05
-0.00722487
0.0108128
-0.00088503
0.00125444
-0.00362439
0.000958813
0.000157534
0.000204097
-0.000361634
-0.000175514
-0.000107895
0.00449614
4.42382e-06
-2.66563e-05
2.22318e-05
-0.000207717
-0.000530014
0.000737716
0.00179776
-0.000466758
-0.00133101
-0.000196058
4.92164e-05
0.000146844
-5.80971e-06
-2.80276e-05
0.00331206
-0.00252114
-0.000790905
0.000203526
0.000117664
-0.000321188
-3.85672e-05
0.000772085
-0.000733519
0.0440839
-0.0436406
-0.000443348
0.00010787
4.83978e-05
-0.000156269
1.44001e-07
-1.57338e-05
-9.68884e-05
0.000473243
8.65458e-06
-8.5103e-06
2.82295e-05
-2.73492e-07
-3.2432e-06
-0.000247931
0.0003693
-0.000121371
-0.000131726
0.000239594
0.00014572
0.000452296
-0.00105217
0.0042913
-9.50538e-07
1.64416e-06
-6.91532e-07
-0.00142745
0.00209992
-0.000672459
-0.00695234
-0.00322328
0.0101756
2.5383e-06
-3.12022e-05
2.86637e-05
0.00166553
-0.00779817
0.00613256
0.000696545
-0.000735112
3.21974e-05
-2.96593e-05
0.000580392
-0.00051688
-5.02643e-06
0.000208554
0.00401161
0.000453384
-1.18393e-05
4.36436e-08
0.000763914
-0.00146182
0.000697905
-8.41774e-05
-0.00011188
8.29795e-06
1.00595e-05
-1.83564e-05
0.000496597
0.000754321
-0.00125091
-5.36981e-06
4.93066e-06
4.39793e-07
-0.0190234
-0.00252117
0.000330704
-0.000394393
6.36853e-05
0.00136996
-0.00346649
0.0210179
-0.0225503
0.00153183
0.000670873
4.82372e-06
-6.36756e-06
-0.000156778
0.000462159
-0.000305391
0.00292254
-1.92455e-05
-0.00290328
-0.000188605
-1.34843e-05
0.000202088
0.00219133
-0.0028771
0.000117727
-9.62248e-05
8.47875e-05
-0.000165121
8.03352e-05
-2.75785e-06
-2.61137e-06
-0.00100669
0.00401385
-0.00300718
-0.00972189
-0.00122
0.0109419
0.000566655
-0.000774377
1.20842e-05
0.000105642
3.0213e-06
2.37863e-06
-5.39969e-06
0.000876791
-0.000267573
0.000504357
-0.000141765
-3.37759e-05
3.02211e-05
3.5563e-06
-0.00211873
-0.000800508
0.00291923
-0.000218612
0.00582561
0.0184816
-0.0243072
-0.000206034
-0.0003217
0.000527734
0.00337608
-0.000281423
-0.00309466
-0.00890122
0.00170555
-0.00327814
-0.00710675
0.0103849
0.00644679
-0.00966865
-0.00134713
-8.03092e-05
0.00129418
-0.000291601
0.0272762
-0.0214506
-0.000387538
0.00100619
2.2582e-06
1.26127e-06
0.000621104
-0.00178523
0.0118077
0.000167047
-0.000178087
1.10414e-05
0.00209123
0.00395673
0.000428187
-3.04402e-05
4.8532e-06
-5.04224e-06
1.89242e-07
0.000517369
0.000339267
1.31073e-07
9.27888e-06
-9.40943e-06
-5.30452e-05
9.35283e-05
5.03114e-06
-0.000116102
0.00011107
-0.00199386
0.00136281
-9.56205e-06
-4.34695e-06
1.39097e-05
-1.11243e-05
-0.000516411
0.000527535
0.00219457
-0.00223581
0.00226899
-0.00554713
9.43243e-07
3.91006e-06
0.000169414
-0.000306561
0.000137144
-0.00124157
0.000497468
0.000744128
2.77888e-06
7.20316e-05
-7.48101e-05
0.000263104
-9.60556e-05
-9.58538e-05
0.00061485
-0.00110512
0.00101747
8.76642e-05
0.00682409
-0.00199797
-0.00482608
-0.018326
0.0368234
3.35551e-06
2.88419e-05
-0.000103745
3.52814e-05
6.84638e-05
0.00159171
-0.00083428
-0.00075738
-0.00130697
0.007754
-2.7246e-05
3.06014e-05
0.00511387
-1.19769e-05
4.94666e-06
7.03072e-06
0.00351079
0.000352002
-0.00386276
0.000555526
0.000660174
-0.00172185
0.00106165
0.00338091
-0.00474985
0.00136883
0.00713341
-0.00546786
-5.88281e-05
-1.41678e-05
7.29959e-05
0.000508462
-0.000604824
9.63706e-05
-6.216e-05
-8.05901e-06
6.67719e-05
-6.39926e-05
0.00433039
-0.000553975
0.00131697
0.000107386
-0.00142434
-9.34018e-06
8.01079e-07
8.53924e-06
-0.000197666
3.46744e-05
-9.35025e-05
0.016449
-0.0358695
1.89772e-05
3.94801e-05
-0.00740873
0.00647752
0.000931486
-0.00347383
0.00135509
-0.0123445
-0.0382149
0.0505595
2.12828e-05
-0.000529269
0.000507986
-0.00334636
0.00111329
0.00405279
-0.00185821
2.05178e-06
-3.00098e-06
0.000322219
0.00172327
-0.00204544
0.000260121
-0.000161247
-9.88738e-05
0.00936313
-0.00285401
-0.00198374
-0.000582403
0.000603686
-0.041627
-0.000131705
-0.000127012
0.00025872
-0.022581
-0.000588643
0.0231697
-3.82102e-05
1.27621e-05
2.54488e-05
-0.00190886
0.00134671
-0.0059492
-0.0166318
-5.79285e-05
0.000162227
-0.000104302
-0.00775016
0.0261038
-0.00341143
-0.00327569
0.0066873
0.000238119
-7.7859e-05
-0.000160258
-0.00394362
-0.00305783
0.00700152
0.000601204
-0.00108905
6.51625e-05
3.23536e-05
-9.75155e-05
-0.000986024
0.00148263
1.13782e-05
4.60845e-05
-5.7462e-05
0.00571796
-0.00912925
0.00110397
-0.000601535
6.32837e-06
8.82588e-05
-0.000102277
1.40178e-05
9.38237e-05
-8.1739e-05
-3.60558e-06
-5.44725e-06
9.05345e-06
-1.82418e-05
8.48308e-06
9.759e-06
-7.18089e-05
-4.20186e-06
7.60112e-05
0.0165306
-0.00207252
-3.60129e-05
5.96859e-05
-2.36723e-05
-1.04141e-05
9.23153e-05
-8.19011e-05
2.89731e-05
-5.76346e-05
2.86611e-05
0.000467307
-0.000640973
0.000173662
-0.00228589
0.0226163
-0.0203303
-3.2026e-05
3.85811e-05
-6.55585e-06
1.39121e-05
-7.15973e-06
-0.000515008
0.000308973
-0.00405349
-0.0033552
-8.96271e-06
1.72613e-05
-0.000126668
6.87378e-05
0.00640293
-0.00795034
0.00154739
0.00736105
-0.0449876
0.0376266
-0.00329099
0.0107568
-0.000549059
-0.000315684
0.000833874
0.000460296
-0.000156093
0.000100957
5.51375e-05
1.47863e-05
-2.26424e-05
7.85559e-06
-0.000188751
-0.00108687
0.00127561
-6.79911e-06
-1.14425e-05
-1.72395e-05
-9.31623e-05
-2.63388e-05
3.69695e-06
-0.000102533
-5.35587e-05
-0.00495819
0.0109157
-0.00595751
-4.69516e-05
5.833e-05
0.00131898
-0.00143112
0.000112131
-0.000217678
0.000669974
-0.000407549
0.000250766
-3.46277e-06
-1.17384e-05
-2.69936e-06
-2.8129e-05
0.00329898
-0.00724266
0.000944751
-0.00022537
-0.000855232
5.13433e-05
-1.7875e-05
8.95248e-05
-7.16513e-05
1.48091e-06
-1.08362e-05
9.35225e-06
9.43713e-05
0.000165751
-1.99186e-05
4.79588e-05
0.000192905
-0.00019833
-0.000217785
-0.000102883
0.000320671
-0.00521894
0.0116219
-0.00422537
0.00414495
8.04127e-05
0.000387794
1.09981e-05
-9.51813e-06
-0.00015937
6.65518e-05
9.28174e-05
-0.00588695
0.0048599
0.00102706
9.04451e-05
-0.000116852
0.00176047
-0.00263481
0.00556094
0.00126315
-7.12088e-06
-4.85538e-06
0.0530066
-0.00934095
-0.0436656
2.75298e-05
-2.27198e-05
-4.80734e-06
6.99865e-06
4.7906e-07
-7.47661e-06
5.20228e-05
-2.30497e-05
-0.000288584
0.000156881
-1.61605e-06
-4.34315e-06
5.9605e-06
-5.20692e-06
9.11604e-06
-3.90861e-06
0.000140636
-0.00896365
5.27051e-06
-6.88607e-06
0.0127502
0.00826756
0.000395943
9.65654e-05
-0.000492519
-4.52583e-06
2.20461e-07
4.30616e-06
-0.000195821
0.000578992
-0.00038319
-0.000127057
-0.000126334
-0.000414838
0.00536354
-0.00494888
-6.19398e-06
-8.55183e-05
9.17129e-05
0.000185623
-0.0148456
0.0350077
-0.0201621
0.0129023
-0.0277479
-0.000344797
-0.00538842
-0.00151038
-0.00437657
6.26054e-05
-0.00155403
0.00393254
-0.00237848
2.89421e-06
-1.09136e-06
-4.75833e-05
2.03601e-06
8.48238e-05
2.95927e-05
5.94613e-05
-8.90539e-05
0.000623794
0.000594197
-0.00121799
0.000916207
-0.000902066
-1.41946e-05
0.000169821
-8.96627e-05
-8.0159e-05
-0.0014107
-0.000682059
0.00209275
0.000341153
0.00175878
-0.00739261
-0.00224162
-0.00147652
0.00226275
-0.000786273
-5.07801e-05
1.47671e-05
-0.015608
0.0261227
-0.000303876
0.000147285
0.000156585
0.00031599
1.47117e-05
-0.00152124
-0.00707938
0.00860066
4.36446e-06
-0.00262068
0.00114415
0.00373007
-0.000451712
2.44684e-06
-8.76793e-06
6.32156e-06
-0.000874045
0.000652817
0.000221227
5.90719e-06
1.09194e-06
1.49514e-05
-3.48708e-05
0.000628514
-0.000161213
-6.44957e-05
4.66198e-05
-4.06259e-06
9.75237e-07
0.00268426
-0.00369095
0.000571166
0.000263807
0.0221285
-0.00237145
-0.019757
4.20952e-06
1.15579e-05
-1.45479e-05
-2.95429e-05
4.40909e-05
0.000686135
-0.00159418
0.000908048
0.00529125
-0.00392975
-0.00136145
0.000225389
0.0120933
-0.0123189
-6.99747e-05
3.18028e-05
3.8172e-05
-4.46693e-05
-1.39844e-05
3.35407e-06
1.06312e-05
0.00138932
-0.00116521
-0.000224118
0.0261138
0.0410588
-0.0671727
-4.37569e-05
5.15357e-05
-7.77828e-06
-2.12632e-06
-7.21381e-06
-5.21148e-05
-0.000232613
8.52035e-07
-4.45718e-06
0.00288219
-0.00291069
2.84962e-05
0.000195326
-0.000166391
-2.89368e-05
-4.10134e-06
8.21303e-05
8.76903e-05
7.23336e-06
-4.78607e-06
6.4714e-05
-3.15887e-05
-3.31258e-05
8.30504e-05
1.07735e-05
-0.00186769
0.000706033
0.00116168
9.78444e-06
-1.66642e-06
-8.11789e-06
-1.96497e-05
6.51103e-05
-4.54624e-05
0.000236366
-0.000118702
-9.96777e-05
-5.96927e-05
0.000610221
-0.000690344
8.01133e-05
-0.00547673
0.000489996
0.00498667
0.00084596
0.0110814
5.18118e-05
-9.02673e-05
3.84542e-05
-0.00014238
-1.17034e-05
0.000871886
-0.0105912
0.00563286
0.000431848
-0.000649526
1.82598e-05
1.95372e-05
-3.77954e-05
5.56513e-06
4.12979e-05
-4.68626e-05
0.00171793
-0.00312864
-6.48958e-06
1.58227e-05
-9.33898e-06
-0.00104469
0.00145276
-0.000408037
1.16728e-05
-4.28753e-05
0.00217803
0.0370617
-0.0392397
0.000139365
4.1673e-05
-0.000592454
-0.000439096
0.00103155
0.00594717
6.11068e-05
0.000769128
-0.00129656
0.000527422
-1.29417e-05
1.82128e-05
-0.000135598
1.56307e-05
0.000119967
-3.19978e-06
-2.86723e-06
-1.71864e-06
-0.000831654
0.00083337
-0.000676397
8.39439e-05
-2.9893e-05
-3.46038e-05
0.00107132
-0.000432813
-0.000638506
-1.75793e-05
1.61966e-05
1.38104e-06
-4.62672e-06
1.01666e-07
5.7588e-05
0.000801514
0.000114638
0.000161196
0.002721
1.58317e-08
-1.51493e-06
1.49913e-06
-0.000564457
0.000257694
0.000306774
0.000392795
-0.000588626
0.0163122
0.0115948
0.00181565
-0.000594197
-0.00105664
0.000592037
0.000464596
-0.00588585
0.005471
9.63751e-06
1.46987e-07
0.000915515
-0.000561766
-0.000353748
-1.96048e-05
1.47357e-05
4.86853e-06
-0.0100365
-0.00466977
0.0570509
0.0583567
0.00138139
-0.00138311
2.67504e-05
0.00277166
-0.00279842
-5.87645e-06
-2.52215e-06
-0.000117763
-0.000186113
-9.62858e-06
-6.11724e-05
8.68803e-06
2.38886e-07
5.03587e-06
5.51387e-06
-3.71889e-06
-1.79394e-06
0.00096631
0.00084936
4.64465e-06
-8.73349e-06
4.08953e-06
-3.84527e-05
4.57212e-06
3.38787e-05
-3.79096e-05
-9.67223e-06
3.65646e-06
-3.64058e-06
3.31528e-06
9.96806e-07
-0.00495974
-0.00120363
0.00194319
-0.00370405
0.0017609
0.00301873
-0.0022496
0.000373614
-0.000216084
0.000168538
2.67867e-05
0.0025217
-1.71304e-05
-0.00250468
0.000115155
-0.000610927
-4.3319e-06
-3.38786e-05
-0.0022634
-0.00255472
0.00481816
5.39551e-07
4.97481e-06
0.000428716
-0.000145961
-0.000282758
-1.39563e-05
7.46353e-06
0.00176405
-0.00144182
-6.11458e-06
6.96707e-06
-0.00262009
-0.000290608
7.48531e-06
2.67668e-05
0.0513337
0.000348244
-8.98556e-05
-0.000258391
0.000588508
0.00118741
-0.00177587
-8.24009e-08
9.94114e-07
-9.11404e-07
-0.000319133
7.11986e-05
0.000203029
-0.00010221
-0.000100819
-7.81258e-06
1.93589e-06
0.00078309
-0.00027461
0.0083956
0.0119337
-0.0203296
-0.000233742
0.000182261
5.14823e-05
-0.00138404
0.00204419
-2.69555e-06
0.000808429
-0.000444782
-0.000363648
-6.11527e-07
-1.3164e-05
0.000587559
0.000195552
-7.64508e-06
1.22895e-05
0.00329282
-1.58909e-05
2.75635e-05
-0.000103124
-0.000130619
0.00011549
0.00120148
8.73493e-06
4.61762e-06
0.00148367
-0.000207725
-0.00127593
7.91103e-06
-7.19383e-06
-7.16602e-07
8.52459e-06
6.22413e-06
-1.47484e-05
0.00308714
1.50629e-05
-1.82685e-05
0.000546223
-5.69641e-05
-0.00048926
0.000452798
0.000618522
0.0231984
-0.00762821
-0.0155703
0.000210085
0.00351995
5.70037e-06
-1.86414e-05
-0.00219352
0.00165266
-0.000437182
-0.0014305
-0.000404275
-0.000515779
0.000920064
-0.000942688
0.000753936
-0.000197682
-5.29662e-05
-0.00335323
0.000733139
4.2175e-06
3.69385e-06
-2.30463e-05
-1.1786e-05
3.48329e-05
0.0108068
-0.000421884
0.000747862
-0.000861431
0.000113574
0.000118942
-0.000202742
8.37962e-05
-0.00952913
0.00800794
0.00028692
6.13219e-05
-0.00710375
-0.0188586
0.0259625
-0.0119383
0.0121637
-0.0136525
0.00393057
9.48885e-05
-0.00045952
0.000364627
-0.000320962
-0.00171148
0.000438923
-2.4081e-05
0.00258339
0.00389339
-0.00647678
0.00936915
0.00143764
1.20463e-05
-3.52154e-06
6.23477e-06
-5.86767e-06
-4.92935e-06
8.8657e-07
-0.00179774
0.00248387
-1.45458e-06
3.29519e-06
-1.84059e-06
0.000445144
0.000470373
5.75277e-05
-0.000108857
5.13288e-05
6.0079e-06
-8.09197e-06
2.08433e-06
0.00036715
6.1034e-05
-2.03011e-06
1.94792e-06
0.00140384
0.00197225
-0.000232917
0.000227892
-3.32513e-05
5.41718e-05
-0.00021722
0.000788387
-0.000557914
0.000516408
4.14871e-05
-0.0420315
-0.00812439
3.21512e-05
-2.33014e-05
-8.84963e-06
0.000345594
-0.000634344
0.000288746
-4.16931e-05
-1.41844e-05
5.58774e-05
-3.81324e-05
2.37255e-05
1.44067e-05
-0.000151394
9.02818e-05
6.11121e-05
2.87483e-05
5.52426e-06
-3.42721e-05
-7.3432e-05
0.000739709
-0.000666278
0.000464071
-0.000355703
-0.000108375
-0.00839677
0.035934
-0.0275372
-0.0054253
-0.0366062
0.00548268
-0.00289929
-0.000848654
-0.000207982
2.47461e-05
-3.9294e-05
9.60281e-06
-3.69433e-06
-5.90839e-06
9.99047e-05
-3.61276e-05
0.000732672
0.0143783
-0.000163066
-4.00905e-05
-0.000668836
-0.000186397
-0.0289345
0.107799
-0.0788646
7.66219e-06
-1.72241e-05
-5.30484e-06
-2.84707e-05
-0.000111718
0.000304627
-0.000224097
-0.00232313
0.0579421
-0.055619
0.000279445
-2.65426e-05
-1.159e-05
-5.98501e-05
4.01985e-05
0.000110065
-0.00023752
-0.00110961
-0.00122689
-0.000494954
-3.53578e-05
9.28851e-05
-3.37174e-05
-7.47859e-05
-5.53308e-06
-3.23601e-05
4.81214e-06
4.79086e-06
-6.36648e-05
-8.77295e-05
-0.00217998
-0.000468081
-0.000245096
-5.55508e-06
0.00025065
0.00321857
-0.00118876
-0.00202981
0.000675524
6.41957e-05
-0.00073972
0.0003297
0.000266462
-0.000596161
0.0399016
-0.0688361
-0.000203787
6.10463e-06
0.00319114
-0.00316409
-2.70235e-05
-7.58403e-05
-5.19237e-05
0.000127763
0.000420615
-0.000824895
-4.99771e-06
-2.91226e-06
8.97977e-05
2.68994e-05
-0.000116698
-0.00105837
0.00300149
-0.0597613
0.0513839
0.00837742
2.1566e-05
-1.15545e-05
-1.00156e-05
-0.000258581
-3.32471e-06
1.87028e-06
1.06967e-05
-6.00659e-06
-4.69072e-06
7.18068e-06
3.04908e-05
-3.76719e-05
0.00207901
0.00244336
-0.00452236
0.000634529
-0.00523455
0.000274781
0.000256773
2.05406e-05
3.28109e-06
-2.38206e-05
-0.000492737
-0.000777882
0.00127062
-7.34601e-05
3.29057e-05
-4.52611e-05
7.48537e-05
-0.001705
-7.16779e-05
-3.2065e-05
-0.000105157
-3.04417e-05
0.0261214
0.00707802
9.01806e-06
-1.21026e-05
3.08458e-06
-0.000157434
-0.000400484
0.00240236
-0.000382604
-0.00201979
5.51466e-05
-9.05046e-05
1.73982e-06
2.3901e-05
-2.56399e-05
9.75251e-06
-2.8445e-07
-4.76006e-05
2.45546e-05
-5.07166e-05
4.42569e-05
-1.82206e-05
-0.000128734
0.000320797
-0.000192062
4.84427e-05
-0.000101488
-7.82764e-06
3.65768e-05
-4.42523e-06
1.95207e-05
-1.50943e-05
-0.00139046
-0.00106558
0.00709779
-0.00831851
0.00696861
0.00134991
-0.0450949
0.0524559
0.00402306
-0.000512258
0.00157919
-1.98097e-05
2.69901e-05
-0.000919237
0.00128321
-0.00216853
-7.66548e-05
0.00224522
0.000819101
0.000562284
0.0133107
-0.00427719
-0.0090335
1.73914e-06
2.17115e-06
-8.45453e-06
8.68954e-06
-2.34441e-07
-2.00414e-05
9.06147e-06
1.09814e-05
-0.000302399
0.000266277
3.61209e-05
-0.00155169
-0.00392504
-2.53961e-05
2.71364e-05
0.0155657
-0.00327133
-0.0122944
0.000259845
-6.30087e-05
-0.000196836
-0.0331111
0.090162
-4.15624e-05
7.25292e-05
-7.87231e-05
9.45555e-05
0.000408042
-0.000203946
0.00138502
-0.00555775
0.00242046
0.00313735
-0.00270378
-0.00561472
2.67641e-06
-9.37083e-07
-0.00203618
0.00175477
-2.97654e-05
5.27189e-05
-2.29546e-05
0.000737912
6.40012e-05
-5.38212e-05
-0.0178314
0.00739524
0.0104362
0.0010955
-0.00063848
-0.000457012
1.00904e-07
4.71041e-05
-4.72042e-05
1.0568e-05
1.09972e-05
0.000647122
-0.000491615
-0.000155507
0.000158763
-7.07539e-05
-8.80099e-05
0.0212894
0.00190903
-0.00364687
-0.0413406
6.73229e-06
3.96366e-06
9.23661e-05
-3.72196e-05
-1.49885e-05
3.81128e-06
0.00163627
-0.00346622
0.00182996
-0.00725223
0.074392
-0.0671397
-1.2447e-05
7.7217e-06
0.00369082
-1.82694e-05
-5.04906e-05
6.87589e-05
-0.0108205
-0.0070108
0.000302228
0.000436986
-0.0240078
0.0197774
0.0042304
2.46996e-05
1.10444e-05
-3.57444e-05
-5.20473e-06
4.14461e-06
1.06021e-06
-0.00170975
0.00509073
2.62412e-05
5.51842e-05
-2.00106e-05
-3.51719e-05
1.05563e-05
6.30885e-05
-7.3644e-05
3.56175e-05
2.51083e-05
-6.07253e-05
8.31171e-05
2.54251e-07
2.44452e-05
0.00195577
-0.0118901
0.00993444
-0.000105607
7.18895e-05
8.65453e-05
0.000218825
-0.000305355
-0.000743606
-0.017233
-0.00598676
0.0232197
0.000630191
0.0110299
0.0419767
-0.000103174
0.0302418
-0.0117602
-4.12471e-06
1.73986e-06
2.38597e-06
0.000566981
-8.48761e-05
-0.000482105
2.01211e-05
-1.58893e-05
-4.23109e-06
3.81378e-05
-6.04347e-05
2.22957e-05
-9.77471e-06
9.50983e-05
1.30431e-05
-1.0022e-06
-1.20401e-05
-0.0150774
0.0127915
4.13148e-05
-0.00135917
0.000809794
0.000549364
2.59216e-05
1.83362e-05
-9.36756e-05
5.86163e-05
3.50594e-05
0.00508404
-0.00120604
-0.00387802
-1.52201e-05
-5.7338e-05
7.25583e-05
-2.49001e-05
-0.00158189
1.83172e-05
-4.80828e-05
0.000474797
0.000699535
-0.00117433
-2.35853e-05
0.000109736
-8.61534e-05
3.55434e-05
-0.000196791
-0.000691258
0.00107149
0.00104991
-0.00030204
-0.0134441
0.0139335
-0.000489365
2.36735e-05
6.54793e-06
1.87573e-05
-1.9648e-05
-0.000150801
-2.72854e-05
0.000140986
0.000118861
0.00228377
-9.72385e-06
7.17894e-07
9.00708e-06
0.0154811
-2.12959e-06
-3.98459e-06
-0.0349666
-0.0100217
0.0449883
0.00130111
-0.00158609
0.000284986
-3.24885e-05
2.25602e-05
9.92925e-06
0.000105428
0.00339801
0.00387592
-1.18939e-05
2.17059e-06
-0.0107852
-0.00381738
-0.000375216
0.000459617
-8.43995e-05
-0.00019222
-9.27615e-07
-2.73869e-05
2.83151e-05
0.00718462
-0.000357918
0.000477689
-0.000119771
0.000295219
-0.00015423
-0.00037704
-0.000227806
-5.45459e-06
2.50132e-07
1.49848e-05
-2.46809e-05
0.000314984
5.21651e-05
-1.39609e-05
-0.000640779
0.00028286
-0.0244757
-0.0192326
0.0437083
-0.000126529
-0.00204199
-0.000396015
-0.000301456
0.000697472
0.000215181
0.000240862
-0.000456039
7.69158e-05
-0.000525301
-2.40457e-05
2.03604e-05
3.68585e-06
-0.000189921
-0.000374516
1.03054e-05
1.30573e-05
-2.33608e-05
-0.000439861
-0.000434185
-0.000288072
-0.00117374
-0.00306825
0.0182714
-0.0152035
-8.22234e-05
-4.10759e-06
2.6438e-05
-2.23308e-05
0.0236846
-0.0296338
2.53473e-06
-7.74128e-06
0.000552514
-0.000222815
0.00101726
-0.00102897
-0.000118793
9.62162e-05
2.25772e-05
5.38157e-06
9.452e-06
-1.48334e-05
0.00305073
-0.0297435
0.0266927
-0.000925284
0.0008454
-0.000278418
-0.000251207
0.000110396
-4.52338e-05
-0.001297
0.00111814
0.000200833
0.000226518
-9.07451e-05
-0.000135773
0.00422392
-1.47326e-05
-4.51195e-05
-0.000169284
0.000655573
-0.000486289
2.34322e-05
0.000102009
-0.00012544
-0.000173936
-3.33178e-06
-5.90125e-06
9.23131e-06
-0.000731887
0.000159709
0.000572177
4.10505e-05
-3.89301e-05
2.76869e-05
1.12433e-05
0.000125403
0.000352285
0.000362113
-0.000768971
0.000406859
0.000300926
-0.000175523
6.20305e-05
3.78664e-05
-9.98985e-05
8.52729e-06
0.000140373
-0.000148901
-2.07212e-05
1.09569e-05
9.76623e-06
0.000195301
7.20728e-05
-0.000267374
-6.91352e-07
9.70967e-06
-3.50177e-05
-8.37732e-05
0.000131943
-0.000140716
8.77223e-06
0.0033679
0.00596781
-0.00933582
-0.00136879
-0.00418897
0.000343568
-2.85852e-05
-1.01007e-05
0.0170883
0.00659628
-1.08934e-05
-1.59253e-06
1.24869e-05
0.00177574
-0.00185237
-0.0676914
0.0938052
0.000546221
-5.67526e-06
1.80744e-05
-1.2398e-05
-3.40653e-06
5.09917e-07
1.25047e-06
-1.76038e-06
1.36247e-05
-3.5963e-05
2.23394e-05
5.14277e-06
-1.0818e-05
0.000269737
-0.000175365
2.12238e-05
-1.99727e-05
-1.25204e-06
0.000522426
-0.000427538
-1.14046e-05
1.67863e-05
-0.00212459
0.00331583
-0.00119125
0.0303269
1.51733e-05
-8.57908e-06
-6.59311e-06
0.000154072
0.00049305
5.96621e-06
-9.29829e-06
-5.43161e-05
5.01145e-05
0.00255733
-0.00593917
0.00101233
-0.000424754
-0.00123944
-0.00138123
1.17195e-06
-8.35612e-06
7.18412e-06
-0.0730813
0.00016656
-7.53764e-05
-9.11826e-05
3.01554e-05
-0.000259525
-0.00110131
0.00136082
0.000723552
0.0299737
0.00754697
-0.0375208
-1.53814e-05
3.03678e-05
-0.0283887
0.0175684
2.40681e-05
-0.000174906
0.000183336
-8.43137e-06
-0.000800196
-0.000212055
-0.021707
-0.00230086
6.03198e-05
-8.50857e-06
0.000625164
-0.000510002
-0.0073302
0.00174502
0.00558518
6.67982e-06
-3.79592e-06
0.000627327
-0.000412144
-5.17874e-06
-1.78431e-05
2.30222e-05
5.40985e-06
-0.000180291
0.000281376
-0.000101085
9.87235e-05
-4.97243e-05
-3.63634e-05
0.000155304
-0.000697496
0.000661369
-0.00480446
0.00267987
-0.0152342
-0.00647275
0.00016336
-0.000343654
0.00016467
-0.000116273
0.000126427
0.000640939
-0.000767364
0.000111589
5.3886e-05
0.00575328
0.00577835
-0.0115316
0.000922561
8.62621e-05
1.99665e-06
-5.96143e-05
1.51806e-05
4.44325e-05
-0.0107802
-0.0073148
0.0180949
0.000241181
0.000273252
-0.000514427
0.000191297
-0.0013166
0.0011253
0.107339
0.0176937
0.00033647
6.52293e-06
6.52048e-06
4.75443e-05
-4.74609e-05
-5.81453e-05
2.0716e-05
-1.04087e-05
0.0146736
-0.00439869
-0.010275
-0.000149977
-0.000144605
0.000294623
-6.33163e-05
3.03857e-05
-0.000552148
-5.87747e-05
-1.41575e-05
-3.42213e-06
-1.54874e-05
-5.17815e-06
2.06654e-05
-0.0342363
0.00308472
0.000773366
-0.00385802
4.95967e-05
-1.14581e-05
-8.84952e-07
-1.87199e-05
-1.17962e-05
-8.54821e-05
2.49165e-05
-1.99643e-05
-4.95116e-06
-7.7008e-05
0.00416039
-0.00208138
-0.000763497
0.000443221
0.000320291
7.97027e-06
1.2151e-05
-0.0216479
-0.000862681
0.00105398
-0.00622661
0.0143809
-0.00815429
-0.0749436
-0.00376053
-0.00356966
-0.000742675
6.60974e-05
0.000676579
8.5845e-06
2.35669e-05
3.8468e-05
-1.25462e-05
0.00804719
-0.00787761
-0.000169602
0.000287346
0.0181114
-0.0187
-0.00344708
-0.00120161
0.000114745
4.08806e-05
-3.8687e-05
-2.19378e-06
-2.1911e-05
6.53099e-06
4.50007e-05
-0.000685781
0.00571948
0.00208021
0.00113836
-0.000143872
0.000361827
-0.00021795
5.67418e-05
-0.000106424
4.96806e-05
-5.29951e-06
-1.4733e-07
-0.00475765
-0.0550036
-0.000405548
-4.74908e-05
0.000453038
-3.1429e-05
0.000427366
-9.94036e-05
0.000126303
-0.0060627
0.0025919
0.00347088
-0.0630407
0.0607175
0.00381571
-0.00903465
0.000641071
-0.000238888
-0.000402185
-7.27206e-06
-1.36526e-06
-0.00341995
-2.19698e-05
6.48252e-06
-0.000976088
-0.000189129
-0.000473855
0.00143065
-0.00241301
0.076805