/*--------------------------------*- C++ -*----------------------------------*\
| =========                 |                                                 |
| \\      /  F ield         | OpenFOAM: The Open Source CFD Toolbox           |
|  \\    /   O peration     | Version:  v2012                                 |
|   \\  /    A nd           | Website:  www.openfoam.com                      |
|    \\/     M anipulation  |                                                 |
\*---------------------------------------------------------------------------*/
FoamFile
{
    version     2.0;
    format      ascii;
    class       volScalarField;
    location    "200";
    object      k;
}
// * * * * * * * * * * * * * * * * * * * * * * * * * * * * * * * * * * * * * //

dimensions      [0 2 -2 0 0 0 0];


internalField   nonuniform List<scalar> 
13917
(
0.0172639
0.000183012
0.000226948
0.000150152
0.000170052
0.000182672
0.000159193
0.00023138
0.000156891
0.00289569
0.000227433
0.000147732
0.000166285
0.000684476
0.000161752
0.0141108
0.000146671
0.000211641
0.000195583
0.013385
0.000168957
0.000147319
0.000175171
0.000147327
0.000153399
0.000171792
0.0296389
0.00246566
0.000184025
0.00013349
0.00164765
0.000184436
0.000150375
0.0293091
0.00014433
0.000254906
0.000155671
0.000159955
0.000159289
0.000170996
0.000145935
0.000144804
0.000154267
0.000193934
0.000193793
0.000166781
0.000167511
0.0118535
0.0228328
0.000144437
0.000147437
0.000201848
0.00782177
0.000147108
0.000147748
0.000200878
0.000566457
0.000175168
0.000144135
0.000174171
0.0282308
0.000200397
0.000138916
0.000152921
0.0291862
0.000520539
0.000189116
0.000255027
0.000216793
0.0167875
0.0172333
0.0271227
0.000146943
0.000142988
0.000169899
0.0001547
0.000156886
0.000142591
0.000154183
0.000150622
0.000149891
0.000147596
0.000146726
0.0178739
0.000140683
0.00026689
0.000183663
0.000144819
0.000170522
0.000146339
0.000137692
0.000154587
0.0211482
0.000142253
0.000150102
0.000187961
0.00930396
0.000149887
0.000143939
0.000231587
0.000142079
0.000141374
0.000150112
0.000143851
0.000156778
0.0176698
0.0244412
0.000199317
0.000145792
0.0352426
0.000143987
0.0303329
0.000182978
0.0118982
0.0286201
0.000155663
0.000194282
0.000138805
0.000206743
0.000145712
0.000147122
0.000141418
0.000194578
0.000193339
0.0188676
0.0222972
0.000152441
0.000171242
0.000142565
0.000193458
0.000165254
0.000224544
0.0417924
0.000155614
0.000187903
0.0347924
0.0315069
0.0202682
0.000174316
0.00015949
0.00121817
0.000141997
0.0163087
0.000142063
0.00014609
0.00016648
0.0165646
0.00568377
0.0125784
0.000147486
0.000168631
0.000140351
0.00014577
0.000145805
0.0164426
0.000149848
0.000143314
0.0426
0.000143419
0.000140218
0.000140815
0.0286903
0.000159989
0.000877186
0.0246799
0.000216577
0.00720112
0.0208347
0.000128125
0.000176249
0.000148031
0.0401052
0.000156779
0.0271625
0.000189169
0.00014172
0.000150124
0.000204562
0.00016457
0.000160991
0.000154095
0.000147539
0.000147441
0.000220571
0.000206706
0.00022336
0.000147175
0.000226818
0.000133546
0.000230391
0.000189565
0.000192388
0.000202901
0.0172797
0.000142241
0.0191825
0.000158336
0.0410847
0.000144007
0.000149085
0.00016492
0.0165417
0.0175262
0.00015462
0.0287501
0.000173915
0.000169144
0.000141954
0.000203634
0.000149876
0.000139213
0.000194358
0.000199635
0.0123055
0.000187376
0.000173172
0.032993
0.000153546
0.000134905
0.000134787
0.0183592
0.000207134
0.000163986
0.000142403
0.000140072
0.0348177
0.0164058
0.000134235
0.000134083
0.000146134
0.000135169
0.000135078
0.0254249
0.0160529
0.000148328
0.000128362
0.000189809
0.0254603
0.000144485
0.000142378
0.0323342
0.0168151
0.000223376
0.0332793
0.000199156
0.00014214
0.0225043
0.000190912
0.000180262
0.000187859
0.000153972
0.0143828
0.000145942
0.000173558
0.000186381
0.000148802
0.000147071
0.000152826
0.000166524
0.000144373
0.0249558
0.0210445
0.000141543
0.000134029
0.000150499
0.000134063
0.000145987
0.000166894
0.000169755
0.000142125
0.0245104
0.0258659
0.000144913
0.000158956
3.39064e-05
0.000134284
0.000201404
0.0281316
0.00013438
0.0207376
0.000143907
0.0277535
0.00014234
0.000158201
0.0001491
0.000141786
0.00020223
0.000153635
0.000877331
0.000161853
0.0209211
0.000171403
0.0107567
0.0199737
0.000140913
0.000179359
0.000168371
0.000156362
0.000169428
0.000154008
0.000142767
0.000151598
0.000205466
0.00019035
0.000172611
0.000153641
0.000142242
0.0423328
0.0140866
0.000141759
0.000146015
0.000156408
0.000114671
0.000197601
0.0277433
0.0263066
0.000378144
0.000231662
0.000157635
0.01457
0.00026028
0.000224064
0.000165435
0.00016068
0.0274711
0.000149036
0.000187783
0.000192174
0.000145635
0.0398051
0.00014109
0.000171528
0.000136931
0.00578659
0.000137881
0.000170945
0.000174583
0.00032298
0.000145028
0.000187698
0.013647
0.00014971
0.000149013
0.0325309
0.0143777
0.0202375
0.000500398
0.000134028
0.000148165
0.0176537
0.000228445
0.000134157
0.000169928
0.000147185
0.000182801
0.00017175
0.00019852
0.000199338
0.000201875
0.00017132
0.0252571
0.000142941
0.000149729
0.000175331
0.000208541
0.000145282
0.015227
0.000171081
0.00365268
0.000148087
0.000209703
0.000146663
0.0198286
0.000144527
0.00016413
9.3472e-05
0.000177236
0.000145252
0.00342676
0.000137901
0.0247354
0.000203735
0.000144503
0.0221763
0.000150442
0.00374917
0.00013797
0.0148914
0.00376839
0.000154448
0.0352802
0.000193454
0.000152901
0.0259267
0.00022367
0.000153328
0.000202546
0.000147621
0.000195736
0.000225557
0.00014131
0.000158201
0.000153516
0.000141528
0.000138986
0.000143401
0.0338579
0.000239797
0.000148869
0.00014396
0.000146325
0.000179016
0.000342114
0.000135263
0.000128273
0.000197028
0.000209668
0.000142113
0.000154052
0.0215961
0.0180618
0.000706297
0.000196527
0.00858966
0.000139141
0.000134816
0.000166464
0.000138882
0.00013537
0.000148642
0.000134948
0.000138703
0.0201418
0.000147958
0.000172617
0.0266448
0.0001793
0.000139447
0.000145548
0.0261261
0.000165282
0.0161284
0.000136268
0.00014248
0.000138379
0.000135469
0.000155338
0.000151085
0.0197527
0.000168226
0.0193603
0.000142434
0.000167739
0.000170173
0.000149576
0.000197617
0.0204182
0.000146894
0.0262708
0.000139797
0.00014246
0.000145905
0.000150476
0.000138715
0.000149846
0.0421424
0.0274791
0.000138504
0.0129381
0.000196328
0.000147374
0.000181841
0.00018661
0.0264301
0.000159297
0.0187225
0.00444479
0.00469593
0.000151107
0.000407978
0.000170792
0.000153497
0.00861255
0.000138871
0.000146686
0.000150121
0.00015758
0.000167644
0.000202867
0.0001794
0.000162651
0.000161806
0.000205345
0.0001801
0.000148865
0.00187066
0.000169062
0.000161765
0.0253951
0.000140754
0.000181326
0.000207355
0.00013817
0.0411495
0.000143339
0.000135441
0.000179852
0.000136352
0.00015173
0.000205456
0.0443923
0.0304288
0.000140729
0.000150719
0.00015202
0.00516645
0.0038052
0.000148298
0.000147455
0.000140508
0.000183925
0.00548979
0.000143188
0.000144663
0.000148598
0.000141259
0.000160154
0.000161792
0.000140425
0.000179938
0.000138188
0.000146646
0.000153173
0.0283938
0.00013465
0.000154
0.000144347
0.000166887
0.000186027
0.000187921
0.000187699
0.000240306
0.000152557
0.000196514
0.0399071
0.0198737
0.030086
0.000140979
0.00014552
0.000184201
0.000143628
0.0297873
0.000134735
0.009407
0.000158254
0.03427
0.000207553
0.000154327
0.0119346
0.000138442
0.00018289
0.000149503
0.00014797
0.0364292
0.000135754
0.000218443
0.000140703
0.000154744
0.000145937
0.000201077
0.000162268
0.000133684
0.000194031
0.00018119
0.00655171
0.0116833
0.0427454
0.0258716
0.000134709
0.0170999
0.000135741
0.0296513
0.00740092
0.000150026
0.000145329
0.000141662
0.000168669
0.00015362
0.000135864
0.000149586
0.000164777
0.00737065
0.000141228
0.000182018
0.000146336
0.000133561
0.000143142
0.000241949
0.0197927
0.00990855
0.000186531
0.000161529
0.000778975
0.0267757
0.000138337
0.014929
0.000162993
0.000193443
0.000143605
0.00301381
0.00014103
0.000160706
0.000146342
0.00706786
0.000169849
0.0316142
0.000141213
0.000168671
0.000144491
0.00014295
0.0265722
0.000206508
0.000145422
0.000199884
0.000142239
0.0001468
0.00014131
0.0290146
0.000141244
0.000168247
0.000134642
0.000144929
0.000208932
0.000140665
0.000197612
0.000148771
0.000138
0.0295635
0.000182711
0.000147879
0.00826771
0.000211391
0.000285215
0.00020741
0.000138251
0.000163603
0.0262162
0.000234138
0.00016502
0.00015567
0.00016169
0.000147933
0.000143159
0.00038408
0.000188074
0.000157
0.0250878
0.000170246
0.000544692
0.00651817
0.000192948
0.000169546
0.00020203
0.0225113
0.000142761
0.000199097
0.000400235
0.000138089
0.000142416
0.000142994
0.000154822
0.000152569
0.0173279
0.000166812
0.000141248
0.000190951
0.000140498
0.0293377
0.000143907
0.000142568
0.0437268
0.000184285
0.00348519
0.000147605
0.000141025
0.000142327
0.000149617
0.000161258
0.000141759
0.0179808
0.000164151
0.00453974
0.0034047
0.000199322
0.0428095
0.00015078
0.000149199
0.000144838
0.0296738
0.0327075
0.000158939
0.0182289
0.00664019
0.000137991
0.00014215
0.000155427
0.0168328
0.00428014
0.000170174
0.000149463
0.000154022
0.000194288
0.000155632
0.000197773
0.000167071
0.000149796
0.000150735
0.000148898
0.000161103
0.00016204
0.000242195
0.000157209
0.000158238
0.0177621
0.00014121
0.00855972
0.000154929
0.000172947
0.00015793
0.000223788
0.00014687
0.000181371
0.0182616
0.00598876
0.00014386
0.000157197
0.000156894
0.00014263
0.000146082
0.000170812
0.000169351
0.000237841
0.000198209
0.000137997
0.000242511
0.000156815
0.000157673
0.000200353
0.000148544
0.000182891
0.00807323
0.000133749
0.000184064
0.000194091
0.000166757
0.000141008
0.000138987
0.000143129
0.0145924
0.000150182
0.000144608
0.000171144
0.000142067
0.000140046
0.000199976
0.00111691
0.000186283
0.0222611
0.000180282
0.0180597
0.000146105
0.000158235
0.000242886
0.000150301
1.09223e-05
0.00014484
0.000142036
0.000147472
0.00015818
0.000188766
0.000140992
0.0010472
0.000147636
0.00917672
0.000154966
0.000159114
0.00013693
0.00018811
0.000159083
0.0253102
0.00018784
0.000147748
0.027688
0.000151074
0.0233757
0.000153141
0.00021348
0.000154167
0.000140236
0.00014366
0.0387459
0.000161031
0.000287726
0.0178956
0.000142526
0.000167095
0.000128199
0.000173298
0.00339269
0.000128556
0.0220156
0.00015412
0.000209596
0.000193957
0.0053014
0.000135217
0.000142776
0.000202027
0.000138188
0.000146815
0.00015272
0.000145125
0.000171306
0.000135089
0.000226754
0.000149795
0.0164102
0.0231059
0.000326354
0.020496
0.0272202
0.014702
0.00186557
0.000137469
0.000146288
0.000145268
0.000151119
0.000140583
0.000161243
0.000141904
0.000324243
0.00014718
0.00163692
0.000149868
0.000163305
0.000197692
0.000141502
0.000172492
0.000151084
0.000148792
0.000158245
0.000138041
0.043772
0.000189772
0.000625266
0.000141752
0.000143786
0.000148365
0.000148097
0.0252295
0.000137674
0.000218355
0.00014081
0.00413962
0.000157249
0.000142029
0.000182214
0.000207139
0.000137801
0.00344185
0.0125918
0.000155524
0.000187883
0.000138077
0.000234659
0.000139246
0.000148107
0.0225139
0.00014475
0.000150414
0.000190574
0.0209535
0.000141642
0.00925397
0.00194972
0.00014515
0.000152484
0.000145545
0.00582763
0.000143531
0.000195316
0.000146778
0.0419703
0.000158148
0.0207574
0.000143911
0.000134157
0.00415472
0.000156378
0.000140685
0.0378453
0.000152526
0.00013898
0.00225071
0.0001451
0.000146257
0.000187563
0.000152991
0.0308437
0.000171284
0.000186443
0.000205948
0.000153883
0.0408334
0.000150617
0.000185756
0.00014287
0.0266811
0.00456144
0.000148082
0.000139526
0.000146676
0.000148291
0.000139032
0.000139396
0.000141995
0.000143502
0.000162397
0.000133752
0.000152002
0.000185953
0.0237864
0.0267185
0.000189334
0.00014839
0.00426663
0.000141373
4.33296e-05
0.00460033
0.00654919
0.000135155
0.000137568
0.000145593
0.000146381
0.000134913
0.000138325
0.000141835
0.00017048
0.000139043
0.00884532
0.00271925
0.000139556
0.0379908
0.000142982
0.000143428
0.000191473
0.0299885
0.000182581
0.000141192
0.00378424
0.000143252
0.000143546
0.00017426
0.00014676
0.0138853
0.000150695
0.000256582
0.000139495
0.000141718
0.000165273
0.000319261
0.000152289
0.0293647
0.000214828
0.000156723
0.000153337
0.000143818
0.000138762
0.00019048
0.000166075
0.000156669
0.032278
0.0105713
0.000261524
0.000191473
0.000141551
0.0314308
0.000141352
0.0257383
0.000185167
0.000158332
0.000151773
0.0301275
0.0282821
0.00150052
0.000150282
0.00912859
0.000139037
0.000141924
0.000166973
0.000149475
0.000146511
5.71899e-05
0.0205791
0.000141773
0.000159254
0.025212
0.000140606
0.000134154
0.00891703
0.0307012
0.000150733
0.00013647
0.000158691
0.000145331
0.000143157
0.000171043
0.000158844
0.000144959
0.00449139
0.000151255
0.000228312
0.00413036
0.000203385
0.0270715
0.000147886
0.000149623
0.000753936
0.0207109
0.0031166
0.000144207
0.000167268
0.000148861
0.000150821
0.000141488
0.02543
0.000163486
0.000149683
0.000178559
0.000141721
0.0059278
0.000187645
0.000195049
0.000180907
8.68493e-05
0.00467388
0.0158941
0.0376688
0.000159741
0.000131006
0.000134347
0.000183064
0.000190744
0.0030211
0.000155781
0.000148026
0.000157392
0.000136124
0.000152867
0.0257685
0.000168004
0.000195562
0.0248168
0.000141861
0.000192924
0.000153843
0.000146767
0.000168051
0.00020216
0.000135355
0.00013752
0.000151881
0.00662322
0.000139018
0.000152583
0.000153539
0.000150611
0.000145492
0.000197637
0.00018475
0.000149691
0.000141348
0.000209605
0.000425554
0.000176993
0.0417283
0.000148127
0.000143325
0.0308267
0.000144616
0.000153188
0.0379755
0.028528
0.000165244
0.00018317
0.000160168
0.0143346
0.000210301
0.000166565
0.0135021
0.000142751
0.000190385
0.0248982
0.000207754
0.00595117
0.0197958
0.000138538
0.000146266
0.000165678
0.000145758
0.000146981
0.000242965
0.000144875
0.000174923
0.000135515
0.000179924
0.0266998
0.00015312
0.00515778
0.024105
0.000143375
0.000186993
0.000159672
0.000152188
0.000142692
0.0309966
0.00018595
0.0224242
0.000160598
0.0247096
0.000195242
0.000141124
0.000325646
0.000168128
0.000136628
0.000142254
0.000206145
0.000142743
0.00015808
0.000170891
0.00015831
0.000149027
0.000179505
0.017651
0.000140938
0.000231695
0.000269123
0.000146877
0.000141165
0.000165538
0.00163074
9.91508e-05
0.000139567
0.000162469
0.000181702
0.00539035
0.0171473
0.000146014
0.000139062
0.000138485
0.000143864
0.000166979
0.000155015
0.00177045
0.000148585
0.000155132
0.000126422
0.00018878
0.000189059
0.0308971
0.0255505
0.000147821
0.000144347
0.000138646
0.000151661
0.000184913
0.0421602
0.000734619
0.000199237
0.000164685
0.000176865
0.00015341
0.000275042
0.000157662
0.000193416
0.000142228
0.000232481
0.000292936
0.000138601
0.000147326
0.0351193
0.000177624
0.000132295
0.023744
0.000205747
0.000142331
5.29481e-05
0.000160265
0.000141402
0.0182111
0.00352181
0.000142318
0.000166185
0.000194079
0.000167045
0.000150268
0.000134934
0.000141319
0.000139173
0.000142527
0.000162828
0.000177885
0.0221478
0.000167538
0.000157619
0.000164026
0.000193934
0.000140962
0.000168107
0.000189777
0.000217354
0.0244872
0.000152042
0.000134798
0.0279853
0.000139999
0.00274836
0.000152154
0.000172728
0.00014863
0.000140428
0.00012692
0.000158432
0.000151652
0.000143685
0.0445774
3.79867e-05
0.0264564
0.000147096
0.00014612
0.0212261
0.000140125
0.000139277
0.000210346
0.00526763
0.000159637
0.000166311
0.000150029
0.00706146
0.000141524
0.000154503
0.00014898
0.000134633
0.000217599
0.000141531
0.000138944
4.36454e-05
0.000180579
0.0385862
0.000216113
0.000140979
0.000162969
0.000140077
0.000141928
0.000153688
0.000152113
0.000146499
0.000209794
0.0001459
0.000188234
0.000166478
0.000152
0.000145542
0.000144829
0.000142908
0.0318054
0.000135156
0.000232816
0.000184849
0.000154937
0.000177892
0.000166158
0.000163298
0.000145462
0.00018121
0.000139455
0.000138597
0.00445785
0.000175987
0.000172612
0.000143095
0.000143687
0.000140216
0.000202751
0.000141699
0.0324168
0.000175519
0.000142185
0.000141984
0.000137077
0.000175439
0.000290849
0.0292325
0.000106996
0.00568037
0.000149761
0.000197509
0.000153899
0.0240396
0.000135469
0.000134793
0.000156536
0.000577154
0.000137362
0.0335335
0.000146463
0.000143928
0.000211634
0.000197125
0.0150086
0.000967859
0.000157557
0.000233956
0.000282819
0.000139055
0.0251078
0.000143062
0.000141613
0.00637132
0.00013631
0.0348654
0.0006825
0.000140609
0.000143688
0.00013936
0.0416152
0.000143475
0.000134928
0.000186608
0.000141029
0.000139754
0.000147419
0.000139079
0.000173868
0.000146957
0.000155625
0.000137105
0.0155381
0.000182808
0.000137277
0.000137359
0.000150508
0.000141857
0.000154166
0.00014755
0.000143479
0.000147191
0.000143367
0.000151177
0.000144864
0.000196293
0.000137053
0.000188448
0.000146744
0.00019181
0.000139231
0.000146288
0.00014174
0.000135485
0.000169124
0.000157303
0.000156216
0.039296
0.000204882
0.0418568
0.031614
0.000187904
0.0213246
0.000146506
0.000144545
0.00995858
0.0242591
0.000140604
0.0262629
0.000137976
0.000195939
0.00365039
0.000153939
0.000189384
0.00608986
0.0301984
0.000142853
0.000174936
0.000139739
0.00410571
0.000154918
0.0376874
0.0142399
0.000147318
0.000209072
0.00101578
0.000147417
0.00359644
0.00388073
0.000153166
0.000139111
0.000823378
0.029068
0.000138993
0.000164427
0.000148345
0.00151554
0.000206682
0.000145903
0.000139564
0.000932757
0.000141507
0.000143419
0.000149638
0.000137692
0.000546056
0.000160932
0.000161218
0.032852
0.000142551
0.000183791
0.000146731
0.000553104
0.000181458
0.00378914
0.000138915
0.000159997
0.000138738
0.000145769
0.000153794
0.000145133
0.00687898
0.000151708
0.000138128
0.000141027
0.00337337
0.000138978
0.00231107
0.012812
0.00981866
0.000145713
0.000140233
0.000141615
0.0068869
0.000147945
0.00970266
0.000143477
0.00634459
0.000152814
0.00014879
0.000134928
0.000146502
0.000146429
0.0278509
0.000194312
0.0333323
0.000145817
0.0329609
0.0139441
0.000146084
0.0290672
0.000147239
0.00015627
0.0243108
0.000153328
0.000178437
0.0221198
0.000165382
0.000184754
0.000145296
0.00469567
0.000143303
0.00240964
0.000141594
0.0203693
0.000143485
0.000144425
0.000153285
0.00950559
0.000140582
0.000201719
0.0001841
0.0108896
0.000142009
0.00016344
0.0387457
0.000314003
0.000351993
0.00018994
0.000139223
0.000196364
0.00384876
0.000155061
0.00184128
0.000134478
0.0002026
0.0159356
0.000141121
0.0173544
0.000142006
0.0292198
0.000351959
0.000154545
0.000154554
0.00258486
0.00906206
0.000143471
0.000151926
0.000137876
0.000146194
0.0240678
0.000185898
0.000192784
0.000146292
0.000160149
0.0356169
0.000181693
0.00954133
0.00139629
0.000140661
0.000142808
0.000206166
0.0214679
0.0101178
0.00649787
0.000211566
0.00017081
0.000214752
0.0367541
0.0256516
0.0056515
0.000139112
0.000189902
0.000174835
0.000189111
0.000144317
0.000157606
0.000183731
0.000234953
0.00963844
0.000145733
0.00028991
0.0318916
0.000177215
0.000143129
0.000143206
0.000139331
0.000140747
0.0428841
0.000160982
0.000145954
0.000233943
0.000335182
0.000137166
0.000168549
0.000162428
0.000144611
0.0398024
0.000158412
0.0429737
0.000141396
0.0305958
5.93551e-05
0.000206614
0.00013551
0.000159035
0.000166119
0.000260165
0.00020319
0.000184273
0.0247253
0.000201373
0.000128967
0.000157835
0.000147287
0.00019799
0.016248
0.000137678
0.000136949
0.000151846
5.26873e-05
0.000270825
0.000141751
0.000176832
0.00023545
0.000138963
0.000260586
0.000155081
0.0424229
0.000158449
0.00490942
0.0105707
0.000160943
0.000156204
0.00154929
0.000141109
0.00017967
0.0253229
0.000166751
0.000193541
0.000163672
0.000180444
0.0191882
0.0321354
0.000145085
0.00501744
0.000211025
0.000136361
0.000197012
0.000185376
0.000204534
0.005922
0.00165083
0.00540156
0.0001982
0.0256811
0.000159533
0.00018362
0.00013573
0.000147304
0.000145313
0.000139266
0.000138587
0.000234109
0.000135351
0.000188608
0.000203053
0.00014095
0.00575462
0.0311283
0.000133647
0.000147588
0.000136635
0.000151096
0.000173435
0.000143278
0.0237262
0.000162227
0.000187542
0.00015871
0.000188046
0.000208419
0.000170567
0.000313511
0.000144623
0.00015151
0.000135014
0.000140768
0.03772
0.000191658
0.000162861
0.0264851
0.000146688
0.000149105
0.000167888
0.00013829
0.000141988
0.00018845
0.000156994
0.0252887
0.0421356
0.0281333
0.000145452
0.0373641
0.000142028
9.63211e-05
0.000136984
0.000198116
0.0271232
0.000143928
7.59275e-05
0.0249422
0.000166774
0.000151922
0.000139361
0.000160958
0.0174746
0.000137461
0.000147854
0.000152287
0.000160862
0.000206394
0.000154786
0.00015753
0.000140419
0.000151558
0.001638
0.000167018
0.000153731
0.000197751
0.000198771
0.0380672
0.00974649
0.000158474
0.000150579
0.0253377
0.000144621
0.000184096
0.000145943
0.0240445
0.000147933
0.000148004
0.000179119
0.0266746
0.00014279
0.000138909
0.000135288
0.000202413
0.00983343
0.000202673
0.000143486
0.000153917
0.000139079
0.0325185
0.000140368
0.00524968
0.000179935
0.000146693
0.000220017
0.000171535
0.000651755
0.000149191
0.000139262
0.000163359
0.000177286
0.000212081
0.000147256
0.000148752
0.000147414
0.0319328
0.000145063
0.000151744
0.0313608
0.000152877
0.000171068
0.000155608
0.000142154
0.000143306
0.00408424
0.000153012
0.00885752
0.00408263
0.000131986
0.00617829
0.000148606
0.000197521
0.000177344
0.000152936
0.000135858
0.00013175
0.000143184
0.0132884
0.000175173
0.0315006
0.0280216
0.000139655
0.000167147
0.000170336
0.00156441
0.000143374
0.00363885
0.0335584
0.0190174
0.000142237
0.000152361
0.000149342
0.00212956
0.0373772
0.000144427
0.000144162
0.000163249
0.0221649
0.000146629
0.000152536
0.000152217
0.000195587
0.000162015
0.000135606
0.0270934
0.000161099
0.000143018
0.0122509
0.000179845
0.00975597
0.0135204
0.000166253
0.000156992
0.000152743
0.000160383
0.000149502
0.000209286
0.000176461
0.000143485
0.000155293
0.000230197
0.033928
0.000137297
0.000201426
0.0377987
0.0170631
0.000144115
0.000145396
0.00359929
0.0097316
0.000262016
0.000142129
0.0418022
0.000183707
0.000132775
0.0217847
0.000160183
0.000147419
0.000199096
0.000145127
0.00020948
0.000139893
0.000130674
0.000146135
0.00013525
0.0290929
0.000135132
0.000140967
0.000188336
0.000155979
0.000155835
0.000197403
0.000145605
0.000143533
0.000152402
0.000150954
0.00569138
0.00591756
6.88822e-05
0.00642968
0.000170718
0.00378606
0.000212746
0.0315668
0.0412933
0.02915
0.000139323
0.000165605
0.000143564
0.000146136
0.000141341
0.000147368
0.000208526
0.000180893
0.000171978
0.000140729
0.000142849
0.000179259
0.00014774
0.000148502
0.000145766
0.0346545
0.000164302
0.0133056
0.000145284
0.00454356
0.000149082
0.000147546
0.000149406
0.000172322
0.000140556
0.000191675
0.0303669
0.00017268
0.0269021
0.0054549
0.000155215
0.00016005
0.00429422
0.000201181
0.00013649
0.00014096
0.000131975
0.0284774
0.000130576
0.000260556
0.000244875
0.000189653
0.000244747
0.00032389
0.000183415
0.0407303
0.000139121
0.000135103
0.00159743
0.00783808
0.000144012
0.000145299
0.0209301
0.000139219
0.000224495
0.000155352
0.000139698
0.000157791
0.000144695
0.000187693
0.0297849
0.0266164
0.00015589
0.000144518
0.000190629
0.000151433
0.000191939
0.000139099
0.000197623
0.000190072
0.000148453
0.000147032
0.000132472
0.000209355
0.000205107
0.000207987
0.00109722
0.00016284
0.0159467
0.000186139
0.000194385
0.0272689
0.000142203
0.0286038
0.000150678
0.0344444
0.000125692
0.0275169
0.0269785
0.000148078
0.000180681
0.000926518
0.00014529
0.021885
0.000145267
0.000144765
0.000157559
0.000149693
0.000163244
0.000244488
0.000909763
0.0256076
0.000157739
0.00017185
0.000151401
0.000147198
0.000146343
0.000207333
0.000189379
0.0260983
0.000174717
0.000135726
0.000137931
0.000149021
0.00022031
0.000155324
0.000150277
0.00015673
0.000194868
0.00016405
0.000177233
0.000176925
0.0300596
0.000162334
0.000165268
0.00014341
0.000157671
6.36558e-05
0.000357765
0.000176792
0.000138282
0.0137816
0.000165759
0.000141799
0.000177064
0.0331531
0.00523479
0.000167131
0.000139328
0.025605
0.000148795
0.000139032
0.00013611
0.012371
0.00218189
0.000155121
0.0035773
0.0222531
0.000167572
0.000177039
0.000183855
0.0431145
0.000163703
0.0367855
0.000148877
0.000298351
0.000171987
0.0358437
0.000166131
0.000139999
0.0360947
0.000145309
0.000150645
0.0200849
0.00906132
0.000176401
4.31821e-05
0.000155
0.000151563
0.00704086
0.00014175
0.000141097
0.000145054
0.000175269
0.000143217
0.000167526
0.000167264
0.00232816
0.002797
0.000149982
0.0222832
0.000166258
0.0337604
0.0273942
0.000144885
0.000147417
0.00015684
0.000408525
0.000208171
0.000186044
0.0323689
0.0271455
3.98749e-05
0.000149088
0.00602916
0.0232589
0.000202064
0.00104227
0.000146571
0.000144294
0.000145078
0.000150756
0.000142002
0.000165584
0.0269858
0.000165734
0.00332134
0.0151623
0.00211782
0.0275169
0.0382533
0.000159903
0.0391202
0.000196419
0.000186416
0.000136801
0.000145689
0.000184733
0.0237312
0.0001505
0.0235158
0.0373651
0.000139867
0.000145737
0.000145244
0.000195903
0.000149181
0.000188089
0.0291293
0.000137075
0.000142753
0.000139529
0.000150364
0.000191578
0.0291842
0.000170721
0.0125744
0.000201364
0.000141144
0.00508488
0.000210914
0.000145465
0.000132195
0.00196198
0.0245759
0.000888664
0.0256865
0.00014471
0.00770922
0.0306446
0.000210573
0.0161995
0.000141159
0.000153261
0.000154664
0.000153056
0.0245545
0.000186048
0.000147185
0.000159722
0.00505919
0.0303929
0.000148524
0.000143931
0.0429964
0.0378395
0.00014703
0.000161247
0.000198739
0.000142265
0.000142966
0.0280897
0.000140885
0.000237399
0.00496299
0.0264442
0.000140361
0.000187234
0.000199685
0.000141478
0.000133662
0.0434836
0.00821751
0.000147614
0.000170928
0.000207068
0.000214141
0.0400436
0.00250082
0.00015774
0.00506677
0.00384872
0.000167433
0.000140412
0.000235165
0.00013483
0.000134817
0.0249443
0.000170039
0.000195803
0.000155194
0.000158065
0.000140746
0.00013572
0.000149777
0.000150578
0.00996867
0.000154768
0.000234509
0.0182711
0.000173957
0.000186525
0.0184686
0.0340291
0.0114585
0.000138905
0.000155928
0.000168011
0.000157335
0.000223155
0.00368988
0.00014969
0.000689299
0.0294504
0.000159232
0.000190293
0.000187612
0.000191898
0.000193509
0.000151734
0.000195512
0.000197427
0.000199809
0.000202074
0.00019427
0.000189955
0.000163108
0.000140275
0.000165636
0.000190231
0.000140665
8.69312e-05
0.0407506
0.00023327
0.0353403
0.000133187
0.000138327
0.00029646
0.0192258
0.000150309
0.000154698
0.000182961
0.0290468
0.0163482
0.000145154
0.000167113
0.00015667
0.0137081
0.00524782
0.000154534
0.000289144
0.0304768
0.000192697
0.0369683
0.00019558
0.00317361
0.0403405
0.000128065
0.0377269
0.0332184
0.000151134
0.000188375
0.00019906
0.000156219
0.000139874
0.000580903
0.0152669
0.000140323
0.00014071
0.0212809
0.000189638
0.000192223
0.000147593
0.000227335
0.000200705
0.0371791
0.0270059
0.000145399
0.000142666
0.000150103
0.000155852
0.0345866
0.0212278
0.0316441
0.000188904
0.000127361
0.00585133
0.000156143
0.000139975
0.0302682
0.00014078
0.0376164
0.000139171
0.0377619
0.000151135
0.00015037
0.00345075
0.000144663
0.000194268
0.00247149
0.000166016
0.000153335
0.000151517
0.000207004
0.025523
0.000211635
0.035484
0.000162677
0.000153496
0.000160098
0.000190962
0.0404514
0.026913
0.000199169
0.000216472
0.000196018
0.012163
0.000139949
0.000140552
0.000137238
0.000136818
0.00010785
0.000212619
0.00466697
0.000172138
0.000199393
0.000141421
0.00366148
0.000175651
0.0129487
0.000143376
0.000152004
0.00013087
0.0327857
0.000127701
0.0099781
0.000133012
0.00019572
0.000149053
0.000132218
0.00016906
0.000210466
9.20705e-05
0.000121797
0.000144951
0.000197366
0.000148811
0.000147106
0.000203162
0.00639844
0.000463116
0.000147805
0.000195241
0.00022577
0.0292368
0.0188696
0.0324505
0.027481
0.000141342
0.000183945
0.000145913
0.000198157
0.000142765
0.000203424
0.000152092
0.000177591
0.00421082
0.00248376
0.000159304
0.000203094
0.0333697
0.000196293
0.000152868
0.0205857
0.000194126
0.000150187
0.000148228
0.0255275
0.000161604
0.000207878
3.78212e-05
0.00456286
0.0205111
0.00015598
0.0249534
0.0302036
0.0140601
0.000685568
0.000164509
0.000193738
0.000192147
0.0301995
0.000214767
0.000149843
0.00115886
0.000219464
0.000116149
0.000160976
0.0237821
5.06029e-05
0.00253788
0.000157735
0.000306347
0.000155229
0.0266459
0.000210413
0.00478575
0.0154271
0.000139033
0.000130791
0.0291909
0.0368203
0.000205384
0.000149456
0.000172875
0.000164101
0.0222006
0.000228108
0.0330484
0.000158334
0.0326862
0.000206375
0.0140728
0.000149624
0.000193934
0.0259718
0.000160927
0.000189082
0.000132776
0.000155129
0.000145972
0.00466535
0.000141831
0.000145541
0.0396405
0.0106825
0.000136662
0.0389949
0.000150552
0.000145632
0.000142333
0.000140395
0.000147395
0.000178012
0.0406412
0.00013732
0.0035647
0.000184793
0.000175821
0.0024042
0.00018947
0.000157517
0.000164321
0.00014186
0.00438802
0.000166033
0.0394883
0.000168133
0.0196476
0.000819527
0.000188236
0.0012661
0.0322586
0.000137792
0.0239427
0.000181704
0.000184747
0.000187286
0.00014209
0.000235548
0.000210034
0.000145403
0.000276798
0.000142854
0.0282815
0.000199204
0.0151459
0.000205941
0.000203826
0.0389162
0.000146017
0.000142781
0.000182857
0.000152414
0.000147346
0.000147643
0.000160221
0.000141128
0.000141211
0.000151647
0.000174038
0.000153164
0.000160667
0.000155576
0.000174079
0.000193213
0.000153967
0.0302147
0.000153293
0.000141893
0.000190966
0.000172185
0.000156638
0.000141128
0.00194371
0.000152936
0.0288863
0.000153467
0.000200351
0.000142163
0.000144878
0.000202998
0.0418107
0.000185767
0.000169602
0.000133086
0.0374336
0.000146231
0.00014093
0.0001876
0.000154402
0.000203347
0.0335138
0.000192699
0.000225692
0.000172197
0.0204723
0.000145618
0.000146384
0.000186072
0.00531496
0.000181811
0.000197456
0.0255648
0.000160738
0.000145732
0.000160457
0.000225566
0.000180488
0.000145625
0.000192545
0.000192106
0.000185306
0.000147253
0.000145724
0.000220427
0.000185325
0.00110708
0.00367141
0.00015334
0.000186569
0.000147093
0.000173647
0.00244729
0.000147292
0.000207459
0.000496344
0.000193173
0.0133964
0.000144913
0.00014448
0.000141517
0.0384002
0.000214901
0.000153869
0.000202251
0.000194191
0.00014681
0.000144992
0.000217344
0.0387238
0.00022474
0.0320947
0.000230075
0.000163057
4.79426e-05
0.000195949
0.000162968
0.00129612
0.000189894
0.00222
0.000145065
0.000192507
0.000198111
0.000150753
0.00158039