/*--------------------------------*- C++ -*----------------------------------*\
| =========                 |                                                 |
| \\      /  F ield         | OpenFOAM: The Open Source CFD Toolbox           |
|  \\    /   O peration     | Version:  v2012                                 |
|   \\  /    A nd           | Website:  www.openfoam.com                      |
|    \\/     M anipulation  |                                                 |
\*---------------------------------------------------------------------------*/
FoamFile
{
    version     2.0;
    format      ascii;
    class       volScalarField;
    location    "200";
    object      k_0;
}
// * * * * * * * * * * * * * * * * * * * * * * * * * * * * * * * * * * * * * //

dimensions      [0 2 -2 0 0 0 0];


internalField   nonuniform List<scalar> 
13917
(
0.017271
0.000183011
0.000226839
0.000150152
0.000170103
0.000182662
0.000159193
0.000231549
0.000156891
0.00290182
0.000227651
0.000147731
0.000166285
0.000671297
0.000161719
0.0141171
0.000146671
0.000211724
0.0001956
0.013397
0.000168972
0.000147319
0.000175173
0.000147327
0.0001534
0.00017181
0.0294257
0.00247156
0.000184065
0.000133488
0.00165117
0.000184435
0.000150375
0.0293164
0.000144329
0.000255191
0.00015567
0.000159955
0.000159289
0.00017101
0.000145935
0.000144805
0.000154268
0.000193943
0.000193803
0.000166907
0.000167523
0.0118313
0.0228594
0.000144436
0.000147436
0.000201883
0.00782378
0.000147108
0.000147747
0.000200911
0.000567443
0.00017517
0.000144136
0.000174065
0.0282959
0.000200006
0.000138916
0.000152921
0.0291941
0.000519316
0.000189176
0.00025534
0.000216967
0.0167923
0.0172483
0.0271293
0.000146944
0.00014299
0.000169915
0.000154701
0.000156899
0.000142593
0.000154184
0.000150622
0.000149892
0.000147596
0.000146726
0.0178906
0.000140683
0.000266733
0.000183663
0.000144819
0.000170541
0.000146339
0.000137692
0.000154587
0.021077
0.000142254
0.000150101
0.000188002
0.00911477
0.000149887
0.000143939
0.000231361
0.000142078
0.000141374
0.000150112
0.000143851
0.000156787
0.0177535
0.0244439
0.000198829
0.00014579
0.0350366
0.000143987
0.0303399
0.000183016
0.0118623
0.028628
0.000155665
0.0001943
0.000138804
0.000206751
0.000145712
0.000147122
0.000141419
0.000194615
0.000193357
0.0188729
0.0223165
0.000152442
0.00017126
0.000142564
0.000193476
0.000165254
0.000223904
0.041811
0.000155615
0.000187903
0.034607
0.0316287
0.0202719
0.000174337
0.00015949
0.00119409
0.000141997
0.0163954
0.000142063
0.00014609
0.000166359
0.0165802
0.00558671
0.0125474
0.000147485
0.000168647
0.000140351
0.000145771
0.000145805
0.0162131
0.000149844
0.000143314
0.042616
0.000143418
0.000140218
0.000140815
0.0286534
0.000159986
0.000855171
0.0247048
0.000214804
0.00720172
0.0209334
0.000128125
0.000176275
0.000148031
0.040128
0.00015678
0.0272165
0.000189163
0.00014172
0.000150124
0.000204603
0.00016457
0.000160987
0.000154095
0.000147538
0.00014744
0.00022068
0.000206716
0.000222478
0.000147175
0.0002268
0.000133545
0.000230481
0.000189554
0.000192399
0.000202932
0.0172874
0.000142241
0.019188
0.000158336
0.0411059
0.000144006
0.000149082
0.000164929
0.0165467
0.017529
0.000154617
0.0286585
0.000173928
0.000169158
0.000141955
0.000203675
0.000149876
0.000139213
0.00019446
0.000199879
0.0122873
0.000187375
0.000173193
0.0329757
0.000153546
0.000134905
0.000134787
0.0184818
0.000207174
0.00016467
0.000142403
0.000140072
0.034689
0.0164099
0.000134235
0.000134083
0.000146134
0.000135169
0.000135078
0.025431
0.0161076
0.000148329
0.000128361
0.000189818
0.0254674
0.000144485
0.000142378
0.0321905
0.0169121
0.000223422
0.033265
0.000199152
0.00014214
0.0225723
0.000190921
0.000180293
0.000187868
0.00015397
0.0144325
0.000145942
0.000173548
0.000186374
0.000148803
0.000147071
0.000152827
0.000166512
0.000144375
0.0249638
0.0211412
0.000141543
0.000134029
0.000150495
0.000134063
0.000145987
0.000166894
0.000169754
0.000142125
0.0245131
0.0258633
0.000144912
0.000158949
3.47014e-05
0.000134284
0.000201292
0.0281416
0.00013438
0.0207435
0.000143908
0.0277146
0.00014234
0.000158186
0.000149101
0.000141786
0.000202251
0.000153635
0.000855553
0.000161855
0.0209216
0.000171219
0.0108025
0.0199759
0.000140913
0.000179362
0.000168377
0.000156364
0.000169466
0.000154009
0.000142768
0.000151597
0.000205501
0.000191168
0.000172602
0.000153642
0.000142242
0.0423502
0.0140907
0.000141759
0.000146161
0.000156409
0.000130951
0.000197567
0.0277387
0.0263519
0.000375712
0.000231711
0.000157623
0.0145834
0.000274554
0.000223974
0.000165435
0.000160652
0.0273048
0.000149035
0.000187776
0.000192185
0.000145635
0.0398285
0.00014109
0.000171527
0.00013693
0.00579628
0.00013788
0.00017094
0.000174595
0.000321197
0.000145028
0.000187706
0.0137104
0.00014971
0.000149012
0.0325392
0.0144517
0.0201968
0.000498057
0.000134028
0.000148166
0.0177582
0.000228419
0.000134157
0.000169957
0.000147185
0.000182842
0.000171744
0.000198551
0.000199303
0.000201768
0.000171319
0.0252625
0.000142941
0.000149729
0.000175348
0.000208568
0.000145282
0.0152342
0.00017108
0.00365225
0.000148087
0.000209667
0.000146834
0.0197941
0.000144525
0.000164563
9.27442e-05
0.000177255
0.000145252
0.00342955
0.000137904
0.0247681
0.00020377
0.000144501
0.0221262
0.000150445
0.00374723
0.00013797
0.0149045
0.00376435
0.000154448
0.0351979
0.000193405
0.000152898
0.0259119
0.000223606
0.000153328
0.000202566
0.000147622
0.000195711
0.000225435
0.00014131
0.000158201
0.000153516
0.000141527
0.000138987
0.000143402
0.0340045
0.000238607
0.000148869
0.000143961
0.000146324
0.000179016
0.000341304
0.000135262
0.000128273
0.000197001
0.000209629
0.000142112
0.000154052
0.02162
0.0178594
0.000699294
0.000196544
0.00859818
0.000139141
0.000134815
0.000166474
0.000138882
0.000135369
0.000148643
0.000134948
0.000138703
0.0202208
0.000147959
0.00017262
0.0266485
0.000179302
0.000139446
0.000145548
0.0261011
0.000165291
0.0161326
0.000136268
0.00014248
0.000138384
0.000135469
0.000155338
0.000151089
0.019783
0.00016825
0.0194536
0.000142433
0.000167739
0.000170302
0.000149577
0.000197618
0.0203812
0.000146893
0.0261662
0.000139797
0.00014246
0.000145904
0.00015048
0.000138714
0.000149846
0.0421595
0.0275336
0.000138504
0.0129638
0.000196307
0.000147374
0.000181844
0.000186599
0.0264257
0.000159297
0.0187976
0.00443114
0.00468575
0.000151111
0.000406776
0.000171034
0.000153494
0.00855632
0.000138871
0.000146686
0.00015012
0.00015758
0.000167656
0.000202879
0.000179403
0.000162828
0.000161806
0.00020547
0.00018006
0.000148865
0.00184343
0.000169062
0.000161766
0.0254256
0.000140754
0.000181277
0.000207369
0.00013817
0.0411602
0.000143339
0.000135441
0.000179852
0.000136351
0.00015173
0.000205484
0.044407
0.0304233
0.00014073
0.000150719
0.000151991
0.00512122
0.00386987
0.000148297
0.000147455
0.000140508
0.000183919
0.00545837
0.000143187
0.000144663
0.000148595
0.000141258
0.000160196
0.000161792
0.000140424
0.000179941
0.000138188
0.000146645
0.000153174
0.0283922
0.00013465
0.000154
0.000144348
0.000166887
0.000186035
0.000187968
0.000187692
0.000239933
0.000152558
0.000196573
0.0399299
0.019942
0.0300903
0.000140979
0.000145519
0.000184165
0.000143628
0.0298006
0.000134735
0.0094305
0.000158254
0.0342937
0.000207387
0.000154328
0.0119312
0.000138442
0.000182884
0.000149503
0.000147972
0.0364529
0.000135753
0.000218275
0.000140703
0.000154744
0.000145936
0.000201085
0.000162306
0.000133684
0.000194037
0.000181194
0.00660096
0.0116969
0.0427651
0.0258754
0.000134709
0.0171046
0.000135741
0.0297428
0.00729926
0.000150039
0.000145597
0.000141662
0.000168668
0.00015362
0.000135863
0.000149586
0.000164777
0.0073795
0.000141228
0.000182017
0.000146336
0.00013356
0.000143142
0.000242114
0.0197437
0.00990092
0.000186538
0.000161529
0.000789139
0.0267836
0.000138337
0.0148718
0.000162993
0.000193417
0.000143604
0.00301979
0.00014103
0.000160738
0.000146342
0.00712634
0.000169848
0.0316092
0.000141213
0.00016867
0.000144491
0.00014295
0.0265766
0.000206228
0.000145421
0.00019991
0.000142239
0.000146801
0.00014131
0.0290182
0.000141244
0.000168248
0.000134642
0.000144928
0.00020896
0.000140665
0.000197637
0.000148771
0.000138
0.0296507
0.000182709
0.000147879
0.00826871
0.000211477
0.000281812
0.000207419
0.000138251
0.000163567
0.0262175
0.000234055
0.000165028
0.00015567
0.000161728
0.000147933
0.00014316
0.000378943
0.000188083
0.000157001
0.0251343
0.000170245
0.000616863
0.00661227
0.000193634
0.000169542
0.000202055
0.0225174
0.000142762
0.000198889
0.000396806
0.000138089
0.000142416
0.000142994
0.00015491
0.000152569
0.0173329
0.000166811
0.000141248
0.000190961
0.000140498
0.0293291
0.000143909
0.000142568
0.0437373
0.000184291
0.00347445
0.000147605
0.000141048
0.000142326
0.000149617
0.000161258
0.000141759
0.0179852
0.000164153
0.00460132
0.00340184
0.000199129
0.0428314
0.00015078
0.000149198
0.000144837
0.029685
0.0326782
0.00015894
0.0182341
0.00654881
0.000137991
0.00014215
0.000155426
0.0168992
0.00426116
0.000170173
0.000149463
0.000154022
0.000194261
0.000155626
0.000197801
0.00016707
0.000149795
0.000150736
0.000148898
0.000161103
0.000162036
0.0002422
0.00015721
0.000158262
0.0177667
0.000141192
0.00847485
0.000154929
0.000172935
0.000157931
0.000223742
0.00014687
0.000181365
0.0182141
0.00599232
0.00014386
0.000157199
0.000156894
0.00014263
0.000146083
0.000170833
0.000169459
0.000237986
0.000198236
0.000137996
0.000242237
0.000156815
0.000157673
0.000200381
0.000148545
0.000182885
0.00792304
0.000133749
0.000184071
0.000194079
0.000166757
0.000141008
0.000138986
0.00014313
0.0145963
0.000150182
0.000144609
0.000171143
0.000142067
0.000140046
0.000200003
0.00106886
0.000186323
0.0220422
0.000180319
0.0181698
0.000146105
0.00015825
0.000316068
0.000150314
1.15315e-05
0.00014484
0.000142036
0.000147472
0.000158182
0.000188817
0.000140993
0.00104221
0.000147634
0.00909407
0.000154966
0.000159114
0.00013693
0.000188118
0.000159061
0.0252679
0.000187869
0.000147748
0.0276853
0.000151074
0.0233829
0.000153142
0.000214032
0.000154163
0.000140236
0.00014366
0.0387709
0.000161031
0.000284594
0.0177108
0.000142526
0.000167095
0.000128199
0.00017334
0.00336225
0.000128555
0.0220752
0.00015412
0.000210207
0.000193974
0.00542368
0.000135217
0.000142775
0.000201996
0.000138187
0.000146815
0.00015272
0.000145124
0.000171305
0.000135089
0.000226732
0.000149794
0.0164166
0.0231129
0.000325821
0.0205957
0.0270946
0.0147078
0.00199301
0.000137469
0.000146288
0.000145268
0.00015112
0.000140583
0.000161243
0.000141905
0.000327055
0.00014718
0.00163866
0.000149868
0.000163305
0.000197645
0.000141502
0.000172506
0.000151084
0.000148794
0.000158245
0.000138048
0.0438013
0.000189782
0.000617437
0.000141751
0.000143786
0.000148365
0.000148095
0.0252556
0.000137674
0.000216981
0.00014081
0.00412975
0.000157243
0.000142029
0.000182208
0.000206783
0.000137801
0.003447
0.0125296
0.000155519
0.000187891
0.000138077
0.000234459
0.000139246
0.000148104
0.02252
0.00014475
0.000150414
0.000190584
0.0209601
0.000141676
0.00935051
0.00194475
0.000145149
0.000152489
0.000145544
0.0058324
0.000143531
0.000195322
0.000146778
0.0419807
0.000158133
0.0209444
0.000143912
0.000134157
0.00414817
0.000156378
0.000140654
0.037873
0.000152525
0.00013898
0.00241413
0.000145098
0.000146258
0.000187572
0.000152991
0.0308544
0.000171289
0.000186432
0.000205969
0.000153883
0.0408481
0.000150616
0.000185763
0.00014287
0.0266881
0.00454677
0.000148082
0.000139522
0.000146678
0.000148291
0.00013903
0.000139396
0.000141994
0.000143502
0.000162396
0.000133752
0.000152001
0.000185955
0.0238162
0.0266813
0.000189342
0.00014839
0.00426033
0.000141373
8.3975e-05
0.0045623
0.00654899
0.000135155
0.000137568
0.000145593
0.000146381
0.000134913
0.000138325
0.000141835
0.000170476
0.000139043
0.00885609
0.00288974
0.000139556
0.0380162
0.000142982
0.000143429
0.000191087
0.0299908
0.00018253
0.000141192
0.00376306
0.000143252
0.000143547
0.000174786
0.000146761
0.0136783
0.000150695
0.000255747
0.000139495
0.000141718
0.000165282
0.000349259
0.00015229
0.0293741
0.000215165
0.000156723
0.000153343
0.000143818
0.000138761
0.000190473
0.000166075
0.000156671
0.0322913
0.0105945
0.000301881
0.000191463
0.00014155
0.0314412
0.000141352
0.0257957
0.000185163
0.000158332
0.000151774
0.0303479
0.0282967
0.00153836
0.000150205
0.00913463
0.000139036
0.000141924
0.000166972
0.000149474
0.000146511
5.85143e-05
0.0205848
0.000141773
0.000159254
0.0252193
0.000140606
0.000134155
0.00896392
0.0306835
0.000150733
0.00013647
0.000158691
0.000145332
0.000143156
0.000171061
0.000158836
0.000144959
0.00454898
0.00015117
0.00022268
0.00409009
0.000203736
0.0270799
0.000147886
0.000149623
0.000755618
0.020718
0.00311373
0.000144461
0.000167279
0.000148861
0.000150821
0.000141525
0.0253934
0.000163454
0.000149681
0.000178561
0.000141721
0.00592972
0.000187654
0.000195032
0.000180901
8.72381e-05
0.00465724
0.0159063
0.0376892
0.000159741
0.000131605
0.000134348
0.000183058
0.000190749
0.00299093
0.000155781
0.000148028
0.000157392
0.000136552
0.000152865
0.0257661
0.000168003
0.000195553
0.0248375
0.000141861
0.000192899
0.000153843
0.000146768
0.000168103
0.000198423
0.000135355
0.00013752
0.000151881
0.00670991
0.000139018
0.000152582
0.000153539
0.00015061
0.000145492
0.000197599
0.000184741
0.000149689
0.000141347
0.000209692
0.00042875
0.000176979
0.0417435
0.000148127
0.000143325
0.0307897
0.000144617
0.000153186
0.0379966
0.0285369
0.000165289
0.000183161
0.000160168
0.0143382
0.000210312
0.000166576
0.0135167
0.00014275
0.000190394
0.0249133
0.000207758
0.00596166
0.0198128
0.000138539
0.000146266
0.000165678
0.000145758
0.000146981
0.000242843
0.000144875
0.000174922
0.000135515
0.000179919
0.0266834
0.00015312
0.00510822
0.0239462
0.000143375
0.000186982
0.000159662
0.000152188
0.000142691
0.0310048
0.000185957
0.0224303
0.000160602
0.0247787
0.000195225
0.000141146
0.000326095
0.000168127
0.000136651
0.000142253
0.000206269
0.000142742
0.000158082
0.000170908
0.000158301
0.000149027
0.000179507
0.017856
0.000140938
0.000231708
0.000267243
0.000146877
0.000141165
0.000165415
0.00166075
0.000110093
0.000139567
0.000162469
0.000181687
0.00551758
0.0171494
0.000146014
0.000139062
0.000138486
0.000143864
0.000166979
0.000155014
0.00181538
0.000148582
0.000155132
0.000124152
0.000188724
0.000189068
0.0308762
0.0256064
0.000147821
0.000144347
0.000138646
0.000151661
0.000184904
0.0422009
0.00073004
0.000199189
0.000164693
0.000176866
0.00015341
0.000274647
0.000157664
0.000193423
0.000142229
0.000232222
0.000292313
0.000138602
0.000147326
0.035131
0.000177623
0.000131484
0.0237788
0.000205766
0.00014233
5.37025e-05
0.000160264
0.000141402
0.0181588
0.00359362
0.000142318
0.000166218
0.000194097
0.000167057
0.000150268
0.000134934
0.00014132
0.000139172
0.000142527
0.000162827
0.000177857
0.0221537
0.00016755
0.000157619
0.000164026
0.000193916
0.000140961
0.00016812
0.000190243
0.000217303
0.0244898
0.000152039
0.000134798
0.0279925
0.000139999
0.00274835
0.000152154
0.000172734
0.00014863
0.000140428
0.000124439
0.000158432
0.00015165
0.000143686
0.0446794
3.81364e-05
0.0264645
0.000147095
0.00014612
0.02121
0.000140125
0.000139277
0.000210278
0.00530283
0.000159639
0.000166311
0.00015003
0.0071321
0.000141524
0.000154515
0.00014898
0.000134633
0.000217544
0.000141531
0.000138944
4.45181e-05
0.000180577
0.0387718
0.000216041
0.000140979
0.000162969
0.000140077
0.000141927
0.000153693
0.000152113
0.000146498
0.000209703
0.0001459
0.00018824
0.000166567
0.000152192
0.000145542
0.000144852
0.000142908
0.0318107
0.000135157
0.0002611
0.000184851
0.000154936
0.000177894
0.000166158
0.000163298
0.000145461
0.000181214
0.000139455
0.000138597
0.0044852
0.000175977
0.000172929
0.000143095
0.000143686
0.000140214
0.000202884
0.000141698
0.0323954
0.000175519
0.000142185
0.000141984
0.000137077
0.000175438
0.000290987
0.0291958
0.000105572
0.00567228
0.000149982
0.000197503
0.000153895
0.0239909
0.000135469
0.000134793
0.000156538
0.000575389
0.000137361
0.0335434
0.000146464
0.000143928
0.000211566
0.000196699
0.0150122
0.000961137
0.000157557
0.000234019
0.000283282
0.000139055
0.0250629
0.000143062
0.000141613
0.00648527
0.000136309
0.0348749
0.000680101
0.000140609
0.000143688
0.000139359
0.0416388
0.000143475
0.000134928
0.00018661
0.000141029
0.000139754
0.000147432
0.000139079
0.000173868
0.000146957
0.00015562
0.000137105
0.0154984
0.000177258
0.000137277
0.000137359
0.000150508
0.000141857
0.000154166
0.000147549
0.00014348
0.000147191
0.000143367
0.000151176
0.000144864
0.00019633
0.000137052
0.000188458
0.000146743
0.000191838
0.000139231
0.000146287
0.000141739
0.000135486
0.00016914
0.000157295
0.000156217
0.0394724
0.000202997
0.0418731
0.0315958
0.000187911
0.0214297
0.000146506
0.000144545
0.00983172
0.0243217
0.000140603
0.0262712
0.000137976
0.000195909
0.0035722
0.000153939
0.000189394
0.00598777
0.0301675
0.000142853
0.000174936
0.00013974
0.00410983
0.000154918
0.0377076
0.0142575
0.000147317
0.000205048
0.00101554
0.000147417
0.00356071
0.00391513
0.000153167
0.000139111
0.000838189
0.0290783
0.000138993
0.000164427
0.000148345
0.0014684
0.000206709
0.000145903
0.000139564
0.0009623
0.000141507
0.000143419
0.000149639
0.000137693
0.000533852
0.000160914
0.000161218
0.0328637
0.000142551
0.000183836
0.000146731
0.000555826
0.000181451
0.00379222
0.000138915
0.000159997
0.000138738
0.000145769
0.000153794
0.000145133
0.00682597
0.000151707
0.000138128
0.000141027
0.00340345
0.000138978
0.00230958
0.0128356
0.00985714
0.000145712
0.000140233
0.000141615
0.00703093
0.000147945
0.00980463
0.000143477
0.00618106
0.000152813
0.000148791
0.000132628
0.000146502
0.000146429
0.0278604
0.00019433
0.0333401
0.000145819
0.0329852
0.0137776
0.000146085
0.0290773
0.00014724
0.000156263
0.0243669
0.000153323
0.000178456
0.022126
0.000165382
0.00018476
0.000145297
0.00475041
0.000143303
0.00239577
0.000141594
0.0203752
0.000143486
0.000144425
0.00015328
0.00950528
0.000140581
0.00020052
0.000184042
0.0107671
0.000142009
0.000163447
0.0387695
0.000313097
0.000359094
0.000189945
0.000139223
0.000196388
0.0037381
0.000155055
0.00183599
0.000134478
0.000202621
0.0159413
0.000141121
0.0173569
0.000142006
0.029247
0.000344312
0.000154546
0.000154562
0.00256885
0.00903689
0.000143471
0.000151926
0.000137877
0.000146194
0.0240883
0.000185889
0.000191201
0.000146292
0.00016015
0.0356285
0.000181685
0.00962399
0.00142543
0.000140662
0.000142808
0.000206129
0.0215165
0.0102636
0.00642091
0.000211486
0.00017083
0.00021477
0.0367792
0.0256594
0.0056497
0.000139112
0.000189912
0.000174833
0.000189096
0.000144317
0.000157606
0.000183718
0.000234723
0.00962471
0.000145731
0.000291068
0.0319038
0.00017724
0.000143129
0.000143206
0.000133113
0.000140747
0.0429006
0.000160983
0.000145916
0.000233965
0.000333748
0.000137166
0.000168548
0.000162428
0.00014461
0.0398343
0.000158352
0.0430021
0.000141396
0.0306058
5.93305e-05
0.00020658
0.000135511
0.000159038
0.000166121
0.000260313
0.000203184
0.000184276
0.0247464
0.000190149
0.000128966
0.000157837
0.000147289
0.000198015
0.0162523
0.000137678
0.000136949
0.000151846
5.23029e-05
0.000270642
0.000141752
0.000176809
0.000235487
0.000138963
0.000259957
0.000155079
0.0424491
0.000158442
0.00491784
0.0106763
0.000160943
0.000156198
0.00155752
0.000141109
0.000179702
0.0253231
0.000166751
0.00019353
0.000163672
0.000180443
0.0192462
0.0321588
0.000145085
0.00495988
0.000202313
0.000136361
0.000196987
0.000185383
0.000204485
0.00587906
0.00164984
0.00530256
0.000198222
0.0256785
0.000159536
0.000183612
0.00013573
0.000147304
0.000145312
0.000139267
0.000135829
0.000233879
0.000135351
0.000188621
0.000202999
0.00014095
0.00577628
0.031127
0.000133646
0.000147588
0.000136635
0.000151094
0.000173435
0.000143279
0.0237996
0.000162227
0.000187546
0.000158698
0.000188029
0.000208107
0.000170548
0.000314417
0.000144622
0.000151508
0.000135015
0.000140769
0.0377433
0.000191637
0.000162867
0.0265425
0.000146687
0.000149106
0.000167892
0.00013829
0.000141988
0.00018837
0.000156995
0.0252945
0.0422498
0.0282037
0.000145452
0.0375396
0.000142028
0.000103574
0.000136984
0.00019813
0.0273209
0.000143928
7.53289e-05
0.0249495
0.000166785
0.000151922
0.000139361
0.000160962
0.0174344
0.000137462
0.000147855
0.000152287
0.000160862
0.000206314
0.000154786
0.00015753
0.000140419
0.000151557
0.00164412
0.000167017
0.000153739
0.000197775
0.0002014
0.0380894
0.0098613
0.000158473
0.000150578
0.0253393
0.000144621
0.000184103
0.000145943
0.0240645
0.000147935
0.000148002
0.000179147
0.0266294
0.00014279
0.00013891
0.000135287
0.000202356
0.00985181
0.000202683
0.000143486
0.000153912
0.000139079
0.0325279
0.000140368
0.00525656
0.000179934
0.000146692
0.000220246
0.00017152
0.000643814
0.000149191
0.000139262
0.000163361
0.000177307
0.000211997
0.000147256
0.000148752
0.000147414
0.0319347
0.000145063
0.000151744
0.0313839
0.000152876
0.000171075
0.000155608
0.000142154
0.000143307
0.00400183
0.000153012
0.00872874
0.00410299
0.000131986
0.0060501
0.000148606
0.000197538
0.000177323
0.000152936
0.000135859
0.000131751
0.000143184
0.0132638
0.000175172
0.0315044
0.0280111
0.000139656
0.000167142
0.000170357
0.00156734
0.000143374
0.00361089
0.0335821
0.0190356
0.000142237
0.000152361
0.000149342
0.00226545
0.0374015
0.000144409
0.000144162
0.000163249
0.022258
0.000146629
0.000152536
0.000152215
0.000195555
0.000162143
0.000135606
0.0270649
0.000161078
0.000143018
0.0121931
0.000179845
0.00958435
0.0136016
0.000166263
0.00015698
0.000152743
0.000160382
0.000149502
0.000209401
0.000176493
0.000143486
0.000155293
0.000230082
0.0341643
0.000137297
0.000201415
0.0379883
0.0168275
0.000144116
0.000145396
0.00363577
0.0097437
0.000261752
0.000142129
0.0418711
0.000183699
0.000132775
0.0217909
0.000160187
0.00014742
0.000199512
0.000145126
0.000209998
0.000139893
0.000130674
0.000146134
0.00013525
0.0290944
0.000135133
0.000140967
0.000188346
0.000155979
0.000155828
0.000197417
0.000145606
0.000143533
0.000152402
0.000150953
0.00569359
0.00591268
6.92102e-05
0.00650916
0.000170668
0.00373313
0.000212795
0.0315427
0.0414837
0.0291357
0.000139322
0.000165605
0.000143564
0.000146137
0.000141342
0.00014737
0.000208437
0.000180889
0.000171997
0.000140729
0.000142849
0.000179254
0.00014774
0.000148502
0.000145767
0.0346602
0.000164304
0.0133094
0.000145284
0.00456866
0.000149082
0.000147544
0.000149408
0.000172322
0.000140555
0.000191688
0.0303725
0.000172702
0.0269098
0.00534989
0.000155215
0.000160051
0.00428387
0.00020119
0.00013649
0.00014096
0.000131975
0.0284682
0.000130576
0.000260401
0.000244463
0.000189661
0.000244573
0.000326794
0.000183418
0.040765
0.00013912
0.000135103
0.00161939
0.00791783
0.000144012
0.0001453
0.0209686
0.000139219
0.000224655
0.000155352
0.000139698
0.000157793
0.000144696
0.0001877
0.0297853
0.0266222
0.00015589
0.000144518
0.000190536
0.000151433
0.000191919
0.000139099
0.000197614
0.000190062
0.000148453
0.000147033
0.000132473
0.000209298
0.000205233
0.000207905
0.00108003
0.000162842
0.0159617
0.000186139
0.000194359
0.0272915
0.000142203
0.0285897
0.000150678
0.0344485
0.000123253
0.027507
0.0270002
0.000148078
0.000180673
0.000950695
0.000145289
0.0218909
0.000145268
0.000144764
0.000157559
0.000149693
0.000163244
0.000244193
0.000930098
0.0256556
0.000157739
0.000171871
0.0001514
0.000147197
0.000146343
0.000207344
0.000189386
0.0261832
0.000174701
0.000135727
0.000137931
0.000149023
0.000220262
0.00015532
0.00015028
0.000156731
0.000194809
0.00016405
0.000177257
0.000176853
0.0300405
0.000162337
0.000165268
0.00014341
0.000157671
6.36472e-05
0.000353815
0.000176823
0.000138282
0.0137307
0.000165758
0.000141799
0.000177064
0.0331588
0.00523796
0.000167144
0.000139328
0.0256097
0.000148795
0.000139032
0.000136109
0.0125739
0.00217385
0.00015512
0.00354136
0.0222602
0.000167572
0.000176968
0.000183845
0.0431389
0.000163706
0.0368106
0.000148877
0.000298814
0.000171813
0.0358734
0.000166131
0.000139998
0.0361102
0.000145309
0.000150645
0.0199313
0.00916003
0.000174407
4.3659e-05
0.000155
0.000151563
0.00705197
0.00014175
0.000141097
0.000145054
0.000175266
0.000143217
0.000167511
0.000167264
0.00230486
0.00281286
0.000149982
0.0222893
0.000166258
0.033773
0.0274032
0.000144885
0.000147417
0.00015684
0.000392428
0.000208081
0.000186049
0.0323753
0.0271343
3.41259e-05
0.000149082
0.0061035
0.0232639
0.000202193
0.00104111
0.000146572
0.000144294
0.000145079
0.000150755
0.000142002
0.000165584
0.0269928
0.000165692
0.00335305
0.0152334
0.00216507
0.0275899
0.0382766
0.000159897
0.0391428
0.000196444
0.000186416
0.000136801
0.000145688
0.000184738
0.0237384
0.000150496
0.0234657
0.0373837
0.000139867
0.000145737
0.000145246
0.00019582
0.00014918
0.000188097
0.0291161
0.000137075
0.000142753
0.000139529
0.000150364
0.000191577
0.0291903
0.000170737
0.0126268
0.000201366
0.000141144
0.00508287
0.000210856
0.000145465
0.000132061
0.00196852
0.0246686
0.000926922
0.0256948
0.000144709
0.00772141
0.0306538
0.000210606
0.0162167
0.00014116
0.000153259
0.000154665
0.000153056
0.0245755
0.000186052
0.000147186
0.000159723
0.00506333
0.0304039
0.000148519
0.000143965
0.0430108
0.0378614
0.000147031
0.000161252
0.000198758
0.000142265
0.000142966
0.0283248
0.000140885
0.000237307
0.00496954
0.0264702
0.000140361
0.000187173
0.000199704
0.000141478
0.000133663
0.0434318
0.00834828
0.000147612
0.000170901
0.000207108
0.000214065
0.0400658
0.00247781
0.000157741
0.00505334
0.00383123
0.000167431
0.000140412
0.00023539
0.00013483
0.000134818
0.0249502
0.000170056
0.000195813
0.000155194
0.000158042
0.000140746
0.000135721
0.000149777
0.000150578
0.00991489
0.000154768
0.000228039
0.0182744
0.000173942
0.000186533
0.0184392
0.0340547
0.011421
0.000138905
0.000155928
0.000168009
0.000157336
0.000223276
0.00369455
0.00014969
0.000677091
0.0294612
0.000159235
0.000190299
0.000187621
0.000191903
0.000193512
0.000151735
0.000195509
0.000197413
0.000199777
0.000202026
0.000194258
0.000189967
0.000163115
0.000140275
0.000165636
0.000190239
0.000140664
8.56755e-05
0.0407738
0.000233329
0.0353493
0.000133188
0.000138327
0.000295979
0.0192319
0.000150309
0.000154694
0.000182954
0.0291311
0.016424
0.000145154
0.000167106
0.00015667
0.0136955
0.00524555
0.000154534
0.000279842
0.0304874
0.000192712
0.0369933
0.000195593
0.00314453
0.0403619
0.000128065
0.0377628
0.0332319
0.000151133
0.000188363
0.000199046
0.000156214
0.000139874
0.000550025
0.0151103
0.000140324
0.000140711
0.0213585
0.000191048
0.000192209
0.000147592
0.000227107
0.000200737
0.037197
0.0270119
0.000145399
0.000142666
0.000150103
0.000155851
0.0346117
0.0212493
0.0316246
0.000188909
0.00012585
0.00584388
0.000156143
0.000139975
0.0302795
0.00014078
0.0376395
0.000139171
0.0377864
0.000151135
0.000150369
0.00342185
0.000144663
0.000194281
0.00247805
0.000166016
0.000153331
0.000151517
0.000206919
0.0255298
0.000211647
0.035499
0.000162677
0.000153496
0.000160098
0.000190946
0.0404981
0.0269654
0.000199146
0.000216452
0.000196029
0.0121753
0.000139913
0.000140552
0.000137238
0.000136818
0.000105404
0.000212662
0.00467654
0.000172162
0.000199393
0.000141421
0.00365274
0.000178925
0.0129424
0.000143376
0.000152004
0.00013087
0.0327977
0.00012765
0.00998934
0.000134081
0.000195734
0.000147919
0.000132218
0.000169061
0.000210482
9.17253e-05
0.000122403
0.000144951
0.000197373
0.000148812
0.000147108
0.000203025
0.00651282
0.00048269
0.000147806
0.000195216
0.000224959
0.0293364
0.0188755
0.0324743
0.027511
0.000141341
0.000183945
0.000145914
0.00019816
0.000142766
0.000203406
0.000152096
0.000177591
0.00421141
0.00247948
0.000159304
0.000202987
0.0333838
0.000196257
0.000152867
0.0204183
0.000194099
0.000150187
0.000148232
0.0255503
0.000161604
0.00020788
3.75526e-05
0.00454524
0.0205172
0.00015598
0.024949
0.0302077
0.0141044
0.000659728
0.000164509
0.000193751
0.000192162
0.0302225
0.000211838
0.000149843
0.00115747
0.000219193
0.000115294
0.000160981
0.0238378
4.97796e-05
0.0025478
0.000157735
0.000302866
0.00015523
0.0266511
0.000210433
0.00479373
0.0154306
0.000139033
0.000130791
0.0292007
0.036853
0.000205738
0.000149456
0.000172903
0.000164058
0.0222151
0.000228187
0.033061
0.000158336
0.0326968
0.000206382
0.0139528
0.000149624
0.000194512
0.0260138
0.000160927
0.000189075
0.000132777
0.000155129
0.000145972
0.00464949
0.000141831
0.000145541
0.0396624
0.0106994
0.000136662
0.0390329
0.000150552
0.000145632
0.000142332
0.000140396
0.000147396
0.000178913
0.0406624
0.00013732
0.00345189
0.000184796
0.000175821
0.00241419
0.000189475
0.000157519
0.000164321
0.00014186
0.00437731
0.000166024
0.0395322
0.000168133
0.0196678
0.000819198
0.000188241
0.00129595
0.0322667
0.000137792
0.02395
0.000181702
0.000184753
0.000187373
0.00014209
0.000235066
0.000209946
0.000145404
0.000277791
0.000142854
0.0283058
0.000199182
0.0151892
0.000205861
0.000203761
0.0389389
0.000146016
0.000142782
0.000182859
0.000152414
0.000147346
0.000147644
0.000160225
0.000141128
0.000141211
0.000151647
0.000174064
0.000153164
0.000160671
0.000155576
0.000174022
0.000193188
0.000153967
0.0302453
0.000153293
0.000141893
0.000190972
0.000172184
0.000156638
0.000141128
0.00187808
0.000152937
0.0288966
0.000153467
0.000200378
0.000142162
0.000144878
0.000202941
0.0418315
0.000185771
0.000169617
0.000133086
0.037453
0.000146231
0.00014093
0.000187604
0.000154403
0.000203391
0.0335284
0.000192715
0.000226625
0.000172224
0.0204781
0.000145618
0.000146384
0.000186054
0.00530911
0.000181812
0.000197468
0.0255909
0.000160743
0.000145731
0.000160457
0.000225447
0.000180483
0.000145625
0.000192549
0.000192086
0.000185312
0.000147254
0.000145724
0.00022039
0.000185328
0.00112578
0.00362916
0.000153337
0.000186577
0.000147094
0.000173647
0.00242495
0.000147291
0.000207498
0.000495179
0.000193178
0.0132503
0.000144913
0.00014448
0.000141517
0.0384228
0.000214898
0.000153869
0.000202164
0.000194191
0.00014681
0.000144991
0.000216727
0.0387537
0.000224748
0.0321075
0.000230138
0.000163057
4.84831e-05
0.000195941
0.000162968
0.00126837
0.000189889
0.00217006
0.000145065
0.000192483
0.000198091