/*--------------------------------*- C++ -*----------------------------------*\
| =========                 |                                                 |
| \\      /  F ield         | OpenFOAM: The Open Source CFD Toolbox           |
|  \\    /   O peration     | Version:  v2012                                 |
|   \\  /    A nd           | Website:  www.openfoam.com                      |
|    \\/     M anipulation  |                                                 |
\*---------------------------------------------------------------------------*/
FoamFile
{
    version     2.0;
    format      ascii;
    class       volScalarField;
    location    "200";
    object      nut;
}
// * * * * * * * * * * * * * * * * * * * * * * * * * * * * * * * * * * * * * //

dimensions      [0 2 -1 0 0 0 0];


internalField   nonuniform List<scalar> 
13917
(
0.0032179
0.00232836
0.00105635
0.00568647
0.0053255
0.00254987
0.00316627
0.00198973
0.0027162
0.000242408
0.00238055
0.00595054
0.00464971
0.00119891
0.00525449
0.00197743
0.00599829
0.00192942
0.00103722
0.00148504
0.00313067
0.00596279
0.00166024
0.00596297
0.00572858
0.00252308
0.0128145
0.000196772
0.00173247
0.00591767
0.000147919
0.00230379
0.00594054
0.00978099
0.00594992
0.00245265
0.00576713
0.00610253
0.00277424
0.00421423
0.0059385
0.00590762
0.00283685
0.00138561
0.00139997
0.000341187
0.00325663
0.00210702
0.0184702
0.00594936
0.00594701
0.000593864
0.000469958
0.00595467
0.00596077
0.000559967
2.26242e-05
0.00180663
0.00591097
0.000387373
0.0112445
0.0063314
0.00595756
0.00547735
0.009466
0.00576321
0.00175052
0.0024394
0.00190505
0.0028538
0.00585512
0.00864547
0.00591732
0.00591847
0.00302928
0.00578952
0.00570722
0.00592665
0.00563931
0.00593337
0.00593741
0.0060029
0.0059115
0.00578716
0.0058229
0.00214524
0.00176928
0.00589404
0.00424243
0.00601015
0.0058927
0.00264806
0.0180699
0.00594212
0.00594968
0.00178547
0.00507288
0.00602276
0.0058778
0.00163992
0.00596533
0.00595054
0.00593528
0.00595121
0.00571385
0.00526787
0.00793878
0.00703894
0.00589118
0.0152582
0.00584216
0.01027
0.00182139
0.00262162
0.00925643
0.00491272
0.00112832
0.00592996
0.000963777
0.00588355
0.00601529
0.0059412
0.00179015
0.000859069
0.00348027
0.00581561
0.00560919
0.00282628
0.00592853
0.000835331
0.0021954
0.000723536
0.0120563
0.00558501
0.00196388
0.0155688
0.0122043
0.00384023
0.00218293
0.00609345
0.00402061
0.00594115
0.00488096
0.00587947
0.00590077
0.00622593
0.00564289
0.00896688
0.00206975
0.00596038
0.00449436
0.00595277
0.00589296
0.00588474
0.00849937
0.0059087
0.00594381
0.0123804
0.00595804
0.00594927
0.00583691
0.0102994
0.0050048
0.00361754
0.00983477
0.00123601
0.000178774
0.00737937
0.00579247
0.00213043
0.00596083
0.0120033
0.00264475
0.0107754
0.00111204
0.00596014
0.00593468
0.000557626
0.00228596
0.00460693
0.00300273
0.00596275
0.00594778
0.000428974
0.00107718
0.000794051
0.00594427
0.000455143
0.00591433
0.00199371
0.00117842
0.00145384
0.000565836
0.00329361
0.0059397
0.0036681
0.00463801
0.0115822
0.00594743
0.00593247
0.00360411
0.00291577
0.00259851
0.00581026
0.0119205
0.00239551
0.00445735
0.00593824
0.000577099
0.00593804
0.00585704
0.00497434
0.00471604
0.00208727
0.00197217
0.00240397
0.0113747
0.00605441
0.00584699
0.00584548
0.00574745
0.000490094
0.000284971
0.00582543
0.00592934
0.0162785
0.00260573
0.00583138
0.0058273
0.0059184
0.00585669
0.00585539
0.00769366
0.00361587
0.00595975
0.00579864
0.00107592
0.00753462
0.00599259
0.00582536
0.0134651
0.00495503
0.000540054
0.0114887
0.000779459
0.00588023
0.00851776
0.000948705
0.00189522
0.00151064
0.0058415
0.00273099
0.0058904
0.00388764
0.00144601
0.00595319
0.005904
0.00550572
0.00548826
0.00593937
0.00668284
0.0163986
0.00594355
0.00582412
0.00590266
0.00582385
0.00589085
0.00613548
0.00234285
0.00593941
0.00583672
0.00881876
0.00590182
0.00566862
0.000119913
0.00585713
0.00150744
0.00844312
0.00585793
0.00478288
0.00594344
0.00999462
0.00596127
0.00543898
0.00594843
0.00587885
0.000701915
0.00605063
0.00118662
0.00477966
0.0170309
0.00650436
0.00495389
0.00361432
0.00595918
0.00161996
0.00544014
0.00539161
0.00536861
0.00581804
0.00594655
0.00604904
0.000627287
0.00428519
0.00407787
0.00583102
0.00582513
0.0121475
0.00166717
0.00591682
0.00526526
0.00533194
0.000512512
0.00156884
0.00970317
0.0104354
0.00715147
0.00083176
0.0056877
0.00489864
0.00142337
0.001043
0.0061135
0.00527824
0.0118152
0.00594139
0.00220157
0.00141808
0.00598302
0.0119206
0.00583075
0.00193693
0.00592665
0.000312485
0.00581915
0.004262
0.0021503
0.00695503
0.00600088
0.00149179
0.00431008
0.00595684
0.00594276
0.0111752
0.00445647
0.00786225
0.00118007
0.00584826
0.00596207
0.00511282
0.000911785
0.0058495
0.00536383
0.00594939
0.00202758
0.00417384
0.000675861
0.000933855
0.00151872
0.00190332
0.00782335
0.00593415
0.00595535
0.00522811
0.000657401
0.00597596
0.002395
0.00223665
0.0123823
0.00596461
0.000784473
0.00510034
0.0176582
0.00590411
0.000301027
0.000302503
0.00201949
0.00590992
0.00156648
0.00591383
0.0099101
0.00050564
0.00590535
0.0187398
0.00591511
0.0121483
0.00586417
0.0019635
0.0122338
0.00582244
0.0168595
0.00157885
0.00587918
0.0100187
0.000946403
0.00586543
0.00062028
0.00596123
0.00153757
0.00105624
0.00583476
0.00296714
0.00583929
0.00587055
0.00582184
0.00593983
0.0128508
0.00132265
0.00596203
0.00594936
0.00596122
0.00182861
0.00259068
0.0058917
0.00579293
0.00159017
0.00087562
0.00588564
0.00583765
0.00850655
0.00996193
0.00735949
0.00100239
0.00310113
0.00593362
0.00587869
0.00320042
0.00582032
0.00589188
0.0059541
0.00587972
0.0059294
0.0070318
0.00596376
0.00398681
0.00695586
0.00148103
0.005862
0.00588878
0.0100082
0.00359979
0.00243287
0.00591245
0.0058372
0.00591182
0.00586768
0.00577906
0.00589688
0.00784562
0.00574412
0.00562323
0.00583698
0.00242223
0.00543585
0.00594201
0.000774781
0.00795504
0.00594531
0.0147538
0.00586706
0.00588533
0.00595684
0.00591244
0.00584843
0.00597833
0.0122773
0.0108791
0.00584421
0.00597036
0.00161968
0.00591626
0.00141813
0.00223059
0.0103164
0.00263363
0.00554999
0.0138324
0.0141495
0.00589261
0.00601166
0.00493206
0.00585348
0.00369714
0.00591151
0.0059491
0.00594875
0.00308812
0.00371529
0.000938012
0.00168288
0.00577466
0.00558375
0.00190084
0.00321148
0.0059616
0.00229774
0.00258699
0.00461068
0.0102187
0.00582358
0.00310011
0.000534126
0.00581784
0.0126286
0.00589882
0.00586762
0.00156014
0.00591344
0.00601969
0.000584712
0.0125436
0.0170612
0.0058339
0.00490335
0.0058629
0.00271227
0.00193095
0.00596364
0.00595785
0.00582971
0.00159648
0.00986473
0.00594167
0.0059919
0.00593464
0.00586421
0.00560274
0.00363189
0.00593525
0.00169426
0.00581839
0.00596292
0.00585585
0.00982518
0.00581294
0.00389014
0.00593717
0.00210694
0.00124654
0.0016759
0.00121272
0.00150369
0.00588163
0.00174334
0.0112116
0.00667409
0.00872268
0.00590527
0.00595389
0.00641631
0.00586691
0.00950145
0.00586973
0.0126173
0.00422494
0.00995246
0.00135429
0.00318653
0.00187431
0.00584515
0.00183527
0.00602992
0.00585533
0.00911657
0.00590489
0.00098491
0.00594857
0.00600494
0.00595866
0.000980157
0.00561144
0.00581217
0.00156744
0.00174429
0.011036
0.00412044
0.0119346
0.0101837
0.00581366
0.00278435
0.00591836
0.0116608
0.0108454
0.00582568
0.00433152
0.00596673
0.0024048
0.00308579
0.00590466
0.00602759
0.00612408
0.00280168
0.00584048
0.00198523
0.00594353
0.00581018
0.00599602
0.00050847
0.00736537
0.001201
0.0013467
0.00358878
0.000583438
0.00821063
0.00587287
0.00594605
0.00610262
0.00195407
0.00586812
0.00161691
0.00585995
0.0055525
0.00590534
0.011364
0.00243302
0.0103594
0.00594345
0.00250198
0.00595494
0.00594658
0.00861103
0.00122592
0.0059482
0.000637957
0.005825
0.0058806
0.00595048
0.00990152
0.0058398
0.00545371
0.00586886
0.00595296
0.000690737
0.00594578
0.000699973
0.0060107
0.00581837
0.0116542
0.00197391
0.00596036
0.000453393
0.00100138
0.00164351
0.000468449
0.00584152
0.0051355
0.00864946
0.000941952
0.00340495
0.00576352
0.00551801
0.0060163
0.00592981
0.00603536
0.00108299
0.00492966
0.0100817
0.00217616
0.00119538
0.0030995
0.00388293
0.00347881
0.000571274
0.00581508
0.00594492
0.005475
0.00449018
0.00581855
0.0059625
0.00600104
0.00564797
0.00603462
0.00296168
0.00204306
0.00589723
0.00148709
0.00593236
0.0104219
0.00594513
0.00592972
0.0127285
0.00135059
0.0108797
0.00593251
0.00580398
0.00593128
0.00589191
0.00275079
0.00588347
0.00294181
0.00498018
0.00982826
0.0107395
0.00550526
0.0118455
0.00498945
0.00603483
0.00595401
0.0092457
0.0170708
0.00459172
0.00311513
0.00861866
0.00582057
0.0059239
0.0057809
0.00512326
0.0120683
0.0025094
0.00593913
0.00367673
0.00190145
0.00575848
0.000685807
0.00199575
0.00595238
0.00593241
0.00601015
0.00279584
0.00559197
0.000943737
0.0051626
0.00584924
0.00303462
0.00600561
0.0110627
0.00580245
0.00281442
0.00407093
0.000950273
0.00601824
0.00206912
0.00679987
0.0193286
0.00586959
0.00528548
0.00608599
0.00584787
0.0058976
0.00489415
0.00553381
0.00055509
0.000721079
0.00583884
0.000958907
0.00256317
0.0027845
0.000614885
0.00595637
0.00211744
0.00461325
0.00580659
0.001339
0.000970339
0.0020984
0.0058861
0.00585154
0.00593163
0.00200705
0.00594287
0.00593386
0.00203903
0.00588967
0.00587496
0.000700141
0.00116889
0.00395594
0.011853
0.0020091
0.00515643
0.00589694
0.00565713
0.000410809
0.00584256
0.000176361
0.00599146
0.00595048
0.00593379
0.00499654
0.00159988
0.00588699
0.00679995
0.00593938
0.0126224
0.00575609
0.00271767
0.00592393
0.00126957
0.00541466
0.00941511
0.00357831
0.00600988
0.00951329
0.00592643
0.00588939
0.00315757
0.00360807
0.00581061
0.00589443
0.00586529
0.010951
0.00293812
0.00143954
0.0101344
0.00584489
0.00204217
0.00579531
0.00557378
0.00755695
0.00580451
0.00829876
0.00354631
0.00306353
0.00110256
0.00857515
0.00583442
0.00595364
0.000858115
0.00584243
0.00595245
0.00588641
0.00595052
0.00198369
0.00583255
0.00205178
0.00595352
0.00284586
0.00566187
0.00459835
0.00583891
0.014773
0.00191967
0.00437029
0.00581817
0.00589271
0.0058959
0.00592807
0.00583209
0.0030222
0.00585887
0.00254362
0.00595801
0.000858814
0.0059491
0.0021018
0.00108142
0.00592043
0.00400486
0.00592722
0.00584503
0.00388723
0.00591946
0.0117247
0.00106973
0.00752553
0.0059182
0.00584059
0.00595536
0.0059371
0.0101129
0.00581988
0.00137943
0.0058549
0.0133419
0.00548271
0.00587283
0.00212228
0.00652412
0.00582185
0.0108295
0.00513322
0.00576699
0.00141201
0.00584536
0.00166461
0.00591351
0.00593699
0.00622077
0.00597989
0.00586806
0.00144776
0.00527176
0.00584551
0.0129785
0.00126196
0.00589803
0.00585978
0.00595532
0.00231618
0.00583846
0.00168683
0.00593108
0.0126996
0.00543705
0.00815542
0.00594663
0.00588853
0.013089
0.00608222
0.00598597
0.0105164
0.0058923
0.00582625
0.00503092
0.0059017
0.00589547
0.00116664
0.00587476
0.00985895
0.0041623
0.00229659
0.000551347
0.00420255
0.0126094
0.00593775
0.00123682
0.00584086
0.0072724
0.0140435
0.00593777
0.00591482
0.00588562
0.00596216
0.00593691
0.00593269
0.00594442
0.00585998
0.00386729
0.00580665
0.00591186
0.00178518
0.00928185
0.00991678
0.00149605
0.00595354
0.0133094
0.00584825
7.97227e-05
0.0085696
0.000177606
0.00586793
0.00581933
0.00589215
0.00595146
0.00586319
0.005914
0.00584613
0.00340313
0.00582659
0.000740312
0.00553489
0.00584367
0.0114125
0.00584257
0.00593845
0.00663823
0.0103565
0.00297692
0.00596554
0.0113527
0.00594671
0.00594335
0.000727165
0.00588182
0.00770686
0.00592312
0.00278971
0.00586041
0.0059389
0.00379624
0.000912907
0.00589248
0.0095892
0.00556829
0.00612233
0.00582544
0.0058434
0.00584712
0.00212525
0.00198077
0.00486893
0.0104823
0.000998445
0.00088604
0.00202157
0.00594244
0.00978735
0.00593831
0.0100906
0.00138742
0.00271327
0.00590994
0.0113751
0.0170866
0.000699243
0.00628906
0.012777
0.00592834
0.0058578
0.00197384
0.00595416
0.0059266
0.000206436
0.00484082
0.00594124
0.0022419
0.00731854
0.00594298
0.00584598
0.0123809
0.0111219
0.0059389
0.00591901
0.00307447
0.00588627
0.00593998
0.00476876
0.00558192
0.00588774
0.00976751
0.00633639
0.0083134
0.00820073
0.00554246
0.00760603
0.00593692
0.00595048
0.00443514
0.00513955
0.0107244
0.00449619
0.00319324
0.00578104
0.00519902
0.0057842
0.00956595
0.00582496
0.0059261
0.00178032
0.00587457
0.0192183
0.00125077
0.0017228
0.00207755
0.00029423
0.0125747
0.00643794
0.0123199
0.0060971
0.000402767
0.00585082
0.00159802
0.00100314
0.0073151
0.00396126
0.00586048
0.00430515
0.000954562
0.00587879
0.0101573
0.0028523
0.000891269
0.00979036
0.00594433
0.00197192
0.00584299
0.00595697
0.00559569
0.00819084
0.00591142
0.00583402
0.00590794
0.00230698
0.00582936
0.00589313
0.00335748
0.0059372
0.00591875
0.00101214
0.00222024
0.00592529
0.00591242
0.00156063
0.00290699
0.00255224
0.0126018
0.00594419
0.00584004
0.0166239
0.00593246
0.00586955
0.012301
0.00831408
0.00521805
0.00168927
0.00473631
0.00183309
0.00149482
0.004177
0.0047703
0.00593557
0.000879063
0.0098239
0.00105085
0.0102342
0.0180148
0.005929
0.0059587
0.00613976
0.00592427
0.00596435
0.000947399
0.00598768
0.00202417
0.00581812
0.00204753
0.0102469
0.00587489
0.00247508
0.0133316
0.00584308
0.00250765
0.00553001
0.00590291
0.00585095
0.00942042
0.00138146
0.00602416
0.00480075
0.00818766
0.000945842
0.00585715
0.00398914
0.00269397
0.00574659
0.00587944
0.000445684
0.00585089
0.00510802
0.00267968
0.00560945
0.00559116
0.0017518
0.00703201
0.00583842
0.000680219
0.0024866
0.00595555
0.00584634
0.00619006
0.000952997
0.000234656
0.00588498
0.00215422
0.00460465
0.00896454
0.00254813
0.00591605
0.00582893
0.00592783
0.0058434
0.00620132
0.00579508
0.000782615
0.00593502
0.00359113
0.00362338
0.00441878
0.00146485
0.0111667
0.00951177
0.00593413
0.00593848
0.00582143
0.0059178
0.00212499
0.0110695
0.00753817
0.000984102
0.00358407
0.00181626
0.00328822
0.00422421
0.00511809
0.00153652
0.00593897
0.00174612
0.00430123
0.00587093
0.00592367
0.011934
0.00186866
0.00449701
0.00937814
0.000617073
0.00593046
0.000217353
0.00614237
0.00582735
0.00708284
0.00870019
0.00593922
0.00525055
0.00100833
0.00470328
0.00593993
0.00583118
0.00584928
0.00585878
0.00584343
0.00368409
0.00345014
0.00490081
0.00465601
0.00357276
0.00230321
0.00103618
0.00590671
0.00336503
0.000339789
0.000985559
0.00821609
0.00589742
0.00583108
0.00790379
0.00584467
0.00982206
0.00549931
0.00396964
0.00596281
0.0058512
0.00027132
0.00410477
0.00590403
0.00583927
0.0166338
8.05955e-05
0.00795374
0.00595237
0.00595835
0.0185622
0.0059502
0.0059328
0.000998661
0.0102633
0.00497075
0.00228688
0.00594511
0.00244921
0.00582766
0.00570987
0.00532698
0.00582819
0.00100498
0.00583
0.00585396
0.00010618
0.00202129
0.0144055
0.000995598
0.0058236
0.00311568
0.00587354
0.00592509
0.00582591
0.00598127
0.00593769
0.00112562
0.00591389
0.00116284
0.00558851
0.0055558
0.00589012
0.00593897
0.00593237
0.00954507
0.00590228
0.000510244
0.00176467
0.00602853
0.00185289
0.00219911
0.00275219
0.00592422
0.00572692
0.00584648
0.00587255
0.0146841
0.00261998
0.00556087
0.00594455
0.00595
0.0059193
0.0017348
0.0058719
0.0113598
0.00186652
0.00594191
0.0058246
0.00585046
0.00201058
0.00669759
0.016537
0.0016752
0.0189123
0.00541288
0.000821111
0.0057849
0.00873747
0.0058186
0.0058963
0.00501133
0.0043584
0.00585414
0.0114892
0.00595456
0.00595107
0.000917767
0.000517214
0.00177398
0.00732924
0.00406521
0.00115643
0.0060064
0.00593006
0.00902395
0.00584264
0.00595905
0.00290484
0.00583831
0.011902
0.00491286
0.0058513
0.00586412
0.00593287
0.0112861
0.00599882
0.00583211
0.00190324
0.00582416
0.00586897
0.00598591
0.00593089
0.0019511
0.00592626
0.00575611
0.00581568
0.00683068
0.00301941
0.00581659
0.00581758
0.00594175
0.00582452
0.00348571
0.00595094
0.00594853
0.00592896
0.00587141
0.00593287
0.00589933
0.00169143
0.005852
0.00119649
0.0059612
0.00208543
0.00588003
0.00593362
0.00588013
0.0059039
0.00449325
0.00547738
0.00289522
0.0146241
0.00834369
0.0125154
0.0113118
0.00149312
0.0059776
0.00596016
0.00589195
0.00524104
0.00951769
0.00591407
0.00779427
0.00586213
0.00169851
0.00573062
0.00373657
0.00113837
0.00480777
0.0169412
0.00595201
0.00192697
0.00584714
0.0104809
0.00380083
0.0122523
0.00189742
0.00594889
0.00349955
0.00141082
0.00600657
0.00216575
0.0143102
0.00586682
0.00582012
0.00494266
0.00874127
0.00592838
0.00229475
0.00595934
0.00138128
0.000627607
0.00593527
0.00588642
0.000549278
0.00591921
0.00584283
0.00594282
0.00583698
0.000541802
0.00517353
0.00304693
0.0104176
0.00584284
0.00168822
0.0059105
0.00396794
0.00171751
0.00991939
0.00587541
0.00310482
0.00594253
0.00597957
0.0032602
0.00591829
0.0030982
0.00591987
0.00584412
0.00583857
0.0122393
0.00581967
0.00678362
0.00533853
0.0130848
0.00595644
0.00589606
0.00583225
0.0106319
0.00596308
0.00308934
0.00596057
0.00384653
0.00588236
0.0058465
0.000644951
0.00594945
0.0060095
0.00821133
0.00100884
0.011476
0.00590828
0.00934079
0.00835457
0.00594934
0.00927384
0.00596223
0.00557692
0.0094445
0.0058211
0.00194915
0.00580051
0.00346155
0.00142743
0.00588285
0.00184049
0.00584546
0.00683681
0.00582969
0.004667
0.0058465
0.00585655
0.00582259
0.0132015
0.00590111
0.00811151
0.00245216
0.00781107
0.00584749
0.00377583
0.010377
0.00213465
0.000486081
0.00103234
0.00588132
0.000737072
0.0029314
0.00577863
0.00123495
0.00589417
0.000568781
0.002492
0.005914
0.00261688
0.00582465
0.00848238
0.000468412
0.0057993
0.00578866
0.00691388
0.0118542
0.00583632
0.00553204
0.00584131
0.00594637
0.0075668
0.00144312
0.000618883
0.00595292
0.00435052
0.0120511
0.00596858
0.0131695
0.000895503
0.00582266
0.00583674
0.00114763
0.00847455
0.00443926
0.00805902
0.00111171
0.00432564
0.00374336
0.0109438
0.0101805
0.010185
0.00582032
0.000995292
0.00210713
0.00132018
0.00589206
0.00275247
0.00173149
0.00171087
0.0126442
0.0058951
0.00207017
0.0101525
0.00201921
0.00583636
0.00583864
0.000926703
0.00591037
0.0122858
0.0046341
0.0059228
0.000585791
0.00405299
0.00581638
0.00265193
0.0025026
0.00589649
0.0108131
0.00576556
0.0115506
0.0059345
0.010169
0.00015825
0.00110469
0.00590555
0.00477944
0.00321736
0.00179891
0.000705757
0.00171829
0.00777061
0.000381524
0.0058152
0.00507739
0.0058653
0.000695392
0.00250923
0.00592794
0.00581519
0.00591133
0.00021758
0.00175786
0.0059354
0.00351844
0.000635791
0.00582343
0.00444435
0.00579533
0.0101073
0.00536606
0.0122338
0.00328858
0.00309443
0.00573503
0.00105122
0.00584719
0.00196604
0.00822644
0.00555438
0.00156415
0.00207178
0.0019182
0.00763641
0.00942887
0.00588046
0.00519059
0.000599972
0.00583747
0.00158447
0.0012402
0.000864779
0.00288318
0.00154691
0.00729383
0.00076499
0.00900558
0.0050087
0.00213959
0.00592133
0.00592747
0.00591255
0.00584217
0.00063237
0.00175381
0.00591003
0.00226229
0.0012406
0.00584433
0.0104321
0.0101378
0.00591519
0.005959
0.00592123
0.00592342
0.00201412
0.00584531
0.00870814
0.00269673
0.00115387
0.00556371
0.00141381
0.00394971
0.00342197
0.00209069
0.00589799
0.00591675
0.00590624
0.0059215
0.0109761
0.00207627
0.003907
0.00925133
0.00595346
0.00595293
0.0029689
0.00586644
0.00594523
0.00179084
0.0041364
0.00775308
0.0158172
0.0111097
0.00587833
0.0139257
0.0058474
0.000282033
0.00581544
0.00112462
0.0103333
0.00590157
0.000368241
0.00711293
0.00341627
0.00600911
0.00593698
0.00459217
0.00692412
0.00583468
0.00594158
0.00604771
0.00610826
0.00113166
0.00601944
0.00431541
0.00582253
0.00603665
0.0010779
0.00292418
0.00576697
0.000727902
0.00160736
0.0121038
0.0102671
0.00611668
0.00592362
0.00815585
0.00590094
0.00147242
0.00589287
0.00730035
0.00591871
0.00595013
0.00518866
0.0097615
0.00583435
0.00587686
0.0058158
0.00145692
0.000793735
0.000607181
0.00583432
0.00578444
0.00582946
0.0101183
0.00592968
0.00217459
0.00196361
0.00595271
0.000420088
0.0031248
0.00623825
0.00486934
0.00593412
0.00507343
0.00212974
0.000992886
0.0059319
0.00596014
0.00592554
0.0111408
0.00592493
0.00598063
0.00931143
0.00588388
0.00585965
0.00410296
0.00592266
0.00594698
0.0084644
0.0034168
0.00634975
0.0139585
0.00582953
0.00446287
0.00596161
0.000680893
0.00361279
0.00598729
0.00590843
0.00582705
0.00584536
0.0128539
0.00192913
0.0093026
0.0102478
0.00585031
0.00579444
0.00431107
0.00107367
0.0058552
0.00974195
0.00956436
0.00605195
0.00591353
0.00550722
0.00595518
0.0044992
0.0109848
0.00590153
0.00585156
0.00276857
0.00687269
0.00591941
0.0053774
0.00588101
0.00173216
0.000178848
0.00581686
0.0102285
0.00517257
0.00583506
0.00506936
0.00192021
0.00599609
0.0137551
0.00389666
0.00554932
0.00600425
0.00470746
0.00595544
0.00206664
0.00271092
0.0059469
0.00400368
0.00105706
0.012648
0.00583205
0.000767598
0.0140225
0.00889604
0.00593934
0.00590293
0.012678
0.00341503
0.00271761
0.00589646
0.015723
0.00216827
0.00584816
0.00481679
0.00479833
0.00596367
0.000427826
0.0059519
0.00545815
0.00589113
0.00580663
0.00596049
0.00581632
0.00946346
0.0059002
0.00584113
0.00117274
0.00292347
0.00573352
0.00112941
0.00593144
0.00583618
0.00589497
0.0059385
0.0188279
0.0192642
0.000111738
0.00665331
0.00380317
0.00834555
0.00472207
0.011163
0.0152427
0.00971846
0.00585378
0.00333012
0.00585696
0.0059518
0.00593195
0.00586334
0.00114569
0.00209343
0.00264585
0.00584221
0.00583626
0.00200813
0.00594287
0.00596294
0.00593851
0.0107776
0.00498534
0.00168144
0.0058743
0.014876
0.00596063
0.00595125
0.00594271
0.0020165
0.00585211
0.000963
0.0103814
0.00369675
0.00743096
0.00922455
0.00602059
0.00410482
0.0119302
0.000701763
0.0059212
0.0059286
0.0058316
0.0102343
0.00580962
0.00282922
0.00474146
0.0011195
0.00117014
0.00205708
0.0017415
0.0109392
0.00593261
0.00581177
0.00626966
0.00264614
0.0058848
0.00588128
0.0189363
0.00582212
0.000525601
0.00604323
0.0059519
0.00511525
0.00588022
0.00108434
0.010334
0.00846926
0.0039884
0.00595241
0.0016364
0.00592086
0.00114997
0.00583912
0.0015198
0.00216085
0.00596086
0.00596014
0.00583759
0.000905827
0.00401397
0.0011165
0.000825787
0.00512764
0.00524171
0.00180063
0.00182125
0.00820807
0.00584923
0.0105549
0.00593718
0.0106037
0.000260455
0.0102512
0.00847993
0.00600826
0.00192632
0.00450674
0.00595388
0.00557538
0.00592534
0.00588883
0.00344843
0.0059491
0.00244743
0.000994842
0.000769553
0.010118
0.00431076
0.00352185
0.00592504
0.00594234
0.00590413
0.000638831
0.00160387
0.0101724
0.00385915
0.00591406
0.00583946
0.00594719
0.000965269
0.00577608
0.00591728
0.00509747
0.00147493
0.00238676
0.00187487
0.00328011
0.0110096
0.00480154
0.0023864
0.00585447
0.00298197
0.000303373
0.00963756
0.00243628
0.00586826
0.00559858
0.00290065
0.00588973
0.0016993
0.0114712
0.0128486
0.00329996
0.00582507
0.0101733
0.00596196
0.0058239
0.00591925
0.00524516
0.00121677
0.00602064
0.001879
0.00747241
0.00618595
0.00350585
0.00153799
0.011766
0.00503197
0.0109206
0.00595725
0.00597449
0.00652809
0.00974598
0.00271178
0.0059108
0.0121124
0.00588599
0.00594191
0.0120539
0.00294001
0.00155903
0.000170464
0.00320906
0.00573351
0.00270131
0.00588545
0.00582833
0.00587562
0.00211377
0.00585286
0.0037864
0.00607576
0.00819517
0.0014204
0.00594134
0.00574169
0.00615284
0.011452
0.00786593
0.00587658
0.00593825
0.00301967
0.000755449
0.00114569
0.00116668
0.0111828
0.0104719
0.000125651
0.00585683
0.00216797
0.00674235
0.00431603
0.000626142
0.00595273
0.00594111
0.00587027
0.00592762
0.00583963
0.0022392
0.0084815
0.00480448
0.0121202
0.00347841
0.000889816
0.010814
0.0119882
0.00523591
0.0110908
0.000747337
0.00170456
0.00581478
0.00595695
0.00160385
0.00580094
0.0059021
0.00871701
0.0121986
0.00586647
0.00590137
0.00592044
0.00135528
0.0059559
0.00114946
0.0105904
0.00583012
0.0058258
0.00585753
0.00594432
0.00201319
0.00983813
0.00257592
0.00406073
0.000725733
0.00584039
0.0162385
0.000839274
0.00599436
0.000234934
0.00119184
0.00959319
0.000713424
0.00737102
0.00594744
0.00283996
0.0102621
0.000585792
0.00525132
0.00592673
0.00586954
0.00579968
0.00373795
0.00751289
0.00123387
0.00593581
0.0044435
0.0146056
0.00992019
0.00586041
0.00592411
0.0125494
0.0119275
0.00592228
0.00449059
0.000726126
0.00583315
0.00583331
0.0106069
0.00584493
0.000939419
0.0159157
0.00787087
0.00584862
0.00179392
0.000754591
0.00588519
0.00587534
0.0178557
0.00375385
0.00593995
0.00332328
0.000509951
0.00102316
0.0117763
0.00174989
0.00518409
0.016398
0.0114317
0.00403726
0.00582233
0.0024935
0.00581202
0.00589844
0.0075248
0.00424793
0.000789794
0.00388942
0.00554638
0.00590867
0.00584072
0.00594345
0.00593018
0.00430252
0.00395865
0.000308
0.00293806
0.0039163
0.00126913
0.00730544
0.00955771
0.00480816
0.0059122
0.00376381
0.00390312
0.00508945
0.00055041
0.0111918
0.00594497
0.000724951
0.00904898
0.0049054
0.00173499
0.00120018
0.0017522
0.00172463
0.00526148
0.00166539
0.00152938
0.00140131
0.00127519
0.00177162
0.00104363
0.00555864
0.00582961
0.00255888
0.00157267
0.00584971
0.000356805
0.0112311
0.000549309
0.0120074
0.00586148
0.00587475
0.0058151
0.00661131
0.00593663
0.00580854
0.00236014
0.0109757
0.0161293
0.00591991
0.00333027
0.00428645
0.00266307
0.0149627
0.00325291
0.000602201
0.0100353
0.00124147
0.0112944
0.000746776
0.00901526
0.0114676
0.00579068
0.0098891
0.0107242
0.00593139
0.0013339
0.000821733
0.00558082
0.00588906
0.000758084
0.0138733
0.00593479
0.00593905
0.00838807
0.000232464
0.00107159
0.00595772
0.00103511
0.00058577
0.0122454
0.00723065
0.00589318
0.00583271
0.00593975
0.00609267
0.0101822
0.0188562
0.0107034
0.00166511
0.000253366
0.0100052
0.00610931
0.00583622
0.00977778
0.00592287
0.0108744
0.0059383
0.0115707
0.00591805
0.00593428
0.00582784
0.00591566
0.00133127
0.00687039
0.00612054
0.00582215
0.00590589
0.00117905
0.00765434
0.000621319
0.0119551
0.00613644
0.00605443
0.00311886
0.00114555
0.0101118
0.0106718
0.000876514
0.000991498
0.00128058
0.00439985
0.00597382
0.00592383
0.00583259
0.00581478
0.000168253
0.00192588
0.0116619
0.00413079
0.00133454
0.00587556
0.012321
0.00123597
0.00280767
0.00583313
0.00555256
0.00581049
0.0110859
0.00329413
0.0139672
0.000200782
0.00138699
0.000743913
0.00583448
0.00221095
0.000628098
0.000161714
0.000168969
0.00588028
0.00117106
0.00595401
0.00593354
0.00125196
0.00680834
0.000531242
0.00596133
0.00102545
0.000845617
0.0113833
0.00352622
0.00965045
0.00802237
0.0059106
0.00140951
0.0059529
0.00131403
0.00594346
0.000749211
0.00584114
0.00171241
0.015089
0.00679873
0.00608723
0.00136552
0.010866
0.00171244
0.00581258
0.0119154
0.00184932
0.00602522
0.00590325
0.00770467
0.00389063
0.000675287
9.0084e-05
0.0113869
0.0049104
0.00603425
0.00836928
0.0103772
0.01388
0.00101182
0.00294505
0.00125051
0.00121718
0.00907609
0.00276713
0.0059454
0.00067747
0.00366698
0.000451423
0.00440906
0.00940919
0.000204794
0.00116071
0.00271846
0.00220015
0.00576467
0.00854614
0.000609239
0.00207248
0.00204853
0.00582025
0.00581381
0.00941767
0.00987791
0.00542243
0.00595
0.00405677
0.00508139
0.00734652
0.00232644
0.010577
0.0048852
0.0102697
0.000659073
0.01317
0.00594696
0.000338699
0.0104575
0.00610669
0.00226851
0.0058458
0.00417288
0.00590442
0.0157949
0.00586634
0.00588438
0.0113619
0.00366161
0.00581447
0.0105004
0.00593946
0.00595467
0.00584652
0.00590366
0.00593065
0.000282058
0.0120423
0.00585527
0.00252767
0.00165844
0.00196991
0.00143573
0.00175403
0.00497935
0.00214721
0.00582417
0.0153577
0.00372269
0.00993458
0.00621393
0.00617124
0.000733114
0.00112549
0.000884142
0.00990833
0.00581874
0.00643459
0.00154975
0.00139739
0.00419659
0.00588818
0.00480405
0.00112757
0.00589208
0.00386977
0.00582659
0.00839295
0.00142173
0.00617642
0.00119552
0.00124032
0.011256
0.00593133
0.0059449
0.00188187
0.00589349
0.00593518
0.00594016
0.004714
0.00587162
0.00582966
0.00591894
0.00294475
0.0058652
0.00440876
0.00605792
0.0038788
0.00193773
0.00582997
0.00854012
0.00583011
0.00584306
0.001806
0.00203247
0.00608913
0.00587679
0.00188372
0.00325639
0.00909094
0.00328344
0.000676801
0.00583636
0.00595054
0.00135361
0.0116995
0.00163524
0.00288861
0.00582198
0.0122831
0.00590897
0.00582956
0.00166262
0.00377328
0.000531597
0.0109966
0.00111817
0.000780878
0.00406138
0.00486274
0.00595056
0.0059268
0.00157835
0.0166875
0.00184627
0.000732369
0.0102542
0.00446983
0.00591294
0.00300864
0.00104282
0.00206237
0.00589613
0.00178865
0.00199702
0.00126776
0.0059247
0.00588774
0.000509156
0.00131996
0.000600425
0.00797051
0.00580143
0.00137234
0.00592526
0.00200531
0.00142051
0.00595514
0.000499495
0.00488335
0.00090124
0.0125777
0.00588139
0.00593625
0.00582526
0.0109872
0.00100584
0.00584747
0.00157223
0.00178011
0.00591976
0.00594701
0.000845203
0.010641
0.000477367
0.0103233
0.00101177
0.00229455
8.96619e-05
0.00163505
0.00237532
0.00626146
0.00217113
0.00691832
0.00589877
0.00198406
0.00149678
0.00594155
0.00150444
0.00420163
0.001608
0.00485353
0.00136996
0.00587016
0.00620134
0.00305817
0.00581762
0.00593534
0.00583458
0.00591848
0.00593606
0.00588231
0.00327067
0.00594301
0.00594632
0.0150098
0.00169793
0.00593949
0.0012997
0.0050817
0.00585424
0.00583489
0.00193027
0.00551642
0.00257088
0.0058852
0.00587406
0.00137833
0.000654825
0.00592111
0.00590735
0.000661006
0.00344882
0.000862383
0.00136979
0.00595755
0.0024001
0.0034001
0.0059435
0.00168431
0.0109216
0.00604655
0.00145713
0.00593761
0.00273771
0.00595211
0.00450167
0.0058514
0.00587767
0.00476111
0.00136118
0.000276595
0.00178463
0.00589393
0.00441499
0.0111617
0.0020518
0.00116518
0.00132855
0.00589178
0.00188044
0.00030747
0.000893008
0.00407209
0.0048992
0.00918039
0.0110489
0.00361254
0.00592937
0.00123306
0.00594298
0.00203294
0.0121977
0.00593996
0.00934981
0.00596228
0.0114037
0.00225396
0.00593296
0.0013169
0.0111515
0.0110986
0.00408532
0.00116459
0.00281176
0.00581422
0.0173365
0.00582078
0.00290705
0.00583859
0.00566862
0.0100391
0.00169966
0.00592251
0.00404164
0.000227954
0.00592852
0.00596315
0.00394967
0.00563906
0.00588675
0.00410507
0.00573728
0.00596039
0.00585403
0.00172405
0.00186542
0.0011738
0.00582372
0.00179901
0.00982261
0.00529722
0.00591081
0.00594588
0.00274316
0.00127809
0.0059538
0.00586659
0.00586791
0.00591805
0.00556511
0.00310401
0.00621242
0.00164031
0.00585255
0.00583791
0.0058596
0.00196839
0.00200713
0.00181052
0.00594912
0.0041291
0.00891313
0.00361224
0.00297507
0.00534966
0.00997092
0.00194788
0.00130083
0.00126096
0.00594411
0.00840948