/*--------------------------------*- C++ -*----------------------------------*\
| =========                 |                                                 |
| \\      /  F ield         | OpenFOAM: The Open Source CFD Toolbox           |
|  \\    /   O peration     | Version:  v2012                                 |
|   \\  /    A nd           | Website:  www.openfoam.com                      |
|    \\/     M anipulation  |                                                 |
\*---------------------------------------------------------------------------*/
FoamFile
{
    version     2.0;
    format      ascii;
    class       volScalarField;
    location    "200";
    object      omega_0;
}
// * * * * * * * * * * * * * * * * * * * * * * * * * * * * * * * * * * * * * //

dimensions      [0 0 -1 0 0 0 0];


internalField   nonuniform List<scalar> 
13917
(
5.36313
0.0446911
0.214642
0.0252926
0.0319495
0.0442571
0.0294414
0.0853908
0.0282812
11.9637
0.0824532
0.0248265
0.0271701
0.565506
0.0307806
7.13318
0.0244521
0.0705227
0.112462
8.73333
0.036465
0.0247064
0.0463847
0.024707
0.0262674
0.0385617
2.31057
12.5448
0.0496197
0.0225578
11.1513
0.0672711
0.0253133
2.99677
0.0242575
0.0971739
0.0269925
0.0262112
0.0294832
0.0405755
0.0245744
0.0245112
0.0269041
0.106575
0.106112
0.167127
0.0347925
5.63044
1.23508
0.0242776
0.0247917
0.116483
16.6407
0.0247046
0.0247866
0.114821
7.42864
0.0464174
0.0243842
0.152147
2.51421
0.0315676
0.0233177
0.0260941
3.08319
0.0893566
0.0542435
0.096979
0.0764735
5.88198
2.94338
3.13729
0.0248328
0.0241598
0.0372987
0.0267207
0.0274899
0.0240594
0.0265125
0.0253856
0.0252454
0.0245874
0.0248204
3.08903
0.0241603
0.124543
0.064882
0.0245705
0.0401948
0.0243486
0.0233665
0.0270625
1.16878
0.0239398
0.0252285
0.0539489
1.82558
0.0248867
0.0244885
0.14097
0.0238174
0.0237581
0.0252917
0.0241716
0.0274388
3.35525
3.07475
0.0282557
0.0247474
2.30882
0.0246462
2.95377
0.0494917
4.57467
3.09184
0.0271267
0.105124
0.0234073
0.183948
0.024766
0.0244581
0.023803
0.0597399
0.0931456
5.42115
3.17318
0.0259353
0.0390352
0.0240472
0.0938735
0.034718
0.164116
3.46581
0.0270857
0.0784045
2.23444
2.587
5.27827
0.0409002
0.0261741
0.297489
0.0239007
3.34265
0.0241626
0.0247578
0.0267454
2.9356
0.62752
6.08847
0.0247443
0.0375219
0.0235775
0.0247364
0.0247768
1.92808
0.0253604
0.0241114
3.44013
0.0240714
0.023569
0.024125
2.78598
0.029025
0.239633
2.5099
0.172731
23.3255
2.81568
0.0221192
0.0432232
0.0248339
3.34117
0.0282449
2.52407
0.0718185
0.0237779
0.0252961
0.126823
0.0340178
0.0296431
0.0268035
0.0247433
0.0247892
0.17673
0.191917
0.160211
0.0247592
0.177135
0.02258
0.104856
0.0720555
0.0977023
0.137925
5.24416
0.0239475
5.2294
0.0286604
3.54644
0.0242134
0.0251301
0.0328821
5.67246
6.74503
0.0266112
2.41007
0.0390875
0.0379475
0.0239053
0.125338
0.0252401
0.0237685
0.0390904
0.0423885
5.90038
0.0762756
0.0402587
2.90089
0.0253611
0.0230725
0.0230584
3.17801
0.161288
0.153966
0.0244451
0.0236235
2.14028
6.29583
0.0230194
0.0230094
0.0246914
0.0230793
0.0230691
3.30452
4.40955
0.0248884
0.0221365
0.0759921
3.3792
0.0241106
0.0244411
2.39991
3.39506
0.186584
2.89702
0.098126
0.0241725
2.60313
0.0788541
0.04635
0.0757169
0.026358
5.23169
0.0247763
0.0434644
0.0651835
0.0249955
0.0249103
0.0260715
0.0303415
0.0243079
3.73457
1.28377
0.0238146
0.0230127
0.0254965
0.0230197
0.024782
0.0272014
0.0388048
0.0239293
4.19976
2.9304
0.0245538
0.0280413
0.282391
0.0229267
0.10012
3.33226
0.0229399
4.33549
0.0242128
2.77714
0.0238774
0.0290852
0.0250655
0.024118
0.148688
0.0253916
0.733193
0.0309816
1.22572
0.0263581
2.17175
5.52656
0.0236464
0.0527817
0.0309501
0.0274146
0.0315702
0.0264708
0.0240084
0.0250614
0.125589
0.0443436
0.0423277
0.0263155
0.0244186
3.48409
8.44814
0.0239587
0.0277293
0.0274516
0.2346
0.125915
2.85803
2.52404
0.0523797
0.163942
0.0277145
2.9749
0.193818
0.214598
0.0270606
0.0304394
2.32214
0.0250842
0.0483859
0.0970591
0.0243414
3.33921
0.0241977
0.0425379
0.023104
18.5239
0.0236943
0.0401087
0.0395941
0.0460263
0.0241677
0.075826
3.16758
0.0251325
0.0250746
2.91144
3.22769
2.57488
0.419897
0.0229175
0.0248513
3.45443
0.162381
0.0229348
0.0316825
0.0247395
0.0556533
0.0411491
0.112392
0.0959154
0.100674
0.042087
3.22798
0.0240879
0.0251419
0.0335438
0.183645
0.024311
6.35481
0.04188
0.294979
0.0248276
0.12463
0.0287462
1.12189
0.0244791
0.169599
0.308348
0.0420383
0.0245777
2.18754
0.0233188
2.49684
0.149627
0.0244701
1.18211
0.0254338
0.308571
0.0235276
7.5721
0.307917
0.0265262
2.09497
0.0856321
0.0260069
2.58921
0.236401
0.0261408
0.149326
0.0247637
0.0867448
0.213387
0.0242187
0.0288956
0.0262902
0.0241081
0.0238733
0.0241424
2.64096
0.180162
0.0249695
0.0241976
0.024546
0.0517391
0.105397
0.0229581
0.0221431
0.123869
0.123903
0.0241456
0.0263892
2.54128
1.80825
0.0950681
0.11871
2.77064
0.0234496
0.0229329
0.0338322
0.0238616
0.0229756
0.0249647
0.0229514
0.0233925
2.85483
0.0248096
0.0432956
3.83091
0.052477
0.0237882
0.0247161
2.61159
0.0328922
6.62901
0.0230476
0.0244089
0.0234077
0.0230874
0.0268793
0.0256214
2.52022
0.0292751
3.4439
0.0244019
0.0370838
0.0312845
0.0251728
0.0953818
2.56786
0.0247075
1.7815
0.0238274
0.024206
0.0244936
0.025451
0.0237183
0.0250649
3.43188
2.50814
0.0236994
2.16852
0.121185
0.02491
0.0573163
0.0734293
2.56293
0.0296265
3.37416
0.320886
0.33148
0.0256437
0.0670962
0.0345852
0.0262229
2.32736
0.0234916
0.0246568
0.0252357
0.0285817
0.0356354
0.162145
0.0542655
0.0281652
0.0289787
0.068443
0.0560715
0.0249706
0.807115
0.0380843
0.0309983
2.48693
0.0241696
0.0584809
0.140005
0.0237494
3.25795
0.0242997
0.0230827
0.0530411
0.0230579
0.0252056
0.124334
3.53768
1.7869
0.0241227
0.0254915
0.0259292
1.90045
1.9799
0.024867
0.0247496
0.0241021
0.0603641
0.55687
0.0240989
0.024143
0.0250389
0.0240882
0.0285857
0.0310853
0.0236594
0.0549967
0.0237502
0.0245929
0.0261573
2.88922
0.0231639
0.0266499
0.0243125
0.0361119
0.0670037
0.0596094
0.0676959
0.159646
0.0259379
0.0602719
3.55874
2.96515
3.44943
0.0238734
0.0244411
0.0286621
0.024481
3.13508
0.0229542
0.74755
0.0286494
3.44331
0.111802
0.0268954
4.36903
0.0236849
0.0635408
0.0247936
0.0252722
3.43963
0.0229901
0.221764
0.0236532
0.0257695
0.0244915
0.154477
0.0289173
0.0230006
0.107742
0.0561129
0.596327
2.83582
3.58051
2.54128
0.0231711
6.14106
0.0229356
2.54744
0.679378
0.0257522
0.0335271
0.0237419
0.037638
0.0265793
0.0230096
0.0248169
0.0269064
2.63144
0.0241809
0.0608916
0.024621
0.0229873
0.0238728
0.169069
2.68655
7.15423
0.0709243
0.0309398
1.33355
3.26131
0.0235553
2.51054
0.0267087
0.098975
0.024472
1.86452
0.0240668
0.0289466
0.0247813
0.625113
0.0389826
3.05177
0.0237594
0.0375095
0.024264
0.0240389
3.08555
0.140823
0.0244479
0.122609
0.0244187
0.0249631
0.0237476
2.9303
0.0241865
0.0308492
0.0229418
0.0243456
0.183595
0.023658
0.114331
0.024751
0.023718
2.54118
0.0627013
0.0248105
18.2323
0.21119
0.0753632
0.146485
0.023667
0.0318544
3.02985
0.248472
0.0325423
0.0270093
0.0293083
0.0245887
0.0241423
0.0636165
0.0721296
0.0278694
2.48986
0.0394069
0.477575
2.10928
0.0494832
0.0383877
0.136814
3.87106
0.0240141
0.0363591
0.0900585
0.0237326
0.0238852
0.0238282
0.0274414
0.0252823
5.85018
0.036658
0.0239516
0.0901529
0.0236833
2.81435
0.0242059
0.024043
3.43422
0.0631924
0.31994
0.0248808
0.0243005
0.0239959
0.0251996
0.0308763
0.0240945
6.1121
0.0329612
0.465694
0.316971
0.0361675
3.61277
0.0254966
0.0247229
0.024326
3.20986
1.91917
0.0290455
5.85122
0.770145
0.0237076
0.023996
0.026886
3.28643
0.353937
0.0392643
0.0251659
0.0266479
0.10216
0.0270264
0.112181
0.0367948
0.0251657
0.0254089
0.0247745
0.0307854
0.0289782
0.256694
0.0277896
0.02705
5.85312
0.0235143
0.774725
0.0267004
0.0372643
0.0284694
0.235343
0.0244042
0.0599325
2.68472
0.309941
0.0245095
0.0278152
0.0257795
0.02439
0.0247698
0.0348977
0.0305879
0.17406
0.114394
0.0236342
0.246449
0.0282309
0.028615
0.125503
0.0249388
0.0634125
1.73946
0.023034
0.0631829
0.0841249
0.0364906
0.0239561
0.0237521
0.0241299
7.26952
0.0252711
0.02437
0.0420492
0.0241214
0.0238378
0.110101
0.943323
0.0412813
1.87541
0.0515601
3.50409
0.0247765
0.0279719
0.592507
0.0257246
0.062409
0.0241744
0.0238697
0.024853
0.0282564
0.061835
0.0239499
0.152628
0.0248571
0.727112
0.0267406
0.0295592
0.0231145
0.0765419
0.0293784
2.68883
0.0430296
0.0245842
2.90917
0.0254916
3.96929
0.0264033
0.0591449
0.0265317
0.0237913
0.0244932
3.26991
0.0307009
0.0779382
1.76191
0.0243846
0.0367453
0.0221211
0.0310873
0.446705
0.0221475
2.64845
0.0267243
0.0599689
0.103024
0.622384
0.0231758
0.0239812
0.104596
0.0236524
0.0246646
0.0259443
0.0243886
0.0421417
0.0231612
0.110532
0.0251607
5.76471
4.08117
0.0695736
3.5112
1.84349
7.65674
0.435354
0.0236276
0.0248248
0.0246388
0.0254921
0.024105
0.0308251
0.0242205
0.127593
0.0247029
1.90701
0.0251918
0.0331544
0.0922092
0.0239007
0.0430696
0.0254899
0.0254554
0.0287281
0.0233201
3.73172
0.077224
0.0823569
0.0239518
0.0246184
0.0249128
0.0249442
2.49621
0.0236559
0.156933
0.02405
0.309943
0.0286804
0.0241841
0.0617763
0.0316435
0.0236696
0.318064
2.45195
0.0269674
0.0762948
0.0236217
0.140814
0.0235484
0.0249463
3.61835
0.0242061
0.0253641
0.0889905
3.97363
0.0242366
0.716062
1.54594
0.02461
0.0260224
0.0244395
2.51697
0.0245838
0.115779
0.0247473
3.30418
0.0290857
2.54936
0.0242005
0.0227828
0.317246
0.0257107
0.0235012
3.59799
0.0258855
0.0238541
0.457533
0.0245863
0.024808
0.0714126
0.0260419
3.12858
0.0411501
0.0730704
0.134224
0.0265865
3.23806
0.025366
0.0670247
0.0244604
3.66923
0.324334
0.024939
0.0235904
0.0249209
0.024872
0.0234173
0.0234962
0.023887
0.0244885
0.0315722
0.0230343
0.0257112
0.0714099
2.56113
2.69494
0.0827029
0.0249246
0.320415
0.0241736
0.54471
0.535038
24.2859
0.0230329
0.0236399
0.0247096
0.0245958
0.0230102
0.02339
0.0242613
0.0394917
0.0238635
11.9535
0.499916
0.0238815
3.30284
0.0244724
0.0241525
0.0288199
2.89572
0.0613215
0.0236679
0.332508
0.0240893
0.0241524
0.239718
0.0249508
1.79438
0.025442
0.0909945
0.0238029
0.0238628
0.0330839
0.357557
0.0258447
3.06259
0.0385818
0.0255985
0.0263222
0.024612
0.0237316
0.0896127
0.0358438
0.0277111
3.07972
10.5775
0.301853
0.0946985
0.0238203
3.21172
0.0238034
2.55389
0.0631277
0.0289851
0.025681
2.65259
1.65775
2.15934
0.0238974
0.715544
0.0234521
0.0242283
0.0369388
0.0251043
0.0247209
0.281328
4.25049
0.0238626
0.0298944
3.44506
0.0236592
0.0229481
0.722715
2.76039
0.0253806
0.0230563
0.0290569
0.0246899
0.0241005
0.0347722
0.0284561
0.0246205
0.463462
0.0238703
0.0274077
0.501175
0.0366948
3.55959
0.0249095
0.0251447
0.170286
4.02826
0.290609
0.032054
0.034345
0.0250893
0.0254694
0.0244658
2.65917
0.0280654
0.0252581
0.0525671
0.0241245
0.308518
0.0745765
0.11319
0.05898
0.293146
0.370987
2.47092
3.05809
0.0261995
0.323391
0.0229622
0.058661
0.0773425
0.410662
0.0273986
0.025259
0.0281731
0.151503
0.0260029
2.53837
0.0367798
0.0876499
2.53733
0.0238649
0.097814
0.0263293
0.024638
0.0300407
0.0245313
0.0228972
0.0235721
0.0257079
2.87702
0.0238479
0.0258914
0.0265786
0.0253672
0.0245815
0.0922802
0.0683829
0.0252628
0.0239068
0.0878183
0.146752
0.0399949
3.31087
0.0249196
0.0245418
1.85754
0.0243771
0.0260985
3.08774
3.43167
0.0316685
0.058794
0.0292223
7.81928
0.139687
0.034441
2.83049
0.02405
0.0782518
2.53415
0.197752
0.58297
1.09881
0.0233663
0.0245466
0.0269845
0.0246035
0.0246432
0.256486
0.0241954
0.0454375
0.0232919
0.0566877
2.60681
0.0260633
2.08121
1.80722
0.0245375
0.0745582
0.0288727
0.0257817
0.0243878
3.29067
0.0698793
3.722
0.0299243
2.5688
0.0861418
0.0240993
0.0817028
0.0369584
0.0238023
0.0241951
0.161472
0.0243967
0.0282687
0.0381812
0.0282211
0.0251208
0.0547388
2.51458
0.0241397
0.171947
0.106791
0.0246622
0.0241459
0.026747
1.72906
0.422718
0.0237158
0.0323796
0.039359
0.606473
6.72975
0.0246809
0.0238573
0.0233619
0.0246198
0.0269263
0.0267492
2.27509
0.0250351
0.0271223
0.0360761
0.0425984
0.0818766
2.76696
2.51978
0.0249103
0.0243071
0.0238164
0.0256279
0.0686253
3.80716
0.0963695
0.0953806
0.03253
0.0496193
0.0264966
0.0649876
0.028019
0.104634
0.0239483
0.133157
0.0678308
0.0236081
0.0248707
2.94336
0.049299
0.0306991
2.53109
0.121207
0.0239999
0.242188
0.0260917
0.0242652
2.57162
0.409237
0.0239624
0.031651
0.101983
0.0355178
0.025298
0.0231402
0.0241601
0.0237545
0.0243909
0.0318931
0.0515529
4.51945
0.035984
0.0283448
0.0334704
0.0832558
0.0238646
0.0357226
0.162808
0.220568
2.97579
0.0257809
0.0231172
3.54111
0.0239532
0.279907
0.0258552
0.0435106
0.0249262
0.0239999
0.214697
0.0287899
0.0256861
0.0246068
2.68157
0.470928
3.32651
0.0247121
0.0245235
1.14288
0.0235496
0.0234758
0.122518
0.515919
0.0293067
0.035211
0.0252358
2.88721
0.0242849
0.0270598
0.0251229
0.0231004
0.216543
0.0242764
0.0237351
0.419169
0.0576483
2.68074
0.217032
0.0242082
0.0322678
0.0238488
0.0239537
0.0263803
0.0254315
0.0246727
0.186364
0.0246707
0.071131
0.0297978
0.0273786
0.0247095
0.0243922
0.0240895
3.33228
0.0228989
0.475473
0.0678875
0.0257006
0.0516861
0.0351532
0.0325653
0.0245537
0.0316413
0.0238529
0.0236009
0.304259
0.0396205
0.0310726
0.0240715
0.024149
0.0236874
0.0687691
0.0241317
2.85396
0.0461511
0.0239293
0.0243765
0.0234301
0.0459486
0.0432109
1.77117
0.0645678
0.300138
0.0276872
0.0939838
0.0266035
2.75123
0.0232821
0.0228606
0.0276241
0.134092
0.023464
2.9192
0.0245968
0.0241852
0.125911
0.157408
8.45943
0.130818
0.0282805
0.161911
0.0469164
0.0234491
2.78211
0.0244859
0.0237644
2.20189
0.0233474
2.92993
0.138136
0.0240304
0.0245029
0.0234893
3.61874
0.0239172
0.0231354
0.0728513
0.0242145
0.0238123
0.024623
0.0234499
0.0451895
0.0247976
0.0270363
0.0235751
2.27391
0.0448114
0.0236009
0.023611
0.0253305
0.0243551
0.0267238
0.0247944
0.0241201
0.0248258
0.0244178
0.0254811
0.024556
0.0623244
0.0234198
0.0769297
0.0246164
0.0519953
0.0236787
0.024654
0.0241048
0.0229485
0.0376403
0.0287181
0.0278085
2.68947
0.0247284
3.34396
2.79484
0.0768711
3.5684
0.0245809
0.0245326
1.89133
2.55197
0.0237741
3.36976
0.0235368
0.115328
0.632233
0.0266023
0.0791436
1.26189
1.7816
0.0240009
0.0469028
0.0238987
0.391766
0.027037
3.07652
7.48585
0.0247639
0.0443689
0.724003
0.0245425
1.65597
0.271891
0.0261071
0.0239017
0.167882
3.32575
0.0234454
0.0338187
0.0248929
1.08735
0.125889
0.0245823
0.0237095
1.71149
0.0239064
0.0245461
0.0251798
0.0235897
1.0012
0.0311044
0.0307708
3.15383
0.0243975
0.0567161
0.0248255
0.140947
0.055554
0.382057
0.0236435
0.029988
0.0233467
0.0243778
0.026677
0.0245228
2.21785
0.0256267
0.0236353
0.0241543
0.276448
0.0238807
0.340469
2.40225
0.75245
0.0244631
0.0237842
0.0242814
0.652607
0.0248102
3.14464
0.024071
1.64025
0.0259781
0.0254497
0.209059
0.0246245
0.0243662
3.39213
0.103793
2.905
0.0246802
3.45169
1.66359
0.0245547
3.13467
0.0246954
0.0280204
2.51139
0.0263398
0.0430703
3.81268
0.0324082
0.0660463
0.0246983
2.55662
0.0245153
0.351373
0.0242884
4.36411
0.0245421
0.0246605
0.0263256
0.720892
0.0238229
0.0250514
0.0643592
1.39232
0.0242855
0.031491
3.39376
0.0880787
0.732376
0.0755409
0.0236721
0.103971
1.30196
0.0268331
1.48882
0.0228154
0.135001
6.393
0.0238622
6.63208
0.0243801
3.41729
0.746681
0.026649
0.0266998
0.372552
0.765883
0.0245825
0.025782
0.0236037
0.0245854
3.18103
0.0643569
0.203748
0.0245749
0.0297978
2.9561
0.0304326
0.726972
1.57776
0.0241576
0.0244671
0.179644
2.53606
2.28623
0.806303
0.190322
0.0394883
0.0516007
3.35859
2.52084
0.55573
0.0239012
0.0774169
0.0452276
0.0708606
0.0244934
0.0286402
0.059792
0.13705
0.76334
0.024721
0.1406
3.14164
0.0435635
0.0245236
0.0245273
0.157473
0.0238135
3.48959
0.0303716
0.0246397
0.173903
0.0820848
0.0235826
0.037335
0.0318031
0.0245248
3.67989
0.0274898
3.70649
0.0238261
3.00912
0.374817
0.187075
0.0229463
0.0289439
0.0328442
0.114023
0.110286
0.0664584
3.18219
0.51684
0.0221775
0.0283016
0.0251115
0.11667
6.47495
0.0232253
0.0235501
0.0256872
0.24389
0.119225
0.0238824
0.0502545
0.174404
0.0238627
0.0582955
0.0267594
3.68054
0.0295272
0.401526
3.21832
0.0305995
0.0272362
1.47304
0.0241327
0.0464256
3.07497
0.0270735
0.0834686
0.0334431
0.0571677
2.51562
3.40824
0.0246724
0.966444
0.34452
0.0233596
0.124307
0.0655598
0.109709
2.04985
1.06781
0.736819
0.10193
2.84797
0.029317
0.0654464
0.0229221
0.0248511
0.024577
0.0238381
0.218975
0.13343
0.0229019
0.0493157
0.163591
0.0241174
0.553828
3.07051
0.0225939
0.0247673
0.0230754
0.0255081
0.0447232
0.0245117
2.58365
0.0316556
0.0691546
0.0285249
0.068833
0.0494232
0.0356841
0.150588
0.0245207
0.0256069
0.0228597
0.0237725
3.43642
0.0922896
0.0311393
2.52223
0.0246391
0.0250474
0.0342648
0.0235731
0.0238827
0.074451
0.0279513
3.26146
2.6655
2.53604
0.0247437
2.68822
0.0242892
0.344194
0.0235552
0.131565
2.62891
0.0243881
0.206908
3.50676
0.0343523
0.025282
0.0234734
0.0301121
2.52475
0.0235594
0.0248847
0.0251809
0.0263352
0.182353
0.0257144
0.0282098
0.0241164
0.0251062
1.51759
0.0357231
0.0266578
0.117139
0.127611
3.14558
0.949901
0.0259084
0.0254202
3.10448
0.0245081
0.0645764
0.024766
3.23127
0.0249942
0.024874
0.0345271
2.7331
0.024474
0.0236367
0.0232621
0.138919
12.3836
0.112474
0.0245935
0.0266085
0.0238579
3.21407
0.0236721
2.41496
0.0563818
0.024643
0.165871
0.0364066
0.104358
0.0251695
0.023468
0.0321995
0.04246
0.125184
0.0248245
0.0249578
0.0248777
2.86659
0.0244834
0.0253727
3.36812
0.0259822
0.0291913
0.0272982
0.0240017
0.0240974
0.475912
0.0263325
1.39252
0.292996
0.0226409
1.37553
0.0249271
0.100159
0.0490854
0.0255434
0.0229939
0.0226101
0.0244953
1.03309
0.047409
3.38636
2.7333
0.0238715
0.0288358
0.039512
1.45808
0.0244867
0.372579
3.40366
3.14281
0.0240528
0.0259195
0.0250776
0.481229
3.40263
0.0244713
0.0246365
0.0324814
2.73276
0.0247709
0.0259905
0.0258828
0.112885
0.906975
0.0233125
2.64972
0.0311423
0.0245101
2.41605
0.0560411
1.62038
0.983286
0.0338944
0.0282895
0.0254392
0.0292587
0.0251035
0.0678261
0.0469489
0.0241277
0.0271416
0.217302
2.68572
0.0235419
0.105183
2.70021
1.91157
0.0242645
0.0246311
0.28489
2.85045
0.0961853
0.0241042
2.65987
0.0656069
0.0227037
4.52286
0.0296829
0.0247196
0.158537
0.0243832
0.038461
0.0237464
0.0225044
0.0245172
0.0232535
3.07415
0.022903
0.0241336
0.0750201
0.0276854
0.0271791
0.126517
0.0245481
0.0245937
0.0258528
0.0254194
0.30232
0.307058
0.617766
0.966377
0.0366418
0.449945
0.0450745
2.82812
2.71194
2.99922
0.0238004
0.0323985
0.0245116
0.0245533
0.0238271
0.0251337
0.181983
0.0586424
0.0392376
0.0240882
0.0244762
0.0554407
0.02486
0.0249042
0.024546
3.21542
0.0329571
7.91174
0.0247321
0.306002
0.0250111
0.0247923
0.0251412
0.0430811
0.0240179
0.0826949
2.92538
0.0416923
3.62066
0.584792
0.0257807
0.0297875
0.359537
0.107699
0.0230509
0.0237762
0.022631
2.78154
0.0224758
0.0918575
0.0513861
0.0758196
0.207919
0.155416
0.0638029
3.72209
0.0234501
0.0232465
0.25606
2.96586
0.0244718
0.0247054
1.10641
0.0239121
0.172822
0.0257068
0.0234711
0.0280158
0.0246072
0.0703431
2.8822
3.14267
0.0274215
0.0242788
0.0780447
0.0255761
0.0774843
0.0238219
0.13
0.0879477
0.0249047
0.0246693
0.022693
0.122163
0.0476855
0.186277
1.32123
0.0317373
3.04284
0.0721561
0.106705
3.32243
0.0243115
2.70944
0.0253787
3.24829
0.200739
2.68326
3.18166
0.0246458
0.0542443
0.207387
0.0244025
3.92465
0.0245163
0.0245829
0.0284762
0.0251623
0.0326297
0.245712
1.19808
2.48762
0.0283427
0.040747
0.0255525
0.024771
0.0247866
0.124545
0.0834717
2.5691
0.0452711
0.0229499
0.0236205
0.0250574
0.228305
0.0268906
0.0253964
0.0276866
0.0869295
0.0333725
0.0429966
0.0395522
2.73035
0.0313919
0.0344218
0.0244959
0.0285447
0.209752
0.0364583
0.04632
0.0235644
2.46177
0.0344919
0.0240756
0.0486802
2.89057
0.407869
0.0348512
0.0239186
2.51859
0.0249575
0.0238726
0.0229944
2.36485
1.79311
0.0257647
1.90133
2.97776
0.0270892
0.0397497
0.0600984
3.66296
0.0325332
3.36859
0.0249911
0.0498377
0.0263474
3.58169
0.0349901
0.0236852
2.98058
0.0246873
0.0253529
1.66473
3.08582
0.0613273
0.253351
0.0271688
0.025663
2.60692
0.0240849
0.0242089
0.0246875
0.0456494
0.0244695
0.0336382
0.027092
0.281613
1.97281
0.0252439
3.8807
0.0270214
2.94851
3.48301
0.0246546
0.024825
0.0280623
0.530766
0.181672
0.0660213
2.89493
2.59281
0.309977
0.0254551
2.78696
3.44576
0.0451013
1.66609
0.0246225
0.0242874
0.0247141
0.0254329
0.024317
0.0347614
3.18184
0.0332923
0.274929
4.32542
2.39226
2.54799
3.19138
0.0305388
3.52672
0.102282
0.0725987
0.0235264
0.0244569
0.0668695
4.09109
0.025499
2.69793
3.06366
0.0238418
0.0246954
0.0245327
0.0882419
0.0250476
0.0714535
2.75
0.0235114
0.0245036
0.0238204
0.0252954
0.0951478
2.9666
0.0375642
3.09773
0.106484
0.0241669
0.313095
0.125801
0.024267
0.564676
1.64816
2.56528
1.26485
3.48502
0.0243314
2.71554
2.98656
0.147598
3.08539
0.0238174
0.026111
0.0266676
0.0262807
3.26862
0.0655924
0.0247962
0.029548
0.346521
3.06414
0.0253434
0.0243048
3.42529
3.17297
0.0248266
0.0302001
0.10173
0.0243891
0.0245086
2.65226
0.0241038
0.252722
0.311939
3.35992
0.023999
0.0731569
0.136302
0.0240397
0.0227498
2.4328
2.19612
0.024851
0.035743
0.158737
0.20921
3.40017
1.42493
0.0282231
0.308576
0.336024
0.0361295
0.0241161
0.0838608
0.0231985
0.0228565
3.31475
0.0387396
0.0916764
0.0271263
0.0284958
0.0238202
0.023237
0.0252004
0.0253918
2.31646
0.026909
0.755697
6.21901
0.0444169
0.0698637
2.52944
3.49576
2.38345
0.0234958
0.0274876
0.0366822
0.0280197
0.167355
0.329887
0.0251794
0.945905
3.25494
0.0289753
0.088757
0.0737485
0.0968018
0.105657
0.0257241
0.117377
0.129056
0.142547
0.158416
0.109635
0.0803595
0.0293444
0.0240626
0.0345416
0.0879413
0.0240464
0.218224
3.5911
0.173546
2.94379
0.0227225
0.023546
0.0508176
2.90763
0.025319
0.0266324
0.0637329
2.55723
1.01462
0.0245196
0.033236
0.0277965
3.53646
0.350702
0.0269249
0.480787
3.03736
0.0973387
3.2735
0.0924473
0.349886
3.51717
0.0221157
3.66879
3.09792
0.0254802
0.0697348
0.0967558
0.0279918
0.0237515
0.753899
1.09844
0.0236442
0.0236925
2.5402
0.819969
0.0785078
0.0247734
0.219175
0.123047
3.03677
3.73527
0.0246724
0.0244596
0.0252711
0.0255801
3.33264
1.12607
2.95663
0.0822609
0.186908
0.585403
0.0255582
0.0239838
3.09601
0.0237689
3.45895
0.0234362
3.26395
0.025538
0.0253393
0.590416
0.0244542
0.107562
0.360176
0.0271244
0.0263363
0.0256552
0.175562
3.33447
0.146239
2.96867
0.02651
0.0253527
0.0300357
0.0757946
3.80469
2.50377
0.096191
0.218111
0.119183
2.76426
0.0234249
0.0237266
0.0235295
0.0235293
0.163619
0.0691539
0.400289
0.0416726
0.142282
0.0240694
0.296859
0.11701
3.8151
0.0245795
0.0257961
0.022523
2.95792
0.0390715
0.715665
0.154067
0.11614
0.200202
0.0226615
0.0383621
0.138366
0.176857
0.723658
0.0246503
0.12817
0.0249936
0.0247924
0.103567
0.940147
0.889616
0.024794
0.0856376
0.15802
2.57252
5.35085
3.36273
3.40906
0.0239132
0.0608966
0.0245114
0.133182
0.0240206
0.109507
0.0260385
0.0494285
0.279071
0.364922
0.0261702
0.101497
3.07144
0.114599
0.0262996
1.72543
0.104946
0.0249264
0.0251097
3.31349
0.0309212
0.123467
0.41934
0.400706
4.17617
0.0258491
2.98118
2.91075
1.013
0.668989
0.033366
0.104688
0.0947818
3.32756
0.0774893
0.0252033
1.71139
0.057721
0.245125
0.0299427
2.52704
0.250568
2.1885
0.0286787
0.126546
0.0269277
3.11773
0.141285
2.30994
7.53027
0.0238877
0.0224966
3.09993
3.62539
0.0379321
0.0251187
0.0426129
0.0322908
3.02186
0.0775623
3.12491
0.0284846
3.18306
0.11982
1.06712
0.0251598
0.156729
2.4859
0.0263526
0.0833382
0.0227131
0.0270502
0.0247225
0.294889
0.024177
0.0247334
3.48846
2.91823
0.0235038
3.71253
0.0253478
0.0244568
0.0243448
0.0237811
0.0248531
0.634292
3.3747
0.0234524
1.3964
0.0673987
0.048324
1.67524
0.084363
0.0280782
0.0338851
0.0243571
0.2854
0.0326724
3.76144
0.0270574
3.18416
1.11777
0.070559
1.44937
3.25592
0.0236807
3.7211
0.0563166
0.0655729
0.0400831
0.0241314
0.0487304
0.186259
0.0246777
0.0716809
0.0245177
3.36982
0.14008
2.45481
0.172214
0.164283
3.4571
0.0246178
0.0240175
0.0628341
0.0258613
0.0248259
0.0248551
0.0295648
0.0240356
0.0242229
0.0256206
0.0432231
0.0261139
0.029673
0.0256814
0.038162
0.0996877
0.0264095
3.46563
0.0261975
0.024284
0.0915322
0.0431535
0.0257242
0.0240144
1.01909
0.0263288
3.17784
0.0264923
0.109383
0.024358
0.024347
0.0979712
3.57274
0.0705289
0.0366222
0.0228593
3.04815
0.0247472
0.024175
0.0765713
0.0267716
0.135495
3.04809
0.0961373
0.102354
0.0424001
4.2096
0.0244713
0.0246986
0.0643692
0.318343
0.060004
0.0979338
2.49515
0.0299044
0.0246462
0.0302391
0.215891
0.0578923
0.0246984
0.0997857
0.0961752
0.0649079
0.0248542
0.0247504
0.173411
0.0640203
1.86245
0.457521
0.0264314
0.0704774
0.0248248
0.0451505
1.72117
0.0247335
0.154933
0.101132
0.0829594
1.0637
0.0246392
0.0243386
0.0242937
3.4946
0.213607
0.0263136
0.0983436
0.109072
0.0248
0.0243806
0.154446
3.63824
0.17521
3.10938
0.161275
0.0327194
0.534826
0.119817
0.03252
0.203347
0.0874518
0.315365
0.0245925
0.0970045
0.13232
0.0253726
1.03463
0.0406559
0.077721
0.0295163
0.146421
0.0240473
4.0246
0.0272796
0.0237063
0.0237771
0.0236221
0.02562
0.0254349
0.0237605
0.0269223
0.0246538
0.0253122
0.280068
0.0783619
0.0252444
0.0644299
0.0273381
0.0241195
0.0231944
0.0471816
0.0291698
2.61586
0.0246582
0.0246959
0.070089
0.163177
0.0246717
0.0246183
0.111316
0.0264211
0.0930002
0.0613802
0.0244777
4.11281
0.0266158
0.0253301
0.0761071
3.76793
0.0250174
0.0591196
0.0236411
0.028366
0.0242024
0.0296255
0.024187
0.0247115
0.04445
0.0617199
9.85536
0.0521331
0.0245689
0.0308355
3.21172
0.050215
0.177517
0.0984736
0.0247444
0.0552584
0.230445
0.183521
1.42405
0.028453
3.34418
0.32406
0.0319344
0.0247963
0.0768113
0.025291
0.0572396
3.02446
0.0245843
0.609968
0.0248273
2.86232
0.052698
0.0254094
0.0623736
2.94199
0.505568
0.0266788
0.0733111
0.0326923
0.0234821
2.61484
0.0233232
0.0358548
0.0240788
0.0276554
2.53686
0.0722391
0.0231264
0.0314569
0.156241
0.0245874
0.024934
0.0306984
0.0279537
0.0245104
0.0265964
0.0271534
0.0250547
0.0240621
0.0623151
0.103771
0.174366
0.0240033
0.0588583
3.00796
4.40178
0.0234735
0.0246199
0.0277935
0.0892736
0.0251939
0.0240143
0.0242152
0.0237231
0.0285167
0.0299868
0.0270718
0.065897
0.0262137
0.0232086
0.0261899
0.0644177
0.0485654
0.107597
0.0252181
0.0309374
3.22023
0.031951
0.027403
4.21763
3.1747
0.09897
0.068272
0.160775
0.0242955
0.256417
0.0295868
5.15855
0.0245016
0.0242674
1.32229
0.0237136
0.296933
2.61904
0.0250587
11.061
0.0330281
0.0341943
0.029395
0.0752027
0.0314527
0.0288132
0.180458
0.0237921
0.0270248
3.58414
0.0258669
0.0244306
0.0325518
3.1631
0.0252453
0.0252467
3.13147
0.0261123
0.0293592
0.0593289
0.0231097
8.92832
0.0268938
0.025356
0.108744
0.0580943
3.0347
0.0263484
1.40005
0.035746
0.0895546
2.59633
0.0245852
0.034811
0.0919456
0.025228
1.13251
0.0252518
0.0261662
2.94636
0.025287
0.0427305
0.0886852
0.659646
0.0324454
0.0290705
0.0253732
0.0267052
0.0907143
0.0272313
0.0330516
0.0781595
0.0548851
0.0245716
3.38319
0.0399552
0.0232226
0.0257905
0.0242791
0.0235756
0.0231122
0.0245842
0.0245571
0.0321892
0.0266902
0.0444333
0.0229285
0.0232345
0.0235612
0.0788014
0.0236252
0.0325224
0.0673323
0.0312619
0.0323124
0.0243835
0.0261756
0.0270318
0.039602
0.0309316
0.0269594
2.59412
0.0247197
2.25166
0.0275535
0.0892884
0.0901046
0.0245452
0.0597069
0.0335886
3.1287
2.96846
0.0280607
0.0247932
0.0264173
0.0321074
0.0492362
0.0241438
0.0508502
0.0547722
0.0234959
0.0585632
0.0530715
0.0668301
0.0309367
0.165165
0.0919097
0.0295819
0.529903
0.0258001
0.127056
0.0254897
0.0242927
0.0823112
0.0843181
0.024485
0.0514065
0.0245446
0.0247446
0.0244933
0.0250971
0.0245276
0.0244991
0.0244618
0.0251678
0.160063
0.0255002
0.0244256
0.0254081
0.0255505
0.191062
2.91734
0.066143
0.0269412
3.28412
0.0244899
0.0244407
0.699498
0.0343948
0.0251424
0.0252215
0.0246943
0.171404
0.024768
0.0282181
0.0252866
0.035988
3.78612
0.0245582
0.0589877
0.0665144
0.0278373
0.0449584
0.0234052
0.0247695
0.0612857
1.78698
0.0261848
0.0379576
2.62096
0.0916811
0.0235903
2.70128
0.0256294
0.0221787
0.0636594
3.48033
0.0244016
0.0235951
0.0261004
0.0327875
0.0362074
0.0245124
0.0254184
0.0408004
0.024766
0.0312794
0.0284021
1.24561
0.0230702
2.88183
0.48278
0.0389569
0.0242997
0.093191
0.0238809
0.0263011
0.0246206
0.0568166
0.0228831
0.0228628
0.0423516
0.0655936
1.0168
0.0249183
0.0227294
0.0262038
0.0236192
2.88086
0.0261736
0.0257647
0.0251704
0.0633069
0.0489921
0.0264077
0.0259425
0.0461535
0.0246788
0.0243081
0.0263202
0.025188
0.121137
0.0241548
0.0324646
0.0250717
0.0245958
0.0508822
0.0903347
2.84285
0.0244893
0.0636175
0.40184
2.92378
3.23813
0.0334176
0.0245511
0.027298
0.0322193
2.21546
0.0248728
0.0278316
0.0295647
0.0331629
0.0229596
0.0555861
0.0480669
1.04047
0.0251466
0.0247689
0.0921712
0.997798
0.0228073
0.027319
0.0355858
0.0226079
0.0254835
0.0469208
0.0234943
0.0245185
0.0247963
0.0272256
0.0819542
0.0381361
0.0255143
0.0233653
0.0251561
0.162696
0.0225283
0.0236782
0.0285385
0.0884011
0.0282343
4.1113
0.027237
0.0244851
0.0246132
0.026012
0.0242374
0.0352439
0.0678683
0.0237252
0.0239754
0.0250776
0.024352
0.0250556
0.0462286
2.55417
0.0254447
0.0992744
0.0259912
0.0243611
0.220434
0.0264007
3.53768
0.0248845
0.0247446
0.0236068
0.0245466
0.02555
0.0328934
0.0416346
0.216618
0.0304624
0.0549017
0.0247801
0.0353629
0.0245351
0.0262993
0.035522
2.47534
3.0376
0.0248456
3.27141
0.118043
0.0438633
0.678946
0.0224051
0.0244964
0.0246685
0.0258656
2.64986
0.0235706
0.0725947
0.362515
0.0253622
0.0836447
0.0225999
0.0338284
0.326519
2.21143
0.0248264
0.199826
0.116648
0.434857
0.0288279
3.25936
0.0256011
0.106957
0.104081
0.0233062
0.0433161
0.0339003
0.0265291
0.400513
0.0330033
0.0237309
0.0245619
0.0933211
0.0247749
0.0605683
0.0246716
0.0225024
0.0258635
0.0348287
0.0246229
0.0823087
0.0292107
0.0264185
0.0224684
0.0245071
0.467927
0.082645
0.161867
0.035888
0.0277377
0.030482
0.0282193
0.0244599
0.0256888
0.0363179
0.0261034
0.0269963
0.0231661
0.0285664
2.82237
0.025073
2.02619
0.134974
0.0246516
0.0247227
0.0229822
0.0311955
0.0393922
0.0227755
0.0282088
0.0258124
0.02494
0.0240669
0.0250459
0.0241309
0.0246063
0.284715
0.0247887
0.0288288
0.0245599
0.167185
0.156951
0.0245002
0.249381
0.0246374
0.0268021
0.0328132
0.350844
0.0314437
0.023974
0.0242823
0.0354542
0.0432206
0.147716
0.0256435
0.0517567
0.11905
0.0250182
0.0245131
0.129162
0.0544427
0.0335116
0.0247751
0.024464
0.0257138
0.026232
0.0237224
2.49464
0.0267851
0.0268186
0.0234807
0.0307605