/*--------------------------------*- C++ -*----------------------------------*\
| =========                 |                                                 |
| \\      /  F ield         | OpenFOAM: The Open Source CFD Toolbox           |
|  \\    /   O peration     | Version:  v2012                                 |
|   \\  /    A nd           | Website:  www.openfoam.com                      |
|    \\/     M anipulation  |                                                 |
\*---------------------------------------------------------------------------*/
FoamFile
{
    version     2.0;
    format      ascii;
    class       volScalarField;
    location    "200";
    object      omega;
}
// * * * * * * * * * * * * * * * * * * * * * * * * * * * * * * * * * * * * * //

dimensions      [0 0 -1 0 0 0 0];


internalField   nonuniform List<scalar> 
13917
(
5.36497
0.0446829
0.214842
0.0252926
0.0319317
0.0442527
0.029441
0.0852755
0.0282812
11.9455
0.0823222
0.0248266
0.0271701
0.570913
0.0307836
7.13593
0.0244521
0.0705
0.112453
8.74282
0.036462
0.0247065
0.0463819
0.024707
0.0262673
0.0385571
2.31291
12.5306
0.0496012
0.0225579
11.1388
0.0672734
0.0253133
2.99654
0.0242575
0.097057
0.0269928
0.0262112
0.0294829
0.0405759
0.0245744
0.0245114
0.0269041
0.106578
0.106112
0.167061
0.0347902
5.62569
1.23619
0.0242777
0.0247917
0.116472
16.6436
0.0247046
0.0247867
0.114817
7.42355
0.0464147
0.0243843
0.152011
2.51063
0.0316513
0.0233177
0.026094
3.08327
0.0903209
0.0542084
0.0968098
0.0763153
5.88252
2.94329
3.13721
0.0248328
0.0241597
0.0372958
0.0267207
0.0274891
0.0240593
0.0265125
0.0253856
0.0252452
0.0245874
0.0248204
3.08854
0.0241603
0.12441
0.0648834
0.0245705
0.0401945
0.0243486
0.0233665
0.0270625
1.17036
0.0239398
0.0252286
0.05393
1.83406
0.0248868
0.0244885
0.141218
0.0238174
0.0237582
0.0252916
0.0241716
0.0274382
3.35426
3.07871
0.0283164
0.0247476
2.30976
0.0246462
2.95353
0.0494764
4.5385
3.09191
0.0271266
0.105119
0.0234073
0.183895
0.024766
0.0244581
0.0238029
0.0597309
0.0931411
5.42131
3.17282
0.0259352
0.0390321
0.0240472
0.0938676
0.0347178
0.164314
3.46645
0.0270856
0.0784078
2.23475
2.58162
5.27786
0.0408938
0.0261741
0.302981
0.0239005
3.3413
0.0241626
0.0247578
0.0267398
2.93547
0.633863
6.07728
0.0247443
0.0375205
0.0235775
0.0247363
0.0247768
1.93457
0.0253606
0.0241114
3.44092
0.0240714
0.023569
0.024125
2.78562
0.0290257
0.242481
2.50946
0.175223
23.3246
2.82338
0.0221192
0.0432156
0.024834
3.34117
0.028245
2.52079
0.0718145
0.023778
0.025296
0.126817
0.0340175
0.0296437
0.0268035
0.0247434
0.0247892
0.176774
0.191896
0.160572
0.0247592
0.177166
0.02258
0.10502
0.072052
0.0977039
0.137947
5.24645
0.0239474
5.22954
0.02866
3.54722
0.0242134
0.0251303
0.0328805
5.67319
6.74472
0.0266116
2.41183
0.0390814
0.0379471
0.0239051
0.125352
0.0252399
0.0237685
0.0390721
0.0423311
5.89549
0.0762797
0.0402536
2.90056
0.0253611
0.0230725
0.0230584
3.19433
0.161287
0.153853
0.0244451
0.0236235
2.13888
6.29606
0.0230194
0.0230094
0.0246914
0.0230794
0.0230691
3.30466
4.43955
0.0248883
0.0221365
0.0759832
3.37911
0.0241106
0.0244411
2.40134
3.39354
0.186674
2.89669
0.0981148
0.0241726
2.60611
0.0788457
0.046337
0.075713
0.0263583
5.26651
0.0247763
0.0434657
0.0651796
0.0249953
0.0249103
0.0260714
0.0303418
0.0243078
3.73431
1.28331
0.0238146
0.0230127
0.0254968
0.0230197
0.024782
0.0272014
0.0388039
0.0239292
4.19934
2.93305
0.0245539
0.0280414
0.282758
0.0229267
0.100209
3.33189
0.0229399
4.33579
0.0242127
2.77684
0.0238774
0.0290865
0.0250654
0.0241181
0.148683
0.0253916
0.739355
0.0309812
1.22842
0.026352
2.17137
5.52627
0.0236464
0.0527775
0.0309497
0.0274146
0.031559
0.0264708
0.0240084
0.0250614
0.125567
0.0444204
0.0423289
0.0263154
0.0244186
3.4849
8.44943
0.0239587
0.0277319
0.0274516
0.223744
0.125954
2.8592
2.52089
0.0528763
0.163926
0.027715
2.9743
0.182862
0.214826
0.0270606
0.0304419
2.32507
0.0250844
0.0483832
0.09706
0.0243414
3.33919
0.0241977
0.0425393
0.0231043
18.518
0.0236943
0.0401092
0.0395877
0.0464384
0.0241678
0.0758228
3.16631
0.0251325
0.0250748
2.911
3.22624
2.57401
0.42404
0.0229175
0.0248512
3.45283
0.162339
0.0229348
0.0316804
0.0247395
0.0556552
0.0411492
0.112394
0.0959214
0.100763
0.0420876
3.22843
0.0240879
0.025142
0.0335363
0.18363
0.024311
6.35784
0.0418809
0.294993
0.0248276
0.124606
0.0287555
1.12291
0.024479
0.16967
0.308996
0.0420277
0.0245777
2.18755
0.0233185
2.49598
0.149647
0.0244698
1.18338
0.0254336
0.308616
0.0235277
7.58412
0.30803
0.0265264
2.09261
0.0856842
0.0260072
2.58782
0.236337
0.026141
0.149327
0.0247636
0.0868005
0.213546
0.0242187
0.0288954
0.0262902
0.0241081
0.0238733
0.0241423
2.6347
0.181301
0.0249695
0.0241976
0.0245461
0.051736
0.107574
0.0229582
0.0221431
0.123903
0.12389
0.0241457
0.0263894
2.53877
1.81308
0.0959709
0.118708
2.76984
0.0234496
0.0229329
0.0338297
0.0238616
0.0229757
0.0249646
0.0229515
0.0233925
2.86438
0.0248095
0.0432972
3.83056
0.0524731
0.0237882
0.0247161
2.61046
0.0328907
6.6294
0.0230476
0.024409
0.0234071
0.0230874
0.0268796
0.0256211
2.51767
0.0292867
3.44291
0.0244019
0.0370829
0.0313057
0.0251726
0.0953688
2.5667
0.0247075
1.78061
0.0238275
0.024206
0.0244936
0.0254508
0.0237183
0.0250649
3.43253
2.50487
0.0236994
2.16706
0.121214
0.02491
0.0573111
0.0734396
2.56195
0.0296262
3.37343
0.321332
0.331879
0.0256434
0.0678644
0.034629
0.0262232
2.32952
0.0234916
0.0246568
0.0252357
0.0285816
0.0356336
0.162126
0.0542627
0.0281663
0.028978
0.0683754
0.05608
0.0249707
0.814132
0.0380829
0.0309979
2.48517
0.0241696
0.0584902
0.139983
0.0237494
3.25844
0.0242997
0.0230827
0.0530376
0.023058
0.0252057
0.124331
3.53904
1.78351
0.0241227
0.0254915
0.0259291
1.90484
1.97064
0.024867
0.0247497
0.0241021
0.0603608
0.556506
0.0240989
0.024143
0.0250391
0.0240883
0.0285849
0.031085
0.0236594
0.0549931
0.0237502
0.0245929
0.0261573
2.8899
0.0231639
0.0266498
0.0243124
0.036111
0.0669972
0.0596006
0.0676909
0.159811
0.0259379
0.0602426
3.55946
2.97774
3.44917
0.0238735
0.0244412
0.0287082
0.024481
3.13503
0.0229542
0.745566
0.0286491
3.44337
0.111925
0.0268954
4.36905
0.023685
0.0635475
0.0247936
0.025271
3.43971
0.0229901
0.221789
0.0236532
0.0257695
0.0244915
0.154466
0.0289173
0.0230007
0.10775
0.0561078
0.593667
2.83545
3.58164
2.54049
0.0231711
6.14142
0.0229356
2.54281
0.682401
0.0257525
0.0335514
0.0237419
0.0376369
0.0265793
0.0230097
0.0248169
0.0269064
2.6308
0.0241809
0.0608937
0.024621
0.0229873
0.0238729
0.168863
2.68726
7.12545
0.0709203
0.0309393
1.33515
3.2611
0.0235553
2.51074
0.0267087
0.098995
0.024472
1.86393
0.0240668
0.0289429
0.0247813
0.621952
0.0389815
3.05173
0.0237595
0.0375087
0.0242641
0.024039
3.08583
0.142559
0.024448
0.122625
0.0244187
0.0249634
0.0237476
2.93031
0.0241865
0.03085
0.0229418
0.0243457
0.183579
0.023658
0.114332
0.024751
0.023718
2.53672
0.0627039
0.0248105
18.2352
0.211099
0.0747783
0.146509
0.023667
0.0318572
3.03097
0.248567
0.0325409
0.0270095
0.0293022
0.0245887
0.0241423
0.0636382
0.0721229
0.0278691
2.48843
0.0394053
0.455665
2.10297
0.0496914
0.0383879
0.136814
3.87119
0.024014
0.0363647
0.0891357
0.0237326
0.0238852
0.0238282
0.027412
0.0252823
5.85071
0.0366586
0.0239516
0.0901525
0.0236833
2.81501
0.0242059
0.0240431
3.43535
0.0631864
0.320338
0.0248807
0.024298
0.023996
0.0251996
0.0308758
0.0240945
6.11215
0.0329609
0.461906
0.317025
0.0362058
3.61399
0.0254966
0.0247229
0.0243261
3.20947
1.91599
0.0290451
5.85175
0.770443
0.0237076
0.0239961
0.0268863
3.28556
0.35466
0.0392631
0.0251658
0.0266478
0.102179
0.0270266
0.112183
0.0367951
0.0251657
0.0254088
0.0247745
0.0307849
0.0289774
0.256634
0.0277895
0.0270528
5.85316
0.023513
0.773747
0.0267006
0.037265
0.0284691
0.235499
0.0244042
0.0599383
2.68558
0.309839
0.0245095
0.0278151
0.0257795
0.02439
0.0247698
0.0349013
0.030603
0.17397
0.114396
0.0236342
0.246348
0.0282309
0.0286149
0.125511
0.0249387
0.0634194
1.75001
0.023034
0.0631771
0.0841202
0.0364909
0.023956
0.0237522
0.0241299
7.27059
0.025271
0.02437
0.0420505
0.0241214
0.0238379
0.110088
0.955531
0.0412994
1.8781
0.0515605
3.50236
0.0247765
0.0279709
0.591238
0.0257252
0.0619319
0.0241744
0.0238697
0.0248529
0.0282563
0.0618291
0.0239498
0.154002
0.0248572
0.727017
0.0267408
0.029559
0.0231146
0.0765374
0.0293801
2.68826
0.0430601
0.0245842
2.91045
0.0254916
3.96911
0.0264033
0.0591674
0.026532
0.0237913
0.0244932
3.26957
0.0307005
0.0763338
1.76584
0.0243847
0.0367454
0.0221211
0.0310917
0.44895
0.0221476
2.65288
0.0267242
0.0600103
0.103016
0.618228
0.0231758
0.0239812
0.104599
0.0236524
0.0246646
0.0259444
0.0243886
0.0421427
0.0231612
0.110516
0.0251608
5.76633
4.08097
0.070972
3.51025
1.84256
7.6586
0.426875
0.0236276
0.0248252
0.0246387
0.0254922
0.024105
0.0308246
0.0242204
0.127473
0.0247029
1.90602
0.0251917
0.0331546
0.0922207
0.0239007
0.0430707
0.0254899
0.0254562
0.0287278
0.0233199
3.73332
0.0772173
0.083086
0.0239519
0.0246184
0.0249129
0.0249444
2.49479
0.0236559
0.158294
0.02405
0.310272
0.0286809
0.0241842
0.0617828
0.0317497
0.0236696
0.317822
2.453
0.0269679
0.0762913
0.0236217
0.14097
0.0235471
0.0249464
3.61914
0.0242061
0.025364
0.088989
3.97467
0.0242309
0.713026
1.54499
0.02461
0.0260222
0.0244395
2.51605
0.0245837
0.115789
0.0247473
3.30484
0.029087
2.54522
0.0242004
0.0227827
0.31742
0.0257107
0.0235024
3.5987
0.0258857
0.0238541
0.447376
0.0245862
0.0248084
0.0714061
0.0260421
3.1285
0.0411512
0.0730808
0.134229
0.0265864
3.23832
0.025366
0.0670186
0.0244604
3.66882
0.324809
0.0249389
0.0235893
0.024921
0.024872
0.0234183
0.0234963
0.023887
0.0244885
0.0315718
0.0230343
0.0257114
0.0714108
2.56268
2.69427
0.0827009
0.0249247
0.320574
0.0241736
0.543504
0.536819
24.2863
0.0230328
0.0236399
0.0247096
0.0245958
0.0230102
0.0233893
0.0242613
0.0394917
0.0238635
11.9481
0.491292
0.0238815
3.30254
0.0244724
0.0241525
0.028844
2.89563
0.0613323
0.0236679
0.333334
0.0240893
0.0241525
0.239643
0.0249514
1.80168
0.0254419
0.0919746
0.0238029
0.0238627
0.0330825
0.349719
0.0258447
3.06226
0.0385806
0.0255985
0.0263219
0.024612
0.0237317
0.089627
0.0358443
0.0277109
3.07929
10.5877
0.29516
0.0947148
0.0238203
3.21137
0.0238034
2.55071
0.063125
0.0289849
0.025681
2.64854
1.65522
2.14592
0.0238958
0.714454
0.0234529
0.0242282
0.0369395
0.0251043
0.0247209
0.277035
4.25116
0.0238625
0.0298945
3.44495
0.0236592
0.0229481
0.720225
2.76044
0.0253806
0.0230563
0.0290566
0.0246899
0.0241005
0.0347762
0.0284569
0.0246205
0.45983
0.0238709
0.0274631
0.503658
0.0366957
3.55921
0.0249095
0.0251447
0.169992
4.02972
0.290608
0.0320732
0.0343429
0.0250893
0.0254693
0.0244612
2.65838
0.0280665
0.0252583
0.0525645
0.0241245
0.308446
0.0745728
0.113216
0.0589859
0.295175
0.37169
2.46881
3.05754
0.0261996
0.325264
0.0229621
0.058659
0.0773338
0.412995
0.0273984
0.0252583
0.0281727
0.142603
0.0260031
2.53694
0.0367792
0.0876443
2.53482
0.0238649
0.0978357
0.0263294
0.0246379
0.0300322
0.0246813
0.0228971
0.0235721
0.0257079
2.87094
0.0238479
0.0258916
0.0265786
0.0253673
0.0245816
0.0922843
0.0683912
0.025263
0.0239069
0.0878112
0.14639
0.0399949
3.31131
0.0249196
0.0245418
1.85436
0.024377
0.0260987
3.08719
3.43129
0.0316678
0.0587942
0.0292226
7.81994
0.140687
0.0344396
2.83044
0.02405
0.0782442
2.53445
0.197701
0.5815
1.09886
0.0233663
0.0245466
0.0269845
0.0246036
0.0246433
0.256455
0.0241955
0.0454358
0.0232919
0.0566925
2.60566
0.0260635
2.08388
1.80811
0.0245375
0.074569
0.0288736
0.0257819
0.0243878
3.29036
0.0698758
3.72238
0.0299238
2.56906
0.0861412
0.0240943
0.0816332
0.0369575
0.0237755
0.0241951
0.161274
0.0243967
0.0282685
0.0381773
0.028222
0.0251208
0.0547367
2.51009
0.0241397
0.171896
0.108229
0.0246622
0.0241459
0.0267425
1.71117
0.422536
0.0237158
0.0323798
0.0394606
0.601297
6.7294
0.0246809
0.0238573
0.0233619
0.0246198
0.0269263
0.0267495
2.26222
0.0250353
0.0271221
0.0348906
0.0427222
0.0818727
2.7669
2.51836
0.0249103
0.0243071
0.0238164
0.025628
0.0686344
3.80868
0.0974532
0.0953963
0.0325284
0.0496173
0.0264966
0.0651109
0.028019
0.104637
0.0239483
0.133142
0.0681051
0.0236081
0.0248707
2.94279
0.0492959
0.0294185
2.53185
0.121198
0.024
0.243604
0.0260917
0.0242652
2.57117
0.404797
0.0239624
0.0316511
0.101977
0.0355168
0.0252979
0.0231402
0.0241601
0.0237546
0.024391
0.0318927
0.0515587
4.5192
0.0359831
0.0283445
0.03347
0.0832577
0.0238647
0.0357205
0.162803
0.220539
2.98039
0.0257811
0.0231172
3.54075
0.0239532
0.279815
0.0258551
0.0435122
0.0249262
0.0239999
0.21475
0.0287896
0.0256862
0.0246068
2.67993
0.471325
3.32629
0.0247121
0.0245236
1.14351
0.0235496
0.0234758
0.12253
0.513247
0.0293064
0.0352101
0.0252358
2.88316
0.0242849
0.027059
0.0251229
0.0231004
0.216521
0.0242764
0.0237351
0.411051
0.05765
2.67858
0.217068
0.0242082
0.0322672
0.0238488
0.0239537
0.0263801
0.0254316
0.0246727
0.186381
0.0246707
0.0711235
0.0297894
0.0273588
0.0247095
0.0243862
0.0240895
3.33213
0.0228989
0.456283
0.0678874
0.0257006
0.0516844
0.0351523
0.0325647
0.0245537
0.0316419
0.0238528
0.0236009
0.303585
0.0396201
0.0310404
0.0240715
0.0241491
0.023688
0.0686931
0.0241317
2.85365
0.0461483
0.0239293
0.0243766
0.0234302
0.0459463
0.043426
1.7677
0.0638704
0.300353
0.0276675
0.0939721
0.0266036
2.75133
0.0232821
0.0228605
0.0276238
0.132423
0.023464
2.91869
0.0245968
0.0241852
0.125925
0.15721
8.46045
0.132054
0.0282802
0.161923
0.0470862
0.0234492
2.78236
0.0244859
0.0237644
2.19335
0.0233475
2.92938
0.138921
0.0240305
0.024503
0.0234894
3.61981
0.0239172
0.0231355
0.0728533
0.0242145
0.0238123
0.0246276
0.02345
0.0451887
0.0247976
0.0270365
0.0235751
2.27476
0.0436094
0.0236009
0.023611
0.0253305
0.0243551
0.0267236
0.0247945
0.0241201
0.0248257
0.0244178
0.0254813
0.024556
0.0623101
0.0234198
0.0769245
0.0246165
0.0519728
0.0236786
0.024654
0.0241048
0.0229485
0.0376395
0.0287187
0.0278084
2.68707
0.0245553
3.34442
2.7948
0.0768683
3.56742
0.024581
0.0245326
1.90011
2.54884
0.0237745
3.36952
0.0235368
0.11536
0.636998
0.0266022
0.0791387
1.26667
1.78254
0.0240009
0.0469021
0.0238987
0.391732
0.0270368
3.07595
7.50489
0.024764
0.0434144
0.719994
0.0245426
1.6606
0.271187
0.0261072
0.0239017
0.166586
3.32537
0.0234454
0.0338183
0.0248928
1.0972
0.125863
0.0245823
0.0237094
1.69815
0.0239065
0.0245461
0.0251797
0.0235897
1.00785
0.0311069
0.0307704
3.15352
0.0243975
0.0567153
0.0248254
0.139393
0.0555524
0.381993
0.0236434
0.0299876
0.0233467
0.0243778
0.026677
0.0245228
2.22032
0.0256269
0.0236353
0.0241543
0.275618
0.0238807
0.340683
2.39992
0.750384
0.0244631
0.0237842
0.0242814
0.647756
0.0248102
3.14069
0.024071
1.64943
0.0259783
0.0254493
0.209206
0.0246244
0.0243663
3.39176
0.103787
2.90452
0.0246801
3.45177
1.66904
0.0245547
3.13432
0.0246953
0.0280208
2.51109
0.02634
0.04306
3.81342
0.032408
0.0660417
0.0246983
2.55131
0.0245153
0.35245
0.0242884
4.36454
0.0245421
0.0246605
0.026326
0.720039
0.0238229
0.0248682
0.0643679
1.39412
0.0242855
0.03149
3.39381
0.089559
0.724144
0.0755319
0.0236721
0.103962
1.31295
0.0268335
1.49098
0.0228154
0.135019
6.3947
0.0238622
6.6317
0.0243801
3.41725
0.751389
0.026649
0.0266994
0.373865
0.764459
0.0245824
0.0257819
0.0236037
0.0245854
3.18071
0.064356
0.204431
0.0245749
0.0297975
2.95549
0.0304415
0.724505
1.55923
0.0241576
0.0244671
0.179646
2.53322
2.27916
0.806286
0.190308
0.0394879
0.0516478
3.35844
2.51967
0.554883
0.0239012
0.07741
0.0452264
0.0708607
0.0244935
0.0286401
0.0597925
0.137329
0.762282
0.024721
0.140042
3.14125
0.0435546
0.0245236
0.0245273
0.150352
0.0238135
3.49054
0.0303712
0.0246427
0.173855
0.0827001
0.0235826
0.0373344
0.0318026
0.0245249
3.68094
0.0274756
3.70794
0.0238261
3.00873
0.375071
0.187033
0.0229463
0.0289434
0.0328433
0.113791
0.110265
0.0664577
3.1819
0.527812
0.0221776
0.0283013
0.0251116
0.116672
6.4753
0.0232253
0.0235501
0.0256872
0.242152
0.118778
0.0238823
0.0502588
0.174367
0.0238627
0.0586332
0.0267597
3.68185
0.029528
0.401301
3.21437
0.030599
0.0272368
1.4738
0.0241327
0.0464133
3.07824
0.0270736
0.0835176
0.0334434
0.0571683
2.51273
3.40819
0.0246724
0.966642
0.351724
0.0233597
0.124339
0.0655534
0.10972
2.05399
1.06718
0.740565
0.101917
2.85169
0.0293166
0.0654539
0.0229222
0.024851
0.024577
0.0238381
0.219155
0.133486
0.0229019
0.0492983
0.163673
0.0241174
0.551625
3.07052
0.0225939
0.0247673
0.0230754
0.0255082
0.0447228
0.0245117
2.58506
0.031655
0.0691473
0.0285259
0.0688346
0.0494455
0.0356886
0.149956
0.0245207
0.025607
0.0228596
0.0237724
3.43655
0.0923084
0.0311383
2.52045
0.0246391
0.0250473
0.0342633
0.0235731
0.0238827
0.0744716
0.027951
3.26176
2.66391
2.53232
0.0247437
2.6831
0.0242892
0.341524
0.0235552
0.131564
2.62483
0.0243881
0.20619
3.50659
0.03435
0.025282
0.0234734
0.0301114
2.52373
0.0235594
0.0248846
0.0251809
0.0263352
0.182382
0.0257144
0.0282095
0.0241164
0.0251062
1.51963
0.0357226
0.0266571
0.117141
0.123663
3.14506
0.949289
0.0259084
0.0254201
3.10669
0.0245081
0.0645717
0.024766
3.23095
0.0249942
0.0248741
0.0345212
2.73264
0.024474
0.0236367
0.0232621
0.138932
12.3888
0.112448
0.0245935
0.0266087
0.0238579
3.21382
0.0236721
2.4141
0.0563831
0.024643
0.1657
0.0364087
0.104477
0.0251695
0.023468
0.032199
0.0424501
0.12522
0.0248244
0.0249578
0.0248777
2.8663
0.0244834
0.0253727
3.36799
0.0259824
0.0291943
0.027298
0.0240018
0.0240973
0.48252
0.0263325
1.39494
0.292484
0.0226409
1.38437
0.0249272
0.100146
0.0490879
0.0255434
0.022994
0.0226101
0.0244953
1.0338
0.0474089
3.38622
2.73439
0.0238714
0.0288461
0.0395112
1.45706
0.0244867
0.373524
3.4036
3.14236
0.0240528
0.0259193
0.0250776
0.473321
3.40263
0.0244728
0.0246365
0.0324808
2.73789
0.0247708
0.0259904
0.0258829
0.112915
0.90588
0.0233125
2.64881
0.0311448
0.0245101
2.41666
0.0560414
1.62705
0.982937
0.0338927
0.0282904
0.0254392
0.029259
0.0251035
0.0677554
0.0469482
0.0241277
0.0271414
0.217771
2.68248
0.0235419
0.105165
2.69557
1.91805
0.0242645
0.0246312
0.283901
2.84964
0.0964141
0.0241042
2.65866
0.0656147
0.0227036
4.52266
0.0296823
0.0247195
0.158425
0.0243833
0.0383793
0.0237464
0.0225044
0.0245172
0.0232535
3.07423
0.022903
0.0241336
0.0750143
0.0276854
0.0271797
0.126515
0.0245481
0.0245937
0.025853
0.0254196
0.302283
0.307179
0.616461
0.966388
0.036653
0.453662
0.0450535
2.82781
2.70906
2.99945
0.0238004
0.0323983
0.0245116
0.0245532
0.0238271
0.0251338
0.182008
0.0586462
0.0392336
0.0240882
0.0244762
0.0554454
0.02486
0.0249041
0.0245459
3.21543
0.032957
7.91319
0.0247321
0.305429
0.0250112
0.0247924
0.0251411
0.0430806
0.0240179
0.0826871
2.92511
0.0416928
3.62026
0.591345
0.0257808
0.0297871
0.359945
0.107671
0.023051
0.0237762
0.022631
2.78253
0.0224758
0.0920944
0.0516455
0.0758122
0.209162
0.157452
0.0638013
3.72333
0.0234502
0.0232465
0.254788
2.96208
0.0244718
0.0247054
1.10529
0.0239121
0.172773
0.0257068
0.0234711
0.0280158
0.0246071
0.0703359
2.88224
3.14271
0.0274212
0.0242788
0.0780693
0.0255762
0.0774874
0.0238219
0.130032
0.0879616
0.0249047
0.0246693
0.022693
0.122163
0.0476866
0.186285
1.32869
0.031737
3.04227
0.0721586
0.106732
3.3222
0.0243115
2.71
0.0253787
3.24833
0.200749
2.68426
3.18145
0.0246458
0.0542441
0.205585
0.0244026
3.92529
0.0245163
0.0245829
0.028476
0.0251622
0.0326292
0.245756
1.1822
2.48575
0.0283424
0.0407458
0.0255527
0.024771
0.0247866
0.124513
0.0834719
2.56559
0.0452734
0.0229498
0.0236205
0.0250574
0.228236
0.026891
0.0253963
0.0276864
0.0869819
0.033372
0.042987
0.0395678
2.73031
0.0313913
0.0344211
0.0244959
0.0285445
0.209827
0.037122
0.0463171
0.0235644
2.46163
0.0344914
0.0240755
0.0486773
2.89012
0.407421
0.0348489
0.0239186
2.51687
0.0249574
0.0238726
0.0229944
2.35856
1.79319
0.0257648
1.90383
2.97803
0.0270892
0.0397659
0.0600972
3.66434
0.0325326
3.36846
0.024991
0.0499375
0.0263457
3.58225
0.0349893
0.0236852
2.97998
0.0246873
0.025353
1.66625
3.08207
0.0613099
0.253321
0.0271687
0.0256629
2.60646
0.0240849
0.0242089
0.0246875
0.0456478
0.0244695
0.0336418
0.027092
0.284089
1.96916
0.0252439
3.88095
0.0270214
2.94799
3.48264
0.0246546
0.024825
0.0280621
0.540771
0.181699
0.0660143
2.89453
2.59222
0.317346
0.0254554
2.78102
3.44967
0.0451165
1.6646
0.0246225
0.0242874
0.0247141
0.0254329
0.024317
0.0347607
3.18172
0.0332969
0.274034
4.35898
2.38007
2.54456
3.19091
0.0305397
3.52727
0.102274
0.0726023
0.0235264
0.0244569
0.0668667
4.09092
0.0254993
2.69769
3.06307
0.0238418
0.0246954
0.0245327
0.0882644
0.0250475
0.0714462
2.75054
0.0235114
0.0245036
0.0238204
0.0252954
0.0951612
2.96644
0.03756
3.09658
0.106455
0.0241669
0.313138
0.125798
0.024267
0.562691
1.64619
2.56181
1.24563
3.4848
0.0243314
2.71456
2.98619
0.14754
3.08483
0.0238174
0.0261113
0.0266676
0.0262806
3.26832
0.0655856
0.0247962
0.0295476
0.346387
3.06374
0.0253436
0.0242958
3.42617
3.17246
0.0248266
0.0301995
0.101717
0.0243891
0.0245086
2.64825
0.0241038
0.252709
0.31183
3.35976
0.023999
0.0731787
0.136292
0.0240397
0.0227497
2.43528
2.18909
0.024851
0.0357486
0.158766
0.209295
3.40034
1.42913
0.0282227
0.308988
0.336671
0.0361293
0.0241161
0.0837012
0.0231985
0.0228564
3.31494
0.038738
0.0916664
0.027126
0.0284988
0.0238202
0.023237
0.0252003
0.0253917
2.31694
0.0269088
0.761392
6.21876
0.0444188
0.0698583
2.52806
3.496
2.38314
0.0234946
0.0274874
0.0366823
0.0280194
0.167306
0.329694
0.0251793
0.950822
3.25455
0.028975
0.0887595
0.0737445
0.096806
0.105666
0.025724
0.117397
0.12909
0.142587
0.158465
0.109657
0.0803536
0.0293432
0.0240626
0.0345408
0.0879419
0.0240464
0.219557
3.59201
0.173477
2.9432
0.0227225
0.023546
0.0509811
2.90802
0.0253189
0.0266328
0.06374
2.55301
1.01357
0.0245195
0.0332367
0.0277962
3.53454
0.350726
0.0269248
0.480146
3.03696
0.0973341
3.27316
0.0924392
0.352026
3.51776
0.0221157
3.66968
3.09753
0.0254804
0.0697341
0.0967486
0.0279921
0.0237515
0.766278
1.10045
0.0236442
0.0236924
2.53705
0.815775
0.0785057
0.0247734
0.219624
0.123054
3.03618
3.73492
0.0246724
0.0244596
0.025271
0.0255802
3.33242
1.12577
2.95644
0.0822611
0.186978
0.584829
0.0255582
0.0239838
3.09561
0.0237688
3.45917
0.0234362
3.26357
0.0255379
0.0253393
0.592115
0.0244542
0.107564
0.359731
0.0271244
0.0263365
0.0256552
0.175569
3.33445
0.146176
2.96811
0.0265101
0.0253528
0.0300353
0.0757961
3.80604
2.50143
0.0961898
0.218328
0.119185
2.76441
0.0234271
0.0237266
0.0235295
0.0235293
0.164024
0.0691025
0.400188
0.0416719
0.142301
0.0240694
0.297173
0.116924
3.81404
0.0245795
0.025796
0.022523
2.95743
0.0387664
0.714395
0.1548
0.11614
0.200363
0.0226615
0.0383606
0.138327
0.176895
0.720827
0.0246503
0.128171
0.0249935
0.0247924
0.103621
0.939794
0.871761
0.0247939
0.0856431
0.158391
2.56839
5.35124
3.36258
3.409
0.0239133
0.0608912
0.0245113
0.133184
0.0240206
0.109498
0.0260382
0.0494249
0.279066
0.365327
0.0261702
0.101619
3.07103
0.114627
0.0262995
1.72765
0.104971
0.0249264
0.0251095
3.31324
0.0309208
0.123426
0.419844
0.400711
4.17706
0.0258492
2.98154
2.91056
1.01297
0.67756
0.0333655
0.104689
0.0947754
3.32737
0.0776135
0.0252032
1.71056
0.057797
0.246501
0.0299421
2.52754
0.247092
2.18648
0.0286786
0.126213
0.0269277
3.11789
0.141269
2.30919
7.53081
0.0238877
0.0224966
3.09959
3.62613
0.0378767
0.0251187
0.0426139
0.0322945
3.02192
0.0774688
3.12454
0.0284843
3.18277
0.119806
1.06855
0.0251597
0.156569
2.48357
0.0263526
0.0833506
0.0227131
0.02705
0.0247225
0.295371
0.024177
0.0247334
3.48889
2.91743
0.0235038
3.71367
0.0253478
0.0244568
0.0243448
0.0237811
0.0248531
0.63112
3.37489
0.0234525
1.41027
0.067397
0.0483241
1.67455
0.0843654
0.028078
0.0338849
0.0243571
0.285721
0.0326741
3.76267
0.0270574
3.18373
1.11787
0.0705524
1.43201
3.25571
0.0236807
3.72094
0.0563126
0.0655678
0.0400526
0.0241315
0.0490311
0.18627
0.0246777
0.0715284
0.0245177
3.36967
0.140114
2.45221
0.172261
0.164334
3.45736
0.0246178
0.0240174
0.0628337
0.0258614
0.0248258
0.0248551
0.0295643
0.0240356
0.0242229
0.0256207
0.0432212
0.0261139
0.0296726
0.0256814
0.0381745
0.0997107
0.0264095
3.46571
0.0261975
0.024284
0.0915361
0.0431538
0.0257243
0.0240144
1.03184
0.0263288
3.17748
0.0264923
0.109369
0.0243581
0.024347
0.0980906
3.5737
0.0705281
0.0366189
0.0228593
3.04758
0.0247472
0.024175
0.0765701
0.0267714
0.135521
3.04765
0.0961298
0.102664
0.0423987
4.21004
0.0244713
0.0246987
0.0643701
0.318499
0.0600032
0.0979183
2.4931
0.0299037
0.0246462
0.0302387
0.216305
0.0578968
0.0246984
0.0997945
0.0961963
0.0649019
0.0248542
0.0247504
0.173439
0.0640143
1.84383
0.460625
0.0264314
0.0704725
0.0248248
0.0451506
1.72283
0.0247335
0.154888
0.10164
0.0829493
1.0651
0.0246392
0.0243387
0.0242937
3.49499
0.213654
0.0263139
0.0984514
0.109089
0.0248
0.0243807
0.154717
3.63912
0.175219
3.10897
0.161259
0.0327193
0.534704
0.119843
0.0325196
0.207
0.0874631
0.320887
0.0245925
0.0970268
0.132358
0.0253727
1.05048
0.0406568
0.0777235
0.0295157
0.146464
0.0240473
4.02417
0.0272795
0.0237063
0.0237772
0.0236221
0.0256201
0.025435
0.0237605
0.0269222
0.0246539
0.0253123
0.280133
0.0783625
0.0252444
0.0644238
0.0273379
0.0241027
0.0231944
0.04718
0.0291718
2.61493
0.0246582
0.0246959
0.0700913
0.163285
0.0246718
0.0246184
0.111287
0.0264211
0.0929914
0.0613744
0.0244777
4.10124
0.0266158
0.0253302
0.0761321
3.76932
0.0250175
0.0591152
0.023641
0.0283658
0.0242024
0.029625
0.024187
0.0247115
0.0444392
0.0617139
9.8455
0.0521308
0.0245689
0.0308347
3.21181
0.0502116
0.177555
0.0984734
0.0247444
0.0552584
0.218245
0.183459
1.43165
0.0284526
3.34389
0.323471
0.0319349
0.0247963
0.0768177
0.025291
0.0572429
3.02384
0.0245843
0.610631
0.0248274
2.86197
0.0526664
0.0254094
0.0623677
2.9415
0.507702
0.0266786
0.0733068
0.0326917
0.023482
2.61476
0.0233232
0.0358515
0.0240789
0.0276562
2.53482
0.072239
0.0231264
0.0314584
0.155931
0.0245874
0.0249341
0.0306979
0.0279546
0.0245104
0.0265962
0.027154
0.0250548
0.0240621
0.0623133
0.103795
0.174351
0.0240033
0.058857
3.00768
4.40148
0.0234722
0.0246199
0.0277934
0.0892681
0.025194
0.0240143
0.0242152
0.0237231
0.0285177
0.0299864
0.0270718
0.065895
0.0262138
0.0232086
0.0261901
0.0644177
0.0485636
0.107624
0.0252181
0.0309366
3.21987
0.0319515
0.0274029
4.21742
3.17432
0.0989927
0.0682668
0.160834
0.0242955
0.254897
0.029588
5.16753
0.0245016
0.0242674
1.31562
0.0237136
0.296779
2.61423
0.0250587
11.0404
0.0330275
0.0341942
0.0293947
0.0752079
0.0314538
0.0288128
0.180779
0.0237921
0.0270247
3.58396
0.0258666
0.0244306
0.0325516
3.1627
0.0252454
0.0252467
3.13092
0.0261123
0.0293588
0.0593339
0.0231097
8.94213
0.0268936
0.0253562
0.108775
0.058097
3.03484
0.0263483
1.38502
0.0357451
0.0895437
2.5924
0.0245852
0.0348102
0.0919621
0.0252279
1.12413
0.0252519
0.0261662
2.94627
0.025287
0.0427303
0.0886739
0.662599
0.0324449
0.0290701
0.0253731
0.0267052
0.0907317
0.0272313
0.0330515
0.0780347
0.0548891
0.0245715
3.38292
0.0399535
0.0232226
0.0257907
0.0242791
0.0235757
0.0231122
0.0245842
0.0245571
0.0321885
0.02669
0.0444312
0.0229284
0.0232345
0.023572
0.0787965
0.0236252
0.0325258
0.0672642
0.0312617
0.032312
0.0243836
0.0261756
0.0270317
0.0395962
0.0309333
0.0269596
2.59269
0.0247197
2.25497
0.0275534
0.0893063
0.0901406
0.0245452
0.0597082
0.033588
3.1283
2.96786
0.0280606
0.0247932
0.0264172
0.0321075
0.0492339
0.0241438
0.0515781
0.0547692
0.0234984
0.0585228
0.053043
0.0667588
0.0309384
0.1651
0.0915329
0.0295832
0.529538
0.0258001
0.127078
0.0254896
0.0242927
0.0823202
0.084313
0.024485
0.0514123
0.0245446
0.0247446
0.0244933
0.025097
0.0245276
0.0244991
0.0244619
0.0251677
0.160066
0.0255002
0.0244256
0.025408
0.0255506
0.191052
2.9168
0.0661023
0.0269412
3.28394
0.02449
0.0244407
0.699411
0.034394
0.0251424
0.0252215
0.0246943
0.171329
0.0247679
0.028218
0.0252866
0.0359846
3.78571
0.0245582
0.0589384
0.0665078
0.0278371
0.044961
0.0234051
0.0247695
0.0612974
1.79321
0.0261848
0.0379526
2.61809
0.0916779
0.0235902
2.69759
0.0256296
0.0221787
0.063653
3.48054
0.0244016
0.0235951
0.0261004
0.0327821
0.0362046
0.0245124
0.0254185
0.0407994
0.024766
0.0312793
0.0284019
1.23707
0.0230698
2.88192
0.482004
0.0389191
0.0242997
0.0932085
0.0238808
0.0263013
0.0246206
0.056819
0.0228831
0.0228628
0.0423534
0.0655183
1.01015
0.0249183
0.0227293
0.0262037
0.0236192
2.8805
0.0261733
0.0257648
0.0251704
0.0633085
0.0489894
0.0264075
0.0259425
0.0461518
0.0246788
0.0243081
0.02632
0.025188
0.122377
0.0241549
0.032468
0.0250716
0.0245958
0.0508807
0.0903267
2.84328
0.0244893
0.0635951
0.401795
2.92367
3.23772
0.0334076
0.0245511
0.0272978
0.0322189
2.21537
0.0248728
0.0278313
0.0295643
0.0331629
0.0229596
0.0555853
0.0480636
1.04121
0.0251466
0.0247689
0.0921687
0.998329
0.0228073
0.0273187
0.0355849
0.0226079
0.0254836
0.0469188
0.023496
0.0245186
0.0247963
0.0272253
0.081952
0.0381366
0.0255143
0.0233652
0.025156
0.162755
0.0225283
0.0236782
0.0285385
0.0883956
0.028234
4.11595
0.027237
0.0244851
0.0246132
0.026012
0.0242374
0.0352433
0.0678027
0.0237253
0.0239754
0.0250775
0.024352
0.0250555
0.0462256
2.5524
0.0254448
0.0992725
0.0259912
0.0243611
0.220982
0.0264007
3.53807
0.0248844
0.0247446
0.0236068
0.0245466
0.0255501
0.0328934
0.0416113
0.220474
0.0304639
0.0548971
0.0247801
0.0353718
0.0245351
0.0262994
0.0355225
2.47413
3.03773
0.0248455
3.27104
0.117968
0.0438609
0.691202
0.022405
0.0244964
0.0246684
0.0258658
2.64919
0.0235706
0.0726049
0.36282
0.0253622
0.0836344
0.0225999
0.0338281
0.326353
2.21465
0.0248263
0.198556
0.116681
0.434848
0.0288276
3.25992
0.0256011
0.107059
0.104075
0.0233062
0.0433196
0.0338983
0.026529
0.400024
0.0330034
0.0237309
0.0245648
0.0942642
0.024775
0.0605999
0.0246716
0.0225024
0.0258635
0.0348281
0.0246229
0.0822995
0.0292122
0.0264188
0.0224684
0.024507
0.465997
0.082652
0.161912
0.0358873
0.0277374
0.0304836
0.0282203
0.0244599
0.025689
0.0363155
0.0261034
0.0269961
0.0231661
0.0285661
2.82303
0.025073
2.01119
0.13497
0.0246516
0.0247228
0.0229822
0.0311946
0.0393863
0.0227755
0.0282085
0.0258123
0.02494
0.0240669
0.0250459
0.0241309
0.0246062
0.284209
0.0247886
0.0288302
0.0245598
0.167269
0.159874
0.0245002
0.248238
0.0246373
0.0268019
0.0328134
0.350538
0.0314433
0.023974
0.0242823
0.035463
0.0432186
0.147754
0.0256434
0.0517554
0.119028
0.0250182
0.024513
0.129296
0.0544409
0.033511
0.0247751
0.0244668
0.0257137
0.0262323
0.0237224
2.49566
0.026785
0.0268183
0.0234807
0.0307601
0.0231848
0.177781
0.0246223