/*--------------------------------*- C++ -*----------------------------------*\
| =========                 |                                                 |
| \\      /  F ield         | OpenFOAM: The Open Source CFD Toolbox           |
|  \\    /   O peration     | Version:  v2012                                 |
|   \\  /    A nd           | Website:  www.openfoam.com                      |
|    \\/     M anipulation  |                                                 |
\*---------------------------------------------------------------------------*/
FoamFile
{
    version     2.0;
    format      ascii;
    class       volScalarField;
    location    "200";
    object      p;
}
// * * * * * * * * * * * * * * * * * * * * * * * * * * * * * * * * * * * * * //

dimensions      [0 2 -2 0 0 0 0];


internalField   nonuniform List<scalar> 
13917
(
-0.0842551
0.0103728
-0.0737208
-0.0225811
0.00547991
0.0103093
-0.033857
0.0148626
-0.0461989
-0.0881709
0.0140489
-0.0145079
-0.0124264
0.00239419
0.00511237
-0.0836059
0.0015546
0.011009
-0.0598019
-0.08471
-0.00333319
3.31875e-05
-0.0422517
0.000170184
-0.018075
-0.0013601
0.00319368
-0.0879896
0.00443576
0.000251505
-0.0860759
-0.0599844
-0.017987
-0.0837281
0.00235089
0.0182474
-0.00571227
-0.00180886
-0.0349128
-0.00801134
0.00134068
0.00234547
-0.0416094
-0.0633108
-0.0624064
-0.0019225
-0.00390126
-0.163891
0.0189091
0.00232411
-0.0142536
-0.0224099
-0.0731324
-0.00710136
-0.00802285
-0.0255611
-0.0836494
-0.0409846
0.00229428
0.00261874
-0.0377267
0.00308693
0.000240111
-0.0181257
-0.0897272
0.000968963
0.00640642
0.0199046
0.0119446
-0.0777498
-0.0860457
-0.0823998
-0.0222136
0.00228483
-0.00366912
-0.0136625
0.00383817
0.00224607
-0.0138395
-0.0181354
-0.00225111
0.00152628
-0.0219772
-0.0802782
-0.00788224
0.00140873
-0.0593234
-0.00763637
-0.00786841
0.00150947
0.00161747
-0.0426387
0.0158718
0.00210031
-0.00567201
0.0052615
-0.0223965
0.000999038
-0.00781393
-0.00343784
0.00086495
0.000828276
-0.00229482
0.000701316
0.00387727
-0.068038
-0.112381
0.00412549
0.00235593
0.00303799
-0.0135531
-0.0845405
0.00335325
-0.171545
-0.0911697
-0.0116939
-0.0588982
0.00150186
-0.0711084
-0.0214808
0.0015327
0.00219143
0.00705068
-0.0436747
-0.07127
-0.079792
-0.0188499
-0.0031888
0.00127334
-0.0457909
-0.0504215
0.0254546
-0.0711657
-0.0111284
-0.061432
-0.00387304
-0.0168158
-0.0654075
-0.000156177
-0.00169788
-0.00818265
0.00221957
-0.0693439
-0.00247057
-0.0204745
0.00237241
-0.0854854
-0.0301965
-0.159791
-0.00722601
-0.00842019
0.00074191
-0.0202497
-0.0217536
-0.0244605
0.00245278
0.00071813
-0.0712825
0.00138742
0.0014814
-0.00587102
-0.107167
-0.000811964
-0.00870124
-0.0998172
-0.0051769
-0.0737394
-0.109956
8.71983e-05
0.000426261
0.0006369
-0.0766333
-0.0465471
-0.0251212
-0.0146481
0.00115012
-0.023252
-0.0191096
-0.050122
-0.000174191
-0.0399855
0.000420696
-0.0137477
-0.0426678
-0.0714521
0.0275672
-0.0134759
-0.0395786
0.000309873
0.00246766
-0.0127793
-0.0613996
-0.0436839
-0.0853938
0.00207684
-0.0724522
-0.0194493
-0.0712972
0.00229511
0.00215754
-0.00504928
-0.079172
-0.0655259
-0.00402342
0.0240398
0.00433002
-0.00859377
0.00221858
-0.0220034
-0.00179168
0.000624996
0.00665274
0.00674571
-0.162939
-0.0613402
-0.000920245
-0.105465
-0.00383411
0.00179538
0.00179342
-0.123374
-0.0427817
-0.0381822
-0.013193
0.000190278
-0.00345883
-0.0734433
0.00177299
0.00175802
0.00127781
0.0018122
0.00181133
-0.0826144
-0.147007
-0.00117462
0.000136765
-0.0279538
-0.0795534
0.00151457
-0.0130291
0.0162559
-0.0690465
-0.0448133
-0.104281
-0.00726642
-0.00263685
-0.106059
-0.0293451
0.00285188
-0.0519275
-0.00451024
-0.149543
-0.0216747
-0.0145098
-0.0170321
-0.000579425
0.00137231
-0.0188156
0.0054397
0.00240697
-0.072324
0.00844776
0.00222376
0.0017408
0.00263523
0.00174437
-0.0219081
-0.012563
-0.0292564
0.00226521
-0.0644943
-0.114354
-0.0114376
0.00463367
0.01098
0.00168661
-0.00239482
-0.0726988
0.00169831
-0.0783311
0.00235695
-0.101638
0.00109771
0.00370123
-0.000334236
-0.00174519
-0.060138
-0.000814732
-0.00824771
-0.0157556
0.000521717
0.00224107
0.0236282
-0.0639016
0.00152219
-0.0355035
0.0055109
-0.0101413
0.00565734
-0.0146478
0.00219399
-0.00078353
-0.0126522
0.0025163
-0.0148108
-0.0148348
-0.0127071
-0.0696483
-0.0789062
0.00134773
0.00130948
-0.010753
0.00970292
-0.0692729
-0.105736
-0.0280699
0.000446285
0.0202371
0.00437553
-0.0813208
0.00866111
-0.0734402
-0.012187
0.00469539
0.00548809
0.00150289
0.0119436
-0.060341
0.00159084
-0.0782643
-0.00772844
-0.0628965
0.00167595
-0.0774597
-0.00061055
-0.0163912
0.00391825
0.000679618
0.00162337
-0.0539927
-0.0724806
-0.00651864
0.00167209
-0.0846648
-0.0736046
-0.0552357
0.0081016
0.00167831
-0.00214953
-0.0682919
0.0186494
0.00168901
0.00602763
-0.0105517
-0.00247573
-0.016048
-0.0409354
0.00267342
-0.00397136
-0.0591323
-0.0862082
0.00132722
-0.00697629
0.00583382
-0.0680398
0.00149759
-0.08458
-0.0594116
-0.00968747
-0.00779878
0.0113405
0.00163006
0.0122955
0.00227406
-0.0409095
0.00575666
0.00515694
-0.0113849
-0.0849273
0.00168469
-0.0935936
-0.0451383
0.002242
0.0151408
0.000781907
0.000294626
0.00167279
-0.0898067
-6.42452e-05
-0.00811246
0.00367874
-0.00338752
-0.00478337
-0.0864519
-0.0723232
-0.00942719
-0.0602814
-0.00322734
-0.00433262
-0.0731626
-0.00787936
-0.0392739
-0.0155542
-0.00222126
-0.00263856
0.00131049
-0.0205572
-0.00229303
-0.00735913
0.00157598
-0.000350586
-0.0285554
0.0233703
0.00165661
0.000100953
-0.0688184
0.0114736
-0.0017019
-0.00835937
-0.019393
-0.0400384
0.00152659
-0.0611398
-0.0796426
0.00200233
0.00164504
-0.00272162
-0.00267665
0.00167053
-0.000917557
0.00166221
0.00197745
-0.125769
-0.00329368
-0.00841151
-0.0648693
-0.0339375
0.000639208
-0.0196819
-0.0902311
-0.00437827
-0.0701442
0.00166474
-0.0127307
0.0017414
0.00183698
-0.00566393
0.00133885
-0.00850803
0.00233787
-0.0688521
-0.0124689
-0.0455653
0.00224285
-0.00185285
-0.0100878
-0.0499456
-0.0107692
-0.0299175
0.000578393
-0.00236839
-0.000402344
0.000590203
0.000601208
-0.00593181
-0.0701853
-0.0372543
0.00058583
0.0255826
-0.06815
-0.0127715
-0.0335561
-0.070828
-0.10318
-0.0417722
-0.0758734
-0.00355124
-0.0007668
0.00118666
0.000751268
0.00157917
-0.00433694
-0.0590467
0.00158081
-0.00740128
-0.00616317
-0.0422006
-0.00569209
-0.0695875
-0.0485069
0.00268495
0.00497507
0.00953432
-0.00515352
-0.00706664
-0.000466295
-0.0342861
-0.0165981
-0.0770337
-0.00799824
-0.00421629
-0.0181368
-0.00146081
-0.0685774
-0.00258779
0.00183018
-0.0294787
0.00167076
-0.00343583
-0.00974894
-0.0667185
-0.00349405
-0.00602199
-0.0277989
0.00282106
-0.0431982
0.0348464
-0.0069765
-0.00775247
-0.00597301
-0.0198162
-0.00699776
0.00161561
0.00148186
0.00201174
-0.00246598
0.0036736
-0.0240662
0.0015869
-0.0476625
-0.00148351
-0.0006211
-0.0158115
-0.0963951
0.00152439
-0.033055
0.00240871
-0.0450712
-0.0369492
-5.3528e-05
-0.0168224
-0.000783799
-0.0141479
0.00838419
-0.0714646
-0.130203
-0.0653901
0.00141829
-0.000218793
0.00252436
-0.0127546
-0.089443
0.00170549
-0.0102497
-0.0202502
-0.0775324
-0.00213267
-0.0409209
-0.102219
0.000688782
-0.0669062
0.000994898
0.00260609
-0.0766831
0.00165516
-0.0724082
0.000421636
-0.0127771
-0.000156816
-0.068897
0.00363094
0.00169365
-0.0645501
-0.0325313
-0.0233691
-0.0840881
-0.0710161
-0.100242
0.00150843
-0.0745138
0.000522962
-0.0237135
-0.0374514
0.00271343
0.00146611
0.000882386
-0.0338902
-0.0396101
0.00166509
0.0010231
-0.0105301
-0.0844965
-0.00671696
-0.0594357
-0.00718735
0.00168205
0.00144066
-0.00761921
-0.0852561
-0.101092
-0.0509337
-0.0249129
-0.074985
-0.0788833
0.00172959
-0.0591113
-0.011437
-0.0721789
-0.0124204
-0.0842467
-0.00241336
0.00356053
-0.0209666
-0.0271442
-0.0312465
-0.0965144
0.00158903
-0.0295314
0.00218682
0.000861838
-0.0872332
-0.0102367
0.00242822
-0.041667
-0.0128707
0.00260656
0.000718441
-0.0881816
-0.00696126
0.00583984
0.00168683
0.00234041
-0.0667907
0.000699263
-0.0466819
0.00143716
-0.000888754
-0.0332298
-0.060044
-0.00690252
-0.0635129
-0.0720383
0.0224901
-0.0148511
0.000680177
0.0057442
-0.0947643
-0.071684
-0.0033596
-0.00626471
0.00357823
0.0014632
0.000856413
0.00101601
-0.0357597
-0.0166264
-0.0780921
-0.0320564
0.0254202
0.0316115
0.00231568
-0.0198873
-0.0458442
-0.0790866
0.00218625
0.00402467
0.00100706
-0.0010221
0.0015278
0.0013429
0.00275666
-0.00442444
-0.0758036
-0.0571134
0.000386146
-0.0594512
0.00160076
-0.106218
0.00236124
0.00137153
-0.0673615
-0.038232
-0.0112704
-0.0218809
0.00157847
0.0016491
-0.0256673
-0.0350506
-0.00111653
-0.0674404
-0.0151442
-0.00840435
-0.0100259
0.00364571
-0.0676329
-0.0273905
0.000752133
0.00228763
-0.073269
0.00483008
-0.0191829
-0.0694339
-0.0134273
-0.000636819
0.00140187
-0.00488341
-0.07109
-0.00297104
-0.0301497
-0.0250757
-0.0325832
-0.0727824
0.00408212
-0.0429361
-0.0563596
-0.00560518
-0.0177412
0.00063518
-0.0343268
0.00519498
-0.0721035
-0.00897255
0.00295719
-0.0684358
0.000483243
-0.0112623
-0.00675874
0.00741887
-0.023437
-0.0717737
0.00149824
-0.0673014
-0.0839658
-0.00256679
-0.01348
-0.00963318
-0.0044653
-0.0118374
-0.0210269
0.00529805
0.00193112
-0.0067197
-0.0455203
0.00076786
-0.0717178
-0.0452453
-0.0418292
-0.0448006
-0.0018484
-0.0659964
-0.0190279
0.0016283
-0.0393684
-0.00759464
-0.0549981
0.000463037
0.00050068
0.00092362
-0.0782078
-0.0173318
0.002412
-0.0614342
-0.00110131
0.000809617
-0.0273742
-0.0130699
0.0051419
-0.036738
-0.00239619
-0.0676077
-0.0215094
0.00407538
-0.0772505
0.00265003
0.00413215
0.00157025
0.00148645
-0.0205525
-0.00779404
-0.000846879
0.000505113
0.00172457
0.00205157
-0.0408244
-0.00729416
-0.0424466
0.00167616
-0.0514744
0.00410411
-0.0895365
0.00463887
0.00159977
-0.101291
-0.0170272
-0.0726912
-0.0396384
0.00347759
0.0036106
0.00147846
-0.0134497
-0.082828
-0.0326168
0.0236442
-0.0377911
-0.0117627
-0.0546143
9.91753e-05
0.00317139
-0.00604803
0.000125872
-0.112435
-0.0346553
0.002661
-0.0572753
0.0102149
0.00176898
0.00141503
0.00545622
0.000777221
-0.00644806
-0.0104266
-5.2426e-05
-0.0607876
0.0017608
-0.00226735
-0.00507206
-0.0819964
-0.0716721
0.00855761
-0.0678753
-0.0272324
-0.0819699
0.00942664
-8.08985e-05
0.00258389
-0.0160233
-0.0137757
-0.00582189
-0.0335016
-0.00570375
0.0232223
-0.00659287
-0.0786961
-0.0174341
-0.0551801
0.00399533
0.00167797
-0.00745148
-0.0165247
0.00267474
-0.0278449
0.00168256
-0.0671763
-0.0357422
0.002355
0.00143371
-0.0165157
0.0011967
0.00219849
-0.0832324
-0.000224062
-0.00748985
-0.00260281
-0.00557828
0.00380687
-0.00349193
-0.0677532
0.00366887
-0.000242298
-0.0114232
-0.061602
-0.00218174
-0.0534208
0.00102429
-0.00544339
0.0016557
0.0020443
-0.085409
0.00138827
-0.0227517
-0.058302
-0.0843249
0.00164306
0.00721872
-0.081285
0.00230534
0.00243753
1.16065e-05
-0.0800283
-0.0159356
-0.0653763
-0.0156165
-0.0671648
0.00402944
0.0500367
0.00149363
0.00140532
-0.00619034
-0.00597664
0.000466191
-0.0714413
-0.00723862
-0.00190916
0.00568243
0.00227746
0.00259553
-0.0371963
-0.00905092
-0.0906999
-0.00904039
-0.0693916
-0.0122497
-0.0316185
-0.0699029
-0.00474066
-0.0381932
-0.0138687
-0.0674826
-0.00225926
-0.0233397
0.00166805
0.00259031
-0.00729723
0.00167207
0.00205048
0.00224786
-0.0137381
-0.0223092
0.00162274
-0.00761674
-0.0578437
-0.113887
-0.0965366
-0.0573566
0.00103352
-0.00511102
-0.00573651
-0.0769665
-0.00833265
-0.0636621
0.00179084
-9.58135e-05
-0.0101624
-0.00415045
0.00178159
0.00174036
-0.00837096
-0.0195394
-0.00206511
-0.0962631
0.00854725
-0.00104468
-0.0825698
-0.0141318
0.00123714
0.00355083
-0.0895379
-0.00342692
0.00127811
-0.0116809
0.00211362
0.0014973
-0.0710702
0.00261314
-0.0390906
-0.0233213
0.00401454
0.00052643
0.00222431
-0.00557521
0.0105481
-0.0144985
-0.0793052
0.00489365
-0.00184112
0.0027791
-0.0167604
0.00049039
-0.0658502
-0.0585568
-0.0161509
-0.0734988
-0.102206
0.0100604
-0.0664255
0.00221468
-0.0691238
0.00219087
-0.00832823
-0.0192021
-0.0402016
-0.0138093
0.0462479
-0.000302826
-0.0702797
0.00149111
-0.0341848
0.00168227
-0.0059923
-0.0592644
-0.00498537
-0.0152008
0.0313869
-0.0793354
0.00223546
-0.0512333
-0.0781579
0.000370589
0.00172723
-0.012131
-0.111045
-0.0140355
0.000468155
-0.0336611
-0.01884
0.00152946
0.0050209
-3.98087e-05
-0.0159012
-0.0145328
0.00160678
0.00333876
-0.00589792
0.00445921
-0.0691611
-0.0224494
-0.0169026
0.00196038
-0.0862407
-0.000169978
0.00126644
-0.00300617
-0.0275626
-0.0233912
0.0016169
-0.0868562
0.00306581
0.00215151
-0.0501932
-0.0022974
0.00126119
-0.0486853
-0.0676724
-0.068078
-0.0340104
-0.00266212
-0.00947471
-0.0797202
-0.00173326
-0.0382719
0.00174592
-0.0184413
-0.025916
-0.0120175
-0.027053
0.00265623
-0.0213561
0.0253663
-0.00538871
-0.088885
-0.0263267
-0.00818066
-0.0384493
0.00145871
-0.0710018
-0.00913172
-0.00423388
0.0040057
0.00314947
0.00147782
0.000920645
-0.0142472
-0.070503
-0.00159608
-0.00660312
-0.0402548
-0.0052346
-0.0101489
0.0025344
-0.0694689
0.00199257
0.00146565
-0.00179707
0.00202483
0.0091502
-0.070318
-0.0203896
-0.0155207
-0.00717995
0.00244227
-0.00619627
-0.0810854
-0.0687582
0.00488932
-0.0157857
-0.00219793
-0.0686492
-0.00999523
-0.00623623
-0.0885361
0.00155247
-0.0315935
-0.111735
-0.0720536
-0.0172773
0.00956606
0.00193321
-0.000621757
-0.010567
-0.0101897
-0.000367657
-0.0718946
0.00139761
-0.0293664
0.00146292
-0.0675995
-0.0988058
-0.00839476
-0.0360961
-0.0347957
-0.0155448
-0.0702018
0.00121717
-0.00916737
-0.0112754
-0.067344
-0.0492708
-0.0798465
-0.0114671
-0.0810906
-0.00510964
0.00162766
0.00774926
-0.0284626
0.00140729
-0.00331129
0.0108502
-0.0115879
-0.00846236
-0.00213138
-0.000282566
-0.0282515
-0.0507217
0.0520322
-0.00600523
0.00907145
0.00326272
-0.00598971
-0.00533389
0.00203163
-0.0699768
-0.0706449
0.00153255
-0.054589
0.00135189
0.00989948
-0.0642042
-0.0150742
-0.00201064
0.00193118
-0.0168034
-0.00543046
-0.00475099
-0.0696462
0.00218675
-0.0319881
0.00363591
0.00163421
-0.0560987
-0.111356
-0.0714961
-0.0228071
-0.000729492
-0.0019875
-0.00737434
-0.0704488
-0.0672455
0.00221201
0.00483621
-0.00414721
-0.0505475
-0.0383693
0.00148541
-0.00762549
-0.0635461
0.00201206
-0.00772797
0.00168156
0.00159608
-0.0227879
-0.0843595
-0.0288319
0.00317821
-0.110074
-0.00446315
0.00157221
0.0120198
-0.00379498
-0.00961992
-0.0605328
-0.0108426
0.00204813
0.00484066
-0.0548132
-0.00874769
-0.0186332
0.00174484
-0.00545113
0.0007392
-0.0118668
-0.02299
-0.00708876
-0.0679441
-0.00902547
-0.0276984
-0.0468312
-0.00464801
0.00149234
-0.00500834
-0.033323
-0.0718176
-0.119051
-0.00400219
0.00177543
-0.0670998
-0.00213008
0.00133682
-0.0208549
-0.00760414
-0.0102689
-0.00228339
-0.0745395
-0.0232605
-0.00295107
-0.0162626
0.0490372
-0.0776149
-0.0779599
0.00180864
-0.00120464
0.0122792
0.00138778
0.00200765
0.0125516
-0.00997378
-0.0127774
-0.035356
-0.0186164
-0.0723893
-0.0102994
0.00270762
-0.028628
0.00175917
-0.0720489
-0.00997648
0.000723313
0.0352176
-0.0597782
0.0540992
-0.0720262
-0.00896486
-0.0367638
0.000717056
0.00159481
0.00296091
-0.0102359
-0.0105368
-0.0721533
-0.0147314
-0.028248
0.00394156
0.00180599
-0.0193684
0.00162798
0.00122214
-0.0658985
0.00153339
0.0254238
-0.0573064
-0.0104489
-0.051047
-0.0363719
-0.0364986
-0.0081056
0.00365703
-0.000552749
0.00163899
0.00241989
0.00832864
0.00311081
0.000913591
0.00217157
0.0018986
0.00718188
-0.002559
-0.10524
-0.0305098
0.00228389
-0.0120936
0.00168007
-0.0280566
0.00286467
-0.00852397
0.00406011
0.00138327
0.00218901
-0.0062281
0.000505429
-0.0944527
0.00149162
0.00150123
-0.0150539
0.00346747
0.00166351
-0.0841883
-0.00377566
0.000720926
0.0146883
0.00828099
-0.0682789
0.00176269
-0.0227918
0.0181018
0.00270683
0.00203579
-0.0961771
-0.0144641
0.00104997
0.0480021
0.00165188
-0.0860061
0.0011662
-0.00254945
-0.0137783
0.00204927
-0.0688655
0.0012956
0.00175952
-0.0589018
-0.00904804
0.000773712
0.00160934
0.00201709
-0.0534711
-0.0190275
0.00389264
0.000190674
0.0238001
0.0102123
5.7166e-05
4.13913e-05
-0.0136616
-0.0116843
-0.0340278
0.00161101
0.00231269
-0.01998
-0.00741654
-0.00773114
-0.0119034
0.00624858
0.00170138
-0.0499867
-6.99601e-05
0.0111007
0.00155516
-0.0107888
-0.001546
0.00159175
-0.00761775
0.00360738
-0.0418489
0.0530036
0.00274276
-0.0705049
-0.108738
-0.0552919
-0.0682614
-0.000928397
-0.0119385
-0.00866484
-0.00198419
0.00190082
-0.0766997
0.00163333
-0.0693507
-0.0106612
-0.0312519
-0.0455121
-0.0246959
0.0232374
0.00124935
-0.0538699
-0.00105367
9.4823e-05
-0.0313093
-0.0813974
-0.0883824
-0.0119885
0.00901535
0.0150861
0.0015692
-0.0309934
0.00296131
-0.0100998
-0.00327596
0.00208005
-0.0710267
0.00202461
-0.0479693
-0.00296636
-0.00503874
-0.00573336
-0.00744369
0.0015893
-0.0723501
0.00160948
-0.0157097
-0.022223
0.000926289
-0.0298895
0.00528642
-0.0316755
-0.0698113
-0.0121662
-0.00212042
-0.0224326
0.00327918
-0.0193399
0.000435818
0.00157855
-0.0356285
0.00113535
0.000884223
-0.0413129
-0.00790113
-0.0482583
-0.00949737
0.000945971
-0.00632365
0.00306992
-0.00281207
-0.0162849
-0.00224106
-0.00228155
0.000910925
0.00154293
-0.00994641
0.00830614
-0.00640046
-0.0693909
0.00126064
-0.0273808
-0.0081223
0.0026236
-0.074495
-0.00586941
0.00157622
-0.0709949
-0.0565808
-0.085601
0.00250983
-0.0762238
-0.0387829
-0.00370887
-0.0769579
-0.00354236
0.00280035
-0.0875233
-0.00037703
0.00597167
-0.0844326
0.00106666
-0.0488298
-0.0194309
-0.072692
-0.0151915
-0.0159399
-0.0102663
-0.0800863
-0.0157232
-0.0134143
0.00342133
-0.0362474
0.00152077
0.00228906
-0.00237706
-0.0321369
-0.00860983
-0.00472027
-0.0745506
0.0222466
0.0313321
-0.0241528
0.00160851
-0.045399
-0.0267071
-0.00206269
-0.0759658
0.00143534
-0.0401488
-0.0805804
0.00162756
-0.0647485
-0.0122997
-0.0755251
-0.0248231
-0.0120448
0.00326
-0.0118124
-0.0141354
-0.015723
-0.0202698
0.00101004
-0.00532434
-0.0814509
-0.0152408
-0.0728498
0.00170495
-0.0182312
-0.085139
0.00309745
0.00838224
-0.0704907
-0.00803484
-0.014024
-0.0712589
-0.000415807
0.048377
-0.0215648
-0.0729651
-0.00627658
0.00409035
-0.0809152
-0.098435
-0.00963237
-0.00315366
-0.0345101
-0.0268782
-0.0102752
-0.0103476
-0.0439564
-0.0139367
-0.00766414
-0.00493816
0.00233727
0.014483
-0.0712789
0.00130911
-0.0150243
-0.015182
0.0239308
0.00169838
-0.0699643
-0.017042
0.00195524
0.00722501
0.000970596
0.000172981
-0.0272896
-0.0360788
-0.0110103
-0.0677258
0.00313486
-0.0670679
0.00205087
-0.0802258
-0.0772948
-0.071501
0.00157699
-0.0114912
0.000944863
-0.00663211
-0.00205268
-0.0560984
-0.0860207
-0.0201937
9.65998e-05
-0.0154624
0.00259116
-0.0488308
-0.0715337
0.000914305
0.000318769
-0.0133393
0.0261277
-0.00650684
0.00204147
-0.00710414
0.0136539
-0.00220953
0.00197404
-0.00409927
-0.0684221
0.00433212
-0.007619
-0.0686558
-0.0307488
-0.00173073
-0.0787964
-0.00500545
0.00189792
-0.107174
-0.0102618
-0.00407271
-0.0565167
-0.0578982
0.00606613
-0.076901
-0.0186282
-0.00850887
-0.0176649
0.00162826
-0.0687171
-0.0354358
0.00827512
-0.0521714
0.0194264
-0.0100163
-0.0261268
-0.120776
-0.0134433
-0.0688957
0.000125678
-0.0217142
-0.0108895
-0.000696256
-0.0738263
-0.00964252
0.00149353
0.0105594
-0.0706906
-0.00489115
-0.0145983
-0.0948526
0.000220307
-0.00625184
8.64039e-05
-0.00434801
-0.0542572
-0.0150298
-0.0889073
-0.0351414
-0.0267711
0.00103097
-0.00961661
0.00489079
0.00719908
0.0163687
-0.0105708
-0.00443407
0.00144826
0.00191558
-0.0728061
-0.070785
-0.00442799
-0.0633939
0.00182144
-0.00223661
0.00172202
0.00161444
0.00226039
-0.000377062
-0.0229935
-0.0850557
0.0529382
-0.0218294
-0.0210062
0.00828587
-0.00895369
-0.0731063
0.000299091
-0.0647293
0.0454696
-0.00321787
0.0266877
-0.0770983
-0.00376927
-0.00631208
0.00135938
-0.00900051
-0.0459894
0.000996233
-0.0202704
-0.000887096
-0.00230361
-0.0714614
-0.0113352
-0.0205543
-0.00697078
0.000297228
-0.0781621
-0.0265493
0.00233625
-0.0500382
0.021658
-0.0815041
-0.00255009
-0.00534346
-0.00197584
-0.0988369
-0.00973706
-0.0473462
-0.0215305
-0.0792186
0.00277485
0.00173509
0.00624726
-0.0975811
-0.0140996
0.00162498
0.00149522
-0.0734544
-0.090622
-0.0119832
-0.0155261
0.000116181
-0.00176282
-0.0678563
0.000156735
-0.0827011
-0.0586331
0.0016834
-0.0157953
0.00703502
0.0029431
-0.0292678
0.00201137
-0.0156531
0.00439046
0.013857
-0.019567
-0.0052767
0.00269399
-0.0902631
-0.00310511
-0.0124191
-0.0784903
-0.00749507
0.00292751
-0.0256028
0.00131017
0.00227471
-0.0235555
-0.0378941
-0.0306978
0.00374656
0.00133933
-0.0331516
-0.0107527
-0.0235427
-0.0114194
-0.0111131
0.00163374
0.00128787
-0.0147083
0.00475307
-0.0558126
-0.0650491
-0.117186
-0.000558965
0.0021989
-0.00698332
-0.0781116
-0.0140055
-0.00384191
-0.0778174
-0.0801116
0.00027082
-0.0195298
-0.0169629
0.0108213
-0.0797914
0.00197238
-0.0133935
-0.0345595
-0.100606
-0.0189048
-0.0207916
-0.00254847
-0.0696871
-0.0803148
0.00139734
-0.099862
0.00529601
-0.0147241
-0.0490046
-0.0567149
-0.0338457
0.000423131
-0.00551155
0.00312447
-0.01244
-0.00156203
-0.00450517
0.0122891
-0.00366461
0.00231827
-0.0271185
-0.0737521
0.0525891
0.000992093
-0.00117398
0.0164817
-0.0399536
0.00238707
-0.0145867
0.00181902
-0.0786999
0.0212971
-0.000507556
0.0126758
-0.0679264
0.00140871
-0.0695028
-0.01127
-0.00242558
0.00388046
0.000145644
0.00478508
0.00157038
0.0011663
0.00100099
0.00151796
-0.0957834
0.00154667
-0.00534176
-0.0450429
-0.040809
-0.000959402
-0.0640979
-0.00682812
-0.0157768
-0.0101011
-0.00948721
0.00375155
0.00248465
-0.0766448
-0.00376484
0.00741183
-0.0207281
0.00768881
-0.108266
0.0462038
-0.0973587
0.000281743
0.00182101
-0.0146624
-0.00336061
0.00202505
0.00260403
-0.0720263
-0.0633853
-0.00251199
-0.00450348
-0.0142131
-0.0663975
-0.0183422
-0.00426773
-0.00559779
-0.0661686
-0.0142235
-0.0794817
-0.020627
0.00252691
-0.00536859
0.00178353
0.000235876
-0.0537958
-0.00231453
-0.0332446
-0.0857417
-0.00512197
-0.0682853
-0.0268986
0.000216709
-0.0190128
-0.000366963
-0.00981507
0.00164936
0.00201317
0.00131716
-0.111024
0.0010885
0.0196142
0.00897555
-0.0328996
0.00829378
0.0174334
-0.0555602
-0.0707691
0.00201845
0.00139359
0.00367879
-0.0720201
-0.0104823
-0.0196937
0.00413738
-0.00327423
-0.0168383
-0.0090109
0.000160828
-0.006914
-0.0161539
-0.030019
-0.091727
-0.0845898
-0.026305
0.000351388
0.000867384
-0.0150653
-0.0064534
-0.000682875
-0.0677636
-0.066208
-0.00470407
-0.00241455
0.00141557
0.0128217
0.00476044
-0.0713822
-0.0412411
-0.0144889
-0.0801852
-0.0592185
-0.0693428
-0.0776382
-0.00920105
-0.117449
-0.0146631
-0.0654048
-0.0745491
-0.120818
-0.0838803
0.00151318
-0.01842
0.00324361
0.000682771
-0.0841343
-0.00665267
-0.0142107
-0.0377464
-0.019174
-0.0425594
-0.0714192
-0.072249
-0.0708811
-0.0219451
-0.00496236
-0.00917984
0.0020448
-0.021304
-0.00072062
-0.0590637
0.00360634
-0.0122315
0.00154437
0.000854227
0.000115483
-0.0720377
-0.0028395
0.00128573
-0.0142974
-0.00274885
-0.0428539
0.00269583
0.00746653
-0.114341
-0.0141848
-0.0423831
-0.014293
-0.0388274
0.0205708
0.00357037
-0.00282237
0.00165481
-0.0432707
-0.0278019
-0.000529031
-0.030255
-0.0873774
-0.0125484
-0.00468031
-0.00315311
-0.082799
-0.00479495
-0.00239904
0.00157965
0.0507746
-0.0815232
0.000259108
-0.0244571
-0.0894175
-0.0089801
0.00777554
-0.016532
-0.0666504
-0.0139482
-0.0792502
-0.00391746
0.0031604
0.0022065
-0.072294
-0.0338348
0.0019093
-0.0822091
-0.0107074
-0.00921161
-0.0377496
-0.0703247
0.0165786
0.0181746
-0.0376734
-0.0203102
-0.0844617
-0.000908071
-0.00853074
-0.0194021
-0.0255458
-0.0136429
0.00571388
-0.00981037
-0.00138339
-0.0759641
-0.0214639
-0.080252
-0.0100609
-0.0811546
-0.070149
-0.0181444
-0.0182582
-0.0361412
-0.017737
-0.0718275
-0.0304522
-0.0863347
-0.108279
-0.0186135
0.00307104
-0.0716984
-0.0998213
0.00560843
-0.0808504
-0.00543617
0.000209972
-0.0200596
-0.00330862
-0.00946342
-0.0435426
-0.0811282
0.00677905
0.00377321
-0.148304
-0.0688913
-0.0126542
-0.0809132
0.00486312
-0.0728962
-0.0420635
-0.0601287
0.000436998
0.000579125
-0.0532855
-0.0697555
0.00246569
-0.0854119
-0.0831113
0.000498687
-0.0177
0.00248737
0.00332836
-0.00442544
-0.0321176
-0.113504
0.0010585
-0.0137228
0.000270456
-0.0148665
-0.0650344
-0.0847158
-0.00088474
-0.0734407
-0.00525178
-0.00643029
0.00284019
0.0147328
0.00156958
-0.076109
-0.077555
0.012085
0.0370349
-0.075672
0.00026468
-0.0783948
-0.0812098
3.35988e-05
-0.0783307
0.00195828
-0.00557673
-0.0114208
-0.0330817
-0.0780611
-0.0271671
-0.017327
-0.0179089
0.00119685
-0.0777323
0.00292767
0.00148321
-0.0680719
-0.0825546
-0.0211595
-0.0082543
-0.0210112
-0.0123833
-0.0145841
0.0473347
-0.00460129
-0.0719214
0.00212892
-0.0760131
-0.00226634
-0.00110891
-0.0611825
-0.000374139
0.00139503
0.0381282
0.0401924
0.00218258
0.00781093
-0.0354888
-0.0718578
-0.0739536
-0.0186701
-0.0142009
0.000466944
-0.0064475
-0.0187901
-0.0071445
0.0171932
0.00154836
0.00148188
-0.0849595
-0.00616072
-0.0199645
-0.0279168
0.00442124
0.00164053
0.00177448
-0.0208725
-0.0209033
-0.0368239
-0.0279073
-0.0187488
-0.0663574
-0.0119876
-0.0458238
-0.0388447
-0.0749138
-0.0310951
0.00163876
-0.0284316
-0.0194586
-0.0138965
-0.0136373
-0.00970784
-0.0218858
-0.0354177
-0.071965
-0.0107226
-0.0613787
-0.0462294
-0.0630632
-0.0647871
-0.0213854
-0.0663413
-0.0678067
-0.0691217
-0.0702855
-0.0669405
-0.0444368
0.0052388
-0.00526407
-0.0328886
-0.0598221
-0.00303204
-0.0247778
-0.0720835
0.00192202
-0.0868654
0.00140105
0.00176052
0.00297508
-0.0905062
-0.0208936
-0.00336334
-0.0686821
-0.0506059
0.000782208
-0.007484
0.00404874
-0.0223721
-0.116464
-0.0016766
-0.0373045
-0.0746783
-0.0789754
-0.0583626
-0.08061
-0.0245249
-0.00460569
-0.0724121
0.000109186
-0.0701535
-0.0719384
-0.00831671
-0.0123229
-0.00344619
0.00309564
0.00150396
-0.0169842
-0.00286078
0.002123
0.0021587
0.0127423
-0.0755712
-0.00928601
-0.00953186
-0.0732456
-0.0395237
-0.0823657
-0.0667096
-0.0175653
-0.0138066
-0.0203339
-0.00334692
-0.081424
0.00836723
-0.102269
-0.0596002
-0.0752649
-0.0151426
-0.00227766
-0.00324743
-0.0765071
0.00195099
-0.0750804
0.000236448
-0.0787304
-0.0208631
-0.00326678
-0.000720167
-0.00341624
-0.0624765
-0.0117161
-0.0132343
-0.000783474
-0.0208798
-0.071671
-0.0806761
0.00592593
-0.0814057
-0.00341483
-2.42549e-05
-0.0333882
-0.00874169
-0.0676582
-0.0555096
-0.000127489
-0.0724487
-0.0643307
-0.0873022
0.000396821
0.00199966
0.00106181
0.000416224
-0.0742423
0.0137225
-0.00568425
-0.00570094
-0.0676639
-0.00132245
-0.00455672
-0.0071593
-0.108992
-0.0152503
-0.0195905
0.00119466
-0.0804828
0.00191749
-0.0302514
-0.0720173
-0.0633092
-0.0748262
0.00136815
-0.0404653
0.00196257
-0.0760308
-0.0761564
-0.0107181
-0.065508
-0.0022273
0.00256363
0.00492786
-0.00540371
0.0373946
-0.00211124
-0.00211578
0.0236857
-0.00603607
-0.0742332
-0.0777631
-0.0751836
0.00137961
-0.0259669
0.00172048
-0.0666349
0.00211609
0.00183161
0.000881716
-0.0321247
-0.00705533
-0.00972812
-0.00150694
-0.00471464
-0.0728657
-0.0705938
0.000527872
-0.039036
-0.0697108
0.00107354
0.00276425
-0.0771449
-0.0225357
0.0039822
-0.0782221
-0.00688962
-0.0835512
-4.54571e-05
-0.0953698
-0.0877172
0.00421686
-0.0142848
-0.0289053
-0.0612467
-0.0569214
-0.079399
0.0165098
-0.020312
-0.0803992
0.00832104
-0.0291124
-0.00723413
-0.0951995
0.0316793
-0.0771856
-0.043375
0.0195555
-0.011049
-0.0859767
-0.0039369
-0.0841967
-0.067779
-0.00297121
0.00111852
-0.0782192
-0.071398
0.00448503
-0.0186101
-0.00579418
0.00606961
-0.0861365
0.0163317
-0.070803
-0.0119599
-0.0688042
0.000418416
0.00302262
-0.0197172
-0.0293413
-0.0622959
-0.00243755
-0.0656751
0.00142492
-0.025669
-0.0185583
-0.00168926
-0.00396767
-0.0203775
-0.0735368
-0.0777623
0.000548964
-0.0694829
-0.0159174
0.000398153
-0.0105039
0.00165786
-0.0209437
-0.0754282
-0.0738098
0.0016937
-0.0262931
-0.0553383
-0.0569435
-0.0830851
-0.0607116
-0.0131487
-0.0509644
-0.0118864
-0.00310438
0.00385954
-0.0685204
-0.00694722
-0.0780251
-0.0809501
-0.0247748
-0.0710326
-0.0672923
-0.00048017
-0.0750912
-0.0251254
-0.0463801
0.00537387
-0.00132857
0.00784773
-0.0724463
-0.0178989
0.00876112
-0.0136228
-0.0767014
-0.0685455
0.005439
-0.0713806
-0.0708637
-0.0741886
-0.00944687
0.00214933
-0.0562501
-0.0124235
-0.0186907
-0.0192493
-0.00948905
-0.00111322
-0.00871141
-0.0123265
-0.00385985
-0.0124758
-0.00627818
-0.00737366
0.00688641
-0.0704706
-0.0124399
-0.0744933
-0.0142583
-0.00905268
-0.0624182
-0.0564763
-0.00417948
-0.000556601
-0.0262088
-0.03846
-0.0758406
-0.0377846
-0.0204336
-0.0115687
0.000774186
-0.00608228
-0.0705451
-0.0559069
-0.00268375
0.00164925
-0.0804442
-0.0190996
-0.00763204
-0.0577102
-0.0299042
-0.0376257
-0.074087
-0.0563035
-0.0137462
-0.00638507
-0.0806576
-0.00177307
-0.014186
-0.0109914
0.000758871
-0.0557386
-0.019112
-0.0686072
-0.00798186
-0.0137684
-0.032545
-0.0734767
-0.0641734
-0.0183993
-0.0640393
-0.0686659
-0.0321603
-0.0220832
-0.0209651
-0.0361665
-0.0255528
-0.0716761
-0.0154657
0.000697782
-0.0483843
-0.0207705
-0.0562361
-0.0113413
-0.00882156
-0.0380365
0.00189745
-0.0188987
-0.00209286
-0.0172626
-0.000993187
-0.0106197
-0.0743956
-0.0721778
-0.00721569
-0.00509534
-0.0656584
-0.0202061
-0.000494101
0.0248604
-0.0714418
-0.0329796
-0.0721723
0.0178388
-0.0492944
-0.0771792
-0.0671095
-0.0452944
-0.00284921
-0.0649749
-0.00753492
-0.0134406
-0.0697969
-0.0684536
-0.0112735
-0.0252624
-0.00991809
0.000333061
-0.0102055
-0.0696409
-0.00131501
-0.0661147
-0.0393899
-0.000908005
0.00210011
0.000675094
-0.0101078
-0.0122124
0.00137714
-0.037921
-0.00882572
-0.0103681
-0.00508025
-0.0589117
-0.0219494
-0.0288819
-0.0154005
0.00157423
0.00176999
-0.0509449
0.00403944
-0.0789136
-0.0177417
-0.0195839
-0.00757243
0.0219122
-0.0137609
-0.0133976
-0.00668104
-0.0367555
-0.00288299
-0.0291211
0.00149464
-0.118821
-0.0365677
-0.0130519
-0.000203134
-0.068075
9.09881e-05
-0.0246591
0.00212332
-0.039849
0.00226069
-0.00700587
-0.00580712
-0.0200719
0.00801553
-0.0323783
-0.0850152
-0.0243444
-0.013094
-0.00773294
-0.0659484
-0.00177251
-0.0715305
-0.0602532
-0.02052
-0.0167588
0.00666611
-0.0705425
-0.0312563
-0.0127367
-0.0668559
-0.0114809
0.00252419
-0.0185999
-0.00386794
-0.0154937
-0.0623327
-0.0838687
-0.00658279
0.00118943
-0.00881899
-0.0916725
0.0130437
-0.0170737
-0.0353887
-0.0816969
-0.0123371
-0.0292104
-0.0433706
-0.0337272