/*--------------------------------*- C++ -*----------------------------------*\
| =========                 |                                                 |
| \\      /  F ield         | OpenFOAM: The Open Source CFD Toolbox           |
|  \\    /   O peration     | Version:  v2012                                 |
|   \\  /    A nd           | Website:  www.openfoam.com                      |
|    \\/     M anipulation  |                                                 |
\*---------------------------------------------------------------------------*/
FoamFile
{
    version     2.0;
    format      ascii;
    class       volVectorField;
    location    "200";
    object      U;
}
// * * * * * * * * * * * * * * * * * * * * * * * * * * * * * * * * * * * * * //

dimensions      [0 1 -1 0 0 0 0];


internalField   nonuniform List<vector> 
13917
(
(0.478482 0.00622154 0)
(0.995842 0.0117511 -3.14881e-21)
(1.09415 0.0678799 -2.94389e-21)
(1.03612 0.0142751 6.35363e-21)
(1.00578 0.0138227 2.01092e-22)
(0.998051 0.00934258 0)
(1.05054 0.0290458 9.04098e-21)
(0.957809 0.0533507 0)
(1.06196 0.0194374 -1.30472e-20)
(0.0343373 -0.112206 2.20741e-22)
(0.963487 0.049669 5.09803e-22)
(1.0266 0.0124523 0)
(1.009 0.000125804 0)
(0.934988 0.213954 1.15821e-22)
(1.0157 0.00984311 0)
(0.455342 0.003525 0)
(1.00139 -4.03907e-05 -4.88063e-22)
(0.97849 0.051213 -1.54872e-21)
(1.0763 0.0737957 0)
(0.465545 -0.00821854 0)
(1.02418 0.0378003 0)
(1.0137 0.00835832 0)
(1.05852 0.0496905 2.6735e-22)
(1.01352 0.00816864 0)
(1.03388 0.0217473 0)
(1.02063 0.0400416 0)
(0.862098 -0.0730708 0)
(0.0193591 -0.0718252 0)
(1.0052 0.0479613 1.88974e-21)
(1.01261 -0.00161674 0)
(0.0324313 -0.075212 2.59916e-20)
(1.07592 0.0546431 0)
(1.03186 0.0164084 6.12508e-21)
(0.538301 0.0196056 0)
(1.01155 0.00144924 5.41278e-22)
(0.945587 0.0523437 0)
(1.02182 0.0222079 1.03726e-21)
(1.00186 0.000120974 1.10172e-21)
(1.0516 0.0292097 0)
(1.03368 0.0375518 -3.50288e-21)
(1.00087 -6.74513e-05 0)
(1.01414 -0.000857293 1.04145e-23)
(1.05679 0.0148805 2.31346e-20)
(1.08044 0.065816 0)
(1.07936 0.0663655 -6.64894e-21)
(0.985541 0.106102 0)
(1.02433 0.0363321 0)
(0.442828 0.0742301 1.92651e-20)
(0.716511 -0.025285 0)
(1.01146 0.00160259 -6.62627e-22)
(1.02612 0.0121109 -2.9273e-21)
(1.02706 0.0857332 -3.79286e-21)
(0.370769 0.00209145 0)
(1.01942 0.0117875 0)
(1.02063 0.0127307 -2.50152e-21)
(1.0312 0.0865814 1.04747e-20)
(-0.0232957 -0.0260464 -2.19476e-20)
(1.05728 0.0493441 2.35785e-22)
(1.01388 -0.000558398 7.91085e-22)
(0.97847 0.101595 -6.05321e-22)
(0.414974 0.210388 8.2917e-21)
(1.01455 -0.0127459 0)
(1.00377 -9.69681e-05 0)
(1.0337 0.0211197 0)
(0.864401 0.0660035 -5.6212e-21)
(1.01254 0.011446 -2.8787e-22)
(0.998156 0.0496677 0)
(0.942053 0.0430531 0)
(0.972875 0.055878 2.17636e-21)
(0.437685 0.00713346 -2.31455e-20)
(0.988295 0.0717602 2.25956e-20)
(0.518753 0.0165881 0)
(1.03327 0.00619239 3.9358e-21)
(1.01322 -0.000400244 -1.17071e-21)
(1.02539 0.0387521 0)
(1.03017 0.0235555 0)
(1.01238 0.011751 -6.22547e-22)
(1.01292 -0.000229788 7.42071e-22)
(1.03013 0.0229301 0)
(1.0322 0.0168319 5.02466e-21)
(1.0172 0.0123914 0)
(1.00139 -1.36063e-05 0)
(1.03282 0.00572172 0)
(0.982265 0.0589848 3.80674e-21)
(1.01393 0.00221293 -9.85072e-24)
(1.00109 0.109284 -7.43676e-23)
(1.07525 0.0539312 0)
(1.0133 0.00116907 -2.88275e-22)
(1.03321 0.0375101 1.76768e-21)
(1.00193 -3.30776e-05 5.6605e-22)
(1.00395 -3.76893e-05 -2.70327e-22)
(1.05801 0.0151563 -2.81648e-20)
(0.702865 -0.0557707 5.20602e-21)
(1.01086 0.00119476 -1.78588e-22)
(1.01994 0.0149172 0)
(1.00305 0.0513201 -2.20234e-21)
(1.05752 0.0234342 6.901e-21)
(1.00177 4.18346e-05 0)
(1.0138 0.00129861 1.45259e-21)
(1.07168 0.0260776 0)
(1.00223 -4.95683e-05 -2.66587e-22)
(1.00268 -8.84335e-05 0)
(1.01739 0.0127674 4.52331e-22)
(1.00418 0.000236284 1.7923e-22)
(1.01197 0.0109699 2.97921e-23)
(0.971786 0.0506292 0)
(0.602587 0.0264407 0)
(1.0185 -0.0138891 0)
(1.01489 -0.0011598 4.49413e-22)
(0.768623 -0.0929975 -2.32133e-21)
(1.01939 0.000195559 -1.02837e-21)
(0.553065 0.021919 -2.65883e-20)
(1.00943 0.0490166 -2.5551e-22)
(0.361742 0.0436046 -5.84189e-20)
(0.878786 0.0660243 2.58427e-21)
(1.02874 0.0247407 -3.97328e-22)
(1.0751 0.0722877 1.14874e-20)
(1.00355 -5.37221e-05 -2.26615e-22)
(1.0911 0.070492 -5.13434e-21)
(1.03159 0.00266076 -1.11784e-20)
(1.002 -2.45747e-06 1.13929e-22)
(1.0117 -0.000119738 -3.58487e-22)
(0.995386 0.05344 -4.64329e-21)
(1.05693 0.076739 7.61147e-21)
(0.406378 0.00564847 -1.91135e-21)
(0.942747 0.0597303 -5.97094e-21)
(1.0341 0.0201857 -6.86973e-21)
(1.02553 0.0402395 -1.88191e-21)
(1.01063 0.00321355 2.67916e-22)
(1.05922 0.0774498 0)
(1.06656 0.0343908 1.57816e-22)
(0.976095 0.0197881 0)
(0.669796 0.04004 0)
(1.02808 0.0246711 -2.78172e-21)
(1.07753 0.0582043 -1.30953e-20)
(0.746605 -0.0939838 9.51942e-23)
(0.37979 0.203211 0)
(0.366508 0.00764852 1.01107e-22)
(1.01822 0.0421786 -1.09237e-22)
(1.0008 7.16075e-05 -4.89896e-22)
(0.944637 0.209981 3.42851e-21)
(1.01237 -0.000166256 -3.64342e-22)
(0.988663 0.0499381 -3.69397e-21)
(1.01248 0.00593704 4.06893e-23)
(1.03094 0.00606643 0)
(1.02095 -0.00140659 -5.7039e-22)
(0.992922 0.071627 -7.83803e-21)
(0.927528 0.126372 -1.20743e-20)
(0.447972 0.0300503 0)
(1.01977 0.0122462 5.31896e-22)
(1.03241 0.036758 0)
(1.00309 -9.92699e-05 -1.58469e-24)
(1.03052 0.00552964 0)
(1.03189 0.00230401 1.0479e-22)
(0.992976 0.00737002 3.53232e-21)
(1.01246 0.00641647 -3.27901e-23)
(1.00452 0.000225639 -2.51935e-22)
(0.632151 0.0384959 2.32458e-20)
(1.00178 -5.02133e-05 1.21554e-23)
(1.00299 -0.000108934 0)
(1.01335 0.00445082 0)
(0.790677 0.111187 -1.80158e-20)
(1.01648 0.0221923 -2.2126e-22)
(0.927761 0.209978 -8.56894e-22)
(0.593913 0.174919 2.95144e-20)
(1.08973 0.0195068 -9.69763e-22)
(0.249788 0.00253655 0)
(0.460522 0.216424 -3.72047e-20)
(1.00704 -0.000491656 0)
(1.01765 0.0444113 1.18228e-23)
(1.01349 0.00816827 -2.09351e-22)
(0.684818 0.0399005 1.93187e-20)
(1.06229 0.0185146 1.17592e-20)
(0.506773 0.194367 -1.5745e-20)
(1.0285 0.0553265 0)
(1.0025 -6.62643e-05 1.74729e-22)
(1.03672 0.013956 0)
(1.01996 0.0898573 -1.16231e-20)
(1.06627 0.0333433 2.82226e-20)
(1.01566 0.0227086 -5.07566e-25)
(1.05507 0.0156694 -7.99049e-21)
(1.0134 0.00803424 0)
(1.02568 0.0122999 1.65851e-21)
(1.04629 0.115068 6.13112e-21)
(1.09172 0.0720316 0)
(0.97741 0.0101921 0)
(1.02522 0.0119891 0)
(1.04103 0.116509 3.87462e-21)
(1.01257 -0.00161044 -9.81317e-23)
(1.00321 0.100056 1.43115e-21)
(1.02688 0.0537221 4.19637e-21)
(1.07812 0.0653402 6.70456e-21)
(1.05156 0.099363 8.97954e-21)
(0.484523 0.00634032 3.85113e-20)
(1.01081 0.00122634 1.1434e-21)
(0.415023 0.00677997 -1.64104e-20)
(1.03741 0.0289041 -4.56534e-21)
(0.707865 0.0424882 -2.00182e-20)
(1.0114 0.00139306 -2.12847e-22)
(1.01256 0.00654367 7.53586e-22)
(1.02488 0.0337984 1.69456e-21)
(0.442393 0.00676934 0)
(0.355381 0.00662985 -2.10285e-20)
(1.01973 0.0192303 0)
(0.854459 -0.070717 9.88855e-21)
(1.00666 0.0320659 4.29679e-22)
(1.03295 0.0369625 0)
(1.01216 -0.000227006 -1.03189e-23)
(1.0247 0.0900673 -1.01436e-21)
(1.01695 0.0121447 2.40291e-22)
(1.00873 0.00231621 1.25945e-22)
(0.996028 0.0159183 -4.12273e-21)
(0.993635 0.0180445 6.32072e-22)
(0.482637 0.0621505 -1.92535e-20)
(1.07731 0.0574862 6.89228e-21)
(1.02054 0.0418308 1.1517e-22)
(0.743197 0.0634044 2.27186e-20)
(1.00757 0.000562914 0)
(1.00784 -8.09015e-05 -5.97843e-22)
(1.00785 -0.000107969 0)
(0.44693 0.218495 3.92971e-20)
(1.04894 0.10692 1.26053e-20)
(1.03516 0.126143 7.54581e-21)
(1.01921 0.00150196 0)
(1.00313 -9.99138e-05 -2.67355e-23)
(0.654438 -0.114491 -1.8141e-21)
(0.405441 0.00608818 -1.75759e-20)
(1.00707 -3.53742e-05 3.46899e-22)
(1.00683 -4.89749e-05 -3.11082e-22)
(1.00076 -8.34305e-05 0)
(1.0082 -0.000140781 0)
(1.00822 -0.00017544 -6.10004e-22)
(0.50874 0.0146026 1.01622e-20)
(0.58124 0.106411 0)
(1.01545 0.0100816 -5.9187e-23)
(1.00815 -0.000790623 -2.43702e-23)
(1.04016 0.0666967 0)
(0.489571 0.0141253 0)
(1.00181 -4.58786e-05 3.06882e-23)
(1.01895 0.0014489 0)
(0.824519 -0.0783959 -6.02395e-21)
(0.981278 0.0511917 0)
(1.0507 0.110581 -5.84548e-21)
(0.726959 0.0577407 0)
(1.01456 0.0619227 0)
(1.01267 0.00604125 -7.66003e-22)
(0.509009 0.20153 2.89141e-20)
(1.04138 0.0689463 2.05979e-21)
(1.01075 0.0461311 -1.74282e-21)
(1.06768 0.0638735 4.29021e-21)
(1.02013 0.0188789 0)
(0.562745 0.0872254 2.30976e-20)
(1.03196 0.00355327 4.52867e-21)
(1.03573 0.0399334 -3.05085e-21)
(1.03191 0.0535449 0)
(1.01532 0.0101347 2.51112e-22)
(1.00036 -2.15918e-05 0)
(1.0343 0.0208134 0)
(1.00691 0.00356465 7.01065e-22)
(1.01266 0.00113875 0)
(0.440833 0.0112692 1.59684e-20)
(0.710156 0.130627 4.74448e-21)
(1.01113 0.000157718 -3.49733e-22)
(1.00662 -1.07266e-05 0)
(1.01241 0.00677042 6.75874e-22)
(1.00664 1.32741e-05 0)
(1.03219 0.00322165 8.09363e-21)
(1.01376 0.000259315 -2.67967e-21)
(1.04672 0.0426086 -5.4137e-21)
(1.01144 4.89335e-05 -3.65094e-22)
(0.371733 0.0106339 1.96959e-21)
(0.621742 0.0380913 0)
(1.02193 0.00973168 -1.62127e-21)
(1.00943 0.00675984 0)
(0.96891 0.103981 1.40864e-21)
(1.00853 -0.000362093 -1.35523e-22)
(1.06019 0.0328905 3.70442e-22)
(0.460306 0.0145279 1.36544e-22)
(1.0085 -0.000368289 1.39522e-22)
(0.458096 0.00941986 2.24296e-20)
(1.01228 0.00119127 0)
(0.8043 0.118309 0)
(1.00207 -5.77694e-05 2.43465e-24)
(1.01683 0.0112723 -2.2249e-21)
(1.01536 0.0102682 -2.01161e-23)
(1.01177 0.00536009 3.79602e-22)
(1.07537 0.0886336 0)
(1.00356 0.000222123 -5.01377e-22)
(1.1033 0.0112102 -1.82143e-21)
(1.03544 0.0324449 0)
(0.683436 0.140224 2.10562e-22)
(1.02212 -0.00270358 0)
(0.969958 -0.049666 0)
(0.351095 0.00736917 -2.06516e-21)
(1.00285 -6.52566e-05 -5.95529e-22)
(1.0512 0.0547395 -8.75222e-21)
(1.00575 0.00733318 6.73662e-22)
(1.0273 0.0254664 -3.06768e-21)
(1.0058 0.0117489 -5.62675e-23)
(1.0309 0.0227702 -7.71301e-21)
(1.01133 0.0011526 -3.78675e-22)
(1.00451 0.000284692 2.38517e-22)
(1.0125 0.0844123 3.76196e-21)
(1.0353 0.0249617 0)
(1.03609 0.0396167 5.30603e-21)
(1.03086 0.022221 2.5421e-21)
(1.01859 0.00150128 -1.95539e-21)
(0.656961 0.0403947 -2.27151e-20)
(0.428636 0.00550443 0)
(1.01017 0.00280066 -2.40631e-22)
(1.02008 0.00332399 -1.0247e-24)
(1.02797 0.0255629 0)
(0.928685 0.0240257 0)
(1.08563 0.058785 -3.985e-20)
(0.613751 0.0294951 -6.02017e-21)
(0.554209 0.187867 1.14153e-20)
(1.00717 0.00340827 1.02575e-22)
(0.986632 0.0250882 -1.00514e-20)
(1.01007 0.00586539 -6.13989e-22)
(1.00984 0.0609035 -2.06463e-20)
(0.921374 0.0407767 -6.37862e-22)
(1.09399 0.0666592 0)
(1.01341 0.000254756 0)
(1.01645 0.0100767 0)
(0.888978 -0.0672831 0)
(1.01309 0.00801117 6.09571e-23)
(0.992074 0.011784 1.73646e-21)
(1.07694 0.0657446 6.58107e-21)
(1.00137 -5.23051e-05 -6.90909e-22)
(0.695844 0.0406299 -6.8811e-23)
(1.01384 0.00173594 0)
(1.07849 0.0383457 0)
(1.0111 -0.000732262 -7.92538e-22)
(0.368432 -0.0114645 4.4409e-20)
(1.0075 0.00157896 2.48671e-22)
(1.03709 0.0393741 -8.07193e-22)
(1.00719 0.0343429 1.82151e-22)
(1.00681 -0.000437764 -5.6791e-23)
(1.00224 -2.32228e-05 4.39296e-22)
(1.06994 0.0624998 9.45581e-21)
(1.01075 0.0505189 5.91342e-21)
(1.02046 0.014744 1.18541e-21)
(1.01292 0.00768864 -4.94181e-22)
(0.577863 0.0258871 -1.35582e-20)
(1.00458 0.0510455 0)
(0.814267 0.166377 -3.62232e-20)
(0.922201 0.193977 0)
(1.00815 -0.000343987 6.53539e-23)
(1.0161 0.0105278 -3.32002e-22)
(0.972425 0.0528327 0)
(0.986044 0.0320585 1.13921e-20)
(1.00815 -0.000349976 -5.61903e-22)
(1.00456 0.00921374 6.18683e-22)
(1.02259 0.0123852 2.33654e-21)
(1.03337 0.050763 0)
(1.03676 0.0398269 -2.60635e-21)
(1.05089 0.0878361 1.47923e-21)
(1.01206 0.0408114 -2.73072e-22)
(1.06069 0.0373905 2.96847e-22)
(1.0749 0.0397085 2.13729e-20)
(0.528809 0.0155613 0)
(1.01084 0.00333014 -5.32077e-22)
(1.02088 0.0149295 0)
(1.00408 0.014975 9.14502e-22)
(1.08687 0.0855417 -9.8226e-21)
(1.00135 -5.64808e-05 2.3296e-22)
(0.468019 0.00478455 -4.60033e-20)
(1.07531 0.0390263 -1.5375e-20)
(0.906151 -0.153016 -7.55257e-22)
(1.02063 0.0130549 3.2497e-21)
(0.997233 0.0372265 0)
(1.02112 0.00191123 -1.88621e-23)
(0.723113 -0.118436 0)
(1.01464 0.000275092 -4.49728e-22)
(1.04119 0.124257 -8.26543e-21)
(0.976118 0.109191 -1.94783e-21)
(1.005 0.0366091 3.25033e-22)
(1.0221 0.0101229 -5.18946e-21)
(1.0865 0.0939001 0)
(1.01202 -0.00107019 0)
(0.566421 0.184247 -2.71825e-20)
(1.05308 0.102809 -1.03886e-20)
(1.0147 0.000646749 -4.51604e-22)
(0.728493 -0.0844892 -5.74272e-21)
(1.01532 0.0106849 -3.16388e-22)
(1.02043 -0.0545843 4.27302e-23)
(1.00831 0.000925831 3.10961e-22)
(0.496197 -0.00794492 0)
(1.02531 -0.0603251 -6.37618e-22)
(1.0241 0.0217935 -7.639e-23)
(0.583761 -0.133569 -7.51888e-23)
(1.0536 0.0428347 0)
(1.02015 0.0177723 2.10309e-21)
(0.70268 0.161031 -8.71267e-21)
(1.08615 0.0573384 -9.54356e-21)
(1.02506 0.0207861 -6.56815e-22)
(1.07474 0.0915402 7.56853e-21)
(1.01657 0.01063 5.5823e-22)
(1.05605 0.0475812 -9.74045e-22)
(1.09388 0.0691418 2.26031e-20)
(1.01398 0.00153563 0)
(1.05544 0.0257697 -1.20616e-20)
(1.03154 0.0220636 3.2406e-21)
(1.01188 0.00535383 3.97614e-22)
(1.00942 0.00238775 2.86684e-23)
(1.01107 0.00354267 4.94402e-22)
(0.317073 0.21225 0)
(1.07886 0.0107885 9.89639e-22)
(1.02077 0.014041 1.60881e-21)
(1.01131 0.00350399 3.24629e-22)
(1.01338 0.00769484 -5.94938e-23)
(1.04459 0.0522452 -1.40922e-20)
(0.920864 0.00695202 0)
(1.00973 -0.000426587 0)
(1.00689 -0.000446427 0)
(1.08522 0.0590674 2.65862e-20)
(1.00058 0.0334345 0)
(1.01199 0.00562821 3.8003e-22)
(1.02423 0.0213948 6.35525e-23)
(0.70162 0.175657 0)
(0.900177 0.0403788 -8.24e-21)
(1.00974 0.0161221 0)
(1.07826 0.0736924 0)
(1.05158 0.0628063 4.39288e-21)
(1.01109 -0.000425009 1.06185e-21)
(1.0093 -0.000383424 -5.10191e-22)
(1.021 0.0341641 1.35556e-21)
(1.00931 0.00227898 1.69416e-23)
(1.00971 -0.00040709 5.18754e-22)
(1.0155 0.0102452 -2.98568e-22)
(1.0093 -0.000373318 -9.53008e-24)
(1.01086 -0.000446511 0)
(0.530675 0.191229 -2.80334e-21)
(1.01682 0.0109906 -6.33717e-23)
(1.03421 0.0374628 0)
(0.386893 0.0126672 0)
(1.04979 0.0537576 0)
(1.00893 0.00243462 -2.9341e-22)
(1.02978 0.00553466 0)
(0.726009 0.152981 0)
(1.0237 0.0340036 -8.48545e-22)
(0.388621 0.00370391 1.98479e-20)
(1.01063 -0.000588703 0)
(1.02001 0.00408267 -3.7588e-21)
(1.01221 -0.00106533 0)
(1.00858 -0.000209047 6.49226e-22)
(1.02158 0.021411 1.44781e-21)
(1.01515 0.0107807 3.84965e-22)
(0.723237 0.170931 0)
(1.0165 0.00868869 0)
(0.96094 0.0512736 2.21776e-21)
(1.01972 0.00413485 0)
(1.06202 0.0393893 -1.03313e-20)
(1.02135 0.0083071 -3.95935e-22)
(1.01677 0.0117673 0)
(1.01773 0.0643018 0)
(0.799119 0.168798 5.52489e-21)
(1.0226 0.0120272 -2.40108e-21)
(0.65883 -0.0660794 -6.60568e-21)
(1.00919 0.00264123 -1.26501e-23)
(1.00832 0.000812269 8.44803e-22)
(1.01317 0.00739231 -6.85917e-23)
(1.01555 0.0108155 1.13115e-22)
(1.00832 0.00207627 -4.90768e-23)
(1.01102 0.000836075 0)
(0.645844 0.0390336 2.72424e-21)
(0.467593 0.202649 1.68117e-20)
(1.00812 0.00196063 0)
(0.936863 -0.0515075 9.6867e-21)
(1.08485 0.0601523 0)
(1.01815 0.000503703 4.38392e-21)
(1.04896 0.0571213 -8.01535e-21)
(1.08542 0.051188 7.56552e-21)
(0.671656 0.148003 3.58105e-20)
(1.05798 0.0271023 -1.37817e-20)
(0.973423 0.0492534 8.45017e-21)
(0.955246 -0.115427 -5.66299e-22)
(0.95834 -0.0977305 2.10561e-22)
(1.01539 0.0108981 4.39084e-22)
(1.01075 0.007062 2.82129e-22)
(1.02535 0.00924663 0)
(1.01985 0.0181555 -1.2019e-22)
(0.989151 0.154597 0)
(1.00376 -3.52381e-05 -2.87168e-22)
(1.01946 0.0114161 0)
(1.02035 0.0151469 2.70071e-21)
(1.05815 0.0231794 -9.52296e-21)
(1.02788 0.0367172 6.07618e-22)
(1.08821 0.0736356 -1.09898e-20)
(1.06447 0.0533527 -1.71743e-20)
(1.01681 -0.00482258 0)
(1.00824 0.0064873 1.35463e-21)
(0.985699 0.0553328 0)
(1.03402 0.0359609 -2.08635e-21)
(1.02044 0.013784 -1.54645e-21)
(0.903014 0.227551 -7.1401e-23)
(1.05128 0.0424406 -8.02823e-21)
(1.03608 0.0323692 4.06624e-21)
(0.557192 0.190205 1.97399e-20)
(1.01404 0.00197826 -3.17681e-21)
(1.03375 0.0352433 1.8045e-21)
(1.0172 0.094675 0)
(1.0079 0.00144422 2.03693e-23)
(0.544983 0.0326778 -1.44954e-21)
(1.00837 0.000817192 0)
(1.00858 -0.00024106 0)
(1.0454 0.0535685 1.44632e-20)
(1.01057 -0.000524072 0)
(1.00785 0.000604035 -5.16942e-22)
(1.01055 0.0795278 0)
(0.602966 0.0413296 0)
(0.484736 -0.165989 1.55245e-21)
(1.01335 0.00420348 1.23103e-21)
(1.04161 0.0133053 1.11494e-20)
(1.01266 -0.00309601 6.08792e-22)
(0.999253 0.157266 1.07127e-20)
(0.884353 0.0882337 1.16223e-20)
(1.01999 0.0129927 2.86596e-21)
(1.02021 0.0123367 1.77598e-21)
(1.01299 0.00377601 0)
(1.03539 0.052775 9.05232e-21)
(0.850835 0.0467274 3.93273e-21)
(1.01084 0.0031035 -3.40726e-22)
(1.00185 -6.70115e-05 9.73469e-23)
(1.01255 0.00621561 -1.02011e-21)
(1.01179 0.00514741 -1.35935e-21)
(1.01524 0.0100636 0)
(1.04224 0.0332796 0)
(1.00328 -2.816e-05 5.1992e-22)
(1.0636 0.0542168 1.78211e-20)
(1.00785 0.00136561 -2.74482e-22)
(1.0138 0.00815593 -4.84845e-22)
(1.03156 0.0215598 1.54364e-21)
(0.593025 0.0230478 3.12177e-20)
(1.00499 8.95706e-05 -6.07165e-22)
(1.04844 0.0191746 3.83931e-21)
(1.01254 0.00104608 0)
(1.06153 0.0384394 -1.78786e-20)
(1.05122 0.0638236 -4.71577e-21)
(1.02439 0.05917 -2.13764e-23)
(1.03085 0.0549113 0)
(1.07248 0.016798 0)
(1.02955 0.0205008 0)
(0.98943 0.0507942 2.34465e-21)
(0.73441 0.043861 1.02002e-20)
(0.56013 0.174005 0)
(0.406713 0.0161877 -1.40606e-20)
(1.00976 0.00234031 2.48613e-22)
(1.01281 0.00689801 0)
(1.01757 -0.0062215 -5.74323e-22)
(1.02182 0.00723895 0)
(0.865091 0.0626851 9.70678e-21)
(1.0089 -0.000369228 0)
(0.819692 0.132387 0)
(1.03808 0.0287532 6.69033e-21)
(0.819048 0.0477812 1.91863e-20)
(1.06409 0.028889 1.3902e-22)
(1.05618 0.0158464 2.36224e-21)
(0.168135 -0.0918421 1.29993e-20)
(1.00809 0.00189413 3.75943e-22)
(1.08223 0.0493041 2.96437e-20)
(1.00252 6.0109e-05 3.70249e-22)
(1.01439 0.00299696 1.92451e-21)
(0.783746 0.0455016 1.42849e-20)
(1.01018 -0.000488152 1.26409e-22)
(1.0925 0.0594533 4.33301e-20)
(1.00273 -8.23183e-05 8.46019e-23)
(1.01664 0.000254122 -2.34909e-21)
(1.013 0.00719962 0)
(1.08702 0.072846 1.06782e-20)
(1.01407 0.0109333 -4.3939e-22)
(1.00594 4.08155e-05 -3.63732e-22)
(1.08158 0.0639907 0)
(1.04784 0.0558614 -1.67072e-21)
(0.889637 -0.197591 5.26048e-21)
(1.03118 0.070881 0)
(0.67443 0.0420021 9.8313e-21)
(0.648158 0.156108 -1.8481e-20)
(1.00497 9.73664e-05 7.09665e-22)
(0.421442 0.00484824 -5.54498e-21)
(1.00452 -0.000166262 8.37095e-23)
(0.414082 0.2032 0)
(0.959782 0.115792 0)
(1.01478 0.00377622 -5.2421e-22)
(1.02389 -0.000762606 2.03958e-22)
(1.00257 -5.45262e-05 3.37003e-22)
(1.05085 0.0418594 0)
(1.05459 0.0145517 8.71821e-21)
(1.01015 -0.00044837 -1.30027e-22)
(1.00246 7.84461e-05 0)
(1.01214 0.000349005 -1.81918e-21)
(1.06474 0.0722958 -1.55828e-20)
(1.01445 0.00499169 -7.90231e-22)
(1.07538 0.0520759 2.16264e-20)
(1.01907 0.0110444 0)
(1.00581 2.88316e-05 8.7579e-22)
(1.00222 -5.31076e-05 6.62146e-22)
(0.992189 0.101422 4.25923e-22)
(0.91885 0.130538 -1.27769e-20)
(0.216242 -0.0663875 -2.22022e-20)
(1.06663 0.0626015 -1.18164e-20)
(1.0429 0.0330267 0)
(1.09595 0.117761 -5.51873e-21)
(0.494829 0.0152514 -2.21622e-20)
(1.0086 0.000947322 -3.31426e-22)
(0.909892 0.16066 0)
(1.01176 0.000125251 3.94187e-21)
(1.08634 0.0553828 -3.45118e-20)
(1.02154 0.00740307 6.43995e-21)
(1.09532 0.0908027 7.85369e-21)
(1.01154 0.00490775 5.17187e-22)
(1.01706 0.0104312 0)
(1.03163 0.00614163 0)
(0.898002 -0.176679 -3.58886e-21)
(1.04854 0.0429987 -9.7749e-21)
(0.827569 0.0664385 -1.09626e-20)
(1.00324 -7.17302e-06 -8.80488e-24)
(1.04702 0.0413739 -5.97939e-21)
(1.01121 0.00250831 0)
(1.00195 -8.4155e-05 -4.8979e-22)
(0.543327 0.0176072 -5.30807e-22)
(1.09394 0.0412562 -1.80386e-22)
(1.01151 0.00228377 -1.47671e-22)
(1.0513 0.0913347 -2.03577e-21)
(1.01881 0.00160008 2.93786e-21)
(1.01285 0.00230166 0)
(1.0025 -8.2174e-05 0)
(0.564832 0.0216781 3.26405e-20)
(1.01463 0.0049525 8.14221e-22)
(1.00543 0.00473188 0)
(1.0089 -0.000359826 3.42071e-22)
(1.01138 0.00229442 -1.03164e-21)
(1.08518 0.08652 0)
(1.00281 -8.06216e-05 -9.76171e-23)
(1.0589 0.0855853 -5.17098e-21)
(1.00132 -4.56569e-06 -7.46515e-24)
(1.00767 0.00161062 0)
(0.383303 0.211751 1.7582e-21)
(1.07592 0.0526872 0)
(1.0197 0.0125408 -1.68812e-21)
(0.306607 0.00319117 0)
(1.09158 0.0593286 -4.00893e-20)
(0.945801 -0.02515 -1.716e-22)
(1.01209 0.0939348 0)
(1.0079 0.00177775 -2.20815e-22)
(1.01562 0.00862363 -2.77884e-21)
(0.57125 0.0169612 -4.64438e-22)
(1.08849 0.055606 6.8405e-24)
(1.02155 0.0329196 0)
(1.02246 0.02247 -4.54295e-22)
(1.01878 0.011266 -1.07205e-21)
(1.00185 9.81965e-06 5.41858e-22)
(1.01113 0.00390145 0)
(1.00412 0.00614578 6.28521e-23)
(1.04913 0.0666229 0)
(1.03427 0.0270598 -1.97063e-21)
(0.508933 0.200422 -2.28255e-21)
(1.04933 0.0437749 1.19327e-20)
(0.893922 -0.0141621 -6.85753e-21)
(0.861341 0.102874 9.10487e-21)
(1.04143 0.0202369 0)
(1.03937 0.0397001 -7.85979e-21)
(1.05511 0.0966466 0)
(0.471628 0.0112644 2.02264e-20)
(1.01124 0.00115155 0)
(1.0319 0.00141873 1.21647e-21)
(0.999251 0.0024027 0)
(1.00776 0.00162576 0)
(1.0032 4.92629e-05 4.6184e-22)
(1.00228 -6.23713e-05 -1.8994e-22)
(1.01253 -0.00431916 0)
(1.00897 0.00069505 0)
(0.427002 0.00513347 6.08424e-21)
(1.07304 0.0338 1.26546e-20)
(1.00538 0.000349311 0)
(1.07588 0.0647074 -6.821e-21)
(1.00351 -2.3581e-06 9.92596e-22)
(0.636529 0.0378546 -1.45216e-20)
(1.01234 0.00127641 0)
(1.01062 0.00313548 0)
(0.571563 0.03804 0)
(1.053 0.0610802 1.17294e-20)
(0.898308 -0.150083 2.118e-21)
(1.03343 0.00825042 0)
(1.01492 -0.00137937 0)
(1.01039 0.00262517 2.06348e-23)
(1.03863 0.0110655 -4.96244e-21)
(1.05195 0.0325575 -5.70404e-22)
(1.01136 0.00497566 3.77778e-22)
(0.380013 0.00652078 -1.68375e-20)
(1.03559 0.0343115 0)
(0.889693 0.151762 -5.14799e-21)
(0.907281 -0.16707 1.98238e-21)
(1.03183 0.00457321 -1.08667e-21)
(0.675598 0.0432068 0)
(1.04125 0.0137971 0)
(1.00329 0.000135489 2.74337e-22)
(1.01134 0.00251783 1.08756e-21)
(0.475206 0.0165439 -1.49951e-20)
(0.508543 -0.152519 0)
(1.03733 0.0295712 -5.05043e-21)
(0.395857 0.00520166 0)
(0.805957 0.00894814 -2.56907e-21)
(1.00767 0.00170024 -3.07495e-22)
(1.01039 0.00292822 0)
(1.0208 0.0210784 2.4018e-21)
(0.985682 0.0506014 0)
(0.90592 -0.0929574 0)
(1.04751 0.0434057 -3.20132e-21)
(1.03791 0.0109264 4.17622e-21)
(1.04799 0.0196779 0)
(1.08678 0.055618 3.62123e-20)
(1.01078 0.00629038 5.35389e-22)
(1.05381 0.0861049 1.01704e-20)
(1.07235 0.0346392 0)
(1.01967 0.0143591 -1.59455e-21)
(1.03193 0.0170811 -8.42433e-21)
(1.00322 0.000131047 -2.40122e-22)
(1.05122 0.03213 0)
(1.00825 0.00460569 -1.34454e-21)
(1.08493 0.0569641 -3.65562e-20)
(1.02634 0.0261342 1.32909e-21)
(1.00992 0.00278999 6.15056e-22)
(0.385092 0.00580288 -2.28271e-20)
(1.01513 -0.00109161 0)
(0.802604 0.0667009 -2.59148e-21)
(1.02284 0.0218737 -1.81043e-21)
(1.00408 0.0155912 1.02724e-21)
(1.04081 0.0283874 -3.34403e-21)
(1.08889 0.0558752 1.63917e-20)
(1.00203 -1.21736e-05 -4.45577e-22)
(1.08249 0.0477033 -1.32878e-20)
(0.948482 0.126183 2.94539e-20)
(0.897772 0.032288 2.21131e-22)
(1.02267 0.00724182 2.09738e-21)
(1.02708 0.0262202 3.29639e-21)
(1.00699 0.000351951 4.2093e-22)
(1.01984 0.00568895 3.86697e-21)
(1.03151 0.00507357 1.10279e-21)
(1.02491 0.0193448 0)
(1.01878 0.0099539 0)
(0.994349 0.097774 1.3173e-21)
(1.05688 0.0876527 0)
(1.00768 0.00159214 -2.84781e-22)
(1.08169 0.055787 -1.11626e-20)
(1.061 0.0196347 2.34209e-20)
(1.05779 0.023758 1.53772e-20)
(1.0548 0.0929682 0)
(1.01613 0.0107265 -2.84197e-22)
(1.08142 0.04958 1.4334e-20)
(1.07597 0.0123444 -6.13842e-21)
(1.00526 6.48098e-05 -5.41672e-22)
(1.05444 0.0606948 0)
(1.01969 0.0538462 1.58515e-21)
(1.07107 0.0345539 0)
(1.01011 0.00332239 -3.60875e-23)
(1.00855 0.00226055 3.70812e-22)
(1.01106 0.00382116 0)
(0.426878 0.00628437 9.13309e-23)
(1.03108 0.0160946 -4.37076e-21)
(1.01285 0.00149771 -4.4737e-24)
(1.07716 0.0382318 0)
(1.01157 0.00522195 -4.93097e-22)
(1.00933 0.00261651 7.22006e-23)
(1.03343 0.0841383 -8.84569e-22)
(1.10729 0.0235806 4.15356e-21)
(1.02531 0.0305834 5.05417e-22)
(0.830619 0.00379984 7.22057e-21)
(1.03149 0.0491445 0)
(0.966503 0.0541841 0)
(1.03197 0.00470606 -1.19611e-20)
(1.01209 0.0123093 4.05378e-22)
(1.10348 0.102212 1.25494e-20)
(1.01405 0.00396046 -1.04847e-21)
(1.01685 -0.0251336 7.54973e-22)
(1.00207 -2.98367e-05 2.66023e-22)
(1.00319 2.20825e-05 5.07894e-22)
(1.03206 0.00903761 4.75644e-21)
(1.02528 0.0267897 -1.35777e-21)
(1.02781 0.0609893 -1.30253e-22)
(1.01001 0.00324809 2.39399e-23)
(1.02191 0.0311072 2.32488e-22)
(1.01259 0.00499696 -2.54351e-22)
(0.971315 0.0572892 0)
(1.02348 0.022165 0)
(1.05855 0.0263658 1.56316e-20)
(1.011 -0.000638909 -5.91452e-22)
(1.06703 0.0648975 -2.72703e-20)
(1.01634 0.0111074 2.05143e-21)
(0.797525 0.143072 -2.81201e-20)
(1.02962 0.0318802 5.19925e-22)
(1.00117 -4.02786e-06 1.43406e-22)
(0.602299 0.0246927 -2.1182e-20)
(1.03142 0.0178041 3.20797e-21)
(0.435544 0.0100245 -1.5955e-20)
(1.05451 0.012927 0)
(1.04151 0.046598 -4.41758e-22)
(1.01146 0.00751264 3.20051e-23)
(1.00939 0.00187539 -2.86821e-22)
(1.0224 0.00684339 -8.94446e-23)
(0.709079 0.0399145 0)
(1.04961 0.0322424 -6.39527e-21)
(0.932522 -0.0189056 2.09982e-22)
(0.881567 0.0527756 1.76697e-20)
(1.01958 0.00551625 0)
(1.07064 0.0354083 0)
(1.00802 -0.000757445 0)
(1.01931 -0.00598052 -6.96376e-22)
(0.866322 -0.0932347 1.32605e-21)
(1.0084 -0.000837537 -2.77398e-23)
(0.539762 0.190106 8.79958e-21)
(1.04999 0.0188499 0)
(1.04834 0.0459784 0)
(1.07317 0.0724477 -2.50642e-22)
(0.927074 -0.0322714 3.03997e-21)
(1.00708 0.000117577 0)
(1.00364 0.000108737 -6.96088e-22)
(1.00772 0.0402297 -1.43398e-21)
(1.00788 0.00170354 1.52029e-22)
(1.0187 0.0112915 2.17517e-21)
(1.02581 0.020233 -2.89372e-21)
(1.01249 0.00640229 -5.89172e-24)
(1.07652 0.0389693 -2.28139e-21)
(1.00691 0.000105684 -1.83315e-22)
(1.03001 0.0942707 -5.40445e-22)
(1.01926 0.0141479 1.48241e-21)
(0.464986 0.0065026 4.4283e-20)
(0.426813 0.00938504 2.04358e-21)
(0.9486 0.0451242 0)
(0.95178 0.0521367 -4.41003e-21)
(0.667892 -0.0733746 8.06671e-21)
(0.451859 0.00550533 -4.5139e-20)
(0.913351 0.0115813 0)
(1.00702 0.00136722 3.17422e-23)
(1.01225 0.00169215 -5.11245e-22)
(1.02625 0.00826924 5.37701e-21)
(1.02827 0.0181431 -4.07553e-21)
(1.01302 0.00399326 0)
(1.05049 0.0327056 1.43876e-21)
(1.01456 0.00616149 -7.82688e-22)
(0.922325 0.0215281 4.17954e-21)
(1.01904 0.0116837 -3.35226e-21)
(1.09859 0.0651248 -1.70925e-20)
(1.0309 0.0153494 0)
(1.07108 0.0286206 2.29728e-20)
(1.01714 0.0325579 0)
(1.01003 0.00211309 6.4473e-22)
(1.034 0.0377345 1.87278e-21)
(1.031 0.0179889 8.16164e-22)
(1.01588 0.00227168 3.07379e-24)
(1.04482 0.0284366 -8.48193e-21)
(1.01224 -0.00119134 0)
(0.676839 0.0464182 0)
(1.04888 0.0689631 0)
(1.00251 0.0195654 0)
(1.01017 0.00270276 0)
(1.02403 0.000942185 0)
(1.01314 0.00789601 3.70492e-22)
(1.01261 0.00517754 0)
(0.584783 0.183448 0)
(1.00725 0.00150626 4.95786e-23)
(1.08654 0.0304709 0)
(1.01145 0.00474148 2.56166e-22)
(0.929628 -0.126652 0)
(1.01818 0.0112927 5.70566e-22)
(1.01315 0.0061226 1.36635e-21)
(1.08281 0.0483775 8.13598e-22)
(1.01192 -0.013731 0)
(1.00742 0.00161742 -2.71485e-23)
(0.9111 -0.182637 -6.16095e-21)
(0.945619 0.155706 0)
(1.0181 0.0184795 0)
(1.0693 0.0636784 1.07931e-20)
(1.00787 0.00148114 1.97064e-22)
(1.0773 0.0336081 0)
(1.01386 -0.001749 2.61569e-22)
(1.01254 0.00554523 0)
(0.510298 0.0119152 1.97644e-20)
(1.00287 1.31969e-05 5.57279e-22)
(1.03647 0.0149956 0)
(1.07462 0.0649052 1.29768e-20)
(0.496499 0.00995462 -3.79749e-20)
(1.01465 -0.00209365 -2.68751e-22)
(0.866963 0.00057345 0)
(1.09883 0.103566 0)
(1.01499 -0.000417992 0)
(1.01387 0.0104242 -3.82513e-22)
(1.01267 0.00668703 -1.86597e-23)
(1.07162 0.0647751 0)
(1.02317 0.00137562 9.69329e-22)
(1.08262 0.0645806 -1.81354e-20)
(1.02699 0.0107375 9.17164e-23)
(0.553771 0.0347717 0)
(1.01746 0.010936 3.58005e-22)
(0.713383 0.0784443 2.50614e-20)
(1.01131 0.00356863 0)
(1.00994 -0.000870741 -2.20034e-22)
(1.01629 -0.0784693 5.20291e-22)
(1.0092 0.000475415 9.08527e-22)
(1.01483 -0.00130273 -2.64597e-24)
(0.776487 0.0458237 -2.00815e-20)
(1.0224 0.0187682 8.86424e-22)
(1.00909 0.00252021 -7.46782e-22)
(0.892752 0.0704396 -7.51583e-22)
(1.01524 1.59937e-05 0)
(1.01207 0.00133611 5.05724e-22)
(1.05104 0.0660496 -6.03239e-21)
(1.02453 0.0202188 -1.24513e-21)
(0.850573 0.0624481 0)
(1.03416 0.0373387 1.44059e-22)
(1.08418 0.0516642 1.50098e-20)
(1.00975 0.0877494 0)
(1.04703 0.019582 3.86733e-21)
(0.569861 0.0319565 1.00427e-22)
(1.01937 0.0149653 1.91994e-21)
(1.0528 0.0631906 0)
(1.02131 0.00399075 3.88678e-21)
(0.413179 0.0126603 -1.66904e-20)
(0.933989 -0.110863 5.46914e-22)
(1.03516 0.00795781 6.40608e-21)
(1.01351 -0.00176074 2.74042e-22)
(1.01441 0.00196516 1.46992e-21)
(1.02032 0.0131539 0)
(1.01297 -0.00147978 -1.15788e-24)
(1.01066 0.000188772 3.72661e-22)
(1.01104 0.000531808 -1.26369e-21)
(1.02241 0.00625873 8.31573e-21)
(1.04086 0.0337853 0)
(1.00517 5.78339e-05 6.06145e-22)
(1.02257 0.018275 8.88601e-22)
(1.07387 0.0580676 1.42664e-21)
(0.60058 0.164014 0)
(0.775425 0.137564 3.14636e-20)
(1.0736 0.0637181 1.11167e-20)
(1.01333 0.00816964 -1.11378e-22)
(1.00401 -0.0859038 0)
(1.01398 0.00542178 0)
(1.10275 0.0974947 -3.82807e-20)
(0.849682 -0.0047714 0)
(0.205285 0.00166516 0)
(1.00873 -0.000359358 -1.13875e-21)
(1.00718 0.00147337 -3.11785e-23)
(1.01594 0.00111771 -1.63108e-21)
(1.01655 0.00994755 -6.91004e-22)
(1.00853 -0.000359075 1.08049e-21)
(1.01201 -0.000887408 2.97996e-22)
(1.01635 0.00573227 3.9461e-21)
(1.03905 0.0404273 -4.10108e-21)
(1.00923 0.00257651 0)
(0.375702 -0.0249497 -2.44662e-20)
(0.897141 0.0507797 -1.16985e-21)
(1.00943 0.00308617 -2.03168e-22)
(0.735677 0.0437122 1.30001e-20)
(1.02173 0.00410029 -4.59436e-21)
(1.01113 0.0036235 -3.29728e-22)
(1.02016 -0.0108395 -3.88566e-22)
(0.580404 0.0241243 -1.59704e-20)
(1.0351 0.0342856 -1.75727e-21)
(1.00269 -9.19592e-05 -2.12744e-22)
(0.894568 -0.109308 -2.14452e-21)
(1.01092 0.00171143 0)
(1.01109 0.00338177 0)
(1.08054 0.0542502 1.63236e-20)
(1.01252 0.0021196 2.54541e-22)
(1.00763 0.0469506 4.61298e-22)
(1.03727 0.0153508 9.67692e-21)
(1.05963 0.0582392 1.63054e-21)
(1.00896 0.00250413 1.31794e-22)
(1.01148 -8.31222e-05 -4.02714e-22)