/*--------------------------------*- C++ -*----------------------------------*\
| =========                 |                                                 |
| \\      /  F ield         | OpenFOAM: The Open Source CFD Toolbox           |
|  \\    /   O peration     | Version:  v2012                                 |
|   \\  /    A nd           | Website:  www.openfoam.com                      |
|    \\/     M anipulation  |                                                 |
\*---------------------------------------------------------------------------*/
FoamFile
{
    version     2.0;
    format      ascii;
    class       volScalarField;
    location    "100";
    object      ddt0(k);
}
// * * * * * * * * * * * * * * * * * * * * * * * * * * * * * * * * * * * * * //

dimensions      [0 2 -3 0 0 0 0];


internalField   nonuniform List<scalar> 
37190
(
-2.10367e-08
-9.45759e-05
4.27894e-08
3.43406e-08
-0.000257255
2.40415e-08
-1.18529e-07
-1.02338e-07
4.05889e-08
-8.18233e-08
-4.07816e-08
1.73294e-08
-9.68334e-08
-9.07891e-09
0.00479086
1.72594e-08
-5.48126e-08
3.40982e-08
0.00336523
0.000125073
-1.1188e-07
-2.38368e-08
-0.00417227
-4.46282e-08
-4.93319e-08
1.36135e-08
2.34165e-08
1.03181e-07
2.48772e-06
0.000164401
0.00199685
1.27995e-08
1.21881e-06
-2.20721e-06
-1.01842e-06
-1.07737e-07
2.14847e-08
-4.41945e-08
8.6353e-09
8.56267e-08
2.62688e-06
-0.000819668
-3.0972e-08
-1.17345e-06
-4.74581e-09
7.89311e-08
-9.82562e-05
1.36059e-06
4.23894e-08
-0.000198813
3.13519e-08
8.74721e-08
5.71375e-08
-3.20621e-08
7.79651e-09
5.24484e-08
2.76587e-07
2.17788e-08
0.000463287
-2.41796e-09
0.000473885
-8.17823e-08
-7.32612e-09
-0.000132778
-7.68496e-08
-3.84555e-08
-1.00099e-08
1.72532e-07
3.01041e-08
-5.9525e-09
7.47119e-09
1.93673e-08
5.22464e-08
4.00808e-08
8.60627e-08
-7.97886e-08
-0.000154608
1.14976e-07
-0.00057201
1.05138e-07
1.25378e-09
-6.47002e-08
3.94556e-08
2.77851e-08
0.000124479
-5.2702e-08
0.000714326
0.000183431
0.00490342
1.3368e-08
-0.000202241
1.36869e-06
-3.59499e-08
2.51986e-08
-2.43972e-09
-4.26282e-08
-0.000586118
-1.16475e-08
3.3168e-08
0.000862039
-3.41823e-08
-6.22165e-07
-0.000895608
0.00101699
7.03006e-09
-6.69808e-08
-0.000101087
8.34483e-09
-8.5175e-09
0.00585246
0.00333799
0.00317826
-9.01174e-09
3.01334e-08
5.20842e-08
-2.18245e-08
1.04561e-07
1.02652e-08
8.4848e-08
-6.44783e-08
5.7924e-08
0.000315039
-5.22194e-09
1.85447e-08
-2.61918e-08
-0.00369622
2.98005e-08
-2.20826e-08
6.2627e-07
1.74959e-08
-2.38905e-08
-0.000440069
1.16957e-08
-4.8496e-08
-0.000838513
-4.33063e-08
7.60736e-08
2.04752e-07
1.31942e-07
6.44574e-09
8.37455e-09
8.03766e-08
3.32728e-08
-5.1495e-08
-1.172e-08
-8.13588e-08
-0.000169352
-1.02181e-07
3.5323e-07
1.16415e-08
-3.49807e-08
-5.44135e-08
-3.01407e-06
1.7199e-09
0.000490496
-1.18085e-08
-0.000584014
-4.29653e-08
-9.52146e-06
8.32124e-08
1.41432e-07
2.86944e-09
0.000506
-0.000176543
-5.43465e-08
-7.02677e-08
0.007245
-1.00857e-06
-0.00167465
2.02462e-07
-4.32919e-08
-0.000266011
4.27823e-09
1.98141e-08
0.000235036
-4.82868e-08
1.64806e-10
-5.04723e-08
9.77571e-08
-4.43963e-08
-1.10857e-06
1.18555e-08
1.08699e-08
1.96017e-08
0.00125064
5.90561e-09
1.54241e-06
2.25274e-09
-0.0036326
-1.67049e-06
8.75439e-09
8.26437e-08
3.15078e-08
-3.60168e-08
-1.14166e-05
1.00611e-08
8.43746e-08
-2.72922e-09
0.000673259
0.00537399
2.10536e-07
1.21022e-08
-3.54943e-08
5.94407e-09
-1.53602e-05
1.08039e-07
-1.0557e-07
4.61414e-08
5.40506e-08
0.000730665
-4.19677e-08
-0.00137866
1.17643e-08
1.22921e-07
-0.00048614
-0.00258269
3.93167e-07
3.27062e-07
-2.17699e-06
5.66191e-09
0.00045781
1.63297e-08
-9.6707e-09
-3.97253e-08
0.000920176
-1.01195e-08
-0.000508905
6.67655e-09
1.07885e-07
0.000112934
-2.85908e-08
1.20594e-08
-3.12915e-09
0.00083991
-2.47645e-09
-9.06956e-07
3.72493e-08
0.000327396
-3.16839e-09
4.30343e-08
1.46243e-07
5.07113e-09
-2.38369e-05
8.27125e-08
1.82441e-08
-0.00335122
-1.55691e-08
-0.000297321
1.27038e-06
-4.32477e-07
-6.02342e-08
7.54608e-08
8.37593e-09
-7.43978e-08
1.04418e-07
-3.86838e-09
1.02146e-07
7.80011e-09
8.16482e-08
-1.34232e-08
-0.000249085
9.98011e-09
1.22485e-08
0.00247214
7.58268e-08
-7.17525e-09
-8.86705e-09
-2.61882e-08
0.000964267
2.29768e-08
-0.00339311
0.00521046
-2.24401e-06
-3.07403e-08
3.51852e-05
4.42889e-08
-3.36603e-08
-0.000690185
-7.69158e-09
5.87953e-09
2.09328e-06
2.37251e-08
3.94261e-07
2.75329e-06
7.30792e-08
6.37899e-08
1.50412e-09
2.12516e-08
-1.01898e-07
-1.03227e-09
-1.69768e-08
-8.14006e-07
4.14211e-08
2.21816e-08
4.09055e-05
-1.43641e-08
-6.25603e-08
0.0012283
-1.27119e-07
2.32722e-08
-0.000600466
7.97524e-05
-6.57609e-09
-3.86771e-07
3.02995e-08
3.02811e-08
-9.24464e-09
7.95466e-09
4.90373e-06
1.05468e-08
-2.94504e-09
0.000475261
-3.67213e-09
2.59257e-07
0.000321609
-0.000718327
-6.61748e-08
-1.22698e-06
3.42591e-08
3.05445e-08
-9.90112e-09
-3.07734e-08
-1.71637e-06
-6.09808e-08
-0.00130238
-9.85587e-07
-2.0329e-08
0.00064098
-5.6969e-09
-0.000908203
5.35335e-08
-1.20018e-07
-4.43382e-08
0.00561332
-2.96241e-06
-0.000609763
-2.1029e-05
1.41592e-08
9.74963e-08
-0.000103691
-5.76013e-08
-6.46763e-07
4.90346e-08
4.96306e-08
4.28953e-05
-3.53213e-09
1.78817e-07
-2.67334e-09
-6.93858e-10
1.84893e-08
1.42037e-08
-0.000334516
2.71238e-08
3.96677e-08
-7.95287e-08
-0.0022399
-5.09305e-09
0.00189602
1.77357e-07
-9.63726e-08
5.25387e-08
-0.000534236
1.46527e-07
7.79595e-05
-7.63697e-08
-1.44004e-07
8.58757e-09
1.66946e-09
-7.11183e-07
1.27782e-07
-5.6398e-08
4.79031e-08
-8.04717e-08
5.78951e-05
-1.01229e-07
1.32e-06
-4.25469e-07
-1.69335e-06
-2.9747e-07
-0.000553259
0.00211213
8.83294e-07
0.00126189
1.17519e-07
-9.27879e-08
0.000857306
-1.38467e-08
1.07971e-07
-8.88347e-07
-2.87722e-08
-1.65133e-08
1.01897e-06
1.18932e-07
4.67297e-08
-5.76292e-08
-1.17357e-09
4.99051e-05
-9.48169e-08
-1.84337e-09
3.20368e-07
2.17683e-09
-0.000443053
-1.15237e-07
6.19121e-08
-5.94063e-08
-5.65661e-09
-2.88648e-09
-0.000212541
9.78451e-08
2.26299e-09
-6.13182e-08
-5.49235e-05
-0.0006502
6.10567e-09
-3.77841e-08
1.78296e-09
-1.34556e-07
-2.43773e-08
2.37684e-08
1.93347e-09
-0.000460589
9.16092e-07
0.000795502
-1.96892e-08
2.38745e-08
3.25828e-07
0.00101239
-9.18645e-12
-1.16574e-07
4.23818e-08
1.30214e-06
1.36715e-09
-1.16422e-07
4.33673e-08
2.91938e-08
-0.00290359
-8.62426e-09
3.72308e-07
-6.54375e-08
-1.8253e-08
-1.26523e-08
1.92266e-08
-0.000130895
-5.22037e-08
-4.87068e-08
0.000568052
0.00167244
-3.2445e-09
-0.00134745
-7.04304e-08
-1.02018e-07
-7.57404e-07
-1.93941e-08
-0.000117825
-1.61662e-08
0.00152679
3.02663e-08
-2.33497e-10
1.20676e-07
1.70625e-08
-0.000107055
-5.09218e-08
6.96082e-09
0.000258451
1.66479e-07
-5.6604e-09
2.09182e-07
-0.00159182
-9.54105e-08
9.42416e-10
-1.20766e-07
0.00104494
0.000897508
-7.22023e-07
0.00866939
-0.00140071
5.4546e-08
0.0001128
3.36293e-08
2.17974e-08
2.84706e-08
-2.34833e-08
-0.000360081
0.000201908
-2.9229e-08
-6.03292e-09
4.24466e-06
-9.74465e-09
0.000134926
1.18816e-07
6.41655e-09
-8.50436e-08
-2.0634e-08
1.76202e-06
-6.11816e-07
-3.22091e-08
-5.15949e-08
-3.43774e-08
-1.74837e-06
0.000518675
-1.11341e-07
-1.63025e-10
-2.45959e-08
0.00880271
1.18488e-07
-0.000759903
0.0031725
-1.79348e-05
0.00268752
2.76955e-08
0.000590469
-1.51832e-10
0.00583327
3.17752e-08
1.54584e-06
-0.00154001
-5.29998e-08
4.02794e-08
9.91966e-10
-0.000663629
1.22646e-07
-9.72886e-07
-0.00028312
0.00356648
2.28829e-08
1.21971e-07
5.75204e-08
-5.70763e-08
2.34382e-06
-2.59077e-10
7.3056e-08
-1.04613e-08
0.00918628
-3.3041e-08
-1.77312e-09
0.00100918
1.18586e-08
8.64059e-09
8.18025e-08
-4.17492e-08
-1.80983e-10
-1.44612e-09
8.20866e-09
-8.26573e-08
0.000200105
1.80155e-09
-3.91763e-08
-2.01678e-07
-2.45577e-08
1.20227e-08
-1.06886e-09
-4.39498e-08
-6.57857e-08
-0.000356037
-8.50662e-07
-4.11526e-08
-4.31208e-09
2.88302e-06
0.00554073
-5.96608e-09
2.15473e-08
0.000226254
0.000829515
0.00219371
-0.000304287
-7.61346e-08
1.11606e-07
-1.41252e-08
0.000250278
-0.00113758
-3.17273e-08
-1.09289e-07
-3.44406e-05
-1.62683e-07
-3.61713e-08
4.38729e-07
-0.000348709
0.00229839
-6.20233e-08
-1.99754e-07
-1.62699e-07
6.99553e-08
5.05084e-09
4.81903e-08
-4.76616e-05
0.00943899
1.75326e-09
-0.000412593
0.00612563
-2.29786e-09
6.90046e-10
-2.63315e-08
-6.61769e-07
2.57858e-08
2.30777e-09
2.2797e-06
0.00135376
1.51116e-08
5.56508e-06
-2.62844e-08
-3.76162e-08
-3.39709e-08
-8.46131e-08
1.22052e-07
-4.82877e-07
-1.16852e-08
-1.2087e-07
4.37263e-09
-0.000483146
1.2131e-07
1.53083e-08
8.72028e-07
-8.10746e-09
0.000459196
1.89824e-05
-1.98737e-09
-0.000112708
2.35225e-08
-5.2693e-08
-4.14475e-08
-2.79414e-09
1.90057e-07
1.21737e-07
1.59948e-08
-8.67721e-08
4.11475e-08
4.41014e-07
0.00651001
-1.355e-08
2.27559e-08
0.00352494
-1.6907e-09
2.40212e-08
8.63944e-08
-2.54536e-08
-2.96081e-08
2.04752e-07
-1.04946e-07
3.18481e-08
-1.19651e-08
0.00176734
0.000341515
-6.34781e-07
0.00042627
-4.24458e-09
-1.69161e-06
3.58575e-08
-1.72489e-08
0.00314843
-2.84869e-06
7.34445e-08
-1.54115e-08
-2.92665e-06
-4.94398e-08
0.00273659
-1.12837e-07
-5.27891e-08
0.000273354
-6.81492e-08
2.72651e-05
4.32899e-08
-1.80926e-08
1.21639e-07
7.6993e-08
7.69132e-08
-3.39019e-09
-3.59846e-09
-8.91352e-08
-1.24287e-08
-7.91374e-07
2.93122e-08
4.2951e-08
2.06964e-07
-0.000764246
1.50203e-08
1.40818e-09
0.000791504
8.47108e-08
-4.21415e-08
-4.07116e-07
1.02324e-07
0.000222083
2.57933e-08
1.15311e-08
0.000438639
-8.92032e-07
3.07211e-05
-4.94139e-08
1.68862e-08
-4.94645e-07
-2.54963e-08
-2.01788e-06
1.17134e-08
2.54309e-06
8.50467e-08
2.64502e-05
3.53353e-08
1.16269e-07
1.75524e-06
1.84068e-08
1.66683e-08
1.95419e-08
7.73632e-08
8.03051e-06
7.03931e-08
4.79476e-05
-9.44475e-09
0.00615751
2.92824e-08
-7.23683e-09
2.34763e-06
-8.36418e-09
-0.000250554
-4.35249e-08
-5.91435e-08
5.9924e-11
-1.01874e-11
-2.73394e-06
2.82687e-08
-0.00227685
-0.000544178
5.24444e-05
0.000156035
7.93744e-07
8.99844e-10
4.94308e-09
0.000251324
0.00157053
2.1739e-08
5.26833e-06
0.0003869
1.53315e-06
9.49216e-08
-1.73303e-08
0.00745017
-3.40051e-08
4.86927e-08
0.000442865
7.1436e-08
-1.53174e-07
0.00700387
-3.90318e-08
-4.3224e-09
2.63868e-08
0.00835242
-3.78267e-05
2.01955e-08
4.08337e-07
-0.000363523
8.41599e-09
3.13742e-05
-1.22004e-07
-0.000805882
6.87424e-08
-3.53587e-07
-1.20735e-07
-2.1095e-06
1.21691e-07
2.83215e-08
-0.000621243
-1.11379e-06
-1.52312e-08
1.44266e-08
1.30275e-07
1.1621e-08
-1.41404e-07
-9.95969e-09
8.60428e-08
-1.15346e-07
4.58801e-08
9.56027e-08
4.25435e-07
-1.27001e-07
-3.52503e-08
1.71901e-07
-1.0824e-07
-0.00410735
0.00037508
3.84198e-08
3.19148e-08
4.8623e-08
5.41806e-09
-0.00051171
0.0028646
-3.42759e-07
1.60342e-08
-7.39542e-09
8.16721e-08
-7.82262e-08
-0.00043798
1.40089e-09
8.72035e-08
6.6946e-08
-1.10938e-08
-5.53557e-08
-2.87012e-08
8.81415e-09
-2.73448e-08
4.89594e-08
5.33442e-08
-1.63255e-08
-4.13429e-12
2.61567e-08
-0.00155823
0.00181222
3.10925e-09
1.49237e-08
2.93134e-08
8.17829e-08
6.73677e-08
-0.00166691
1.36253e-06
-7.92085e-08
7.06715e-09
-2.38439e-08
0.00692212
1.89485e-09
1.44625e-08
-1.28736e-08
-4.73259e-09
5.81514e-08
3.01851e-09
8.50897e-08
4.41954e-07
-3.8524e-08
-0.000145943
0.000531507
-3.03119e-08
1.06553e-07
-6.10623e-08
-0.000718632
8.95363e-08
0.000120952
-1.95976e-07
0.00223066
2.42852e-08
-1.74509e-08
1.14332e-07
1.2869e-05
-8.37475e-08
-1.64007e-08
-4.42646e-05
-4.40177e-10
-1.32961e-08
-1.29164e-07
-3.55442e-08
9.74307e-08
3.93216e-08
1.01591e-08
-1.38031e-07
3.25409e-08
0.00777924
-1.20317e-08
-1.10475e-06
-1.72729e-08
-0.0024299
-2.79909e-08
3.05805e-08
0.00535388
5.30988e-08
-0.000400941
-0.000851089
-1.00262e-08
-2.71432e-09
0.000267267
-3.22066e-08
-2.05396e-08
-5.71004e-05
-1.2933e-08
0.000647664
-1.42149e-08
0.00580047
1.31405e-08
-1.38652e-06
-1.48577e-05
-3.42164e-11
-5.66847e-10
5.3506e-08
6.71746e-08
2.93642e-08
9.29136e-08
7.40243e-08
-2.5864e-08
-4.9041e-08
-0.0052787
-2.49777e-08
2.91762e-09
9.50109e-08
-7.89799e-09
-3.3739e-09
-5.30502e-08
-0.000659782
6.01954e-08
7.52389e-09
4.96442e-08
-4.37133e-08
-3.77804e-08
0.000523284
5.25129e-09
-1.15399e-07
3.8375e-08
6.20207e-09
-2.44283e-08
-1.87427e-08
5.4203e-09
4.29603e-08
0.000135156
-1.35344e-08
1.76027e-08
-7.74421e-08
-9.40339e-09
-0.00052972
-1.27285e-08
0.009982
-3.37848e-09
1.02645e-07
8.68974e-08
2.1033e-09
-9.09543e-07
2.35992e-08
6.51041e-09
-4.08708e-08
-5.65376e-09
4.82992e-05
4.97971e-08
-1.125e-07
-1.19401e-09
0.00012958
1.18548e-08
-0.00221608
2.56518e-08
-1.16208e-07
4.80441e-08
1.91932e-07
-4.24821e-08
0.000871477
-3.19359e-08
-1.02822e-07
-8.65804e-08
6.62005e-09
-1.80309e-06
-2.80893e-07
2.99806e-08
9.70142e-08
1.03349e-07
4.61021e-06
8.9538e-08
-0.00236572
-8.95096e-05
1.87826e-07
-9.40792e-08
-9.52937e-08
-1.63295e-09
0.000893719
-6.73731e-09
7.5063e-08
6.89704e-08
-1.17684e-07
-7.85504e-05
-1.60874e-09
-9.89989e-08
-4.32764e-08
8.23692e-08
2.24711e-05
-0.000196339
-4.99407e-08
-0.000401917
1.22238e-07
2.00909e-09
6.27905e-07
-3.0313e-08
-0.00069182
-3.02462e-10
9.1931e-05
-1.14346e-07
2.07611e-08
-0.00418449
4.32172e-08
1.40226e-07
-3.46834e-07
-0.0024163
-2.39366e-08
1.64862e-06
-4.41486e-08
0.00220972
3.16809e-06
-2.93301e-08
-7.08494e-08
-7.26707e-09
0.00650111
1.87163e-07
1.0728e-07
-2.34111e-08
-0.000189876
-4.88539e-09
-1.07309e-06
8.24516e-09
-3.56215e-08
-1.01501e-07
5.43096e-08
3.09376e-09
-8.77876e-07
0.000439149
6.95335e-09
3.72991e-08
2.65584e-09
0.00185235
-1.11616e-09
-4.362e-08
6.22954e-08
-1.56456e-06
-2.29568e-08
0.00233218
1.1425e-07
0.00283005
-4.0448e-10
-5.74012e-09
1.00936e-07
-1.28765e-08
-0.000330431
1.95196e-09
-5.96381e-08
8.93513e-08
0.000414611
-0.000223734
1.09291e-08
4.57327e-07
-2.34404e-09
4.41808e-08
-5.54459e-08
-5.35368e-05
6.01081e-08
-7.66657e-09
0.000186597
0.000273748
-3.43462e-07
-2.06688e-09
-9.78911e-07
9.17871e-08
1.37356e-09
-2.90959e-08
-1.00393e-07
-2.55889e-07
0.000247294
-5.53311e-09
-1.8702e-08
-9.70899e-08
-9.89349e-07
1.17502e-07
0.000833689
-0.000621508
0.00513643
1.15373e-07
-1.09783e-08
0.00310532
4.18579e-07
-4.48757e-10
7.05557e-08
2.9819e-08
7.64199e-08
-1.57964e-08
6.48051e-09
-6.2179e-05
-2.81665e-08
-8.24723e-08
-4.08335e-08
-0.00088165
1.48453e-05
1.6176e-06
-0.000890611
0.000671926
7.33609e-08
0.00032509
-3.45392e-08
0.000217065
5.90968e-09
8.68407e-08
0.00044859
-0.000389658
-0.00855042
5.99298e-09
7.17029e-09
0.000476567
0.00342471
-5.3965e-10
5.5053e-08
-6.5468e-08
-7.63855e-08
1.16819e-07
-0.000115855
-0.00144003
-6.34082e-08
-2.54673e-08
-1.48566e-08
1.1488e-07
0.000163378
-6.11069e-09
0.000407184
-3.40619e-08
-3.3714e-07
-1.05254e-06
1.81999e-08
0.000908946
0.000274731
1.0944e-08
8.92874e-08
6.2338e-09
1.32948e-09
0.00103048
2.74266e-08
1.50479e-08
0.000731219
-3.05856e-09
-6.69776e-08
9.03318e-08
-0.000370958
7.11829e-08
1.10751e-07
0.0019663
8.21325e-09
1.12467e-08
0.000159009
-3.07085e-08
-1.29509e-08
-2.49634e-08
-2.22208e-07
-0.000482685
-4.83792e-10
-8.76304e-09
2.81793e-08
3.7009e-07
4.79286e-05
2.30899e-09
0.000743289
1.71503e-09
1.07904e-07
3.3871e-06
7.5885e-08
-1.76688e-07
-3.47222e-08
2.67279e-07
-1.88796e-07
0.000642046
1.05175e-08
7.44814e-08
1.27489e-09
-5.55628e-08
-8.27724e-08
-1.92278e-08
-8.61712e-08
1.6487e-06
-1.64545e-06
-5.50732e-08
-7.24266e-07
-3.92553e-10
-2.3172e-06
1.35295e-08
0.00182171
-0.000446075
-2.37866e-08
1.31131e-08
-1.64829e-08
8.20365e-08
-9.60055e-09
5.1277e-08
2.11768e-09
0.000431077
3.6851e-05
-0.00380729
7.18317e-08
-1.71262e-05
1.43734e-06
-1.1924e-08
-0.00856476
3.65463e-07
-1.07754e-08
-1.45482e-06
2.23522e-09
0.000101507
1.07797e-07
-8.20057e-08
0.00016253
-3.18686e-08
8.02773e-08
3.09508e-08
1.48064e-08
-9.73475e-09
0.00118361
-1.80404e-07
-3.92654e-09
-1.51228e-08
-5.90805e-08
0.000322358
8.91415e-09
1.0975e-08
1.93359e-09
-3.84619e-09
-1.49036e-06
-1.15096e-08
-1.02796e-08
-0.000132917
8.82591e-08
-1.44444e-08
-0.00292523
-0.000654894
0.0216733
-0.00058453
-4.35885e-08
0.000260547
2.94066e-08
-7.63359e-09
9.90826e-05
8.9591e-07
1.78699e-07
2.40756e-08
-3.44548e-09
1.8099e-07
2.29216e-05
-0.00467015
4.85865e-10
8.61717e-09
-2.60527e-08
-3.09571e-08
-1.18157e-06
7.10295e-09
-2.97767e-08
5.3764e-10
8.35561e-08
1.96198e-08
-4.29252e-06
-4.16522e-08
-2.24224e-05
-9.26797e-07
2.10822e-08
-5.31504e-08
-4.42484e-08
-7.46665e-09
-7.70617e-08
-4.47668e-08
-1.32566e-08
8.74013e-07
-1.89694e-06
-3.05788e-09
2.3656e-08
-0.000116261
-1.07673e-07
0.000241677
7.36054e-08
-2.50129e-09
-9.77112e-09
2.1684e-07
-2.77637e-08
7.03909e-08
0.000400997
-1.82207e-09
4.09847e-08
0.0050032
-6.71892e-06
1.92918e-09
1.74716e-08
1.07142e-08
-1.20455e-08
-5.18933e-08
0.00929553
0.000859986
3.09842e-09
4.66606e-05
1.64181e-06
-1.89594e-07
-4.23259e-08
1.05682e-07
8.00028e-08
-1.10717e-05
8.40675e-08
4.32284e-07
3.59283e-08
-9.49814e-08
-2.88038e-08
-1.85444e-05
-9.78453e-09
8.44072e-09
-1.57853e-07
4.63775e-11
-0.0015015
2.33888e-08
2.80159e-09
0.000261383
-9.00198e-08
7.6125e-09
-1.58229e-06
1.22963e-07
-8.12302e-07
1.76961e-09
1.3192e-09
6.91355e-08
-3.98584e-08
1.11622e-06
-1.08247e-08
1.08982e-08
8.33266e-08
1.19521e-08
-2.07188e-09
-3.66722e-10
2.04958e-08
-1.74494e-06
0.000204417
7.29941e-09
-1.27847e-07
-2.88347e-09
1.09667e-07
0.00329999
9.92607e-09
1.04231e-07
0.0075418
7.75889e-08
3.06381e-08
-9.43146e-08
-5.05774e-09
-3.73131e-08
8.61023e-05
1.89067e-05
-3.22952e-09
7.30919e-09
1.17202e-08
-8.85357e-07
-0.000377016
0.000420073
-9.4708e-07
6.66328e-08
-4.3209e-08
1.20544e-07
0.000472316
1.20929e-07
-8.97155e-09
1.19734e-07
1.28265e-08
0.00962659
6.95077e-08
-3.74257e-08
1.65035e-08
-5.64104e-09
-0.000118856
5.36432e-05
8.32706e-08
-7.7154e-08
1.06949e-07
-8.0022e-09
-0.000777188
-2.52302e-09
-3.03727e-08
-5.05271e-10
-0.00069293
0.00516035
2.10707e-09
-4.78832e-06
1.07509e-08
-3.99128e-05
1.1506e-07
0.000468932
-1.26425e-08
0.00179104
1.04676e-07
-6.34451e-08
-6.50846e-11
8.22435e-07
-6.27309e-06
1.17619e-07
-2.83332e-07
-6.48558e-09
0.00849474
0.00373758
-0.000745391
3.19443e-07
9.79361e-08
-1.9964e-09
-3.89763e-08
0.000271019
-2.69709e-08
8.00249e-09
-7.2284e-07
-2.57905e-08
7.10522e-08
1.27977e-06
-6.82095e-08
-1.74892e-08
-8.79273e-08
2.90768e-08
-8.67949e-05
-1.35394e-08
0.00475269
-7.68023e-09
0.00933316
1.84261e-08
-3.89127e-06
0.000957719
-8.99387e-08
-0.000546362
1.36878e-08
-3.66358e-08
0.00104122
-2.20691e-09
-3.53075e-09
-4.6631e-08
-1.29645e-08
2.1657e-08
-4.12054e-08
0.00044688
-3.88501e-10
0.00946887
6.77953e-08
-3.75491e-09
8.31371e-09
0.000529059
-1.08694e-08
0.0094244
-8.87228e-08
8.50702e-08
1.13086e-07
-5.79633e-08
3.2038e-08
1.58302e-05
-0.000886423
3.06255e-08
1.16796e-08
6.88992e-09
0.000917742
5.20535e-08
2.19679e-07
-2.03326e-08
1.82847e-09
2.89054e-06
1.00117e-07
-4.32892e-09
0.000438763
0.00307842
1.13453e-07
1.23482e-08
-0.00485958
-1.41685e-07
1.05637e-09
-1.45491e-08
-1.44126e-08
-3.29305e-08
-5.06066e-08
-2.83126e-06
-2.98867e-09
-1.63475e-08
1.74927e-08
1.44157e-08
-8.27822e-09
-2.98614e-07
-1.48353e-11
0.000599323
0.000169688
0.00711777
2.32933e-07
0.000559498
1.11249e-07
-8.93088e-07
-2.75583e-08
2.94119e-08
5.85503e-09
5.04329e-05
7.65171e-08
-1.72843e-06
-1.44969e-08
1.06102e-07
-7.96478e-08
-1.55889e-06
-0.000681853
1.19071e-07
6.49453e-09
1.6239e-08
7.76859e-08
8.97873e-08
2.10755e-09
5.02851e-08
0.00193542
-3.33167e-08
0.000575124
-3.44742e-08
-9.65669e-08
1.07785e-08
-0.00108
7.51329e-09
5.15672e-08
5.61821e-06
-1.22077e-07
-2.43642e-07
3.49909e-08
-8.99793e-09
1.49879e-08
-3.06112e-08
1.30634e-06
0.000430293
-3.06162e-08
5.58175e-09
1.39912e-08
3.55384e-09
-1.1382e-07
0.00555875
-2.39239e-09
0.00855993
0.00112629
8.67735e-08
7.04697e-08
-5.98462e-08
-2.55509e-06
-9.68053e-07
1.10594e-08
8.79356e-08
-4.89685e-06
8.44257e-08
-4.92857e-09
-2.1174e-07
-5.61525e-08
-2.30155e-07
6.12703e-09
-6.10424e-08
-6.59332e-08
-1.66091e-08
5.38747e-08
0.00928252
0.000377649
-2.54957e-06
-4.73368e-08
-6.57696e-08
8.61817e-09
3.50859e-08
0.000707539
-5.28705e-08
1.71515e-09
0.000563287
1.06424e-08
2.48899e-07
-4.95036e-06
0.000520741
0.00287634
7.28969e-07
0.000807133
5.54883e-07
-4.63699e-06
-0.000141557
-5.26656e-09
-0.000419044
-0.000129437
-1.87602e-08
-2.64645e-08
0.000814137
8.19497e-09
5.86492e-08
-4.64423e-08
5.75407e-09
2.77877e-08
-4.74802e-06
1.65613e-06
-5.99853e-08
-3.49356e-08
-0.000183356
4.72078e-09
-0.000391875
-0.000690875
6.37129e-08
-9.42483e-08
8.6977e-08
-4.96902e-08
-4.40983e-08
-7.16363e-08
1.19653e-07
8.48997e-08
6.1572e-07
9.00532e-07
2.96424e-08
0.000672289
-9.14817e-08
-2.34132e-06
5.47587e-08
-1.29341e-08
-2.02697e-10
-2.00181e-06
6.37744e-08
-1.59134e-08
0.00632984
-1.69369e-08
0.00171032
1.14833e-07
1.02772e-07
-3.40492e-05
-4.25724e-08
1.38058e-07
-1.69183e-08
6.4204e-09
1.1427e-08
6.14157e-09
6.65126e-08
3.51781e-08
-2.53403e-08
-0.000101625
8.08991e-08
7.58767e-08
-9.49487e-08
5.73946e-09
1.17549e-10
-5.97827e-08
-1.001e-07
0.00158086
-1.09948e-07
-2.67453e-08
1.93107e-09
1.18979e-07
-0.000214169
1.40563e-06
0.000761108
4.32488e-09
-1.15471e-07
-2.99971e-09
-8.83428e-08
-3.37087e-09
1.70317e-08
1.38547e-08
-1.99898e-08
0.000887425
9.72745e-07
7.43787e-08
2.14778e-08
-0.000391675
0.00210749
-3.08612e-10
-9.07766e-09
-0.00013418
2.57257e-09
-1.7053e-08
2.74581e-08
-1.58544e-07
4.68132e-08
-1.25979e-08
9.25992e-09
7.62004e-08
4.27206e-08
3.00964e-09
9.95161e-08
5.71748e-08
-2.99953e-08
1.13667e-08
3.95531e-08
-2.99429e-09
2.98611e-07
1.54996e-07
1.82111e-08
0.00250366
-3.16009e-08
1.11842e-08
-4.67519e-09
9.60714e-08
3.51169e-09
-1.77739e-08
4.5537e-09
1.37888e-08
9.52009e-07
0.00128093
2.04344e-09
-5.70714e-09
-1.97998e-05
-0.000682951
2.82617e-07
0.00621427
-1.69747e-06
2.74084e-08
3.06123e-08
0.00103475
-1.24498e-08
3.01814e-06
-3.36252e-08
-0.000650032
1.43313e-06
9.777e-08
4.36828e-09
4.04284e-07
0.0002347
1.58628e-07
5.69616e-07
2.85251e-07
3.2872e-08
1.07057e-08
8.66287e-08
-4.90332e-05
0.00329066
0.000951827
2.95117e-08
2.09664e-09
0.00213734
4.11111e-07
-1.76467e-07
6.95221e-08
0.00302114
5.52187e-08
-3.42693e-08
-5.71516e-08
0.000525465
-1.31032e-07
0.000291801
-9.98441e-08
-8.07399e-07
1.14267e-08
4.94846e-08
-3.54239e-08
1.09751e-08
7.94794e-06
-1.03398e-07
4.13103e-09
1.3249e-07
0.00629105
-9.01786e-08
-4.05644e-08
0.000155992
-0.00292543
0.00548907
-0.00130957
0.00185017
-2.17843e-06
7.72499e-09
1.06359e-07
0.00155214
0.000235091
1.07763e-08
-8.58723e-08
-3.29866e-08
1.19753e-07
-7.02508e-09
1.09318e-08
-1.53982e-08
-1.87999e-07
-1.49476e-08
-0.000650107
-0.00321386
-5.08831e-08
-7.35257e-09
-5.78032e-07
-1.58098e-08
3.78021e-08
0.000666516
8.29816e-08
2.8867e-07
1.42789e-07
-1.92464e-06
1.15147e-07
1.29213e-07
7.92575e-08
3.3418e-08
1.37451e-07
1.98574e-07
-0.00396617
-2.23447e-09
-5.006e-05
1.03223e-09
-4.59683e-08
-4.11038e-08
2.57041e-07
6.00808e-08
0.0012534
1.21137e-08
-7.44027e-08
6.28688e-08
-1.47419e-06
-6.87885e-08
1.12791e-07
2.84709e-08
0.00160554
-3.85936e-09
1.80967e-08
0.00245901
0.00105271
8.81043e-08
-0.00053517
-0.000832841
0.000704599
0.000667109
0.00130662
-0.0013375
4.13e-09
-8.01736e-08
1.92674e-09
3.61157e-08
-0.000131263
1.12342e-07
1.26198e-07
0.000112448
-6.66269e-09
-9.02424e-08
-4.33712e-07
0.000298194
1.61813e-07
1.8651e-08
-2.68085e-10
-1.18823e-08
-9.17747e-08
-1.22976e-06
-2.18404e-09
-6.54883e-07
-6.97263e-08
1.10725e-08
-9.10831e-08
0.000293922
-1.74962e-06
1.17832e-08
-2.47225e-08
6.4611e-08
8.22322e-07
2.03429e-07
-7.22389e-08
1.1822e-08
6.1206e-07
7.22875e-09
-4.69077e-08
1.17136e-07
8.27562e-07
-2.25371e-08
1.52672e-07
8.61362e-09
1.03758e-08
-1.18109e-07
-2.14505e-08
6.78236e-07
-5.78664e-07
-5.24416e-09
-2.5755e-08
1.83216e-07
0.000127252
0.00253982
-9.64952e-09
1.07213e-07
-8.26626e-09
0.00725052
1.18192e-08
-3.47128e-08
-9.26201e-08
-1.27996e-06
-0.000602985
-5.21047e-08
-5.4306e-09
4.17266e-09
-0.000593557
4.05303e-07
-2.12671e-09
-7.05294e-05
-1.7792e-08
-3.41668e-08
-4.7378e-09
9.59979e-05
-1.81016e-08
2.94615e-06
0.00442744
-2.93548e-08
-1.04879e-08
-9.29369e-05
9.45004e-09
-5.39809e-09
8.98479e-09
-2.97292e-05
6.29494e-10
7.76725e-09
3.76782e-07
3.32085e-08
3.51249e-08
1.22605e-07
6.49695e-08
3.90713e-08
0.000433206
1.17379e-07
1.10303e-06
-1.83734e-07
-1.78922e-08
-3.62068e-09
0.00286335
-2.93131e-07
-3.67414e-07
7.21257e-05
2.73355e-08
-1.00052e-07
1.10105e-07
1.12656e-07
8.01534e-08
0.00237361
-2.46221e-06
1.19223e-07
-0.00042919
-0.000941389
2.47611e-08
-2.00843e-06
-6.72437e-09
-0.000507275
-3.16298e-08
-4.52066e-09
-4.14609e-09
-1.03399e-08
6.42578e-11
7.76833e-07
5.81435e-07
2.02624e-09
5.6566e-09
-1.21162e-08
-4.65867e-07
1.64525e-07
8.62418e-08
-1.06604e-07
0.00020134
1.43995e-08
0.00962105
4.27077e-08
2.1231e-10
2.95898e-10
-2.44724e-05
-7.84608e-08
-1.01431e-07
-1.67895e-08
-3.35769e-07
3.63108e-08
1.11579e-07
0.00496795
-1.81813e-08
2.10401e-06
0.000450713
-8.80065e-05
-0.000668589
0.000409744
-5.72211e-08
1.52754e-06
6.89116e-08
0.000179294
-8.89983e-09
-2.93565e-08
-2.53776e-08
1.48214e-08
0.000710029
6.34021e-08
1.49847e-07
-1.23408e-08
1.52662e-07
-8.15667e-08
-1.48819e-08
9.27193e-09
3.87325e-08
-2.17837e-08
1.74265e-08
-4.92433e-08
0.000877142
-8.31059e-08
4.15503e-08
7.17592e-09
-5.48796e-08
6.72864e-08
2.45782e-09
5.78334e-09
6.84665e-07
0.000287644
0.00104489
-9.96656e-05
-0.00490742
-7.3388e-07
-5.7392e-08
1.69382e-08
9.90746e-09
0.000286875
-3.96134e-07
4.82217e-05
-6.54811e-08
-6.81241e-09
4.47156e-08
-1.74253e-09
0.00486109
0.00040658
0.000846641
4.63192e-09
-2.75749e-09
8.33235e-10
6.71473e-09
-5.41542e-05
-6.20362e-08
-2.67869e-09
6.71267e-08
0.00784252
3.74164e-08
-6.36695e-08
-2.64547e-08
-0.000527147
1.32735e-08
5.30937e-08
-0.000297222
0.000559781
8.54724e-07
0.000805943
0.000220806
-0.000113297
6.971e-08
-0.000589254
6.81195e-09
-1.64874e-08
6.18674e-07
-0.000122205
2.05236e-06
-0.000648461
5.83585e-09
5.22274e-08
-5.3421e-09
4.4959e-07
0.000344742
-1.44853e-08
-0.000682744
-2.99354e-08
-0.000579489
-0.00405269
-8.3042e-09
-4.53467e-07
-8.99899e-08
9.32869e-09
9.90999e-08
-2.82488e-09
-0.00215287
-0.000324211
-2.59003e-09
6.79692e-08
-4.77704e-05
-3.27425e-09
7.99378e-08
0.000698329
-2.01195e-06
7.88414e-09
8.82859e-08
5.83768e-08
-2.48296e-10
0.00119299
4.58366e-08
1.63578e-08
7.92694e-09
-0.000251953
-3.30361e-08
7.29985e-09
-0.00188382
1.08463e-08
5.241e-07
2.10884e-05
-1.68694e-08
-4.27685e-08
3.23254e-08
-0.000381682
-1.01208e-08
1.0897e-07
0.000147449
-1.94381e-07
9.04681e-09
1.37832e-06
2.10255e-07
-2.09802e-05
-0.000656089
1.2081e-07
0.00433507
-1.32268e-08
-4.97876e-08
3.08854e-09
-1.69755e-08
-1.64954e-08
-1.08989e-08
-2.1792e-06
-3.32941e-09
1.88418e-08
-1.82536e-08
-2.70432e-06
4.71193e-05
4.9238e-09
-4.81324e-09
-0.000427508
5.05149e-05
1.33744e-07
6.52734e-09
9.87718e-08
-1.95222e-08
-2.62001e-08
7.87831e-08
0.000443944
-7.25717e-08
3.93865e-09
0.00159824
0.000796591
5.74783e-08
8.22412e-09
0.000543409
2.42486e-08
7.33309e-09
-0.000609652
-0.000706131
6.48465e-09
-3.44989e-08
9.16439e-06
-0.00106578
-3.02257e-06
-5.85759e-08
-2.3855e-06
0.0066349
-4.344e-08
2.77919e-08
6.91153e-08
-2.34959e-09
-0.000654264
3.96947e-09
-5.46331e-08
0.000626981
-0.000238111
1.14158e-08
1.54308e-08
-0.000378246
-0.000601216
-5.70434e-08
-3.31572e-08
5.96367e-08
4.29096e-09
2.8049e-08
5.43734e-08
0.000223242
-9.32921e-08
-1.57054e-07
-3.27339e-05
-4.1401e-08
-2.37974e-09
1.53086e-08
-7.51029e-09
0.000306998
0.00639172
8.67913e-08
3.1096e-07
-8.65022e-08
-0.000670808
4.13287e-07
-5.8379e-08
1.48783e-08
8.34854e-09
-1.9674e-06
0.00127489
2.98926e-09
-3.87629e-08
-1.81276e-09
-6.15089e-09
0.000317899
4.35335e-07
-4.51124e-08
-3.49732e-08
1.0612e-08
0.00069514
2.79306e-06
-8.26431e-08
-1.43795e-08
2.93383e-08
0.000519258
-4.28092e-08
1.35146e-07
8.51603e-05
2.08075e-08
-3.60047e-08
8.98056e-08
-1.81157e-07
2.63054e-09
-4.64631e-08
-3.13745e-05
1.59812e-06
0.000466874
-4.31248e-07
-4.88178e-09
-5.4973e-05
-1.13822e-07
-1.06994e-06
5.24725e-09
-4.48404e-08
3.82248e-08
4.32759e-09
-6.00271e-08
0.00102827
1.76861e-08
7.65992e-09
0.0199321
-1.51576e-07
-1.69191e-06
-1.46408e-08
-5.88482e-08
0.000658782
-1.34401e-06
-8.09919e-07
-5.18651e-08
1.36912e-06
8.65189e-07
-1.58827e-06
1.25969e-07
-9.17575e-05
0.000171209
-0.0033294
1.85971e-09
5.41711e-09
-3.59666e-08
2.65955e-08
-1.53687e-06
-2.66292e-09
-5.57751e-08
-0.000735762
2.6342e-05
-1.1471e-09
0.000144259
-1.5081e-08
-6.48316e-08
9.22494e-08
4.07049e-09
3.04388e-09
4.26639e-07
-7.58508e-08
-4.94938e-07
-9.66083e-09
1.02231e-08
-0.000500729
0.00457243
2.91108e-09
-5.44621e-08
9.26889e-09
5.93519e-09
5.61331e-08
-0.000378813
2.27308e-08
-1.39797e-08
-5.24261e-08
-2.89308e-05
-0.000676417
3.11085e-08
-0.000561117
1.32248e-07
0.000882435
-2.74807e-08
1.03821e-08
-2.04788e-08
-1.76149e-08
6.84038e-08
1.26699e-07
-1.31503e-08
6.68631e-09
1.01841e-07
0.00297119
-3.63957e-07
-9.90145e-09
-5.09103e-09
8.20954e-08
3.76655e-09
-0.000615267
-0.000544393
-4.45811e-08
5.12055e-05
-1.45745e-06
8.2559e-08
9.8437e-09
1.80274e-08
1.95045e-08
-7.6172e-08
-1.16731e-07
-8.75351e-09
7.04929e-08
-8.22483e-09
-1.26733e-08
-4.8397e-08
-0.00319923
3.29216e-08
-6.55914e-08
-0.000735845
-2.1042e-06
-1.66288e-07
3.75643e-08
-0.00460522
9.03705e-09
-4.25877e-06
0.0006263
0.00151633
7.82713e-08
1.10374e-07
-2.71146e-08
-1.04946e-07
0.00010729
0.000278971
0.000523163
5.55248e-08
-7.68933e-09
-1.28316e-07
-2.58402e-08
1.68751e-08
-0.00582514
4.13284e-08
-3.24671e-08
5.14508e-10
-8.39162e-08
4.8185e-08
-4.36404e-06
2.03679e-08
9.76921e-08
0.00554897
9.9474e-09
-1.16929e-07
-1.81736e-07
-6.93942e-09
6.92296e-05
3.00967e-08
-1.04774e-07
-2.26373e-09
3.53104e-08
-8.71193e-09
-3.88574e-09
0.00109406
-0.00445963
-0.000241913
1.28283e-08
5.95695e-07
0.000136527
-9.21013e-08
-4.6977e-07
9.69781e-09
-2.48695e-08
-1.3076e-08
3.26326e-08
6.85672e-07
0.000575262
-0.000599512
9.96011e-08
5.91404e-08
-1.89347e-07
5.0898e-08
-5.31107e-08
-0.00153114
0.000345483
-0.000168411
0.00291399
-1.02365e-07
0.000626524
3.7128e-07
1.58235e-08
4.15491e-05
1.61673e-08
-5.22407e-08
1.37711e-09
-0.000809082
3.50136e-10
-7.87424e-08
2.17318e-07
0.00680566
-4.78079e-08
2.14975e-07
0.000418032
-3.39556e-07
-3.60732e-08
-0.000606743
1.74533e-08
-9.67456e-09
4.59681e-08
-2.05165e-09
0.00722094
0.000805417
-2.82056e-06
6.21869e-08
-0.00966215
-1.08835e-07
-9.32351e-09
9.04868e-06
-3.12752e-08
9.9548e-08
9.02355e-09
1.3609e-08
7.58051e-05
-9.13763e-07
0.00944845
1.30292e-08
-2.81707e-08