/*--------------------------------*- C++ -*----------------------------------*\
| =========                 |                                                 |
| \\      /  F ield         | OpenFOAM: The Open Source CFD Toolbox           |
|  \\    /   O peration     | Version:  v2012                                 |
|   \\  /    A nd           | Website:  www.openfoam.com                      |
|    \\/     M anipulation  |                                                 |
\*---------------------------------------------------------------------------*/
FoamFile
{
    version     2.0;
    format      ascii;
    class       volScalarField;
    location    "100";
    object      k_0;
}
// * * * * * * * * * * * * * * * * * * * * * * * * * * * * * * * * * * * * * //

dimensions      [0 2 -2 0 0 0 0];


internalField   nonuniform List<scalar> 
37190
(
0.000148015
0.0633043
0.000146524
0.000167919
0.0419755
0.000146795
0.00017489
0.000150675
0.000167531
0.000221124
0.000147947
0.000144399
0.00015486
0.000146064
0.0420428
0.000147965
0.000151113
0.000181916
0.0517909
0.000167267
0.000151892
0.000148018
0.0768167
0.000154074
0.000151888
0.000147982
0.00017351
0.000178772
0.000257873
0.0494377
0.0777997
0.000146519
0.000189275
0.00022184
0.000192962
0.000178602
0.000144584
0.000154033
0.000152419
0.000147724
0.000218803
0.0370085
0.000151567
0.000190756
0.000148193
0.000201121
0.0369412
0.00023958
0.000146505
0.0436606
0.000149433
0.000147983
0.000163882
0.000161331
0.00014888
0.000149639
0.000219829
0.000144607
0.0377752
0.000144863
0.0364006
0.000178631
0.000143362
0.0698907
0.000151504
0.000151734
0.000146128
0.000193877
0.00017022
0.000143382
0.000148941
0.000148715
0.000158044
0.000147051
0.000148112
0.000148366
0.0757729
0.000168092
0.0464916
0.000158217
0.000148387
0.00015783
0.000147014
0.000180127
0.000810436
0.00015104
0.050767
0.0471521
0.0432134
0.000146531
0.0735924
0.000191564
0.000151773
0.000147021
0.000147735
0.000151949
0.0444869
0.000147321
0.000167356
0.0871419
0.000151639
0.000180267
0.0768591
0.0867723
0.000148343
0.000149041
0.062792
0.000148694
0.000146129
0.0625994
0.0743564
0.0493768
0.000153088
0.000145208
0.000148724
0.000148033
0.000168344
0.000152445
0.000147742
0.000150892
0.00014803
0.0331668
0.000148131
0.000148691
0.000147808
0.0428099
0.000145217
0.000147744
0.000263405
0.000168578
0.000147718
0.0632522
0.000156515
0.000152075
0.0745168
0.000147137
0.000167187
0.00019427
0.00019979
0.000150368
0.00015863
0.000179129
0.00016717
0.000152058
0.000147728
0.000148351
0.0823302
0.000151055
0.00019501
0.000145542
0.000147605
0.000159166
0.00020648
0.000148035
0.0363181
0.000145367
0.0472949
0.000147937
0.0646097
0.000167022
0.000173645
0.000148336
0.0358038
0.0476915
0.000159085
0.000150719
0.0552694
0.000191753
0.045497
0.000215429
0.000147116
0.0482413
0.00014835
0.000154455
0.0342518
0.000196064
0.000147767
0.000151399
0.000172387
0.000154933
0.000190026
0.000148442
0.000148402
0.000147062
0.0736248
0.00014902
0.000188542
0.000163217
0.080789
0.000209328
0.000148737
0.000181433
0.000145547
0.000151229
0.000259629
0.00015693
0.000147612
0.000174154
0.0878845
0.0542503
0.000202218
0.000146484
0.000147617
0.000149077
0.0466525
0.000166977
0.000174422
0.000149323
0.000148006
0.0505172
0.000147933
0.0451125
0.00014649
0.000163749
0.0651727
0.0853118
0.000195171
0.00019322
0.000221841
0.000148325
0.0377799
0.000144375
0.000148148
0.000165762
0.0699636
0.000148048
0.0447061
0.000147693
0.000163646
0.0218489
0.000151429
0.000148209
0.000144862
0.0510285
0.000161446
0.000187168
0.000184271
0.0315346
0.000143444
0.000148722
0.000171689
0.000149026
0.0460078
0.000147969
0.000147735
0.00755554
0.000147416
0.0419679
0.000190032
0.000185879
0.000147586
0.000180495
0.000148203
0.00015756
0.000156511
0.000148202
0.000181268
0.000148887
0.000166741
0.000147398
0.0434619
0.000159757
0.00014548
0.0763994
0.00015193
0.000146081
0.000148703
0.000151482
0.0710535
0.000144689
0.0654932
0.0676177
0.000221926
0.000161191
0.0181629
0.000146837
0.000146741
0.0428499
0.000164977
0.000158676
0.000262104
0.00014871
0.000188863
0.000218734
0.000151742
0.000157531
0.000148569
0.000148692
0.000173894
0.000148225
0.00014911
0.000193458
0.000165422
0.000172036
0.0178613
0.000148047
0.000147515
0.0728017
0.000169963
0.000144698
0.044883
2.27696e-05
0.000151364
0.00020844
0.000147483
0.00014529
0.000146089
0.000148941
0.000258226
0.000154117
0.000149691
0.0732815
0.000161319
0.000180749
0.0285994
0.056838
0.000157982
0.000263477
0.000165509
0.000145286
0.000148043
0.00015946
0.000220048
0.000148061
0.0851231
0.000208979
0.000178531
0.087706
0.000147196
0.0875907
0.0001638
0.000169766
0.000147593
0.0203601
0.000206032
0.0459998
0.00026118
0.000167299
0.000150828
0.070782
0.000150119
0.000208207
0.000148707
0.000149561
0.0632083
0.000199174
0.000215449
0.000149695
0.000147416
0.000145309
0.000148704
0.0788158
0.000147184
0.000146705
0.000156898
0.00280561
0.000145927
0.0466208
0.00017618
0.000150454
0.000164482
0.0449319
0.000173051
0.0647711
0.000156319
0.000184092
0.000148227
0.000145639
0.000191616
0.000164173
0.000150024
0.000165167
0.000156216
8.19186e-05
0.000151117
0.000187617
0.000186545
0.00021027
0.000186367
0.0430967
0.0607
0.000200492
0.0223521
0.000166235
0.000173367
0.0456161
0.000174209
0.000163075
0.000186556
0.000159575
0.000149061
0.000201246
0.00015853
0.000148745
0.000151825
0.000146018
0.000241763
0.000155061
0.000149809
0.000192704
0.00014565
0.0749697
0.000151828
0.000148052
0.000151851
0.000147221
0.000146937
0.0420968
0.000150735
0.000145672
0.000148211
0.000191296
0.0499615
0.000148434
0.000147534
0.000147693
0.000170201
0.000147837
0.000144789
0.00014692
0.0763753
0.00020132
0.043866
0.000147647
0.00014478
0.000191407
0.0729568
0.000149841
0.000151133
0.000146913
0.000196675
0.000145777
0.000151894
0.000169104
0.000149022
0.0715399
0.000150508
0.000189347
0.000148917
0.000147809
0.000149623
0.000147036
0.0734661
0.000151224
0.000148103
0.0476776
0.0185421
0.000145635
0.0850343
0.000148815
0.000168761
0.000208615
0.000148042
0.0439409
0.000147403
0.079061
0.000145551
0.000149201
0.000156044
0.000145381
0.0672869
0.000166554
0.000145848
0.000240846
0.000193957
0.000147195
0.000213046
0.00192108
0.000148779
0.00014707
0.000169538
0.0738736
0.087397
0.00020489
0.013775
0.0854457
0.000164027
0.0769124
0.000149348
0.00014677
0.000145634
0.000149318
0.0482788
0.000203186
0.00014665
0.000164973
0.00489104
0.000148155
0.0242872
0.000165958
0.000151753
0.000156642
0.000147787
0.000213698
0.000188382
0.000161357
0.000148071
0.000146732
0.000202594
0.0344879
0.000151747
0.000149366
0.000149453
0.0401358
0.000167982
0.0406031
0.00184795
0.000261899
0.0748801
0.000149001
0.0483168
0.000149397
0.0661364
0.000146761
0.000184699
0.0870464
0.000166234
0.0001467
0.000145706
0.0524569
0.000155089
0.000188011
0.000277901
0.00623705
0.000147691
0.000158347
0.000164074
0.000151257
0.000185815
0.000149821
0.000169032
0.000145256
0.01608
0.000147671
0.000148249
0.0866536
0.000146564
0.000148368
0.000147623
0.0001526
0.000149859
0.00014983
0.000167593
0.000152724
0.0369345
0.00014802
0.000154296
0.000173206
0.000161562
0.000146426
0.000147014
0.000154807
0.000158265
0.0429188
0.000192039
0.000147934
0.000153025
0.000236677
0.0544612
0.000147222
0.000144838
0.0225526
0.0515468
0.073339
0.0431945
0.000148841
0.000166486
0.000148059
0.0357913
0.000801397
0.000157406
0.000151642
0.000198958
0.000184192
0.000147173
0.000194579
0.0416983
0.0443733
0.000147979
0.000173593
0.000171545
0.000149031
0.000152499
0.000147991
0.0768577
0.0350591
0.000146984
0.0761032
0.0267436
0.000149569
0.000165236
0.000147602
0.000190616
0.000161686
0.000148167
0.000312588
0.0471315
0.00016261
0.000623905
0.000147602
0.000149857
0.000157187
0.000156354
0.000155387
0.000181879
0.000147337
0.000169751
0.00014912
0.0485134
0.000172952
0.000147152
0.000181661
0.00014504
0.0703015
0.014915
0.000147575
0.0616153
0.000144874
0.000148184
0.000154586
0.000147545
0.000178314
0.000158375
0.000147141
0.000172694
0.000146909
0.000181491
0.022732
0.000147381
0.000147739
0.0502679
0.000149727
0.000144875
0.000193638
0.000161805
0.000158046
0.000179374
0.000151327
0.000147022
0.000151485
0.00113691
0.0379996
0.000208731
0.0379356
0.000143414
0.000215429
0.00014922
0.000152369
0.0725152
0.000205685
0.000169501
0.000147396
0.000206102
0.000152089
0.00387637
0.000198816
0.000159304
0.03249
0.000148931
0.0164958
0.000177414
0.000152187
0.000158417
0.000167166
0.000167549
0.000160041
0.0001434
0.000189494
0.000147349
0.00019218
0.000166231
0.000146926
0.000179043
0.0389875
0.000148583
0.000147987
0.0879278
0.000148253
0.000146956
0.000186461
0.00848762
0.0372795
0.000161676
0.000144134
0.037769
0.000188465
0.000548167
0.000151417
0.000162653
0.00018148
0.000151881
0.00020446
0.000148237
0.00719117
0.000147981
0.000242032
0.000149304
0.000162678
0.00021181
0.000144478
0.000174713
0.000144565
0.000147608
0.000228482
0.000148909
0.0221236
0.000148062
0.022077
0.000147156
0.000148089
0.000182032
0.000145981
0.0722251
0.000146976
0.000158435
0.000148277
0.000149804
0.000205285
0.000171952
0.0142091
0.0763542
0.0205521
0.000211005
0.000191498
0.000147857
0.00014967
0.0258649
0.0453895
0.000147732
0.00589085
0.0380557
0.00018853
0.000161426
0.000163761
0.0562676
0.000146707
0.000182395
0.0364459
0.000169539
0.000242698
0.0576564
0.000154217
0.000153739
0.000145393
0.0433656
0.0624831
0.000144837
0.000178042
0.0869765
0.000160054
0.0162907
0.000178944
0.0369186
0.000148099
0.000186261
0.000179574
0.000206633
0.000158558
0.00014732
0.0616089
0.000193815
0.000161063
0.000148577
0.000173853
0.000144151
0.000184341
0.000151517
0.00015055
0.000151423
0.000148536
0.000152828
0.000181507
0.000169926
0.000154123
0.000181359
0.000152456
0.0735448
0.0118017
0.000146891
0.000152332
0.000148549
0.000148301
0.0751947
0.0754313
0.000178171
0.000148195
0.000151296
0.000147531
0.000150907
0.0425896
0.000148
0.000157046
0.000164879
0.000148101
0.000147397
0.000146585
0.000149718
0.000161617
0.000148517
0.000163565
0.000163391
0.000149808
0.000147321
0.0853372
0.078226
0.000151563
0.000144379
0.000146949
0.000165029
0.000164328
0.0871554
0.000188175
0.000151519
0.000148334
0.000179368
0.0584889
0.000150517
0.000148661
0.000145436
0.000148172
0.000164663
0.000149161
0.000148368
0.000175829
0.000147686
0.0426085
0.0388976
0.000152049
0.000155605
0.00015844
0.000388533
0.000172333
0.0001493
0.000180041
0.065712
0.000152053
0.000147836
0.000162428
0.0135432
0.000172396
0.000148031
0.000237171
0.000145956
0.000145462
0.000175011
0.000653825
0.000173036
0.00017122
0.000148178
0.000178955
0.000166643
0.0130252
0.000146159
0.00018957
0.000157674
0.000266963
0.00015437
0.000147663
0.0641555
0.000149794
0.0413956
0.0340771
0.000148125
0.000149649
0.0116285
0.000147711
0.00014687
0.0441561
0.000145531
0.0493098
0.000148106
0.0624771
0.000172187
0.000200842
0.0759166
0.000149148
0.000148302
0.00014913
0.000147362
0.00014738
0.000160981
0.000149161
0.00014765
0.000165904
0.0103106
0.000147659
0.000147704
0.000157606
0.000148092
0.000149704
0.000147992
0.064608
0.000148755
0.000146052
0.000168661
0.000147931
0.000147236
0.0409678
0.000164858
0.000151666
0.00016714
0.000146032
0.000164815
0.00015741
0.000149466
0.000169914
0.0818897
0.000163383
0.000182131
0.000157189
0.000145227
0.0430128
0.000145531
0.0167836
0.000147025
0.000158083
0.000148139
0.000148366
0.000192536
0.000173198
0.000148368
0.000146968
0.000197645
0.0731347
0.000157867
0.000151718
0.000148502
0.00014087
0.000145345
0.0832596
0.000147056
0.00015115
0.000149266
0.000179217
0.000146986
0.070614
0.000150635
0.00015264
0.000151624
0.000147744
0.00018207
0.000259258
0.000149481
0.000157923
0.00015567
0.000425455
0.000148174
0.0859961
0.0457037
0.000177139
0.000148514
0.000150411
0.000147924
0.0793447
0.00014976
0.00014853
0.000147354
0.000169394
0.0434371
0.000149761
0.000148697
0.000152798
0.000156772
0.0146721
0.0403017
0.000153006
0.0426789
0.000158453
0.000147998
0.000198305
0.000152472
0.0667174
0.000149261
0.00021706
0.000151815
0.000149529
0.0717648
0.000146834
0.000177807
0.00017823
0.0824391
0.000148015
0.000181911
0.000155089
0.0660343
0.000241345
0.000146683
0.000149039
0.000161258
0.00875486
0.000178546
0.000172437
0.00014957
0.0826203
0.000144948
0.000191686
0.000148728
0.000152384
0.000150724
0.000169157
0.00015196
0.000194316
0.0366633
0.000146719
0.000146842
0.000145661
0.0775179
0.000149825
0.000152761
0.000167277
0.000212437
0.000159713
0.0583809
0.00015376
0.0755545
0.000149362
0.000144985
0.000163041
0.000148122
0.0347655
0.000147049
0.000154381
0.000148151
0.000308914
0.0795014
0.000148511
0.000175988
0.000163374
0.000180481
0.000147303
0.000236971
0.000148729
0.000145046
0.0341998
0.0331307
0.000177787
0.000149621
0.000187768
0.000157276
0.000149187
0.000154494
0.000152908
0.000176594
0.0267893
0.000147422
0.000147862
0.00014859
0.000187994
0.000162219
0.0512348
0.0761333
0.0244681
0.000173768
0.000145319
0.0507609
0.000175154
0.000149416
0.000148102
0.000165484
0.000148536
0.000163131
0.000148636
0.000225558
0.000157382
0.000150841
0.000154233
0.0436959
0.0133506
0.000239134
0.0427526
0.0742514
0.000149133
0.0270791
0.00015093
0.033228
0.000149455
0.000170058
0.0379657
0.0373936
0.00661876
0.000146737
0.000148744
0.0367889
0.0742033
0.000149721
0.00015413
0.000166561
0.000150832
0.000154258
0.000150842
0.0181475
0.000166109
0.000147246
0.000147366
0.000154149
0.000103454
0.000148172
0.0379654
0.000157476
0.000178386
0.00019159
0.000146755
0.0698015
0.0815367
0.000144203
0.000148097
0.000148674
0.000146937
0.0865634
0.000148461
0.000145397
0.0499973
0.000147575
0.000157773
0.000147977
0.0452414
0.000155297
0.000161099
0.0776307
0.000148348
0.000147766
0.0411384
0.000157793
0.000147349
0.000147451
0.000177424
0.0410196
0.000149756
0.00014518
0.000147122
0.000174339
0.00136329
0.000148339
0.0627907
0.000163207
0.000151917
0.000253422
0.000154948
0.000171995
0.000150925
0.000217492
0.000173262
0.0765317
0.000144199
0.000150883
0.000149219
0.000147587
0.000151648
0.000146944
0.000155615
0.000192116
0.000209972
0.000147297
0.000531372
0.000149313
0.00020681
0.000148745
0.0591998
0.0411541
0.000164735
0.000146423
0.000147397
0.000147546
0.000145007
0.000153963
0.000148117
0.0377131
0.00023351
0.0422775
0.000173184
0.000255366
0.000191672
0.000148004
0.0338801
0.000197151
0.000148025
0.000219224
0.000158184
0.0395171
0.000151594
0.000151677
0.07421
0.000152347
0.000147736
0.000161827
0.00014855
0.000148123
0.0777556
0.000172847
0.0001474
0.000148039
0.000147511
0.0366308
0.000148698
0.000148152
0.000147898
0.000143451
0.000193992
0.000145551
0.000146244
0.0462558
0.000148098
0.000147907
0.0732034
0.0499227
0.00731694
0.0749857
0.000155783
0.0296761
0.000170217
0.000163039
0.052417
0.000201236
0.000169005
0.000149001
0.000150453
0.000169035
0.0173733
0.037377
0.00015048
0.000148639
0.000148026
0.000147507
0.000182893
0.000175929
0.000148043
0.000149212
0.000173155
0.000145287
0.000218193
0.000148085
0.000409482
0.000190805
0.000146805
0.00016644
0.000154084
0.000158062
0.000156638
0.000155505
0.000163547
0.0490957
0.000208618
0.000146953
0.000149039
0.000119761
0.000151429
0.0747898
0.000147379
0.000149683
0.00014807
0.000202814
0.000146681
0.000163915
0.0367107
0.000149813
0.000177801
0.0520262
0.000261102
0.000147958
0.000144492
0.000155483
0.000147338
0.000147609
0.0358084
0.00048219
0.000150378
0.0239744
0.000225691
0.000174082
0.000189306
0.000151451
0.000147754
0.000258428
0.000170737
0.000188685
0.000169541
0.000148674
0.000146798
0.000262563
0.000144982
0.000147442
0.000195989
0.00014751
0.0854471
0.000168205
0.000154013
0.0730189
0.000155008
0.000145546
0.000212258
0.000156082
0.000187591
0.00014787
0.000148389
0.000169562
0.000148111
0.000199909
0.000146219
0.000146915
0.000148046
0.000148427
0.00014599
0.000147481
0.000146804
0.000184086
0.03064
0.000147018
0.000190244
0.000160286
0.000160779
0.0698903
0.000149379
0.000151481
0.00592781
0.000166204
0.000169971
0.000155238
0.000147401
0.000153017
0.000649976
0.001744
0.0001449
0.000167588
0.00014403
0.000193361
0.0341886
0.0366992
0.000177558
0.000148033
0.000154127
0.000158281
0.0741231
0.00015593
0.00014814
0.000172775
0.000175116
0.0111016
0.000148049
0.000152572
0.000168116
0.000148153
0.000155415
0.0223546
0.000147586
0.000152353
0.000156548
0.000144988
0.0878447
0.000149564
0.000148018
0.000149831
0.0595936
0.038907
0.0001478
0.000218224
0.000148486
0.000166411
0.000153872
0.0714024
0.000147941
0.0593772
0.000151453
0.00014749
0.000148332
0.000200492
0.000262326
0.000163294
0.000245033
0.000143562
0.00757969
0.0471418
0.0757989
0.000173279
0.000158107
0.000143446
0.000149606
0.0361744
0.000172137
0.000148269
0.000203088
0.000146418
0.000147388
0.000190734
0.000150939
0.00014591
0.000150558
0.000147095
0.000219693
0.00014806
0.0536459
0.000190807
0.0384576
0.000147948
0.000216846
0.0801615
0.000150609
0.0447174
0.000148579
0.000151186
0.0703884
0.00014966
0.000146098
0.000159608
0.000151581
0.000148433
0.000154245
0.0758292
0.000149866
0.0397627
0.000157278
0.000145959
0.000156364
0.000622162
0.0001453
0.0319845
0.00015247
0.000170021
0.000152102
0.000147619
0.000149477
0.000275491
0.075176
0.000178588
0.000143998
0.000165373
0.0800505
0.000148523
0.000185501
0.000162194
0.000146953
0.000487474
0.000163577
0.000148168
0.0459423
0.0466075
0.000152188
0.000168057
0.0346418
0.000213658
0.000147273
0.000148078
0.000149844
0.000157767
0.00015417
0.000205805
0.000149506
0.000148042
0.000146735
0.000147697
0.000148461
0.00017757
0.000149842
0.0605736
0.0755533
0.00571712
0.000186173
0.0610665
0.000153137
0.000209237
0.00014767
0.000147318
0.000146531
0.0168145
0.0001474
0.000215096
0.000163444
0.00016655
0.000152361
0.000194229
0.0428381
0.000153579
0.000148823
0.000144451
0.000147686
0.000168918
0.000148096
0.000147805
0.00100089
0.000147649
0.0630383
0.000146713
0.000149968
0.000166892
0.0694946
0.000149025
0.000170498
0.000227594
0.000169768
0.000211372
0.000170018
0.000150426
0.00014866
0.000157173
0.000188162
0.0354563
0.000150499
0.000150375
0.000148169
0.000149113
0.000150929
0.0259199
0.000147635
0.00879703
0.0867463
0.000169975
0.00016445
0.000157901
0.000213465
0.000192369
0.000148291
0.000150594
0.000219205
0.000148397
0.000148179
0.000176085
0.000156062
0.000209731
0.000148702
0.000147481
0.000171026
0.000149718
0.000148475
0.042645
0.0327396
0.000211614
0.00014784
0.000147933
0.000146123
0.00014874
0.0630469
0.000148104
0.000146547
0.058939
0.000146414
0.000196068
0.000258288
0.0419908
0.0570358
0.000200015
0.0515669
0.000197356
0.000217097
0.0620777
0.000143604
0.0630349
0.000154057
0.000147484
0.000159347
0.0672889
0.000148374
0.000147813
0.000147842
0.000146545
0.00014556
0.000219311
0.000209778
0.000154522
0.000211664
0.0641854
0.000146615
0.0365759
0.0759987
0.000171502
0.000150107
0.000148242
0.000153925
0.000153731
0.000154945
0.000158321
0.000168528
0.000204345
0.000197361
0.000147417
0.0573426
0.000154766
0.000209732
0.000148441
0.00014734
0.000149855
0.000200995
0.000165779
0.000147647
0.0571604
0.000147888
0.0140319
0.000181674
0.000166243
0.000240125
0.000152954
0.000172776
0.000147403
0.000155304
0.000146835
0.000148722
0.000169543
0.000162918
0.000156059
0.000155691
0.000147598
0.000147372
0.00014854
0.000148768
0.000148701
0.00015017
0.000151426
0.0543901
0.000151977
0.000146465
0.000148293
0.00016335
0.00273275
0.000230684
0.00102415
0.00016495
0.000150745
0.000144701
0.00015529
0.000147006
0.000144466
0.000148503
0.000157613
0.0751846
0.000204789
0.000166404
0.000161418
0.0031622
0.00103576
0.00014982
0.000146973
5.68338e-05
0.000148668
0.000147423
0.000166231
0.000172536
0.00017017
0.000150453
0.000146163
0.000151099
0.000149071
0.000148192
0.000150712
0.000168909
0.000152136
0.000146899
0.000146898
0.000149603
0.000194415
0.000174432
0.000168683
0.0614691
0.000146934
0.000144072
0.000150837
0.000150546
0.00016611
0.00014743
0.00014996
0.000167789
0.000221885
0.00159285
0.000149118
0.000145916
0.000239434
0.0456379
0.000173505
0.0564725
0.000202456
0.000147752
0.000162119
0.0871649
0.000148026
0.000243064
0.000146934
0.0408042
0.000198171
0.000152889
0.000147095
0.000196474
0.063319
0.000172402
0.000199067
0.000196292
0.000173452
0.000158681
0.000165114
0.000168752
0.0445577
0.071894
0.000160639
0.000146503
0.0602783
0.000197117
0.000172909
0.000167312
0.0570641
0.000149078
0.000146672
0.000148104
0.0397998
0.000182993
0.000236838
0.000154682
0.000185822
0.000148872
0.000148853
0.000151208
0.000143937
0.000431256
0.000154477
0.00014692
0.000178056
0.0522766
0.000149416
0.000159113
0.029178
0.0776499
0.0642057
0.0430978
0.0550325
0.000212689
0.000146123
0.000181419
0.00211173
0.0625381
0.000143906
0.000154372
0.000146685
0.000155571
0.000147282
0.000144039
0.000147861
0.000202897
0.000148001
0.074814
0.0741523
0.000147585
0.000148582
0.00018825
0.000164286
0.000146901
4.78424e-05
0.000147562
0.000196727
0.000173386
0.000201644
0.000156406
0.000173523
0.000166991
0.000146757
0.000168188
0.000179265
0.0422858
0.000147055
0.0245924
0.000151154
0.000147611
0.000154595
0.000192334
0.000176433
0.0566166
0.000148828
0.000150449
0.000148059
0.000193847
0.000154886
0.000163885
0.000147347
0.000719601
0.00014341
0.000144371
0.0681568
0.0868321
0.000147963
0.0632631
0.0419578
0.048963
0.0807943
0.0563718
0.0873198
0.000148217
0.00014929
0.000148151
0.000147897
0.0468043
0.000168929
0.000171642
0.0571452
0.000148564
0.0001495
0.000185848
0.0649665
0.000168823
0.000150149
0.000156239
0.000147322
0.00014849
0.000193513
0.000149735
0.000207109
0.00014822
0.000173321
0.000152164
0.0137528
0.000220195
0.000145406
0.000148061
0.00014804
0.000202946
0.000189511
0.000150394
0.000148128
0.000179321
0.000148433
0.000153157
0.00015649
0.000202762
0.000161994
0.000173964
0.000145466
0.000147697
0.000151232
0.000162029
0.000190698
0.000190078
0.000149554
0.000150413
0.000169424
0.0341914
0.0680171
0.000145
0.00015822
0.000144884
0.0585754
0.000152984
0.000149754
0.000154229
0.000193437
0.0487425
0.000155794
0.000162189
0.000146079
0.063896
0.000175042
0.00014727
0.000151179
0.000162344
0.00015942
0.000165554
0.000186673
0.000162002
0.000244813
0.01216
0.00015605
0.000146974
0.000174604
0.000146984
0.000146105
0.000147373
0.000235082
0.000149797
0.000145524
0.000181904
0.000162981
0.00014895
0.000155891
0.000148229
0.000146873
0.0379753
0.000170376
0.000212007
0.000175031
0.000175748
0.000148179
0.0449262
0.000185479
0.000178449
0.018692
0.000146811
0.000148633
0.000168751
0.000181252
0.000147989
0.0763699
0.000211731
0.000162418
0.0647874
0.0426668
0.000145407
0.000215756
0.000186037
0.0745304
0.000152697
0.000164571
0.000145926
0.000164149
0.000146648
0.00017789
0.00019517
0.000148057
0.000146108
0.000145392
0.000189685
0.000173195
0.00017284
0.0443457
0.0414504
0.000145326
0.0227165
0.000149131
0.000148668
0.000146632
0.00024982
0.000149217
0.000151566
0.000148138
0.000177424
0.000148972
0.000152124
0.0667055
0.000148044
0.000208251
0.0435959
0.000229667
0.0653663
0.032292
0.000158549
0.000191132
0.000148227
0.00024878
0.000144927
0.000147559
0.00014765
0.000148146
0.0621111
0.000148847
0.000212981
0.000145556
0.000173825
0.000150517
0.000162426
0.000152919
0.00014996
0.00015587
0.000144359
0.000147627
0.0654609
0.000148829
0.000167359
0.000155797
0.00015193
0.000172638
0.000148623
0.000149797
0.000192156
0.033775
0.0748272
0.0743901
0.0704874
0.000184802
0.000147467
0.00014832
0.000172809
0.029808
0.000178807
0.000510726
0.000147856
0.000147303
0.00017544
0.000145957
0.00716855
0.034623
0.0715476
0.000146622
0.000149639
0.000144726
0.000146451
0.0613479
0.000148138
0.000149697
0.000164072
0.056697
0.000149985
0.000147734
0.000147303
0.0693077
0.000149722
0.000155732
0.0658529
0.000828682
0.000190913
0.0501711
0.0204552
0.0446102
0.000148156
0.0475656
0.000149173
0.000147839
0.00017901
0.0663141
0.000206777
0.0702006
0.000145445
0.000147632
0.000147288
0.000181492
0.000308079
0.000162643
0.0361932
0.000157392
0.0771131
0.0755841
0.000148137
0.00019653
0.000155284
0.000155005
0.000165971
0.000145753
0.0169603
0.0409357
0.000149682
0.000148144
0.000153345
0.000149887
0.000150531
0.0581878
0.000200584
0.000148466
0.000148114
0.000148687
0.000148122
0.0751247
0.000157935
0.000147719
0.000146102
0.064022
0.000146732
0.000148774
0.0218225
0.000147369
0.000195601
0.000463777
0.000158123
0.000152743
0.000162585
0.0685585
0.000144991
0.000153237
0.0270802
0.000179283
0.000148706
0.000198949
0.000174027
0.000250878
0.0660387
0.000155042
0.0386682
0.000148049
0.000148011
0.000148991
0.000148079
0.000154183
0.000163699
0.000207661
0.000147191
0.000166411
0.000154051
0.000256892
0.000198966
0.000148864
0.00014344
0.0719059
0.0480755
0.000165888
0.000146471
0.000166289
0.000147476
0.000158251
0.000147666
0.0767425
0.000178648
0.000146707
0.0772649
0.0614545
0.00014721
0.000148519
0.0208741
0.000166881
0.000146141
0.0603493
0.0747185
0.000146115
0.000147669
0.000518368
0.0435728
0.00021652
0.000148032
0.000209436
0.0540986
0.000164943
0.000145462
0.000172093
0.00014346
0.083602
0.00015037
0.000156046
0.0570832
0.0409966
0.000148869
0.000148633
0.0402969
0.0752527
0.000147365
0.000149488
0.000148706
0.000148208
0.000147337
0.000174371
0.0331341
0.000151736
0.000211453
0.000252528
0.000165018
0.000149531
0.000148632
0.000144993
0.0702817
0.0522933
0.000169593
0.000192804
0.000152414
0.0777371
0.000190192
0.000158114
0.000148554
0.000148701
0.000209667
0.0756996
0.000145876
0.000159275
0.000144812
0.000147387
0.0322301
0.000189006
0.000156252
0.000146805
0.000146594
0.0615474
0.000329415
0.00015053
0.000162923
0.000170462
0.0430696
0.000152865
0.000177484
0.0878296
0.000166568
0.000147715
0.000168499
0.000179392
0.000146868
0.000147828
0.0822319
0.000192685
0.0368244
0.000187732
0.000152527
0.0364694
0.000151623
0.000189147
0.00014597
0.000159226
0.000148016
0.000162281
0.000147708
0.071061
0.000146501
0.000148315
0.001722
0.000171121
0.000209978
0.000148053
0.000147371
0.0733439
0.000204074
0.000186801
0.00015419
0.000209414
0.000214432
0.000206249
0.000169849
0.0428147
0.0216176
0.0713246
0.000148088
0.000145463
0.000147636
0.000171917
0.000200546
0.000147663
0.000156785
0.0420845
0.0506426
0.000149862
0.0400543
0.000156764
0.000179211
0.000168442
0.000148968
0.000146744
0.000176735
0.000156657
0.000198898
0.000152759
0.000148908
0.0520789
0.067506
0.000145939
0.00017928
0.000148956
0.000148321
0.000155681
0.0300009
0.000164883
0.000147859
0.000150539
0.00023652
0.0658089
0.000168862
0.0834262
0.000165693
0.0644575
0.000149664
0.000148674
0.000147779
0.000148042
0.000203856
0.000181265
0.000148046
0.000166244
0.000156204
0.0014498
0.000204481
0.000147697
0.000148169
0.000150566
0.000158026
0.0465432
0.0438862
0.000156243
0.0608915
0.000193348
0.000147552
0.000167522
0.000146499
0.000147105
0.00015722
0.000150663
0.000156833
0.000166548
0.000145799
0.000147766
0.000151766
0.0828663
0.00014804
0.00015068
0.0837845
0.00020739
0.000181378
0.000147986
0.0731579
0.000148553
0.000261366
0.0713264
0.0782824
0.000155406
0.000161632
0.000151186
0.000151054
0.0209617
0.0621821
0.0408847
0.000158
0.000145152
0.000171063
0.000150545
0.000148006
0.0385178
0.000163015
0.000164776
0.000146819
0.000154464
0.000159443
0.00025852
0.000147089
0.00016849
0.00481213
0.000148302
0.000151337
0.000172947
0.000151018
0.0341234
0.000147449
0.000150085
0.000147366
0.000157196
0.000145194
0.000145065
0.0721174
0.0401516
0.0650765
0.000168146
0.000218914
0.0880398
0.000154216
0.0001758
0.000148671
0.000147697
0.000164345
0.000161876
0.000199573
0.0779951
0.0669424
0.000151464
0.000147257
0.000174619
0.000147687
0.000159336
0.0153616
0.0368574
0.0476095
0.0435402
0.000151344
0.0790009
0.000181876
0.000146632
0.025885
0.000168602
0.000154439
0.000148081
0.0837113
0.000148945
0.000178006
0.000180261
0.0552828
0.000149112
0.000179982
0.0379195
0.000178499
0.000154249
0.0495655
0.000146959
0.000145071
0.000152659
0.000147685
0.0494556
0.0802722
0.000214362
0.000148832
0.0202782
0.000150994
0.000162423
0.000256693
0.000161094
0.000180026
0.00014383
0.000148739
0.0551557
0.000205303
0.0189983
0.000146703
0.000152303
0.000166608
0.00014739
0.000144735
0.00015105
0.000149423
0.000146271
0.000216004
0.000161003
0.00015238
0.000154984
0.000175064
0.0591035
0.0577894
0.000158114
0.00045973
0.000176525
0.000158008
0.000147669
0.000152766
0.041533
0.000212015
0.0444781
0.000159003
0.000148627
0.000149814
0.000159977
0.000149833
0.000148062
0.0651676
7.84384e-05
0.000146174
0.0151261
0.0879861
0.00014407
0.000145064
0.000152649
0.00015026
0.000161929
0.000180412
0.000201024
0.000213867
0.000195565
0.0455108
0.000170393
0.000146831
0.000148898
0.0331285
0.000167057
0.000171983
0.000165777
0.0736384
0.00014684
0.00021774
0.000150477
0.000147998
0.000152271
0.000190019
0.000187625
0.000147722
0.000148048
0.0731981
0.000158926
0.000158242
0.07339
0.0454259
0.000171651
0.000147976
0.000176117
0.000145058
0.000151508
0.00597882
0.0533797
0.000178533
0.000190657
0.000151777
0.000173977
0.00016379
0.000214675
0.0708261
0.000171349
0.000145139
0.0679405
0.000152718
0.000150488
0.00014786
0.000146445
0.0399458
0.000176055
0.00014592
0.000205195
0.000210058
0.000170805
0.0454745
0.000195315
0.000147368
0.000159506
0.0368406
0.0338266
0.000173292
0.000172647
0.000151584
0.00207172
0.000147065
0.0335528
0.000146307
0.000147408
0.000214399
0.000167893
0.000151685
0.000147722
0.000147315
0.0384
0.000185422
0.00014698
0.000148144
0.00018863
0.000150264
0.000357618
0.000146872
0.0475895
0.000195223
0.000151077
0.048807
0.000147295
0.00015889
0.000148136
0.0653654
0.000177124
0.00017243
0.000150275
0.000185055
0.000146985
0.0758825
0.000148152
0.00014686
0.000158261
0.00821513
0.0624922
0.000164779
0.000167985
0.000147722
0.000158806
0.00015746
0.0401939
0.000149542
0.000145727
0.043031
0.000174732
0.000150738
0.000146918
0.000241684
0.000152685
0.0177729
0.000186033
0.000145881
0.000150772
0.000174863
0.06703
0.0354644
0.000185524
0.00014724
0.000148329
0.000154729
0.000184296
0.000148343
0.000175305
0.000162057
0.000199714
0.000172503
0.0637919