/*--------------------------------*- C++ -*----------------------------------*\
| =========                 |                                                 |
| \\      /  F ield         | OpenFOAM: The Open Source CFD Toolbox           |
|  \\    /   O peration     | Version:  v2012                                 |
|   \\  /    A nd           | Website:  www.openfoam.com                      |
|    \\/     M anipulation  |                                                 |
\*---------------------------------------------------------------------------*/
FoamFile
{
    version     2.0;
    format      ascii;
    class       volVectorField;
    location    "100";
    object      U;
}
// * * * * * * * * * * * * * * * * * * * * * * * * * * * * * * * * * * * * * //

dimensions      [0 1 -1 0 0 0 0];


internalField   nonuniform List<vector> 
37190
(
(0.991074 -0.00621323 5.22831e-21)
(-0.014075 0.021904 -3.30883e-21)
(1.03386 -0.00222788 2.43398e-21)
(0.973898 -0.259151 4.08038e-22)
(0.0718815 0.0282363 3.32145e-20)
(1.01375 -0.0201675 4.67634e-23)
(1.14831 -0.0345201 2.08677e-20)
(1.00189 -0.0646468 7.78519e-21)
(0.994659 -0.247139 -8.80375e-23)
(1.09199 0.0832904 1.15276e-20)
(0.991942 -0.013562 4.93383e-21)
(1.02208 -0.00230251 3.44845e-21)
(1.00116 -0.10062 -4.04497e-21)
(1.01382 -0.000675827 -3.07644e-22)
(0.739438 0.10472 7.7007e-21)
(1.00862 -0.0362236 -4.60182e-24)
(0.973255 -0.0613715 2.64107e-21)
(1.17937 -0.0606986 -4.33906e-22)
(0.593844 0.0951367 1.00838e-21)
(1.22469 0.060932 -2.95803e-20)
(1.01838 -0.0733031 0)
(0.990688 -0.00608332 -6.4568e-21)
(0.685384 0.0364568 3.15621e-20)
(1.06461 0.00806067 -1.64685e-21)
(0.955589 -0.0575479 -1.72074e-22)
(1.00896 -0.036635 1.09678e-23)
(1.14777 -0.0597974 1.59699e-20)
(1.10789 0.0377123 -1.87052e-20)
(0.598382 -0.649498 2.00238e-20)
(-0.0557976 -0.0178326 -2.91919e-20)
(0.49465 0.0628407 1.16478e-22)
(1.01021 -0.00981931 -1.76485e-23)
(1.0946 0.0566441 9.94168e-21)
(1.11602 0.090918 0)
(1.13823 0.0502011 -2.24279e-20)
(1.11653 0.0313303 1.97953e-20)
(1.02522 -0.00140802 1.19264e-21)
(1.06471 0.00719895 0)
(1.06454 -0.00689421 9.99323e-21)
(1.00073 -0.0269276 -2.19895e-21)
(1.08026 0.0693516 -3.43358e-21)
(-0.104605 0.0110951 1.54127e-20)
(0.953949 -0.0514795 0)
(1.16709 0.0205887 -4.38279e-20)
(0.994758 -0.00484125 -3.10688e-21)
(1.21605 -0.027566 2.27249e-20)
(-0.0528634 -0.031722 0)
(1.22208 -0.33769 0)
(1.03381 -0.00184384 0)
(0.0773568 0.0300708 -3.2102e-20)
(0.964405 -0.0188965 -9.64326e-21)
(0.998992 -0.0322099 0)
(1.07876 0.0287206 -7.37456e-21)
(0.890346 -0.152681 -7.65301e-21)
(1.00023 -0.00500655 1.41671e-21)
(1.05086 -0.0130653 -1.69564e-21)
(1.09185 0.0820668 -1.44569e-20)
(1.02511 -0.00156539 1.07937e-21)
(0.274105 0.0346154 7.24433e-21)
(1.01928 -0.00436055 -6.78838e-22)
(0.269682 0.0318656 -7.96398e-21)
(1.11597 0.0322319 -1.24497e-20)
(1.01965 0.000318332 2.97326e-22)
(0.0448012 0.0262835 5.8398e-20)
(0.977709 -0.0679726 6.09117e-21)
(0.954626 -0.0545975 0)
(1.01756 -0.0129517 0)
(1.20869 -0.0445655 -1.99216e-20)
(0.727519 -0.254258 1.24824e-21)
(1.01957 0.000223922 0)
(1.00026 -0.00487178 -5.99001e-21)
(0.973355 -0.00757937 -2.07952e-21)
(1.09149 -0.0211806 -2.03582e-21)
(1.01231 -0.0235484 0)
(0.993258 -0.0286832 0)
(1.01829 -0.0401097 1.61116e-22)
(0.235272 0.042824 -9.34006e-21)
(1.12494 -0.0800289 5.81162e-21)
(-0.0864358 0.0134256 -2.72975e-20)
(1.09282 -0.0414758 -8.92289e-21)
(1.00177 -0.00024635 -7.1899e-24)
(0.97305 -0.125283 0)
(1.01219 -0.0230028 0)
(0.877006 -0.423943 0)
(1.31418 -0.307042 0)
(0.974003 -0.0605021 0)
(0.412293 0.0684316 6.49712e-21)
(-0.0748038 -0.0174 9.18496e-20)
(0.725566 0.103805 -1.79853e-21)
(1.01034 -0.0100985 2.9592e-22)
(0.201482 0.0403189 2.62215e-22)
(1.09473 0.0588712 -5.38982e-21)
(0.953011 -0.0535994 8.3574e-21)
(1.01355 -0.0235691 -5.04915e-22)
(0.997386 -0.0197844 0)
(0.95417 -0.0571163 7.82424e-21)
(-0.0951432 0.0124969 3.95088e-20)
(1.0054 -0.0110145 -5.63627e-23)
(0.974975 -0.252302 -1.18282e-21)
(0.512654 -0.00047602 0)
(0.952874 -0.0507592 8.34316e-21)
(1.11446 -0.290222 0)
(0.184655 0.0330029 4.31687e-20)
(0.436068 -0.0116161 0)
(0.997992 -0.00745383 -5.73972e-21)
(1.0084 -0.0489991 1.72318e-23)
(0.112125 0.035883 -9.93057e-21)
(1.00085 -0.00527673 2.13307e-21)
(1.01722 -0.012793 0)
(0.565198 0.0924413 1.73892e-20)
(0.514742 0.0725554 0)
(0.627103 0.0960054 0)
(1.06668 -0.00383163 -7.2663e-21)
(1.02833 -0.00212345 -8.97487e-22)
(1.0416 -0.0237467 4.60669e-21)
(0.995651 -0.00920793 0)
(1.12684 -0.0792984 0)
(1.06488 -0.00733803 -3.9483e-21)
(1.00026 -0.0269197 0)
(1.03657 -0.0557659 -2.49783e-21)
(0.992363 -0.0239078 0)
(0.369123 0.0254241 0)
(0.993821 -0.0045878 0)
(0.973582 -0.00685265 7.85627e-21)
(1.00127 -0.0119097 -2.35765e-21)
(0.662172 0.0692677 1.20489e-22)
(1.02814 -0.0023197 0)
(1.00243 -0.0113056 3.25241e-21)
(1.06666 0.0760904 0)
(0.753892 -0.236421 -2.98495e-20)
(1.00239 -0.0115552 -4.00666e-21)
(0.00838679 0.0207204 -2.25591e-20)
(1.08242 -0.00800862 0)
(0.956766 -0.0605694 -1.06683e-20)
(0.152094 0.0314864 2.54311e-20)
(1.02554 -0.021334 3.49035e-22)
(1.07306 -0.182956 -1.02053e-20)
(1.21102 -0.0458647 0)
(1.21457 -0.0295132 0)
(0.961089 -0.0394601 9.94886e-21)
(1.09011 -0.00837062 0)
(1.10907 0.0378872 7.13072e-21)
(0.989587 -0.243076 -1.69181e-21)
(0.95498 -0.0597022 1.6655e-20)
(0.997443 -0.0192614 2.39298e-21)
(1.01872 -0.0395283 -4.07704e-22)
(0.385647 0.0481776 0)
(1.02703 -0.0625831 -8.19771e-22)
(1.21533 -0.0540162 1.12932e-20)
(1.02716 -0.00644977 0)
(1.00141 -0.0154219 0)
(0.948553 -0.138864 0)
(1.16397 0.0608177 2.73118e-20)
(1.00255 -0.00454605 -3.86505e-21)
(0.274206 0.0316906 -2.02201e-21)
(1.02003 -0.0072937 0)
(-0.0780377 0.0146482 -7.72872e-21)
(0.992109 -0.0131389 -1.12244e-20)
(0.129415 0.0392521 0)
(1.07903 -0.170648 4.12317e-21)
(1.13702 -0.160541 -4.78614e-22)
(0.980658 -0.00597397 0)
(-0.236103 0.00615573 -3.85325e-20)
(0.451692 0.0627618 0)
(0.945731 -0.13721 0)
(1.03572 -0.0546951 -1.25388e-22)
(0.78239 0.0957046 -2.88213e-20)
(1.18014 0.00572718 0)
(0.536044 0.0577526 7.93858e-21)
(1.09556 0.0807003 7.35473e-21)
(1.02505 -0.0212539 6.43471e-22)
(0.471151 0.0659121 5.23164e-21)
(0.980147 -0.00580717 0)
(1.05181 -0.0759787 0)
(0.3772 0.0275053 0)
(1.11336 0.0636807 0)
(1.01236 -0.0337621 -2.53758e-21)
(0.967625 -0.0609243 -6.75319e-21)
(1.10777 -0.212185 0)
(1.06707 0.0090396 0)
(1.16553 0.0198011 2.393e-20)
(0.998464 -0.00716957 0)
(0.998492 -0.00741011 0)
(1.034 -0.0106101 0)
(0.307193 0.0572923 -1.76001e-20)
(0.998947 -0.00289389 2.16373e-21)
(1.08978 0.0562977 0)
(1.10938 -0.0196209 0)
(0.619652 0.0391191 1.06001e-20)
(1.20721 0.012231 -7.64933e-22)
(1.00073 -0.00536451 0)
(1.17985 -0.0686173 -7.60374e-21)
(1.02944 -0.003403 1.737e-21)
(1.05372 0.00471458 6.20562e-21)
(1.09685 0.106483 -9.79407e-21)
(1.08367 -0.00759856 -1.27603e-20)
(1.00439 -0.028447 0)
(1.14897 -0.0549342 3.45062e-21)
(0.441008 0.0133278 -6.85892e-20)
(0.607741 0.0990387 -9.10452e-21)
(1.19877 -0.294752 7.03285e-21)
(1.03126 -0.00996433 0)
(1.00148 -0.015046 -2.13223e-21)
(0.999505 -0.00398413 0)
(0.417165 0.0584991 -1.52981e-22)
(1.12113 -0.0779492 -1.0176e-20)
(1.14662 -0.0348735 0)
(0.969872 -0.0282722 -4.41298e-21)
(0.992915 -0.0237304 0)
(0.39647 0.066702 -6.43366e-21)
(0.992385 -0.011357 7.86376e-21)
(0.513771 0.0552656 4.11778e-21)
(1.03108 -0.0102884 -1.42595e-21)
(1.10213 -0.0918827 3.87485e-21)
(0.0228096 0.0233541 7.34117e-21)
(0.521018 0.0409003 0)
(1.21582 -0.0564253 -1.50903e-20)
(1.21395 -0.0646778 0)
(1.11443 0.0912661 3.26774e-21)
(1.00163 -0.0061293 -1.85199e-21)
(0.28543 0.0347791 -3.98614e-21)
(1.02174 -0.00228742 -4.02971e-21)
(0.985299 -0.00388661 -1.01259e-21)
(0.748522 -0.155736 0)
(0.245918 0.0543581 0)
(0.990216 -0.00278692 1.35319e-21)
(-0.103477 0.0126266 0)
(0.998353 -0.0200829 3.27189e-21)
(1.08712 -0.115299 7.227e-21)
(-0.238057 -0.0103713 -6.70901e-20)
(0.953437 -0.0483385 7.32572e-21)
(0.985599 -0.0155456 1.64727e-20)
(1.01895 -0.00423943 1.75007e-23)
(0.389195 0.0674865 -4.36752e-21)
(1.01691 -0.155284 0)
(1.15627 0.0200063 1.90551e-20)
(1.00057 -0.419533 0)
(-0.248834 -0.0023195 6.04203e-20)
(1.01929 1.77784e-05 3.2472e-22)
(1.04058 -0.0251173 -3.74524e-21)
(1.08982 -0.227037 6.99411e-21)
(0.998957 -0.00276194 9.4828e-22)
(0.412644 0.056331 -5.37639e-21)
(1.00045 -0.0328483 -1.29793e-21)
(1.01074 -0.0332498 0)
(1.19499 0.0497368 2.1074e-20)
(1.00481 -0.0109241 9.82747e-22)
(0.0633544 0.0277431 0)
(1.09434 0.0574448 1.03633e-20)
(1.17714 -0.0172677 8.12044e-22)
(1.0266 -0.0257347 -1.2135e-21)
(1.11054 0.0395988 0)
(0.985689 -0.0150943 -1.39889e-20)
(0.968086 -0.122344 -8.28828e-21)
(1.07472 -0.0677823 -6.97963e-21)
(0.994532 -0.0041922 5.20323e-21)
(1.17874 -0.0701825 0)
(0.998786 -0.00334552 -4.14748e-21)
(1.07087 -0.178909 1.58346e-20)
(1.00497 -0.0101442 9.48648e-22)
(0.0690298 0.0294155 8.52401e-21)
(1.09474 -0.0100656 1.12864e-20)
(1.02689 -0.00616625 -1.51704e-22)
(0.540749 0.0668063 -1.31928e-20)
(1.06386 -0.0185834 0)
(1.01692 -0.012126 6.0169e-23)
(1.01136 -0.000380182 0)
(0.952128 -0.0473607 -7.79357e-21)
(0.257648 0.0543465 0)
(1.02542 -0.00185029 -1.18181e-21)
(0.846377 0.0177203 4.96228e-20)
(0.537565 0.084085 3.88378e-21)
(1.1127 0.0908332 -6.61587e-21)
(0.880512 -0.148837 -8.57557e-22)
(-0.143806 -0.0263167 -5.99304e-20)
(1.0349 -0.000703893 1.85985e-21)
(1.02152 -0.0196211 5.79591e-22)
(-0.0355923 0.0181612 1.19825e-20)
(1.09737 0.0142082 1.13034e-20)
(1.09044 -0.00734729 8.09454e-21)
(0.622917 -0.654363 1.88511e-20)
(0.973541 -0.00900417 2.04166e-20)
(1.20914 -0.119268 1.628e-20)
(1.07962 0.0687908 -3.14685e-21)
(1.06291 -0.0182845 -6.48239e-21)
(1.08984 -0.0242639 0)
(1.04232 -0.00130085 6.33333e-21)
(0.973907 -0.00849376 -1.19831e-20)
(1.14441 -0.034028 2.00697e-22)
(0.994847 -0.00404002 -5.32329e-21)
(1.04315 0.003583 -6.48099e-21)
(1.1309 0.0546079 3.75521e-21)
(0.756192 -0.149579 0)
(1.14185 -0.0574823 1.37359e-20)
(-0.152233 -0.0250625 9.9957e-20)
(0.989367 -0.00383027 2.002e-23)
(1.02528 -0.0259434 0)
(0.294945 0.0570992 0)
(1.12083 0.000484205 0)
(1.02527 -0.00203347 0)
(-0.0917221 0.0127874 0)
(1.24355 0.0205569 -1.84207e-20)
(0.942687 -0.0306259 -4.22715e-21)
(1.10848 0.0779764 -2.17003e-20)
(1.03672 -0.00933673 1.95331e-22)
(1.02829 -0.00288017 -4.3068e-21)
(1.01725 -0.0124054 -2.08211e-23)
(0.998789 -0.00318237 1.98983e-21)
(1.10069 -0.517342 0)
(1.05066 -0.0746663 1.58922e-21)
(0.999963 -0.00100164 -1.51621e-21)
(0.247645 0.0491769 4.5901e-20)
(1.01431 -0.15374 2.04526e-22)
(1.1213 -0.288266 -1.51298e-20)
(-0.265607 -0.00277248 7.09434e-20)
(0.267355 -0.0958791 -5.49001e-20)
(0.974312 -0.127502 9.63927e-21)
(1.06431 0.0762973 0)
(1.01237 -0.207676 -1.49099e-21)
(1.02846 -0.00264535 0)
(0.989856 -0.00247057 1.2526e-23)
(0.858081 -0.0906594 0)
(1.11183 0.089454 0)
(1.0297 -0.0292628 0)
(0.391267 0.04076 -1.12611e-20)
(1.11499 0.0789472 -1.49776e-20)
(1.16638 -0.0556197 -2.09151e-20)
(0.469667 0.0118044 1.05351e-19)
(1.00572 -0.00677112 0)
(0.465516 0.0344963 -2.6273e-20)
(1.06713 -0.143574 0)
(1.11923 0.00231653 -5.38824e-21)
(1.01828 -0.0305299 -6.36817e-23)
(1.0933 0.0941872 0)
(1.16216 0.060352 -3.49016e-20)
(-0.0182488 0.0206845 1.50827e-21)
(1.06931 0.0909261 0)
(0.82613 -0.245768 1.94073e-20)
(1.05495 -0.0317279 5.78051e-21)
(0.0525144 0.0269552 -3.08078e-20)
(0.991771 -0.0578527 -7.76999e-21)
(1.10964 0.0775638 1.79535e-20)
(1.04105 -0.023978 0)
(1.05036 -0.0124441 0)
(0.12681 0.039148 -1.23529e-21)
(1.19154 -0.293771 7.46869e-21)
(1.09702 0.0811446 -1.51326e-20)
(0.999954 -0.000973983 1.61958e-21)
(1.00357 -0.0175666 -2.14573e-21)
(1.02674 -0.00498101 -4.09252e-21)
(0.999821 -0.00627752 4.34142e-23)
(0.594766 0.0534357 1.06375e-20)
(1.01339 -0.0256963 1.02159e-21)
(1.03441 -8.59371e-05 0)
(0.974931 -0.11706 -4.4283e-22)
(1.22289 0.048063 0)
(1.01604 -0.00997736 4.18311e-22)
(0.649423 0.0940189 5.87054e-21)
(1.15727 -0.139059 3.28318e-20)
(1.00205 -0.0627038 -6.04607e-21)
(1.05538 -0.16397 -4.50661e-21)
(-0.0999206 0.013009 3.10936e-20)
(1.14083 -0.132327 1.76597e-20)
(0.136189 0.0397038 0)
(1.00335 -0.111942 -2.92948e-21)
(1.18013 -0.0383352 3.8534e-20)
(0.984932 -0.0142396 0)
(1.01208 -0.00220315 0)
(1.13057 0.050963 -8.04672e-21)
(1.10357 -0.0934439 -1.32744e-20)
(0.992786 -0.0572822 5.94897e-21)
(0.753437 -0.139929 1.75228e-20)
(1.00503 -0.110841 -3.62195e-21)
(1.23573 0.0211959 1.60615e-20)
(1.02812 -0.0630048 0)
(1.09135 0.0553321 -1.27181e-20)
(1.17914 -0.0176614 -1.86865e-20)
(1.20751 0.0135468 -1.23173e-20)
(1.18171 -0.0249913 0)
(-0.107637 0.0123445 -3.85291e-20)
(0.947012 -0.0629363 0)
(1.23559 -0.103751 -5.37132e-20)
(0.901293 0.0987017 0)
(1.10258 -0.117806 -1.17108e-20)
(1.14296 -0.0351136 0)
(0.656165 0.0914673 0)
(1.14945 -0.0528216 -1.99535e-20)
(1.08555 -0.113517 -2.8039e-22)
(1.15422 0.0202692 0)
(0.853713 -0.0917648 1.5417e-20)
(1.04262 0.0037506 6.12394e-21)
(1.09849 0.0687826 0)
(1.08731 -0.0665676 -2.49845e-21)
(1.04121 -0.0248543 -2.54423e-21)
(0.963393 -0.0632516 1.7294e-20)
(1.0156 -0.0105923 0)
(1.06826 0.0902378 -6.93205e-21)
(1.00126 -0.102538 1.77096e-21)
(0.999994 -0.000751566 -2.66182e-23)
(1.21352 -0.0679112 0)
(1.01204 -0.00176368 0)
(0.205021 0.0391797 2.66778e-20)
(1.00244 -0.0749336 0)
(0.992272 -0.0245819 -6.53558e-21)
(0.964442 -0.0643213 -8.22993e-21)
(1.00555 -0.00656753 2.36562e-22)
(1.00639 -0.0042548 3.59639e-22)
(0.0773233 0.0283211 -2.25255e-20)
(1.05457 -0.0308854 -1.0933e-20)
(1.01189 -0.00157232 0)
(1.0158 -0.0387418 4.07885e-22)
(1.12314 0.120481 7.76061e-21)
(0.1822 -0.0858916 1.37142e-22)
(1.04166 -0.00144173 -3.63069e-21)
(1.018 -0.0299409 2.58636e-22)
(1.00977 -0.000429458 2.37875e-23)
(1.12321 -0.00325584 1.82886e-20)
(1.00118 -0.0116486 0)
(1.02544 -0.00250264 0)
(1.00745 -0.00858727 8.94929e-22)
(0.223151 0.0398556 -2.03834e-20)
(1.23858 -0.106121 5.8406e-20)
(0.681797 0.0939437 -6.53817e-22)
(0.999347 -0.0182541 6.90341e-21)
(1.02558 -0.00230495 0)
(1.21065 -0.0687166 0)
(0.281224 0.0542157 1.86323e-20)
(1.00001 -4.22643e-05 1.39393e-21)
(1.00998 -0.0684483 -1.19846e-21)
(1.01026 -0.0189616 -8.7972e-22)
(0.888033 -0.514035 9.30338e-22)
(1.0119 -0.00111689 -2.42366e-22)
(1.00332 -0.0758886 1.55724e-22)
(1.03345 -0.246304 0)
(0.968693 -0.0116748 -1.84202e-20)
(0.774598 0.0215379 -1.10675e-22)
(1.01049 -0.000222966 0)
(1.21163 -0.121462 0)
(1.00945 -0.0476206 -1.20286e-22)
(1.03237 -0.023251 0)
(0.987671 -0.0506942 5.98065e-21)
(1.03377 -0.0110166 0)
(0.0813636 0.0287104 2.9339e-20)
(0.970603 -0.0608085 1.1021e-20)
(1.03129 -0.0284159 -7.28654e-22)
(0.33703 0.0564864 -9.49841e-21)
(0.934687 0.0999745 -9.25751e-21)
(1.01275 -0.00103487 -4.65599e-22)
(0.426629 0.045493 -2.18476e-20)
(1.01184 -0.0463532 0)
(1.12113 -0.00677427 0)
(1.11227 0.0782803 -1.74896e-20)
(0.995951 -0.00925937 6.20039e-21)
(0.0891025 0.0317025 1.51322e-20)
(1.00482 -0.0116235 2.20778e-21)
(0.732883 -0.0783031 0)
(1.02928 -0.00370577 -1.83702e-21)
(1.00038 -0.00152471 0)
(1.07856 -0.0545501 1.14009e-20)
(1.02705 -0.00526899 3.02732e-21)
(0.0201961 0.0245317 0)
(1.10708 0.00782622 -1.58429e-20)
(1.01657 -0.000386709 0)
(1.07156 0.0902655 1.45777e-22)
(1.20886 -0.0417508 3.99132e-20)
(1.00575 -0.00716926 7.31659e-23)
(1.09794 0.079666 0)
(1.23084 0.0462139 1.88845e-20)
(1.0273 -0.0396211 7.0072e-22)
(1.03063 -0.0161691 2.21803e-21)
(1.12201 -0.00440013 -1.86117e-20)
(0.295233 0.0546499 1.88214e-20)
(0.473322 -0.000689534 0)
(1.20917 -0.00149836 -3.38392e-20)
(1.10159 0.11398 -9.3593e-23)
(0.399762 0.0422599 0)
(1.05363 -0.16027 4.50673e-21)
(0.274147 0.0472236 -1.0342e-20)
(0.965226 -0.0180682 9.46006e-21)
(1.01391 -0.019835 6.35262e-22)
(1.02949 -0.00427456 0)
(1.0381 -0.037131 1.95457e-21)
(0.48721 0.0672857 5.14067e-21)
(1.06998 0.089502 -8.44126e-21)
(1.02478 -0.0172261 1.07546e-21)
(1.09697 0.0149118 -7.58206e-21)
(-0.145056 -0.0078527 0)
(0.985086 -0.00439943 0)
(-0.220786 -0.0119751 0)
(1.10135 -0.116189 9.90715e-21)
(1.06137 -0.00632094 7.56474e-21)
(0.973133 -0.114294 4.72847e-22)
(1.03177 -0.0232535 -1.33557e-21)
(1.08683 0.0731038 -1.48402e-20)
(1.17962 -0.00800455 2.14762e-20)
(0.885346 -0.153652 0)
(1.03061 -0.0284426 5.20753e-22)
(1.02418 -0.0182983 -1.10184e-21)
(1.19444 0.0192017 0)
(-0.242896 0.00597083 5.00182e-20)
(0.997734 -0.0746065 -2.2883e-22)
(1.00024 -0.000113982 -7.07837e-22)
(1.03878 -0.037862 -1.02911e-22)
(0.819124 0.114913 8.51703e-21)
(1.1245 -0.0820137 -1.17687e-20)
(-0.0883787 0.0128897 2.79508e-20)
(1.15362 0.120747 -2.49571e-20)
(1.06948 0.0890527 4.54825e-21)
(0.585294 0.0677148 1.559e-20)
(0.969047 -0.0111421 1.50152e-20)
(0.35057 0.0592123 8.22711e-21)
(1.00021 -8.42912e-05 -1.15672e-21)
(0.579758 0.0875591 -1.75855e-20)
(1.03441 0.00107563 0)
(1.07177 -0.368328 -1.53462e-20)
(0.382129 0.0394421 4.94626e-20)
(1.10662 0.00677929 1.62933e-20)
(1.03437 -0.000482037 -5.65486e-23)
(1.01205 -0.00131906 2.5458e-22)
(0.172597 -0.071284 0)
(1.07582 -0.0484736 0)
(1.15403 0.0254533 -2.13149e-20)
(1.23848 0.0451493 3.45276e-20)
(1.17438 0.0911065 0)
(1.01081 -0.0325464 -1.39013e-22)
(1.08849 -0.060209 -2.03568e-22)
(1.06678 -0.146217 0)
(0.971676 -0.0616702 -1.22933e-20)
(1.07048 -0.375232 1.77401e-20)
(1.00001 -0.000313524 0)
(1.03715 -0.242197 0)
(1.01942 -0.00648963 -5.63388e-22)
(1.07058 0.120913 0)
(0.998922 -0.0170608 -3.65142e-21)
(0.995103 -0.00429384 4.70109e-23)
(0.439962 -0.013047 4.00366e-20)
(1.00996 -0.00963988 0)
(0.998167 -0.00745278 0)
(1.0048 -0.0289405 5.22237e-21)
(0.941766 -0.0538411 -2.04301e-20)
(1.00001 -0.000243386 -1.98596e-22)
(0.999993 -0.000569055 0)
(0.822804 -0.252218 -1.44556e-20)
(1.02868 -0.0766423 0)
(0.37415 0.0333954 0)
(1.00258 -0.00428232 0)
(1.06212 0.0119647 1.50605e-20)
(1.12562 0.00556678 -1.35608e-20)
(0.875171 -0.152642 4.55239e-21)
(1.01413 -0.014435 0)
(1.0069 -0.00867631 0)
(1.06785 0.0072911 8.43856e-21)
(0.986326 -0.130516 4.28273e-21)
(0.052182 0.0274612 0)
(1.13354 0.0504302 -4.05619e-21)
(0.992452 -0.0110099 -5.14744e-21)
(1.06695 -0.00462915 1.60221e-20)
(1.27257 -0.135417 -3.84097e-20)
(0.610019 0.0994459 0)
(1.00561 -0.00699478 0)
(1.025 -0.00323025 -1.95414e-21)
(-0.287728 -0.00300884 -1.13553e-19)
(0.438864 0.0729831 0)
(0.820303 -0.0814919 1.85728e-20)
(0.0606522 0.0285379 -8.73294e-21)
(1.01268 -0.0463778 0)
(1.11962 -0.0763363 -8.78158e-21)
(0.991579 -0.00368281 8.20055e-21)
(0.369376 0.031248 7.24082e-22)
(1.24854 0.0214039 1.80217e-20)
(1.07699 0.00878085 0)
(0.996772 -0.0733647 3.5701e-22)
(1.11796 0.118148 -8.32918e-21)
(1.18038 -0.0361507 1.32956e-20)
(1.02687 -0.0206837 0)
(1.21666 -0.0633587 -2.20326e-20)
(0.055232 0.026867 -9.23535e-21)
(0.687211 0.095952 0)
(1.02919 -0.0286422 -1.47236e-21)
(1.12718 0.00544123 1.43873e-20)
(1.12538 -0.000966478 -1.63354e-20)
(1.04499 -0.0216328 9.08894e-21)
(1.06489 -0.00612015 2.41013e-21)
(0.992985 -0.0230804 -3.37507e-21)
(0.26096 0.0448332 2.01085e-20)
(0.880016 0.118694 -4.37027e-21)
(1.0304 -0.0156623 0)
(0.646704 0.0544342 -9.76261e-21)
(0.890995 0.112981 8.53703e-21)
(1.00007 -0.00162944 -2.92182e-21)
(0.806392 -0.193994 0)
(1.00317 -0.0123202 -1.42826e-21)
(1.13038 0.0492837 -6.02042e-21)
(1.10481 -0.0223355 9.9064e-21)
(1.00106 -0.00875914 -1.63672e-21)
(1.26192 -0.331539 0)
(0.639455 0.0914043 0)
(1.10807 -0.0221352 -1.12062e-20)
(1.17651 -0.590082 -4.45907e-20)
(1.00304 -0.0124019 1.80072e-21)
(0.990474 -0.054477 -6.21344e-21)
(1.076 0.00883061 -4.99441e-21)
(0.974642 -0.111793 -9.44819e-22)
(1.07728 -0.0483037 -3.50404e-21)
(1.15767 -0.0040654 -1.50764e-20)
(1.00527 -0.0135002 1.3142e-21)
(1.11926 0.00112959 0)
(0.99956 -0.00372322 0)
(0.5109 0.0704814 0)
(1.1459 -0.0911972 -2.11284e-21)
(1.00678 -0.0158385 -2.6405e-21)
(1.05505 -0.360625 -1.46785e-20)
(1.01856 -0.00499997 9.55487e-22)
(0.214158 0.0471187 -1.89355e-20)
(-0.149729 -0.0241945 0)
(1.00393 -0.0042645 0)
(-0.0245284 0.0209878 0)
(1.02552 -0.00300591 9.85654e-24)
(1.01502 -0.0389588 4.59227e-23)
(1.06696 0.00714613 7.64516e-21)
(1.00404 -0.00449791 9.12712e-22)
(1.16848 -0.129573 6.8346e-21)
(1.08967 -0.0592192 -9.42007e-21)
(1.00694 -0.0156674 3.30527e-21)
(1.1409 -0.0340738 -3.22162e-21)
(1.01113 -0.0197896 1.31356e-21)
(1.10074 0.0460072 2.65953e-21)
(0.928455 0.114807 -1.50615e-21)
(1.00504 -0.0104419 1.26898e-21)
(0.997645 -0.0216358 -3.11976e-21)
(0.619615 0.0967948 -3.93196e-21)
(1.00003 -0.0010119 -9.17021e-25)
(1.02573 -0.00280379 -1.23052e-21)
(1.20648 -0.0405213 -5.76279e-20)
(0.854795 -0.147838 1.44968e-21)
(0.863997 -0.0564699 9.01703e-21)
(1.17015 -0.159459 -1.78229e-20)
(0.996658 -0.0704173 0)
(1.01312 -0.0234188 2.15661e-21)
(0.944394 -0.0363577 -9.83934e-21)
(1.15773 0.120459 2.71091e-20)
(0.212073 0.0328666 0)
(1.11086 0.0786945 1.45993e-20)
(0.247203 0.0341287 0)
(1.01938 7.34416e-05 -2.53573e-24)
(1.11558 0.0855786 -5.81698e-23)
(0.967135 -0.0178275 -9.20148e-21)
(1.04511 -0.0631242 -2.27675e-21)
(0.628325 0.070028 9.39014e-23)
(1.15903 0.0620337 5.89604e-21)
(1.04706 -0.240267 -7.48618e-21)
(1.00488 -0.0112284 0)
(1.16093 0.0623847 0)
(0.956901 -0.0616554 0)
(1.19032 0.092386 1.41766e-20)
(1.11245 0.0669639 0)
(0.938779 -0.138332 -1.60852e-20)
(0.167455 0.0231562 2.98558e-21)
(1.01025 -0.0476529 0)
(-0.14679 -0.0251918 0)
(0.869912 -0.395971 -5.19133e-21)
(1.04436 -0.0620327 0)
(1.08803 -0.0631891 -9.11278e-21)
(1.08301 -0.169551 1.10703e-22)
(1.0775 -0.182745 -8.81653e-21)
(1.09419 -0.00621318 1.84584e-20)
(1.01883 -1.0488e-05 -6.07465e-22)
(1.11669 0.0527468 0)
(1.00506 -0.0133455 -2.5562e-21)
(1.13211 0.0515455 -4.09566e-21)
(0.98664 -0.23173 0)
(1.01078 -0.0197535 0)
(1.16848 -0.156429 -2.9746e-20)
(-0.0476993 0.0159061 2.5621e-20)
(0.999107 -0.0066496 4.41732e-21)
(1.00267 -0.00425406 1.17893e-23)
(0.448101 0.0112047 0)
(0.990528 -0.0293446 4.5866e-21)
(1.02241 -0.0211239 0)
(1.18013 -0.0197707 0)
(-0.117682 -0.0162064 -3.96495e-20)
(0.369096 0.0342781 -5.56176e-21)
(1.10451 -0.0238966 -1.05125e-20)
(1.01885 -0.00153621 0)
(0.254986 0.0341785 0)
(1.14244 0.0367625 0)
(1.31392 -0.314092 0)
(0.968882 -0.0619468 7.46071e-21)
(1.10836 -0.0236406 -1.46063e-20)
(1.15574 -0.00381061 0)
(1.0422 -0.0607652 -1.8953e-21)
(1.19605 0.0204883 1.92274e-20)
(0.984942 -0.0148352 -1.05015e-21)
(-0.133587 -0.0137094 -1.24066e-19)
(0.999868 -0.0328242 1.48922e-21)
(1.06936 0.0917421 -4.67055e-21)
(0.966279 -0.0186282 -9.49906e-21)
(1.0914 -0.101589 -3.30893e-21)
(1.08765 0.0725266 0)
(1.02479 -0.000988645 0)
(0.66336 -0.291173 -4.30925e-20)
(1.02509 -0.00108567 6.80262e-24)
(1.00576 -0.0293132 -2.7942e-24)
(1.06304 0.0762312 -3.72223e-21)
(1.04426 -0.0214195 -3.65649e-21)
(-0.134439 -0.0284612 -9.06116e-20)
(0.999371 -0.0102219 0)
(1.07857 0.0953797 1.50177e-20)
(1.01317 -0.0251997 -1.15126e-21)
(0.999278 -0.0100312 1.29061e-21)
(1.01354 -0.389017 -5.44566e-22)
(1.01409 -0.000739431 -1.09704e-22)
(0.181132 0.037901 -2.81347e-20)
(1.0229 -0.0212053 0)
(0.983788 -0.131726 -1.75171e-21)
(0.995391 -0.00410433 -4.68998e-23)
(1.00002 -6.72385e-05 -1.21395e-21)
(1.15585 0.0633509 3.62532e-20)
(0.749248 -0.296581 -2.69558e-20)
(0.960335 0.0861198 1.92713e-21)
(0.214745 0.0385275 -2.07811e-20)
(-0.147049 -0.0277046 6.60411e-20)
(1.07033 0.0910675 1.24965e-20)
(1.10234 0.0586219 -3.14044e-22)
(1.03369 -0.0221944 0)
(1.04168 -0.037085 3.12768e-21)
(-0.270779 -0.0035129 0)
(0.666568 0.0941847 0)
(0.998007 -0.0215027 1.22244e-21)
(-0.138023 -0.009756 -2.58889e-21)
(0.230427 0.0337663 -8.84539e-21)
(1.09042 0.0562327 -7.32085e-21)
(1.07661 -0.109547 1.3809e-20)
(1.09628 0.0112457 -2.73326e-21)
(0.661848 0.100846 -1.71971e-20)
(1.02156 -0.0191206 -7.22771e-22)
(1.18158 -0.0621474 -4.93161e-22)
(0.250906 0.0318261 0)
(1.04335 -0.244381 8.19373e-21)
(1.22333 -0.345946 0)
(0.635094 0.1004 -4.95149e-22)
(1.06135 0.0120008 -1.18567e-20)
(1.04793 -0.0736979 6.573e-21)
(1.02816 -0.00403032 0)
(0.781114 0.112943 4.94225e-21)
(-0.0226391 0.0223978 1.4844e-20)
(1.02468 -0.00329416 3.31411e-21)
(0.765784 -0.397895 5.92093e-21)
(0.498586 0.0245112 3.00537e-20)
(1.09598 -0.0104112 1.41915e-22)
(-0.156123 -0.0235332 1.81031e-20)
(1.11804 0.0314089 -4.85459e-21)
(-0.0540594 0.0150051 -3.1528e-20)
(0.991544 -0.0252858 7.45665e-21)
(1.17973 -0.0212453 0)
(0.884545 -0.41719 0)
(1.19714 0.0237532 2.07094e-22)
(1.08874 -0.0654099 2.27844e-21)
(1.005 -0.0194018 -3.85792e-21)
(0.0170072 0.0219563 -3.61951e-21)
(1.1385 0.0517715 0)
(1.00828 -0.153969 1.01065e-21)
(0.99974 -0.00700057 9.44931e-22)
(1.13776 -0.164609 1.9251e-20)
(1.01864 -0.00147064 0)
(1.00809 -0.410288 -8.06207e-21)
(0.940963 -0.0303412 -7.62316e-21)
(1.05196 -0.0332156 4.2216e-21)
(1.01918 -0.0692997 0)
(0.979099 -0.0177551 -5.91118e-21)
(1.06119 -0.0477568 -7.68345e-21)
(1.10141 0.0454134 0)
(1.12117 -0.00100807 0)
(1.06035 0.0127237 1.64656e-21)
(1.17405 -0.178302 8.97681e-21)
(1.0162 -0.078669 2.28284e-24)
(0.733293 0.0321911 0)
(1.04112 -0.500566 2.20034e-20)
(1.03494 0.000117895 0)
(1.05122 -0.0565347 0)
(0.979213 -0.0185167 -3.12656e-21)
(1.00174 -0.00626333 0)
(0.200372 0.0379461 -5.22299e-21)
(0.478886 0.069057 0)
(1.14787 -0.00867786 -7.84222e-21)
(0.986031 -0.0161986 0)
(0.945549 -0.0347599 1.81945e-20)
(1.00521 -0.0272129 0)
(1.03448 -0.0574655 0)
(0.0373831 0.025905 -1.08025e-20)
(1.00266 -0.00449836 2.69093e-21)
(1.07117 -0.0789016 4.01283e-21)
(1.06432 -0.160599 1.46681e-20)
(0.986594 -0.00308379 6.47693e-21)
(1.02569 -0.0240857 -1.16762e-21)
(1.02428 -0.0168612 -8.1133e-22)
(1.04256 -0.0371223 -7.50966e-22)
(0.85915 -0.145768 -5.27109e-21)
(0.979985 -0.01892 -8.49726e-21)
(1.07775 0.0286067 1.40099e-20)
(1.09501 0.0114829 0)
(1.00002 -4.39806e-05 -5.4069e-22)
(1.00486 -0.0191102 0)
(0.448963 0.0421637 4.504e-20)
(0.488602 0.0613727 -3.04323e-20)
(1.0165 9.93998e-05 0)
(1.0246 -0.00061239 -1.19689e-21)
(1.03491 0.0012714 1.45118e-21)
(1.07899 0.031069 4.41182e-21)
(1.07909 0.0295373 0)
(0.401799 0.0398332 -3.68557e-20)
(1.09182 0.0559232 9.22779e-21)
(0.979465 -0.0683662 -6.37438e-21)
(0.981056 -0.00718811 0)
(1.16874 -0.0549936 -2.32534e-20)
(0.748557 0.0925141 3.10655e-20)
(0.959548 -0.0394974 -1.85344e-20)
(0.999814 -0.0065519 -3.69166e-21)
(1.01904 -0.00754449 1.72033e-23)
(0.994666 -0.00512714 0)
(1.06107 -0.160504 6.70411e-21)
(0.999636 -0.00362882 -2.79885e-21)
(0.98918 -0.0309344 0)
(1.11047 -0.251406 -1.42931e-20)
(1.02997 -0.0238628 0)
(0.0876558 0.0303937 1.06968e-21)
(-0.217199 0.00813034 0)
(1.04278 -0.0620579 -1.83513e-21)
(1.08157 -0.0337381 -1.25246e-20)
(0.991648 -0.131473 6.58242e-21)
(1.24801 0.0239957 1.63515e-20)
(1.1016 0.0301998 0)
(1.20749 0.0626949 -7.56705e-20)
(1.16491 -0.0324418 0)
(0.312743 0.0663039 -1.3961e-20)
(1.05011 -0.0553147 0)
(1.00199 -0.0106933 -3.21366e-21)
(1.08905 -0.101541 1.48952e-21)
(-0.150076 -0.0229544 0)
(1.13969 -0.0351356 3.4867e-21)
(0.990509 -0.00433903 -2.38191e-21)
(1.08981 0.108518 6.32431e-21)
(1.01502 -0.00942232 2.94888e-22)
(1.01887 -0.00766512 6.11795e-22)
(1.14849 -0.0333231 -1.27178e-22)
(1.16083 -0.595124 -8.08886e-21)
(1.10215 0.0313032 1.37836e-20)
(1.08463 -0.226902 -1.28972e-20)
(0.98654 -0.0160556 9.59029e-22)
(1.11883 0.0303764 -1.44625e-20)
(0.991053 -0.236018 1.36769e-21)
(1.10937 0.112771 1.34162e-20)
(1.01768 -0.0133181 0)
(1.15979 0.0245584 6.18643e-21)
(1.06765 0.0198118 5.50195e-21)
(1.24638 0.0254246 0)
(1.0594 0.0146033 1.57247e-21)
(1.01024 -0.0321119 1.27676e-22)
(0.531305 0.08942 -2.89018e-20)
(1.05174 -0.0130642 -4.10831e-21)
(0.0467797 0.0258843 9.93465e-21)
(-0.118155 0.0093074 -1.28794e-20)
(0.994244 -0.00570744 0)
(0.999934 -0.00114181 0)
(1.06976 -0.527288 9.74556e-20)
(1.03055 -0.0238969 0)
(1.02731 -0.017467 0)
(0.0985098 0.0327969 2.0452e-21)
(1.01813 -0.00791599 1.06332e-21)
(0.364146 0.0616426 0)
(0.98678 -0.00419404 0)
(0.557158 0.0931604 -6.28819e-21)
(1.14236 -0.0552104 0)
(1.19615 0.0107906 -1.80509e-20)
(0.24814 0.0446545 0)
(1.00044 -0.0016325 0)
(0.995622 -0.00433661 0)
(0.97304 -0.0283328 4.07727e-21)
(1.00886 -0.0267987 1.31829e-21)
(1.03629 -0.00891056 2.9511e-21)
(1.07497 -0.108311 -1.81467e-20)
(1.04633 -0.0210241 -2.3462e-21)
(1.00282 -0.0121218 0)
(1.11422 -0.00961391 -2.58415e-20)
(1.19999 0.0236049 0)
(1.00273 -0.0118829 0)
(0.998056 -0.0197837 -4.11211e-21)
(1.07469 -0.0790524 -1.23977e-20)
(0.999035 -0.00995695 -5.73184e-21)
(0.999947 -0.00108786 4.74951e-21)
(1.01667 -0.0359523 5.22093e-22)
(0.0424816 0.0240431 3.10559e-20)
(0.977028 -0.0236864 1.94035e-21)
(1.0128 -0.00792081 0)
(1.02667 -0.244855 4.53193e-21)
(0.992625 -0.011624 3.56833e-22)
(1.02696 -0.0211862 4.10259e-22)
(-0.205363 0.00968713 0)
(0.809544 -0.185433 1.89968e-20)
(1.01791 -0.0719028 -1.94788e-22)
(1.00822 -0.234857 1.13475e-21)
(1.01308 -0.007974 -1.56765e-23)
(1.11342 -0.0170712 0)
(1.06717 0.0191807 5.17278e-21)
(1.01617 -0.000160297 1.80644e-21)
(1.05714 -0.237702 -4.18595e-21)
(0.463144 0.0526831 1.98412e-20)
(0.885836 -0.190483 -2.18628e-20)
(1.1798 -0.0581425 -1.26964e-20)
(0.973406 -0.11954 3.69182e-21)
(1.01971 -0.00638734 0)
(-0.111357 0.0121671 0)
(1.01785 -0.0076872 0)
(1.05965 0.120711 0)
(1.00592 -0.00369483 -1.44648e-21)
(1.09167 -0.0402813 1.35305e-20)
(0.99269 -0.0289741 0)
(1.00171 -0.00248643 0)
(1.13509 0.051009 9.15063e-21)
(1.14591 -0.0582484 -1.59998e-20)
(1.00153 -0.00613366 1.72208e-21)
(1.02182 -0.021665 0)
(1.11251 0.0659346 0)
(0.215503 0.0435574 -1.98306e-20)
(1.09036 -0.0204332 2.13965e-21)
(0.999569 -0.0741106 7.16959e-21)
(1.03659 -0.0278948 4.05264e-21)
(1.21353 0.0639274 5.5414e-20)
(1.0261 -0.00582163 3.06659e-22)
(0.590611 0.0307652 -1.55335e-20)
(1.0137 -0.0240586 1.16509e-22)
(1.00887 -0.0691574 1.25079e-21)
(0.970307 -0.0273315 -9.00595e-21)
(1.17013 -0.150303 -1.50251e-20)
(1.02229 -0.0217377 -6.72561e-22)
(0.0726368 0.00122177 0)
(1.04959 0.00609479 -4.45585e-21)
(1.02074 -0.0792147 0)
(0.981827 -0.0702771 6.81558e-21)
(1.01186 -0.0333325 -2.04547e-21)
(1.00512 -0.397705 7.05673e-21)
(1.19065 -0.413009 -8.53446e-20)
(0.96315 -0.0171523 -7.73262e-21)
(1.09139 -0.0378083 -9.39088e-21)
(1.08186 -0.0326127 6.26526e-21)
(1.0599 -0.621047 -2.45276e-20)
(0.992923 -0.0303849 -4.45551e-21)
(0.498844 0.040449 -3.74101e-20)
(-0.128451 0.0127634 -3.53969e-20)
(1.16102 -0.14035 -3.81427e-20)
(1.02567 -0.0378502 -1.01495e-21)