/*--------------------------------*- C++ -*----------------------------------*\
| =========                 |                                                 |
| \\      /  F ield         | OpenFOAM: The Open Source CFD Toolbox           |
|  \\    /   O peration     | Version:  v2012                                 |
|   \\  /    A nd           | Website:  www.openfoam.com                      |
|    \\/     M anipulation  |                                                 |
\*---------------------------------------------------------------------------*/
FoamFile
{
    version     2.0;
    format      ascii;
    class       volVectorField;
    location    "100";
    object      U_0;
}
// * * * * * * * * * * * * * * * * * * * * * * * * * * * * * * * * * * * * * //

dimensions      [0 1 -1 0 0 0 0];


internalField   nonuniform List<vector> 
37190
(
(0.991074 -0.00621439 5.22663e-21)
(-0.0141144 0.0218273 -3.31098e-21)
(1.03386 -0.00222586 2.44015e-21)
(0.973907 -0.259155 4.0699e-22)
(0.0720533 0.0282929 3.3212e-20)
(1.01375 -0.0201664 4.6788e-23)
(1.14833 -0.0345167 2.08801e-20)
(1.00189 -0.0646476 7.7736e-21)
(0.994668 -0.247142 -8.4937e-23)
(1.09194 0.0831995 1.15415e-20)
(0.991942 -0.0135647 4.93141e-21)
(1.02208 -0.00230139 3.46316e-21)
(1.00116 -0.100623 -4.03793e-21)
(1.01382 -0.00067585 -3.11296e-22)
(0.73962 0.10468 7.69914e-21)
(1.00863 -0.0362228 -4.61483e-24)
(0.973257 -0.0613724 2.63976e-21)
(1.17939 -0.0607109 -4.33961e-22)
(0.59403 0.0951386 1.0081e-21)
(1.22481 0.0611113 -2.96102e-20)
(1.01838 -0.073305 0)
(0.990688 -0.00608497 -6.45473e-21)
(0.685239 0.0363477 3.15832e-20)
(1.06461 0.00806545 -1.6491e-21)
(0.955591 -0.0575497 -1.72103e-22)
(1.00896 -0.0366341 1.09598e-23)
(1.14778 -0.0598002 1.59781e-20)
(1.10788 0.0377239 -1.87245e-20)
(0.598397 -0.649522 2.00181e-20)
(-0.0557668 -0.0177932 -2.91962e-20)
(0.494737 0.0629903 1.17624e-22)
(1.01021 -0.00981905 -1.76566e-23)
(1.0946 0.0566319 9.9565e-21)
(1.11592 0.0909019 0)
(1.13821 0.0502419 -2.24455e-20)
(1.11653 0.031348 1.98135e-20)
(1.02522 -0.00140693 1.19689e-21)
(1.06471 0.00720383 0)
(1.06454 -0.00688862 1.00061e-20)
(1.00073 -0.0269292 -2.19633e-21)
(1.0803 0.0692503 -3.44131e-21)
(-0.10477 0.0111154 1.54273e-20)
(0.953951 -0.0514809 0)
(1.16712 0.0206302 -4.38595e-20)
(0.994758 -0.00484063 -3.10578e-21)
(1.21609 -0.0276014 2.27352e-20)
(-0.0528584 -0.031711 0)
(1.2221 -0.33767 0)
(1.03381 -0.00184192 0)
(0.0775198 0.0301331 -3.20999e-20)
(0.964406 -0.0188984 -9.64128e-21)
(0.998993 -0.0322106 0)
(1.07876 0.0287277 -7.38453e-21)
(0.890351 -0.152689 -7.65127e-21)
(1.00023 -0.00500812 1.41501e-21)
(1.05086 -0.0130615 -1.69836e-21)
(1.0918 0.0819782 -1.44743e-20)
(1.02511 -0.00156423 1.08319e-21)
(0.27445 0.0345902 7.24962e-21)
(1.01928 -0.00436019 -6.82605e-22)
(0.270029 0.0318405 -7.96963e-21)
(1.11596 0.0322492 -1.24612e-20)
(1.01965 0.000318395 2.98752e-22)
(0.044771 0.0261901 5.84353e-20)
(0.977711 -0.0679739 6.08771e-21)
(0.954628 -0.054599 0)
(1.01757 -0.0129512 0)
(1.20872 -0.0445948 -1.99301e-20)
(0.727526 -0.254271 1.24834e-21)
(1.01957 0.000224016 0)
(1.00026 -0.00487339 -5.9828e-21)
(0.973355 -0.00758285 -2.07913e-21)
(1.0915 -0.0211736 -2.03766e-21)
(1.01231 -0.0235476 0)
(0.99326 -0.0286852 0)
(1.0183 -0.0401093 1.58648e-22)
(0.235206 0.0429109 -9.35075e-21)
(1.12495 -0.0800313 5.81478e-21)
(-0.0866232 0.0134228 -2.73257e-20)
(1.09283 -0.0414725 -8.93035e-21)
(1.00177 -0.000246363 -7.16562e-24)
(0.973055 -0.125287 0)
(1.01219 -0.0230021 0)
(0.877022 -0.423953 0)
(1.3142 -0.307001 0)
(0.974005 -0.060503 0)
(0.412545 0.0684027 6.4984e-21)
(-0.0747757 -0.0173631 9.18627e-20)
(0.725755 0.103776 -1.79812e-21)
(1.01034 -0.0100983 2.9303e-22)
(0.201404 0.040403 2.62364e-22)
(1.09473 0.0588535 -5.39797e-21)
(0.953013 -0.0536008 8.35509e-21)
(1.01355 -0.0235681 -5.01673e-22)
(0.997387 -0.0197874 0)
(0.954172 -0.0571178 7.82187e-21)
(-0.0953322 0.0124958 3.95489e-20)
(1.0054 -0.0110157 -5.62002e-23)
(0.974984 -0.252307 -1.1808e-21)
(0.512637 -0.000476451 0)
(0.952876 -0.0507609 8.34088e-21)
(1.11447 -0.290217 0)
(0.18455 0.0330035 4.32209e-20)
(0.436091 -0.011589 0)
(0.997992 -0.00745331 -5.73613e-21)
(1.0084 -0.0489988 1.71954e-23)
(0.112054 0.0359796 -9.93958e-21)
(1.00085 -0.00527734 2.1297e-21)
(1.01722 -0.0127925 0)
(0.565427 0.092595 1.73894e-20)
(0.514873 0.0727302 0)
(0.627276 0.0959847 0)
(1.06669 -0.0038258 -7.2755e-21)
(1.02833 -0.00212192 -9.00316e-22)
(1.0416 -0.0237463 4.61603e-21)
(0.995651 -0.00920775 0)
(1.12685 -0.0793008 0)
(1.06488 -0.00733235 -3.95341e-21)
(1.00026 -0.0269213 0)
(1.03657 -0.0557676 -2.50505e-21)
(0.992364 -0.0239107 0)
(0.369328 0.0253577 0)
(0.993822 -0.0045875 0)
(0.973583 -0.00685619 7.85492e-21)
(1.00127 -0.0119099 -2.35466e-21)
(0.662154 0.0691058 1.20979e-22)
(1.02814 -0.00231811 0)
(1.00243 -0.011306 3.24726e-21)
(1.0667 0.0758987 0)
(0.753899 -0.236433 -2.98459e-20)
(1.00239 -0.0115556 -4.00032e-21)
(0.00826939 0.0206674 -2.25812e-20)
(1.08242 -0.00800097 0)
(0.956769 -0.0605709 -1.06648e-20)
(0.151976 0.0314871 2.54623e-20)
(1.02555 -0.0213343 3.50748e-22)
(1.07307 -0.182957 -1.02128e-20)
(1.21105 -0.0458956 0)
(1.21462 -0.0295475 0)
(0.961091 -0.0394611 9.9461e-21)
(1.09011 -0.00836213 0)
(1.10907 0.0378994 7.13817e-21)
(0.989596 -0.24308 -1.68339e-21)
(0.954983 -0.0597042 1.66497e-20)
(0.997444 -0.0192643 2.39091e-21)
(1.01872 -0.0395279 -4.0291e-22)
(0.385639 0.0482451 0)
(1.02704 -0.0625847 -8.26598e-22)
(1.21535 -0.0540501 1.12971e-20)
(1.02716 -0.00644824 0)
(1.00141 -0.0154237 0)
(0.948558 -0.138869 0)
(1.16396 0.060909 2.73314e-20)
(1.00255 -0.00454571 -3.85391e-21)
(0.274549 0.0316631 -2.02374e-21)
(1.02003 -0.00729385 0)
(-0.0782257 0.0146496 -7.73675e-21)
(0.99211 -0.0131415 -1.12189e-20)
(0.129351 0.0393539 0)
(1.07903 -0.17065 4.12594e-21)
(1.13702 -0.160542 -4.78613e-22)
(0.980658 -0.00597816 0)
(-0.235974 0.00615268 -3.85349e-20)
(0.451909 0.0626788 0)
(0.945736 -0.137215 0)
(1.03572 -0.0546968 -1.2582e-22)
(0.782621 0.0959155 -2.88367e-20)
(1.18019 0.0057514 0)
(0.536152 0.0576165 7.97109e-21)
(1.09551 0.080628 7.36344e-21)
(1.02505 -0.0212542 6.46914e-22)
(0.471353 0.0658253 5.23937e-21)
(0.980147 -0.00581119 0)
(1.05181 -0.075981 0)
(0.377401 0.0274335 0)
(1.11332 0.0636798 0)
(1.01236 -0.0337611 -2.52817e-21)
(0.967627 -0.0609255 -6.75029e-21)
(1.10777 -0.212184 0)
(1.06707 0.00904477 0)
(1.16556 0.0198412 2.39472e-20)
(0.998464 -0.00716933 0)
(0.998492 -0.00740976 0)
(1.034 -0.0106082 0)
(0.307223 0.057438 -1.76148e-20)
(0.998948 -0.00289659 2.16273e-21)
(1.08979 0.0562888 0)
(1.10939 -0.0196122 0)
(0.619512 0.0390088 1.0607e-20)
(1.2073 0.0122489 -7.65496e-22)
(1.00073 -0.00536529 0)
(1.17987 -0.0686303 -7.60695e-21)
(1.02944 -0.00340111 1.74219e-21)
(1.05372 0.00471773 6.21562e-21)
(1.09671 0.106389 -9.7982e-21)
(1.08368 -0.00759073 -1.27734e-20)
(1.0044 -0.0284475 0)
(1.14898 -0.0549363 3.45244e-21)
(0.440963 0.0133035 -6.85859e-20)
(0.607968 0.0991043 -9.10132e-21)
(1.19877 -0.294736 7.03452e-21)
(1.03126 -0.00996285 0)
(1.00148 -0.0150477 -2.12946e-21)
(0.999506 -0.00398664 0)
(0.417412 0.0584255 -1.52275e-22)
(1.12114 -0.077951 -1.01819e-20)
(1.14663 -0.0348696 0)
(0.969874 -0.0282737 -4.41172e-21)
(0.992916 -0.0237333 0)
(0.396731 0.0666782 -6.4348e-21)
(0.992385 -0.0113589 7.86014e-21)
(0.513897 0.0551353 4.1361e-21)
(1.03108 -0.0102871 -1.43015e-21)
(1.10214 -0.0918849 3.87733e-21)
(0.0226916 0.0233012 7.34848e-21)
(0.520894 0.0407854 0)
(1.21584 -0.0564594 -1.50956e-20)
(1.21396 -0.0647092 0)
(1.11432 0.0912448 3.26991e-21)
(1.00163 -0.006129 -1.84849e-21)
(0.285768 0.0347488 -3.98962e-21)
(1.02174 -0.00228633 -4.04701e-21)
(0.985299 -0.00389006 -1.01238e-21)
(0.748527 -0.155748 0)
(0.24593 0.0544947 0)
(0.990216 -0.00278815 1.3529e-21)
(-0.103658 0.0126158 0)
(0.998354 -0.0200858 3.26891e-21)
(1.08713 -0.115301 7.23222e-21)
(-0.238048 -0.0103611 -6.71006e-20)
(0.953439 -0.04834 7.32375e-21)
(0.9856 -0.0155494 1.64666e-20)
(1.01895 -0.00423912 1.75104e-23)
(0.389458 0.0674732 -4.36791e-21)
(1.01692 -0.155288 0)
(1.15629 0.020043 1.9069e-20)
(1.00059 -0.419537 0)
(-0.248745 -0.00230179 6.04234e-20)
(1.01929 1.79547e-05 3.26334e-22)
(1.04059 -0.0251172 -3.75322e-21)
(1.08983 -0.227037 6.99788e-21)
(0.998957 -0.0027647 9.47851e-22)
(0.412893 0.056256 -5.3851e-21)
(1.00045 -0.0328486 -1.29639e-21)
(1.01074 -0.0332489 0)
(1.19504 0.0498678 2.10954e-20)
(1.00481 -0.0109252 9.80194e-22)
(0.0635128 0.0278006 0)
(1.09434 0.0574307 1.03787e-20)
(1.17717 -0.0172638 8.12518e-22)
(1.0266 -0.0257351 -1.21963e-21)
(1.11053 0.0396114 0)
(0.98569 -0.0150981 -1.39837e-20)
(0.968091 -0.122348 -8.28303e-21)
(1.07472 -0.0677832 -6.98635e-21)
(0.994532 -0.00419154 5.2015e-21)
(1.17875 -0.0701952 0)
(0.998786 -0.00334792 -4.14552e-21)
(1.07088 -0.178911 1.58465e-20)
(1.00497 -0.0101452 9.4596e-22)
(0.0691792 0.0294779 8.52399e-21)
(1.09475 -0.0100569 1.12968e-20)
(1.02689 -0.0061647 -1.52211e-22)
(0.540854 0.0669626 -1.32054e-20)
(1.06386 -0.0185788 0)
(1.01692 -0.0121255 6.11571e-23)
(1.01136 -0.000380124 0)
(0.95213 -0.047362 -7.79156e-21)
(0.25766 0.0544852 0)
(1.02542 -0.00184904 -1.18599e-21)
(0.846207 0.0176166 4.96311e-20)
(0.537761 0.0842635 3.88554e-21)
(1.11259 0.0908051 -6.61997e-21)
(0.880517 -0.148844 -8.57383e-22)
(-0.143817 -0.0263168 -5.99425e-20)
(1.0349 -0.000702191 1.86446e-21)
(1.02152 -0.0196209 5.84474e-22)
(-0.0356731 0.0182101 1.19913e-20)
(1.09737 0.0142193 1.1315e-20)
(1.09044 -0.00733865 8.10244e-21)
(0.622933 -0.654387 1.88444e-20)
(0.973541 -0.00900757 2.04127e-20)
(1.20913 -0.119282 1.6284e-20)
(1.07966 0.0686888 -3.1545e-21)
(1.06291 -0.01828 -6.49071e-21)
(1.08984 -0.0242577 0)
(1.04232 -0.00129815 6.34584e-21)
(0.973908 -0.00849723 -1.19808e-20)
(1.14443 -0.0340237 2.00818e-22)
(0.994847 -0.00403927 -5.32151e-21)
(1.04315 0.00358462 -6.49379e-21)
(1.13087 0.0546393 3.75823e-21)
(0.756196 -0.149591 0)
(1.14186 -0.0574836 1.37432e-20)
(-0.152244 -0.0250622 9.99772e-20)
(0.989368 -0.00383207 2.0015e-23)
(1.02529 -0.0259436 0)
(0.294973 0.0572445 0)
(1.12084 0.000499182 0)
(1.02527 -0.00203218 0)
(-0.091911 0.012788 0)
(1.24378 0.0205495 -1.84375e-20)
(0.942689 -0.0306275 -4.22642e-21)
(1.10842 0.0779481 -2.17194e-20)
(1.03672 -0.00933423 1.95783e-22)
(1.02829 -0.00287846 -4.32014e-21)
(1.01725 -0.012405 -2.10911e-23)
(0.998789 -0.00318483 1.98888e-21)
(1.10072 -0.517342 0)
(1.05066 -0.0746685 1.59153e-21)
(0.999963 -0.00100305 -1.51516e-21)
(0.24762 0.0493002 4.59451e-20)
(1.01432 -0.153744 1.96282e-22)
(1.12131 -0.28826 -1.51354e-20)
(-0.265516 -0.00275721 7.09472e-20)
(0.267418 -0.0958875 -5.49111e-20)
(0.974317 -0.127506 9.632e-21)
(1.06435 0.0760994 0)
(1.01238 -0.207679 -1.50094e-21)
(1.02846 -0.00264368 0)
(0.989856 -0.00247199 1.25659e-23)
(0.858084 -0.090667 0)
(1.11173 0.089425 0)
(1.0297 -0.0292635 0)
(0.391226 0.0407413 -1.12741e-20)
(1.11492 0.0789363 -1.49895e-20)
(1.1664 -0.0556264 -2.09251e-20)
(0.469621 0.0117817 1.05346e-19)
(1.00572 -0.00677186 0)
(0.465406 0.0344009 -2.62784e-20)
(1.06714 -0.143577 0)
(1.11924 0.00233161 -5.39259e-21)
(1.01828 -0.030529 -6.37073e-23)
(1.0935 0.0944269 0)
(1.16214 0.0604398 -3.49267e-20)
(-0.0183327 0.0207401 1.50938e-21)
(1.06926 0.0907232 0)
(0.826138 -0.245779 1.94033e-20)
(1.05495 -0.0317267 5.78884e-21)
(0.0524905 0.0268594 -3.0827e-20)
(0.991773 -0.0578529 -7.76309e-21)
(1.10958 0.0775385 1.79693e-20)
(1.04106 -0.0239776 0)
(1.05036 -0.0124403 0)
(0.126756 0.0392507 -1.23634e-21)
(1.19155 -0.293756 7.47057e-21)
(1.09697 0.0810764 -1.5149e-20)
(0.999954 -0.000975373 1.61845e-21)
(1.00357 -0.0175688 -2.14224e-21)
(1.02674 -0.00497932 -4.10627e-21)
(0.999821 -0.00627842 4.34536e-23)
(0.594796 0.0535016 1.06504e-20)
(1.01339 -0.0256953 1.0162e-21)
(1.03441 -8.44644e-05 0)
(0.974935 -0.117064 -4.42522e-22)
(1.22299 0.0481963 0)
(1.01604 -0.00997697 4.24942e-22)
(0.649557 0.0939556 5.87117e-21)
(1.15727 -0.139063 3.28436e-20)
(1.00205 -0.0627043 -6.03711e-21)
(1.05539 -0.163973 -4.51148e-21)
(-0.100105 0.0130006 3.11252e-20)
(1.14084 -0.13233 1.76669e-20)
(0.136133 0.0398097 0)
(1.00335 -0.111945 -2.92374e-21)
(1.18016 -0.0383433 3.8553e-20)
(0.984933 -0.0142434 0)
(1.01208 -0.002203 0)
(1.13055 0.0509937 -8.05333e-21)
(1.10357 -0.0934462 -1.32828e-20)
(0.992789 -0.0572824 5.94369e-21)
(0.753442 -0.139941 1.75213e-20)
(1.00503 -0.110845 -3.6133e-21)
(1.23595 0.0211948 1.60764e-20)
(1.02813 -0.0630065 0)
(1.09136 0.055324 -1.27385e-20)
(1.17917 -0.0176585 -1.86973e-20)
(1.20761 0.0135675 -1.23266e-20)
(1.18175 -0.0249946 0)
(-0.107823 0.012338 -3.85676e-20)
(0.947053 -0.0629372 0)
(1.23558 -0.103777 -5.37235e-20)
(0.901322 0.098511 0)
(1.10259 -0.117809 -1.17177e-20)
(1.14298 -0.0351095 0)
(0.65627 0.0913812 0)
(1.14946 -0.0528234 -1.99641e-20)
(1.08556 -0.11352 -2.80425e-22)
(1.15424 0.0203053 0)
(0.853716 -0.0917726 1.54151e-20)
(1.04262 0.00375208 6.13608e-21)
(1.09846 0.0687449 0)
(1.08732 -0.0665679 -2.50046e-21)
(1.04122 -0.0248541 -2.5494e-21)
(0.963395 -0.0632531 1.72872e-20)
(1.0156 -0.0105917 0)
(1.06821 0.0900161 -6.94384e-21)
(1.00126 -0.102541 1.76768e-21)
(0.999994 -0.000752486 -2.66505e-23)
(1.21353 -0.0679416 0)
(1.01204 -0.00176357 0)
(0.204932 0.0392445 2.67097e-20)
(1.00244 -0.0749352 0)
(0.992273 -0.0245847 -6.53124e-21)
(0.964445 -0.0643228 -8.22678e-21)
(1.00556 -0.00656823 2.35582e-22)
(1.00639 -0.00425523 3.57316e-22)
(0.0775032 0.0283777 -2.25231e-20)
(1.05458 -0.0308841 -1.09489e-20)
(1.01189 -0.0015722 0)
(1.0158 -0.0387411 4.05581e-22)
(1.12287 0.120452 7.76052e-21)
(0.182245 -0.0858977 1.37229e-22)
(1.04166 -0.00143909 -3.63799e-21)
(1.018 -0.02994 2.53256e-22)
(1.00977 -0.000429377 2.18273e-23)
(1.12322 -0.0032415 1.83027e-20)
(1.00118 -0.0116487 0)
(1.02544 -0.00250122 0)
(1.00745 -0.00858801 8.90266e-22)
(0.223071 0.0399195 -2.04078e-20)
(1.23856 -0.106146 5.84167e-20)
(0.681893 0.0938475 -6.54159e-22)
(0.999348 -0.0182567 6.89646e-21)
(1.02558 -0.00230356 0)
(1.21066 -0.068745 0)
(0.281237 0.0543555 1.86478e-20)
(1.00001 -4.22935e-05 1.39014e-21)
(1.00998 -0.0684496 -1.19547e-21)
(1.01026 -0.0189616 -8.75932e-22)
(0.888052 -0.514048 9.28117e-22)
(1.0119 -0.0011168 -2.49975e-22)
(1.00333 -0.0758902 1.5575e-22)
(1.03346 -0.246306 0)
(0.968694 -0.0116775 -1.84168e-20)
(0.774442 0.0214365 -1.11002e-22)
(1.01049 -0.000222933 0)
(1.21162 -0.121475 0)
(1.00945 -0.0476202 -1.20007e-22)
(1.03237 -0.0232516 0)
(0.987674 -0.0506943 5.97648e-21)
(1.03377 -0.0110149 0)
(0.0813409 0.0286097 2.93562e-20)
(0.970605 -0.0608096 1.10159e-20)
(1.03129 -0.0284167 -7.31023e-22)
(0.337329 0.05647 -9.49953e-21)
(0.934713 0.0997736 -9.26871e-21)
(1.01275 -0.00103482 -4.74191e-22)
(0.426595 0.0454792 -2.18728e-20)
(1.01184 -0.0463529 0)
(1.12113 -0.00676125 0)
(1.1122 0.0782623 -1.75044e-20)
(0.995951 -0.00925912 6.19691e-21)
(0.0892832 0.0317642 1.51308e-20)
(1.00482 -0.0116247 2.20239e-21)
(0.732984 -0.0782757 0)
(1.02928 -0.00370385 -1.84246e-21)
(1.00038 -0.00152548 0)
(1.07857 -0.0545494 1.14115e-20)
(1.02705 -0.00526729 3.03743e-21)
(0.0201629 0.0244433 0)
(1.10708 0.00783929 -1.58572e-20)
(1.01657 -0.0003866 0)
(1.07153 0.0900157 1.44844e-22)
(1.20889 -0.0417804 3.99296e-20)
(1.00575 -0.00717005 7.28619e-23)
(1.09789 0.0796035 0)
(1.23095 0.0463379 1.8904e-20)
(1.02731 -0.0396216 7.04717e-22)
(1.03064 -0.0161692 2.22473e-21)
(1.12202 -0.00438626 -1.8626e-20)
(0.29525 0.0547907 1.8838e-20)
(0.473312 -0.000684562 0)
(1.20925 -0.00150589 -3.38612e-20)
(1.1018 0.114195 -9.40558e-23)
(0.399718 0.0422318 0)
(1.05364 -0.160273 4.51164e-21)
(0.27411 0.0473258 -1.03537e-20)
(0.965227 -0.0180702 9.45804e-21)
(1.01391 -0.019834 6.29445e-22)
(1.02949 -0.00427257 0)
(1.03811 -0.037132 1.95933e-21)
(0.487398 0.0671924 5.14984e-21)
(1.06995 0.0892627 -8.45826e-21)
(1.02478 -0.0172266 1.08074e-21)
(1.09697 0.0149228 -7.58972e-21)
(-0.145064 -0.00785449 0)
(0.985087 -0.00440294 0)
(-0.220779 -0.0119632 0)
(1.10136 -0.116192 9.91312e-21)
(1.06137 -0.00631568 7.57516e-21)
(0.973137 -0.114298 4.72518e-22)
(1.03178 -0.0232541 -1.33978e-21)
(1.08683 0.0730184 -1.48657e-20)
(1.17967 -0.00799429 2.14895e-20)
(0.885351 -0.153659 0)
(1.03062 -0.0284433 5.22728e-22)
(1.02418 -0.0182986 -1.10756e-21)
(1.19451 0.0192425 0)
(-0.242768 0.00596681 5.00217e-20)
(0.997737 -0.074608 -2.28358e-22)
(1.00024 -0.000114052 -7.05856e-22)
(1.03878 -0.0378631 -1.02946e-22)
(0.819378 0.114991 8.51448e-21)
(1.1245 -0.0820162 -1.17752e-20)
(-0.0885469 0.012913 2.7978e-20)
(1.15359 0.1209 -2.49612e-20)
(1.06944 0.0888543 4.55606e-21)
(0.585409 0.0678726 1.56052e-20)
(0.969047 -0.0111449 1.50124e-20)
(0.350861 0.0591929 8.22818e-21)
(1.00021 -8.4346e-05 -1.1535e-21)
(0.579971 0.0877423 -1.75908e-20)
(1.0344 0.00107675 0)
(1.07179 -0.368326 -1.53539e-20)
(0.382052 0.0393349 4.94991e-20)
(1.10663 0.00679211 1.6308e-20)
(1.03437 -0.000480447 -5.65778e-23)
(1.01205 -0.00131897 2.62573e-22)
(0.172649 -0.0712838 0)
(1.07582 -0.0484724 0)
(1.15405 0.0254938 -2.13308e-20)
(1.23864 0.0452695 3.45627e-20)
(1.17451 0.0913526 0)
(1.01081 -0.0325454 -1.38609e-22)
(1.0885 -0.0602085 -2.03592e-22)
(1.06678 -0.14622 0)
(0.971679 -0.0616713 -1.22877e-20)
(1.07049 -0.37523 1.77482e-20)
(1.00001 -0.000313747 0)
(1.03716 -0.242198 0)
(1.01942 -0.00648974 -5.66742e-22)
(1.0708 0.121089 0)
(0.998923 -0.0170632 -3.648e-21)
(0.995103 -0.00429306 4.69942e-23)
(0.439988 -0.0130175 4.00346e-20)
(1.00996 -0.00963973 0)
(0.998167 -0.00745233 0)
(1.0048 -0.0289408 5.21369e-21)
(0.941768 -0.0538433 -2.04254e-20)
(1.00001 -0.000243557 -1.98138e-22)
(0.999994 -0.000569756 0)
(0.822813 -0.252228 -1.44525e-20)
(1.02868 -0.0766446 0)
(0.374385 0.0333209 0)
(1.00258 -0.004282 0)
(1.06212 0.0119685 1.50825e-20)
(1.12562 0.0055843 -1.35714e-20)
(0.875176 -0.15265 4.55146e-21)
(1.01413 -0.014434 0)
(1.0069 -0.0086772 0)
(1.06785 0.00729657 8.44961e-21)
(0.986331 -0.13052 4.27798e-21)
(0.052304 0.027524 0)
(1.13352 0.0504649 -4.05945e-21)
(0.992452 -0.0110118 -5.14505e-21)
(1.06696 -0.00462325 1.60424e-20)
(1.27253 -0.135426 -3.84137e-20)
(0.610248 0.0995179 0)
(1.00561 -0.00699556 0)
(1.025 -0.00322875 -1.96128e-21)
(-0.287654 -0.00299614 -1.13561e-19)
(0.439099 0.0729529 0)
(0.820414 -0.0814689 1.85737e-20)
(0.0607879 0.0286005 -8.73332e-21)
(1.01268 -0.0463774 0)
(1.11962 -0.076338 -8.78686e-21)
(0.991579 -0.00368335 8.1983e-21)
(0.369608 0.0311773 7.26855e-22)
(1.2487 0.0214012 1.80376e-20)
(1.07699 0.00878789 0)
(0.996775 -0.0733661 3.56577e-22)
(1.1177 0.118115 -8.32981e-21)
(1.18041 -0.036158 1.33025e-20)
(1.02687 -0.0206842 0)
(1.21667 -0.0633921 -2.20394e-20)
(0.0553771 0.0269246 -9.23524e-21)
(0.687345 0.0958811 0)
(1.02919 -0.0286428 -1.47833e-21)
(1.12719 0.00545901 1.43985e-20)
(1.12539 -0.000951099 -1.63481e-20)
(1.045 -0.0216314 9.10546e-21)
(1.06489 -0.00611452 2.41312e-21)
(0.992986 -0.0230834 -3.37287e-21)
(0.260911 0.0449264 2.01319e-20)
(0.880262 0.118789 -4.36928e-21)
(1.0304 -0.0156623 0)
(0.646737 0.0545056 -9.77399e-21)
(0.891147 0.112899 8.53685e-21)
(1.00007 -0.00163072 -2.91769e-21)
(0.806398 -0.194004 0)
(1.00318 -0.0123212 -1.4258e-21)
(1.13036 0.0493139 -6.02549e-21)
(1.10482 -0.0223277 9.91445e-21)
(1.00106 -0.00875848 -1.63454e-21)
(1.26193 -0.33151 0)
(0.639578 0.0913327 0)
(1.10808 -0.0221272 -1.1215e-20)
(1.17655 -0.590081 -4.46009e-20)
(1.00304 -0.0124029 1.79761e-21)
(0.990476 -0.0544771 -6.20834e-21)
(1.076 0.00883749 -5.00046e-21)
(0.974646 -0.111797 -9.44184e-22)
(1.07729 -0.0483023 -3.50741e-21)
(1.15769 -0.00404765 -1.50864e-20)
(1.00527 -0.0135018 1.31108e-21)
(1.11926 0.00114439 0)
(0.999561 -0.00372588 0)
(0.51107 0.0703837 0)
(1.14591 -0.0912026 -2.1138e-21)
(1.00678 -0.01584 -2.63329e-21)
(1.05506 -0.360625 -1.46873e-20)
(1.01856 -0.00499992 9.61275e-22)
(0.214132 0.0472416 -1.89523e-20)
(-0.14974 -0.0241952 0)
(1.00393 -0.0042646 0)
(-0.0245753 0.0209148 0)
(1.02552 -0.00300441 9.86028e-24)
(1.01502 -0.0389581 4.57044e-23)
(1.06696 0.0071515 7.65537e-21)
(1.00404 -0.00449807 9.09285e-22)
(1.16848 -0.129579 6.83688e-21)
(1.08968 -0.0592185 -9.42775e-21)
(1.00694 -0.0156688 3.29605e-21)
(1.14091 -0.0340694 -3.22361e-21)
(1.01113 -0.0197893 1.30734e-21)
(1.10073 0.0460112 2.66273e-21)
(0.928598 0.114717 -1.50609e-21)
(1.00504 -0.010443 1.26552e-21)
(0.997646 -0.0216386 -3.11694e-21)
(0.619798 0.096788 -3.931e-21)
(1.00003 -0.00101276 -9.15754e-25)
(1.02573 -0.0028023 -1.23482e-21)
(1.20651 -0.0405485 -5.76516e-20)
(0.8548 -0.147846 1.44945e-21)
(0.863998 -0.0564767 9.01617e-21)
(1.17015 -0.159461 -1.78283e-20)
(0.996661 -0.0704185 0)
(1.01312 -0.0234178 2.14454e-21)
(0.944395 -0.0363593 -9.83739e-21)
(1.15761 0.12059 2.71125e-20)
(0.212429 0.0328719 0)
(1.11079 0.0786726 1.46116e-20)
(0.247557 0.0341168 0)
(1.01938 7.35789e-05 -2.53635e-24)
(1.11548 0.0855639 -5.791e-23)
(0.967136 -0.0178296 -9.19944e-21)
(1.04511 -0.0631262 -2.28109e-21)
(0.628456 0.0701946 9.38711e-23)
(1.15901 0.0621176 5.90026e-21)
(1.04707 -0.240268 -7.49361e-21)
(1.00488 -0.0112296 0)
(1.16091 0.0624723 0)
(0.956903 -0.0616568 0)
(1.1904 0.0926289 1.4187e-20)
(1.11241 0.0669577 0)
(0.938784 -0.138337 -1.60787e-20)
(0.16782 0.0231644 2.98478e-21)
(1.01026 -0.0476526 0)
(-0.146801 -0.0251924 0)
(0.869926 -0.395982 -5.1883e-21)
(1.04436 -0.0620346 0)
(1.08804 -0.0631889 -9.12028e-21)
(1.08302 -0.169553 1.10716e-22)
(1.07751 -0.182746 -8.82241e-21)
(1.0942 -0.00620391 1.84758e-20)
(1.01883 -1.03304e-05 -6.10558e-22)
(1.11667 0.0527589 0)
(1.00506 -0.0133471 -2.5504e-21)
(1.13208 0.0515784 -4.09896e-21)
(0.986648 -0.231734 0)
(1.01078 -0.0197532 0)
(1.16847 -0.156432 -2.97554e-20)
(-0.0477541 0.0159499 2.56374e-20)
(0.999107 -0.00665001 4.41405e-21)
(1.00268 -0.00425376 1.17534e-23)
(0.448066 0.0111902 0)
(0.990529 -0.0293465 4.58363e-21)
(1.02241 -0.0211237 0)
(1.18017 -0.0197695 0)
(-0.117689 -0.0162086 -3.96579e-20)
(0.369342 0.0342056 -5.58113e-21)
(1.10452 -0.0238891 -1.0521e-20)
(1.01885 -0.00153556 0)
(0.255338 0.0341621 0)
(1.14244 0.0368022 0)
(1.31391 -0.314048 0)
(0.968884 -0.0619478 7.45751e-21)
(1.10836 -0.0236328 -1.46177e-20)
(1.15576 -0.00379267 0)
(1.0422 -0.0607671 -1.8992e-21)
(1.19613 0.020531 1.92421e-20)
(0.984943 -0.014839 -1.04978e-21)
(-0.133595 -0.0137113 -1.24092e-19)
(0.999869 -0.0328247 1.48754e-21)
(1.0693 0.0915274 -4.67736e-21)
(0.96628 -0.0186302 -9.49704e-21)
(1.0914 -0.101592 -3.31123e-21)
(1.08765 0.0724458 0)
(1.02479 -0.000987702 0)
(0.663368 -0.291189 -4.30882e-20)
(1.02509 -0.00108468 6.80796e-24)
(1.00577 -0.0293132 -2.78924e-24)
(1.0631 0.0760095 -3.73301e-21)
(1.04426 -0.0214181 -3.66333e-21)
(-0.134449 -0.0284595 -9.06302e-20)
(0.999372 -0.0102213 0)
(1.07878 0.0956188 1.50289e-20)
(1.01317 -0.0251987 -1.1452e-21)
(0.999278 -0.0100306 1.28947e-21)
(1.01356 -0.38902 -5.44989e-22)
(1.0141 -0.00073945 -1.1089e-22)
(0.181044 0.0379809 -2.81673e-20)
(1.0229 -0.0212052 0)
(0.983793 -0.13173 -1.74966e-21)
(0.995391 -0.00410359 -4.68831e-23)
(1.00002 -6.72856e-05 -1.21065e-21)
(1.15582 0.0634301 3.62787e-20)
(0.749257 -0.296594 -2.69515e-20)
(0.960269 0.0858779 1.93191e-21)
(0.214657 0.0385827 -2.08064e-20)
(-0.147059 -0.0277031 6.60545e-20)
(1.07028 0.0908336 1.25184e-20)
(1.10232 0.058611 -3.14432e-22)
(1.03369 -0.0221948 0)
(1.04168 -0.0370859 3.13406e-21)
(-0.270708 -0.00349756 0)
(0.666685 0.0941034 0)
(0.998008 -0.0215055 1.22135e-21)
(-0.138031 -0.00975802 -2.58944e-21)
(0.230783 0.0337633 -8.84523e-21)
(1.09043 0.0562233 -7.33303e-21)
(1.07662 -0.10955 1.38207e-20)
(1.09628 0.0112565 -2.736e-21)
(0.662107 0.100989 -1.71963e-20)
(1.02156 -0.0191204 -7.28766e-22)
(1.18159 -0.0621611 -4.93176e-22)
(0.251261 0.0318094 0)
(1.04335 -0.244383 8.20185e-21)
(1.22334 -0.345925 0)
(0.635343 0.100541 -4.95143e-22)
(1.06135 0.0120044 -1.18739e-20)
(1.04793 -0.0737002 6.58387e-21)
(1.02816 -0.00402847 0)
(0.781373 0.113021 4.94071e-21)
(-0.0226734 0.0223179 1.4853e-20)
(1.02468 -0.00329267 3.32623e-21)
(0.765797 -0.397909 5.91944e-21)
(0.49849 0.0244425 3.0055e-20)
(1.09599 -0.0104023 1.41932e-22)
(-0.156133 -0.0235333 1.81068e-20)
(1.11803 0.0314276 -4.85909e-21)
(-0.0541081 0.015045 -3.1548e-20)
(0.991545 -0.0252885 7.45187e-21)
(1.17976 -0.0212451 0)
(0.88456 -0.4172 0)
(1.19722 0.0238025 2.07204e-22)
(1.08874 -0.06541 2.28028e-21)
(1.005 -0.0194036 -3.85066e-21)
(0.016842 0.0219508 -3.6236e-21)
(1.13848 0.0518134 0)
(1.00828 -0.153973 1.00604e-21)
(0.99974 -0.00700087 9.44063e-22)
(1.13776 -0.16461 1.92586e-20)
(1.01864 -0.00146999 0)
(1.00811 -0.410292 -8.06907e-21)
(0.940965 -0.030343 -7.6219e-21)
(1.05196 -0.033215 4.22806e-21)
(1.01918 -0.0693014 0)
(0.9791 -0.0177584 -5.9094e-21)
(1.06119 -0.0477568 -7.69285e-21)
(1.1014 0.0454182 0)
(1.12118 -0.000993454 0)
(1.06035 0.012727 1.64902e-21)
(1.17405 -0.178301 8.97952e-21)
(1.0162 -0.0786711 2.26756e-24)
(0.733135 0.0320763 0)
(1.04119 -0.500586 2.20079e-20)
(1.03494 0.000119367 0)
(1.05122 -0.0565362 0)
(0.979214 -0.01852 -3.12556e-21)
(1.00174 -0.00626293 0)
(0.200278 0.0380038 -5.22926e-21)
(0.478998 0.0692257 0)
(1.14789 -0.00866292 -7.84735e-21)
(0.986031 -0.0162023 0)
(0.945551 -0.0347614 1.81909e-20)
(1.00521 -0.0272135 0)
(1.03448 -0.0574673 0)
(0.037479 0.025968 -1.08048e-20)
(1.00266 -0.00449804 2.68313e-21)
(1.07118 -0.0789035 4.01675e-21)
(1.06433 -0.160602 1.4681e-20)
(0.986594 -0.00308677 6.47558e-21)
(1.02569 -0.0240859 -1.17372e-21)
(1.02428 -0.0168616 -8.1525e-22)
(1.04257 -0.0371231 -7.52602e-22)
(0.859155 -0.145776 -5.27023e-21)
(0.979986 -0.0189232 -8.49443e-21)
(1.07774 0.0286137 1.40288e-20)
(1.09501 0.0114934 0)
(1.00002 -4.40113e-05 -5.39214e-22)
(1.00486 -0.0191122 0)
(0.448922 0.0421376 4.50912e-20)
(0.488682 0.061516 -3.04644e-20)
(1.0165 9.94845e-05 0)
(1.02459 -0.000611614 -1.2013e-21)
(1.03491 0.00127251 1.45475e-21)
(1.07899 0.0310764 4.41783e-21)
(1.07909 0.0295446 0)
(0.401716 0.0397242 -3.68836e-20)
(1.09182 0.0559135 9.24258e-21)
(0.979468 -0.0683674 -6.37043e-21)
(0.981056 -0.00719219 0)
(1.16876 -0.0550011 -2.32641e-20)
(0.748783 0.0927216 3.10824e-20)
(0.95955 -0.0394984 -1.85294e-20)
(0.999814 -0.00655257 -3.68824e-21)
(1.01905 -0.00754476 1.7212e-23)
(0.994666 -0.00512647 0)
(1.06108 -0.160507 6.71054e-21)
(0.999636 -0.00363149 -2.7968e-21)
(0.989182 -0.0309361 0)
(1.11048 -0.251403 -1.42993e-20)
(1.02997 -0.0238635 0)
(0.0878504 0.0304524 1.06955e-21)
(-0.217077 0.0081176 0)
(1.04278 -0.0620599 -1.83895e-21)
(1.08158 -0.0337341 -1.25367e-20)
(0.991653 -0.131477 6.57357e-21)
(1.2482 0.0240077 1.63662e-20)
(1.10159 0.0302108 0)
(1.20759 0.062869 -7.57423e-20)
(1.16493 -0.0324413 0)
(0.312869 0.0664483 -1.39632e-20)
(1.05011 -0.0553162 0)
(1.00199 -0.0106933 -3.2088e-21)
(1.08906 -0.101543 1.49061e-21)
(-0.150086 -0.0229555 0)
(1.13971 -0.0351311 3.48887e-21)
(0.990509 -0.00434028 -2.38125e-21)
(1.08964 0.108386 6.3269e-21)
(1.01502 -0.00942178 3.0107e-22)
(1.01887 -0.00766538 6.15931e-22)
(1.14851 -0.0333191 -1.27152e-22)
(1.16087 -0.595125 -8.09102e-21)
(1.10214 0.0313142 1.37983e-20)
(1.08464 -0.226901 -1.29048e-20)
(0.986541 -0.0160594 9.58644e-22)
(1.11882 0.0303956 -1.44755e-20)
(0.991061 -0.236022 1.36117e-21)
(1.10957 0.112991 1.34224e-20)
(1.01768 -0.0133176 0)
(1.15981 0.0246012 6.19095e-21)
(1.06764 0.0198164 5.50966e-21)
(1.24655 0.0254452 0)
(1.0594 0.0146062 1.57487e-21)
(1.01024 -0.032111 1.27305e-22)
(0.53152 0.0895757 -2.89019e-20)
(1.05174 -0.0130603 -4.11474e-21)
(0.0469114 0.0259421 9.93498e-21)
(-0.118321 0.00932472 -1.28916e-20)
(0.994244 -0.00570695 0)
(0.999934 -0.00114322 0)
(1.06983 -0.527305 9.7476e-20)
(1.03055 -0.0238976 0)
(1.02731 -0.0174675 0)
(0.0987037 0.0328596 2.04492e-21)
(1.01813 -0.00791623 1.07139e-21)
(0.364428 0.0616244 0)
(0.98678 -0.00419703 0)
(0.557384 0.0933099 -6.28766e-21)
(1.14237 -0.0552113 0)
(1.19622 0.0108152 -1.80636e-20)
(0.248087 0.0447499 0)
(1.00044 -0.00163325 0)
(0.995623 -0.00433599 0)
(0.973041 -0.0283344 4.07593e-21)
(1.00886 -0.0267983 1.31492e-21)
(1.03629 -0.00890806 2.95807e-21)
(1.07497 -0.108314 -1.81621e-20)
(1.04633 -0.0210224 -2.35037e-21)
(1.00282 -0.0121225 0)
(1.11422 -0.00960252 -2.58621e-20)
(1.19993 0.0235862 0)
(1.00273 -0.0118836 0)
(0.998057 -0.0197866 -4.10834e-21)
(1.0747 -0.0790542 -1.24093e-20)
(0.999036 -0.00995629 -5.72689e-21)
(0.999947 -0.00108919 4.7457e-21)
(1.01667 -0.0359515 5.18104e-22)
(0.0423249 0.0240364 3.10919e-20)
(0.977029 -0.0236887 1.93971e-21)
(1.01281 -0.00792014 0)
(1.02667 -0.244857 4.53975e-21)
(0.992626 -0.011626 3.56665e-22)
(1.02696 -0.0211867 4.12074e-22)
(-0.205239 0.00967257 0)
(0.80955 -0.185443 1.89942e-20)
(1.01792 -0.0719045 -1.93024e-22)
(1.00823 -0.23486 1.1416e-21)
(1.01308 -0.00797331 -1.75181e-23)
(1.11343 -0.0170617 0)
(1.06717 0.0191852 5.18012e-21)
(1.01617 -0.000160202 1.81733e-21)
(1.05715 -0.237703 -4.18949e-21)
(0.463165 0.0527607 1.98651e-20)
(0.885843 -0.190491 -2.18571e-20)
(1.17982 -0.0581543 -1.27019e-20)
(0.973411 -0.119544 3.68936e-21)
(1.01971 -0.00638738 0)
(-0.11154 0.0121585 0)
(1.01785 -0.00768742 0)
(1.05988 0.120884 0)
(1.00592 -0.00369523 -1.43782e-21)
(1.09168 -0.0402777 1.35419e-20)
(0.992692 -0.0289761 0)
(1.00171 -0.00248633 0)
(1.13507 0.0510459 9.15786e-21)
(1.14592 -0.0582506 -1.60083e-20)
(1.00153 -0.00613339 1.71882e-21)
(1.02182 -0.0216647 0)
(1.11247 0.0659294 0)
(0.215443 0.0436595 -1.98517e-20)
(1.09037 -0.0204262 2.14162e-21)
(0.999572 -0.074112 7.15992e-21)
(1.03659 -0.0278955 4.06277e-21)
(1.21363 0.0641101 5.54682e-20)
(1.0261 -0.00582014 3.07722e-22)
(0.590473 0.0306576 -1.55369e-20)
(1.01371 -0.0240576 1.15738e-22)
(1.00887 -0.0691587 1.24746e-21)
(0.970308 -0.0273331 -9.00324e-21)
(1.17013 -0.150306 -1.50299e-20)
(1.02229 -0.0217375 -6.77969e-22)
(0.0726975 0.00126208 0)
(1.04958 0.00609694 -4.46358e-21)
(1.02074 -0.0792169 0)
(0.98183 -0.0702784 6.81099e-21)
(1.01186 -0.0333315 -2.0388e-21)
(1.00513 -0.397708 7.06285e-21)
(1.19067 -0.412996 -8.5366e-20)
(0.963151 -0.0171542 -7.73114e-21)
(1.0914 -0.0378043 -9.39884e-21)
(1.08186 -0.0326085 6.27123e-21)
(1.05993 -0.621056 -2.45349e-20)
(0.992924 -0.0303865 -4.45228e-21)
(0.498726 0.0403345 -3.74332e-20)
(-0.128543 0.0127213 -3.5423e-20)
(1.16101 -0.140355 -3.81557e-20)
(1.02567 -0.0378505 -1.02287e-21)
(1.00103 -0.0620238 0)