/*--------------------------------*- C++ -*----------------------------------*\
| =========                 |                                                 |
| \\      /  F ield         | OpenFOAM: The Open Source CFD Toolbox           |
|  \\    /   O peration     | Version:  v2012                                 |
|   \\  /    A nd           | Website:  www.openfoam.com                      |
|    \\/     M anipulation  |                                                 |
\*---------------------------------------------------------------------------*/
FoamFile
{
    version     2.0;
    format      ascii;
    class       volScalarField;
    location    "200";
    object      ddt0(omega);
}
// * * * * * * * * * * * * * * * * * * * * * * * * * * * * * * * * * * * * * //

dimensions      [0 0 -2 0 0 0 0];


internalField   nonuniform List<scalar> 
13917
(
8.09678e-05
5.02978e-06
-0.00642017
-2.12372e-06
1.22474e-07
0.0106421
-0.0550843
0.0177872
0.0811696
2.11629e-05
0.000273201
-0.000563806
-2.33234e-06
-0.831822
2.09135e-05
1.58142e-05
5.50242e-06
9.69695e-05
-0.00056658
-9.32968e-08
3.21652e-08
-0.060231
9.68523e-08
0.0192669
6.41969e-07
-0.0835816
0.00159822
-0.000680233
0.00771969
-0.000800901
-0.000112238
-1.1936e-05
6.7207e-05
1.60524e-06
7.56036e-07
-0.129419
-1.23764e-08
-0.0274903
-5.35917e-06
0.0252359
-1.19568e-07
1.74094e-08
-4.1618e-07
-0.00110564
-1.06105e-06
4.5346e-05
0.00012705
0.00040139
0.00457205
8.8353e-09
-3.27591e-05
-1.42665e-06
0.0105578
-5.55876e-06
5.27106e-06
-2.00962e-05
0.000628184
-4.11247e-06
-1.49879e-05
-6.69977e-07
-0.0310466
4.64224e-06
0.202912
-3.98803e-07
-0.00162373
-0.114656
-7.767e-09
-2.52511e-08
0.00166495
0.000153413
-1.16555e-07
0.0628736
0.00390015
9.30848e-07
0.00152923
-0.000685724
-0.028582
-5.823e-06
-0.0917643
-3.18205e-08
-1.43758e-07
1.7878e-09
0.000331869
-0.0215462
-0.0109924
-5.16429e-06
-2.34934e-07
-1.0437
-1.55693e-05
-4.45993e-07
0.00162957
0.00046594
1.76718e-06
4.12196e-06
-2.39369
0.0505076
0.000394792
0.000241515
-0.000730202
0.0159314
-2.62398e-07
0.000140861
-0.00110285
-6.9346e-06
2.6126e-07
0.0386377
-0.00391643
0.000458817
5.70827e-06
-2.80176e-05
0.014497
0.0213918
-0.000714344
0.0540522
-2.12633e-07
-0.0033635
8.20936e-07
-0.00252553
0.0165307
-1.25841e-05
3.39211e-08
0.00186195
0.00830163
9.8235e-05
-4.1254e-08
2.41934e-06
7.4829e-07
-7.90846e-08
-1.62718e-07
0.0642387
-0.0354646
-9.52535e-08
-1.02957e-06
3.74207e-08
0.216787
0.0188168
1.23912e-05
-0.0268874
5.31687e-08
-2.17914e-05
-0.0330081
5.69685e-07
-2.47372e-06
-0.000770376
-1.08026e-07
0.0167322
0.00825137
-1.54287e-06
6.69372e-07
-9.48682e-06
-5.88325e-05
-0.00352654
-0.000280715
-5.04882e-05
-1.6357e-05
0.0116193
0.000278516
-0.291617
-0.0197058
0.141024
2.81967e-06
0.00283058
-3.32684e-08
-4.00997e-08
-0.000703452
-0.000826527
-6.71874e-06
8.15224e-05
3.21628e-07
0.000515492
-8.50756e-05
0.0385261
-0.000809936
8.15934e-06
-0.00505033
-0.000434658
-0.0413737
-0.00112117
0.00517928
-3.47743e-07
0.000473751
-8.87421e-05
5.04892e-07
-2.96865e-07
-4.85235e-05
-0.074788
0.000901067
0.0247424
1.87493e-05
-0.000732743
-0.0582962
-0.0125528
-0.000153562
5.34463e-08
0.0232537
0.00420888
-2.49147e-07
1.88355e-06
0.00491313
3.06314
-2.25624e-05
-2.32037e-08
-5.18081e-05
-5.4567e-05
-0.00147991
0.191225
1.01479e-06
-4.14343e-06
0.000274845
-0.0424517
-3.08574e-06
-0.0493356
0.0099522
-0.000712897
1.70526e-07
-0.0374574
6.6404e-05
0.0469197
-6.89354e-07
-0.0233709
-1.07714e-06
0.000322444
-6.19204e-08
-0.0157438
0.0382105
2.46927e-05
-0.0758275
-1.72094e-05
1.51975e-07
-0.128735
-0.000919646
-8.27374e-06
0.0115999
0.0467923
-7.42276e-08
-1.39883e-05
0.0149553
-0.00601637
-6.11081e-08
4.20887e-08
0.00752823
0.000998059
1.8016e-09
-0.00204967
0.000763825
0.0049541
-7.5778e-05
-5.70616e-08
0.000910278
-0.00245387
-1.85476e-06
-0.000207823
-0.0183097
6.6077e-07
-3.81557e-06
-0.00035997
0.0178618
-0.000325258
-0.000215922
1.83041e-05
1.69783e-09
0.0424751
-0.0352451
0.00403002
2.65123e-08
0.0124725
-0.179441
-0.200105
-0.0912858
-0.000722374
-1.11258e-07
1.24777e-07
0.000203707
-0.0228231
0.000897775
-1.52595e-05
0.21544
-0.000125988
-1.90971e-07
-0.0209969
-1.87803e-07
-0.00103211
-1.90618e-05
-2.97155e-10
3.64614e-05
4.59872e-05
0.00490316
-0.0213624
-4.25244e-05
-1.7495e-06
-0.0649444
0.0153079
-0.0358873
-5.21726e-07
-0.137936
-3.0662e-08
-1.84121e-06
9.85837e-07
0.0276458
-5.25702e-08
0.00222707
-6.13792e-05
2.33454e-07
-6.28592e-05
1.55707e-05
0.00228434
-3.99301e-05
-7.71967e-05
-1.68651e-09
-3.76191e-06
0.0181462
0.0535567
9.18671e-07
7.13142e-08
-0.0174272
4.48247e-07
0.00923233
1.96892e-07
-0.00855634
-1.81314e-06
-0.0157227
-0.000244383
0.000734127
4.88989e-06
0.255595
-0.0498133
5.62817e-05
0.000957086
-0.00230512
-2.47389e-07
-0.0254526
-0.00374649
-0.113564
6.45896e-06
0.0197081
-1.51347e-05
-0.0271953
0.0410844
0.00261027
-0.000330912
-0.0175413
-1.23152e-07
-6.58807e-05
0.00720356
-4.44478e-06
1.16714e-05
-0.208967
0.00266196
8.24438e-06
0.00862463
0.00570975
-2.10462e-07
0.011599
-0.089314
3.65248e-07
-7.43347e-07
1.61194e-08
5.3934e-07
-0.0319305
0.00541967
-0.100442
0.00992405
1.05769e-06
-0.000686003
-0.0195314
-5.20372e-05
-0.0551897
-0.011401
0.0540187
4.84725e-08
0.0089713
-6.71929e-07
-0.0164306
-4.71178e-07
0.000547234
0.000885447
-1.05119e-05
-2.1234e-07
0.000195539
-1.84394e-05
0.000485601
-0.000408027
-0.0129476
0.070861
2.70783e-05
-0.000395268
9.26408e-08
-0.00448371
-0.0735022
-2.89589e-06
0.253751
1.1937e-06
-0.0101267
-1.94253e-06
-7.23453e-08
7.89924e-07
-0.0700621
-3.35955e-06
0.00715005
0.0440433
-8.84258e-05
0.0914347
4.15584e-07
0.0644604
0.046292
6.33035e-07
0.000521155
-4.56413e-06
1.12748e-06
-0.000941954
1.39617e-09
6.62968e-07
-6.35716e-07
-0.00082025
-8.05451e-09
0.0213555
-0.0653294
-0.016802
-0.00141581
-0.0239215
0.0404199
-3.35922e-05
1.16875e-06
0.00178893
-4.73148e-06
-1.67831e-05
1.32359e-07
0.0161403
-0.0597444
-0.0412669
1.59506e-05
-8.61105e-05
-1.36612e-05
-7.87418e-06
0.000536705
1.17223e-05
0.0313289
5.6485e-06
-5.95405e-08
0.0203178
-0.0403576
-0.0467813
0.000287765
-0.0205257
-0.032507
0.0170828
-0.0539889
1.43575e-07
0.000207364
1.37987e-05
-4.32072e-06
0.102369
0.000149769
2.61117e-07
5.40418e-05
-7.88254e-05
-0.0432611
6.65623e-07
0.00139049
0.0856242
-0.0185651
0.00579231
2.40058e-08
-3.31138e-06
-9.29655e-08
-0.000151269
6.38729e-08
-0.0552748
0.0474228
7.05634e-05
0.00440222
-1.68902e-05
0.000198703
0.0146901
0.00815709
-0.000306897
-0.0345011
0.00138578
0.000208581
0.00169794
-0.000172488
-0.000108086
0.0087282
-0.000295221
0.000534254
5.90572e-07
0.186315
-9.48106e-05
-9.92609e-07
5.93517e-05
-6.16396e-06
-0.0401508
0.0509486
1.85963e-07
-1.63389e-07
-0.0276663
0.0627539
3.13651e-09
0.0213307
-4.58966e-06
0.00120256
2.83093e-07
0.00453889
-0.163863
-7.44514e-06
6.71663e-07
-0.0394182
-0.0014951
-0.025593
2.45347e-09
0.00449621
0.00150543
-0.0293756
-9.85639e-07
-0.00874749
-0.0234186
-6.80868e-05
-7.13888e-07
4.44272e-06
-0.000731578
-0.0085826
2.95317e-07
-6.05666e-07
1.06093e-07
1.17645e-07
0.0138973
0.0825631
-6.48417e-05
-0.000740948
-1.58187e-07
-2.7007e-07
0.000365502
0.0533851
-1.7205e-05
2.06769e-07
1.04099e-06
1.27484e-08
-0.036211
-0.0157446
-1.94454e-07
4.67625e-07
0.0138583
-0.000179811
6.92164e-05
-4.10703e-06
-1.92589e-06
-4.25589e-06
0.000373976
0.00213637
0.00140478
0.00199437
0.00110311
0.180085
-0.000189058
-1.8101e-07
-0.00558564
-9.02336e-08
1.20959e-05
-1.09205e-05
0.0911235
-0.00179963
-1.46961e-07
-0.00398795
0.000436561
0.0686786
0.00110625
0.00114536
-6.64157e-05
-2.55527e-07
-0.0323235
-0.00632324
-0.0271733
4.75133e-06
-1.82657e-05
-0.00154373
-0.00498517
0.201626
0.000235736
0.00113146
1.3734e-05
-4.95251e-06
-4.03666e-06
0.00523933
-0.00164293
8.6806e-07
0.000132084
-0.00206338
-0.0208995
-0.0226922
4.4771e-06
0.000129582
-0.130329
-0.000323271
-3.97823e-06
0.000513036
-0.00554992
0.0303835
-0.0038083
-2.09295e-08
0.03696
-0.000667301
-1.54313e-07
-1.7944e-05
4.03165e-05
0.000192523
-0.000849884
-0.0913265
0.00186821
-0.000128148
-0.0290843
-7.28084e-06
-0.0653429
-2.79295e-08
-2.43414e-07
-0.119192
-0.00165684
0.16951
-7.2947e-06
1.50561e-06
4.64773e-07
-0.000148826
0.00514827
-0.000822873
-9.32043e-06
-0.000361236
0.000135168
1.52776e-07
-0.140267
-0.000805998
0.0823101
-1.63545e-06
0.00192338
-5.78382e-06
0.0733984
5.2955e-06
0.00241439
-1.78243e-05
-9.67999e-08
-5.0263e-07
4.16781e-07
0.000515591
1.13442e-05
0.0216341
-0.0124456
0.000106569
-1.77057e-07
0.00157094
-0.0494863
-0.24822
-1.71931e-06
1.25342e-05
-5.59216e-07
-3.85228e-05
-1.47043e-05
-0.0148769
-6.19203e-08
-5.49452
-4.07306e-05
0.000335703
0.000622393
0.00579883
0.000750177
3.27457e-06
-0.0256243
0.210193
-8.53413e-07
-1.11038e-05
-0.0678921
-0.00105594
0.000725199
1.3172e-09
3.27329e-07
0.00375059
-1.1181e-05
0.000342834
-0.00033265
-5.6475e-07
-0.000113753
7.65104e-05
-1.73339e-06
-2.83243e-06
8.50014e-08
0.0362358
3.08227e-08
1.77238e-05
0.0360058
1.03517e-05
-0.00500525
-1.57959e-05
-4.1797e-05
9.73381e-08
-0.000212995
1.01679e-06
9.62641e-05
-1.09289e-08
-0.000607717
-4.5561e-06
0.0610049
0.0696492
0.0493263
-2.15785e-07
-1.48487e-07
-0.000135027
-8.06889e-05
-0.0699275
0.0755155
8.44273e-05
8.60355e-07
0.00362811
0.0578827
0.0573058
0.00270573
0.00023892
-0.0879294
-0.000174145
-9.26401e-05
0.000796151
-0.00186486
6.16855e-05
-0.0373466
0.000183587
-6.21319e-06
0.000239066
7.44322e-05
-1.13435e-06
-3.63617e-05
0.000174145
-7.22509e-06
1.11235e-06
7.72327e-08
8.5166e-05
-7.11242e-06
0.000339138
1.14518e-06
9.91524e-07
3.13372e-08
1.00921e-05
-4.05249e-07
-4.12273e-06
7.93528e-08
0.00696495
-0.000540519
0.00993624
-1.70269e-07
-4.15492e-09
-4.73275e-05
0.000225074
-4.56099e-07
-0.0410189
-0.000917778
0.0213836
-4.09636e-05
0.000307704
-3.43963e-06
3.90922e-08
1.17797e-07
1.4711e-05
-0.00279919
1.74184e-08
0.0630448
-5.92791e-06
-0.0177383
0.000617213
-0.000830588
0.0003095
3.64793e-07
1.28275e-09
-0.000579318
2.88255e-07
-1.00189e-06
-0.0169643
8.48988e-06
-6.37482e-08
-1.85031e-05
1.42764e-07
2.16499e-07
-7.88967e-06
-0.00178899
-0.129885
0.000107688
-1.7481e-06
-1.33261e-07
0.00713995
0.000549425
7.28823e-07
4.49291e-06
-0.0211919
0.0135157
0.0605865
-0.0002461
-6.11895e-06
-1.25373e-07
2.03063e-07
-0.000277553
-4.46401e-06
0.0125814
2.89483e-05
-0.0185804
4.11089e-06
7.75999e-06
0.0548148
1.16531e-06
-0.000160813
-2.65911e-06
-6.54534e-08
-7.80822e-05
0.00213632
-3.93398e-06
-0.00306448
0.0197584
-0.00260387
-2.65908e-07
-7.26923e-07
-0.000816698
0.0932225
4.66547e-09
0.0259427
-6.30554e-07
-3.0138e-05
-5.86822e-07
-1.11316e-06
-0.00865923
-1.4578e-06
0.110328
4.2011e-05
3.7634e-08
-1.68588e-07
1.0493e-07
-1.70981e-06
-2.89817e-06
-0.00952358
-1.54764e-06
-2.5003e-07
0.0889916
0.0293119
-0.000122363
-7.27607e-06
0.00040783
-1.5323e-05
7.16804e-07
-4.83434e-05
-0.00479939
0.00363462
-2.48372e-07
1.44705e-06
0.0734185
-3.22732e-05
-0.00401175
2.60743e-08
-4.48119e-07
0.0884553
-3.23173e-05
-4.60087e-06
-0.0278247
0.00389379
-1.60729e-06
0.00100237
1.22652e-07
-1.28631e-06
-8.80326e-08
0.0122822
-2.89967e-07
-3.284e-07
6.52108e-07
0.0795069
-8.09815e-06
0.00119479
-0.0112951
-1.2839e-06
-0.000525586
-1.47694e-07
0.00745929
1.60358e-07
-1.68296e-06
-1.32626e-07
-0.000935137
-1.02838e-07
0.00189101
0.00684623
0.00870334
6.51121e-06
-0.105859
0.0292284
-3.88531e-06
0.0435325
-0.0368635
0.024236
-0.0281709
0.0867955
-0.00104884
0.000928514
4.72444e-06
-0.0904871
-2.80435e-05
-0.0727288
-8.73026e-07
1.71402e-06
1.166e-06
-2.46487e-07
-1.51891e-05
0.000433277
0.0233901
1.59838e-06
5.02586e-07
-0.0219598
0.0155119
1.25788e-07
0.00423892
-1.8742e-05
-2.47612e-06
0.063343
0.00487817
5.61583e-06
-8.67147e-06
0.0234326
0.0583779
0.00562415
-7.96991e-07
-0.000900227
0.000954243
0.00144621
0.0527406
-0.000978513
4.93289e-07
-3.71313e-06
4.721e-06
2.75441e-07
4.62311e-06
8.34076e-08
-4.87664e-06
-0.000174998
0.00418304
0.00150309
-7.5919e-07
0.000518759
0.0187661
7.8681e-05
-3.98438e-06
-0.040638
4.41732e-07
-2.28288e-06
-0.000159963
0.0127823
-3.73819e-08
-1.53234e-06
-0.0444331
0.00022591
-0.151657
0.00163979
-0.122452
-1.56854e-06
0.00161051
-3.86198e-06
5.90501e-07
-3.64684e-06
-0.0741566
0.0475237
-5.59637e-07
-2.68011e-07
-1.90172e-06
-0.144672
8.69394e-06
-1.89593e-05
2.57787e-07
6.54221e-06
0.00144313
-1.38504e-06
0.000203475
-0.00581629
-0.0500792
7.5858e-07
-0.00507286
6.56471e-06
0.00407385
0.0201211
8.4795e-07
0.0214768
0.000529365
0.00222864
-5.01862e-08
-0.0681732
1.01766e-09
-1.70877e-05
-0.000163749
0.00158016
-0.0385974
0.0995654
0.000514121
-0.00793887
-1.48707e-07
-0.000119384
-1.20206e-06
1.74292e-05
-0.039858
-4.05544e-06
-1.64261e-09
1.97344e-06
-2.18259e-06
-0.000439204
3.44779e-07
2.23178e-07
-7.90194e-05
3.36381e-05
9.22736e-05
0.0499155
-0.000967878
-0.0131553
-0.000516277
-2.13082e-05
-9.34325e-05
-0.0355281
-0.00014827
-0.00658318
-0.0849676
-1.99849e-05
-1.47957e-06
-0.0154816
0.0748596
-1.97077e-06
-4.70316e-05
-1.18405e-05
-2.98528e-06
-1.82744e-05
-2.42385e-06
-0.00026868
1.17263e-09
0.000186494
0.000658688
-6.31259e-07
0.000168756
-4.86514e-07
-0.00170016
-3.08902e-08
-6.72063e-05
0.000191969
-7.52067e-06
-2.00646e-06
-4.6227e-07
0.0340232
-0.00133289
-0.00630536
3.76194e-07
4.73235e-06
8.20274e-05
-2.63555e-06
0.000768655
0.000100226
-2.92984e-06
0.000754004
-4.57274e-07
-0.055814
-2.67521e-06
-0.000142972
-0.114362
-0.00768801
-1.84723e-06
1.27561e-05
0.0240847
4.15315e-07
-5.73356e-07
-0.00134065
0.0167757
3.09569e-06
-0.000315516
-2.74255e-08
-1.80834e-06
-0.0641065
3.14369e-06
4.34265e-07
0.00646511
-6.83008e-07
-0.345218
-2.00162e-07
4.89366e-07
-2.85192e-08
-0.000925011
-0.0148054
-4.3642e-06
-1.30491e-06
-1.51703e-06
1.42009e-05
-9.05011e-08
-0.04259
9.61515e-05
-1.17567e-10
0.0101671
-0.00113769
-0.0011279
-0.0361856
0.000461154
-6.55646e-07
-3.93285e-06
-1.54266e-06
0.00772152
1.71245e-05
-0.0150872
0.0356872
3.97635e-06
-0.046573
0.00124968
-1.6012e-05
-0.000677835
0.00168888
-0.0169752
-0.0277236
-0.00341685
0.0074411
-0.0190542
-0.000469453
1.07556e-05
-0.0301888
-0.00029087
-8.49873e-07
-7.42646e-06
0.00620446
-3.43623e-06
3.06164e-07
-0.0010385
-0.000750391
-0.000129268
-0.0417106
8.52954e-06
-0.0124434
-0.000120122
0.0603441
-7.54986e-05
6.28601e-06
-1.88955e-05
-2.41645e-07
1.89365e-05
0.000996204
6.78591e-07
4.39331e-06
5.44564e-07
-1.57455e-06
1.33264e-06
0.000142214
-0.000164389
-0.00377128
-0.00317884
-0.0068098
-0.0354751
0.0039673
7.81888e-07
-0.0925992
-0.06688
5.80337e-07
-6.40842e-07
-1.86004e-05
0.00386515
4.71016e-09
0.00045244
0.000398574
5.353e-05
-1.84785e-06
-5.4432e-06
-8.91462e-07
0.000269788
5.71701e-05
8.63371e-08
0.013978
-0.0889716
-0.000236247
0.0708579
-0.000505523
-3.09196
1.02964e-05
-1.62913e-05
0.000270813
0.0488714
-0.000927938
0.0583652
-1.55527e-05
3.30345e-08
-1.54109e-06
7.65212e-07
2.02935e-08
-2.44726e-06
0.000338238
-1.78669e-06
0.000323135
-2.30682e-08
-1.95496e-05
-1.13335e-06
-0.000979766
-0.000415388
-0.00230151
-3.57682e-06
0.000155885
-1.52185e-06
0.0125033
1.17823e-06
3.8718e-05
-1.93926e-07
0.00393219
0.00412796
-0.000577405
-1.80707e-06
0.00149923
7.99857e-07
-1.5532e-05
0.0142446
-1.02175e-06
-3.28516e-06
0.000120788
-2.06052e-05
-0.0511848
-1.59385e-06
0.000114867
-2.70337e-06
1.02471e-06
0.00113992
5.60166e-06
1.27599e-07
4.73905e-06
-0.00906851
-6.96174e-06
-0.00332821
0.0248049
9.70386e-05
-0.0237129
-6.48478e-06
1.0349e-07
-0.000144084
0.070462
-4.54322e-06
2.3617e-05
-0.000130703
3.22404
-1.34862e-06
0.00134977
0.000108482
0.00031519
4.38025e-07
-3.17929e-09
7.21916e-05
-3.6747e-06
1.50996e-08
-7.22157e-06
-7.03312e-07
4.13674e-06
-1.73625e-05
-0.000342574
-0.0136756
-0.0669934
-6.18943e-06
-0.000107067
0.167713
-0.00238741
-0.000134734
-0.00137463
-0.00537044
3.20873e-05
-0.00662844
1.36795e-07
0.522801
-0.0142593
-1.05392e-06
2.79268e-09
5.56067e-08
-4.01587e-06
-4.21187e-05
-1.26599e-06
1.27311e-06
-0.000906434
-7.6591e-06
-0.000308853
-0.00688791
5.65955e-05
-1.06873e-05
0.0733118
-4.47565e-06
0.0140473
-1.16557e-05
0.00346738
-9.95595e-07
0.0305871
0.0417155
1.02045e-06
-4.2365e-06
-0.0737642
4.49111e-06
-0.0301948
-8.75658e-08
-7.84498e-07
-0.0268112
-4.00031e-06
0.00201099
0.0462508
5.06258e-07
0.000116513
-1.58705e-05
-1.05535e-07
8.8317e-08
-0.0878343
0.0284094
2.16245e-06
-7.42313e-06
-4.03326e-06
-3.71385e-06
-0.00443736
-0.0534796
-1.41657e-07
0.00471981
-0.135716
0.0449075
0.0417138
-4.31383e-06
-0.000862446
-0.000954281
-4.92087e-05
9.46855e-07
-0.000289277
-0.0104523
3.25958e-06
3.16685e-06
0.0262173
-0.00548797
-0.0475444
7.71424e-06
-9.78818e-07
1.53482e-09
1.86729e-07
0.0360712
9.72028e-05
-9.29976e-06
-4.31916e-06
-1.43545e-05
3.52439e-08
-3.1923e-06
5.06309e-07
-0.000110165
-0.000106349
0.000667974
-0.0043645
0.00521571
-0.00302127
8.98855e-05
8.31954e-05
-2.23747e-07
-0.000205575
0.0437721
4.34559e-06
8.37493e-06
0.000138929
0.000730456
0.00371259
-0.0562708
-0.0139632
6.31118e-07
-0.0335927
-3.64491e-07
-2.80032e-06
-0.00426365
3.77623e-08
-1.84854e-06
0.00201748
-0.0260881
-6.68174e-07
-0.0325589
3.54209e-06
-6.59683e-07
7.98783e-06
0.00304986
-1.59843e-05
-1.16852e-05
0.000882318
1.31912e-06
0.0122894
-0.0455662
9.08548e-10
-0.00469881
-2.68314e-09
-0.0030999
0.000419001
1.18489e-07
-0.083484
0.000153606
-0.000343993
3.53716e-08
0.0479308
-0.00026029
0.0625904
-3.40509e-06
0.000181657
0.0528155
-3.56338e-07
-0.00427716
-4.32181e-06
0.000237248
-0.000242706
1.57385e-09
-0.00770515
1.13488e-05
0.000706368
0.000132201
-0.000626427
0.000119447
-0.00192373
-5.8766e-07
0.0241641
0.000160821
0.0245076
5.69036e-05
-0.000310991
1.27862e-06
-0.000157519
-1.90852e-06
-0.000587308
-0.00780765
9.74504e-06
8.20546e-07
0.00292146
-6.15885e-06
0.128162
-3.37365e-06
-0.0304251
0.0687077
6.39096e-05
5.90448e-07
-4.98731e-07
7.78025e-08
7.22144e-08
0.0021763
0.00156818
-0.000100327
-5.97392e-06
-1.86789e-07
0.152458
-8.1804e-06
-0.000111168
0.272709
-1.07766e-06
0.0968527
-1.0061e-05
-3.75579e-05
0.0073661
-0.0176584
0.0438037
-0.01117
-0.00311745
-1.00096e-06
0.00547159
0.00705837
0.00638354
-1.63293e-07
-1.89333e-06
0.000708691
-0.0881527
0.0175224
-0.0100625
-1.20579e-06
-0.00124892
4.86621e-05
-0.0411277
-0.00559506
-0.000137662
0.000746675
9.34352e-06
-0.000376769
-0.000934337
-1.93495e-07
-0.00121957
-0.0374195
-1.72411e-07
-0.306978
1.38852e-08
-1.16351e-06
-0.0540921
0.00392661
-2.53416e-07
-1.40238e-06
-5.94458e-07
-5.4304e-07
-0.000192334
0.00223523
-5.14985e-06
3.32486e-07
-1.08327e-07
-0.000153513
-1.57221e-05
-1.34117e-05
-0.0376981
6.81265e-07
0.0217304
-0.0304579
0.0261445
-0.000414227
0.000107495
-0.117917
-2.13399e-05
-0.0885551
-0.261838
-0.125329
6.50725e-06
-0.0847393
-0.0148782
-8.02818e-09
9.95762e-07
-0.00228497
-0.0111964
-0.0247841
-1.39457e-06
-4.73996e-08
-0.0443273
-15.5231
1.07035
-3.77765e-06
5.45403e-06
-0.00317537
-2.73683e-06
-0.0394822
0.0212865
-0.208725
-0.0297195
-2.13174e-06
-1.83325e-06
-4.13088e-08
-9.48175e-06
-0.00559789
-0.000113291
-1.96984e-05
-9.90971e-07
-0.00431429
0.0270367
-0.00015478
-0.014186
-0.0170504
0.00225309
-0.00230147
1.06337e-06
-1.27413e-07
-0.0208741
3.29658e-07
-7.83458e-07
9.35075e-06
-0.00301773
8.43536e-06
0.0328231
0.00112207
1.20561e-06
0.0720824
-4.99397e-05
1.54545e-06
-0.0255341
-0.0015134
3.21584e-05
-1.906e-06
0.006166
-0.00083084
-1.34399e-07
-0.0403545
-0.11884
-0.0238564
-0.0219971
-0.000675684
-1.7532e-06
-3.9442e-06
-0.00490381
-1.45636e-05
-0.00290322
0.000197728
-0.112741
0.00301876
-6.58568e-07
0.000100184
-1.96357e-07
-1.91703e-06
-0.023927
0.0208119
2.82119e-07
-0.0136769
-9.09872e-05
-9.23636e-07
8.64755e-06
-6.88716e-07
0.00185993
-1.06802e-08
-0.00137308
-0.000221252
-1.15332e-06
-2.23432e-08
-0.0351688
-0.0455768
-2.21906e-05
7.27975e-06
6.7192e-05
-1.4572e-06
-7.00705e-06
-5.2088e-05
0.0357232
-0.00321507
-0.00761706
4.42265e-07
-1.229e-07
4.97913e-06
-0.000796062
-7.6013e-07
6.31341e-06
0.00186358
9.98329e-05
-0.204661
-1.00315e-06
0.00935936
-0.00175185
2.08121e-10
-0.00064409
0.00131261
-0.000130116
0.00255943
4.84591e-06
-6.25131e-05
0.000378062
3.95156e-06
3.82727e-06
2.6515e-07
-0.00942787
-5.35391e-07
-3.47487e-06
1.11735e-05
0.00308244
-0.0230243
4.07284e-09
-4.88483e-08
-1.04243e-06
1.34856e-06
0.000594079
-3.13048e-06
0.000167214
-8.0744e-06
-0.0161532
-4.20108e-06
-0.0329009
4.3403e-07
0.034316
-2.34018e-06
7.97611e-08
-0.0169922
-0.0425158
0.0569572
-0.0969214
3.20846e-05
-2.58609e-05
5.79835e-07
0.0354702
1.44068e-07
-7.77296e-07
-0.000822924
-0.000504621
0.0318601
0.00291275
0.000188405
-0.031226
0.000495172
0.0978371
2.02843e-07
-1.49926e-05
-2.72853e-05
0.0279317
-3.56121e-06
0.0208208
-0.0029068
-2.5087e-06
-3.49917e-07
-2.7032e-06
-0.0112082
0.00493636
-7.9467e-06
-5.02187e-08
3.9024e-05
-1.55855e-05
1.57999e-05
0.000639271
0.00998234
-3.76892e-07
-0.189389
-0.000294672
0.0363755
0.000292042
9.42773e-06
-5.47454e-06
0.0751594
-4.2697e-08
9.58416e-06
-0.0278857
4.95728e-06
-3.60267e-06
0.00214279
-0.00899376
-4.65554e-08
0.152069
-1.31289e-05
-0.00509092
-0.000139585
0.00017984
-4.3704e-06
0.0012776
-3.69073e-07
-0.00119851
-0.00377283
-0.0320144
6.18589e-05
6.85666e-05
-1.99529e-05
-0.000873924
1.12535e-08
-0.0386639
-2.28107e-05
-1.55329e-06
-1.96194e-05
-1.39964e-08
6.60362e-09
-0.000364553
8.26748e-07
-4.69019e-09
-2.1374e-06
0.000754887
-1.45473e-06
-1.8329e-05
-8.72574e-05
0.000978326
-0.000297047
4.56891e-09
0.0225271
0.00573784
-0.000738394
0.000328011
-0.000213051
0.00181298
0.0128355
-0.00899974
6.84096e-09
-0.0168363
-0.0561144
2.01157e-09
-9.57605e-06
2.43314e-07
0.174523
-0.00179432
-1.84412e-06
-0.00710189
0.0211045
-1.6665e-07
-1.4717e-06
-0.0680269
-0.0102611
-0.000552248
2.92263e-07
0.0260369
-0.0207567
0.00245873
1.01554e-06
0.0323785
-0.000766518
0.000295052
-0.000762956
-1.66939e-05
3.09157e-07
-1.92986e-05
-0.000716979
-2.49075e-05
-0.0816112
0.0112219
8.68841e-07
-0.0182263
-0.00765097
0.00503855
5.27366e-07
0.00244477
-6.16196e-09
-1.50887e-06
0.0163383
-0.0338921
-0.000658873
-0.237239
-0.000106698
0.000190946
-2.27117e-06
-0.021006
0.023909
2.42233e-07
2.00196e-06
8.67509e-05
-1.47971e-06
-8.92276e-05
0.000310801
-0.0446732
0.000166967
-3.25941e-06
-2.25398e-06
0.0273181
1.46018e-05
0.000182021
8.36542e-07
9.41157e-06
-0.00490188
-0.00326776
-0.0182101
0.00967836
-1.22536e-07
-0.00348623
-6.6587e-07
-0.00120477
-0.0433292
-0.0189756
7.18003e-07
1.50792e-08
-0.000106981
7.42104e-06
-2.23136e-06
0.0335021
0.0269758
1.81605e-07
2.29318e-07
-1.35977e-07
2.46355e-07
0.0201939
-8.41472e-07
-0.0705842
0.00167618
-0.000528655
1.23009e-06
6.89797e-06
0.0032631
-2.74904e-05
-0.00528482
-0.00180828
-1.94072e-06
0.0278578
-7.82726e-05
-0.000417086
-0.00142997
0.0561157
0.00728889
-0.000452395
-1.38336e-06
-0.0214702
-8.23386e-07
5.93576e-06
-3.76829e-06
-0.0619333
7.00817e-05
-0.630413
-0.00170668
0.000243675
-1.56749e-07
-0.000712117
-5.31503e-05
2.89868e-09
0.0330277
-2.23206e-07
-7.48179e-05
-6.62302e-06
-3.60293e-06
-0.050596
1.24954e-05
0.234754
2.13534e-06
-5.03617e-07
-0.0184988
-0.0354721
2.82846e-06
-1.17165e-05
-0.00015014
-0.000250923
-0.000308051
-2.3586e-05
1.36805e-05
-1.69702e-05
0.004772
-3.94049e-06
-0.0445179
-0.00103141
-0.0292894
-0.000866246
-4.03352e-06
0.0439864
-1.05204e-07
-0.0419857
5.13184e-07
0.00421099
0.255893
0.118291
0.0279533
-0.00914369
-0.00206211
-1.95927e-06
-0.00929106
-0.000674429
4.80612e-07
0.0495369
0.0195411
1.82739e-06
-8.73032e-06
-1.8022e-05
-1.78148e-05
-5.22427e-05
-0.000452116
-1.67459e-09
-4.24163e-05
-9.35084e-05
-6.1619e-05
-1.68994e-07
-0.000451748
-5.36933e-07
-0.044816
6.81579e-06
7.1943e-05
-1.87692e-05
1.39697e-05
0.0011626
-0.0821695
-0.000383382
6.21805e-07
-0.00223631
-0.0408024
0.0816447
-3.3262e-06
-0.0153848
-2.08143e-05
-0.0106961
1.85957e-07
1.37725e-05
-0.0210633
-0.000322634
-0.00490416
0.0599777
-8.24891e-05
0.0582882
1.2676e-06
-6.03296e-07
0.0695615
-0.00147691
1.44963e-05
0.0885095
-1.26809e-05
-0.00221756
0.000139946
4.92182e-05
1.73979e-06
-0.00825419
0.0294553
-0.0227724
-0.00500747
-1.33209e-05
-8.75009e-05
0.0030464
1.24266e-05
-2.62785e-06
-0.000631276
3.49735e-07
-0.000687587
0.0157335
0.0387654
0.0743546
-0.000177615
-3.66174e-06
0.0383508
-3.02523e-07
-6.12606e-05
-3.60367e-08
0.0733004
6.82276e-06
0.00259409
-0.0226288
0.000259163
2.50326e-07
0.000111914
0.0618455
-3.52511e-07
0.00145595
8.20066e-07
-0.0291575
0.0187339
0.000978497
-0.0277521
2.62615e-07
-0.000365418
-0.00016047
-1.96322e-05
8.64869e-07
-3.8463e-06
-3.12667e-08
-0.000217403
-9.38851e-08
-0.000417467
5.88976e-07
2.83019e-07
-0.0802964
1.02994e-06
-1.37735e-05
-1.72434e-05
2.87187e-08
-0.0350226
1.45955e-06
-0.000244277
0.0133492
-0.000275976
-0.04036
-1.15722e-06
-0.00721089
-0.000359686
0.0911141
8.29791e-06
0.000616137
-2.17674e-06
-2.13533e-05
-0.000518228
-0.000247368
0.00315831
0.0238118
-0.000113553
0.132013
5.19573e-06
0.000314188
-0.00131777
0.103947
1.8753e-06
-2.11237e-06
-5.44624e-07
-7.6951e-05
0.000903767
0.0852521
6.09135e-05
-0.00166068
-0.0223751
-0.00438671
-1.99657e-06
-0.028606
-0.00375894
-3.43316e-06
5.1945e-06
-3.74821e-06
0.00502643
1.96513e-07
0.0584337
1.07448e-06
-8.61223e-06
0.0310721
-0.000671378
1.2208e-06
-3.71356e-07
0.0125446
1.63545e-06
1.26394e-05
-1.57393e-05
-0.000410454
-1.81914e-05
2.82193e-06
-0.000568553
0.0044449
0.00119227
0.000977101
-0.00448615
-0.0321977
0.0233238
3.38584e-07
-2.7579e-06
-5.20229e-05
-3.55482e-06
6.64015e-05
-0.0204328
-0.0242032
2.26868e-07
5.90695e-07
-0.0448089
-0.0292399
3.82969e-07
7.44524e-07
1.03504e-05
0.0399342
-0.0889124
-1.45762e-05
-0.000120208
-2.20928e-07
-0.00643217
-0.000327387
-0.000110147
0.000232964
-0.000760259
-1.13562e-06
-4.37229e-05
-0.00680895
-1.50514e-06
-1.67927e-06
-1.20647e-05
-0.0364467
8.60499e-06
0.00899109
-6.5509e-08
-0.0221786
6.64793e-05
-0.00171485
-1.82435e-08
-6.53493e-07
-0.00148704
-0.0362939
0.000750074
0.0166406
0.0207253
-8.73398e-07
0.0100075
-0.000779907
6.47647e-07
-0.116836
-0.0418338
0.0013046
-1.9033e-10
-0.0387719
0.000457715
-1.60705e-06
0.000673627
0.000809792
-1.06032e-05
-2.48942e-06
4.0619e-07
-2.22346e-06
-9.77685e-06
0.000218882
0.00655937
0.00306538
0.000252374
3.94705e-07
-1.78711e-06
0.00780506
1.29406e-06
-4.87321e-05
-1.53861e-05
-7.03288e-07
0.000148154
1.08628e-06
1.11324e-05
0.000931551
3.67465e-07
0.0231976
1.12551e-06
-1.48756
-0.0588477
0.000613401
1.50891e-06
5.29075e-09
0.0355299
1.80394e-07
-3.87222e-06
-2.60047e-06
-0.00458766
-0.0117927
-1.20883e-05
-0.0414468
-0.00128015
-0.168957
-8.38468e-07
7.44129e-05
-1.07668e-06
-3.42339e-07
-0.0162893
-0.0291635
-0.0220161
5.45459e-07
0.000325395
0.000167684
-0.00464698
0.0243988
0.00038873
0.000102639
-3.4854e-07
0.0179347
-6.65225e-07
-3.63501e-07
0.003297
-0.000338765
-7.21039e-05
-0.00248343
-0.00088608
0.000324032
-1.73876e-05
0.0620383
-1.39527e-05
4.09853e-07
-0.0143211
0.00148479
5.1274e-07
-0.0164925
3.43998e-07
-1.1343e-07
0.00180977
-0.00182082
0.0364492
6.25364e-07
3.86715e-06
-1.69738e-06
0.0105482
1.32127e-06
-0.127997
-0.204246
-0.0525647
-0.00585268
-0.0214321
-0.000256424
0.0117443
0.0276488
-1.68591e-07
0.00016706
0.00072818
-6.6198e-05
0.00418257
-0.0115887
-0.00854694
-0.0661233
-0.0019479
-3.64417e-06
0.00132138
-9.98012e-09
-0.0135353
-2.07566e-05
-5.92316e-06
-8.48642e-06
-4.14185e-06
5.94587e-07
0.00047821
-0.00775929
3.60312e-07
-8.94514e-06
-1.24108e-07
-0.00724126
-6.70759e-06
-0.0112617
-0.0436351
-0.0205335
3.23186e-07
5.07346e-07
-0.0466155
-0.193632
-2.88624e-07
-0.0163358
-5.25693e-08
-0.00204426
-0.00168398
0.00068196
-0.000144231
0.0696934
8.5569e-07
-1.26366e-06
0.00632311
-0.0194223
-1.90111e-05
9.7217e-05
-2.18326e-06
-0.0403003
8.42105e-07
6.3905e-08
-3.25671e-06
-3.16911e-06
0.0187033
-0.0223327
-0.231028
-0.000434711
0.033575
0.0412579
3.45684e-07
-2.91473e-05
5.18616e-07
-0.00564661
-1.63071e-06
1.31306e-05
-7.24154e-07
-5.75607e-07
-4.84651e-07
1.48041
-4.12506e-06
0.00504049
-3.80819e-07
5.061e-05
-4.21644e-07
0.000871305
8.32119e-07
-2.12155e-05
-9.8765e-05
0.000398112
-0.09064
-7.30467e-07
-0.0029426
-0.000324907
0.00104317
1.46852e-08
-1.03927e-06
-0.0215035
-0.0778936
-1.72786e-06
1.7157e-08
0.00364588
0.0116659
-0.00121874
-0.0124233
4.83386e-06
-0.0973302
-5.74016e-05
5.06464e-07
-0.00517618
-1.71867e-06
-0.0903873
-2.3353e-07
-1.91858e-06
-1.73194e-07
-0.0309035
-0.0466851
4.146e-07
-0.06333
0.00652538
1.35645e-07
1.62904e-07
-1.75735e-07
-0.00423826
0.0134237
-0.00015158
-9.43957e-06
-8.19857e-05
9.65439e-07
-3.92245e-06
-7.60868e-06
3.87876e-07
0.00264684
-3.01156e-06
-0.000473901
-0.00276566
1.83814e-05
-9.35565e-09
0.00172362
0.000153408
9.47028e-07
-0.000139948
-2.27727e-05
-0.213351
-1.2772e-06
-0.0268963
0.000160131
-2.32634e-07
-0.000657902
0.000235576
-1.54707e-05
-0.0240536
-0.000412065
-3.21036e-05
-0.306936
-2.28999e-07
0.000957992
-0.00144003
-0.00186517
-3.16446e-07
-3.29429e-06
1.35307e-07
0.00389936
-0.000243188
-0.000257053
-0.019861
-0.00424375
-0.0549918
3.21593e-08
0.00326738
-0.0714258
0.035203
-1.3463e-06
2.56777e-07
0.00012847
-0.0801685
1.34576e-05
-5.82004e-05
-0.00935126
-0.0335439
-1.13904
0.0014837
0.00164929
-0.0390305
0.0725593
-6.0674e-07
0.746966
-0.000193383
-1.1728e-06
-3.17656e-06
1.13635e-05
-0.0251912
0.000626972
0.0328572
-3.08018e-10
1.01603
1.2293e-06
0.0156386
-0.0134246
-2.67615e-06
-4.63002e-05
0.0164073
0.0110924
4.46102e-05
-4.93857e-06
1.12407e-05
-2.87239e-06
0.0302832
-0.000298889
-0.061618
0.0276108
6.06619e-07
-0.0173351
-0.00218596
0.432775
-1.42396e-07
-1.7349e-07
0.296344
0.0182208
-2.73468e-06
1.87405e-05
0.00211889
0.00011482
-0.0381233
-0.0296103
-0.0113558
0.0289522
1.33646e-05
-4.37832e-07
0.000137995
0.00597172
-0.0102382
-1.39497e-06
0.00253699
0.0276355
-0.0318197
-1.05732e-06
1.9242e-08
-0.0528403
-0.0627861
0.18725
0.0240546
0.0209305
-2.41837e-07
0.113938
0.0258927
-4.03152e-06
-0.00132697
0.000113943
4.44733e-07
0.00190819
0.0667894
-0.0484825
2.14485e-08
0.0197056
0.00103553
0.0517621
-1.2623e-07
-8.39189e-06
4.50092e-06
-1.80739e-06
4.17068e-06
-4.86942e-05
4.5215e-05
0.00109005
0.0085706
-4.27172e-05
-0.0174818
1.97402e-05
-2.55311e-05
-4.0142e-06
0.0721273
0.000250157
0.0140157
1.80039e-06
1.91708e-05
-0.0975218
0.00049963
-1.29656e-06
0.00207826
0.00116809
0.0437292
-0.0101102
-1.07353e-06