/*--------------------------------*- C++ -*----------------------------------*\
| =========                 |                                                 |
| \\      /  F ield         | OpenFOAM: The Open Source CFD Toolbox           |
|  \\    /   O peration     | Version:  v2012                                 |
|   \\  /    A nd           | Website:  www.openfoam.com                      |
|    \\/     M anipulation  |                                                 |
\*---------------------------------------------------------------------------*/
FoamFile
{
    version     2.0;
    format      ascii;
    class       volScalarField;
    location    "200";
    object      ddt0(k);
}
// * * * * * * * * * * * * * * * * * * * * * * * * * * * * * * * * * * * * * //

dimensions      [0 2 -3 0 0 0 0];


internalField   nonuniform List<scalar> 
13917
(
-5.54844e-08
4.62813e-08
-0.00102854
2.20039e-08
1.46426e-09
1.49258e-06
-0.000438224
-0.00142226
-0.000424873
-2.01985e-08
-2.78174e-07
-5.11907e-07
2.10567e-08
0.00070528
4.13896e-08
4.92862e-08
4.53767e-08
5.39828e-08
-5.13665e-07
-1.36866e-09
4.52154e-10
-0.000395468
1.27555e-09
-0.00162321
1.04606e-08
0.000168711
1.32522e-07
-1.51777e-07
4.49405e-07
-1.61006e-07
-2.09646e-08
-1.98517e-08
4.12057e-08
-1.97848e-08
1.03866e-08
-0.000267619
-9.49023e-11
-0.000186752
1.62114e-08
-8.11973e-05
-1.39363e-09
2.05914e-10
-5.44353e-09
-2.07519e-07
-1.56029e-08
3.44084e-08
4.67922e-08
1.94337e-07
1.2061e-06
-4.0891e-11
-3.77027e-08
-7.72584e-09
1.13322e-06
-9.32325e-09
4.53938e-08
-6.0998e-08
-4.55635e-08
-3.9428e-08
-5.82391e-08
-1.11506e-08
-0.000274655
4.581e-08
0.000139605
-2.27711e-10
-4.46143e-08
0.0135839
5.81049e-11
-1.36728e-09
1.09243e-06
-2.055e-08
-1.21197e-09
-0.000692017
0.00028332
1.30942e-08
1.07743e-06
-7.40084e-07
0.000316337
-4.88956e-08
0.000665092
-4.04024e-10
-1.92154e-09
-8.0337e-11
-9.8451e-07
-0.000257126
-0.000147618
-4.7294e-08
-3.18316e-09
-0.0312755
-3.8177e-08
-6.09865e-09
0.000224022
-7.26266e-08
2.402e-08
1.82131e-08
0.0549232
3.55088e-06
3.83137e-07
1.24602e-07
-1.94491e-06
1.47735e-06
-3.27123e-09
6.57945e-08
-2.56919e-07
-4.44842e-08
4.44424e-09
-0.000330742
-4.12916e-07
2.23245e-07
4.79741e-08
6.82361e-09
-2.76722e-05
-6.77981e-05
-7.80016e-07
-0.000295669
-7.84971e-10
-3.91788e-07
1.21263e-08
3.67796e-07
-0.000334166
5.01531e-09
4.64822e-10
1.07687e-06
-0.000299098
-5.34472e-09
-7.87497e-10
1.33696e-08
6.80034e-09
-1.25272e-09
-2.34803e-09
5.57262e-06
-0.000333584
-7.41553e-10
-1.522e-08
4.79526e-10
0.00155237
-0.00159811
-7.28855e-08
-6.91324e-07
4.37925e-10
-2.07084e-08
0.000229112
8.25533e-09
-1.07538e-08
-4.64291e-09
-1.04205e-09
-0.00137011
9.14218e-07
-9.14491e-09
7.31848e-09
-1.38698e-08
-5.77159e-08
-1.60696e-07
-3.06109e-07
1.02236e-07
-5.45117e-08
-6.60614e-05
-2.12614e-08
-0.00163552
0.000322415
0.00332112
1.77282e-08
1.5852e-07
-4.40357e-10
3.15767e-07
-7.54488e-07
-1.82843e-06
-4.81231e-08
5.02336e-08
3.56508e-09
-1.26501e-08
-6.38935e-08
-0.000178709
-1.01387e-06
5.11081e-08
-0.00249267
1.5425e-07
-0.000346154
-2.4405e-06
-0.00160556
-4.78622e-09
-1.06911e-07
-5.45222e-08
6.86169e-09
-3.97963e-09
-7.05811e-08
0.000286999
-2.78366e-07
-4.83904e-05
-4.34337e-08
-1.23234e-06
0.000133136
-0.000160426
-6.43986e-08
6.37361e-10
9.98502e-07
4.42962e-07
1.05767e-08
2.5924e-08
8.65763e-08
-0.0157231
-2.89257e-09
-4.04028e-10
3.41527e-08
-6.34269e-08
0.00030361
0.000394336
9.59224e-09
-3.79601e-08
1.31352e-07
-0.000229026
-1.44881e-08
-0.000552656
0.000314214
-1.23276e-06
2.74193e-09
1.56607e-07
4.84673e-08
-2.58361e-05
-8.59514e-09
-0.00026557
-1.15691e-08
-2.52482e-08
-4.86257e-10
-0.000127107
-0.000116898
4.74702e-08
3.61387e-05
-5.45813e-08
9.94512e-10
-0.000192805
-1.05499e-06
-4.33997e-08
-0.00135553
0.000316152
-8.56096e-10
-2.71882e-08
0.000188546
-9.09437e-05
-8.77831e-10
7.4843e-10
6.34639e-05
7.10793e-07
1.24144e-11
-2.27301e-05
2.95135e-07
1.41444e-06
-4.10156e-08
-7.80553e-10
-4.70313e-09
0.000341272
-2.73557e-09
9.72137e-08
-2.00826e-06
6.40134e-09
-3.89715e-08
-3.05688e-07
0.000100636
-3.01439e-07
-4.43435e-08
4.41006e-08
2.63923e-11
-0.000323013
0.00127096
-0.000204895
7.77873e-10
0.000215933
0.000231968
-0.00244269
0.000595732
-8.25744e-07
-1.49046e-09
1.76247e-09
4.04061e-08
8.05111e-05
5.66793e-07
-5.92587e-08
0.000515697
-1.33828e-07
-2.83687e-09
0.00176008
-8.22993e-10
-0.00256637
-1.64091e-09
1.01507e-11
3.45209e-08
6.9476e-08
1.00312e-06
9.7335e-05
7.42894e-09
-1.76725e-08
0.00013721
-0.00150911
0.00103058
-7.25222e-09
-0.00267588
-3.42946e-10
-1.67747e-08
1.31307e-08
4.41612e-06
-7.00234e-10
1.42903e-07
-4.32889e-08
3.95589e-09
-2.4684e-09
2.86541e-08
3.27886e-07
1.87254e-07
9.08185e-08
-3.55706e-11
-3.9785e-08
-5.96419e-05
-0.000302327
1.03236e-08
1.2289e-09
0.001728
1.00073e-08
0.000272288
3.22734e-09
-0.000167398
1.64313e-08
-4.40694e-07
-3.65824e-08
-2.72012e-07
1.70456e-08
-0.000195966
-2.10592e-06
3.14004e-08
7.19866e-07
-1.00978e-05
-1.0314e-09
-0.000320161
-1.01007e-06
0.000147961
2.50441e-08
-0.00025672
-3.28563e-08
-0.000203408
3.1724e-06
-1.6628e-08
3.07509e-07
-0.000866295
-1.63221e-09
-1.14588e-07
-2.29186e-05
-3.09296e-08
5.20143e-08
0.000164749
3.35897e-07
5.07878e-08
4.24658e-05
-1.32699e-06
-3.02066e-09
-0.000305718
-0.00144743
1.23298e-09
-9.84221e-09
6.77675e-11
6.72317e-09
0.000159417
-0.00194264
7.73537e-08
-5.18996e-05
1.34964e-08
3.46544e-07
-2.60712e-05
-2.60362e-08
-0.000466686
2.36664e-05
-0.000112256
4.1598e-10
-0.00014031
-8.8146e-09
-1.83981e-05
-7.16723e-09
-9.25918e-08
3.01803e-07
1.80835e-08
-2.74885e-09
1.21006e-07
-1.24697e-08
1.85305e-07
2.47189e-06
-0.000167361
-4.66524e-05
-2.31929e-07
-9.05761e-08
1.67787e-09
-9.70116e-05
-0.000257066
-3.04674e-08
-0.00103458
1.58766e-08
2.36285e-05
1.71299e-08
-9.5592e-10
3.38658e-08
0.00121641
3.55289e-08
0.00018138
7.77751e-06
-6.11284e-07
7.17065e-06
5.35636e-09
5.08133e-06
3.04497e-06
8.24698e-09
2.33802e-07
-3.30848e-08
1.20007e-08
-1.40549e-07
2.05317e-11
9.2608e-09
-8.74613e-09
-2.81234e-05
-7.22416e-11
-0.000280733
0.00185013
-1.34135e-05
4.31653e-07
5.51416e-05
5.34796e-05
-3.05205e-08
1.52864e-08
5.77594e-07
1.8662e-08
-2.62205e-08
1.77256e-09
-0.00169844
-0.000250858
0.00232114
4.81048e-08
3.31042e-07
-4.7094e-09
1.47435e-08
1.7775e-07
5.25513e-08
2.3165e-06
4.75854e-08
-7.35345e-10
0.000258094
-0.000329678
-0.000336022
3.59832e-08
-7.23457e-06
-0.000368295
0.000132935
0.000237113
1.75245e-09
9.97978e-08
5.39718e-08
-3.88106e-08
-0.000160834
4.43743e-08
4.2869e-09
1.39859e-09
-2.03747e-08
0.000222839
8.663e-09
5.20735e-07
0.000105111
-1.13794e-06
-0.000280419
3.19133e-10
-2.97024e-08
1.30218e-08
-2.94727e-08
6.54913e-10
0.000822466
1.05167e-05
4.37247e-08
-8.17304e-05
-6.17211e-08
2.48973e-07
0.000156485
5.79525e-07
-6.39983e-07
0.000137026
5.10922e-07
1.85286e-08
4.98581e-07
-1.34928e-07
-1.63855e-06
1.05135e-06
-2.34936e-07
2.34741e-07
1.02702e-08
0.00120089
-4.35747e-08
-1.33623e-08
1.59266e-08
-4.98597e-08
0.000208789
-0.000439041
1.4067e-09
-2.46646e-09
0.000211989
4.59775e-05
1.3483e-11
-0.000301821
1.69286e-09
1.6124e-07
5.03634e-09
0.00028677
-0.000138136
-1.5925e-08
1.57878e-08
0.000136813
4.56406e-07
-2.43521e-05
3.84721e-11
0.000325612
2.95231e-07
0.0013065
-1.35128e-08
-0.000132295
0.000542731
-4.3394e-08
-9.77571e-09
3.64318e-08
-7.39196e-07
-2.70341e-05
7.78068e-09
-8.03028e-09
1.47052e-09
1.57864e-09
0.000227569
-0.000111617
-4.06159e-08
2.28884e-06
-2.07052e-09
-3.42819e-09
3.4552e-07
0.000367721
-5.10385e-08
-1.67676e-09
1.52528e-08
6.19187e-11
0.00135274
-0.000185978
-2.68293e-09
5.76184e-09
-6.97337e-05
-1.31384e-07
-3.72455e-08
-3.71613e-08
3.94095e-08
3.75579e-09
2.23794e-07
3.27746e-06
-1.11388e-06
2.20871e-07
4.50351e-07
0.000425051
-1.93574e-07
-1.30877e-09
0.000339116
-1.50898e-09
5.14143e-08
8.4408e-09
0.000445024
-1.14533e-07
-2.19758e-09
-8.32972e-07
-3.66807e-08
-1.45523e-05
4.28235e-07
-2.1505e-07
-1.64209e-08
-3.25485e-09
0.000858374
1.32007e-07
-0.000737753
4.32327e-08
-5.61732e-08
-2.68218e-06
1.60515e-05
0.00016453
1.51493e-07
-9.30854e-08
4.93329e-08
-3.14432e-08
-3.178e-08
1.07173e-06
-2.7313e-07
6.08283e-09
4.44451e-08
-2.02297e-06
-0.000794181
-3.11116e-05
2.67178e-08
2.08697e-07
0.000229096
3.85241e-08
-1.93577e-08
-1.39043e-06
0.000329458
-0.00175533
-8.98095e-07
-6.28993e-10
-0.000315476
-7.35365e-07
-2.10275e-09
-5.23929e-08
9.94377e-09
9.12245e-08
-1.63349e-07
0.000520469
6.72823e-07
-9.89553e-08
0.000839968
-5.12493e-08
0.00027503
-3.72192e-10
-3.31273e-09
-0.00311911
0.000216698
1.0795e-05
-5.29634e-08
4.99179e-08
5.25409e-09
-1.41384e-07
3.1168e-06
-1.61087e-06
-3.25732e-08
-5.62404e-07
9.28942e-08
3.23209e-09
6.16447e-07
-1.58368e-06
1.39343e-05
-2.05574e-08
8.77958e-07
-4.97176e-08
5.44251e-05
3.59304e-08
3.41561e-07
-5.67697e-08
-9.36686e-10
-7.09142e-09
3.69647e-09
9.4432e-08
6.97506e-09
-2.20172e-05
-2.13903e-06
5.39151e-08
-2.49e-09
2.43273e-07
1.02523e-05
2.79674e-05
-5.89252e-09
1.94933e-08
-7.6304e-09
-1.44346e-08
-6.14456e-08
0.000519791
-8.23044e-10
-0.000116831
-1.33409e-08
-3.75919e-07
-3.50389e-07
0.000271581
1.1495e-07
3.14943e-08
0.000156049
7.71626e-05
-6.55404e-09
9.62308e-09
-0.00014824
-1.07899e-06
6.15833e-07
5.54781e-12
8.73007e-09
4.55015e-07
1.70922e-08
1.57226e-07
-3.01409e-07
-8.49772e-09
-8.16814e-08
-0.00110543
-3.67697e-09
2.27151e-08
1.16277e-09
-0.000274985
3.96066e-10
4.84057e-08
-0.000178191
4.70605e-08
0.00012827
-5.22642e-08
-8.67747e-10
1.29281e-09
2.094e-07
1.34821e-08
-1.91572e-08
-9.94401e-11
-1.39027e-07
1.61417e-11
-3.75585e-06
1.53233e-05
0.000369546
1.88144e-09
-1.90246e-09
-5.73948e-08
-6.71958e-08
-6.43315e-05
0.000189853
5.91765e-08
1.55621e-08
-4.64101e-05
6.13805e-06
1.37262e-05
5.39727e-06
3.23349e-08
0.00100482
-3.59693e-08
-1.0274e-07
4.46129e-07
-4.36723e-08
4.91671e-08
-7.87022e-06
3.88693e-08
2.1244e-08
8.44099e-08
2.85015e-08
-1.51558e-08
-1.21605e-08
3.81769e-08
-6.06915e-09
1.48621e-08
1.58497e-09
4.4107e-08
-1.96937e-08
1.621e-07
1.40546e-08
1.30968e-08
4.13402e-10
4.89294e-08
-5.64753e-09
-1.64518e-09
8.66218e-10
0.000271386
-5.17838e-07
1.09122e-06
-2.06786e-09
-3.58626e-11
-4.45755e-08
4.69003e-08
-1.99567e-09
0.00135553
-3.92454e-07
-9.46367e-05
-1.48121e-08
3.78066e-07
-3.30243e-08
5.16366e-10
1.46816e-09
2.7943e-08
-0.000169485
2.7973e-10
0.000803285
-1.51104e-09
-3.0566e-05
2.15077e-07
-3.89368e-07
-4.34179e-07
3.94252e-09
1.07045e-11
-5.36302e-07
3.18384e-09
-5.79378e-09
0.00217335
5.20659e-08
-8.46231e-10
-6.04924e-08
3.39391e-10
3.13542e-09
-1.92968e-08
1.94282e-06
4.02494e-06
-3.72087e-08
-3.96986e-09
-1.56432e-09
-4.76799e-05
9.28844e-08
7.94028e-09
4.23736e-08
0.0017637
-0.00172247
-0.000129022
-3.33755e-07
1.98231e-08
-1.55242e-09
1.52281e-09
-2.42052e-07
-4.62465e-08
9.31048e-07
2.52742e-08
-0.000276972
3.96928e-08
2.61592e-08
-0.000148086
1.56116e-08
-3.9517e-08
-2.47315e-08
-8.53906e-10
2.95883e-08
9.55957e-07
-4.11592e-08
-6.73637e-06
-5.88559e-05
-2.66372e-07
-5.49187e-09
-9.11099e-09
-1.3017e-06
0.0011323
5.2539e-11
0.000105027
-8.78666e-09
1.66731e-09
-6.96843e-09
-1.50711e-08
-5.19702e-05
-2.55362e-08
0.00356271
-4.81284e-08
4.97028e-10
-2.16318e-09
1.28691e-09
-2.1113e-08
2.20302e-08
-1.65422e-06
-1.05847e-08
-4.20441e-09
-0.00069501
-0.001194
-1.01172e-07
-4.4271e-08
1.57e-07
-5.29314e-08
9.60467e-09
-9.05062e-08
0.00031652
3.695e-07
-3.23923e-09
1.75909e-08
0.00011096
-2.95267e-08
-6.36585e-05
3.38292e-10
-1.54929e-09
-0.000331126
-3.68613e-08
-4.54416e-08
-0.000116914
-9.44552e-07
-1.98441e-08
5.25438e-07
1.46825e-09
-2.31815e-08
-1.13483e-09
0.000220637
-4.09281e-09
6.74285e-09
7.80534e-09
0.00376168
1.65604e-08
1.32083e-07
-2.06392e-06
-1.69052e-08
-5.7598e-08
-2.26907e-09
-6.13487e-05
1.84402e-09
-7.71047e-09
-1.69507e-09
-1.36564e-06
-1.6475e-09
7.93166e-07
-6.00663e-06
-0.00120838
1.72988e-08
-0.0013827
-0.00015951
-4.01765e-08
-0.000332305
-0.000322907
-0.000141772
3.34341e-06
-0.000631699
-2.34497e-05
2.55918e-07
4.09441e-08
0.00043607
-3.73069e-08
-0.000296019
-1.20922e-08
2.3355e-08
1.42484e-08
-2.85083e-09
-4.57521e-08
2.99504e-07
-0.000242291
2.03427e-08
7.2264e-09
-2.77951e-05
1.51897e-06
7.20415e-10
2.49521e-06
-5.86071e-08
-3.51755e-08
1.48903e-05
1.99505e-06
2.22874e-08
1.61192e-08
-0.000108468
-0.000144365
2.36173e-06
-9.46311e-09
3.2358e-07
2.24129e-08
-0.000139479
-1.38992e-05
-1.06062e-06
5.69777e-09
-3.51293e-08
3.92465e-08
4.42669e-09
4.26212e-08
9.45349e-10
1.75842e-09
-1.90492e-08
-9.13996e-05
6.66209e-07
5.83318e-09
4.84926e-07
0.000161286
-2.49275e-08
-2.44379e-08
0.000301648
6.11205e-09
-1.31062e-08
-3.9817e-08
-7.9099e-05
-3.53868e-10
-1.87092e-08
-0.000654119
0.000412536
-0.000160487
4.53441e-07
-0.000359417
-2.12783e-08
2.72914e-07
-2.25421e-08
7.1974e-09
-2.04299e-08
0.000517616
-0.000102347
-8.52964e-09
-3.44341e-09
-1.47137e-08
0.00020913
4.98961e-08
-5.35893e-08
3.5451e-09
4.90003e-08
2.71725e-07
-1.69641e-08
-6.79253e-09
-2.85727e-07
-0.000322702
8.75733e-09
-8.10097e-07
3.15321e-08
0.000270023
0.000158674
1.07068e-08
-4.31475e-05
1.82706e-07
2.4359e-08
-6.62561e-10
0.00102268
5.59845e-11
-6.24761e-08
-8.44216e-08
4.32045e-07
1.98174e-05
1.28355e-05
-2.82177e-06
0.000504204
-1.93624e-09
1.01881e-05
-1.59415e-08
2.88557e-08
-0.000713522
-3.5025e-08
-6.58259e-11
1.95855e-08
-3.08467e-08
-9.52925e-05
4.16626e-09
2.91361e-09
-8.3004e-08
-3.36492e-08
1.48913e-08
5.50462e-06
-2.03579e-06
-0.000149199
-4.94059e-07
-3.1479e-08
-9.61317e-08
0.000191521
-1.15289e-07
-0.000516133
0.000142962
-8.58608e-09
-1.71787e-08
0.00030964
3.71446e-06
-1.2704e-08
2.19858e-07
-4.8876e-08
9.49847e-09
-4.37917e-08
-3.30877e-08
-1.37245e-07
1.90035e-11
4.96659e-08
1.50538e-07
-9.43689e-09
2.84745e-08
-7.69041e-09
-3.0985e-07
-6.18064e-10
1.9191e-08
6.968e-08
-1.77915e-08
-2.25565e-08
-7.25161e-09
-1.39272e-06
1.50771e-07
-0.000160807
5.1824e-09
4.35485e-08
2.7973e-08
-2.56792e-08
1.35371e-07
1.78626e-07
8.77997e-09
3.65455e-07
-7.03145e-09
0.000289658
-1.53274e-08
-1.02607e-07
9.21547e-05
-7.90912e-06
-2.38306e-08
5.04747e-08
-6.83922e-05
6.73049e-09
-6.94342e-09
-0.000143021
0.000215357
8.17201e-10
-3.29194e-06
-1.25862e-09
-1.92122e-08
0.000538173
2.2859e-08
6.11792e-09
4.2961e-06
-1.06202e-08
-4.82096e-05
-2.51745e-09
6.00545e-09
4.62035e-09
-2.13967e-06
-0.000227327
-3.45746e-08
-4.77941e-09
-2.07102e-08
4.46929e-08
-9.00747e-10
-2.87028e-06
1.8645e-08
4.52846e-11
-0.00202667
-4.43936e-07
1.23476e-05
-0.000413081
-1.30641e-06
-7.791e-09
-2.51757e-08
-1.63759e-08
1.68079e-06
3.90362e-08
-0.000250667
-0.000151434
1.80181e-08
-0.000637453
-4.97687e-08
5.90265e-08
-2.48366e-06
5.14671e-07
-1.74377e-06
-3.52939e-05
-7.5826e-07
-1.1686e-06
-0.000333838
-4.34316e-07
4.79063e-08
0.000162023
-4.21407e-08
-1.19931e-08
-4.39853e-08
-0.000377427
3.01996e-08
3.1766e-09
1.87015e-07
7.05914e-08
-4.01071e-08
5.25937e-05
4.42791e-08
0.000659273
-1.10382e-07
1.42762e-05
1.37755e-07
-6.8737e-07
-5.96163e-08
-4.7143e-09
4.88287e-08
-0.00104606
9.21555e-09
1.95049e-08
1.0128e-08
4.15301e-08
1.9008e-08
5.57802e-08
-1.86717e-06
3.64343e-07
-9.62297e-07
-2.17683e-06
0.00254386
-5.23127e-06
1.12048e-08
-0.000794998
0.00123424
6.78081e-09
-8.68909e-09
-5.77855e-08
-0.00017069
6.00204e-11
1.29856e-07
3.19769e-06
5.63239e-08
-1.61897e-08
1.72142e-08
-1.19425e-08
2.34142e-07
1.14654e-07
1.05074e-09
-0.000113983
0.000880638
-3.69792e-08
0.000242097
-4.73802e-07
-0.0003398
4.78697e-08
-5.85264e-08
0.00117987
5.06326e-05
-1.05338e-06
1.39868e-05
-2.96023e-08
4.3528e-10
-1.94229e-08
4.43892e-08
-6.12386e-10
-1.02083e-08
-3.94725e-08
-2.31397e-08
6.30965e-08
7.73468e-10
-5.89812e-08
-1.50154e-08
-1.15962e-07
-6.78173e-07
-1.34047e-06
-3.82173e-08
3.09577e-08
-1.92635e-08
7.44108e-05
1.58651e-08
-1.02887e-07
-2.5447e-09
7.6613e-06
0.0002792
-2.08978e-06
-2.5175e-08
6.98117e-07
9.62508e-09
-2.75708e-08
0.000254171
-1.90128e-08
-1.79003e-08
-4.4209e-08
-5.36816e-08
-0.000568351
-2.2738e-08
1.59304e-08
2.35944e-08
1.36443e-08
2.65327e-07
4.70433e-08
1.86712e-09
1.70105e-08
0.000350026
-2.17819e-08
3.48155e-05
-0.00180654
4.99823e-08
-0.000197662
-1.18802e-08
1.61065e-09
-1.83927e-08
0.000170583
2.25231e-08
2.84978e-08
-7.16864e-08
-0.170091
-1.61731e-08
-1.62231e-05
2.68592e-08
1.38189e-07
6.15057e-09
3.97812e-11
-3.1242e-06
-2.02132e-08
2.06087e-10
-8.27117e-09
-9.74833e-09
1.87309e-08
-4.14387e-08
-2.98127e-07
-2.05547e-06
-0.000217689
1.66511e-08
-7.27099e-08
0.00296994
-1.26409e-05
-8.94201e-08
-5.56678e-07
-0.000150757
-1.57082e-08
-0.000404278
-1.84319e-09
-5.67731e-07
-7.69582e-06
-1.39863e-08
7.25177e-11
9.75164e-10
5.90936e-09
-5.69055e-08
-1.67095e-08
5.24863e-09
-9.95054e-07
-5.29063e-08
-4.72792e-08
0.000259619
9.05548e-09
-3.888e-08
-0.000420923
-4.34637e-08
-0.000305617
1.21124e-08
7.42956e-07
-1.3393e-08
0.00025293
-0.000155734
1.41348e-08
2.86421e-09
0.00147714
1.31745e-08
-3.51721e-05
6.91915e-10
-1.21524e-08
-0.000779429
-1.63277e-08
4.66127e-07
2.62146e-05
6.99953e-09
-9.76394e-09
-3.78643e-08
-1.28635e-09
1.4131e-09
0.000822868
-0.00017085
2.66088e-08
-3.71906e-08
-3.894e-08
-7.22048e-10
-3.26756e-07
0.000270324
3.7781e-10
1.76041e-06
-0.00278138
1.28484e-05
4.1993e-06
-2.22587e-08
-1.81772e-06
-4.61151e-08
1.65697e-08
1.24046e-08
-2.42929e-07
0.000148799
1.48308e-08
-8.81184e-08
-0.00175043
2.05381e-06
-6.34773e-06
7.56575e-09
-6.99499e-10
3.74385e-11
9.68146e-10
-0.000181764
3.39455e-08
-7.22108e-09
3.73917e-09
-5.91392e-08
4.58067e-10
-3.45279e-08
7.76104e-09
-6.86495e-08
-9.51623e-08
-0.00229956
-8.77891e-07
-4.12743e-06
0.000212196
4.92654e-09
5.30759e-08
-2.60888e-09
3.01817e-08
0.000247838
4.32907e-08
4.35664e-08
6.18848e-09
7.1723e-07
8.87144e-08
0.00208016
0.00024225
9.7995e-09
-0.000128514
-4.9523e-09
-3.68863e-08
-3.53444e-07
4.60553e-10
-1.85647e-09
1.12091e-06
0.00141486
-1.03153e-08
0.00163037
4.58737e-08
-8.96176e-09
4.28612e-08
3.25879e-06
-2.33168e-08
1.3103e-08
-0.000333252
1.57231e-08
1.82328e-06
0.00022792
1.92443e-11
-9.2535e-07
1.21824e-09
4.40185e-05
1.36402e-07
2.59971e-09
0.000935211
7.48169e-08
-8.26257e-08
4.72382e-10
-0.000160566
1.25562e-07
9.97302e-07
2.24773e-08
4.75205e-08
0.000165917
-5.86003e-09
-1.27053e-05
-3.39384e-08
4.24447e-08
-4.72248e-08
1.07714e-11
-8.50599e-05
4.71867e-08
6.94452e-07
2.33766e-08
-1.01427e-07
1.70602e-07
-1.00265e-07
-2.02853e-09
-0.00168781
2.88331e-08
-0.000289156
-7.69735e-08
-2.60383e-07
1.79443e-08
-6.62858e-08
-1.78066e-08
-5.73171e-07
-0.000504708
5.11342e-08
1.16332e-08
-2.08e-07
-4.90203e-08
0.00337856
-3.27514e-08
0.00105643
2.50296e-05
-3.13172e-08
6.95054e-09
-5.72391e-09
1.18282e-09
8.18161e-10
3.18128e-07
8.84875e-08
6.69139e-07
-6.05336e-09
-9.43606e-10
0.000475171
-3.5768e-08
-3.09623e-08
0.0022733
-1.16014e-08
0.00014312
1.33257e-08
-1.79786e-08
5.878e-08
0.000227646
-0.000164175
0.000268864
0.00130154
-1.44579e-08
9.25019e-08
-0.000149539
2.87772e-06
-2.03583e-09
-1.38485e-08
-3.41983e-08
0.000875202
-0.000285419
-7.66859e-07
1.58508e-08
-1.87814e-07
-1.3198e-08
7.66873e-05
-7.25467e-06
-5.6764e-08
5.58302e-07
4.2952e-08
8.01478e-08
-1.00348e-06
-2.51169e-09
1.58635e-07
0.00165019
-2.40066e-09
-0.0014268
1.48107e-10
-2.14581e-08
7.23467e-05
0.000103013
-3.65057e-09
1.69811e-08
9.87306e-10
-8.63446e-09
-8.2481e-08
1.41091e-06
1.6558e-08
5.14434e-09
-8.80097e-10
-1.2279e-07
-3.95793e-08
-3.18508e-08
-0.000236794
4.76346e-09
0.000195438
-8.8615e-05
-0.000446106
-7.4674e-08
-2.59505e-08
-2.34716e-05
-4.06639e-08
0.000673665
-0.000718868
-0.00217395
4.91116e-08
2.72147e-05
-5.47498e-06
-1.33858e-12
1.31894e-08
-1.09404e-07
-0.000140435
0.000530915
-1.7735e-08
3.52003e-09
-0.000318823
-0.000331306
-0.0133521
-1.33936e-09
9.62356e-09
1.15495e-06
-1.81674e-08
-0.000424003
-4.95979e-05
-0.000525851
5.64089e-06
-1.94336e-08
-2.39526e-08
-1.96964e-10
5.91244e-09
-0.000227135
-6.82351e-08
-3.53054e-09
-2.95098e-09
-3.29448e-07
-0.000195769
-1.22202e-07
-1.71951e-05
-4.20661e-05
-0.000303177
7.36129e-07
1.38225e-08
-1.80932e-09
0.00103808
4.39573e-09
-1.02797e-08
4.4214e-08
4.90841e-07
-2.77568e-08
-1.71424e-05
8.18636e-08
1.57027e-08
0.000283138
-4.2759e-08
2.12298e-08
-3.91945e-05
-4.34388e-07
3.08857e-08
-4.96368e-09
-8.39789e-06
1.85189e-05
-1.80599e-09
0.00161845
-0.00309229
-0.000226079
-1.54664e-05
-3.52069e-07
-2.17294e-08
-3.53757e-08
5.75775e-05
-5.86493e-08
0.000141934
-4.55459e-08
-3.54462e-05
-1.1147e-05
-1.4776e-09
3.39543e-08
-1.69365e-09
-2.56824e-09
-0.000207201
-0.000318015
3.66041e-09
-5.96135e-05
-5.05049e-08
-8.2547e-10
2.35374e-08
-9.20374e-09
9.77265e-07
3.24261e-09
-2.02497e-06
2.10206e-07
-1.55704e-08
-4.44593e-10
-1.55029e-06
0.000307274
-1.58889e-08
3.86208e-08
-3.01103e-08
-1.36391e-08
-4.90539e-08
-3.10302e-08
-0.000187918
-0.000274534
-7.72864e-05
6.40167e-09
-1.39599e-09
4.36818e-08
-1.76391e-06
-9.65807e-09
4.76012e-08
9.43519e-07
7.96224e-08
3.85998e-05
-1.33284e-08
0.000113155
-0.000257246
-3.51916e-13
-0.000167161
5.15097e-07
-8.59567e-08
4.86007e-08
4.09318e-08
-8.70507e-05
9.95091e-08
1.8125e-08
1.45624e-08
3.42593e-09
-0.000101286
1.55452e-10
2.04362e-08
1.3461e-07
0.000105743
-0.000227185
3.71181e-11
-9.53958e-10
-2.14916e-08
1.48365e-08
2.90334e-07
-1.57842e-08
1.35766e-07
-3.08425e-08
0.000149429
6.66532e-09
-0.000717907
5.88262e-09
0.000422814
-2.24295e-08
1.06982e-09
-0.000214721
-4.57193e-06
3.61482e-06
-7.4243e-05
-1.78973e-07
-2.40587e-09
7.04498e-09
-8.20363e-06
1.57788e-09
-1.01824e-08
1.73623e-08
-5.08059e-07
-3.51713e-05
-0.000151102
2.85039e-07
0.00140414
-1.37817e-08
0.00449955
2.18597e-09
-6.3398e-08
-3.17176e-08
0.000252934
1.18574e-08
0.000180815
-0.000291032
1.25495e-09
-1.67167e-09
-2.35394e-08
6.69884e-05
5.93818e-06
-4.08556e-08
-6.53364e-10
4.6618e-08
-3.43286e-08
-2.31487e-08
9.73765e-05
3.34072e-07
8.89026e-10
-7.76238e-06
6.42265e-08
0.000287279
1.47405e-07
4.59292e-08
-4.6187e-08
0.000286092
-4.18224e-10
1.23002e-07
-0.000487715
2.58748e-08
-6.09397e-09
1.1086e-06
-1.19103e-06
2.92028e-09
-0.000320232
-5.39171e-08
-4.14843e-06
-1.23848e-07
1.03398e-07
-1.35577e-08
-8.05955e-06
-4.75704e-09
-6.53172e-08
-3.92971e-07
-0.000222805
-9.47744e-10
-1.97894e-08
-7.02673e-09
-9.9409e-07
9.78329e-11
-0.000255404
-2.76327e-08
-2.29123e-08
-5.56392e-08
-6.38127e-10
5.27721e-11
5.79746e-07
1.0636e-08
-5.06201e-11
-2.1781e-08
6.10244e-07
-8.3082e-09
-2.23952e-08
-2.96609e-08
1.83454e-07
-1.09402e-07
2.22444e-11
2.21321e-07
-2.20619e-06
-3.4904e-07
-7.71151e-08
-7.19889e-07
8.47958e-07
-0.00141692
-7.81636e-07
4.75478e-11
0.00241155
0.00131378
4.28042e-11
-5.28341e-08
3.05643e-09
1.93328e-05
2.86079e-08
-9.16891e-09
-1.17495e-06
0.000225509
-2.42883e-09
-1.01277e-08
0.00169006
-0.000295866
-5.36322e-07
3.87363e-09
0.000382465
0.000390957
3.65237e-07
1.35165e-08
0.000244338
-8.56525e-07
8.01761e-08
-0.00013818
-5.93951e-08
3.98187e-09
-5.86557e-08
-3.28468e-07
-4.5068e-08
0.00128659
0.000151644
1.22958e-08
0.000837761
-1.2681e-06
-0.000149061
6.85874e-09
1.11732e-06
-1.33465e-09
-1.68511e-08
-0.000377547
1.95143e-05
-1.15775e-05
-0.00205362
3.55513e-08
3.19877e-10
-3.06842e-08
-9.44991e-05
-0.000325588
2.76424e-09
2.36095e-08
7.89222e-09
-1.66722e-08
4.07054e-08
-0.000900119
0.00140006
2.85078e-08
-3.06867e-08
1.19766e-09
-0.000197045
2.66508e-08
5.55121e-08
1.09065e-08
4.56001e-08
-7.22394e-07
0.000295009
5.08164e-05
-7.03172e-09
-1.63738e-09
1.8529e-05
-1.06613e-08
-3.05785e-07
-1.29295e-05
-0.000117889
9.39636e-09
1.99599e-10
-7.40513e-08
1.56089e-08
-1.50766e-08
-0.000560846
0.000246974
1.87365e-09
4.48636e-09
-1.93141e-09
2.51711e-09
1.36084e-06
-1.12423e-08
0.00172688
2.87099e-07
-5.10033e-07
1.78024e-08
2.62836e-08
0.000134943
-3.78835e-08
1.68538e-06
-0.000119006
-9.77577e-09
0.000285289
-5.82226e-08
-3.53836e-07
-5.96614e-07
1.50577e-05
-0.000151569
-4.24794e-07
-1.74384e-08
-8.30454e-07
-1.03303e-08
-1.28594e-09
-2.59736e-08
0.00208392
6.9369e-08
0.247425
5.24973e-06
2.24881e-08
-1.72238e-09
-6.8988e-07
-4.2536e-08
7.89308e-11
1.52717e-06
-3.08315e-09
-7.19824e-08
-4.66526e-08
-2.53853e-08
0.000257943
5.27689e-08
1.75443e-05
9.434e-09
-6.97385e-09
-0.000191435
-0.000388106
1.53236e-08
-1.09588e-07
-9.14817e-08
-7.48233e-08
-2.51423e-07
-3.32258e-09
4.35546e-08
-6.25416e-08
-4.41339e-05
2.41559e-08
0.00214444
-5.62898e-08
-8.45963e-06
-1.62061e-06
-2.37922e-08
-0.00066851
-1.27972e-09
-0.000429842
3.69109e-09
-3.82388e-05
-0.000934133
-0.00021257
0.00215507
2.37525e-05
-4.40261e-07
-1.02787e-08
-0.000767301
-1.29462e-07
3.63883e-09
-0.000173463
-0.0020632
1.08869e-08
-6.1089e-09
-4.04946e-08
-4.15758e-08
-3.49459e-08
0.000311303
-7.58595e-12
-1.91792e-08
-5.91449e-08
4.13536e-08
-2.23038e-09
-4.54377e-07
-6.81555e-09
0.0018247
2.38468e-08
-8.79788e-08
-5.51677e-08
-1.19136e-08
1.99813e-07
-4.9152e-05
5.43887e-08
9.39217e-09
-4.9123e-07
-0.000669188
-0.000365574
-1.12466e-08
0.00194785
-5.74399e-08
-1.84131e-05
3.44222e-09
4.67299e-08
-0.00037897
-2.92686e-07
-0.00012128
-7.558e-05
7.72643e-09
0.000333397
1.64131e-08
-8.12489e-09
1.15496e-05
-4.53056e-07
4.79455e-08
-0.000809101
-3.0636e-08
-2.78803e-07
8.26664e-08
-3.80596e-08
2.1145e-08
-0.00162016
-0.00254992
-2.27201e-05
-1.36077e-05
-6.0097e-08
-5.12901e-08
-0.000142344
4.66803e-08
-1.74382e-08
-7.1412e-08
4.90922e-09
5.49204e-07
-8.24178e-05
-0.000332501
-0.000218472
-1.02681e-07
-1.30758e-08
0.000164572
-3.89714e-09
-4.63982e-08
-5.16173e-10
-0.000332085
3.65282e-08
3.67838e-07
-0.000313513
2.0079e-07
1.83901e-09
5.03828e-08
3.48941e-05
-1.76936e-09
7.22174e-07
1.01142e-08
0.000800275
0.000135401
5.35516e-07
-2.61255e-06
1.26102e-09
-2.27528e-05
-4.98898e-07
-1.87689e-08
1.14915e-08
4.00594e-09
-4.13762e-10
-1.06736e-07
-1.88631e-09
-3.92389e-07
4.36715e-09
5.00714e-09
7.37274e-06
1.44709e-08
-3.36852e-08
-7.02597e-09
3.83725e-10
-0.000356432
1.94757e-08
3.75776e-09
-0.000115198
-2.4746e-07
0.00256112
-1.14418e-08
-4.19958e-05
-2.8365e-07
-0.000541777
4.28814e-08
2.38824e-07
7.97552e-09
-4.65338e-09
-3.63308e-07
-5.39804e-07
2.20115e-07
0.000258363
1.89523e-07
-0.000380356
1.51512e-08
-1.17162e-07
3.33458e-07
-0.00028619
2.09202e-08
7.52214e-09
-7.25182e-09
-9.04823e-08
5.53788e-08
0.000100853
7.17789e-08
-0.000639115
0.00163649
5.1782e-08
-1.15934e-08
0.000343873
-2.27902e-07
-1.60703e-08
1.9313e-08
-3.22711e-08
-0.00282972
1.31171e-09
-0.000342206
1.59287e-08
-2.78182e-08
-1.43737e-05
-2.67931e-08
1.51601e-08
-4.90215e-09
0.000322505
2.18549e-08
4.46734e-08
-6.07786e-08
-1.17161e-08
-4.8407e-08
2.50967e-08
-2.63653e-06
1.4107e-06
3.7027e-07
-1.43588e-05
-0.000159947
-0.000336539
0.000230668
4.62287e-09
-3.32672e-08
-5.71525e-09
-1.376e-08
1.08186e-07
0.00220413
-0.000270724
2.64859e-09
7.97392e-09
0.000303276
0.000200491
4.4357e-09
1.06666e-08
1.95072e-08
-5.57971e-05
0.000696395
-4.71844e-08
-2.84753e-08
-2.9576e-09
2.43531e-05
-4.28606e-07
1.41036e-07
2.78792e-08
2.81587e-08
-5.53499e-09
-4.22644e-08
5.07034e-05
-5.20108e-09
-2.42036e-08
-3.51294e-08
-0.000595989
3.41986e-08
-0.000179195
-8.79298e-10
-0.000313201
2.81528e-08
2.36993e-07
-2.34971e-10
-8.53431e-09
-2.63009e-06
0.00215913
5.48546e-07
6.21425e-05
-8.99989e-05
-4.98064e-10
0.000105047
-2.62628e-06
1.08171e-08
-0.00281551
5.14033e-05
5.14482e-07
8.22031e-11
-0.000163991
-0.000145134
-1.63868e-08
2.6194e-07
-0.000297519
-3.20195e-10
-2.30511e-08
5.30375e-09
-2.11811e-08
-3.65466e-08
-8.92074e-09
-8.32187e-06
6.23317e-07
-1.01837e-08
5.76954e-09
-1.13571e-08
-0.00076561
1.7825e-08
-4.84511e-08
2.70802e-08
1.42846e-08
-3.47112e-10
1.3616e-08
4.28142e-08
-3.65382e-05
5.48469e-09
1.60211e-06
1.46537e-08
0.000115831
-0.000337145
1.26608e-07
1.93467e-08
2.48026e-11
0.000256004
2.22717e-09
-1.16205e-08
-1.49793e-08
-5.40911e-08
-0.0142276
-4.76276e-08
-0.000398988
-1.76926e-07
-0.000138845
-3.1749e-09
2.16908e-08
-1.51122e-08
-4.4493e-09
-5.78272e-05
-0.000329318
-6.85785e-06
9.19575e-09
1.37971e-07
1.23281e-07
-9.74031e-05
5.77611e-05
-7.47298e-07
-5.03864e-08
-4.35807e-09
0.000248632
-1.33798e-08
-6.26918e-09
-3.87149e-06
-3.37906e-07
-8.52876e-08
-3.62268e-07
-3.39529e-08
2.0714e-08
-4.67788e-08
0.000342168
-6.20916e-08
5.22676e-09
-0.000129683
1.83631e-07
5.9303e-09
-1.62926e-05
1.49645e-09
-1.49522e-09
1.0321e-06
2.15126e-07
-2.13258e-05
7.48256e-09
3.20242e-08
-2.27058e-08
2.22905e-06
1.84152e-08
-5.95807e-06
-0.00236951
-0.000298409
0.000125687
-4.98972e-05
-3.29356e-10
0.000206304
2.02999e-06
-2.23089e-09
1.46429e-07
3.51424e-07
-1.64035e-08
-1.4335e-07
0.000188721
-0.000151885
-2.12672e-05
-8.28506e-08
-2.25403e-08
3.84042e-07
-7.70947e-11
-5.84937e-05
-6.11222e-08
7.04381e-09
-4.92265e-08
-2.77238e-08
7.27377e-09
5.59138e-07
-0.000144112
4.94092e-09
-3.49775e-08
-1.49242e-09
0.000305239
-3.90218e-08
0.000302164
0.00241606
3.61447e-06
4.77608e-09
8.84873e-09
2.74508e-05
-1.47218e-05
-4.07199e-09
-4.58733e-07
-6.54339e-10
-3.17182e-07
-2.63081e-07
3.12665e-07
-7.11533e-09
0.00111635
1.10555e-08
-1.78006e-08
7.62474e-06
0.000214893
-4.12121e-08
1.05502e-07
-2.96121e-08
-1.13462e-05
1.33133e-08
9.62954e-10
-1.56944e-08
-3.55178e-08
-5.93004e-06
2.28302e-05
-0.000413545
-4.36711e-07
0.000256566
0.00147651
4.29378e-09
-3.62534e-08
7.29463e-09
-5.10897e-06
-2.30761e-08
3.90053e-08
-9.61138e-09
-7.85274e-09
-8.23028e-09
-1.24972e-05
1.75036e-08
5.79214e-06
-5.43508e-09
2.87629e-07
2.78496e-09
6.94199e-07
1.10237e-08
-4.17167e-08
-6.07553e-08
5.19601e-08
-0.000394175
-1.01862e-08
-0.000298104
-5.42558e-08
-3.52625e-08
-1.97735e-10
-1.56847e-08
-0.000123563
-0.000112751
-2.12572e-08
-6.02298e-10
6.78849e-06
5.79462e-06
4.81021e-08
-0.000428044
2.50981e-08
3.73927e-05
-3.52857e-08
6.7655e-09
-0.00265314
2.27438e-08
0.000381983
3.98798e-10
-1.07401e-08
-2.21625e-09
9.10764e-05
-0.00030372
5.81356e-09
-3.32751e-06
1.6321e-05
-4.00072e-10
5.57766e-10
-2.28886e-09
5.06478e-07
-5.22867e-05
-5.49529e-08
1.7933e-08
-3.52427e-08
1.26993e-08
-3.64088e-08
-4.76182e-08
5.22559e-09
1.83629e-06
-2.92255e-08
-3.84984e-07
-2.7962e-06
-4.74501e-08
-8.16894e-11
0.00294614
1.52828e-07
1.26312e-08
-9.39527e-08
-4.31316e-08
-0.000345451
4.76058e-09
-0.000306176
1.39775e-08
-1.1464e-09
4.80835e-08
-7.2214e-09
-6.26356e-08
0.000356103
-3.3704e-07
-1.7042e-08
-0.000484728
1.16617e-09
4.16596e-07
-2.54977e-07
8.4154e-08
-3.95721e-09
-3.34381e-08
1.67877e-09
1.17812e-09
-2.33404e-07
-1.50807e-07