/*--------------------------------*- C++ -*----------------------------------*\
| =========                 |                                                 |
| \\      /  F ield         | OpenFOAM: The Open Source CFD Toolbox           |
|  \\    /   O peration     | Version:  v2012                                 |
|   \\  /    A nd           | Website:  www.openfoam.com                      |
|    \\/     M anipulation  |                                                 |
\*---------------------------------------------------------------------------*/
FoamFile
{
    version     2.0;
    format      ascii;
    class       volVectorField;
    location    "200";
    object      ddt0(U);
}
// * * * * * * * * * * * * * * * * * * * * * * * * * * * * * * * * * * * * * //

dimensions      [0 1 -2 0 0 0 0];


internalField   nonuniform List<vector> 
13917
(
(-0.000268103 0.000257001 -2.79948e-21)
(-8.45469e-05 -2.32841e-05 -5.90543e-22)
(0.00446483 0.000483303 -5.49597e-21)
(3.76251e-05 0.000284384 -7.29675e-22)
(-2.79505e-06 -0.000178892 1.22282e-21)
(-5.17289e-05 -0.000153013 0)
(0.00419861 0.00279217 0)
(0.0061626 -0.00180403 0)
(0.0021186 -0.00579553 -1.62766e-21)
(-0.000507365 0.000429928 2.70039e-21)
(-0.00472564 0.00278386 -3.2102e-22)
(-0.00010765 0.00161563 0)
(4.97855e-05 0.000298695 0)
(0.0118274 -0.000423734 -1.64038e-21)
(-0.000138157 -0.000100306 1.36634e-21)
(-0.000140932 -4.29493e-05 -1.45525e-21)
(-9.30186e-05 -6.09171e-05 -2.48174e-21)
(0.000103837 -0.000518591 0)
(-2.98551e-05 0.00154535 3.40583e-22)
(-3.94822e-06 -6.3814e-05 -2.57335e-21)
(2.07121e-06 5.0676e-05 0)
(0.00473757 0.00292676 0)
(-1.35973e-05 -0.000106799 -2.33145e-21)
(0.00610544 -0.00142914 -1.68461e-21)
(-2.75523e-05 4.65344e-05 -2.14617e-22)
(0.00180879 0.00580642 5.21484e-21)
(-2.01456e-05 -0.000178 0)
(-5.48562e-05 -0.000191723 6.10476e-22)
(0.000201362 -0.000390389 0)
(0.000218935 0.00106709 0)
(-0.000218349 0.000296922 2.7558e-21)
(-0.000161021 0.000171204 1.74441e-21)
(-5.54536e-05 -0.00017725 0)
(-9.53142e-06 -0.000252939 -4.38595e-22)
(-2.22948e-05 4.14425e-05 1.8213e-22)
(-0.00729983 0.00772927 2.48429e-21)
(-9.99658e-06 -0.000108253 -1.58131e-22)
(0.0089518 -0.00224339 0)
(9.55303e-06 0.000396212 -1.95706e-21)
(-0.00536734 0.000978224 5.14854e-22)
(-5.38572e-06 -2.3567e-07 0)
(3.90232e-08 2.30806e-05 1.79997e-22)
(8.71029e-06 -1.11245e-05 -3.48601e-21)
(-3.64958e-05 -0.000196475 0)
(-5.13282e-05 0.000119738 -3.19555e-21)
(-2.84774e-05 -0.000226122 0)
(4.22667e-05 -0.000518276 0)
(-0.000667138 -0.00118026 0)
(-4.25979e-05 -0.000136013 -1.12331e-21)
(-1.56791e-05 -2.26951e-06 2.44207e-21)
(-0.000171349 -5.12095e-05 0)
(-2.08665e-05 -0.000146306 2.14097e-22)
(-7.99842e-05 -6.09202e-05 2.12083e-21)
(-1.12349e-05 -0.000248575 -4.58988e-22)
(-9.53175e-05 -6.93656e-05 0)
(-9.43481e-05 1.08173e-05 -1.93798e-21)
(-0.0047136 0.00245388 -3.08576e-21)
(-4.49898e-05 -7.50999e-05 -2.26046e-21)
(-9.74851e-05 8.70738e-05 1.33118e-21)
(-4.90088e-05 0.00011989 5.43229e-24)
(-0.00211389 -0.00030116 0)
(-8.1091e-05 -4.33519e-06 3.2511e-23)
(0.0110113 -0.000443105 1.88388e-21)
(-7.51724e-06 -6.77319e-05 0)
(-5.12601e-06 -0.00015097 0)
(0.00439258 0.000339809 -8.65639e-22)
(2.19989e-07 -0.000182943 7.64675e-22)
(-9.34434e-07 1.25854e-05 8.48672e-22)
(-0.00291706 -0.00378537 -4.56377e-21)
(-0.000288397 0.000163166 -1.07316e-21)
(-6.57497e-07 -0.000182583 -1.12436e-21)
(0.00365621 -0.0063214 8.00035e-22)
(-0.00878247 -0.00100104 -4.68423e-21)
(-3.00438e-05 4.07234e-05 6.57482e-22)
(-8.92574e-06 -9.8238e-05 1.11116e-21)
(0.00120336 0.00138347 -5.22052e-21)
(-0.00359274 -0.00140848 1.17439e-21)
(-7.01566e-05 6.81059e-05 0)
(-0.00216448 0.00736373 0)
(3.91625e-06 5.63371e-05 1.51943e-21)
(8.4626e-06 2.72692e-05 1.81668e-21)
(-6.35809e-07 -0.000181955 0)
(-3.24576e-05 -8.04574e-05 0)
(0.00828639 -0.00270002 0)
(0.00266317 -0.00106009 -1.47463e-21)
(-6.68841e-05 6.84063e-05 -1.98311e-21)
(7.77769e-06 -1.97124e-05 -2.16405e-21)
(0.00298019 6.35535e-05 0)
(-0.000172765 -4.88405e-05 4.08561e-21)
(8.48687e-06 -1.27438e-05 0)
(-0.00493353 -0.00279429 0)
(-0.000438967 0.000805773 -4.15754e-21)
(-5.71051e-05 3.31189e-05 0)
(-8.60395e-05 -0.000206438 -2.83246e-23)
(0.00908279 -0.00211381 3.85619e-21)
(-5.34021e-05 -0.000115673 4.01135e-22)
(-0.00354902 -0.000666849 -2.17183e-21)
(-0.000334388 -0.00101195 -2.94937e-21)
(0.00218774 0.00434775 -6.41029e-21)
(-1.1544e-05 -0.000167257 -1.2936e-21)
(-1.48009e-05 -2.69309e-05 5.71119e-21)
(-1.07314e-05 -0.000198004 6.28416e-22)
(-3.56815e-05 -0.000186989 -8.03584e-22)
(-7.73321e-05 1.00772e-05 0)
(-3.37857e-05 -4.45179e-06 1.37359e-21)
(0.00210184 -0.00455843 2.90034e-23)
(9.42657e-05 -0.000459636 2.83373e-21)
(-0.000650845 -0.00131847 6.95042e-21)
(-9.46832e-05 -4.24088e-05 0)
(-0.000294609 0.00031328 1.88625e-22)
(-0.00131239 0.00226664 2.89601e-21)
(-0.00470908 0.00143897 1.5946e-21)
(0.000197451 0.00248757 0)
(0.00171768 -0.00464454 6.19863e-21)
(-1.40268e-05 -0.000247521 -3.19737e-22)
(7.22725e-06 -7.07861e-05 4.38506e-22)
(-3.0131e-05 2.443e-05 3.71146e-21)
(-3.11831e-05 -0.000131249 2.43687e-22)
(0.0126572 0.000938063 -1.02486e-21)
(-2.27982e-05 -0.000245904 1.30488e-21)
(8.55256e-07 3.92009e-05 1.33447e-21)
(-0.00264035 -0.00375306 7.53711e-21)
(0.0140736 0.000232829 0)
(-5.42278e-05 -0.000181891 -4.67627e-22)
(-1.19241e-05 1.89365e-06 -1.43035e-21)
(-7.94714e-05 -0.000207343 0)
(-5.87639e-05 0.000124351 -4.62134e-21)
(-1.35165e-05 1.90767e-06 2.54149e-21)
(1.183e-05 5.17897e-06 -1.72528e-21)
(-2.60655e-05 -0.000145577 0)
(0.0121862 0.00113012 -1.57574e-21)
(-1.50359e-05 -0.000235845 -2.3821e-22)
(-5.40093e-05 0.00012018 -2.79147e-21)
(9.30179e-07 4.29966e-05 0)
(0.000531344 0.00218992 -3.22141e-21)
(0.00583105 -0.0008911 0)
(-0.000286146 0.000252224 2.56433e-21)
(-2.18032e-05 -0.000177855 -4.07152e-22)
(1.08507e-06 -0.000179519 -8.59242e-22)
(-1.97786e-05 -0.000248939 -7.205e-22)
(-0.00883122 0.00626943 -4.88647e-21)
(-2.32991e-05 9.00009e-05 0)
(-4.0655e-05 -0.000205032 0)
(-1.39662e-05 -0.000189052 0)
(2.82305e-06 2.3877e-05 -3.69002e-22)
(0.00652763 -0.00726983 -3.6321e-23)
(0.000201361 -0.000497127 -2.11626e-21)
(-1.72046e-05 -0.000128141 0)
(-1.58282e-05 8.0656e-05 -3.13613e-21)
(-0.000181563 0.000162728 -2.93892e-21)
(-0.00112025 -0.000139596 0)
(9.97213e-07 -3.65966e-05 -1.4413e-21)
(-0.00216206 0.0013391 3.42265e-21)
(-0.000334938 8.77608e-06 -2.03054e-23)
(-0.000104891 0.000139191 0)
(0.000929898 -0.000384583 3.82249e-21)
(-0.000264732 0.000141711 0)
(0.000440823 -0.00411821 5.60339e-21)
(-0.00355863 -0.00105083 2.51975e-21)
(-0.000202387 0.00131506 -4.67121e-22)
(-6.31109e-05 -0.000240605 5.57034e-22)
(-5.84821e-06 -0.000192464 4.0885e-22)
(4.59373e-06 5.07932e-05 -1.67107e-21)
(-0.00341481 -0.000450564 -2.05392e-21)
(4.88637e-06 0.00238874 1.78549e-21)
(0.00176537 0.00423562 6.73213e-21)
(-8.24924e-05 1.53123e-05 0)
(-0.000926165 -0.000689176 5.02775e-21)
(-4.25083e-05 0.000116828 0)
(-2.11569e-05 -0.000189558 -3.93036e-22)
(-0.000351789 5.51777e-05 0)
(0.00164959 0.000701519 1.60478e-21)
(0.00080148 0.0027367 0)
(-0.000105414 -5.06406e-05 -1.74079e-21)
(0.00937633 -0.00866128 9.48623e-22)
(-0.000351057 -6.12833e-05 -2.25978e-21)
(0.0116589 0.0012972 1.32597e-21)
(-4.00482e-05 -0.000135748 6.6879e-22)
(0.00723821 -0.00779449 0)
(-5.25137e-05 -0.000103906 0)
(-0.000389602 0.00088802 0)
(-0.000212421 0.000321335 0)
(-1.95809e-05 8.79082e-05 1.81056e-21)
(5.01514e-06 -3.18461e-05 1.82931e-21)
(-0.000137299 -0.000127303 -1.11986e-21)
(-0.000496694 0.0062995 -1.17227e-24)
(-0.00138984 0.00218579 -5.15765e-21)
(0.00128983 -0.000402377 -2.67522e-21)
(-1.77237e-05 -8.09734e-05 -1.66661e-21)
(-0.000356508 0.00428809 7.82603e-21)
(-0.0124846 0.00137169 -3.03025e-21)
(0.00230147 -0.00114817 -1.46721e-21)
(-0.00184974 0.00122643 -2.82947e-21)
(-1.24001e-05 -0.000134218 1.86104e-21)
(-3.04396e-05 -0.000151267 0)
(-1.89177e-05 -0.000180935 -1.34802e-21)
(-9.31844e-06 1.80931e-07 0)
(-5.78788e-05 3.43468e-05 0)
(-4.2426e-05 -0.000485762 -1.32165e-21)
(0.00209294 0.00386632 0)
(-0.00017073 0.00011287 -1.10015e-21)
(-1.57033e-05 -3.83517e-06 3.13888e-21)
(-0.000923413 -0.000413753 8.40735e-21)
(-0.00109352 -6.65827e-05 0)
(-0.00866765 -0.000851469 -7.51962e-21)
(0.00511312 -0.00514819 -4.28455e-21)
(-2.15337e-05 3.11759e-05 0)
(-4.93466e-05 -9.11267e-05 2.54464e-21)
(-0.000408614 -0.000983606 6.91638e-22)
(0.00102591 0.00424584 -1.76187e-21)
(-3.75232e-05 -0.000186404 -5.19938e-22)
(0.00492999 0.00202317 0)
(-0.00850534 -0.000491102 2.61957e-21)
(-0.000612132 0.00413978 -5.14249e-21)
(-3.23744e-05 -1.41726e-05 6.6558e-22)
(9.48104e-05 -0.000189695 -3.43751e-21)
(-0.000470193 -0.000730602 4.72766e-21)
(-0.00468124 0.000785138 -8.41255e-21)
(-2.70583e-05 5.0354e-05 0)
(-0.00242686 -2.33918e-07 0)
(-4.9059e-05 -9.89022e-05 1.32557e-21)
(0.000633014 0.00075157 3.28874e-21)
(-6.51035e-06 -1.39772e-08 0)
(0.00542896 -0.00326669 0)
(0.00124607 -0.00392562 3.14271e-21)
(-0.000149725 -3.51812e-05 1.85992e-21)
(-0.000970248 -0.000606339 2.80481e-21)
(-0.000104741 0.000127277 0)
(-2.93461e-05 -2.42996e-05 -4.67366e-21)
(-0.00768259 0.00791095 0)
(0.000905009 0.00250966 0)
(-3.16032e-05 -9.59779e-05 -9.00423e-22)
(0.00461664 0.000468939 -1.41919e-21)
(-0.00855268 -0.000413402 1.30231e-21)
(-1.7207e-05 -3.63861e-06 2.69055e-21)
(-0.000163205 0.00017645 0)
(-0.00527796 -0.00309672 0)
(0.00201524 -0.000873856 0)
(6.36218e-06 4.74438e-05 0)
(-1.43526e-05 3.93026e-05 -1.77396e-21)
(-0.00947647 0.00119236 2.04857e-21)
(-0.00385668 -0.00143534 -1.22792e-21)
(1.2944e-06 3.90956e-06 0)
(-0.00467953 0.00808237 -9.38198e-21)
(0.00104848 -0.001069 0)
(-3.82442e-06 -0.000174609 0)
(-0.000209308 0.000236337 -4.9151e-21)
(7.67995e-06 4.75104e-05 1.65663e-21)
(-0.000281015 -0.000111993 0)
(-0.0071768 -0.000677567 -5.50077e-21)
(-5.42393e-06 2.38507e-05 1.54944e-21)
(-0.000689846 0.00104068 2.34367e-21)
(-7.59337e-06 -0.000153272 -7.69352e-22)
(-5.63361e-05 0.000125214 -3.55084e-21)
(-4.12361e-05 -5.56716e-05 2.48056e-21)
(-0.00140944 0.00109396 6.32564e-21)
(-0.0067838 0.00222614 0)
(-0.00198392 0.0013005 0)
(-0.00013877 -0.000126316 0)
(-0.000140994 -8.62308e-05 -1.95397e-21)
(1.15429e-06 7.03427e-06 -1.31994e-22)
(0.0142671 0.000220222 0)
(-0.00596828 0.00247024 0)
(-0.000261372 0.0101845 -2.07484e-21)
(-2.91956e-05 -3.39158e-05 7.21114e-21)
(-0.00915118 0.000290745 -8.77807e-21)
(0.00945694 -0.000678797 0)
(0.00494108 -0.00395913 -6.0304e-21)
(-0.00144211 0.0057833 9.07561e-22)
(0.00142615 0.00148872 -2.01965e-21)
(9.12054e-06 3.53165e-05 -1.74342e-21)
(-6.58306e-06 3.42725e-06 4.82055e-21)
(-4.30298e-05 -0.0005857 4.80216e-21)
(0.00265004 -0.00272228 3.20241e-21)
(-0.000335727 -0.00279505 9.72352e-22)
(-9.70166e-05 8.35617e-05 5.3883e-21)
(0.0035366 -0.0045754 0)
(1.6754e-05 0.000725731 0)
(1.15289e-05 2.62167e-06 2.78223e-21)
(-0.0102781 0.00395359 -1.65208e-21)
(-9.13693e-06 -5.50087e-05 1.63083e-23)
(0.00965259 -0.00840888 1.25044e-22)
(-0.000159462 0.000113792 9.51449e-22)
(2.36545e-06 3.79542e-06 3.54051e-22)
(-0.000176168 1.39935e-06 0)
(-0.000332043 -1.11212e-05 -1.11351e-23)
(-4.16366e-05 -0.000190967 0)
(-0.00572275 0.00853754 6.85729e-21)
(-0.000228581 -3.37871e-06 2.69484e-21)
(-2.36689e-05 -9.37327e-06 2.48476e-21)
(0.00554569 0.0029123 0)
(0.00505519 2.05051e-05 1.61429e-21)
(-0.00551194 0.00271104 0)
(-2.86846e-05 5.86961e-05 2.03183e-21)
(0.00729041 -0.00649352 0)
(3.948e-06 -6.38218e-05 0)
(-2.50937e-05 -8.64631e-06 8.76001e-21)
(-3.08394e-05 1.13951e-05 -4.18543e-21)
(0.000258255 -0.000514125 2.36916e-21)
(-2.68191e-06 -1.01964e-05 0)
(0.000645917 0.000834398 3.59982e-21)
(-0.000208144 0.000228328 4.18432e-21)
(-3.9072e-05 0.000116473 4.06114e-21)
(-0.00100618 -0.000401461 -1.058e-20)
(-0.000106942 0.000123371 3.92954e-21)
(-3.07347e-05 -0.000219387 2.1201e-22)
(-0.000336687 -4.26995e-05 1.38168e-21)
(-0.000383688 0.000750394 -1.92679e-21)
(-1.93395e-05 7.87484e-05 -6.5318e-21)
(-3.96138e-05 -3.94803e-05 -3.6016e-21)
(-0.000473866 0.00201923 1.48758e-21)
(0.0141869 -0.000245643 -3.20061e-21)
(-2.89806e-05 3.73033e-05 8.98082e-22)
(-5.23258e-06 1.86141e-06 -1.45407e-21)
(-0.0103778 0.00398504 0)
(-5.53276e-05 -8.01099e-05 -2.31608e-21)
(-0.00863286 -0.00123778 8.71943e-21)
(-1.98566e-05 8.36773e-05 2.33958e-21)
(0.00485152 -0.00358199 6.69635e-22)
(3.09047e-05 0.000179623 -7.27034e-21)
(-0.00145275 -0.000723207 1.23352e-21)
(-0.000329678 -0.000125126 -9.7548e-21)
(1.15511e-05 -9.00465e-05 -2.39416e-21)
(-6.20942e-05 -0.000240075 -9.99564e-22)
(0.00233074 0.000691051 -1.13728e-22)
(4.40816e-05 -0.000189525 0)
(-0.00018196 8.06546e-06 0)
(-0.00365827 -0.00164872 -5.65119e-21)
(-2.77389e-05 -0.000705345 0)
(-7.81034e-05 -0.000170388 0)
(0.0125537 -0.000654612 0)
(-4.85546e-05 -0.000161496 0)
(0.00898065 -0.001011 -2.23048e-22)
(-2.52836e-05 -0.000258725 9.98805e-22)
(0.00550106 0.0010404 0)
(-0.000159638 0.000179368 3.6138e-21)
(0.00326797 0.00125899 -1.54856e-21)
(2.81407e-05 -0.00017566 0)
(-0.00019277 -0.00039814 -2.16661e-21)
(-0.00023032 -0.000389364 1.96784e-21)
(0.00502791 0.000273539 3.35371e-21)
(5.80848e-06 4.09509e-05 -8.89978e-22)
(-0.000377161 5.95883e-05 -2.3065e-21)
(-0.000858797 0.00265156 -2.60813e-21)
(-5.05903e-05 -0.000123973 0)
(-0.000129814 -6.10309e-05 2.83113e-21)
(0.0107082 -0.000786149 2.72983e-21)
(-8.68565e-07 -0.000505273 0)
(-0.000104056 -2.36912e-05 5.7896e-22)
(-0.00993555 0.00125867 0)
(0.00016413 -0.000339596 0)
(-5.92272e-06 -1.5765e-05 0)
(0.0128948 0.000754236 1.00437e-21)
(-0.0110222 0.00455538 8.00666e-21)
(-1.08308e-05 -5.63958e-05 2.78358e-21)
(-1.59333e-05 -1.8936e-05 0)
(-4.04273e-06 -4.33385e-05 -2.13974e-23)
(-1.33607e-05 7.74374e-05 3.53541e-21)
(0.00572726 0.0018038 -1.67106e-21)
(0.00811087 -0.00830456 2.27528e-21)
(-0.000151673 -0.000114576 0)
(-0.000173084 0.00241832 -1.2649e-21)
(-3.0749e-05 3.05452e-05 -1.17825e-23)
(-0.000747841 0.00113118 -4.1449e-21)
(0.00091799 -0.000118643 -5.29674e-23)
(-0.000570008 -0.000226078 -1.02206e-21)
(0.0054015 0.00220895 0)
(0.00215752 -0.00329195 2.68068e-21)
(0.000933094 -0.00407791 -9.76181e-21)
(-1.9492e-05 -2.16335e-06 -2.33673e-21)
(0.000214705 0.00959972 -3.73349e-21)
(-1.6941e-05 -4.03966e-05 0)
(-0.00321396 0.000509538 5.8665e-22)
(-5.05776e-05 0.000125214 3.30895e-21)
(1.11217e-05 -8.5271e-05 1.28773e-21)
(0.00121255 -0.000958657 1.67083e-21)
(-6.60968e-05 0.000235384 5.97396e-21)
(5.52077e-06 9.16984e-06 4.9292e-22)
(-0.000421774 -0.000863523 -1.07705e-20)
(-0.000421505 0.000963938 0)
(0.000289041 -0.0010421 0)
(0.000158884 0.000112316 1.69202e-21)
(0.00356278 0.00117787 -1.80159e-21)
(-0.00464257 0.000796106 1.01447e-20)
(-0.000299863 -0.000127305 0)
(-0.000470322 0.000420644 -6.73335e-21)
(-1.43635e-05 3.95604e-05 0)
(0.00199797 -0.000969005 0)
(0.00442575 0.00395225 4.76231e-21)
(-5.65232e-05 -0.000124548 1.60108e-21)
(0.00704332 0.00018979 3.42417e-21)
(-2.26286e-05 -4.15001e-05 0)
(0.00399304 -0.00270443 6.15902e-21)
(1.96927e-05 0.0001606 5.14793e-21)
(4.72904e-06 5.6189e-05 0)
(-0.000108827 0.000102195 0)
(-0.00725109 0.00610289 6.37725e-21)
(-0.000112769 9.20374e-05 0)
(-0.00634239 0.00271791 5.80503e-21)
(0.000776584 -0.000691908 -6.53009e-22)
(-0.00325439 0.00365058 -9.82167e-21)
(4.4663e-05 -0.000150551 0)
(-7.6609e-05 -0.000164181 -1.05599e-21)
(6.01251e-05 -0.00019329 2.8258e-21)
(3.3941e-05 -0.000170315 -1.51754e-21)
(-2.60406e-05 -3.69304e-05 -1.31112e-21)
(4.20011e-05 -0.000467607 -2.63865e-21)
(-4.74443e-05 -0.000107021 -2.03206e-23)
(-2.84925e-05 1.81773e-05 -2.11505e-22)
(0.000103619 0.00104978 0)
(2.1528e-06 9.90326e-06 0)
(-2.74179e-05 4.67771e-05 -6.05236e-22)
(-1.77096e-05 -4.17473e-05 0)
(0.00371567 0.000986452 1.55181e-21)
(3.5622e-06 6.01797e-05 1.02892e-22)
(0.00602798 0.00145216 0)
(-0.00874793 0.00784073 0)
(0.000368333 -0.000269998 0)
(-0.00182114 0.00109369 9.7556e-22)
(0.000724768 0.00407787 2.44587e-21)
(-0.00705973 0.000775677 0)
(-0.000581075 -0.000190366 1.88286e-21)
(-2.81604e-05 1.59518e-05 0)
(0.00267501 -0.000512001 -1.13354e-21)
(-4.65795e-06 0.000376996 1.63048e-21)
(-0.00017724 0.00018702 3.56813e-21)
(-1.43962e-05 -0.000133304 2.1871e-21)
(0.00758949 -0.00782311 -2.19786e-21)
(0.0027048 0.00391136 1.9412e-21)
(-0.0112968 0.00827668 1.23823e-22)
(-0.0001438 -8.69906e-05 -2.41573e-23)
(0.00114255 -0.00152329 -1.9099e-21)
(-2.76749e-05 -0.000265403 -1.53392e-21)
(-3.72652e-06 0.000415651 -3.70781e-21)
(0.000233802 -0.00105354 0)
(-0.00011402 1.3706e-05 -4.42333e-21)
(0.00178387 0.00986565 0)
(-9.38759e-05 -3.54463e-05 0)
(-3.29175e-06 -1.22036e-05 2.59748e-21)
(-0.00854158 -0.0013792 0)
(0.0116252 0.00147924 0)
(0.0111835 0.00173578 -7.19613e-22)
(-0.00113611 0.000320139 -2.55778e-21)
(0.000266574 -0.000193639 0)
(0.0118208 -0.000819976 0)
(-0.00554283 0.0023443 0)
(0.0012989 -0.00153569 0)
(9.60909e-06 1.1584e-05 3.0552e-21)
(-0.000177798 -0.000783472 -8.65488e-23)
(-0.000112365 3.16404e-05 4.49896e-21)
(-4.80177e-05 -0.000101266 0)
(0.00711772 -0.00330757 -9.89054e-21)
(1.64515e-05 -0.000586727 -5.49286e-21)
(1.12986e-05 1.98013e-06 0)
(0.000430671 2.18233e-05 0)
(-0.000485087 -0.000227486 -3.97697e-21)
(0.00312336 -0.00131113 -3.92366e-21)
(-2.61261e-05 -2.44257e-05 -1.67203e-21)
(-0.0021449 -0.00220559 -8.0071e-21)
(0.000688 0.000251934 1.12874e-21)
(-0.00155984 -0.000933651 7.10063e-22)
(0.00831428 0.00181085 -5.0908e-21)
(2.66414e-06 5.83761e-05 8.37445e-22)
(-6.08921e-05 -0.000121911 -2.03587e-22)
(-1.65923e-05 -6.206e-07 -8.09188e-22)
(-0.000274661 0.000140209 1.40119e-22)
(-2.03464e-05 -9.41261e-07 5.83307e-21)
(-0.00380215 0.00756667 -2.56053e-21)
(-0.000120327 -0.000140732 3.13374e-22)
(-0.000225374 1.07775e-06 -2.30445e-21)
(0.00153252 -0.000863029 0)
(-0.000101981 2.46756e-06 3.79574e-21)
(-0.00360185 -0.000178051 0)
(-0.00509837 0.00271232 -3.81933e-21)
(0.000163362 -0.000530009 -1.58034e-21)
(-0.00293172 0.00370128 8.29672e-21)
(-0.00997647 0.00630188 6.64188e-21)
(-0.00237892 -0.0022086 6.77016e-21)
(0.000281013 0.000258691 5.06001e-21)
(0.0023845 -0.00187137 0)
(-0.000542824 0.000574197 4.47127e-21)
(-0.00193528 0.00546902 -5.8842e-21)
(-2.19106e-05 -0.000114226 0)
(-0.000306128 0.000913585 -5.60555e-21)
(-0.00110313 -0.00148198 2.122e-21)
(-6.11306e-06 6.27507e-06 3.55799e-21)
(0.00542938 -0.000949616 0)
(-0.000169773 -6.43451e-05 4.01238e-21)
(1.93262e-06 -3.97658e-06 -3.67515e-23)
(-0.000262084 0.000121749 0)
(-7.26637e-05 4.95155e-05 -2.00856e-21)
(0.00238989 -0.00158598 0)
(0.002376 -0.00518889 0)
(-5.13236e-05 -8.56842e-05 1.54981e-21)
(1.15097e-05 3.26952e-06 9.71621e-22)
(-0.00183263 0.00582118 -2.01878e-21)
(-0.00709442 0.000677175 0)
(2.07075e-06 7.61888e-06 1.82338e-21)
(0.00816206 0.001279 5.44666e-21)
(-5.05495e-05 3.6118e-05 -5.95292e-21)
(-0.00142329 0.0013163 8.35944e-22)
(-5.33141e-05 -9.13259e-05 -1.12293e-21)
(-0.00934618 -0.00026198 -3.00819e-21)
(-0.000550184 -0.00987661 0)
(-0.000175042 0.000170184 3.0793e-21)
(-7.75048e-05 0.000125976 -4.08402e-21)
(0.000722574 0.00465709 -6.32458e-21)
(-0.001244 0.00203544 3.62505e-21)
(0.00157692 -0.000223768 0)
(1.35952e-06 9.21977e-06 0)
(-0.0080857 -0.000645742 -5.23579e-21)
(-1.59787e-05 -0.000142084 -8.99088e-22)
(-0.00995883 0.00394068 -1.35069e-22)
(2.37215e-06 -9.5082e-06 -8.3941e-21)
(0.0027698 -0.000986271 -4.14575e-22)
(-0.00413646 0.00322856 0)
(-0.000645217 -0.000109517 7.75363e-21)
(-1.68352e-05 -2.87381e-05 3.24329e-21)
(-8.97666e-05 -0.000107619 0)
(0.00140213 0.000997568 -6.81937e-21)
(0.00549751 -0.00277709 5.11513e-21)
(1.23077e-05 3.37615e-06 -1.18346e-21)
(-1.41103e-05 -7.80597e-06 1.90266e-21)
(-1.07413e-05 1.07171e-05 3.07044e-21)
(-8.9079e-06 1.13008e-05 0)
(-0.00931587 0.00018682 5.40831e-21)
(0.00709011 -0.00259901 -8.261e-21)
(-0.000601928 -0.000117874 -7.75597e-21)
(-0.00107863 0.00240352 2.49539e-23)
(-6.68076e-06 3.11973e-06 -4.69545e-21)
(-1.43908e-05 -2.58994e-05 -4.87455e-21)
(0.000975887 -0.00157125 9.68264e-22)
(-0.00510175 8.27349e-05 8.15205e-22)
(-4.41839e-05 2.66443e-05 0)
(-4.22268e-05 0.000115334 0)
(-2.45698e-05 2.48149e-05 0)
(-1.33447e-07 -0.000104686 9.8501e-22)
(-0.00969516 0.0040012 2.80839e-21)
(0.00205267 -0.00121281 3.05162e-21)
(8.15809e-06 -2.03924e-05 0)
(-7.01193e-06 -0.000100201 8.6687e-22)
(0.00110373 0.00936979 -2.04203e-21)
(-0.000546627 0.000517782 -4.27983e-21)
(-0.000340122 -9.71367e-05 -1.85229e-21)
(-5.106e-05 -0.000111828 2.78452e-21)
(-0.000115273 7.85378e-05 2.16921e-21)
(-0.000168602 0.000137688 7.22452e-22)
(-0.00119088 -0.00135797 1.20717e-22)
(-6.96172e-05 -0.000670405 0)
(-0.00133907 0.00237635 4.01464e-21)
(0.00287596 -0.000699286 5.06956e-21)
(1.01678e-05 -0.00206013 0)
(0.00440515 -0.00596528 1.11288e-21)
(-0.000301901 0.000744686 -2.58933e-21)
(-2.87841e-05 6.23573e-05 -2.04251e-21)
(-0.00754642 -0.000791514 4.73557e-21)
(4.35643e-07 -0.000118328 -5.99248e-22)
(-0.00013366 -5.32032e-05 -3.34519e-21)
(-0.000104093 0.000112569 2.16886e-22)
(0.00609112 -0.000717063 -2.43378e-21)
(-0.000356899 -0.000292008 0)
(-1.11747e-05 -5.48594e-06 0)
(-0.001611 -0.00084724 0)
(0.000394105 0.00123218 0)
(0.000556888 0.000439418 -1.19236e-21)
(0.000152597 -0.00200102 4.37201e-21)
(-0.000130151 -0.000147825 -3.45848e-23)
(-0.000500166 -0.000277426 -3.70159e-21)
(4.25193e-06 -9.75453e-06 -1.02662e-21)
(-0.00475996 0.00272524 0)
(-0.0015594 -0.000710836 -1.41664e-21)
(0.00793525 -0.00160524 0)
(-8.84291e-05 -5.10312e-05 0)
(-8.40515e-05 -9.17047e-06 6.3457e-21)
(-0.00100523 0.00258131 0)
(0.00138111 -0.0035986 -5.86084e-21)
(-0.0062816 5.39379e-05 -1.17812e-20)
(-0.000301086 -0.00112316 9.69045e-23)
(-0.00123049 0.000334381 -3.51267e-22)
(-0.000142604 -5.86979e-05 4.10565e-22)
(-0.000104571 0.000150273 3.74623e-22)
(-5.8265e-05 -0.000114198 1.55186e-21)
(-0.000166574 -0.000200667 0)
(-1.72193e-05 -0.000184865 0)
(1.44833e-06 -3.85505e-05 0)
(-0.000549552 -0.000675492 0)
(-1.52625e-05 -0.000157758 1.8392e-21)
(0.00759916 -0.00189812 -9.62656e-22)
(0.00167889 -0.000288086 0)
(-0.000133591 9.31637e-05 -1.04045e-21)
(-0.00348024 3.16539e-05 -2.8157e-22)
(-0.00276385 -0.00919622 0)
(-0.00019635 2.26705e-05 1.4117e-21)
(-3.96489e-05 -0.000178208 1.09944e-21)
(6.43205e-05 -3.32446e-05 0)
(0.000424084 -0.00272754 5.30423e-21)
(0.00779308 -0.00782894 2.35069e-21)
(-0.000510415 0.0026081 -4.76485e-21)
(1.16807e-05 6.89901e-06 0)
(0.0131242 0.000724834 -1.08636e-21)
(0.00120395 0.00118883 6.35239e-21)
(-1.03743e-05 -3.27958e-06 0)
(-9.67831e-05 0.000157156 -1.19939e-21)
(-0.00188262 -0.000372609 0)
(-5.71352e-05 -0.000175334 -7.68831e-22)
(0.000282223 0.000979722 1.38986e-21)
(-0.000728492 0.00686593 0)
(0.00214113 -0.00194807 1.7344e-21)
(-0.000415632 0.000475559 5.03992e-21)
(-0.00457467 0.00246339 0)
(-7.98477e-05 7.38691e-05 1.39327e-21)
(0.00118509 -0.00121414 -5.06163e-22)
(8.07645e-06 5.20223e-05 0)
(3.29967e-06 -3.34699e-05 9.33019e-23)
(0.00812243 -0.00608895 -2.53076e-21)
(0.000758213 -0.0028372 -2.97753e-21)
(3.2777e-05 -0.000133167 1.34948e-21)
(-7.99229e-05 6.48728e-05 -1.48419e-21)
(-0.000100238 -5.04337e-05 2.8685e-21)
(-7.63526e-06 -0.000110956 -1.24154e-21)
(2.17218e-05 0.000752037 2.70179e-21)
(-3.10839e-05 -0.000124373 -1.16181e-21)
(0.00176474 0.0039112 -6.0718e-21)
(-0.000105769 0.000148773 3.90209e-22)
(-0.0027554 0.00341224 -4.5701e-21)
(-0.00047652 -0.000800891 5.04694e-21)
(-5.75569e-05 -9.35635e-05 -4.02397e-21)
(-0.00073052 -0.00133984 1.4657e-21)
(0.00203583 0.00357429 4.47714e-21)
(0.00809839 0.00816119 9.6123e-21)
(-2.10721e-05 1.95439e-05 0)
(0.00181419 -0.00231019 -1.39874e-21)
(-7.01843e-05 6.08843e-05 -2.91798e-22)
(0.000961812 -0.000693746 -2.23465e-21)
(-0.000496484 0.00049297 -2.71223e-21)
(-0.000384686 -0.000273755 0)
(-7.7088e-05 -7.43076e-06 -5.8808e-21)
(-2.63251e-06 -1.11736e-06 -3.34661e-21)
(2.68386e-06 -1.17613e-05 2.01916e-21)
(-6.04594e-05 0.000129396 3.16625e-21)
(-0.000289365 -0.000426919 2.02317e-21)
(-2.71864e-05 -0.000218535 0)
(0.00203564 0.00267728 -3.85077e-21)
(0.000486857 -9.13294e-05 5.9736e-23)
(-0.000819933 -0.000689884 -5.31459e-21)
(-5.06236e-06 -9.90761e-06 0)
(0.00230021 -0.00137382 0)
(6.79145e-05 -0.000141537 0)
(-0.00713336 0.00661515 -5.70471e-21)
(-5.78246e-06 1.48053e-05 0)
(-4.60822e-05 -0.000226744 -3.21993e-22)
(-1.37778e-05 4.02505e-06 -1.66848e-23)
(-0.000149285 0.000381815 0)
(-9.68848e-05 7.1185e-05 0)
(-0.00401968 0.0030244 -1.70047e-21)
(4.68903e-06 5.46026e-05 0)
(-0.00284437 -0.00146478 -2.68641e-21)
(-0.000184432 0.00032452 0)
(-0.0044842 0.00334165 1.39048e-21)
(-0.000574196 0.00072224 -1.12086e-21)
(-0.00920194 -0.000614179 7.46818e-21)
(-0.000449223 -0.000268979 1.87457e-21)
(-8.73488e-05 -0.000114294 5.95538e-22)
(0.000767514 -0.00249938 -3.55366e-21)
(-0.00944719 0.000150772 5.78212e-21)
(-6.29503e-05 -0.00013653 0)
(-9.31069e-05 0.000126413 8.29184e-22)
(0.000465495 -0.00963175 1.05724e-20)
(-0.000475798 0.00237689 0)
(-0.000530304 -0.00267246 -2.06042e-21)
(4.39442e-06 7.84456e-06 2.24425e-21)
(-7.46489e-05 0.000133682 0)
(-0.0013668 -0.000614983 0)
(-5.61535e-05 0.000255801 -8.01943e-21)
(0.000347219 -0.000920557 0)
(-0.00129832 0.00099647 0)
(2.60271e-06 -1.45838e-05 2.78724e-21)
(-0.00112691 0.000114052 0)
(0.00469508 2.38242e-05 3.02246e-21)
(-1.21926e-06 3.51468e-05 3.28938e-21)
(1.83994e-05 0.000218959 0)
(-1.47088e-05 9.19282e-06 -2.71477e-21)
(0.0142568 -0.000277433 -1.63301e-21)
(1.75317e-06 5.28321e-05 -1.75028e-22)
(-0.000137418 -9.33837e-05 -2.52226e-23)
(0.00195447 0.000785376 1.49177e-21)
(-0.000114451 -0.000116992 -1.56444e-21)
(0.00143904 -0.00363628 2.79862e-21)
(-0.000114105 0.000147432 -4.04305e-22)
(-5.27994e-05 -0.0001773 1.33324e-21)
(-1.23979e-05 1.04407e-05 -4.61539e-21)
(-0.000385272 -8.02065e-05 2.74536e-21)
(-3.015e-05 -9.04075e-06 2.27776e-21)
(0.000191 0.00033843 -1.01616e-21)
(-1.8312e-06 4.9271e-07 0)
(-0.000656776 -0.000180873 -1.94754e-21)
(-5.94082e-05 2.31023e-05 0)
(0.00310308 0.00122617 -1.93724e-21)
(0.000240024 -8.96728e-05 -1.47357e-21)
(-0.0051568 0.000474849 -1.02288e-21)
(-1.59676e-05 -1.35899e-06 -6.78688e-22)
(5.40513e-06 3.17845e-05 7.70843e-22)
(-0.000264167 0.000675565 2.52208e-21)
(-0.000222692 0.000364863 -6.38438e-24)
(0.0116953 -0.000594387 -2.9994e-21)
(-0.00236172 -0.00300199 3.65472e-21)
(0.000145593 -0.000456662 4.67855e-21)
(-2.65092e-05 1.54818e-05 0)
(0.00337675 0.000914833 1.51052e-21)
(2.60419e-05 -0.000114594 -2.75569e-21)
(0.00723605 0.00842461 -8.23985e-21)
(0.00207382 0.00261885 4.66294e-21)
(-0.000165852 -0.000579859 4.85771e-21)
(-0.00415516 0.00758144 7.19406e-21)
(-0.000290412 0.000223335 -1.38569e-21)
(-1.52202e-05 0.000703529 4.3111e-21)
(0.00213406 1.04868e-05 2.68045e-21)
(-4.95186e-05 -0.000430739 -1.27408e-21)
(0.000135382 -0.000407085 -3.32846e-21)
(3.60134e-05 -0.000117099 1.94988e-21)
(0.000177903 -0.00029919 1.96664e-21)
(-2.81834e-05 0.000198169 -3.15832e-21)
(-0.00201558 -0.000455546 -3.69275e-21)
(-0.000189592 2.05381e-05 1.58364e-21)
(-1.96553e-06 -1.13127e-05 1.08652e-20)
(-0.000162607 0.000364964 1.40547e-21)
(-0.00026811 0.000317582 3.11873e-21)
(-0.000180188 0.000155455 4.48017e-23)
(-2.89024e-05 -2.31135e-05 0)
(-7.62109e-06 1.65093e-06 0)
(-0.00067424 -0.0007835 5.08367e-21)
(-8.9763e-05 1.94414e-06 -4.95797e-21)
(0.000465705 -0.000916734 3.97785e-22)
(-2.29757e-05 1.17489e-06 0)
(-1.97782e-05 -8.9456e-05 0)
(6.61514e-07 4.58297e-05 -1.16833e-23)
(-0.000119689 4.82115e-05 1.28205e-22)
(8.002e-06 1.38791e-05 -4.89438e-21)
(-0.000147981 0.000153945 2.8441e-21)
(-1.56994e-05 4.26917e-06 7.3055e-22)
(-0.00939437 -0.00015274 0)
(0.000202448 0.00147816 0)
(-0.000145187 -0.000178415 5.88638e-23)
(-2.03075e-05 -1.60022e-05 8.88666e-22)
(3.81049e-06 4.43543e-05 -2.2122e-21)
(-6.99807e-05 -0.000170317 1.02165e-21)
(0.000334859 0.000251821 -5.88501e-21)
(-1.1087e-05 -0.000223364 0)
(-0.00919329 0.0044281 3.329e-21)
(-0.000758677 0.000211176 3.96115e-21)
(-0.00293826 0.000922018 -1.44045e-21)
(-0.000175698 0.000344828 -1.82183e-21)
(0.00152793 -0.00164257 2.27488e-21)
(-5.11669e-05 6.95322e-06 2.58178e-21)
(-2.91912e-06 4.33914e-05 -1.64731e-21)
(-7.77421e-06 1.01442e-05 0)
(-0.000108713 0.000113929 -6.12308e-21)
(0.00440611 0.000136193 -2.59647e-21)
(3.08359e-06 4.03689e-05 3.17215e-21)
(0.00150407 -0.00649049 2.43091e-21)
(-0.000161408 0.00015482 0)
(0.000977387 -0.000153075 -1.6512e-21)
(-0.000273966 -0.000163605 2.53424e-21)
(-0.000781985 0.000247467 -2.23644e-21)
(-0.00415666 0.00333667 6.81323e-22)
(2.0832e-06 4.13224e-05 0)
(5.29936e-08 1.50313e-06 0)
(0.000135261 0.00158138 0)
(-7.28639e-06 1.75328e-05 0)
(-7.09342e-05 -0.000190629 -9.14198e-22)
(-0.0105132 0.00453132 0)
(-0.00010741 -3.86225e-05 -1.5784e-21)
(5.09619e-07 -2.70834e-05 -2.10083e-22)
(-9.09342e-05 8.34492e-05 -4.77313e-21)
(-1.26556e-05 3.43338e-05 1.64054e-21)
(8.56658e-06 7.3373e-06 -2.25768e-21)
(-0.000164688 0.000168374 -1.65583e-21)
(1.02848e-05 -0.000222249 0)
(0.0121713 -0.000250821 -1.79339e-21)
(-0.000221752 0.00021502 2.74791e-22)
(1.7883e-06 4.9383e-05 3.91209e-21)
(-6.81023e-06 -2.54867e-06 0)
(0.00100672 -0.0041837 2.78808e-21)
(-0.000253642 -0.000429502 0)
(-7.57127e-05 -0.000150322 1.83269e-21)
(-9.00707e-05 -3.77728e-05 -1.37918e-21)
(-0.0101409 0.00449204 -5.11922e-21)
(-0.000590837 -0.00983018 4.74521e-21)
(-0.00197203 0.000787805 5.20873e-21)
(-0.000132331 -0.000154961 0)
(-4.08477e-05 0.000181239 1.62614e-21)
(-1.73218e-05 -7.15669e-06 -1.93484e-21)
(9.69821e-06 7.57497e-06 4.6128e-21)
(-0.000367733 0.000934019 3.48344e-23)
(-0.000225258 0.000225801 -1.44294e-22)
(-0.00779242 -0.000626659 -3.03893e-21)
(-2.99133e-05 -0.000260076 0)
(0.0130275 -0.000609974 -3.02837e-21)
(-8.76353e-05 6.79823e-05 5.09113e-21)
(-8.94178e-05 -0.000200702 -1.29626e-21)
(-0.000941242 0.000536294 -5.30414e-21)
(-2.33374e-05 -5.4287e-05 0)
(-0.00018061 -7.17302e-05 -4.63524e-21)
(-5.47444e-05 -0.000118314 -2.34189e-21)
(-6.59597e-06 -1.41054e-05 -3.1081e-21)
(-0.000292882 0.000289713 3.68092e-22)
(-2.32609e-05 -0.000146542 4.76946e-22)
(-6.25152e-05 9.35447e-05 0)
(0.00159393 -0.00370825 0)
(-0.00301159 0.0020282 -7.48293e-21)
(-0.00052688 0.00079481 1.06469e-21)
(-2.76082e-05 5.96306e-05 -3.8107e-21)
(4.5388e-06 -7.35863e-06 4.00941e-24)