/*--------------------------------*- C++ -*----------------------------------*\
| =========                 |                                                 |
| \\      /  F ield         | OpenFOAM: The Open Source CFD Toolbox           |
|  \\    /   O peration     | Version:  v2012                                 |
|   \\  /    A nd           | Website:  www.openfoam.com                      |
|    \\/     M anipulation  |                                                 |
\*---------------------------------------------------------------------------*/
FoamFile
{
    version     2.0;
    format      ascii;
    class       surfaceScalarField;
    location    "200";
    object      ddtCorrDdt0(phi);
}
// * * * * * * * * * * * * * * * * * * * * * * * * * * * * * * * * * * * * * //

dimensions      [0 3 -2 0 0 0 0];
oriented        oriented;


internalField   nonuniform List<scalar> 
20673
(
1.59413e-05
-5.76721e-05
4.17311e-05
-3.21659e-05
2.22195e-05
9.94649e-06
0.000119512
-0.000362584
0.000243073
-6.82511e-05
-1.44619e-05
8.27127e-05
-8.93048e-05
9.35619e-05
-4.2577e-06
-6.15266e-06
7.96775e-06
-1.81747e-06
0.000125031
-0.000348655
0.000223628
2.27237e-05
0.000261349
-0.00028407
-0.00026143
-5.83493e-05
0.000319775
8.34923e-05
-8.38163e-05
3.24917e-07
0.000667061
-0.000419209
-0.000247857
0.000182472
-0.000221129
3.86558e-05
-5.96538e-05
0.00056449
-8.17347e-05
-0.000482754
-4.06533e-05
2.65262e-05
1.4127e-05
-3.31922e-05
3.95216e-05
-6.32968e-06
2.85462e-05
-3.27828e-05
4.23643e-06
-5.8398e-05
-1.41922e-05
7.25902e-05
-3.31947e-05
0.000215666
3.19669e-05
-3.50269e-05
3.05994e-06
-2.3353e-05
1.94804e-06
2.14054e-05
0.000305806
-0.000180776
4.95302e-06
4.04416e-05
-4.53945e-05
0.000391519
-0.000368794
2.85002e-05
-1.43689e-05
-1.41312e-05
0.000449669
-0.000135316
-0.000314357
-7.18631e-06
-1.46057e-05
2.1792e-05
1.08657e-05
-1.89603e-05
8.0942e-06
2.96336e-06
-2.88067e-05
2.58439e-05
-2.67478e-05
0.00012461
-9.78621e-05
-5.48818e-05
1.08264e-05
4.40559e-05
-5.02462e-05
1.6998e-05
3.3248e-05
-1.40316e-05
-1.32273e-05
2.72587e-05
-1.36144e-05
4.88729e-05
-3.52585e-05
3.46092e-06
-1.84222e-05
1.49608e-05
-0.000253083
0.000879756
-0.000626674
4.69805e-05
-4.20273e-05
-0.000299101
-0.000208628
0.00050773
7.64696e-05
-0.000101512
0.000329756
-4.35153e-05
-0.000286238
3.70863e-06
-3.42952e-06
-2.78955e-07
-5.45566e-07
-8.21962e-06
8.76531e-06
8.19876e-06
-3.91674e-06
-4.28281e-06
2.22352e-05
-1.75428e-05
-4.6931e-06
3.68825e-05
-2.99784e-05
-6.9041e-06
-4.60479e-05
3.80552e-05
7.99372e-06
1.92905e-05
-7.76883e-05
0.000191149
-3.776e-05
-0.000153389
3.68588e-06
-6.68391e-06
2.99656e-06
1.08352e-05
-8.15331e-06
-2.68172e-06
-1.76202e-05
3.01889e-05
-1.25686e-05
-2.1398e-05
4.04906e-05
-1.90926e-05
7.49172e-06
-3.80732e-06
-4.542e-05
3.18058e-05
-1.96168e-06
3.05079e-05
-1.87614e-05
2.23138e-05
-3.55307e-06
0.000444884
0.000222176
1.31834e-05
1.99306e-05
-3.31144e-05
1.44056e-05
-3.23742e-05
1.79685e-05
9.95563e-06
2.69267e-05
6.6947e-05
8.88844e-05
-0.000155836
-1.29581e-05
-1.9208e-05
0.000564491
4.00217e-05
-8.05497e-06
-6.2353e-06
8.16109e-08
-0.000327511
0.000281455
4.60579e-05
5.23121e-06
-8.32305e-05
6.92665e-06
1.49399e-06
-1.40268e-05
-0.00032051
0.000334541
6.51648e-05
-4.48062e-05
-2.03584e-05
-1.22579e-06
-8.80791e-05
-0.000451543
0.000190111
-1.51405e-05
-0.000408809
0.000423949
1.56206e-05
1.28797e-05
5.14533e-06
4.36788e-08
-5.18929e-06
-0.000239974
0.00026329
-2.33149e-05
0.000198303
-3.29566e-05
-0.000165345
1.67954e-05
-3.09777e-05
1.41826e-05
-0.000526689
-5.13816e-05
0.000578074
-3.34703e-06
-2.45354e-05
2.78833e-05
-1.94819e-05
7.06324e-06
1.24187e-05
-7.3552e-05
5.35884e-06
-8.4384e-06
3.0784e-06
0.000256587
-0.000555686
-0.000128048
-4.10534e-05
0.000169101
2.84297e-05
-1.16339e-05
1.59942e-05
-1.13198e-05
-4.67426e-06
-0.0002799
-4.7608e-05
-3.72846e-05
1.96645e-05
4.35477e-06
3.8429e-06
-8.06435e-05
0.000295348
-0.000214703
-8.46059e-05
0.000122006
-3.73998e-05
-1.0779e-05
-1.44963e-05
2.52754e-05
3.8017e-07
4.71643e-05
-4.75442e-05
-0.000135109
-0.000144794
-9.36232e-06
2.85689e-06
6.50359e-06
-0.000340594
0.000396773
-5.61794e-05
-0.000112069
0.000148732
-3.66637e-05
0.0003608
-0.000552482
0.000191699
8.52716e-06
9.59213e-06
-1.81208e-05
-2.39463e-06
-1.19715e-05
1.43666e-05
1.43603e-05
-2.8691e-05
1.43302e-05
1.2925e-05
9.30963e-06
2.29697e-05
-8.91289e-06
-1.40561e-05
1.87932e-05
-5.41207e-06
-1.3381e-05
0.000281463
6.68367e-05
-0.0003483
-4.555e-05
3.17683e-05
1.3783e-05
7.20307e-05
0.000119119
-2.11761e-05
-1.16067e-05
-1.41109e-05
6.04618e-05
-4.63508e-05
0.000179126
-7.51657e-05
-0.000103961
0.000146347
0.000183411
0.000256492
2.30163e-05
-0.000279508
3.20783e-05
0.000249385
1.53805e-05
-5.21334e-05
3.67535e-05
4.97649e-06
-2.90733e-06
-2.07101e-06
1.74656e-05
-1.17279e-05
-5.73729e-06
-1.51513e-06
8.34044e-06
-6.82653e-06
-0.000628463
0.000659318
-3.08567e-05
4.91657e-05
-1.46011e-05
-3.45644e-05
2.08759e-05
-2.14216e-05
0.000327235
-0.000341262
0.000100371
0.000578467
-0.000678833
2.3895e-05
-1.30295e-05
9.09396e-06
-3.62427e-06
-5.46948e-06
5.17395e-05
-5.13589e-05
3.23555e-05
-4.31668e-05
1.08116e-05
7.45046e-06
1.64375e-06
-8.69317e-06
6.54666e-06
2.14681e-06
-1.39537e-06
0.000549128
-0.000684702
0.000135579
5.79517e-05
-4.25708e-05
-4.24304e-05
1.24523e-05
-2.26544e-05
-6.98092e-07
-9.69647e-06
0.0002654
-0.0002557
7.03781e-05
0.000321142
-3.93684e-05
5.53097e-05
-5.59125e-06
1.41178e-05
-8.46225e-05
1.39195e-06
3.58778e-05
1.32879e-05
0.000428578
-0.00100859
0.000580008
-2.61762e-08
-3.10538e-05
3.10806e-05
-4.43685e-05
-1.19026e-05
5.62709e-05
2.12105e-06
1.43298e-05
-1.64513e-05
6.48508e-06
4.41574e-07
6.1334e-05
0.000549649
-0.000610986
3.97126e-05
-4.23997e-05
2.68813e-06
-3.92094e-05
1.7811e-05
2.00202e-07
-2.89679e-05
2.87681e-05
-1.84209e-05
5.05689e-05
-3.21485e-05
-0.000170295
1.72423e-05
0.000153052
3.52831e-06
1.4475e-06
0.00014558
0.000165966
-0.000311547
1.90116e-05
2.3382e-05
-4.23936e-05
-3.3001e-05
3.52387e-06
2.94777e-05
1.30097e-05
-5.08555e-05
3.78495e-05
3.47266e-05
3.04382e-05
0.000433599
-0.000103615
-0.000329982
1.68967e-05
0.000181406
-4.20072e-05
3.23133e-05
-3.41315e-05
-2.03412e-05
5.44729e-05
1.79524e-05
-2.59879e-05
8.03408e-06
-2.38379e-05
2.95598e-05
-5.72161e-06
-0.000346204
5.61087e-06
-4.67322e-05
0.000303223
0.000489341
-0.000128546
1.34664e-05
9.50368e-06
7.19087e-05
-0.000166665
9.47558e-05
3.99933e-05
-4.74951e-05
7.50181e-06
2.78457e-05
-1.34859e-05
-6.19059e-05
4.02017e-05
2.17044e-05
-9.84559e-05
8.67443e-06
8.97814e-05
0.000286503
-0.000329593
4.30873e-05
-1.26635e-05
-1.82267e-05
3.08899e-05
0.000983011
-0.00019936
-0.000783655
1.64358e-05
2.43026e-05
-4.07386e-05
0.000644658
-9.55279e-05
6.55532e-06
-8.07157e-06
0.000750787
-0.000689455
-2.17199e-05
-1.85239e-05
4.02439e-05
-0.000125719
4.11127e-05
-5.68152e-05
1.93378e-06
-3.04509e-05
3.04251e-05
1.66473e-05
-6.53091e-07
-2.91852e-05
3.0596e-05
-1.41064e-06
0.000219601
0.000230069
0.000242144
-0.000235453
-6.68885e-06
6.81506e-05
-5.51453e-05
-1.20346e-05
-3.74333e-07
1.24089e-05
0.000361273
-2.11706e-06
-0.000359153
0.000170862
-0.000889034
0.000718161
2.75029e-05
-0.00015555
0.000184286
-3.58279e-05
-0.000148461
7.08237e-06
-6.31185e-05
5.6037e-05
1.64254e-05
-1.3629e-05
-2.79802e-06
1.36462e-05
-2.0833e-05
-8.40479e-06
8.40499e-06
1.25889e-05
-2.33677e-05
3.90692e-05
-6.87393e-07
-3.83809e-05
0.00014281
-0.00013812
-4.69169e-06
2.3766e-05
-4.81783e-05
2.44131e-05
6.54557e-06
4.28975e-06
-9.11979e-05
-5.8624e-05
0.00014982
-0.000155095
-1.52005e-05
-0.000387882
0.000372741
-2.22717e-05
0.000532004
-0.000509733
1.15437e-05
-8.08304e-06
3.22058e-05
-1.90224e-05
-0.00013774
2.56707e-05
-0.000293216
0.000241559
5.16609e-05
1.52376e-05
-5.96063e-05
0.000278824
-0.000392749
0.000113928
0.000352937
1.99466e-05
-0.000372884
0.000458631
-9.73578e-05
9.51893e-06
9.2743e-06
4.1642e-06
-1.41451e-05
9.98103e-06
-0.00012375
0.000113015
1.0734e-05
0.00012411
0.000153787
-0.000277899
1.45692e-05
5.06399e-06
-1.96326e-05
-0.000117783
0.000184726
2.56121e-05
-4.73323e-05
-7.87624e-05
0.000101121
-2.2358e-05
1.01042e-06
2.69839e-06
-0.000366646
5.3817e-05
0.000312829
0.000162997
0.000101414
-0.000264411
-4.86057e-06
-2.83319e-05
9.27608e-05
-6.30854e-06
-8.64526e-05
-3.09177e-05
-2.08289e-06
2.36654e-05
-1.41465e-05
0.000473617
-0.000726695
1.39362e-05
0.000272565
-1.33337e-05
1.29933e-06
-0.000394582
9.80238e-05
0.000296557
0.000400843
-4.79056e-05
1.16115e-05
-8.03925e-06
-3.57181e-06
-1.61863e-05
-3.40597e-05
0.000282986
-0.000363629
2.21738e-05
6.69845e-05
-8.91589e-05
-2.64459e-05
2.60832e-06
1.92574e-05
1.66519e-06
-2.09224e-05
0.000488063
2.60767e-05
0.000342633
-0.000407393
6.47599e-05
2.75544e-06
-5.10519e-07
-2.2446e-06
-0.000216938
-0.000564892
0.000781841
-7.23364e-05
0.000187213
-0.000114876
-2.17511e-06
2.01268e-05
6.38896e-05
-3.94307e-05
-2.44584e-05
3.59607e-06
2.59639e-05
-3.72432e-05
-8.32851e-06
4.55713e-05
0.000341546
-0.000378956
3.74092e-05
6.90058e-06
-3.77468e-07
-6.52271e-06
-0.000178373
0.000107348
7.10247e-05
1.54732e-05
-1.52203e-05
-2.5384e-07
4.51974e-05
-1.28416e-05
-1.21154e-06
2.11423e-05
0.000178749
5.40171e-05
-0.000232768
0.000127453
-0.000354445
0.000226996
-0.000107349
0.000252929
-3.11238e-05
1.93859e-06
-1.62308e-05
-2.44223e-05
-4.42877e-06
4.95149e-06
-5.2245e-07
-0.000516619
0.000616992
-0.000230374
-0.000235131
0.000465503
0.000956418
-0.000152905
-0.0008035
7.31732e-06
1.63484e-05
-0.000171176
-0.000337563
0.000508738
-0.000452989
0.00041692
3.60705e-05
-6.01467e-06
0.000439613
-5.50554e-05
-0.000471633
-0.000254161
1.41938e-05
-1.58857e-05
-1.98059e-06
5.45089e-06
-3.46991e-06
5.50544e-05
-7.97578e-05
2.47041e-05
-0.000192144
0.000226153
-3.40118e-05
-0.000276792
-2.441e-05
0.000301202
3.12254e-05
-1.68198e-05
-0.000419127
0.000396855
-7.15293e-05
0.000116451
9.64859e-07
-6.68844e-06
5.72363e-06
0.000967562
-0.000661021
-0.000306533
2.5744e-05
-3.07399e-05
4.99592e-06
0.000438831
0.000544178
4.36285e-05
-1.98618e-05
1.51396e-06
1.24167e-06
-1.01931e-05
-2.33398e-05
3.35325e-05
-2.11737e-05
4.01852e-05
-1.94185e-05
-6.57043e-06
-0.000740272
0.000523346
6.26698e-06
-3.34118e-05
2.71446e-05
-8.39016e-06
4.53493e-06
3.85414e-06
0.000518054
-0.000311234
-0.000206828
-0.000158248
-0.000236333
-0.000350617
0.000120243
-1.30247e-05
2.7594e-05
0.000859414
-0.000682933
-0.000176487
2.55206e-05
-3.28893e-05
7.36946e-06
-6.19413e-06
-2.19731e-06
1.41272e-05
3.33872e-06
9.00743e-06
3.07054e-05
8.72392e-06
-5.60097e-06
-3.12275e-06
-0.000108712
2.99499e-05
2.15029e-05
4.2387e-05
4.20404e-05
-2.047e-06
5.93942e-05
-0.000150593
4.09567e-06
3.32388e-05
-3.73357e-05
1.35384e-06
5.11989e-06
-6.47618e-06
-2.52573e-05
4.1693e-05
2.42707e-05
9.77361e-05
3.76146e-05
-2.69343e-05
-1.068e-05
-1.72429e-05
1.60308e-05
0.000154737
-0.000103598
-5.11398e-05
0.000805953
-0.000637632
-0.000168317
-2.15847e-05
9.85696e-06
3.49858e-06
-3.00011e-06
-4.98292e-07
0.00052224
0.000445333
-9.01377e-06
3.79397e-05
-2.89259e-05
1.57949e-05
-0.000424606
3.34069e-05
4.20771e-06
-0.000253825
-0.00011282
1.61473e-05
3.43803e-05
-5.05326e-05
-0.000120024
-1.43745e-05
0.000134396
-6.93183e-05
2.35555e-05
4.57661e-05
-3.67169e-06
4.82711e-06
-1.15551e-06
-6.24146e-05
2.82842e-05
7.38131e-05
-0.000115822
-1.97553e-06
1.11375e-05
-9.16233e-06
-3.17294e-05
2.15365e-05
4.39233e-05
0.000298709
-4.80923e-05
1.06668e-06
4.70261e-05
-5.56467e-05
4.53912e-05
1.02554e-05
-0.000200626
-0.000487756
0.000688386
8.93375e-06
7.49081e-06
-4.69001e-05
-0.000406088
2.86675e-05
2.42522e-05
-5.29193e-05
-0.000241337
-3.49357e-05
0.000276272
5.08311e-05
-2.54998e-05
-2.53309e-05
-2.81966e-05
-0.000174496
0.000202691
1.26249e-05
-1.46006e-05
-5.54796e-05
3.42696e-05
2.121e-05
-3.35057e-05
-2.1974e-05
0.000312987
-0.000193475
-4.79066e-06
-1.32664e-05
1.80576e-05
-4.14965e-05
-2.04091e-05
9.56392e-05
8.34867e-05
-2.7793e-05
-6.7893e-06
3.45816e-05
-2.23549e-05
-1.20443e-05
3.43992e-05
-0.00055814
0.000476406
3.9213e-05
-1.43392e-07
1.51131e-05
1.29828e-05
-2.8096e-05
0.000710454
-0.000539589
2.10353e-05
-1.80715e-05
2.72583e-06
6.66652e-06
-9.39227e-06
-0.000703538
7.50835e-05
0.00111359
-0.000650111
-0.000463483
3.26421e-05
-6.89816e-06
-1.18515e-05
1.20515e-06
1.06466e-05
2.31061e-05
2.4152e-06
-2.42597e-05
2.44601e-05
6.22427e-05
0.000455808
-5.03474e-05
0.000782679
-0.000732338
3.65338e-07
1.10845e-05
-1.14521e-05
4.35644e-05
0.000111173
1.8804e-05
-1.32797e-05
-5.5241e-06
-8.0609e-05
-9.77641e-05
4.6761e-05
-5.02341e-05
3.47807e-06
-9.94142e-05
8.67322e-05
1.26816e-05
-6.98309e-05
-0.00017768
-1.44631e-05
0.000229834
-5.24822e-06
1.11101e-05
-5.86175e-06
0.000156893
0.000799529
-2.28613e-05
1.10094e-05
1.18523e-05
0.000132991
-0.000250774
-2.781e-05
3.77658e-05
-4.39921e-06
7.27439e-07
7.69537e-05
-0.00014929
-7.0243e-05
5.44287e-05
1.58138e-05
3.66503e-06
-6.28583e-06
2.62024e-06
-0.000120169
-1.75727e-05
-4.93799e-05
-7.6339e-05
-6.62555e-05
-5.73071e-05
0.000123562
-2.27732e-05
-8.9524e-06
3.17259e-05
0.000162947
-0.000191146
0.000210214
-8.61009e-05
8.5836e-06
-4.5827e-05
3.24972e-05
5.09958e-05
1.59817e-05
3.27587e-06
0.000106873
-8.47e-05
-0.000421189
0.000235302
0.000185886
5.38527e-05
-3.7328e-05
-1.65251e-05
0.000571907
-0.000498102
2.87908e-05
-1.36648e-05
-1.51261e-05
0.000399914
4.76836e-05
-0.0004476
4.06795e-05
-2.45332e-05
2.48816e-05
-2.96715e-05
2.42135e-05
8.76737e-06
-3.29813e-05
0.000104666
0.000448701
-0.000553362
-1.23306e-05
3.6544e-05
0.00038546
-0.000258002
-7.23258e-05
3.5573e-05
3.67608e-05
9.20491e-06
0.000239624
-0.000248826
-1.39596e-05
7.4393e-06
6.52092e-06
-1.61302e-05
-3.95167e-05
-7.62872e-06
1.17927e-05
-2.822e-06
-1.25129e-05
-1.27836e-05
2.52968e-05
-6.3366e-06
1.005e-05
-3.78432e-05
1.76149e-06
9.04147e-06
-1.08029e-05
-9.63614e-05
6.96137e-05
-6.42227e-06
1.9936e-06
2.50159e-05
-6.73579e-06
-1.82802e-05
-6.69197e-06
-1.61692e-05
0.000332107
-0.000269863
-2.89637e-05
2.56169e-05
-0.000328097
8.67606e-05
0.000585626
-0.000792868
0.00020724
1.9716e-06
-2.36086e-05
2.16376e-05
4.02264e-05
0.00014406
0.000268778
-0.000218292
-5.04858e-05
0.000225575
0.000132124
-0.0003577
-8.96302e-05
-9.78484e-06
1.3109e-05
5.69526e-06
0.000303675
-3.47088e-05
-0.000268963
8.87658e-06
6.75932e-05
-1.51567e-05
4.91217e-05
-3.39645e-05
5.4798e-05
-4.77147e-05
0.000700438
9.09558e-05
-0.000384173
0.00108458
-0.000498951
1.82749e-05
-3.73362e-05
1.90613e-05
-1.77399e-05
0.000198113
-0.000180373
-3.26196e-05
6.12874e-05
-2.91631e-05
-7.23489e-05
-0.000135755
6.94995e-05
-1.54729e-05
2.67274e-05
-1.12547e-05
0.000635536
0.000183787
-0.000819317
6.3684e-06
-2.75444e-05
4.98112e-06
3.7429e-06
-0.000428342
0.000444136
0.000638244
6.41522e-06
0.000625628
1.26179e-05
-9.5803e-05
-3.55005e-05
0.000131303
-7.67631e-06
9.64247e-06
0.000532056
-0.00073268
0.000218118
-0.000379763
0.000161644
-7.33805e-06
-0.000112016
0.000119355
8.02985e-06
-1.713e-06
-6.3163e-06
7.34156e-05
-0.000102559
2.91425e-05
-2.62157e-05
1.07426e-05
-2.55312e-05
-1.06785e-05
3.62096e-05
-0.000681033
0.000406864
0.000274167
7.43451e-05
4.34285e-06
-5.65299e-06
1.31066e-06
3.2133e-06
-5.57069e-05
5.24936e-05
4.81918e-05
3.83875e-05
-8.65802e-05
-0.000183414
6.08991e-05
0.000122518
-1.31279e-05
6.15032e-07
-5.33867e-05
-0.000220905
0.000274292
-3.67049e-06
-3.16083e-05
3.52795e-05
-0.000161488
6.89097e-05
9.2578e-05
-7.20707e-05
-0.00034014
0.000412207
-2.70154e-05
3.72297e-05
1.6623e-05
-6.96922e-06
-1.43536e-06
5.34473e-05
-1.87207e-05
-9.89056e-06
4.64223e-06
-0.000197193
0.000618112
-0.000420918
1.128e-05
-1.09152e-05
3.67853e-05
-3.05185e-05
-8.94735e-05
0.0001139
-2.44248e-05
-5.76063e-07
-1.81856e-05
-0.000326126
-2.00791e-05
0.000341464
-0.000123347
-2.67501e-05
-1.56491e-05
0.000422783
-0.000413578
-0.000472621
0.000901195
-0.000269491
0.000216105
3.4635e-06
-4.27476e-05
3.92845e-05
-2.43456e-05
0.000250439
-0.000226094
0.00013578
-5.67127e-05
-7.90675e-05
0.000255136
0.000299915
-0.000555048
-8.7705e-07
-2.88326e-05
0.000128003
-9.91714e-05
-0.000217275
0.000174039
4.32363e-05
1.20269e-06
-3.32822e-06
2.12624e-06
0.000468838
-6.96472e-05
-0.000399198
-2.54316e-05
-1.02638e-05
3.56953e-05
6.8059e-07
8.67146e-07
-1.54745e-06
2.83248e-05
2.51226e-05
1.85727e-05
3.56171e-08
-1.86077e-05
-0.000121596
-6.1817e-05
-0.000215356
0.000247434
-3.61446e-05
2.71307e-05
-4.97431e-06
5.93915e-06
-0.000219761
0.000477439
-0.000257678
0.000320609
-9.5035e-05
1.34858e-06
3.60312e-06
-0.000407139
0.000335065
1.8786e-05
-5.24783e-06
-1.3539e-05
-0.000168675
1.46287e-05
0.000154046
4.08289e-05
-3.44204e-05
-6.40842e-06
0.000496923
-0.000323531
-0.000173393
-0.000929091
0.00020286
0.00072622
2.94748e-05
-4.78958e-05
-2.91367e-05
4.55158e-05
-1.63761e-05
0.000202663
6.61167e-05
0.000171842
7.0303e-05
7.7789e-05
-8.33066e-05
5.51842e-06
-5.68308e-06
-7.39053e-07
-9.84532e-06
-0.000361053
0.000370897
7.90825e-06
-0.000975335
0.000465341
0.000509993
-2.82749e-06
3.50824e-06
0.000110512
-0.000151565
-0.000389692
0.000329058
6.06327e-05
5.49445e-05
-9.8115e-05
4.31685e-05
-1.47393e-05
2.88804e-06
-3.50881e-06
-3.06858e-05
3.41949e-05
-8.16527e-05
-0.00012224
0.000522152
-2.7982e-06
7.1413e-06
7.46716e-06
-6.26191e-06
-8.61663e-06
1.31251e-06
7.30431e-06
2.99693e-07
-8.91616e-06
0.000230234
-0.000401411
-0.000448076
-0.000232959
-3.46864e-05
4.48385e-06
-0.000255445
0.000250965
-3.75662e-06
1.77603e-06
-1.06684e-05
8.27394e-06
-0.0001834
0.00016566
0.000372156
-0.000178827
-0.000193322
-7.69522e-06
4.08328e-06
3.6123e-06
-3.28129e-05
-1.46821e-05
-1.0647e-05
1.24086e-05
3.9626e-05
-4.04472e-05
8.21432e-07
-0.000453093
-0.000117759
0.000145261
1.56435e-05
-1.15125e-05
-4.13113e-06
-3.535e-05
3.84143e-05
-3.06425e-06
0.000792433
9.15621e-05
4.42176e-05
-4.37923e-05
-2.55246e-05
4.49816e-05
-7.75207e-06
-1.40532e-06
-2.37616e-05
2.51667e-05
-4.69279e-06
3.89972e-05
-3.43053e-05
-0.000160968
-5.63072e-05
-5.164e-05
3.54797e-06
-0.000230967
0.000209486
9.41876e-05
-2.75001e-05
0.000187172
-0.000159672
0.000499165
3.28382e-05
9.65638e-05
-7.22929e-05
-7.38067e-06
2.63462e-05
-1.89653e-05
0.000365621
-2.40765e-05
1.27505e-06
-3.54684e-05
1.31134e-05
-1.24387e-06
-2.58505e-05
2.70942e-05
0.000360517
0.000108317
-5.11524e-05
1.26505e-05
3.85017e-05
-2.64603e-06
-2.74477e-06
5.39109e-06
-2.6063e-05
-0.000135427
0.000135246
-3.12016e-05
-0.000104044
-3.02913e-05
-1.0813e-05
4.11063e-05
-0.000161616
0.000134116
-2.41503e-05
-3.64535e-06
2.77955e-05
-3.438e-05
8.25718e-05
-3.25778e-06
6.92293e-06
-0.000379338
2.87202e-05
-0.000146087
-0.000510225
0.000362171
0.000148055
-2.75546e-05
3.39232e-05
1.2454e-05
-1.44601e-05
2.00569e-06
-2.12813e-05
-0.000234158
-0.000248203
7.05227e-05
0.000432607
-0.000432607
4.13011e-05
0.000107431
2.28257e-05
-0.00011863
1.6946e-05
2.25755e-05
-3.92531e-05
9.39236e-06
2.98609e-05
3.89396e-05
6.04188e-06
3.22617e-05
-1.61678e-05
-1.60936e-05
1.50458e-05
-1.17921e-05
-2.95223e-05
-9.42274e-05
9.8818e-06
-0.000311937
-0.000198286
9.78113e-06
6.80082e-05
-2.98977e-05
4.17388e-05
-1.1841e-05
1.83873e-05
-0.000344513
-0.000164405
-0.000764684
-6.54532e-06
-2.49251e-05
3.14703e-05
3.09589e-05
-6.08692e-05
2.99103e-05
3.13213e-06
-5.04518e-06
1.91366e-06
0.000165643
8.19634e-05
-0.000247607
-0.000746047
0.000164767
0.000581276
0.000270216
-0.000202996
-6.72188e-05
-5.62323e-06
-3.06954e-06
-0.000634446
-6.90851e-05
0.000181637
3.35715e-06
-6.00307e-06
4.95045e-06
2.34585e-05
-2.84087e-05
7.72232e-05
0.000147224
-0.000224448
1.60144e-05
-3.00464e-05
0.000109192
1.54183e-05
-0.000320469
0.000537394
-0.000216922
0.000217169
-0.000241513
-8.16022e-05
-2.27811e-05
0.000104383
-7.12525e-05
-0.000308086
-1.76564e-05
2.96782e-05
-1.20215e-05
-5.58632e-05
4.85252e-05
-2.38294e-05
-2.61611e-06
1.75154e-05
-1.87195e-06
0.00033753
0.000521882
-8.44524e-06
0.000174088
-7.56416e-06
1.04585e-05
-2.89442e-06
6.43698e-06
-2.40932e-05
-3.17789e-05
1.91153e-05
2.17026e-06
-3.75204e-05
-0.000113923
4.23939e-05
-1.5388e-06
0.00038717
0.000102167
-9.43626e-06
-2.98166e-05
-3.9993e-05
0.00046278
-7.15452e-06
3.91456e-05
1.68336e-06
-1.05988e-05
0.000103359
-6.15352e-06
0.000393309
5.07091e-05
0.000835668
-0.000886526
-1.05271e-05
-7.17018e-06
1.76978e-05
3.86079e-05
-0.000233961
0.000195353
-1.2405e-05
-8.22099e-05
9.88154e-06
-8.69141e-05
3.09881e-06
-4.51125e-05
-6.04004e-06
1.37817e-05
-1.32802e-06
8.47744e-07
-1.74438e-06
8.96872e-07
5.32001e-06
-5.27474e-06
-4.44632e-08
-3.33664e-05
-9.80026e-06
6.07687e-05
-2.65767e-05
-3.41924e-05
-1.16413e-05
-3.44064e-05
0.00016772
0.000136044
-0.000303772
-8.17259e-06
-1.46006e-05
0.000144247
-7.23385e-05
-3.20263e-06
5.92882e-06
-0.00010138
-0.000131534
0.000232912
2.29816e-06
-9.86203e-06
0.000858799
-0.000278493
-0.000580314
5.00098e-06
1.90009e-06
-1.87315e-05
-1.93599e-05
3.80918e-05
-6.01874e-07
8.06915e-06
9.49751e-05
-6.17344e-05
-3.32412e-05
-1.23565e-05
-2.00177e-05
-0.000223465
-0.000166227
-2.86568e-05
4.12223e-06
0.000136502
-7.61934e-05
6.42492e-05
1.19428e-05
-6.12156e-05
-0.000357998
-8.72358e-05
0.000112827
-2.55903e-05
0.000368771
8.15772e-05
-0.000450349
-4.01067e-06
5.50885e-05
-5.1078e-05
-3.78633e-05
3.43547e-05
5.37714e-05
0.000104539
-0.000158309
0.000316922
0.000115684
-3.30429e-05
-1.65563e-05
4.95991e-05
-3.02446e-05
2.90001e-05
0.000518146
0.000293913
-0.000812063
0.000151877
0.000118342
-8.36121e-07
-0.000275957
-5.96318e-06
3.17354e-06
2.78999e-06
-3.20065e-05
2.87116e-06
0.000109348
-0.000123722
-2.02141e-05
-5.0029e-05
6.56674e-05
-0.000122975
0.00023962
-6.08712e-05
3.65298e-07
4.95491e-06
0.000144898
-0.000162345
1.74455e-05
-0.000264561
1.00069e-06
-9.39191e-06
8.39156e-06
4.62567e-05
-6.84205e-05
2.21637e-05
-1.10261e-05
2.5057e-06
8.52068e-06
0.000532768
0.00027319
-2.58911e-05
3.23724e-06
3.77155e-05
-1.94409e-05
1.39116e-05
-0.000112367
-2.58473e-05
-1.27992e-05
3.86466e-05
0.000300403
-0.000308848
-3.19968e-05
3.55209e-05
1.1035e-05
-2.42628e-05
-9.71353e-06
-4.69956e-05
3.21893e-06
4.37764e-05
7.78312e-06
6.34425e-06
-2.79454e-06
4.5448e-05
-4.26533e-05
-1.03661e-06
1.18571e-06
-1.48777e-07
-6.86991e-05
6.36701e-05
5.02886e-06
9.87343e-06
8.91265e-06
-0.00020291
0.00019924
1.32186e-06
-9.31926e-06
7.99732e-06
0.000167169
0.000204987
5.81312e-06
2.59179e-06
-1.9552e-05
2.69328e-05
6.96315e-05
6.57898e-05
-1.42404e-05
-5.15488e-05
0.00013633
-0.000563596
0.000427267
-0.00020372
4.2169e-05
0.00016155
-6.69877e-05
5.27956e-05
9.57477e-06
-6.33476e-06
-3.24058e-06
0.000295337
3.67669e-05
7.77495e-06
2.68364e-06
-0.00061712
0.000667767
0.000286505
-0.000118791
-6.7113e-05
8.67663e-05
-1.96532e-05
-0.000172677
0.000567894
-0.000395221
5.13111e-05
-1.20561e-05
-3.92554e-05
7.04032e-05
4.60457e-05
-3.84944e-06
0.000179948
-0.000176098
3.16454e-05
-3.23324e-05
-1.01846e-05
-5.68031e-05
-8.92473e-06
2.56975e-07
8.66767e-06
5.99962e-05
-1.39424e-05
-4.60534e-05
-1.31024e-05
4.88298e-05
-3.57282e-05
-0.000143106
0.000220328
-4.65792e-06
-2.70717e-05
2.6306e-06
1.6162e-06
-4.24718e-06
2.05481e-05
7.44262e-05
4.52624e-05
-5.9373e-05
9.64668e-06
4.09217e-05
-8.34518e-08
1.41847e-05
-1.41009e-05
-2.5791e-07
-3.95669e-05
-9.77113e-05
0.000137278
5.00816e-06
-2.00468e-05
1.50388e-05
-5.29439e-05
0.000118611
1.27316e-06
8.30158e-06
-3.40635e-05
-5.33192e-06
3.93955e-05
-2.57651e-05
-1.25689e-07
-2.48387e-05
3.19221e-05
-7.0837e-06
9.29186e-06
-5.37498e-06
-3.91544e-06
-3.906e-05
-3.83232e-06
4.2892e-05
-1.01726e-05
6.07335e-06
4.09958e-06
0.000438193
5.873e-05
-0.000176568
-2.95153e-05
0.000206083
-1.17888e-05
-7.07191e-06
3.73882e-06
7.94345e-06
-1.16821e-05
1.94423e-05
-2.24925e-05
3.05044e-06
-1.81543e-05
-5.23653e-06
2.33903e-05
4.65986e-05
-4.3135e-05
-2.05413e-05
-3.44819e-05
5.50236e-05
-0.000152913
-0.000502782
0.000655699
-0.000104235
6.64746e-05
3.77598e-05
0.000243904
-0.000110912
-5.56456e-05
-9.82988e-06
-0.000195547
0.000205377
2.04066e-06
-1.22262e-05
1.01865e-05
1.29996e-05
-2.24542e-05
9.45484e-06
-6.79297e-06
7.09282e-06
3.11185e-05
-2.70231e-05
-0.000214477
0.00022291
-8.43359e-06
-1.00459e-06
2.0447e-05
-0.000279856
0.000477633
-0.000197777
-9.49823e-06
-2.9562e-05
8.268e-06
3.84942e-05
-4.29405e-05
3.83739e-05
4.56657e-06
-4.82829e-05
-5.59527e-05
0.000339502
-0.000400719
-9.05298e-06
1.97347e-05
-1.06813e-05
-1.31626e-06
1.31647e-06
-0.000209763
2.82368e-06
-9.20686e-06
6.38293e-06
-6.60143e-06
5.20197e-05
-4.5418e-05
0.000230256
0.000570777
-0.000801023
-2.86178e-05
1.0391e-05
-3.09864e-05
2.68467e-05
4.13997e-06
-1.6332e-05
-6.63051e-06
2.29632e-05
-1.84685e-05
1.92433e-05
-7.74625e-07
-1.74541e-06
-3.59227e-06
5.33835e-06
4.64728e-05
-3.46151e-05
-0.000399615
0.000535946
-5.90792e-05
2.15392e-05
3.75403e-05
1.27926e-05
-1.1792e-05
-4.64482e-06
1.21541e-06
-0.000105559
-0.00014264
2.7263e-05
-4.23743e-05
5.64604e-05
-1.4086e-05
-7.85324e-07
-2.67694e-05
-0.000719786
0.000566871
0.000256041
0.000521036
-0.000777084
-4.74974e-05
-4.24503e-05
8.99478e-05
2.64675e-06
-2.67971e-05
-4.17421e-05
2.86393e-05
8.49608e-06
3.11559e-06
4.52823e-06
-6.27354e-06
-0.000140466
0.000111632
-3.75763e-05
-5.85308e-05
0.000559395
-0.000500863
4.83211e-05
-2.4069e-05
-0.000806026
0.000318272
1.80314e-05
1.25268e-05
-3.0559e-05
4.5444e-05
-2.50279e-06
-4.29413e-05
5.98619e-05
-4.85965e-05
-1.12655e-05
1.96641e-05
9.12673e-06
1.34503e-05
-3.88822e-05
1.55117e-05
2.84401e-05
-4.39518e-05
-1.01491e-05
5.6565e-06
4.4927e-06
4.45459e-05
1.59161e-05
6.22971e-06
-2.56482e-05
-3.07556e-05
1.07407e-05
2.00152e-05
8.51413e-05
0.000215262
-9.93772e-05
-8.58362e-05
0.000185215
-0.000124636
-2.04053e-05
-4.36288e-06
2.80893e-06
1.55408e-06
-0.000375796
0.000486238
-0.000110443
0.00021931
-6.95904e-06
1.2761e-06
-1.96184e-05
0.000506541
-0.000486922
-8.89429e-07
-3.47381e-06
5.6089e-05
2.07452e-05
1.29899e-05
-3.3736e-05
-4.37074e-06
7.03578e-06
-2.66398e-06
-0.000570318
2.26416e-05
-1.18435e-05
-1.07977e-05
-0.00078308
0.00104523
1.64167e-05
-3.86809e-05
2.22644e-05
2.73442e-05
-5.64066e-07
-2.67796e-05
4.06858e-06
-5.09334e-06
1.02565e-06
-1.76583e-05
1.53958e-05
2.26365e-06
-2.65205e-05
1.75498e-05
8.97094e-06
-1.09873e-05
5.72421e-05
-7.5559e-06
1.75267e-07
7.38114e-06
-3.78896e-06
2.15677e-06
1.63269e-06
-1.08818e-05
4.61825e-07
1.04196e-05
0.000328156
-0.00047165
0.000143491
-7.52682e-06
0.000557174
2.49718e-05
-0.000106574
8.97483e-06
0.000142191
-5.74548e-05
-8.47374e-05
9.07386e-06
1.6162e-05
-2.52355e-05
-2.45676e-06
-3.07051e-05
3.31622e-05
5.96729e-06
3.20882e-05
-0.000397729
-7.42586e-05
5.55888e-06
-6.05007e-05
7.44372e-08
6.04262e-05
1.46487e-05
3.08675e-05
-0.000189401
-1.4319e-05
-3.29961e-05
4.04533e-05
-7.4564e-06
-0.000152946
1.06824e-05
0.000142264
1.57936e-06
3.74104e-05
7.44726e-05
-0.000712102
1.4304e-05
-4.40657e-05
2.97633e-05
1.14576e-05
1.69724e-05
-0.000218532
0.000204566
1.39656e-05
4.91764e-06
9.20254e-07
-5.83776e-06
-2.14403e-05
-5.08008e-06
0.000153932
-0.00015778
-9.6531e-07
-5.82751e-06
9.08946e-06
1.35522e-05
-6.70704e-06
1.0446e-05
0.000124816
-0.00046238
6.54064e-06
2.75357e-06
-2.47391e-05
-3.35104e-05
0.000458158
1.9566e-05
-6.53041e-05
4.5738e-05
-0.000188399
1.97224e-05
-4.335e-06
-1.45482e-05
-2.26822e-07
-2.53518e-06
2.7617e-06
1.39312e-05
1.54155e-05
-2.93469e-05
1.53245e-05
-1.09477e-05
-4.37674e-06
-0.000109382
-8.32924e-07
1.91574e-05
-1.83246e-05
1.21217e-06
2.71577e-05
-2.17863e-05
-5.37125e-06
-0.000377912
-3.82852e-06
0.000255776
0.000240484
-0.000390211
0.000149729
-5.65155e-05
-0.000228085
0.000284598
-4.18121e-05
2.30807e-05
0.000640803
0.000472777
0.000156842
-0.000133252
-2.35898e-05
2.147e-06
-1.93899e-05
-5.37367e-06
-0.000629067
9.00311e-05
-1.14886e-06
0.000117563
3.92792e-05
0.000292476
-7.10941e-05
-0.000221382
0.000409479
-8.13256e-05
-5.77365e-05
2.74455e-05
-0.000188734
8.73542e-05
1.6193e-06
-3.2305e-05
-0.00037185
4.02094e-05
-2.59051e-05
-0.000167349
-0.000253841
3.33068e-06
-6.15788e-06
1.49285e-05
-2.94253e-05
5.18797e-06
-4.75622e-05
3.81191e-06
-1.5268e-05
2.96409e-05
-1.4373e-05
6.80301e-06
2.19361e-05
-2.87392e-05
-0.000423449
0.000623382
-0.000199931
-1.16381e-05
2.65655e-05
-5.8666e-06
4.84154e-05
-4.25491e-05
8.21672e-06
-5.29098e-05
4.46942e-05
4.55212e-05
8.4068e-06
-5.39279e-05
-9.09687e-06
-8.56075e-06
-2.47857e-05
1.44724e-05
4.6674e-06
-1.91391e-05
-2.15653e-05
2.72631e-05
-5.69748e-06
1.53497e-05
-1.40278e-05
-9.14125e-06
-1.5645e-05
2.14529e-05
3.37137e-05
-5.51663e-05
-4.03961e-05
5.99619e-05
-0.000216846
0.00011747
1.3766e-05
4.60959e-05
7.04317e-06
1.29556e-06
-1.21963e-05
3.29417e-05
-3.13272e-05
0.000203172
9.99255e-05
3.53206e-05
0.000134352
8.15153e-05
-0.000215866
-8.79878e-05
-0.000324053
6.26989e-05
0.000261352
3.51936e-06
-1.04665e-05
1.25073e-05
-7.96506e-06
2.59961e-05
-3.49626e-06
-6.91668e-06
-2.6244e-05
7.72904e-06
3.00942e-07
-3.37944e-05
2.91014e-05
3.83724e-05
1.29386e-05
0.000134056
-4.35803e-05
-9.04741e-05
0.000153905
0.000239265
-0.00039317
-4.51439e-05
2.04041e-05
0.000188283
-0.000412975
0.000224785
0.00018819
-1.3126e-05
-2.20348e-05
-2.2889e-05
4.49239e-05
2.07879e-05
-9.1658e-05
7.08715e-05
4.40684e-06
3.76334e-05
4.17902e-05
-4.83917e-05
1.39386e-05
1.23714e-05
-2.63106e-05
1.73337e-05
-0.000106803
-8.08595e-09
-1.39402e-05
3.41344e-06
-0.000389748
0.000352455
3.72965e-05
0.000844955
-0.000204154
-0.000574752
-0.000225648
0.000800397
-4.90948e-05
0.000223443
-0.000174349
0.000714629
0.000165125
1.05128e-05
2.17433e-06
-1.26871e-05
-0.000321955
0.00021284
0.000109113
3.17633e-05
-5.37982e-05
1.17217e-05
-1.77472e-05
6.02568e-06
5.40136e-05
-2.30547e-05
0.000336492
-0.000533687
6.49066e-05
-0.000112404
1.4713e-06
-4.117e-07
-1.05945e-06
3.95835e-06
1.0992e-07
4.61256e-05
-3.06139e-05
0.000774185
5.7062e-06
1.99627e-05
-5.9285e-06
-1.40347e-05
2.72548e-06
9.80593e-08
3.23005e-05
-1.71873e-05
-0.00011247
-6.45745e-07
4.18734e-07
-4.55421e-05
9.1509e-05
-4.06751e-05
-5.08349e-05
-0.000627435
5.29901e-05
0.000574449
7.97343e-06
3.72244e-05
-6.53124e-05
8.1433e-06
5.71692e-05
-3.32939e-05
3.39594e-06
-0.000475477
0.000151946
-0.000326451
-8.65239e-05
3.03586e-05
-0.000105525
8.04853e-05
6.17059e-05
6.35807e-06
-1.44098e-06
-6.04238e-06
-0.000366994
0.000471664
3.23809e-05
2.56671e-06
1.16029e-05
1.07107e-05
-2.22605e-05