/*--------------------------------*- C++ -*----------------------------------*\
| =========                 |                                                 |
| \\      /  F ield         | OpenFOAM: The Open Source CFD Toolbox           |
|  \\    /   O peration     | Version:  v2012                                 |
|   \\  /    A nd           | Website:  www.openfoam.com                      |
|    \\/     M anipulation  |                                                 |
\*---------------------------------------------------------------------------*/
FoamFile
{
    version     2.0;
    format      ascii;
    class       volScalarField;
    location    "200";
    object      k;
}
// * * * * * * * * * * * * * * * * * * * * * * * * * * * * * * * * * * * * * //

dimensions      [0 2 -2 0 0 0 0];


internalField   nonuniform List<scalar> 
13917
(
0.000165744
0.000148647
0.0614181
0.000153425
0.000148424
0.000196412
0.0595328
0.0630477
0.0771209
0.000174707
0.000206229
0.000185139
0.000153598
0.0162322
0.000154554
0.000153474
0.000149042
0.000176131
0.000184693
0.00014845
0.000149722
0.059058
0.000148301
0.0603514
0.000147737
0.055482
0.000161656
0.000164737
0.000213551
0.000186334
0.000167521
0.000157099
0.000160024
0.000153786
0.000147893
0.000196863
0.00014837
0.0458659
0.00015685
0.0193827
0.000146908
0.000149881
0.000144247
0.000169087
0.000148408
0.000155304
0.000175799
0.000183973
0.000395967
0.000147665
0.000157811
0.000149232
0.000460666
0.000154134
0.000149095
0.000157154
0.000205877
0.000148036
0.000154491
0.000148209
0.0836811
0.000148657
0.00770078
0.000148356
0.000194921
0.0281044
0.000148386
0.000148059
0.000208965
0.000163096
0.000148482
0.0758502
0.0441979
0.000147766
0.000407012
0.000189375
0.0315337
0.000150572
0.0513623
0.000149472
0.000149204
0.000148442
0.000192857
0.0501242
0.0458829
0.000150347
0.000149003
0.0107879
0.000157452
0.000144194
0.0485159
0.000181295
0.000147154
0.000150601
0.0171956
0.000192482
0.000198148
0.000181699
0.000202398
0.000171308
0.000146086
0.000158371
0.000168923
0.000151709
0.000146072
0.0777
0.00019761
0.000185013
0.000149064
0.000168747
0.0485916
0.021236
0.000190983
0.077943
0.000150504
0.000428305
0.00014765
0.000267073
0.0265518
0.000154104
0.000149782
0.00020768
0.0298228
0.000164021
0.000147394
0.000150303
0.000148189
0.000147462
0.000144367
0.000194823
0.043149
0.000150343
0.000148497
0.000149785
0.00467293
0.0592805
0.000165919
0.00017191
0.000148329
0.000153954
0.000145729
0.000146073
0.000149765
0.00017147
0.000148071
0.0653835
0.000217223
0.000149089
0.000145767
0.000157555
0.000179321
0.000434835
0.000190804
0.000163983
0.000156772
0.0239631
0.000162138
0.00418628
0.0258387
0.00566589
0.000152336
0.000161816
0.000149472
0.000197052
0.000190478
0.000201876
0.000151627
0.000180537
0.000147533
0.000158859
0.000164676
0.0261436
0.000193379
0.000149852
0.0492164
0.000165276
0.0456964
0.000309794
0.0597748
0.000147335
0.000182553
0.000168455
0.000146026
0.00014893
0.000157637
0.0555846
0.000222284
0.0298948
0.000165744
0.000199821
5.20125e-05
0.0506344
0.000217756
0.000148387
0.000173163
0.000161332
0.000153771
0.000147242
0.000184196
0.00155614
0.000157484
0.00014779
0.000178641
0.000179034
0.038776
0.00121536
0.000147893
0.000148128
0.000181238
0.0579458
0.000149546
0.0602425
0.0285675
0.000199884
0.000146115
0.0002033
0.000177989
0.0299219
0.000147347
0.0796003
0.000147267
0.000185284
0.000146746
0.0490467
0.0790186
0.000153823
0.000416162
0.000157151
0.000146147
0.000203513
0.000192851
0.00016553
0.058137
0.023497
0.000145713
0.000157611
0.0532925
0.0351112
0.000149406
0.000147133
0.0214244
0.000201659
0.00014972
0.00016571
0.000189818
0.000161509
0.000164375
0.000149405
0.000164508
0.0261254
0.000148267
0.00018707
0.000174996
0.000148076
0.00014798
0.00018541
0.0277772
0.000189323
0.000157846
0.000154735
0.000149758
0.0243914
0.0772386
5.46009e-05
0.00014619
0.041761
0.0246388
0.0118015
0.0505332
0.000190878
0.000149293
0.000147001
0.000176133
0.0426627
0.000196972
0.000154086
0.00182147
0.000173387
0.000144279
0.0563048
0.000148254
0.0526463
0.000156836
0.00014968
0.000155829
0.000163929
0.000161959
0.000149579
0.000159745
0.000148605
0.000204506
0.057371
0.0825945
0.000147351
0.0168559
0.000148934
0.000148606
0.000147707
0.000236306
0.00014837
0.000187358
0.000163652
0.000147416
0.000178893
0.000151002
0.000353074
0.000164927
0.000179802
0.000146666
0.000147908
0.0454408
0.0282693
0.000147605
0.000146874
0.052449
0.00014722
0.0476352
0.00014654
0.0520547
0.000150298
0.000226155
0.000164658
0.000445806
0.000151951
0.000354454
0.000187328
0.000155841
0.000201391
0.000204802
0.000148964
0.0433609
0.000173053
0.0284501
0.000152958
0.0203285
0.000158353
0.0589661
0.00018347
0.000174716
0.000174082
0.0621406
0.000149305
0.000165293
0.0536362
0.000148675
0.000151494
0.0259519
0.000187688
0.00014969
0.000185551
0.000209587
0.000146403
0.0228967
3.34819e-05
0.0001482
0.000146749
0.000148996
0.000145727
0.000210108
0.0554542
0.000213657
0.0508327
0.000147725
0.000189663
0.00816376
0.000171495
0.059681
0.0475606
0.0790103
0.000145689
0.000107582
0.000146591
0.0717634
0.000148183
0.000462165
0.000189744
0.000155348
0.000149153
0.000180036
0.000184574
0.000183615
0.000642244
0.0539344
0.0233557
0.000165011
0.000173564
0.000147194
0.0385238
0.0574017
0.000148145
0.000223538
0.000147927
0.000240319
0.000150275
0.000149388
0.000151027
0.0453836
0.000150953
0.0309994
0.0107902
0.000202838
0.000198942
0.000148907
0.000199103
0.000195426
0.000147859
0.00018958
0.000148594
0.000147842
0.000186188
0.000149676
0.000147773
0.000146557
0.000249501
0.000149564
0.0235323
0.0468699
0.00517752
0.00021509
0.0373963
0.0302971
0.000171097
0.000147762
0.000205568
0.000156471
0.000158774
0.000148329
0.0623016
0.0584237
0.0448942
0.000153357
0.000193261
0.000152647
0.000157548
0.000183578
0.000150538
0.000120645
0.00014903
0.000148298
0.052686
0.0440893
0.0462382
0.000185567
0.00346681
0.0475349
0.057287
0.0306138
0.000144596
0.000178688
0.000150629
0.000148277
0.00032073
0.000176436
0.000147708
0.000178369
0.000169492
0.0290851
0.000147827
0.000197087
0.0145425
0.000250674
0.0284667
0.000149626
0.000148189
0.000153626
0.000162171
0.000145711
0.0532544
0.000205186
0.000159711
0.0373721
0.000157106
0.000197609
0.0624082
0.000218607
0.000201966
0.000111078
0.000197054
0.000177144
0.000204681
0.00017264
0.000206258
0.000212458
0.000176546
0.000187983
0.000147212
0.00188686
0.000158647
0.000145426
0.00016123
0.000150892
0.0314295
0.0774707
0.000147141
0.000144495
0.0546862
0.0249878
0.000149678
0.0232271
0.00015133
0.00020431
0.000147274
0.0366167
0.00130108
0.000157544
0.000149139
0.0406293
0.000213218
0.0122897
0.000149743
0.0294745
0.000353696
0.0557273
0.000145521
0.0416146
0.0854823
0.000171697
0.000146695
0.000149023
0.000189608
0.000229193
0.000147012
0.000146779
0.000147178
0.000147133
0.0365465
0.000470633
0.000171288
0.000218056
0.000147427
0.000146138
0.000192813
0.0767353
0.000163047
0.000147647
0.000147797
0.000148117
0.0618295
0.0557249
0.000148953
0.000148118
0.000109797
0.000172228
0.000164654
0.00014813
0.000151137
0.000155963
0.000187351
0.000198203
0.000221703
0.000206658
0.000191703
0.000981241
0.000179481
0.00014742
0.0305068
0.000148139
0.000151901
0.000154434
0.00193303
0.000171048
0.000146196
0.000254647
0.000189499
0.00786264
0.000191849
0.00016011
0.000170893
0.000149077
0.0839053
0.000229688
0.0613792
0.000148763
0.000160038
0.000222443
0.0497547
0.0100574
0.000182747
0.000188699
0.000153329
0.000152913
0.000148161
0.000165721
0.000169861
0.000148693
0.000177763
0.000173981
0.0624584
0.0145287
0.000152498
0.000196812
0.000822546
0.000156892
0.000149339
0.000454052
0.0708316
0.067385
0.000217755
0.000144494
0.0257042
0.000189031
0.000146582
0.000160974
0.000186495
0.000159431
0.000186279
0.0520869
0.000204102
0.000169281
0.0837765
0.000151514
0.0259131
0.000149479
0.000148898
0.0193729
0.0726042
0.000211199
0.000151515
0.000149695
0.000148135
0.00017389
0.000450248
0.000200554
0.000153257
0.000200217
0.000179555
0.000147325
0.000381951
0.000199909
0.000132196
0.000147234
0.000203358
0.0001508
0.0140174
0.000175322
0.000170872
0.000160284
0.000146559
0.000145427
0.000148329
0.000175719
0.000155588
0.000240767
0.000539961
0.00018007
0.000146473
0.000202757
0.000212077
0.000689937
0.000148124
0.000155135
0.000146841
0.000161295
0.000154741
0.0848299
0.000149405
0.00061088
0.000160899
0.000206081
0.000180952
0.0438224
0.000171839
0.000148889
0.0402092
0.0112267
0.000148064
0.000154336
0.00275107
0.00021079
0.000197005
0.000149474
0.000149241
0.00020961
0.000155583
0.000183246
0.000184238
0.000145469
0.000179155
0.0613344
0.000148077
0.000151971
0.00014734
0.0264339
0.000149713
0.000152998
0.028247
0.000151223
0.068067
0.00015677
0.000160272
0.000147281
0.000166805
0.000147772
0.000176129
0.000146599
0.000174802
0.000151315
0.0178719
0.000329829
0.0767343
0.000152107
0.000149213
0.000178529
0.00017054
0.0311268
0.0790985
0.000175717
0.00014789
0.000246963
0.000211466
0.000138986
0.000222104
0.000175418
0.0497306
0.000165114
0.000172032
0.000199936
0.000180572
0.000175326
0.000243257
0.000174725
0.000153188
0.000187874
0.000155975
0.000146348
0.000161035
0.000168869
0.00015694
0.000147834
0.000146978
0.000179878
0.000152344
0.000183402
0.000147896
0.000148043
0.000149777
0.000150939
0.000143989
0.000154904
0.000147505
0.0353969
0.00018485
0.00019089
0.000145888
0.000149559
0.000163744
0.000177515
0.000150029
0.0708698
0.00017642
0.0542928
0.000161037
0.000196518
0.000149941
0.00014974
0.000146993
0.000151003
0.0197003
0.000149624
0.00749814
0.000155306
0.00989521
0.00016544
0.000177146
0.000205503
0.000145083
0.000149924
0.000185262
0.000148062
0.000149352
0.0541353
0.000150032
0.000148999
0.000157959
0.000147074
0.000145028
0.000157101
0.000156142
0.02557
0.000162787
0.000148072
0.000146647
0.0542162
0.000175703
0.000148697
0.000148754
0.0603793
0.00146254
0.0234133
0.000160128
0.000153198
0.000145805
0.000144859
0.000177083
0.000163581
0.000236618
0.000153314
0.040128
0.000149027
0.000151591
0.0195468
0.000147984
0.000158884
0.000147805
0.000148167
0.000167966
0.000162032
0.000149844
0.0697777
0.0255884
0.00018155
0.000147398
0.000144534
0.000199414
0.00740668
0.000149673
0.000509872
0.000144501
0.000167579
0.000146671
0.000146778
0.000218181
0.000148171
0.0154284
0.00016677
0.000149775
0.00014451
0.000148283
0.000147008
0.00015175
0.000442177
0.000147751
0.000146348
0.0732967
0.070914
0.000170209
0.000169885
0.000182651
0.000155206
0.000146203
0.000155872
0.0364951
0.000175682
0.000148605
0.000148971
0.0794062
0.000166283
0.0574105
0.000149717
0.000150206
0.0240586
0.00016453
0.0001501
0.0175138
0.000294908
0.000146971
0.000197024
0.000146973
0.000148012
0.000145791
0.0458283
0.000143917
0.000148416
0.000146161
0.0212659
0.000155615
0.000204198
0.000166245
0.000146782
0.000158585
0.000148952
0.052362
0.000147263
0.000147873
0.000149008
0.000200267
0.000148942
0.000204182
0.0205404
0.0555185
0.000154715
0.000110223
0.0333035
0.000147876
0.0216292
0.0833469
0.0374455
0.0376282
0.0727067
0.00846419
0.000200504
0.000149102
0.0513302
0.000164359
0.0569786
0.000145408
0.000147149
0.000148743
0.000148896
0.000156508
0.000157974
0.0323513
0.000147035
0.000148156
0.0114201
0.000190996
0.000148279
0.000160677
0.000159719
0.000149023
0.000318665
0.000160798
0.000151767
0.000155464
0.020864
0.0242658
0.000259802
0.000146449
0.000211582
0.000189546
0.0345282
0.0799182
0.000193021
0.00014727
0.000150113
0.000149028
0.000143568
0.000151119
0.000144509
0.000156066
0.000164487
0.0416609
0.000200745
0.000148442
0.000196022
0.0589244
0.000166766
0.00014908
0.0277158
0.000147277
0.000149139
0.000160593
0.0424636
0.000148943
0.000147263
0.0609041
0.000166637
0.000350625
0.000194123
0.000344657
0.000147065
0.000206934
0.000149178
0.000147542
0.000149193
0.0544866
0.0288746
0.000146356
0.000144492
0.000147929
0.00270576
0.000150704
0.000160348
0.000148044
0.000149384
0.000205588
0.000146986
0.000176839
0.000201298
0.0466619
0.000147938
0.000173687
0.000152693
0.0412655
0.0564726
0.000147776
0.0443898
0.000184039
0.000273225
0.000148933
0.0452024
0.000149539
0.00015688
0.000166946
0.000194066
0.0565513
0.000128857
0.000211778
0.0741963
0.000146414
0.000239577
0.000146703
0.000155979
0.0614327
0.000148321
0.000149603
0.000150359
0.000148851
0.0400769
0.000145
0.000148227
0.000179532
0.000170561
0.000175952
0.000208696
0.000202521
0.0189608
0.000185831
0.000165649
0.000171418
0.0370693
0.00017082
0.0643245
0.0547932
0.000156239
0.000147084
0.0360136
0.000134623
0.000149097
0.000193525
0.000163503
0.000149891
0.000157045
0.000149024
0.000167117
0.000149934
0.000174889
0.000172216
0.000146646
0.000177812
0.000146846
0.000167609
0.00014657
0.000154292
0.000179193
0.000152665
0.000148814
0.000146439
0.000298657
0.000178495
0.0632144
0.000147763
0.000148469
0.000180526
0.000147805
0.000186855
0.000178487
0.000149889
0.000190125
0.000146654
0.074599
0.000148993
0.000168963
0.0289531
0.000240071
0.000147123
0.00015169
0.0174159
0.000147564
0.000146932
0.0385895
0.050921
0.000152301
0.000209785
0.000148372
0.000148819
0.0545801
0.000150796
0.000145168
0.000229612
0.000146985
0.00127754
0.000149152
0.000145174
0.000148729
0.000202914
0.0350356
0.000148476
0.000148972
0.000147065
0.000154282
0.000148141
0.000233312
0.000177386
0.000149738
0.0581645
0.00016557
0.000241964
0.0498441
0.000443569
0.00014619
0.000148932
0.000148101
0.000214146
0.000154711
0.0349591
0.0319155
0.000151899
0.0606833
0.000326538
0.000175317
0.00020563
0.000170484
0.000193714
0.0560618
0.00016825
0.000422228
0.0528951
0.000184273
0.000153608
0.0380329
0.000164758
0.000145532
0.000152063
0.0759892
0.00016315
0.000147063
0.00016715
0.000188988
0.000164807
0.0374289
0.000151936
0.0673374
0.000171257
0.000147016
0.000196528
0.000213612
0.000159124
0.000146517
0.000149775
0.0590022
0.000147535
0.000152142
0.000146382
0.000151165
0.000147149
0.000160413
0.000205677
0.000307729
0.000163002
0.00016544
0.043681
0.000195874
0.000147151
0.00222355
0.051158
0.0001456
0.000146864
0.000160877
0.0230685
0.000149616
0.000182023
0.000216287
0.000167669
0.000148197
0.000152176
0.000147201
0.000193444
0.000163411
0.000147433
0.0214339
0.0504229
0.000164001
0.000630644
0.00018476
0.00265831
0.000151124
0.000155628
0.0461161
0.0018959
0.000193249
0.000275685
0.000157593
0.000149803
0.000148113
0.000148623
0.000147949
0.000149867
0.000167633
0.000147186
0.000199548
0.000147061
0.000158541
0.000146452
0.000177351
0.000199633
0.000330694
0.00014779
0.000215101
0.000148098
0.0448514
0.000147894
0.000153708
0.000148556
0.000238388
0.0398857
0.000204101
0.00014716
0.000200775
0.000148008
0.000158821
0.0490538
0.000147833
0.00014923
0.00016959
0.000160981
0.0602768
0.000147205
0.000157799
0.000152336
0.000147903
0.000158431
0.000149522
0.000145514
0.000151566
0.0289231
0.000153276
0.000162777
0.0654587
0.000175239
0.0371162
0.000152897
0.000145567
0.000158569
0.0243001
0.000152745
0.000162303
0.000171668
0.0026047
0.000146887
0.00354086
0.000178497
0.00018256
0.000145523
0.000144619
0.000210802
0.000149383
0.000149882
0.000159047
0.000145442
0.000152503
0.000158044
0.000185958
0.000185045
0.0580414
0.000156419
0.000186713
0.0098618
0.0161154
0.000169019
0.000184617
0.022091
0.000168165
0.0728531
0.000151583
0.00923011
0.00342271
0.000145465
0.00014968
0.000147184
0.000150695
0.000169117
0.00014654
0.00015191
0.000193201
0.000151737
0.000160348
0.0447339
0.000157335
0.000153804
0.07736
0.000150084
0.0234137
0.00015464
0.000165838
0.000146802
0.0285689
0.0291445
0.000148016
0.000151
0.0457752
0.000156922
0.0154583
0.000147696
0.000147001
0.0620636
0.000150833
0.000162797
0.00879648
0.000148119
0.000175923
0.000158432
0.000144599
0.000146747
0.0497481
0.0312327
0.000148752
0.000152538
0.00014816
0.000155588
0.000160162
0.0291642
0.000149955
0.000339107
0.0158311
0.000132631
0.00308963
0.000150647
0.000200747
0.000181047
0.000156637
0.000148077
0.000182082
0.046159
0.000151212
0.000163239
0.0620554
0.00047034
0.000186884
0.000153317
0.000148947
0.000149547
0.000148138
0.0247544
0.000178312
0.000153422
0.000151301
0.000153589
0.00014975
0.000147695
0.000148033
0.000186297
0.000170112
0.0551593
0.000163829
0.00866296
0.0329932
0.000158262
0.000175856
0.00014603
0.000156907
0.0243016
0.000148472
0.000151689
0.000176717
0.000197129
0.000165087
0.0444241
0.000167651
0.000147275
0.0426466
0.000144332
0.000149159
0.000164314
0.000149777
0.000148272
0.000208881
0.0666227
0.000147019
0.0482365
0.000148392
0.0001461
0.000151528
0.000363474
0.000158213
0.000154636
0.0783437
0.000150604
0.000232868
0.0421585
0.000149547
0.000164096
0.000147602
0.019882
0.000182537
0.000148075
0.0519499
0.000177227
0.000168918
0.000149821
0.0274864
0.0001569
0.000194482
0.000151767
0.000168522
0.0288816
0.000146267
0.00025852
0.000148417
0.000178034
0.000164462
0.00014954
0.0316883
0.000151619
0.000196687
0.000177098
0.000170585
0.00016311
0.000163476
0.000149805
0.0617073
0.000158886
0.0199382
0.000157526
0.000183709
0.000147795
0.00016849
0.000148124
0.000187157
0.0566853
0.000150155
0.000146459
0.000451216
0.00015085
0.0144511
0.000149735
0.0510633
0.000142653
0.000162813
0.000147502
0.0001471
0.000148446
0.000144545
0.000191235
0.000166566
0.000161056
0.000154878
0.000148199
0.00233763
0.000152729
0.000161919
0.0052333
0.000148033
0.0166443
0.000176455
0.000162514
0.000256464
0.0416233
0.000181594
0.0513691
0.0283677
0.000146845
0.000202239
0.0319344
0.000190537
0.000148945
0.000148872
0.000197635
0.0516428
0.0235362
0.000239054
0.000149985
0.000165013
0.000168729
0.0407409
0.00285056
0.0001715
0.000200329
0.000152188
0.000178051
0.000193321
0.000148878
0.000189627
0.0651627
0.000148604
0.00662003
0.000149609
0.000147991
0.0346022
0.0509874
0.000146327
0.000150245
0.000149588
0.000146977
0.000166924
0.00021023
0.000152097
0.000147459
0.000148333
0.000171127
0.000157409
0.000157018
0.000200275
0.000147905
0.0549892
0.0165777
0.0633343
0.000177704
0.00017401
0.000170721
0.000163981
0.0501867
0.00158729
0.0145534
0.000149365
0.0860527
0.0353617
0.000145678
0.000147861
0.000186492
0.0560929
0.0683992
0.000146875
0.000148039
0.0445554
0.00212183
0.0100765
0.000152537
0.000151937
0.000302575
0.00014873
0.0502818
0.0307776
0.000858617
0.000322478
0.000148233
0.000147094
0.000146605
0.000154358
0.0361289
0.00017039
0.000156422
0.000149876
0.000174621
0.0243611
0.000171173
0.0547565
0.0147609
0.0256629
0.00032275
0.00014801
0.000148936
0.0501543
0.000144874
0.000145482
0.000150748
0.000383113
0.000166912
0.0385042
0.000196032
0.000147804
0.0781471
0.000166545
0.000147145
0.0166669
0.000178001
0.000153272
0.000148988
0.00524878
0.0608308
0.000149001
0.0701663
0.0182464
0.0602128
0.000256067
0.000177956
0.000147313
0.000149985
0.00035167
0.000155295
0.0499344
0.000167904
0.00100053
0.00022345
0.000150402
0.000156936
0.000147371
0.000150027
0.0565737
0.0201242
0.000148143
0.0220053
0.000172051
0.000148075
0.000153026
0.000147074
0.000206168
0.000149526
0.000321647
0.000165274
0.00014725
0.0001465
0.000170976
0.0229087
0.000167737
0.000152363
0.000168473
0.000148087
0.00015139
0.000158618
0.019436
0.0307686
0.0585685
0.000145331
0.000146445
0.000149216
0.000200807
0.000146626
0.000149333
0.000209319
0.000180327
6.94679e-05
0.00014532
0.0616709
0.0308499
0.000149867
0.0184656
0.000197097
0.000168621
0.000326916
0.000149045
0.0369927
0.000157183
0.000150697
0.000151939
0.000144837
0.000180305
0.000153591
0.000151404
0.000157628
0.0314749
0.0369166
0.00014955
0.000147702
0.000151881
0.000147926
0.000198197
0.000149427
0.000185188
0.000152704
0.0443048
0.000150944
0.061085
0.000145365
0.0798603
0.000149495
0.000144715
0.0616641
0.000187975
0.00017291
0.000690543
0.00016275
0.000169525
0.000148033
0.0364337
0.000148114
0.000146673
0.000169753
0.000184901
0.045868
0.0405871
0.000196376
0.071326
0.000195069
0.000309175
0.000147669
0.000154743
0.000159279
0.055977
0.000152959
0.0553895
0.0307983
0.000149391
0.000148296
0.000147965
0.000367213
0.000435913
0.00015225
0.000148443
0.000154257
0.00015753
0.000167455
0.00025876
0.000197258
0.000148046
0.000209307
0.000183386
0.0225991
0.00018319
0.000151186
0.000152672
0.0764709
0.000146579
0.00018634
0.0590227
0.000150112
0.000154427
0.000210287
0.000174715
0.000150157
0.0244343
0.000153571
0.000241201
0.000171853
0.000157934
0.000151003
0.0580747
0.000146433
0.000172814
0.000268571
0.060044
0.000173518
0.000177198
0.000156629
0.000164138
0.000149711
0.0616499
0.000157832
0.000148261
0.000160455
0.000148278
0.000149742
0.000391663
0.000148132
0.000148985
0.000148125
0.000200845
0.000148979
0.000161153
0.000186216
0.000205276
0.000192599
0.00014961
0.000186538
0.000197508
0.000208807
0.000182872
0.00015546
0.000205352
0.0540907
0.000247972
0.000149869
0.0473037
0.0508459
0.000149864
0.000153126
0.000144727
0.000220059
0.000186876
0.000148719
0.000258537
0.0543984
0.000146035
0.000148867
0.0452033
0.0332227
0.000185428
0.000144899
0.0423799
0.0373358
0.000492656
0.0001478
0.0575427
0.000191201
0.000168415
0.0504988
0.000156436
0.000144831
0.000160263
0.00020237
0.00016284
0.0497518
0.0639446
0.000146421
0.0648078
0.000202854
0.0369974
0.000145351
0.000164196
0.000149107
0.00014732
0.0609569
0.00433972
0.000238382
0.00733238
0.000157395
0.000174198
0.000150857
0.063532
0.0228611
0.000148045
0.000148925
0.000158164
0.000147351
0.000176138
0.0646512
0.0769247
0.000174717
0.000149735
0.000149232
0.0607783
0.000153289
0.000176551
0.000146231
0.000150625
0.000252138
0.00595279
0.000123105
0.000370834
0.000148923
0.000239332
0.000152068
0.00016428
0.0827594
0.0203012
0.000148167
0.000149949
0.000167725
0.000153932
0.000148785
0.0654085
0.0559185
0.000146397
0.000143825
0.000149087
0.00014729
0.000340488
0.00014617
0.046928
0.000191587
0.00018497
0.000147029
0.000167755
0.0667486
0.000164434
0.000199026
0.0478512
0.00014893
0.0269865
0.000158836
0.000159751
0.000193453
0.0276218
0.0364427
0.000183084
0.000146927
0.000193031
0.000146264
0.000153421
0.000148815
0.0454405
0.000158829
0.00312385
8.41871e-05
0.000173645
0.000148554
0.000214367
0.000157844
0.000149752
0.000184611
0.000144325
0.000170377
0.000163905
0.000148701
0.0769409
0.00015134
0.000209391
0.00015028
0.00014708
0.0549413
0.0481793
0.000152199
0.000158472
0.000170281
0.000172947
0.000181482
0.000157632
0.000154357
0.000155277
0.000202057
0.000153355
0.0460231
0.000167405
9.61685e-05
0.000199894
0.000150701
0.0674271
0.000144377
0.0592189
0.000152288
0.0548375
0.00452276
0.0254305
0.0377073
0.000240099
0.000169436
0.000148572
0.0628532
0.000170971
0.000148061
0.0221877
0.0632104
0.000151048
0.000153416
0.000159966
0.000160009
0.000163807
0.0351292
0.000149865
0.000162651
0.000166928
0.000159278
0.000148872
0.000190802
0.000144623
0.0480149
0.000151709
0.00019549
0.000161495
0.00016838
0.000185517
0.00421339
0.000183784
0.000146507
0.000190894
0.0609738
0.0668991
0.000150004
0.0453983
0.000159614
0.000300431
0.000148115
0.00015281
0.0534416
0.000179038
0.0279894
0.0264742
0.000159021
0.0737669
0.000147751
0.000144562
0.022811
0.000165432
0.00015275
0.0743305
0.000156409
0.000163793
0.000157421
0.000178478
0.000148652
0.0504876
0.059707
0.00953363
0.000240915
0.000155255
0.00017297
0.0297969
0.000152281
0.000149123
0.00017835
0.000145222
0.000186906
0.0490468
0.0218062
0.0281649
0.000179697
0.000150228
0.05993
0.000144361
0.0001866
0.000149461
0.0382624
0.00015211
0.00016492
0.0394948
0.000195058
0.000147749
0.000159222
0.010393
0.000148335
0.00020382
0.000146314
0.062873
0.0555072
0.000196988
0.000168488
0.00014715
0.000189094
0.000202561
0.000168052
0.00014634
0.000150457
0.000148717
0.000179294
0.000148549
0.000191057
0.000148551
0.000146567
0.0851725
0.00014715
0.000156361
0.000155829
0.00014979
0.0453631
0.000147036
0.000161296
0.0567933
0.000177264
0.0433268
0.000148233
0.060297
0.000178647
0.0736155
0.000151724
0.00020017
0.000149422
0.000169747
0.000199574
0.000197626
0.000218516
0.0543039
0.000211654
0.000404819
0.000155102
0.000196911
0.00016339
8.49645e-05
0.00015323
0.000149209
0.000148011
0.000177809
0.000165447
0.00155929
0.000177351
0.0556225
0.0573582
0.000171684
0.000147929
0.00913099
0.000180725
0.000149545
0.000152182
0.000148269
0.0470299
0.000148016
0.0174623
0.00014703
0.000158369
0.0380233
0.000171883
0.000147968
0.00014796
0.0254334
0.00014707
0.000152263
0.000155282
0.000160424
0.000157442
0.000148638
0.000206581
0.000168798
0.000163047
0.000229279
0.0452947
0.0435008
0.0312125
0.000145476
0.000147703
0.000173319
0.000150228
0.000163623
0.0449386
0.0430545
0.000144859
0.000148017
0.0420588
0.000100504
0.000145024
0.000146559
0.00015472
0.0568659
0.0525547
0.000156219
0.000161975
0.00014917
0.000251083
0.000200267
0.000175647
0.000158093
0.000163988
0.000149414
0.000165929
0.000238121
0.000150185
0.000148751
0.000155814
0.0601811
0.00015356
0.0229634
0.000148422
0.0512103
0.000162229
0.00015594
0.000145789
0.000147001
0.00025628
0.0594969
0.000165281
0.0250598
0.0566402
0.000149665
0.0527618
0.000204861
0.000147477
0.0203429
9.50979e-05
0.000196921
0.000149611
0.0407295
0.0379661
0.000148238
0.000162959
0.0301533
0.000166988
0.00014817
0.000146444
0.000149498
0.000153463
0.000183791
0.000238919
0.000168439
0.000181376
0.000145566
0.000148744
0.0511802
0.000146796
0.000168958
0.00015469
0.000149465
0.000174215
0.000147794
0.000151806
0.000248449
0.000147548
0.0439347
0.000147777
0.00443665
0.0500244
0.000189161
0.000148878
0.000149939
0.0590558
0.000144737
0.000152906
0.000149228
0.000207507
0.000328822
0.000163656
0.0490379
0.000162981
0.000170603
0.000149716
0.000184966
0.000147033
0.000148683
0.0215562
0.0471395
0.000311882
0.000152199
0.000184264
0.00018464
0.0392455
0.0572819
0.000244362
0.000166416
0.000144309
0.0508629
0.000147677
0.000147929
0.00023882
0.000197637
0.000156386
0.000180255
0.000164384
0.000159318
0.000157404
0.0761369
0.000153725
0.000147501
0.0208184
0.000164629
0.000145476
0.0356435
0.000147798
0.000148462
0.000206156
0.000188687
0.0394408
0.000145619
0.000153041
0.000147051
0.000318696
0.000146954
0.000204636
0.00979399
0.0469611
0.0331296
0.0150663
0.000157318
0.0434136
0.000228051
0.000149251
0.000158148
0.000163038
0.000157537
0.000254151
0.0449171
0.0523404
0.0469474
0.000362458
0.000148619
0.00019518
0.000147852
0.0215281
0.000159223
0.000152236
0.000153116
0.000150319
0.000146983
0.000194636
0.0539394
0.000145352
0.000152234
0.000146433
0.0399335
0.00015202
0.0795616
0.0428242
0.000262704
0.000148329
0.000147061
0.0368453
0.000193262
0.000148677
0.000194287
0.000149403
0.000190006
0.000179712
0.000190386
0.000177207
0.0358489
0.000146234
0.000147141
0.000227379
0.0363159
0.000158834
0.00016716
0.000147363
0.0163716
0.000147737
0.00014718
0.000151256
0.000147776
0.00691721
0.043967
0.000930357
0.00018349
0.0591231
0.000194321
0.000144863
0.000162659
0.000145255
0.000259602
0.000148378
0.000153162
0.000147701
0.000146957
0.000146639
0.000408341
0.000151511
0.000285244
0.000144975
0.00015849
0.000157616
0.00027322
0.000147952
0.000162581
0.000166997
0.000173478
0.0791725
0.000146939
0.0327338
0.000177482
0.000165137
0.000148594
0.000147243
0.0375987
0.00974195
0.000148462
0.000147431
0.000248768
0.000238477
0.000160786
0.0566465
0.000150184
2.83937e-05
0.000162967
0.000145272
0.05064
0.000152212
0.0525768
0.000147985
0.000150229
0.000148532
0.0399432
0.0450477
0.000145018
0.000183009
0.000236378
0.00014801
0.000147282
0.000146967
0.000184915
0.0559509
0.000176229
0.00015481
0.000166956
0.000147823
0.000148147
0.000152432
0.000147589
0.000211916
0.000148229
0.000183973
0.000310803
0.000163996
0.000144457
0.0399235
0.000186037
0.000147894
0.000179526
0.000161768
0.000624959
0.000152607
0.0828163
0.000176109
0.00014786
0.000184511
0.000184813
0.00015416
0.083178
0.000182529
0.000162753
0.00084339
0.000147525
0.000187586
0.000170006
0.000184137
0.000147109
0.000147694
0.000144701
0.000158726
0.000180211
0.000179384
0.0557394
0.0325509
0.0441486
0.000149723
0.00030622
0.0514896
0.0623278
0.000147741
0.000148046
0.000177908
0.0562384
0.000152445
0.000166631
0.0116541
0.0342749
0.00445097
0.0001727
0.000207132
0.0407223
0.000162917
0.000144646
0.00203926
0.000234434
0.000149261
0.000149758
0.00015032
0.06086
0.000186877
0.0612604
0.000152553
0.0106412
0.000148549
0.000267713
0.0344205
0.000148826
0.000165304
0.0489825
0.0513255
0.00017517
0.000150753
0.000151792
0.000149346
0.000188129
0.000199838
0.000379819
0.060058
0.000145864
0.0185392
0.000194094
0.000456945
0.00014776
0.000148875
0.004074
0.000184929
0.000147573
0.000173115
0.000167968
0.000161091
0.046582
0.0618806
0.0657317
0.0579391
0.000153896
0.000145232
0.000166928
0.0282123
0.0653531
0.000148033
0.000185763
0.000170107
0.000196832
0.000150677
0.000149637
0.000245138
0.00634228
0.0101312
0.000281431
0.0256623
0.000147269
0.000184553
0.05672
0.000148908
0.000166294
0.000193014
0.000145126
0.000207338
0.0702287
0.000183045
0.000149628
0.0207671
0.000196933
0.0476711
0.000143684
0.000153282
0.000148592
0.000152541
0.000148478
0.000172014
0.000163042
0.000162755
0.000189367
0.000164996
0.0430315
0.000153514
0.000161782
0.00015711
0.0215459
0.000165484
0.0336488
0.000156886
0.000155854
0.0110759
0.000170956
0.00014828
0.000163107
0.00915579
0.0652332
0.000240822
0.000147755
0.000147204
0.000147524
1.54245e-05
0.000150972
0.000341797
0.00026512
0.000184437
0.000160348
0.000215321
0.0288632
0.000148477
0.0672413
0.000160071
0.000164128
0.000147601
0.000147891
0.000175712
0.0604059
0.000148171
0.0303064
0.000221638
0.000171256
0.000202206
0.000147062
0.000147747
0.000160986
0.000151783
0.0599657
0.0257268
0.000170972
0.0002553
0.000147669
0.000148372
0.00014874
0.000149543
0.083829
0.000152042
0.0423613
0.000169862
0.000150775
0.000192665
0.000499976
0.0409955
0.0211382
0.000152676
0.000146894
0.000148607
0.000153336
0.000221286
0.000183085
0.0824628
0.000148802
0.000150226
0.000178166
0.000149665
0.000178508
0.000151648
0.000176729
0.000178188
0.000163019
0.00016311
0.000145609
0.000172536
0.000162529
0.00018327
0.000168749
0.000163446
0.000146506
0.000191282
0.000146998
0.000819288
0.0494725
0.000230886