/*--------------------------------*- C++ -*----------------------------------*\
| =========                 |                                                 |
| \\      /  F ield         | OpenFOAM: The Open Source CFD Toolbox           |
|  \\    /   O peration     | Version:  v2012                                 |
|   \\  /    A nd           | Website:  www.openfoam.com                      |
|    \\/     M anipulation  |                                                 |
\*---------------------------------------------------------------------------*/
FoamFile
{
    version     2.0;
    format      ascii;
    class       volScalarField;
    location    "200";
    object      k_0;
}
// * * * * * * * * * * * * * * * * * * * * * * * * * * * * * * * * * * * * * //

dimensions      [0 2 -2 0 0 0 0];


internalField   nonuniform List<scalar> 
13917
(
0.000165745
0.000148646
0.0614331
0.000153425
0.000148424
0.00019639
0.0595393
0.0630684
0.077127
0.000174707
0.000206233
0.000185146
0.000153598
0.016222
0.000154554
0.000153473
0.000149041
0.00017613
0.0001847
0.00014845
0.000149722
0.0590638
0.000148301
0.060375
0.000147737
0.0554797
0.000161653
0.000164739
0.000213549
0.000186337
0.000167522
0.000157099
0.000160024
0.000153787
0.000147892
0.000200904
0.00014837
0.0458685
0.00015685
0.0193839
0.000146908
0.000149881
0.000144247
0.00016909
0.000148408
0.000155303
0.000175798
0.00018397
0.000395952
0.000147665
0.000157812
0.000149232
0.00046065
0.000154134
0.000149094
0.000157155
0.000205878
0.000148036
0.000154492
0.000148209
0.0836852
0.000148656
0.00769872
0.000148356
0.000194922
0.0281935
0.000148386
0.000148059
0.00020895
0.000163096
0.000148482
0.0758601
0.0441938
0.000147766
0.000406995
0.000189386
0.0315291
0.000150573
0.0513528
0.000149472
0.000149204
0.000148442
0.000192875
0.0501279
0.045885
0.000150347
0.000149003
0.010495
0.000157452
0.000144194
0.0485126
0.000181296
0.000147154
0.000150601
0.0178185
0.000192434
0.000198142
0.000181698
0.000202426
0.000171287
0.000146086
0.00015837
0.000168926
0.00015171
0.000146072
0.0777046
0.000197615
0.00018501
0.000149064
0.000168747
0.048592
0.0212371
0.000190995
0.0779471
0.000150504
0.00042831
0.00014765
0.000267065
0.0265566
0.000154104
0.000149782
0.000207665
0.0298271
0.000164021
0.000147394
0.000150303
0.000148189
0.000147462
0.000144367
0.000194743
0.0431539
0.000150343
0.000148497
0.000149785
0.00463451
0.0593038
0.00016592
0.000171916
0.000148329
0.000153954
0.000142773
0.000146072
0.000149765
0.00017147
0.000148071
0.0654031
0.000217211
0.000149089
0.000145767
0.000157555
0.000179322
0.000434837
0.000190809
0.000163982
0.000156772
0.0239641
0.000162139
0.0042101
0.0258341
0.00562095
0.000152336
0.000161812
0.000149472
0.000197047
0.000190489
0.000201903
0.000151627
0.000180536
0.000147533
0.000158859
0.000164677
0.0261462
0.000193394
0.000149852
0.0492523
0.000165273
0.0457014
0.000309827
0.0597978
0.000147335
0.000182555
0.000168455
0.000146026
0.00014893
0.000157638
0.0555806
0.000222287
0.0298954
0.000165744
0.000199839
5.01424e-05
0.0506367
0.000217755
0.000148387
0.000173146
0.000161326
0.000153771
0.000147241
0.000184195
0.00135975
0.000157484
0.00014779
0.000178641
0.000179035
0.0387716
0.00120984
0.000147893
0.000148128
0.000181236
0.0579493
0.000149546
0.0602506
0.028563
0.000199902
0.000146115
0.000203288
0.000177989
0.0299223
0.000147347
0.0796041
0.000147267
0.000185285
0.000146746
0.0490485
0.0790202
0.000153823
0.000416117
0.000157152
0.000146147
0.000206566
0.000192866
0.000165531
0.0581568
0.0234925
0.000145713
0.000157612
0.0532898
0.0351125
0.000149406
0.000147133
0.0214235
0.000201649
0.00014972
0.000165924
0.000189814
0.000161488
0.000164376
0.000149405
0.000164508
0.0261205
0.000148267
0.000187069
0.000175027
0.000148076
0.00014798
0.000185414
0.0277758
0.000189328
0.000157847
0.000154734
0.000149758
0.0243961
0.0772202
5.72168e-05
0.00014619
0.0417579
0.0246354
0.0118369
0.0505247
0.00019089
0.000149293
0.000147001
0.000176133
0.0426615
0.000196964
0.000154087
0.00181444
0.000173389
0.000144279
0.0562794
0.000148254
0.0526833
0.000156836
0.00014968
0.000155828
0.000163928
0.000161945
0.000148625
0.000159745
0.000148605
0.000203424
0.057393
0.0825796
0.000147351
0.0168945
0.000148934
0.000148606
0.000147707
0.00023617
0.00014837
0.000187356
0.000163652
0.000147416
0.000178893
0.000151002
0.00035307
0.000164924
0.000179801
0.000146666
0.000147908
0.0454417
0.0282737
0.000147605
0.000146874
0.0524244
0.00014722
0.0476313
0.00014654
0.0520571
0.000150298
0.000226164
0.000164659
0.00044581
0.000151951
0.000365716
0.000187341
0.00015584
0.00020138
0.000205035
0.000148964
0.0433655
0.000173071
0.0284479
0.000152958
0.0203322
0.000158354
0.058969
0.000183421
0.000174717
0.000174077
0.0621532
0.000149305
0.000165295
0.0536366
0.000148675
0.000151493
0.0259494
0.000187683
0.00014969
0.000184965
0.00020961
0.000146403
0.0229011
5.00453e-05
0.0001482
0.000146749
0.000148996
0.000145727
0.000207567
0.0554821
0.000213628
0.0508334
0.000147725
0.000189658
0.00816413
0.000171496
0.0596878
0.0475602
0.0790118
0.000145689
0.000109771
0.000146591
0.0717639
0.000148183
0.000462167
0.00018974
0.000155348
0.000149153
0.000180034
0.000184574
0.000183613
0.000642208
0.0539368
0.0233564
0.000165015
0.000173565
0.000147194
0.0385252
0.0574056
0.000148145
0.000241803
0.000147926
0.000239961
0.000150275
0.000149388
0.000151026
0.045366
0.000150953
0.0309968
0.0107901
0.000202847
0.000198844
0.000148907
0.000199029
0.000195382
0.000147859
0.000189577
0.000148595
0.000147842
0.00018619
0.000149676
0.000147773
0.000146558
0.000249849
0.000149564
0.0235364
0.0468432
0.00517771
0.000215084
0.0373956
0.0302963
0.000171097
0.000147762
0.000205559
0.000156471
0.000158774
0.000148329
0.062326
0.0584275
0.0448608
0.000153357
0.000193257
0.000152647
0.000157548
0.000183576
0.000150538
0.000120788
0.000149029
0.000148298
0.0526823
0.0440941
0.0462431
0.000185567
0.00346691
0.0475402
0.0572851
0.0306104
0.000144596
0.000178686
0.000150628
0.000148278
0.000323219
0.000176435
0.000147707
0.000178369
0.000169492
0.0290819
0.000147827
0.00019708
0.014541
0.00025069
0.0284708
0.000149626
0.00014819
0.000153626
0.000162172
0.000145711
0.0532427
0.000205037
0.00015971
0.0373733
0.000157107
0.000197606
0.062406
0.000218598
0.000201975
0.000111148
0.000197046
0.000177144
0.000204674
0.000172642
0.000206281
0.000212444
0.00017655
0.00018798
0.000147212
0.00187272
0.000158648
0.000145426
0.00016123
0.000150893
0.0314264
0.077477
0.000147141
0.000144495
0.0546833
0.0249872
0.000149678
0.0232315
0.00015133
0.000204307
0.000147274
0.0366126
0.00130428
0.000157545
0.000149139
0.0406274
0.00021321
0.01229
0.000149743
0.0294698
0.000353692
0.0557086
0.000145522
0.0416165
0.0854745
0.000171698
0.000146695
0.000149022
0.000189619
0.000229551
0.000147012
0.000146779
0.000147178
0.000147133
0.0365433
0.000472124
0.000171288
0.000218023
0.000147427
0.000146138
0.000192808
0.07673
0.000163047
0.000147647
0.000147797
0.000148117
0.0618104
0.0557276
0.000148953
0.000148118
0.000110812
0.00017223
0.000164654
0.000148131
0.000151136
0.000155963
0.000187348
0.000198142
0.00022172
0.000206654
0.000191696
0.000975191
0.000179484
0.00014742
0.0305019
0.000148139
0.0001519
0.000154434
0.0019202
0.000171049
0.000146196
0.000254659
0.0001895
0.00786285
0.000191843
0.000160112
0.000170893
0.000149077
0.0838928
0.000229687
0.0613899
0.000148763
0.000160039
0.000222458
0.0497544
0.0100551
0.000182745
0.0001887
0.000153329
0.000152913
0.000148162
0.000165706
0.000169865
0.000148693
0.000177762
0.000174006
0.0624699
0.0145291
0.000152497
0.000196808
0.000820586
0.000156891
0.000149339
0.000454072
0.0708267
0.0674103
0.000217777
0.000144494
0.0257087
0.000189042
0.000146582
0.000160975
0.000186495
0.00015943
0.000186282
0.0520795
0.000204093
0.000169282
0.0837643
0.000151514
0.0259091
0.000149479
0.000148898
0.0194179
0.0726009
0.000211049
0.000151516
0.000149694
0.000148134
0.000173892
0.000450202
0.000200577
0.000153258
0.000200225
0.000179554
0.000147325
0.000381826
0.000199931
0.000132007
0.000147235
0.000203346
0.000150801
0.0140166
0.000175321
0.000170868
0.000160285
0.000146559
0.000145427
0.000148328
0.000175718
0.000155587
0.000241153
0.000540043
0.00018007
0.000146473
0.000202753
0.000211922
0.000691767
0.000148124
0.000155135
0.000146841
0.000161295
0.000154742
0.0848224
0.000149405
0.000591652
0.0001609
0.000206087
0.000180957
0.0438184
0.000171837
0.000148888
0.0402069
0.0112256
0.000148064
0.000154336
0.00275316
0.000210805
0.000196996
0.000149474
0.000149241
0.000209605
0.000155583
0.000183244
0.000184243
0.00014547
0.000179156
0.0613504
0.000148077
0.000151971
0.00014734
0.0264379
0.000149713
0.000152997
0.0282496
0.000151222
0.068065
0.00015677
0.000160272
0.000147281
0.000166802
0.000147772
0.00017613
0.000146599
0.000174805
0.000151315
0.0178719
0.000329597
0.076729
0.000152107
0.000149213
0.00017853
0.000170541
0.0311277
0.0790957
0.000175716
0.000147889
0.000247563
0.000211371
0.000138822
0.000222014
0.000175418
0.0497162
0.000165115
0.000172034
0.00019993
0.000180573
0.000175325
0.000243371
0.000174725
0.000153187
0.000187872
0.000155975
0.000146348
0.000161036
0.000168868
0.00015694
0.000147834
0.000146978
0.000179878
0.000152345
0.000183399
0.000147896
0.000148043
0.000149777
0.000150938
0.000143989
0.000154904
0.000147505
0.035393
0.000184858
0.000190868
0.000145888
0.000149559
0.000163744
0.000177514
0.000150029
0.0708503
0.000176425
0.0542943
0.000161038
0.000196513
0.000149942
0.00014974
0.000146993
0.000151003
0.0197028
0.000149624
0.00748546
0.000155306
0.00989565
0.000165436
0.000177151
0.000205509
0.000145083
0.000149924
0.000185269
0.000148062
0.000149353
0.0541044
0.000150031
0.000148999
0.000157959
0.000147074
0.000145028
0.000157101
0.000156115
0.02557
0.000162788
0.000148072
0.000146647
0.0542168
0.000175701
0.000148697
0.000148753
0.0603539
0.00146289
0.0234152
0.000160132
0.000153198
0.000145805
0.000144859
0.000177087
0.000163582
0.000236607
0.000153314
0.040132
0.000149027
0.000151591
0.0195489
0.000147983
0.000158884
0.000147805
0.000148167
0.000167966
0.000162016
0.000149845
0.0697776
0.0255893
0.000181555
0.000147398
0.000144534
0.000199433
0.0073897
0.000149673
0.000508092
0.000144502
0.000167579
0.000146671
0.000146779
0.000219023
0.000148172
0.0153773
0.000166771
0.000149775
0.00014451
0.000148283
0.000147008
0.00015175
0.00044217
0.000147751
0.000146348
0.0733067
0.0709311
0.000170211
0.000169885
0.000182649
0.000155207
0.000146203
0.000155874
0.0364905
0.000175678
0.000148605
0.000148971
0.0794045
0.000166283
0.0574114
0.000149717
0.000150206
0.0240634
0.00016453
0.000150101
0.0175155
0.00029492
0.000146971
0.000197017
0.000146973
0.000148012
0.000145791
0.0458251
0.000143917
0.000148416
0.000146161
0.0212116
0.000155614
0.000204196
0.000166275
0.000146782
0.000158586
0.000148952
0.0523629
0.000147263
0.000147873
0.000149008
0.000200287
0.000148943
0.000204171
0.0205406
0.0555362
0.000154715
7.71885e-05
0.0333058
0.000147877
0.021634
0.0833515
0.0374476
0.0376282
0.0727158
0.00846453
0.0002005
0.000149101
0.0513241
0.00016436
0.056983
0.000145408
0.000147149
0.000148742
0.000148896
0.000156509
0.00015797
0.0323548
0.000147035
0.000148156
0.0114205
0.000190978
0.000148279
0.000160641
0.000159719
0.000149024
0.000318438
0.000160769
0.000151766
0.000155464
0.0208656
0.0242679
0.000259768
0.000146449
0.000211579
0.000189546
0.0345302
0.0799183
0.000193036
0.00014727
0.000150113
0.000149028
0.000143568
0.000151118
0.000144509
0.000156066
0.000164488
0.0416623
0.000200735
0.000148442
0.000196016
0.0589221
0.000166766
0.00014908
0.0277114
0.000147277
0.000149139
0.000160593
0.0424648
0.000148943
0.000147263
0.0609137
0.000161509
0.000352358
0.000194117
0.000349401
0.000147066
0.00020693
0.000149179
0.000147542
0.000149193
0.0544793
0.0288761
0.000146356
0.000144492
0.000147929
0.00270415
0.000150703
0.000160349
0.000148044
0.000149383
0.000205584
0.000146986
0.000176839
0.000201301
0.0466666
0.000147938
0.000173699
0.000152693
0.0412616
0.0564703
0.000147776
0.0443905
0.000184036
0.000273223
0.000148933
0.0451876
0.000149539
0.000156881
0.000166947
0.00019406
0.0565512
0.00012864
0.000211819
0.0741889
0.000146414
0.000239421
0.000146704
0.000155978
0.0614431
0.000148322
0.000149603
0.000150358
0.000148851
0.0400783
0.000145
0.000148227
0.000179533
0.000170562
0.000175952
0.000208616
0.00020255
0.018963
0.000185839
0.00016565
0.00017142
0.0370665
0.000170822
0.0643321
0.0547913
0.000156239
0.000147084
0.0360092
0.000134553
0.000149097
0.000193522
0.000163503
0.00014989
0.000157045
0.000149025
0.000167119
0.000149934
0.000174888
0.000172214
0.000146646
0.000177812
0.000146846
0.000167612
0.00014657
0.000154292
0.000179192
0.000152666
0.000148814
0.000146439
0.000298712
0.000178493
0.0632165
0.000147763
0.000148468
0.000180525
0.000147806
0.000186854
0.000178485
0.000149888
0.00019012
0.000146654
0.0745949
0.000148994
0.000168965
0.0289517
0.000240157
0.000147123
0.000151689
0.0174169
0.000147564
0.000146932
0.0385916
0.050918
0.000152301
0.000209832
0.000148372
0.000148819
0.0545725
0.000150796
0.000145167
0.000229609
0.000146985
0.00128388
0.000149152
0.000145173
0.000148729
0.000202945
0.0350389
0.000148476
0.000148972
0.000147066
0.000154282
0.000148141
0.000233334
0.000177386
0.000149738
0.0581936
0.000165576
0.000241794
0.0498501
0.000443586
0.00014619
0.000148932
0.000148101
0.000214125
0.000154711
0.0349627
0.0319177
0.000151899
0.0606926
0.000326539
0.000175316
0.000205665
0.000170477
0.000193747
0.0560625
0.000168261
0.000422245
0.0528999
0.00018428
0.000153608
0.0380306
0.000164759
0.000145532
0.000152064
0.0759947
0.00016315
0.000147063
0.000167147
0.000188987
0.000164807
0.0374281
0.000151936
0.0673276
0.000171259
0.000146813
0.000196526
0.000213622
0.000159125
0.000146517
0.000149774
0.0590176
0.000147535
0.000152141
0.000146382
0.000151164
0.000147149
0.000160413
0.000205703
0.000307728
0.000163014
0.000165471
0.0436444
0.000195948
0.000147151
0.00223556
0.0511403
0.0001456
0.000146864
0.000160878
0.0230709
0.000149616
0.000182021
0.000216219
0.000167668
0.000148198
0.000152175
0.000147201
0.000193441
0.000163409
0.000147433
0.0214356
0.0504103
0.000164001
0.000626893
0.000184767
0.00264199
0.000151124
0.000155628
0.0460993
0.0018954
0.000193265
0.00027551
0.000157593
0.000149803
0.000148113
0.000148622
0.000147949
0.000149868
0.000167634
0.000147186
0.000199547
0.000147061
0.000158542
0.000146452
0.000177353
0.000199643
0.000330713
0.000147791
0.000215102
0.000148098
0.0448506
0.000147894
0.000153709
0.000148556
0.000238276
0.0398816
0.000204131
0.000147161
0.000200765
0.000148008
0.000158821
0.0490501
0.000147833
0.00014923
0.00016959
0.000160982
0.0602851
0.000147205
0.000157798
0.000152335
0.000147903
0.000158426
0.000149521
0.000145514
0.000151565
0.028918
0.000153276
0.000162274
0.0654847
0.000175239
0.0371191
0.000152897
0.000145567
0.000158569
0.0242977
0.000152745
0.000162302
0.000171669
0.000832359
0.000146887
0.00354109
0.000178496
0.000182558
0.000145523
0.000144619
0.000210847
0.000149384
0.000149882
0.000159047
0.000145442
0.000152503
0.000158045
0.000185962
0.000185077
0.0580447
0.000156419
0.000186714
0.00981897
0.0161156
0.00016902
0.000184625
0.0220932
0.000168165
0.0728589
0.000151583
0.00923134
0.00342282
0.000145465
0.00014968
0.000147184
0.000150695
0.000169118
0.00014654
0.00015191
0.000193216
0.000151738
0.000160349
0.0447301
0.000157334
0.000153804
0.077366
0.000150085
0.0234181
0.00015464
0.000165828
0.000146802
0.0285653
0.0291468
0.000148015
0.000151
0.045754
0.000156922
0.0154588
0.000147696
0.000147001
0.0620749
0.000150833
0.000162791
0.0087961
0.000148118
0.000175923
0.000158432
0.000144599
0.000146747
0.0497364
0.0312352
0.000148751
0.000152539
0.00014816
0.000155588
0.000160168
0.0291602
0.000149955
0.000339077
0.0158712
0.000132444
0.00308959
0.000150647
0.000200773
0.000181047
0.000156637
0.000148077
0.000182085
0.0461569
0.000151212
0.00016324
0.0620808
0.000470306
0.000186972
0.000153317
0.000148947
0.000149547
0.000148138
0.024757
0.000178311
0.000153422
0.000151301
0.00015359
0.00014975
0.000147696
0.000148033
0.000186298
0.000170113
0.0551924
0.000163842
0.00866302
0.0329901
0.000158262
0.000175855
0.00014603
0.000156906
0.0242981
0.000148472
0.000151688
0.000176717
0.000197119
0.000165085
0.0443941
0.000165885
0.000147274
0.0426484
0.000144332
0.000149159
0.000164319
0.000149777
0.000148273
0.000208864
0.0666021
0.000147019
0.0482131
0.000148391
0.0001461
0.000151527
0.000363427
0.000158213
0.000154635
0.0783486
0.000150604
0.000232837
0.0421552
0.000149547
0.000164109
0.000147602
0.0198814
0.000182535
0.000148075
0.0519366
0.000177226
0.000168919
0.000149821
0.0274887
0.000156898
0.000194472
0.000151767
0.000168522
0.0288792
0.000146267
0.000258738
0.000148417
0.000178033
0.000164463
0.00014954
0.0316896
0.000151619
0.000196677
0.000177098
0.000170584
0.000163108
0.000163478
0.000149805
0.0617319
0.000158885
0.0199424
0.000157527
0.000183713
0.000147795
0.000168491
0.000148125
0.000187165
0.0566928
0.000150154
0.000146459
0.000451218
0.000150851
0.0144024
0.000149735
0.0510483
0.00014228
0.000162813
0.000147501
0.0001471
0.000148446
0.000144545
0.000191231
0.000166564
0.000161047
0.000154878
0.000148199
0.00233122
0.000152729
0.00016192
0.00520054
0.000148033
0.0166423
0.000176455
0.000162514
0.000256462
0.04162
0.000184946
0.0513655
0.0283509
0.000146845
0.000202236
0.0319366
0.000190495
0.000148945
0.000148873
0.000197635
0.0516303
0.0235403
0.000239064
0.000149984
0.000165017
0.00016873
0.0407398
0.00285066
0.000171501
0.000200321
0.000152187
0.00017805
0.000193335
0.000148878
0.000189625
0.065139
0.000148604
0.00663968
0.000149609
0.000147992
0.0346011
0.0509859
0.000146327
0.000150245
0.000149588
0.000146977
0.000166926
0.000210208
0.000152097
0.000147459
0.000148333
0.000171128
0.00015741
0.000157018
0.000204213
0.000147905
0.0549863
0.016579
0.0633407
0.000177705
0.00017401
0.000171433
0.000163981
0.050177
0.00159759
0.0145433
0.000149365
0.0860523
0.0353618
0.000145678
0.000147861
0.000186494
0.0560949
0.0683917
0.000146876
0.000148039
0.0445601
0.00212284
0.0100276
0.000152537
0.000151936
0.000302559
0.000148731
0.0502879
0.0307784
0.000869271
0.00032247
0.000148233
0.000147094
0.000146605
0.000154358
0.0361322
0.000170391
0.000156422
0.000149876
0.000174627
0.024364
0.000171175
0.0547567
0.0147615
0.0256672
0.000322742
0.000148009
0.000148936
0.0501395
0.000144874
0.000145482
0.000150747
0.000383105
0.000166912
0.0385044
0.000196031
0.000147804
0.078143
0.000166545
0.000147145
0.0166674
0.000178007
0.000153272
0.000148988
0.0052489
0.0608306
0.000149001
0.0701429
0.0182911
0.0602161
0.000256126
0.000177962
0.000147314
0.000149985
0.000351291
0.000155296
0.0499326
0.000167905
0.00100096
0.000223579
0.000150402
0.000156936
0.000147371
0.000150027
0.0565767
0.0201288
0.000148143
0.0220062
0.000172052
0.000148075
0.000153026
0.000147074
0.000206154
0.000149526
0.000321679
0.000165272
0.000147251
0.0001465
0.000171005
0.0229043
0.000167737
0.000152362
0.000168473
0.000148087
0.000151391
0.000158619
0.0194387
0.0307726
0.0585696
0.000145331
0.000146445
0.000149215
0.000200832
0.000146626
0.000149333
0.000209306
0.000180326
6.89268e-05
0.00014532
0.0616693
0.0308536
0.000149867
0.018468
0.00019709
0.000168622
0.000326915
0.000149044
0.0369939
0.000157181
0.000150697
0.000151939
0.000144837
0.000181802
0.000153591
0.000151404
0.000157627
0.0314734
0.0369199
0.00014955
0.000147702
0.000151881
0.000147926
0.000198193
0.000149427
0.000185186
0.000152704
0.0443027
0.000150944
0.0610954
0.000145365
0.0798542
0.000149495
0.000144715
0.0616671
0.000188051
0.000172848
0.000691642
0.000162753
0.000169525
0.000148033
0.0364338
0.000148114
0.000146674
0.000169753
0.000184909
0.0458685
0.0405893
0.000196372
0.0713056
0.000195069
0.000251785
0.000147668
0.000154744
0.00015928
0.0559733
0.000152959
0.0553869
0.0308025
0.000149391
0.000148296
0.000147965
0.000369578
0.000435827
0.00015225
0.000148443
0.000154256
0.00015753
0.000167456
0.000257474
0.000197254
0.000148046
0.000209395
0.000183385
0.022595
0.000183187
0.000151186
0.000152673
0.0764667
0.000146579
0.000186339
0.05903
0.000150112
0.000154427
0.00021027
0.000174734
0.000150157
0.0244389
0.000153572
0.000241218
0.000171855
0.000157932
0.000151003
0.0580749
0.000146433
0.000172815
0.000268576
0.0600472
0.000173518
0.000177198
0.000156629
0.000164152
0.000149711
0.0616536
0.000157832
0.000148261
0.000160455
0.000148278
0.000149742
0.000391655
0.000148132
0.000148985
0.000148125
0.000200836
0.000148979
0.000161153
0.000186217
0.000205274
0.000192601
0.00014961
0.000186539
0.000197539
0.000208814
0.000182873
0.00015547
0.00020534
0.0541115
0.000247983
0.000149869
0.0472676
0.0508271
0.000149864
0.000153127
0.000144727
0.00021977
0.000186875
0.000148719
0.000258556
0.0543952
0.000146035
0.000148867
0.0451789
0.033227
0.000185435
0.000144899
0.0423769
0.0373302
0.000492651
0.000147799
0.0575392
0.000191213
0.000168413
0.0505008
0.000156437
0.000144831
0.000160263
0.000202375
0.00016284
0.0497333
0.0639424
0.000146421
0.0647955
0.000202874
0.0369996
0.000145351
0.00016418
0.000149107
0.000147321
0.0609623
0.00433917
0.000238539
0.00736187
0.000157394
0.000174198
0.000150857
0.0635334
0.0228658
0.000148045
0.000148925
0.000158164
0.000147351
0.000176137
0.0646642
0.0769045
0.000174716
0.000149736
0.000149232
0.0607811
0.000153289
0.00017655
0.000146231
0.000150624
0.000252149
0.00594855
0.00012219
0.000370835
0.000148923
0.000239062
0.000152068
0.000164286
0.0827596
0.0203029
0.000148167
0.000149949
0.000167726
0.000153932
0.000148785
0.0654166
0.0559149
0.000146397
0.000143825
0.000149087
0.00014729
0.000340466
0.00014617
0.0469032
0.000191582
0.000184977
0.000147028
0.000167755
0.0667467
0.000164435
0.000199017
0.0478529
0.00014893
0.0269823
0.000158837
0.000159756
0.000193457
0.0276216
0.0364449
0.00018309
0.000146927
0.000193043
0.000146264
0.000153421
0.000148816
0.0454105
0.000158828
0.00187166
8.52935e-05
0.000173645
0.000148554
0.000214375
0.000157844
0.000149752
0.00018459
0.000144325
0.000170378
0.000163906
0.000148701
0.0769372
0.000151339
0.000209147
0.000150279
0.00014708
0.0549441
0.0481849
0.000152199
0.000158474
0.000170283
0.000172948
0.000181485
0.000157632
0.000154356
0.000155278
0.000202568
0.000153355
0.0459922
0.000167406
9.54751e-05
0.000199918
0.000150702
0.0674368
0.000144377
0.0592253
0.000152288
0.0548381
0.00452035
0.0254418
0.0376759
0.000239723
0.000169442
0.000148572
0.0628644
0.000170972
0.000148061
0.0221903
0.0632401
0.000151048
0.000153417
0.000159967
0.00016001
0.000163807
0.0351247
0.000149865
0.000162651
0.000166929
0.000159277
0.000148872
0.000190808
0.000144623
0.0479887
0.000151709
0.000195491
0.000161495
0.00016838
0.000185514
0.00421376
0.000183783
0.000146507
0.000190899
0.0609835
0.0669044
0.000150004
0.0453703
0.000159615
0.000300692
0.000148115
0.000152809
0.0534471
0.000179042
0.0279912
0.0264753
0.000159021
0.0737621
0.000147751
0.000144562
0.0228109
0.000165437
0.00015275
0.0743422
0.000156409
0.000163797
0.00015742
0.000178479
0.000148652
0.0505108
0.059744
0.00953395
0.000241102
0.000155255
0.000172971
0.0297989
0.000152281
0.000149123
0.000178352
0.000145222
0.000186898
0.049048
0.021811
0.0281681
0.000179698
0.000150229
0.0599276
0.000144361
0.000186601
0.000149461
0.0382672
0.000152109
0.000164915
0.0394994
0.000195055
0.000147749
0.000159221
0.0103925
0.000148335
0.00020381
0.000146314
0.0628615
0.0555053
0.00019698
0.000168522
0.00014715
0.000189422
0.000202568
0.000168052
0.00014634
0.000150457
0.000148717
0.000179295
0.000148549
0.000191063
0.00014855
0.000146566
0.0851724
0.00014715
0.000156362
0.00015583
0.00014979
0.0453683
0.000147036
0.000161296
0.056795
0.000177267
0.0432899
0.000148233
0.0602976
0.000178651
0.0736232
0.000151723
0.000200167
0.000149421
0.000169747
0.00019958
0.000197634
0.000218508
0.0543002
0.000211654
0.000400647
0.000155102
0.000196913
0.000163385
7.71198e-05
0.00015323
0.000149209
0.000148011
0.00017781
0.000165447
0.00155816
0.00017735
0.055632
0.0573345
0.000171685
0.000147929
0.00912614
0.000180728
0.000149545
0.000152182
0.000148269
0.047071
0.000148016
0.0174672
0.00014703
0.00015837
0.0380236
0.000171883
0.000147968
0.00014796
0.0254287
0.000147069
0.000152263
0.000155283
0.000160424
0.000157443
0.000148638
0.000206619
0.000168777
0.000163042
0.000229486
0.045297
0.0435057
0.0312092
0.000145476
0.000147704
0.000173319
0.000150229
0.000163621
0.044907
0.0430584
0.000144859
0.000148017
0.0420545
9.83306e-05
0.000145024
0.000146558
0.00015472
0.0568667
0.0525447
0.00015622
0.000161975
0.00014917
0.000250532
0.000200274
0.000175645
0.000158092
0.000163988
0.000149414
0.00016593
0.000237409
0.000150185
0.000148751
0.000155814
0.0601898
0.00015356
0.022966
0.000148422
0.0512148
0.000162228
0.000155938
0.000145789
0.000147001
0.000256296
0.0594661
0.000165271
0.0250589
0.0566415
0.000149665
0.0527603
0.000204899
0.000147477
0.0203835
9.41646e-05
0.000196914
0.000149611
0.0407319
0.0379682
0.000148239
0.000162954
0.0301576
0.000166988
0.000148171
0.000146444
0.000149498
0.000153464
0.000183791
0.000239118
0.00016843
0.000181376
0.000145566
0.000148744
0.0511916
0.000146796
0.000168959
0.00015469
0.000149465
0.000174215
0.000147794
0.000151806
0.00024902
0.000147548
0.0439347
0.000147777
0.00443426
0.0500293
0.000189159
0.000148878
0.000149939
0.059052
0.000144737
0.000152907
0.000149228
0.000207509
0.000505269
0.000163656
0.0490437
0.000162983
0.000172533
0.000149716
0.000184966
0.000147033
0.000148683
0.021557
0.0471443
0.000311975
0.000152199
0.000184262
0.000184638
0.0392469
0.057281
0.000244368
0.000166417
0.000144309
0.0508593
0.000147678
0.000147929
0.000238898
0.000197642
0.000156387
0.00018026
0.000164385
0.000159317
0.000157404
0.0761319
0.000153726
0.000147501
0.0208203
0.000164628
0.000145476
0.0356437
0.000147798
0.000148462
0.000206141
0.000188684
0.0394411
0.000145619
0.000153041
0.000147051
0.000318658
0.000146954
0.000204728
0.00982838
0.0469654
0.0331278
0.015067
0.000157319
0.0434106
0.000228022
0.000149251
0.000158146
0.000163032
0.000157537
0.000254153
0.0449144
0.0523426
0.0469477
0.000362459
0.00014862
0.000195174
0.000147852
0.0215289
0.000159224
0.000152236
0.000153116
0.000150319
0.000146983
0.000194628
0.0539415
0.000145352
0.000152235
0.000146433
0.0399291
0.000152021
0.0795573
0.0427894
0.000262702
0.000148329
0.000147061
0.0368448
0.000193478
0.000148677
0.000194294
0.000149403
0.000190011
0.000179716
0.000190382
0.000177207
0.0358411
0.000146234
0.000147141
0.000227229
0.0363128
0.000158834
0.000167158
0.000147364
0.0163718
0.000147737
0.00014718
0.000151256
0.000147777
0.00691729
0.0439666
0.000934323
0.000183496
0.0591193
0.000168967
0.000144863
0.000162659
0.000145255
0.000259679
0.000148378
0.000153162
0.000147701
0.000146957
0.000146639
0.000409058
0.000151511
0.000285177
0.000144975
0.000158486
0.000157616
0.000273209
0.000147952
0.000162582
0.000166998
0.000173477
0.0791782
0.000146939
0.0327381
0.000177483
0.000165138
0.000148594
0.000147243
0.0376005
0.00974358
0.000148462
0.000147431
0.000248656
0.0002384
0.000160785
0.0566526
0.000150183
2.76154e-05
0.000162967
0.000145272
0.0506783
0.000152212
0.0525714
0.000147985
0.00015023
0.000148532
0.0399418
0.0450522
0.000145018
0.000183048
0.000236149
0.00014801
0.000147282
0.000146967
0.000184899
0.0559516
0.00017623
0.00015481
0.000166957
0.000147823
0.000148148
0.000152432
0.000147589
0.000211888
0.000148229
0.000183978
0.000310847
0.000163996
0.000144457
0.0398811
0.000186035
0.000147894
0.000179527
0.000161768
0.00062985
0.000152607
0.0828207
0.000176108
0.00014786
0.000184511
0.000184813
0.000154161
0.0831729
0.000182534
0.000162754
0.000849831
0.000147525
0.00018758
0.00017001
0.000184136
0.000147109
0.000147695
0.000144701
0.000158724
0.000180214
0.000179386
0.0557235
0.0325527
0.0441158
0.000149723
0.000306271
0.051493
0.0623307
0.000147741
0.000148046
0.000177908
0.0562381
0.000152445
0.000166632
0.0116544
0.034271
0.00445111
0.000172708
0.000207114
0.0407193
0.000159991
0.000144646
0.00204037
0.00023432
0.000149261
0.000149759
0.000150319
0.0608625
0.000186878
0.0612961
0.000152553
0.0107699
0.000148549
0.000266715
0.0344246
0.000148826
0.000165305
0.0489796
0.0513433
0.00017517
0.000150754
0.000151791
0.000149346
0.00018811
0.000199853
0.000380078
0.0600598
0.000145864
0.0185399
0.000194102
0.000451099
0.00014776
0.000148875
0.00403558
0.000184884
0.000147574
0.000173116
0.000167965
0.000161091
0.0465522
0.0618922
0.0657314
0.0579375
0.000153895
0.000145232
0.000166933
0.0282167
0.0653486
0.000148033
0.000185762
0.000170084
0.000196875
0.000150677
0.000149637
0.000245267
0.00633908
0.0101211
0.000281289
0.0256621
0.000147269
0.000184494
0.0567177
0.000148908
0.000166297
0.000193011
0.000145125
0.000207325
0.0702425
0.000183104
0.000149628
0.0207673
0.000196927
0.0476785
0.000143684
0.000153282
0.000148591
0.000152541
0.000148477
0.000172015
0.00016304
0.000162755
0.000189345
0.000164996
0.0430288
0.000153514
0.000161782
0.00015711
0.021547
0.000165488
0.0336511
0.000156885
0.000155854
0.0110777
0.000170945
0.00014828
0.000163113
0.00915088
0.0652645
0.000240129
0.000147755
0.000147204
0.000147523
1.3059e-05
0.000150972
0.000341798
0.000265096
0.000184475
0.000160349
0.000215307
0.0288659
0.000148477
0.0672172
0.00016007
0.000164128
0.000147601
0.000147891
0.000175712
0.060403
0.000148171
0.0303084
0.000221644
0.000171264
0.00020221
0.000147062
0.000147747
0.000160987
0.000151782
0.0599731
0.0257289
0.000170973
0.000255306
0.000147669
0.000148372
0.00014874
0.000149543
0.0838343
0.000152042
0.0423628
0.000169868
0.000150775
0.000192753
0.000500113
0.0409966
0.021141
0.000152677
0.000146894
0.000148607
0.000153335
0.000221266
0.000183049
0.082456
0.000148802
0.000150226
0.000178167
0.000149665
0.000176605
0.000151648
0.00017673
0.000178192
0.000163014
0.000163112
0.000145609
0.000172536
0.000162529
0.00018327
0.000168731
0.000163446
0.000146506
0.000191297
0.000146998
0.000836846
0.0494719
0.000230874