/*--------------------------------*- C++ -*----------------------------------*\
| =========                 |                                                 |
| \\      /  F ield         | OpenFOAM: The Open Source CFD Toolbox           |
|  \\    /   O peration     | Version:  v2012                                 |
|   \\  /    A nd           | Website:  www.openfoam.com                      |
|    \\/     M anipulation  |                                                 |
\*---------------------------------------------------------------------------*/
FoamFile
{
    version     2.0;
    format      ascii;
    class       volScalarField;
    location    "200";
    object      nut;
}
// * * * * * * * * * * * * * * * * * * * * * * * * * * * * * * * * * * * * * //

dimensions      [0 2 -1 0 0 0 0];


internalField   nonuniform List<scalar> 
13917
(
0.000421161
0.00217906
0.0129945
0.0030127
0.00583364
3.64986e-05
0.0128037
0.00967828
0.0110393
0.000274078
0.0012511
0.00145134
0.0031271
0.00144224
0.000591218
0.000803678
0.00223604
0.000611627
0.00168096
0.00583252
0.00583583
0.0138084
0.00583303
0.0122185
0.0058389
0.0130822
0.000162735
0.00011071
3.13154e-05
0.00032132
0.000450659
0.000750618
0.000222285
0.000575757
0.00584073
0.000204537
0.00583309
0.0119116
0.00256993
0.00306269
0.00583915
0.00583625
0.00583154
7.3076e-05
0.00353143
0.000487675
0.000707774
0.0007262
5.44604e-05
0.00583038
0.00141956
0.00197155
6.26429e-05
0.000516578
0.00200789
0.00117017
0.00126669
0.00343599
0.00124907
0.00350816
0.00669677
0.00252282
0.000326281
0.00583234
3.72705e-05
0.00164435
0.00583372
0.00584221
0.000702707
0.000374567
0.0058333
0.0107143
0.0101897
0.00583757
4.78499e-05
0.00173878
0.00549939
0.00224238
0.013127
0.00583517
0.00583453
0.0058335
3.63798e-05
0.0131201
0.00957954
0.0024427
0.00583407
0.000721528
0.00145292
0.0058326
0.0117791
0.000294426
0.00532391
0.0011921
0.00109855
3.76752e-05
0.00102892
0.000738772
0.00143868
5.70297e-05
0.00583038
0.000255276
7.06982e-05
0.00215392
0.00583835
0.010632
4.20891e-05
0.000825541
0.00213418
0.000394216
0.011149
0.00381955
0.00166139
0.0131772
0.00121535
5.1318e-05
0.00583382
3.96808e-05
0.00513234
0.00052881
0.00583601
0.00093381
0.00639094
0.000131614
0.00583248
0.00130443
0.00337863
0.00583298
0.00582822
3.63367e-05
0.0118765
0.00117711
0.0033403
0.00583599
0.00110602
0.0115574
0.000418548
5.25731e-05
0.00583379
0.000554134
0.000414365
0.00585238
0.00150348
5.87321e-05
0.00555083
0.00884722
4.07974e-05
0.0018548
0.00584655
0.000628858
0.000980582
5.16809e-05
0.00145234
0.000293361
0.00091676
0.00370869
0.000428458
0.00127368
0.00330632
0.00138539
0.000796623
0.000159506
0.0058352
0.00102678
0.00175321
0.00146219
0.00216283
0.000900301
0.00475406
0.000255756
0.000277006
0.00382433
0.00153166
0.00164145
0.00802689
0.000246771
0.0126225
4.19947e-05
0.00932755
0.00523217
0.00029465
0.000445641
0.00585247
0.00583392
0.000414546
0.0125133
0.000339843
0.00349732
0.000748013
0.00152519
0.000144859
0.00959207
0.000263158
0.00583325
5.49788e-05
0.000162413
0.00559739
0.00499573
4.74055e-05
0.000209312
0.00193432
0.00583055
0.00103848
0.00115385
0.0081382
0.000647301
0.00583958
0.00364419
0.000772817
0.0123301
0.00165783
0.0133137
0.00427355
0.00154191
0.0058374
2.73009e-05
0.000839844
0.00481427
0.00583661
0.00733655
0.00577389
0.00037267
0.00583414
0.0126076
0.0109668
0.000751613
0.000197116
0.000926337
0.00583757
0.000233035
0.00161931
0.000797355
0.0111733
0.00261459
0.005829
0.000698875
0.0130932
0.00756781
0.00583501
0.00583102
0.00424511
0.000946531
0.00583573
0.000666938
0.000539495
0.000158255
0.000498309
0.00583502
0.00021036
0.00353583
0.0055444
0.000252597
4.85347e-05
0.00355314
0.00367802
0.00131255
0.0072668
0.00121699
0.000348158
0.000651664
0.00583583
0.00404077
0.00894638
0.000180209
0.00583651
0.00908283
0.00356427
0.00298109
0.0131457
0.00191746
0.00583476
0.00582997
0.000734548
0.0103562
0.000638224
0.00135165
0.000679404
0.00196322
0.00582659
0.00663081
0.00583201
0.00885395
0.00186329
0.00583556
0.000574847
0.000273221
0.000167752
0.000282804
0.000360274
0.00433077
0.000161623
0.0112441
0.00792947
0.00583619
0.00380472
0.00583364
0.00442082
0.00583349
3.26179e-05
0.00583137
0.000374931
0.000505425
0.00504869
0.00100146
0.00151782
5.29087e-05
0.00027221
0.000300761
0.00587111
0.0040187
0.0102186
0.00537961
0.00583392
0.00583216
0.00613316
0.00503346
0.0113556
0.00586684
0.0133649
0.00427908
0.000199121
0.00123162
4.94006e-05
0.00081969
0.0001691
3.45921e-05
0.000632539
0.000926412
4.91843e-05
0.00203077
0.011602
5.60789e-05
0.00497017
0.0006423
0.00304578
0.000650725
0.0124869
4.09236e-05
7.89039e-05
8.12323e-05
0.011365
0.00583471
0.00029355
0.0123638
0.00240869
0.00110697
0.0041891
4.37847e-05
0.00189196
0.000324764
3.09069e-05
0.00582956
0.00367552
8.38841e-05
0.00583183
0.00583381
0.00583379
0.00584689
0.000453262
0.00838535
3.23058e-05
0.0116969
0.00583579
0.00024916
0.00121913
0.000976364
0.0139274
0.0120062
0.0118859
0.00583072
0.000328122
0.00583387
0.00653252
0.00361523
4.78322e-05
0.000465157
0.00245473
0.00583433
0.000799417
0.000281565
0.000660861
1.40218e-05
0.0119855
0.00241425
0.000195806
0.000287767
0.00583087
0.00805872
0.0138426
0.00301832
0.000228142
0.00583513
0.000718148
0.00477295
0.00583492
0.00138972
0.0123638
0.00143308
0.00882201
0.00179664
0.00137536
3.35909e-05
0.00213806
3.13115e-05
3.15372e-05
0.00583245
4.43353e-05
0.00247936
0.00583731
0.000348127
0.00583557
0.00583899
0.00583374
0.000668101
0.0058354
0.00421301
0.0106065
0.00097889
0.00028728
0.0108417
0.00491761
0.00109729
0.00583491
0.000455084
0.00255331
0.000661278
0.00583334
0.0090557
0.0120521
0.0102515
0.000731241
0.000520862
0.000727719
0.00254042
0.000660275
0.00143763
0.000360565
0.00217221
0.00583172
0.0127604
0.012192
0.0127958
0.00019424
0.000547729
0.0128631
0.0132795
0.00527471
0.00582787
0.000758816
0.00142043
0.00300184
0.000378657
0.000738247
0.00591387
0.000496781
0.00103049
0.00496469
0.00583249
0.000892512
0.000767245
0.000310072
0.00638131
0.00583557
0.00331644
0.00598593
0.00039917
0.00583069
0.0113587
3.50237e-05
0.000401952
0.00700462
0.00118534
0.0011541
0.0140087
3.37044e-05
0.00141465
0.00028894
0.000914306
0.000440349
0.000492899
0.00142746
0.00126207
3.97826e-05
0.00162953
0.000789813
0.00587536
0.000808102
0.00130615
0.00586333
0.00042762
0.00235761
0.00580519
0.0113724
0.00585378
0.00583136
0.0109549
0.00284422
0.00583556
0.00400768
0.00292059
0.000264185
0.00562997
0.00726043
0.000525054
0.00071126
0.00224621
0.011862
0.000257981
0.00175063
0.00583579
0.00451962
5.21989e-05
0.00636111
0.00586441
0.00905841
0.0111834
0.00124964
0.00583385
0.00213593
0.00196532
0.000471271
0.00590099
0.00583286
0.0058294
0.0058294
0.00707973
0.000506872
0.00122626
0.000341615
0.00583921
0.00583006
0.000531677
0.01459
0.000769093
0.00425758
0.00583677
0.00583609
0.0071265
0.00939867
0.00583388
0.00583641
0.000401033
0.00147563
0.00128557
0.00306284
0.00130354
0.000715829
0.000853728
5.05301e-05
0.000433491
0.000467016
0.000624623
0.000491751
0.000307893
0.0058357
0.00495218
0.0058358
0.000975641
0.00217392
0.000885758
0.000119357
0.00583169
0.00031464
0.000317822
0.000366359
0.000623994
0.000223967
0.0011045
0.00583395
0.0123139
0.000247033
0.0146061
0.00238321
0.00101275
0.000435306
0.0125792
0.000377137
0.000722755
0.000190536
0.000736675
0.0012904
0.00320799
0.000126456
6.86217e-05
0.0025656
0.000868539
5.01371e-05
0.0145611
0.00229737
0.00106746
0.00108585
0.000471813
0.000599183
0.00163321
3.00453e-05
0.00939134
0.0104338
0.00032401
0.00582895
0.00460718
0.00173988
0.0058381
0.000725626
0.00103271
0.000231597
0.000333996
0.013247
0.000496556
0.00147692
0.0120149
0.00191838
0.00354917
0.00583522
0.00583375
0.00428682
0.010903
3.50162e-05
0.00194741
0.00164196
0.00583591
0.00188469
5.42709e-05
0.00152153
0.00122917
0.00150243
0.00081866
0.00532445
0.000175048
0.00155678
0.000371093
0.00583794
0.000500893
0.00213729
0.00143025
0.000298953
0.000126303
0.000908704
0.00582898
0.0058558
0.0032178
7.91243e-05
0.000371007
0.000656055
1.48602e-05
0.000930972
0.00582947
0.000466322
3.09078e-05
0.000438666
0.00559215
0.000475172
0.00583288
0.00202086
0.00124505
0.0135806
0.00583499
0.000133162
0.00203346
0.00126211
0.000270141
0.0100514
0.000131464
0.00226755
0.00924087
0.000624502
0.00326214
0.00239032
0.00105915
0.000293256
0.00068386
0.00583492
0.00231361
0.000153429
0.00250217
0.000606585
0.0013813
0.00585736
0.00113348
0.0121074
0.00591786
0.00347751
0.00582973
0.00482178
0.0058358
0.000797621
0.00457381
0.0010953
0.00886842
0.000929208
0.000200268
0.00582967
0.000201695
0.00583332
0.000442776
0.00582889
0.000153969
0.00322086
0.000663682
1.69834e-05
0.0144981
0.00595112
0.00583427
0.000319995
0.000422707
0.00650811
0.0138577
0.00067803
0.00583844
0.000668002
3.25472e-05
0.000413766
0.000441598
0.000776512
0.0125357
0.000415582
0.00204971
0.000394349
5.36203e-05
0.000664602
3.18422e-05
0.000628627
0.00272334
0.00106522
0.000586063
0.00588142
0.00205736
0.000397726
0.000647745
0.00583375
0.00583279
0.000874084
0.00233701
0.000539674
0.00583767
0.00583505
0.00583595
0.00135448
0.00583685
0.000921253
0.00583007
0.00677704
0.00158325
3.75959e-05
0.00583008
0.00583541
0.000130983
0.000463874
0.0013276
0.0086392
0.000216108
0.00484973
0.00201084
0.000512467
0.00296252
0.0058359
0.00582916
0.00139314
0.0024778
0.00583556
0.00167411
0.000818438
0.0016397
0.000167425
0.000212451
0.00128201
0.00583689
0.00583636
0.0016949
0.00561464
0.00172815
0.00684252
0.00157027
0.0058338
0.000941499
0.00583058
0.00583666
0.000708976
0.000401742
0.00420936
0.00051368
0.0059182
0.00583563
0.0136475
8.98538e-05
0.00230694
0.00259209
0.00741462
0.000629568
0.00266801
0.000246213
0.002729
0.00582917
0.00583428
0.00160614
0.000469132
0.000929438
0.000584259
0.0104696
0.00232941
0.000934536
0.00205848
0.00583539
0.00142833
0.00386205
0.00583142
0.000401489
0.000147364
0.00248627
0.0106515
0.00584351
0.000282728
0.00583619
0.0058437
0.00155539
0.00196764
0.00583556
0.000369115
0.00584207
0.000431658
0.00590186
0.00588832
0.000294829
0.00418763
0.00465505
0.000517172
0.00583592
0.00583231
0.00349064
0.00584153
0.00350769
2.43798e-05
0.00591188
0.00586995
0.0125347
0.0086313
0.00163572
0.000392965
0.000673509
0.00148153
0.00585333
0.000399315
0.00720802
0.00014316
0.00583366
0.00259658
0.0131372
0.000934089
0.0129383
0.0058358
0.00121956
0.0036711
0.00105068
0.00243205
0.00217895
4.06897e-05
0.00584077
0.00040433
0.00582917
0.0041738
0.00583048
0.0105582
0.00583605
0.00593073
0.00585348
0.00613622
0.00252438
0.000249672
8.82318e-05
0.00589202
0.000253383
0.00583379
0.0120257
0.00583159
0.00573786
0.00583384
0.00152676
0.00583365
0.000517108
0.00355942
0.0102692
0.000474712
0.000243134
0.00616922
0.00413366
0.00310424
0.00687302
0.00768608
0.0108573
0.0137091
0.000228928
0.000412706
0.00223744
0.0132974
0.00107803
0.0140166
0.00586065
0.00539343
0.00248032
0.00583367
0.00143658
0.000301682
0.00703845
0.005586
0.00583512
0.00175956
5.6527e-05
0.00362321
0.000220558
0.000847096
0.00311767
2.32717e-05
0.000163734
0.000864457
0.00296993
0.00362378
0.00306628
4.01842e-05
0.00589648
0.000295404
0.000334182
0.00742348
0.01129
0.00161663
0.0052032
0.00284693
0.00226949
0.00583348
0.00136753
0.00582622
0.000763614
0.000372669
0.00736989
0.000753118
0.00592777
0.000523253
0.0135677
0.000412167
0.00196094
0.00424497
0.00510178
0.00190967
0.000191795
0.00648912
0.00583362
0.00583928
0.0136078
0.000340574
0.0002676
0.000643204
0.000354746
0.00583847
0.000484904
0.00194275
0.00583221
0.00191681
0.0128641
0.00450358
0.00587368
0.00583308
0.00360388
0.000969207
0.00163617
0.000992254
0.0058411
0.00196457
0.000500463
0.00589714
0.000448579
9.29559e-05
0.0129233
0.00366741
0.00014447
0.000985336
0.00909539
0.0131541
0.00583808
0.0098645
0.000666745
4.00015e-05
0.00583367
0.012489
0.00583512
0.00110517
0.000386979
0.00063139
0.0119196
0.000268074
0.0011222
0.00945949
0.00582901
0.000762102
0.00588801
0.000620484
0.0132069
0.00284541
0.00583537
0.00176218
0.00305867
0.00777765
0.00583437
0.00583293
0.00117483
0.000448316
0.00094926
3.40097e-05
0.00145172
0.00244518
0.00184208
0.000843125
0.00197025
0.00790282
0.00151448
0.0045416
0.013528
0.00187979
0.00590139
0.0107802
0.000379598
0.00191793
0.000482127
0.000748653
0.00392822
0.0014723
0.00276163
0.000380723
0.00583638
0.000820227
5.4753e-05
0.00583359
0.000500482
0.00588116
0.000150963
0.00582931
0.00051304
0.00073852
0.00225336
0.00394839
0.00587419
2.74967e-05
0.000253636
0.00819913
0.00583979
0.00261903
0.000896264
0.00402863
0.000404663
0.000256025
0.00456904
0.000533363
0.00587721
0.00746753
0.00207439
0.00163675
0.00528077
0.000771107
0.0058388
0.00111482
0.00255499
0.00583223
0.0058329
0.00858815
0.0120827
0.00074396
0.00119281
0.00583231
0.00400754
0.0125245
0.00160302
0.0058372
0.000544882
0.00588721
0.000589816
0.00583444
0.00583596
0.00242845
0.00143162
0.00944595
0.00258018
0.00203472
0.00583808
0.000636148
0.00583112
3.45453e-05
0.000509014
0.00583578
0.00859632
0.000186745
0.000692166
0.013436
3.28542e-05
0.00587012
0.00200714
0.00323754
3.55044e-05
0.000565921
0.0093284
0.00551985
0.000858503
0.0141924
4.40972e-05
0.000869388
0.00133017
0.00014316
3.63919e-05
0.0111135
0.000121161
0.000375551
0.0137581
0.00156155
0.000761428
0.00842548
0.00010251
0.00586233
0.00205415
0.00564307
0.000329845
0.00585236
0.000191196
0.000395806
0.00044964
0.00848069
0.00112788
0.00906766
0.00196683
0.000435011
0.00048795
0.000299294
0.000894366
0.005873
0.00169443
0.0105108
0.0058336
0.000788388
0.0058566
0.00133398
0.00534052
0.00025088
0.00128035
4.14878e-05
0.000163973
9.74833e-05
0.00968295
5.22355e-05
0.00538381
0.000924136
0.0117953
0.00584422
0.00583296
0.000891062
0.00339658
0.00583539
0.000567627
7.37163e-05
0.000277493
0.00367766
0.00299123
0.00589337
0.000505069
0.000282909
0.00582998
0.000689151
0.0126523
0.000225491
0.000372108
0.00141158
0.000463084
0.00116572
0.00146404
0.0095285
0.000825601
0.0016142
2.14533e-05
0.000746046
0.00583607
0.00498473
0.00284384
0.0052268
0.00139419
0.000219106
0.00583873
0.00127294
0.00583051
0.000909254
0.00588264
0.000220674
0.00152592
0.000378482
0.00437944
0.000262065
0.00501294
0.0089702
0.00583583
0.000573431
0.00583355
0.000864659
0.00855608
0.00136433
0.00583993
0.000808555
0.0035415
0.000652709
0.0117415
0.00438798
0.00181574
0.000471607
0.000745062
0.0140844
0.00583932
0.000445534
0.00306088
0.00583365
0.000298544
0.00187529
0.00582925
0.000909922
0.00448827
0.0011373
0.000595493
0.00911413
0.000645257
0.01029
0.0012086
0.00582939
0.00037375
0.00289568
0.00300879
0.000337522
0.00127671
0.000506635
0.00584068
0.000611817
0.000496355
0.000572891
0.00584435
0.00583187
0.00116307
0.00172727
0.00583625
0.000239926
0.00585841
0.000727127
0.000758742
0.00119598
3.86972e-05
0.0135224
0.00244705
0.00132295
0.00317545
0.00215125
0.00146461
3.60201e-05
0.00332252
0.000797468
0.00560533
0.000983312
0.000444387
0.000627736
0.00586655
0.00583561
0.00583139
0.00327901
0.000442441
0.0058867
0.00084366
0.00163581
0.00180072
0.000284393
0.0105039
0.000336315
0.00175668
0.0129567
0.00242346
0.00409741
0.00232031
0.000120686
0.00584048
0.00419935
0.00481337
0.00336192
0.00303424
0.0121388
0.000344218
0.00227853
0.00583046
0.00588909
0.0144807
0.00257725
0.000147157
0.000924574
0.00583566
0.000568281
0.000708003
0.00583264
0.00583056
0.0129712
0.00554135
0.00266071
0.00186553
0.00325122
0.000728905
0.000213549
0.00478427
0.00137547
3.09975e-05
0.00363003
0.000363887
0.000949204
0.00287709
0.00154817
4.79788e-05
0.000364028
0.00583475
0.0013132
0.0113135
0.000967363
0.000134414
0.0124061
3.97244e-05
3.95886e-05
0.000585664
0.00217679
0.00583517
0.00583593
0.0032848
0.000877295
0.00222014
0.00280669
0.00136899
0.00583595
0.00429634
0.0058422
0.00134405
0.00176124
0.00837551
0.000161651
0.00172151
0.00961861
0.000407451
0.000810952
0.00583037
0.000497241
0.00294036
0.00264475
0.00120984
0.000924897
0.000696934
0.000106942
0.0114554
0.000401674
0.00515519
0.010813
0.0058319
0.00308235
0.000173775
0.00583592
0.00549632
0.000819341
0.00905533
0.00588705
0.0102435
0.00267205
0.00586944
0.00126579
3.42942e-05
0.000650676
0.00251179
0.00597948
0.0016005
0.000807056
0.0122662
0.00583519
0.000135611
0.00583033
0.00339206
0.000578917
0.00584369
0.0119961
0.000779678
7.66332e-05
0.00583612
0.00417154
0.000394293
3.48767e-05
0.0031611
9.23377e-05
0.00419852
0.00586916
2.59567e-05
0.0027414
0.000452608
0.000108426
0.00583516
0.00694325
0.0010489
0.000727807
0.000537593
6.66754e-05
0.000237969
0.000190549
0.00161092
0.0124241
0.00035857
0.00284264
0.000365737
0.00128768
0.00390143
0.000467912
0.00380012
0.0018355
0.0111699
0.0017089
0.00584744
5.14956e-05
0.00235232
0.00442936
0.00237521
0.0110374
0.000398961
0.000467955
0.00583355
0.00583355
0.00583475
0.00582872
0.000486713
0.000145944
0.000181097
0.000867767
0.00583189
0.000929156
0.00223054
0.00050568
0.00192341
0.00442909
0.00113538
0.000900172
0.0020312
3.98059e-05
0.00959291
0.000149416
0.0103216
0.00297611
0.00584148
8.7155e-05
0.0063752
3.7015e-05
0.00583373
0.00220343
0.00128229
0.0127223
0.00420952
0.000341819
0.00426852
0.000154383
0.000860096
0.0118362
0.000576057
0.00118048
0.00100567
0.00103798
0.000261984
0.00166072
0.00583361
0.000374937
0.00810486
0.00583356
0.00196524
0.00583549
0.00412899
0.00735034
0.0127304
0.00582984
0.00397283
0.00209192
0.00588501
0.00023325
0.000705753
0.00341789
0.0058318
0.0058324
0.00168534
0.000793331
0.000758335
0.000359665
0.00584197
0.0134539
0.00216805
0.0149081
5.35442e-05
0.000515811
0.000167798
0.000987334
0.0131328
0.000844243
0.00146319
0.0018447
0.0108958
0.0100913
0.00582922
0.00583342
0.000301318
0.0125044
0.00699015
0.0058962
0.00338456
0.0123611
0.000439743
0.00139017
0.00121442
0.000793184
4.34447e-05
0.00228183
0.013558
0.00428102
0.0006525
0.000116268
0.00356941
0.00584016
0.00582902
0.000523867
0.008788
0.00125361
0.00190639
0.00140514
0.000140959
0.00338624
0.00149785
0.0083843
0.00274704
0.00486528
4.02733e-05
0.00583553
0.00583366
0.0102357
0.00583234
0.00586043
0.00124035
4.99378e-05
0.00084145
0.00362212
0.000372627
0.00583469
0.013416
0.000539611
0.00531985
0.00272826
4.65714e-05
0.000608004
0.00416942
0.00103255
0.0135989
0.00583386
0.00877466
0.00412065
0.00909937
0.000101039
0.00022556
0.00565918
0.00227662
0.000182494
0.00121671
0.00971416
0.000562647
0.000268326
0.000677082
0.00118885
0.000398626
0.00452316
0.00139888
0.0121043
0.00289556
0.0058359
0.0044845
0.00106309
0.00313155
0.000692095
0.00583422
0.000579322
0.0020621
4.45281e-05
0.000143259
0.00573401
0.00582906
7.08764e-05
0.00282677
0.000795845
0.00113797
0.000507317
0.00418119
0.0018638
0.00150879
0.00219601
0.00745453
0.0130797
0.00583166
0.00582883
0.00205194
0.0015348
0.00583494
0.0019744
0.0007097
0.000948924
8.35413e-05
0.005864
0.0138687
0.00752401
0.00583615
0.00206805
0.00115721
0.00164546
4.21666e-05
0.00210255
0.00725445
0.000397904
0.0011059
0.000832879
0.00583193
0.000791299
0.00552003
0.00330003
0.000300111
0.00885923
0.0101418
0.00583535
0.00583098
0.00144195
0.00372866
0.000436036
0.00160458
0.000423227
0.00209924
0.0107076
0.00316535
0.0145362
0.00583288
0.0128614
0.00243008
0.00583228
0.00867951
3.34361e-05
6.08414e-05
0.000599608
0.000147142
0.000856266
0.00584084
0.00704054
0.00583622
0.00583481
6.64786e-05
0.00168093
0.00394644
0.00904247
0.000487417
0.0100367
0.000379248
0.000297909
0.00590954
0.00137827
0.001453
0.0134995
0.000658751
0.0129774
0.00682329
0.00390234
0.0035369
0.00347717
0.00021818
4.08908e-05
0.00197078
0.00583343
0.000657633
0.0008059
0.000890469
0.000630656
7.59281e-05
0.0058315
3.13582e-05
0.000360641
0.00265268
0.000593337
0.00120562
0.00141183
0.014125
0.00582882
0.000416885
0.0115855
0.00144261
0.000906554
0.000682462
5.09909e-05
0.00133183
0.00375998
0.00136818
0.000765717
0.00196411
0.000386598
0.00266966
0.0131766
0.00583096
9.07244e-05
4.20736e-05
0.0124671
0.000599769
0.000351564
0.00189542
0.000145409
0.00583567
0.0123076
0.00152257
0.00442544
0.000973942
0.00583212
0.0058358
4.42493e-05
0.00583444
0.00583337
0.00319488
0.00100396
0.00211201
0.000511317
0.0010559
0.000260212
0.000376958
0.00583537
5.96227e-05
3.17194e-05
0.000337122
0.000358671
0.000437744
0.000599792
0.00933812
0.000348273
0.00583617
0.00614957
0.0110926
0.00583615
0.00139186
0.00583021
3.68067e-05
0.000295973
0.00417854
3.91021e-05
0.0129566
0.00583086
0.00217282
0.0117499
0.00793939
0.00172122
0.00583406
0.00375139
0.011234
4.87035e-05
0.00583349
0.013824
0.00169866
9.25334e-05
0.0114455
0.00123742
0.00583075
0.000897326
0.00030283
0.00101668
0.0124546
0.0141425
0.00584778
0.00887169
3.61611e-05
0.00805381
0.00583341
0.000114131
0.00202335
0.00547104
0.0147476
0.00144251
0.000773995
0.00192258
0.00044435
0.000613285
0.00591974
0.0135569
0.00384941
0.00583985
0.00251413
0.000270948
0.00590718
0.000848677
0.0145419
0.00878259
0.000622438
0.00234554
0.00435675
0.0146643
0.000648699
0.00075697
0.0058463
0.00128445
0.000317531
0.00177353
0.000342697
2.77975e-05
0.00583359
0.000732106
0.00594774
0.000155842
0.0073463
0.00295235
0.00583424
0.00583643
0.00164385
0.00056271
0.00232483
0.0147237
0.0133899
0.00586451
0.00583909
0.00583393
0.00583121
2.39244e-05
0.00587325
0.0119618
0.000455177
0.00175917
0.00559574
0.000310477
0.0143018
0.00100811
4.30923e-05
0.00822869
0.00198337
0.00378306
0.000255613
0.00020863
4.66417e-05
0.00380788
0.00781608
0.00172514
0.00584159
9.08666e-05
0.00587386
0.000603662
0.00216862
0.010239
0.000319695
0.00110824
0.000247681
0.000645956
0.00583323
0.000290401
0.00126647
0.00583583
3.93218e-05
0.00582821
0.00193567
0.000844987
0.00238584
0.00787089
0.00115196
3.64714e-05
0.00128185
0.00583339
0.00994853
0.0130612
0.000750059
0.000250963
0.00148259
0.000344597
0.00137013
0.00198006
0.000595673
0.00143477
0.000851877
0.000617801
0.0105646
0.000134235
0.000316469
0.00159913
0.00283705
0.0148167
0.00582644
0.0121964
0.000758317
0.0126034
0.000719527
0.00275797
0.0048496
0.000713555
9.14027e-05
0.00434317
0.0147218
8.53467e-05
0.00550654
0.00278238
0.00894667
0.00103377
0.00224967
0.000590365
0.000669458
0.00117926
0.00672107
0.00583613
0.00192851
0.00151224
0.000377738
0.00583353
0.00132719
0.00583959
0.010554
0.000911953
0.000365057
0.000741918
0.000786573
0.000201374
0.00122442
0.000343224
0.00584577
8.24812e-05
0.0143231
0.00296915
0.00334517
0.00971847
0.00100542
4.28342e-05
0.00583625
0.000785459
0.0139172
0.00166698
0.00551547
0.00356554
0.000240394
0.014374
0.00351441
0.00584079
0.0025502
8.96765e-05
0.000829117
0.0126063
0.000808743
0.000162738
0.000415282
0.000340077
0.00275508
0.00793993
0.00934383
0.0013444
0.000772827
0.00120975
0.000321798
0.00589873
0.000875112
0.00202602
0.000234666
0.00583819
3.49183e-05
0.00564066
0.00340732
0.00526019
0.00121152
0.00318747
0.0142974
0.00583109
0.00118049
0.00583516
0.00160177
0.00113289
0.000165366
0.0105243
0.000485045
0.00583098
0.000358237
0.00116153
0.00346422
0.000799843
0.00585514
0.0065961
0.0129449
0.000878591
7.23064e-05
0.00583053
0.00062995
0.00138441
0.000758221
0.0058545
0.00335657
0.00583287
0.0011864
0.00583341
0.00143913
0.0028093
0.00586631
0.0120612
0.00535102
0.000865323
0.00194485
0.00583603
0.0124276
0.00555625
0.000418859
0.0141483
0.00171327
0.010635
0.00356164
0.0133936
0.00171941
0.0131722
0.00116645
0.00122612
0.00434534
0.00083558
0.00137118
0.00146772
0.000359856
0.0131272
0.000324463
0.000202418
0.000536111
0.0012811
0.000213703
8.75751e-05
0.000648214
0.00446903
0.00459157
0.00113212
0.000197835
0.000627543
0.000830978
0.0104251
0.00835791
6.03585e-05
0.0035563
0.00203219
4.2326e-05
0.00167049
0.000772932
0.00308815
0.00863857
0.00499781
0.00211827
0.00563448
0.00151453
0.00771032
0.000127053
0.00583622
0.00492773
0.00323367
0.00555929
0.000897589
0.00144417
0.000444197
0.000828818
0.00247374
0.00126887
6.93293e-05
0.000164935
0.000599043
0.0102006
0.0119209
0.0050474
0.00583243
0.00498059
7.28455e-05
0.00306244
0.000152654
0.0099412
0.0113998
0.00583338
0.00583972
0.0122691
0.000250666
0.00583534
0.00584789
0.000488775
0.00435944
0.0129796
0.000932461
0.000485371
0.00583455
0.000625636
0.00138334
5.19545e-05
0.00027396
0.000193967
0.00177074
0.000592587
0.000709777
0.00135531
0.00329449
0.000915554
0.0127196
0.000724999
0.00311527
0.00583322
0.0134319
0.000311242
0.000394014
0.00583085
0.0058335
0.000272472
0.00756453
0.00010124
0.00586906
0.00544582
0.00148626
0.013135
0.00134821
0.00587753
0.00439424
0.000258259
0.000740661
0.00583539
0.0115761
0.00836874
0.00484696
0.000252364
0.00700047
0.000322259
0.00321901
0.00586246
0.00237664
0.00193481
0.000394297
0.000746443
7.26197e-05
0.000357526
0.00584518
0.00240955
0.00953932
0.00585941
0.000351616
0.000479793
0.00480032
0.000601065
0.005834
0.000941177
0.000683004
0.00583163
0.00976116
0.00583519
0.000292777
0.0136203
0.00045044
0.00234215
0.00583639
0.0140126
0.00583151
0.00114781
0.00190399
0.000150609
0.000237023
0.000773088
0.0133463
0.000195333
0.000130829
0.00147028
0.00102727
0.00589375
0.00583361
0.00423592
0.0126519
0.000207871
0.00124087
0.000863324
0.000913222
0.0082032
0.0140398
0.000711302
0.000526273
0.00583034
0.0122162
0.00467296
0.00399962
0.000750437
0.00137307
0.000423521
4.24309e-05
0.000171513
0.000422195
0.000814851
0.0144381
0.00141279
0.00583162
0.00304646
0.000151464
0.00584163
0.0101649
0.00583099
0.00583344
0.000584175
0.000165725
0.00325219
0.00584198
0.000678203
0.00584103
3.54055e-05
0.0058573
3.51869e-05
0.00238228
0.0130191
0.00947417
0.000453254
0.000315299
0.00969244
3.72194e-05
0.0058346
0.000378475
0.000169504
0.00032217
4.06e-05
0.0108261
0.0117616
0.0131226
5.26806e-05
0.00235806
0.00105429
0.0058308
0.0044244
0.00104606
0.00282958
0.00137582
0.00205057
0.0058524
0.000752708
0.0121215
0.00583116
0.00142706
0.00582877
0.00872964
0.00151197
0.0135885
0.010219
0.000186284
0.00583379
0.00585376
0.00828318
3.74222e-05
0.00583358
6.87652e-05
0.00583501
0.000209085
4.60022e-05
0.000534866
0.00101407
0.0033403
0.00584685
0.00589863
0.000965793
0.0107353
0.000722296
0.000257212
0.00555415
0.00192133
0.00583735
0.0058319
0.00163995
0.00462976
0.0013269
0.0108673
0.000582243
0.00175919
0.0139688
0.000333656
0.00583121
0.00121549
0.00583634
4.02354e-05
0.00427454
0.000762804
0.00584292
0.00583308
0.00587822
9.72189e-05
0.00324161
3.33697e-05
0.0058643
0.000256262
0.00604831
3.97245e-05
0.00583314
0.00104928
0.00158109
0.000203559
0.0101924
0.00583384
0.00767312
0.000326657
0.000204276
0.00592473
0.00583726
0.0105975
0.000601285
0.00434841
0.00485408
0.000837623
0.000920561
0.000179267
0.0143893
0.00136684
6.29018e-05
0.00124594
0.00583356
0.00879144
0.00335343
0.0133857
0.00507278
0.00191752
0.00583345
0.00936783
0.0125332
0.00583333
3.8943e-05
0.000918616
0.00583113
0.00511825
0.00584385
4.05397e-05
0.0139483
0.000341296
0.0024464
0.000569818
0.00583321
0.00337641
0.00149304
0.00583151
0.000652018
0.00338694
0.00149144
0.000317009
0.000561427
0.00582692
0.009185
0.000906437
0.00583315
0.000262431
0.00109957
0.000450961
0.000666419
0.0065988
0.000486026
0.0036353
0.000354867
0.000371603
0.00135281
0.0131454
0.00146051
0.00214502
0.00046885
0.00483254
0.000159788
6.92783e-05
0.000166097
0.00583298
0.00443988
0.00583097
0.000251532
0.00137237
0.00125683
0.00842766
0.00698594
0.0103639
0.00583584
4.43334e-05
0.0137766
0.0147722
0.00555791
0.0032292
0.00092843
0.013387
0.00085019
0.00123873
0.00035871
0.00677677
0.00026373
5.69817e-05
0.000559825
0.0119262
0.000163884
0.00584104
0.000171264
0.000780204
0.002489
0.00315329
0.00144588
0.0129847
0.00034894
0.00830175
0.00116437
0.00120497
0.00294989
0.000199791
0.00892067
0.00232237
0.00108848
0.011482
0.00933209
0.000449879
0.00190589
0.000968038
0.00174786
7.74168e-05
0.0015353
0.000131162
0.0145514
0.00584821
0.003483
0.000217002
0.00032199
0.00583067
0.00583346
0.00157231
3.89079e-05
0.00477334
0.000503981
7.77371e-05
0.000174842
0.0103308
0.0133954
0.014021
0.0140675
0.000649327
0.00585082
8.44065e-05
0.00619563
0.00641037
0.00456859
3.5663e-05
5.84137e-05
3.25094e-05
0.00401635
0.00583563
2.90187e-05
0.00158105
0.00139705
3.30197e-05
0.00602358
0.00583404
4.24422e-05
0.0138124
0.00225734
9.10651e-05
0.000529463
0.00583521
0.000671643
0.0133418
3.92083e-05
0.00583559
0.00392623
0.000631821
0.00175014
0.00583174
0.00241619
0.00247722
0.00321929
0.00250094
0.00033271
0.000238793
0.000182525
3.51945e-05
0.00119751
0.0102118
0.000633796
0.00211546
0.000652721
0.00235722
0.00010003
0.00669734
0.000585501
0.000418209
0.000574778
5.86219e-05
0.00336491
0.000191023
0.00231496
0.0099692
0.000653462
0.00395229
0.00545963
0.00445713
1.47471e-05
0.00121053
4.11234e-05
3.95294e-05
3.89505e-05
0.00054021
0.000324862
0.00513198
0.00266948
0.00882144
0.000347983
0.000122036
0.00409579
0.00482561
0.000582436
0.0138427
0.00583149
0.00608693
0.00014996
6.74639e-05
0.000289682
0.00560464
0.00583202
0.00103024
0.0030594
0.00236609
0.00103947
9.21483e-05
0.00022191
0.0040942
0.00304152
0.00278463
0.00583515
0.00983039
0.00215838
0.00932087
6.82156e-05
0.00421183
3.66961e-05
0.000171233
0.0117543
0.00243866
0.00201968
0.00589297
0.00583364
0.0028891
3.88922e-05
3.83663e-05
0.0127674
0.00583368
0.00327661
5.27438e-05
0.00583552
0.000357093
0.000877888
4.70891e-05
4.57129e-05
0.000214558
0.000255451
0.00584398
0.000622583
0.000283371
5.5274e-05
6.83976e-05
0.000215395
0.00583106
8.68148e-05
0.00585003
0.000236666
0.013458
3.83942e-05
0.00320615
6.61809e-05
0.00340252
0.000767209
0.0018793
0.00330417
0.000383935
0.00247799
0.0131481
7.32023e-05
0.00021845
7.20917e-05
0.000194174
0.0112942
0.0138609
0.000444702
0.0124738
0.000122107
0.00585583
0.000110555
0.0144627
6.58824e-05
0.00583514
0.000498233
3.50495e-05
0.00048415
0.00275967
0.00311646
4.42521e-05
0.00583415
0.00584776
0.00163759
8.47038e-05
0.00583568
0.00676872
0.0121799
0.0003087
0.00710037
3.72036e-05
0.0135692
0.000415956
0.00584044
0.00112457
0.00585554
0.00016157
0.000745158
0.000428942
0.000788322
0.000246206
0.00586018
0.0129951
0.00106348
0.000521567
0.0136567
5.51783e-05
0.00559925
0.0143335
0.00444382
0.00282214
0.00583346
0.000405939
0.00013816
0.0139436
0.00120922
0.000427359
0.00310623