/*--------------------------------*- C++ -*----------------------------------*\
| =========                 |                                                 |
| \\      /  F ield         | OpenFOAM: The Open Source CFD Toolbox           |
|  \\    /   O peration     | Version:  v2012                                 |
|   \\  /    A nd           | Website:  www.openfoam.com                      |
|    \\/     M anipulation  |                                                 |
\*---------------------------------------------------------------------------*/
FoamFile
{
    version     2.0;
    format      ascii;
    class       volScalarField;
    location    "200";
    object      omega;
}
// * * * * * * * * * * * * * * * * * * * * * * * * * * * * * * * * * * * * * //

dimensions      [0 0 -1 0 0 0 0];


internalField   nonuniform List<scalar> 
13917
(
0.0445068
0.0253826
4.72649
0.0265954
0.0254427
0.486316
4.36151
4.91927
5.69783
0.0727323
0.164838
0.0702009
0.0266662
11.2549
0.0294089
0.0281812
0.0255006
0.0577467
0.0689265
0.0254521
0.0256557
4.27695
0.0254244
4.93934
0.0253022
4.12341
0.0462495
0.0601206
0.815815
0.110121
0.0472803
0.0310576
0.0402883
0.0288227
0.0253209
0.962483
0.025436
3.85052
0.0283618
6.32863
0.0251591
0.025681
0.0247357
0.0915393
0.0252437
0.0307503
0.0568198
0.0749623
2.85933
0.0253269
0.0298708
0.0255753
3.29913
0.0292393
0.0255141
0.029888
0.162531
0.0252865
0.0280543
0.0252063
10.1803
0.0253834
23.6017
0.0254368
0.449096
17.0915
0.0254359
0.025343
0.182324
0.0406947
0.0254541
5.78353
4.33751
0.025313
2.93685
0.0819947
5.73404
0.0258563
3.91271
0.0256157
0.0255726
0.0254464
0.423392
3.82043
4.78967
0.0257618
0.0255402
14.9514
0.029593
0.0247221
4.11882
0.0965915
0.0250951
0.0262083
15.653
0.422171
0.126569
0.0693364
0.140683
0.118055
0.025056
0.0364712
0.0918236
0.0262221
0.0250193
6.03561
0.498863
0.0790915
0.0255036
0.0507828
4.35837
5.55983
0.0895526
5.915
0.0261632
3.27551
0.0253093
1.53451
5.17344
0.0292153
0.0256652
0.176314
4.66642
0.0566918
0.0252712
0.0260422
0.0252254
0.0252807
0.0247703
0.465826
3.63313
0.0260734
0.0252688
0.0256658
4.22498
4.9096
0.0451841
0.125955
0.0254259
0.0291035
0.351691
0.0249595
0.0257924
0.114212
0.0253412
5.91408
0.851089
0.025526
0.0249321
0.0317006
0.0598219
3.27472
0.0920751
0.0464455
0.0301246
6.46136
0.039024
3.28677
7.81496
4.08975
0.0274085
0.0469082
0.0256156
0.121054
0.0877847
0.138064
0.0261933
0.0638838
0.0250944
0.0375381
0.0467709
6.83612
0.0972104
0.0257999
5.53723
0.0509486
3.62024
1.98824
5.83755
0.0251636
0.100298
0.049
0.0249513
0.0255282
0.0336603
4.25463
0.370058
8.30674
0.0397322
0.129189
0.359055
5.27878
0.337085
0.025438
0.132001
0.0453583
0.0256896
0.025103
0.261308
7.43455
0.0291632
0.0253475
0.059243
0.0590261
4.76468
1.87758
0.025326
0.0252966
0.0677181
4.48378
0.0256998
4.37361
6.68474
0.129634
0.0250308
0.628181
0.0591823
6.21525
0.0252453
10.8498
0.025161
0.0981961
0.0251529
3.89024
6.07766
0.0285152
2.11126
0.0304631
0.0250356
0.873317
0.0953192
0.0392988
4.83379
8.98689
0.0249979
0.0315589
4.07023
4.63955
0.025605
0.0252328
5.04685
0.14359
0.0256558
0.238017
0.103926
0.0457931
0.0408435
0.0256049
0.0507741
7.38877
0.0250637
0.128088
0.157554
0.0252004
0.0252792
0.0731812
3.82248
0.0867177
0.0340335
0.0295271
0.0256618
6.03633
7.05311
0.302987
0.0250474
4.5978
6.91272
3.95879
3.84409
0.0873858
0.0255869
0.0252146
0.0570272
4.11953
0.127852
0.027764
2.68098
0.0455456
0.0247621
8.49139
0.0254207
5.53671
0.0286978
0.0256496
0.0305752
0.0460828
0.0475101
0.235956
0.0363521
0.02518
0.353141
4.87136
7.01909
0.0252478
4.43027
0.0255302
0.0251725
0.0253205
1.20875
0.0254433
0.107454
0.0398259
0.0250751
0.0593928
0.0262604
2.40744
0.0496766
0.0879936
0.024981
0.0252723
4.44688
5.2549
0.0253013
0.0251835
8.5517
0.0251396
4.19486
0.0249777
3.89488
0.025488
0.514396
0.0363727
3.05289
0.0271165
2.09612
0.343911
0.0305661
0.142868
0.576215
0.0254863
3.73737
0.134992
5.72416
0.0279424
6.67432
0.0322934
4.72222
0.277137
0.125307
0.122027
4.62264
0.0255891
0.0485904
4.33817
0.0254099
0.0266491
6.1951
0.318049
0.0257209
0.240285
0.755084
0.0251139
6.22949
0.399144
0.0254123
0.0251549
0.0255402
0.0249238
0.364517
5.73375
0.731951
4.34583
0.0253136
0.143785
6.69638
0.0455131
4.28514
3.96132
5.96956
0.0249865
0.278103
0.0251275
10.9856
0.0252047
3.79368
0.103862
0.0276164
0.0255647
0.0642131
0.109673
0.078438
8.08714
4.49996
9.67414
0.0528798
0.0680524
0.0252439
4.78038
4.14675
0.0252953
0.979822
0.025351
0.334637
0.0254861
0.0256024
0.0263117
3.67068
0.026276
3.51387
6.00579
0.14748
0.516927
0.0254739
0.535047
0.466859
0.0253511
0.353036
0.0253969
0.0253272
0.110346
0.0256489
0.025308
0.0251224
0.373448
0.0256304
5.58563
3.97278
5.28917
0.336941
3.4493
6.16093
0.0448783
0.0253238
0.187459
0.0281423
0.0328602
0.0254278
5.82195
4.36255
3.99997
0.0281472
0.117577
0.0277751
0.0288175
0.0779354
0.0261032
0.334599
0.0254895
0.0254295
4.12886
3.61625
3.61356
0.142217
6.32943
3.69545
4.31395
5.80389
0.0248111
0.0619875
0.0261607
0.0253233
0.847022
0.0578468
0.0249765
0.0677827
0.0427061
5.8584
0.0253454
0.124296
14.0695
0.808441
4.46096
0.0256404
0.0253023
0.0256646
0.0392742
0.0249903
4.26904
0.581213
0.0361464
5.33535
0.0297993
0.123457
4.45496
0.863622
0.142768
0.384433
0.123837
0.0663421
0.175696
0.0455273
0.163428
0.635585
0.0513646
0.0876915
0.0250559
2.33493
0.0306195
0.0248026
0.0376084
0.0259553
5.41403
5.92656
0.025136
0.024779
4.46629
8.78548
0.0256493
5.79564
0.0259133
0.246997
0.0251507
5.04333
2.47799
0.03163
0.025485
3.42516
0.284107
7.02014
0.0256593
6.52145
2.46283
8.76063
0.0248144
4.59403
6.41972
0.0455728
0.0251455
0.0254995
0.082291
0.367736
0.0249132
0.0251642
0.0252475
0.0252399
5.16213
0.928503
0.0449483
0.358761
0.0252477
0.0250662
0.115147
5.25945
0.0365298
0.025106
0.0253218
0.0253795
8.676
5.8012
0.0255324
0.0253783
0.240855
0.0451863
0.0363565
0.0252991
0.0263897
0.0301205
0.0855861
0.46087
0.368627
0.191552
0.105266
1.9954
0.0858198
0.0252617
6.16027
0.0253845
0.0269338
0.027254
2.18234
0.0855269
0.0250693
0.809327
0.124246
12.1949
0.10641
0.0399385
0.0448237
0.0255533
6.81388
0.563699
4.20229
0.0254148
0.0326217
0.358714
3.9553
24.6332
0.0726541
0.163431
0.0281273
0.027243
0.0253014
0.060908
0.0979046
0.0254165
0.0585814
0.150892
4.28939
6.32404
0.0271869
0.119473
1.74337
0.0317661
0.025614
3.54373
6.40904
5.71578
0.322602
0.024789
5.57915
0.0806005
0.0251078
0.0346895
0.0798081
0.0387536
0.107931
3.93199
0.171096
0.0407054
6.75892
0.0262384
7.30116
0.0256167
0.0255236
4.51917
6.3547
0.685592
0.0262326
0.0257469
0.0253833
0.0462187
3.37949
0.130468
0.0274463
0.133263
0.0629721
0.0251548
2.18197
0.126842
0.356233
0.0252202
0.165763
0.025932
9.80067
0.0741332
0.085148
0.0329494
0.0251431
0.0248347
0.0252556
0.134774
0.0311576
0.366992
7.08321
0.0631165
0.0251264
0.167722
0.728913
1.57281
0.0250423
0.0304938
0.0251747
0.0318429
0.0282201
6.24641
0.025605
4.58751
0.0315817
0.163283
0.0976352
4.35982
0.0887593
0.0254552
4.35124
17.977
0.0252701
0.0271695
2.59743
0.25765
0.127595
0.0256171
0.0255119
0.38585
0.0277538
0.0777805
0.0697744
0.0248353
0.0589012
4.76419
0.0250221
0.0260392
0.0252739
5.48219
0.0256542
0.0278222
6.17581
0.0265177
6.32002
0.030213
0.0410794
0.025264
0.0567342
0.0253325
0.0648738
0.0251505
0.097059
0.025915
26.9283
3.06708
5.29271
0.0255594
0.0255753
0.0813991
0.0539116
4.78277
5.59826
0.0572306
0.0253303
0.369704
0.735021
0.335906
0.319697
0.0545618
3.89058
0.0440604
0.0434963
0.16137
0.206628
0.0564358
1.16939
0.0559112
0.0265663
0.0848944
0.0306538
0.0248831
0.0316248
0.0507173
0.0310402
0.0253412
0.0251986
0.0631835
0.0263919
0.0788071
0.0253348
0.0253714
0.0256646
0.0262978
0.0246689
0.0289708
0.0253007
5.22307
0.0689891
0.398714
0.0250234
0.0256296
0.0541575
0.0675114
0.0258983
8.20328
0.0900859
11.195
0.0316861
0.134263
0.025549
0.0256585
0.0252168
0.026283
7.95072
0.0256401
4.47888
0.029256
6.03479
0.0554028
0.0915903
0.160298
0.0248563
0.0256879
0.0702049
0.0253421
0.0256177
7.91161
0.025881
0.0255407
0.0310067
0.0252246
0.0248478
0.0310998
0.0321044
6.07456
0.0386843
0.0250198
0.0251296
3.9726
0.132659
0.0254164
0.0254152
8.14327
2.32308
8.77555
0.040178
0.0265764
0.0250131
0.0248289
0.0523467
0.0398203
0.254582
0.0284021
3.83282
0.0254756
0.0268243
9.49572
0.0253597
0.0307872
0.025236
0.0254083
0.0492358
0.0479029
0.0256139
6.27548
4.37895
0.0986964
0.0252559
0.0247332
0.126325
3.76424
0.0256485
1.38134
0.0247346
0.0476528
0.0248517
0.024927
0.38834
0.0251417
3.31433
0.0438455
0.0256643
0.0247774
0.0253431
0.0251661
0.0259583
4.19316
0.0249922
0.0249317
5.181
5.91117
0.0418927
0.0523539
0.0734712
0.0281566
0.0249777
0.0315577
5.06312
0.102717
0.0254737
0.0254329
5.70297
0.0392358
4.43724
0.025655
0.0260036
6.55351
0.0366704
0.0256844
8.03772
1.76151
0.0251629
0.145451
0.0252133
0.0251217
0.025005
4.34055
0.02466
0.025025
0.0249699
3.46563
0.0276832
0.244763
0.0701985
0.0249119
0.0368764
0.0255326
4.35418
0.0252527
0.0250081
0.025542
0.131171
0.0255316
0.17078
5.77073
4.77157
0.0298935
0.453343
5.39833
0.0252658
6.96762
9.50883
4.87186
3.46572
5.06805
36.9732
0.156058
0.0255197
3.86017
0.0366138
4.06509
0.0248109
0.0250868
0.025416
0.0255235
0.0289605
0.0349552
4.59636
0.0250769
0.0253903
6.49034
0.330738
0.0253436
0.0429559
0.0327567
0.0253546
2.84778
0.0436353
0.0269436
0.0276221
5.75753
7.91375
1.34483
0.0248367
0.287201
0.123726
4.65122
6.00847
0.0953867
0.0251443
0.0256072
0.0254784
0.0246111
0.0263808
0.0248032
0.0302336
0.0428242
5.57932
0.141695
0.0250418
0.130853
4.343
0.0464537
0.0255356
6.5291
0.025061
0.0255427
0.042395
6.54382
0.0255319
0.0252193
4.37663
0.218585
1.31026
0.115582
0.97156
0.025189
0.190731
0.0255624
0.0252978
0.0255573
4.23554
6.41149
0.0249173
0.024771
0.0252505
2.79173
0.0261684
0.032796
0.0253453
0.0256139
0.184815
0.0249249
0.0661061
0.382477
3.61068
0.0251751
0.0941069
0.0273655
4.53696
4.29317
0.0253125
4.49996
0.0784691
1.48043
0.0255299
3.61938
0.0256274
0.0296999
0.0478523
0.115698
4.46292
0.480675
0.188716
6.49459
0.0251182
0.314363
0.0249156
0.0306288
4.37142
0.0253305
0.0256373
0.0259391
0.0253344
5.15283
0.0248527
0.0254121
0.0599339
0.0521083
0.0543197
0.653092
0.139504
7.75438
0.070402
0.0384585
0.0425158
4.69064
0.0430031
14.1634
4.05036
0.0284055
0.0249235
3.34072
0.354646
0.0255284
0.120635
0.036933
0.0254224
0.0293589
0.0253732
0.0478871
0.0256895
0.0533943
0.121385
0.0251382
0.0671462
0.0249689
0.0670005
0.0251436
0.0293729
0.0633808
0.0265252
0.025237
0.0249293
2.1558
0.0906714
6.19826
0.0253029
0.025329
0.0642985
0.0252371
0.100622
0.0911124
0.0254243
0.104269
0.024953
9.98978
0.025497
0.0402342
5.48274
0.311333
0.0251974
0.0267711
6.81645
0.0253015
0.0251903
4.49335
4.21439
0.027384
0.175875
0.0254396
0.0252287
4.28431
0.0261491
0.0248694
0.277448
0.0249668
2.166
0.0255641
0.0248757
0.0254184
0.141738
3.70906
0.0253663
0.025487
0.0251907
0.0290448
0.0254052
1.05745
0.0647433
0.0256586
5.7334
0.0555564
0.317861
3.70974
3.66507
0.024904
0.0254839
0.0252801
0.829416
0.0295172
3.7476
5.78194
0.0270943
4.27575
2.3573
0.0538341
0.154589
0.0785502
0.434697
4.50497
0.0711676
1.12429
3.84466
0.0687798
0.0283465
4.51404
0.0607549
0.024825
0.0263694
13.4659
0.0427965
0.0251289
0.058938
0.110632
0.0430141
4.41343
0.0268908
6.49761
0.0425781
0.30338
0.13697
0.307611
0.0320521
0.0249475
0.0257553
4.75035
0.0252905
0.0272926
0.0249943
0.0264049
0.0250709
0.0397007
0.160641
1.94138
0.0493924
0.0647423
4.01671
0.399839
0.0250554
2.40608
4.16893
0.0249135
0.0251783
0.0338918
6.79167
0.0256394
0.0761384
0.673165
0.0538976
0.0253274
0.0261835
0.0249774
0.120997
0.0443369
0.0252888
31.1019
3.90025
0.0483012
1.69479
0.0697134
5.74045
0.0264545
0.0284489
4.30917
2.29639
0.0962382
1.82724
0.0314373
0.0256684
0.0250955
0.0253728
0.0253116
0.0258368
0.0593259
0.0252085
0.131548
0.0252227
0.0315558
0.0248956
0.0908711
0.130298
0.87374
0.0252584
0.304508
0.0250947
4.4301
0.0253424
0.028785
0.0254658
0.275702
4.66167
0.149598
0.025199
0.142085
0.0252529
0.032902
4.17782
0.0251003
0.0255774
0.0502289
0.0346586
4.2797
0.0252092
0.0333388
0.0261685
0.0253534
0.0360593
0.0256554
0.0249628
0.0268472
6.44415
0.0275487
0.262563
5.75714
0.0565153
3.60701
0.0273024
0.0249712
0.0347282
8.39185
0.0263735
0.0408844
0.0451192
5.14117
0.025149
5.78744
0.0687094
0.0768363
0.0248998
0.0247981
0.181247
0.0256394
0.0256813
0.0378561
0.0248262
0.0275537
0.0316913
0.0751803
0.307519
4.29224
0.028143
0.0792779
3.10564
7.49116
0.0405465
0.297822
6.64889
0.0425595
12.9971
0.0268458
20.7704
5.45247
0.0247956
0.0256494
0.02524
0.0256792
0.0499368
0.0248934
0.0270707
0.0955078
0.02637
0.0397843
4.25879
0.0338625
0.0271713
5.70419
0.0256906
5.71426
0.0273283
0.0614395
0.0251353
6.80318
6.05491
0.025251
0.0257937
3.77098
0.0331208
6.78433
0.0253317
0.0249615
4.28595
0.0257872
0.0498159
9.51409
0.0253816
0.0599806
0.0323245
0.0247913
0.0251686
3.83527
5.63629
0.0253767
0.0265553
0.0253032
0.0296764
0.0404998
6.09584
0.0258726
2.603
4.36115
0.28325
3.25497
0.0257404
0.129667
0.219568
0.0326253
0.0253784
0.0644521
4.08001
0.0265657
0.0520657
5.00199
3.67893
0.322152
0.0283896
0.0254804
0.0256285
0.0253838
7.53604
0.0594061
0.0268432
0.0258986
0.0274444
0.02566
0.0252281
0.0253386
0.0779191
0.041052
5.64139
0.0524169
5.0322
3.43014
0.0341159
0.0549724
0.0250464
0.0318018
8.26487
0.0253342
0.0267069
0.0554784
0.12771
0.0634247
3.87799
0.24276
0.0250682
3.94402
0.0247487
0.0253971
0.0519947
0.0256648
0.0250562
0.183127
6.8758
0.0249733
4.22402
0.0253124
0.0248916
0.0266225
2.71454
0.0322878
0.0272973
12.6151
0.026055
0.255485
3.43696
0.0256285
0.0539365
0.0253162
5.86133
0.0774906
0.0253393
4.09432
0.0585223
0.0886075
0.0256714
6.58903
0.0328053
0.451397
0.0259822
0.0810788
6.87899
0.0249212
1.52764
0.0253589
0.0683923
0.0586663
0.0256273
4.56391
0.0267674
0.125072
0.0632942
0.108133
0.0454473
0.0488845
0.0258018
4.96674
0.0357448
7.01398
0.0335909
0.0688149
0.0251583
0.0487037
0.0253152
0.0742886
4.62628
0.0259243
0.0250467
3.45293
0.0259253
3.26258
0.0256118
4.3095
0.357562
0.0388946
0.025285
0.0252162
0.0254418
0.0247988
0.112857
0.0630942
0.0439584
0.0289324
0.0254119
2.51587
0.0266348
0.0374933
2.72085
0.0253086
13.3891
0.0553545
0.0327909
1.30856
4.33897
0.365507
4.47641
9.53181
0.0251384
0.404237
5.00917
0.382271
0.0255318
0.0254608
0.122112
4.02735
5.59118
0.699357
0.0253943
0.0575448
0.0432749
3.44206
4.94839
0.0450876
0.137233
0.0270562
0.0908821
0.0960091
0.0255208
0.115215
8.03996
0.0254739
3.36856
0.0256378
0.025123
4.70756
4.00518
0.0250996
0.0254668
0.0256201
0.0249749
0.0548633
0.190456
0.0261523
0.0252854
0.0254325
0.0432458
0.0309566
0.0306903
0.371481
0.0253177
4.08723
7.64638
4.2483
0.173466
0.0575808
1.01742
0.0365158
3.82148
1.88013
9.94635
0.0256098
6.67739
3.50415
0.024991
0.0253472
0.114652
4.48584
9.78509
0.0249102
0.0252618
3.60449
4.82516
7.24844
0.0271081
0.0271027
1.91266
0.0254255
3.70864
7.18932
1.31589
2.77357
0.0253296
0.0251866
0.0251509
0.0294191
4.11116
0.0431325
0.0284739
0.0258429
0.0985061
7.19416
0.0432139
6.16283
5.37338
5.27469
2.20042
0.0253635
0.0255304
4.3338
0.0248397
0.0248244
0.0262427
2.85935
0.040419
9.2971
0.145271
0.0253319
5.43233
0.0431712
0.0250785
6.10898
0.190432
0.0282544
0.0252281
5.08329
4.47321
0.0255406
7.45427
4.42803
6.14353
2.53435
0.0933614
0.0251783
0.0256907
1.92702
0.0286611
4.48754
0.0459173
3.72877
0.285995
0.0260996
0.0326152
0.0251653
0.0259123
4.67383
6.95002
0.0253848
4.90697
0.0458684
0.0252705
0.0280065
0.0252088
0.176687
0.0256007
2.34923
0.0582212
0.0251663
0.0251327
0.108292
8.10421
0.0421918
0.02715
0.0472134
0.0253133
0.0262256
0.0303754
8.8506
4.1275
4.47781
0.0249211
0.0251243
0.0255554
0.130836
0.025129
0.0255963
0.184546
0.063266
0.83154
0.0247818
4.44676
4.10019
0.0256791
8.92897
0.123879
0.0401284
2.08264
0.0255047
5.09931
0.033169
0.0262589
0.0270974
0.0248351
0.22786
0.0256912
0.0258513
0.0347065
3.55278
3.64003
0.0256283
0.0253306
0.0266258
0.0251785
0.146439
0.0256574
0.0926109
0.0266014
4.13771
0.0257588
4.20225
0.0249216
5.58655
0.0255518
0.0248127
6.85585
0.35933
0.125493
1.15166
0.0497837
0.0438434
0.0253445
5.17484
0.0253783
0.0251376
0.0985239
0.0687624
9.94307
4.48849
0.13429
6.98353
0.142587
1.03782
0.0249881
0.0279951
0.0309419
4.14659
0.0279994
4.26814
4.5137
0.0253113
0.0253437
0.0252579
1.68308
3.37483
0.026433
0.0254469
0.0289436
0.0312637
0.0411724
0.410302
0.357135
0.0253873
0.693798
0.0939404
8.51935
0.078767
0.026438
0.0269886
5.25309
0.0251472
0.0980404
4.57135
0.0259315
0.0285477
0.19011
0.151576
0.0259752
6.49852
0.0274627
0.315
0.043458
0.0340515
0.0258385
4.40743
0.0251129
0.110329
1.4991
4.81619
0.0544833
0.0744741
0.0286217
0.0537829
0.0256546
5.0091
0.0297116
0.0251329
0.032998
0.0254243
0.0256591
2.98333
0.0253892
0.0255401
0.0252882
0.139752
0.0254899
0.0365934
0.0779052
0.25859
0.128982
0.0256384
0.273218
0.530497
0.246252
0.0940012
0.030675
0.171067
4.7893
0.712006
0.0256794
7.6922
4.20597
0.0256786
0.0272195
0.0248236
0.756424
0.117332
0.0251815
1.33788
4.19851
0.0250452
0.0254599
3.80983
4.18454
0.0702879
0.0248367
11.2971
3.32347
3.29348
0.0253364
4.16251
0.088375
0.07998
4.41212
0.0292487
0.0248392
0.033217
0.209502
0.0351202
3.99465
4.52145
0.0250388
6.52299
0.582199
4.59378
0.024917
0.0580495
0.0255287
0.0251729
4.13335
3.00845
0.307989
3.81383
0.0328658
0.0553712
0.0254836
4.68632
5.93886
0.0253509
0.0254302
0.0357474
0.0249443
0.0551242
4.44586
7.47882
0.0559624
0.025617
0.0252718
4.14465
0.0281877
0.0574168
0.0250126
0.0261818
0.794059
3.35647
0.359223
2.98347
0.0255285
0.326909
0.0255674
0.0539527
9.7144
6.87631
0.0253961
0.0256918
0.038675
0.0289625
0.0254394
4.38962
4.17618
0.0249632
0.0246314
0.0255551
0.0252589
2.74579
0.0248874
3.92317
0.112662
0.0686105
0.0250603
0.0539576
4.66715
0.0367394
0.507647
5.81517
0.0254773
7.13349
0.0372886
0.0399413
0.40872
7.25385
4.66253
0.0648037
0.0251518
0.286538
0.0249008
0.0284798
0.0254525
3.93058
0.0356802
2.81875
0.339901
0.0530103
0.0254668
0.323948
0.0299644
0.0256607
0.292015
0.0247632
0.041143
0.0373684
0.0254196
9.77539
0.0265669
0.618076
0.0260418
0.0252135
5.52256
3.68874
0.0273159
0.0365892
0.0422187
0.0651625
0.0629125
0.0292644
0.0290988
0.0282797
0.237191
0.0282295
4.03852
0.0672863
0.282047
0.125001
0.0257631
4.55074
0.0247796
4.50576
0.0274093
4.351
6.28574
9.22075
7.77534
0.336483
0.0865571
0.0251531
4.26939
0.0966433
0.0253368
7.97436
5.68671
0.0264882
0.026821
0.0339966
0.0340022
0.0354692
5.22672
0.0256789
0.032907
0.0381879
0.0362567
0.0255201
0.0910457
0.024766
4.13435
0.0268668
0.147398
0.0351096
0.0430265
0.138545
3.44113
0.0959108
0.025062
0.27559
4.25702
22.5314
0.0255145
4.1874
0.0321
1.84804
0.0253785
0.0277123
3.83998
0.0558057
5.07472
7.425
0.0376374
5.00022
0.0252046
0.0247504
8.94478
0.0663227
0.0276358
5.3851
0.0301277
0.0515956
0.0330418
0.079534
0.0253484
5.76563
5.27059
7.09136
0.311732
0.028626
0.0642509
5.05141
0.0272425
0.0255369
0.0930647
0.0248746
0.33449
7.72526
6.39981
5.35436
0.0599123
0.0255774
4.19168
0.0247571
0.0795738
0.0256139
23.8876
0.026957
0.0535332
3.75273
0.130199
0.0253386
0.0361508
8.9477
0.0253485
0.156326
0.024989
9.53184
4.28796
0.122463
0.0879979
0.0252379
0.218992
0.146316
0.0428004
0.0249962
0.0256055
0.0254964
0.0588417
0.0254653
0.092088
0.0253847
0.0249845
6.47537
0.0250635
0.0300198
0.0281233
0.0256664
3.6502
0.0250692
0.0379263
4.01414
0.0522698
3.95583
0.0253336
4.50192
0.0550381
5.1526
0.0267394
0.135029
0.0252958
0.0443427
0.130949
0.120095
0.283905
4.13676
0.240487
1.99991
0.0303967
0.118577
0.0470311
0.970191
0.0282617
0.0252442
0.0253104
0.0558467
0.0521611
2.48475
0.0581605
4.65889
6.86275
0.115309
0.0252486
4.49317
0.22699
0.025695
0.0272722
0.0253309
4.93729
0.0253203
8.24366
0.0250525
0.0301178
4.93148
0.0887908
0.0253534
0.025308
7.86517
0.0250891
0.0272557
0.0283193
0.0363975
0.0308632
0.0253853
0.162807
0.0917469
0.0494153
0.360019
4.44041
3.64913
6.18387
0.0249426
0.0252566
0.115765
0.0255892
0.0528586
4.13232
3.77677
0.0248327
0.0253466
3.42802
0.400949
0.0248526
0.0250618
0.0299365
13.0443
4.04901
0.0297218
0.0377116
0.0255667
0.401324
0.133984
0.159194
0.0356961
0.0499427
0.0256425
0.0418374
0.335487
0.0259826
0.0253161
0.0295271
4.52983
0.0283876
7.37125
0.0254443
3.81259
0.0410914
0.0314625
0.0250031
0.0251994
0.879295
7.86524
0.0651659
4.26982
9.64247
0.0257488
4.0169
0.15195
0.0250917
4.62945
0.290331
0.12301
0.0256386
3.51841
4.53666
0.0251045
0.0446159
4.30732
0.0507266
0.0252945
0.02498
0.0255539
0.0269895
0.0907394
0.320076
0.0871999
0.0866425
0.0249036
0.0254242
4.6445
0.025053
0.0546536
0.0299671
0.0252496
0.0554686
0.0253333
0.0269242
0.36376
0.0253013
4.50097
0.0253252
15.1537
3.67278
0.103208
0.0254625
0.0256904
4.21448
0.0248199
0.0273379
0.0255703
0.374666
1.3873
0.03703
3.67429
0.0471559
1.30402
0.0257577
0.0747501
0.0249472
0.0254873
5.08889
3.7259
1.50036
0.0269306
0.0751021
0.0749177
4.78416
4.07996
0.343542
0.0433318
0.0247514
4.16356
0.0250853
0.0251506
0.318242
0.121128
0.0318353
0.225974
0.0535544
0.0354735
0.0308839
5.20984
0.0274784
0.0252934
6.83362
0.0537369
0.0249033
3.50654
0.025347
0.0254501
0.176188
0.17024
12.1274
0.0249263
0.0279881
0.0251754
2.28067
0.025089
0.608957
4.11118
3.6071
3.49683
33.2402
0.0340375
4.47912
0.917915
0.0255803
0.0344629
0.049168
0.0342132
1.2799
4.14895
4.45011
3.57759
2.45162
0.0253921
0.113578
0.0253572
4.86576
0.03185
0.0262458
0.0272242
0.0258403
0.0251151
0.114702
4.44988
0.0249268
0.0267755
0.0251224
4.57447
0.0266231
5.57625
3.87591
1.41024
0.0254259
0.0251226
4.44821
0.430327
0.0254864
0.342481
0.0256046
0.157951
0.212076
0.10398
0.0556661
10.7322
0.0250107
0.024945
0.235432
3.38285
0.0326433
0.0530605
0.0251895
8.52094
0.0253089
0.025237
0.0262935
0.0252607
5.21304
4.0458
1.59789
0.0648939
4.23252
0.582398
0.0248427
0.0342868
0.024888
1.31223
0.0251494
0.0280509
0.0252787
0.0251937
0.0249461
2.93859
0.02592
1.76592
0.0247216
0.0366928
0.0260595
1.6042
0.0253641
0.0347763
0.0382537
0.0792628
6.72576
0.0251873
4.26603
0.0772994
0.0516259
0.0250803
0.0252247
3.54788
16.2019
0.0251636
0.0250706
0.296993
0.259057
0.0433054
3.93672
0.0259656
0.451398
0.034465
0.0249028
5.48251
0.0261082
3.92783
0.0253139
0.0258386
0.0254621
4.26387
3.59429
0.0248602
0.271563
0.257319
0.0253828
0.0250523
0.025149
0.291844
4.01129
0.0726046
0.0273177
0.0435386
0.0253416
0.0253084
0.0268135
0.0253089
0.200232
0.0253233
0.0683096
0.693105
0.0396388
0.0247913
3.97567
0.080327
0.025354
0.0909671
0.033799
1.38584
0.0277113
10.1153
0.063107
0.0252321
0.0970165
0.0959428
0.0277784
5.98468
0.0644815
0.0329275
1.79885
0.0251797
0.170128
0.0995772
0.143562
0.0252202
0.0252299
0.0248159
0.0375227
0.0600048
0.0587096
6.48146
4.65949
3.90749
0.0256557
1.94316
3.73746
4.21925
0.0252772
0.0252614
0.0583775
4.14588
0.0273781
0.038459
32.4889
5.0577
16.877
0.128521
0.182867
3.41452
0.441685
0.0247637
11.9071
0.300477
0.0254899
0.0254859
0.0259992
4.68704
0.107898
5.30121
0.0271407
8.83109
0.0253149
1.33997
3.85851
0.0254431
0.037326
4.26602
4.71383
0.0617218
0.0259986
0.0269263
0.0256142
0.259492
0.130163
2.89579
4.1273
0.0249417
5.32277
0.186619
1.41913
0.0253418
0.025521
2.59109
0.293171
0.0252149
0.0554323
0.0825165
0.0441182
4.09606
4.54998
4.68808
4.11864
0.0286539
0.0248224
0.0746682
4.55359
10.1949
0.0251086
0.31417
0.10527
0.494986
0.0255853
0.0256419
1.26932
4.01144
7.25188
1.73289
4.26031
0.025243
0.281316
4.10646
0.025475
0.0701524
0.117534
0.0248706
0.176584
4.91508
0.280845
0.0256406
5.28933
0.128239
27.2384
0.0246382
0.0267292
0.0253706
0.0262295
0.0253404
0.0608906
0.0455516
0.0477748
0.372579
0.0369898
4.21391
0.0285202
0.0320537
0.0313236
9.14035
0.0651031
5.0242
0.0313693
0.031372
19.2699
0.10955
0.0253388
0.0478676
3.95505
5.34453
0.336642
0.0252193
0.0251539
0.0251631
1.04593
0.0263595
2.51716
1.36833
0.289873
0.0354086
0.28808
5.62417
0.025342
7.31623
0.0378335
0.0574352
0.0251627
0.0250763
0.0588293
4.36372
0.0254087
4.97894
0.565514
0.11135
0.209751
0.0250956
0.0253337
0.033164
0.0260161
25.3438
24.7499
0.0958313
0.883755
0.0252022
0.0252806
0.025354
0.0256279
7.47109
0.0263218
4.54478
0.0981186
0.0256129
0.42301
2.91986
3.48771
8.66798
0.0266492
0.0249269
0.0254741
0.0265732
0.794796
0.276751
5.91342
0.0255074
0.0255514
0.18226
0.0256472
0.212416
0.0268933
0.171089
0.194657
0.0465935
0.0449228
0.0249161
0.051882
0.0431161
0.238835
0.0912239
0.0480476
0.0251252
0.276107
0.0251277
3.46179
3.67607
0.985175
0.0253285
0.123401
0.02527
0.0538671
0.0261097
0.025813
0.0317771
9.00699
4.05332
0.0896182
0.0535716
0.261089
0.0887652
3.99899
4.27851
0.0348564
4.21593
0.392344
0.0250598
0.0635138
4.2957
0.108618
0.025615
0.0599757
2.30722
0.461571
8.42944
0.0253116
0.793101
0.0254265
0.0251865
0.0455843
0.323394
0.0256519
4.28083
5.12015
0.220835
11.0456
0.41958
4.76518
0.352335
0.0249196
0.0279475
0.0248003
0.0480917
0.319832
0.468549
0.0275728
0.0472531
0.0247777
4.37546
0.0419184
0.0527171
4.06276
0.111581
6.69341
4.75191
0.0252212
6.80994
0.0254551
0.031909
0.0531305
3.86086
0.164421
0.0313628
0.0263037
0.627366
0.0379302
4.27649
5.93311
0.0364732
3.32149
0.0488823
0.0256641
1.20739
0.0702689
0.0262098
9.13639
15.118
0.0331957
0.0293268
0.140067
5.99335
0.0252188
0.0253972
0.024855
0.0249686
0.0255648
4.82887
0.0355267
3.92414
0.0252436
0.0251028
0.883233
0.0253499
0.0267363
0.0253774
0.0253339
1.81261
0.0249405
4.76296
0.0251515
0.0261976
0.0467523
0.0254275
0.163182
0.0249541
0.0256536
0.024984
0.0309713
0.100959
0.0275866
3.67522
0.0251743
0.049133
0.0330092
4.25844
0.0259685
0.0256584
0.0248383
0.0248602
0.42718
0.0251524
0.0250817
0.0277175
2.2776
0.0252154
0.0483919
0.0367977
0.0252666
4.87901
6.61304
0.298021
4.95278
0.0279311
0.119083
0.0254021
0.111594
0.369804
0.0254526
1.90137
0.139782
4.63471
0.0346054
0.0253372
1.63022
0.0489855
0.86069
5.11274
0.0247072
0.0252524
7.52722
3.30944
0.0644311
0.0640331
0.0262552
10.4449
5.73936
0.0246421
0.025253
0.0252756
0.0255314
0.0256309
0.025332
0.0399757
4.25327
0.0348765
0.0254356
0.474185
0.0252813
0.891354
0.0524379
0.0252154
0.0307444
0.0251755
0.405267
0.0280953
0.0577499
0.0252235
0.0254363
4.53278
4.94209
0.0255358
0.0558764
0.0500691
0.0348869
0.0271227
0.0256619
0.0258856
1.69835
0.610721
0.0437486
4.92318
0.0256258
24.128
0.11486
0.0290939
17.6714
0.0262778
4.26913
5.37177
3.48553
4.26575
4.12287
3.73422
0.0247826
0.0304789
0.027939
0.0247881
0.0248972
0.0324657
0.0848395
0.0249548
0.0331322
0.131144
0.0857849
0.332133
0.221418
0.0371254
1.88313
9.52285
0.0382226
0.0280895
0.13782
8.65879
3.84308
0.0287585
0.0247651
0.0251003
0.0249735
0.035167
3.82992
0.407266
0.0248902
4.67626
0.0252745
0.148365
4.13872
0.0918201
0.214664
0.100741
0.366487
0.0260412
0.0374698
0.02511
0.269065
0.0252235
0.0261282
0.036537
0.163811
0.0255358
0.0276352
5.62996
0.0250583
0.0252277
0.0327216
5.66322
0.12805
0.484528
0.043186
0.0255003
3.41511
0.0417883
0.0264366
0.0253093
0.0344704
0.0298331
0.0253205
0.0310793
4.47083
0.0267561
0.0248136
0.0528634
0.025134
0.0356639
0.03394
0.025388
0.0252937
4.6982
0.0249092
0.0253391
0.0248312
0.0289626
0.0245996
4.92588
0.029064
0.235743
0.0252493
0.0250787
0.0252003
4.35465
0.070228
0.0253289
0.024745
5.58244
0.0282797
0.0730809
0.0251071
0.164773
0.0265633
0.0247051
4.09587
0.024908
0.0254956
0.025496
0.0251469
0.0273359
0.0254683
0.0253482
1.69218
1.57315
4.65661
0.289503
8.23835
0.0250801
4.65711
0.0252571
4.05956
7.81681
0.0250309
10.1939
0.0252733
4.21606
11.524
0.299253
4.14347
3.96667
0.887373
2.29276
6.03345
5.24852
0.0487697
0.04584
4.62298
0.0267023
0.0248379
1.59134
0.0269977
0.0318062
11.814
0.0261718
0.811767
3.67759
6.43306
0.412835
0.126433
0.025636
0.0317905
0.0545438
0.0254443
6.92284
0.394819
0.121572
0.0251508
0.0253935
8.01878
0.0248736
0.785523
0.0250377
8.98782
4.48743
0.0377858
0.0293203
0.0252524
10.1269
4.05527
0.0286576
0.0376503
0.025681
0.0256807
0.0628492
0.0263735
0.0360269
0.0753274
0.0274545
0.0361713
0.0253442
0.0361561
15.0649
0.0256532
10.6992
0.0251405
3.59047
0.061576
0.0253483
10.0257
0.134688
0.0250858
0.174428
0.025335
0.319146
0.0254378
0.025306
3.90147
0.0254948
0.116694
0.0265172
0.148219
0.0250432
0.0255623
0.025109
0.0338602
0.0274331
0.025522
0.0258159
0.0285211
0.0256715
0.132301
0.0728629
0.0329698
0.0265548
0.0247661
2.39536
8.65282
0.0259882
0.0257511
0.025866
0.0425694
0.0254353
0.0392374
0.0247183
0.0256804
0.256919
0.0265401
0.0256795
0.0251621
4.85345
10.8401
0.0247588
0.0807815
0.065324
0.260593
0.232428
6.79323
4.38273
0.710387
0.0260608
0.146905
0.0252047
0.0353192
7.03939
4.48329
0.15199
0.0271184
15.2728
0.0253545
0.0525768
0.440053
0.0254606
0.144796
0.0266376
0.026436
0.0838363
0.156323
3.92519
3.45349
0.0250212
0.0247479
4.82637
3.80508
0.0254688
0.0326821
0.130052
0.0253382
0.0253211
0.0272773
2.26955
0.0249861
4.27759
0.0332398
0.0253975
0.270713
0.0795658
0.0739302
0.128747
4.87646
0.0276125
0.0380747
0.0306625
0.0269592
9.48634
0.0350223
4.23434
4.18874
0.0754098
4.1152
0.0522374
0.053983
0.384367
0.0249232
4.34879
0.098818
0.0378838
0.0327651
0.0255372
0.0248226
4.10737
0.048764
4.23751
4.33771
0.0254532
4.2602
0.0250772
0.0252148
0.0323637
11.1757
0.080388
0.0248194
4.07949
0.0252532
0.0270009
3.92653
0.0268523
3.53164
0.0256637
4.44809
3.94345
0.0777519
2.78765
0.0265833
3.5134
0.0247598
5.38641
4.8155
4.45217
5.05922
0.025228
0.0250013
0.26553
3.73201
3.49642
3.88257
3.81927
0.0253593
4.91899
3.50597
0.0256348
5.14744
0.0355088
0.0366805
12.0702
0.0430315
4.34039
0.0251446
0.0426959
0.0379687
0.226652
6.19302
0.0414388
3.62782
4.4252
0.0255296
0.0278193
0.0269949
0.0279409
3.50705
0.0253164
0.0249732
0.0443983
3.73332
3.92845
0.0314158
3.92919
4.14668
0.0252184
8.3817
4.72424
0.189932
4.04928
0.0748123
0.0275801
0.0255303
0.174891
0.0296132
0.0902598
9.81007
4.58319
0.0326556
0.0788633
0.0289985
0.0422995
0.0248358
0.0452291
0.027875
0.101177
4.60393
7.19316
3.90419
0.0248088
0.139932
0.0681729
4.25408
0.0264286
4.68518
4.70734
4.3105
0.0252714
0.194554
4.59266
10.699
7.27404
0.0410683
5.53271
4.1763
0.0679928
0.0738489
0.0272082
0.0328987
4.76066
0.0510686
0.0255485
3.37923
0.0252292
0.0254375
0.131432
0.131416
0.0249838
0.102299
0.0279054
3.79554
10.7526