/*--------------------------------*- C++ -*----------------------------------*\
| =========                 |                                                 |
| \\      /  F ield         | OpenFOAM: The Open Source CFD Toolbox           |
|  \\    /   O peration     | Version:  v2012                                 |
|   \\  /    A nd           | Website:  www.openfoam.com                      |
|    \\/     M anipulation  |                                                 |
\*---------------------------------------------------------------------------*/
FoamFile
{
    version     2.0;
    format      ascii;
    class       volScalarField;
    location    "200";
    object      omega_0;
}
// * * * * * * * * * * * * * * * * * * * * * * * * * * * * * * * * * * * * * //

dimensions      [0 0 -1 0 0 0 0];


internalField   nonuniform List<scalar> 
13917
(
0.0445057
0.0253826
4.72657
0.0265955
0.0254427
0.486172
4.3623
4.91901
5.69666
0.0727324
0.164834
0.070209
0.0266662
11.2669
0.0294086
0.0281809
0.0255005
0.0577453
0.0689346
0.0254521
0.0256557
4.27782
0.0254244
4.93906
0.0253022
4.12461
0.0462189
0.0601298
0.815717
0.110133
0.0472819
0.0310578
0.0402871
0.0288227
0.0253209
0.964314
0.025436
3.85092
0.0283619
6.32827
0.0251591
0.025681
0.0247357
0.0915543
0.0252437
0.0307497
0.056818
0.0749565
2.85927
0.0253269
0.0298713
0.0255754
3.29897
0.0292393
0.025514
0.0298883
0.162522
0.0252866
0.0280545
0.0252063
10.1808
0.0253833
23.5987
0.0254368
0.449136
17.0945
0.0254359
0.025343
0.1823
0.0406925
0.0254541
5.78262
4.33745
0.025313
2.93683
0.0820046
5.73445
0.0258564
3.91403
0.0256157
0.0255726
0.0254464
0.42343
3.82074
4.78983
0.0257619
0.0255402
14.9624
0.0295933
0.0247221
4.1188
0.0965875
0.0250951
0.0262082
15.6535
0.421461
0.126563
0.069333
0.140693
0.117775
0.025056
0.0364695
0.0918381
0.0262222
0.0250193
6.03506
0.498913
0.0790849
0.0255035
0.0507835
4.35816
5.55952
0.089563
5.91423
0.0261632
3.27556
0.0253093
1.53455
5.1732
0.0292155
0.0256652
0.176287
4.6663
0.0566896
0.0252712
0.0260422
0.0252254
0.0252807
0.0247703
0.464903
3.63364
0.0260734
0.0252688
0.0256658
4.22255
4.90932
0.0451843
0.126338
0.0254259
0.0291038
0.352157
0.0249595
0.0257925
0.114225
0.0253412
5.91384
0.850977
0.025526
0.0249321
0.0317008
0.0598227
3.27477
0.0920788
0.0464462
0.0301248
6.46119
0.0390204
3.29096
7.81524
4.08744
0.0274085
0.0468628
0.0256156
0.121053
0.0877949
0.138076
0.0261934
0.0638826
0.0250944
0.0375307
0.0467721
6.83556
0.097222
0.0257998
5.53731
0.050954
3.62083
1.98825
5.83748
0.0251636
0.100289
0.0490012
0.0249512
0.0255282
0.0336608
4.25571
0.370047
8.30638
0.0397319
0.129199
0.359892
5.27895
0.33709
0.025438
0.131606
0.0452997
0.0256896
0.025103
0.261244
7.41788
0.0291636
0.0253475
0.0592437
0.0590269
4.7647
1.87482
0.025326
0.0252967
0.0677142
4.48439
0.0256998
4.37431
6.68459
0.129644
0.0250308
0.628592
0.0591814
6.21457
0.0252453
10.8502
0.025161
0.0981908
0.0251529
3.89047
6.07712
0.0285148
2.11101
0.0304633
0.0250356
0.875144
0.0953324
0.0392988
4.83362
8.98621
0.0249979
0.0315591
4.07001
4.63963
0.025605
0.0252328
5.04674
0.143576
0.0256558
0.238099
0.103915
0.0457247
0.0408446
0.0256049
0.0507616
7.3888
0.0250637
0.128093
0.157793
0.0252004
0.0252792
0.0731864
3.82222
0.0867222
0.0340364
0.0295268
0.0256618
6.03571
7.05363
0.302975
0.0250474
4.59761
6.91531
3.96169
3.84541
0.0873963
0.0255869
0.0252146
0.0570243
4.11986
0.127839
0.0277642
2.67792
0.0455475
0.0247622
8.49168
0.0254207
5.53673
0.0286981
0.0256496
0.0305748
0.0460821
0.0474409
0.23622
0.0363526
0.0251801
0.35421
4.87114
7.01962
0.0252478
4.43226
0.0255302
0.0251725
0.0253205
1.20833
0.0254433
0.107423
0.0398267
0.0250751
0.0593937
0.0262601
2.40741
0.0496772
0.0879947
0.024981
0.0252724
4.44662
5.25412
0.0253012
0.0251835
8.55196
0.0251396
4.19473
0.0249777
3.895
0.025488
0.514625
0.0363763
3.05288
0.0271165
2.09213
0.344478
0.0305653
0.142854
0.576257
0.0254863
3.73774
0.135054
5.7258
0.0279423
6.67403
0.0322937
4.72261
0.276555
0.125259
0.122029
4.62289
0.0255891
0.0485914
4.33807
0.0254099
0.0266489
6.19812
0.318008
0.0257208
0.240157
0.755029
0.0251139
6.22933
0.400404
0.0254123
0.0251549
0.0255402
0.0249238
0.365218
5.73367
0.733224
4.34569
0.0253136
0.1438
6.69666
0.0455139
4.28593
3.96149
5.96879
0.0249865
0.278015
0.0251275
10.9858
0.0252047
3.79367
0.103849
0.0276166
0.0255647
0.0642102
0.109676
0.0784312
8.08714
4.50015
9.67312
0.0528788
0.068058
0.0252439
4.78045
4.14781
0.0252954
0.976353
0.025351
0.334782
0.0254861
0.0256024
0.0263117
3.67169
0.026276
3.51377
6.00515
0.147482
0.515651
0.0254739
0.53401
0.466211
0.0253511
0.353034
0.025397
0.0253271
0.110361
0.0256489
0.025308
0.0251224
0.373471
0.0256304
5.58532
3.97373
5.28941
0.336967
3.44964
6.16035
0.0448788
0.0253237
0.187434
0.0281424
0.0328605
0.0254278
5.82172
4.36341
4.00057
0.0281469
0.117579
0.0277753
0.0288176
0.0779277
0.026103
0.334103
0.0254894
0.0254295
4.12856
3.61684
3.61424
0.142215
6.32973
3.69592
4.3137
5.80467
0.0248111
0.0619845
0.0261605
0.0253234
0.845619
0.0578447
0.0249765
0.0677819
0.0427073
5.85903
0.0253454
0.124276
14.0683
0.808724
4.46087
0.0256404
0.0253023
0.0256646
0.0392763
0.0249903
4.26984
0.580256
0.0361452
5.33529
0.0297996
0.123454
4.45475
0.863512
0.142772
0.384966
0.123817
0.0663391
0.175671
0.0455298
0.16343
0.635462
0.0513689
0.0876835
0.0250559
2.33182
0.0306208
0.0248026
0.0376078
0.0259553
5.41461
5.92583
0.025136
0.024779
4.46669
8.78457
0.0256493
5.79533
0.0259133
0.246981
0.0251507
5.04326
2.48023
0.0316301
0.025485
3.42573
0.284127
7.02051
0.0256593
6.52138
2.46281
8.76105
0.0248144
4.59415
6.42007
0.0455738
0.0251456
0.0254994
0.0823015
0.367869
0.0249132
0.0251642
0.0252475
0.0252399
5.16193
0.927336
0.0449492
0.358769
0.0252477
0.0250663
0.115142
5.25868
0.03653
0.025106
0.0253218
0.0253795
8.67653
5.80142
0.0255324
0.0253783
0.240684
0.0451889
0.0363559
0.0252992
0.0263897
0.0301206
0.0855804
0.46084
0.368606
0.191523
0.105251
1.99269
0.0858223
0.0252617
6.16034
0.0253845
0.0269336
0.0272541
2.18089
0.0855534
0.0250693
0.809442
0.124242
12.1939
0.106394
0.0399201
0.0448247
0.0255533
6.81435
0.563854
4.20267
0.0254147
0.0326219
0.358734
3.95537
24.6303
0.0726506
0.163411
0.0281271
0.0272431
0.0253015
0.0608321
0.0979277
0.0254165
0.0585795
0.150925
4.28969
6.32437
0.0271869
0.119471
1.74504
0.0317706
0.025614
3.54371
6.40913
5.71534
0.32266
0.024789
5.57862
0.0806101
0.0251078
0.0346898
0.0798074
0.038751
0.107945
3.93331
0.171069
0.0407073
6.75935
0.0262385
7.30209
0.0256167
0.0255236
4.5209
6.35472
0.683098
0.0262328
0.0257468
0.0253833
0.0462209
3.37941
0.13048
0.0274465
0.133268
0.0629701
0.0251548
2.17999
0.126854
0.355038
0.0252202
0.165735
0.0259321
9.79961
0.074133
0.0851135
0.0329496
0.0251431
0.0248347
0.0252556
0.134766
0.0311574
0.366725
7.08339
0.063115
0.0251264
0.167699
0.729481
1.57652
0.0250423
0.0304937
0.0251747
0.0318435
0.0282203
6.24664
0.025605
4.64511
0.0315822
0.163278
0.0976249
4.35973
0.0887509
0.0254552
4.35161
17.974
0.0252701
0.0271697
2.59829
0.257665
0.127585
0.0256171
0.0255119
0.385812
0.027754
0.0777756
0.0697792
0.0248353
0.0589028
4.76418
0.0250221
0.0260393
0.0252739
5.48166
0.0256542
0.027822
6.17529
0.0265175
6.32009
0.0302132
0.0410798
0.025264
0.0567365
0.0253325
0.0648726
0.0251505
0.0970766
0.0259151
26.9274
3.06601
5.292
0.0255594
0.0255753
0.0814014
0.0539127
4.78379
5.59717
0.0572294
0.0253303
0.369656
0.734094
0.335082
0.319672
0.0545583
3.89185
0.0440629
0.0434976
0.161359
0.206661
0.0564349
1.16994
0.0559085
0.0265664
0.0848906
0.0306527
0.0248831
0.0316253
0.0507149
0.0310403
0.0253412
0.0251986
0.0631822
0.026392
0.0788022
0.0253348
0.0253713
0.0256646
0.0262977
0.0246689
0.0289708
0.0253007
5.22296
0.068997
0.398535
0.0250234
0.0256296
0.0541581
0.0675082
0.0258983
8.20387
0.0900988
11.1948
0.0316867
0.13426
0.025549
0.0256585
0.0252168
0.0262828
7.95076
0.0256401
4.47795
0.0292561
6.03504
0.0553918
0.0916023
0.160294
0.0248563
0.0256879
0.0702133
0.0253421
0.0256177
7.91182
0.0258809
0.0255407
0.031007
0.0252246
0.0248478
0.0310999
0.0321341
6.07645
0.0386827
0.0250198
0.0251296
3.9725
0.132653
0.0254164
0.0254151
8.14359
2.32432
8.77468
0.0401814
0.0265765
0.0250131
0.0248289
0.0523507
0.0398203
0.254401
0.0284017
3.83309
0.0254755
0.0268242
9.49493
0.0253597
0.0307897
0.025236
0.0254083
0.049237
0.0478633
0.0256139
6.27552
4.37866
0.0987329
0.0252559
0.0247332
0.126337
3.76284
0.0256485
1.38089
0.0247346
0.0476531
0.0248517
0.024927
0.388507
0.0251417
3.31273
0.0438448
0.0256643
0.0247774
0.0253431
0.0251661
0.0259583
4.19327
0.0249922
0.0249317
5.17971
5.91074
0.0418945
0.0523539
0.0734651
0.0281569
0.0249777
0.0315582
5.06319
0.102673
0.0254737
0.0254328
5.70192
0.0392362
4.4373
0.025655
0.0260036
6.55224
0.0366709
0.0256845
8.03812
1.76145
0.0251629
0.145437
0.0252133
0.0251217
0.025005
4.34037
0.02466
0.025025
0.0249699
3.46449
0.0276833
0.244745
0.0703611
0.0249119
0.0368839
0.0255326
4.35408
0.0252527
0.0250081
0.025542
0.131184
0.0255316
0.170753
5.77063
4.77144
0.0298934
0.454336
5.39791
0.0252659
6.96699
9.50936
4.87151
3.46613
5.06679
36.9732
0.156045
0.0255196
3.86148
0.0366142
4.06614
0.0248109
0.0250868
0.025416
0.0255235
0.0289607
0.0349498
4.59602
0.0250769
0.0253903
6.49066
0.330491
0.0253436
0.0428997
0.032757
0.0253546
2.84677
0.0435702
0.0269435
0.0276222
5.75719
7.91291
1.34475
0.0248367
0.287212
0.123714
4.6512
6.00771
0.0954009
0.0251443
0.0256072
0.0254784
0.0246111
0.0263808
0.0248032
0.0302337
0.0428267
5.57926
0.141673
0.0250418
0.130847
4.34273
0.0464526
0.0255357
6.52969
0.025061
0.0255427
0.0423975
6.54364
0.0255319
0.0252194
4.37727
0.218636
1.31245
0.115558
0.973297
0.025189
0.190707
0.0255625
0.0252978
0.0255573
4.23661
6.4108
0.0249173
0.024771
0.0252505
2.79377
0.0261683
0.0327963
0.0253453
0.0256138
0.184794
0.024925
0.0661033
0.382543
3.61141
0.0251751
0.0941779
0.0273654
4.5369
4.29288
0.0253125
4.49965
0.0784613
1.4804
0.0255299
3.62037
0.0256274
0.0297002
0.0478546
0.115675
4.46347
0.479251
0.188709
6.49471
0.0251182
0.314356
0.0249156
0.0306285
4.37198
0.0253306
0.0256373
0.0259391
0.0253344
5.15283
0.0248527
0.0254121
0.059935
0.0521079
0.0543185
0.652449
0.139518
7.75458
0.0704095
0.0384588
0.0425171
4.69115
0.0430053
14.1635
4.05159
0.0284058
0.0249236
3.34095
0.353575
0.0255284
0.120635
0.0369332
0.0254224
0.0293592
0.0253733
0.0478909
0.0256895
0.0533915
0.121378
0.0251382
0.0671436
0.024969
0.0670227
0.0251436
0.0293739
0.063378
0.0265254
0.025237
0.0249293
2.15541
0.0906907
6.19835
0.0253028
0.025329
0.0642973
0.0252372
0.10061
0.0911115
0.0254244
0.104257
0.024953
9.99044
0.025497
0.0402362
5.48439
0.311439
0.0251975
0.0267709
6.8161
0.0253015
0.0251903
4.49337
4.21415
0.027384
0.175879
0.0254396
0.0252287
4.28523
0.0261491
0.0248694
0.277358
0.0249669
2.17079
0.0255641
0.0248757
0.0254184
0.141751
3.70928
0.0253663
0.025487
0.0251907
0.0290446
0.0254052
1.05806
0.0647419
0.0256586
5.73325
0.05557
0.317862
3.71026
3.66506
0.024904
0.0254839
0.0252801
0.829311
0.029517
3.74782
5.78143
0.0270942
4.27642
2.35728
0.0538341
0.154598
0.078525
0.435018
4.50537
0.0712164
1.12419
3.84493
0.0687866
0.0283463
4.51447
0.0607596
0.024825
0.0263695
13.4658
0.0427964
0.0251289
0.058953
0.110642
0.0430161
4.41403
0.0268907
6.4978
0.0425798
0.302508
0.13697
0.30761
0.0320524
0.0249475
0.0257551
4.75033
0.0252905
0.0272926
0.0249943
0.026405
0.0250709
0.0396989
0.160643
1.94144
0.0494297
0.0648279
4.01723
0.399744
0.0250554
2.40741
4.16989
0.0249135
0.0251783
0.033892
6.79162
0.0256394
0.0761317
0.67318
0.0538968
0.0253274
0.0261836
0.0249774
0.120991
0.044336
0.0252887
31.1015
3.90154
0.0483046
1.69355
0.0697207
5.68705
0.0264544
0.0284492
4.30916
2.29579
0.0962516
1.82647
0.0314376
0.0256684
0.0250955
0.0253728
0.0253116
0.0258368
0.0593216
0.0252086
0.131543
0.0252227
0.0315561
0.0248957
0.0908853
0.130304
0.873779
0.0252584
0.304504
0.0250947
4.42992
0.0253424
0.0287844
0.0254658
0.275645
4.66161
0.149606
0.0251991
0.142064
0.0252528
0.0329022
4.17762
0.0251003
0.0255774
0.0502272
0.0346588
4.28043
0.0252092
0.0333373
0.0261685
0.0253534
0.0360418
0.0256553
0.0249628
0.0268472
6.44428
0.0275488
0.262608
5.75678
0.0565138
3.60736
0.0273025
0.0249712
0.0347304
8.39083
0.0263736
0.040884
0.0451211
5.10455
0.025149
5.78742
0.0687077
0.0768316
0.0248998
0.0247981
0.181245
0.0256394
0.0256813
0.0378573
0.0248262
0.0275537
0.0316916
0.0751852
0.307763
4.2932
0.0281431
0.0792795
3.10322
7.49119
0.0405484
0.297847
6.64897
0.0425591
12.9972
0.0268458
20.7514
5.45268
0.0247956
0.0256494
0.02524
0.0256792
0.0499376
0.0248934
0.0270707
0.095521
0.0263701
0.0397888
4.25888
0.0338616
0.0271715
5.70314
0.0256907
5.71406
0.0273285
0.0613933
0.0251353
6.80274
6.05431
0.025251
0.0257937
3.77205
0.0331209
6.78477
0.0253317
0.0249615
4.28633
0.0257872
0.0497876
9.51343
0.0253816
0.0599789
0.0323248
0.0247913
0.0251686
3.83654
5.63589
0.0253766
0.0265554
0.0253032
0.0296765
0.0405714
6.09661
0.0258726
2.60293
4.36312
0.282595
3.25443
0.0257404
0.12968
0.219581
0.032626
0.0253784
0.0644562
4.08016
0.0265657
0.0520656
5.00161
3.679
0.322836
0.0283895
0.0254804
0.0256285
0.0253838
7.53552
0.0594047
0.0268433
0.0258986
0.0274446
0.02566
0.0252281
0.0253386
0.0779207
0.0410536
5.64139
0.052478
5.03212
3.43018
0.0341145
0.054971
0.0250464
0.0318048
8.26423
0.0253341
0.0267068
0.0554764
0.127699
0.0633695
3.87881
0.242945
0.0250682
3.94451
0.0247487
0.0253971
0.0520592
0.0256648
0.0250562
0.183098
6.87619
0.0249733
4.22449
0.0253123
0.0248917
0.0266224
2.7145
0.0322881
0.0272975
12.615
0.026055
0.255308
3.43762
0.0256285
0.0540044
0.0253162
5.86137
0.0774844
0.0253393
4.09552
0.0585199
0.0886119
0.0256714
6.58834
0.0328093
0.450525
0.0259823
0.0810762
6.87822
0.0249212
1.52784
0.0253589
0.0683888
0.0586698
0.0256273
4.56402
0.0267672
0.125062
0.0632923
0.108135
0.0454451
0.0489078
0.0258018
4.96639
0.0357424
7.01363
0.0335897
0.0688194
0.0251583
0.048706
0.0253152
0.0742971
4.62639
0.0259242
0.0250467
3.45289
0.0259254
3.26074
0.0256119
4.30994
0.35656
0.0388939
0.025285
0.0252162
0.0254418
0.0247988
0.112825
0.0630683
0.0439655
0.0289325
0.0254119
2.51373
0.0266349
0.037495
2.71692
0.0253086
13.3877
0.0553548
0.0327914
1.30845
4.33922
0.364576
4.47657
9.53145
0.0251384
0.404136
5.00907
0.3821
0.0255318
0.0254608
0.122101
4.02862
5.59093
0.6995
0.0253943
0.0575676
0.0432742
3.44265
4.94847
0.0450896
0.137222
0.0270561
0.0908881
0.0960227
0.0255208
0.11523
8.04049
0.0254739
3.37304
0.0256378
0.025123
4.70834
4.00512
0.0250996
0.0254669
0.0256201
0.0249749
0.0548662
0.190424
0.0261524
0.0252854
0.0254325
0.043248
0.0309568
0.0306905
0.371585
0.0253177
4.08691
7.64682
4.24792
0.173472
0.0575794
1.01912
0.0365161
3.82276
1.88397
9.95259
0.0256097
6.67862
3.50437
0.0249911
0.0253472
0.114683
4.48601
9.78555
0.0249102
0.0252618
3.60513
5.05031
7.24539
0.0271082
0.0271026
1.91271
0.0254255
3.70921
7.18901
1.31876
2.77399
0.0253297
0.0251867
0.0251509
0.0294193
4.11124
0.0431341
0.0284742
0.0258429
0.0985738
7.19378
0.0432161
6.16304
5.37363
5.27466
2.20046
0.0253635
0.0255304
4.33411
0.0248397
0.0248244
0.0262425
2.8594
0.0404189
9.29662
0.145255
0.0253319
5.43129
0.0431718
0.0250785
6.10935
0.190451
0.028254
0.0252281
5.0832
4.47323
0.0255406
7.45485
4.42975
6.14387
2.53468
0.0933717
0.0251784
0.0256907
1.92751
0.0286613
4.48758
0.0459144
3.73044
0.285909
0.0260997
0.0326137
0.0251653
0.0259123
4.67418
6.94972
0.0253848
4.90717
0.0458696
0.0252705
0.0280063
0.0252088
0.17666
0.0256007
2.34925
0.0582258
0.0251663
0.0251327
0.10886
8.10486
0.0421921
0.0271499
0.0472122
0.0253133
0.0262257
0.0303762
8.85009
4.12755
4.47792
0.0249211
0.0251243
0.0255553
0.130847
0.025129
0.0255962
0.184519
0.0632646
0.834482
0.0247818
4.44663
4.10022
0.0256791
8.92898
0.12386
0.0401302
2.0826
0.0255046
5.09931
0.0331635
0.0262588
0.0270973
0.0248351
0.227833
0.0256912
0.0258513
0.0347067
3.55274
3.64037
0.0256283
0.0253306
0.0266258
0.0251785
0.146429
0.0256575
0.0926083
0.0266015
4.13794
0.0257589
4.20272
0.0249216
5.58606
0.0255518
0.0248127
6.85609
0.359951
0.124616
1.15321
0.0497846
0.0438438
0.0253445
5.17433
0.0253783
0.0251377
0.0985336
0.0687697
9.94261
4.48845
0.134288
6.98398
0.142581
1.03641
0.0249881
0.0279953
0.0309424
4.14619
0.0279994
4.26784
4.51375
0.0253113
0.0253438
0.0252579
1.68288
3.37477
0.0264332
0.0254469
0.028943
0.0312639
0.0411722
0.410389
0.357006
0.0253873
0.696625
0.0939442
8.51882
0.0787627
0.0264379
0.0269887
5.25201
0.0251472
0.0980397
4.57175
0.0259314
0.0285478
0.190079
0.151703
0.0259752
6.49633
0.0274629
0.315062
0.0434601
0.0340488
0.0258386
4.40741
0.0251129
0.110346
1.49915
4.81665
0.0544825
0.0744732
0.028622
0.0537946
0.0256546
5.00966
0.0297119
0.0251329
0.0329982
0.0254243
0.0256591
2.98333
0.0253892
0.0255401
0.0252882
0.13974
0.0254899
0.0365937
0.0779064
0.258581
0.128987
0.0256384
0.272915
0.530403
0.246264
0.0939959
0.0306759
0.17104
4.78911
0.712127
0.0256794
7.69246
4.20678
0.0256786
0.0272197
0.0248236
0.753755
0.117359
0.0251815
1.33797
4.19821
0.0250452
0.0254599
3.81082
4.18469
0.0702959
0.0248367
11.297
3.32377
3.29344
0.0253364
4.16204
0.0883862
0.0799755
4.41213
0.029249
0.0248392
0.0332172
0.209512
0.0351205
3.99583
4.52129
0.0250388
6.52326
0.58231
4.59371
0.024917
0.0580182
0.0255287
0.0251729
4.13311
3.00889
0.308003
3.81726
0.0328674
0.0553684
0.0254837
4.68662
5.93852
0.0253509
0.0254302
0.0357458
0.0249443
0.0551254
4.44584
7.47947
0.0559599
0.025617
0.0252719
4.14425
0.0281875
0.0574141
0.0250126
0.0261817
0.794139
3.35647
0.359482
2.98331
0.0255285
0.326962
0.0255674
0.0539705
9.71501
6.87659
0.0253961
0.0256918
0.0386765
0.0289624
0.0254394
4.38913
4.17579
0.0249632
0.0246314
0.0255551
0.0252589
2.74549
0.0248874
3.92419
0.112636
0.0686181
0.0250603
0.0539573
4.66711
0.0367398
0.507724
5.81519
0.0254774
7.13308
0.0372898
0.0399467
0.408734
7.25304
4.66243
0.0648102
0.0251518
0.286839
0.0249008
0.0284797
0.0254525
3.93147
0.0356792
2.8219
0.339899
0.0530068
0.0254668
0.323958
0.0299651
0.0256607
0.291513
0.0247632
0.0411441
0.0373685
0.0254197
9.77621
0.0265667
0.614702
0.0260418
0.0252135
5.52282
3.68925
0.0273158
0.0365889
0.0422208
0.0651662
0.062917
0.0292648
0.0290986
0.0282799
0.237114
0.0282296
4.03917
0.0672978
0.282473
0.125014
0.0257632
4.5501
0.0247796
4.50636
0.0274093
4.35094
6.28214
9.21882
7.7749
0.336612
0.086581
0.0251531
4.26952
0.0966531
0.0253368
7.97365
5.68643
0.0264882
0.0268211
0.0339969
0.0340025
0.0354698
5.22673
0.0256789
0.0329076
0.0381892
0.0362577
0.0255201
0.0910523
0.024766
4.135
0.0268667
0.147398
0.0351099
0.0430263
0.13853
3.44228
0.0959155
0.025062
0.275576
4.2576
22.5302
0.0255146
4.18763
0.0321003
1.84824
0.0253785
0.0277121
3.84028
0.0558103
5.07479
7.42414
0.037639
4.99938
0.0252046
0.0247504
8.94377
0.0663396
0.0276356
5.38382
0.0301279
0.0516285
0.03304
0.0795336
0.0253484
5.76576
5.27016
7.09169
0.311814
0.0286262
0.0642524
5.05136
0.0272423
0.025537
0.0930744
0.0248746
0.334505
7.72503
6.39924
5.35328
0.0599148
0.0255775
4.19113
0.0247571
0.0795746
0.0256139
23.8865
0.0269569
0.0534954
3.75305
0.130193
0.0253386
0.0361495
8.9468
0.0253485
0.156305
0.024989
9.53221
4.28769
0.122448
0.0883604
0.0252379
0.218992
0.146318
0.0428007
0.0249961
0.0256055
0.0254964
0.0588448
0.0254653
0.0920941
0.0253847
0.0249845
6.47653
0.0250635
0.03002
0.0281236
0.0256664
3.6507
0.0250691
0.0379299
4.01394
0.0522738
3.95642
0.0253336
4.50203
0.0550432
5.15128
0.0267393
0.13502
0.0252959
0.044343
0.130956
0.120099
0.283864
4.13641
0.240487
1.99761
0.0303967
0.118572
0.0470484
0.968882
0.0282617
0.0252442
0.0253104
0.0558477
0.0521466
2.48358
0.0581596
4.65891
6.86308
0.115382
0.0252487
4.49356
0.227045
0.025695
0.0272721
0.0253309
4.93722
0.0253203
8.24281
0.0250524
0.030118
4.93103
0.0887972
0.0253534
0.025308
7.86499
0.025089
0.0272556
0.0283195
0.0364034
0.0308635
0.0253852
0.162816
0.0916809
0.0493975
0.36
4.44048
3.64959
6.18353
0.0249426
0.0252566
0.115771
0.0255892
0.0528519
4.13262
3.77712
0.0248327
0.0253466
3.42867
0.401367
0.0248526
0.0250618
0.0299363
13.0437
4.0503
0.029722
0.0377133
0.0255667
0.401221
0.133988
0.159194
0.0356928
0.0499552
0.0256425
0.0418381
0.335555
0.0259826
0.0253161
0.0295273
4.53035
0.0283875
7.37112
0.0254443
3.81291
0.0410904
0.0314874
0.0250031
0.0251994
0.879312
7.86577
0.0651502
4.26958
9.64216
0.0257488
4.01675
0.151961
0.0250917
4.63114
0.290916
0.12299
0.0256386
3.51897
4.53666
0.0251046
0.0446056
4.30731
0.0507266
0.0252945
0.02498
0.0255539
0.0269897
0.0907361
0.319988
0.0871556
0.0866384
0.0249036
0.0254243
4.64439
0.025053
0.0546544
0.0299675
0.0252496
0.0554665
0.0253332
0.026924
0.363747
0.0253013
4.50064
0.0253252
15.1729
3.67362
0.103199
0.0254625
0.0256904
4.21396
0.0248199
0.027338
0.0255703
0.374756
1.38779
0.0370301
3.67488
0.0471746
1.30646
0.0257577
0.0747489
0.0249473
0.0254873
5.08913
3.72632
1.50067
0.0269306
0.0750972
0.0749154
4.78423
4.0796
0.343534
0.0433303
0.0247514
4.1633
0.0250853
0.0251506
0.318194
0.121132
0.0318361
0.22601
0.0535687
0.0354687
0.0308841
5.20895
0.0274786
0.0252934
6.83383
0.053722
0.0249032
3.50678
0.025347
0.0254501
0.176161
0.170265
12.1269
0.0249263
0.0279881
0.0251754
2.28051
0.025089
0.611027
4.11412
3.60786
3.49692
33.2404
0.0340411
4.47895
0.917528
0.0255803
0.0344606
0.0491554
0.0342143
1.27983
4.14912
4.45023
3.57854
2.45165
0.0253922
0.113558
0.0253572
4.86596
0.0318503
0.0262459
0.0272243
0.0258403
0.0251151
0.114695
4.44999
0.0249268
0.0267756
0.0251224
4.57458
0.0266232
5.57642
3.87654
1.41052
0.0254259
0.0251225
4.44888
0.433297
0.0254864
0.342744
0.0256046
0.15798
0.212099
0.10397
0.055668
10.7309
0.0250107
0.024945
0.235339
3.38313
0.0326436
0.0530592
0.0251895
8.52151
0.0253089
0.025237
0.0262935
0.0252607
5.21277
4.04612
1.6013
0.0649002
4.23203
0.581809
0.0248427
0.0342872
0.024888
1.31228
0.0251494
0.0280507
0.0252787
0.0251937
0.0249461
2.91422
0.0259201
1.76589
0.0247216
0.0366929
0.0260595
1.60419
0.025364
0.0347766
0.0382551
0.0792575
6.72707
0.0251873
4.26607
0.077304
0.0516121
0.0250803
0.0252247
3.5482
16.203
0.0251637
0.0250706
0.296939
0.25889
0.0433275
3.93689
0.0259655
0.452798
0.0344658
0.0249028
5.48259
0.0261083
3.92914
0.0253139
0.0258386
0.0254621
4.26431
3.59496
0.0248602
0.272383
0.257225
0.0253828
0.0250523
0.025149
0.29181
4.0111
0.0726067
0.0273178
0.0435398
0.0253416
0.0253085
0.0268137
0.0253089
0.200193
0.0253234
0.0683164
0.693143
0.0396386
0.0247913
3.97565
0.0803247
0.025354
0.0909698
0.0337993
1.38896
0.0277113
10.1157
0.0631047
0.0252321
0.0970271
0.0959394
0.0277787
5.98503
0.0644875
0.0329279
1.80331
0.0251797
0.170121
0.0995972
0.143587
0.0252202
0.0252299
0.0248159
0.0374667
0.0600083
0.0587133
6.48175
4.65955
3.90829
0.0256557
1.94312
3.7385
4.21874
0.0252772
0.0252614
0.0583757
4.14704
0.0273779
0.0384598
32.489
5.05819
16.8866
0.128498
0.182843
3.41509
0.442082
0.0247638
11.911
0.300477
0.0254899
0.0254859
0.025999
4.6874
0.107891
5.30074
0.0271407
8.81939
0.0253149
1.3397
3.8587
0.0254431
0.0373267
4.26578
4.71367
0.0617213
0.0259987
0.0269261
0.0256142
0.259001
0.130167
2.89666
4.1269
0.0249417
5.32302
0.186651
1.41288
0.0253418
0.025521
2.5867
0.292789
0.0252149
0.0554321
0.0824865
0.0441171
4.09661
4.5504
4.68824
4.11822
0.0286537
0.0248225
0.074669
4.5535
10.1949
0.0251086
0.314139
0.104895
0.495425
0.0255853
0.0256419
1.27008
4.01231
7.24953
1.73256
4.26001
0.025243
0.279564
4.10608
0.0254751
0.0701704
0.117532
0.0248706
0.176556
4.9141
0.281557
0.0256406
5.28905
0.128223
27.2377
0.0246382
0.0267293
0.0253705
0.0262295
0.0253403
0.0608913
0.0455509
0.0477548
0.372466
0.0369904
4.21417
0.02852
0.0320541
0.0313237
9.13931
0.0650976
5.024
0.0313693
0.0313718
19.2714
0.109548
0.0253388
0.0478364
3.955
5.3439
0.336773
0.0252193
0.0251539
0.0251631
1.04623
0.0263593
2.51717
1.36832
0.290474
0.0354089
0.288031
5.62379
0.0253419
7.31675
0.0378314
0.0574318
0.0251626
0.0250763
0.0588281
4.36339
0.0254087
4.97895
0.565607
0.111481
0.209761
0.0250956
0.0253337
0.0331643
0.0260162
25.343
24.7489
0.0958591
0.883794
0.0252022
0.0252806
0.025354
0.0256279
7.47238
0.0263219
4.54448
0.0981646
0.0256129
0.424717
2.92049
3.48828
8.66765
0.0266493
0.024927
0.0254742
0.0265732
0.794489
0.276242
5.91305
0.0255074
0.0255515
0.182267
0.0256472
0.212635
0.0268932
0.17109
0.194678
0.0465717
0.0449298
0.0249161
0.0518832
0.0431232
0.239016
0.0911653
0.0480359
0.0251252
0.276266
0.0251277
3.43097
3.67717
0.985025
0.0253285
0.123386
0.02527
0.053868
0.0261098
0.0258131
0.0317765
9.00648
4.05461
0.0895614
0.0535776
0.260494
0.0887465
3.99997
4.27809
0.0348568
4.21565
0.392266
0.0250598
0.0635114
4.29504
0.108631
0.025615
0.0599741
2.30726
0.461049
8.43036
0.0253116
0.795475
0.0254265
0.0251865
0.0455873
0.324639
0.0256519
4.28072
5.12075
0.220434
11.0458
0.421199
4.76557
0.352349
0.0249196
0.0279476
0.0248003
0.0479707
0.319807
0.468802
0.0275727
0.0472612
0.0247777
4.37539
0.0419194
0.0527153
4.06395
0.111626
6.69315
4.75194
0.0252213
6.81027
0.0254551
0.031909
0.0531541
3.86197
0.164413
0.0313623
0.0263038
0.628755
0.037931
4.27751
5.93286
0.0364471
3.32168
0.048886
0.0256641
1.20721
0.0702707
0.0262098
9.13646
15.1173
0.033196
0.0293268
0.140079
5.9936
0.0252188
0.0253971
0.024855
0.0249686
0.0255648
4.82889
0.0355284
3.92428
0.0252436
0.0251028
0.883839
0.0253499
0.0267363
0.0253773
0.0253339
1.81533
0.0249405
4.76312
0.0251515
0.0261977
0.0467524
0.0254275
0.163145
0.0249541
0.0256536
0.0249839
0.0309716
0.100987
0.0275868
3.67623
0.0251743
0.0491592
0.0330095
4.25808
0.0259685
0.0256584
0.0248383
0.0248602
0.427255
0.0251524
0.0250817
0.0277177
2.28216
0.0252154
0.0483921
0.0367972
0.0252666
4.87877
6.61303
0.298617
4.95251
0.0279314
0.119085
0.0254021
0.111662
0.369789
0.0254527
1.90321
0.139798
4.63453
0.0346057
0.0253372
1.63051
0.0489866
0.860718
5.11171
0.0247072
0.0252524
7.52769
3.30972
0.0644355
0.0639949
0.026255
10.4444
5.7396
0.0246421
0.025253
0.0252756
0.0255314
0.0256309
0.025332
0.0399715
4.25262
0.0348737
0.0254356
0.474773
0.0252813
0.891606
0.0524072
0.0252154
0.0307447
0.0251756
0.405443
0.0280951
0.0575361
0.0252235
0.0254363
4.53245
4.94177
0.0255358
0.0558806
0.0500675
0.0348859
0.0271226
0.0256619
0.0258857
1.69887
0.61092
0.0437504
4.92321
0.0256259
24.1271
0.11485
0.0290939
17.6682
0.0262778
4.26935
5.37132
3.4859
4.27249
4.12253
3.73528
0.0247826
0.0304791
0.0279391
0.0247881
0.0248972
0.0324661
0.0849645
0.0249548
0.0331339
0.131138
0.0858628
0.334211
0.221277
0.0371251
1.88399
9.52294
0.0382182
0.0280898
0.137831
8.65843
3.84333
0.0287582
0.0247651
0.0251003
0.0249735
0.0351673
3.83019
0.407213
0.0248903
4.67589
0.0252745
0.148379
4.13958
0.0918082
0.214619
0.100709
0.36752
0.0260412
0.0374738
0.02511
0.269089
0.0252236
0.0261282
0.0365374
0.163813
0.0255358
0.0276352
5.62876
0.0250583
0.0252277
0.03272
5.66309
0.128064
0.485883
0.0432423
0.0255003
3.41508
0.0418233
0.0264367
0.0253093
0.0344645
0.0298331
0.0253205
0.0310798
4.47125
0.0267559
0.0248136
0.0528598
0.0251341
0.0356666
0.0339432
0.025388
0.0252937
4.6983
0.0249092
0.0253391
0.0248312
0.0289626
0.0245996
4.92546
0.0290641
0.235737
0.0252493
0.0250787
0.0252003
4.35439
0.0702358
0.0253289
0.024745
5.58205
0.0282794
0.0730764
0.0251071
0.164758
0.0265632
0.0247051
4.09675
0.0249081
0.0254956
0.025496
0.0251469
0.0273359
0.0254683
0.0253482
1.69266
1.57316
4.65672
0.288474
8.23877
0.0250801
4.65733
0.0252571
4.0607
7.81709
0.0250309
10.1942
0.0252733
4.21578
11.5242
0.299086
4.14322
3.96701
0.886191
2.2869
6.03341
5.24803
0.0487694
0.0458428
4.62341
0.0267023
0.0248379
1.58931
0.0269978
0.0318064
11.8142
0.0261717
0.80807
3.67801
6.43311
0.412918
0.126427
0.025636
0.0317936
0.0545233
0.0254443
6.92327
0.394876
0.121646
0.0251508
0.0253935
8.01842
0.0248736
0.785587
0.0250377
8.98853
4.48759
0.0377468
0.0293197
0.0252525
10.1275
4.05586
0.0286574
0.0376495
0.025681
0.0256807
0.0628541
0.0263735
0.0360289
0.0752943
0.0274543
0.0361726
0.0253442
0.036162
15.0643
0.0256532
10.6999
0.0251405
3.58933
0.0615574
0.0253483
10.0272
0.134686
0.0250858
0.174429
0.025335
0.319405
0.0254379
0.025306
3.90253
0.0254949
0.116688
0.0265172
0.148214
0.0250431
0.0255624
0.025109
0.0338634
0.027433
0.0255221
0.0258159
0.0285208
0.0256715
0.132303
0.0728789
0.0329702
0.0265548
0.0247661
2.39596
8.67838
0.0259882
0.0257511
0.0258661
0.0425717
0.0254352
0.0392386
0.0247183
0.0256804
0.256697
0.0265401
0.0256795
0.0251622
4.85328
10.8397
0.0247588
0.0807814
0.0653169
0.260612
0.232269
6.7944
4.38272
0.710432
0.0260609
0.146904
0.0252046
0.0353135
7.03946
4.48304
0.151992
0.0271183
15.2722
0.0253545
0.0525787
0.439986
0.0254606
0.144799
0.0266374
0.0264358
0.0838381
0.15633
3.9255
3.45356
0.0250212
0.0247479
4.82648
3.80535
0.0254688
0.0326808
0.130055
0.0253382
0.0253211
0.0272771
2.26379
0.0249861
4.27762
0.0332368
0.0253975
0.269902
0.0795755
0.0739384
0.128756
4.877
0.0276124
0.0380749
0.0306639
0.0269591
9.48665
0.035023
4.23411
4.18829
0.0753853
4.11645
0.0522387
0.0539866
0.384338
0.0249232
4.34866
0.0988143
0.0378821
0.0327661
0.0255372
0.0248227
4.10815
0.0487626
4.23837
4.33746
0.0254532
4.26008
0.0250772
0.0252148
0.0323625
11.176
0.0803952
0.0248194
4.07943
0.0252533
0.0270007
3.9278
0.0268521
3.53173
0.0256637
4.44819
3.94026
0.0777811
2.77984
0.0265833
3.51374
0.0247599
5.3865
4.81552
4.45221
5.05954
0.025228
0.0250013
0.265547
3.73316
3.49709
3.88236
3.81932
0.0253592
4.91945
3.50627
0.0256348
5.15125
0.0355116
0.036681
12.0704
0.0430335
4.34127
0.0251445
0.0426913
0.0379688
0.22667
6.19308
0.0414332
3.62804
4.42559
0.0255296
0.0278192
0.0269947
0.0279411
3.50771
0.0253164
0.0249732
0.0443881
3.7343
3.92956
0.0314161
3.92898
4.1478
0.0252184
8.38246
4.72399
0.189915
4.04909
0.0748131
0.0275799
0.0255303
0.17484
0.0296134
0.0902686
9.81063
4.5832
0.0326575
0.07887
0.0289986
0.0423017
0.0248358
0.0452322
0.0278749
0.101186
4.60395
7.19098
3.90423
0.0248088
0.139943
0.068179
4.25382
0.0264286
4.6855
4.70735
4.30986
0.0252714
0.194597
4.59252
10.6994
7.27441
0.0410697
5.53255
4.17623
0.0679967
0.0738512
0.0272084
0.0328972
4.7611
0.0510675
0.0255485
3.37958
0.0252292
0.0254375
0.131434
0.131425
0.0249838
0.102295