/*--------------------------------*- C++ -*----------------------------------*\
| =========                 |                                                 |
| \\      /  F ield         | OpenFOAM: The Open Source CFD Toolbox           |
|  \\    /   O peration     | Version:  v2012                                 |
|   \\  /    A nd           | Website:  www.openfoam.com                      |
|    \\/     M anipulation  |                                                 |
\*---------------------------------------------------------------------------*/
FoamFile
{
    version     2.0;
    format      ascii;
    class       volScalarField;
    location    "200";
    object      p;
}
// * * * * * * * * * * * * * * * * * * * * * * * * * * * * * * * * * * * * * //

dimensions      [0 2 -2 0 0 0 0];


internalField   nonuniform List<scalar> 
13917
(
-0.0844271
-0.00244462
-0.0966822
-0.0383605
0.0268234
0.456819
-0.0906223
-0.104972
-0.186157
-0.137068
-0.0991848
-0.0745891
-0.0388629
-0.112503
0.0466658
0.0238818
0.00405048
-0.12575
-0.0736365
0.00958247
0.0195805
-0.0861079
0.0145504
-0.110318
0.0260732
-0.0812247
0.21661
0.229678
0.0951276
-0.193679
-0.0993274
-0.0434808
0.170966
0.108961
0.0308712
-0.0932275
0.0145834
-0.115007
-0.0448341
-0.0639155
-0.000745129
0.0181939
-0.0117609
0.256181
-0.0228032
0.125772
-0.123067
-0.125641
0.509077
0.00429996
-0.0675432
0.057455
0.512084
0.113131
0.00545625
-0.0678324
-0.100156
0.0250234
-0.0535172
-0.0215445
-0.384404
-0.0039973
-0.111192
0.00971939
0.44793
-0.380671
0.0279109
0.0352359
-0.138736
-0.0503732
0.0263937
-0.185076
-0.214653
0.0253463
0.495529
-0.0674028
-0.173669
-0.0367576
-0.0751958
0.0193297
0.0162364
0.0273696
0.433585
-0.115852
-0.40067
-0.0358215
0.0141234
-0.339075
-0.0658314
-0.0120903
-0.177073
-0.175735
-0.00801768
0.0476407
-0.370842
0.449585
-0.11424
-0.126595
-0.0745952
0.330132
-0.00235055
0.166781
0.264718
-0.0441482
-0.00502673
-0.196925
0.0648235
-0.128315
0.00219954
-0.101082
-0.330331
-0.0647167
-0.076856
-0.193302
0.0739696
0.511922
0.0167881
0.498885
-0.0849676
0.111938
0.0182774
-0.139617
-0.0918648
0.223411
0.00270045
0.0461857
-0.0180236
0.00293877
-0.0097705
0.457213
-0.0918087
0.0716627
-0.022994
0.0198857
-0.267714
-0.107388
-0.0817717
0.344578
0.0282139
0.111099
-0.0958649
-0.0121967
0.0602402
0.290817
0.0358249
-0.179169
0.0366421
0.0556497
-0.0116505
-0.0386103
-0.0992587
0.507041
-0.0949715
-0.017708
-0.0594991
-0.40607
-0.0455323
-0.121052
-0.174039
-0.27715
0.081013
0.215792
0.0169271
-0.11249
-0.0773594
-0.0751688
-0.0432211
-0.111741
-0.0171835
0.172166
-0.0379414
-0.35645
-0.0746669
0.00695532
-0.153281
-0.0105463
-0.0894712
0.506051
-0.173223
0.00415172
-0.181672
-0.104971
-0.0127838
0.0143774
0.0790877
-0.0839232
-0.277222
-0.402611
-0.100554
-0.0816063
-0.108407
-0.400594
-0.273802
0.0184045
0.362158
0.208541
-0.00456795
-0.00797876
0.046684
-0.340701
-0.0583081
0.00458819
-0.104772
-0.0976019
-0.213025
-0.218621
0.0305721
0.0258928
-0.12366
-0.0874569
0.0581509
-0.0916764
-0.214079
-0.0823562
-0.00462853
0.316275
-0.115581
-0.312593
0.0143363
-0.376981
0.00431853
-0.182669
-0.000300818
-0.124412
-0.204124
0.0231219
-0.289574
-0.0626126
-0.00404241
-0.0925829
-0.0735168
-0.098984
-0.0976614
-0.216213
-0.004095
-0.0467976
-0.178262
-0.406703
0.0173819
0.00492061
-0.0609813
-0.119364
0.00766637
-0.0884025
-0.164262
0.208288
-0.0803508
0.0165962
0.0238904
-0.198283
-0.026572
-0.203482
0.345745
-0.0179699
0.0256797
-0.0896804
-0.0633691
-0.0941215
0.0777668
0.0430986
0.00795419
-0.0908645
-0.282258
-0.0809158
-0.00350776
-0.251043
-0.118435
-0.122944
-0.0710436
-0.0679465
0.0166501
0.00160148
-0.122181
-0.140599
-0.149897
-0.0518765
-0.221977
-0.0600248
-0.00973491
-0.32911
0.0084328
-0.150476
-0.0565711
0.00761448
0.0173826
-0.012524
0.216086
-0.0894604
0.0160879
-0.028501
-0.261435
-0.096566
-0.276576
0.0146284
-0.130364
0.0250038
-0.0285701
0.0163974
0.00330056
0.00619456
-0.188199
-0.0756373
-0.0169872
-0.104773
-0.0192032
0.51595
-0.00887203
-0.169127
-0.0168491
0.0248884
-0.336298
-0.0962757
0.0164568
0.000752368
-0.335645
0.000160315
-0.211929
-0.0160945
-0.126211
-0.0314966
-0.256348
-0.0836869
0.476629
0.0773645
-0.271376
0.349804
0.0151047
-0.121448
-0.0670522
0.0248393
-0.0988098
0.358173
-0.119442
0.0985989
-0.0734381
-0.0530837
-0.37346
0.345581
0.0387188
0.0267568
-0.0959452
0.0205543
-0.0443654
-0.331831
0.0393198
0.0179648
-0.11344
0.0412618
0.00191376
-0.108487
0.130456
-0.000600611
-0.0841988
-0.0992475
0.00853266
0.00276059
0.0248495
-0.012051
-0.255246
-0.165691
0.407878
-0.33859
0.0217244
-0.210829
-0.400962
-0.0947387
-0.0898711
-0.142431
-0.200652
-0.00455696
-0.0807083
0.0011547
-0.376323
-0.0206098
0.466732
-0.167681
-0.0473872
0.0209487
-0.121015
-0.18856
-0.143262
-0.0859845
-0.371343
-0.31353
0.018186
-0.12944
0.00507907
-0.407736
-0.0859022
0.0205413
-0.265969
0.0256133
-0.21512
-0.0315717
0.0205173
-0.0143912
-0.0664862
-0.0125842
-0.0646974
-0.390598
-0.0928088
0.384339
0.022957
0.332903
0.366722
0.0127222
0.0712291
0.0378356
0.026952
-0.192532
0.00803638
0.0276085
0.000818648
-0.250639
0.0193024
-0.0744124
-0.0690207
-0.392546
-0.269493
-0.0706549
-0.290804
-0.0927059
0.0212199
-0.204682
-0.0446307
-0.0521491
0.0184462
-0.166955
-0.0883544
-0.0718388
0.0353288
-0.168194
0.0953561
-0.0458652
-0.140904
2.50888e-05
-0.0803315
0.00105158
0.00627282
-0.213303
-0.0893847
-0.0885268
-0.193478
-0.393034
-0.0990398
-0.291078
-0.150509
-0.00902382
-0.12347
-0.00187563
0.0285373
-0.222237
-0.124388
-0.0113035
-0.146848
-0.0938865
-0.142333
0.0126127
-0.129681
-0.390755
-0.289025
-0.0774543
0.019653
0.0217927
-0.00489318
-0.0401544
-0.00462236
-0.0802222
0.41553
0.0141396
-0.407065
-0.0670083
-0.110627
-0.292358
0.0279432
-0.0915642
-0.0967059
-0.129057
-0.145897
-0.189742
-0.0765461
-0.0862514
0.446545
-0.0721704
-0.126791
-0.00716689
-0.25165
-0.0708061
-0.0182572
-0.035397
-0.0390062
-0.145782
-0.197358
0.000637968
-0.00960144
-0.0864525
-0.291757
0.00784779
-0.0765771
-0.0404018
-0.251841
0.00177936
-0.232354
-0.159149
-0.0414855
-0.0195958
-0.0705822
-0.266453
-0.408467
0.00816728
-0.207705
0.512338
-0.339065
-0.0183319
-0.403064
-0.276505
-0.0925977
0.00213377
0.01054
-0.0650863
-0.216661
-0.0114527
0.00298988
0.00302714
0.00275297
-0.249203
-0.225602
-0.092077
-0.273744
0.00138912
-0.00197806
-0.163968
-0.23903
-0.0901774
-0.0181558
0.0264561
0.0309557
-0.334107
-0.398965
0.0125768
0.030726
-0.0810554
-0.0771352
-0.0826765
0.022969
-0.0100068
-0.0267938
-0.124188
-0.0482829
-0.28101
-0.206123
-0.147959
-0.214685
-0.167546
0.0157807
-0.20125
0.030627
0.0171654
-0.0492568
-0.24777
-0.00989688
-0.00196621
-0.286569
-0.203838
-0.386013
-0.150001
0.120841
-0.0962561
0.0212148
-0.278146
-0.269428
-0.103045
0.00147959
-0.0786744
-0.278453
-0.144253
-0.251321
-0.129289
-0.202388
0.0279243
-0.0381773
0.0241974
0.101933
0.283516
0.0494513
-0.112891
0.348778
-0.103278
-0.408898
-0.0127465
-0.109007
-0.157801
0.0122656
0.0544408
0.355298
-0.222338
-0.159556
-0.266881
-0.00962877
-0.0853589
-0.0660357
-0.00197727
-0.0779538
-0.108367
0.162997
-0.189125
-0.075109
-0.185861
-0.0727645
-0.274287
-0.040953
-0.15201
0.0177543
0.0127607
-0.128551
-0.218893
0.423614
-0.0414928
0.00540002
0.030263
-0.0612653
0.50508
-0.0745877
-0.0404795
-0.0914054
-0.118298
0.00225191
-0.274232
-0.0733163
-0.0741865
0.0121612
-0.180072
-0.0382374
-0.39015
-0.142862
-0.0182157
-0.0798366
0.000292441
-0.0164732
-0.0191119
-0.00374102
0.127095
-0.260384
0.10029
-0.112009
-0.000160018
-0.191516
0.41768
-0.0978834
-0.0259967
0.118047
0.00359182
-0.0581407
-0.0558376
-0.278094
0.0197554
-0.321417
-0.0593705
-0.0974843
-0.174516
-0.224149
-0.0406626
0.0109386
-0.14959
-0.25278
0.0127364
-0.048241
-0.172783
-0.260195
-0.14666
0.00769052
-0.0208418
-0.2391
-0.0479982
-0.143407
-0.0890184
-0.0169997
-0.0953684
-0.100732
-0.0255511
-0.0364959
0.00364284
-0.0943384
0.0202968
0.035393
-0.360307
0.0268623
-0.217117
-0.0583095
0.17498
0.00334832
-0.0220189
0.0167762
-0.144393
0.00046887
-0.096836
-0.0401151
-0.383893
0.199953
-0.242123
-0.00403096
0.0209227
-0.160772
-0.11607
-0.108984
-0.214924
-0.12766
0.0293076
-0.244787
0.441163
-0.0744485
-0.255644
-0.117074
-0.073292
-0.0751108
-0.0595067
-0.201875
0.0679559
-0.12574
0.437131
-0.126537
-0.0416536
-0.109969
0.0108283
-0.0207475
-0.0579377
-0.102408
-0.0341472
0.019003
0.00105515
-0.115325
-0.045601
-0.14653
0.0285651
0.0266376
0.0205643
-0.00516714
-0.0137868
-0.0314277
0.00423663
-0.233485
-0.0716675
0.371245
-0.00344079
0.0141351
0.191471
-0.149822
0.0689078
-0.331074
-0.139405
-0.369898
-0.0593948
-0.175881
-0.0350402
0.0175638
0.00240361
-0.0174289
-0.382997
0.0138168
-0.214875
-0.0323522
-0.402308
0.0303308
-0.146847
-0.0964798
-0.0109666
0.00775345
-0.0729049
0.035144
0.0360005
-0.318608
0.00595291
0.0247812
-0.0687064
0.00395988
-0.00859529
-0.0407041
0.13133
-0.108212
-0.0676756
-0.025535
-0.00116003
-0.145091
0.00594023
0.0177285
0.000423872
-0.323116
-0.165193
-0.333429
0.114536
-0.042556
-0.00368615
-0.00876724
-0.0737065
-0.0724508
-0.114348
0.102031
-0.100462
-0.0105476
0.055914
-0.335992
0.0259964
-0.0718934
0.0136853
0.00585559
-0.0951105
0.223474
-0.0322074
-0.207537
-0.0663921
-0.178464
0.0154515
-0.0148811
-0.0796103
-0.220334
0.00827584
-0.202931
-0.0145338
-0.0979108
-0.0212645
-0.0214778
-0.222509
-0.024943
-0.067552
-0.101508
0.0211582
-0.0112285
0.0418328
0.00567692
-0.0361102
0.249882
-0.0246241
-0.0180695
-0.153824
-0.174534
-0.0741331
-0.110147
-0.135058
-0.0590727
-0.0118391
0.128859
-0.209302
-0.107539
0.0231115
-0.0183663
-0.209409
-0.0970187
-0.342121
0.0209239
0.0711112
-0.096456
-0.0889136
-0.0342788
-0.396775
0.472549
0.00513319
-0.197067
0.00211769
-0.0239882
-0.00363889
-0.248494
-0.0135342
-0.0246732
-0.0124343
-0.0664924
-0.0443116
-0.256375
0.271989
-0.0220285
0.16642
0.0119319
-0.341014
0.00665587
-0.0251549
0.0245839
-0.0803556
0.0247827
-0.184159
-0.0635902
-0.0977273
0.114084
-0.100801
-0.363941
0.0234762
-0.0855903
-0.393653
-0.362398
-0.0716998
-0.152212
-0.395047
-0.188063
0.00876664
-0.0752472
-0.0882573
-0.0879949
-0.0177519
-0.00897842
0.0162145
0.0121515
-0.0640531
0.122564
-0.0984398
-0.00906072
0.0293091
-0.406294
-0.0489237
0.0416672
0.192034
-0.0766106
-0.0288428
0.137867
0.196697
0.0690335
-0.0447426
-0.0655648
-0.338924
0.497489
-0.0209664
-0.263255
-0.199081
-0.393221
-0.207768
-0.0714477
0.000618516
-0.0359308
-0.0091133
-0.0114522
-0.00808087
-0.00898317
-0.0286898
-0.0709952
-0.406376
-0.133382
-0.0250823
-0.171717
-0.284108
-0.0907428
0.0500717
-0.160033
-0.0159476
0.0350471
0.187196
-0.407417
0.0249625
0.0128819
-0.0927148
-0.101952
-0.150452
-0.149168
-0.0950835
0.00763621
-0.201207
0.0509089
0.0101567
0.0532458
-0.0799543
-0.332918
-0.0192218
-0.011586
0.0138707
-0.168673
-0.0041591
-0.0800645
0.0342573
0.00268654
-0.200921
-0.0225821
-0.147735
-0.160165
-0.0867156
-0.0168377
-0.079905
-0.0127855
-0.230175
-0.280292
0.0267453
-0.333525
-0.137941
0.476744
0.0249753
-0.0671157
0.0236765
-0.0660986
-0.084342
-0.150637
-0.0871843
-0.0744622
-0.0729315
-0.231784
-0.000415109
-0.185326
-0.0215368
0.00805276
-0.0964323
0.0279551
0.0236363
-0.019208
-0.026998
-0.405031
-0.0100664
0.0149156
-0.0972085
-0.118212
-0.107857
0.443823
-0.0706292
-0.390493
-0.064115
-0.0948255
-0.0582241
-0.151942
-0.0757819
-0.390092
-0.0778905
-0.0570445
-0.0228662
-0.0655531
-0.0744964
0.0550221
-0.172764
-0.0926587
-0.0329575
-0.065401
-0.0280216
-0.0865053
0.00859495
-0.114553
0.304985
0.00172924
-0.146229
-0.0197427
0.0283679
0.000273219
0.114458
-0.126198
-0.0468877
-0.0295738
-0.0190933
0.294615
-0.158177
-0.207781
0.0275119
-0.00732992
-0.114831
0.0147617
-0.181347
-0.160357
-0.0328403
-0.165169
-0.019322
-0.366081
0.0532071
-0.0708897
-0.114893
-0.178708
0.00928672
0.011323
-0.0628085
0.00982124
0.00461474
-0.391969
-0.250036
0.0917177
-0.070672
0.00918659
-0.0294508
-0.0823325
-0.0189706
-0.0106701
-0.14766
-0.0208543
-0.133681
0.0162139
-0.0101549
0.0196244
-0.0715703
-0.0776769
0.0376609
0.027998
0.00794137
0.0393155
0.00572232
0.425646
-0.14225
0.00842475
-0.161966
0.0216065
-0.189648
-0.0988113
0.398011
-0.0186923
0.0479535
0.0154129
0.0787751
0.0514506
-0.0792297
-0.352287
0.0747681
-0.0949595
0.490993
-0.112516
-0.0706717
-0.0339129
0.431642
-0.0873758
0.0200835
-0.323886
-0.115143
-0.0795152
0.031815
-0.14687
0.223631
-0.017869
-0.0452778
-0.392758
-0.023081
-3.61214e-05
-0.0303554
-0.18629
-0.0760946
-0.130002
-0.00148394
-0.231848
-0.0629034
-0.069819
-0.183268
-0.267343
-0.0739027
-0.018554
0.00307542
-0.0966694
0.0141313
0.0720646
-0.00685295
-0.0122211
-0.0117492
0.0828956
-0.0853365
0.452435
0.129585
0.263966
-0.0710502
-0.0626532
-0.0142471
-0.162834
-0.0769346
-0.0113691
0.00400425
-0.0821106
-0.383873
0.0234827
-0.149413
-0.147589
-0.0756867
0.0383424
-0.0408546
-0.0222308
-0.175158
-0.0164282
0.00394917
-0.383503
-0.0739758
0.0199807
-0.206627
-0.0788889
-0.356495
0.0244064
-0.0608586
-0.0822205
-0.196525
-0.0725549
0.25002
-0.0492923
0.0173116
-0.0257902
-0.00464412
0.0328891
0.0617955
-0.043159
0.0107265
-0.101665
0.00423493
-0.0711717
-0.0207991
-0.147531
-0.0899879
-0.311116
0.0228487
-0.27085
-0.0255552
-0.0880656
0.0260442
0.10791
0.0228813
-0.116166
-0.226167
-0.075089
0.0099682
-0.135946
0.00782233
-0.0542236
-0.225715
-0.0224471
0.0542607
-0.11398
-0.0778404
-0.0930148
0.0114091
0.034034
-0.0374025
0.018604
0.127857
0.00713506
-0.00511828
0.068653
-0.196573
-0.0359272
-0.113901
-0.162392
-0.128327
-0.0775172
-0.0335448
-0.00491904
0.0401076
-0.260115
-0.0405956
-0.0171567
-0.086535
-0.323193
0.00378337
-0.391292
-0.149145
-0.147218
-0.0114946
-0.0106528
-0.0722803
0.0531066
0.0216539
0.173285
-0.0171354
0.082416
-0.0595089
-0.091205
0.435097
-0.0880796
-0.0451106
-0.0997353
-0.0697246
-0.0608451
-0.0748257
0.179827
-0.391317
-0.104048
-0.396079
0.087231
-0.366297
-0.391206
-0.0186899
0.00887746
0.00614831
-0.0367077
-0.110769
-0.0213088
0.0882258
-0.0694217
-0.041316
0.0777013
-0.18034
0.127951
-0.0525138
-0.179467
-0.0336216
-0.0778982
-0.0488385
0.111643
0.00247144
-0.239276
-0.349719
0.00681048
-0.0383562
-0.0664518
0.125423
-0.407074
0.00514019
-0.0215476
-0.102243
-0.0391578
0.157863
-0.391102
0.0298244
-0.135457
-0.0559462
-0.0110228
0.000308525
-0.0731936
-0.367699
-0.0156922
-0.047484
0.0274611
-0.0310023
0.185781
-0.154725
0.0480816
0.417891
-0.12708
-0.072072
-0.197139
-0.0382828
-0.0705197
0.0946172
0.119607
0.0259308
-0.0890672
-0.15828
0.0656708
0.182684
-0.107724
0.437279
0.420918
0.105464
0.0263897
0.0236122
0.0307429
-0.350991
-0.112887
-0.0492968
-0.0394159
-0.0493945
0.0164198
0.0145446
0.034625
-0.100047
-0.0618382
-0.157114
0.134134
-0.392098
-0.0651612
0.0339996
-0.115039
-0.00276423
0.0088714
-0.236474
-0.00101021
-0.00540409
-0.10785
-0.145349
0.259156
-0.0671265
-0.102375
-0.0151508
-0.117412
-0.0115918
-0.0295311
0.0721961
0.021728
-0.0263084
-0.144466
-0.264969
-0.0209639
-0.0780146
-0.0059289
-0.0188372
-0.0056782
0.440289
-0.0479633
-0.0480035
-0.40061
-0.0209325
-0.116128
-0.0711097
0.0078094
0.128814
0.00485772
-0.0626403
-0.150415
0.0357747
-0.0764237
-0.120534
0.244245
0.0167021
-0.344763
0.0941021
0.404133
-0.036802
0.154191
-0.262594
-0.0183632
0.324038
0.0364508
-0.149007
0.211641
0.00766228
-0.405785
0.0266328
-0.142476
-0.13987
0.340859
0.0253645
0.0739293
0.0469985
-0.107036
0.06317
-0.0748579
0.0856631
-0.0899625
-0.0147024
-0.105932
0.0361522
-0.0645014
-0.0923263
0.0033851
-0.0059773
0.488816
-0.0386286
-0.0663144
-0.0298648
-0.0809757
-0.0713476
-0.0647509
0.0135986
0.00767265
0.0268277
-0.00930774
-0.176
0.048202
0.199978
-0.033475
0.00808
-0.227632
-0.0482467
-0.0597452
-0.0700717
0.0346343
-0.389053
-0.110349
-0.0561512
0.498657
-0.164762
-0.26906
-0.0872352
-0.346621
0.00292716
-0.161533
-0.388058
0.441379
0.0112908
0.0518312
-0.101353
-0.0775067
-0.0754631
-0.299719
-0.0297967
0.119534
-0.105668
-0.0732683
-0.391548
-0.0884715
-0.121677
-0.0033589
-0.15335
-0.0704601
0.0114948
-0.190648
-0.322999
0.0255291
-0.134734
0.0124274
-0.0234628
-0.127435
-0.159352
-0.000750926
-0.0306301
-0.0231
-0.0205284
-0.039264
-0.150123
-0.0407971
0.00833072
0.0100381
-0.0738579
-0.0558862
-0.0508313
-0.261858
0.0317786
-0.182466
-0.401799
-0.127358
0.111858
-0.133238
-0.144979
-0.0899005
-0.0778056
-0.117373
-0.35817
0.00482285
-0.332957
-0.0724421
-0.00440205
0.0178334
-0.194625
-0.361288
-0.36674
-0.0223639
0.0101427
-0.0869906
-0.338107
-0.354412
-0.0291889
0.0874285
0.501503
0.0288104
-0.0968193
-0.405436
-0.0997828
-0.338902
0.038864
0.00848703
0.000546529
0.10724
-0.0993932
-0.0850448
-0.0562096
0.0668899
-0.0913601
-0.366612
-0.0727652
-0.204545
-0.40599
-0.0831259
0.455209
0.0270542
0.0106788
-0.0820597
-0.00984451
-0.0176678
0.0248221
0.518604
-0.0995516
-0.403887
-0.204379
0.0213045
-0.217225
-0.0995383
-0.0108871
-0.408994
0.224602
0.103934
-0.0299932
-0.391333
-0.323953
0.0243108
-0.302333
-0.122286
-0.396663
-0.340833
-0.154823
0.0072082
-0.031367
-0.275355
-0.0572615
-0.0880579
-0.106311
-0.348439
-0.150082
0.0651679
0.0745274
0.00318441
0.0522722
-0.378704
-0.0780442
0.0306636
-0.40831
-0.0905261
0.0115074
0.0721972
0.00757273
-0.17446
-0.0217807
0.504732
0.0968494
0.00537081
-0.000199733
0.328759
-0.157613
-0.104393
-0.00654605
-0.108934
0.0358806
-0.039616
-0.0680947
-0.353308
-0.078437
-0.344933
-0.00712671
-0.000159634
0.00868654
-0.072483
0.00128307
0.00684781
-0.143013
-0.109268
-0.116843
-0.0181425
-0.302499
-0.0770688
0.00780864
-0.374473
-0.12637
-0.0757112
0.479456
0.00731383
-0.407675
0.0870514
0.0501615
0.0814315
-0.00972153
-0.0867969
-0.00356708
-0.0363436
0.154596
-0.0657463
-0.0787629
0.0127169
0.00409646
-0.0341083
-0.015748
-0.186744
0.0565303
-0.171897
-0.0478551
-0.155467
-0.0378576
-0.100931
-0.00758075
-0.250606
-0.027449
-0.010417
-0.399849
0.327374
0.351507
-0.0969933
0.16416
-0.102594
0.0337743
-0.312725
0.0311109
0.00189683
0.328725
-0.0693343
-0.404892
-0.384856
-0.176512
-0.273732
-0.203727
-0.297762
-0.0112622
-0.0570299
-0.070059
-0.210465
0.101602
-0.27111
-0.0888154
-0.0314217
0.0421671
0.0152567
-0.28205
0.454121
-0.0459377
0.017876
0.0252782
-0.0544863
-0.101786
-0.275793
-0.131811
0.0074906
0.390566
-0.179119
-0.217261
-0.149006
-0.00411001
-0.0423985
-0.215401
0.000536818
-0.177211
-0.0919631
0.0315967
-0.0324115
-0.148003
0.34056
0.052204
-0.100141
-0.0482307
-0.182405
-0.0625981
0.0564533
-0.0401647
-0.329942
-0.000211337
0.0694599
0.50306
-0.375215
-0.126904
-0.153753
-0.0574358
0.111121
0.0231874
-0.378972
-0.0649816
-0.0262663
-0.0809735
0.00892787
0.0087274
0.517658
0.0255766
0.00705157
0.0179482
-0.117606
0.0539411
-0.0513705
-0.101759
-0.2575
-0.197793
0.0236059
-0.0236526
0.225032
-0.253678
-0.178197
0.125789
-0.168458
-0.0996375
-0.296018
0.00874653
-0.312302
-0.0779444
0.00843941
-0.045918
-0.00951822
0.433917
-0.198905
-0.0290665
0.494469
-0.24694
-0.00283109
0.0521109
-0.0663503
-0.0886259
-0.070568
-0.0104178
-0.369767
-0.0650869
0.448596
0.0175382
-0.204329
-0.0691958
0.141176
-0.367233
-0.0648151
-0.00921674
-0.0797553
-0.245388
-0.0871188
-0.0734554
-0.29604
-0.0067089
-0.236596
0.0120406
-0.387431
-0.00790492
0.247937
0.0565515
0.00624457
-0.125407
-0.179705
-0.172103
-0.130496
0.0388038
-0.127071
-0.00147674
-0.346009
-0.0790539
0.0338413
-0.0169625
0.160458
-0.0235951
-0.112811
-0.10924
-0.307608
-0.129197
-0.028923
-0.0306455
-0.143727
0.0718516
-0.120079
-0.00775616
0.0226563
-0.29978
-0.186591
-0.147251
0.346014
0.0101091
-0.209608
-0.00306672
0.0992094
-0.377965
-0.397117
0.0249244
0.0185521
-0.0697432
0.10075
0.0501454
-0.126519
-0.231095
-0.0158195
-0.011392
0.0240842
0.00688909
0.299198
-0.0195586
-0.0668718
-0.173036
-0.0671502
-0.0117201
-0.0776915
-0.30325
-0.0902026
-0.00887745
-0.404881
0.0294602
-0.21988
0.161332
0.182954
0.00514614
-0.294508
-0.386412
-0.0734573
0.0042516
-0.145048
-0.0195004
0.103562
0.047192
-0.0693711
0.0690343
-0.339428
-0.0835557
-0.122147
0.0259658
-0.267876
-0.0683526
0.00907986
0.42801
-0.010077
-0.0575485
-0.0949051
0.0454089
-0.370209
0.0126418
0.438179
0.0473177
0.00712622
-0.39892
-0.0975229
0.0829126
0.166736
-0.0762501
-0.126438
-0.0871321
-0.0587932
0.0356946
-0.059114
-0.0981198
0.0849318
-0.0719803
0.0406195
-0.0956068
-0.0694346
-0.0387222
-0.127792
-0.00958752
-0.0928902
0.0908984
-0.335595
-0.342596
-0.357041
-0.315217
-0.217507
0.0924363
-0.0283214
-0.108097
0.0986478
0.0353368
-0.342654
-0.158208
0.0651547
-0.0483553
-0.0654469
-0.0683562
-0.0828543
-0.215825
0.00768805
-0.0574828
-0.0761369
0.046527
0.0108853
-0.0883588
-0.0136095
-0.0753697
0.0584733
-0.208007
-0.0815867
-0.105942
-0.189443
-0.174027
-0.182851
-0.00447856
-0.11767
-0.0977689
-0.403642
-0.0351
-0.0771139
-0.077242
0.489028
0.0310591
0.0387905
-0.112763
-0.0714011
-0.398931
-0.3159
0.158982
-0.235276
0.00254404
-0.0141025
-0.291301
0.281491
0.0319205
-0.159315
-0.0486187
0.0910401
0.0549396
-0.159973
-0.0157409
-0.172789
-0.118449
-0.405015
-0.175702
-0.0570511
-0.129827
-0.392957
0.0321455
0.0358406
-0.15587
-0.00824638
0.221068
-0.404709
-0.0803073
-0.101298
-0.0943576
-0.0361472
-0.183404
-0.0112549
-0.103107
0.0185748
-0.391201
-0.0106203
0.0399925
-0.0919201
-0.180868
0.00662511
0.0400138
-0.389791
0.0432903
-0.13461
-0.0119801
-0.354916
-0.288097
-0.120419
0.31372
0.00409095
-0.0703205
-0.0950343
-0.10618
-0.0113623
-0.0359955
0.00677588
-0.0923634
0.0254885
-0.0896197
0.0469467
-0.0154742
-0.332098
-0.0134292
-0.0504277
-0.0554669
0.0159587
-0.0930545
-0.0099976
-0.030139
-0.143132
-0.0692802
-0.0679048
0.040266
-0.337005
-0.0699736
-0.159271
-0.00246138
-0.106226
-0.030843
-0.104732
-0.095822
-0.089672
-0.248334
-0.216958
-0.243045
-0.297827
0.1169
-0.0996667
0.0408289
-0.297944
0.0818404
-0.0299206
0.0343596
-0.0941325
-0.00645359
-0.191617
-0.115572
-0.0933198
-0.26393
0.337038
0.0126363
-0.188578
0.191309
0.0571603
0.075617
0.0353247
-0.111784
0.0351093
-0.0806545
-0.0125631
-0.0668166
-0.315757
-0.0332139
0.0268763
0.0332309
-0.203997
-0.00723904
0.0353277
-0.0597091
-0.0255798
-0.0607403
0.0099252
-0.0747656
0.327972
0.118458
-0.268237
-0.38564
-0.0920587
-0.25211
-0.00675993
0.0227589
0.058243
-0.036197
0.14878
-0.0755029
-0.103136
-0.0102749
0.0330748
-0.0699618
-0.150372
-0.0102338
-0.00498533
0.111448
-0.403672
-0.0760603
-0.0549236
-0.0563114
0.0202311
-0.270044
-0.094493
0.331725
0.160683
0.0362897
0.0576604
-0.0990869
-0.225544
0.0641875
-0.0255825
-0.0487406
-0.0926633
0.0638817
-0.374334
0.015019
-0.113841
-0.0100708
0.130392
-0.00420658
0.0059802
-0.260405
-0.316191
0.271667
-0.0631614
-0.40517
0.042754
-0.162184
-0.0715987
-0.00646154
-0.136249
-0.104488
-0.125919
0.0232586
-0.0781335
-0.391052
-0.0266891
0.0215332
-0.0804455
-0.074423
0.0192693
-0.0147066
-0.0264151
-0.0510002
-0.173541
-0.194606
0.317423
-0.17137
-0.00795209
0.0256903
-0.0933149
-0.00922099
-0.096155
0.119009
-0.0280184
-0.129239
0.019611
0.035219
-0.238139
0.00849534
-0.317303
0.0227173
-0.335801
-0.0876248
-0.171143
0.0162978
0.00930562
-0.218252
-0.010021
-0.0316285
0.0558151
-0.225728
-0.30436
-0.0927253
-0.0941243
0.065616
-0.146787
0.064821
-0.108112
-0.0221415
0.0214479
-0.408365
-0.104307
-0.326367
-0.0247273
-0.121998
-0.114882
-0.406214
-0.162931
-0.221415
-0.0987126
-0.0110902
-0.22978
-0.0209157
-0.0200684
-0.191924
-0.0953506
0.0896864
0.28645
0.0806316
0.00538033
-0.05911
-0.230385
-0.0511049
0.00889323
-0.396573
0.0630255
-0.0112389
-0.0701649
0.0065786
0.0188752
-0.172363
-0.198182
-0.40162
-0.0103687
0.0758647
0.00721702
0.405141
-0.0053986
0.454781
-0.135583
-0.0858323
-0.06659
-0.393383
0.149088
-0.255637
0.477043
0.0201949
0.0622759
0.110293
0.12705
0.494735
-0.163058
-0.369657
-0.0780133
0.508589
0.0295914
-0.119656
0.00574251
-0.407693
-0.0763191
-0.0429077
-0.0446827
-0.0306392
-0.00150451
-0.136747
-0.365612
-0.00669614
-0.0385529
-0.000233981
-0.196326
-0.0377078
-0.291374
-0.0663577
-0.333946
0.0266513
-0.00107156
-0.126083
0.429396
0.0235478
-0.101785
0.0181907
-0.215479
0.171791
-0.160603
-0.102191
-0.366336
-0.0083571
-0.0228198
-0.0872836
-0.0671578
-0.061797
-0.0685242
0.00906297
-0.0615137
0.0244066
0.00204396
-0.0303081
0.0234147
-0.390026
-0.135792
-0.132379
-0.0666826
-0.228055
-0.247968
-0.00931323
-0.0811635
-0.00986062
0.485199
-0.0273397
0.0520273
0.0252618
0.00505214
-0.0197114
-0.173182
-0.038242
0.43386
-0.0176494
0.162383
-0.00833033
0.488751
0.016442
-0.085557
-0.0753105
-0.112564
-0.371923
0.00533881
-0.0914753
-0.154958
0.0027463
-0.0111664
0.0121764
-0.0752637
-0.364318
-0.0277435
-0.0178072
-0.149827
-0.107211
0.201908
-0.115784
0.0338032
-0.107269
-0.0803419
-0.00837183
-0.152918
-0.0359181
-0.0772562
0.0336508
-0.0272829
0.0187593
-0.138528
-0.0858717
-0.00960598
0.386947
-0.0983863
0.00631151
-0.0173589
-0.00153841
0.406899
-0.147794
-0.148872
-0.0458458
-0.102991
0.0164153
0.0314209
-0.0413759
0.00832947
-0.155886
0.0364399
-0.081861
-0.314581
-0.0849065
-0.00925485
-0.071385
-0.119144
0.0167401
-0.166633
-0.0829124
-0.127814
0.0982905
-0.387092
-0.140582
0.00885644
-0.1825
-0.179449
-0.0528626
-0.292274
-0.0809652
-0.0545252
-0.128987
0.00404233
-0.188675
0.286768
-0.177477
0.00724388
0.0155181
-0.00988091
0.168232
-0.0860709
-0.0896568
-0.235214
-0.399043
-0.0683088
0.0179641
0.498773
-0.0838565
-0.14618
0.0259894
0.00908494
-0.110105
-0.0827915
0.0385855
-0.0844066
-0.384472
-0.161561
-0.370694
0.340587
-0.178595
-0.0702956
-0.29742
-0.0140041
-0.313172
-0.177446
-0.0249416
-0.0342896
0.00262836
-0.362429
-0.189
-0.128356
-0.0270821
-0.353947
-0.0170492
-0.199297
-0.0811815
0.0300633
-0.0872135
-0.25656
-0.0964792
-0.13923
-0.0341471
0.0379797
0.0571261
-0.0953597
-0.0848219
-0.343639
-0.148424
-0.0118855
-0.407967
-0.225422
-0.0705678
0.00546477
0.0102986
-0.0672017
0.419891
0.0131473
-0.129814
0.305216
0.194967
-0.0735879
-0.0989107
-0.325584
-0.17108
0.0465147
-0.0156081
0.294146
-0.0799037
-0.360327
-0.0245898
0.196905
0.325546
0.376779
-0.0317689
0.0173291
0.375069
-0.182648
-0.33523
0.413912
-0.064949
0.0102733
0.415928
-0.17635
0.0464263
0.282346
-0.168603
-0.00991628
-0.154563
-0.132925
0.424514
0.01889
-0.0619315
-0.151434
-0.388973
-0.0127789
-0.0471449
0.000548452
-0.0369345
0.00128392
-0.123612
0.0347009
0.100666
0.383151
-0.086404
-0.160372
0.0794418
-0.0535889
-0.0313188
-0.312842
0.272292
-0.380511
-0.0155752
0.11231
-0.374039
0.33155
0.0410622
0.0834556
-0.195384
-0.127074
-0.223678
0.00892052
0.00338132
-0.0011558
-0.169891
0.016573
0.471676
0.490232
0.403973
-0.0499027
-0.259618
-0.371604
0.0028662
-0.295277
0.0323884
0.22677
-0.00524981
-0.0243356
-0.133379
-0.273755
0.00685518
-0.394766
-0.221062
0.327007
-0.242874
-0.00616021
0.0106685
-0.0814959
-0.0388382
-0.393078
-0.386111
0.0461748
-0.243023
0.00566444
-0.0158262
-0.0195415
0.0236998
-0.372233
-0.0452125
-0.352314
0.299826
-0.0321296
0.44313
-0.345717
-0.0758984
-0.36517
-0.0479762
-0.022186
0.0238256
-0.039219
0.466068
0.359293
-0.252303
0.0228337
-0.03554
0.135873
0.00770117
-0.0858856
0.0780494
0.183093
0.247084
0.0506309
0.0126659
-0.0109563
-0.122766
0.00951812
0.021398
0.324805
0.0559052
0.000268016
-0.124537
0.000467885
-0.324162
-0.0784709
0.48635
0.0325146
0.316804
0.0202342
-0.120477
-0.03702
-0.0370442
0.117675
-0.350628
-0.0779549
0.317517
-0.0203237
-0.0867174
-0.120271
-0.0709551
-0.24838
0.0280148
-0.253842
-0.201115
-0.0100135
0.268634
-0.205816
0.334482
0.0201352
-0.137682
0.424961
-0.201495
-0.156393
-0.0276506
-0.13681
0.0280147
0.00907926
-0.0711504
-0.104978
0.0096848
-0.0752428
-0.380636
-0.0877967
-0.388698
0.415838
-0.348503
-0.267305
-0.0101951
-0.0441012
-0.0168553
0.135504
-0.206192
-0.225655
0.0513465
0.00686328
-0.0176949
-0.326532
-0.0937285
-0.125117
-0.0823268
0.350735
-0.406752
-0.306757
0.0132994
-0.401629
0.0270853
0.109612
0.144866
-0.084364
-0.102085
0.108447
-0.0377204
0.289331
-0.0727861
-0.0844494
-0.391102
0.161375
-0.0645211
-0.0713463
0.0235004
0.476216
-0.148401
0.0617919
-0.372913
-0.400983
-0.0821554
0.104873
-0.0772097
-0.399432
0.0146673
-0.0198928
-0.00949249
-0.00770038
0.0579778
-0.407821
0.0522948
-0.137068
0.00375602
-0.0249949
0.4464
-0.0301731
-0.0112471
0.0167904
0.0278518
-0.151237
-0.0158636
-0.408071
-0.0279578
-0.043756
-0.0296232
0.0505228
0.363136
-0.0162981
0.0112277
-0.0133595
-0.064768
0.302128
-0.0534725
-0.0820376
0.00329219
0.0919725
-0.0809745
-0.255228
0.0691537
0.015701
-0.0209782
-0.013883
-0.282824
0.0037371
-0.0187786
-0.0552591
-0.333184
0.00295029
0.17914
0.0470479
0.0187594
-0.101649
-0.403182
-0.0981589
-0.104625
-0.0550254
-0.0844735
0.0447392
0.347911
-0.244225
-0.034188
-0.137526
-0.0678529
-0.0966708
0.0515151
0.0267703
0.482686
-0.0493192
-0.257084
-0.134088
-0.0171592
0.02156
-0.405345
-0.0645167
-0.0862904
0.0594889
0.0147746
-0.404743
-0.176616
-0.0130264
0.00957705
-0.026858
0.0162027
0.018541
0.0339098
0.178299
-0.172036
0.0169501
0.0447892
0.451097
0.0119031
-0.249859
0.0569037
-0.028192
-0.0689471
0.00665264
-0.182496
0.0617756
0.24403
0.0157657
-0.0223166
-0.333581
-0.371902
0.00698231
-0.0884591
0.205009
0.0229403
0.0833246
0.00948482
-0.0369973
-0.292306
-0.222714
-0.0614688
-0.113866
-0.0363765
-0.393434
-0.141015
-0.0252536
-0.247196
0.0623529
-0.106224
-0.129957
-0.0729736
-0.33749
-0.206932
-0.0831552
-0.0191181
-0.0538632
0.0990846
-0.0163836
-0.0201713
-0.0787994
0.305826
-0.0182389
0.110642
-0.10463
0.0759931
0.416248
-0.0846409
-0.0655209
-0.297583
-0.351372
0.170756
0.100829
-0.0763757
-0.40667
-0.118841
0.0754698
-0.017223
-0.00287973
-0.0131726
-0.0814601
-0.100436
-0.202686
-0.0219311
-0.310677
0.00800927
-0.0679807
-0.075338
0.313086
-0.212186
0.316773
0.380284
0.0591971
0.165239
0.000341254
0.126378
0.0152446
-0.0282898
-0.0892895
-0.087572
0.0161513
0.095613
-0.192119
-0.00242083
-0.0198898
0.115269
-0.407819
-0.196995
-0.12763
0.202781
0.00910974
-0.0640493
0.193741
-0.0355869
0.0310158
0.00904101
-0.0227046
0.0341511
-0.0546872
-0.154299
0.00790906
-0.0152359
0.228078
0.00232245
0.109135
0.137481
0.0245851
0.0130799
-0.40792
-0.0106666
0.02328
-0.0115464
0.0706514
-0.0128778
-0.351076
-0.0454721
-0.249503
0.00377282
-0.0219417
-0.0293634
-0.315011
-0.0684057
0.0361301
-0.0177192