/*--------------------------------*- C++ -*----------------------------------*\
| =========                 |                                                 |
| \\      /  F ield         | OpenFOAM: The Open Source CFD Toolbox           |
|  \\    /   O peration     | Version:  v2012                                 |
|   \\  /    A nd           | Website:  www.openfoam.com                      |
|    \\/     M anipulation  |                                                 |
\*---------------------------------------------------------------------------*/
FoamFile
{
    version     2.0;
    format      ascii;
    class       volVectorField;
    location    "200";
    object      ddt0(U);
}
// * * * * * * * * * * * * * * * * * * * * * * * * * * * * * * * * * * * * * //

dimensions      [0 1 -2 0 0 0 0];


internalField   nonuniform List<vector> 
37809
(
(0.00105818 0.000885275 2.16537e-21)
(0.0112453 -0.0010744 -3.22535e-21)
(3.88973e-07 1.1653e-05 -3.62496e-22)
(0.000349625 -2.13919e-05 -1.20135e-21)
(-0.00493145 -0.00213904 -8.70602e-22)
(0.000143074 -0.00210491 -2.01553e-21)
(0.000553045 0.00122072 -1.31893e-21)
(2.52936e-05 0.00139579 -2.94172e-21)
(0.00527699 -4.72476e-05 0)
(0.00131737 0.000158285 -4.17315e-22)
(0.0004406 -0.000451794 -3.45453e-21)
(8.0443e-05 0.000181192 -1.40137e-21)
(-3.53777e-05 0.000418002 0)
(-2.57099e-05 0.000418788 0)
(-0.00848914 -0.000279629 9.42272e-21)
(0.000352218 6.85341e-05 -3.06727e-21)
(3.31992e-05 5.35257e-05 -1.31369e-21)
(0.0140274 -0.00329354 0)
(0.000207986 -9.48275e-05 -6.3601e-22)
(0.000606507 0.00109018 0)
(-0.000127311 0.000807982 8.33214e-21)
(-0.000117408 0.000795434 -6.51131e-21)
(0.0122776 -0.0093388 0)
(5.20027e-05 -1.35034e-05 -1.8094e-21)
(0.000467343 0.000682722 -1.65825e-21)
(0.0019272 0.00229768 -7.26549e-22)
(0.000405449 -0.0145286 -4.38012e-21)
(2.46e-05 0.000376924 0)
(1.33209e-08 7.09939e-06 0)
(2.35515e-05 0.00144074 6.91478e-21)
(0.00445208 -0.00137545 0)
(-0.00580688 0.000612843 0)
(5.20752e-05 -1.18774e-05 -1.69085e-21)
(0.000327454 0.00157589 -7.49918e-21)
(3.55487e-05 -0.000229308 0)
(3.12048e-05 5.3428e-05 0)
(4.8412e-05 -7.91609e-05 1.7026e-21)
(-0.0052188 0.00911776 1.69724e-21)
(0.00181855 -0.000669633 1.3431e-21)
(0.000407216 -0.000843024 2.22365e-21)
(0.00068454 -0.00126963 3.68532e-21)
(-0.000208941 -0.000407859 1.96404e-21)
(0.0138064 0.000146999 6.49545e-21)
(0.00303556 -2.19207e-05 -7.31666e-21)
(0.000132477 0.000207379 3.5778e-21)
(0.000179644 -0.000716204 4.04125e-21)
(-0.000368571 -0.00531253 -4.13608e-21)
(-0.00549507 -0.000947227 0)
(-0.00122887 -0.0140435 1.80047e-21)
(0.000799276 0.000168948 0)
(0.000151426 -5.26738e-05 -3.81584e-21)
(5.83747e-05 1.40616e-05 -1.48802e-21)
(5.41898e-05 3.52706e-05 3.79501e-21)
(0.00024548 -7.05625e-05 2.58846e-21)
(0.00571764 0.000640243 0)
(5.21869e-05 3.07868e-05 -3.5906e-21)
(0.000439674 0.000268399 0)
(0.000257859 -0.000378045 -1.76583e-21)
(0.00169956 -0.000861671 2.30697e-21)
(-0.00378704 0.00700758 -1.3647e-21)
(0.00573538 -0.000650715 -2.74347e-21)
(-2.58336e-05 0.000424855 0)
(-3.70047e-05 0.000418591 0)
(0.00209728 0.0002946 -5.61473e-21)
(0.0044978 -0.00158018 0)
(0.000495297 0.000682944 -1.52114e-22)
(0.0106986 -0.00291671 1.05999e-21)
(0.000217271 -8.77459e-05 -4.79586e-21)
(3.43116e-05 -0.000468223 -4.63018e-21)
(0.0104472 -0.00392903 2.37723e-21)
(0.000341247 -4.2379e-05 0)
(-0.00574411 4.55568e-05 0)
(8.26754e-05 0.000232831 0)
(-2.07607e-05 0.000419948 -1.97385e-21)
(2.76634e-05 0.000372722 0)
(5.82396e-05 -1.55967e-05 -5.07093e-21)
(0.000364749 -0.000804688 -4.74609e-21)
(0.00141053 0.000709774 0)
(0.0010259 0.000866824 0)
(-0.000923113 0.00386881 0)
(8.57661e-05 8.70077e-05 1.48234e-21)
(1.72643e-07 5.35259e-06 0)
(0.00713759 -0.0116412 -2.31869e-21)
(0.000564238 -0.000382601 -1.10186e-20)
(0.000157459 -9.17201e-05 0)
(0.014027 0.000141046 -2.53739e-21)
(0.000190145 0.00030261 0)
(0.00244756 -0.00154622 1.17138e-21)
(0.00098334 -0.00210524 -2.37524e-21)
(0.000256185 0.000437588 7.19208e-22)
(-0.00451617 0.00916314 0)
(-0.00252233 -0.0001041 5.70772e-21)
(0.000189888 0.000911214 9.05606e-22)
(0.0079058 -0.00266269 0)
(0.000190953 0.000302986 5.29916e-21)
(0.00856023 -0.0107416 0)
(7.96515e-05 0.000238669 0)
(0.00015563 -5.76068e-05 3.91579e-21)
(-0.0102708 -0.000522499 -2.90588e-21)
(5.60512e-05 1.93658e-07 3.04545e-21)
(0.00296919 -0.00108145 3.1379e-21)
(0.000153075 -6.34094e-05 6.07789e-21)
(0.00204825 0.000223921 2.96613e-21)
(0.0144868 -0.00293401 2.25289e-21)
(0.00431363 -0.0144517 -5.01327e-21)
(7.33592e-07 2.57377e-06 8.28179e-21)
(1.92834e-05 0.00144584 3.50112e-21)
(0.000503634 8.62009e-05 0)
(0.00164563 0.000473533 9.66149e-22)
(7.81875e-05 0.000167843 0)
(0.00059262 0.00107029 4.27721e-21)
(0.000545749 -0.000393595 1.18522e-20)
(-0.000272252 0.00107055 2.77059e-21)
(0.000208318 0.000290451 3.1549e-21)
(0.0004281 0.000263581 0)
(0.00175209 -0.000702248 -1.20656e-21)
(0.00015604 0.000299593 0)
(3.5353e-05 0.000160127 1.26792e-21)
(0.00984923 -0.00202294 1.89607e-21)
(-0.0134905 0.000317556 3.5552e-21)
(-8.60014e-08 -2.89264e-07 5.57019e-21)
(0.000222943 -0.000100583 0)
(0.000592397 0.000105143 -4.11423e-21)
(-0.00594723 -0.00191617 0)
(0.00317169 0.000129872 -1.95036e-21)
(0.000152447 0.000304046 0)
(0.000388216 -0.00521112 -3.89504e-21)
(0.000173877 0.000174993 -3.98371e-21)
(0.000236051 0.000430712 0)
(-2.36386e-05 -0.00051759 -2.90908e-21)
(0.00217039 0.00682965 2.72792e-21)
(-0.00220411 -0.00710489 -2.27885e-21)
(0.0118693 -2.85925e-05 1.70958e-21)
(6.16529e-05 1.00679e-05 1.31361e-22)
(-0.000907335 0.0046595 0)
(5.98755e-05 -1.90048e-07 0)
(0.000152878 -4.85492e-05 0)
(-3.28132e-05 0.00042351 0)
(0.000628622 0.000446544 -1.02505e-20)
(0.000841859 -0.00192096 1.78671e-23)
(3.02953e-05 -0.000232167 1.40366e-21)
(-0.00428034 0.00227683 -4.91668e-21)
(0.000100181 0.000422363 1.09395e-20)
(0.000503585 -0.0014788 3.75987e-21)
(8.53298e-05 0.000238376 0)
(0.0108409 -0.00297329 6.28894e-21)
(0.000328824 -5.05628e-05 4.91865e-21)
(9.60551e-05 0.000400086 -1.53594e-21)
(0.00758595 -0.0116207 4.21547e-21)
(2.70746e-05 -3.92931e-08 3.18823e-21)
(-0.00682476 -0.000732399 -2.85662e-21)
(-3.53194e-05 -0.000520148 0)
(1.28037e-05 -0.00134903 -1.63011e-21)
(-0.00265211 0.00401921 2.7966e-21)
(-0.000683569 0.00139004 -2.75599e-22)
(2.67839e-05 -4.51643e-07 0)
(0.000640271 0.0020621 2.31611e-21)
(0.00949704 -0.00243975 -8.95802e-22)
(0.00024897 -7.2627e-05 -1.0698e-21)
(-0.0088358 0.00010017 -1.37187e-21)
(0.000222788 0.000435279 6.77648e-22)
(-0.00587449 -0.00603276 1.95e-21)
(5.49225e-05 0.00159619 5.97371e-21)
(-0.000925201 0.000527427 -2.1378e-21)
(2.92071e-06 0.000430185 7.67866e-22)
(3.20368e-05 -4.48007e-05 -3.1588e-21)
(6.67845e-05 -2.41215e-06 4.63276e-21)
(-0.00146208 0.00026471 -2.31064e-21)
(0.00180833 -0.00016229 5.48624e-24)
(-0.00062661 0.00120214 0)
(0.00874094 -0.00906466 -5.44623e-21)
(8.33936e-05 8.29468e-05 0)
(-0.0103261 0.000988644 9.02044e-21)
(0.000300124 -6.01844e-05 3.31624e-21)
(3.22725e-05 -0.00048373 0)
(0.000287727 0.000247401 -3.57001e-21)
(0.0047212 -0.0145967 0)
(0.000243714 0.000440634 2.57275e-21)
(0.00203075 -0.00797407 0)
(0.000944239 0.000582599 0)
(-0.0133724 0.000315563 -3.89966e-21)
(0.000216795 -7.10259e-05 -4.5501e-21)
(5.43913e-05 3.43297e-05 -3.4915e-21)
(8.70607e-05 0.000380705 0)
(1.19134e-05 -0.00011621 2.38072e-24)
(0.00726215 -6.92486e-06 -4.16759e-21)
(0.000215565 -6.63135e-05 0)
(0.00050585 -0.000134295 -4.80124e-21)
(-0.00382261 -0.00238359 1.73371e-23)
(0.00216544 -5.97152e-05 7.43914e-21)
(0.000789595 0.000151302 -1.552e-21)
(8.26691e-05 0.0002443 0)
(0.000131127 0.000303619 6.43699e-21)
(-0.00260922 0.000115272 -1.61805e-21)
(0.00107684 -0.00143413 0)
(-0.000156401 0.00143514 2.43587e-21)
(4.27158e-05 8.79923e-05 0)
(4.07367e-06 -6.46688e-05 0)
(5.12198e-05 3.55574e-05 0)
(0.000346177 -4.24858e-05 0)
(-0.0139869 0.00039338 -1.77564e-20)
(0.000437344 -0.000487695 0)
(-0.00841727 -0.000403447 -4.39096e-21)
(0.000960163 0.000567341 0)
(0.0123524 -0.000198932 0)
(1.52034e-05 -0.000112693 3.74489e-21)
(0.000306955 -5.76139e-05 5.99504e-21)
(0.000423005 0.000802655 -3.03071e-21)
(6.56212e-05 3.07999e-06 -3.0142e-21)
(-0.000571727 -0.00361518 -6.12973e-24)
(0.000399288 0.000803837 1.8044e-22)
(0.0107418 -0.00113961 0)
(4.89293e-05 2.96381e-05 -3.28855e-21)
(3.17047e-05 0.000144635 -3.98296e-21)
(7.63033e-05 6.46417e-05 0)
(0.00258398 -0.00189342 -4.49935e-21)
(-0.000186009 0.000788528 0)
(0.000145714 -1.21829e-05 0)
(4.99697e-05 3.15792e-05 4.21834e-21)
(-0.00120041 -0.00705403 6.39525e-21)
(0.00834629 -0.00263084 -2.14075e-21)
(-2.60757e-05 0.00140318 0)
(0.000146809 0.000330172 0)
(0.000221436 -8.63976e-05 -8.40576e-23)
(8.54373e-05 8.5262e-05 0)
(-0.00655106 -0.00392576 -1.87285e-21)
(0.000927975 -0.00277436 -1.59849e-21)
(0.000202113 -0.00504257 5.51119e-21)
(-8.58991e-05 0.000440658 6.6761e-21)
(-0.00052416 -0.000835858 0)
(9.63807e-05 0.00037216 0)
(0.000187891 0.00111746 -1.183e-21)
(0.00657104 -0.000881183 -6.79175e-21)
(-1.74802e-05 0.000427124 -1.53085e-21)
(0.0098051 -0.00918848 8.45976e-21)
(0.00259807 -0.00165228 -1.2831e-21)
(6.57147e-05 5.05333e-05 -8.77691e-22)
(-0.00860274 -0.00348874 0)
(9.5618e-07 0.000430217 -7.35158e-22)
(0.00041109 -0.000977304 0)
(-0.00169937 -0.00499687 1.03211e-23)
(8.17123e-05 8.39457e-05 0)
(-0.00214469 0.00858578 2.70539e-21)
(0.00542615 -0.0143916 1.94422e-21)
(0.000135729 0.000207448 -3.28437e-21)
(2.83593e-05 5.45859e-05 0)
(-3.21226e-07 1.57375e-06 0)
(2.94983e-05 -4.49672e-06 -1.45786e-21)
(-0.000695924 0.0011079 -2.30174e-21)
(6.40963e-06 -0.000124908 0)
(-4.39312e-06 0.000244693 2.34991e-21)
(5.26208e-05 -9.82493e-06 1.77411e-21)
(5.12963e-05 0.000109143 5.20335e-21)
(-0.00673785 0.00383523 0)
(0.000150433 0.000254788 -5.26428e-21)
(0.000142462 0.000259602 0)
(2.20975e-06 -6.25996e-05 0)
(-7.30732e-07 0.000137669 3.02793e-21)
(0.000234403 0.00169115 -5.19305e-21)
(-0.00302365 0.00172381 -2.18217e-21)
(-0.00239034 0.00398178 0)
(0.000134531 0.000306922 -7.01544e-21)
(-0.0174026 -0.000415775 1.49319e-20)
(0.000226071 -0.000101656 0)
(0.00589674 -0.0004303 3.07107e-21)
(0.000867711 0.000615131 -8.89124e-21)
(-0.000437995 -0.00554222 8.34614e-21)
(0.000582364 9.02515e-05 1.67939e-21)
(3.47946e-05 8.808e-05 0)
(-0.000157265 0.00141396 -3.63828e-24)
(0.0125367 -0.000205085 0)
(7.66505e-05 6.9752e-05 0)
(-0.00145275 -0.00484163 6.07447e-21)
(-0.00433546 0.00680481 0)
(5.26607e-05 -6.6105e-06 -1.70912e-21)
(0.000782068 -0.000901132 -2.43783e-21)
(0.000367113 0.00156314 8.23855e-21)
(2.2719e-05 0.000225832 -1.39559e-21)
(-0.00341066 0.00746836 -1.4485e-21)
(2.22431e-05 0.000124488 0)
(0.000152878 -3.53794e-05 2.11824e-21)
(0.0107248 -0.000792174 -1.56299e-21)
(0.00327031 7.07587e-05 0)
(5.15203e-05 -1.46139e-05 -2.15297e-21)
(-0.00342633 -0.00464048 -2.44411e-21)
(2.95619e-05 4.95428e-05 0)
(8.55612e-05 0.000227836 9.92368e-21)
(4.85636e-05 9.19297e-05 0)
(0.000144612 0.000256802 7.16402e-21)
(0.0148518 -0.00780759 -2.93017e-21)
(6.04957e-05 2.07776e-05 0)
(0.000933582 -0.000646418 2.20787e-21)
(-0.00638781 -7.2954e-05 0)
(5.25774e-05 3.35955e-05 3.37063e-24)
(0.000170728 0.000182933 -3.90822e-21)
(0.000495694 -0.000132203 6.02413e-21)
(-0.000696265 -0.00732557 0)
(-0.000904128 0.000133119 7.9605e-22)
(0.000151888 0.000251701 -4.64738e-21)
(-0.00029341 0.000968073 -3.24562e-21)
(0.000906703 -0.000613989 2.84075e-21)
(-0.00557458 0.000390201 -2.26051e-21)
(5.92607e-05 -1.30324e-05 4.06304e-21)
(0.00128789 -0.0106761 -5.87566e-21)
(0.00127456 0.000118503 0)
(0.00057955 -0.000337154 1.31307e-21)
(7.24348e-07 1.72716e-05 -7.53113e-21)
(0.000342043 -3.78753e-05 -4.76499e-21)
(0.000140085 -0.00117023 -2.03954e-21)
(7.87617e-05 8.14431e-05 0)
(-0.00216053 -0.00421819 0)
(-0.00653369 0.00384174 -1.64878e-21)
(0.0082455 -0.000845806 2.09466e-21)
(0.000852839 0.00031414 -8.29475e-21)
(-1.17909e-07 -3.2748e-07 -5.17386e-21)
(-0.000387813 -0.00224989 0)
(9.16594e-05 0.00040086 5.10727e-21)
(0.000209683 -9.90567e-05 6.53453e-22)
(8.93456e-05 0.00164084 5.21639e-21)
(0.00950727 -0.00163388 0)
(0.000767614 0.000978911 -6.61317e-21)
(5.40217e-05 0.00134431 2.10857e-21)
(0.000536924 0.000500254 -1.81231e-21)
(0.000336612 -3.35941e-05 -3.94721e-21)
(0.00659091 -0.00376313 3.93473e-21)
(6.59288e-05 0.000790544 5.69357e-21)
(0.00164058 0.000126965 0)
(4.12268e-05 0.000113932 0)
(3.91662e-07 1.44869e-05 1.75549e-21)
(0.00576376 -0.00728058 2.98731e-21)
(6.57629e-05 5.3062e-05 -7.89813e-21)
(-3.85884e-06 -0.0001909 -5.2284e-21)
(0.000155311 -3.39556e-05 -1.02307e-20)
(0.000510568 8.57292e-05 3.4746e-21)
(4.17412e-05 -1.8793e-05 -1.73891e-21)
(6.25904e-05 1.77991e-05 -2.21757e-21)
(5.449e-05 -0.00154157 1.9722e-21)
(0.00020669 -0.000102469 0)
(5.1339e-05 2.70874e-05 3.62057e-21)
(-5.30202e-05 5.28789e-05 -1.55241e-21)
(3.85705e-05 4.71326e-07 0)
(-7.08797e-06 0.00042015 0)
(6.24663e-05 0.00157432 0)
(0.00823899 -0.00333993 -1.31896e-21)
(0.000388691 -4.53985e-06 -5.19864e-21)
(0.00560008 -0.0075936 -3.68993e-21)
(0.00024263 0.000994064 -2.99976e-21)
(2.15835e-05 0.00022999 -2.91007e-22)
(-0.0127748 0.00035512 -7.28004e-21)
(0.000330379 -5.33339e-05 0)
(-1.25191e-05 0.00134302 0)
(0.000208696 0.00114767 5.80509e-21)
(7.52645e-05 0.000162095 -1.60168e-22)
(0.000216497 -8.11079e-05 0)
(0.00621935 -0.000683051 -1.09285e-21)
(0.00352678 -0.00104822 -8.00669e-22)
(1.0244e-05 -0.000122889 7.51148e-21)
(-0.00152344 -0.00708216 -6.18135e-21)
(4.38714e-05 8.11452e-05 0)
(0.0125922 -0.00977192 -2.13593e-21)
(0.00607782 -0.0145481 3.95546e-21)
(0.000391162 5.83807e-05 3.89304e-21)
(0.0111268 0.000610166 4.75363e-21)
(0.00276003 -0.0012086 6.05974e-21)
(0.00654859 -0.000635591 0)
(-0.00690773 -0.00361249 0)
(0.000114531 0.000632714 -6.63665e-21)
(0.000331032 0.000144624 5.86527e-21)
(0.000356508 -3.70356e-05 -7.42455e-21)
(6.49511e-05 -5.29768e-06 3.99507e-21)
(-1.20865e-05 0.000419715 1.99658e-21)
(0.000199946 0.000898282 -2.71654e-21)
(0.000108633 -0.00218462 -1.12183e-21)
(-0.00521346 -0.000227973 0)
(0.000293453 -0.000308107 -2.10376e-22)
(7.532e-05 -7.35264e-05 0)
(0.00109866 -0.00278687 0)
(1.18969e-06 -0.000130898 0)
(-0.00866705 -0.000624759 0)
(9.60133e-05 0.00162619 -8.10381e-21)
(8.86159e-05 0.000232142 -7.25122e-21)
(9.13693e-05 0.000401567 -4.11317e-21)
(0.0125085 -0.000133181 -6.12636e-21)
(0.000705361 2.74795e-05 0)
(-1.03302e-05 0.00137978 0)
(0.000418161 -6.02413e-05 0)
(0.00245382 -0.00132625 0)
(0.000447755 0.000360139 -2.77124e-21)
(-7.40598e-05 0.00163116 0)
(4.98972e-05 -3.21018e-05 4.47949e-21)
(2.25787e-05 0.000132739 0)
(0.00952166 -4.39183e-05 0)
(-3.88413e-07 9.55027e-06 2.65565e-21)
(0.000175851 0.000248624 6.66245e-24)
(0.000262675 0.000275657 -6.94492e-24)
(0.00102171 -0.00219438 0)
(-0.00533899 0.00100945 0)
(-2.92281e-05 0.00128932 -5.85854e-21)
(0.000441261 2.00244e-05 0)
(-7.93887e-07 1.03197e-05 5.86557e-21)
(-0.000326482 -0.00231358 0)
(-0.000452628 -0.00352365 2.21147e-24)
(4.85108e-05 -3.01981e-05 1.91072e-21)
(6.88057e-05 0.000252925 0)
(4.0098e-05 -4.99073e-06 -5.35811e-21)
(0.000711425 0.000898988 7.54413e-21)
(7.70108e-05 8.10381e-05 -2.02325e-21)
(-0.00834559 -0.00355745 0)
(-0.00578395 -0.000653921 -5.07649e-21)
(-0.00985759 0.00127572 -5.39754e-21)
(6.73598e-05 0.00080866 0)
(0.000448015 2.54026e-05 -1.4804e-21)
(0.000769151 -0.000339144 4.27709e-21)
(9.50728e-05 0.000376449 3.80865e-21)
(5.5141e-05 -3.46051e-05 -5.13576e-21)
(-0.00294784 0.00723898 4.08026e-21)
(-3.79154e-05 0.00130294 6.13185e-21)
(0.00215216 0.000180436 8.58223e-21)
(-4.7916e-07 -1.2376e-06 -5.01453e-21)
(4.61925e-05 1.56121e-05 -3.31706e-21)
(-0.000368097 -0.00168515 -3.12873e-21)
(0.00172165 -0.000178886 9.20845e-21)
(0.00106928 0.00123605 -1.22895e-21)
(0.00101868 -0.0104 5.22154e-21)
(5.00009e-05 8.74652e-05 1.88334e-21)
(0.00561287 -0.00907538 4.85742e-21)
(0.000225061 -9.01818e-05 -5.46933e-21)
(-1.77545e-07 0.00050155 3.27957e-21)
(8.60379e-05 0.000440458 0)
(0.000186556 0.00190582 6.67671e-22)
(0.000144268 9.02665e-05 3.66961e-21)
(0.000857241 0.000641419 2.72523e-21)
(0.000347086 -2.25555e-05 4.28302e-21)
(0.000213994 0.000278175 1.28962e-21)
(-0.000964817 -0.00161529 -4.75497e-21)
(0.000103573 0.000366538 0)
(-0.0124472 -0.000296305 3.22329e-21)
(-0.00013849 -0.00528932 -5.27896e-21)
(0.00027855 -4.32117e-05 4.42981e-21)
(6.38529e-05 5.34721e-05 3.85932e-21)
(0.000195172 0.000283268 0)
(0.0017038 0.00108457 0)
(0.000317034 0.000201782 7.45448e-21)
(0.000553795 -0.00154675 3.53891e-21)
(6.20516e-05 1.03483e-05 -5.21715e-21)
(0.000113094 -4.62605e-05 0)
(-0.00266554 0.00208499 2.13867e-21)
(-0.00265549 0.00286371 0)
(0.000582028 -0.00138789 1.67372e-21)
(0.00209966 -0.00803464 -2.54861e-21)
(0.000849421 -0.00038515 -6.16125e-21)
(7.35527e-05 -7.33811e-05 1.72861e-21)
(0.00021464 0.000281309 0)
(-2.16722e-06 0.000129898 -3.18398e-21)
(8.20422e-05 0.000268177 -2.68395e-21)
(5.15332e-05 -1.45109e-05 0)
(5.01173e-05 -7.04859e-05 3.3924e-21)
(4.56424e-05 2.03417e-05 -1.61842e-21)
(0.00356112 -0.000508751 -6.2873e-22)
(9.84268e-05 0.000158642 -3.79562e-21)
(0.000148741 0.000331839 -8.45783e-22)
(0.000385227 5.33073e-05 -3.2516e-21)
(0.00107037 -0.00134846 -2.20599e-21)
(0.00499892 -0.0140917 0)
(0.0130766 0.000256557 0)
(0.0129914 -0.000965515 3.88973e-22)
(3.25245e-05 -0.000519509 -2.5198e-21)
(0.000481515 0.000241879 -5.09858e-21)
(-0.0107245 -0.00148698 2.24735e-21)
(5.51635e-05 2.98704e-05 0)
(0.000504636 -1.1881e-06 -1.55923e-21)
(0.000143784 8.56724e-05 -3.20862e-21)
(2.29728e-05 0.000227171 -7.18283e-21)
(0.000156641 0.000127271 3.75904e-21)
(-0.000309887 -0.00194802 3.78753e-21)
(0.000108314 0.000113184 0)
(0.00072836 -0.000116478 3.03084e-21)
(-0.00412962 -0.000661166 -1.91159e-21)
(-0.000120652 -0.0012169 -1.38769e-21)
(-4.16709e-06 0.000138231 -2.25447e-21)
(6.62245e-05 -3.36128e-06 -4.12865e-21)
(4.33662e-05 6.29752e-05 4.74555e-21)
(0.000427399 1.55209e-05 2.72506e-21)
(4.54546e-06 -0.000130289 3.90756e-21)
(0.0032173 -2.39627e-05 1.06607e-21)
(5.94374e-05 2.28757e-05 2.9877e-21)
(0.000978888 -0.000638258 -2.2945e-21)
(0.0064153 -0.00695311 -1.62013e-21)
(-0.00932614 0.00854514 2.51376e-21)
(0.00015539 -4.06065e-05 -2.72372e-21)
(-0.00506791 0.00102295 3.29935e-21)
(2.49231e-05 -0.00151157 -3.52776e-21)
(-0.00144205 -0.00255306 1.26353e-21)
(0.000151988 -6.6478e-05 -7.20295e-21)
(-2.25444e-05 1.07946e-05 1.57491e-21)
(-0.00620434 0.00199761 0)
(2.95037e-05 -4.63798e-06 3.94647e-24)
(0.000881884 -0.0003918 4.14159e-21)
(0.000266357 -2.5479e-05 -4.34827e-21)
(0.000427349 -6.33396e-05 2.13946e-21)
(0.00109207 0.000867427 -2.16429e-21)
(-0.00290813 0.00302549 2.68373e-21)
(-0.00109703 -0.00164869 6.39938e-21)
(0.0114547 -0.0024809 -5.19566e-21)
(0.000335705 0.000137976 -6.36436e-21)
(0.000490566 0.000103831 0)
(0.00177191 -0.00081763 3.9767e-21)
(0.00852764 0.000282455 -1.877e-21)
(0.000204894 -0.000108111 -4.53579e-21)
(0.000208094 -0.000105356 4.97995e-21)
(5.41017e-05 -3.19912e-05 6.46556e-21)
(0.000108247 0.000109506 0)
(0.0010291 -0.00291857 -1.50823e-21)
(0.000490404 9.21344e-05 0)
(7.1513e-05 -0.000431568 2.62296e-21)
(0.00172242 -0.00287632 -2.49479e-21)
(8.58455e-05 -5.59416e-05 0)
(0.000213772 0.000201434 -3.64097e-21)
(-0.000110083 -7.29472e-06 3.27511e-21)
(0.000263904 0.000268503 -3.42302e-21)
(0.00027637 8.34098e-05 -6.78157e-21)
(0.000243227 0.0039761 -2.17874e-21)
(2.34159e-06 0.000240429 -1.38505e-21)
(0.00210772 0.000202721 -7.83013e-21)
(7.03754e-05 -0.00044841 2.73284e-21)
(0.000289465 7.21352e-05 -4.44826e-21)
(-0.00223785 0.00431477 0)
(0.0095433 -0.0079498 -9.95333e-22)
(-0.00011725 0.000686547 2.39075e-21)
(0.00478132 -0.00482277 -4.26548e-21)
(0.00161463 0.000155093 -3.10609e-21)
(1.36138e-05 0.000430092 -2.72547e-21)
(-0.00194367 0.00425801 0)
(0.000854512 0.00033657 2.69644e-21)
(-6.93092e-08 -1.02169e-06 0)
(4.67659e-05 -8.75706e-06 0)
(0.00015737 -8.48202e-05 6.61044e-21)
(0.0160883 -0.00730292 0)
(5.42435e-05 3.08105e-05 3.47492e-21)
(5.08837e-05 8.95415e-05 0)
(0.000256854 -0.000759299 -9.10065e-21)
(0.000289274 7.89738e-05 -7.8161e-24)
(0.0147688 -0.00996672 0)
(0.00235291 -0.00827456 1.58905e-21)
(0.000230285 4.19354e-05 0)
(0.000103346 0.000358022 -3.25514e-24)
(2.74714e-05 0.000173185 0)
(0.00149861 0.000369615 0)
(-0.00428153 -0.00277435 -4.57434e-22)
(-8.80759e-08 -1.05596e-06 0)
(0.000388507 3.4135e-06 3.09661e-21)
(0.000595534 -0.00143947 -5.61162e-21)
(2.43071e-05 0.000222305 9.4707e-21)
(0.000478566 -0.00096362 -2.54694e-21)
(0.00277113 -0.00116877 0)
(0.000434059 2.05345e-05 -2.83485e-21)
(4.9941e-05 0.000108623 -4.09745e-21)
(0.00158863 0.000462434 -3.51189e-21)
(-0.00024022 0.0014914 -7.89317e-24)
(0.000455155 0.000348399 5.10629e-21)
(0.00110628 0.000829377 -1.43222e-24)
(-0.0128137 -0.000149506 -6.31893e-21)
(0.00245921 -0.00357201 -2.0225e-21)
(4.59839e-05 -9.73879e-06 0)
(0.00235897 -0.000170671 1.32022e-20)
(0.000263597 -0.000783962 -2.05499e-21)
(1.13954e-05 0.000602315 4.0459e-22)
(0.000172424 0.000252493 -6.87483e-24)
(-0.00877022 0.00841407 -2.47701e-21)
(0.000532442 -0.0105372 2.44371e-21)
(-2.30303e-07 -2.54557e-06 6.06301e-21)
(-0.00256149 -7.87631e-05 -6.17741e-21)
(9.56891e-06 7.76495e-05 5.57872e-21)
(0.000101627 0.000371214 0)
(0.00014661 -2.33661e-05 0)
(1.12347e-05 0.000132952 0)
(-0.00227819 -0.000829876 -7.27424e-21)
(-0.011823 0.000426052 0)
(4.62166e-05 -2.23747e-05 -5.84026e-21)
(3.03194e-05 -4.75363e-05 8.85475e-22)
(0.000376136 5.6418e-05 0)
(0.000390436 0.000388686 -8.52033e-22)
(-0.000180442 0.000802076 -5.64253e-22)
(0.000513155 -0.00838191 7.41432e-21)
(0.0029648 -3.14822e-05 6.58951e-21)
(0.00969799 -0.00235082 0)
(-0.00830919 -0.00376803 3.28783e-21)
(-0.00274815 0.000101302 0)
(0.00297908 -4.94466e-05 2.10824e-21)
(-0.00759167 -0.00398618 6.18161e-21)
(2.59265e-05 0.000165687 0)
(5.30385e-05 -3.43833e-06 0)
(0.000347901 -5.85351e-05 -9.57367e-21)
(-0.0182133 -0.0006596 0)
(0.00022662 -8.75092e-05 -2.77908e-21)
(1.25148e-05 0.000123309 0)
(4.74869e-05 -2.47974e-05 1.68335e-21)
(-0.000326498 -0.00630294 0)
(0.00365262 -0.000409455 0)
(6.30587e-05 8.97022e-06 -4.28669e-21)
(0.000110271 0.000297107 2.92304e-21)
(4.24151e-08 -3.43333e-06 -3.30111e-21)
(-0.0100598 -0.000722766 -1.69534e-23)
(0.000661281 -3.00609e-05 0)
(0.000172628 0.00154285 0)
(0.000220462 -7.84858e-05 8.41753e-23)
(-0.00143653 -0.00322075 0)
(0.000320882 -5.14753e-05 -3.64576e-21)
(0.000782975 -0.00037039 7.22523e-24)
(0.000828008 0.000932654 5.80727e-21)
(5.12319e-05 3.45281e-05 0)
(-0.0178467 -0.000915195 2.07438e-21)
(0.000157216 -3.76433e-05 0)
(-0.00164972 -0.00626869 0)
(9.60373e-05 0.000290443 0)
(0.000217158 0.00019818 0)
(0.000148277 0.000305289 3.04854e-21)
(-0.0024811 0.00665278 2.10418e-21)
(2.69029e-05 0.00140181 3.75199e-21)
(1.21311e-06 0.00137002 0)
(2.06952e-06 0.000245956 0)
(0.00619846 -0.00934975 -4.37897e-21)
(-0.00749926 -0.00324638 0)
(1.04297e-05 0.000429816 -8.21326e-22)
(-0.00264027 0.000123889 4.7265e-21)
(-0.00319462 -0.00461076 6.72803e-23)
(-0.00221037 -0.00403193 1.96132e-21)
(5.29664e-05 1.27505e-06 -7.11059e-21)
(4.39374e-05 0.000109556 3.08042e-22)
(4.24639e-05 6.8734e-05 0)
(-0.0042822 0.00643483 1.82503e-21)
(0.00250292 -0.00170556 -1.62405e-21)
(6.32685e-05 -0.00163759 -5.50231e-21)
(-0.00220418 -0.000892292 5.28865e-21)
(6.90428e-06 8.9462e-05 -6.71872e-21)
(2.14071e-05 7.03809e-05 0)
(0.000867872 -0.000638504 -2.79242e-21)
(0.000422617 6.25911e-05 -3.44779e-21)
(0.000146849 4.64152e-05 1.0215e-22)
(0.00282049 -0.00144026 -1.89198e-21)
(0.000393392 -2.82833e-06 1.58553e-21)
(-0.00442978 -0.00298413 0)
(-0.000102428 0.00111754 0)
(0.00439797 0.000219605 -1.10067e-20)
(-0.00648192 -0.000992517 1.11695e-23)
(-3.14939e-05 0.00134885 -9.87265e-22)
(0.00932714 -0.00328013 0)
(8.28852e-06 7.23809e-05 -7.12549e-21)
(4.58537e-05 -1.39122e-05 0)
(0.000259904 -0.000383438 -2.39167e-21)
(0.000114044 0.000310361 6.0834e-21)
(0.000223126 0.000455751 1.34637e-21)
(-8.87233e-05 -0.00157995 0)
(4.11705e-05 0.000104441 0)
(0.00160434 -0.000111331 -8.34438e-21)
(-0.000455119 0.00404058 2.91651e-21)
(0.00273329 -0.00164401 0)
(0.000345944 -2.28143e-05 3.05446e-21)
(-0.0013424 -0.00523499 2.61451e-21)
(0.000595353 -9.74214e-05 -4.98124e-21)
(-5.53269e-05 0.00199226 -3.47248e-21)
(2.02393e-05 -0.000495775 0)
(4.94203e-05 9.50048e-05 -1.92719e-21)
(-0.000118564 0.000469974 0)
(-1.28739e-05 0.000169543 1.52923e-21)
(0.000354652 -3.28729e-05 6.42418e-21)
(0.00111985 0.00123692 -2.35044e-21)
(0.00244641 0.000589423 -2.19675e-21)
(-0.0013272 7.47685e-05 3.1099e-21)
(0.0020312 -0.0104849 0)
(-0.00190472 0.000258439 7.14748e-22)
(-0.00222347 0.00664105 8.32666e-22)
(0.000619525 -5.42385e-05 0)
(6.15192e-05 1.35996e-05 5.82634e-21)
(-0.0175674 -0.000695123 0)
(3.15265e-05 -4.97514e-05 6.51648e-21)
(-0.00341722 0.0074233 -2.10457e-21)
(0.00570629 -0.000806935 3.14689e-21)
(3.25955e-05 -3.67696e-06 3.18625e-22)
(0.000396686 -3.72489e-05 -1.4054e-21)
(0.000264388 -0.0102378 -1.40133e-21)
(-0.00719169 -0.00358154 -1.92728e-21)
(0.000199558 0.000271565 6.2906e-21)
(2.70398e-07 3.54209e-06 -2.54102e-21)
(0.0084941 -0.0122547 0)
(0.00364796 0.000199969 0)
(-0.000806905 -0.00131495 3.86701e-21)
(0.000138553 0.000262347 0)
(-0.00141059 9.80286e-05 -1.44522e-22)
(0.000199212 -1.60627e-05 -1.40554e-21)
(0.00761412 -0.00947037 -2.06137e-21)
(0.000608767 -7.26342e-05 -4.76207e-21)
(0.000240611 -4.34319e-05 4.16227e-22)
(0.000807494 0.000656705 0)
(-0.00390269 -0.00165518 0)
(0.000205987 -0.000109818 0)
(0.0001034 0.000301583 6.89139e-22)
(0.000134992 0.000258988 0)
(0.00015217 -3.22853e-06 0)
(0.00762494 -8.9111e-05 0)
(-0.00151637 -0.00697998 -5.81265e-21)
(-0.00234372 0.00583535 -3.23203e-21)
(0.00869705 0.000479278 -1.02152e-21)
(5.28975e-05 2.68487e-05 -3.42069e-21)
(-0.0114958 0.000523548 -1.93922e-21)
(0.000420883 5.61988e-05 0)
(-0.000723789 0.00128561 2.81526e-21)
(-0.00273853 -0.00338774 3.49753e-21)
(0.000333558 -0.000153731 0)
(-0.000459108 -0.000474513 -4.79255e-21)
(-7.86815e-06 0.000430697 5.63505e-21)
(0.000206791 0.000276666 0)
(0.0154204 -0.0101988 0)
(0.00143823 -0.00279765 1.44093e-23)
(0.00457307 -0.00118927 -2.32646e-21)
(-0.0102533 0.00924951 3.8528e-21)
(0.00665107 -0.0143663 -2.08453e-21)
(0.000860668 4.59258e-05 5.96371e-21)
(-0.00197541 -0.000175373 -9.46188e-23)
(-0.00103503 -0.00736762 -5.67282e-21)
(1.45698e-05 0.000374067 4.96997e-21)
(0.015179 -0.0100252 0)
(7.32281e-05 0.000457294 -4.98858e-21)
(0.000833249 -0.000610471 0)
(0.000142539 0.000411602 9.97587e-21)
(0.00019017 0.000384922 2.05683e-21)
(0.000615385 -6.93014e-05 3.87669e-21)
(0.000208557 0.000292501 -3.07191e-21)
(1.13473e-05 0.000503338 0)
(0.00487015 -0.00453616 2.35928e-21)
(0.000203522 0.000428948 0)
(1.47132e-05 -0.000689605 0)
(0.000354619 -0.000389358 1.06028e-21)
(-0.001314 -0.00249005 2.47161e-21)
(7.76908e-05 -0.000519893 1.79004e-21)
(7.29457e-05 0.00014847 1.48231e-22)
(9.21926e-05 0.000356928 -3.43399e-21)
(0.000131592 0.000261618 0)
(2.5603e-05 0.00038523 5.7427e-24)
(0.0096083 -0.00287738 -2.93241e-21)
(-0.0002882 0.00167629 1.95071e-21)
(0.000229448 -9.10685e-05 4.7969e-21)
(0.000154035 -0.000113562 2.02331e-21)
(0.000746231 0.000209692 0)
(-0.00276965 -0.000142511 2.68759e-21)
(1.07436e-06 3.05078e-06 -8.4227e-21)
(0.00037078 5.03684e-05 -5.97884e-21)
(0.000444916 0.000713591 7.63644e-21)
(0.00622066 -0.00729816 0)
(-1.10755e-06 1.00609e-05 -1.51505e-21)
(0.000216746 0.000104607 -1.48302e-21)
(6.58906e-05 -0.000534448 0)
(0.00235182 -0.00119449 -2.02234e-21)
(0.000325174 -4.45451e-05 -4.30328e-21)
(0.000154263 0.000172295 5.02624e-21)
(6.96264e-05 7.09838e-05 0)
(0.0130953 0.000180378 6.24911e-21)
(-0.00989321 0.000431096 0)
(-0.00413632 0.0071324 0)
(0.000506314 9.24679e-05 -4.39751e-21)
(4.87886e-07 1.5619e-05 -1.56709e-21)
(4.49927e-05 2.59063e-05 3.13926e-21)
(0.000302963 0.000355244 2.55151e-21)
(-6.20805e-06 0.000127162 -1.72174e-21)
(6.70963e-05 -2.83414e-06 2.33169e-21)
(0.0003945 -4.04056e-05 -2.9185e-21)
(0.00248116 -0.00384415 0)
(0.00167114 -9.13511e-05 -5.14746e-24)
(0.018056 -0.00465412 0)
(5.75677e-05 1.00364e-05 0)
(0.000386855 -2.12554e-06 0)
(0.000408874 0.000872528 1.61981e-21)
(0.00980341 -0.0081827 1.15353e-21)
(0.000818095 0.000638334 5.26355e-21)
(-0.00862372 0.000105575 -5.3036e-21)
(-0.00766493 -0.00678482 -5.03797e-21)
(-7.92676e-05 0.00183203 5.44761e-21)
(4.98757e-05 -6.2947e-05 -2.26876e-21)
(4.49133e-05 2.80247e-05 -3.32842e-21)
(0.00286414 -0.00192547 1.75359e-21)
(0.0014439 0.000572585 4.36404e-21)
(0.000566794 -0.000103959 2.55888e-23)
(0.000269773 -0.000327292 -2.21272e-21)
(-0.00349967 -0.00177736 0)
(-0.0171116 -0.000932574 -8.48937e-21)
(0.000518744 0.00123222 6.9615e-21)
(0.000245097 -6.4634e-05 -7.07826e-21)
(0.00698749 -0.00130532 -2.70673e-21)
(-0.00276725 -0.000143653 1.38449e-22)
(0.000391706 -3.76397e-05 1.34166e-21)
(0.00480116 -0.00316276 0)
(0.000977697 -0.000142313 0)
(-0.0040979 -0.00242767 1.63403e-21)
(-0.000872828 0.000646312 1.01171e-20)
(0.00198055 2.7466e-05 -2.96819e-21)
(0.000791137 -0.000312849 3.56678e-21)
(-6.00646e-06 0.000430892 -6.9951e-21)
(0.0139582 -0.0133324 0)
(0.000154934 -0.000112546 2.69807e-24)
(-6.67681e-05 0.00137356 0)
(0.000390408 4.17705e-06 1.60565e-22)
(6.18836e-05 5.12937e-05 3.62302e-21)
(0.000207239 2.36961e-05 -5.11515e-21)
(4.46179e-05 -1.40073e-05 2.15008e-21)
(0.00249716 -0.000409059 0)
(7.47643e-08 -0.000190168 0)
(-0.000373655 -0.000341212 2.1615e-21)
(4.45166e-05 0.000101506 0)
(0.000402514 0.000384432 -8.3796e-22)
(0.00199388 0.00582227 3.13772e-21)
(0.000504343 7.70135e-05 4.31101e-21)
(5.85236e-05 1.30874e-05 0)
(-0.00167098 -0.00137054 1.90586e-21)
(-0.000270735 0.00108709 6.83474e-22)
(5.27463e-05 1.1505e-05 9.85163e-22)
(0.000202725 -0.000111665 0)
(0.00518343 -0.00092183 1.56528e-21)
(0.00159379 -0.000118402 -4.33314e-24)
(0.000562523 -0.000347316 0)
(-0.00448253 -0.00443921 0)
(0.00035249 -0.000249411 -3.78826e-21)
(0.000295058 0.000209994 -3.50726e-21)
(8.15841e-05 -7.67261e-05 0)
(-0.00556079 -0.00632084 -1.99681e-21)
(-0.00316324 0.00536471 2.66951e-21)
(-0.00692922 0.00397157 0)
(-0.00168861 -0.00131395 3.75089e-21)
(0.00140325 0.000571937 -7.84909e-21)