/*--------------------------------*- C++ -*----------------------------------*\
| =========                 |                                                 |
| \\      /  F ield         | OpenFOAM: The Open Source CFD Toolbox           |
|  \\    /   O peration     | Version:  v2012                                 |
|   \\  /    A nd           | Website:  www.openfoam.com                      |
|    \\/     M anipulation  |                                                 |
\*---------------------------------------------------------------------------*/
FoamFile
{
    version     2.0;
    format      ascii;
    class       surfaceScalarField;
    location    "200";
    object      ddtCorrDdt0(phi);
}
// * * * * * * * * * * * * * * * * * * * * * * * * * * * * * * * * * * * * * //

dimensions      [0 3 -2 0 0 0 0];
oriented        oriented;


internalField   nonuniform List<scalar> 
56134
(
-4.73782e-05
6.96677e-05
-2.2288e-05
-0.00041166
0.000205174
0.000206467
-3.76946e-07
4.50205e-06
-4.12559e-06
-5.49382e-05
4.51208e-05
9.82029e-06
0.000144375
2.48869e-05
-0.000169236
0.000210715
-7.53269e-05
-0.000135388
-6.74819e-05
2.82034e-05
3.92795e-05
4.96353e-05
-4.14739e-05
-8.1603e-06
-0.00016507
0.000165071
-2.39293e-05
4.35402e-05
5.61927e-05
-4.2264e-05
-1.39284e-05
-1.0925e-05
3.57598e-05
-2.48339e-05
4.57447e-05
-3.05358e-05
-1.52076e-05
4.76417e-05
-1.89656e-06
0.000274049
-0.000267634
-6.41166e-06
4.0717e-05
-5.94733e-06
-3.47692e-05
1.01233e-05
-2.10925e-05
1.09702e-05
0.000201013
-0.000520199
0.000319186
4.32205e-05
-1.21104e-05
-3.11104e-05
-2.75983e-05
5.43023e-05
-2.67054e-05
4.30785e-05
-4.71774e-05
4.10266e-06
4.76184e-05
-4.53903e-06
0.000565703
-2.28883e-05
-0.000542832
-2.17234e-05
1.0134e-05
1.15895e-05
8.06076e-05
-4.28463e-05
-3.77668e-05
0.00016514
-9.55371e-05
-6.96104e-05
-0.000742364
0.000126374
0.00061598
5.97317e-05
-8.65348e-06
-5.10776e-05
-1.99558e-06
3.19063e-07
1.67645e-06
5.30578e-05
-3.5112e-05
-1.7943e-05
0.000408115
-0.000229502
-0.000178577
-0.000137556
0.00017737
-1.04571e-05
-1.12656e-05
4.69175e-05
9.40033e-06
-5.63182e-05
-3.71029e-05
5.45788e-05
-1.7475e-05
2.3046e-05
-1.29223e-05
-1.2944e-05
-9.41092e-06
2.23549e-05
0.000545755
-0.000126914
-0.00041884
3.69087e-05
0.000100431
-0.000137343
-5.75573e-05
6.31774e-05
-5.62701e-06
3.23469e-05
2.3384e-05
-5.57364e-05
-7.85894e-06
1.52765e-05
-7.42381e-06
0.000379125
-0.000407296
-7.33215e-05
9.09293e-05
-1.76122e-05
5.00912e-05
6.51098e-06
-5.66016e-05
-7.12479e-05
0.000116111
-4.48632e-05
0.000360442
-0.000123583
-0.000236742
-1.79004e-05
0.000241522
-0.000223648
-7.6836e-05
-0.000665536
4.56847e-05
2.15094e-05
-6.71941e-05
3.00105e-05
-3.41718e-05
4.15956e-06
-5.70127e-06
1.63014e-05
-1.05998e-05
3.81384e-06
-2.11822e-05
1.73686e-05
4.47137e-05
-3.96768e-05
-5.03588e-06
-0.000203313
9.64045e-05
0.000106917
1.86089e-05
-1.47947e-05
-3.19558e-05
4.58753e-05
-1.39198e-05
6.65158e-05
-1.82213e-05
-4.82889e-05
-2.80523e-05
-0.000123433
0.000151483
-0.000229321
-0.000163891
0.000393194
7.1692e-05
6.74459e-05
-0.000139139
-5.92611e-05
1.83921e-05
4.08689e-05
-4.6811e-05
1.62762e-05
0.00011572
-0.000162787
4.7066e-05
0.000182981
0.000225188
3.39184e-05
4.66863e-05
0.000538371
-0.000510622
-2.76237e-05
-4.31481e-05
8.786e-06
3.43626e-05
8.59492e-05
-2.58593e-05
-6.00914e-05
0.000376309
-0.000521114
0.000144792
5.85608e-05
-3.48305e-05
-2.37312e-05
0.000237365
-0.000237357
5.79689e-05
-4.26562e-05
-1.5312e-05
4.54247e-05
2.21749e-06
2.4678e-06
5.72644e-05
-1.11221e-05
1.67752e-05
-5.65324e-06
1.09381e-05
-6.85025e-05
-9.84291e-05
9.54641e-05
2.96575e-06
-7.58819e-05
2.85049e-05
0.000178678
-0.000270424
9.17496e-05
-3.32592e-05
6.9466e-06
2.63134e-05
-9.62555e-08
-1.8993e-06
0.000619029
-5.66446e-06
-0.000613368
-1.25283e-05
-5.65385e-05
6.90648e-05
-4.22108e-05
1.1997e-05
3.02144e-05
0.000458284
-7.9131e-05
-2.59281e-05
5.33613e-05
-2.74332e-05
-7.48349e-05
-7.34733e-05
0.000148294
0.00021545
-0.000153346
-6.21149e-05
-5.61529e-05
3.76569e-05
1.84968e-05
4.291e-05
0.000502847
-6.86273e-05
9.07687e-05
-2.21416e-05
3.92715e-05
9.05605e-06
-4.83292e-05
-0.000349661
-3.02607e-05
0.000379921
-5.29121e-05
2.69838e-05
0.00059087
-0.000668333
7.74626e-05
6.0106e-05
-4.5003e-05
-1.51026e-05
3.03163e-05
-3.05167e-07
-0.000327864
0.000311954
1.59057e-05
1.41457e-05
-2.10825e-05
6.93462e-06
-3.02976e-05
-0.000124488
0.000154731
3.25603e-05
-2.24061e-06
0.00017587
-6.01535e-05
0.000492358
-0.000291341
0.000647779
0.000169614
-0.000817438
9.07245e-07
-1.15547e-06
2.48593e-07
2.11822e-05
3.18778e-05
2.0023e-05
-1.16908e-05
-2.78409e-05
-6.82824e-05
9.61133e-05
-3.69379e-05
2.60133e-05
3.29345e-05
-6.05316e-05
-6.03098e-05
4.77813e-05
4.16883e-05
-5.65165e-05
1.48264e-05
5.03388e-05
-2.69731e-05
-2.33657e-05
-4.68045e-05
1.48482e-05
0.000141924
-0.000105018
-6.13802e-05
5.37952e-05
7.58636e-06
-1.10363e-05
-2.04057e-05
3.14444e-05
0.000256205
0.000246947
-0.000502949
0.000491276
-0.000234574
-0.000256693
8.2023e-08
-1.07699e-07
2.59822e-08
-4.14718e-06
4.10245e-05
-3.6875e-05
-5.69775e-06
5.31295e-05
-4.74347e-05
0.000211676
-6.72954e-05
-7.51258e-05
9.82971e-05
-2.21338e-05
-3.92465e-05
-0.000254678
0.000385349
-0.000130708
-3.82625e-05
5.22321e-05
-1.39692e-05
-5.1828e-05
2.52159e-05
2.66129e-05
-2.57768e-05
-4.65339e-05
7.23108e-05
1.31149e-05
0.000342755
-0.000355953
-0.000441935
9.05413e-05
0.000351365
-0.0003142
0.000367062
-5.28302e-05
2.01932e-05
-1.29921e-05
-7.20087e-06
-0.000199467
0.000292337
-9.28702e-05
-3.77402e-06
1.79202e-05
-2.68786e-05
-7.2954e-06
-2.82977e-05
-3.09643e-05
-1.40049e-06
2.32054e-05
-2.18207e-05
-9.06818e-05
0.000115906
-2.52294e-05
1.41962e-05
-5.12989e-05
0.00014685
-0.000262899
0.00011607
-1.39903e-06
-1.82605e-05
5.0598e-05
4.13853e-05
1.65839e-05
0.000535593
2.68831e-06
4.65404e-05
-2.61534e-05
-2.03875e-05
-4.82733e-05
5.05607e-05
-2.28522e-06
-6.73221e-06
0.000625778
-9.00631e-06
7.50312e-06
1.50316e-06
-0.000212727
0.000193933
1.879e-05
5.19145e-05
-7.76913e-05
4.65069e-05
8.69467e-05
-0.000133457
0.000157694
-0.000284786
0.000127088
5.67035e-05
-0.000112594
5.58761e-05
3.08111e-07
-9.31476e-06
-2.77199e-05
0.000174545
0.000509522
-0.000253293
1.58083e-05
2.89052e-05
1.67845e-05
-0.000214856
0.000198091
-1.91718e-05
-3.2656e-05
0.000261019
0.000225469
-0.000486474
4.87194e-05
-5.07587e-05
2.03338e-06
-1.99954e-05
4.41865e-05
-2.41919e-05
-4.7811e-05
5.39271e-05
-6.11481e-06
-7.44761e-06
2.01193e-05
-1.26709e-05
9.28675e-06
8.19298e-06
-1.74801e-05
3.63637e-07
4.89878e-05
-4.93511e-05
-6.57769e-05
0.000168269
-0.000102493
3.90086e-05
-9.18305e-05
5.28007e-05
0.000104417
0.000513405
-0.000617858
-2.99905e-05
2.8226e-05
1.76543e-06
0.000207889
0.000125618
-0.000333519
2.91604e-05
-5.05257e-05
2.13635e-05
4.25073e-05
4.34415e-05
3.21857e-05
-4.46371e-05
1.24519e-05
0.000745979
-9.82116e-05
-3.09371e-05
-1.80266e-05
0.000289801
-0.000271803
8.06875e-05
-5.0294e-05
-3.03932e-05
0.000294946
0.000196399
4.71047e-05
-3.10577e-05
-1.60433e-05
-1.96576e-05
-1.5245e-06
-8.4978e-07
5.38627e-05
-5.3013e-05
-2.2645e-06
2.69057e-05
-2.46399e-05
0.000208929
-0.000462764
0.000253836
1.08767e-05
3.62292e-05
-5.96423e-05
6.06591e-05
-1.01854e-06
0.000199168
-0.000289859
-6.28715e-05
7.49068e-05
-1.20298e-05
6.72028e-05
-2.15184e-05
1.74499e-05
-2.92643e-06
4.75958e-05
-4.46681e-05
4.03403e-05
-8.86675e-05
4.83258e-05
-0.000140106
7.5503e-05
6.46008e-05
3.9597e-05
1.40571e-05
-5.36598e-05
1.17932e-05
8.29942e-06
-2.00946e-05
-2.25006e-05
1.70894e-05
5.40824e-06
-1.92158e-05
1.79046e-05
1.31146e-06
4.41989e-05
1.43616e-05
-0.000503142
0.000503009
4.82584e-05
7.9337e-06
0.000254669
2.7409e-05
5.32789e-05
-0.000343933
2.97437e-05
2.30374e-05
-2.5305e-05
5.01598e-05
-2.10002e-05
-6.3146e-05
3.73366e-05
2.58119e-05
1.29037e-05
-1.96036e-05
6.69972e-06
-0.000269279
-8.98125e-06
0.000278262
-3.8097e-05
-2.50471e-05
-0.000180674
-0.000230996
-4.37597e-06
-1.3658e-05
1.80337e-05
1.79978e-05
-2.90329e-05
-9.7383e-06
2.26544e-05
-1.29165e-05
0.000116386
-0.000159696
4.3301e-05
3.73406e-05
-5.13762e-05
1.40347e-05
3.80206e-05
-1.81783e-05
-1.98432e-05
9.45638e-06
-1.3832e-05
5.85228e-05
0.000337599
-0.000396136
4.163e-05
-0.000391296
3.35454e-05
-3.35238e-06
-3.01945e-05
-4.25232e-05
-1.74063e-05
5.99287e-05
-9.0629e-06
4.24912e-05
-3.34308e-05
-2.58331e-05
-7.42571e-06
0.000260149
-4.93054e-05
-0.000210821
-8.83129e-05
-1.94059e-05
0.000107716
-0.000384255
0.000129625
-3.68155e-05
5.17096e-05
-1.48935e-05
2.33251e-05
-5.366e-05
-6.22589e-05
6.39149e-05
-1.65477e-06
3.9151e-05
-5.85851e-05
1.94357e-05
0.000195595
0.000209576
-0.0004051
5.02735e-05
-6.09289e-05
1.06551e-05
0.000593045
-0.000488613
7.23044e-05
-0.000147143
-2.3705e-05
2.26329e-05
1.07304e-06
-0.000282266
-9.12471e-06
0.00029139
-5.37804e-05
5.97015e-06
-2.57314e-05
-4.14598e-05
6.71894e-05
1.89973e-05
0.000188641
-0.00020766
-3.31635e-07
-2.96591e-05
0.000218399
0.000284539
-0.000502938
0.000572941
0.000162877
-0.000735844
5.87582e-05
-8.66688e-06
1.88889e-05
-1.12318e-05
-7.6561e-06
1.45121e-07
-6.05725e-07
4.60884e-07
4.51726e-06
-9.58253e-06
5.06638e-06
7.88495e-05
-3.98446e-05
-9.53005e-07
2.73889e-05
-2.64313e-05
6.06532e-05
-1.22685e-06
-2.10225e-05
1.05656e-05
-3.2998e-05
3.83614e-06
2.91619e-05
3.55043e-05
-0.000230469
0.000195001
-4.46513e-05
7.3493e-05
-2.88423e-05
7.5663e-05
-5.3195e-05
-2.24679e-05
-1.9386e-05
-3.31738e-05
3.30269e-05
1.4704e-07
-4.78418e-06
-4.99772e-05
5.47645e-05
0.000114457
-0.000126772
1.23021e-05
-6.62202e-05
0.000223913
4.13144e-05
-4.42401e-05
-0.000616895
0.000113763
-4.01665e-05
3.60131e-05
0.000174397
-0.000102706
-7.47799e-05
3.20558e-06
7.15741e-05
9.57509e-05
0.000264809
-6.09057e-05
5.52057e-05
1.65864e-05
1.95532e-06
-1.85382e-05
5.06085e-05
-1.10127e-05
-0.000360782
1.68949e-05
9.18947e-06
-1.8928e-05
-0.000233468
9.22403e-05
0.000141218
0.000190872
-0.000378355
0.000187473
-1.10728e-05
-9.94938e-06
-8.94223e-05
3.47318e-05
5.46896e-05
-2.06794e-05
6.75994e-05
-6.41927e-05
5.98663e-05
4.32655e-06
0.000194839
-0.000424164
2.74114e-05
5.26173e-06
-3.26745e-05
-3.28481e-05
2.59866e-05
6.85924e-06
-0.000354751
0.000406695
-5.20023e-05
-9.12189e-05
1.60816e-05
-1.89975e-05
1.19376e-05
7.06067e-06
-0.000159709
0.000375738
-0.000216072
1.13131e-05
7.57626e-06
5.94287e-05
-1.80429e-05
-1.36982e-05
-1.78217e-05
3.15204e-05
3.10119e-05
0.000901491
-0.000366379
-0.000535127
-1.20055e-05
1.75526e-05
-5.54687e-06
-0.00011054
3.57044e-05
7.48377e-05
0.000256117
-0.000256119
1.57162e-05
2.89273e-06
-5.21552e-05
1.38929e-05
-6.91819e-05
9.53808e-06
8.77972e-05
0.000346837
-0.00043463
-2.83029e-05
2.93122e-05
-1.01263e-06
4.03006e-05
3.31922e-05
4.91813e-05
-2.32161e-05
-2.60075e-05
1.87991e-06
-0.00011242
-0.000164644
2.70849e-05
-1.56766e-05
4.55399e-06
-0.000648785
8.97777e-05
0.000559055
-3.42371e-05
1.0307e-05
6.49159e-07
6.51809e-05
-6.58367e-05
3.97837e-06
-5.94229e-06
1.96365e-06
-6.29095e-05
2.80767e-05
-2.68407e-05
5.0225e-05
-3.53186e-05
3.49872e-05
-0.000343409
0.000277372
6.60177e-05
0.000246367
-0.000210813
0.00024909
-0.000260096
1.09873e-05
-4.63175e-05
-1.9504e-05
6.58202e-05
1.16193e-07
-3.39555e-08
-8.81864e-05
5.34697e-06
8.28473e-05
1.06287e-05
2.47078e-05
-3.53372e-05
1.22803e-05
3.09404e-05
6.15429e-05
-1.98295e-05
-4.17206e-05
-0.000354803
0.000118104
-9.12217e-05
-2.68817e-05
3.66965e-05
-3.15125e-06
4.30359e-05
1.04572e-05
-5.34949e-05
-3.36005e-05
-2.931e-05
-0.000102566
-0.000250763
0.000353335
-1.4013e-06
4.62466e-05
-4.48476e-05
-5.88894e-05
5.32697e-05
5.61835e-06
1.46928e-05
-2.65167e-05
1.18273e-05
3.82077e-06
-4.11871e-06
2.9783e-07
0.000558149
-5.29746e-05
-0.000505176
-2.09411e-05
-2.76322e-06
-1.02487e-06
-5.75001e-06
-2.70979e-05
9.9441e-06
9.41955e-06
-1.35141e-05
4.09452e-06
1.91177e-05
1.07583e-06
-0.000102793
0.000144076
-4.12855e-05
4.64416e-05
-3.41613e-05
1.00374e-06
-1.61447e-05
1.5141e-05
3.96027e-06
2.44903e-06
-6.41372e-06
1.3361e-05
-1.33794e-05
1.87548e-08
-5.23148e-05
4.47828e-05
7.53277e-06
4.6826e-05
1.88957e-06
-0.000116004
3.94067e-05
7.64486e-06
-4.70483e-05
0.000151032
0.000407107
2.70381e-05
3.44695e-05
-5.48849e-05
-9.30764e-06
0.000396526
-0.000386558
-9.96866e-06
3.96589e-05
6.88193e-06
3.90115e-05
-4.23644e-05
4.75549e-05
9.77809e-06
-5.73291e-05
-1.56806e-05
-2.12567e-05
-4.37622e-05
6.1393e-07
-0.000184963
1.9892e-05
-0.000203352
7.88736e-05
2.59521e-05
0.000421117
-0.000362604
-8.90745e-06
2.06997e-05
-0.00046425
-9.33246e-05
0.000557582
0.000742557
3.34022e-07
3.28588e-05
-3.31922e-05
-0.000379421
0.000129373
0.000250042
-8.80359e-05
7.24752e-05
-0.000277945
0.000156702
0.000121198
0.000235683
2.44753e-05
5.48561e-05
-2.07068e-05
-3.41486e-05
5.36905e-05
-3.43655e-05
-1.93252e-05
-4.49786e-05
1.3195e-05
3.17824e-05
1.03159e-05
8.69224e-06
-1.90076e-05
-6.89005e-06
-1.67722e-05
5.60419e-05
0.000160566
5.01373e-05
0.000211007
-0.000210999
3.70278e-05
-2.58011e-05
-1.12272e-05
4.13222e-06
-2.11849e-05
1.7053e-05
0.00020918
-0.000269478
6.02544e-05
-6.50432e-07
-0.000273347
0.000253878
1.9467e-05
4.69271e-05
-5.08318e-05
3.90129e-06
1.87968e-05
4.06317e-05
-3.76443e-05
-0.000339142
-2.16221e-05
5.05358e-05
1.73432e-05
-6.78827e-05
-1.5428e-05
4.10789e-05
-2.56501e-05
-5.15163e-05
3.72672e-05
1.42486e-05
-6.80713e-05
-0.000135275
6.04878e-05
-8.28397e-06
-5.2205e-05
3.27336e-05
1.64412e-05
-2.61463e-06
-1.03332e-05
1.29471e-05
3.19479e-05
-4.53757e-06
-0.000151303
0.000310924
-0.000159625
3.71421e-06
1.06584e-07
-2.17182e-05
-2.80882e-05
4.98063e-05
2.00235e-05
2.40639e-05
-4.40873e-05
0.000173112
4.23344e-05
0.000188651
-6.01576e-05
-0.000128474
-3.31628e-05
4.61936e-05
-1.30312e-05
1.68172e-05
-5.38109e-05
3.69927e-05
3.92653e-06
5.17123e-08
7.71367e-06
-9.58964e-05
-0.00024496
-2.43776e-05
1.26073e-05
-1.52213e-05
5.39211e-05
-3.84114e-05
-1.55099e-05
1.18736e-05
1.73579e-06
-1.36087e-05
-8.07439e-05
2.68475e-05
5.38931e-05
-6.50251e-06
-2.88163e-05
-0.000324873
4.2626e-05
0.000218653
-0.0002366
-0.000142154
0.000350024
3.99748e-05
-4.13721e-05
-3.58461e-05
5.26638e-05
5.51723e-05
-5.86864e-05
3.51262e-06
-5.65442e-05
-5.71437e-06
-1.49617e-05
1.58698e-05
-9.08285e-07
-0.000205396
0.000400228
8.81654e-06
-4.19796e-05
-6.56982e-05
6.81521e-05
-2.45491e-06
4.62773e-07
-3.17593e-07
-1.5615e-05
2.48639e-06
1.31295e-05
6.93087e-05
-3.96279e-05
-2.96849e-05
-0.000150763
8.49845e-05
8.09264e-05
-1.74109e-05
-6.35187e-05
-5.03504e-05
-0.00059846
-2.99069e-05
1.62088e-05
-0.00052562
0.000291684
0.000234011
4.25371e-05
-9.12503e-06
-3.34113e-05
5.02262e-05
-3.27943e-05
-1.74312e-05
-4.15969e-05
4.48888e-05
-3.29143e-06
2.27601e-05
-5.32893e-05
3.05288e-05
3.70123e-05
-5.13996e-07
-3.64977e-05
-6.63204e-05
-8.45932e-06
-2.03969e-05
-3.4536e-05
-2.89057e-05
5.02881e-05
-2.13824e-05
1.68294e-05
5.24863e-05
-5.08067e-05
-5.16353e-06
5.59703e-05
-0.000363852
0.000359854
3.99862e-06
-3.265e-06
-0.000230221
3.18855e-05
-8.11901e-06
-2.37661e-05
2.96958e-06
-2.39101e-05
5.40542e-05
-3.57065e-05
-1.8347e-05
-5.98601e-06
-8.37976e-05
8.97858e-05
-3.39835e-05
2.89389e-05
5.0452e-06
-0.000195027
4.91216e-05
0.000145905
-1.09818e-05
1.71925e-05
-6.21162e-06
2.37936e-05
-2.68925e-05
3.0983e-06
9.39171e-05
2.05414e-05
-0.000227651
0.000193989
3.36804e-05
0.000191334
-0.00012204
-6.93045e-05
0.000395008
-0.000492048
9.69964e-05
6.15502e-05
-0.000101885
4.03409e-05
2.12298e-05
-1.70972e-05
2.14331e-05
-3.15247e-05
-1.64911e-06
-5.7059e-05
4.34654e-05
1.35933e-05
-8.86327e-06
-1.95837e-05
6.63986e-06
-1.73105e-05
1.69602e-06
0.000114654
-3.02482e-05
-8.44016e-05
2.18363e-05
-4.02223e-05
1.83869e-05
-6.16805e-05
1.91568e-05
-3.80726e-05
3.84076e-05
-6.69214e-05
-7.31852e-05
-0.000355692
0.000754382
-0.000398615
-0.000314273
-1.41342e-05
0.000328406
-0.000319111
0.000456744
-0.000137674
-3.41755e-05
-4.95263e-05
8.37027e-05
-4.67858e-05
4.76027e-05
-8.1678e-07
-0.000289171
-4.9926e-05
0.000339092
-1.25591e-05
1.55784e-05
-3.01908e-06
-2.32806e-05
-3.35184e-05
5.67987e-05
3.73935e-05
-3.80763e-07
6.19528e-05
-2.08617e-06
-3.41093e-05
4.55493e-05
-1.14394e-05
9.77673e-06
-0.000165917
0.000156157
4.1129e-05
-3.05729e-05
-1.05559e-05
-6.56704e-05
1.74132e-05
4.82581e-05
0.000105913
-0.000149571
-0.000139772
0.000126851
1.29203e-05
-2.95138e-05
-2.01083e-06
-8.24962e-06
1.85654e-05
-8.95098e-06
1.74607e-05
-8.51016e-06
1.75216e-05
-5.4663e-05
3.71404e-05
2.67399e-05
5.64453e-05
-8.927e-05
3.28468e-05
-1.73381e-05
5.33282e-06
-6.07996e-05
9.65041e-05
0.000526868
-7.7115e-05
-0.000449771
-0.000195568
-0.000365449
0.000561035
-3.17018e-05
2.81385e-05
3.55993e-06
0.00011717
7.1514e-05
-0.00014208
3.92865e-05
-0.000192903
-5.37287e-05
0.000246639
1.51138e-05
1.74486e-05
2.75587e-06
1.20647e-06
5.81305e-05
0.000161103
-0.000219239
9.05631e-06
-4.53815e-06
9.37735e-05
-3.22232e-05
1.55333e-05
1.63513e-05
-3.66571e-05
-1.48594e-05
7.09122e-05
-1.2443e-06
-0.000229251
1.60689e-06
-4.72321e-05
6.40704e-05
4.44366e-05
0.00049109
2.16261e-05
3.20638e-05
3.9619e-05
-5.61355e-05
1.65175e-05
0.00011387
-0.000292767
0.000297026
-4.27055e-06
-1.17789e-05
5.00022e-05
-3.82233e-05
3.46628e-05
-1.52922e-05
3.30674e-07
1.52265e-05
2.59029e-05
-0.000109809
2.14943e-05
5.19769e-05
-1.23571e-05
7.27474e-05
-2.56188e-05
-4.71309e-05
5.41884e-05
-0.000131777
7.76033e-05
6.33732e-06
-4.11693e-06
-2.23276e-06
-5.19791e-06
-3.84165e-05
4.36137e-05
4.70511e-06
-4.69878e-06
-2.633e-05
4.63534e-05
-3.60894e-06
9.97231e-06
4.32816e-05
-0.000249095
0.000205814
6.29383e-05
-6.44072e-05
1.46897e-06
-5.47803e-05
2.51628e-05
4.7584e-05
-2.63054e-05
-1.50282e-05
4.13342e-05
0.000216176
-0.000282395
-0.000553494
0.000422407
0.000131074
-4.59651e-05
7.72495e-06
3.82398e-05
-0.000521634
9.87504e-05
0.00042292
-4.30723e-05
-5.7582e-05
5.20168e-05
5.56585e-06
-5.87828e-05
0.000274963
1.11074e-05
-5.74263e-05
-2.64169e-07
3.23875e-07
-5.92985e-08
-8.67268e-06
1.33527e-05
-4.67871e-06
-6.65839e-06
-3.55519e-05
0.000503519
0.000397969
-1.60056e-05
3.44663e-06
1.0831e-05
-2.74306e-05
1.66e-05
4.2557e-05
1.04931e-05
-5.30546e-05
-4.0216e-05
1.39107e-05
-0.00073993
0.000275688
-2.90546e-05
0.000424056
7.22534e-06
-8.97028e-07
1.024e-05
-5.92477e-05
4.90081e-05
-3.29177e-05
2.91111e-05
3.80895e-06
-5.22398e-05
1.89289e-05
3.33433e-05
0.000355154
-0.000277982
-7.71583e-05
-3.56584e-07
9.27089e-08
-3.55218e-05
5.22869e-05
-1.67658e-05
0.000117203
7.41332e-05
6.59438e-05
-3.99082e-06
3.97696e-05
-6.55026e-05
-3.13158e-05
-5.46559e-05
8.59717e-05
-3.62892e-05
-3.74769e-05
4.47879e-06
6.87774e-05
-9.66156e-05
5.39983e-05
-4.22196e-06
-4.97695e-05
4.73044e-05
1.31835e-05
-6.82739e-07
7.1595e-05
0.000409508
-0.000359357
-5.01511e-05
-4.73543e-05
0.000289099
-0.000241905
-1.4191e-05
5.51896e-06
1.36162e-05
5.37054e-05
-6.73235e-05
0.000126781
-7.59317e-05
-5.08525e-05
-4.67131e-05
4.18651e-05
4.83612e-06
2.75892e-05
-4.93074e-05
0.000230171
-0.000425729
-0.000606043
0.000555638
-1.23853e-07
9.0826e-07
-7.84502e-07
-7.84115e-05
9.78374e-06
-1.55341e-05
1.40104e-05
1.52414e-06
1.31081e-05
2.09557e-05
1.70646e-05
2.97269e-05
-3.14208e-05
1.69483e-06
-8.15381e-05
2.11099e-05
6.043e-05
0.000391104
-6.20697e-05
-0.000329054
1.75322e-06
1.05685e-05
-1.23205e-05
-1.80353e-05
1.05873e-05
-3.42925e-06
-3.4643e-05
5.65184e-05
-3.0153e-05
-2.63651e-05
4.88027e-05
-1.14623e-05
0.000405354
-0.000547837
0.000142451
-8.39395e-05
-0.000480795
9.8999e-06
0.000470861
0.000304741
-0.000313868
7.15858e-05
-3.12465e-05
-1.98646e-05
0.000298644
-0.00027874
-2.53443e-05
-7.57837e-06
-1.96959e-05
8.62329e-06
4.50971e-05
1.2429e-06
-4.63405e-05
0.000482532
-0.000540165
5.74701e-05
3.34734e-05
2.98232e-05
-9.62006e-08
1.43605e-05
-5.89993e-05
0.000274483
-0.000215513
0.000108938
5.71566e-06
-2.09233e-05
1.47061e-05
6.2174e-06
5.66401e-05
2.79687e-06
-5.94366e-05
1.78706e-09
-1.07949e-06
1.07742e-06
-0.000136364
-0.000191501
-2.43282e-05
6.413e-05
-3.98025e-05
5.82185e-05
-4.06274e-05
-1.75894e-05
2.90903e-05
1.34003e-05
-0.0002862
0.00026532
2.0834e-05
-5.01308e-05
2.39769e-05
-3.34321e-06
5.85156e-05
5.43671e-05
6.37361e-05
-3.44559e-06
-1.57698e-05
0.000482271
2.05192e-07
-5.71556e-06
-2.1516e-05
0.000372905
-0.000351384
-4.41554e-05
6.1198e-05
-1.70424e-05
-4.20754e-05
3.68775e-05
-6.18637e-05
3.97304e-05
6.72339e-05
0.000198974
-0.00026613
3.06036e-05
1.90333e-05
4.31366e-05
-3.69863e-05
-6.15018e-06
6.13214e-05
1.61708e-06
-0.00020266
-0.000322954
-0.000249665
5.51869e-06
0.000244162
-3.65478e-06
-6.61017e-05
-2.25667e-05
-0.000343081
0.00018337
-0.000288927
-5.44703e-05
-1.16142e-05
-8.08139e-06
-2.46542e-05
1.52187e-05
9.4352e-06
-1.78588e-05
0.000320479
-0.000129596
0.00012661
-0.000138139
1.1538e-05
-9.83335e-05
-5.54211e-05
0.000153751
-5.91068e-05
-2.24306e-05
-3.09984e-05
2.76695e-05
3.32873e-06
-1.04145e-05
-4.30434e-06
1.47186e-05
-9.31486e-05
9.5029e-05
-1.18346e-05
-3.1383e-05
4.32169e-05
-2.77235e-05
-6.60857e-06
3.43323e-05
-2.86416e-05
-6.34025e-05
9.20401e-05
-5.82188e-05
4.41238e-05
1.40961e-05
9.3833e-05
0.000261339
3.85335e-05
7.58926e-06
-4.61282e-05
-0.000174387
0.000174386
-0.00010347
-0.000109261
2.86858e-05
-3.87808e-05
1.0096e-05
-0.000224624
0.000512242
-0.000287525
-1.31913e-05
-2.34209e-06
-8.21246e-06
-5.97771e-06
5.88372e-05
7.68437e-06
-6.4714e-05
4.98244e-05
1.489e-05
-3.20123e-05
-1.76444e-05
4.96566e-05
-5.79795e-05
1.83474e-05
-9.96112e-06
-6.28687e-05
0.000210859
6.29263e-05
-0.000273785
7.56439e-05
-0.000104289
9.86068e-06
3.52597e-05
-0.000203974
0.000222972
-5.25558e-05
2.08387e-05
3.17126e-05
-6.48235e-05
4.49961e-05
-3.39692e-05
7.64771e-05
-1.90756e-05
2.54415e-05
-4.26831e-05
1.72427e-05
-2.73614e-05
2.87365e-05
-1.37509e-06
-4.06862e-05
-4.29228e-06
8.10933e-05
-1.67109e-07
0.000150418
-9.27439e-05
-5.76692e-05
3.62316e-05
-4.20487e-05
5.94838e-06
0.000494651
0.000131864
-0.000626506
1.64057e-05
-5.61106e-05
3.97009e-05
0.000219661
-0.000152371
6.42618e-05
-2.59177e-05
-3.83448e-05
6.57053e-06
0.000515328
-3.31455e-05
9.68044e-06
1.0439e-05
0.00023072
0.000144595
-0.00037532
0.000193229
-0.000125783
1.12851e-05
-1.08358e-05
-4.48502e-07
-6.08767e-05
4.70864e-05
1.37898e-05
-3.90559e-06
-0.000602154
-1.39783e-05
-3.09457e-05
5.6322e-05
-2.53756e-05
-8.22864e-07
4.457e-07
-0.000623632
0.000741748
-0.000118089
0.000138082
-0.000138088
2.66644e-05
3.25989e-05
-5.9261e-05
-1.56831e-05
-3.75118e-05
5.8824e-05
-2.24819e-05
-1.88711e-05
3.57328e-05
-1.68623e-05
7.87174e-05
0.000494146
-0.000572927
7.21744e-05
-4.17495e-05
-3.04299e-05
-1.61619e-05
4.05315e-05
-2.43695e-05
7.10886e-05
-7.09404e-05
-1.47413e-07
0.000117093
-0.000112931
-4.15736e-06
1.35095e-05
3.64928e-05
7.07334e-05
-2.38467e-05
-4.68861e-05
-4.93969e-05
3.3714e-05
-3.97936e-05
2.17719e-05
1.80225e-05
0.000446015
-0.000237098
-0.000232618
-7.66149e-06
0.000240231
-0.000127391
0.000249159
-0.000121743
5.05541e-05
0.000235488
-0.000286055
1.6326e-05
-9.74087e-08
-1.62284e-05
0.000100311
0.000290794
3.55192e-05
-4.73538e-05
-3.51302e-05
0.000228948
-0.000107416
-0.000121562
-6.30853e-05
2.44929e-05
3.85904e-05
7.486e-06
-1.53429e-05
4.60511e-05
-5.56081e-05
9.55774e-06
-5.4903e-05
3.21966e-05
2.27065e-05
-0.000727377
-1.25547e-05
-0.000110359
0.00016457
5.72828e-05
-0.000286774
0.000608355
-0.000603057
-5.30335e-06
-0.000538346
0.000701237
6.46547e-06
5.15194e-05
-5.79879e-05
-5.99159e-05
5.73618e-05
2.55498e-06
0.0004254
-4.9236e-05
5.18806e-05
-2.64439e-06
-0.000790531
6.31541e-05
-4.42806e-05
4.15067e-05
2.77281e-06
3.96525e-06
-9.71136e-05
4.89185e-05
-3.90215e-05
-9.89805e-06
2.61773e-05
-4.02054e-05
1.40286e-05
1.96158e-05
2.3804e-05
-5.07768e-05
3.89458e-05
1.12806e-05
-0.000142493
-0.000379083
-3.27428e-05
4.8373e-05
-1.56299e-05
-1.44731e-06
7.53581e-05
-7.391e-05
-7.04947e-05
2.15079e-06
6.83653e-05
3.24108e-05
-0.000225364
2.49964e-05
4.33732e-05
-6.8373e-05
1.89571e-05
-3.46374e-05
9.01232e-06
4.58123e-05
-5.48244e-05
-1.87666e-05
-3.06303e-05
-6.19632e-05
5.33098e-05
0.000284941
-8.52859e-06
5.98439e-05
-5.12923e-05
-4.34952e-05
3.43716e-05
-2.5754e-05
-8.99991e-06
3.47522e-05
-6.93907e-06
-4.2743e-05
4.96822e-05
4.56088e-05
-8.51921e-05
3.95776e-05
3.95906e-08
8.67921e-07
-4.1415e-05
3.79863e-05
7.30824e-05
-4.19082e-05
-3.11765e-05
0.000473883
-4.03517e-06
-8.34349e-08
-1.30602e-06
3.44304e-05
-3.31228e-05
-4.80971e-05
7.30929e-05
2.02675e-05
-0.000157748
0.000137458
-4.89506e-05
3.30076e-05
1.59423e-05
-1.55334e-05
-2.96319e-05
4.51653e-05
1.92085e-05
7.81751e-06
-2.70259e-05
-0.000340549
2.6275e-05
-0.000216791
0.000387785
-0.000170996
-0.000372351
0.000208448
4.20779e-05
9.89951e-06
-5.64217e-06
1.60687e-06
-1.49757e-05
-2.33409e-06
-1.19472e-05
4.24877e-05
-3.05388e-05
-3.41389e-05
4.62517e-06
1.97816e-05
-1.04945e-05
-3.86923e-05
-2.21843e-05
-5.66397e-05
-0.000107367
0.000164005
-5.02823e-05
-0.000100477
-0.000148999
0.00071009
-0.000561065
9.24223e-06
1.00661e-05
-1.9308e-05
-3.73365e-05
-2.08823e-05
3.22359e-05
-5.77103e-05
2.54777e-05
-0.000349965
-0.000203532
4.76786e-06
0.000214856
2.25202e-05
0.000449983
-0.000326778
-0.000123185
5.80762e-05
-1.11509e-05
-1.23982e-05
-7.18576e-06
-1.72607e-05
2.28562e-06
3.02695e-05
8.22938e-05
-0.000112565
-7.84064e-05
8.91112e-05
-1.07031e-05
5.07627e-05
-2.9918e-05
2.03232e-05
1.67038e-05
1.0237e-05
0.000126942
-0.000137185
0.000449654
6.56531e-05
-5.36895e-05
-1.37924e-05
-4.67617e-06
-3.5001e-05
0.000244865
-0.000430822
0.000186058
9.28309e-05
-4.72239e-05
-2.0005e-05
4.58055e-05
-2.58009e-05
-0.000290238
9.93119e-05
0.000190939
9.12483e-05
-4.88574e-05
-4.23917e-05
-2.04058e-05
0.000219505
1.41215e-05
-2.63116e-05
1.2181e-05
4.56233e-05
6.24355e-05
-0.000108059
-5.43153e-05
-4.37233e-06
-7.7291e-06
2.64022e-05
0.000775907
-0.000802323
1.05901e-05
-3.63446e-05
-1.11985e-05
3.98841e-05
1.71158e-05
-5.26374e-05
-2.10171e-05
2.39872e-05
1.39344e-05
-3.6197e-05
2.22621e-05
-1.34084e-05
5.1965e-06
6.81961e-05
-8.20885e-05
1.38908e-05
-3.38247e-05
3.27996e-05
-2.46682e-05
3.52062e-05
-1.05426e-05
2.35189e-05
2.31339e-05
3.33824e-05
-0.000332945
0.000101635
0.000231289
5.11848e-05
-9.10713e-06
8.82266e-06
-1.45237e-05
5.46282e-05
1.71205e-05
-7.17414e-05
-1.05672e-05
5.22548e-05
1.73751e-05
-1.34695e-05
-3.90532e-06
4.99452e-05
-3.64358e-05
-2.37886e-05
0.000205552
-0.000181772
-0.000137972
8.769e-05
-5.58886e-05
0.000459906
-0.000215476
-0.000244419
-6.03849e-05
6.21085e-05
-1.72231e-06
4.61764e-05
-1.75659e-05
-2.86095e-05
-2.96617e-05
8.18543e-06
2.14715e-05
-0.000279933
0.000540946
0.000136626
-0.000227204
9.05845e-05
-0.000174808
-0.000103181
0.000277997
7.23679e-05
-1.77394e-05
-7.66844e-05
-1.72332e-06
-3.1374e-05
6.70364e-06
3.02352e-05
0.000112503
-6.68801e-05
-4.46364e-05
5.35212e-05
-8.88237e-06
-8.09873e-05
0.000267904
-0.000186988
4.0986e-05
-4.06267e-05
-1.07382e-05
0.000221596
-1.29955e-05
-3.74839e-06
1.67438e-05
-1.96515e-05
4.12775e-05
-6.06122e-05
2.19267e-05
3.86869e-05
-3.30817e-05
3.17757e-05
-0.000173078
0.000794157
-0.00062108
5.00857e-05
-3.36816e-05
4.79782e-05
-0.000102634
5.46629e-05
9.55677e-07
-3.03284e-05
2.93737e-05
3.0137e-05
-6.82323e-05
-3.54952e-05
1.66242e-05
4.03855e-05
-5.62349e-05
1.58459e-05
-5.16712e-05
3.29046e-05
0.000592128
-0.000138092
2.29265e-05
0.000115174
1.49309e-05
-1.00488e-05
-4.88264e-06
5.77631e-05
-5.04656e-05
-7.29757e-06
-6.40629e-05
3.97344e-05
-1.36094e-05
5.40146e-06
8.20759e-06
-2.1845e-05
4.96061e-05
-2.7761e-05
-0.00036336
0.000146572
-0.000170164
4.81223e-05
-7.97174e-05
0.000126225
-2.8386e-05
7.83948e-08
0.00018787
-0.000167608
2.3109e-05
3.54951e-05
-4.69497e-05
1.14572e-05
-6.98929e-06
2.61978e-05
1.48842e-05
-4.68968e-05
-4.30526e-06
-2.53573e-05
-3.35985e-05
3.41201e-05
-5.21212e-07
0.00014659
1.58213e-05
-0.000162406
-0.000116641
9.17777e-05
2.48638e-05
-5.04507e-05
4.50702e-05
5.38073e-06
-7.63763e-07
3.61355e-05
-3.53655e-05
1.17046e-05
-2.28475e-06
-3.37686e-05
3.30083e-05
2.93437e-05
-4.13953e-05
1.20497e-05
4.65973e-05
-8.06653e-06
-5.60903e-05
4.30159e-05
1.30743e-05
-4.92292e-05
1.23885e-05
3.68406e-05
0.000584448
-2.86455e-06
-5.98445e-05
6.27118e-05
-7.32406e-07
2.33661e-05
-2.72302e-05
9.60046e-05
1.83196e-05
-1.15491e-05
-6.7703e-06
8.45951e-05
-8.6042e-05
-3.94544e-06
-1.69697e-06
-6.1164e-05
6.25022e-05
-1.33765e-06
-0.000334013
4.48383e-05
9.86787e-06
-3.79799e-05
2.81094e-05
2.92894e-05
4.56113e-05
2.45499e-05
4.61836e-05
5.63658e-05
-5.04314e-05
-5.93516e-06
0.000141599
0.000188358
-0.000329993
-3.94279e-06
0.000186292
-0.000182356
-5.91146e-05
-5.2927e-06
5.53947e-05
-4.85495e-05
-6.84423e-06
2.02019e-05
-1.31141e-05
-7.08848e-06
-3.69124e-05
4.20022e-06
3.27101e-05
-1.89588e-08
4.64561e-06
3.09423e-05
-3.55322e-05
-0.000131376
4.86842e-05
8.26952e-05
6.0451e-05
-2.00685e-05
0.000241604
-1.13155e-05
2.28993e-05
-2.29015e-05
3.94981e-05
-1.33214e-05
7.65526e-06
9.80509e-06
-4.44877e-05
2.89539e-05
-2.03218e-06
1.9937e-05
4.80631e-05
8.30371e-06
-8.66724e-06
-4.05622e-05
-7.81062e-05
-9.94047e-06
-4.72179e-05
5.00875e-05
-2.87265e-06
3.00683e-05
1.88227e-05
-4.88912e-05
-0.00017098
-5.80321e-05
0.000229009
2.84596e-05
-5.98106e-05
3.13482e-05
-0.000664086
4.96868e-05
-6.77625e-05
1.80758e-05
-4.68416e-07
-4.56589e-05
4.61272e-05
4.57422e-05
0.000169074
-0.000144219
4.6742e-05
-4.40859e-05
-2.65387e-06
-0.000113986
-5.61795e-05
5.39133e-05
-1.98452e-05
-3.4068e-05
-3.05645e-05
4.46874e-05
0.000625468
-0.000531827
-9.36613e-05
3.2453e-05
9.31338e-06
-4.17659e-05
2.78423e-05
-5.34584e-05
4.02036e-06
4.94381e-05
-7.77578e-05
4.91714e-05
2.85866e-05
-6.93174e-05
1.02029e-05
-3.28921e-05
-2.77189e-05
-2.11524e-05
3.1334e-05
-1.0182e-05
-7.40416e-07
-4.70501e-05
2.47014e-05
2.23492e-05
-0.000247088
0.000501077
-0.000253962
2.34464e-05
2.27299e-05
6.42164e-05
-3.5758e-05
-3.74523e-05
2.55053e-05
4.72956e-05
-6.57467e-05
1.84514e-05
-1.76297e-05
1.91448e-05
-1.51556e-06
0.000145835
-0.000308161
0.000162337
-0.000493364
0.000275383
0.000217852
2.63003e-05
2.33063e-05
-7.50568e-06
-6.10477e-06
0.000191754
-0.000213383
2.15813e-05
-0.000209132
0.000353595
-0.000144483
-3.7391e-05
-8.31084e-05
0.000120511
-2.48952e-06
1.5009e-05
-1.2519e-05
-5.66778e-06
-4.01075e-06
0.000315353
-0.00067102
1.88814e-05
9.70137e-05
4.34914e-05
-5.43551e-05
1.08628e-05
-2.9686e-06
-3.1017e-05