/*--------------------------------*- C++ -*----------------------------------*\
| =========                 |                                                 |
| \\      /  F ield         | OpenFOAM: The Open Source CFD Toolbox           |
|  \\    /   O peration     | Version:  v2012                                 |
|   \\  /    A nd           | Website:  www.openfoam.com                      |
|    \\/     M anipulation  |                                                 |
\*---------------------------------------------------------------------------*/
FoamFile
{
    version     2.0;
    format      ascii;
    class       volScalarField;
    location    "200";
    object      omega_0;
}
// * * * * * * * * * * * * * * * * * * * * * * * * * * * * * * * * * * * * * //

dimensions      [0 0 -1 0 0 0 0];


internalField   nonuniform List<scalar> 
37809
(
0.150021
7.10046
0.0256467
0.028305
4.7803
0.0611928
0.25001
3.9782
38.1033
6.6396
0.0832572
0.025303
0.0282205
0.0282605
11.3665
0.0286103
0.025443
3.36326
0.0253958
0.162483
0.0666461
0.0658764
4.27586
0.0253061
0.0616895
6.83187
1.29895
0.02556
0.0256371
3.93315
0.132819
9.06529
0.0253111
1.86683
0.0251628
0.0254512
0.0248348
5.00218
0.0673743
0.121227
6.61156
9.76923
7.74368
9.41987
0.0252291
0.030896
0.128466
5.18234
0.848835
0.0535447
0.0253963
0.0253254
0.0251908
0.025734
9.22211
0.0251961
0.0360604
0.0282066
0.0650187
1.10657
7.7313
0.0269908
0.0281443
0.0808587
0.132432
0.0620748
9.49615
0.025451
0.0268082
3.09383
0.027655
36.3283
0.0253263
0.028204
0.0255547
0.0248479
0.119015
0.188692
0.144111
0.237422
0.0252301
0.0256433
4.65263
0.0339975
0.0251398
10.428
0.0264032
1.93195
0.0662691
0.0365786
4.94336
9.00507
0.0896771
9.62171
0.0265056
4.77245
0.0253337
0.0254316
9.36872
0.0251208
6.20179
0.0254364
0.0790011
3.44933
2.26583
0.0256076
4.13246
5.56845
0.222422
0.0253023
0.15859
0.0337307
0.151707
0.0271127
0.0356808
0.0661504
0.0254768
0.0253384
0.35985
7.33949
0.0256776
0.025608
0.0408013
4.67359
8.68891
0.0254686
0.126158
0.0252836
0.0356509
0.0270586
0.385841
0.183424
9.94724
0.0252462
0.287189
0.0252953
0.0253978
0.0270913
21.7454
5.06379
0.0251479
4.43278
39.264
6.4178
0.0253259
9.56138
0.0275479
0.0268504
4.66332
0.0254139
9.80993
0.0270447
0.0435108
0.363964
0.13268
0.0254307
3.65326
0.352986
0.0257703
28.1906
0.0356853
0.212358
5.6036
7.82937
0.02629
0.024714
0.0253102
15.118
0.0695329
0.124759
0.360332
0.0251314
5.48685
0.0267513
0.0269764
0.0295521
2.2303
0.0365281
4.47993
0.0862279
7.30945
0.0256267
0.0251943
0.0256338
0.0247024
0.224872
0.0256329
0.0321866
2.1454
20.4255
0.0535607
0.0253336
0.0253946
7.22838
0.235788
1.86219
0.0253226
0.0246108
0.0251744
0.0277706
34.5085
0.0883006
8.88739
0.0866421
7.71204
0.0247086
0.0269198
0.0742266
0.0253128
0.0939301
0.0745581
7.35551
0.0251447
0.0253351
0.0252808
1.42619
0.0657201
0.0251155
0.0251416
0.174228
9.93791
2.81974
0.0255955
0.0256466
0.0252349
3.62943
4.36876
0.122352
0.0326658
4.89914
0.0256047
0.216114
0.195746
0.0268123
0.362306
1.50872
0.0251141
3.66808
0.0262506
0.136233
5.0684
0.0251378
1.94476
2.61703
0.025228
0.0253652
0.025654
0.0247112
0.126303
0.0247007
0.0254674
0.0253191
0.025399
4.73061
0.0253202
0.0253151
0.0246064
0.0254024
3.35178
5.29195
0.337124
0.0254007
27.8154
0.0256223
10.4033
0.0821916
0.134156
0.0395324
0.0253284
1.64199
9.91161
0.0252804
4.81737
2.02982
0.0253249
0.138385
1.60055
0.0254613
1.00111
0.0253967
0.0253331
14.175
12.4573
0.0252927
0.1429
0.0253618
0.0253201
0.0254179
0.0253113
3.56452
0.0253473
0.044535
36.8003
0.0251901
0.0252777
0.0318709
0.178732
7.02357
0.0253159
30.0126
0.0435505
12.2648
0.0248551
0.312812
8.80562
0.0342001
0.0256395
0.0277078
6.2721
0.0251412
0.119215
4.83916
9.85839
0.0612072
0.0256696
4.38198
0.0270017
0.0254096
25.4258
36.7721
0.0790984
2.88695
0.0501213
0.0276148
7.86333
0.0652954
9.66104
0.0253263
0.0256399
0.252226
0.0251198
0.0248517
0.0253337
6.08007
0.0248558
0.0252394
0.0479828
0.0253981
0.0253709
0.0797683
0.0252606
0.0282476
5.04235
3.02204
0.0307022
0.25271
27.2522
0.025466
10.37
0.0275901
2.70972
0.261778
0.0253032
0.0254457
15.6127
6.05688
0.0247066
0.174488
0.0253223
4.37571
2.93902
0.0297929
8.20737
7.22313
12.6051
3.65891
0.0483058
0.0289231
0.0280807
0.0252803
0.0282817
0.0868877
0.0631628
33.1814
0.0747206
0.0249632
0.0797908
0.0247001
9.65219
5.76022
0.0253189
0.0269732
7.99507
0.0412049
4.01872
0.0471865
5.94799
0.03954
25.4253
0.0248822
0.0254017
8.61
0.025646
0.0254281
0.0293022
0.0690437
8.12819
1.24073
0.0321456
0.0256464
4.52185
0.091892
0.0248785
0.0253555
0.0252307
0.109106
0.0251469
3.65859
5.23895
4.87007
0.0689022
0.0327242
0.0770749
0.025625
0.0248351
0.793837
1.36194
11.2245
0.0256649
0.0253614
5.58581
0.0666821
0.391968
0.291103
0.025412
4.1848
0.0256629
0.0365408
0.0328288
19.2787
0.0251503
0.0823554
0.0282598
0.02702
5.1415
0.0255919
9.23983
4.89973
0.0588637
0.0251267
0.0261569
0.557546
0.0552444
0.0514068
0.025337
0.025058
4.80034
0.295451
0.0480997
0.206967
0.0415241
0.0249602
0.0271085
0.0253992
0.0253553
0.0252968
0.0248396
0.0253727
8.93544
0.0252535
0.0256239
0.029634
0.220103
1.97415
8.85251
7.93751
0.0272794
0.0371348
4.41169
0.0253529
0.0337839
0.0251471
0.0254655
0.0251922
0.0596501
0.0251406
0.0566155
8.57284
0.040534
0.0254036
0.0252729
0.025323
0.0315178
0.0247045
12.4532
0.025347
0.0459077
0.261225
6.0611
0.0253636
7.92115
0.0476718
0.0843789
0.0254378
0.0797486
4.55569
0.0247043
0.0420368
0.0587242
0.0468777
0.154195
0.337861
4.9262
9.72237
0.0289639
0.0348003
0.0661124
10.977
0.025396
0.0254071
0.0248308
0.0251374
4.46821
0.0348325
0.0267337
1.17232
7.20993
0.025784
17.4265
0.0292075
5.41415
0.211242
0.0254621
8.81208
0.0268889
0.0268544
0.336674
3.83973
0.0520706
0.172033
8.62469
0.0262621
0.31867
0.0617439
0.0256697
0.0248465
0.0251398
3.67825
0.0253501
0.0254122
0.115717
0.0268376
4.42821
0.215235
6.27065
0.025542
0.0253454
26.2523
0.136593
0.0256763
0.0305356
0.0492846
0.0254603
0.136919
5.0421
0.0321033
0.0253939
0.190731
1.6298
0.0395024
0.151026
8.98882
0.109887
0.0248462
10.2228
0.0329806
0.0826014
0.0254112
6.06986
0.293509
0.0256706
10.7909
0.0253352
0.0256042
0.0251149
0.0254007
4.16206
11.8059
0.024862
0.0247045
0.0292464
0.0387879
0.0669458
0.208259
8.50121
8.69189
3.69296
13.648
7.73287
3.65213
0.0253446
0.0253323
0.0279163
10.8579
0.0256696
0.025397
0.0248701
4.9949
11.0401
0.0252527
0.0253695
0.0256721
8.12048
0.0474753
2.71974
0.025656
0.0939778
0.0273483
0.0819831
0.0778495
0.0251795
7.79849
0.0253646
0.156486
0.0253677
0.0258308
0.02545
4.96026
3.63996
4.03589
0.0254668
4.2673
3.70965
0.0262901
7.84337
0.140818
0.117465
0.0253387
0.0253237
0.0253227
2.34452
7.29199
0.050309
4.16184
0.0255747
0.0253334
0.0429071
0.037516
0.0251352
4.58658
0.0294158
0.140516
0.195962
38.0201
8.50727
3.25323
0.343934
0.0253354
0.0248547
0.0283946
0.0253944
0.0367466
5.91342
0.0253249
35.1845
0.23035
4.37696
0.0283357
5.07142
0.0469816
8.15464
0.026993
0.0254165
0.0352077
0.0253497
0.0281169
0.395054
1.03449
17.0874
0.309957
5.85938
4.94281
0.0459651
0.0253395
10.0417
0.0247124
4.73428
6.29038
0.0253276
0.030535
0.280302
3.66152
0.0261061
0.0256555
4.59077
37.6875
4.23829
0.0253045
21.7763
0.0253166
0.352517
0.0463607
0.0260533
0.0805386
5.54034
0.0254036
0.0253792
0.0253012
0.0251314
0.240161
4.06995
4.5516
6.59222
0.0253683
9.58914
0.0364241
0.132942
2.3135
0.0280007
9.65485
0.0262421
0.0265354
4.45006
1.04037
0.135355
6.01314
3.40585
0.0589526
10.5278
0.179264
0.0255588
4.46548
0.033891
0.0416715
0.032015
0.0318042
0.0467136
0.0272031
0.0371957
0.172797
0.034839
0.0293446
0.0298418
0.0814462
0.0276538
0.0253023
0.0255169
0.0253022
0.0256034
0.355933
2.4608
0.0256812
0.0251487
0.050493
4.42801
0.0256019
0.0290871
0.0636842
0.260707
0.0256456
0.0255397
0.0276769
0.0801401
0.0272249
0.0252195
0.0251622
11.3826
4.17576
1.42051
0.0352359
0.0256392
0.0253732
0.0342837
0.0253975
0.0253058
0.0304374
5.23076
0.0665761
3.95496
0.0253487
0.0293184
0.0870993
3.91077
0.0799035
27.6778
1.29214
9.3171
0.0248321
0.0253812
4.2348
0.1696
0.0468579
0.0777983
5.00959
8.19956
0.264
0.0257222
0.207613
4.29263
0.0304422
7.65921
0.0786683
2.1843
12.3625
0.295091
0.0769337
0.0262724
3.85786
0.0251494
3.80594
0.0305953
0.0251306
0.0253761
0.0248499
11.7705
0.0248555
0.115196
0.0253226
0.0389819
0.311238
0.0352685
0.025328
4.52067
0.159278
0.0253524
0.0253917
10.28
0.0638981
0.0340043
0.160228
0.0288057
0.028785
0.0249635
0.21307
4.40479
4.34672
4.56538
0.161364
0.115064
0.0643047
0.344075
0.0268177
5.32948
12.2561
0.222856
0.0252988
0.0287258
0.221403
0.0255629
4.17093
5.14151
0.213445
0.0254024
0.0773946
0.025296
0.0518708
7.75968
0.0252976
0.354089
7.46396
0.025366
0.0400568
0.0456452
0.0246782
0.0396345
4.27444
0.0477383
0.0436213
8.08721
0.0783566
0.0261533
0.0280438
0.0251614
0.0375176
0.0249656
0.0254021
5.67684
0.0442549
0.0282801
0.0261938
0.0248508
0.0262468
0.0247563
0.189958
0.249795
0.02679
0.309498
8.00212
0.0251081
0.189189
0.0253043
0.0293202
0.0256393
0.0256045
4.15577
0.0303976
26.9032
0.0253775
0.0260483
1.06727
5.3025
0.0254664
0.0341951
4.74275
10.2055
0.0256464
14.7941
0.0318858
0.0524652
0.230269
0.0281396
36.1637
0.0316238
0.0253204
0.0252246
0.0251663
0.02606
0.0267744
9.43745
0.116899
0.0342616
2.21957
0.10214
3.90842
0.0396261
0.0255518
0.0500969
4.86991
0.0335329
0.0464736
0.0315644
9.78363
0.365008
0.0280859
0.039851
0.0262798
4.45171
0.0254616
0.240682
0.0251018
0.0344412
0.0275035
8.74292
0.0288036
0.104329
0.0344664
0.0765543
0.0248347
0.24398
0.159242
0.039912
0.0246816
0.0784317
5.28941
0.717444
0.0249117
0.0283151
6.77741
1.97604
5.22664
0.0253832
0.0559251
0.0256447
0.0545653
0.331154
1.24539
0.0295064
0.157045
0.0374491
0.0253325
0.0256231
0.131063
0.02533
0.0253142
0.0262282
0.152891
1.59132
0.0398242
0.0250623
0.024767
0.024832
0.0331328
0.0254
0.107582
6.37907
0.0248383
8.00447
0.0254047
12.215
4.90867
0.0441537
0.0279486
0.0494776
0.0253419
4.68754
0.0250191
0.224903
0.0285952
0.0253516
0.233762
0.0491836
0.0252448
5.75363
0.0597103
0.0296315
0.0269545
4.55266
0.080706
8.56544
0.0253697
0.0658463
0.704916
7.53329
0.0251378
0.0299175
0.0251271
10.8344
2.99519
3.69989
4.39598
0.0256768
0.0393926
0.0264456
4.88958
1.11989
0.026421
0.117572
0.0253287
0.0339606
0.0251285
0.0253322
0.0251915
0.0272833
9.3352
0.025331
0.0460569
0.219849
0.0253343
0.0256713
0.0447449
5.00176
0.0306446
0.117417
0.0252143
3.89151
3.7319
0.0253657
0.348646
0.0494771
0.0460594
5.14849
0.0372987
0.0253869
0.299066
0.177644
0.0263584
1.27274
0.117734
0.212832
0.029762
0.0247046
0.235389
0.0849099
0.279771
0.0251316
8.41789
0.0459221
0.399625
0.0360669
0.0249206
0.0256783
0.0251293
0.0253946
0.0255806
0.0270729
7.68823
0.035023
0.0256067
0.0317737
0.0319227
0.0252531
4.47567
0.032207
0.151523
0.0361218
0.0262398
4.31018
0.113261
0.0789121
5.08508
4.71578
0.0250968
0.0606506
0.129709
0.102376
0.118522
2.90649
0.0247037
0.0253553
6.54663
0.0255161
5.01749
0.20183
0.126019
0.0319956
0.0319184
0.0252484
0.0251489
0.0253205
0.0253347
0.0254221
0.0253376
11.6499
0.0253599
5.34959
0.0257373
0.0636086
4.26191
0.0256731
0.0254074
0.207606
22.4451
0.164348
0.025644
7.55034
0.0256385
0.0253627
0.0262262
1.4581
0.605221
0.254587
10.132
3.88818
0.0328629
0.122186
0.0250185
0.0253974
9.14197
5.36785
0.156604
0.0398944
0.0262527
15.6569
0.11779
7.08386
0.0251728
0.229467
0.0261786
0.0269054
0.0336202
0.155769
38.4866
0.0288319
0.387738
4.11686
29.3585
0.0253424
0.0295225
6.46981
0.0269937
6.48933
0.0280759
0.065758
0.0464013
0.0619223
8.48943
0.0250965
0.0253036
0.0460497
0.0812877
8.35524
0.025628
5.90337
0.0262463
9.49476
4.77687
0.161144
0.0253962
0.0252591
0.156545
6.30474
0.0247376
5.09488
0.0262694
4.22143
0.029758
0.0315872
0.0253542
0.0470671
0.0706801
0.0299133
0.031327
0.0251257
4.91274
0.0413015
0.0247487
0.0418679
8.85549
5.42899
0.0297645
5.47441
4.68783
0.0599008
0.24546
0.0341237
0.194564
0.0252346
0.121106
0.0261954
7.44367
0.0255383
0.0254768
3.30138
0.281425
0.0271345
0.798476
0.024739
0.0254178
6.567
0.0251515
1.42555
0.0500078
0.0253348
6.20953
0.362527
0.155823
0.0253892
0.0358039
0.150893
0.0255432
0.0283128
7.30221
4.64052
0.0472431
0.111651
0.025404
0.0296405
0.149906
4.6588
3.71093
0.0605719
0.0356674
0.0262664
1.68231
0.150254
0.0598626
4.52815
0.0252172
0.130668
0.156584
0.0249183
0.0255111
0.156349
0.0256619
8.68435
0.270793
7.5265
0.0252794
0.0255422
4.76523
0.0255746
12.8859
7.85479
4.01313
0.119879
0.0252631
0.0268527
3.83922
0.0337442
0.0252384
0.0326424
0.0261859
4.48324
12.4472
0.0296185
0.02554
0.025377
0.0250963
4.91415
0.788292
0.391682
5.24837
0.0253231
0.0253091
21.4982
0.0252946
0.0836628
0.0314883
9.69443
9.45527
0.0525137
4.72848
7.70816
0.0251543
0.0402314
0.123576
0.0296567
0.0256454
0.0334928
0.0294967
0.078827
1.09232
11.5666
0.0252867
0.0252471
4.31718
5.42667
7.5508
0.301678
0.0337633
4.1748
0.0247615
0.231569
4.35626
0.171424
0.0253861
0.084225
0.0247763
0.0254103
0.0251663
0.0251386
0.0261093
0.0354693
0.0468242
9.78467
0.0253335
0.0246816
3.97899
0.280357
0.0605032
4.34028
6.90212
6.6613
0.0253993
0.0256544
9.84097
0.0475795
0.0916886
0.0263453
0.0252744
0.0254626
0.0249213
0.0262984
0.0795408
5.08187
0.0254882
0.0259389
0.0339494
0.0259148
4.51059
0.049734
0.110719
7.04579
0.0909465
0.0253663
4.73879
8.60305
0.0995654
6.35707
0.027833
0.0435373
11.7482
0.151889
9.99591
0.0301519
0.0253642
11.2087
0.119094
0.0256296
0.0254242
0.0467081
8.93952
0.0252037
0.0248775
0.0256237
0.0248789
0.0250633
4.58463
0.270558
0.025259
0.0307915
0.082148
0.0253605
0.0295402
0.0256242
0.0247127
0.025372
0.043187
0.0303363
0.0254879
0.0306678
0.0256303
10.1367
0.0267424
7.66686
0.559105
4.61378
0.088326
0.0246854
0.02563
0.025167
0.216194
0.0251374
0.0248887
3.51103
10.9727
0.35123
0.024945
0.125981
0.586081
0.0254856
3.68445
0.0279942
6.86753
0.0253427
0.260488
13.2523
0.0258269
0.0253933
4.54
5.13686
0.0780244
3.8825
0.863334
12.4188
9.88164
6.31874
0.0253518
4.71106
9.09019
5.2622
0.0256534
1.36897
0.0252862
0.0246451
4.43695
0.0256452
0.090134
3.34112
0.0249525
11.1789
0.0948958
5.01962
0.0370343
0.0260975
0.0534668
0.025138
0.0254161
0.0549609
0.0370415
4.5881
0.0249935
6.14924
6.41728
0.0563937
5.01201
0.0468906
0.0253263
9.23069
0.0253797
4.87745
8.18303
4.29842
5.28643
4.72239
0.0790994
0.184853
0.0279222
5.28803
0.0255739
0.0254638
0.101727
0.0255381
0.0513847
9.36976
0.0256043
1.32488
0.0282358
0.0261696
3.64604
0.0280504
0.0253786
0.0435944
3.28159
0.0281151
0.110593
0.0256111
4.28217
0.0253182
3.58288
0.0252482
28.7521
0.0877952
0.527224
7.78235
0.026428
0.190291
0.0255797
0.821761
0.0259882
0.0249595
0.179149
0.0253452
0.0256654
4.17868
0.0250787
3.66454
0.0252713
0.0250657
0.0254121
0.0450744
0.342057
0.0252431
0.334366
0.0253582
0.0251757
0.0283472
0.0404212
0.0744084
0.142655
4.85341
0.0320829
0.0256301
0.0256679
0.025389
0.0280856
4.42417
0.0251303
0.0258146
5.25939
0.025612
0.0321167
0.0253441
0.0255431
4.46037
0.024975
0.027323
0.0252984
0.0252511
0.025543
8.33505
0.026197
27.1715
6.52675
0.0554876
10.3192
0.0348522
0.0256246
3.01328
8.23216
0.0250619
0.0252884
0.0555343
0.0648211
0.0255651
0.0841453
0.0256471
0.0256775
0.0251472
8.28417
0.0254653
0.188826
0.0302408
1.7325
6.04736
0.0258385
4.18862
0.0253985
11.2504
0.255969
0.152448
0.0598689
0.115976
0.0261773
10.074
0.0769293
0.0250222
0.0251444
0.0256669
0.317244
0.0752778
0.17957
0.257126
0.025639
0.025146
4.16905
0.0253635
11.1189
0.0453937
24.3817
0.0663085
0.028184
0.0304632
0.0403331
0.0254606
0.025744
0.0252699
0.025418
0.0253252
1.37194
0.0376471
0.0726691
0.31722
0.0259845
4.34723
0.0666962
0.027164
6.49594
0.0267855
0.216813
0.122132
0.0290977
4.03935
0.68847
0.0253823
5.50593
0.0250835
5.4338
0.0254595
0.0254194
5.33176
0.086296
0.0253377
0.030591
0.0279978
0.511255
0.0407224
4.94796
0.0254481
0.232983
24.3139
0.0568878
0.0253234
0.0448772
7.2559
0.0350158
0.0264069
3.70187
0.0256531
14.5546
6.15764
0.0614594
0.0253308
0.0251239
9.4399
0.323416
1.3282
0.0445046
5.16064
0.040776
0.70666
0.0611858
5.78804
0.0453867
19.8653
0.154099
1.37837
0.0253654
0.0250604
0.120664
0.043926
1.32851
33.7559
0.057335
24.972
10.1734
0.036268
0.0272051
1.57991
0.025086
0.0775887
0.0263499
0.0249525
38.435
0.0250543
0.0654725
0.025363
0.0256396
0.025327
9.97207
4.27514
0.532621
0.0252069
4.31769
0.0412474
8.92608
0.337195
6.77061
0.0253636
10.975
0.163741
0.0250687
0.0612559
0.0263178
0.0247756
0.0255778
0.0267871
0.0254041
0.0266365
0.0253636
0.025242
0.026199
0.0426371
4.36885
0.0253625
0.082683
5.48334
0.159611
0.0315902
0.0250811
0.342484
5.0099
0.0296057
0.0247966
0.124805
0.0253199
0.0831913
0.0252825
0.370806
0.08079
0.0251014
4.49284
0.462248
0.0454118
0.0305048
9.5774
0.0896346
6.84836
7.34231
0.0261867
2.86455
0.0251977
0.0921471
0.0250934
4.54201
0.025242
0.0346387
8.90133
0.0266464
0.0253554
4.94917
0.0269795
3.42268
0.0264913
0.0793894
4.042
0.0329985
0.0251802
5.72451
0.486889
0.0292575
4.18818
10.0281
0.0253568
0.370915
0.0566257
0.0260769
0.0254001
0.656815
8.35718
7.0966
0.0260502
0.0262893
9.35132
0.0254657
0.0475479
9.46258
4.87504
0.0251671
0.0256307
4.16477
3.38125
0.0252812
0.215775
12.6416
3.3267
7.42474
0.0253024
0.0260621
0.0256205
0.339662
0.0283393
4.25732
0.0478416
0.0254211
0.0660396
0.0251775
0.113613
0.0253624
5.87796
0.0546886
0.0271459
10.3633
0.0471331
0.0663159
2.06689
0.0252411
0.16503
0.0273928
0.34933
0.0838299
4.29598
0.0538932
10.3428
0.0267481
0.0259425
0.305774
0.0724523
0.024914
0.0840595
0.135339
0.0251397
0.0592105
9.89349
0.0256243
0.0252078
0.0256773
0.0255739
5.8027
0.0254646
0.259491
0.22818
6.96241
0.190558
1.53234
0.0330745
0.237963
0.0288281
0.0253366
0.104782
0.025813
0.0606908
5.74915
4.69599
0.184088
0.0748083
0.0304586
0.0252952
0.233983
0.32319
0.0304098
3.39488
0.0334043
0.129077
0.0253404
0.025128
0.025624
0.0769929
0.113619
4.74429
7.39039
0.0284118
0.025389
4.78198
0.0256706
0.134154
0.0250105
3.24654
30.8814
5.19022
0.118206
12.6051
34.9032
11.1525
0.0249327
23.5847
0.0250688
7.39467
2.02709
0.0249165
0.0290282
4.14598
0.0256616
0.0254956
0.0248873
0.0513816
0.959178
0.0256713
0.0268199
0.201396
0.0253688
31.2194
0.062438
0.025162
6.756
28.2209
4.07485
0.282018
0.025141
5.01431
0.031804
0.0953521
0.0252854
0.0248232
4.41462
0.0550493
7.1414
0.131306
3.0195
0.0254664
0.0470233
7.96657
0.0315148
3.85198
0.0268932
5.20831
0.0255545
0.0647535
0.0390157
8.3304
0.0251837
0.0287843
0.0431917
0.0252609
0.0253067
0.0727238
0.141656
0.172138
0.0253401
0.025358
0.0256882
0.0262405
0.484602
0.0249721
0.0422048
0.196474
0.0256419
10.6391
5.2017
4.26253
8.42089
4.21646
0.0254639
0.0601214
0.0249022
0.0316363
0.0338766
12.1216
0.025357
0.0491464
0.025834
0.0253389
0.0253252
0.025326
0.061366
0.025519
0.0980518
22.2672
4.58963
7.35853
0.0254199
8.4834
0.0258062
11.9425
0.0605939
0.0304055
0.0290407
0.0251753
0.0248991
0.0256708
3.99978
0.0395356
0.0364296
0.166422
0.0954
0.0252812
0.0329968
0.190694
3.71585
0.0270125
0.0271561
0.025359
10.0607
1.61224
0.0258223
0.0250979
0.226004
0.0251775
0.0317952
1.14802
5.43018
0.0255502
0.0251729
0.031151
0.0253752
5.10749
3.98796
5.43513
0.0255589
0.0248895
0.20212
4.68464
0.0254666
0.0251511
0.0840427
0.0254298
0.0643679
0.0256756
11.4921
0.0254593
0.0248958
0.0348018
0.025105
0.0516256
0.0477168
4.25718
8.2355
0.0327234
0.0253937
10.2389
10.5762
0.21943
0.024849
9.0077
0.0295682
0.0253477
3.99094
0.0386779
0.0723838
13.5466
0.0283409
7.99307
4.88732
11.181
0.0664333
0.0281929
0.0278226
0.029803
0.0254344
0.126782
10.2007
0.025321
0.0254617
0.0651329
0.0253974
8.43736
9.09167
3.62954
0.0251501
0.0253656
0.0270095
0.0285475
0.0251171
0.322097
0.0253528
0.0252584
3.72809
4.23625
0.0506786
0.373525
0.335576
0.0388997
0.77944
0.0311845
0.0479676
4.15337
0.138984
0.0300288
0.10837
7.79307
0.0248996
0.0252085
0.0256603
16.466
0.454126
0.0473262
0.0253418
3.70183
0.172725
0.0642411
0.0781819
9.79957
8.37195
0.0252776
0.0250986
0.0587374
3.60256
4.31554
5.12217
0.0254665
0.025194
4.75596
0.0255629
0.0254
0.0259128
0.025057
0.155568
0.0256425
0.02563
0.0253464
0.025352
5.36616
2.66715
0.0251
0.0297323
4.32248
0.0253789
0.02693
0.0248734
0.0283908
7.17408
2.00506
6.30899
0.0472488
0.0256398
0.0251962
0.966558
0.166625
13.136
0.206079
0.0252049
0.0252712
5.44656
0.930056
0.150332
0.904198
0.0378731
0.0253222
0.635145
5.84399
0.0252958
0.0252781
6.48675
4.42656
0.0251962
4.81638
0.0253469
0.0253347
0.0253596
4.47951
0.0438262
0.19508
9.44587
0.025386
1.06181
6.59393
5.01207
0.206244
0.025351
3.48788
4.55319
0.0280902
9.30412
0.0256563
0.0283689
0.136607
0.024879
0.0252821
0.0256261
0.232364
0.0279592
0.0422498
0.121122
0.0813282
0.0254591
0.033403
0.0253348
7.92155
3.67606
0.0325338
0.0828804
7.37879
0.473385
0.0250065
4.59066
0.0252118
0.0251078
0.0381075
0.0278978
0.0256212
3.37232
0.0259688
0.0298669
0.0622555
0.199144
0.205814
0.0247126
4.74609
0.0359993
0.0252913
4.70652
0.0255432
0.184574
0.163357
0.0299174
3.50679
2.62827
0.0254087
0.198327
0.0259168
0.024782
5.56035
0.125603
0.0527877
8.12769
3.88225
0.0252125
0.0252699
0.025462
0.0256406
6.03762
0.0549033
4.22173
6.42773
0.0452068
0.0411213
4.33994
0.0405264
8.42652
4.95322
2.44177
0.0846093
0.0255279
0.362279
0.0464572
4.04913
0.905172
0.0503329
4.34714
0.0253931
1.7116
0.0253966
4.26218
0.0250837
4.65342
0.0256767
0.0312792
0.0254297
5.88536
0.0253486
0.025346
0.162518
0.0253646
0.0256168
0.0290008
0.0293049
9.78526
0.0402207
18.3877
0.0251531
0.0278695
0.160102
0.0253271
7.75732
0.0253492
0.338208
27.8363
0.0250098
7.6128
0.0253566
0.0305415
0.0252877
0.0258239
7.88126
0.0347073
0.025288
10.4555
4.44821
3.5368
6.12585
4.65979
0.178319
0.0344006
0.025111
0.930945
0.351996
0.0391669
4.62244
0.13018
9.39225
0.0248427
0.028157
0.0681377
4.16384
0.0265193
0.0253644
4.27755
0.87186
1.01803
5.09524
0.0279817
6.27109
4.25814
4.32563
6.29604
0.0314831
4.89104
0.27998
0.0255373
0.0471826
0.0255324
5.94668
0.0283649
4.4121
0.0255891
5.34898
1.11431
0.0277495
0.100058
26.8325
0.0263347
0.025474
0.0252197
0.0255584
0.0605316
0.0255425
0.0251898
0.0647926
0.0398139
0.037664
6.5137
0.131526
0.0289308
0.0297932
0.0503033
4.14662
0.836728
3.84436
4.41669
0.0578144
6.69833
0.0269004
0.363183
0.0255792
0.0289867
0.0255419
0.024784
0.0256375
0.0253987
0.209943
0.209344
0.0256709
7.74734
0.0449379
0.0246534
10.9558
0.0251008
4.43993
0.0310935
0.0262721
0.0255949
1.36942
0.0306102
5.26429
0.0254617
3.95044
0.0881917
0.0252445
0.0255506
0.0356495
0.0248123
4.24708
38.6911
0.0259566
0.0379586
0.0374591
0.0845243
0.0253889
0.11162
0.130901
0.0249578
10.758
0.0252481
0.031389
4.29771
0.0252998
0.0256572
0.0253401
0.0549184
0.0576864
9.76373
0.026873
0.267735
0.0277798
0.0252231
4.17004
10.3639
4.10348
14.1906
0.113338
0.0658408
7.52533
0.0380786
0.0253374
0.0253178
11.3045
6.62249
4.49692
0.0253726
0.0256555
0.0360032
0.0251999
4.62633
0.0262872
7.23994
0.0333293
0.0329571
0.0253981
4.44805
4.74367
0.037396
22.6819
28.6683
0.0251483
0.0500835
11.893
0.0255294
4.49087
0.0797142
0.0255174
0.0278417
0.0250576
4.76142
13.2396
1.15789
0.0399993
0.21978
4.38027
0.13701
0.0247811
4.31645
0.0260858
0.0249924
26.4602
0.0329543
0.0335458
5.71809
0.025565
0.0270789
0.025466
0.0252996
3.65319
8.50329
0.0253985
0.0378774
0.258054
1.28613
3.28701
7.82946
0.183445
9.45613
0.0253964
9.45741
0.0281856
0.0253369
0.136591
0.0249516
0.257018
0.145254
0.0397757
0.0248555
4.23608
0.0525646
0.04139
0.0271986
3.14703
0.0561063
0.0254652
3.32676
0.0285148
0.0291411
0.0624238
3.97335
0.0252934
0.0255401
0.0258353
0.0310924
0.0268497
1.6042
4.92932
0.0419596
0.0253348
0.164656
0.039381
0.0279312
1.43588
5.34314
4.65086
0.0253635
8.89115
1.29543
0.0306213
0.0252847
0.0250944
0.0254102
5.44975
0.025518
0.0246524
0.0250986
0.0538869
4.32466
0.046685
0.0256712
0.116646
0.271007
38.3904
0.0249966
0.268588
0.0266992
0.0248001
0.0257369
0.0544585
0.111009
8.2826
0.320779
0.0251494
7.17968
0.0256763
0.0256769
9.22686
0.230166
0.0255117
5.17543
0.0340941
1.48785
7.24777
0.0844084
0.0261176
0.0253936
8.88417
0.0250718
0.0260708
0.0315866
0.0252417
12.9018
0.0323874
0.0257056
7.42152
5.63401
0.0783814
0.236993
0.296495
0.0253361
4.3458
0.0263402
0.0254704
0.139471
0.0356968
0.0941985
0.13344
5.2742
0.0563855
0.0254107
7.45731
0.109066
4.12352
0.0253865
0.362305
0.0253417
0.0251444
12.731
0.0378511
5.34507
0.0247118
0.0270478
0.112632
5.14024
3.6883
0.0260325
5.09043
0.0250644
0.0262837
0.0277402
0.0310138
0.0253833
5.00749
0.0275521
0.0339108
0.025247
8.45035
0.0268163
26.77
1.00578
0.0250684
0.186355
0.0655198
4.65289
0.0255179
0.0253063
0.0253863
6.34274
0.0251958
0.0734169
0.0252508
0.0391975
0.025118
7.04018
0.0310558
0.0464624
9.48793
0.0248276
0.0808651
4.22425
0.342534
0.201389
0.0257304
6.19714
0.0253183
0.0255436
0.0252697
0.0267316
0.0495472
5.59271
0.0247524
0.02966
5.03767
6.16838
0.0253296
0.0295923
5.38227
0.0254104
0.028379
0.338223
0.0253286
0.0334763
0.0252869
0.0248579
0.0251559
8.62124
0.0429566
0.0251569
0.0264833
0.0254718
0.0322175
0.0255381
0.0313387
0.0253038
4.36035
0.200182
0.0254849
4.87571
0.0275165
11.3527
0.0283214
0.101908
8.79331
0.0246679
0.0453039
0.0253316
0.02566
0.025315
0.121573
3.60808
0.024919
6.01117
0.217326
4.20955
0.0260349
0.0248643
0.0293767
0.0806224
0.0256459
5.67029
0.0252117
5.18589
0.0253101
0.0256394
0.0248183
9.04391
9.40719
5.77968
12.544
0.0255925
0.915959
6.38625
4.25833
4.40514
0.0251325
0.0446309
0.0298788
6.22941
0.0624511
0.579375
0.0480772
6.74892
0.0255119
0.185198
0.20434
3.35468
5.00985
0.255551
0.0300672
0.104359
0.0328766
5.61488
0.338053
0.0255369
0.0451392
0.0579096
9.43062
0.0278225
4.06659
0.0250683
2.32013
0.0261321
0.0250226
0.03315
6.47278
0.0250527
3.78864
0.0395794
0.0254769
0.0853031
0.0249974
0.0578134
6.40784
3.71123
5.4905
0.0615864
0.0329781
9.11047
7.54306
0.0256768
4.14218
9.61894
0.3146
0.101913
0.0252167
0.0267595
0.02511
0.031271
4.06938
0.0251082
0.0262484
0.0268066
0.0248234
0.222661
0.0631428
9.1909
0.0255582
0.0253339
0.0256704
0.0246972
0.0254543
0.219594
0.132471
6.85208
0.0247695
0.0841331
0.103836
0.0251948
0.0253988
0.025028
4.20081
0.0473331
0.030181
0.0252733
0.0247975
3.62341
0.0256458
0.026087
0.0290426
7.99922
6.61335
0.0834169
0.0253364
0.0268397
0.0256613
0.0248392
0.0251983
7.87904
7.67247
4.51789
0.0251817
5.41752
0.0256056
0.989777
0.0254085
0.0276991
0.665261
0.0625294
8.6834
13.2788
2.64163
0.11132
0.0519167
4.12182
0.0519157
10.0738
3.82051
0.159878
13.2883
0.0250939
10.2953
0.025079
0.0390573
1.30616
0.379787
29.5529
0.260348
0.0350068
0.0265501
35.0664
16.3052
0.152783
9.14318
0.0264033
0.0254469
3.35514
0.0319642
4.03638
4.24368
0.0264324
0.0255078
5.99454
0.0914708
0.258328
7.92126
0.0254366
0.121794
38.4777
0.0402772
0.0251763
0.0360331
6.75668
6.55328
0.0252145
0.572242
0.0252856
0.0254632
8.85334
0.0889332
0.0249908
0.0251743
0.0812058
7.99019
0.0362315
0.0253275
0.139671
0.0249277
0.0255515
0.549769
0.02669
0.04086
9.77339
0.0251083
0.0312165
0.0254398
5.70143
4.15893
0.103151
0.025557
0.0342241
0.0941386
0.0256302
0.0255661
0.0405556
0.029747
3.88856
0.0250623
4.64995
0.0268487
11.409
0.0811335
0.0253479
8.38102
1.28857
0.0254034
0.0254602
0.179807
0.0570783
4.76578
0.0304901
0.0252048
0.0279707
0.0624077
2.78356
3.73391
4.74442
0.690617
0.149859
4.6286
0.0254608
0.0329758
0.0591521
4.71935
0.0277351
0.205775
0.0254659
5.06211
0.0605713
0.0250288
0.0251339
4.32402
0.0255051
0.0268691
5.64444
0.0375944
0.0252196
0.0255341
7.1878
0.15571
4.5193
0.0416301
0.0247631
6.72659
1.31291
0.0270079
0.0339523
0.0249214
0.0252238
4.16105
4.94371
0.268509
0.368255
0.0247475
0.0247042
0.0466691
29.5739
0.0252208
4.19509
0.0253351
0.0266645
0.05189
0.243257
0.0253002
4.4883
2.18038
0.189199
26.8232
0.0700005
5.7028
0.0337889
0.0253376
0.397361
0.0249315
0.0324096
1.38077
0.0249285
0.0254321
0.0249466
0.0869466
0.0276135
5.74346
0.0253369
0.0553808
0.0251693
0.0256081
3.48928
0.0310326
4.19899
0.0253619
0.0423374
9.20695
5.34719
0.0254076
12.8613
8.14967
0.0246938
4.30148
0.0274185
11.1309
0.164177
0.0296618
4.18208
10.3984
0.318534
0.1603
0.0262114
0.0405872
0.0411015
0.153493
0.0695523
0.079427
0.0270532
0.0252194
0.034101
0.088773
0.0258828
0.0255163
0.0283719
0.148756
4.16176
5.48257
4.12424
5.65923
0.0407148
10.5844
18.4136
29.6542
8.67168
0.170861
0.0333324
0.204887
0.0290855
0.0253611
0.0545513
5.66691
0.0267255
0.0252742
3.99541
0.110431
6.65562
0.0261804
0.0255511
0.222796
0.0256296
0.026022
0.0252238
5.70615
0.0474821
0.0353631
8.10379
0.0249103
0.280509
5.84407
9.35384
0.0247768
0.02514
0.188755
0.256329
0.0247287
0.543141
0.0471771
0.552357
0.0253941
0.0250359
3.45486
5.50101
0.0632131
6.10442
0.0256782
14.6901
0.0397011
0.0250882
0.0251801
0.0781212
3.41788
4.89848
5.35614
0.182263
0.0285246
0.0560395
8.64272
6.39579
0.0249023
0.0255914
10.1677
0.0252944
4.24449
0.0574427
3.90713
0.0784649
0.0256718
0.0597582
7.91904
0.0265654
0.0321431
0.0468581
0.0256302
0.740751
5.70935
6.04417
0.152365
4.29173
0.0254249
0.0252767
4.57829
0.0256541
4.80714
0.0255951
6.65107
0.0308932
0.0258087
1.28016
0.133496
0.0252201
3.57726
0.0256395
0.0256002
0.0252278
0.0253396
0.0251672
5.19563
0.124095
0.0373235
0.0249832
0.186135
0.917494
5.91856
0.0278835
0.0429551
8.66386
0.0374344
8.21674
5.0459
0.0253983
0.178545
0.0885061
3.72517
0.293366
7.57445
5.43401
0.0349081
4.40636
0.0248042
1.20446
0.0262122
0.0279513
0.0480285
0.274979
0.0528544
5.45133
0.033765
0.0254634
0.202524
0.0335576
0.0847853
5.2976
0.0247745
0.0246455
0.0252678
0.0287759
0.0281092
5.31755
0.0252244
4.13523
17.5919
4.11401
0.0255734
0.0486628
0.0289573
0.0254062
0.0250438
0.0251206
1.76269
23.9527
0.0256771
0.0251116
0.0250917
0.0253345
0.0654042
0.0250558
1.18064
0.0324466
3.35727
0.0540643
0.0347461
4.48301
0.0632894
0.0254661
0.225217
0.0253174
3.45667
0.0253368
7.40838
0.128805
0.0256249
0.0255644
0.0249405
0.0251603
0.282299
0.0253357
19.7393
0.0401578
4.21424
0.0312868
3.38366
0.0254091
1.15285
0.290292
0.0251308
0.0251416
2.41203
0.710965
0.0253994
7.29924
0.0567823
31.7269
0.0262735
0.0253925
0.111243
5.58775
0.143311
0.0251928
0.0249789
0.0462455
4.11394
0.024748
0.0253392
0.0253473
0.0814934
0.0255169
11.4175
4.17484
0.0625366
0.0254456
0.0255778
0.114681
0.117354
0.0254584