/*--------------------------------*- C++ -*----------------------------------*\
| =========                 |                                                 |
| \\      /  F ield         | OpenFOAM: The Open Source CFD Toolbox           |
|  \\    /   O peration     | Version:  v2012                                 |
|   \\  /    A nd           | Website:  www.openfoam.com                      |
|    \\/     M anipulation  |                                                 |
\*---------------------------------------------------------------------------*/
FoamFile
{
    version     2.0;
    format      ascii;
    class       volScalarField;
    location    "200";
    object      omega;
}
// * * * * * * * * * * * * * * * * * * * * * * * * * * * * * * * * * * * * * //

dimensions      [0 0 -1 0 0 0 0];


internalField   nonuniform List<scalar> 
37809
(
0.149993
7.10024
0.0256467
0.0283051
4.78078
0.0611959
0.250015
3.9782
38.1026
6.63942
0.0832568
0.025303
0.0282206
0.0282605
11.3673
0.0286103
0.025443
3.36314
0.0253958
0.162484
0.0666461
0.065873
4.27664
0.0253061
0.0616985
6.83155
1.29653
0.02556
0.0256371
3.93316
0.132821
9.06525
0.0253111
1.86689
0.0251628
0.0254512
0.0248348
5.00321
0.0673762
0.121225
6.61223
9.76965
7.74278
9.41988
0.0252291
0.0308961
0.128475
5.18224
0.84738
0.0535452
0.0253963
0.0253254
0.0251908
0.025734
9.22205
0.0251961
0.0360605
0.0282067
0.065021
1.10631
7.73076
0.0269908
0.0281443
0.0808585
0.132433
0.0620743
9.49631
0.025451
0.0268082
3.09068
0.027655
36.3316
0.0253263
0.028204
0.0255547
0.0248479
0.119014
0.188669
0.144055
0.2374
0.0252301
0.0256433
4.65243
0.0339978
0.0251398
10.427
0.0264031
1.92684
0.0662728
0.0365786
4.94432
9.00498
0.0896773
9.62229
0.0265055
4.77233
0.0253337
0.0254316
9.3681
0.0251208
6.19966
0.0254364
0.0790014
3.44918
2.26447
0.0256076
4.13246
5.56836
0.222404
0.0253023
0.158593
0.033731
0.151692
0.0271127
0.0356809
0.0661525
0.0254767
0.0253384
0.359797
7.34036
0.0256776
0.025608
0.0408014
4.6741
8.68883
0.0254686
0.126167
0.0252835
0.0356509
0.0270586
0.385842
0.183427
9.94463
0.0252462
0.287166
0.0252953
0.0253978
0.0270914
21.7452
5.06086
0.0251479
4.43481
39.266
6.41844
0.025326
9.56093
0.0275479
0.0268504
4.66312
0.0254139
9.80967
0.0270446
0.0435115
0.363924
0.132671
0.0254307
3.65738
0.352965
0.0257702
28.1939
0.0356853
0.21236
5.60358
7.82927
0.02629
0.024714
0.0253102
15.1178
0.0695339
0.124751
0.360247
0.0251314
5.48715
0.0267514
0.0269764
0.029552
2.22881
0.0365281
4.4808
0.0862346
7.30977
0.0256268
0.0251943
0.0256338
0.0247024
0.224868
0.025633
0.0321868
2.14387
20.4252
0.0535612
0.0253336
0.0253946
7.22843
0.235787
1.86216
0.0253226
0.0246108
0.0251744
0.0277706
34.5055
0.0883
8.888
0.0866337
7.71103
0.0247086
0.0269199
0.0742272
0.0253128
0.0939377
0.0745587
7.35549
0.0251447
0.0253351
0.0252808
1.4241
0.0657191
0.0251155
0.0251416
0.174236
9.93847
2.81976
0.0255955
0.0256467
0.0252349
3.62971
4.36877
0.122361
0.0326658
4.89659
0.0256047
0.216113
0.195744
0.0268123
0.362223
1.50755
0.0251141
3.66844
0.0262506
0.136232
5.06826
0.0251378
1.9449
2.61605
0.025228
0.0253652
0.025654
0.0247112
0.126295
0.0247007
0.0254674
0.0253191
0.025399
4.73064
0.0253202
0.0253151
0.0246064
0.0254024
3.3518
5.29222
0.337089
0.0254007
27.8092
0.0256223
10.4024
0.0821954
0.134165
0.0395325
0.0253284
1.64194
9.90923
0.0252804
4.81795
2.02901
0.0253249
0.138385
1.60057
0.0254613
1.00088
0.0253967
0.0253331
14.1742
12.457
0.0252927
0.14291
0.0253618
0.0253201
0.0254179
0.0253113
3.56282
0.0253473
0.0445361
36.8026
0.0251901
0.0252777
0.0318711
0.178738
7.02372
0.0253159
30.0129
0.0435514
12.265
0.0248551
0.312786
8.80542
0.0342004
0.0256395
0.0277078
6.27272
0.0251412
0.119224
4.83917
9.85849
0.0612078
0.0256696
4.38205
0.0270016
0.0254096
25.4256
36.7658
0.0790961
2.88696
0.0501216
0.0276148
7.86872
0.0652955
9.66077
0.0253264
0.0256399
0.25224
0.0251198
0.0248517
0.0253337
6.07995
0.0248558
0.0252394
0.047984
0.0253981
0.0253709
0.0797661
0.0252606
0.0282476
5.04234
3.01844
0.0307024
0.252722
27.2522
0.025466
10.3713
0.0275902
2.70974
0.261773
0.0253032
0.0254457
15.6139
6.05473
0.0247066
0.174495
0.0253223
4.37646
2.93791
0.0297929
8.20674
7.22322
12.6055
3.65914
0.0483058
0.0289231
0.0280808
0.0252803
0.0282817
0.086888
0.0631661
33.178
0.0747199
0.0249632
0.0797961
0.0247001
9.65176
5.76022
0.0253189
0.0269731
7.99405
0.0412051
4.01872
0.0471866
5.9456
0.0395402
25.425
0.0248822
0.0254017
8.60964
0.025646
0.0254281
0.0293021
0.0690478
8.12869
1.24072
0.0321457
0.0256464
4.52197
0.0918991
0.0248785
0.0253555
0.0252307
0.109113
0.0251469
3.65893
5.23882
4.87034
0.0689023
0.0327243
0.0770751
0.025625
0.0248351
0.793692
1.36192
11.2242
0.0256649
0.0253614
5.58628
0.0666833
0.392078
0.291095
0.025412
4.1857
0.0256629
0.0365408
0.0328289
19.279
0.0251503
0.0823558
0.0282599
0.0270199
5.14186
0.0255919
9.23806
4.90023
0.0588631
0.0251267
0.0261568
0.557884
0.0552439
0.0514087
0.025337
0.025058
4.80057
0.295422
0.0481012
0.20697
0.0415248
0.0249602
0.0271084
0.0253992
0.0253554
0.0252968
0.0248396
0.0253727
8.93494
0.0252535
0.0256239
0.029634
0.220103
1.97355
8.85164
7.93785
0.0272794
0.0371347
4.41171
0.0253529
0.0337841
0.0251471
0.0254655
0.0251922
0.0596526
0.0251406
0.0566158
8.57345
0.0405342
0.0254036
0.0252729
0.025323
0.031518
0.0247045
12.453
0.025347
0.0459088
0.261239
6.06084
0.0253637
7.92154
0.047673
0.0843845
0.0254378
0.0797465
4.55595
0.0247043
0.0420375
0.0587236
0.0468778
0.154276
0.337829
4.92649
9.72245
0.0289639
0.0348004
0.0661145
10.9766
0.025396
0.0254071
0.0248308
0.0251374
4.46826
0.0348327
0.0267337
1.17756
7.21007
0.025784
17.4265
0.0292074
5.41417
0.211224
0.0254621
8.81183
0.0268889
0.0268543
0.336635
3.84037
0.0520642
0.172038
8.62437
0.0262621
0.318637
0.0617446
0.0256697
0.0248465
0.0251398
3.67704
0.02535
0.0254122
0.115715
0.0268375
4.42882
0.215238
6.27061
0.025542
0.0253454
26.2512
0.136602
0.0256763
0.0305358
0.0492863
0.0254603
0.136918
5.04184
0.0321034
0.0253939
0.19069
1.62987
0.0395025
0.151109
8.98949
0.109893
0.0248462
10.223
0.0329809
0.0825983
0.0254112
6.06956
0.293497
0.0256706
10.7908
0.0253352
0.0256042
0.0251149
0.0254007
4.16201
11.8079
0.024862
0.0247045
0.0292464
0.038788
0.0669582
0.208262
8.50124
8.69135
3.69339
13.6483
7.73293
3.65251
0.0253446
0.0253323
0.0279164
10.857
0.0256696
0.025397
0.0248701
4.99476
11.0395
0.0252527
0.0253695
0.0256721
8.11996
0.0474756
2.71974
0.025656
0.0939848
0.0273484
0.0819834
0.0778473
0.0251795
7.79851
0.0253646
0.156495
0.0253677
0.0258307
0.0254499
4.95982
3.63995
4.03589
0.0254668
4.2682
3.70983
0.0262901
7.84345
0.140828
0.117475
0.0253387
0.0253237
0.0253227
2.34377
7.29214
0.0503105
4.16179
0.0255747
0.0253334
0.042908
0.037516
0.0251352
4.58637
0.0294159
0.140525
0.195937
38.0206
8.50701
3.25319
0.343951
0.0253354
0.0248547
0.0283947
0.0253945
0.0367466
5.91398
0.0253249
35.1836
0.230328
4.37678
0.0283358
5.07128
0.0469819
8.1541
0.0269929
0.0254165
0.0352077
0.0253497
0.028117
0.395319
1.03449
17.087
0.309931
5.85946
4.94236
0.0459655
0.0253395
10.0415
0.0247124
4.73408
6.29002
0.0253276
0.0305352
0.280308
3.66175
0.026106
0.0256555
4.59055
37.6842
4.23816
0.0253045
21.7759
0.0253166
0.352453
0.046361
0.0260533
0.0805397
5.5402
0.0254036
0.0253792
0.0253012
0.0251314
0.240161
4.07077
4.55136
6.59219
0.0253683
9.5908
0.0364243
0.132933
2.31191
0.0280007
9.65532
0.0262421
0.0265353
4.45056
1.03276
0.135355
6.01319
3.4051
0.0589531
10.5276
0.179271
0.0255588
4.46601
0.0338911
0.0416724
0.0320149
0.0318042
0.0467139
0.027203
0.0371956
0.172802
0.0348389
0.0293446
0.0298419
0.0814514
0.0276538
0.0253024
0.0255169
0.0253022
0.0256034
0.355883
2.46063
0.0256812
0.0251487
0.0504935
4.4279
0.0256019
0.0290871
0.0636842
0.26072
0.0256456
0.0255396
0.0276769
0.0801426
0.0272249
0.0252195
0.0251622
11.3811
4.17616
1.42006
0.035236
0.0256392
0.0253732
0.0342837
0.0253975
0.0253058
0.0304376
5.23094
0.0665771
3.95485
0.0253487
0.0293185
0.0870997
3.91146
0.079903
27.6808
1.28745
9.3171
0.0248321
0.0253812
4.23464
0.169653
0.0468581
0.0777973
5.00988
8.19942
0.264007
0.0257222
0.20761
4.29254
0.0304424
7.65953
0.0786689
2.18284
12.3621
0.295072
0.076934
0.0262724
3.85658
0.0251494
3.80587
0.0305955
0.0251306
0.0253761
0.0248499
11.77
0.0248555
0.115192
0.0253227
0.0389819
0.311223
0.0352687
0.025328
4.52082
0.15926
0.0253524
0.0253918
10.2806
0.063899
0.0340047
0.160235
0.0288058
0.0287849
0.0249635
0.21307
4.40464
4.34678
4.56555
0.161323
0.11506
0.0643052
0.34407
0.0268177
5.32931
12.2559
0.222836
0.0252989
0.0287258
0.221411
0.0255628
4.17045
5.14155
0.213437
0.0254024
0.077395
0.0252959
0.0518711
7.75989
0.0252976
0.353992
7.46417
0.025366
0.0400572
0.0456455
0.0246782
0.0396348
4.27486
0.0477398
0.0436219
8.08739
0.0783595
0.0261532
0.0280438
0.0251614
0.0375176
0.0249656
0.0254021
5.67703
0.0442559
0.0282801
0.0261939
0.0248508
0.0262468
0.0247563
0.189924
0.249797
0.02679
0.309473
8.00205
0.0251081
0.189105
0.0253043
0.0293202
0.0256393
0.0256045
4.15584
0.0303975
26.9026
0.0253775
0.0260483
1.06667
5.30232
0.0254664
0.0341952
4.74281
10.2053
0.0256464
14.7937
0.0318859
0.0524655
0.230248
0.0281396
36.1633
0.0316237
0.0253204
0.0252246
0.0251663
0.02606
0.0267743
9.43754
0.116901
0.0342618
2.22233
0.10214
3.90825
0.0396263
0.0255518
0.0500985
4.87032
0.0335331
0.046475
0.0315646
9.7832
0.364935
0.0280858
0.0398512
0.0262798
4.45156
0.0254616
0.24069
0.0251018
0.0344414
0.0275035
8.74233
0.0288036
0.10432
0.0344664
0.076555
0.0248347
0.243968
0.159248
0.0399123
0.0246816
0.0784367
5.28921
0.717396
0.0249117
0.0283151
6.7774
1.97568
5.2246
0.0253832
0.0559245
0.0256447
0.0545658
0.331215
1.24557
0.0295065
0.157052
0.0374492
0.0253325
0.0256231
0.131072
0.02533
0.0253142
0.0262283
0.152899
1.59029
0.0398245
0.0250623
0.024767
0.024832
0.0331331
0.0254
0.107589
6.37867
0.0248383
8.00403
0.0254047
12.2157
4.90866
0.0441547
0.0279487
0.0494776
0.0253419
4.68773
0.0250191
0.224902
0.0285951
0.0253516
0.233746
0.0491839
0.0252448
5.75433
0.0597128
0.0296315
0.0269546
4.5525
0.0807039
8.56599
0.0253697
0.0658449
0.704955
7.53292
0.0251378
0.0299176
0.025127
10.8345
2.99444
3.6999
4.39604
0.0256768
0.0393929
0.0264455
4.88996
1.12104
0.0264209
0.117568
0.0253287
0.0339608
0.0251285
0.0253323
0.0251915
0.0272833
9.33551
0.025331
0.0460575
0.219851
0.0253343
0.0256713
0.0447449
5.00162
0.0306448
0.117413
0.0252143
3.89151
3.73198
0.0253657
0.348563
0.0494772
0.0460605
5.14837
0.0372988
0.025387
0.299036
0.177665
0.0263583
1.28436
0.117743
0.212814
0.0297619
0.0247046
0.23538
0.0849067
0.279755
0.0251316
8.41791
0.0459231
0.399646
0.0360673
0.0249206
0.0256783
0.0251293
0.0253946
0.0255806
0.0270728
7.68923
0.035023
0.0256067
0.0317736
0.0319226
0.0252531
4.47655
0.032207
0.151533
0.0361221
0.0262399
4.31019
0.113267
0.0789128
5.08493
4.71639
0.0250968
0.0606511
0.12971
0.102382
0.11852
2.90651
0.0247037
0.0253554
6.5465
0.0255161
5.01745
0.201833
0.126013
0.0319955
0.0319183
0.0252484
0.0251489
0.0253205
0.0253347
0.0254221
0.0253376
11.6507
0.0253599
5.34936
0.0257373
0.0636084
4.26178
0.0256731
0.0254074
0.207606
22.4449
0.164354
0.025644
7.55056
0.0256385
0.0253627
0.0262262
1.46132
0.6042
0.254572
10.132
3.88706
0.0328632
0.122256
0.0250185
0.0253974
9.14192
5.36809
0.156613
0.0398946
0.0262528
15.6556
0.117785
7.08372
0.0251728
0.229453
0.0261786
0.0269053
0.0336204
0.15577
38.4838
0.0288319
0.387731
4.1177
29.3616
0.0253424
0.0295226
6.46922
0.0269937
6.48944
0.028076
0.0657585
0.0464016
0.0619256
8.49018
0.0250965
0.0253036
0.0460501
0.0812931
8.3545
0.025628
5.90346
0.0262464
9.49453
4.77669
0.161131
0.0253962
0.0252591
0.15655
6.30526
0.0247376
5.0942
0.0262694
4.22138
0.029758
0.0315873
0.0253542
0.0470686
0.0706786
0.0299132
0.0313271
0.0251257
4.91286
0.0413024
0.0247487
0.041868
8.8552
5.42931
0.0297645
5.47468
4.6877
0.0599013
0.245538
0.0341238
0.194567
0.0252346
0.12111
0.0261953
7.44327
0.0255383
0.0254768
3.30138
0.281464
0.0271345
0.796851
0.024739
0.0254178
6.56692
0.0251515
1.42549
0.0500079
0.0253348
6.20932
0.362417
0.155811
0.0253892
0.0358039
0.150887
0.0255432
0.0283128
7.30221
4.64034
0.0472432
0.11166
0.025404
0.0296406
0.149915
4.65857
3.71139
0.0605735
0.0356679
0.0262665
1.6772
0.150245
0.0598655
4.52828
0.0252172
0.130678
0.156574
0.0249183
0.0255111
0.156339
0.0256619
8.68389
0.270816
7.52758
0.0252793
0.0255422
4.76513
0.0255746
12.8865
7.8562
4.01641
0.119847
0.0252631
0.0268528
3.83949
0.0337443
0.0252384
0.0326427
0.0261859
4.48326
12.4481
0.0296186
0.02554
0.025377
0.0250963
4.91447
0.788326
0.391688
5.24764
0.0253231
0.0253091
21.4956
0.0252946
0.0836603
0.0314884
9.69509
9.45544
0.0525142
4.72832
7.70805
0.0251543
0.0402322
0.123571
0.0296568
0.0256454
0.0334931
0.0294968
0.0788274
1.09211
11.5659
0.0252867
0.0252471
4.31809
5.42696
7.55112
0.30165
0.0337633
4.17469
0.0247615
0.231651
4.35608
0.171422
0.0253861
0.0842255
0.0247763
0.0254103
0.0251664
0.0251386
0.0261092
0.0354694
0.0468242
9.7853
0.0253335
0.0246816
3.97898
0.280335
0.0605047
4.34012
6.90187
6.66118
0.0253993
0.0256544
9.84052
0.0475795
0.0916953
0.0263452
0.0252744
0.0254626
0.0249213
0.0262984
0.0795414
5.07942
0.0254882
0.0259389
0.0339494
0.0259148
4.51147
0.0497358
0.110719
7.04594
0.090943
0.0253663
4.73883
8.60324
0.0995728
6.35656
0.0278331
0.0435375
11.7485
0.151898
9.99615
0.0301519
0.0253642
11.2085
0.119094
0.0256296
0.0254242
0.0467094
8.93926
0.0252037
0.0248775
0.0256237
0.0248789
0.0250633
4.58443
0.270579
0.025259
0.0307916
0.0821484
0.0253605
0.0295403
0.0256242
0.0247127
0.025372
0.0431876
0.0303365
0.0254879
0.030668
0.0256303
10.137
0.0267423
7.66668
0.559078
4.61546
0.0883327
0.0246854
0.02563
0.0251671
0.216195
0.0251374
0.0248887
3.51113
10.9762
0.351166
0.024945
0.125991
0.585905
0.0254856
3.68273
0.0279942
6.86764
0.0253427
0.260463
13.2519
0.0258269
0.0253932
4.53987
5.13682
0.0780262
3.88249
0.863427
12.4185
9.88115
6.31857
0.0253518
4.71092
9.09102
5.26166
0.0256534
1.36913
0.0252862
0.0246451
4.43785
0.0256452
0.0901401
3.34106
0.0249525
11.1796
0.0949005
5.01969
0.0370347
0.0260976
0.0534672
0.025138
0.0254161
0.0549613
0.0370415
4.58792
0.0249935
6.14951
6.41768
0.056394
5.01214
0.0468907
0.0253263
9.2308
0.0253797
4.87759
8.18325
4.29834
5.28615
4.72244
0.0791
0.184848
0.0279224
5.28818
0.0255739
0.0254638
0.101729
0.0255381
0.051385
9.36949
0.0256043
1.32476
0.028236
0.0261696
3.64636
0.0280504
0.0253785
0.0435947
3.28208
0.0281151
0.110602
0.0256111
4.2824
0.0253182
3.58291
0.0252482
28.755
0.087801
0.527199
7.78252
0.0264279
0.190254
0.0255797
0.821858
0.0259882
0.0249595
0.179155
0.0253452
0.0256654
4.17858
0.0250787
3.66494
0.0252713
0.0250657
0.0254121
0.0450742
0.342021
0.0252432
0.334346
0.0253582
0.0251757
0.0283472
0.0404216
0.0744128
0.142655
4.85344
0.0320829
0.0256301
0.0256679
0.025389
0.0280855
4.42432
0.0251303
0.0258146
5.25928
0.025612
0.0321166
0.0253441
0.0255431
4.46056
0.024975
0.027323
0.0252984
0.0252511
0.025543
8.3343
0.0261971
27.1697
6.52652
0.0554872
10.3193
0.0348526
0.0256246
3.0106
8.23084
0.0250619
0.0252884
0.055534
0.0648217
0.0255651
0.0841443
0.0256471
0.0256775
0.0251472
8.28397
0.0254653
0.188826
0.030241
1.73249
6.04744
0.0258384
4.18852
0.0253985
11.2497
0.256011
0.152438
0.0598693
0.115983
0.0261772
10.0738
0.0769341
0.0250222
0.0251444
0.0256668
0.317226
0.0752826
0.179576
0.257123
0.025639
0.025146
4.16896
0.0253635
11.1195
0.045394
24.3824
0.0663066
0.0281842
0.0304634
0.0403333
0.0254606
0.025744
0.0252699
0.025418
0.0253252
1.37193
0.0376478
0.0726693
0.317184
0.0259845
4.3471
0.0666935
0.027164
6.49569
0.0267854
0.216826
0.122143
0.0290977
4.03873
0.688465
0.0253823
5.50621
0.0250835
5.43326
0.0254595
0.0254194
5.33158
0.0863024
0.0253377
0.0305912
0.0279979
0.511229
0.0407228
4.94737
0.0254481
0.232987
24.3127
0.0568895
0.0253234
0.0448775
7.25604
0.0350157
0.0264068
3.7022
0.0256531
14.5545
6.15745
0.0614614
0.0253308
0.0251239
9.44011
0.323483
1.33333
0.0445057
5.16111
0.0407762
0.706666
0.061189
5.78803
0.045387
19.865
0.1541
1.37843
0.0253653
0.0250604
0.120661
0.0439264
1.3285
33.7552
0.0573351
24.9716
10.1726
0.0362683
0.0272051
1.58002
0.025086
0.0775892
0.0263498
0.0249525
38.4385
0.0250543
0.0654712
0.025363
0.0256396
0.025327
9.9706
4.27548
0.532407
0.0252069
4.3179
0.0412475
8.92657
0.337201
6.77045
0.0253636
10.9746
0.16373
0.0250687
0.0612552
0.0263177
0.0247756
0.0255778
0.0267871
0.0254041
0.0266364
0.0253636
0.0252421
0.0261989
0.0426375
4.36917
0.0253625
0.0826886
5.4832
0.159603
0.0315904
0.0250811
0.342506
5.01007
0.0296058
0.0247966
0.124808
0.0253199
0.0831974
0.0252825
0.37082
0.0807875
0.0251014
4.49285
0.462036
0.045413
0.030505
9.57744
0.0896363
6.84798
7.3425
0.0261866
2.86455
0.0251977
0.0921532
0.0250934
4.54178
0.025242
0.0346391
8.90184
0.0266463
0.0253554
4.94855
0.0269796
3.42282
0.0264912
0.079389
4.04124
0.0329985
0.0251802
5.72441
0.486877
0.0292576
4.18898
10.0285
0.0253568
0.370869
0.0566261
0.0260768
0.0254001
0.6567
8.35765
7.09462
0.0260501
0.0262893
9.35129
0.0254657
0.047548
9.46244
4.8753
0.0251671
0.0256307
4.1647
3.38135
0.0252812
0.215776
12.6417
3.32377
7.42492
0.0253024
0.026062
0.0256205
0.339689
0.0283393
4.25733
0.0478417
0.0254211
0.06604
0.0251775
0.113609
0.0253623
5.87846
0.0546884
0.027146
10.3635
0.0471333
0.0663158
2.06694
0.0252411
0.164994
0.0273928
0.349327
0.0838303
4.29634
0.0538935
10.3429
0.026748
0.0259425
0.305808
0.0724525
0.024914
0.0840592
0.135358
0.0251398
0.0592107
9.89376
0.0256243
0.0252078
0.0256773
0.0255739
5.80306
0.0254646
0.259467
0.228184
6.96239
0.190563
1.53236
0.0330747
0.237959
0.0288281
0.0253366
0.104791
0.025813
0.0606912
5.74973
4.69675
0.184094
0.0748132
0.0304587
0.0252952
0.23398
0.323152
0.03041
3.39477
0.0334046
0.129077
0.0253404
0.0251279
0.025624
0.0769962
0.113614
4.74452
7.39057
0.0284118
0.025389
4.78214
0.0256706
0.134156
0.0250105
3.24656
30.8813
5.19019
0.11819
12.606
34.9
11.152
0.0249327
23.5833
0.0250688
7.39472
2.0271
0.0249165
0.0290281
4.14566
0.0256616
0.0254956
0.0248873
0.0513817
0.959279
0.0256713
0.0268199
0.201421
0.0253688
31.2186
0.0624383
0.025162
6.75647
28.2197
4.0743
0.282056
0.0251409
5.01424
0.0318041
0.0953484
0.0252854
0.0248232
4.41445
0.0550498
7.14152
0.131296
3.01951
0.0254664
0.0470236
7.9663
0.0315149
3.85198
0.0268932
5.2086
0.0255545
0.0647524
0.0390161
8.33003
0.0251837
0.0287844
0.0431923
0.0252609
0.0253067
0.0727241
0.141646
0.172145
0.0253401
0.025358
0.0256882
0.0262404
0.484499
0.0249721
0.0422051
0.196478
0.0256419
10.6366
5.20188
4.26221
8.42183
4.21647
0.0254639
0.0601215
0.0249022
0.0316364
0.0338765
12.1212
0.025357
0.0491467
0.025834
0.0253389
0.0253252
0.025326
0.0613653
0.025519
0.0980595
22.2646
4.5894
7.35863
0.0254199
8.4834
0.0258062
11.9427
0.0605929
0.0304056
0.0290406
0.0251753
0.0248991
0.0256708
4.00052
0.0395358
0.0364302
0.166384
0.0953963
0.0252812
0.032997
0.190698
3.71418
0.0270125
0.0271561
0.025359
10.0612
1.61217
0.0258223
0.0250979
0.226002
0.0251775
0.0317953
1.14802
5.4294
0.0255502
0.0251729
0.0311511
0.0253752
5.10682
3.98817
5.43438
0.0255589
0.0248895
0.202124
4.68453
0.0254666
0.0251511
0.0840431
0.0254298
0.0643681
0.0256756
11.4914
0.0254593
0.0248958
0.0348018
0.025105
0.0516257
0.0477171
4.25728
8.236
0.0327236
0.0253937
10.239
10.5765
0.219424
0.024849
9.00715
0.0295682
0.0253477
3.99103
0.0386782
0.0723842
13.5459
0.0283409
7.99219
4.88755
11.1818
0.0664332
0.0281929
0.0278227
0.029803
0.0254344
0.126781
10.2014
0.025321
0.0254617
0.0651318
0.0253974
8.43792
9.09406
3.62974
0.0251501
0.0253656
0.0270095
0.0285474
0.0251171
0.322095
0.0253528
0.0252585
3.72835
4.23624
0.0506786
0.373523
0.335542
0.0389003
0.779486
0.0311847
0.0479679
4.15309
0.138983
0.030029
0.108369
7.79339
0.0248996
0.0252085
0.0256603
16.4656
0.453451
0.0473264
0.0253418
3.70224
0.172732
0.0642412
0.0781849
9.79914
8.37192
0.0252777
0.0250986
0.0587395
3.59895
4.31623
5.1215
0.0254665
0.025194
4.75616
0.0255629
0.0254
0.0259128
0.025057
0.155556
0.0256425
0.02563
0.0253464
0.025352
5.36597
2.66891
0.0251
0.0297323
4.32236
0.0253789
0.02693
0.0248734
0.0283907
7.1742
1.99776
6.30912
0.0472491
0.0256398
0.0251962
0.961935
0.166631
13.1102
0.206082
0.0252049
0.0252713
5.44639
0.930162
0.150321
0.904251
0.0378732
0.0253222
0.635167
5.84386
0.0252959
0.0252781
6.48711
4.42628
0.0251962
4.81687
0.0253469
0.0253347
0.0253596
4.47981
0.0438265
0.195083
9.44603
0.025386
1.06191
6.59406
5.01204
0.206239
0.025351
3.48809
4.5532
0.0280903
9.30463
0.0256563
0.0283689
0.136597
0.024879
0.0252821
0.0256261
0.232348
0.0279592
0.0422498
0.121113
0.081334
0.0254591
0.033403
0.0253348
7.92061
3.67622
0.032534
0.0828808
7.37922
0.473308
0.0250065
4.59147
0.0252118
0.0251078
0.0381075
0.0278977
0.0256212
3.37233
0.0259688
0.0298669
0.0622582
0.199151
0.205816
0.0247126
4.74661
0.0359993
0.0252913
4.70639
0.0255432
0.18458
0.163359
0.0299173
3.50692
2.62829
0.0254087
0.19831
0.0259169
0.024782
5.56042
0.125607
0.052774
8.12754
3.88249
0.0252125
0.02527
0.025462
0.0256406
6.03735
0.0549041
4.22161
6.42738
0.0452072
0.0411219
4.34083
0.0405266
8.42654
4.95327
2.44152
0.0846148
0.0255279
0.362244
0.0464572
4.04915
0.905172
0.0503329
4.347
0.0253931
1.71154
0.0253966
4.26233
0.0250837
4.65359
0.0256767
0.0312794
0.0254297
5.88521
0.0253486
0.025346
0.162507
0.0253646
0.0256168
0.0290009
0.029305
9.7859
0.0402213
18.3874
0.0251531
0.0278695
0.16011
0.025327
7.75731
0.0253492
0.338178
27.8367
0.0250098
7.61322
0.0253566
0.0305415
0.0252878
0.0258239
7.88104
0.0347073
0.025288
10.4555
4.44833
3.53684
6.12565
4.65974
0.178325
0.0344006
0.025111
0.931098
0.351964
0.0391675
4.62452
0.130229
9.39773
0.0248427
0.0281571
0.0681414
4.16388
0.0265193
0.0253644
4.27756
0.871812
1.01806
5.09511
0.0279818
6.27085
4.25806
4.3257
6.29581
0.0314832
4.8913
0.279969
0.0255373
0.0471828
0.0255324
5.94687
0.0283648
4.41219
0.0255891
5.34874
1.1137
0.0277494
0.100065
26.8306
0.0263348
0.025474
0.0252197
0.0255583
0.0605317
0.0255425
0.0251898
0.0647933
0.0398141
0.0376638
6.51312
0.131536
0.0289309
0.0297934
0.0503053
4.14741
0.838193
3.84436
4.41756
0.0578162
6.69821
0.0269004
0.363214
0.0255792
0.0289868
0.0255419
0.024784
0.0256375
0.0253987
0.209945
0.209347
0.0256709
7.74704
0.0449391
0.0246534
10.9552
0.0251008
4.44011
0.0310937
0.0262721
0.0255949
1.3694
0.0306101
5.26407
0.0254617
3.94945
0.088198
0.0252445
0.0255506
0.0356497
0.0248123
4.24717
38.6882
0.0259566
0.0379586
0.0374594
0.0845296
0.0253889
0.111621
0.130911
0.0249578
10.7582
0.0252481
0.0313892
4.29848
0.0252998
0.0256571
0.0253401
0.0549199
0.0576872
9.76076
0.026873
0.267703
0.0277797
0.0252231
4.16991
10.3622
4.10369
14.1916
0.113315
0.0658441
7.52534
0.038079
0.0253374
0.0253178
11.3053
6.62235
4.49708
0.0253726
0.0256555
0.0360034
0.0251999
4.62644
0.0262872
7.23979
0.0333293
0.032957
0.0253981
4.44791
4.74423
0.0373964
22.6822
28.6679
0.0251483
0.0500836
11.8921
0.0255294
4.49111
0.079713
0.0255174
0.0278418
0.0250576
4.76132
13.2399
1.16042
0.0399993
0.219776
4.3801
0.13701
0.0247811
4.31704
0.0260858
0.0249924
26.4665
0.0329545
0.0335461
5.71819
0.025565
0.0270789
0.025466
0.0252996
3.65371
8.50374
0.0253985
0.0378774
0.258051
1.28584
3.28698
7.82904
0.18345
9.45645
0.0253964
9.45776
0.0281858
0.0253369
0.1366
0.0249516
0.257015
0.145243
0.0397765
0.0248555
4.23599
0.0525649
0.04139
0.0271985
3.14704
0.0561075
0.0254652
3.32678
0.0285147
0.0291412
0.0624257
3.97233
0.0252934
0.0255401
0.0258353
0.0310926
0.0268496
1.60417
4.92939
0.0419598
0.0253348
0.164644
0.0393813
0.0279313
1.47361
5.3443
4.65112
0.0253635
8.89153
1.29542
0.0306214
0.0252847
0.0250944
0.0254102
5.45006
0.025518
0.0246524
0.0250986
0.0538873
4.32443
0.0466849
0.0256712
0.11665
0.27117
38.3873
0.0249966
0.26858
0.0266992
0.0248001
0.025737
0.0544587
0.111031
8.28148
0.320777
0.0251494
7.17961
0.0256763
0.0256769
9.22669
0.230162
0.0255117
5.17534
0.0340941
1.48781
7.24793
0.0844136
0.0261175
0.0253936
8.88441
0.0250718
0.0260708
0.0315867
0.0252417
12.9018
0.0323876
0.0257056
7.42166
5.63404
0.0783803
0.23699
0.296471
0.0253361
4.34625
0.0263402
0.0254704
0.139472
0.035697
0.0942027
0.133449
5.27347
0.0563859
0.0254106
7.45718
0.109068
4.1235
0.0253865
0.362199
0.0253417
0.0251444
12.7315
0.0378509
5.34489
0.0247118
0.0270477
0.11264
5.14013
3.68869
0.0260325
5.0907
0.0250644
0.0262837
0.0277403
0.031014
0.0253833
5.00782
0.027552
0.0339111
0.025247
8.45075
0.0268163
26.7687
1.00575
0.0250684
0.186295
0.0655186
4.65269
0.0255179
0.0253063
0.0253863
6.34256
0.0251958
0.0734176
0.0252508
0.0391975
0.025118
7.04007
0.031056
0.0464626
9.48897
0.0248276
0.0808661
4.22422
0.342508
0.201393
0.0257304
6.19699
0.0253183
0.0255436
0.0252697
0.0267316
0.0495481
5.59276
0.0247524
0.0296599
5.03576
6.16804
0.0253296
0.0295923
5.38235
0.0254104
0.028379
0.338195
0.0253286
0.0334763
0.0252868
0.0248579
0.0251559
8.6222
0.0429574
0.0251569
0.0264832
0.0254718
0.0322175
0.0255381
0.0313389
0.0253038
4.36
0.200181
0.0254849
4.87557
0.0275165
11.3531
0.0283214
0.101909
8.79229
0.0246679
0.0453043
0.0253316
0.02566
0.025315
0.121601
3.60808
0.024919
6.01094
0.217331
4.20946
0.0260349
0.0248643
0.0293768
0.0806249
0.0256459
5.66999
0.0252116
5.18528
0.0253101
0.0256394
0.0248183
9.04407
9.40644
5.78011
12.545
0.0255926
0.915942
6.38612
4.25837
4.40603
0.0251325
0.0446307
0.029879
6.22929
0.0624515
0.580354
0.0480772
6.74858
0.0255119
0.185203
0.204343
3.35471
5.0101
0.255587
0.0300673
0.104353
0.0328769
5.61509
0.338349
0.0255369
0.0451401
0.0579099
9.43058
0.0278225
4.06701
0.0250683
2.32013
0.0261321
0.0250226
0.0331502
6.47236
0.0250527
3.78869
0.0395794
0.0254769
0.0853076
0.0249973
0.0578154
6.40847
3.71181
5.48979
0.0615884
0.0329783
9.10945
7.54196
0.0256768
4.14181
9.61958
0.314574
0.101918
0.0252166
0.0267595
0.02511
0.0312711
4.06977
0.0251082
0.0262483
0.0268067
0.0248234
0.222713
0.0631418
9.1915
0.0255582
0.0253339
0.0256704
0.0246972
0.0254543
0.219589
0.132479
6.85168
0.0247695
0.0841333
0.103845
0.0251948
0.0253988
0.025028
4.20076
0.0473342
0.0301812
0.0252733
0.0247975
3.62389
0.0256458
0.026087
0.0290427
7.99951
6.61349
0.083418
0.0253364
0.0268397
0.0256613
0.0248392
0.0251983
7.87944
7.67311
4.51866
0.0251817
5.41731
0.0256056
0.989724
0.0254085
0.027699
0.665119
0.0625292
8.68319
13.2783
2.63974
0.111315
0.0519187
4.12203
0.0519158
10.0749
3.82069
0.159886
13.2873
0.0250939
10.2951
0.025079
0.0390577
1.30853
0.380087
29.5522
0.260347
0.0350072
0.02655
35.067
16.2932
0.152784
9.14298
0.0264032
0.0254468
3.35504
0.0319644
4.03617
4.24239
0.0264324
0.0255078
5.9939
0.0914707
0.258324
7.92141
0.0254366
0.121793
38.4801
0.0402774
0.0251763
0.0360332
6.75617
6.55321
0.0252145
0.573136
0.0252856
0.0254632
8.85382
0.0889295
0.0249908
0.0251744
0.081207
7.99
0.0362316
0.0253275
0.139673
0.0249277
0.0255515
0.548681
0.02669
0.0408604
9.77388
0.0251083
0.0312167
0.0254398
5.70154
4.15882
0.103152
0.025557
0.0342241
0.094141
0.0256302
0.0255661
0.040555
0.029747
3.88715
0.0250623
4.64981
0.0268488
11.41
0.0811332
0.0253479
8.38092
1.28758
0.0254034
0.0254602
0.179813
0.0570787
4.76774
0.0304903
0.0252048
0.0279707
0.06241
2.7793
3.73416
4.74441
0.690615
0.149847
4.62856
0.0254608
0.0329759
0.0591526
4.71962
0.027735
0.205782
0.0254659
5.06218
0.0605727
0.0250288
0.0251339
4.32395
0.0255051
0.0268692
5.64393
0.0375943
0.0252196
0.0255341
7.18793
0.155621
4.51956
0.0416302
0.0247631
6.7267
1.3129
0.0270078
0.0339525
0.0249214
0.0252238
4.16108
4.94385
0.268498
0.368254
0.0247475
0.0247042
0.046669
29.5742
0.0252208
4.19509
0.0253351
0.0266644
0.0518901
0.243265
0.0253002
4.4889
2.18025
0.189231
26.8232
0.069999
5.70267
0.0337889
0.0253376
0.396058
0.0249315
0.0324098
1.38091
0.0249285
0.025432
0.0249466
0.086943
0.0276134
5.74395
0.0253369
0.0553807
0.0251692
0.0256081
3.48935
0.0310326
4.19885
0.0253619
0.0423378
9.207
5.34726
0.0254075
12.8611
8.15008
0.0246938
4.30168
0.0274184
11.1309
0.164183
0.0296619
4.18201
10.3979
0.318527
0.160309
0.0262113
0.0405868
0.0411015
0.153488
0.0695536
0.0794274
0.0270531
0.0252194
0.034101
0.0887739
0.0258828
0.0255163
0.0283719
0.148745
4.16192
5.48234
4.12425
5.65961
0.0407148
10.5841
18.4134
29.6517
8.67214
0.170858
0.0333324
0.204949
0.0290856
0.0253611
0.0545517
5.66732
0.0267256
0.0252742
3.99539
0.110433
6.6563
0.0261804
0.0255511
0.222777
0.0256296
0.026022
0.0252238
5.70597
0.0474822
0.0353636
8.10394
0.0249103
0.2805
5.84457
9.35367
0.0247768
0.02514
0.188755
0.256313
0.0247287
0.543263
0.0471772
0.55227
0.0253941
0.0250359
3.45496
5.50137
0.063213
6.10455
0.0256782
14.6907
0.0397017
0.0250882
0.0251801
0.0781263
3.41787
4.89871
5.35653
0.182264
0.0285246
0.05604
8.64318
6.39619
0.0249023
0.0255914
10.1672
0.0252944
4.2445
0.057445
3.90782
0.0784658
0.0256718
0.0597586
7.91901
0.0265653
0.0321433
0.0468593
0.0256302
0.740569
5.70917
6.04356
0.152366
4.29157
0.0254249
0.0252767
4.5782
0.0256541
4.80749
0.0255951
6.6513
0.0308933
0.0258087
1.28014
0.133506
0.0252201
3.57754
0.0256395
0.0256002
0.0252277
0.0253396
0.0251672
5.19555
0.124092
0.0373241
0.0249832
0.186131
0.914572
5.91886
0.0278837
0.0429551
8.66386
0.0374343
8.21667
5.04593
0.0253983
0.178551
0.0885053
3.72571
0.293344
7.57465
5.43366
0.0349085
4.40641
0.0248042
1.20422
0.0262122
0.0279512
0.0480299
0.27501
0.0528541
5.4508
0.033765
0.0254634
0.202526
0.0335576
0.0847845
5.29744
0.0247745
0.0246455
0.0252678
0.0287759
0.0281092
5.31685
0.0252244
4.13524
17.5904
4.11403
0.0255734
0.0486629
0.0289572
0.0254062
0.0250438
0.0251206
1.76286
23.9491
0.0256771
0.0251116
0.0250917
0.0253345
0.0654041
0.0250558
1.18065
0.0324469
3.35726
0.0540648
0.034746
4.48272
0.0632923
0.0254661
0.225221
0.0253174
3.45665
0.0253368
7.40857
0.128812
0.0256249
0.0255644
0.0249405
0.0251603
0.282471
0.0253357
19.7386
0.0401585
4.21412
0.031287
3.38371
0.0254091
1.1529
0.290278
0.0251308
0.0251416
2.41189
0.710964
0.0253994
7.29941
0.0567825
31.7275
0.0262736
0.0253925
0.111245
5.58524
0.143312
0.0251928
0.0249789
0.0462469
4.11407
0.024748
0.0253392
0.0253473
0.0814909
0.0255169
11.4171
4.17472
0.0625389
0.0254456
0.0255778
0.11468
0.117363
0.0254584
0.0643264
0.0976231
0.0288546
26.3476