/*--------------------------------*- C++ -*----------------------------------*\
| =========                 |                                                 |
| \\      /  F ield         | OpenFOAM: The Open Source CFD Toolbox           |
|  \\    /   O peration     | Version:  v2012                                 |
|   \\  /    A nd           | Website:  www.openfoam.com                      |
|    \\/     M anipulation  |                                                 |
\*---------------------------------------------------------------------------*/
FoamFile
{
    version     2.0;
    format      ascii;
    class       volVectorField;
    location    "200";
    object      U;
}
// * * * * * * * * * * * * * * * * * * * * * * * * * * * * * * * * * * * * * //

dimensions      [0 1 -1 0 0 0 0];


internalField   nonuniform List<vector> 
37809
(
(0.964724 0.370579 1.65111e-21)
(0.227047 -0.00574496 -1.31737e-20)
(0.999959 0.00136422 2.48565e-22)
(1.07195 0.0511546 -2.70577e-21)
(0.391006 -0.0714066 -3.20214e-21)
(1.10011 -0.037583 -8.45636e-21)
(0.715926 0.417108 7.46136e-21)
(0.0677303 0.309508 4.41889e-20)
(0.0230958 0.00243343 0)
(-0.22028 -0.00838187 -4.94071e-21)
(1.1644 0.134195 -2.10351e-20)
(0.989042 0.0209667 1.60771e-21)
(0.916648 -0.00827282 0)
(0.91607 -0.00504245 0)
(-0.311939 0.00255542 6.43089e-20)
(1.00183 0.0933393 1.97843e-21)
(1.00163 0.00323398 3.11933e-22)
(0.348821 -0.0198804 0)
(1.0283 0.0394016 -3.52938e-22)
(0.771588 0.369114 0)
(0.705949 -0.0669045 -7.18313e-20)
(0.710167 -0.061397 5.60786e-20)
(0.608299 -0.0572295 0)
(1.00409 0.00787894 3.86339e-22)
(0.841006 0.213577 8.20923e-21)
(1.17853 -0.00279873 -1.06546e-20)
(1.10117 -0.0773919 -1.66278e-20)
(0.965648 0.00819006 0)
(1.00008 0.00123848 0)
(0.0653119 0.37983 -9.94312e-20)
(1.14179 -0.0502269 0)
(-0.213388 0.00376066 0)
(1.00391 0.00768805 3.58668e-22)
(0.507732 0.618565 4.7778e-20)
(1.04352 0.000140809 0)
(1.00155 0.00307103 0)
(1.03147 0.00363622 1.79698e-21)
(1.20595 -0.0485609 1.92014e-20)
(1.12951 -0.0212959 6.72686e-21)
(1.19506 0.141034 1.67476e-20)
(0.0930274 0.013644 4.57058e-20)
(-0.333422 -0.00166301 1.82746e-20)
(-0.0345043 0.00596044 1.71929e-20)
(-0.313378 -0.00262986 -8.07555e-20)
(1.0031 0.0289348 -1.84848e-21)
(1.0802 -0.0110238 1.27491e-20)
(1.10348 -0.0566343 -1.85998e-20)
(0.893467 -0.0989059 0)
(1.10053 -0.0761506 6.83836e-21)
(1.03718 0.202654 0)
(1.04874 0.0148152 -6.18923e-21)
(0.995615 0.013513 1.31208e-21)
(1.0075 0.00899773 -1.42707e-22)
(1.02682 0.0508757 1.01852e-21)
(-0.225026 -0.00487911 0)
(1.0073 0.00867376 1.11403e-22)
(0.955202 0.137408 0)
(1.07541 0.00270539 -5.04345e-21)
(1.12565 -0.0223293 1.11933e-20)
(1.26099 -0.0218564 -1.63557e-20)
(-0.293187 -0.00153773 -3.99142e-20)
(0.932343 -0.00537035 0)
(0.918525 -0.00892784 0)
(1.1473 -0.0169327 -3.18463e-20)
(1.14056 -0.0512212 0)
(0.846529 0.218205 7.15216e-22)
(1.15892 0.0892345 1.36421e-20)
(1.02788 0.0420965 -2.47391e-21)
(1.06217 -0.00619004 -1.08023e-20)
(1.05488 -0.0546835 1.18269e-20)
(1.03133 0.0789752 0)
(-0.194865 -0.0017821 0)
(0.98584 0.0220387 0)
(0.917482 -0.00395092 6.69202e-21)
(0.966394 0.00898806 0)
(1.0289 0.0061095 -4.71026e-21)
(1.193 0.138141 -3.44978e-20)
(1.06098 0.363233 0)
(0.955589 0.365411 0)
(1.21958 -0.00575943 0)
(1.00379 0.0194206 -6.44471e-22)
(1.00007 0.00116301 0)
(0.892169 -0.0883742 -8.38263e-21)
(1.09778 0.00394826 -4.08507e-20)
(1.02473 0.0269275 0)
(-0.0443537 0.00452897 -6.64149e-21)
(0.967205 0.0531955 0)
(1.32214 0.247967 1.29726e-20)
(1.10996 -0.0356307 -1.0306e-20)
(0.882607 0.0994276 -3.1364e-21)
(1.22274 -0.04469 0)
(-0.305807 0.00328394 7.43568e-20)
(0.666829 0.137622 -8.68977e-21)
(0.615965 0.0344105 0)
(0.965471 0.0539548 -1.01929e-20)
(0.785128 -0.0843784 0)
(0.984711 0.0214221 0)
(1.04963 0.0146216 6.33917e-21)
(0.0763612 -0.00626906 -1.03301e-20)
(1.01088 0.000526117 7.87222e-22)
(1.27289 0.0419655 4.43221e-20)
(1.0497 0.0139308 1.00985e-20)
(1.14542 -0.0165242 1.67644e-20)
(0.335591 -0.0178761 1.06092e-20)
(1.09975 -0.0833013 -1.90142e-20)
(1.00019 0.000253123 -1.88226e-21)
(0.0724572 0.406147 -4.77957e-20)
(-0.154233 -0.00829195 0)
(1.11688 0.337618 5.304e-21)
(0.989393 0.020523 0)
(0.770309 0.358498 -2.21357e-20)
(1.0966 0.00371255 4.39378e-20)
(0.600045 -0.214589 -2.74058e-20)
(0.959952 0.0609486 -6.63556e-21)
(0.954808 0.134542 0)
(1.12809 -0.0208619 -5.93988e-21)
(0.987041 0.0387291 0)
(0.982227 0.010333 -1.77549e-21)
(1.14629 -0.0846012 9.59654e-21)
(-0.0319704 -0.00945175 1.41536e-20)
(1.00001 4.01355e-05 -1.29872e-21)
(1.04071 0.0384327 0)
(1.11926 0.0310201 -1.82011e-20)
(0.363171 -0.0693569 0)
(-0.303561 -0.00869565 -2.20517e-20)
(0.986394 0.037892 0)
(1.1065 -0.0564819 -1.75003e-20)
(1.00621 0.036727 1.54887e-21)
(0.884107 0.0913902 0)
(1.06177 -0.00960287 -6.97226e-21)
(1.21065 -0.0458492 2.36115e-20)
(1.09802 -0.0613978 -9.48758e-21)
(0.0020267 0.00520303 3.57934e-21)
(1.0055 0.0123123 -2.95322e-23)
(1.22329 -0.0134757 0)
(1.01039 0.000447097 0)
(1.04859 0.0154407 0)
(0.932133 -0.00751128 0)
(-0.186858 -0.000507798 -4.15315e-20)
(1.29715 0.0598785 -2.0337e-22)
(1.04293 -0.000154792 2.12056e-21)
(1.12653 -0.0970459 -2.7367e-20)
(-0.140469 0.00793383 4.42971e-20)
(0.0820127 0.0102588 4.66576e-20)
(0.986083 0.0226811 0)
(1.17825 0.0905577 8.08444e-20)
(1.07309 0.029036 1.21789e-20)
(0.941315 0.030505 4.09571e-21)
(0.878941 -0.0876537 1.53246e-20)
(1.0163 0.000187819 1.81066e-21)
(0.107523 -0.0060052 -9.79093e-21)
(1.06119 -0.0100142 0)
(1.09012 -0.0294303 -6.30468e-21)
(1.2381 -0.00257207 3.09286e-20)
(1.2027 0.0295109 -2.26659e-21)
(1.01553 0.00015105 0)
(1.15902 -0.095734 1.25109e-20)
(1.14646 -0.0832718 -4.32602e-21)
(1.02753 0.0515473 -4.79181e-22)
(-0.276409 0.00227107 -7.28737e-21)
(0.882192 0.0870056 -2.92588e-21)
(1.09217 -0.058865 8.25155e-21)
(0.134435 0.724941 -5.19697e-20)
(-0.0351085 0.0386675 -2.74992e-20)
(0.944697 0.00283765 -1.99232e-21)
(1.02328 0.00204586 -2.45772e-21)
(1.00032 0.014489 -2.86887e-21)
(0.158219 0.0845873 -2.9366e-20)
(1.13684 -0.0151956 2.29537e-23)
(1.20051 0.0340019 0)
(1.11867 -0.0874549 -2.21991e-20)
(1.01076 0.0134157 0)
(-0.0611617 -0.0144439 4.48502e-20)
(1.05588 0.0499477 5.49013e-21)
(1.06303 -0.00667731 0)
(0.954615 0.088591 7.59264e-21)
(1.09554 -0.0826621 0)
(0.880724 0.0952288 -1.14895e-20)
(0.480088 -0.0653015 0)
(0.981489 0.292497 0)
(-0.0338408 -0.0105294 -1.62482e-20)
(1.04635 0.0328488 -6.12755e-21)
(1.0074 0.00919295 1.3569e-22)
(0.968168 0.0244446 0)
(1.02684 0.000333373 -4.96693e-23)
(1.15707 -0.0659761 -2.35807e-20)
(1.04715 0.0323184 0)
(1.09619 0.0190304 -1.67948e-20)
(1.3108 0.0642689 -1.55299e-22)
(-0.334728 -0.00749762 7.37171e-20)
(1.04003 0.198719 -2.31161e-21)
(0.984949 0.0221145 0)
(0.986718 0.03286 -7.87685e-21)
(-0.276343 0.00357106 -2.09187e-20)
(1.23015 0.178373 0)
(0.279819 -0.418955 -3.06929e-20)
(0.987056 0.0118692 0)
(1.02129 3.67485e-05 0)
(1.00777 0.00744387 0)
(1.03287 0.0797312 0)
(0.131139 -0.00180468 -1.33881e-20)
(1.16849 0.135122 0)
(-0.301036 0.00317114 -2.96764e-20)
(0.989062 0.292472 0)
(0.0098288 0.00599906 0)
(1.02688 0.000554404 3.41696e-21)
(1.05716 0.0508165 1.02171e-20)
(0.787232 0.225437 1.8534e-20)
(0.998878 0.0146803 2.13696e-21)
(1.10124 -0.0497776 3.83108e-23)
(0.779901 0.217654 -1.16732e-21)
(0.226551 -0.00602121 0)
(1.00815 0.00498579 -2.76771e-22)
(0.982797 0.00988187 5.45415e-21)
(0.996818 0.0188474 0)
(1.30134 0.222214 -4.95804e-20)
(0.723476 -0.0980302 0)
(1.0188 0.0242536 0)
(1.00824 0.00518734 3.51205e-22)
(1.10051 -0.061735 2.74213e-20)
(0.690203 0.0443876 -2.814e-20)
(0.0960328 -0.0318294 0)
(0.979447 0.0381278 0)
(1.0446 0.0358021 -1.07086e-22)
(1.00342 0.0194608 0)
(0.224005 -0.0317855 -6.54864e-21)
(-0.0952349 -0.00313958 -2.1896e-20)
(1.10577 -0.0556849 2.47231e-20)
(0.879172 -0.0277296 -2.94332e-20)
(1.29391 0.0419112 0)
(0.970435 0.0267778 0)
(0.540798 0.200289 1.38314e-20)
(1.15122 -0.0630371 -3.71802e-20)
(0.935256 -0.00290767 4.37648e-21)
(1.12096 -0.0890205 3.43503e-20)
(1.29899 0.241592 -1.44388e-20)
(1.01004 0.0082857 -1.14548e-22)
(0.215663 -0.0353472 0)
(0.945755 0.00231911 1.87619e-21)
(1.20307 0.143997 0)
(0.826884 -0.0960198 3.81961e-22)
(1.01045 0.013374 0)
(1.26154 -0.0330621 3.09107e-20)
(1.09479 -0.0856261 7.43243e-21)
(1.00353 0.029477 1.69688e-21)
(0.992801 0.00644974 0)
(1.00003 0.0010653 0)
(1.01849 0.00100421 -8.91312e-22)
(1.20134 0.0365916 -1.88455e-20)
(1.02725 -7.10435e-05 0)
(0.996721 -0.000876467 -2.13499e-21)
(1.00376 0.00777172 -4.12353e-22)
(0.998494 0.00908677 -3.83615e-21)
(0.253642 -0.0624062 0)
(0.996641 0.034739 4.30946e-21)
(0.99563 0.0336312 0)
(1.02109 -8.58616e-06 0)
(0.993858 -0.000190951 -3.05132e-21)
(0.465737 0.742472 2.63503e-20)
(-0.119522 -0.0124396 -1.54469e-20)
(1.23519 -0.0025254 0)
(0.986346 0.0334645 8.47963e-21)
(0.172853 0.00508102 1.13314e-20)
(1.04077 0.0394906 0)
(-0.310617 -0.00160172 4.43342e-20)
(0.958124 0.287419 7.38274e-21)
(1.1032 -0.0574694 3.75909e-20)
(1.11716 0.031368 7.17788e-21)
(0.98595 0.0100275 0)
(0.292796 -0.396387 -8.84122e-22)
(-0.00177478 0.00483757 0)
(0.996447 0.0189639 0)
(0.466231 -0.073372 2.12244e-20)
(1.27269 -0.0177996 0)
(1.00357 0.00755586 3.97247e-22)
(1.19619 0.167192 -1.83231e-20)
(0.539885 0.607609 -5.2702e-20)
(0.997584 0.00462054 1.18549e-21)
(1.26283 -0.0253276 -1.66612e-20)
(0.994321 0.00427007 0)
(1.04628 0.0173615 3.1104e-21)
(-0.00608187 0.00411341 -3.0724e-21)
(-0.310892 -0.00351001 0)
(1.00441 0.00801859 3.81643e-22)
(1.09497 -0.0562914 -1.00751e-20)
(0.992698 0.0067093 0)
(0.986934 0.0226357 -1.196e-20)
(1.00143 0.00720805 0)
(0.996414 0.0336055 -5.84091e-21)
(1.0254 -0.0584234 -1.27126e-20)
(0.999047 0.0121072 0)
(1.11182 -0.00918987 9.72806e-21)
(-0.230355 -0.00199547 0)
(1.00745 0.00850105 -1.56924e-23)
(1.00573 0.0360333 1.76596e-21)
(1.09498 0.0197982 2.10224e-20)
(1.10169 -0.0628147 0)
(-0.20412 0.00926873 1.0165e-20)
(0.997372 0.0347722 3.60826e-21)
(0.275499 0.972823 -2.4848e-20)
(1.11117 -0.00795212 1.22633e-20)
(-0.224298 0.00130741 -1.06645e-20)
(1.02908 0.00645268 3.74909e-21)
(1.10272 -0.0735968 -2.35838e-20)
(-0.225489 -0.00674491 0)
(1.09929 0.00595478 5.05511e-21)
(0.999924 0.00161637 4.93178e-21)
(1.02949 0.0803882 -2.43778e-21)
(0.0663481 0.0133362 -2.50592e-20)
(1.01024 0.0128717 0)
(1.09705 -0.0543407 0)
(0.278559 -0.0657965 -7.78596e-21)
(0.200237 -0.00489373 7.88741e-21)
(1.01456 0.231613 -5.48011e-21)
(1.00002 5.35942e-05 1.20671e-21)
(-0.0973912 -0.00164429 0)
(0.938173 0.0298085 -1.41324e-20)
(1.02929 0.0396098 3.62618e-22)
(0.4156 -0.993743 2.95762e-20)
(-0.0152354 0.00420478 0)
(1.16348 0.0147464 -4.19433e-20)
(0.0878093 -0.0222697 -3.4961e-20)
(0.908127 0.196921 5.42197e-21)
(1.02763 0.0797749 -1.73334e-21)
(1.29165 0.132067 5.29395e-20)
(0.709387 0.0489433 -4.97613e-20)
(-0.243522 -0.00564203 0)
(0.985313 0.0114373 0)
(0.999968 0.00163402 -1.07829e-21)
(1.12123 -0.0754636 1.29936e-20)
(1.00995 0.0085801 -8.02398e-22)
(1.03431 -0.00161179 -6.14861e-21)
(1.04606 0.0179299 -1.49147e-20)
(-0.157684 -0.00880138 4.14286e-20)
(1.01932 0.00540887 -1.01004e-21)
(1.00576 0.0126072 4.94872e-22)
(1.09379 -0.0317207 7.78104e-21)
(1.02972 0.0387707 0)
(1.00263 0.00679818 -1.04543e-21)
(1.17381 0.0769732 -1.02107e-20)
(1.0056 0.000367762 0)
(0.917129 0.000657564 0)
(0.199445 0.73805 0)
(1.06335 -0.0549987 -6.78085e-21)
(1.08109 0.0642568 -1.38562e-20)
(1.11998 -0.0757151 -1.60215e-20)
(0.256829 -0.977617 -2.18089e-20)
(0.997603 0.0043659 2.48133e-22)
(-0.0657848 -0.00715878 -3.22394e-20)
(1.07374 0.0285035 0)
(0.112969 -0.0300387 0)
(0.532652 0.232423 -6.60823e-20)
(0.98909 0.0197981 1.80896e-22)
(1.02685 0.0419942 0)
(0.0357764 0.00159873 -1.74318e-21)
(1.25706 0.0416014 -1.10734e-20)
(1.02729 0.000167467 6.91173e-21)
(1.09966 -0.0616363 -2.63982e-20)
(0.987598 0.0120527 0)
(0.618273 -0.0606259 -7.90663e-21)
(1.0881 -0.0847778 1.4948e-20)
(1.00656 0.103183 -1.13206e-21)
(-0.0834625 0.0043375 1.51677e-20)
(0.0925669 0.00671308 8.68665e-21)
(0.767308 0.10239 0)
(0.21119 -0.0294507 0)
(0.78847 0.0606312 4.55345e-20)
(0.982579 0.0936712 -6.80746e-21)
(1.07675 0.0328713 -1.95362e-20)
(1.00356 0.013487 -1.55268e-21)
(0.915862 -0.00107781 -6.77302e-21)
(0.678295 0.142088 2.49381e-20)
(1.10027 -0.0385627 -4.72587e-21)
(0.0766133 0.00224496 0)
(1.16088 0.115518 -1.2482e-21)
(1.01908 0.0105819 0)
(1.11127 -0.042471 0)
(1.02761 -0.000488465 0)
(0.0919888 -0.00610997 0)
(0.263284 0.832914 2.66538e-20)
(0.987231 0.0232317 8.78801e-21)
(0.939762 0.0296174 1.13825e-20)
(0.00428641 0.00615781 -1.29904e-20)
(1.11868 0.0198445 0)
(0.0488415 0.215347 0)
(1.11866 0.100762 0)
(1.27607 0.048345 0)
(0.93153 0.15175 7.37504e-21)
(0.441538 1.00007 0)
(1.02051 0.00714971 2.6518e-21)
(0.994594 0.00435652 0)
(-0.274824 -0.00426552 0)
(0.999987 0.00146166 -1.58309e-21)
(0.995088 0.0411405 -1.36981e-22)
(0.947452 0.0823596 3.25492e-22)
(1.11044 -0.0366751 0)
(-0.140702 -0.00771449 0)
(0.249464 -0.111622 9.08498e-20)
(1.09577 0.0423519 0)
(0.999955 0.00144012 -3.84138e-21)
(-0.0764418 -0.000522737 0)
(1.10155 -0.0491538 5.55719e-23)
(1.02029 0.00690504 1.10867e-21)
(0.981467 0.0189676 0)
(1.01356 0.000488597 -2.19225e-21)
(0.859386 0.329923 -2.43415e-20)
(1.00988 0.0128134 6.04047e-24)
(0.215089 -0.0345057 0)
(0.844333 -0.0982872 -2.27591e-20)
(-0.0500672 -0.0171246 -2.68711e-20)
(0.700194 0.0510554 0)
(1.0976 0.0424701 -5.13842e-21)
(1.14078 0.167451 2.24511e-20)
(0.969275 0.0264003 -6.97618e-21)
(1.02969 0.00504872 -4.93164e-21)
(1.25314 -0.0252434 4.80115e-20)
(0.235316 -0.124582 -9.51055e-20)
(-0.266975 -0.00859158 1.003e-19)
(1.00001 0.00085127 2.29526e-21)
(1.00286 0.00478393 6.60336e-22)
(0.0255626 0.00826413 -3.9366e-20)
(1.13553 -0.0138897 4.82419e-20)
(0.93802 0.477671 -1.20717e-21)
(1.10314 -0.072709 2.09769e-20)
(1.00144 0.0074457 -8.22506e-22)
(0.494991 -0.0580654 1.63896e-20)
(1.04371 0.0373375 -6.56474e-21)
(0.845694 0.00473827 -1.74736e-20)
(0.879848 0.0363693 0)
(0.80037 1.0157 6.50722e-21)
(1.01391 0.0259521 4.06568e-23)
(0.950363 0.291048 -2.31251e-21)
(1.07058 0.0517346 9.85189e-21)
(0.963281 0.0620709 -2.52027e-21)
(-0.0178237 0.0059954 -6.00557e-20)
(0.971943 0.0283516 0)
(0.0412719 -0.00584272 1.24399e-20)
(0.498467 -0.0767223 -1.84698e-20)
(1.14493 0.0906925 2.31703e-20)
(1.00965 0.0085143 3.08148e-22)
(0.974874 0.052745 0)
(1.10209 0.444795 0)
(1.14303 0.0605872 3.95593e-20)
(1.10242 -0.0283429 1.48064e-20)
(0.999274 0.0127077 3.56651e-21)
(1.03412 0.0168973 0)
(-0.107162 -0.0146415 1.4626e-20)
(1.23628 0.00965897 0)
(1.10207 -0.0254033 6.83688e-21)
(1.10889 -0.0687085 -1.0947e-20)
(1.11204 -0.000393059 -2.67722e-20)
(1.0192 0.0104214 8.46676e-22)
(0.961268 0.0626317 0)
(0.993659 -0.000493665 3.21495e-21)
(0.982603 0.02207 3.73921e-21)
(1.00424 0.00783155 0)
(1.03138 0.00398104 3.47485e-21)
(1.00272 0.0046371 3.22986e-22)
(-0.307016 -0.000662867 -8.91232e-21)
(0.998046 0.0237355 2.80958e-21)
(0.978324 0.0386003 1.2925e-21)
(1.00805 0.101708 6.61672e-22)
(1.22541 0.179564 -1.90488e-20)
(1.10789 -0.0868129 0)
(-0.0581741 0.00523714 0)
(0.235245 -0.00511454 1.69023e-21)
(1.0649 -0.00770671 -6.33226e-21)
(0.968725 0.146479 7.68321e-21)
(0.120793 -0.0178151 8.07454e-21)
(0.996966 0.0115185 0)
(1.102 0.0319369 -5.60669e-21)
(1.01416 0.0255312 -3.55493e-23)
(0.997762 0.0047155 6.04746e-21)
(1.01157 0.0300761 -5.46583e-22)
(1.09486 -0.0394148 1.56009e-20)
(1.01131 0.0190367 0)
(1.10085 0.165647 1.06905e-20)
(-0.325531 -0.000569823 -1.55442e-20)
(1.08489 -0.0297341 -5.00541e-21)
(0.993847 -0.000876029 2.28021e-21)
(1.00349 0.0138181 1.6046e-21)
(0.988603 0.0117 -5.5524e-21)
(1.09292 0.0435951 8.77265e-21)
(1.0277 -0.000260967 3.69833e-21)
(-0.317313 -0.00121174 1.19351e-20)
(0.998833 0.0120322 -2.12716e-21)
(1.11307 -0.00941955 -1.01098e-20)
(1.12401 -0.0765371 -7.14861e-21)
(0.689098 -0.0768978 2.18315e-20)
(1.04733 0.0166932 -4.12531e-21)
(-0.142778 -0.00886844 2.20814e-20)
(1.09292 -0.0316094 -1.39793e-20)
(1.09464 -0.0485624 5.28303e-21)
(1.05022 0.0136833 -1.19838e-20)
(1.17213 0.0799154 1.03586e-20)
(-0.071483 -0.0181185 0)
(1.01864 0.00107196 -1.29432e-23)
(1.11332 -0.00122737 1.82735e-20)
(1.14571 0.088289 -2.30372e-20)
(1.11597 0.101465 8.60296e-21)
(0.975631 0.37234 -6.61165e-22)
(1.23985 0.0078371 2.99266e-20)
(-0.0353036 0.0055622 8.09364e-20)
(1.10587 0.0804358 -6.62138e-20)
(0.984767 0.0947295 7.38672e-21)
(1.00752 0.133437 0)
(1.12723 -0.0225122 1.95347e-20)
(-0.259258 -0.00285857 -2.40779e-20)
(1.03106 0.0379076 -2.95363e-21)
(1.0307 0.0388963 3.24286e-21)
(1.02921 0.00502312 6.11754e-21)
(1.01156 0.0187577 0)
(-0.0770536 -0.00435172 -2.06495e-20)
(1.01049 0.132124 0)
(1.06286 -0.00376755 6.13538e-21)
(1.29515 0.197446 -2.56354e-20)
(-0.151559 0.0246734 0)
(0.993013 0.0525338 3.32276e-21)
(-0.138161 -0.0120976 4.31746e-20)
(0.950352 0.0819971 8.13035e-21)
(-0.137413 0.00750875 -7.95046e-20)
(1.20904 -0.0135377 -1.92078e-20)
(0.996587 0.00049654 1.26862e-21)
(-0.259593 -0.00839026 -9.16055e-20)
(1.06368 -0.00435445 6.61999e-21)
(1.00204 0.07358 2.63316e-21)
(1.23446 -0.00610757 0)
(0.501751 -0.0469639 -3.9085e-21)
(0.762245 -0.0518511 -1.79176e-20)
(1.12604 -0.0650537 -2.01609e-20)
(-0.237595 -0.00766225 -3.66358e-20)
(0.945754 0.00598625 6.97869e-21)
(1.23136 -0.00620493 0)
(1.01021 0.235572 1.69822e-21)
(1.00001 0.00022418 0)
(1.02187 0.00626807 0)
(1.024 0.0268161 2.92511e-21)
(1.01168 -0.0584618 0)
(0.99673 0.0114317 -2.91819e-21)
(1.00135 0.00764134 0)
(1.19347 0.130976 -6.69516e-20)
(1.00043 0.0740093 1.469e-22)
(0.652045 -0.06139 0)
(1.10917 -0.0697905 6.75159e-21)
(-0.149934 0.0139848 0)
(0.973899 0.0279637 1.02303e-22)
(0.980976 0.00829791 0)
(-0.225936 -0.00240723 0)
(1.0923 -0.054853 -1.97961e-21)
(1.00001 0.000171213 0)
(1.0834 0.0562029 8.56301e-21)
(1.10263 -0.0263325 -2.34739e-20)
(0.997714 0.00492329 -7.98134e-21)
(1.2019 0.147619 -1.98757e-20)
(-0.256215 -0.00199818 0)
(1.09476 0.0439296 -9.44992e-21)
(0.998306 0.00906237 3.10217e-21)
(1.10974 0.331616 -1.76044e-20)
(0.403088 -0.513478 -2.55983e-21)
(0.935701 0.152137 -1.25288e-20)
(0.983975 0.366634 5.90201e-22)
(0.0225038 -0.00585378 -2.55961e-20)
(1.11973 -0.0512244 -8.98193e-21)
(1.02151 0.00612378 0)
(-0.323537 -0.00165418 1.37458e-19)
(1.08591 -0.0122632 -6.96218e-21)
(1.17416 0.0462571 2.71239e-21)
(0.994994 0.0402492 1.17626e-22)
(0.638536 -0.0740216 -2.19532e-20)
(1.10173 -0.0722248 9.70004e-21)
(1.00003 0.000573223 -2.37189e-21)
(-0.317572 0.00274545 -8.02748e-20)
(0.984835 0.00329718 -7.2542e-21)
(0.970671 0.0280068 0)
(1.01941 0.0244479 0)
(0.994006 0.00238541 0)
(-0.176028 0.0047069 -9.51938e-20)
(-0.0869774 -0.00596359 0)
(1.0204 0.00639369 -3.47958e-21)
(1.02302 0.00182634 6.79883e-22)
(1.00647 0.098982 0)
(0.915286 0.140672 2.71132e-21)
(0.715176 -0.0970945 4.72703e-21)
(1.10398 -0.0671149 3.09757e-20)
(-0.304454 -0.00278319 7.231e-20)
(1.17612 0.0673177 0)
(0.233285 -0.039046 1.15558e-20)
(-0.291625 0.00339498 0)
(-0.304641 -0.000773369 2.33778e-20)
(0.233152 -0.0364181 2.14903e-20)
(0.981107 0.00766022 0)
(1.00343 0.00762872 0)
(1.04163 0.0770988 -9.59188e-21)
(0.196764 0.0053485 0)
(1.0447 0.0368956 -3.52249e-21)
(0.993825 0.00262407 0)
(1.02056 0.00666434 1.02502e-21)
(0.838729 -0.094664 0)
(-0.316536 -0.000588671 0)
(1.00515 0.0129125 1.10624e-21)
(0.984998 0.028454 -3.74747e-21)
(0.99998 0.000691835 2.27165e-21)
(0.0848171 -0.00738346 -1.21153e-22)
(1.07445 0.156049 0)
(0.338591 0.617174 0)
(1.04558 0.0353647 1.07237e-22)
(1.09692 -0.0502832 0)
(1.07175 0.0288321 -9.02716e-21)
(1.14514 0.16904 4.87461e-22)
(1.16145 0.0137783 3.6806e-20)
(1.00766 0.0076418 0)
(0.20562 0.0064199 1.60056e-21)
(1.04717 0.0172268 0)
(1.09958 -0.0594834 0)
(0.983171 0.0254173 0)
(0.992325 0.053791 0)
(0.986581 0.0367913 -3.71039e-21)
(0.204607 -0.0556522 1.45679e-20)
(0.0630946 0.332016 -5.66104e-20)
(0.0606008 0.262245 0)
(0.996736 0.000660312 0)
(0.51391 -0.0591519 -1.49147e-20)
(0.196757 -0.0273492 0)
(0.94471 0.00536813 2.13256e-21)
(-0.275916 0.00459819 6.09893e-20)
(1.09536 -0.0562118 2.76528e-22)
(1.09665 -0.0539696 8.22331e-21)
(1.00325 0.00741229 1.82796e-21)
(0.986013 0.0122562 -3.91976e-22)
(0.988088 0.0115252 0)
(1.27093 -0.0151397 2.3357e-20)
(0.559358 -0.0269356 -2.61933e-20)
(1.09512 -0.0329432 -2.21463e-20)
(-0.175245 0.00475639 6.94938e-20)
(1.00008 0.00337478 3.79691e-21)
(0.985874 0.00622998 0)
(1.10971 -0.00822243 -1.2101e-20)
(1.1087 0.0609522 -1.32848e-20)
(1.0161 0.0252386 3.29874e-23)
(-0.233629 -0.00240524 -2.69702e-20)
(1.02712 0.0965617 6.82216e-22)
(1.09242 -0.0551409 0)
(0.502821 -0.0876752 0)
(-0.121904 -0.00208304 -3.99548e-20)
(0.115982 -0.00724126 5.09511e-23)
(0.031349 0.0595708 1.63711e-20)
(1.14382 -0.0828679 0)
(0.985069 0.00281324 9.27332e-21)
(1.02121 0.00631496 0)
(1.07648 0.0023632 -7.00836e-21)
(0.983627 0.0295253 -8.08987e-21)
(0.87355 0.0897614 -6.13671e-21)
(0.0449295 0.00990368 0)
(0.985921 0.0114886 0)
(-0.229992 0.00384307 -8.27693e-20)
(1.21586 -0.00988759 2.66127e-20)
(-0.217328 -0.00270136 0)
(1.07206 0.0501721 7.2661e-21)
(0.812722 -0.0954621 9.91653e-21)
(1.09149 0.138641 -1.53241e-20)
(0.513067 -0.899018 1.46016e-21)
(1.06291 -0.00740166 0)
(1.00134 0.00742657 8.41656e-22)
(0.860901 -0.0416068 0)
(0.979817 -0.00237236 -2.21245e-21)
(1.07658 0.0340668 1.68016e-20)
(0.954133 0.480579 -3.8934e-21)
(1.21829 0.370219 -2.04363e-20)
(0.0618674 0.0740305 3.94435e-20)
(1.10461 -0.0746723 0)
(-0.234288 0.00990709 9.16757e-21)
(0.197513 -0.0556227 5.98571e-21)
(1.08036 0.144946 0)
(0.999055 0.0125727 -3.98296e-21)
(0.193109 0.0051395 0)
(1.02362 0.00199186 5.09957e-21)
(1.24629 -0.0251512 -2.72871e-20)
(-0.279271 -0.00209275 4.55666e-20)
(1.01383 0.00031229 1.44491e-22)
(1.06596 0.0825344 -2.85116e-21)
(1.10178 -0.0711695 -5.62253e-21)
(0.209526 -0.0299348 -6.75899e-21)
(0.977573 0.0532344 -9.36657e-21)
(0.999974 0.00110363 1.72755e-21)
(0.898918 -0.0854501 0)
(-0.183967 -0.00181164 0)
(-0.204401 0.000141353 5.22778e-20)
(0.995036 0.032531 0)
(0.166267 0.112306 -1.83775e-21)
(1.01984 0.0387255 -2.71473e-22)
(1.1154 -0.0858668 -8.3627e-21)
(1.08567 0.141086 -1.39406e-20)
(1.05802 0.0262609 7.92955e-22)
(0.935556 0.286604 0)
(0.15566 -0.0107435 0)
(1.032 0.0379704 0)
(0.983195 0.0270863 -9.18219e-22)
(0.995075 0.0319356 0)
(1.01859 0.0259116 0)
(1.1573 -0.0682092 0)
(0.388012 -0.0550066 -1.97533e-20)
(0.125126 -0.0483031 -2.20953e-20)
(-0.230085 -0.00505986 -1.31896e-20)
(1.00259 0.00732928 1.07933e-21)
(-0.0836848 -0.00790666 -9.13554e-21)
(1.10642 0.0609679 0)
(1.2033 0.0321599 2.33653e-20)
(1.31456 0.0938103 4.30498e-20)
(1.07722 0.0172082 0)
(-0.328401 -0.00148188 -4.42293e-20)
(0.945926 -0.000506786 -1.43579e-20)
(0.969378 0.0579116 0)
(0.67597 -0.0638054 0)
(1.29319 0.192058 -4.76429e-22)
(1.14397 -0.0506337 -1.27897e-20)
(0.988907 -0.0747917 3.64974e-20)
(1.07978 -0.0871873 -8.03767e-21)
(1.07039 0.198782 1.49964e-20)
(-0.317769 0.00113053 -1.24817e-21)
(1.10076 -0.0626794 -2.43096e-20)
(0.965671 0.00525646 -9.61385e-21)
(0.671872 -0.0645769 0)
(0.869543 0.0323161 2.35187e-20)
(1.10877 -0.00701667 0)
(0.894646 0.0541158 -4.04301e-20)
(0.905132 0.0692843 -7.74729e-21)
(1.08899 0.141112 1.12297e-20)
(0.957948 0.0616363 6.46104e-21)
(0.844351 0.00952949 0)
(1.12724 -0.0645215 1.12786e-20)
(0.88421 0.0792521 0)
(1.07183 -0.0135506 0)
(1.08336 0.00361633 3.34465e-21)
(1.09469 -0.0478581 1.03127e-20)
(1.06779 -0.00648415 4.61552e-21)
(0.989441 0.0192465 -1.67414e-22)
(0.973302 0.0253026 5.71875e-21)
(0.994251 0.0314107 0)
(0.96442 0.00852992 -1.36831e-23)
(1.14393 -0.084135 -1.45828e-20)
(0.467751 -0.668861 -1.46864e-20)
(1.04379 0.0384375 5.77541e-21)
(1.02935 0.0260381 1.36806e-21)
(1.01941 0.197984 0)
(-0.222583 0.00631129 3.49346e-20)
(1.00024 0.000249564 1.90435e-21)
(1.00767 0.0974133 1.43493e-21)
(0.825484 0.212682 -4.02426e-20)
(1.1226 -0.0768792 0)
(0.999972 0.00146538 9.30648e-22)
(1.0073 0.0485229 5.91841e-22)
(1.06765 -0.00726554 0)
(1.13052 -0.0323404 -9.99619e-21)
(1.02886 0.0751315 -2.21606e-21)
(1.00795 0.0313768 -1.60495e-21)
(1.00898 0.0118983 0)
(-0.0692772 0.00429896 1.81824e-20)
(0.211041 -0.0529909 0)
(1.26925 -0.0214552 0)
(1.01346 0.13469 -4.61648e-22)
(0.999954 0.00162949 9.76688e-22)
(1.00256 0.00464684 -6.77268e-22)
(0.916636 0.106578 -8.27003e-21)
(0.993621 -0.00117549 1.75092e-21)
(1.00061 0.0146071 -1.38168e-21)
(1.06414 0.0823937 -5.54062e-21)
(0.0452559 -0.0066831 0)
(1.13631 -0.011945 -5.12631e-23)
(0.875723 -0.0551974 0)
(1.0027 0.00900908 0)
(1.02549 0.0956443 0)
(0.754981 0.237097 -1.14668e-20)
(0.516719 -0.0475931 4.58514e-21)
(0.943173 0.284229 -6.71417e-21)
(-0.272778 0.00118362 -2.79273e-20)
(1.09237 -0.0571006 -2.39225e-20)
(0.373575 0.922039 -1.42488e-20)
(1.03081 0.00411046 -2.31803e-21)
(1.00251 0.00469401 7.1808e-22)
(-0.195405 -0.00329636 2.49387e-20)
(1.07867 0.34036 1.76579e-20)
(1.09199 0.135631 2.51366e-22)
(1.16428 0.114854 -1.36078e-20)
(0.447189 -0.0768419 0)
(0.199722 0.00673612 -6.65944e-21)
(0.698206 0.414153 -4.52593e-20)
(1.02575 0.0510083 -2.72209e-21)
(1.14926 -0.0658483 -1.44406e-20)
(-0.207914 0.00754966 1.79161e-21)
(1.06761 0.0793218 2.83397e-21)
(0.527915 -0.0161821 0)
(1.11658 0.201442 0)
(1.30847 0.0682389 2.09991e-20)
(-0.187401 0.00511139 4.29451e-20)
(1.18256 0.303817 -2.24007e-20)
(1.13684 0.170411 1.79185e-20)
(0.944929 0.000346256 1.78802e-20)
(1.01406 -0.0724178 0)
(1.02881 0.0262489 -5.9837e-23)
(0.0478868 0.0721123 0)
(1.08387 0.058094 4.44544e-22)
(1.00944 0.00817335 3.14228e-22)
(1.01625 0.0422101 -2.70544e-23)
(1.02089 0.00613339 1.35215e-21)
(-0.319153 -0.000885219 0)
(1.03443 -0.00130206 0)
(1.19911 0.0897132 1.72314e-20)
(0.986574 0.012406 0)
(0.918559 0.143236 2.58791e-21)
(1.21071 -0.0378381 2.70944e-20)
(1.01608 0.133253 6.4176e-22)
(0.99597 0.0134274 0)
(-0.0848462 0.0064838 2.45052e-20)
(0.584605 -0.209242 -7.13453e-21)
(1.00296 0.00724286 -2.66243e-22)
(1.03231 0.03698 0)
(0.460749 0.0497094 1.95705e-20)
(1.13492 -0.0107693 -5.65755e-23)
(1.09793 0.00565721 0)
(1.09335 -0.0566477 0)
(1.08089 0.0110992 -1.12605e-20)
(0.966787 0.0870184 6.22673e-21)
(1.02341 0.0127462 0)
(1.09252 -0.0592837 -8.44898e-21)
(0.105821 -0.046015 1.70629e-20)
(0.151836 -0.0523227 0)
(-0.0805369 0.00631195 4.78864e-20)
(1.07031 0.337995 -2.77308e-20)
(1.20045 0.0874088 1.84519e-20)
(0.830897 0.218559 2.07893e-20)
(1.18889 0.308344 0)
(0.945036 0.0362151 0)
(0.752027 -0.0944354 -1.32296e-20)
(0.0669962 0.062716 3.07423e-20)
(1.21304 -0.0102209 -4.30406e-20)
(0.999988 0.0154602 -2.01213e-21)
(0.98692 0.0932433 6.65375e-21)
(0.490934 0.080186 -3.70168e-20)
(1.00689 0.0493545 0)
(0.967804 -0.0742372 0)
(-0.219103 0.0113729 -9.58405e-21)
(1.23703 0.0901363 -4.74796e-20)
(0.993968 0.00168962 7.71286e-22)
(0.769063 0.220787 0)
(1.01972 0.0378438 -4.49698e-22)
(0.917077 0.204735 -1.09557e-20)
(-0.308228 -0.00300059 -5.49796e-20)
(0.994226 0.0307021 -4.21165e-21)
(1.11678 -0.0873385 0)
(0.688107 -0.0215397 2.51796e-20)
(0.992197 0.0051354 -2.48664e-22)
(1.00263 0.160411 1.46759e-21)
(1.0727 0.152167 -1.32896e-20)
(1.02025 0.00114379 1.14953e-21)
(1.07223 0.124705 -1.41709e-20)
(0.233918 -0.0564689 3.37248e-21)
(1.1029 -0.0242794 -1.53212e-20)
(1.08966 -0.0301859 3.31677e-21)
(-0.213957 0.00725041 -1.03462e-20)
(1.12915 -0.0316867 0)
(0.976044 0.0538832 5.16642e-21)
(0.920158 -0.013149 3.0842e-21)
(1.00888 0.0116853 -2.39259e-24)
(0.868617 0.0894033 0)
(1.02302 0.0127971 0)
(0.99392 0.00105865 -3.24058e-21)
(-0.184841 -0.00929873 -2.08529e-20)
(1.11341 -0.00634328 6.69644e-21)
(0.916732 0.00493139 -1.33422e-20)
(1.05157 0.0429203 0)
(1.0196 0.00551153 1.45431e-21)
(1.05185 0.0438874 -5.17915e-21)
(1.03023 -0.000360105 4.41804e-21)
(0.511824 -0.079852 -3.80635e-20)
(0.472891 0.104801 0)
(0.990219 0.0711713 6.19338e-22)
(1.10322 -0.0745393 -2.96968e-21)
(0.172015 -0.00632801 -2.20145e-20)
(1.01033 0.00834288 -3.92479e-22)
(1.11231 0.323058 1.6277e-20)
(1.00141 0.0140748 -9.71995e-23)
(1.07126 -0.0142245 8.02093e-21)
(1.00002 0.00164148 0)
(0.964402 0.0115811 -8.07224e-21)
(0.133251 -0.0203603 0)
(0.946341 0.0925062 0)
(-0.312696 -0.0038701 -6.90644e-22)
(0.983683 0.0277833 0)
(0.958654 0.0318481 1.04239e-20)
(1.28881 0.0384197 4.83359e-21)
(0.723321 -0.0931376 1.3689e-20)
(0.996705 0.000188616 7.55623e-21)
(1.00232 0.129539 4.11338e-22)
(-0.149804 0.0154755 -1.25626e-19)
(0.00256592 0.0487873 -9.53484e-20)
(1 0.00145106 0)
(0.0472324 0.0652551 -6.68116e-20)
(1.08148 -0.0134096 -1.44083e-20)
(0.918158 0.209375 -5.66791e-21)
(1.21673 -0.00647795 -5.55317e-21)
(0.918377 -0.0123022 0)
(-0.250472 -0.00173777 0)
(0.908104 0.0695738 8.63341e-21)
(0.988673 0.0123083 5.18296e-21)
(1.00791 0.0321083 1.45925e-21)
(1.00806 0.00753728 0)
(0.958652 0.0329233 -1.16069e-20)
(0.988471 0.0706981 5.95324e-22)
(0.0797026 0.00494195 0)
(0.595956 0.061474 0)
(1.10371 0.0361675 0)
(1.32585 0.168527 -2.84028e-20)
(0.83622 0.309202 0)
(0.904367 -0.055929 1.36808e-20)
(1.06886 0.128778 4.9732e-21)
(0.998801 -9.45987e-06 -4.06677e-21)
(1.09416 -0.0328573 1.433e-20)
(0.412508 -0.073109 0)
(1.09024 0.0740363 -1.1436e-21)
(1.10222 -0.0233641 0)
(1.09148 0.0482363 1.33636e-20)
(-0.179467 0.00635632 -6.65255e-20)
(1.15796 -0.0843533 0)
(0.969336 0.0810395 0)
(1.07138 0.127131 5.22006e-21)
(0.945883 0.00890653 0)
(-0.230316 0.00347967 -6.71805e-20)
(0.996522 6.70675e-05 -9.62582e-21)
(0.489804 0.0676335 0)
(1.01968 0.0231115 -2.53224e-21)
(1.00402 0.131577 -6.49761e-22)
(0.955153 0.0644929 1.45674e-20)
(1.14717 0.0540768 -1.22177e-20)
(0.968506 0.0881544 -4.05927e-21)
(0.837904 0.317567 -1.17443e-21)
(0.913637 0.108191 0)
(0.923271 0.275478 -9.23739e-21)
(1.03038 0.00462795 2.25734e-21)
(1.19155 -0.045334 -2.78646e-20)
(1.12432 -0.0627407 -1.47242e-20)
(1.07611 0.124344 -3.40926e-22)
(1.02007 0.00116343 0)
(1.09538 -0.0468462 -1.07021e-20)
(0.240769 -0.00929761 9.50453e-21)
(1.20595 0.359931 3.86546e-20)
(1.01456 0.00265002 -1.85042e-23)
(0.915401 0.00325102 0)
(0.20085 0.827127 -1.50714e-20)
(1.10772 -0.0876471 8.59161e-21)
(1.28285 0.0548259 1.39256e-20)
(0.979105 0.0194414 -3.93936e-21)
(1.14466 0.0622615 -3.03476e-20)
(1.00006 0.00124084 0)
(1.0576 0.193016 -5.27213e-21)
(1.14121 -0.0821589 9.42506e-21)
(0.299867 -0.310156 2.8959e-20)