/*--------------------------------*- C++ -*----------------------------------*\
| =========                 |                                                 |
| \\      /  F ield         | OpenFOAM: The Open Source CFD Toolbox           |
|  \\    /   O peration     | Version:  v2012                                 |
|   \\  /    A nd           | Website:  www.openfoam.com                      |
|    \\/     M anipulation  |                                                 |
\*---------------------------------------------------------------------------*/
FoamFile
{
    version     2.0;
    format      ascii;
    class       volVectorField;
    location    "200";
    object      U_0;
}
// * * * * * * * * * * * * * * * * * * * * * * * * * * * * * * * * * * * * * //

dimensions      [0 1 -1 0 0 0 0];


internalField   nonuniform List<vector> 
37809
(
(0.964716 0.370572 1.65191e-21)
(0.226961 -0.00573675 -1.31891e-20)
(0.999959 0.00136413 2.48352e-22)
(1.07195 0.0511548 -2.7067e-21)
(0.391043 -0.0713905 -3.20129e-21)
(1.10011 -0.037567 -8.45898e-21)
(0.715922 0.417099 7.46083e-21)
(0.0677301 0.309498 4.41877e-20)
(0.0230552 0.00243378 0)
(-0.22029 -0.00838308 -4.94117e-21)
(1.1644 0.134198 -2.10374e-20)
(0.989041 0.0209653 1.6069e-21)
(0.916648 -0.008276 0)
(0.916071 -0.00504564 0)
(-0.311874 0.00255756 6.43046e-20)
(1.00183 0.0933388 1.97661e-21)
(1.00163 0.00323357 3.11064e-22)
(0.348714 -0.0198552 0)
(1.0283 0.0394024 -3.53387e-22)
(0.771584 0.369106 0)
(0.70595 -0.0669106 -7.18268e-20)
(0.710168 -0.0614031 5.60752e-20)
(0.608205 -0.0571583 0)
(1.00409 0.00787904 3.85139e-22)
(0.841002 0.213572 8.20842e-21)
(1.17852 -0.00281604 -1.06569e-20)
(1.10116 -0.0772811 -1.66328e-20)
(0.965647 0.00818719 0)
(1.00008 0.00123843 0)
(0.0653117 0.379819 -9.94284e-20)
(1.14176 -0.0502166 0)
(-0.213344 0.00375601 0)
(1.00391 0.00768814 3.57547e-22)
(0.507729 0.618553 4.77753e-20)
(1.04352 0.00014255 0)
(1.00155 0.00307062 0)
(1.03146 0.00363682 1.79843e-21)
(1.20599 -0.0486304 1.92047e-20)
(1.12949 -0.0212908 6.72797e-21)
(1.19506 0.141041 1.6749e-20)
(0.0930222 0.0136536 4.57046e-20)
(-0.333421 -0.0016599 1.82754e-20)
(-0.0346095 0.0059593 1.72027e-20)
(-0.313401 -0.0026297 -8.07631e-20)
(1.0031 0.0289332 -1.84622e-21)
(1.0802 -0.0110183 1.27538e-20)
(1.10348 -0.0565938 -1.86051e-20)
(0.893509 -0.0988991 0)
(1.10054 -0.0760436 6.84047e-21)
(1.03718 0.202653 0)
(1.04874 0.0148156 -6.19258e-21)
(0.995614 0.0135129 1.31121e-21)
(1.0075 0.00899746 -1.40108e-22)
(1.02681 0.0508762 1.02027e-21)
(-0.22507 -0.00488397 0)
(1.0073 0.00867352 1.08938e-22)
(0.955198 0.137405 0)
(1.07541 0.00270826 -5.04525e-21)
(1.12564 -0.0223228 1.11953e-20)
(1.26102 -0.0219097 -1.63589e-20)
(-0.293231 -0.00153277 -3.99195e-20)
(0.932343 -0.00537359 0)
(0.918525 -0.00893103 0)
(1.14729 -0.016935 -3.18506e-20)
(1.14053 -0.0512093 0)
(0.846526 0.218199 7.15143e-22)
(1.15884 0.0892555 1.36428e-20)
(1.02788 0.0420972 -2.47726e-21)
(1.06217 -0.00618648 -1.08074e-20)
(1.0548 -0.0546533 1.18388e-20)
(1.03133 0.0789755 0)
(-0.194821 -0.00178244 0)
(0.985839 0.022037 0)
(0.917482 -0.00395412 6.69098e-21)
(0.966394 0.00898522 0)
(1.0289 0.00610961 -4.71442e-21)
(1.19299 0.138147 -3.45009e-20)
(1.06097 0.363227 0)
(0.955582 0.365404 0)
(1.21959 -0.00578885 0)
(1.00379 0.01942 -6.43527e-22)
(1.00007 0.00116297 0)
(0.892115 -0.0882857 -8.38236e-21)
(1.09778 0.00395116 -4.08615e-20)
(1.02473 0.0269282 0)
(-0.0444605 0.00452792 -6.6453e-21)
(0.967203 0.0531932 0)
(1.32212 0.24798 1.29722e-20)
(1.10995 -0.0356147 -1.03085e-20)
(0.882605 0.0994243 -3.13602e-21)
(1.22278 -0.0447599 0)
(-0.305787 0.00328472 7.43567e-20)
(0.666827 0.137615 -8.68931e-21)
(0.615905 0.0344309 0)
(0.96547 0.0539524 -1.01899e-20)
(0.785063 -0.0842967 0)
(0.98471 0.0214203 0)
(1.04963 0.0146221 6.3426e-21)
(0.0764398 -0.0062651 -1.03305e-20)
(1.01088 0.000526115 7.8942e-22)
(1.27287 0.0419738 4.43296e-20)
(1.0497 0.0139313 1.01039e-20)
(1.1454 -0.016526 1.67667e-20)
(0.335481 -0.0178536 1.0623e-20)
(1.09971 -0.0831912 -1.90166e-20)
(1.00019 0.000253103 -1.87675e-21)
(0.0724571 0.406136 -4.77943e-20)
(-0.154236 -0.00829262 0)
(1.11687 0.337615 5.30429e-21)
(0.989393 0.0205217 0)
(0.770304 0.35849 -2.21338e-20)
(1.09659 0.00371554 4.39494e-20)
(0.600047 -0.214597 -2.74042e-20)
(0.959951 0.0609464 -6.63379e-21)
(0.954805 0.13454 0)
(1.12808 -0.0208566 -5.94089e-21)
(0.987039 0.0387268 0)
(0.982227 0.0103318 -1.77479e-21)
(1.14621 -0.084586 9.59536e-21)
(-0.0318677 -0.00945412 1.415e-20)
(1.00001 4.01377e-05 -1.29502e-21)
(1.04071 0.0384334 0)
(1.11926 0.0310193 -1.82046e-20)
(0.363217 -0.0693426 0)
(-0.303585 -0.00869665 -2.20538e-20)
(0.986393 0.0378897 0)
(1.1065 -0.0564422 -1.75048e-20)
(1.0062 0.0367257 1.54632e-21)
(0.884105 0.091387 0)
(1.06177 -0.00959893 -6.97561e-21)
(1.21063 -0.0459013 2.3614e-20)
(1.09804 -0.0613436 -9.49164e-21)
(0.00193604 0.00520321 3.58131e-21)
(1.0055 0.0123122 -2.94455e-23)
(1.22329 -0.0135112 0)
(1.01039 0.000447098 0)
(1.04859 0.0154411 0)
(0.932133 -0.00751451 0)
(-0.186862 -0.000511192 -4.15391e-20)
(1.29715 0.0598932 -2.03455e-22)
(1.04293 -0.000153028 2.12192e-21)
(1.12656 -0.0970636 -2.73636e-20)
(-0.14047 0.00793061 4.43051e-20)
(0.0820089 0.01027 4.66565e-20)
(0.986083 0.0226793 0)
(1.17817 0.0905806 8.08492e-20)
(1.07309 0.0290364 1.21831e-20)
(0.941314 0.030502 4.09488e-21)
(0.878884 -0.0875653 1.53249e-20)
(1.0163 0.000187819 1.81305e-21)
(0.107575 -0.00599963 -9.79343e-21)
(1.06119 -0.0100103 0)
(1.09012 -0.02942 -6.30682e-21)
(1.23812 -0.00260259 3.09342e-20)
(1.2027 0.0295003 -2.26691e-21)
(1.01553 0.000151053 0)
(1.15901 -0.0957501 1.2509e-20)
(1.14638 -0.0832534 -4.32571e-21)
(1.02752 0.0515478 -4.79908e-22)
(-0.276342 0.0022703 -7.28701e-21)
(0.882191 0.0870023 -2.92552e-21)
(1.09222 -0.0588189 8.25677e-21)
(0.134435 0.724929 -5.19676e-20)
(-0.0351014 0.0386635 -2.7499e-20)
(0.944697 0.00283437 -1.99191e-21)
(1.02328 0.0020462 -2.46022e-21)
(1.00032 0.014489 -2.86603e-21)
(0.158231 0.0845852 -2.93656e-20)
(1.13683 -0.0151944 2.29341e-23)
(1.20052 0.0339927 0)
(1.1186 -0.087386 -2.2197e-20)
(1.01076 0.0134151 0)
(-0.0610832 -0.0144515 4.48412e-20)
(1.05588 0.0499482 5.49263e-21)
(1.06303 -0.00667363 0)
(0.954613 0.0885891 7.59065e-21)
(1.0955 -0.082551 0)
(0.880722 0.0952254 -1.14881e-20)
(0.480073 -0.0652408 0)
(0.981482 0.292492 0)
(-0.033739 -0.0105318 -1.62441e-20)
(1.04635 0.0328493 -6.1311e-21)
(1.0074 0.00919269 1.33299e-22)
(0.968167 0.0244417 0)
(1.02684 0.000334256 -4.9685e-23)
(1.15702 -0.0659763 -2.35805e-20)
(1.04715 0.0323189 0)
(1.09619 0.0190314 -1.67992e-20)
(1.31083 0.0642871 -1.55359e-22)
(-0.334744 -0.00749717 7.37224e-20)
(1.04003 0.198718 -2.3124e-21)
(0.984949 0.0221126 0)
(0.986717 0.0328577 -7.87308e-21)
(-0.276323 0.00357018 -2.09184e-20)
(1.23014 0.178384 0)
(0.27982 -0.418966 -3.06914e-20)
(0.987055 0.0118686 0)
(1.02129 3.72406e-05 0)
(1.00777 0.0074436 0)
(1.03286 0.0797315 0)
(0.131245 -0.00180763 -1.33743e-20)
(1.16849 0.135126 0)
(-0.300972 0.00317423 -2.96744e-20)
(0.989055 0.292468 0)
(0.00973455 0.0060005 0)
(1.02688 0.00055526 3.42006e-21)
(1.05716 0.0508169 1.02216e-20)
(0.787228 0.225431 1.85325e-20)
(0.998878 0.0146803 2.13514e-21)
(1.10125 -0.04975 3.83239e-23)
(0.779898 0.217648 -1.16723e-21)
(0.226469 -0.00601251 0)
(1.00815 0.00498557 -2.79079e-22)
(0.982797 0.00988077 5.45195e-21)
(0.996818 0.0188469 0)
(1.30132 0.222227 -4.95789e-20)
(0.723477 -0.0980362 0)
(1.0188 0.0242537 0)
(1.00824 0.0051871 3.54164e-22)
(1.10052 -0.0616812 2.74311e-20)
(0.690139 0.0444076 -2.81409e-20)
(0.096033 -0.0318401 0)
(0.979446 0.0381253 0)
(1.0446 0.0358028 -1.07151e-22)
(1.00342 0.0194601 0)
(0.224056 -0.0317557 -6.55003e-21)
(-0.0952418 -0.00311844 -2.18975e-20)
(1.10577 -0.0556465 2.47296e-20)
(0.879172 -0.0277329 -2.94297e-20)
(1.29391 0.0419176 0)
(0.970434 0.026775 0)
(0.540797 0.20028 1.38309e-20)
(1.15117 -0.0630305 -3.71804e-20)
(0.935256 -0.00291092 4.37567e-21)
(1.12089 -0.0889507 3.43469e-20)
(1.29897 0.241605 -1.44386e-20)
(1.01004 0.00828532 -1.15168e-22)
(0.215729 -0.0353207 0)
(0.945755 0.00231583 1.8758e-21)
(1.20307 0.144005 0)
(0.826897 -0.0959821 3.8181e-22)
(1.01045 0.0133734 0)
(1.26155 -0.0331274 3.09163e-20)
(1.09475 -0.0855165 7.43294e-21)
(1.00353 0.0294754 1.6948e-21)
(0.992801 0.00644933 0)
(1.00003 0.00106529 0)
(1.01849 0.00100425 -8.92414e-22)
(1.20135 0.0365832 -1.88482e-20)
(1.02725 -7.00944e-05 0)
(0.996721 -0.000878333 -2.13374e-21)
(1.00376 0.00777179 -4.11181e-22)
(0.998494 0.00908593 -3.83306e-21)
(0.253693 -0.0624356 0)
(0.99664 0.0347371 4.30625e-21)
(0.995629 0.0336292 0)
(1.02109 -8.11087e-06 0)
(0.993858 -0.000192003 -3.04971e-21)
(0.465735 0.742459 2.63486e-20)
(-0.1195 -0.0124527 -1.54463e-20)
(1.23521 -0.00255564 0)
(0.986345 0.0334622 8.47552e-21)
(0.172985 0.00508424 1.13199e-20)
(1.04077 0.0394914 0)
(-0.310662 -0.00159844 4.434e-20)
(0.958117 0.287414 7.3788e-21)
(1.1032 -0.0574271 3.76017e-20)
(1.11715 0.0313673 7.17935e-21)
(0.985949 0.0100268 0)
(0.292798 -0.396398 -8.8413e-22)
(-0.00187036 0.0048391 0)
(0.996447 0.0189634 0)
(0.466242 -0.0733353 2.12208e-20)
(1.27272 -0.0178512 0)
(1.00357 0.00755591 3.96118e-22)
(1.19619 0.167199 -1.83244e-20)
(0.539883 0.607597 -5.26991e-20)
(0.997584 0.00461881 1.1847e-21)
(1.26286 -0.0253844 -1.66643e-20)
(0.99432 0.00426911 0)
(1.04628 0.0173618 3.1122e-21)
(-0.00616379 0.00411941 -3.07388e-21)
(-0.310917 -0.00351055 0)
(1.00441 0.0080187 3.80206e-22)
(1.095 -0.0562559 -1.00803e-20)
(0.992698 0.00670892 0)
(0.986933 0.022634 -1.19543e-20)
(1.00143 0.00720735 0)
(0.996413 0.0336036 -5.83654e-21)
(1.02529 -0.0583636 -1.2724e-20)
(0.999046 0.0121071 0)
(1.11182 -0.00918497 9.73018e-21)
(-0.230306 -0.00199491 0)
(1.00745 0.0085008 -1.56922e-23)
(1.00573 0.0360319 1.76347e-21)
(1.09498 0.0197992 2.10279e-20)
(1.1017 -0.0627588 0)
(-0.204113 0.0092677 1.0165e-20)
(0.997371 0.0347703 3.60542e-21)
(0.275501 0.972816 -2.48488e-20)
(1.11117 -0.00794747 1.22661e-20)
(-0.224255 0.00130446 -1.06649e-20)
(1.02908 0.00645278 3.75242e-21)
(1.10271 -0.0735155 -2.35889e-20)
(-0.225499 -0.00674581 0)
(1.09928 0.00595734 5.05638e-21)
(0.999924 0.00161624 4.92732e-21)
(1.02948 0.0803885 -2.44083e-21)
(0.0663471 0.0133451 -2.50584e-20)
(1.01024 0.0128711 0)
(1.09707 -0.0543085 0)
(0.278609 -0.065826 -7.78394e-21)
(0.200175 -0.00488728 7.89567e-21)
(1.01455 0.231611 -5.48407e-21)
(1.00002 5.35967e-05 1.20327e-21)
(-0.0973881 -0.00162716 0)
(0.938172 0.0298054 -1.41297e-20)
(1.02929 0.0396105 3.63079e-22)
(0.415599 -0.993755 2.95814e-20)
(-0.015308 0.00421728 0)
(1.16348 0.0147389 -4.19494e-20)
(0.0878089 -0.0222799 -3.49599e-20)
(0.908123 0.196917 5.42107e-21)
(1.02763 0.0797751 -1.73587e-21)
(1.2916 0.132095 5.2943e-20)
(0.709387 0.0489373 -4.97583e-20)
(-0.243535 -0.005643 0)
(0.985312 0.0114365 0)
(0.999968 0.00163391 -1.07724e-21)
(1.12119 -0.0754083 1.29939e-20)
(1.00995 0.0085797 -8.07949e-22)
(1.03431 -0.00161034 -6.15338e-21)
(1.04606 0.0179301 -1.49233e-20)
(-0.157688 -0.00880204 4.14323e-20)
(1.01932 0.00540901 -1.01137e-21)
(1.00576 0.0126071 4.93407e-22)
(1.09378 -0.0317089 7.78366e-21)
(1.02972 0.0387715 0)
(1.00263 0.00679797 -1.04307e-21)
(1.17381 0.0769729 -1.0212e-20)
(1.0056 0.000367758 0)
(0.917129 0.000654362 0)
(0.199444 0.738038 0)
(1.06328 -0.054973 -6.78763e-21)
(1.08108 0.0642568 -1.38601e-20)
(1.11993 -0.0756574 -1.60219e-20)
(0.256827 -0.977625 -2.18114e-20)
(0.997603 0.00436415 2.47969e-22)
(-0.0656876 -0.0071615 -3.22316e-20)
(1.07373 0.0285039 0)
(0.112969 -0.0300489 0)
(0.53265 0.232415 -6.60795e-20)
(0.98909 0.0197969 1.80803e-22)
(1.02685 0.0419948 0)
(0.0357286 0.00160397 -1.74363e-21)
(1.25703 0.0416095 -1.1075e-20)
(1.02729 0.000168401 6.91797e-21)
(1.09967 -0.0615823 -2.64081e-20)
(0.987598 0.0120521 0)
(0.618177 -0.0605513 -7.91257e-21)
(1.08805 -0.084667 1.49498e-20)
(1.00656 0.103182 -1.12975e-21)
(-0.0835471 0.00433284 1.5175e-20)
(0.0925454 0.00672228 8.68725e-21)
(0.767258 0.102395 0)
(0.211243 -0.0294233 0)
(0.788469 0.0606264 4.5531e-20)
(0.982576 0.0936701 -6.80408e-21)
(1.07675 0.0328716 -1.95425e-20)
(1.00356 0.013487 -1.55012e-21)
(0.915862 -0.001081 -6.77196e-21)
(0.678293 0.142081 2.49367e-20)
(1.10027 -0.0385461 -4.72729e-21)
(0.0766526 0.00224669 0)
(1.16088 0.115521 -1.24835e-21)
(1.01908 0.0105824 0)
(1.11126 -0.0424498 0)
(1.02761 -0.00048747 0)
(0.0920552 -0.00610523 0)
(0.263283 0.832901 2.66514e-20)
(0.98723 0.0232299 8.78382e-21)
(0.939761 0.0296143 1.13803e-20)
(0.00419126 0.00615843 -1.29969e-20)
(1.11868 0.0198443 0)
(0.0488415 0.215337 0)
(1.11866 0.100762 0)
(1.27605 0.0483552 0)
(0.931527 0.151748 7.37358e-21)
(0.441539 1.00006 0)
(1.02051 0.00714995 2.65522e-21)
(0.994594 0.0043555 0)
(-0.274897 -0.00426517 0)
(0.999987 0.00146158 -1.58148e-21)
(0.995087 0.0411386 -1.36984e-22)
(0.94745 0.0823575 3.25493e-22)
(1.11043 -0.0366584 0)
(-0.140662 -0.00772219 0)
(0.249464 -0.111631 9.08465e-20)
(1.09577 0.0423517 0)
(0.999955 0.00144004 -3.83791e-21)
(-0.0764391 -0.000505127 0)
(1.10155 -0.0491269 5.55781e-23)
(1.02029 0.00690527 1.11013e-21)
(0.981467 0.0189657 0)
(1.01356 0.000488634 -2.19621e-21)
(0.85938 0.329917 -2.43382e-20)
(1.00988 0.0128128 4.65015e-24)
(0.215153 -0.0344787 0)
(0.844377 -0.0982826 -2.27528e-20)
(-0.0499923 -0.0171344 -2.68657e-20)
(0.700194 0.0510492 0)
(1.0976 0.0424699 -5.13965e-21)
(1.14077 0.167454 2.24535e-20)
(0.969274 0.0263974 -6.97406e-21)
(1.02969 0.00504898 -4.93591e-21)
(1.25316 -0.0252985 4.80207e-20)
(0.235317 -0.124592 -9.5102e-20)
(-0.266991 -0.00859296 1.0031e-19)
(1.00001 0.00085128 2.29212e-21)
(1.00286 0.00478381 6.58126e-22)
(0.0255655 0.00827693 -3.93655e-20)
(1.13552 -0.0138884 4.82495e-20)
(0.938012 0.477662 -1.20752e-21)
(1.10314 -0.0726298 2.09814e-20)
(1.00144 0.00744503 -8.21316e-22)
(0.494949 -0.0579963 1.63985e-20)
(1.04371 0.0373382 -6.56887e-21)
(0.845694 0.00473445 -1.74719e-20)
(0.879847 0.0363659 0)
(0.800368 1.01568 6.50727e-21)
(1.01391 0.0259514 4.31488e-23)
(0.950357 0.291043 -2.31129e-21)
(1.07057 0.0517347 9.8552e-21)
(0.963279 0.0620688 -2.51954e-21)
(-0.0178162 0.00600766 -6.00551e-20)
(0.971942 0.0283488 0)
(0.0413669 -0.00584048 1.24387e-20)
(0.498468 -0.0766822 -1.84667e-20)
(1.14493 0.0906928 2.31736e-20)
(1.00965 0.00851389 3.1085e-22)
(0.974872 0.0527429 0)
(1.10208 0.444786 0)
(1.14303 0.0605857 3.95656e-20)
(1.10242 -0.0283311 1.48105e-20)
(0.999274 0.0127076 3.56336e-21)
(1.03412 0.0168976 0)
(-0.107142 -0.0146574 1.4625e-20)
(1.2363 0.00963725 0)
(1.10206 -0.0253928 6.83879e-21)
(1.10888 -0.0686474 -1.09489e-20)
(1.11203 -0.000390145 -2.6778e-20)
(1.0192 0.010422 8.47971e-22)
(0.961266 0.0626295 0)
(0.993659 -0.000494658 3.21325e-21)
(0.982602 0.0220679 3.73768e-21)
(1.00424 0.00783166 0)
(1.03138 0.00398157 3.47772e-21)
(1.00271 0.00463694 3.21908e-22)
(-0.307042 -0.00065899 -8.9132e-21)
(0.998045 0.0237343 2.80726e-21)
(0.978323 0.0385978 1.29201e-21)
(1.00805 0.101707 6.59732e-22)
(1.2254 0.179574 -1.90498e-20)
(1.10785 -0.0867056 0)
(-0.0582737 0.00523515 0)
(0.235147 -0.00510716 1.69233e-21)
(1.0649 -0.00770275 -6.3351e-21)
(0.968721 0.146478 7.68046e-21)
(0.120875 -0.0178038 8.07481e-21)
(0.996965 0.0115182 0)
(1.10199 0.0319369 -5.60803e-21)
(1.01416 0.0255305 -3.77283e-23)
(0.997762 0.00471377 6.04338e-21)
(1.01157 0.0300751 -5.44098e-22)
(1.09486 -0.0394 1.56064e-20)
(1.01131 0.0190358 0)
(1.10084 0.165648 1.06922e-20)
(-0.3255 -0.000564785 -1.55441e-20)
(1.08489 -0.0297249 -5.00726e-21)
(0.993847 -0.000877085 2.27901e-21)
(1.00349 0.0138182 1.60195e-21)
(0.988603 0.0116995 -5.54973e-21)
(1.09292 0.043595 8.77489e-21)
(1.0277 -0.000259977 3.70161e-21)
(-0.317337 -0.00121157 1.19362e-20)
(0.998833 0.0120321 -2.12536e-21)
(1.11307 -0.00941471 -1.0112e-20)
(1.12396 -0.0764842 -7.14863e-21)
(0.689169 -0.0769629 2.18327e-20)
(1.04733 0.0166935 -4.12765e-21)
(-0.14274 -0.00887624 2.20797e-20)
(1.09292 -0.0315979 -1.39839e-20)
(1.09465 -0.0485429 5.28517e-21)
(1.05022 0.0136838 -1.19901e-20)
(1.17213 0.0799154 1.036e-20)
(-0.071436 -0.0181337 0)
(1.01864 0.00107199 -1.29394e-23)
(1.11331 -0.0012244 1.82774e-20)
(1.14571 0.0882892 -2.30406e-20)
(1.11597 0.101466 8.60445e-21)
(0.975623 0.372334 -6.61965e-22)
(1.23988 0.00781415 2.99319e-20)
(-0.0352952 0.00557471 8.09356e-20)
(1.10578 0.0804555 -6.62174e-20)
(0.984765 0.0947285 7.38305e-21)
(1.00751 0.133437 0)
(1.12722 -0.022506 1.95379e-20)
(-0.259323 -0.00286071 -2.40822e-20)
(1.03106 0.0379085 -2.95687e-21)
(1.0307 0.0388971 3.24642e-21)
(1.02921 0.00502336 6.12289e-21)
(1.01156 0.0187568 0)
(-0.0770613 -0.00432949 -2.06509e-20)
(1.01048 0.132124 0)
(1.06286 -0.00376427 6.1382e-21)
(1.29514 0.197467 -2.56341e-20)
(-0.15156 0.024674 0)
(0.993012 0.0525323 3.32056e-21)
(-0.138161 -0.0120976 4.3175e-20)
(0.95035 0.0819951 8.12845e-21)
(-0.137415 0.00750807 -7.9511e-20)
(1.20903 -0.013568 -1.92105e-20)
(0.996587 0.000494707 1.26787e-21)
(-0.259609 -0.0083918 -9.16144e-20)
(1.06368 -0.00435104 6.62295e-21)
(1.00204 0.0735795 2.63046e-21)
(1.23447 -0.00614035 0)
(0.501679 -0.0469032 -3.91232e-21)
(0.762246 -0.0518563 -1.79163e-20)
(1.126 -0.0650171 -2.01623e-20)
(-0.237607 -0.00766343 -3.66393e-20)
(0.945754 0.00598297 6.97724e-21)
(1.23137 -0.00623728 0)
(1.0102 0.23557 1.6995e-21)
(1.00001 0.000224188 0)
(1.02187 0.00626814 0)
(1.024 0.0268168 2.92986e-21)
(1.01155 -0.0584059 0)
(0.996729 0.0114315 -2.91615e-21)
(1.00135 0.00764066 0)
(1.19347 0.130982 -6.69577e-20)
(1.00043 0.0740087 1.46906e-22)
(0.651933 -0.061314 0)
(1.10915 -0.0697275 6.75263e-21)
(-0.149935 0.0139845 0)
(0.973898 0.027961 1.02303e-22)
(0.980976 0.0082966 0)
(-0.225947 -0.00241005 0)
(1.09234 -0.0548318 -1.9808e-21)
(1.00001 0.000171221 0)
(1.0834 0.0562029 8.56542e-21)
(1.10262 -0.0263216 -2.34802e-20)
(0.997714 0.0049216 -7.97597e-21)
(1.20189 0.147627 -1.98773e-20)
(-0.256236 -0.00198927 0)
(1.09476 0.0439295 -9.45226e-21)
(0.998305 0.00906154 3.09975e-21)
(1.10973 0.331612 -1.76055e-20)
(0.40309 -0.513489 -2.55986e-21)
(0.935698 0.152135 -1.25261e-20)
(0.983966 0.366628 5.90195e-22)
(0.0226016 -0.00585271 -2.5592e-20)
(1.11971 -0.0511973 -8.98334e-21)
(1.02151 0.00612385 0)
(-0.323555 -0.00165289 1.37469e-19)
(1.0859 -0.0122572 -6.96451e-21)
(1.17416 0.0462525 2.71278e-21)
(0.994993 0.0402472 1.17629e-22)
(0.638603 -0.0740857 -2.19545e-20)
(1.10173 -0.0721445 9.70249e-21)
(1.00003 0.000573242 -2.36802e-21)
(-0.317552 0.00274605 -8.02746e-20)
(0.984835 0.00329659 -7.25119e-21)
(0.97067 0.0280039 0)
(1.01941 0.024448 0)
(0.994006 0.00238439 0)
(-0.17601 0.00471319 -9.51941e-20)
(-0.0868875 -0.00596686 0)
(1.0204 0.00639386 -3.48406e-21)
(1.02302 0.0018267 6.80581e-22)
(1.00647 0.0989816 0)
(0.915283 0.140669 2.71087e-21)
(0.715177 -0.0971006 4.72672e-21)
(1.10397 -0.0670511 3.09836e-20)
(-0.304476 -0.00278296 7.23167e-20)
(1.17604 0.0673357 0)
(0.233348 -0.0390174 1.15563e-20)
(-0.291604 0.0033942 0)
(-0.304664 -0.000773008 2.338e-20)
(0.23321 -0.0363878 2.14929e-20)
(0.981107 0.00765896 0)
(1.00343 0.00762875 0)
(1.04163 0.0770992 -9.59827e-21)
(0.196902 0.00535355 0)
(1.0447 0.0368962 -3.52461e-21)
(0.993825 0.00262313 0)
(1.02056 0.00666453 1.02631e-21)
(0.838732 -0.0946163 0)
(-0.316564 -0.00058555 0)
(1.00515 0.0129124 1.10343e-21)
(0.984997 0.0284517 -3.74577e-21)
(0.99998 0.000691861 2.26972e-21)
(0.0848941 -0.00737799 -1.20968e-22)
(1.07445 0.156049 0)
(0.338589 0.617163 0)
(1.04558 0.0353653 1.07301e-22)
(1.09693 -0.0502586 0)
(1.07175 0.0288325 -9.03029e-21)
(1.14513 0.169043 4.87431e-22)
(1.16144 0.0137711 3.68113e-20)
(1.00766 0.00764153 0)
(0.205755 0.00642693 1.599e-21)
(1.04716 0.017227 0)
(1.09959 -0.0594356 0)
(0.98317 0.0254151 0)
(0.992324 0.0537895 0)
(0.98658 0.036789 -3.7086e-21)
(0.204626 -0.055703 1.45672e-20)
(0.0630944 0.332006 -5.66088e-20)
(0.0606008 0.262235 0)
(0.996736 0.000658437 0)
(0.513863 -0.0590807 -1.4923e-20)
(0.196815 -0.0273245 0)
(0.94471 0.00536485 2.13212e-21)
(-0.275896 0.00459724 6.09884e-20)
(1.09538 -0.0561766 2.76664e-22)
(1.09666 -0.0539389 8.22704e-21)
(1.00325 0.00741228 1.82329e-21)
(0.986012 0.0122554 -3.91804e-22)
(0.988087 0.0115247 0)
(1.27096 -0.0151885 2.33619e-20)
(0.559339 -0.0269224 -2.61991e-20)
(1.09512 -0.0329308 -2.21535e-20)
(-0.175228 0.00476315 6.94942e-20)
(1.00008 0.0033741 3.79281e-21)
(0.985874 0.00622945 0)
(1.1097 -0.00821759 -1.21037e-20)
(1.1087 0.0609517 -1.32875e-20)
(1.01609 0.0252383 3.30617e-23)
(-0.233651 -0.00239426 -2.69729e-20)
(1.02712 0.0965617 6.83194e-22)
(1.09245 -0.055118 0)
(0.502822 -0.0876837 0)
(-0.121937 -0.00208471 -3.99687e-20)
(0.116032 -0.00723372 5.08116e-23)
(0.0313492 0.0595605 1.63706e-20)
(1.14375 -0.0828431 0)
(0.985069 0.00281269 9.26948e-21)
(1.02121 0.00631507 0)
(1.07648 0.00236611 -7.01082e-21)
(0.983626 0.029523 -8.08635e-21)
(0.873548 0.0897579 -6.136e-21)
(0.0449303 0.00991567 0)
(0.98592 0.0114878 0)
(-0.230004 0.00384392 -8.27753e-20)
(1.21586 -0.00991835 2.66167e-20)
(-0.217348 -0.00268883 0)
(1.07205 0.0501722 7.2685e-21)
(0.812733 -0.0954225 9.91391e-21)
(1.09149 0.138641 -1.53271e-20)
(0.513068 -0.899033 1.45718e-21)
(1.06291 -0.00739789 0)
(1.00134 0.00742584 8.40438e-22)
(0.860902 -0.0416104 0)
(0.979817 -0.00237365 -2.21164e-21)
(1.07658 0.0340671 1.68071e-20)
(0.954125 0.480569 -3.89408e-21)
(1.21827 0.370214 -2.04368e-20)
(0.0618775 0.0740293 3.9443e-20)
(1.10459 -0.0745925 0)
(-0.234274 0.00990512 9.16742e-21)
(0.19753 -0.0556733 5.98551e-21)
(1.08035 0.144946 0)
(0.999054 0.0125726 -3.97944e-21)
(0.193242 0.00514483 0)
(1.02362 0.00199224 5.10475e-21)
(1.24631 -0.0252076 -2.72929e-20)
(-0.279314 -0.0020866 4.55727e-20)
(1.01383 0.000312319 1.44727e-22)
(1.06596 0.0825347 -2.85214e-21)
(1.10178 -0.0710915 -5.62398e-21)
(0.209581 -0.0299076 -6.76022e-21)
(0.977572 0.0532323 -9.36292e-21)
(0.999974 0.0011036 1.72606e-21)
(0.898854 -0.0853569 0)
(-0.183994 -0.00181316 0)
(-0.204395 0.000151357 5.22797e-20)
(0.995035 0.032529 0)
(0.166277 0.112305 -1.83773e-21)
(1.01984 0.0387256 -2.72429e-22)
(1.11535 -0.0857948 -8.36228e-21)
(1.08566 0.141086 -1.39435e-20)
(1.05802 0.0262613 7.93307e-22)
(0.93555 0.286599 0)
(0.15569 -0.0107309 0)
(1.032 0.0379713 0)
(0.983194 0.027084 -9.17822e-22)
(0.995074 0.0319337 0)
(1.01859 0.0259117 0)
(1.15725 -0.0682087 0)
(0.388024 -0.0549535 -1.97575e-20)
(0.125144 -0.0483476 -2.2094e-20)
(-0.230151 -0.00506349 -1.31919e-20)
(1.00258 0.00732907 1.07711e-21)
(-0.0835974 -0.00791067 -9.13353e-21)
(1.10642 0.0609674 0)
(1.20331 0.0321501 2.33687e-20)
(1.31458 0.0938361 4.3054e-20)
(1.07722 0.0172094 0)
(-0.328398 -0.00147827 -4.42311e-20)
(0.945926 -0.000510069 -1.43549e-20)
(0.969377 0.0579095 0)
(0.675853 -0.0637276 0)
(1.29318 0.19208 -4.76571e-22)
(1.14393 -0.0506247 -1.27905e-20)
(0.988985 -0.0748622 3.65012e-20)
(1.07973 -0.0870778 -8.03844e-21)
(1.07039 0.198782 1.49995e-20)
(-0.317754 0.00113186 -1.24818e-21)
(1.10077 -0.0626233 -2.43182e-20)
(0.965671 0.00525361 -9.61118e-21)
(0.671756 -0.0645005 0)
(0.869543 0.0323126 2.3516e-20)
(1.10877 -0.00701205 0)
(0.894645 0.0541126 -4.04248e-20)
(0.905131 0.0692814 -7.74619e-21)
(1.08899 0.141113 1.1232e-20)
(0.957946 0.0616341 6.45931e-21)
(0.844351 0.00952566 0)
(1.1272 -0.064487 1.12792e-20)
(0.884208 0.0792488 0)
(1.07183 -0.0135454 0)
(1.08336 0.00361928 3.34572e-21)
(1.0947 -0.0478391 1.03169e-20)
(1.06779 -0.0064802 4.61751e-21)
(0.989441 0.0192453 -1.67329e-22)
(0.973301 0.0252999 5.71682e-21)
(0.99425 0.0314087 0)
(0.96442 0.00852699 -1.3684e-23)
(1.14386 -0.0841134 -1.45811e-20)
(0.467753 -0.668874 -1.4685e-20)
(1.04379 0.0384382 5.77904e-21)
(1.02935 0.0260389 1.36956e-21)
(1.0194 0.197983 0)
(-0.222562 0.00631234 3.49344e-20)
(1.00024 0.000249541 1.89874e-21)
(1.00767 0.0974129 1.43135e-21)
(0.82548 0.212677 -4.02388e-20)
(1.12255 -0.0768237 0)
(0.999972 0.00146531 9.29739e-22)
(1.0073 0.0485221 5.90902e-22)
(1.06765 -0.00726148 0)
(1.13051 -0.0323314 -9.99765e-21)
(1.02886 0.0751318 -2.21886e-21)
(1.00794 0.0313755 -1.6017e-21)
(1.00898 0.0118977 0)
(-0.0693769 0.00429756 1.81923e-20)
(0.211117 -0.0529943 0)
(1.26928 -0.0215093 0)
(1.01346 0.134689 -4.64149e-22)
(0.999954 0.00162937 9.7575e-22)
(1.00256 0.00464664 -6.75183e-22)
(0.916634 0.106575 -8.26867e-21)
(0.993621 -0.00117646 1.75001e-21)
(1.00061 0.0146071 -1.38024e-21)
(1.06414 0.082394 -5.54264e-21)
(0.0452371 -0.0066538 0)
(1.1363 -0.0119444 -5.12448e-23)
(0.875585 -0.0551617 0)
(1.0027 0.009009 0)
(1.02549 0.0956443 0)
(0.754978 0.23709 -1.1466e-20)
(0.516644 -0.0475307 4.58955e-21)
(0.943167 0.284224 -6.7118e-21)
(-0.272712 0.00118282 -2.79261e-20)
(1.09242 -0.0570486 -2.39451e-20)
(0.373575 0.922025 -1.42473e-20)
(1.03081 0.00411093 -2.31994e-21)
(1.00251 0.0046938 7.15868e-22)
(-0.195427 -0.00328168 2.49412e-20)
(1.07866 0.340356 1.76594e-20)
(1.09198 0.135632 2.51344e-22)
(1.16428 0.114856 -1.36093e-20)
(0.447216 -0.0768286 0)
(0.199852 0.00674327 -6.65319e-21)
(0.698202 0.414144 -4.52564e-20)
(1.02575 0.0510087 -2.72689e-21)
(1.1492 -0.0658386 -1.44404e-20)
(-0.207893 0.00755072 1.79159e-21)
(1.06761 0.0793221 2.83491e-21)
(0.527878 -0.016158 0)
(1.11657 0.201444 0)
(1.3085 0.0682575 2.10018e-20)
(-0.187394 0.00510646 4.29512e-20)
(1.18254 0.303816 -2.24014e-20)
(1.13684 0.170413 1.79205e-20)
(0.944929 0.000342973 1.78765e-20)
(1.01396 -0.0723161 0)
(1.02881 0.0262497 -5.98412e-23)
(0.0478873 0.0721019 0)
(1.08387 0.058094 4.44667e-22)
(1.00944 0.00817296 3.16768e-22)
(1.01625 0.0422099 -3.04448e-23)
(1.02089 0.0061335 1.3538e-21)
(-0.319172 -0.000882101 0)
(1.03443 -0.00130061 0)
(1.19912 0.0897158 1.72334e-20)
(0.986574 0.0124052 0)
(0.918555 0.143234 2.58747e-21)
(1.2107 -0.0378825 2.70977e-20)
(1.01607 0.133253 6.44206e-22)
(0.99597 0.0134273 0)
(-0.0848333 0.0064942 2.45051e-20)
(0.584607 -0.20925 -7.13415e-21)
(1.00296 0.00724278 -2.65597e-22)
(1.03231 0.0369808 0)
(0.46071 0.0497163 1.95702e-20)
(1.13491 -0.0107684 -5.65572e-23)
(1.09793 0.00565984 0)
(1.09338 -0.0566138 0)
(1.08088 0.0111011 -1.12641e-20)
(0.966785 0.0870168 6.22475e-21)
(1.02341 0.0127468 0)
(1.09256 -0.0592354 -8.45433e-21)
(0.105845 -0.0460559 1.70612e-20)
(0.151889 -0.0523531 0)
(-0.0805239 0.00632192 4.7886e-20)
(1.0703 0.337991 -2.77336e-20)
(1.20046 0.0874111 1.8454e-20)
(0.830893 0.218553 2.07874e-20)
(1.18887 0.308343 0)
(0.945035 0.0362121 0)
(0.752073 -0.094434 -1.3226e-20)
(0.0670054 0.0627132 3.07419e-20)
(1.21305 -0.0102509 -4.3047e-20)
(0.999988 0.0154602 -2.01027e-21)
(0.986918 0.0932423 6.65012e-21)
(0.490934 0.0801774 -3.70153e-20)
(1.00688 0.0493537 0)
(0.967695 -0.0741359 0)
(-0.219089 0.0113706 -9.58394e-21)
(1.23704 0.0901446 -4.74848e-20)
(0.993968 0.00168857 7.70868e-22)
(0.76906 0.220781 0)
(1.01972 0.0378439 -4.51645e-22)
(0.917073 0.204731 -1.09538e-20)
(-0.308245 -0.00299879 -5.4984e-20)
(0.994225 0.0307002 -4.20892e-21)
(1.11671 -0.0872659 0)
(0.688087 -0.0215304 2.51853e-20)
(0.992197 0.00513497 -2.48533e-22)
(1.00263 0.16041 1.46478e-21)
(1.07269 0.152167 -1.32927e-20)
(1.02025 0.001144 1.15082e-21)
(1.07223 0.124706 -1.41747e-20)
(0.23399 -0.0564715 3.37153e-21)
(1.10289 -0.0242692 -1.53253e-20)
(1.08966 -0.0301755 3.31793e-21)
(-0.213949 0.00724964 -1.03461e-20)
(1.12913 -0.0316774 0)
(0.976042 0.0538811 5.16447e-21)
(0.920158 -0.0131522 3.0837e-21)
(1.00888 0.0116848 -8.4782e-25)
(0.868615 0.0893998 0)
(1.02302 0.0127977 0)
(0.99392 0.0010576 -3.23885e-21)
(-0.18488 -0.0093083 -2.0855e-20)
(1.1134 -0.00633924 6.69786e-21)
(0.916732 0.00492819 -1.33401e-20)
(1.05156 0.0429208 0)
(1.0196 0.00551167 1.45622e-21)
(1.05185 0.043888 -5.18178e-21)
(1.03023 -0.000358969 4.42174e-21)
(0.511825 -0.0798604 -3.80618e-20)
(0.472891 0.104793 0)
(0.990217 0.0711702 6.18969e-22)
(1.1032 -0.0744582 -2.97025e-21)
(0.172003 -0.00631957 -2.20305e-20)
(1.01033 0.0083425 -3.94696e-22)
(1.1123 0.323055 1.6278e-20)
(1.0014 0.0140749 -9.70865e-23)
(1.07126 -0.0142192 8.02432e-21)
(1.00002 0.00164136 0)
(0.964402 0.0115781 -8.07001e-21)
(0.133332 -0.0203471 0)
(0.946339 0.0925042 0)
(-0.31271 -0.00387001 -6.90692e-22)
(0.983682 0.027781 0)
(0.958653 0.0318451 1.04212e-20)
(1.28886 0.0384249 4.83445e-21)
(0.723358 -0.0931281 1.36852e-20)
(0.996705 0.000186759 7.55182e-21)
(1.00231 0.129538 4.11347e-22)
(-0.149801 0.0154738 -1.25625e-19)
(0.00257362 0.0487843 -9.53475e-20)
(1 0.00145099 0)
(0.0472416 0.065253 -6.68107e-20)
(1.08148 -0.0134037 -1.44135e-20)
(0.918154 0.209371 -5.66689e-21)
(1.21674 -0.006507 -5.55402e-21)
(0.918378 -0.0123053 0)
(-0.250469 -0.0017373 0)
(0.908103 0.0695709 8.63213e-21)
(0.988672 0.0123078 5.18047e-21)
(1.0079 0.032107 1.45628e-21)
(1.00806 0.00753698 0)
(0.958651 0.0329203 -1.16039e-20)
(0.988469 0.0706969 5.94997e-22)
(0.0796795 0.00494851 0)
(0.595955 0.0614664 0)
(1.1037 0.0361673 0)
(1.32584 0.168557 -2.84097e-20)
(0.836215 0.309195 0)
(0.904235 -0.0558943 1.36961e-20)
(1.06886 0.128778 4.97458e-21)
(0.998801 -1.08435e-05 -4.06419e-21)
(1.09416 -0.032845 1.43347e-20)
(0.412541 -0.0730937 0)
(1.09024 0.0740363 -1.14388e-21)
(1.10221 -0.0233544 0)
(1.09148 0.0482361 1.3367e-20)
(-0.179457 0.00635044 -6.65352e-20)
(1.15787 -0.0843554 0)
(0.969334 0.081038 0)
(1.07138 0.127131 5.22147e-21)
(0.945883 0.00890326 0)
(-0.230299 0.00348383 -6.7181e-20)
(0.996522 6.52264e-05 -9.62019e-21)
(0.489803 0.067625 0)
(1.01968 0.0231117 -2.53832e-21)
(1.00401 0.131576 -6.48655e-22)
(0.955152 0.0644906 1.45638e-20)
(1.14709 0.0540929 -1.2219e-20)
(0.968504 0.0881528 -4.05794e-21)
(0.837899 0.31756 -1.17442e-21)
(0.913634 0.108188 0)
(0.923265 0.275473 -9.23514e-21)
(1.03038 0.0046283 2.25925e-21)
(1.19152 -0.045368 -2.78668e-20)
(1.12429 -0.0627048 -1.47253e-20)
(1.07611 0.124344 -3.40926e-22)
(1.02007 0.00116362 0)
(1.09539 -0.0468271 -1.07063e-20)
(0.240697 -0.00928389 9.51505e-21)
(1.20593 0.359927 3.86552e-20)
(1.01456 0.0026502 -1.85372e-23)
(0.915401 0.00324782 0)
(0.20085 0.827115 -1.50704e-20)
(1.10768 -0.0875412 8.59181e-21)
(1.28283 0.0548388 1.39274e-20)
(0.979105 0.0194393 -3.93788e-21)
(1.14466 0.06226 -3.03523e-20)
(1.00006 0.00124079 0)
(1.05759 0.193016 -5.27356e-21)
(1.14114 -0.0821295 9.42427e-21)
(0.299868 -0.310167 2.89577e-20)
(1.08232 0.00392468 9.829e-21)
(1.11207 -0.062612 -1.13731e-20)