/*--------------------------------*- C++ -*----------------------------------*\
| =========                 |                                                 |
| \\      /  F ield         | OpenFOAM: The Open Source CFD Toolbox           |
|  \\    /   O peration     | Version:  v2012                                 |
|   \\  /    A nd           | Website:  www.openfoam.com                      |
|    \\/     M anipulation  |                                                 |
\*---------------------------------------------------------------------------*/
FoamFile
{
    version     2.0;
    format      ascii;
    class       volVectorField;
    location    "400";
    object      ddtCorrDdt0(U);
}
// * * * * * * * * * * * * * * * * * * * * * * * * * * * * * * * * * * * * * //

dimensions      [0 1 -2 0 0 0 0];


internalField   nonuniform List<vector> 
53008
(
(-0.0222444 0.0210264 5.91252e-22)
(-0.00146348 0.00594783 0)
(0.00802403 0.000646685 -3.90837e-22)
(-8.8768e-06 -4.211e-05 -3.26239e-22)
(-0.034467 0.00048679 -5.15962e-23)
(-1.67538e-05 8.14857e-06 2.28769e-24)
(-5.14407e-05 -2.00686e-05 -7.69554e-22)
(3.81047e-07 -3.52504e-06 -8.6426e-23)
(-0.00292841 -0.00198495 1.32214e-22)
(-6.38205e-06 1.04931e-05 -5.76061e-22)
(-2.06295e-06 2.09153e-06 9.88522e-24)
(0.00302867 -0.00250316 3.58444e-22)
(0.000358587 0.000210026 1.04678e-23)
(-0.013674 0.0329446 0)
(-0.0352212 -0.214252 2.1073e-22)
(0.0324033 -0.0222564 -9.52933e-22)
(-2.34726e-05 -6.77416e-07 0)
(-0.0694628 0.0113486 -3.17309e-21)
(-0.000238129 -0.000448237 3.12421e-22)
(-3.46245e-05 1.60451e-06 -2.12477e-22)
(-9.47682e-05 -0.000363929 -2.11566e-22)
(0.0285324 0.0553214 2.47786e-21)
(-0.0486656 0.0406009 1.14504e-21)
(0.00120438 0.0459987 7.36882e-22)
(-7.52879e-06 9.72984e-06 2.33222e-22)
(-0.000326064 0.00101768 -7.95846e-22)
(-0.0775678 0.026329 2.23094e-21)
(-0.000102348 0.000265098 -1.31603e-23)
(0.0179493 -0.108102 1.02879e-21)
(-8.5814e-06 -4.09824e-05 -5.84142e-22)
(-0.000321829 -0.000524033 0)
(-3.47547e-05 1.08415e-06 -5.07456e-22)
(0.00444699 0.0736339 -7.08749e-22)
(-0.0149966 -0.00217432 1.85011e-22)
(1.46837e-06 -2.61466e-06 6.87381e-23)
(1.93384e-06 -2.24853e-06 0)
(-1.75728e-05 1.81865e-06 1.52959e-22)
(0.0316091 -0.00368356 8.39655e-24)
(-0.00385569 -0.00333614 1.23935e-22)
(0.00880743 -0.000215571 -7.51974e-22)
(-0.0428048 0.00117002 -4.36773e-21)
(0.0494999 0.0218808 0)
(-0.000118686 -0.000121456 0)
(-3.10282e-05 3.84188e-05 0)
(-0.00555505 0.0154657 -3.35386e-22)
(0.0245707 0.0549332 -1.39334e-21)
(0.00852633 7.54818e-05 -1.29825e-21)
(-0.0390058 -0.00224085 4.10397e-22)
(0.0290611 -0.00513089 0)
(-0.0073121 0.000477163 0)
(-0.00039198 0.000400471 7.41867e-22)
(0.00262804 0.00491717 0)
(-2.72355e-05 -2.98075e-07 3.5594e-22)
(0.00121592 -0.00128261 6.65479e-22)
(-0.00498527 0.00800602 2.69392e-22)
(-0.00373107 0.000490391 1.65294e-21)
(0.0562398 0.00618542 9.64664e-22)
(8.31371e-05 -0.0026856 -3.29472e-23)
(-5.43227e-05 -2.04018e-05 1.17242e-22)
(-7.54174e-06 1.81629e-07 7.21278e-23)
(-3.87997e-05 -1.62643e-05 0)
(-2.73715e-05 -2.96227e-06 -9.50461e-23)
(-5.11043e-05 0.000230073 -5.4918e-25)
(-0.000420633 0.000360366 0)
(-5.13513e-05 -2.4697e-05 0)
(0.0343483 0.0237135 -3.50255e-22)
(0.006711 4.44448e-05 0)
(-0.000727778 -0.000660618 0)
(-4.29323e-05 -3.41408e-05 2.74438e-22)
(-3.09244e-05 -1.38465e-06 -4.15227e-22)
(-3.49202e-05 -1.33564e-05 0)
(-8.67859e-06 -2.02894e-05 -8.99836e-22)
(-0.00309922 0.00489914 0)
(-1.55905e-05 -2.35419e-05 -7.70988e-22)
(-0.000379698 -0.000492675 3.4186e-22)
(-0.000349039 0.000112329 4.4492e-22)
(1.9307e-07 -3.85526e-06 0)
(-1.88805e-05 2.1952e-05 1.79227e-22)
(-0.000247797 0.00105005 -1.13219e-22)
(-4.94717e-05 -9.1293e-06 0)
(-8.12337e-06 8.44407e-06 2.56528e-22)
(7.10524e-05 -7.17058e-06 0)
(-0.00341575 0.000453778 -7.81098e-24)
(-0.000318289 -0.000531386 0)
(-2.37319e-05 -1.02706e-05 -2.5389e-22)
(0.000539901 -0.000292528 -1.91179e-22)
(-0.000543784 4.86238e-05 -2.03122e-21)
(-0.000347195 -0.000380792 -6.57767e-22)
(0.00176181 0.000843727 0)
(-2.98142e-05 -7.76538e-06 0)
(3.96288e-06 -4.9611e-06 0)
(-3.88356e-05 -1.41969e-05 2.61292e-22)
(-9.01101e-05 -2.34715e-05 -7.15779e-22)
(-2.32594e-05 -1.11519e-05 0)
(-0.000374115 -0.000385234 0)
(0.00153461 -0.0467161 2.50899e-23)
(-1.54395e-05 2.0993e-05 1.75988e-22)
(3.87517e-06 -5.78777e-06 0)
(0.000390952 0.000178632 0)
(-3.03441e-05 -1.75733e-06 5.88544e-22)
(-3.94705e-05 -1.62232e-05 1.62736e-23)
(-7.52684e-06 4.37665e-08 0)
(-0.0454846 0.041711 0)
(-6.06064e-05 0.00026656 1.27657e-23)
(-3.53243e-05 -1.40995e-05 -5.55434e-22)
(0.00521123 0.00148721 4.80752e-23)
(0.00663876 -0.0040098 -3.82326e-23)
(-0.0759244 -0.113173 -3.5158e-21)
(-0.000124996 -0.000127369 0)
(0.0177518 -0.0298882 2.89084e-22)
(0.00625098 0.0015225 3.28983e-22)
(0.0070863 -0.00027256 1.61612e-21)
(0.00434028 0.0942195 0)
(-1.56677e-05 4.74792e-05 8.8983e-23)
(-0.00116635 0.000439757 0)
(-5.44728e-05 -8.0851e-06 0)
(0.000396612 -0.051682 0)
(0.00103772 -0.00127816 -6.89043e-22)
(-0.000497198 6.63721e-05 1.32967e-22)
(-0.00762064 -0.0461901 -1.65309e-23)
(4.2018e-06 -3.21042e-06 6.35924e-25)
(0.000372828 0.000124001 -2.3382e-22)
(0.00598304 -0.000229992 0)
(-0.000947562 0.000110779 1.12522e-21)
(-1.66867e-05 8.33145e-06 0)
(0.0419572 -0.0252835 2.5158e-21)
(-0.0368763 0.144444 1.094e-21)
(-0.0187188 -0.00727158 -3.09762e-21)
(0.00687692 0.00031263 0)
(-0.000245009 -0.000441316 -3.00969e-22)
(-1.54895e-05 -4.08393e-06 2.23209e-23)
(4.1519e-06 -4.17263e-06 4.47543e-23)
(-0.00213644 0.0709911 0)
(0.00430392 0.00227743 0)
(0.00685888 8.31569e-06 0)
(-2.959e-05 -7.73286e-06 2.46989e-22)
(-1.25236e-05 6.81259e-07 2.28146e-22)
(0.00221933 -0.000374562 -5.08177e-23)
(0.00727856 -0.000243272 5.55336e-22)
(-1.48873e-05 -3.37396e-06 2.06898e-23)
(-0.00312851 0.0380593 0)
(0.00679935 -0.00044967 9.75993e-22)
(-0.00415988 0.0105402 0)
(-3.20476e-05 1.57193e-06 0)
(-1.12642e-05 5.08174e-06 1.40866e-24)
(-0.000316568 -0.000516902 -3.93207e-22)
(-0.00649304 0.00254549 -5.78764e-22)
(-0.00103489 0.00588124 4.4474e-22)
(-2.79332e-05 -1.8943e-07 -1.81514e-22)
(-3.73582e-05 -1.63158e-05 0)
(0.00926906 0.000127104 0)
(-3.2553e-05 6.85956e-05 -1.28967e-22)
(-0.00320352 -0.00134401 -9.80415e-22)
(-0.00629803 0.0133991 0)
(0.0218472 0.0563965 -2.55589e-23)
(0.000110909 0.000187733 1.32276e-21)
(-0.0262797 0.032667 0)
(-0.0716333 -0.0324851 -8.90296e-22)
(-1.69898e-05 8.86144e-06 0)
(-0.000131893 -0.00012766 -5.30302e-22)
(1.92342e-05 1.6849e-05 0)
(-3.71463e-05 3.41569e-05 -1.57484e-22)
(-1.92321e-06 1.75109e-06 -1.10412e-23)
(-3.69061e-05 -2.80487e-05 0)
(-2.01097e-06 1.86901e-06 3.246e-23)
(0.00146444 0.0466809 0)
(0.00065288 0.00209494 0)
(0.0345931 -0.0326506 -1.81737e-21)
(3.99206e-06 1.42865e-07 1.15928e-23)
(-1.29975e-05 1.03326e-05 4.1121e-27)
(-0.00230359 0.00342455 -2.21192e-22)
(-0.0673837 -0.0293109 -2.08641e-21)
(-2.2076e-05 -0.000105286 9.17493e-22)
(-0.00712834 -0.0573822 4.2367e-22)
(-9.15712e-06 7.57028e-06 0)
(3.72664e-05 -1.7972e-06 -3.36092e-23)
(-2.75012e-05 -2.36111e-07 5.35518e-22)
(-5.37591e-05 -7.97891e-06 3.28575e-22)
(0.000537366 0.00204916 0)
(-0.00033811 9.67652e-05 -1.03352e-21)
(-0.000963216 -0.00079733 -1.31946e-21)
(-0.00261977 -0.00210413 4.71765e-22)
(-2.1011e-05 2.70012e-06 4.72361e-23)
(-1.69843e-05 8.08498e-06 0)
(0.07169 -0.0495673 1.58701e-21)
(-2.28668e-05 5.11603e-05 7.55551e-23)
(-1.40086e-06 2.20222e-06 3.42871e-23)
(0.00925813 0.000128138 9.2694e-22)
(0.00894322 -0.000169125 0)
(0.00894683 0.000272187 -4.27832e-22)
(-1.45766e-05 3.2811e-06 1.49901e-22)
(0.0473652 0.0881314 0)
(0.00450064 0.00113537 0)
(0.00650516 -0.0037963 0)
(0.00248391 0.0049877 0)
(-2.31424e-05 -1.28083e-05 0)
(0.0774154 -0.00440392 -2.02217e-21)
(0.00544979 -0.000601152 0)
(-2.24944e-05 -1.36326e-05 0)
(0.0310652 -0.106243 4.80693e-22)
(-3.80483e-05 -7.79758e-06 -1.91003e-22)
(-0.00726847 0.0144703 -5.40272e-22)
(0.00264833 -0.00183332 2.29619e-22)
(-1.4947e-05 -1.91275e-05 -7.96371e-25)
(-0.0170582 -0.0097851 0)
(-0.0101809 -0.00126942 2.3846e-22)
(-1.45489e-05 4.06697e-06 0)
(0.000302059 0.000159932 2.726e-22)
(0.0516817 -0.0184247 7.32623e-22)
(-0.0464231 -0.0025823 5.57775e-21)
(-0.00268253 0.00344417 -6.59706e-22)
(-0.000270938 -0.000291385 0)
(0.0175633 0.0556655 0)
(0.000426783 0.000128571 -2.32266e-22)
(0.0700244 -0.0157271 0)
(-0.000180289 -0.000444557 4.1483e-22)
(-0.0120891 0.0345918 -1.49453e-22)
(-0.000316029 -0.000333546 0)
(0.00684014 -0.000372629 -1.56901e-21)
(0.00695354 -0.000483887 0)
(-0.000531493 -9.58723e-05 7.25682e-23)
(-0.000197323 -0.000412266 0)
(-1.56579e-05 2.14368e-05 -3.70774e-22)
(0.00518834 0.000664756 0)
(0.000456342 -0.0005274 7.89721e-22)
(-0.00221525 0.000965242 -2.44753e-22)
(-0.0009868 -2.42026e-05 7.1373e-22)
(-0.0393437 -0.215207 3.33513e-22)
(-0.000922351 -2.45996e-06 -7.25587e-22)
(-5.82042e-05 -3.89002e-06 4.58796e-22)
(1.61109e-05 -1.4883e-05 5.48107e-23)
(0.0810223 -0.010607 3.07784e-22)
(-2.35387e-05 -8.28826e-05 6.5089e-22)
(-0.0241703 0.144921 -1.46071e-21)
(-5.36184e-05 -2.23429e-05 0)
(0.00197375 0.00318662 0)
(-3.88513e-05 -7.82872e-05 3.10621e-22)
(0.000345741 0.000174245 2.78374e-22)
(0.00192609 0.00688483 -3.85694e-22)
(0.000240009 5.65175e-05 -1.10275e-23)
(-0.0112206 0.00573376 0)
(-0.00998912 -0.00235758 -2.96888e-22)
(0.000970441 -0.000309168 -1.65106e-21)
(0.00402606 0.0506043 5.68399e-22)
(-2.98325e-05 -1.40751e-06 -7.26059e-25)
(-0.0941639 0.134698 -2.78684e-21)
(-1.86552e-05 2.17204e-05 0)
(-2.719e-05 3.25274e-06 3.78443e-22)
(-5.58292e-05 -4.56217e-07 0)
(-0.00056613 0.000344296 -1.40312e-21)
(0.0289814 0.0932456 6.0699e-22)
(0.0335866 -0.0137199 -1.83602e-22)
(-0.000253602 1.82639e-05 0)
(1.58514e-05 1.30232e-05 -3.40323e-23)
(-1.75322e-05 1.37612e-07 2.57384e-22)
(1.27184e-08 -3.87072e-06 0)
(0.0123291 0.0600337 -4.67488e-22)
(0.00267137 -0.00209063 -5.07687e-22)
(-0.000813311 -0.000594504 -5.59598e-22)
(0.00253929 0.00128424 0)
(0.00658044 -0.000817129 -5.1201e-22)
(-0.000345891 -0.000335619 7.44889e-22)
(-2.92008e-05 -1.53089e-06 0)
(-2.7342e-05 -3.90444e-07 0)
(0.0130895 0.0348968 -3.19341e-22)
(-3.22596e-05 1.60363e-06 -3.6034e-22)
(0.00719001 -0.00014951 -8.81599e-22)
(0.00704803 -0.000342061 2.56279e-25)
(0.000110868 0.000164871 -6.47204e-22)
(-0.00936955 -0.00541586 2.9354e-22)
(0.00195593 9.33778e-06 8.0842e-22)
(-0.000684537 -0.000225742 3.14606e-23)
(-1.19369e-05 9.2387e-07 -2.28619e-22)
(-0.000509347 -0.000129015 -5.45309e-23)
(0.00138092 -0.00259872 3.60697e-22)
(0.00520632 -0.000705765 4.04332e-22)
(-0.00127986 0.000399099 0)
(0.0191711 0.00618281 1.14395e-21)
(-2.62684e-05 1.32371e-06 3.27968e-22)
(2.66443e-07 1.07721e-07 8.72179e-25)
(-0.000548282 0.000310923 9.83794e-22)
(0.013242 0.0439471 4.61376e-23)
(-0.0168181 -0.0112767 5.10121e-22)
(0.00581315 0.00187924 -1.17205e-22)
(-0.0149311 -0.0132636 1.69606e-22)
(-3.86759e-05 -1.57316e-05 -1.64358e-23)
(7.1297e-06 0.00610829 0)
(0.00658314 -0.00086771 -6.01197e-25)
(-0.036859 0.0230464 1.50344e-21)
(0.00286008 0.00469601 -4.59649e-22)
(-0.0877368 0.068223 2.50643e-21)
(0.0386889 -0.0384513 6.59558e-22)
(0.00665412 0.000244159 -1.21772e-21)
(0.00205691 -0.000144392 6.75229e-22)
(-3.7316e-05 -2.58984e-05 -2.26867e-22)
(-5.44599e-05 -8.94551e-06 -3.73642e-22)
(0.00795697 0.000673425 -5.03176e-23)
(7.90818e-05 1.62766e-05 1.16173e-22)
(-0.0225766 0.0347964 0)
(-0.0927287 0.0830642 -3.76736e-21)
(0.00725494 -9.75379e-05 1.13953e-21)
(-8.96611e-06 9.57219e-06 -8.6657e-23)
(-7.73602e-06 7.40078e-06 1.22083e-22)
(-2.66461e-05 2.14754e-05 -2.199e-22)
(-0.000819998 0.0473602 -7.15324e-23)
(0.00279518 0.00348299 -2.19036e-22)
(-3.56324e-05 0.000309175 0)
(-0.000259368 0.000799144 1.04647e-21)
(-0.00331169 0.0120606 1.19293e-22)
(0.00227114 0.00706745 -3.16104e-22)
(0.0420058 -0.0277849 6.59431e-22)
(-9.88367e-06 -2.05278e-05 1.28232e-22)
(3.82431e-05 -4.75259e-06 2.65058e-23)
(-2.57103e-05 2.36175e-06 4.32984e-23)
(0.00236178 0.00669034 6.8985e-22)
(-2.58109e-05 -2.70131e-05 2.95078e-22)
(-0.00376344 -0.00396512 1.19746e-22)
(0.00889943 0.000310728 1.15821e-21)
(-0.020203 -0.049728 1.32017e-22)
(0.000581304 0.000264396 2.39887e-22)
(-0.000306774 -0.000287724 0)
(-2.47738e-05 -2.27484e-06 1.57979e-24)
(0.0083878 -0.0244739 0)
(2.08471e-06 -8.35429e-06 -1.8588e-23)
(-6.69028e-05 -0.00146015 1.13527e-25)
(0.0699624 -0.00930875 0)
(-0.00101704 0.0410342 4.10362e-22)
(-3.258e-05 1.38375e-05 6.71902e-23)
(0.0255718 -0.0197279 0)
(-4.66549e-05 1.15756e-05 0)
(-0.0026064 -0.0986892 1.47992e-22)
(-0.0234867 -0.0459625 -1.24427e-22)
(3.2417e-05 -2.8125e-05 0)
(-0.00214683 -0.00254478 2.68746e-22)
(0.0260591 -0.0361881 2.80206e-22)
(0.000141165 -0.000397456 0)
(-0.0070202 0.000330908 -7.37695e-22)
(-0.000320641 -0.000508514 -3.97104e-22)
(-1.76679e-05 2.01883e-05 -1.76294e-22)
(-4.96852e-05 7.23967e-06 -1.02556e-22)
(-0.00034393 -0.00051876 0)
(-0.00092935 0.000162913 -1.31146e-21)
(-0.00782594 0.000304844 -2.31603e-22)
(0.0430265 -0.0402254 3.63163e-22)
(0.00739084 0.00208369 3.25645e-23)
(0.000348592 1.64534e-05 2.76688e-23)
(-0.00027741 -0.000623248 1.98726e-22)
(4.30905e-06 -1.05612e-05 -1.83388e-23)
(-1.47639e-05 -1.74155e-05 1.38617e-22)
(-0.00666665 0.00514596 6.79474e-23)
(-2.74061e-05 -2.72298e-06 0)
(-1.28678e-05 1.06338e-05 -3.47263e-22)
(-0.0563279 0.0601955 1.92507e-21)
(0.0141982 0.00169241 -6.02931e-22)
(-1.91918e-05 2.06955e-05 2.51788e-22)
(0.0274414 -0.0197223 -1.88172e-22)
(0.00913584 -0.000111911 -1.05259e-21)
(0.00490556 0.0269109 1.39935e-23)
(0.0389147 0.0373199 0)
(0.000377196 -0.000551108 -1.9847e-21)
(0.00759158 -0.00498328 1.83214e-24)
(-2.73187e-05 -1.87622e-06 5.46679e-23)
(0.00654958 0.00559684 4.8364e-21)
(-2.22793e-05 1.03949e-05 0)
(0.00173313 -0.00631683 0)
(-1.87867e-05 9.2784e-06 -4.61107e-23)
(-0.00139784 0.00214507 0)
(0.0288683 -0.101867 0)
(-0.0710835 -0.137704 7.21916e-22)
(0.00177191 0.0136418 0)
(-0.0355026 -0.0523222 1.5398e-21)
(-2.94991e-05 5.72814e-05 -7.08026e-23)
(-0.00406301 0.0082765 -5.63542e-22)
(0.00231063 -0.000120279 6.81039e-23)
(-4.92654e-05 -2.00374e-05 -3.15225e-22)
(-0.000363605 -0.000497641 3.11569e-22)
(-1.74948e-05 2.05302e-05 3.45182e-22)
(0.0038753 6.22895e-05 -1.4556e-21)
(-0.0102599 0.00640069 -3.8102e-23)
(1.16731e-05 -1.77345e-05 -1.13055e-22)
(-2.14683e-05 1.98216e-05 -1.78184e-22)
(9.51409e-05 -3.84755e-05 0)
(-3.86605e-05 -7.60577e-06 3.83657e-22)
(0.0321246 -0.0790833 1.96241e-21)
(-0.000486404 -0.00020076 0)
(-1.99622e-05 -1.69861e-05 5.21849e-22)
(0.00166022 -0.0057264 -4.7475e-24)
(0.0280664 -0.116347 0)
(-0.00214564 0.0997519 -6.6147e-23)
(0.0535456 0.0993016 5.32638e-22)
(0.00554241 0.000333282 -9.34365e-23)
(0.00884922 0.000159926 0)
(0.00446896 0.00052865 1.93666e-21)
(2.36001e-06 6.07438e-06 1.46076e-23)
(0.0546168 0.0134492 2.26883e-21)
(0.00564408 0.000185997 -7.32409e-22)
(0.0141409 -0.0143783 -8.72743e-22)
(-2.72577e-05 -2.49722e-06 0)
(-0.0113688 0.00187711 -2.55419e-21)
(0.000140882 3.84236e-06 -2.62113e-23)
(1.07859e-05 0.000296875 0)
(-1.49668e-05 -4.33645e-06 0)
(0.00403146 0.0914189 1.26282e-23)
(0.0199042 -0.0970896 -2.33422e-21)
(-7.05479e-06 1.88644e-07 -1.76394e-22)
(0.000795862 0.000760419 -2.51507e-22)
(-2.32478e-05 4.13891e-06 -7.05227e-23)
(0.00356215 0.0013306 -1.21889e-21)
(-0.00695435 0.00382753 0)
(-1.41722e-05 -1.97669e-05 0)
(-5.21996e-05 -0.000984619 8.99543e-23)
(-3.55771e-05 1.27219e-05 3.97355e-22)
(-0.0200061 0.0533954 -3.38482e-22)
(0.0058695 -6.92101e-05 -4.48181e-22)
(-0.000915853 -0.000627063 9.31601e-22)
(-2.06509e-05 -1.63471e-05 1.5886e-22)
(-0.00819616 0.0266909 1.028e-21)
(-1.85882e-05 -5.12211e-05 -3.31652e-22)
(-2.05579e-05 5.60395e-05 -5.3133e-22)
(-3.9008e-05 -1.48662e-05 -5.15878e-22)
(-2.1075e-05 2.05219e-05 1.73937e-22)
(0.0598074 0.0916733 -1.00531e-21)
(-2.73951e-05 -5.99729e-06 1.37359e-22)
(-2.97815e-05 -8.9023e-06 -1.20176e-22)
(0.00218374 0.00332152 1.25298e-22)
(7.91022e-05 -0.00141992 -8.92046e-25)
(-3.58779e-05 -3.89787e-06 3.59567e-22)
(0.0115806 0.0642791 5.12708e-22)
(0.00140839 0.0101736 2.65519e-22)
(-1.86754e-05 -1.92304e-05 7.82936e-22)
(0.0347797 0.0526089 2.97046e-21)
(0.000936003 -0.00148067 0)
(-0.000225335 -0.00167026 0)
(-0.0019435 0.000671007 -9.82769e-22)
(-1.43883e-05 -1.82286e-05 -4.64714e-22)
(-2.272e-05 6.14451e-05 5.92281e-22)
(-0.0661938 -0.139868 -2.59683e-21)
(-0.00022926 0.000770806 0)
(0.0309907 -0.0151109 1.87044e-22)
(0.0256697 0.0207963 -5.28094e-23)
(0.0263995 -0.0226055 -5.70773e-24)
(0.00316339 0.0131021 0)
(-0.00741539 -0.00318761 8.6381e-22)
(0.00201107 0.072171 0)
(0.00682618 0.0357376 1.91529e-21)
(-4.83924e-05 -1.01822e-05 3.28438e-23)
(-8.6918e-05 -0.00186426 1.35032e-24)
(0.00225307 -0.00110877 0)
(-0.0700854 -0.136947 1.36032e-21)
(-2.58702e-06 -8.96598e-07 4.03569e-23)
(0.00270318 0.00463108 0)
(0.0143651 0.0639275 -1.21791e-22)
(-1.15095e-05 9.04647e-06 0)
(-2.90964e-05 6.08204e-07 -3.37624e-22)
(0.0312975 0.0532061 6.43027e-23)
(0.00229695 0.00275075 -1.06189e-22)
(0.0797471 -0.0490359 -1.57775e-22)
(-0.0361726 0.0480486 -1.23037e-21)
(-3.92189e-06 4.5517e-07 -1.48715e-23)
(-0.0586247 -0.120988 -1.93694e-21)
(3.21882e-05 -8.5487e-06 5.18486e-23)
(-5.10308e-05 -0.000112328 -9.71927e-23)
(-5.05437e-05 -2.00782e-05 9.5517e-22)
(-3.96723e-05 -1.76968e-05 5.3805e-22)
(-3.39895e-05 1.04364e-06 0)
(-0.0246842 -0.0489851 0)
(0.0312453 -0.0192904 -8.88883e-23)
(0.0177012 -0.0329333 0)
(0.00280679 0.0032418 -1.20547e-23)
(0.0385919 -0.0270894 -2.4041e-21)
(-0.0007733 -0.000603037 0)
(0.0234441 -0.0247043 -3.29146e-22)
(-0.0189261 -0.00889614 3.22563e-21)
(-0.0773571 -0.108093 4.13695e-21)
(-2.9897e-05 -8.85572e-06 2.56484e-22)
(-0.00730582 0.00036891 -2.58528e-22)
(-3.55101e-05 1.02872e-05 -5.44549e-23)
(0.00373866 0.00207812 2.93056e-22)
(-0.010724 -0.121051 7.77304e-22)
(0.00253644 0.00517221 -3.71284e-22)
(-1.69124e-05 9.32089e-06 0)
(-0.0153744 0.00490555 -1.99476e-21)
(0.0287764 -0.0204698 0)
(-0.000161718 0.00122132 -7.74563e-22)
(-0.000260558 -8.28013e-05 0)
(-3.63579e-05 -3.92806e-06 3.61804e-22)
(0.00694234 -0.000538965 0)
(-3.99267e-05 -1.38257e-05 -1.45043e-22)
(0.00139718 0.00320209 -7.74805e-22)
(-0.020615 0.0452654 -3.26177e-22)
(-3.57823e-06 5.84525e-07 0)
(3.91973e-06 -1.0326e-05 -4.4364e-24)
(0.0232647 0.0954571 -7.41164e-23)
(-2.55415e-06 -1.15837e-06 0)
(-0.0424526 0.0395962 0)
(-2.07499e-05 2.08193e-05 4.34381e-22)
(-1.05851e-05 -1.76239e-05 2.38515e-22)
(-0.000448346 -0.000231611 0)
(-0.000251576 -6.62553e-05 0)
(-0.0010004 -0.000729757 3.04727e-23)
(0.00582124 2.94951e-05 1.26486e-21)
(-0.00648602 0.00407713 -3.58353e-23)
(0.000635599 0.000263303 -4.54646e-22)
(-1.43167e-05 5.75171e-05 0)
(0.00707732 -0.0248687 0)
(0.00118368 0.000630665 0)
(-4.32593e-06 -0.00112878 0)
(3.08835e-05 1.10267e-06 2.61293e-23)
(-8.01838e-05 -3.05582e-05 7.98071e-22)
(-0.0206643 0.041256 -7.32088e-22)
(0.000587965 0.00553039 2.36457e-24)
(-5.23258e-06 -4.79468e-07 -1.55342e-23)
(0.0063754 0.0014141 -1.92804e-22)
(0.0128706 0.00892494 3.06187e-22)
(2.83277e-06 4.25082e-06 3.87623e-23)
(0.000899617 0.00191722 -2.1789e-21)
(-0.0053982 0.00414099 0)
(-3.40077e-05 -5.20714e-08 2.14193e-23)
(-6.35236e-06 1.49851e-06 -8.02416e-23)
(-7.1025e-05 -6.60839e-06 2.31535e-22)
(0.0199557 0.0886238 5.7051e-23)
(0.00815846 -0.0333583 5.58096e-22)
(-1.94983e-05 -1.85937e-05 -8.13267e-22)
(-0.000280863 -0.00061366 0)
(-0.0139324 0.0683744 -3.16469e-22)
(-1.90418e-05 2.03906e-05 -4.46693e-22)
(0.00675009 -0.000705443 5.17996e-22)
(-6.59029e-06 3.82449e-06 -3.10358e-23)
(0.00157396 0.000863431 0)
(0.00017561 -0.000128589 0)
(0.00113191 -0.00280429 0)
(8.1275e-07 1.45384e-07 4.64344e-23)
(-0.00249831 -0.0260161 8.08188e-23)
(-0.0424572 -0.0172096 2.22997e-21)
(-3.29763e-05 1.39946e-05 -2.94075e-22)
(-0.0704185 -0.125295 1.6254e-22)
(-2.00891e-05 2.15409e-05 -4.48613e-22)
(0.0284267 -0.0240981 0)
(0.000774659 -0.00145236 0)
(-8.12593e-05 -3.05937e-05 -5.16342e-22)
(-0.0147195 -0.000375601 -2.17795e-22)
(-1.26946e-05 -1.85808e-05 2.33543e-22)
(-2.17173e-06 3.91086e-06 0)
(-1.26022e-05 8.23917e-06 1.28726e-22)
(-0.00035187 -0.000492146 -9.75291e-22)
(0.0036101 0.0375313 7.37007e-22)
(-7.07187e-05 -1.21155e-05 0)
(0.00937453 -6.77892e-05 0)
(-0.0057366 1.8173e-05 0)
(-0.00146065 0.00153435 1.45704e-21)
(-2.32732e-05 -4.59156e-05 0)
(-4.07787e-05 -6.96944e-05 0)
(-4.99689e-06 -6.47166e-07 1.61542e-23)
(4.74885e-05 1.62985e-05 -3.49106e-23)
(-4.89141e-08 1.59511e-07 -1.31141e-22)
(-0.00792572 -0.00297819 9.72683e-22)
(0.0371088 -0.00784268 0)
(0.00322095 0.00834799 -2.72453e-22)
(6.12795e-06 0.000191376 3.29165e-23)
(0.0372472 -0.102507 5.47519e-22)
(2.60845e-05 4.19631e-05 -1.06864e-24)
(0.0265434 -0.024999 0)
(2.78943e-05 1.41494e-06 -3.39636e-23)
(0.0229114 0.0206801 0)
(-6.49127e-06 3.24859e-06 -1.28962e-22)
(0.00789438 0.000610615 9.40139e-22)
(8.00526e-07 -3.85935e-06 1.24129e-22)
(-0.00501345 0.000449523 0)
(-0.000238607 -0.000357519 -1.17069e-21)
(0.00733042 -0.000188169 0)
(-1.97775e-05 2.11966e-05 1.82299e-22)
(0.000253986 -0.000200843 0)
(-0.00108237 -0.000197724 -1.95685e-22)
(-0.000100702 -0.0010001 -1.58025e-22)
(0.000483429 -0.000324455 0)
(0.00533931 0.00203343 0)
(-7.2059e-06 -5.56892e-06 1.02728e-23)
(-8.10088e-06 -2.11602e-05 5.06818e-22)
(-5.2064e-05 -3.18231e-05 6.24391e-22)
(-0.000435257 -0.000196384 -4.41527e-25)
(0.0050546 0.000779771 0)
(0.000672151 0.000675406 -1.24846e-22)
(0.00154027 0.00070985 -1.16105e-22)
(-0.0732574 -0.108442 -1.74404e-21)
(0.00795769 0.000595505 0)
(0.000151248 -0.000142741 -3.40651e-23)
(0.00884612 0.000109134 -1.03355e-21)
(0.00314951 0.00319427 4.78982e-22)
(0.0803508 0.0748239 3.41794e-22)
(0.00938233 1.29998e-05 0)
(-3.91164e-05 -7.561e-05 0)
(-0.00221307 -0.0440189 8.13094e-23)
(0.00673841 -0.00074856 1.53581e-21)
(-0.0724286 -0.140261 -8.41282e-22)
(-5.15483e-06 8.04172e-06 6.94877e-23)
(0.00068554 0.082966 -5.58207e-23)
(-1.43297e-06 1.97909e-06 -2.22934e-23)
(1.99233e-06 -1.28485e-06 7.47346e-23)
(0.00812476 0.000676578 3.79951e-22)
(-0.000260751 0.00374661 9.07856e-22)
(0.00207714 0.0028708 0)
(0.058035 0.0532876 0)
(0.0534425 -0.0231759 -4.16478e-22)
(-2.13405e-05 1.97399e-05 -8.82695e-23)
(-0.00158041 -0.0010316 -9.08063e-22)
(-0.0537837 -0.119102 -1.9868e-22)
(-0.0282663 -0.0485578 0)
(0.00949837 2.89697e-05 0)
(-0.000714612 -0.000132987 3.06156e-23)
(-3.59609e-05 1.1084e-05 5.60465e-23)
(-0.00148297 0.000411818 -2.43131e-21)
(-1.36531e-05 5.26259e-05 -1.63279e-22)
(1.69936e-06 -4.4562e-06 0)
(-3.01344e-05 -9.89544e-06 0)
(-0.000230898 -6.44887e-05 0)
(-1.73414e-05 9.57326e-06 0)
(0.00310185 0.000678252 1.46499e-22)
(4.01714e-06 -8.23696e-08 -1.07552e-22)
(-0.00381612 -0.0278245 -9.1235e-23)
(-3.22189e-05 1.39268e-05 0)
(0.000812537 0.00205064 1.67441e-21)
(-1.78932e-05 1.42257e-06 0)
(-0.000560719 0.053511 4.57282e-22)
(0.0349568 -0.000778037 -1.02322e-22)
(0.000166242 0.00406817 -1.00283e-21)
(-0.0943205 0.121797 1.11948e-21)
(0.000106067 -4.78302e-06 0)
(0.000158674 -0.000461186 0)
(-7.10761e-05 1.96802e-05 2.40975e-22)
(-0.000251179 0.00117487 8.63179e-22)
(-0.00019018 -0.000211854 0)
(-3.59285e-05 1.35165e-05 -6.29389e-22)
(0.0329559 -0.0365983 0)
(-0.00588274 -0.0423625 -2.97101e-22)
(-1.31928e-05 3.55449e-06 2.89399e-22)
(-0.000236202 -0.000429139 3.21524e-22)
(0.00164402 0.000771085 2.05595e-22)
(-2.37009e-05 -2.84866e-05 -6.4557e-22)
(0.0387754 -0.0345254 0)
(0.0291447 -0.0234074 8.92194e-22)
(0.00498615 0.000960712 -2.17321e-22)
(-6.71574e-05 2.36916e-05 -5.72497e-23)
(0.0020826 0.00797726 1.54749e-21)
(6.66069e-05 -4.17854e-05 -2.47731e-23)
(-3.75708e-05 -4.73867e-06 -3.57396e-22)
(0.0001784 0.00405103 1.08204e-21)
(3.2739e-05 -5.78795e-06 0)
(7.65483e-06 -7.4172e-06 1.96489e-23)
(-6.43252e-05 -1.81958e-05 7.29247e-22)
(-0.00204905 0.000688862 1.01182e-21)
(0.000644345 -9.86628e-05 -1.12548e-22)
(-0.000136863 -0.000365321 1.44812e-23)
(0.00966725 -0.0596331 0)
(-3.40471e-05 -4.62226e-06 -6.52757e-22)
(-0.000272685 -0.000601485 0)
(-6.95907e-05 0.00024651 -3.62322e-22)
(0.000142515 0.000556855 3.40124e-22)
(-0.0193739 0.0517454 2.34926e-22)
(0.0134582 0.00893622 -5.17839e-22)
(-0.0146339 -0.12316 -8.7812e-22)
(-8.42273e-06 5.28403e-05 2.73163e-22)
(-2.50874e-05 -4.71632e-07 4.14609e-22)
(-7.10504e-05 -1.82605e-05 4.69773e-22)
(-4.88798e-05 -0.000114996 9.00134e-23)
(-8.75197e-06 5.45644e-07 0)
(0.0086808 -0.00509948 5.5753e-23)
(0.00150366 -0.00202957 0)
(0.00228498 0.00106557 -1.61243e-21)
(0.00947224 -3.87898e-05 0)
(-2.7094e-06 -3.5809e-06 1.70781e-23)
(0.0374277 -0.0313822 1.92186e-21)
(0.000315894 0.00429551 1.17174e-21)
(-3.66599e-05 -7.24973e-05 1.35951e-22)
(-1.87539e-05 -3.59609e-06 0)
(-0.00120838 0.00210997 1.57657e-22)
(0.000652474 -0.000175563 2.83789e-22)
(0.0245747 -0.0356016 1.18898e-21)
(0.00210198 -0.00128677 -1.95648e-22)
(1.35434e-06 1.00312e-05 -2.68107e-23)
(0.0237956 -0.0278947 2.41605e-23)
(0.0131454 -0.0154651 7.86273e-22)
(0.00773549 0.000677136 0)
(-0.00078996 0.00223994 -3.75174e-22)
(-0.000101828 -0.00026043 -4.0163e-22)
(-2.29513e-05 -7.30991e-06 0)
(-2.62927e-05 2.01e-07 -1.69609e-22)
(-0.069194 -0.133735 4.63252e-21)
(7.79613e-05 -9.38366e-05 1.17769e-23)
(-0.000282489 0.0492495 0)
(0.00033635 -1.9972e-05 0)
(0.00345275 -0.0799602 0)
(-0.000559488 -0.000554242 -7.409e-22)
(-1.69859e-05 1.77179e-06 -1.44996e-22)
(-2.01147e-05 2.18405e-05 1.19321e-22)
(0.00176094 0.00748017 -1.22444e-21)
(-6.82382e-05 -8.13433e-06 6.41746e-22)
(0.0048762 -0.00040512 -7.22073e-22)
(8.59966e-05 2.4659e-05 -1.40433e-22)
(0.00562256 0.00188577 5.0656e-22)
(-8.12128e-06 -2.32608e-05 5.44067e-22)
(0.000129109 -0.000104061 3.8677e-23)
(0.00497028 0.000920392 9.60465e-22)
(-0.00167027 -0.00155787 -9.41812e-23)
(-0.000245377 -0.000350181 5.90059e-22)
(-2.16961e-05 5.3772e-06 -4.87607e-23)
(-1.7243e-05 -2.14443e-05 -2.44194e-22)
(-0.00019664 -0.000392647 -9.01787e-22)
(-8.92087e-06 -5.44348e-07 4.03511e-24)
(0.000640724 -0.00162076 -6.65751e-22)
(0.0269799 0.075273 1.8353e-21)
(-3.796e-05 -1.42987e-05 0)
(-0.0760623 0.00174141 -3.61025e-21)
(-0.00672954 -0.00411656 -1.83856e-21)
(0.000397231 0.00032135 -7.91827e-25)
(-2.81661e-05 1.49254e-05 -5.04148e-22)
(-0.00565345 0.0158106 0)
(-0.00607677 0.000560879 0)
(-0.00087594 0.000747261 0)
(0.000275345 0.0158416 1.82823e-21)
(0.00890614 -0.000103595 -3.25368e-22)
(-0.000509535 0.00240232 -5.83047e-22)
(0.00475491 0.00242523 1.8227e-22)
(2.85041e-05 0.00020644 1.61275e-22)
(-2.70216e-05 -2.2738e-05 0)
(1.92201e-06 -2.91185e-05 4.73577e-23)
(-0.0601846 0.02393 0)
(0.00212403 0.00288835 -6.85409e-23)
(-6.36934e-05 -0.000131882 4.24076e-22)
(-0.0372274 -0.0476327 0)
(0.00170735 0.000661506 1.30857e-22)
(0.0562771 -0.0705717 1.912e-22)
(-0.0019968 0.000687807 2.74347e-22)
(0.0533496 -0.0763297 -3.51237e-22)
(-0.000263115 0.000436786 7.75289e-22)
(-1.81772e-05 -2.08615e-05 -1.00882e-21)
(0.000854889 -0.000348808 8.02906e-25)
(-0.000737925 -2.27327e-05 0)
(0.0389486 -0.00701095 0)
(-0.00095056 -0.000602991 7.20136e-23)
(-0.000222041 -5.01791e-05 0)
(0.00910761 0.000120919 1.25154e-21)
(-2.31187e-05 -4.73783e-06 0)
(-0.000688878 0.0106994 -2.16182e-21)
(0.00239017 -0.000220297 0)
(-3.02081e-05 -9.89839e-06 1.32715e-22)
(0.0018698 0.0749796 -4.36843e-21)
(-4.06904e-05 -0.000140112 -1.9628e-22)
(-2.9234e-05 4.95704e-06 0)
(-0.000121906 -0.000148806 -7.75612e-22)
(0.00816842 0.000614644 3.99598e-22)
(-0.0001783 -0.000210396 4.22788e-22)
(-2.09086e-05 2.10149e-05 -1.30796e-22)
(-0.0028487 0.000226337 -2.63991e-22)
(0.00582434 0.0018042 2.9469e-22)
(-0.0394642 0.0405118 0)
(0.00177346 -2.01731e-06 -1.14516e-21)
(-1.247e-05 1.15455e-05 1.15337e-22)
(-0.000230742 -0.000333288 -8.85162e-22)
(-0.00541279 0.0363693 0)
(-0.000336157 0.000138731 0)
(-4.4068e-05 2.00035e-05 0)
(-0.0028036 0.000483589 2.68652e-22)
(0.000751454 -0.00557597 1.98011e-23)
(0.0485382 -0.0968961 0)
(0.00935313 -0.005908 -7.05264e-23)
(-4.08325e-05 -7.25426e-05 5.23831e-22)
(0.00766116 0.000724621 4.45171e-22)
(-0.0192781 0.0169949 8.48647e-22)
(1.55455e-05 -0.00119084 5.55102e-22)
(0.0004046 -0.0036178 5.91269e-22)
(-0.000673739 0.0156233 -2.12261e-21)
(-0.00020479 -0.000184595 0)
(0.000472011 0.00436386 -5.64049e-22)
(-0.0143198 0.00822434 1.09828e-21)
(-5.57041e-05 -4.72457e-05 -8.00417e-22)
(-0.000163173 -0.000260647 0)
(-0.00670099 0.000209152 1.21123e-21)
(0.0888413 -0.0507368 -4.85106e-22)
(-0.000105475 -9.18687e-05 0)
(0.0029662 0.00376591 8.52169e-22)
(0.00489099 0.00110047 0)
(-2.50215e-05 -6.06336e-07 2.20885e-22)
(0.0132297 0.00753387 -5.39093e-21)
(-0.00184595 -0.00172521 2.90315e-22)
(-0.00730242 -0.00394005 4.94223e-22)
(-6.55934e-05 -1.20221e-05 5.29954e-22)
(-2.58995e-06 2.01979e-07 9.44483e-24)
(-2.72207e-05 -2.91146e-06 0)
(-0.0611227 -0.137691 3.3978e-21)
(0.0720968 -0.00498291 -8.51737e-23)
(-0.0361032 0.0617169 -2.20914e-21)
(-0.0512197 0.0468076 9.19168e-22)
(-0.00680982 0.00189086 0)
(0.00932385 -7.92164e-05 -1.44169e-22)
(0.0286294 -0.112276 0)
(-6.54431e-06 1.84041e-06 -7.59705e-25)
(-0.00668239 -0.0505724 1.48228e-22)
(0.00887866 0.0001793 0)
(-0.0129241 0.0280782 -3.34941e-22)
(-0.0589652 -0.136243 0)
(3.3424e-05 -1.60244e-05 2.95108e-23)
(0.05409 -0.0969039 1.94399e-21)
(-2.7088e-05 3.53262e-06 -1.02457e-24)
(3.78448e-05 -2.30131e-05 0)
(-5.53302e-05 -1.8303e-05 1.88182e-22)
(-0.0202845 0.0438884 -5.86582e-22)
(-0.000930973 0.000109153 0)
(-6.47167e-06 -2.30562e-06 0)
(-4.60261e-05 -3.50544e-05 1.24189e-22)
(-2.37964e-06 -7.97962e-07 -3.69266e-23)
(-5.45453e-05 -1.13375e-05 -3.95004e-22)
(-4.85041e-05 -1.99923e-05 0)
(-0.00268497 -0.000757773 -2.89185e-22)
(-0.000631149 0.0476491 1.35962e-21)
(-0.000539114 0.000818787 -1.06306e-22)
(0.000502802 0.00049743 0)
(-0.0380613 0.069545 0)
(0.00774636 -0.0563251 0)
(-2.55678e-05 1.42355e-07 1.66214e-22)
(-0.000262296 -0.000600683 0)
(-3.96773e-05 -1.67162e-05 -1.55335e-22)
(-1.13237e-06 -3.47418e-06 0)
(-0.0152937 0.0443691 -1.52957e-21)
(-1.03718e-05 5.5058e-06 2.89868e-22)
(-0.00918204 -0.0106495 7.06794e-23)
(-2.13192e-06 6.79182e-09 -8.9171e-24)
(0.000118074 -0.00193037 6.24326e-22)
(0.0004991 -0.0015711 6.56415e-22)
(-0.0527009 -0.136576 8.30154e-21)
(-2.3123e-05 -0.000104078 -3.5716e-22)