/*--------------------------------*- C++ -*----------------------------------*\
| =========                 |                                                 |
| \\      /  F ield         | OpenFOAM: The Open Source CFD Toolbox           |
|  \\    /   O peration     | Version:  v2012                                 |
|   \\  /    A nd           | Website:  www.openfoam.com                      |
|    \\/     M anipulation  |                                                 |
\*---------------------------------------------------------------------------*/
FoamFile
{
    version     2.0;
    format      ascii;
    class       volScalarField;
    location    "400";
    object      k;
}
// * * * * * * * * * * * * * * * * * * * * * * * * * * * * * * * * * * * * * //

dimensions      [0 2 -2 0 0 0 0];


internalField   nonuniform List<scalar> 
53008
(
0.00021478
0.000183531
0.0248111
0.000143984
0.000269587
0.000137317
0.000144168
0.000132582
0.000166772
0.00013782
0.000130016
0.000201674
0.000137808
0.00689236
0.00447752
0.000237025
0.000156134
0.0155571
0.000165902
0.000141306
0.000150171
0.0136644
0.0192667
0.00686271
0.000137715
0.000167515
0.0158849
0.000137517
0.0302555
0.000143949
0.000172152
0.000141285
0.0164742
0.000228549
0.000132816
0.000132891
0.000153854
0.000303207
0.000161093
0.0287945
0.0319759
0.00704392
0.000132749
0.000138824
0.00235643
0.0135558
0.00524871
0.00027784
0.000288454
0.017115
0.000163641
0.0351102
0.000161027
0.000165881
0.000169558
0.000224799
0.0168265
0.000148183
0.000139786
0.000149552
0.000141889
0.000139181
0.000150812
0.000163661
0.000139833
0.00971274
0.0438076
0.000189656
0.000151344
0.000140648
0.000142167
0.000143254
0.000161475
0.000143109
0.000184045
0.000161028
0.000132516
0.000139705
0.000167466
0.000146025
0.000137751
0.000138599
0.000226147
0.000172605
0.000142597
0.000160552
0.000194317
0.000187163
0.000169369
0.000141739
0.000130833
0.000141707
0.000147932
0.000142627
0.000187197
0.00104652
0.000140662
0.00013081
0.000137794
0.000140543
0.000141962
0.000149433
0.0174234
0.00013744
0.000142138
0.0191386
0.00459133
0.0192096
0.000153845
0.000303423
0.0297194
0.0431812
0.0249586
0.000138888
0.000157515
0.000146246
0.00319537
0.000165345
0.000194359
0.00137955
0.000130934
0.000151708
0.0284372
0.000169825
0.000133596
0.0227981
0.0144501
0.000211792
0.0133188
0.000165891
0.000131395
0.000130912
0.0247832
0.000178393
0.0433648
0.000141704
0.000154512
0.000147298
0.0422411
0.000131281
0.00442462
0.0445769
0.000174133
0.000162924
0.000127759
0.000171377
0.000170297
0.000183255
0.00016323
0.000144092
0.0215884
0.000139578
0.000186646
0.0163643
0.0137436
0.000158108
0.000245671
0.0217206
0.00013734
0.000154158
0.000135411
0.000138843
0.000129777
0.000144633
0.000129853
0.0077053
0.000209613
0.0243352
0.000131149
0.000136234
0.000181233
0.0216305
0.000148781
0.00710298
0.000137645
0.000135178
0.000163332
0.000146036
0.00020975
0.000160775
0.000178486
0.000166828
0.00013598
0.000137323
0.0149473
0.000138996
0.000129443
0.0223774
0.0269102
0.0211123
0.000136428
0.015702
0.000177289
0.00773493
0.0346522
0.000142696
0.000363363
0.000212988
0.000142718
0.0273418
0.000143835
0.00273466
0.000200553
0.000142989
0.000213078
0.000176769
0.000136407
0.00015135
0.00028325
0.0332591
0.000182018
0.000188863
0.00413361
0.000152023
0.0294526
0.000150692
0.00698715
0.000188039
0.0443131
0.0440325
0.000192683
0.000150412
0.000140546
0.0262347
0.000192338
0.0137168
0.00017077
0.00396497
0.000169974
0.000152157
0.000137239
0.000399754
0.000146988
0.0143929
0.000145714
0.00716799
0.000147997
0.000151663
0.00018386
0.000136581
0.00021934
0.000176896
0.000195761
0.00396295
0.000140461
0.0141985
0.00013983
0.000139587
0.000152208
0.000165148
0.0348232
0.000333843
0.000193248
0.000135212
0.00015495
0.000132519
0.00411769
0.00020056
0.000191113
0.0174076
0.0460123
0.000188054
0.00014039
0.00016143
0.00309194
0.000162506
0.0424817
0.0434516
0.000157833
0.000183468
0.000200757
0.000142055
0.000154506
0.000192061
0.00016054
0.00021087
0.00015797
0.00351743
0.000149132
0.000148805
0.000164915
0.00327914
0.000213988
0.0212712
0.000215817
0.000141819
0.000161998
0.0460427
0.00885654
0.0355403
0.0159115
0.000314476
0.0114994
0.000200568
0.000144595
0.000146024
0.0249444
0.000138911
0.000242039
0.0158758
0.0420946
0.000135062
0.000134887
0.000144396
0.00594355
0.000190132
0.000137626
0.000165826
0.00017713
0.0295929
0.000287399
0.000143211
0.000135204
0.000134213
0.000183832
0.000143432
0.000162011
0.0230075
0.000257722
0.000145635
0.000188893
0.000129309
0.0101612
0.000130532
0.000138008
0.0285444
0.0167862
0.000140202
0.000237801
0.0001527
0.00313522
0.000300142
0.000137924
0.000167199
0.00150472
0.000151085
0.0127777
0.000170999
0.000140352
0.000152521
0.000172002
0.000169561
0.012824
0.000327831
0.024174
0.000137133
0.000175623
0.000130916
0.000137025
0.000176399
0.000139115
0.000136159
0.0244791
0.00378672
0.000139859
0.00281829
0.024582
0.00549918
0.0138965
0.000191651
0.0031367
0.000150672
0.00260141
0.000135613
0.000163366
0.000135411
0.000176201
0.0316937
0.0199609
0.000179562
0.0307617
0.000147603
0.000168975
0.000147618
0.00014386
0.000183701
0.000140303
0.00419989
0.000222864
0.000137216
0.000138691
0.00013683
0.000143942
0.00911238
0.00013703
0.000142839
0.000160398
0.0235838
0.0263372
0.0203458
0.0250386
0.0141397
0.00351585
0.000132721
0.0156172
0.0248948
0.0201625
0.000139421
0.00390356
0.00013755
0.000137517
0.000136397
0.0257226
0.00877281
0.00015271
0.000147222
0.000134107
0.00021188
0.000189081
0.000143031
0.000186406
0.000141955
0.0126348
0.0271227
0.000192792
0.000142819
0.00290822
0.000152568
0.000147426
0.000141777
0.000138767
0.0209602
0.000136606
0.0001416
0.000153077
0.000138036
0.000143345
0.0147693
0.000175483
0.000142927
0.013342
0.000165337
0.000138732
0.000209599
0.00014303
0.000147681
0.0226505
0.000165395
0.000320604
0.0236737
0.000248321
0.000178053
0.000195275
0.016247
0.0173063
0.00014587
0.000139384
0.000159459
0.0219757
0.000140901
0.0355615
0.0147325
0.000133245
0.000164163
0.0133544
0.0332506
0.0131849
0.0152917
0.000150094
0.018806
0.000134959
0.000150024
0.00014402
0.000142166
0.000163694
0.0282376
0.000335511
0.000330025
0.000198032
0.0236189
0.000190589
0.000249702
0.000213112
0.0194511
0.000141638
0.014939
0.000141784
0.0114288
0.0167715
0.0341073
0.000133589
0.0034016
0.000324884
0.000168204
0.000152164
0.000143404
0.0441702
0.000142953
0.00439418
0.0149427
0.00015007
0.000130845
0.0324737
0.000139198
0.013756
0.000139373
0.000143114
0.000149878
0.000151905
0.000177768
0.00506205
0.000171838
0.000162605
0.000147461
0.00888668
0.00987599
0.000187309
0.000134941
0.000148522
0.000255273
0.000159795
0.000145106
0.0288531
0.00915438
0.000131666
0.000208427
0.000187088
0.000163672
0.000134243
0.000139789
0.0316384
0.000325094
0.000142905
0.000175616
0.00310909
0.00013995
0.0451691
0.000134055
0.000157488
0.00013589
0.000160539
0.000132606
0.000235782
0.0343895
0.000140247
0.0190548
0.000139477
0.000340499
0.00016484
0.000148503
0.000226812
0.000143072
0.000134562
0.00013506
0.000170519
0.00641727
0.000139821
0.0182229
0.00471417
0.0116082
0.000152381
0.000147725
0.000144591
0.000138146
0.000148414
0.000195226
0.0041688
0.0307637
0.000136711
0.0331425
0.000138588
0.000344535
0.00013488
0.0242603
0.000134127
0.0232932
0.000133635
0.0119954
0.000162537
0.0418842
0.000139589
0.000136623
0.000148486
0.000186135
0.000160169
0.0391106
0.000129275
0.0001433
0.00015077
0.000149671
0.0355941
0.000146781
0.000157261
0.019195
0.0233144
0.000135769
0.0109109
0.000195945
0.0218536
0.0105692
0.000147866
0.000376924
0.0452702
0.0206443
0.000133649
0.0261415
0.00012939
0.000132872
0.0269941
0.000839487
0.0321224
0.0123311
0.000296741
0.00013861
0.000181981
0.0191116
0.0285565
0.0135484
0.000142013
0.000141928
0.000203564
0.000147243
0.000132968
0.000141498
0.000151627
0.000137393
0.0129076
0.000131104
0.000240901
0.000140171
0.000209666
0.000157216
0.0206355
0.0054758
0.0150416
0.015041
0.00013478
0.000151476
0.00013954
0.000168182
0.000157436
0.000142102
0.0244963
0.000388858
0.000138535
0.000165117
0.0109022
0.000143396
0.000301337
0.000235365
0.0198023
0.000139506
0.000185199
0.000136365
0.000143603
0.0137731
0.000134977
0.000131806
0.00014579
0.000210668
0.000145533
0.000150121
0.028857
0.000143152
0.000174654
0.000151047
0.000145711
0.0121813
0.000193828
0.0168533
0.00014727
0.000162389
0.000146478
0.000150003
0.000153482
0.00070881
0.000159373
0.0152987
0.0147792
0.000129649
0.0236412
0.011363
0.000147327
0.000136386
0.000175475
0.000145526
0.0115478
0.000159337
0.000131991
0.00026
0.0180502
0.0238445
0.00015383
0.000156553
0.00013661
0.00015606
0.01882
0.00013473
0.00758824
0.000137012
0.0405557
0.000186791
0.000154009
0.000139226
0.000184876
0.000144747
0.000210029
0.000139141
0.0390985
0.00014335
0.000135351
0.0334296
0.000156738
0.000162526
0.000135802
0.000143017
0.000162961
0.000144312
0.000164821
0.0333938
0.000144079
0.0320465
0.000195909
0.000138327
0.000144571
0.0171485
0.0160939
0.000156703
0.0225334
0.0130715
0.000153841
0.000179296
0.000150367
0.000130243
0.000135181
0.018841
0.000152133
0.000151164
0.0297333
0.000168708
0.0282727
0.0110779
0.0282432
0.000162754
0.000142991
0.000195216
0.000155735
0.000241916
0.000193435
0.00015138
0.0108019
0.00014232
0.000187787
0.00020154
0.000141541
0.00250635
0.000150714
0.000139768
0.000153985
0.0254198
0.000157159
0.000139265
0.000156491
0.0387129
0.0112729
0.000199942
0.00013612
0.000161694
0.00376162
0.000161049
0.000153106
0.000156406
0.000157855
0.0347346
0.000451945
0.000147881
0.0243046
0.00146866
0.000187353
0.000170354
0.0214831
0.000190646
0.00803593
0.00381202
0.000151045
0.000157822
0.0105415
0.0248671
0.000151317
0.0368234
0.0209664
0.000163142
0.00624656
0.000157364
0.000195984
0.000144977
0.000141305
0.000139405
0.0235575
0.0207557
0.0276888
0.0138033
0.000171069
0.0201053
0.0253294
0.000134183
0.00673002
0.0140023
0.00134274
0.0243145
0.000137683
0.0362023
0.000139483
0.000137929
0.000145498
0.0124403
0.000147738
0.000138834
0.000151219
0.000143801
0.000145647
0.000143728
0.000163937
0.00673728
0.000201035
0.00016315
0.00428173
0.0211955
0.00015415
0.000174287
0.000142034
0.000132343
0.0282185
0.000137566
0.000191039
0.000148234
0.00019053
0.000164357
0.0251302
0.000148697
0.0285438
0.00014308
0.0328013
0.000143206
0.0192532
0.000157557
0.003429
0.00194115
0.00018668
0.0243695
0.00013731
0.000151148
0.000301373
0.000136836
0.026704
0.000144361
0.0121888
0.00019943
0.0298024
0.013011
0.000208649
0.000140838
0.000139736
0.000186016
0.000207004
0.0288238
0.0090641
0.000145499
0.000137638
0.0181654
0.000135445
0.000143474
0.000135975
0.000242108
0.000193441
0.0318507
0.0276609
0.000150626
0.0148132
0.0132599
0.000165029
0.0189111
0.000163638
0.000155824
0.000140851
0.000145845
0.0280541
0.000157816
0.000139271
0.00015627
0.0151447
0.00027145
0.000138358
0.000133706
0.0160798
0.000132109
0.000132448
0.000138614
0.0125074
0.000134897
0.000190634
0.00013749
0.00012934
0.000195803
0.000145778
0.0149901
0.0189626
0.00999455
0.0268113
0.037471
0.0314486
0.000138389
0.00013561
0.000140115
0.00013505
0.000143433
0.000189706
0.0175759
0.000142852
0.0314251
0.000201598
0.000153097
0.000169573
0.00836406
0.000138529
0.000135102
0.00014391
0.000164996
0.0282141
0.0333713
0.025899
0.000200972
0.000144112
0.000160013
0.000151523
0.000138574
0.0279336
0.000133511
0.00888352
0.000204266
0.000147414
0.0220786
0.000136274
0.000159733
0.000186456
0.00014577
0.000145786
0.0100145
0.0265986
0.000157619
0.000206259
0.0310748
0.000235876
0.000171425
0.000194986
0.000128956
0.00161089
0.00014495
0.000134245
0.000132769
0.000187734
0.00014195
0.000134678
0.000133259
0.000132572
0.000163309
0.000151446
0.000144986
0.000145753
0.000144725
0.000132276
0.000143827
0.000145648
0.000141861
0.000151357
0.0346013
0.00020558
0.000153408
0.00016531
0.000155342
0.000135361
0.0314462
0.000148578
0.000132844
0.0120207
0.000136717
0.00751426
0.0223239
0.000245083
0.0160669
0.000151011
0.0244598
0.000145479
0.000137704
0.000138857
0.0018163
0.000147838
0.000385113
0.00633341
0.000204818
0.0138439
0.000149736
0.000142802
0.0284174
0.000197423
0.000136604
0.0182772
0.000208378
0.00886371
0.000138353
0.00015753
0.0195296
0.000132259
0.000247171
0.000187199
0.000236607
0.0189303
0.000143022
0.000236208
0.000146464
0.000250717
0.000148539
0.0144327
0.000139111
0.000151204
0.00013374
0.0211149
0.000164
0.000142718
0.00013521
0.000156148
0.000134131
0.016984
0.000158227
0.000138544
0.000187209
0.000138334
0.00014049
0.000130586
0.000164579
0.000151827
0.0303248
0.00029318
0.000177917
0.000142671
0.00015894
0.000337519
0.0136717
0.00156512
0.00941964
0.0185632
0.000129898
0.000156093
0.000140624
0.0252173
0.000167725
0.0167539
0.000130016
0.000137846
0.0284622
0.000129861
0.0128468
0.000343801
0.0257675
0.00397589
0.000139078
0.000171805
0.000307138
0.0407205
0.00558238
0.000138211
0.000153569
0.000152005
0.000136896
0.000153221
0.000136269
0.00028852
0.000181937
0.00994308
0.0154068
0.000204176
0.0325038
0.000172262
0.0103991
0.000137929
0.00422892
0.0179426
0.000204233
0.0262699
0.000161829
0.000161016
0.00423523
0.000127797
0.000136589
0.000148075
0.000157086
0.000129333
0.00299559
0.0100845
0.0245408
0.000167566
0.000131574
0.000148093
0.0400417
0.000137949
0.000133877
0.000147902
0.000129927
0.000379092
0.000345464
0.0152018
0.000132246
0.000162737
0.000194753
0.000151857
0.000137971
0.000146048
0.000157857
0.0298291
0.000152038
0.000136484
0.000131542
0.0297737
0.000161933
0.000158403
0.00016189
0.0049772
0.00179215
0.0270973
0.0236839
0.000187858
0.000286826
0.000217149
0.000193667
0.0108733
0.000139359
0.000142575
0.000156003
0.000140462
0.000147069
0.0188101
0.000132312
0.000157845
0.000202685
0.00014457
0.024908
0.0122215
0.000157549
0.00025239
0.000196588
0.000195718
0.0124246
0.000216202
0.00885403
0.0051308
0.000177381
0.000183875
0.000151128
0.0312015
0.000183865
0.0296211
0.000141158
0.0001375
0.010908
0.000158486
0.000153985
0.0316437
0.0063723
0.0134753
0.000162382
0.000208723
0.0368138
0.0103845
0.0100795
0.000147751
0.0114428
0.000155047
0.0151265
0.000133659
0.0277037
0.00018798
0.0146902
0.000151297
0.0179231
0.000397991
0.000178956
0.000150605
0.000298195
0.000151662
0.00014887
0.000177341
0.00012933
0.000151072
0.00281057
0.000149156
0.000138516
0.000201616
0.000138604
0.000141997
0.000364783
0.000148087
0.000164766
0.00019185
0.000198776
0.000169818
0.000199519
0.022045
0.000187705
0.00638981
0.0325095
0.000131708
0.000139129
0.000162362
0.0163866
0.00422954
0.000134681
0.0372735
0.000166283
0.000161466
0.000143134
0.00015162
0.0288798
0.00015603
0.0189509
0.0116566
0.0151007
0.000144517
0.000151697
0.000138294
0.000136782
0.0372162
0.0001575
0.000141464
0.000160322
0.000130447
0.0103079
0.000213777
0.000136627
0.000153005
0.000157428
0.0177662
0.0388202
0.0271896
0.00125928
0.00258794
0.000133491
0.000181026
0.000133233
0.00013794
0.0364806
0.00018638
0.0151209
0.000136725
0.000135051
0.000139496
0.00306151
0.000147163
0.0179898
0.000148141
0.000190568
0.000191084
0.000131773
0.0036017
0.000147319
0.000189097
0.000148503
0.000137285
0.000133797
0.000172201
0.0129258
0.0315732
0.000143158
0.00013542
0.0209073
0.00326807
0.000208672
0.0001373
0.01369
0.000148819
0.0355174
0.00013455
0.00166734
0.0165036
0.02149
0.00734152
0.000185961
0.000179757
0.000164416
0.000143305
0.000146287
0.000194011
0.0126955
0.00020162
0.000258826
0.000131785
0.0144064
0.00014319
0.0447175
0.000151154
0.000163147
0.030068
0.000150843
0.000148446
0.0013212
0.0260114
0.000136611
0.000146279
0.0001434
0.000141337
0.0223694
0.0214508
0.000143447
0.000216057
0.000183395
0.000137133
0.0110374
0.000141358
0.00015388
0.0192898
0.000181875
0.00410391
0.000174258
0.000150792
0.000152766
0.0286596
0.000211017
0.000146043
0.00381232
0.000151145
0.000135791
0.000148779
0.0268887
0.000139569
0.00017785
0.000132332
0.000143849
0.000129914
0.000150867
0.000162939
0.000148255
0.0313896
7.2163e-05
0.000164674
0.000143144
0.000133033
0.000149293
0.0403305
0.000146024
0.028619
0.000134729
0.000151026
0.0048729
0.0206037
0.000147058
0.0143738
0.000141374
0.00018927
0.0275557
0.000170858
0.0140062
0.000191585
0.0263956
0.000131742
0.00013933
0.00471909
0.000209011
0.00023722
0.0265889
0.012323
0.00447934
0.000142602
0.000169632
0.000737985
0.00195252
0.027337
0.000150802
0.000135014
0.000175485
0.0123564
0.000147198
0.000142644
0.0407566
0.000140506
0.0288962
0.00303573
0.000158931
0.000144932
0.00018766
0.00318613
0.000412457
0.000157487
0.000637973
0.0364097
0.0302803
0.000135079
0.000131421
0.000146045
0.00348554
0.00501842
0.0301743
0.0320428
0.00452513
0.000150579
0.000142178
0.000131674
0.000153457
0.00357358
0.0251153
0.00324363
0.000141969
0.000162937
0.000184831
0.000149462
0.0002053
0.000167
0.00552883
0.000173842
0.00594876
0.000133617
0.0316784
0.0319499
0.0142876
0.0307085
0.000138229
0.000142316
0.0270019
0.000153212
0.0119429
0.000140653
0.0318329
0.00014703
0.0158174
0.000189341
0.000136153
0.000155921
0.00014946
0.000129897
0.000155937
0.000148188
0.000135734
0.000146008
0.000138616
0.000147952
0.000145091
0.000133909
0.0372652
0.000332438
0.000167731
0.0257076
0.0241337
0.000192608
0.000166559
0.0242041
0.000142209
0.0206886
0.000138849
0.000159479
0.0310826
0.0143944
0.000147956
0.000178534
0.000208984
0.0222003
0.00245164
0.00228045
0.000140464
0.000148923
0.000150926
0.0282422
0.00013995
0.000437736
0.000133132
0.016641
0.000140435
0.000188964
0.000162727
0.000145265
0.000164962
0.000204333
0.0271973
0.0159977
0.000139897
0.000131487
0.0228778
0.00326737
0.0166323
0.000148553
0.000145066
0.000160819
0.00020966
0.000136834
0.000148319
0.000143064
0.000154001
0.0271075
0.000173935
0.000145157
0.000175782
0.00486001
0.000153591
0.000153404
0.00130126
0.0181138
0.000144611
0.000170995
0.000155624
0.00014063
0.000298923
0.00062096
0.00331482
0.000132937
0.000164327
0.000143584
0.000178318
0.00015307
0.000150119
0.000162787
0.000142205
0.000146261
0.00927017
0.000163848
0.0438383
0.000194991
0.000150809
0.000163148
0.0011149
0.000210777
0.0284662
0.000140392
0.000196399
0.000219095
0.000189991
0.000152304
0.0120054
0.0110836
0.00285872
0.000135612
0.00963743
0.000149432
0.00254167
0.00369704
0.000139598
0.0286314
0.000449321
0.00554691
0.00803096
0.0187075
0.000140177
0.00015353
0.000153496
0.0163371
0.0277001
0.00015431
0.000139681
0.000133663
0.000141738
0.00013824
0.0122322
0.0266667
0.000137976
0.000162796
0.00246463
0.000145089
0.000199007
0.000145879
0.0103336
0.000325193
0.000148679
0.000203085
0.000145466
0.000137958
0.0384762
0.0265729
0.0258856
0.000139526
0.000126921
0.000151096
0.000150443
0.000146204
0.000151426
0.000129077
0.000145301
0.000145224
0.0287786
0.0128957
0.0038888
0.0129972
0.0358424
0.000140074
0.0278444
0.000146365
0.000417937
0.0039051
0.0288074
0.000408594
0.000139248
0.000148039
0.000145269
0.000296628
0.000156548
0.000134539
0.000191559
0.000132119
0.000140935
0.000182495
0.0234953
0.000163566
0.000160104
0.0305356
0.0243411
0.000146248
0.000162652
0.00017187
0.000144668
0.00644984
0.000262039
0.000159234
0.000406538
0.000144381
0.0208528
0.000159771
0.00234523
0.000134364
0.000145634
0.000131954
0.000137795
0.000135829
0.00755152
0.0269747
0.000147527
0.027922
0.0160655
0.000138417
0.000149867
0.000523117
0.00054309
0.000153437
0.000145796
0.000174161
0.000153379
0.000153527
0.000138399
0.000199859
0.0258801
0.0264922
0.00558044
0.000164256
0.000163333
0.00207401
0.00522298
0.000200299
0.000132259
0.0108547
0.000150108
0.000149305
0.0357417
0.000138134
0.000147406
0.000134907
0.000190315
0.01912
0.00379578
0.0226988
0.000141578
0.0018917
0.000142031
0.0143162
0.000134322
0.0127652
0.000226291
0.000191636
0.00594687
0.000153272
0.000138111
0.000246442
0.000189482
0.000162068
0.000146733
0.00394169
0.000174055
0.000252388
0.000150249
0.000144169
0.000164211
0.000140867
0.00371249
0.00034981
0.00014921
0.000138143
0.000156009
0.000149452
0.000141554
0.0251246
0.000150833
0.000150481
0.0237995
0.00015143
0.000203051
0.000137693
0.00014077
0.000138105
0.000379444
0.0105558
0.000293239
0.000152832
0.00926822
0.0353327
0.0035723
0.000133508
0.030402
0.000155751
0.000140757
0.00925288
0.000132571
0.000146919
0.000145084
0.000129711
0.000399303
0.000141596
0.00014163
0.00015156
0.000134907
0.000210173
0.0216437
0.000180654
0.000146516
0.000198941
0.000133701
0.0277701
0.000138239
0.000204583
0.0321851
0.0221257
0.00641529
0.000155997
0.032436
0.0141612
0.000138344
0.000143616
0.0288172
0.00390146
0.00622965
0.000181926
0.000226291
0.000156464
0.000159164
0.025351
0.0336703
0.00015885
0.000282777
0.0121609
0.000147855
0.000134941
0.00036116
0.000205515
0.000156624
0.000151632
0.000131394
0.000196892
0.000850851
0.0407354
0.0297885
0.0260987
0.0309631
0.00372103
0.000136596
0.00216353
0.0435585
0.000133514
0.000138989
0.000257508
0.000146574
0.00445778
0.000131267
0.000173446
0.00016424
0.000151129
0.000140399
0.0153184
0.000193086
0.00323535
0.000153719
0.0135558
0.000161441
0.000133364
0.000224933
0.000129323
0.000138154
0.0216464
0.000154234
0.0020162
0.000151656
0.000149503
0.000186744
0.0378056
0.000135519
0.0020408
0.0412825
0.00381962
0.000145
0.000151577
0.00742046
0.000162358
0.0185658
0.000140123
0.000136627
0.0159019
0.000144248
0.000140717
0.000134973
0.00938827
0.00015754
0.0110741
0.000157271
0.000138889
0.000138214
0.000154649
0.028797
0.000172425
0.0126559
0.0204032
0.000354384
0.00013541
0.000149153
0.000150777
0.000191052
0.000136217
0.0233527
0.000144356
0.000189177
0.000144475
0.000182686
0.000153425
0.00298065
0.0045159
0.00013893
0.000230333
0.00194366
0.000143105
0.000138862
0.00206143
0.000202839
0.000149285
0.00671152
0.000132722
0.000132401
0.0156096
0.000192966
0.000141539
0.0213822
0.000170938
0.0344185
0.000271587
0.00188442
0.000176874
0.00490065
0.000163829
0.000145811
0.00319031
0.000138111
0.000145173
0.00348669
0.000153246
0.000137128
0.000203808
0.0131947
0.00321093
0.000136011
0.000159079
0.000143164
0.000147946
0.0152101
0.000146561
0.0248791
0.000224228
0.0274155
0.0170099
0.000196082
0.000179012
0.000171097
0.0257304
0.000136049
0.00219398
0.00500445
0.000153324
0.000132462
0.00522313
0.000204279
0.0114168
0.00014668
0.000143116
0.00499067
0.000153502
0.023519
0.000154132
0.00410903
0.043363
0.0001791
0.000145653
0.000131493
0.0017863
0.000242895
0.000156146
0.000157786
0.000148118
0.000132554
0.0291288
0.000155477
0.0001674
0.000137041
0.000191539
0.00014338
0.00990852
0.00521473
0.000188566
0.000208455
0.000176858
0.000147193
0.000144221
0.000137831
0.0106423
0.000138353
0.000143927
0.00773134
0.000131698
0.0145487
0.000128459
0.000147269
0.0318979
0.000139788
0.0295948
0.000147334
0.000171629
0.000167907
0.000138001
0.000131434
0.000136755
0.000133185
0.0221577
0.0342411
0.0247999
0.00813938
0.000132249
0.0338689
0.00013157
0.000160225
0.000143455
0.000261191
0.025369
0.000149532
0.000143048
0.00160932
0.000136631
0.000144137
0.016418
0.00495704
0.000156213
0.000143357
0.00954872
0.0267139
0.000142903
0.019764
0.000150102
0.000136596
0.000159015
0.0273591
0.000149854
0.000163969
0.00467043
0.00478831
0.000172247
0.000142643
0.0174319
0.000182036
0.0202538
0.029795
0.000133586
0.000186467
0.000135222
0.0002399
0.0201645
0.000134696
0.0136904
0.0199141
0.000202089
0.000146002
0.000172756
0.02784
0.0122973
0.00014317
0.00377431
0.000129622
0.000136302
0.0228539
0.000141054
0.000143387
0.00015108
0.000191303
0.0281919
0.00015063
0.000169575
0.000144463
0.000142716
0.031102
0.000169081
0.000158101
0.021992
0.000253069
0.000163381
0.000176416
0.027381
0.0100291
0.000144463
0.00492141
0.000134534
0.006898
0.0322253
0.000128798
0.000197386
0.000160111
0.00021778
0.000144978
0.000198639
0.0041886
0.000134557
0.0154012
0.000145093
0.000141054
0.000150371
0.000144735
0.022747
0.000143242
0.000145773
0.00599718
0.0102062
0.000137596
0.000169344
0.00016532
0.000148294
0.000167503
0.0175854
0.000150198
0.000203187
0.000134178
0.000164802
0.000168308
0.000174134
0.0296549
0.0246099
0.000137565
0.0037793
0.0317655
0.000158556
0.0197411
0.0159736
0.00235767
0.000138128
0.000128774
0.000136778
0.000142448
0.000161838
0.000255331
0.0324535
0.000143964
0.000132508
0.000219192
0.021078
0.000162531
0.00371685
0.000230208
0.000160379
0.00431462
0.000141523
0.00404735
0.000170891
0.000143643
0.0157831
0.00793459
0.0129392
0.00486043
0.000165654
0.000148336
0.0325495
0.00014006
0.0231939
0.000132574
0.000173367
0.000191258
0.0124518
0.000150937
0.00302977
0.00311306
0.000297592
0.00022792
0.000139025
0.028381
0.000292454
0.0195892
0.000140335
0.000137153
0.000137592
0.000128463
0.00013622
0.000150477
0.000217809
0.000143023
0.000154099
0.0102406
0.000182757
0.000181981
0.000182767
0.000150466
0.0300176
0.000150741
0.000147505
0.000172407
0.0371752
0.000162603
0.000144552
9.89409e-05
0.0179483
0.0196675
0.000151525
0.00438758
0.000211891
0.000151034
0.0369739
0.00019903
0.0105827
0.000136265
0.000149228
0.00750123
0.00865692
0.000186491
0.00018364
0.0250709
0.025767
0.000140187
0.000162753
0.000154475
0.000211042
0.000167266
0.00395124
0.000145761
0.000880469
0.000150531
0.0125013
0.000139954
0.000173788
0.000173966
0.000188059
0.0254111
0.000141039
0.0166904
0.0274784
0.0384245
0.00016406
0.000205302
0.000140169
0.00417039
0.00406413
0.000136131
0.000134716
0.0296977
0.0144748
0.00517522
0.00680956
0.0170849
0.000143454
0.000206444
0.00561764
0.000143924
0.000145455
0.000211113
0.000155728
0.00407934
0.000133689
0.000151497
0.000143426
0.031759
0.0311403
0.000138618
0.000143427
0.00014408
0.000153132
0.000180231
0.00572593
0.000190902
0.000148608
0.000150177
0.000143047
0.0125824
0.000152082
0.000138955
0.00348581
0.0280983
0.000162156
0.000144721
0.000138641
0.000152068
0.0050231
0.000141025
0.00018161
0.00014323
0.000132692
0.000163872
0.000237079
0.000473741
0.000332539
0.00184349
0.000292105
0.000132543
0.000138427
0.00036128
0.000202649
0.000141709
0.000196908
0.000194485
0.000137706
0.000133347
0.00653543
0.000160194
0.000128284
0.000153096
0.0316149
0.000136534
0.000192424
0.000138911
0.000133827
0.000176192
0.000148629
0.000135426
0.018372
0.000191618
0.000143677
0.000142989
0.000202889
0.00015568
0.00312754
0.00342911
0.000150431
0.000127782
0.0258431
0.00774151
0.000150369
0.0330168
0.000224676
0.000165807
0.000180155
0.0384376
0.00971818
0.015896
0.000145754
0.00417796
0.000143405
0.000169307
0.000153526
0.000208512
0.00457347
0.00208157
0.000177574
0.00366771
0.0283975
0.000690393
0.000151469
0.000138052
0.0298605
0.00488399
0.000136236
0.00015037
0.0191558
0.000132066
0.000157098
0.00401235
0.000139376
0.000152453
0.000143946
0.000183618
0.000190812
0.000201807
0.000172519
0.00143711
0.000156705
0.000146452
0.000141937
0.000135425
0.000152702
0.00713756
0.000152113
0.000191054
0.00014404
0.000156346
0.000156018
0.000213144
0.000203116
0.000133854
0.000153098
0.00013662
0.000163831
0.000145463
0.000144964
0.000149189
0.000141753
0.0102011
0.000137633
0.000140973
0.000138693
0.028422
0.000132445
0.000145486
0.00408305
0.0287917
0.000128293
0.000138574
0.000138178
0.000140747
0.00276587
0.0175083
0.000197086
0.000156066
0.000156903
0.000135214
0.000197721
0.000150158
0.000140771
0.00014034
0.000137676
0.000197098
0.000138702
0.000180665
0.000148658
0.0300135
0.000146226
0.00490102
0.000139133
0.000149968
0.000540524
0.000133379
0.000146054
0.000173341
0.000203842
0.000146169
0.000132889
0.0333993
0.000190475
0.00020179
0.000152076
0.0173672
0.000144248
0.000149733
0.000165486
0.000436656
0.00162476
0.000154963
0.00332143
0.0188051
0.000142672
0.000155364
0.0284108
0.000184241
0.000133173
0.000198542
0.000148536
0.000201996
0.000182802
0.000153831
0.00296939
0.00543715
0.000153682
0.00691986
0.000183731
0.000147177
0.000133355
0.000135219
0.000147502
0.000151635
0.000188428
0.000185843
0.000142048
0.000183881
0.0117628
0.000183585
0.000207984
0.000160261
0.000137457
0.000204442
0.000165884
0.0358329
0.000129696
0.000163873
0.0371575
0.000134506
0.00699541
0.00567687
0.00404597
0.0158203
0.000135816
0.000149121
0.000132071
0.000145089
0.000166793
0.000151383
0.00014194
0.000190682
0.000132642
0.000158415
0.000165711
0.0173049
0.00015047
0.000154826
0.000159205
0.000184638
0.000132253
0.00859985
0.000179032
0.000161611
0.000191293
0.0163009
0.00441073
0.000158526
0.000167813
0.00872634
0.000145712
0.000195723
0.00014476
0.000139669
0.0326359
0.000151689
0.0280028
0.000165431
0.000173002
0.000164124
0.000151373
0.000137267
0.00017033
0.00013225
0.00019789
0.000133953
0.0035777
0.0289147
0.000135084
0.000201205
0.000198973
0.000169706
0.000171708
0.0184769
0.014639
0.000128791
0.000150146
0.000351995
0.0136967
0.000135807
0.0145913
0.000202871
0.000168733
0.000136328
0.000152235
0.00334823
0.0294979
0.000144734
0.00477091
0.0368834
0.000202772
0.0315479
0.000197301
0.0106759
0.0254234
0.0285733
0.000163133
0.00407503
0.000133647
0.000147933
0.000173679
0.0142835
0.000140136
0.000164218
0.000143321
0.000143682
0.000139003
0.000170426
0.000144722
0.000179455
0.00328346
0.000142273
0.0163259
0.000144658
0.000144726
0.0119575
0.000169846
0.000184845
0.025148
0.000162003
0.000193152
0.000132381
0.000174562
0.000158672
0.0291895
0.000203256
0.000138065
0.000144533
0.000178181
0.00013625
0.000147823
0.00455486
0.000136222
0.0159137
0.000207527
0.0171387
0.000153746
0.000193911
0.000133697
0.0132139
0.00222698
0.000188722
0.00017981
0.00391427
0.0344341
0.000164451
0.0117843
0.000213717
0.000159993
0.000184208
0.000131221
0.0359018
0.00323782
0.000168601
0.000203959
0.000144334
0.00317167
0.000185469
0.000164039
0.000142261
0.0343183
0.000150969
0.000171564
0.000205409
0.000143377
0.000135432
0.000168603
0.00415948
0.000218034
0.000153079
0.000152758
0.000147146
0.000146024
0.000174303
0.000153512
0.000149406
0.000136815
0.000128659
0.000145387
0.000135448
0.000151149
0.000134564
0.000163323
0.00334073
0.00353181
0.0382506
0.000139877
0.0204664
0.000145683
0.000182782
0.000141738
0.000136771
0.00014044
0.000150298
0.00013634
0.000169553
0.0108919
0.0109476
0.000193214
0.000132141
0.000146772
0.00374545
0.000182488
0.0199947
0.000154909