/*--------------------------------*- C++ -*----------------------------------*\
| =========                 |                                                 |
| \\      /  F ield         | OpenFOAM: The Open Source CFD Toolbox           |
|  \\    /   O peration     | Version:  v2012                                 |
|   \\  /    A nd           | Website:  www.openfoam.com                      |
|    \\/     M anipulation  |                                                 |
\*---------------------------------------------------------------------------*/
FoamFile
{
    version     2.0;
    format      ascii;
    class       volScalarField;
    location    "400";
    object      omega_0;
}
// * * * * * * * * * * * * * * * * * * * * * * * * * * * * * * * * * * * * * //

dimensions      [0 0 -1 0 0 0 0];


internalField   nonuniform List<scalar> 
53008
(
0.0776691
0.0637028
3.51557
0.0246376
0.0737606
0.0236195
0.0244687
0.0228597
0.0345844
0.0235513
0.0223919
0.142245
0.0232588
2.39169
0.617332
0.141271
0.0260272
0.777425
0.0356623
0.0240715
0.0254291
2.0211
2.22576
6.29957
0.0235439
0.036184
0.787128
0.0232036
2.44624
0.0246367
0.0432043
0.0240671
2.04877
0.0396224
0.0228363
0.0228396
0.0255058
0.0575825
0.0293407
3.51971
2.06929
18.0566
0.022488
0.0235076
6.19219
1.95804
30.8186
0.0815561
0.0541279
5.46008
0.0326398
3.15409
0.0264987
0.0338038
0.0345057
0.28779
3.52339
0.0256453
0.0236321
0.0248762
0.0242747
0.0238761
0.025497
0.0326745
0.0236382
13.5561
3.39865
0.0834106
0.0255728
0.0240013
0.0243318
0.024579
0.0286135
0.0245457
0.0657106
0.0306491
0.0228492
0.0238515
0.0360871
0.0246988
0.0235507
0.0234357
0.284315
0.0437726
0.0244671
0.0298681
0.102414
0.0747678
0.0375591
0.02431
0.0225675
0.0242527
0.0248254
0.0244725
0.0749499
0.467687
0.0239407
0.0225636
0.0232568
0.0239915
0.0242785
0.0248638
2.1978
0.0231865
0.0243265
2.96355
2.38642
3.28377
0.0266158
0.0649734
2.9862
3.32927
1.37516
0.0235074
0.0284074
0.0246879
0.260914
0.0333301
0.102541
0.399278
0.022581
0.0258071
3.80268
0.0391168
0.0228074
2.57283
0.943511
0.183624
7.94589
0.0356801
0.0224831
0.0225768
1.34224
0.0496754
3.35646
0.0243061
0.0256706
0.0253739
3.28013
0.0224708
6.09667
3.4207
0.0363496
0.0268303
0.0220826
0.0420718
0.0389229
0.0631698
0.026811
0.0245682
4.48982
0.0235718
0.0702665
4.79759
1.93637
0.0285013
0.104477
4.15418
0.0236212
0.0267481
0.0230508
0.0235142
0.0223672
0.0246235
0.0223746
4.8289
0.197864
2.52418
0.0226081
0.0234144
0.0575155
4.04328
0.0250875
0.480508
0.0235442
0.0230044
0.0268004
0.0246709
0.198644
0.030471
0.0520635
0.0346032
0.0231669
0.0236218
1.58879
0.0235177
0.0223424
4.3391
3.73495
4.39746
0.0234516
5.16909
0.0475692
2.59625
3.17543
0.0244813
0.169706
0.223847
0.0244858
1.2795
0.0245336
5.24403
0.135925
0.0245363
0.187746
0.0367786
0.0234486
0.0256888
0.106665
2.16107
0.0593651
0.080205
0.364473
0.0259205
3.73502
0.0255982
2.42812
0.0774651
3.40319
3.37576
0.0951933
0.025514
0.0239305
3.70483
0.0929307
7.06758
0.0402911
0.603348
0.0393439
0.0258711
0.0233
0.187449
0.0248604
0.934998
0.0244776
3.01496
0.0249334
0.0257931
0.0632755
0.0230502
0.0415048
0.036812
0.109648
0.356498
0.0239814
0.82286
0.0238633
0.0239784
0.0258844
0.0340435
1.80028
0.0619836
0.0978246
0.0230364
0.0259494
0.0228494
0.365021
0.135507
0.0884433
4.6294
3.51803
0.0776209
0.0239715
0.0265486
0.267223
0.0267873
3.29312
3.34432
0.0283361
0.0350775
0.139582
0.0240521
0.0256703
0.0923008
0.0295905
0.209414
0.0286395
36.6641
0.0249787
0.0253291
0.0337954
0.274966
0.190312
2.98666
0.196059
0.0242672
0.0286821
3.51547
12.3475
3.10798
0.799574
0.108228
10.4476
0.138009
0.024618
0.0246651
3.47379
0.0234726
0.0995544
0.808047
3.27337
0.0230552
0.0230424
0.0243779
5.91885
0.278781
0.0232208
0.034467
0.0373803
2.78936
0.0992993
0.0245716
0.0230038
0.0228623
0.0632829
0.0245445
0.0295922
3.97016
0.136616
0.0246411
0.0803873
0.0222026
2.54836
0.0224974
0.0235347
3.84921
6.82258
0.0240491
0.0699126
0.0260459
0.251933
0.149514
0.0233594
0.0348484
0.44657
0.0256663
8.49395
0.0416236
0.0239158
0.0259874
0.0428132
0.0388287
8.90886
0.116648
3.00436
0.0231392
0.0488608
0.0225431
0.0232634
0.031321
0.0238688
0.0234057
2.14063
40.0787
0.0238704
0.506485
4.08392
6.74394
5.30161
0.0896994
1.96039
0.0253218
0.813617
0.0231156
0.0283266
0.0231003
0.0475827
2.57076
3.07807
0.0382237
2.5872
0.0247631
0.0342966
0.0254565
0.0244441
0.0649389
0.0239106
40.6691
0.0425921
0.0232951
0.0237644
0.0231375
0.0245411
0.610244
0.0231936
0.0245063
0.0277283
1.1853
1.4822
1.02765
3.71758
7.6597
10.5373
0.0227981
3.95339
3.72497
2.80387
0.0239146
38.7539
0.0232212
0.0231984
0.0232114
1.38671
0.607243
0.0254672
0.0251215
0.0228532
0.215439
0.0822894
0.0245432
0.0711455
0.0241522
1.74067
3.77649
0.0950091
0.0245021
0.262204
0.0259516
0.0247348
0.0242603
0.0237689
1.05496
0.0232183
0.0242917
0.0267959
0.0235309
0.0244864
1.90631
0.0329743
0.0245192
2.12868
0.0333013
0.0236877
0.185938
0.0245447
0.0247716
2.75883
0.0340985
0.0592712
2.62327
0.0745763
0.0376822
0.102669
1.99808
7.48139
0.0246881
0.0238232
0.0291952
2.84349
0.023666
3.14664
1.92944
0.0227759
0.0269756
2.03994
3.53962
1.57501
4.34705
0.0252316
3.39498
0.0229781
0.0253405
0.0244559
0.024302
0.0269583
2.58431
0.0614473
0.0694161
0.267424
2.53707
0.0866687
0.073929
0.187603
3.37249
0.024296
6.60412
0.0241329
9.22489
1.1812
3.1724
0.0228041
36.1465
0.060049
0.0368405
0.0258394
0.0244888
3.38346
0.0243969
2.79315
1.88104
0.0251933
0.0225353
1.70615
0.0234518
2.1781
0.0238263
0.0245608
0.0254162
0.0257659
0.0507989
37.7343
0.0306591
0.0314469
0.0247365
2.48284
12.4179
0.0738091
0.0229914
0.0249249
0.117375
0.0282401
0.0245115
3.02099
14.8238
0.022658
0.19101
0.0752039
0.026983
0.023108
0.0236241
1.69654
0.0652085
0.0245148
0.0489239
0.264603
0.0238785
3.44717
0.0230853
0.0284113
0.0229543
0.0295715
0.0228101
0.0621657
2.22814
0.0240546
3.50013
0.0238331
0.0614706
0.0328833
0.0249216
0.0391011
0.024552
0.0230099
0.0230661
0.040864
6.43917
0.0236279
6.50649
39.2462
8.68063
0.0258894
0.024899
0.0243789
0.0234082
0.0251735
0.102655
0.540545
2.79487
0.0230762
2.65156
0.0234639
0.0616016
0.022988
2.6261
0.0230926
3.69914
0.0229337
9.0229
0.0323437
3.26208
0.0238438
0.0230622
0.0253586
0.0703496
0.0296218
3.18165
0.0222736
0.0245851
0.0254166
0.0253583
3.78114
0.0249678
0.0282851
3.10789
3.73938
0.0229326
12.1787
0.252169
1.13782
13.5028
0.0249167
0.099967
3.453
2.98443
0.0230297
1.39028
0.0223401
0.0228361
3.29575
1.34951
3.52389
3.29626
0.112997
0.0237559
0.0586858
1.28217
2.57708
10.0402
0.0240426
0.0241456
0.150335
0.0247058
0.0228568
0.0242773
0.0256747
0.0236297
8.06919
0.0226037
0.0651539
0.0240436
0.197998
0.0259316
2.44767
0.563785
3.03785
0.817393
0.0228312
0.0258015
0.0235887
0.0368542
0.0285145
0.0241647
2.52806
0.0998462
0.0236412
0.0348373
10.9174
0.0245487
0.101877
0.13247
4.1009
0.0235845
0.0680136
0.0230883
0.0245092
3.0208
0.022982
0.0226234
0.0245907
0.191079
0.0246292
0.0254211
2.60013
0.0244761
0.0473324
0.0255609
0.0246396
1.73409
0.0883675
1.19138
0.0247073
0.0268995
0.0246525
0.0253404
0.0255513
1.34441
0.0290588
5.80975
8.11418
0.0223385
2.54734
3.03786
0.0248662
0.0232063
0.0464435
0.024628
1.50968
0.0291151
0.0227083
0.0776972
2.77361
3.60777
0.0273956
0.0281329
0.0232225
0.0258206
3.26648
0.0228099
4.16617
0.0231242
3.011
0.0740245
0.025506
0.0238086
0.0667602
0.0243634
0.203883
0.0234971
3.17016
0.0245889
0.0228788
3.75133
0.0280268
0.0323432
0.0231472
0.0245323
0.032832
0.0243609
0.0328458
1.79458
0.0245633
2.52221
0.105005
0.0233548
0.0243817
4.30842
5.53782
0.0280087
3.04634
11.9413
0.0273997
0.0512231
0.0253794
0.0222792
0.0229667
2.33059
0.026575
0.0256756
2.57307
0.0368795
1.46461
9.86815
1.43335
0.0318464
0.0245275
0.106577
0.0273212
0.0808293
0.0976715
0.0256069
12.1082
0.0244359
0.0813313
0.14433
0.0242824
0.766598
0.0255707
0.0240102
0.0266996
3.46331
0.0283468
0.0238162
0.0282564
3.13868
2.11985
0.134144
0.0233992
0.0316253
0.988055
0.0306362
0.0261914
0.02825
0.0273365
2.80625
0.91438
0.0249153
3.53803
0.326356
0.0738652
0.0377087
3.17939
0.0864799
2.90894
3.63092
0.0254873
0.0288289
12.2979
1.67142
0.0255629
3.19992
3.82335
0.0270302
2.49261
0.0283026
0.105137
0.0243899
0.0237383
0.0239115
2.61052
4.66205
1.66574
2.97071
0.0394755
5.37458
1.2202
0.023102
0.473713
8.4789
0.317141
2.55023
0.0233439
2.89129
0.0239676
0.0233635
0.0244526
1.87098
0.0251624
0.0233823
0.025538
0.0241268
0.0246254
0.0244325
0.0325372
4.79864
0.139019
0.0319291
0.524594
2.57116
0.0256117
0.0467238
0.0242856
0.0228198
1.67668
0.0235423
0.0424744
0.0248888
0.0840334
0.0324783
2.42947
0.0250706
2.79398
0.0245405
1.75587
0.0244786
3.02939
0.0260027
0.268017
0.686258
0.0737555
1.33675
0.0236191
0.0255144
0.103946
0.0231363
1.80991
0.0243643
7.92832
0.130995
2.82498
2.14591
0.19428
0.0241565
0.0239687
0.0684611
0.182856
2.83426
15.7736
0.0245093
0.0232359
1.86836
0.0232187
0.0244177
0.0231619
0.0800048
0.0984793
2.08692
2.83395
0.0255392
8.60569
9.62
0.0347798
3.28497
0.031432
0.026963
0.0241588
0.0246502
1.66322
0.0283179
0.023472
0.0275763
5.54452
0.0818286
0.0234172
0.0230394
1.23255
0.022425
0.0228381
0.02344
7.71133
0.0230477
0.0349338
0.0233379
0.022207
0.104183
0.0246887
5.97597
1.87855
2.76574
1.84933
3.04226
3.23646
0.023424
0.0231107
0.0240311
0.0230497
0.0245503
0.0585868
2.05764
0.024388
1.65812
0.144929
0.0261449
0.0388834
0.605934
0.0233951
0.0228525
0.0243282
0.0271761
2.61057
1.7719
3.70981
0.138315
0.0243451
0.0265542
0.0257897
0.023474
1.5356
0.0229182
0.608965
0.250365
0.0248098
2.65555
0.0234206
0.0264644
0.0555034
0.0246891
0.0244987
12.5021
1.70732
0.0286824
0.177521
2.801
0.0742078
0.0423286
0.105727
0.022173
0.334795
0.024375
0.0227672
0.0228055
0.0814093
0.0243179
0.0229776
0.0228869
0.0224706
0.0320261
0.0257685
0.0243866
0.0244922
0.0246866
0.0224423
0.0241211
0.0244825
0.0241296
0.0256511
3.15787
0.162072
0.0262741
0.0343643
0.0259376
0.0232105
2.10746
0.0249305
0.0228412
3.11375
0.0233606
4.35862
4.64494
0.133451
1.22073
0.0261177
1.45348
0.0244671
0.0233492
0.023778
0.374856
0.024833
0.118728
2.46531
0.155649
8.08437
0.0258732
0.0243795
2.55779
0.0991346
0.0233507
1.76227
0.0728107
2.14144
0.0236205
0.0284221
2.21353
0.0227411
0.0367878
0.0560191
0.0438759
2.34034
0.0242674
0.0735532
0.0248356
0.0365815
0.0249245
6.07014
0.0235041
0.0256812
0.0230367
2.51041
0.228547
0.0243711
0.0230261
0.0275213
0.0227515
3.76824
0.0287416
0.0234698
0.041044
0.0236956
0.0240858
0.0222956
0.0330625
0.0257114
1.42262
0.0791447
0.0486236
0.0243638
0.0291537
0.0686323
2.51788
0.274468
2.01253
1.75453
0.0222515
0.0275005
0.023743
2.51538
0.036947
0.945111
0.0223884
0.0236278
2.5558
0.0223722
1.00792
0.0722627
2.37133
0.356269
0.0234988
0.0320119
0.0435567
3.5823
36.849
0.0236796
0.0254468
0.0259494
0.0231624
0.0261955
0.0234255
0.0418716
0.0508484
11.9004
1.24551
0.151928
2.86707
0.0437063
1.47568
0.0236364
0.349986
4.69484
0.157696
1.63679
0.0308139
0.0301635
3.60858
0.0220879
0.0233939
0.0252087
0.028196
0.0223364
0.265465
12.0549
2.71868
0.0368292
0.0226654
0.0252522
3.19194
0.0233748
0.022731
0.0248299
0.0223846
0.119924
0.0710998
9.05053
0.0227371
0.032645
0.107509
0.0257163
0.0236437
0.0247398
0.0286158
1.98934
0.0265506
0.0233839
0.0226508
1.67833
0.03183
0.0261366
0.0308403
31.0437
0.290264
1.44214
3.17296
0.0750381
0.0877775
0.168812
0.0608542
11.3716
0.0234566
0.0243532
0.0258301
0.0240822
0.0250625
4.9088
0.0228159
0.0286016
0.151972
0.0246742
2.84863
8.22415
0.028162
0.659073
0.0959642
0.104147
10.9775
0.241739
12.6922
0.727835
0.0501185
0.0351961
0.0255728
2.83735
0.0651303
1.503
0.0236961
0.023279
1.84798
0.0289539
0.0257336
2.84742
1.86265
0.988681
0.0311374
0.178745
3.16101
10.3403
0.841101
0.0247988
9.76783
0.0257338
1.90768
0.0230303
2.62394
0.0411925
1.9153
0.0257186
7.21764
0.0545653
0.0541347
0.0250415
0.0775599
0.0257331
0.0254107
0.0501658
0.0222805
0.0256377
0.327534
0.0250232
0.0236365
0.142486
0.0237287
0.0243132
0.0511805
0.0252559
0.0338295
0.0326265
0.119184
0.0333134
0.0338978
1.1114
0.076987
5.1605
1.72296
0.0226764
0.0237991
0.0303212
1.94837
41.5834
0.0229803
3.06937
0.0340152
0.0301044
0.0243891
0.0258206
2.4219
0.0278089
3.46347
11.66
1.92875
0.0246716
0.0257401
0.0236882
0.0234248
3.07056
0.0284027
0.0241542
0.0301043
0.0224896
12.1209
0.190451
0.0230586
0.0261541
0.0283692
6.73405
3.15285
1.41258
1.94988
0.427501
0.0229132
0.0569508
0.0228816
0.0235943
1.95932
0.0731668
5.61599
0.0234192
0.0230608
0.0234798
0.571183
0.0245811
3.79195
0.0253497
0.0591384
0.0601625
0.0226815
0.335051
0.0248836
0.0820859
0.0249374
0.0234803
0.0227135
0.0436464
1.80041
3.78221
0.0245665
0.0231057
2.80268
0.273104
0.14539
0.0234784
9.31491
0.0253597
3.41605
0.0230044
0.285581
5.79536
1.7051
4.90795
0.0712055
0.049109
0.0270652
0.0245835
0.0248317
0.103751
11.6891
0.138319
0.2131
0.0226915
5.90804
0.0242797
3.42135
0.0257131
0.032579
2.58401
0.025434
0.025302
0.266012
1.37131
0.0230583
0.0246286
0.0245441
0.0240544
2.30041
3.29479
0.0241637
0.0791624
0.0640701
0.023589
9.51313
0.0240557
0.0266411
2.22619
0.0582132
19.4341
0.0425902
0.0254234
0.0254602
2.34726
0.0750772
0.0247412
0.424988
0.0257109
0.0231418
0.0253168
1.75665
0.0235739
0.0508807
0.022712
0.0245384
0.0223745
0.0250903
0.0317177
0.0249341
2.8546
0.281321
0.0312496
0.0244914
0.022524
0.0255663
3.21363
0.0247532
2.56015
0.0227945
0.0255446
4.9372
5.20584
0.0253427
5.2892
0.0241487
0.0822097
1.46413
0.0412709
1.95011
0.0870212
1.71303
0.0226161
0.0235465
40.1521
0.180737
0.043833
3.46248
12.2051
2.18044
0.0243666
0.0383863
0.0997212
0.254471
1.608
0.0254255
0.0231725
0.221232
1.8984
0.0248731
0.0242632
3.04273
0.0241139
3.73866
0.264324
0.0262424
0.0244913
0.0744694
0.308529
1.30971
0.0284154
0.086824
3.55322
2.83125
0.0231758
0.0224972
0.0251324
0.385527
30.259
3.83859
2.0414
39.155
0.0254332
0.0244128
0.0226768
0.025536
0.383909
3.03521
0.325348
0.0243145
0.0316964
0.0399516
0.0252177
0.159088
0.0275637
2.43265
0.0445669
1.60153
0.0229287
3.71544
2.84903
10.0801
1.738
0.0233172
0.0244351
2.60583
0.0264217
1.96842
0.0241311
2.87695
0.0248358
2.10376
0.0817032
0.0229876
0.0277431
0.0253129
0.0222496
0.028509
0.0256406
0.0230298
0.0247531
0.0234681
0.0248303
0.0246749
0.0230586
3.09254
0.117411
0.362812
1.45761
2.67138
0.0906899
0.0357296
4.46754
0.0243
1.71572
0.0234062
0.0290819
3.71095
1.88019
0.0249367
0.0532525
0.0408774
2.31721
0.357126
0.308778
0.0240394
0.0254718
0.0254862
3.76152
0.0240419
0.139267
0.0227653
3.52276
0.0240352
0.0569615
0.031026
0.0245856
0.0341241
0.154234
2.31464
2.18164
0.023534
0.0226487
2.77451
0.311762
4.40434
0.0254701
0.024711
0.0285135
0.201898
0.0232464
0.0250045
0.0245526
0.0266709
2.35211
0.0424016
0.0247138
0.0470931
0.34888
0.0263649
0.0263047
0.184377
4.72772
0.0243961
0.0383679
0.0257849
0.0241275
0.0807791
0.211351
0.2717
0.0228515
0.0324349
0.0245044
0.0518732
0.0263521
0.0254435
0.031872
0.0243082
0.0246294
0.612952
0.0320756
3.41631
0.0315204
0.0254956
0.0290333
0.161455
0.186474
2.18645
0.0237072
0.0316758
0.081021
0.0577157
0.0263498
8.70014
13.3679
5.43411
0.0230198
14.183
0.0253069
2.18711
2.39037
0.0238981
3.75782
0.967108
38.2764
1.76735
1.22873
0.0236878
0.026346
0.026313
2.08425
2.27406
0.0275905
0.0240009
0.0227271
0.024119
0.0236051
7.80208
2.2781
0.0236005
0.0317765
8.80373
0.0246721
0.104539
0.0247045
0.641375
0.089502
0.0250271
0.145273
0.0246108
0.0236122
3.541
2.39699
2.56336
0.023891
0.138636
0.0256701
0.0255033
0.0246349
0.025593
0.0221858
0.0244134
0.0244151
1.94236
10.8015
0.334811
1.90378
1.85281
0.0240246
1.67318
0.0246356
0.145222
2.54625
1.92151
0.117331
0.0234437
0.0246871
0.0244084
0.0776729
0.0281389
0.0228055
0.0795544
0.0227412
0.0239222
0.0501255
2.52043
0.0329738
0.0265927
2.46589
2.50717
0.0246088
0.0314546
0.0427459
0.0246837
2.12899
0.0661962
0.144187
0.115217
0.0243723
2.574
0.0293597
0.298437
0.0230793
0.0246381
0.0227018
0.0232487
0.0233609
4.60602
3.44959
0.024896
1.61773
1.92304
0.0234151
0.0253868
0.148477
0.32997
0.0272277
0.024758
0.0443937
0.026489
0.0263174
0.0233762
0.103724
3.38811
3.75557
3.29305
0.0331262
0.0269453
0.277733
30.6096
0.0815358
0.0227037
3.08025
0.0254397
0.0250014
3.40445
0.0235935
0.024887
0.0232243
0.0857948
3.20516
0.33554
3.4882
0.0238587
0.315143
0.0241694
4.69158
0.0230722
1.74158
0.315116
0.0869344
28.5335
0.0264012
0.0236302
0.107366
0.0579025
0.0302793
0.0246318
2.25127
0.0325481
0.06188
0.0252801
0.0244517
0.0334361
0.0239396
0.275265
0.125304
0.0251413
0.0236197
0.0276697
0.0259468
0.0238552
2.55977
0.0250943
0.0254068
2.71121
0.0255931
0.14507
0.0236776
0.0241461
0.0236133
0.146134
1.37978
0.0791991
0.0262247
0.609061
3.54676
0.337336
0.0227144
2.80389
0.0283219
0.0239311
13.3869
0.0228049
0.0246977
0.0247157
0.0223467
0.132511
0.0241084
0.0241892
0.0257556
0.0232195
0.243246
2.46252
0.0383149
0.0248897
0.0807681
0.0230391
3.23393
0.0236677
0.158315
2.16828
2.98735
0.578329
0.0276634
2.88965
5.08223
0.0236172
0.02433
1.47232
0.354937
27.1117
0.0586371
0.115614
0.0277072
0.029002
4.3874
3.74708
0.0291865
0.378294
11.3802
0.0248001
0.0232214
0.0609865
0.157352
0.0279394
0.0257466
0.0225168
0.116075
1.65367
2.82227
1.69407
1.66463
1.97508
0.354429
0.0230533
0.589646
3.46031
0.0230073
0.0237817
0.0644392
0.0246113
0.385671
0.0225055
0.0454078
0.0331377
0.0255962
0.023722
1.25927
0.0372798
4.04926
0.0265854
9.45736
0.0285756
0.0228975
0.574001
0.0223339
0.0236373
1.14095
0.0267743
0.335867
0.0251915
0.0252107
0.0714594
3.5399
0.0229032
0.590773
3.54941
0.514503
0.0243999
0.0257572
0.592122
0.0319944
2.96285
0.0240212
0.0230591
5.31137
0.0243082
0.0241406
0.022834
1.94468
0.0281479
1.38687
0.0279972
0.0238389
0.0233125
0.0257011
1.48821
0.0423846
1.93351
3.48898
0.0583015
0.0230469
0.025106
0.0254165
0.0691595
0.0233513
2.11403
0.0244717
0.0812549
0.0245336
0.0391015
0.0254356
0.264913
0.399509
0.023876
0.168029
0.438949
0.0245469
0.0238668
0.335178
0.143466
0.0255252
2.7721
0.0226397
0.0228294
2.22408
0.030532
0.0239761
2.77633
0.0383809
2.4011
0.0816627
0.216422
0.0505945
0.356435
0.0320453
0.0245739
0.272096
0.0233902
0.0247183
5.45824
0.0264225
0.0234599
0.14934
1.74953
0.273543
0.0233793
0.028192
0.0245656
0.024938
0.937497
0.0248241
1.48901
0.296399
1.51746
7.51275
0.1318
0.0481107
0.0407607
1.44487
0.0233857
0.464572
31.2018
0.0258889
0.0225658
0.561354
0.154062
10.2088
0.0248359
0.0244779
0.355595
0.0264944
2.67361
0.0267348
0.350179
3.43953
0.047397
0.0246304
0.0226435
0.663626
0.126732
0.025793
0.0260681
0.0253415
0.0226256
1.57271
0.0271959
0.0349838
0.0232689
0.0872884
0.0245622
2.43461
0.99718
0.0808558
0.148981
0.0452347
0.0248504
0.0242969
0.0236179
3.34804
0.0234261
0.0245363
2.69823
0.0226637
4.63615
0.0221915
0.0251283
2.0678
0.0239716
1.99387
0.024746
0.0423502
0.0277399
0.0236194
0.0226364
0.0230903
0.0226653
3.38585
1.73192
1.34889
1.72809
0.0228058
1.82348
0.0226477
0.0263915
0.0241728
0.0766981
1.23298
0.0249329
0.02454
0.584924
0.0234088
0.0244385
1.89658
34.5863
0.0275837
0.0244074
14.6983
4.17329
0.0241184
3.45191
0.0253672
0.0232284
0.0291526
2.61695
0.025385
0.0269652
33.3283
0.361417
0.0291647
0.0239597
2.41443
0.0587327
1.07755
1.45733
0.0226907
0.0707647
0.0231931
0.129886
2.35987
0.0231809
8.03086
2.81081
0.139266
0.0246088
0.0292593
4.08057
12.1885
0.0244812
0.989725
0.0223687
0.0233594
2.603
0.0240647
0.0245528
0.0251214
0.0892005
3.31296
0.025536
0.0345192
0.0243196
0.0240732
1.959
0.034347
0.028958
2.69719
0.113037
0.0317236
0.0349896
1.46332
1.09729
0.0245344
0.359051
0.0229445
0.800407
1.65501
0.0222308
0.0359245
0.0302169
0.246437
0.0243834
0.118684
7.69282
0.0229442
5.36274
0.0245257
0.024066
0.0253796
0.024469
4.48201
0.024399
0.0245721
2.03025
11.6782
0.0235485
0.0376132
0.02728
0.024964
0.033292
4.66541
0.02499
0.149996
0.0227587
0.0303873
0.0373647
0.0330839
1.45461
1.4334
0.0236546
0.313374
2.88384
0.0261112
3.06911
0.788638
0.373228
0.0234024
0.0222463
0.0230887
0.0241922
0.0312747
0.0381787
2.2691
0.024426
0.0227758
0.304145
1.48685
0.026925
0.31709
0.163571
0.0301006
0.369388
0.0239698
0.361462
0.0351548
0.0242908
4.90032
0.611474
2.25384
37.9481
0.0272867
0.0249961
3.23953
0.0240282
3.34636
0.0227479
0.0453337
0.0903991
10.4524
0.0254602
0.301901
0.250416
0.0732756
0.333823
0.0235247
1.79229
0.0656468
3.99466
0.0240983
0.0234647
0.0236584
0.0221936
0.0230746
0.0253363
0.246663
0.0242363
0.0266397
15.7513
0.059118
0.0574494
0.0602419
0.0254755
3.41314
0.0255518
0.0248818
0.0323529
3.09601
0.0321402
0.024655
0.627461
4.52345
2.86943
0.0256461
0.366382
0.0320262
0.0254867
3.07274
0.126773
5.02875
0.0230133
0.0254693
0.612145
0.829853
0.0724769
0.0521194
2.5082
2.52199
0.0237659
0.03178
0.0255686
0.148451
0.0331131
0.312277
0.0245845
0.400674
0.0255057
9.02181
0.0240087
0.0455343
0.0326687
0.0831943
2.70799
0.0241034
4.91319
2.20538
1.96831
0.0332819
0.165939
0.0237602
0.371083
0.313714
0.0233337
0.0231809
1.49519
3.90548
4.99184
0.805585
4.52452
0.024374
0.136769
0.737794
0.0244123
0.0243637
0.0370125
0.0283207
0.352932
0.0230287
0.0258059
0.0242743
3.77549
2.82183
0.0237204
0.0245549
0.0243319
0.0270153
0.052909
0.456717
0.0662821
0.0250097
0.0253794
0.0245415
2.25297
0.0259259
0.0238464
0.258307
1.4874
0.0310027
0.0244666
0.0234461
0.0252816
38.7431
0.0240997
0.058085
0.0242581
0.0228203
0.0321804
0.225576
0.126439
0.055201
0.331076
0.0654594
0.0226062
0.0237049
0.131682
0.14461
0.0242387
0.116311
0.103574
0.0236771
0.022697
23.0633
0.0296208
0.0221673
0.0263816
3.31118
0.0231025
0.080138
0.0234403
0.0227443
0.0347937
0.02506
0.023059
4.0926
0.0867207
0.0242859
0.0245345
0.175665
0.0275017
0.251044
0.262535
0.0253243
0.0220836
1.60918
29.5799
0.0253767
2.13373
0.301471
0.0347896
0.0343236
1.95548
1.08556
2.92638
0.0246003
0.368684
0.0242141
0.0282854
0.0262739
0.191127
2.08159
0.330423
0.0482969
0.328591
1.78599
0.331734
0.0264286
0.0236309
1.89276
0.731105
0.0230078
0.0254461
2.20312
0.0227674
0.0282027
0.356478
0.0235047
0.0267463
0.0243867
0.0622708
0.0872778
0.15009
0.0407673
1.22092
0.0280108
0.0246526
0.0242403
0.0230626
0.0254088
24.5438
0.025931
0.08566
0.0244217
0.0278323
0.0276678
0.155363
0.146368
0.0230519
0.0270548
0.0234058
0.0328481
0.0246203
0.0243779
0.025003
0.0242457
1.91537
0.0235274
0.0240305
0.0234145
1.62696
0.0225883
0.0247393
4.14092
3.4716
0.0221695
0.023409
0.0236136
0.0240666
0.30902
1.15778
0.0582933
0.0276964
0.0281509
0.0230295
0.115682
0.0253256
0.0237293
0.0240917
0.0233534
0.143426
0.0237384
0.0504942
0.0255419
1.49564
0.024774
29.8035
0.0234757
0.0249496
0.933408
0.0229022
0.0245873
0.0448938
0.153328
0.0248084
0.0226312
3.79997
0.0861207
0.168418
0.0257827
1.1466
0.024469
0.0250325
0.0307972
0.350092
0.374227
0.0272376
0.48439
6.23303
0.0239842
0.027526
2.21485
0.058035
0.0226828
0.124336
0.0249982
0.181994
0.0604335
0.0266194
0.315383
0.451329
0.0265357
28.1925
0.06528
0.024852
0.0227839
0.0230406
0.0247672
0.0256539
0.161723
0.0409727
0.0242508
0.040129
1.34103
0.0643382
0.144944
0.0263922
0.02332
0.153292
0.0348402
2.33404
0.0223833
0.0327095
3.26583
0.022791
0.592292
28.1649
0.317655
5.59775
0.0231013
0.0254054
0.0227241
0.0245713
0.0359394
0.025608
0.023825
0.0867869
0.0227512
0.0272795
0.030642
2.49711
0.025369
0.0256154
0.0262242
0.0673535
0.0228061
10.2937
0.0500435
0.0310481
0.0868272
0.80585
0.400402
0.027328
0.0312233
12.6094
0.0246412
0.0564578
0.0246482
0.0239561
3.6524
0.0256936
2.18258
0.0318394
0.0286111
0.0336352
0.0257589
0.023258
0.0381497
0.022573
0.0644557
0.0227525
0.25561
1.91227
0.0229562
0.0675035
0.0656456
0.0376608
0.0426615
2.85152
5.97993
0.0222322
0.0253825
0.0999248
7.02032
0.0231039
1.87268
0.149897
0.0337482
0.0230207
0.0258983
1.90079
3.49583
0.0243502
37.8993
3.0768
0.150075
2.82766
0.113665
0.642567
3.60645
2.19706
0.030921
0.347301
0.0230295
0.0248181
0.044002
1.84317
0.024074
0.0331904
0.0245551
0.024189
0.0238594
0.0383975
0.0244575
0.152307
0.263196
0.0241776
1.90896
0.0246385
0.0244589
1.339
0.037922
0.0528527
1.36772
0.0317107
0.0928577
0.0228272
0.0431439
0.0286996
1.3443
0.140529
0.0236191
0.0244857
0.0462828
0.0234264
0.0248908
0.36569
0.0234186
0.933932
0.185543
6.30696
0.0264067
0.0995106
0.0230385
2.84697
0.469728
0.0341914
0.0495252
0.352229
1.83326
0.0339519
1.74725
0.423729
0.0293626
0.0573355
0.0226181
2.43504
0.397243
0.0376696
0.0830303
0.0244649
0.313615
0.0576059
0.033274
0.0239246
2.56435
0.0251004
0.0390199
0.166646
0.0242055
0.0229567
0.0336503
2.1724
0.165848
0.0263852
0.0269049
0.0248724
0.0245851
0.0448591
0.0264656
0.0251017
0.0231137
0.0222248
0.0245975
0.0229581
0.0255448
0.0227922
0.0268485
0.276262
0.268395
3.12719
0.024034
2.19895
0.0244705
0.0559013
0.0239925
0.0231068
0.024106
0.0254152
0.0233666
0.0383524
13.3845
13.0412
0.0949835
0.0225608
0.0247463
0.409049
0.0334681
4.75014
0.0272152
0.0241459
0.0243201
1.34041
0.0233757
0.226152
0.0249639
0.133611
0.0248068
0.0994271
0.268001
0.0252728
0.0251579
0.135323
0.0242521
0.0254432
0.0572536
2.23857
0.0269982
0.025417
0.0237552
0.0245908
1.68926
0.0704427
0.84146
0.0233419
2.11319
0.0248815
0.0239926
0.024164
0.131929
0.0287969
0.134842
2.54838
2.18718
0.0823662
0.362383
0.0239495
0.0273082
0.275634
0.0256961
0.0252449
0.0291458
0.0226176
3.4595
0.0245304
0.107125
0.0283957
0.0247416
1.83634
0.0256552
0.0675225
0.0247497
0.0491478
0.0245667
0.0718557
0.116961
6.08635
0.349886
0.0239533
0.0244883
0.0257672
0.0223179
0.0244166
0.0245561
0.318453
0.0242174
1.93433
2.15828
0.0318526
0.0247064
0.131619
0.0230436
0.027451
0.286216
0.0259515
0.0257683
3.21002
0.0292861
1.2856
0.0227353
0.0247198
1.69492
0.206104
1.30971
2.94172
0.0306291
0.0236526
0.315542
0.0249163
3.37566
0.06427
2.87369
0.144819
1.9734
0.0242338
3.38162
4.76335
0.347054
0.0456661
0.0542234
5.62759
0.0222846
0.0241823
2.85232
0.205267
0.0332352
0.0231837
1.15076
0.0248583
0.0248409
0.0502297
12.7817
0.468292
0.313099
0.0240859
0.152096
0.0244026
0.0287837
1.76788
0.0247833
2.46978
0.0839694
0.0243446
1.31739
2.06674
0.0680309
0.190599
0.0253935
0.0260512
0.0238691
0.0223309
0.0568777
0.0244142
0.0250811
0.143936
2.80952
0.0245422
0.0321807
0.0242229
0.0233944
0.0308125
2.57693
0.0294387
0.0255006
0.0265913
0.0243886
0.353683
11.3656
0.0241198
0.0307593
0.0244784
0.191284
0.27856
1.04942
0.0309447
0.0588981
0.0268584
0.0241101
1.59481
0.0239381
0.15573
0.0264742
0.300793
2.03116
0.0238835
0.0253528
0.0291303
0.824748
0.0420905
3.88583
0.0241684
0.0248473
0.0263597
0.0235763
0.13828
0.0537291
0.315259
1.70538
0.0927598
0.0436704
2.51985
0.13411
0.0252911
0.023795
0.0254812
0.0257743
0.0237217
9.35706
1.35826
0.821785
0.339423
0.0255008
2.40897
0.0261077
0.0230217
0.0256587
0.0244905
0.0720036
0.0243802
11.138
0.0463336
2.95452
10.601
0.0233395
0.0424374
0.0546126
3.43012
0.0243741
3.23766
0.0249651
33.6819
0.0240402
0.0244884
0.206373
3.21203
0.0233314
0.0240176
0.0242351
0.102048
2.29229
0.0263836
5.59311
0.0248245
0.0243735
2.40227
3.47627
4.80471
0.0768448
2.19812
0.0242164
0.0282133
0.17784
1.07791
0.13849
0.0226943
0.0234355
0.024893
0.022085
2.54779
2.93625
0.0274946
3.47041
0.0309909
0.319997
2.78217
0.0248212
1.93547
0.0247172
13.3479
0.0241168
0.130499
0.0250606
0.125203
1.11423
0.0222715
0.465142
0.0236204
0.0244539
0.0454044
0.0232608
3.1806
0.0416832
0.0252419
0.0251321
0.0873684
0.069456
8.49427
0.0456253
0.0247463
0.0253253
0.0358605
0.0245542
0.0231535
0.0559023
3.39691
0.0252157
0.0235735
0.028168
1.87346
0.110447
0.027534
0.0381479
0.0239073
0.0226472
0.045759
14.7561
0.0239232
3.62472
0.0252426
0.0230376
0.0304455
1.87133
0.0386346
0.161289
0.0286005
1.91594
1.39192
1.57881
0.0227966
0.0245817
0.0303301
0.150296
0.0235302
0.0224796
4.89777
0.111591
0.299825
0.047588
2.64939
6.91429
1.37476
0.0263179
9.15241
0.0230497
0.0298796
0.0263772
0.0232021
8.10085
0.352353
0.358353
0.0480525
0.0321847
0.0235244
0.0254753
0.0251262
0.092051
0.0263511
0.243677
0.0273443
0.0261125
2.89483
0.0224635
0.0460373
1.88538
0.0241584
0.0247032
12.0585
4.67826
0.0235857
28.9149
2.56633
0.0302083
0.0341497
1.71574
0.024792
0.0240876
1.05909
0.0332174
0.0792859
0.02718
3.60534
0.0241893
0.0236696
0.024884
2.13647
0.029663
0.0233349
2.42368
0.205819
0.0249315
0.0239536
1.73239
0.0234009
0.0781805
2.16067
0.0236383
3.63401
1.46989
0.0239317
10.5962
3.16854
0.0250077
0.024595
0.266212
0.181556
0.0239195
0.59024
0.024246
4.32986
0.0395301
0.0232264
0.223276
0.0272836
2.97411
0.0227159
0.024892
3.29597
26.6709
3.4265
0.0675089
0.0736657
3.4774
0.0282465
0.0262251
0.0226898
0.0246459
3.33327
1.73855
0.0424048
0.0275947
0.0576873
2.44688
2.30058
0.0254841
0.155931
0.0289824
0.395023
0.0283648
0.022682
0.0253186
0.567073
0.0239069
0.024646
0.0226761
0.0250685
0.0249453
0.0240697
0.0271731
0.046379
0.0281458
1.89627
0.042116
0.121516
0.0235502
2.68306
0.0231593
0.0339884
0.259022
2.74325
0.0233324
2.81186
0.0305026
0.272747
0.351932
0.0252664
0.0241539
12.7728
0.356591
0.0324836
0.112064
0.0267229
0.0233423
1.54529
0.0241268
0.0235991
0.0244552
9.50829
2.74979
0.0313831
0.0246091
0.0239007
0.0252214
0.0251695
0.835349
0.105556
0.0577438
0.0248999
0.0245827
0.0280747
0.0245593
0.159988
0.022352
0.941567
0.270436
0.0244766
0.0220887
0.0240835
0.0450342
0.0562222
2.9986
0.0259094
1.75973
0.0241064
12.355
0.0381007
0.0248339
0.0267104
3.10006
3.41607
0.0893224
5.77133
0.0575651
0.158021
9.16536
2.00754
0.024197
2.92214
0.0260686
0.023938
0.0243062
0.0227428
0.0244081
0.119065
0.0381054
1.5293
0.0245572
0.0253475
0.0244156
2.85469
0.0247213
0.0317875
3.46565
1.89893
4.47648
0.0347572
0.0247909
0.024452
5.91012
1.96354
0.311982
0.0288757
0.0262832
2.71452
0.0548142
3.48167
0.0403574
0.0250663
3.36983
0.0298869
0.0243074
0.0232978
0.028576
1.48418
0.0262604
0.827358
0.0255598
0.0252207
1.82386
1.08163
5.89449
2.70243
0.0310398
0.0255655
0.0847315
0.0534638
0.0243435
2.07655
0.059518
2.47181
0.0227292
0.362573
0.025298
0.024656
0.0255602
0.0231002
0.0252101
3.9774
0.279332
3.4731
0.0505501
0.255432
3.22724
0.0244654
3.20753
0.022307
0.0242499
2.81454
0.0843821
0.0358538
0.0232682
0.0251345
0.938266
0.0665492
6.8865
2.28102
0.0232996
0.818325
1.95307
0.0255485
0.0221852
0.351613
0.0233849
0.295353
0.0683914
0.0247204
0.024224
0.0240196
0.124095
0.362105
0.205578
0.0239278
0.560172
0.213919
0.123788