/*--------------------------------*- C++ -*----------------------------------*\
| =========                 |                                                 |
| \\      /  F ield         | OpenFOAM: The Open Source CFD Toolbox           |
|  \\    /   O peration     | Version:  v2012                                 |
|   \\  /    A nd           | Website:  www.openfoam.com                      |
|    \\/     M anipulation  |                                                 |
\*---------------------------------------------------------------------------*/
FoamFile
{
    version     2.0;
    format      ascii;
    class       volScalarField;
    location    "400";
    object      omega;
}
// * * * * * * * * * * * * * * * * * * * * * * * * * * * * * * * * * * * * * //

dimensions      [0 0 -1 0 0 0 0];


internalField   nonuniform List<scalar> 
53008
(
0.0776975
0.0637032
3.51555
0.0246376
0.0736213
0.0236195
0.0244687
0.0228597
0.0345851
0.0235513
0.0223919
0.142245
0.0232589
2.39046
0.618818
0.14122
0.0260272
0.777186
0.0356621
0.0240715
0.0254291
2.02105
2.22673
6.30484
0.0235439
0.0361839
0.786851
0.0232036
2.44882
0.0246367
0.0432039
0.0240671
2.0495
0.0395972
0.0228363
0.0228396
0.0255059
0.057719
0.02934
3.51965
2.06862
18.0612
0.022488
0.0235076
6.18518
1.95806
30.8201
0.0813041
0.0542296
5.4599
0.0326397
3.15389
0.0264987
0.0338039
0.0345095
0.287762
3.52685
0.0256449
0.0236321
0.0248762
0.0242747
0.0238761
0.0254969
0.0326743
0.0236382
13.5468
3.39855
0.0834116
0.0255729
0.0240013
0.0243318
0.024579
0.0286152
0.0245457
0.0657102
0.030649
0.0228492
0.0238515
0.036087
0.0246988
0.0235507
0.0234357
0.284243
0.0437722
0.0244671
0.0298682
0.102415
0.0747675
0.0375589
0.02431
0.0225675
0.0242527
0.0248254
0.0244725
0.0749496
0.461057
0.0239407
0.0225636
0.0232568
0.0239915
0.0242785
0.0248638
2.19873
0.0231865
0.0243265
2.96352
2.38697
3.2802
0.0266158
0.0649243
2.98612
3.32918
1.37518
0.0235074
0.0284075
0.0246879
0.260705
0.0333302
0.102542
0.3935
0.022581
0.025807
3.80265
0.0391166
0.0228074
2.57238
0.942815
0.183616
7.94613
0.0356799
0.0224831
0.0225768
1.34216
0.0496749
3.35636
0.0243062
0.0256706
0.0253741
3.28003
0.0224708
6.09241
3.42064
0.0363555
0.0268303
0.0220826
0.0420714
0.0389249
0.0631704
0.026811
0.0245682
4.48983
0.0235718
0.0702658
4.79915
1.93648
0.0285013
0.104531
4.15597
0.0236212
0.0267481
0.0230508
0.0235142
0.0223672
0.0246235
0.0223746
4.83258
0.19787
2.52351
0.0226081
0.0234144
0.0575158
4.04531
0.0250875
0.480414
0.0235442
0.0230044
0.0268004
0.0246709
0.198651
0.0304709
0.0520628
0.0346037
0.0231669
0.0236218
1.58779
0.0235177
0.0223424
4.3391
3.73489
4.39747
0.0234516
5.16312
0.0475685
2.59651
3.17523
0.0244813
0.170867
0.223881
0.0244858
1.28038
0.0245336
5.23747
0.135925
0.0245363
0.187745
0.0367791
0.0234486
0.0256888
0.10673
2.16048
0.0593655
0.0802046
0.364106
0.0259205
3.73615
0.0255983
2.42695
0.0774648
3.40312
3.37568
0.0951935
0.0255141
0.0239305
3.70481
0.0929294
7.06724
0.0402909
0.60516
0.0393437
0.0258711
0.0233
0.188767
0.0248604
0.934578
0.0244776
3.01467
0.0249334
0.0257931
0.0632748
0.0230502
0.0414318
0.036812
0.109647
0.356147
0.0239814
0.822507
0.0238633
0.0239784
0.0258844
0.0340433
1.80132
0.0621298
0.0978245
0.0230364
0.0259494
0.0228494
0.364691
0.135506
0.0884444
4.62958
3.518
0.0776206
0.0239715
0.0265487
0.266813
0.0267873
3.29302
3.34424
0.0283361
0.0350707
0.139583
0.024052
0.0256703
0.0923011
0.0295902
0.20943
0.0286396
36.6681
0.0249787
0.0253291
0.0337953
0.274625
0.190312
2.98659
0.196064
0.0242672
0.0286843
3.51544
12.3385
3.10778
0.799144
0.108128
10.448
0.138009
0.024618
0.0246651
3.47377
0.0234726
0.0995977
0.807623
3.27326
0.0230552
0.0230424
0.0243779
5.91266
0.278746
0.0232208
0.0344669
0.0373879
2.78932
0.0992938
0.0245716
0.0230038
0.0228623
0.0632819
0.0245445
0.0295912
3.97016
0.134871
0.0246411
0.0803869
0.0222026
2.54799
0.0224974
0.0235346
3.85003
6.83231
0.0240491
0.0698884
0.0260459
0.25204
0.147844
0.0233594
0.0348489
0.443717
0.0256663
8.49357
0.0416233
0.0239158
0.0259874
0.0428127
0.0388285
8.90839
0.116547
3.00426
0.0231393
0.0488606
0.0225431
0.0232634
0.0313241
0.0238688
0.0234057
2.14234
40.0834
0.0238704
0.50429
4.08387
6.74797
5.3102
0.089698
1.96124
0.0253218
0.815873
0.0231156
0.0283221
0.0231003
0.0475828
2.57372
3.0776
0.0382331
2.58692
0.024763
0.0343004
0.0254567
0.0244441
0.0649385
0.0239106
40.6691
0.0425229
0.0232951
0.0237644
0.0231375
0.0245411
0.610088
0.0231935
0.0245063
0.027726
1.18611
1.48281
1.02863
3.71754
7.65991
10.5441
0.0227981
3.95861
3.72492
2.80358
0.0239146
38.7499
0.0232212
0.0231984
0.0232114
1.38684
0.607014
0.0254672
0.0251215
0.0228532
0.215448
0.082291
0.0245432
0.0711441
0.0241522
1.74054
3.77645
0.0950105
0.0245021
0.261986
0.0259516
0.0247348
0.0242603
0.0237689
1.05596
0.0232183
0.0242917
0.026797
0.023531
0.0244864
1.90662
0.032981
0.0245192
2.12829
0.0333014
0.0236879
0.18594
0.0245447
0.0247715
2.75706
0.0340984
0.0593648
2.62362
0.0745413
0.037691
0.102669
1.99868
7.4827
0.0246881
0.0238235
0.0291948
2.84235
0.023666
3.14643
1.92975
0.0227759
0.0269757
2.03973
3.53957
1.57322
4.35744
0.0252316
3.39789
0.0229781
0.0253405
0.0244559
0.024302
0.0269583
2.5843
0.0615025
0.0693532
0.267394
2.53659
0.0866698
0.0738999
0.187604
3.36935
0.024296
6.60389
0.0241329
9.22393
1.18041
3.17221
0.0228041
36.1426
0.0600914
0.0368403
0.0258395
0.0244888
3.3834
0.0243969
2.79268
1.88137
0.0251933
0.0225353
1.70731
0.0234518
2.17896
0.0238263
0.0245608
0.0254163
0.0257659
0.0507982
37.7345
0.030662
0.0314469
0.0247365
2.48239
12.4186
0.0738077
0.0229914
0.0249249
0.117513
0.0282421
0.0245115
3.02093
14.8189
0.022658
0.191012
0.0752052
0.026983
0.023108
0.0236241
1.69768
0.0651811
0.0245148
0.0489238
0.264531
0.0238785
3.44712
0.0230853
0.028411
0.0229544
0.0295712
0.0228101
0.0621142
2.22769
0.0240546
3.50105
0.0238331
0.0614878
0.0328834
0.0249216
0.0390793
0.024552
0.0230099
0.0230661
0.0408636
6.44257
0.0236279
6.50658
39.246
8.68131
0.0258895
0.024899
0.0243789
0.0234082
0.0251735
0.102654
0.538889
2.79482
0.0230761
2.65458
0.0234639
0.0616075
0.022988
2.62635
0.0230926
3.69914
0.0229337
9.02247
0.0323435
3.26198
0.0238438
0.0230622
0.0253587
0.0703482
0.0296219
3.18145
0.0222736
0.0245851
0.0254167
0.0253583
3.78115
0.0249677
0.0282847
3.10409
3.73938
0.0229327
12.1792
0.252121
1.13875
13.5033
0.0249167
0.0989307
3.45295
2.9832
0.0230297
1.39044
0.0223401
0.0228361
3.2957
1.34919
3.52385
3.29003
0.113042
0.0237559
0.058685
1.28126
2.57706
10.0406
0.0240425
0.0241456
0.150337
0.0247058
0.0228568
0.0242773
0.0256747
0.0236297
8.06956
0.0226037
0.0650784
0.0240436
0.198003
0.0259316
2.4503
0.56264
3.03794
0.816992
0.0228312
0.0258016
0.0235887
0.0368541
0.0285144
0.0241647
2.5273
0.0990644
0.0236412
0.0348371
10.918
0.0245487
0.101833
0.132435
4.10099
0.0235845
0.0680133
0.0230883
0.0245092
3.02091
0.022982
0.0226234
0.0245907
0.191081
0.0246292
0.0254212
2.5984
0.0244761
0.0473323
0.0255608
0.0246395
1.73394
0.0883661
1.19054
0.0247073
0.0268995
0.0246525
0.0253404
0.0255513
1.34568
0.0290585
5.81
8.11431
0.0223385
2.54667
3.03794
0.0248662
0.0232063
0.0464435
0.0246279
1.50824
0.0291147
0.0227083
0.0776717
2.77334
3.60777
0.0273959
0.0281328
0.0232225
0.0258205
3.2671
0.0228099
4.165
0.0231242
3.00903
0.0740249
0.0255061
0.0238086
0.0667604
0.0243634
0.203891
0.0234971
3.16996
0.0245889
0.0228788
3.75134
0.0280271
0.032343
0.0231472
0.0245323
0.0328319
0.0243609
0.0328459
1.79551
0.0245633
2.52308
0.105004
0.0233549
0.0243817
4.30969
5.53764
0.0280087
3.0468
11.9418
0.0273999
0.0512227
0.0253793
0.0222792
0.0229667
2.33002
0.026576
0.0256755
2.57298
0.0368792
1.46562
9.86778
1.4344
0.0318463
0.0245275
0.106576
0.0273213
0.080848
0.097673
0.0256069
12.1086
0.0244359
0.0813338
0.144332
0.0242824
0.773944
0.0255707
0.0240102
0.0266996
3.46328
0.0283467
0.0238161
0.0282569
3.13849
2.12073
0.134144
0.0233992
0.0316252
0.988651
0.0306361
0.0261914
0.0282505
0.027334
2.80922
0.915319
0.0249153
3.53802
0.327143
0.0738638
0.0377088
3.17989
0.0864793
2.90906
3.62758
0.0254873
0.0288288
12.2973
1.67211
0.025563
3.1997
3.82342
0.0270302
2.49446
0.0283029
0.105135
0.0243899
0.0237383
0.0239115
2.60879
4.66136
1.66547
2.97715
0.0394775
5.37457
1.22106
0.023102
0.47347
8.47925
0.3174
2.54881
0.0233439
2.89389
0.0239676
0.0233635
0.0244526
1.8714
0.0251625
0.0233823
0.0255381
0.0241268
0.0246254
0.0244325
0.0325378
4.79492
0.139021
0.031929
0.525852
2.57447
0.0256117
0.0467236
0.0242856
0.0228198
1.6767
0.0235423
0.0424692
0.0248888
0.0840317
0.0324785
2.42795
0.0250706
2.79397
0.0245405
1.75692
0.0244786
3.02557
0.0260027
0.267876
0.693812
0.0737558
1.33661
0.0236191
0.0255145
0.103951
0.0231363
1.81022
0.0243643
7.92747
0.130995
2.82492
2.14532
0.194285
0.0241565
0.0239687
0.0684605
0.182857
2.83423
15.7766
0.0245093
0.0232359
1.86858
0.0232187
0.0244177
0.0231619
0.0800104
0.0984792
2.08612
2.83396
0.0255392
8.60599
9.62059
0.0347796
3.28964
0.031432
0.0269613
0.0241588
0.0246502
1.66324
0.0283179
0.023472
0.0275763
5.53754
0.0817296
0.0234172
0.0230394
1.23175
0.022425
0.0228381
0.02344
7.71167
0.0230477
0.0349148
0.0233379
0.022207
0.104181
0.0246887
5.97619
1.87885
2.76595
1.84977
3.04427
3.23633
0.023424
0.0231107
0.0240311
0.0230497
0.0245503
0.0585823
2.05842
0.024388
1.6593
0.144931
0.0261449
0.0388832
0.605306
0.0233951
0.0228525
0.0243282
0.0271761
2.61039
1.77295
3.70978
0.138317
0.0243451
0.0265542
0.0257897
0.023474
1.53658
0.0229182
0.608535
0.250344
0.0248098
2.65502
0.0234206
0.0264644
0.0554996
0.0246891
0.0244987
12.5046
1.70724
0.0286824
0.177523
2.80094
0.0742102
0.0423283
0.105728
0.022173
0.336696
0.024375
0.0227672
0.0228055
0.0814118
0.0243179
0.0229776
0.0228869
0.0224706
0.0320261
0.0257685
0.0243866
0.0244922
0.0246866
0.0224423
0.0241211
0.0244825
0.0241296
0.025651
3.15767
0.162067
0.0262741
0.0343641
0.0259376
0.0232105
2.10665
0.0249305
0.0228412
3.108
0.0233606
4.35768
4.64421
0.133386
1.22002
0.0261162
1.4531
0.0244671
0.0233492
0.023778
0.377201
0.024833
0.118602
2.46667
0.155651
8.08412
0.0258721
0.0243795
2.5568
0.0991354
0.0233507
1.76191
0.0728342
2.14101
0.0236205
0.0284225
2.21335
0.0227411
0.0367892
0.0560154
0.0438184
2.33964
0.0242674
0.0735497
0.0248356
0.0365859
0.0249245
6.07058
0.0235041
0.0256812
0.0230367
2.51337
0.22858
0.0243711
0.0230261
0.0275213
0.0227515
3.7655
0.028742
0.0234698
0.041039
0.0236956
0.0240858
0.0222956
0.0330632
0.0257114
1.42356
0.0790946
0.0486229
0.0243638
0.0291532
0.0685672
2.52187
0.273756
2.01222
1.75411
0.0222515
0.0275006
0.023743
2.51468
0.0369467
0.945451
0.0223884
0.0236278
2.55513
0.0223722
1.00683
0.0721027
2.37008
0.355868
0.0234988
0.0320175
0.0436024
3.58221
36.8486
0.0236796
0.0254468
0.0259493
0.0231622
0.0261955
0.0234255
0.0418961
0.0508555
11.8965
1.24494
0.15193
2.86694
0.0437061
1.47328
0.0236364
0.349889
4.69497
0.157696
1.63752
0.0308139
0.0301635
3.60688
0.0220879
0.0233939
0.0252088
0.0281961
0.0223364
0.265281
12.0509
2.72209
0.0368289
0.0226654
0.0252523
3.19177
0.0233748
0.022731
0.0248299
0.0223846
0.119688
0.0710239
9.05027
0.0227371
0.0326449
0.107512
0.0257163
0.0236437
0.0247397
0.0286158
1.98975
0.0265515
0.0233839
0.0226509
1.67912
0.0318299
0.0261366
0.0308404
31.0453
0.289324
1.44261
3.17301
0.0750365
0.0876625
0.168892
0.0608657
11.3711
0.0234566
0.0243532
0.0258301
0.0240822
0.0250625
4.90872
0.0228159
0.0286016
0.151974
0.0246742
2.852
8.22375
0.028162
0.658761
0.0959638
0.104145
10.9782
0.241743
12.683
0.731923
0.0501177
0.0351885
0.0255728
2.83726
0.0651298
1.50318
0.0236961
0.023279
1.84839
0.0289534
0.0257336
2.84732
1.86409
0.987582
0.0311375
0.178748
3.1608
10.3287
0.841157
0.0247988
9.76824
0.0257338
1.90803
0.0230303
2.62377
0.0411896
1.91513
0.0257186
7.21839
0.0546547
0.0541341
0.0250415
0.0775395
0.0257331
0.0254108
0.0501651
0.0222805
0.0256377
0.326699
0.0250232
0.0236365
0.142486
0.0237287
0.0243132
0.0512321
0.025256
0.0338293
0.032614
0.119182
0.033313
0.0338788
1.11237
0.0769885
5.16383
1.7241
0.0226764
0.0237991
0.0303199
1.94866
41.5834
0.0229803
3.06922
0.0340157
0.0301033
0.0243891
0.0258206
2.42312
0.0278089
3.46261
11.6604
1.92913
0.0246716
0.0257401
0.0236882
0.0234248
3.07041
0.0284028
0.0241542
0.0301042
0.0224896
12.1203
0.190451
0.0230586
0.0261541
0.0283691
6.73016
3.15266
1.41274
1.94938
0.429197
0.0229132
0.0569509
0.0228816
0.0235943
1.95975
0.0731682
5.61542
0.0234192
0.0230608
0.0234798
0.576099
0.0245811
3.78978
0.0253497
0.0591348
0.0601576
0.0226815
0.335561
0.0248835
0.0820871
0.0249374
0.0234803
0.0227135
0.0436462
1.80022
3.7822
0.0245665
0.0231057
2.80375
0.273071
0.145366
0.0234784
9.3145
0.0253597
3.41591
0.0230044
0.287343
5.80678
1.70444
4.91076
0.0712066
0.0491071
0.0270652
0.0245835
0.0248317
0.103754
11.6886
0.138322
0.212928
0.0226915
5.90632
0.0242797
3.42129
0.0257131
0.0325788
2.58377
0.025434
0.0253021
0.266709
1.37137
0.0230583
0.0246286
0.0245441
0.0240541
2.30236
3.29505
0.0241637
0.0791876
0.0640696
0.023589
9.51251
0.0240554
0.0266392
2.22598
0.0582127
19.4508
0.0425895
0.0254234
0.0254602
2.34901
0.0751004
0.0247411
0.424233
0.025711
0.0231418
0.0253168
1.75672
0.0235739
0.05088
0.022712
0.0245384
0.0223745
0.0250903
0.0317176
0.0249341
2.8545
0.281021
0.0312484
0.0244911
0.022524
0.0255664
3.21346
0.0247531
2.55955
0.0227946
0.0255446
4.93355
5.20585
0.0253418
5.2986
0.0241487
0.0822106
1.46471
0.0412705
1.95026
0.0870195
1.71299
0.0226161
0.0235465
40.1519
0.18074
0.043776
3.46244
12.2055
2.17929
0.0243663
0.0383862
0.100286
0.253715
1.60814
0.0254255
0.0231725
0.22125
1.89851
0.0248731
0.0242632
3.0407
0.0241139
3.73865
0.264237
0.0262424
0.0244913
0.0744679
0.308899
1.30888
0.0284153
0.0872364
3.55313
2.83118
0.0231758
0.0224972
0.0251317
0.385558
30.2599
3.83896
2.04068
39.1551
0.0254332
0.0244128
0.0226768
0.025536
0.383813
3.03511
0.324409
0.0243145
0.0316964
0.0399491
0.0252177
0.15909
0.0275637
2.43328
0.0445665
1.60298
0.0229287
3.71544
2.84892
10.0804
1.73862
0.0233172
0.0244351
2.60577
0.0264217
1.96854
0.0241311
2.87684
0.0248358
2.10438
0.0817027
0.0229877
0.027743
0.025313
0.0222496
0.0285095
0.0256402
0.0230298
0.0247531
0.0234681
0.0248303
0.0246749
0.0230586
3.09234
0.116863
0.363211
1.45807
2.67178
0.0906881
0.0357293
4.46628
0.0243
1.71501
0.0234062
0.0290816
3.71173
1.88003
0.0249367
0.0532518
0.0408692
2.31939
0.355821
0.307878
0.0240394
0.0254719
0.0254862
3.7615
0.0240419
0.136094
0.0227653
3.52042
0.0240352
0.0569596
0.0310256
0.0245856
0.0341239
0.154237
2.31635
2.18234
0.023534
0.0226487
2.77509
0.311344
4.4017
0.0254702
0.024711
0.0285152
0.20191
0.0232464
0.0250045
0.0245526
0.0266708
2.35325
0.0424009
0.0247138
0.047093
0.348721
0.0263649
0.0263047
0.185592
4.72759
0.0243961
0.0383678
0.0257849
0.0241275
0.0807356
0.210646
0.271698
0.0228515
0.0324352
0.0245044
0.0518725
0.026352
0.0254436
0.0318719
0.0243082
0.0246294
0.612704
0.0320759
3.41621
0.0315141
0.0254955
0.0290344
0.162482
0.186475
2.18788
0.0237072
0.0316731
0.0810498
0.0577259
0.0263485
8.70056
13.3672
5.43225
0.0230198
14.1824
0.0253069
2.18643
2.39109
0.0238981
3.75781
0.966557
38.2761
1.76837
1.22779
0.0236879
0.026346
0.026313
2.08501
2.27491
0.0275908
0.0240009
0.0227271
0.024119
0.0236051
7.79443
2.27905
0.0236005
0.0317764
8.80953
0.0246721
0.104539
0.0247045
0.641268
0.0895987
0.0250271
0.145271
0.0246108
0.0236122
3.54089
2.39836
2.56329
0.023891
0.138633
0.0256702
0.0255033
0.0246349
0.0255931
0.0221858
0.0244135
0.0244151
1.94205
10.8023
0.335062
1.90382
1.85374
0.0240246
1.67296
0.0246356
0.142175
2.5464
1.9212
0.117639
0.0234437
0.0246871
0.0244084
0.0776588
0.0281389
0.0228055
0.0795541
0.0227412
0.0239222
0.0501252
2.52013
0.0329736
0.0265927
2.46705
2.50671
0.0246088
0.0314545
0.0427455
0.0246837
2.12911
0.0661673
0.144177
0.115648
0.0243723
2.57673
0.0293598
0.299747
0.0230793
0.024638
0.0227018
0.0232487
0.0233609
4.60876
3.44959
0.024896
1.61818
1.92323
0.0234151
0.0253868
0.149308
0.325879
0.0272278
0.024758
0.0443937
0.026489
0.0263175
0.0233762
0.103719
3.38808
3.75551
3.29067
0.0331261
0.0269453
0.279084
30.6079
0.0815232
0.0227037
3.07246
0.0254398
0.0250014
3.40431
0.0235935
0.024887
0.0232243
0.0857959
3.20446
0.335232
3.48824
0.0238587
0.316198
0.0241694
4.70058
0.0230722
1.74155
0.314806
0.0869327
28.5342
0.0264011
0.0236302
0.107464
0.0578993
0.030279
0.0246318
2.25211
0.0325545
0.0618859
0.0252801
0.0244517
0.033437
0.0239396
0.275513
0.125153
0.0251413
0.0236197
0.0276696
0.0259461
0.0238552
2.55978
0.0250943
0.0254068
2.71166
0.0255931
0.145073
0.0236776
0.0241461
0.0236133
0.145369
1.37916
0.0792168
0.0262247
0.608902
3.54668
0.336573
0.0227144
2.80377
0.0283225
0.0239311
13.386
0.0228049
0.0246977
0.0247157
0.0223467
0.132186
0.0241084
0.0241892
0.0257556
0.0232195
0.243223
2.45975
0.0383143
0.0248897
0.0807571
0.0230391
3.23387
0.0236677
0.158311
2.16733
2.98727
0.577285
0.0276636
2.88953
5.0925
0.0236172
0.02433
1.47254
0.354944
27.1114
0.0586362
0.115581
0.0277073
0.0290021
4.38684
3.74708
0.029186
0.367152
11.3807
0.0248001
0.0232214
0.0608431
0.157427
0.0279396
0.0257465
0.0225168
0.116075
1.65281
2.82298
1.69473
1.66444
1.97446
0.354477
0.0230533
0.593464
3.4602
0.0230073
0.0237817
0.0644213
0.0246113
0.385354
0.0225055
0.0454077
0.0331376
0.0255961
0.023722
1.25857
0.0372745
4.04486
0.0265854
9.457
0.0285776
0.0228975
0.573678
0.022334
0.0236373
1.14144
0.0267743
0.33546
0.0251915
0.0252107
0.0714578
3.53979
0.0229032
0.594048
3.5493
0.51604
0.0244
0.0257571
0.591356
0.0319942
2.96283
0.0240212
0.0230591
5.31176
0.0243082
0.0241406
0.022834
1.9456
0.0281479
1.38635
0.0279972
0.0238389
0.0233125
0.0257011
1.4887
0.0423843
1.93377
3.48931
0.0581969
0.0230469
0.025106
0.0254166
0.0691544
0.0233513
2.11556
0.0244717
0.0812543
0.0245336
0.0391003
0.0254356
0.264768
0.399446
0.023876
0.168043
0.436028
0.0245469
0.0238668
0.336491
0.143468
0.0255253
2.77224
0.0226397
0.0228294
2.22439
0.0305362
0.0239761
2.77599
0.0383809
2.40309
0.0815872
0.215866
0.0505941
0.356336
0.0320456
0.0245739
0.271803
0.0233902
0.0247183
5.46426
0.0264225
0.0234599
0.149343
1.74953
0.273298
0.0233793
0.0281931
0.0245656
0.024938
0.937204
0.0248241
1.48903
0.29673
1.51819
7.51261
0.131826
0.0481088
0.0407604
1.4453
0.0233857
0.461843
31.2027
0.0258889
0.0225658
0.561183
0.154065
10.2084
0.0248359
0.0244779
0.35551
0.0264944
2.67405
0.0267348
0.350051
3.43941
0.0473953
0.0246304
0.0226435
0.656743
0.126678
0.025793
0.0260681
0.0253416
0.0226256
1.5738
0.0271959
0.0349843
0.0232689
0.0872863
0.0245622
2.43404
0.996802
0.0808572
0.148988
0.0452335
0.0248504
0.0242969
0.0236179
3.33788
0.0234261
0.0245363
2.69857
0.0226637
4.64308
0.0221915
0.0251283
2.06704
0.0239716
1.99428
0.024746
0.0423497
0.0277399
0.0236194
0.0226364
0.0230903
0.0226653
3.38593
1.73292
1.34881
1.72846
0.0228058
1.8243
0.0226477
0.0263915
0.0241728
0.0766571
1.23389
0.0249329
0.02454
0.577012
0.0234088
0.0244385
1.89684
34.5887
0.0275838
0.0244074
14.6987
4.17316
0.0241183
3.45616
0.0253673
0.0232284
0.0291521
2.61683
0.0253851
0.0269652
33.3293
0.361345
0.0291601
0.0239597
2.41458
0.0587321
1.07854
1.45772
0.0226907
0.0707633
0.0231931
0.129842
2.36225
0.0231809
8.03054
2.81055
0.139269
0.0246088
0.0292564
4.08044
12.188
0.0244812
0.989232
0.0223687
0.0233594
2.60333
0.0240647
0.0245528
0.0251213
0.0892
3.3129
0.025536
0.0345236
0.0243196
0.0240732
1.95841
0.0343512
0.0289576
2.69786
0.113235
0.0317239
0.0349875
1.46413
1.09701
0.0245345
0.358978
0.0229445
0.802438
1.65606
0.0222308
0.0359068
0.0302171
0.246463
0.0243834
0.118683
7.69816
0.0229442
5.36218
0.0245257
0.024066
0.0253795
0.024469
4.48196
0.024399
0.0245721
2.03016
11.6747
0.0235485
0.037613
0.02728
0.024964
0.0332905
4.66557
0.02499
0.149996
0.0227587
0.0303906
0.0373645
0.0330788
1.45572
1.43332
0.0236546
0.313363
2.88371
0.0261112
3.07428
0.788496
0.37566
0.0234024
0.0222463
0.0230887
0.0241922
0.0312752
0.0381928
2.27088
0.024426
0.0227758
0.304119
1.48675
0.026925
0.317065
0.163555
0.0301005
0.369269
0.0239698
0.36116
0.0351594
0.0242908
4.89757
0.611153
2.25292
37.948
0.0272867
0.0249961
3.23939
0.0240282
3.34145
0.0227479
0.0453335
0.0904008
10.4521
0.0254602
0.30142
0.250543
0.07302
0.3333
0.0235247
1.79182
0.0656095
3.99477
0.0240983
0.0234647
0.0236584
0.0221936
0.0230746
0.0253363
0.2467
0.0242363
0.0266397
15.7503
0.0591178
0.0574493
0.0602414
0.0254755
3.41307
0.0255518
0.0248818
0.0323583
3.09581
0.0321401
0.024655
0.626495
4.52361
2.86567
0.0256461
0.366269
0.0320433
0.0254867
3.07253
0.126774
5.04597
0.0230133
0.0254693
0.611646
0.830196
0.0724763
0.0521267
2.50782
2.5216
0.0237658
0.0317799
0.0255686
0.148396
0.0331117
0.312227
0.0245845
0.405452
0.0255057
9.02142
0.0240087
0.0455339
0.0326748
0.083197
2.70827
0.0241034
4.91299
2.20512
1.96895
0.0332817
0.165942
0.0237601
0.370897
0.313704
0.0233337
0.0231809
1.49628
3.91509
4.98825
0.807677
4.52496
0.024374
0.136767
0.738169
0.0244123
0.0243637
0.0370085
0.0283212
0.353031
0.0230287
0.025806
0.0242743
3.77537
2.82175
0.0237204
0.0245549
0.0243319
0.0270151
0.0529087
0.456467
0.0662755
0.0250097
0.0253794
0.0245415
2.25182
0.0259258
0.0238464
0.258237
1.48762
0.0310028
0.0244666
0.0234461
0.0252816
38.7427
0.0240997
0.0580852
0.0242582
0.0228203
0.0321828
0.226055
0.122867
0.0551714
0.330941
0.0654167
0.0226062
0.0237049
0.130997
0.144612
0.0242387
0.116311
0.103574
0.0236771
0.022697
23.0622
0.0296209
0.0221673
0.0263815
3.31111
0.0231025
0.0801376
0.0234403
0.0227443
0.034792
0.02506
0.023059
4.09014
0.0867191
0.0242859
0.0245345
0.175861
0.0275016
0.2511
0.262535
0.0253243
0.0220836
1.60886
29.5806
0.0253767
2.13322
0.301516
0.0347894
0.0343196
1.95613
1.08527
2.92641
0.0246003
0.368516
0.0242141
0.0282808
0.0262739
0.191127
2.08027
0.332866
0.0482964
0.328185
1.78546
0.335725
0.0264293
0.0236309
1.89208
0.732398
0.0230078
0.0254461
2.20478
0.0227674
0.0282027
0.355995
0.0235047
0.0267463
0.0243867
0.0622706
0.087279
0.15013
0.0407667
1.22524
0.0280107
0.0246526
0.0242403
0.0230626
0.0254088
24.5447
0.0259309
0.0856583
0.0244217
0.0278322
0.0276676
0.155381
0.146367
0.0230519
0.0270548
0.0234058
0.032848
0.0246203
0.0243779
0.025003
0.0242457
1.91517
0.0235274
0.0240305
0.0234145
1.6276
0.0225883
0.0247393
4.145
3.47159
0.0221695
0.0234091
0.0236136
0.0240666
0.308785
1.15699
0.0583057
0.0276963
0.0281506
0.0230295
0.11568
0.0253255
0.0237293
0.0240917
0.0233533
0.143458
0.0237384
0.0505043
0.025542
1.49631
0.024774
29.8051
0.0234758
0.0249496
0.93725
0.0229022
0.0245873
0.0448934
0.153327
0.0248084
0.0226312
3.79997
0.0861201
0.168544
0.0257827
1.14583
0.024469
0.0250325
0.0307949
0.349224
0.378373
0.0272375
0.486276
6.23298
0.0239842
0.0275257
2.2164
0.0580328
0.0226828
0.124337
0.0249982
0.182037
0.060433
0.0266194
0.315181
0.450988
0.0265357
28.1916
0.0652799
0.024852
0.0227839
0.0230406
0.0247672
0.025654
0.161775
0.0409659
0.0242508
0.0401233
1.34055
0.0643376
0.144926
0.0263922
0.02332
0.153289
0.0348401
2.33359
0.0223833
0.0327094
3.26563
0.022791
0.592412
28.1648
0.317717
5.59754
0.0231013
0.0254054
0.0227241
0.0245713
0.0359392
0.025608
0.023825
0.0867879
0.0227512
0.0272766
0.0306403
2.49755
0.025369
0.0256154
0.0262242
0.0673531
0.0228061
10.3215
0.0500429
0.031048
0.0868253
0.805499
0.400369
0.027325
0.0312219
12.6282
0.0246411
0.0564662
0.0246482
0.0239561
3.65293
0.0256936
2.18268
0.0318387
0.0286072
0.033635
0.0257589
0.023258
0.0381494
0.022573
0.0644706
0.0227525
0.255555
1.91212
0.0229562
0.0675039
0.0656471
0.0376605
0.0426612
2.85159
5.98142
0.0222322
0.0253826
0.100028
7.02212
0.0231039
1.87256
0.149897
0.0337465
0.0230207
0.0258983
1.90017
3.49582
0.0243502
37.8997
3.0766
0.150075
2.82757
0.113664
0.642353
3.60642
2.19736
0.0309202
0.347075
0.0230295
0.024818
0.0440018
1.84305
0.024074
0.0331903
0.0245551
0.024189
0.0238594
0.0383972
0.0244575
0.152334
0.263056
0.0241776
1.9093
0.0246385
0.0244589
1.33857
0.0379217
0.0528515
1.36771
0.0317106
0.0928559
0.0228272
0.0431432
0.0286997
1.34521
0.140446
0.0236191
0.0244857
0.0462814
0.0234264
0.0248908
0.365622
0.0234186
0.934032
0.185544
6.30069
0.0264067
0.0995123
0.0230385
2.84708
0.474445
0.0341768
0.0495233
0.351647
1.83413
0.0339517
1.74701
0.423511
0.0293622
0.0573329
0.0226181
2.43664
0.396342
0.0376694
0.083013
0.0244649
0.314143
0.0576019
0.0332738
0.0239246
2.56514
0.0251004
0.0390197
0.166648
0.0242055
0.0229567
0.0336486
2.17196
0.165908
0.0263852
0.0269048
0.0248724
0.0245851
0.044859
0.0264656
0.0251017
0.0231137
0.0222248
0.0245974
0.0229581
0.0255448
0.0227922
0.0268485
0.27633
0.268689
3.12699
0.024034
2.20007
0.0244705
0.0558995
0.0239925
0.0231068
0.024106
0.0254152
0.0233666
0.0383523
13.3851
13.0406
0.0949818
0.0225608
0.0247464
0.4083
0.033467
4.75017
0.0272152
0.0241459
0.0243201
1.34003
0.0233757
0.22617
0.0249639
0.133614
0.0248068
0.0994256
0.268073
0.0252728
0.0251579
0.135322
0.0242521
0.0254432
0.0572156
2.24041
0.0269982
0.025417
0.0237552
0.0245908
1.68942
0.0704419
0.841316
0.0233419
2.11423
0.0248815
0.0239926
0.024164
0.131931
0.0287976
0.134844
2.54826
2.18617
0.0823658
0.362314
0.0239495
0.0273085
0.275799
0.0256961
0.0252449
0.0291457
0.0226176
3.46216
0.0245304
0.107205
0.0283958
0.0247416
1.83642
0.0256552
0.0675226
0.0247497
0.0491467
0.0245667
0.0718454
0.116964
6.08217
0.349855
0.0239533
0.0244883
0.0257673
0.0223179
0.0244166
0.0245561
0.318891
0.0242174
1.93508
2.15843
0.0318496
0.0247064
0.131999
0.0230436
0.0274509
0.286056
0.0259515
0.0257683
3.20997
0.0292863
1.28551
0.0227353
0.0247198
1.6942
0.207902
1.30965
2.93904
0.0306287
0.0236526
0.315085
0.0249163
3.37568
0.0642699
2.87638
0.144838
1.9736
0.0242338
3.38151
4.75959
0.347404
0.0456655
0.054222
5.62821
0.0222846
0.0241823
2.85224
0.20558
0.0332306
0.0231837
1.15153
0.0248583
0.0248409
0.0502397
12.7811
0.468255
0.313148
0.0240859
0.152098
0.0244027
0.0287836
1.76794
0.0247833
2.47077
0.0839676
0.0243446
1.31731
2.06603
0.0680481
0.190994
0.0253935
0.0260512
0.0238691
0.0223309
0.0568754
0.0244142
0.0250811
0.143938
2.80947
0.0245422
0.0321796
0.0242229
0.0233944
0.0308153
2.5768
0.0294386
0.0255006
0.0265913
0.0243886
0.353621
11.3665
0.0241198
0.0307617
0.0244784
0.1918
0.278642
1.05153
0.0309485
0.0589149
0.0268582
0.0241101
1.59489
0.0239381
0.155733
0.0264741
0.300403
2.03157
0.0238835
0.0253529
0.0291325
0.825524
0.0420904
3.88582
0.0241684
0.0248472
0.0263605
0.0235763
0.13828
0.0537283
0.316142
1.70461
0.0927594
0.0436698
2.51945
0.134117
0.0252911
0.023795
0.0254812
0.0257743
0.0237217
9.35678
1.35922
0.821442
0.3391
0.0255008
2.40649
0.0261076
0.0230217
0.0256588
0.0244905
0.0720021
0.0243802
11.1383
0.0463337
2.95449
10.6013
0.0233395
0.042437
0.0546122
3.43008
0.0243742
3.23755
0.0249651
33.6827
0.0240402
0.0244884
0.206838
3.21183
0.0233314
0.0240176
0.0242351
0.102046
2.2932
0.0263836
5.59284
0.0248244
0.0243735
2.40434
3.4762
4.79819
0.0768456
2.19962
0.0242164
0.0282134
0.177795
1.07857
0.13845
0.0226943
0.0234354
0.0248929
0.022085
2.54827
2.9361
0.0274944
3.47038
0.0309901
0.320107
2.78185
0.0248212
1.93613
0.0247172
13.347
0.0241168
0.130502
0.0250606
0.125478
1.11506
0.0222715
0.464886
0.0236204
0.0244539
0.0454044
0.0232608
3.18056
0.0416828
0.0252419
0.0251321
0.0873522
0.0694368
8.49092
0.0456241
0.0247462
0.0253253
0.035838
0.0245542
0.0231535
0.0558998
3.39682
0.0252157
0.0235735
0.0281682
1.87329
0.110561
0.027534
0.0381477
0.0239073
0.0226472
0.0457581
14.7567
0.0239232
3.62467
0.0252426
0.0230376
0.0304455
1.87106
0.0386342
0.161284
0.0286001
1.91541
1.39205
1.57959
0.0227966
0.0245817
0.03033
0.150255
0.0235302
0.0224796
4.8976
0.111539
0.300596
0.0475872
2.65151
6.91136
1.37485
0.0263178
9.15195
0.0230497
0.0298795
0.0263773
0.0232021
8.09715
0.352278
0.358268
0.0480537
0.0321846
0.0235244
0.0254754
0.0251262
0.092049
0.0263511
0.244111
0.0273442
0.0261124
2.89468
0.0224635
0.0460359
1.886
0.0241584
0.0247032
12.0578
4.68042
0.0235857
28.9131
2.56644
0.0302077
0.0341491
1.71647
0.024792
0.0240876
1.0596
0.0332157
0.0792881
0.02718
3.60525
0.0241893
0.0236696
0.024884
2.13757
0.0296629
0.0233349
2.4256
0.205825
0.0249315
0.0239536
1.73292
0.0234009
0.0781794
2.16243
0.0236383
3.63394
1.47073
0.0239317
10.5959
3.1663
0.0250071
0.024595
0.266095
0.181558
0.0239195
0.590329
0.024246
4.34422
0.0395297
0.0232264
0.223274
0.0272836
2.97425
0.0227159
0.024892
3.2959
26.669
3.42635
0.0675089
0.0736641
3.47737
0.0282464
0.0262251
0.0226898
0.0246459
3.32898
1.73924
0.0424046
0.0275946
0.057701
2.44911
2.30168
0.0254841
0.155933
0.028982
0.392834
0.0283644
0.022682
0.0253186
0.567582
0.0239069
0.024646
0.0226761
0.0250685
0.0249453
0.0240697
0.0271732
0.0463784
0.0281457
1.89689
0.0421153
0.121523
0.0235502
2.68433
0.0231593
0.0339882
0.258968
2.74356
0.0233324
2.81183
0.0305029
0.272776
0.351795
0.0252664
0.0241539
12.7733
0.35651
0.0324829
0.112075
0.0267228
0.0233423
1.54616
0.0241268
0.0235991
0.0244552
9.50788
2.75158
0.0313835
0.0246091
0.0239007
0.0252214
0.0251695
0.835073
0.105556
0.0577437
0.0248999
0.0245827
0.0280747
0.0245593
0.159991
0.022352
0.940686
0.270505
0.0244766
0.0220887
0.0240835
0.0450337
0.0562219
2.99849
0.0259094
1.75949
0.0241064
12.3541
0.0381005
0.0248334
0.0267104
3.09987
3.41608
0.0893205
5.77848
0.0575652
0.158017
9.16572
2.00725
0.024197
2.92193
0.0260687
0.023938
0.0243062
0.0227428
0.0244081
0.119033
0.0381073
1.52885
0.0245572
0.0253476
0.0244156
2.85458
0.0247213
0.0317844
3.46554
1.89878
4.47822
0.0347571
0.0247909
0.024452
5.91248
1.9637
0.311918
0.0288757
0.0262832
2.71481
0.0548137
3.48161
0.0403569
0.0250663
3.36977
0.0298868
0.0243074
0.0232979
0.0285768
1.48377
0.0262604
0.828207
0.0255598
0.0252207
1.82406
1.08086
5.8949
2.70528
0.0310401
0.0255655
0.084731
0.0534741
0.0243435
2.07745
0.0595314
2.47181
0.0227292
0.362512
0.0252981
0.024656
0.0255602
0.0231002
0.02521
3.97878
0.278198
3.473
0.0505498
0.25539
3.22702
0.0244654
3.20747
0.022307
0.0242499
2.81198
0.0843634
0.0358519
0.0232682
0.0251345
0.937988
0.0665481
6.88435
2.2803
0.0232996
0.822924
1.95346
0.0255486
0.0221852
0.351474
0.0233849
0.295234
0.0683903
0.0247204
0.024224
0.0240196
0.123989
0.36204
0.205436
0.0239278
0.560236
0.213906
0.123703