/*--------------------------------*- C++ -*----------------------------------*\
| =========                 |                                                 |
| \\      /  F ield         | OpenFOAM: The Open Source CFD Toolbox           |
|  \\    /   O peration     | Version:  v2012                                 |
|   \\  /    A nd           | Website:  www.openfoam.com                      |
|    \\/     M anipulation  |                                                 |
\*---------------------------------------------------------------------------*/
FoamFile
{
    version     2.0;
    format      ascii;
    class       volScalarField;
    location    "400";
    object      p;
}
// * * * * * * * * * * * * * * * * * * * * * * * * * * * * * * * * * * * * * //

dimensions      [0 2 -2 0 0 0 0];


internalField   nonuniform List<scalar> 
53008
(
0.00648407
-0.016722
-0.0716063
-0.0181444
0.00727051
-0.00195853
-0.0115498
0.000690801
-0.000358783
-1.26842e-06
0.000487532
-0.0536836
0.000902282
-0.0691227
-0.020379
0.00963453
-0.0136245
-0.00613412
-0.0573744
-0.00377428
-0.000927177
-0.0970193
-0.0119405
-0.0844169
-4.05778e-05
-0.0242098
-0.00695083
0.000947773
-0.0409235
-0.0179832
-0.0583405
-0.00365581
-0.0857755
0.00202764
0.000790395
0.000797275
-0.00240133
0.000577955
0.00280215
-0.0689358
0.00224211
-0.0605074
1.28919e-05
0.000830753
-0.0678694
-0.0957759
-0.0689199
0.00781282
0.00106115
-0.0495379
-0.0290035
-0.0815097
-0.00506805
-0.00849646
0.00302391
-0.0744387
-0.0953181
0.00158266
0.000783833
0.000373779
-0.0106374
-0.00393008
-0.00526552
-0.0297211
0.000781941
-0.0607844
-0.070589
-0.0746332
-0.0179713
-0.00346949
-0.0122311
-0.0154612
0.00128541
-0.0158322
-0.0653949
-0.0329014
0.000695117
-0.00180987
-0.0236065
-0.0181815
-7.55335e-05
0.000962757
-0.0744286
-0.0591261
-0.0150219
-0.0136334
-0.0682784
-0.0649598
-0.0137283
-0.0124931
0.000683861
-0.0102726
-0.0114631
-0.0150692
-0.0655046
0.0134875
-0.00178445
0.000677885
0.000891686
-0.00349103
-0.0105387
0.00027259
-0.012394
0.000932411
-0.0121203
-0.0712052
-0.0607698
-0.0811734
-0.0363378
0.00615417
-0.0752773
-0.0700771
0.0144467
0.000876064
-0.00329454
-0.016033
0.00131274
-0.00854308
-0.0678631
0.013433
0.000691017
-0.00245278
-0.0752245
-0.0344372
0.00085161
-0.0575132
-0.0115635
-0.0104844
-0.0724044
-0.0566382
0.000514574
0.000690001
0.0142312
-0.0105737
-0.0726931
-0.0124369
-0.000408911
0.00137019
-0.0698307
0.000499544
-0.0709715
-0.0702717
0.00293242
-0.00751872
2.74266e-05
-0.0582023
0.00297092
-0.0164732
-0.00535663
-0.0175195
-0.0683864
0.000916062
-0.0314634
-0.092927
-0.0947357
-0.0214873
0.00541018
-0.0677492
-0.00196558
-0.0365651
0.00092465
0.000829938
0.000466228
-0.0188535
0.000472602
-0.0839788
-0.0686419
-0.0433192
0.000710655
-0.000298298
-0.0204909
-0.0629103
-0.0295718
0.00338792
-0.000115431
0.000922489
-0.0053625
-0.0158751
-0.0686204
-0.0332503
-0.0421744
-0.000797689
0.000891601
-0.00200618
0.0303699
0.000881696
0.000458163
-0.0687043
-0.0688855
-0.0690205
-0.000525299
-0.122473
-0.00936753
-0.060898
-0.080218
-0.0152152
-0.00537768
-0.0621005
-0.0152312
0.0203891
-0.0166719
-0.067695
-0.0548947
-0.0153788
-0.0115772
0.00465927
-0.000502606
-0.00283643
0.00212336
0.00369288
-0.020627
-0.0642667
-0.00830231
-0.00225812
-0.0755344
-0.000528701
-0.0695661
-0.064767
-0.0713325
-0.0716426
-0.0681936
-0.000638854
-0.0017739
-0.0714676
-0.0586203
-0.0531921
-0.035587
-0.0173759
-0.03575
-0.0244344
0.000907452
-0.00544194
-0.0248585
-0.0104039
-0.00313394
-0.0717476
-0.0251855
-0.00264982
-0.0134199
0.000866358
0.001151
0.0046131
-0.0597155
-0.00964732
-0.00337185
-0.0171037
-0.00180014
-0.00632743
-0.0241572
-0.0310423
0.0250316
0.000738614
-0.0658154
0.000914963
-0.00144967
0.000694278
-0.00921941
-0.0540681
-0.0744009
-0.0795331
-0.0714574
-0.0652388
-0.00338444
-0.00488926
-0.00372684
-0.00794513
-0.071553
-0.0708902
-0.0213548
0.00335169
-0.0609244
0.00119905
-0.000415116
-0.0679145
0.00202519
-0.0613105
-0.00314302
-0.0672494
-0.00364485
0.000696452
-0.0313022
-0.0037901
-0.0112754
-0.071932
-0.0122892
-0.0105398
0.00117724
-0.0721672
-0.103486
-0.0801844
-0.012161
0.00755834
-0.0727686
-0.0604045
-0.0186142
-0.0156
-0.0718423
0.000956706
0.00381938
-0.013366
-0.070834
0.000886338
0.00087475
-0.00514151
-0.0746613
-0.0701896
0.000940454
-0.0249614
0.00276968
-0.0861112
0.00575009
-0.0154913
0.000921079
0.000886866
-0.0131327
-0.017094
0.00296946
-0.0695519
0.0131976
0.0012237
-0.0647301
3.80066e-05
-0.0243997
0.000630027
0.000119136
-0.0786414
-0.0529769
-0.00686578
0.00676146
-0.0236597
-0.00324157
0.0126828
0.000950134
-0.00114356
-0.00517536
-0.00102897
-0.0494285
-0.0574496
-0.00185781
-0.0238214
-0.056398
-0.0337049
-0.0490697
0.00768481
-0.0733173
0.00089179
-0.0686479
0.000669192
0.000933581
0.00153037
-0.0039254
-0.000295361
-0.0161434
-0.0707117
-0.00188469
-0.0057102
-0.0683051
-0.0956645
-0.112068
-0.0583877
-0.0588975
-0.0112387
-0.00439583
0.000901122
0.00159147
0.000890163
-0.0227049
-0.0393982
-0.0740749
0.00223096
0.015733
-0.00659407
0.00289995
0.00135534
-0.0115265
-0.0646769
-0.00184111
-0.0725007
0.00108167
0.000918889
-0.00209376
0.000992302
-0.0167384
-0.0112769
0.00075091
-0.0154077
0.00156283
0.0131246
0.0124449
0.00596758
-0.0720612
-0.0691099
-0.0694407
0.000803483
-0.101226
-0.0709682
-0.0427552
-0.00448372
-0.0976165
0.00101697
0.000930428
0.000895327
0.0172951
-0.0127743
8.39487e-05
0.00136929
0.000875279
-0.0657523
-0.0186965
-0.0154125
-0.0527989
-0.00461643
-0.0722379
-0.0750683
-0.0753699
-0.0153991
-0.00578647
-0.0175358
-0.00634219
-0.0103602
-0.00201938
0.0071098
0.000925716
-0.012189
0.0012727
0.000121761
-0.0157915
-0.0885183
0.00129951
-0.0155398
-0.100549
-0.00797228
7.29422e-05
-0.0731248
-0.0153366
-0.00638626
-0.0674925
-0.0249984
0.0012541
-0.0944547
0.0066818
0.00199368
-0.0235593
-0.0836597
-0.0508634
-0.0182082
7.88401e-05
0.00128287
-0.0699889
0.000548306
-0.0801081
-0.0900596
0.000834744
-0.00681124
-0.09866
-0.0742143
0.0328576
-0.0547843
0.000537452
-0.079724
0.000918522
-0.0309046
-0.0114039
-0.0109209
-0.00883608
0.0138371
0.00106919
0.00563246
-0.0698408
-0.0527504
-0.0742005
0.00744548
-0.00984726
-0.0804566
-0.0122747
-0.0490286
-0.0044663
-0.0583447
-0.00563007
-0.0811603
0.000841504
-0.0933379
0.00193784
-0.0225824
-0.00933012
-0.0158471
-0.0698631
-0.0127806
-0.0721989
-0.0187732
0.000533673
0.000661519
0.0217867
0.00053613
-0.011584
-0.00197308
-0.0152473
-0.000200355
-0.00931666
-0.0415567
-0.0686854
0.00143549
-0.0168204
-0.00615385
-0.0208904
-0.0795954
-0.0515995
0.000902356
-0.0139129
0.00375028
0.00119131
0.000273874
-0.0760431
-0.0629081
0.00074815
-0.0678843
-0.0191598
-0.00915498
0.000493751
0.000822611
0.0172066
0.00615911
-0.0155316
-0.0678597
-0.00810504
-0.00189837
-0.071568
0.000502187
-0.000194993
0.000820765
0.00225828
0.000784468
0.00963939
0.00584728
-0.00694851
-0.0810972
-0.00189039
0.00214543
-0.00801273
-0.0136709
0.00185039
-0.0153387
0.000866503
0.000875377
-0.0548616
-0.0912148
0.000818664
-0.0673115
-0.0500243
-0.0839263
-0.0177398
-0.0242801
0.000308031
0.000900775
0.000708905
-0.0226273
-0.00642356
-0.0878515
0.00091408
-0.033764
0.00088509
0.00259462
0.000897468
-0.0933705
0.000500173
-0.0713906
0.000808005
-0.0501193
-0.0518317
-0.0717716
-0.00189424
0.000857425
0.00156821
-0.0520854
-0.0133636
-0.0746247
0.000204987
-0.015545
-0.0175797
-0.000305657
-0.0739038
0.00132456
-0.000234297
-0.0807544
-0.0714001
0.000811575
-0.0677021
-0.0701952
0.0136635
-0.0665983
-0.0247996
0.00579165
-0.0714316
-0.0741699
0.000545175
0.0179713
0.000449404
0.00079749
-0.0712352
-0.0724663
-0.0754586
-0.117288
0.00212358
-0.00208942
-0.0376218
-0.0126343
0.01401
-0.0676725
0.00119254
-0.00447571
-0.0726834
-0.00610975
0.000790803
-0.011919
-0.00958353
-0.00200508
-0.0797174
0.00070578
0.00994081
-0.00674617
-0.0682354
-0.00244128
-0.0820902
-0.00635741
-0.0721667
-0.0170706
0.000802381
-0.000813563
0.000853298
-0.0231992
-0.0435868
-0.00463625
-0.0391046
0.00607904
-0.00019959
-0.0563847
-0.079472
-0.0169743
0.00716831
0.0102992
-0.0762795
0.000853365
-0.0131812
0.000974089
-0.0160965
-0.0718761
0.000910179
0.000724787
-0.010984
-0.0732351
0.00125624
-0.000793046
-0.00242914
-0.0156988
-0.0675039
-0.0052453
0.00117685
-0.0717074
-0.00752813
-0.00590553
-0.00594599
-0.0132247
-0.0110866
-0.0312307
-0.0001353
-0.0574728
0.00162394
-0.079516
-0.0675697
0.000417248
-0.0497233
-0.0735962
-0.0241051
0.000901223
-0.0226087
0.00127677
0.026843
0.00128148
0.000771673
0.0078161
-0.0408673
-0.072929
0.0018622
-0.0487898
0.000917039
-0.00411699
-0.0767216
0.000760885
-0.0775359
0.000886402
0.0127818
-0.0710147
-0.00217347
-0.00188915
-0.0135734
-0.0028646
-0.0618806
0.000969285
-0.0742391
-0.0157483
0.000796721
-0.0721703
0.00211227
-0.0511486
0.00089324
-0.0156775
-0.0556002
0.000148042
-0.00731584
0.0149933
-0.0174349
0.00349709
-0.0249201
0.000942869
-0.0046675
-0.0930656
-0.0501534
-0.00302807
-0.0927986
-0.0675094
0.0018573
-0.0101067
-0.00482617
5.96823e-05
0.000920866
-0.0672791
0.00123408
-0.0341536
0.015351
-0.013645
0.0194948
-0.0528544
0.0191355
-0.027439
-0.0156715
-0.0596004
-0.00567822
0.00301459
-0.0752528
-0.00953596
-0.0670055
-0.014344
-0.0136706
-0.0603391
-0.0120021
-0.0172105
-0.0354808
-0.00691521
-0.0378791
-0.0709938
-0.0435696
-0.00197466
0.00233312
-0.0755919
-0.0122169
-0.0612399
-0.000261176
-0.0507511
-0.00637651
-0.0322731
-0.0237923
0.00228021
0.00155238
-0.0315088
-0.0559299
-0.0246078
-0.0729436
-0.00884593
-0.051249
-0.00284993
-0.0934329
-0.0642
-0.0742554
-0.0669478
-0.0166116
-0.0470629
-0.0495842
0.0230589
-0.0135155
-0.0792103
-0.0767151
-0.0137281
-0.098589
0.0022964
-0.0239314
-0.00296609
0.000512494
-0.0043901
-0.0641014
-0.0921756
-0.00118082
-0.0581717
0.00310454
-0.0673898
0.0170879
0.00048876
0.00306398
-0.0694056
-0.00862295
-0.060688
0.000925155
-0.0250293
-0.00628041
0.000939105
-0.00317779
-0.0155103
0.00143854
0.000247189
-0.0176761
0.000545566
-0.0147052
-0.0113934
-0.00115309
-0.0753024
-0.0689599
-0.018518
-0.00408326
-0.0547833
-0.00587949
-0.0675867
-0.0106478
0.000702374
-0.000281138
-0.000188262
0.00671522
0.000701784
-0.0479045
-0.00738903
-0.0563511
-0.029186
-0.0869846
-0.0158029
0.0161651
-0.0157931
-0.0790516
-0.00409511
0.00177554
-0.0160526
-0.0704574
0.0136132
-0.00199115
-0.0134871
0.00589697
0.000984916
-0.0113887
-0.00466522
-0.0594046
-0.0607926
-0.0837028
-0.101923
-0.0612805
-0.00904218
-0.00537211
-0.0319177
-0.0613363
-0.0835663
-0.0914417
0.000508762
0.00101249
-0.0191982
0.000590532
-0.0117581
0.000899956
0.00368523
-0.0654842
-0.0079792
-0.0861349
-0.0349849
-0.0677708
-0.0679042
-0.0556799
-0.078005
0.00238386
0.00147801
-0.00915475
-0.0154102
0.000112486
-0.0207157
0.00106988
-0.0260314
-0.123589
0.00980469
0.000926716
0.00053184
-0.0061684
4.09045e-05
0.000699443
0.000945203
-0.0792913
0.000876277
0.00278485
0.000894912
5.31749e-05
-0.0356498
0.00127688
-0.0764507
-0.0159318
-0.0682163
-0.00950936
-0.0238516
-0.0789662
0.000918283
0.000902336
-0.00647539
0.000892001
-0.0170786
0.00818793
-0.017862
-0.0126754
0.0214206
-0.0607591
-0.019343
-0.0351791
-0.00667328
0.000932426
0.000782732
-0.00482476
-0.00958589
-0.000714288
0.0179166
-0.0727644
-0.0690532
-0.00483295
-0.0116202
-0.0349494
0.000858181
0.0153844
0.000811094
-0.00786864
-0.0695898
-0.00465306
-0.0578939
-0.000325729
-0.0114165
0.00648479
0.00127017
-0.0040971
-0.091238
-0.0078636
-0.0465434
-0.0603938
-0.0873939
0.00350328
-0.0600283
-0.0668058
3.35247e-05
-0.01103
-0.00227648
0.000760242
0.00080795
-0.0140424
-0.0123245
0.000895525
0.000804913
1.05985e-05
-0.0180361
-0.00121801
-0.00283378
-0.00400055
-0.0203815
5.1192e-05
0.000538399
-0.00430172
-0.00408787
-0.0053897
-0.0811279
-0.0119856
-0.0201029
-0.0373247
-0.0141668
0.00058728
-0.00944711
-0.00851057
0.000787355
-0.114997
0.000558249
-0.0781354
-0.0931879
0.0142123
-0.00638826
0.00145868
0.00387627
-0.00439439
0.000910244
-0.00202641
-0.0119404
0.000658428
0.0117552
-0.0986153
-0.0742381
-0.0499509
0.00142935
-0.0124655
-0.00294366
-0.00716944
0.000552199
-0.00906958
0.00622896
-0.0725003
-0.000169919
0.00239868
-0.0693851
0.000780262
0.00233421
0.00710056
0.00153356
-0.0674557
-0.00555667
0.00401375
0.00126189
0.00244433
-0.008375
-0.0837871
0.00094076
-0.0338981
0.00056293
-0.055911
-0.0322691
-0.0123643
0.000920127
-0.0255464
0.000747496
-0.115391
0.00258283
0.000859905
0.00636481
-0.00135349
-0.00735153
3.60577e-05
-0.000758145
-0.0153203
0.0251022
0.0113338
-0.00959255
-0.0121281
0.0005686
0.00630535
-0.0593323
-0.00911039
-0.0728895
-0.00691203
5.43983e-05
-0.00541982
0.000691391
-0.0355651
-0.0418722
-0.00345445
0.000482766
-0.00100274
-0.00595273
0.000468856
-0.0181249
0.00653141
-0.0534826
-0.0091601
0.000947954
0.0014745
0.00246416
-0.0728493
-0.0542253
-0.00128263
-0.00160447
-0.0363281
0.000722701
-0.0199716
-0.000392991
0.00217036
0.00470602
-0.0625091
-0.00452749
-0.0741903
-0.0820925
-0.0656537
0.0284987
-0.0010034
0.000159599
-0.0758463
-0.048378
0.0206065
-0.0150622
-0.0132561
-0.065984
3.57707e-05
0.000264637
0.00144677
-0.00291271
0.000440437
-0.0064631
-0.104333
-0.0763532
-0.0411524
0.000741024
0.00149543
-0.0729768
0.00092606
0.000733857
-0.00369753
0.000483043
0.013433
0.00665262
-0.0538239
0.000781379
-0.0548542
-0.016207
-0.0149805
-0.00105991
0.0012286
-0.0366065
-0.00603105
0.00120942
0.000255944
0.000734244
0.00708318
-0.0508193
-0.00675994
-0.0145551
-0.070393
-0.00883388
0.0182704
-0.081892
-0.0481283
0.0102375
-6.77255e-05
0.00617676
-0.0494513
0.000516006
-0.0120384
-0.00619284
-0.00726154
0.00134936
-0.0503356
0.000706896
-0.0361745
-0.0602842
-0.0199781
-0.0784664
-0.052431
-0.0204906
-0.0721656
-0.00692833
-0.0367292
-0.0681961
-0.0684633
-0.099216
-0.0160184
-0.0428196
0.00357906
-0.026322
-0.0830021
-0.0641272
0.0194654
0.000527714
0.000983509
-0.0159542
0.000219341
-0.011327
-0.0824394
-0.0171856
-0.0171175
-0.0127464
-0.0741845
-0.0780223
-0.0589539
-0.0126397
-0.0113671
-0.0754991
-0.000570155
-0.0864395
0.000554897
-0.000541472
0.00616871
-0.0668005
-0.0347078
-0.0513912
0.00232541
-0.0601299
0.000288694
0.0110416
-0.0263621
0.00154377
-0.0435425
0.000210964
-0.0333357
-0.00858311
0.000645383
-0.000161947
-0.0544147
-0.00147986
-0.0121492
0.00214679
0.00151252
-0.0372814
0.00123274
-0.0339602
0.00254791
0.00135161
0.0104998
-0.0192904
-0.0952251
0.0192336
0.000753257
-0.00188911
0.00259257
-0.0764185
-0.0771142
0.000896744
-0.0736635
-0.00162624
0.00251363
-0.0115669
-0.0355187
-0.000551275
-0.0471373
-0.0815846
-0.0669569
-0.0877274
-0.0198316
-0.0262023
-0.00128525
0.000175194
-0.0736821
-0.00304414
-0.00658104
-0.0306593
0.000620183
-0.0506857
-0.0128283
0.000891424
-0.0239895
-0.0366322
-0.0505644
-0.074966
0.0200938
-0.071874
-0.00319352
0.000810333
-0.022633
0.000806072
-0.00035198
0.0189888
-0.0130117
-0.0585549
0.000162856
0.000883881
0.00024216
-0.012247
0.000622569
-0.113324
0.00151127
0.00883947
0.00870622
0.000757162
-0.00169794
-0.0252229
-0.019454
0.000691129
0.000149378
0.00071318
-0.0649942
-0.0676693
-0.0706186
-0.0153229
0.000882647
-0.0973606
-0.00819834
-0.00949729
0.000182451
-0.0515214
0.00146724
-0.0761289
0.000872953
-0.0110035
-0.0523663
-0.00556447
-0.0906125
-0.0133537
-0.00158071
-0.00785403
-0.0156548
0.00129429
-0.0166996
-0.0533937
-0.0731374
0.0176853
0.000755635
-0.0612124
-0.00545287
-0.0691113
-0.000755329
-0.0429717
0.0160395
-0.0163808
0.00152839
-0.0099952
0.0180453
0.000898849
-0.0106591
-0.0169925
0.00108055
-0.0728868
-0.0897983
-0.000840215
0.00860845
-0.0635011
-0.00170101
-0.0551775
0.0010829
0.00150584
-0.067866
-0.0308731
-0.0664658
-0.0064617
-0.0125388
7.902e-05
-0.00682932
0.0078204
0.00122631
0.00315543
-0.000612032
0.000892137
0.00136106
-0.00903657
0.000904623
-0.0407996
0.000793559
-0.0168277
0.000473669
0.00020079
-0.0177169
0.000677276
-0.0830263
-0.00508564
0.00254314
0.00119298
2.01846e-05
0.00167441
-0.0728788
0.00129455
-0.00160217
7.1795e-05
-0.0259328
-0.0706619
-0.0546341
0.0013617
-0.112883
-0.00667971
-0.0740268
0.0201339
-0.0555697
-0.0939018
-0.041047
-0.00894068
0.000724162
0.000901602
-0.0758835
-0.0740506
0.00156429
-0.0698766
-0.067402
0.000712424
0.00117801
-0.0204648
0.00120883
-0.00695801
0.00178564
-0.0122124
0.000587703
-0.031084
-0.0858069
-0.0249939
-0.00449913
0.00791199
-0.00849046
-0.0714229
-0.00735685
-0.00620003
-0.00901232
-0.0474523
0.000481634
-0.0720155
-0.0371677
0.00117982
-0.0744051
-0.0832705
0.000605527
0.000548036
0.00130927
-0.00179227
-0.0750883
-0.0712532
-0.00947048
-0.0523182
-0.00480673
-0.0141106
0.000745703
-0.000131494
-0.00246042
-0.0737808
-0.00592929
-0.0121411
-0.0171962
0.00582396
-0.00148972
-0.0735022
-0.0096184
-0.0693207
-0.0395325
-0.00919391
0.000817637
-0.0722987
-0.0857361
-0.0675227
0.0051457
0.00103535
-0.0144107
-0.0848777
-0.0393625
-0.0859036
-0.00871111
-0.0875804
-0.0233329
-0.0911241
-0.0633451
0.000836525
-0.0466022
-0.0002619
4.327e-05
0.00216324
0.00154468
0.000949955
0.00127463
0.000881152
-0.011732
-0.0201838
0.000559082
-0.0761045
0.0066703
-0.0551168
0.0110878
-0.0942667
-0.0390895
-0.0405435
-0.0876596
-0.010645
-0.00460434
0.000495198
0.00175779
-0.0675445
-0.068102
-0.0257285
-0.059764
0.00171559
-0.0737911
0.00386202
-0.00817926
-0.00551881
0.00160333
-0.00876294
-0.0725688
-0.00751313
0.00860426
0.00082575
-0.113827
-0.0054008
0.0084321
0.00224394
-0.0138583
-0.0408681
-0.0732967
-0.00698847
-0.092845
1.51326e-05
0.000727084
-0.0972113
-0.00816469
-0.0553177
0.00157198
-0.0211836
0.00133546
-0.0651818
0.000923901
0.0006937
-0.0152616
-0.0352508
-0.0398645
-0.00716485
-0.0213231
-0.0287884
-0.0121783
-0.0228219
-0.0240246
-0.000962618
-0.050776
-0.00517412
-0.00278325
-0.000699884
-0.0085898
0.0108351
0.00644141
-0.00900692
0.000786912
-0.00675749
-0.0159566
-0.0428083
-0.0383981
-0.000595454
-0.0267925
-0.0110657
-0.0109382
-0.00863766
-0.00682973
-0.0715011
0.00176414
-0.00501651
0.00148882
-0.00063194
-0.0767765
-0.0121892
0.000746529
0.00184332
0.00743812
0.00569004
0.00146501
-0.0766121
-0.0516181
-0.0673029
0.000942532
-0.0531203
-0.000145037
-0.0728341
-0.0684402
-0.00336432
-0.0728225
-0.0721001
-0.0789753
-0.0159779
-0.00999216
0.000717393
-0.0231403
-0.0209169
-0.0880786
-0.036765
0.00197108
-0.0068743
0.000754829
-0.00408652
-0.000126757
-0.0588161
-0.0365644
-0.00039037
-0.0237346
-0.0974135
-0.0200399
-0.00638092
0.00124569
-0.00122975
0.0022986
-0.00179219
-0.0372565
-0.0145311
-0.000567055
-0.075146
-0.0426135
-0.0817274
-0.00335487
-0.0133162
-0.00116343
-0.000880578
-0.0117455
-0.0141439
3.76904e-05
0.000323321
-0.00294511
-0.0123575
-0.0670331
0.00114606
-0.0636441
0.0252109
-0.00633955
-0.000655416
-0.0105501
0.0144128
-0.0728176
-0.0105039
0.00210567
1.08686e-05
0.000611092
0.000336986
0.0108904
-0.0491818
0.00080176
-0.0066649
0.000766355
-0.000887152
0.00626036
-0.0643702
-0.0431671
-0.0132743
0.00142728
-0.0521173
-0.00939056
-0.0162439
-0.0569884
-0.0202206
-0.00215378
0.00802296
-0.0127838
8.42862e-05
-0.00498009
-0.0852668
-0.0126577
-0.00499781
0.000672065
0.00122685
0.000768363
0.000955326
-0.000177333
-0.0798652
-0.0759175
-0.0253592
0.00318109
-0.07516
0.000955398
-0.000566706
-0.000667123
0.00814011
0.00177307
-0.0122773
-0.0207859
-0.0400026
-0.0205433
0.000932135
-0.00585637
-0.0710144
-0.0685885
-0.0694269
-0.0281523
-0.00957154
-0.0042496
-0.0506586
0.00467397
0.000785589
-0.113814
-0.000470978
-0.00436504
-0.0761074
-0.000149346
-0.0250957
0.000196314
-0.0747492
-0.077
-0.00766355
-0.0767997
0.00113339
-0.00945653
-0.00504218
-0.109198
0.000679512
-0.075119
-0.0735092
-0.0402703
-0.076408
-0.0368911
-0.00060427
0.00231044
0.00830788
0.0029485
-0.00610851
-0.0697394
0.00138812
0.00808307
-0.0157204
-0.0104095
0.000516162
-0.00134277
0.000644173
0.00825742
-0.00197253
-0.000421493
-0.00275347
0.00153776
0.00113801
-0.0850699
0.000341005
-0.0272232
-0.0958805
-0.0137827
-0.0746315
-0.00243814
-0.00891736
-0.000382414
0.0138907
0.0141764
0.00358446
-0.0360458
-0.0102556
-0.074142
-0.00658141
0.000744137
-0.0845764
0.00220618
-0.00138989
-0.0555514
0.000779877
-0.0113637
-0.0212319
0.000422077
0.0120715
-0.00421272
-0.0075152
-0.00315133
0.000234728
-0.0689028
-0.0714081
0.00535333
0.00131076
0.00384094
0.000523177
-0.0783488
-0.000998473
-0.0123876
0.00441417
-0.0733387
-0.00660403
0.00179612
-0.0858508
-0.112037
-0.000137293
-0.00614247
0.0186138
-0.0101944
-0.0499908
-0.0384121
0.00989812
-0.00481718
-0.0135775
-0.0871728
-0.0724192
0.000367645
0.0148425
-0.0690631
0.000701288
0.000249085
0.00363364
-0.00631234
0.00199403
-0.00490976
0.000597463
-0.0621967
-0.0718151
0.00657579
0.00593246
-0.00711636
-0.0109264
-0.00922102
0.000861997
-0.013043
-0.0704644
0.000576997
-0.00180591
0.00733184
-0.00609127
-0.0126649
0.000589178
-0.0667135
-0.0287986
-0.00452186
0.000659277
-0.00734611
0.00308288
-0.0673512
-0.0377153
-0.0504615
0.00125264
0.000811213
-0.0718053
0.000432611
-0.000648991
0.0106705
-0.0356553
-0.00479106
5.55936e-05
-0.00190016
-0.0471169
-0.074658
0.000797338
-0.0114924
-0.0727371
-0.0181116
-0.0033639
-0.00297958
-0.00715036
-0.0453953
-0.0716982
-0.00604079
0.000861421
-0.0845351
-0.00268546
-0.00888241
0.000773215
-0.0175048
-0.0197987
0.0138216
-0.0195849
-0.00366124
0.00101849
-0.006128
0.0221544
-0.0332233
-0.0633862
-0.0890844
0.00403233
0.000927309
0.000664869
-0.017187
-0.000686149
0.000293157
-0.0183618
-0.0107326
-0.0628054
0.00125671
0.00556457
-0.00173244
-0.00650217
-0.00306846
-0.00485493
0.00585766
0.00569899
-0.0157464
-0.00476034
-0.00995237
-0.0751115
0.00162478
-0.0732991
0.000696179
0.000699809
-0.0604335
0.000391802
-0.000831695
-0.0344771
-0.00341285
-0.00844652
0.00900661
0.00152123
-0.0642955
-0.0133693
-0.00623797
-0.00953221
-0.00490448
0.00093642
-0.0213941
-0.0974753
-0.0390427
0.000192354
-0.0746361
-0.0756178
-0.00523563
-0.000161008
0.00132756
-0.0154157
-0.0259382
-0.00993395
-0.0240068
0.0197727
-0.073886
0.0164978
-0.0566309
-0.0125358
-0.00142501
-0.0363548
0.0129921
-0.000193744
0.00590098
-0.0725331
-0.00140715
2.74118e-05
-0.0125482
-0.0729404
-0.0488053
-0.0243252
-0.0157911
-0.0133092
-0.0370426
-0.0949614
-0.0362023
-0.0053791
-0.0711561
0.00108019
-0.0149603
0.000737375
0.0141255
0.0146028
-0.00185589
-0.00148636
0.00150709
0.000686555
0.0184793
-0.0253188
-0.000689649
0.000924298
-0.0462666
-0.0168045
0.00481999
-0.000521004
-0.0186823
-0.00675464
-0.00185941
-0.0236378
-0.0023619
-0.000854897
-0.11524
0.000917339
-0.0165925
-0.0698864
0.000749597
-0.1055
0.000215092
0.00136791
-0.0102625
-0.00530514
-0.00823376
-0.0113891
-0.0556917
-0.00874274
-0.000611659
0.000735375
0.00086492
0.000691312
-0.0818303
0.0273591
0.014385
-0.0108577
0.000709708
0.0157236
0.000740253
-0.002802
-0.00104538
0.00862767
0.0167561
-0.00112433
-0.0156275
0.0131349
0.000171273
-0.00973418
-0.017258
-0.0667667
-0.00504068
-0.011618
-0.0684021
-0.0834615
0.00116902
-0.0800995
-0.00186924
0.000900677
0.00066977
-0.0818418
-0.000444586
-0.00855822
-0.0720059
-0.0146209
0.00146751
0.000332823
-0.0605392
-0.0315586
0.00532102
0.0238231
0.000689762
-0.0475414
0.000595847
0.0125228
-0.0808928
0.00035024
-0.0497492
-0.0436793
-0.075138
-0.0110966
0.00145133
-0.0810029
-0.0559103
-0.0158623
-0.00205628
0.000491938
0.000300304
-0.0913197
-0.00435455
-0.0169307
0.000253545
-0.0645752
-0.0701111
-0.0347416
0.00236691
-0.00233064
0.00115779
-0.00933669
0.00232827
-0.000415518
-0.0960495
0.000666072
-0.0062813
0.00281473
0.0158859
-0.0224028
0.00125089
-0.0142695
0.000885382
-0.0149176
0.0258852
0.000265078
0.00296061
-0.00139386
-0.0698602
-0.0025999
-0.0352808
-0.0978832
0.00088843
-0.0593875
0.000145635
-0.00445694
-0.00459484
-0.00871438
-0.0687104
-0.0117039
-0.00970706
-0.00181081
-0.10526
-0.000222407
-0.0143081
-0.00789869
0.000717592
0.00321981
-0.0788763
0.000381441
-0.0482339
3.1558e-05
0.00147022
-0.0333703
0.0035542
0.0241929
0.00681689
-0.00216252
-0.0116128
-0.0862377
-0.00491145
-0.0767483
-0.00106655
-0.0130585
0.000898717
0.000301705
0.000875354
-0.00450181
-0.00114403
0.001973
-0.0115623
-0.00986479
0.000693689
-0.0728238
0.0183428
-0.0142866
-0.011177
0.00678925
-0.0300644
-0.0131162
-0.000764468
-0.0103208
0.00294697
-0.00422568
-0.0584115
-0.013831
-0.103455
-0.050655
-0.00910765
0.000642261
-0.0815318
-0.00655141
-0.0530551
0.000802205
-0.0659217
-0.0191284
-0.0511215
-0.0178791
-0.00756617
-0.00225106
0.00121815
-0.073551
0.000856929
-0.00564021
0.00397034
-0.0791945
-0.0084612
0.000169782
-0.00220733
0.000222298
0.000970681
-0.014808
-0.0696953
-0.00421996
-0.0298425
-0.0510438
-0.0120061
-0.0117535
-0.0296242
-0.0332057
-0.0690554
-0.00146224
-0.0242882
0.00129938
-0.0769484
-0.0435002
0.0013412
-0.0035415
-0.0798732
-0.0776017
-0.0211869
-0.0130167
0.000139837
-0.0170196
-0.0768128
-0.0689818
-0.0582059
0.000896723
0.00154253
-0.0171944
-0.0142985
-0.062799
0.00523779
-0.0589712
-0.0588082
0.00102754
-0.0242842
-0.00124495
-0.0132039
0.00329562
0.000967812
-0.0107427
-0.0110296
-0.0342996
-0.0495892
-0.00614975
-0.0599756
0.00146252
-0.0145267
-0.0935869
-0.00599033
-0.0527025
-0.0418513
0.0318339
-0.040145
-0.0691934
0.00101944
-0.0117327
0.000504788
0.000356413
0.000361962
0.026552
-0.0566058
-0.0713466
-0.0159578
-0.0874276
-0.00918378
-0.00830106
-0.0234802
-0.0092223
0.000665433
0.00257625
0.00219079
-0.00218175
0.000576014
-0.000676571
-0.00437525
-0.0635263
-0.0847859
-0.00128043
-0.01704
-0.00437689
0.00170407
-0.0103829
0.00209229
0.00261203
-0.0259322
-0.031135
-0.0155563
-0.104608
-0.00345006
-0.00368485
-0.00758864
0.0237452
-0.0131881
-0.00852963
0.000936384
6.66492e-05
-0.0512029
-0.00586922
-0.0230499
-0.00437163
0.000788085
0.00291537
0.000677989
0.00559674
0.0031653
-0.00431125
0.00411967
0.000648416
-0.00135121
0.00766609
-0.072716
-0.00960875
-0.0620842
-0.0664475
-0.00240269
0.000730756
-0.0477343
-0.0127523
0.000172218
-0.0400667
-0.0693564
0.00097346
-0.00606984
0.00103579
0.00076183
0.00301287
0.000700406
0.000917484
-0.114674
-0.0387587
0.00123486
-0.0154458
-0.00522958
-0.00262953
-0.00381157
-0.00981718
-0.0159327
2.82537e-05
-0.00498219
-0.0688087
-0.0268352
0.00446992
-0.074036
-0.0351416
0.00310437
0.0314808
-0.0195371
-0.0708054
0.000498716
-0.0119262
0.00121574
0.000372403
-0.0138083
-0.0676846
0.000237517
-0.0119812
-0.0103231
-0.00739571
-0.00430739
-0.00964344
0.00128915
-0.000701393
0.000701535
-0.0197685
0.000891864
-0.0327033
-0.0775505
0.000709378
-0.00316894
-0.00772883
0.00103432
0.00157808
0.0011994
-0.028303
-0.0203833
-0.0125772
-0.00833658
-0.0152297
-0.00278153
-0.0113692
-0.00875465
0.000920332
-0.00487168
-0.0633358
-0.00326478
-0.0455391
-0.00462811
-0.0026535
-0.0025186
-0.00108462
-0.0385791
0.000555287
0.00169987
0.000195332
-0.0312335
-0.0152844
-0.00249419
-0.0043222
-0.00976755
-0.0741779
4.86897e-05
-0.0035025
0.00102318
0.00538839
0.000624173
-0.0219968
-0.0956804
-0.0722306
0.000178916
0.000933967
-0.000296581
-0.00553418
-0.00434623
-0.00440921
0.00139509
-0.040504
-0.000645746
0.000918603
-0.0454175
-0.00460417
0.000677145
-0.00817512
0.000908829
-0.0124286
-0.00147398
0.00350426
0.00155317
0.0277108
0.00122688
-0.054333
0.00101926
0.0003904
-0.0143136
0.000806819
-0.00898064
-0.0592575
-0.0452563
-0.0237781
0.000659638
-0.0699023
-0.0635745
-0.00479799
-0.0155723
-0.00365852
0.00122439
-0.00412838
0.00310388
0.0251139
-0.0101655
-0.0444905
-0.0162719
-0.0541869
0.000316322
0.00245564
-0.0128079
-0.00431326
0.000723764
-0.0686587
-0.0256824
-0.00885091
-0.0303429
-0.0367223
-0.00374931
0.00236143
-0.0351851
-0.0529926
-0.0686467
-0.0237764
0.000835692
0.000913179
-0.0115109
-0.0147458
-0.0062759
0.00650063
-0.00882593
0.00633665
-0.00507899
-0.0629335
-0.0101548
-0.00281814
0.000922851
-0.0355679
-0.0347143
0.00530552
0.00050001
-0.0244058
-0.077843
0.000770628
-0.00508282
-0.0487026
0.000860751
-0.0513524
0.000929444
0.00142927
0.000687148
-0.0136928
-0.0411235
-0.00920282
0.000562775
-0.0198956
0.000808913
0.0012505
0.00312333
-0.0596492
-0.00807401
-0.00187687
-0.00263583
-0.0657299
0.000708176
-0.0597902
-0.00814121
-0.0316096
-0.0489013
-0.00769545
-0.00250819
0.00121878
0.00328518
-0.059113
0.00117102
0.0016231
-0.0196318
-0.00514331
-0.0599252
-0.0215543
-0.0375335
0.0037343
0.000309052
-0.0487462
-0.0358245
0.000971841
-0.00766016
0.000613537
0.00621435
0.000770827
-0.0072276
-0.00677701
0.000924064
0.0107169
0.0102967
-0.00971403
-0.0608595
-0.0636464
-0.0907459
0.000271876
-0.00172593
0.00318018
-0.092163
0.000931057
-0.0691013
-0.0530763
0.00356861
0.000838461
-0.0248741
-0.0209007
-0.0739915
-0.00240869
-0.0700442
-0.075581
-0.0539006
-0.0849066
-0.0442708
0.000531674
-0.0696952
-0.029455
0.00254535
-0.00555618
0.000534021
-0.00817276
-0.0283935
-0.069763
-0.00812858
-0.0309533
-0.0166541
-0.000750966
-0.0039767
-0.00992746
-0.00794374
-0.0117821
0.00139648
-0.00450332
-0.0157404
-0.0193727
-0.00808135
-0.00298529
-0.0118947
0.00708112
0.015751
-0.0446975
-0.0384644
0.000706131
-0.00744384
-0.0138965
0.0226888
-0.0117867
-0.000517503
-0.0108005
0.0011287
-0.000433752
-0.022885
-0.0138148
-0.000359613
-0.00539293
-0.0672942
-0.0499879
-0.0213406
-0.0762216
0.000516351
-0.0691116
-0.0112013
0.0026121
-0.00283203
-0.00684185
0.0184168
-0.0493424
-0.0694895
-0.0717707
0.00176627
-0.0034635
0.000714117
-0.000174793
-0.00790407
-0.0339405
0.00810887
-0.0105042
-7.14134e-05
0.000553672
-0.0395603
0.000232509
0.00287082
0.000178001
-0.00342266
-0.0693898
0.00121139
2.02124e-05
0.00369195
-0.0232488
0.00103616
-0.0404226
0.00164263
-0.0251014
0.000590507
-0.0287835
-0.0346085
-0.0191987
0.000987597
0.000253134
0.00015115
4.03802e-05
-0.00881019
0.00076039
-0.00513176
-0.00756822
-0.000382912
-0.0746455
-0.00746968
-0.0729549
-0.0027593
-0.00602105
-0.000806554
0.000978291
-0.00841533
-0.00202734
0.000276211
-0.021088
-0.0690423
-0.0500192
-0.0496073
0.000600786
0.000859894
-0.00771442
0.00229802
-0.0696213
-0.0445567
0.00119174
-0.0123129
-0.00115589
0.000281585
-0.0611573
0.00131732
-0.0756725
-0.022839
-0.0527676
-0.00896899
-0.0304555
-0.0290596
-0.0506807
-0.00422338
7.91032e-05
0.00277982
-0.0783503
-0.00746722
-0.00188642
-0.00139855
-0.0141106
0.00108626