/*--------------------------------*- C++ -*----------------------------------*\
| =========                 |                                                 |
| \\      /  F ield         | OpenFOAM: The Open Source CFD Toolbox           |
|  \\    /   O peration     | Version:  v2012                                 |
|   \\  /    A nd           | Website:  www.openfoam.com                      |
|    \\/     M anipulation  |                                                 |
\*---------------------------------------------------------------------------*/
FoamFile
{
    version     2.0;
    format      ascii;
    class       surfaceScalarField;
    location    "400";
    object      phi;
}
// * * * * * * * * * * * * * * * * * * * * * * * * * * * * * * * * * * * * * //

dimensions      [0 3 -1 0 0 0 0];
oriented        oriented;


internalField   nonuniform List<scalar> 
78975
(
0.0640658
-0.199654
0.135588
0.125492
-0.113825
-0.0116668
0.0128496
-0.00886153
-0.00398809
-0.0720997
-0.145645
0.217745
-0.0736542
-0.149303
0.222958
-0.165583
-0.143381
0.308964
0.176058
0.0633949
-0.239453
0.358822
-0.182299
-0.176523
-0.211539
0.17187
0.0396692
-0.12153
0.303014
-0.181484
0.223745
0.0675746
-0.291319
-0.079915
0.0305099
0.0494051
0.387417
-0.31128
-0.0761375
-0.00105331
0.000701943
0.000351371
0.0751329
-0.206863
0.13173
0.110829
-0.159322
0.0484925
0.224268
-0.32972
0.105452
0.200595
-0.184647
-0.0159487
0.13046
-0.110671
-0.0197892
0.334307
-0.0919293
-0.242378
0.283536
-0.19217
-0.0913663
0.000615573
0.00220187
-0.00281745
0.0840845
-0.00959385
-0.0744906
-0.00143511
0.000138608
0.0012965
-0.298829
0.177299
0.185189
-0.0887324
-0.0964565
0.177408
0.023187
0.360591
-0.16007
-0.20052
-0.00621452
-4.38994e-05
0.00625842
0.164519
-0.0808691
-0.0295408
0.11041
0.0836823
0.250625
0.00324056
0.000161333
-0.00340189
0.305402
-0.235767
-0.0696351
0.107628
-0.335934
0.228306
0.305457
-0.197829
-0.176061
0.321653
-0.145591
0.268111
-0.265109
-0.00300233
-0.197369
-0.0621785
0.259548
0.00348133
0.00587475
-0.00935608
-0.0157221
0.0279748
-0.0122527
0.00228866
-0.00698004
0.00469138
-0.130953
-0.171366
-0.355834
0.169075
0.186758
0.000983472
-0.0010656
8.21259e-05
-0.00163891
0.00225449
-0.00614759
0.00128334
0.00486425
0.15175
-0.225404
0.0107698
0.257341
-0.00280407
0.00979597
-0.179866
0.0847173
0.0951489
0.0172425
-0.0262326
0.00899008
0.350817
-0.203478
-0.14734
0.110931
0.0747899
-0.185721
0.278746
-0.205683
-0.0730632
0.0292959
-0.047434
0.0181381
-0.0137541
0.0237606
-0.0100065
-0.307415
0.137863
0.169552
-0.320659
0.118224
0.202435
-0.337166
0.24182
0.0953467
0.0820647
0.17906
-0.261125
0.164515
-0.293792
0.129277
-0.142588
0.23587
-0.0932821
-0.120424
-0.0594426
-0.225058
-0.0956018
-0.00766931
0.00995797
-0.00759345
0.016892
-0.00929858
0.055678
0.0141694
-0.0698474
0.183615
0.0268816
-0.210497
0.12523
-0.249652
0.124422
0.310409
-0.0971996
-0.21321
0.286647
-0.1977
-0.0889472
0.322118
-0.229258
-0.0928592
0.309399
-0.140894
-0.168505
0.0739837
0.00482857
-0.0788123
-0.122224
0.165277
-0.0430525
0.212337
0.146485
-0.19466
-0.0892629
0.283923
0.107795
0.0773938
-0.0951905
-0.107168
0.202358
-0.117325
-0.181503
-0.346109
0.244779
0.10133
0.0567378
-0.0274419
0.0231045
-0.103974
-0.341653
0.0944413
0.247211
0.134429
0.0382912
-0.17272
0.0926237
-0.042369
-0.0502547
-0.113813
0.0507643
0.0630487
0.100755
-0.175947
0.075192
0.153536
0.100274
-0.253811
0.323273
-0.271517
-0.0517558
-0.180667
0.286975
-0.106308
0.171929
-0.265201
0.0932723
-0.229238
-0.112414
-0.0562079
-0.057605
0.140611
-0.194528
0.0539162
0.230166
0.0326764
-0.262843
0.280503
0.0427697
0.145751
0.241666
0.25762
-0.13239
-0.188817
0.270881
-0.170216
-0.16695
-0.00958641
0.0936709
0.251744
0.108847
0.0706755
0.239734
0.015665
-0.048061
0.032396
0.0130084
0.0500648
-0.0630732
-0.0102371
-0.00441258
0.0146497
0.0810826
-0.175446
0.0943637
0.164559
-0.231853
0.0672941
-0.00923131
-0.00444106
0.0136724
0.00808859
-0.0182123
0.0101237
0.043323
-0.052816
0.00949298
-0.253448
-0.0104985
0.263946
-0.120871
0.209076
-0.0882056
0.143822
-0.232873
0.089051
-0.0752063
0.285888
-0.210681
0.179016
-0.0680851
0.0459722
0.0466515
-0.0670815
0.207693
0.373414
-0.281058
-0.0923567
0.0775426
-0.22434
0.146798
0.0336479
-0.0353177
0.00166983
0.119002
-0.126986
0.00798359
0.361389
-0.250707
-0.110682
0.0165668
0.0104416
-0.0270084
0.0999491
-0.136972
0.0370231
-0.0729528
-0.0208215
0.0937743
0.00951898
-0.00801772
-0.00150126
0.0161169
0.114343
0.287868
-0.240859
-0.0470081
0.101897
0.0324688
0.0276413
-0.06011
0.0505359
0.0965299
-0.147066
-0.0154762
0.00788272
0.258837
-0.1053
0.289302
0.00379288
-0.293095
-0.311003
0.1252
0.185803
0.0171213
-0.00903268
0.26481
0.023058
0.000954487
-0.00103065
7.61634e-05
0.0191183
-0.00944031
-0.00967804
0.20141
0.0192981
-0.220708
-0.349761
0.25277
0.0969916
-0.189627
-0.110975
0.300602
0.083428
-0.112969
-0.214589
0.0795508
0.135038
0.13047
-0.00497769
0.278544
0.0106077
-0.289151
0.267614
-0.186345
-0.0812688
-0.0100376
0.00252776
0.00750983
-0.306802
0.210727
0.0960749
-0.0626047
-0.0477941
0.110399
0.0165231
-0.00444163
-0.0120814
-0.0025237
0.000884784
0.111187
0.0737328
-0.184919
0.228641
-0.0944127
-0.134229
-0.0274106
0.0306179
-0.00320729
-0.290019
0.124437
0.188257
-0.107175
-0.119133
0.324174
-0.205041
-0.262989
-0.092845
-0.0537797
0.262526
-0.208747
0.232184
-0.247787
0.0156034
0.214024
-0.267804
-0.0008173
-0.000617813
-0.0715439
0.0546355
0.0169084
0.0312555
-0.0196794
-0.0115761
0.0392316
-0.27755
0.238318
0.224956
-0.361663
0.136707
-0.0723212
0.134542
-0.0622204
-0.0198475
0.123188
0.0413204
-0.164508
0.0506162
-0.249242
0.198626
0.177152
-0.294477
0.322968
-0.0696919
-0.253277
0.247297
0.0312463
0.252535
-0.108713
-0.0563857
-0.0151582
-0.00216064
-0.120064
0.0759067
-0.116569
0.0406621
-0.16174
-0.0497994
0.324322
-0.21224
-0.112083
0.192564
-0.335945
-0.145942
0.0555591
0.0903829
0.0741476
-0.327595
0.0973734
-0.310603
0.21323
-0.00223855
-0.00779905
0.0100474
-0.00656606
-0.00215013
0.00872494
-0.00657482
0.279464
-0.0690364
-0.210428
-0.00466486
0.00037905
0.00428581
-0.108822
0.164473
-0.0556503
0.0512618
-0.0382534
0.0293423
-0.0120998
-0.330195
0.100956
0.191923
-0.21562
0.0236969
6.54466e-05
0.0480527
-0.0481181
-0.0673624
-0.262832
-0.0225178
-0.0693319
0.0918496
0.0871655
-0.25679
0.169625
0.000804588
0.000178884
0.0900169
-0.0548682
-0.0351487
-0.300317
0.149588
0.150729
-0.0824691
0.0983127
-0.0158436
-0.316494
0.157524
0.15897
0.0634282
0.216036
0.0845145
0.146119
-0.230634
0.177496
-0.220756
0.0432598
-0.0248996
0.00917746
-0.130728
0.0584071
-0.0964473
0.0519159
0.0445315
0.0817722
-0.233053
0.151281
-0.145864
0.223407
-0.0010499
-0.00599088
0.00704077
0.0497511
-0.207751
0.158
-0.000188935
-0.000864379
-0.10525
0.0475579
0.0576916
0.00768185
0.0114365
-0.0174017
0.00796136
-0.00173655
0.0509645
-0.049228
-0.153955
0.203707
-0.027806
0.257972
-0.0393934
0.0173675
0.0220259
-0.00648065
-0.0542201
0.0607008
-0.00238262
-0.00803001
0.0104126
-0.0177943
-0.107747
0.125541
0.197724
-0.122591
0.102601
-0.120396
0.200524
-0.1885
-0.0120233
0.325184
-0.219225
-0.105959
0.231555
-0.0396315
0.0532843
0.143213
-0.196498
0.144829
-0.0448798
0.201029
-0.291357
0.0903285
-0.014962
0.0382956
-0.0233336
0.156962
0.052244
-0.209206
-0.139826
0.141932
-0.0238387
-0.118094
-0.34926
0.273954
0.075306
0.261692
-0.257798
-0.00389471
-0.163007
-0.153488
-0.0352777
-0.0400894
0.0753671
-0.106514
0.258699
-0.152185
0.135637
0.121983
-0.217007
0.051616
0.165391
-0.302119
0.107459
0.103707
-0.290004
0.186297
0.0367966
0.163727
-0.11127
-0.0177699
0.12904
0.0184645
-0.0458027
0.0273382
0.303446
-0.250322
-0.0531239
0.0775549
-0.0638848
-0.0136701
-0.317952
0.198819
0.297995
-0.040164
-0.257831
0.33056
-0.118223
-0.144493
0.226265
0.0371544
0.0528625
-0.006728
0.0548759
-0.0481479
0.00413729
-0.0129153
0.00877796
-0.0196943
0.012432
0.00726224
-0.0544853
-0.107789
0.243426
0.172491
0.178326
0.294147
-0.149427
-0.173192
-0.17657
0.0169682
-0.0121627
-0.00480551
-0.0105304
0.1829
-0.0717134
-0.23516
-0.00900479
0.244165
0.0843066
-0.0520618
-0.0322448
0.387988
-0.249284
-0.138704
0.249649
0.0396527
-0.0676591
0.0659226
0.268613
-0.0861379
-0.182475
-0.0528143
0.0528797
0.086747
-0.207618
-0.0083018
0.00135207
0.00694973
-0.299856
0.294224
0.00563173
-0.315925
0.315925
0.0407588
-0.152029
0.145081
-0.0941526
0.0116835
0.0427995
-0.0271345
0.0610316
0.0329706
-0.0940022
0.278025
-0.0989644
0.214837
-0.278608
0.0637702
-0.0138935
-0.00580073
0.00811454
-0.00995019
0.00183565
-0.011449
0.0245575
-0.0131085
0.209997
-0.186512
-0.0234851
-0.0152857
-0.163882
0.179168
-0.000420044
0.00993902
0.0480434
0.0362632
0.210395
0.0217884
0.160626
0.0919082
0.00714925
0.00570036
-0.219686
-0.0731572
0.292843
0.150719
0.0779223
0.0267021
0.183295
0.0115142
0.005454
-0.101911
0.306238
-0.204327
-0.328656
0.226744
-0.212466
0.307591
-0.0951252
-0.000374859
0.000236425
0.000138435
0.0383725
0.0170049
-0.0553774
0.329453
-0.0777089
-0.0190116
0.118386
-0.0993744
0.268602
-0.0671916
0.00429793
-0.0189819
0.014684
0.1656
-0.208008
0.0424071
0.206593
0.0800545
0.237799
0.0851697
0.107932
-0.274834
0.166902
0.0327427
0.10919
-0.109782
0.260309
-0.150527
0.0425565
-0.239926
-0.00961434
0.00746422
0.131942
-0.199024
-0.207578
0.306452
-0.0988737
-0.0488894
-0.309467
0.159901
0.149566
0.0771622
-0.0649389
-0.0122233
0.117142
-0.301057
0.183915
-0.324805
0.12857
0.196235
-0.00711309
0.0060632
0.00176819
0.00651735
-0.00828553
-0.264629
0.291734
-0.0271047
0.150742
-0.196345
0.0456026
-0.133909
-0.0758563
0.209766
0.266655
-0.0686754
-0.197979
0.212877
-0.0809348
-0.337114
0.23767
0.0994439
-0.0610819
0.193176
-0.132094
0.169799
-0.228165
0.0583657
0.102838
-0.255784
0.152947
0.00813471
-0.0104443
0.00230959
0.113647
-0.0302192
0.244726
-0.272532
0.0491945
-0.183104
-0.116997
0.0865345
0.0304621
-0.0203876
0.13939
0.00860769
-0.0104008
0.0017931
0.17551
-0.190795
-0.00598215
0.0413233
-0.0353412
0.284539
-0.247174
-0.0373649
0.110578
-0.00830014
0.222081
0.0651329
-0.287214
0.250309
-0.351267
0.100958
-0.22784
-0.0516421
0.279482
-0.135994
0.300509
0.324314
-0.0993579
0.0595936
0.0085887
-0.0681823
-0.00159955
-0.00670225
-0.244723
-0.0573968
0.218455
-0.0486554
-0.00429712
-0.00424937
0.00854649
-0.00249516
0.00244487
5.02974e-05
0.0144148
0.00389192
-0.0183067
0.064792
-0.0712726
-0.0221681
0.0722329
-0.272208
0.0227679
0.24944
-0.00925671
-0.143133
0.15239
-0.0893039
0.307868
-0.218564
0.0195555
-0.212632
0.193077
-0.313376
0.224072
0.0731747
0.0566279
-0.129803
-0.00654663
0.000332115
-0.00337898
-0.0104815
0.0138605
0.292197
-0.162771
-0.129426
0.0385034
-0.0541524
0.0156489
0.268364
-0.0361093
-0.232255
0.178844
0.0999022
-0.0939278
-0.217075
0.0681642
0.180683
-0.248847
0.0946847
-0.020701
0.0359271
0.208799
-0.00608745
0.00608745
0.00102579
0.260667
0.263126
0.0620579
0.108538
0.182613
-0.291152
0.327678
-0.22876
-0.0989181
0.255279
-0.168114
0.170329
-0.189832
0.0195027
0.319445
-0.244429
-0.0750163
0.302932
-0.229346
-0.0735856
0.244913
-0.225357
0.0500108
0.0325505
-0.0825613
-0.0159228
0.0394537
-0.0235309
-0.150227
0.0727803
0.0774465
-0.0432824
0.0195735
0.023709
-0.0100901
0.00482372
0.00526634
8.55135e-05
-0.000743758
0.000658244
-0.347166
0.235906
0.11126
0.00692709
-0.0206812
-0.0246269
-0.0186556
0.0372636
-0.0598092
0.0225457
0.308495
-0.152861
-0.155634
0.00949347
-0.0020005
-0.00749297
-0.317899
0.134097
0.183802
0.10589
0.223563
0.323654
-0.233729
-0.0899253
0.0481767
-0.00485365
0.185729
-0.0153997
-0.300391
0.28638
0.0140106
-0.0809446
0.278636
-0.197691
-0.146671
0.254603
-0.0143899
0.0557874
-0.0413975
-0.123984
0.0995405
0.0244431
-0.159384
-0.140932
0.0784333
-0.00077121
-0.0776621
0.277693
-0.178069
-0.0996234
0.0014411
-0.0007327
-0.000708396
0.001269
0.0323789
0.0281343
-0.0646699
0.0365356
0.248272
0.0546593
0.281206
-0.133514
-0.147692
-0.112673
-0.0809222
0.193595
-0.210093
0.310046
-0.0999524
0.0973574
-0.190148
0.298686
-0.0701952
-0.0800316
-0.343863
0.239122
0.104741
-0.154919
0.264009
-0.10909
0.105203
-0.289561
0.184358
-0.0935363
-0.231269
0.0252039
0.174231
-0.199434
0.000507918
-0.00212221
0.00161429
-0.226028
0.300738
-0.0747099
0.327335
-0.232781
-0.0945538
-8.62823e-05
0.00266005
-0.00257377
0.107997
0.0710188
-0.140167
0.268737
-0.0343189
0.0565672
-0.0222483
-0.326297
0.166913
0.0582713
0.00359819
0.00325403
-0.00685222
0.099453
-0.118465
0.222424
0.0810216
-0.0262221
0.00649409
0.019728
0.219383
-0.068641
0.171087
0.12111
0.112334
-0.0783089
-0.0340251
-0.000242348
0.00348291
0.011329
-0.00956083
0.106222
-0.201412
0.203909
-0.344076
0.231623
-0.0407944
-0.190829
-0.00604809
0.00964628
0.127341
0.141555
-0.268897
0.0147773
-0.0262264
-0.00168517
0.00219309
0.22439
0.0500581
-0.274448
0.0308552
-0.271731
0.240876
0.00211559
0.0290341
0.00439706
-0.0334312
-0.124777
-0.0211652
0.00111557
-0.00443796
0.00332239
0.305429
-0.023713
-0.281716
-0.0219142
0.00259413
0.0193201
-0.35142
0.0770126
0.274407
-0.198031
0.086438
0.111593
0.244223
-0.296068
0.14272
0.153348
-0.140049
0.320927
-0.180878
0.0603708
-0.0359355
-0.0244354
0.292533
-0.0701085
-0.0697661
0.234325
0.0551184
-0.0167459
0.0267526
-0.0101857
-0.0643835
0.0576555
0.170101
0.049283
0.0253599
-0.0141168
0.00387976
0.103918
0.00578578
-0.00858985
-0.184764
0.290801
-0.106037
0.0136676
-0.00930853
-0.00435909
-0.106806
0.0683019
0.0385044
-0.02089
0.0291387
-0.00824876
0.205722
0.155667
0.00302099
0.00647248
0.234923
0.0576095
-0.193857
0.0898886
0.103969
0.142868
-0.229295
0.0864265
-0.17241
0.197613
-0.011687
-0.00571469
0.140534
-0.253507
0.112972
0.0274351
-0.0423971
-0.00135801
-0.0770793
0.0784373
0.0430776
0.262351
0.329951
-0.10787
0.0427013
-0.0242368
0.317238
-0.189897
0.0781893
-0.0877757
0.0900655
0.194498
-0.284563
-0.209582
0.297528
-0.0879455
0.107161
0.111328
-0.218488
-0.09034
0.233208
0.129003
-0.0530965
-0.00614759
0.0491887
-0.277029
-0.139449
0.192533
-0.053084
0.216122
0.0939239
-0.0008487
0.0780109
-0.0100684
0.000472915
0.00959546
0.0993215
-0.0838761
-0.0154454
-0.20973
0.288807
-0.079077
0.243115
-0.190836
-0.0522787
0.215239
-0.0645198
0.318078
-0.103241
-0.292962
0.291547
0.00141565
-0.0131708
0.0039395
0.0119674
-0.0106153
-0.30457
0.199423
0.105147
-0.0338346
0.0573071
-0.0234725
-0.090696
-0.0266693
0.117365
-0.348792
0.251765
0.0970264
0.170625
0.113868
-0.284493
-0.320553
0.102097
0.218456
-0.039405
0.0326858
0.00671922
0.175667
-0.236874
0.0612069
0.0979892
0.0230641
0.0875142
-0.304119
0.207134
0.096985
-0.00696809
-0.237755
-0.0215139
0.009629
0.0118849
-0.184145
0.308629
-0.124484
0.165069
0.0363431
-0.201412
0.298094
-0.0894613
-0.208633
0.133474
0.135139
0.360117
-0.252962
-0.107155
0.13551
0.0656217
-0.201132
0.014608
0.00890852
-0.0235165
-0.158382
-0.106247
-0.00293961
-0.0189746
-0.189714
0.27978
0.278276
-0.0433531
0.177718
-0.0697211
0.186534
0.0565806
0.185413
0.11999
-0.122318
-0.203979
0.324383
-0.221829
-0.102554
0.330723
-0.21591
-0.114814
-0.0862071
-0.0163238
0.102531
-0.002333
0.00220457
0.000128426
-0.217225
-0.103327
-0.00580748
0.0071283
-0.00132082
0.00556392
-0.00556392
-0.00145154
0.0103978
-0.0089463
0.0731667
-0.18584
-0.137959
-0.06663
0.204589
-0.0675653
-0.225397
-0.222075
0.322263
-0.100187
-0.0563988
-0.259526
0.02386
0.088474
0.190381
0.0280742
0.0221767
-0.0199337
-0.00224294
0.303553
-0.110755
-0.192797
-0.00809896
0.00155233
-0.318452
0.146144
0.172308
0.0438892
0.234387
-0.28526
0.0755299
-0.0180311
-0.00819104
-0.298562
0.114417
-0.0125123
0.00709573
0.00541653
0.329321
-0.20961
-0.119711
0.00954594
-0.0110796
0.00153369
0.135623
-0.11277
-0.0228532
0.00495858
-0.278977
-0.330838
0.0955878
0.23525
0.184258
-0.281985
0.0977271
-0.0113677
0.089801
0.210789
-0.0763607
-0.0128722
0.0193208
-0.00644864
-0.325653
0.117397
0.208256
0.110379
-0.30808
0.227559
-0.148984
-0.0785752
0.234671
-0.12751
0.0142982
-0.0277667
0.0134684
-0.285262
0.204317
-0.0572416
0.222311
0.0068091
-0.0112217
-0.00536301
0.0952927
0.202802
-0.00735445
0.00652303
0.000831417
0.0376198
0.0174985
0.145989
-0.0594042
-0.0865852
0.00408641
-0.00556028
0.00147387
0.229158
-0.072196
0.270546
-0.248394
-0.0221516
-0.00908191
-0.00942707
-0.285666
0.0999185
0.185748
-0.0414712
0.0597607
-0.0182894
-0.197328
0.294701
0.202169
0.103288
0.00327663
-0.0112706
0.00799394
-0.0345595
-0.015925
0.0504845
0.000635955
0.0283981
-0.000171081
0.0017271
-0.00155602
0.208648
-0.031152
0.287364
-0.10475
-0.128599
0.0750473
0.0535514
0.0187495
-0.0929673
0.0742178
0.0251559
0.0352149
-0.00297011
0.00705652
0.193421
0.194567
0.0929287
-0.0402937
-0.0207822
0.0610759
0.283442
-0.0673201
0.331297
-0.245899
-0.0853983
-0.167527
0.268715
-0.101189
0.141534
-0.231874
-0.0185572
-0.271462
0.0118137
-0.00116784
-0.0106459
0.220757
-0.181526
-0.0631743
0.198685
0.203148
0.0885864
0.0208009
-0.251857
0.0757956
-0.00315042
0.00709789
-0.00394748
-0.0151174
0.205498
-0.0428458
0.0464783
-0.00363254
-0.188014
-0.0289928
0.0296691
-0.279923
0.250254
0.26584
-0.163003
0.304738
-0.235819
-0.0689185
-0.0860622
-0.0873098
-0.0665314
0.153841
0.0952144
-0.273284
0.0161511
0.0151044
0.23871
0.0318361
0.301067
-0.136688
-0.164379
0.122718
-0.106601
-0.00887148
-0.00119689
0.0952468
-0.242234
0.146987
-0.19419
0.0303074
-0.0437793
0.154609
0.00935538
0.00172981
-0.0110852
0.233877
0.0708607
-0.0992444
-0.0340515
0.133296
0.211334
0.0514306
-0.262764
0.269849
-0.0959946
-0.173854
-0.0466011
0.00375538
-0.113621
0.325762
-0.244695
-0.0810667
-0.164455
0.260097
-0.0956423
0.0228615
-0.0571804
0.296139
-0.217788
-0.078351
0.129581
-0.0272742
0.033409
-0.00613484
0.0499159
-0.236557
0.186642
-0.0732631
0.0963271
-0.234403
0.0918146
0.10445
-0.28893
0.18448
0.000941664
0.000499431
0.00583649
0.1217
-0.127536
-0.0694311
-0.0373752
0.0996542
0.183788
-0.292374
0.28808
0.00429398
0.184465
-0.251222
0.0667574
-0.104278
-0.0937537
0.283372
-0.295754
0.012382
0.0430281
-0.0651963
0.226315
-0.151622
-0.0746928
-0.00671791
0.0108552
-0.00814962
0.00442008
0.00372954
-0.341874
0.125494
0.216381
0.0070732
-0.00666007
-0.0358979
0.042558
0.0679606
0.138017
-0.205978
0.125143
0.198511
0.138774
-0.0655996
0.250413
0.0457258
-0.16294
0.0688643
0.0940755
0.0880777
0.143546
0.344023
-0.227805
-0.116218
0.206302
-0.0362019
0.0583124
-0.0210489
0.0108712
-0.00198314
-0.00888809
0.250784
-0.169168
-0.0816162
-0.157434
0.0964053
0.0610285
-0.218719
0.293114
-0.0693561
-0.223757
-0.00184064
-0.0149343
0.0167749
-0.0820294
-0.203516
0.285546
0.000332581
0.000113362
-0.000445943
0.0137009
0.270838
-0.0186957
0.0249317
-0.00623603
0.0834331
-0.083214
-0.00021915
0.227678
0.093975
-0.293292
0.20808
0.0852111
-0.123083
-0.188616
0.294006
-0.105391
-0.013299
-0.0395152
-0.323101
0.103415
-0.0105878
0.0187634
-0.0081756
0.18262
-0.292469
0.109849
0.0904799
0.191878
-0.282358
0.0293175
-0.0150192
0.0511821
-0.199543
0.14836
0.026316
0.109307
-0.235316
0.320203
-0.0848873
0.339887
-0.215319
-0.124569
0.0984803
0.0271179
-0.125598
-0.267341
0.344759
-0.0774182
0.108811
0.0689068
-0.0360685
0.0185906
0.0174779
0.0933011
0.174313
0.0432313
-0.061553
0.0183216
0.106216
-0.040847
-0.065369
-0.360653
0.276884
0.0837685
0.174305
-0.262701
0.0883964
0.0147025
0.00182059
0.00373492
0.00636105
-0.010096
-0.13342
0.21106
-0.0776399
-0.0133423
-0.00631806
0.0196604
0.00625331
-0.000460461
0.180295
0.0704889
-0.0869168
0.137453
-0.157192
0.231531
-0.0743392
-0.374517
0.249743
0.124775
0.319667
-0.241106
-0.0785612
-0.000313984
-0.00276799
0.00308197
0.256855
-0.151653
0.186439
-0.120116
-0.0663228
0.0531844
-0.014681
0.173097
-0.0723424
0.0964999
-0.0565551
-0.0399448
0.00725211
-0.00963473
0.0545903
0.0419096
0.165258
-0.089286
-0.0759725
0.107106
0.0388306
-0.0741083
0.0476695
0.144595
-0.192265
0.249434
-0.111445
-0.137989
-0.0379603
0.0660946
0.224292
-0.0827586
0.00642748
-0.0073168
0.000889314
-0.139703
0.286079
-0.146376
-0.143394
0.0284354
0.114959
-0.0918124
0.0365116
0.0553008
0.0964821
0.229678
-0.11733
-0.112348
0.0983966
0.0750626
-0.173459
0.102221
-0.297067
0.194846
-0.0859442
0.183062
-0.097118
0.0108876
-0.00761097
0.047153
-0.134463
-0.0987938
0.266359
-0.18883
-0.0775285
-0.0169927
0.00640489
0.09213
-0.0139407
-0.00736396
-0.0446979
0.115316
0.208998
0.0900432
0.0555724
-0.145616
0.136353
-0.14561
0.0888022
0.0764748
-0.12213
-0.0368608
0.158991
0.0980082
0.16835
0.0382219
0.206691
-0.00528599
-0.00281297
-0.0271671
0.0701952
0.0911994
0.00838708
0.00248415
0.269749
-0.152208
-0.117541
0.090109
0.0092125
-0.115566
0.180838
-0.0652712
-0.0165696
0.00322729
-0.0251119
0.0917373
-0.0666253
-0.0449173
0.0382573
0.00045286
0.000377014
-0.000829874
0.133453
-0.220573
0.08712
0.0665013
0.0640004
-0.130502
0.0087219
-0.000587194
-0.0340108
0.105947
-0.0719364
0.0728719
-0.19275
0.119878
0.00360542
0.0198343
-0.0234397
-0.00306204
0.0124174
-0.0443392
0.268607
0.00210543
-0.000527995
-0.00157743
0.193031
-0.141849
0.0279071
0.268015
-0.169428
-0.0985868
-0.302257
0.0460549
0.256202
0.171335
0.137161
0.00770156
-0.00444753
0.0106033
-0.0117876
0.00118432
-0.0300729
0.0167616
0.0133113
-0.00249402
0.0032831
-0.000789086
-0.0306485
-0.183941
0.0020732
-0.00788068
-0.100654
0.0781359
-0.127937
0.241404
-0.190788
-0.00468243
-0.00540764
0.101452
0.168296
0.00110377
0.00659779
0.141406
-0.34059
0.199185
-0.0089075
0.00362151
0.296002
-0.192295
-0.195709
-0.0856897
0.286718
0.0990805
-0.100439
-0.202456
0.299943
-0.0974868
0.230953
-0.272948
0.041995
-0.0478039
0.231419
0.368196
-0.221935
-0.146261
0.15726
-0.24825
0.09099
0.241569
-0.0608862
0.0789601
0.108408
-0.187368
-0.00037231
-2.54961e-06
-0.0492749
-0.00355018
0.0528251
0.181325
-0.15374
-0.0275848
0.0349766
-0.235669
0.200692
-0.00225449
0.0241677
-0.0219132
-0.330892
0.227855
0.103037
0.0220953
-0.0953584
0.0591007
-0.247917
0.115019
-0.333406
0.218387
0.0267738
-0.0231745
-0.00359934
-0.278229
0.0906396
0.187589
0.0456193
0.148706
-0.194326
0.250744
-0.344315
0.0935703
-0.046602
0.103854
-0.057252
0.177665
-0.0688539
0.00402362
-0.00291986
-0.055606
0.178794
-0.0135088
0.0178067
0.0940803
0.0323989
-0.031254
-0.00114492
0.195708
-0.145792
-0.00303462
0.00984372
0.286013
0.00710088
0.198426
-0.273633
0.0737737
0.155904
0.0197297
0.0637035
-0.0126455
0.0451143
0.300966
-0.108402
0.192867
-0.119995
-0.0285892
0.193096
0.134583
-0.0522996
-0.00608999
0.0583896
-0.0877793
0.262084
0.00370265
0.00996496
0.0609984
-0.0683623
0.00274969
-0.0159434
0.0131937
0.000738587
0.00192147
-0.0610481
0.0477491
-0.278239
0.247877
0.0303625
0.101379
-0.277748
0.176369
0.0555093
-0.118114
0.044546
0.0186284
-0.0631744
-0.0117119
0.0144616
0.013766
-0.010745
0.295844
-0.0342838
-0.26156
-0.0790489
-0.23885
-0.098406
0.0769834
0.0214226
0.18127
-0.270771
0.0895013
0.167987
0.0729062
-0.240893
0.0890063
0.0846018
0.164832
0.0606798
0.0168751
-0.028348
-0.00142544
0.0297734
0.0126285
-0.0180568
0.00542827
0.164333
-0.0659365
-0.0030955
-0.00505412
-0.00131853
0.00774601
0.00351015
0.119208
0.0258532
-0.023259
0.0527835
0.171289
-0.224072
0.237797
-0.199575
-0.252647
-0.0255918
0.248777
-0.088151
0.0203458
0.00642802
0.1068
0.0761002
0.101347
-0.304042
0.202695
0.164427
-0.168098
0.00367051
-0.00117691
-0.00348796
0.154474
-0.205386
0.0509126
0.161376
-0.354399
0.193022
-0.107972
-0.177694
0.118797
-0.0504956
-0.211405
0.272539
-0.0611344
0.100901
0.229659
-0.184733
0.00786709
0.00394663
-0.238903
-0.0897528
0.196416
0.0615199
-0.257936
-0.242301
0.335097
-0.0927963
-0.173452
-0.136015
-0.0993516
0.0551368
0.0442148
-0.303057
0.0852696
0.00128532
0.00856633
-0.00985165
-0.0934111
-0.00499491
0.020612
-0.0592486
0.0386366
-0.0142972
-0.0380023
-0.00461745
-0.00429004
-0.0210449
-0.0119018
0.0329468
-0.140789
-0.213609
0.206838
0.10103
0.304133
-0.102382
-0.201751
0.204636
0.101602
0.245487
-0.15024
0.180472
-0.143597
-0.0368742
-0.0903626
0.0228953
0.0674673
0.253571
-0.113037
0.0203909
0.0223103
-0.043769
-0.152047
-0.0388444
0.190891
-0.0243842
0.170269
0.030525
-0.200794
-0.0708258
-0.289827
0.280808
-0.190328
-0.190323
0.279643
-0.0893208
0.177464
-0.301099
0.123635
0.013782
-0.0354986
0.0217167
-0.00700612
-0.0225617
-0.0168317
-0.0564214
0.00714647
-0.278102
0.336477
-0.191818
-0.144659
-0.0576941
-0.131898
0.189592
0.323633
-0.123257
-0.200376
0.0233378
-0.0392606
0.349033
-0.248009
-0.101024
0.19234
-0.0220705
-0.0174096
0.0550294
0.0061542
-0.267789
0.261635
-0.0120177
0.0224592
-0.144733
-0.216929
0.14977
0.186707
0.173662
-0.0466807
-0.126981
-0.216927
-0.0861298
0.294167
-0.197662
-0.0965045
0.00283475
0.0109312
-0.0392427
0.0496681
-0.0104254
-0.0678412
0.134343
-0.0201352
0.0646812
-0.0027732
0.0249499
0.229739
-0.145137
-0.0916145
0.114237
-0.022623
0.050563
-0.0711101
0.0205471
-0.20115
0.28261
-0.0814599
-0.250227
0.0980195
-0.104861
-0.156608
0.261468
0.299897
-0.0985972
-0.2013
-0.185679
-0.161486
-0.099091
-0.0443031
0.0841621
0.172524
-0.256686
-0.309749
0.0631115
0.246637
0.361247
-0.254555
-0.106692
-0.322809
0.191856
0.140478
0.0408466
0.259566
-0.11983
-0.139737
0.0793997
0.124073
0.170095
-0.132307
0.24066
-0.108352
0.0715515
-0.282957
0.14627
0.221926
-0.0169025
-0.18076
0.199993
-0.296556
0.0965632
0.116426
0.116839
-0.233266
0.00845239
0.0737914
-0.094613
0.0571047
-0.173295
0.116191
-0.0238548
-0.0886226
0.112477
0.211015
-0.320656
0.109641
0.267716
-0.0864459
-0.00467323
-0.0236748
0.227467
-0.050601
-0.176866
-0.223299
-0.112634
0.00113169
-0.00130277
0.165861
0.0983459
-0.264206
-0.000126923
0.000459504
0.00944243
0.00116086
0.11274
-0.153279
0.0405391
0.0802272
0.0385703
0.040696
-0.232768
0.192072
-0.0139428
-0.0291906
0.0431334
0.193414
-0.210316
-0.153842
-0.186749
-0.278013
0.0878646
-0.18701
-0.063217
0.323295
-0.164343
-0.158952
0.140658
0.044013
-0.184671
0.000670619
0.00143481
-0.00582581
0.046253
-0.0404272
0.0062484
0.00234855
-0.00859695
0.252894
-0.212198
0.154344
0.0992277
0.00413788
-0.031412
0.0184315
0.0791381
-0.0975696
0.262158
-0.0962979
0.103259
-0.0877992
-0.01546
-0.127118
0.191183
-0.000965091
0.00014248
0.000822611
-0.194666
0.299004
-0.104338
0.0360027
0.157029
0.00509322
-0.00487197
-0.000221247
0.312992
-0.270278
-0.0427139
0.336426
-0.194591
-0.141834
0.128131
0.0455308
0.288733
-0.241615
-0.0471178
0.00376444
-0.00407842
0.0934735
0.154602
-0.248075
0.111383
0.118356
0.274227
-0.201462
-0.0727657
0.197173
0.139252
0.197135
0.0303317
0.010083
-0.0115345
0.302459
-0.240689
-0.0617701
0.120087
0.0663512
0.287327
-0.185205
-0.102122
0.0232796
-0.0255341
0.055886
-0.0821568
0.0262708
0.254752
-0.100409
-0.310775
0.225389
0.085386
-0.0325438
0.196971
0.0879113
0.211986
-0.00214662
0.00322743
-0.00108081
-0.154742
0.190745
0.226788
0.0968449
0.189187
-0.143568
0.29174
-0.201788
-0.0899518
0.278648
-0.243988
-0.03466
-0.158862
-0.145772
0.304634
-0.0934346
0.172395
0.215379
-0.140632
-0.0747469
0.0745137
0.0204664
-0.0949801
0.225377
-0.0343923
-0.190984
-0.149731
0.0409084
0.144015
0.110737
0.229082
-0.0677706
-0.161311
0.227735
-0.0520678
-0.000348092
-0.00214593
0.218593
-0.245853
0.0272599
-0.000670443
-0.000294648
0.06918
0.0340793
0.289763
-0.289727
-3.6154e-05
0.173213
-0.125543
-0.0822599
-0.174287
0.256546
0.029293
-0.0131419
0.127979
-0.112876
-0.0151038
0.134237
-0.0699131
-0.0643236
0.313526
-0.0897808
-0.206392
0.31575
-0.109358
0.033484
-0.0293462
-0.0421669
0.256191
-0.149793
0.0457573
0.104036
0.15683
0.0709046
-0.000409684
0.00443331
-0.251007
0.22027
0.0821892
-0.190351
-0.0642075
0.254559
0.0312559
-0.243574
0.212318
0.00736161
-0.0241265
0.0167649
0.00545355
-0.00545355
-0.212
0.321094
-0.109094
-0.318072
0.224957
0.0931144
-0.194408
0.122057
0.0723511
0.272323
0.0471226
-0.0949418
-0.204559
0.358611
-0.154053
0.238181
-0.206925
-0.190899
0.140829
0.0500696
0.00170721
0.0102602
-0.111948
0.0710951
0.040853
-0.0496946
0.0438688
0.00399191
0.0144433
-0.0184352
0.0968234
0.00282588
-0.0996493
-0.128176
-0.0347638
-0.29769
0.0912978
0.254551
-0.0629129
-0.191638
0.00955182
-0.007822
-0.0316515
0.0809365
-0.0492851
0.0333468
-0.0673576
0.18776
-0.155508
-0.0322529
0.166277
-0.127986
-0.000162559
0.000615419
0.123858
-0.313485
0.149011
-0.253007
0.103995
-0.191091
0.287185
-0.0960936
-0.210127
0.0767069
0.215576
0.0743136
-0.28989
0.131661
0.149545
0.0115565
-0.00344193
-0.00304217
-0.00404134
0.00708351
-0.00486858
0.132848
-0.213154
-0.10121
0.314364
0.28373
-0.0994729
0.0138198
-0.0164623
0.00264253
-0.247823
-0.0349001
0.282723
0.30919
-0.221279
-0.0829435
-0.216912
-0.200229
0.141319
0.04337
-0.184689
-0.0915643
0.00624006
0.000902556
-0.00714261
0.276847
0.0361455
-0.0206159
0.119096
0.0302569
0.0593214
-0.0895783
0.144745
0.0706338
-0.20006
-0.0976295
-0.288332
0.108312
0.180021
0.187797
-0.100124
-0.0876736
-0.0107526
0.00511456
0.00563807
0.302169
-0.251873
-0.0502961
0.267648
-0.118637
-0.144762
0.352882
-0.20812
0.020111
-0.0329354
0.0128244
0.116359
-0.213466
0.244321
0.0311886
0.156572
-0.00627177
0.00116656
0.00510521
0.234313
-0.0157205
-0.0534917
0.0172496
0.036242
0.00621233
-0.0164239
0.0102116
0.0876394
-0.0963389
0.00869954
-0.0478001
0.202274
-0.118475
0.145497
-0.0270215
0.0651578
0.117718
-0.182876
0.00830739
0.000300305
0.267199
0.0154087
-0.282607
-0.0948878
0.238902
0.173769
0.107966
-0.281735
0.24527
0.0333783
0.283623
-0.107594
-0.176029
-0.0087891
0.000460386
0.322306
-0.207287
0.0880654
0.099732
-0.0731796
0.027563
0.0456165
-0.128219
-0.0882649
0.216484
-0.00750841
0.00446624
0.00735922
0.00266835
-0.0100276
0.178293
-0.0714937
-0.00945628
-0.0340373
0.0434936
-0.0958045
0.114236
-0.0408168
-0.0585348
-0.00721585
-0.000138606
0.0179795
-0.0573005
0.0393211
-0.00428349
-0.0056667
0.0598934
-0.257742
0.197849
-0.127662
0.0463859
0.0812763
-0.228107
-0.0070537
0.149965
-0.18599
0.0360244
-0.01731
0.00399592
0.0133141
0.0658984
0.0287863
-0.0568649
0.0617843
-0.00491934
-0.23729
-0.0649664
-0.0926166
0.283065
-0.190449
0.0146878
0.0843927
0.0694166
-0.206798
0.137382
-0.294671
0.0224629
-0.0133181
0.017877
0.0744443
-0.0923213
-0.0517473
-0.098046
-0.170898
0.14841
0.0224878
0.0399135
0.0183189
-0.0582323
0.0199312
-0.0163258
0.00283627
-0.0105056
-0.0902975
0.253962
-0.163664
-0.0664269