/*--------------------------------*- C++ -*----------------------------------*\
| =========                 |                                                 |
| \\      /  F ield         | OpenFOAM: The Open Source CFD Toolbox           |
|  \\    /   O peration     | Version:  v2012                                 |
|   \\  /    A nd           | Website:  www.openfoam.com                      |
|    \\/     M anipulation  |                                                 |
\*---------------------------------------------------------------------------*/
FoamFile
{
    version     2.0;
    format      ascii;
    class       surfaceScalarField;
    location    "400";
    object      phi_0;
}
// * * * * * * * * * * * * * * * * * * * * * * * * * * * * * * * * * * * * * //

dimensions      [0 3 -1 0 0 0 0];
oriented        oriented;


internalField   nonuniform List<scalar> 
78975
(
0.0640462
-0.199675
0.135629
0.12549
-0.113828
-0.0116616
0.0128478
-0.00886041
-0.0039874
-0.0720996
-0.145645
0.217745
-0.0736718
-0.149336
0.223008
-0.165583
-0.143381
0.308964
0.176058
0.0633949
-0.239453
0.358822
-0.182299
-0.176523
-0.211542
0.171875
0.0396672
-0.12153
0.303014
-0.181484
0.223745
0.0675746
-0.291319
-0.0799132
0.0305081
0.0494051
0.387416
-0.311279
-0.0761377
-0.00106145
0.000704503
0.00035695
0.0755335
-0.207114
0.131581
0.110823
-0.159283
0.0484598
0.224268
-0.32972
0.105452
0.200688
-0.184756
-0.0159324
0.13046
-0.110671
-0.0197896
0.334307
-0.0919294
-0.242378
0.283537
-0.192171
-0.0913658
0.000629592
0.00218931
-0.0028189
0.0840989
-0.00956941
-0.0745295
-0.00142722
0.000139002
0.00128822
-0.298829
0.177299
0.185189
-0.0887318
-0.0964574
0.17754
0.0231474
0.360591
-0.16007
-0.200521
-0.00616227
-6.11059e-05
0.00622338
0.164519
-0.0808695
-0.0295405
0.11041
0.0836823
0.250625
0.00325682
0.000139604
-0.00339642
0.305434
-0.235786
-0.0696471
0.107628
-0.335934
0.228306
0.305457
-0.197829
-0.176061
0.321653
-0.145591
0.268059
-0.265052
-0.00300684
-0.19738
-0.0621742
0.259554
0.00348072
0.00587367
-0.00935439
-0.0157438
0.0280035
-0.0122597
0.0022912
-0.006973
0.00468181
-0.130953
-0.171366
-0.355834
0.169076
0.186758
0.000986726
-0.00106845
8.17239e-05
-0.00162494
0.00225454
-0.00614627
0.00128304
0.00486323
0.151793
-0.225465
0.0107733
0.257285
-0.00280455
0.0097973
-0.179867
0.0847179
0.0951488
0.017241
-0.0262322
0.00899123
0.350817
-0.203478
-0.14734
0.110932
0.0747877
-0.18572
0.27875
-0.205697
-0.0730532
0.0292965
-0.0474351
0.0181386
-0.0137353
0.0237416
-0.0100063
-0.307413
0.137857
0.169556
-0.32066
0.118225
0.202435
-0.337166
0.24182
0.0953467
0.0820647
0.17906
-0.261125
0.164515
-0.293792
0.129277
-0.142588
0.23587
-0.0932825
-0.120424
-0.0594425
-0.225058
-0.0956019
-0.00766179
0.00995299
-0.00759265
0.0168906
-0.00929791
0.0556785
0.0141691
-0.0698476
0.183615
0.0268816
-0.210497
0.12523
-0.249652
0.124423
0.310409
-0.0971996
-0.21321
0.286647
-0.1977
-0.0889472
0.322121
-0.229269
-0.0928519
0.309399
-0.140894
-0.168505
0.0739841
0.00482831
-0.0788124
-0.122225
0.165277
-0.0430525
0.212337
0.146485
-0.19466
-0.089263
0.283923
0.107796
0.0773931
-0.0951905
-0.107168
0.202359
-0.117326
-0.181503
-0.346109
0.244779
0.10133
0.0567391
-0.0274425
0.0231042
-0.103974
-0.341653
0.0944413
0.247212
0.134429
0.0382906
-0.172719
0.092624
-0.0423691
-0.0502548
-0.113813
0.0507642
0.063049
0.100753
-0.175945
0.075192
0.153536
0.100274
-0.253811
0.323273
-0.271517
-0.0517558
-0.180667
0.286975
-0.106308
0.171929
-0.265202
0.0932723
-0.229238
-0.112414
-0.0562082
-0.057605
0.140701
-0.194548
0.0538476
0.230166
0.0326764
-0.262843
0.280503
0.0427697
0.145751
0.241666
0.25762
-0.132391
-0.188817
0.270881
-0.170216
-0.16695
-0.00961797
0.0937169
0.251744
0.108847
0.0706755
0.239734
0.0156653
-0.0480595
0.0323943
0.0130062
0.0500637
-0.0630699
-0.0102982
-0.00437163
0.0146698
0.0810825
-0.175446
0.0943638
0.164488
-0.231818
0.0673293
-0.00923012
-0.00444106
0.0136712
0.00808781
-0.0182105
0.0101226
0.0433936
-0.0528092
0.00941561
-0.253448
-0.0104986
0.263946
-0.120871
0.209078
-0.0882066
0.143822
-0.232873
0.089051
-0.0753283
0.285938
-0.21061
0.179015
-0.0680833
0.0459723
0.0466516
-0.0670218
0.207723
0.373414
-0.281058
-0.0923567
0.0775427
-0.22434
0.146797
0.0336463
-0.0353161
0.00166977
0.119003
-0.126987
0.0079837
0.361389
-0.250707
-0.110682
0.0165593
0.01043
-0.0269893
0.10012
-0.136975
0.0368548
-0.0729664
-0.020819
0.0937854
0.00951778
-0.00801662
-0.00150116
0.0161173
0.114343
0.287868
-0.240859
-0.0470081
0.101897
0.0324228
0.0276958
-0.0601187
0.0505371
0.096525
-0.147062
-0.0154747
0.00788206
0.258837
-0.1053
0.289302
0.00379288
-0.293095
-0.310998
0.125199
0.185799
0.0171195
-0.00903166
0.26481
0.023058
0.000961643
-0.00103762
7.59728e-05
0.0191166
-0.0094394
-0.00967718
0.20143
0.0192805
-0.22071
-0.349761
0.25277
0.0969916
-0.189627
-0.110975
0.300602
0.0834285
-0.112969
-0.214598
0.0795507
0.135047
0.130472
-0.00498212
0.278544
0.0106077
-0.289152
0.267614
-0.186345
-0.0812688
-0.0100357
0.00252733
0.00750837
-0.306802
0.210727
0.096075
-0.0626047
-0.0477964
0.110401
0.0165233
-0.0044392
-0.0120841
-0.00251756
0.000892619
0.111186
0.0737329
-0.184919
0.228671
-0.0943924
-0.134279
-0.0274431
0.0306441
-0.00320098
-0.290019
0.124437
0.188257
-0.107175
-0.119133
0.324174
-0.205041
-0.262989
-0.0928451
-0.0537797
0.262526
-0.208747
0.232184
-0.247787
0.0156034
0.214024
-0.267804
-0.000810339
-0.000616884
-0.0715442
0.0546351
0.0169091
0.0312349
-0.019673
-0.0115619
0.0392316
-0.27755
0.238318
0.224956
-0.361663
0.136707
-0.0723197
0.134543
-0.0622237
-0.019864
0.123188
0.0413203
-0.164508
0.0507265
-0.249295
0.198568
0.177152
-0.294477
0.322968
-0.0696918
-0.253276
0.247298
0.0312463
0.252535
-0.108713
-0.0563853
-0.015159
-0.00216073
-0.120064
0.0759077
-0.116569
0.0406617
-0.161744
-0.0497975
0.324322
-0.21224
-0.112083
0.192564
-0.335945
-0.145869
0.055584
0.0902847
0.0741477
-0.327596
0.0973734
-0.310603
0.21323
-0.0022382
-0.00779749
0.0100455
-0.00656476
-0.00214988
0.00872344
-0.00657357
0.279464
-0.0690364
-0.210428
-0.00468662
0.000409007
0.00427762
-0.108818
0.164467
-0.0556499
0.0512587
-0.0382525
0.0293418
-0.0121009
-0.330195
0.100956
0.191822
-0.215503
0.023681
6.55714e-05
0.0480509
-0.0481164
-0.0673624
-0.262832
-0.0226496
-0.069209
0.0918586
0.0871655
-0.25679
0.169625
0.000805986
0.00018074
0.0900153
-0.0548667
-0.0351486
-0.300317
0.149588
0.150729
-0.0824854
0.0983237
-0.0158383
-0.316516
0.157534
0.158982
0.0634282
0.216036
0.0845146
0.146119
-0.230634
0.177413
-0.220676
0.0432632
-0.0249245
0.00918071
-0.130731
0.0584112
-0.0964475
0.0519158
0.0445316
0.0816504
-0.232989
0.151338
-0.145864
0.223406
-0.00102106
-0.00600999
0.00703105
0.0497521
-0.207752
0.158
-0.000192425
-0.000869027
-0.10525
0.0475579
0.0576918
0.00768114
0.0114354
-0.0174
0.00796057
-0.00173648
0.0509647
-0.0492282
-0.153955
0.203707
-0.0278061
0.257972
-0.0393919
0.017367
0.0220248
-0.00648027
-0.0542201
0.0607004
-0.00238288
-0.00803015
0.010413
-0.0177944
-0.107747
0.125542
0.197932
-0.122398
0.102602
-0.120396
0.200524
-0.188501
-0.0120233
0.325184
-0.219225
-0.105959
0.231431
-0.039609
0.0532842
0.143213
-0.196498
0.144843
-0.0447223
0.201029
-0.291357
0.0903285
-0.0149629
0.0382956
-0.0233327
0.156962
0.0522439
-0.209206
-0.139825
0.141927
-0.0238325
-0.118095
-0.349259
0.273953
0.0753058
0.261701
-0.257819
-0.00388248
-0.163021
-0.153495
-0.0352773
-0.0400893
0.0753666
-0.106406
0.258647
-0.152241
0.135637
0.121983
-0.217067
0.0514203
0.165647
-0.30212
0.107459
0.103707
-0.290004
0.186297
0.0367966
0.163727
-0.111271
-0.0177696
0.12904
0.0183843
-0.0457526
0.0273683
0.303387
-0.250254
-0.053133
0.077555
-0.0638849
-0.0136701
-0.317952
0.198819
0.297995
-0.040164
-0.257831
0.33056
-0.118223
-0.144553
0.226203
0.0371528
0.0528625
-0.00672768
0.054876
-0.0481484
0.0041374
-0.0129148
0.00877742
-0.0196926
0.0124309
0.00726169
-0.0544855
-0.107789
0.243426
0.172491
0.178326
0.294097
-0.149456
-0.173192
-0.17657
0.0169665
-0.0121614
-0.0048051
-0.0105293
0.1829
-0.0717135
-0.235183
-0.00899641
0.24418
0.0843055
-0.0520612
-0.0322443
0.38799
-0.249286
-0.138704
0.249649
0.0396527
-0.0676593
0.0659228
0.26861
-0.0861336
-0.182477
-0.0528125
0.0528781
0.0867483
-0.20762
-0.00829871
0.00135293
0.00694578
-0.299856
0.294224
0.00563173
-0.315925
0.315925
0.0407587
-0.152029
0.144978
-0.0941622
0.0116768
0.0427979
-0.0271326
0.0610453
0.0329662
-0.0940115
0.278025
-0.0989644
0.214827
-0.27861
0.0637832
-0.0138923
-0.00580027
0.00811867
-0.00996133
0.00184266
-0.01145
0.0245571
-0.0131071
0.210063
-0.186667
-0.0233963
-0.0153362
-0.163799
0.179135
-0.000419951
0.00993773
0.0480427
0.0362628
0.210395
0.0217885
0.160626
0.0919083
0.00714838
0.00569943
-0.219686
-0.0731572
0.292843
0.150779
0.0778922
0.0265876
0.183475
0.011513
0.0054535
-0.101911
0.306238
-0.204327
-0.328656
0.226744
-0.212466
0.307591
-0.0951252
-0.000383264
0.000245058
0.000138205
0.0383704
0.0170058
-0.0553762
0.329452
-0.0777082
-0.0190125
0.118387
-0.0993743
0.268602
-0.0671723
0.00429972
-0.0189821
0.0146824
0.165522
-0.207948
0.0424268
0.206593
0.0800545
0.237799
0.0851697
0.107932
-0.274835
0.166902
0.0327365
0.109191
-0.109782
0.260309
-0.150527
0.0425493
-0.239929
-0.00961274
0.00746286
0.132043
-0.199064
-0.207577
0.30645
-0.0988738
-0.0488896
-0.309467
0.159901
0.149566
0.0771655
-0.0649314
-0.0122341
0.117142
-0.301057
0.183915
-0.324804
0.128567
0.196237
-0.00710182
0.00608076
0.00177868
0.00651026
-0.00828893
-0.264629
0.291734
-0.0271047
0.150687
-0.196307
0.0456205
-0.13391
-0.0758563
0.209766
0.266749
-0.0688966
-0.197852
0.21293
-0.0808869
-0.337114
0.23767
0.0994439
-0.0610795
0.193177
-0.132098
0.169726
-0.228119
0.0583925
0.102837
-0.255784
0.152947
0.00813573
-0.0104457
0.00230999
0.113647
-0.0302189
0.244726
-0.272532
0.0491945
-0.183104
-0.116997
0.086535
0.0304618
-0.0203878
0.139391
0.00860896
-0.0104024
0.00179345
0.175404
-0.19074
-0.00598291
0.0413214
-0.0353385
0.284538
-0.247173
-0.0373647
0.110579
-0.00830059
0.222081
0.0651329
-0.287214
0.250309
-0.351267
0.100958
-0.227857
-0.0516343
0.279492
-0.135994
0.300509
0.324314
-0.0993579
0.0595923
0.0086392
-0.0682315
-0.00159893
-0.00669977
-0.244723
-0.0573968
0.218396
-0.0486695
-0.00429632
-0.00424847
0.00854479
-0.00249075
0.00243986
5.08874e-05
0.0143951
0.00390931
-0.0183044
0.0647921
-0.0712723
-0.0221649
0.0722286
-0.272208
0.0227679
0.24944
-0.0092285
-0.143141
0.15237
-0.0893039
0.307868
-0.218564
0.0195693
-0.212638
0.193069
-0.313376
0.224072
0.0731734
0.0566303
-0.129804
-0.00651549
0.000353215
-0.00332503
-0.0105448
0.0138698
0.292191
-0.162784
-0.129408
0.038538
-0.0541641
0.0156261
0.268365
-0.0361094
-0.232255
0.178857
0.0998929
-0.0939263
-0.217072
0.0681642
0.180683
-0.248847
0.0946848
-0.0207007
0.0359271
0.208799
-0.00608668
0.00608668
0.00101457
0.260687
0.263126
0.0620578
0.108538
0.182613
-0.291152
0.327678
-0.22876
-0.098918
0.25528
-0.168114
0.170144
-0.189779
0.0196356
0.319446
-0.244429
-0.075017
0.302932
-0.229346
-0.0735856
0.244918
-0.225348
0.0498725
0.0326873
-0.0825598
-0.0158455
0.0394329
-0.0235874
-0.150115
0.0728175
0.0772979
-0.0432806
0.0195728
0.0237078
-0.0100882
0.00482284
0.00526534
8.67505e-05
-0.000743263
0.000656512
-0.347166
0.235906
0.11126
0.00693233
-0.0206676
-0.024626
-0.0186546
0.0372646
-0.0598022
0.0225377
0.308495
-0.152861
-0.155634
0.00949622
-0.00200102
-0.00749519
-0.317899
0.134097
0.183802
0.105889
0.223563
0.323654
-0.233729
-0.0899253
0.0481721
-0.0047785
0.185679
-0.015535
-0.300391
0.28638
0.0140106
-0.0809455
0.278635
-0.197689
-0.146671
0.254603
-0.0143903
0.0557864
-0.0413961
-0.12399
0.0995428
0.024447
-0.159384
-0.140932
0.0784338
-0.000771791
-0.077662
0.277693
-0.178069
-0.0996234
0.00144281
-0.00072275
-0.000720064
0.00126886
0.0323774
0.0281342
-0.0646702
0.036536
0.248272
0.0546593
0.281205
-0.133469
-0.147737
-0.112673
-0.0809223
0.193596
-0.210093
0.310046
-0.0999525
0.0973574
-0.190148
0.298687
-0.0700615
-0.0800539
-0.343863
0.239122
0.104741
-0.154919
0.264009
-0.10909
0.105194
-0.289554
0.18436
-0.0935342
-0.23127
0.0252039
0.174231
-0.199434
0.000489424
-0.00211312
0.0016237
-0.22604
0.30073
-0.0746903
0.327335
-0.232781
-0.0945538
-7.14769e-05
0.00264876
-0.00257728
0.107999
0.0710165
-0.140171
0.268738
-0.0343192
0.0565679
-0.0222487
-0.326297
0.166913
0.0582714
0.00354558
0.00331773
-0.00686331
0.0994527
-0.118465
0.222362
0.0810248
-0.0262192
0.00650067
0.0197186
0.219345
-0.068658
0.171103
0.121089
0.112338
-0.078314
-0.0340244
-0.000224244
0.00348106
0.0113314
-0.00955275
0.106222
-0.201412
0.203906
-0.344077
0.231621
-0.0407953
-0.190825
-0.00611244
0.00965802
0.127341
0.141555
-0.268897
0.0147759
-0.0262259
-0.00169576
0.00218518
0.22439
0.0500581
-0.274448
0.0308552
-0.271731
0.240876
0.00211783
0.029033
0.00439768
-0.0334307
-0.124661
-0.0212075
0.00113138
-0.00445497
0.00332359
0.305429
-0.023713
-0.281716
-0.0219266
0.00254991
0.0193767
-0.35142
0.0770125
0.274407
-0.198031
0.0864379
0.111594
0.244223
-0.296068
0.14272
0.153348
-0.140049
0.320927
-0.180878
0.0603838
-0.0359237
-0.0244601
0.29249
-0.0701275
-0.0698113
0.2343
0.0551173
-0.0167469
0.0267335
-0.0101741
-0.0643836
0.0576559
0.170038
0.0493071
0.0253573
-0.0141428
0.00384465
0.103918
0.00578651
-0.00859106
-0.184764
0.290801
-0.106037
0.0136669
-0.00930777
-0.00435909
-0.106876
0.0682358
0.0386406
-0.0208884
0.0291384
-0.00825002
0.205722
0.155667
0.00302067
0.00647554
0.234861
0.0576284
-0.193857
0.0898876
0.10397
0.142868
-0.229295
0.0864266
-0.17241
0.197613
-0.0116859
-0.00571412
0.140534
-0.253507
0.112972
0.0274341
-0.042397
-0.00140062
-0.0770744
0.078475
0.0430776
0.262351
0.329951
-0.10787
0.0426618
-0.0242775
0.317238
-0.189897
0.0781946
-0.0878125
0.0900656
0.194498
-0.284563
-0.209582
0.297528
-0.0879455
0.107161
0.111328
-0.218489
-0.0903401
0.233208
0.129004
-0.0530964
-0.00614627
0.0491837
-0.277041
-0.139448
0.192533
-0.0530841
0.216122
0.093924
-0.00083693
0.0780024
-0.0100682
0.000472982
0.00959523
0.0993211
-0.0838763
-0.0154447
-0.20973
0.288807
-0.079077
0.243115
-0.190836
-0.0522788
0.215247
-0.064468
0.318076
-0.103249
-0.292962
0.291547
0.00141565
-0.0131695
0.00393938
0.0119657
-0.0106128
-0.30457
0.199423
0.105147
-0.0338335
0.0573067
-0.0234732
-0.0906973
-0.0266732
0.11737
-0.348792
0.251766
0.0970264
0.170625
0.113868
-0.284493
-0.320553
0.102097
0.218456
-0.0393646
0.032706
0.00665863
0.175603
-0.236861
0.0612571
0.0979892
0.0230645
0.0875142
-0.304116
0.207257
0.0968588
-0.00696805
-0.237755
-0.0215119
0.00962817
0.0118838
-0.184145
0.308629
-0.124484
0.165066
0.036344
-0.20141
0.298094
-0.0894614
-0.208633
0.133469
0.135141
0.360117
-0.252962
-0.107155
0.135468
0.0656601
-0.201128
0.0146204
0.00892061
-0.0235411
-0.158383
-0.106247
-0.00289358
-0.019033
-0.189714
0.27978
0.278248
-0.0433863
0.177718
-0.0697192
0.186534
0.0565806
0.185433
0.12
-0.122318
-0.203979
0.324383
-0.221829
-0.102554
0.330723
-0.21591
-0.114814
-0.0862076
-0.0163235
0.102531
-0.0023261
0.00219729
0.000128811
-0.217225
-0.103328
-0.0058062
0.00712669
-0.00132049
0.00556515
-0.00556515
-0.00145194
0.0103983
-0.00894638
0.0731668
-0.18584
-0.137959
-0.06663
0.204589
-0.0675653
-0.225397
-0.222075
0.322262
-0.100187
-0.0563988
-0.259526
0.023859
0.0884794
0.19033
0.0280659
0.0221745
-0.0199338
-0.00224072
0.303553
-0.110755
-0.192798
-0.00803929
0.00152381
-0.318452
0.146144
0.172308
0.0439173
0.23433
-0.28526
0.0755299
-0.018023
-0.00819628
-0.298562
0.114417
-0.0125105
0.00709484
0.00541567
0.329321
-0.20961
-0.119711
0.00954671
-0.0110806
0.00153394
0.135624
-0.11277
-0.0228536
0.0049581
-0.278977
-0.330838
0.0955881
0.23525
0.184259
-0.281987
0.0977276
-0.0113671
0.0898009
0.210789
-0.0763601
-0.0128709
0.0193196
-0.00644876
-0.325653
0.117397
0.208256
0.110379
-0.30808
0.227559
-0.148984
-0.0785752
0.234672
-0.12751
0.0142973
-0.0277654
0.0134681
-0.285261
0.204316
-0.0572422
0.222309
0.00686328
-0.0112349
-0.00536213
0.0952929
0.202801
-0.00735301
0.00652174
0.000831269
0.0376181
0.0174992
0.145868
-0.0594143
-0.0864537
0.0040854
-0.00555892
0.00147351
0.229158
-0.0721959
0.270609
-0.24838
-0.0222291
-0.00908108
-0.00943747
-0.285666
0.0999185
0.185748
-0.0415404
0.0597656
-0.0182253
-0.197328
0.294701
0.202169
0.103288
0.00327637
-0.0112691
0.0079927
-0.0345584
-0.0159263
0.0504847
0.000635202
0.0283978
-0.000156533
0.00170439
-0.00154786
0.208577
-0.0311635
0.287364
-0.10475
-0.1286
0.0750474
0.0535527
0.0188963
-0.0930803
0.0741841
0.0251372
0.0352466
-0.00296945
0.00705486
0.193422
0.194568
0.0929288
-0.040294
-0.0207825
0.0610765
0.283442
-0.0673201
0.331297
-0.245899
-0.0853983
-0.167527
0.268715
-0.101189
0.141534
-0.231874
-0.0185572
-0.271462
0.0118132
-0.00116793
-0.0106453
0.220757
-0.181526
-0.0632134
0.198681
0.203148
0.0885864
0.0208016
-0.251857
0.0757956
-0.00316835
0.00711068
-0.00394233
-0.0151054
0.205435
-0.0428466
0.046478
-0.00363148
-0.188208
-0.0288591
0.0296691
-0.279922
0.250253
0.26584
-0.163003
0.304738
-0.235819
-0.0689185
-0.0860613
-0.0873097
-0.0665316
0.153841
0.0952144
-0.273284
0.0161508
0.0150841
0.238702
0.0319068
0.301067
-0.136688
-0.164379
0.122718
-0.106601
-0.00887121
-0.001197
0.0952468
-0.242234
0.146987
-0.194142
0.0303425
-0.0437479
0.154571
0.00935445
0.00172989
-0.0110843
0.233877
0.0708607
-0.0992501
-0.0340447
0.133295
0.211334
0.0514305
-0.262764
0.269849
-0.0959946
-0.173854
-0.0466008
0.00375424
-0.113621
0.325762
-0.244695
-0.0810667
-0.164455
0.260098
-0.0956424
0.022862
-0.0571811
0.296137
-0.217787
-0.0783505
0.129581
-0.0272439
0.0334006
-0.00615666
0.0499159
-0.236557
0.186642
-0.0732628
0.0963273
-0.234403
0.091815
0.104451
-0.28893
0.184479
0.000950902
0.000491912
0.00584664
0.121682
-0.127529
-0.0693766
-0.0374997
0.0996543
0.183788
-0.292374
0.28808
0.00429398
0.184465
-0.251222
0.0667574
-0.104278
-0.0937539
0.283372
-0.295754
0.012382
0.0430272
-0.0651921
0.226312
-0.151623
-0.0746894
-0.00671749
0.0108549
-0.0081477
0.00441905
0.00372865
-0.341874
0.125494
0.216381
0.00706048
-0.00666165
-0.0358971
0.0425588
0.0679605
0.138017
-0.205978
0.125143
0.198511
0.138775
-0.0656018
0.250412
0.0457253
-0.162919
0.0688964
0.0940225
0.0880782
0.143542
0.344023
-0.227805
-0.116218
0.20627
-0.0362325
0.0583045
-0.02104
0.0108697
-0.00198272
-0.00888697
0.250786
-0.169166
-0.0816199
-0.157434
0.0964055
0.0610283
-0.21872
0.293114
-0.0693561
-0.223758
-0.0017904
-0.0149959
0.0167863
-0.0820295
-0.203516
0.285546
0.00032262
0.000120693
-0.000443313
0.0137009
0.270837
-0.0187166
0.0249129
-0.00619628
0.0834336
-0.0832141
-0.000219417
0.227678
0.093975
-0.293292
0.20808
0.0852111
-0.123083
-0.188616
0.294007
-0.105391
-0.0132986
-0.0395139
-0.323101
0.103415
-0.0105865
0.0187621
-0.0081756
0.18262
-0.292469
0.109849
0.0904801
0.191878
-0.282358
0.0293162
-0.015019
0.0511794
-0.199543
0.148364
0.0263163
0.109307
-0.235316
0.320203
-0.0848873
0.339887
-0.215319
-0.124568
0.0984806
0.0271176
-0.125598
-0.267341
0.344759
-0.0774182
0.108813
0.0689046
-0.0360467
0.0186131
0.0174336
0.0933011
0.174313
0.0432615
-0.0616007
0.0183392
0.10622
-0.040846
-0.0653738
-0.360651
0.276884
0.0837676
0.174305
-0.262702
0.0883965
0.0147066
0.00181663
0.00373546
0.00636163
-0.0100971
-0.13342
0.211061
-0.0776413
-0.0133387
-0.00632194
0.0196606
0.00625174
-0.000460338
0.180292
0.0704934
-0.0869116
0.137449
-0.157192
0.231531
-0.0743395
-0.374517
0.249743
0.124775
0.319667
-0.241106
-0.0785613
-0.00028949
-0.00278707
0.00307656
0.25685
-0.151655
0.186439
-0.120116
-0.0663227
0.0531984
-0.0146603
0.173095
-0.0723424
0.0964252
-0.0564698
-0.0399554
0.00725223
-0.00963511
0.0545985
0.0418267
0.165259
-0.0892858
-0.075973
0.107106
0.0388305
-0.0741079
0.0476697
0.144596
-0.192266
0.249368
-0.111413
-0.137954
-0.0379608
0.066095
0.224293
-0.0827587
0.00642609
-0.00731523
0.000889136
-0.139703
0.286079
-0.146376
-0.1434
0.0284442
0.114955
-0.0918111
0.036511
0.0553001
0.0964821
0.229658
-0.117258
-0.1124
0.0983968
0.0750625
-0.173459
0.102221
-0.297067
0.194846
-0.0859441
0.183062
-0.0971182
0.0108861
-0.00760976
0.0471532
-0.134463
-0.0987938
0.266364
-0.188834
-0.0775299
-0.0169913
0.0064048
0.0921666
-0.013972
-0.00736393
-0.0446973
0.115316
0.208998
0.090043
0.0555727
-0.145616
0.136389
-0.145618
0.0888023
0.0764751
-0.12213
-0.0368608
0.158991
0.0980093
0.168354
0.0382356
0.206682
-0.00526227
-0.00277702
-0.027163
0.0701901
0.0911993
0.00838606
0.00248363
0.269781
-0.152206
-0.117575
0.0901092
0.00921183
-0.11557
0.180837
-0.0652672
-0.0165696
0.0032309
-0.0251121
0.0917374
-0.0666254
-0.0449178
0.0382562
0.000456458
0.000375249
-0.000831707
0.133453
-0.220573
0.08712
0.0665016
0.0640002
-0.130502
0.00872304
-0.000587311
-0.034014
0.105855
-0.0718412
0.0728721
-0.19275
0.119878
0.00360648
0.0198329
-0.0234394
-0.00306207
0.0124165
-0.0443392
0.268607
0.00210218
-0.000525901
-0.00157627
0.193033
-0.141853
0.0279058
0.268015
-0.169429
-0.0985868
-0.302257
0.0460549
0.256202
0.171335
0.137161
0.00776562
-0.00444789
0.0106025
-0.0117685
0.00116602
-0.0300882
0.0167308
0.0133574
-0.00251632
0.00330029
-0.000783977
-0.0306479
-0.18395
0.00207273
-0.00787893
-0.100664
0.0780142
-0.127937
0.241474
-0.190747
-0.0046816
-0.00540658
0.1015
0.16828
0.00116187
0.00660374
0.141405
-0.34059
0.199185
-0.00884977
0.00358749
0.296002
-0.192295
-0.195709
-0.0856897
0.286719
0.0990773
-0.100478
-0.202457
0.299945
-0.0974875
0.230953
-0.272948
0.041995
-0.0478038
0.231419
0.368196
-0.221935
-0.146261
0.15726
-0.24825
0.09099
0.241569
-0.0608862
0.0789605
0.108411
-0.187371
-0.000374512
-8.75124e-06
-0.0492753
-0.00354987
0.0528252
0.181325
-0.153739
-0.0275852
0.0348599
-0.235681
0.200821
-0.00228241
0.0241871
-0.0219046
-0.330892
0.227855
0.103037
0.0220957
-0.0953585
0.0591006
-0.247917
0.115019
-0.333406
0.218387
0.0267816
-0.0231597
-0.00362187
-0.278229
0.0906396
0.187589
0.0456392
0.148706
-0.194345
0.250744
-0.344315
0.0935703
-0.0466029
0.103854
-0.057251
0.177665
-0.068852
0.00408398
-0.0029221
-0.0556059
0.178794
-0.0135075
0.0178072
0.0940803
0.0324157
-0.0312202
-0.0011955
0.195708
-0.145792
-0.00299012
0.0098534
0.286013
0.00710088
0.198326
-0.273654
0.0737045
0.155953
0.01973
0.0637036
-0.0126969
0.0451197
0.300966
-0.108402
0.192867
-0.119995
-0.0286198
0.193096
0.134582
-0.0523753
-0.00603672
0.058412
-0.0877794
0.262084
0.00370297
0.00996389
0.0609977
-0.0683617
0.002751
-0.0159434
0.0131924
0.000724374
0.00192438
-0.0610464
0.0477478
-0.278239
0.247877
0.0303625
0.101379
-0.277748
0.176369
0.0555111
-0.118116
0.0445449
0.0186279
-0.0631728
-0.0117108
0.0144618
0.0137679
-0.0107472
0.295844
-0.0342838
-0.26156
-0.0790488
-0.23885
-0.0984136
0.0770234
0.0213902
0.18127
-0.270771
0.0895013
0.167987
0.0729062
-0.240893
0.0890063
0.0845903
0.164777
0.0606799
0.0168752
-0.0283423
-0.00140073
0.029743
0.0126271
-0.0180565
0.00542934
0.164333
-0.0659364
-0.0030948
-0.00505289
-0.0013183
0.00774439
0.00351047
0.119208
0.0258534
-0.0233035
0.0527787
0.171281
-0.22406
0.237802
-0.199567
-0.252647
-0.0255918
0.248777
-0.088151
0.0203216
0.00645997
0.106799
0.0761003
0.101347
-0.304042
0.202695
0.164427
-0.168098
0.00367066
-0.00120607
-0.00348055
0.154409
-0.205361
0.0509521
0.161376
-0.354398
0.193022
-0.107972
-0.177694
0.118853
-0.050617
-0.211405
0.272539
-0.0611342
0.100901
0.229659
-0.184733
0.00786663
0.00394655
-0.238903
-0.0897528
0.196439
0.0615014
-0.25794
-0.242301
0.335097
-0.0927963
-0.173452
-0.136015
-0.0993524
0.0551399
0.0442125
-0.303056
0.0852691
0.00128538
0.00856566
-0.00985104
-0.0934537
-0.00495986
0.0206118
-0.0592472
0.0386354
-0.014359
-0.0380163
-0.00459326
-0.00425651
-0.0210434
-0.0119033
0.0329467
-0.140789
-0.213609
0.206838
0.10103
0.304133
-0.102382
-0.201751
0.204636
0.101602
0.245487
-0.15024
0.18048
-0.143615
-0.0368641
-0.0903742
0.0228662
0.0675081
0.253571
-0.113037
0.0203044
0.0223574
-0.0437683
-0.152047
-0.0388444
0.190891
-0.0243844
0.170184
0.0305249
-0.200709
-0.0708248
-0.289827
0.280807
-0.190327
-0.190323
0.279643
-0.0893208
0.177464
-0.301099
0.123635
0.0138064
-0.0355048
0.0216984
-0.00694896
-0.0225606
-0.0168313
-0.0564216
0.00714624
-0.278102
0.336477
-0.191818
-0.144659
-0.057694
-0.131898
0.189592
0.323633
-0.123257
-0.200376
0.0233862
-0.0392317
0.349033
-0.248009
-0.101024
0.192265
-0.022081
-0.0174104
0.0550285
0.0061542
-0.267789
0.261635
-0.0120106
0.0224406
-0.144733
-0.216929
0.14977
0.186707
0.173664
-0.0466706
-0.126993
-0.216926
-0.0861295
0.294167
-0.197663
-0.0965046
0.00283342
0.0109344
-0.0393191
0.0496896
-0.0103705
-0.0678411
0.134343
-0.0201345
0.0646794
-0.00277532
0.0249498
0.229687
-0.145097
-0.0916149
0.114238
-0.0226227
0.050563
-0.0711103
0.0205472
-0.20115
0.28261
-0.0814599
-0.25027
0.0980646
-0.104861
-0.156608
0.261469
0.299897
-0.0985972
-0.2013
-0.185679
-0.161486
-0.0990879
-0.0443117
0.084162
0.172524
-0.256686
-0.309749
0.0631115
0.246637
0.361247
-0.254555
-0.106692
-0.322809
0.191856
0.140478
0.040847
0.259566
-0.119829
-0.139737
0.0793998
0.124073
0.170095
-0.132307
0.24066
-0.108352
0.0715514
-0.282957
0.14627
0.221926
-0.0169025
-0.18076
0.199993
-0.296556
0.0965632
0.116426
0.11684
-0.233266
0.00845348
0.0738031
-0.0946221
0.0571047
-0.173295
0.116191
-0.0238549
-0.088623
0.112478
0.211015
-0.320656
0.109641
0.267716
-0.0864459
-0.00469236
-0.0236499
0.227467
-0.050601
-0.176866
-0.223299
-0.112634
0.00112984
-0.00128637
0.165861
0.0983459
-0.264206
-0.000132231
0.000454851
0.00942271
0.00117982
0.112744
-0.153244
0.0404999
0.0801635
0.0386893
0.0407054
-0.232774
0.192068
-0.0138656
-0.0292605
0.043126
0.193414
-0.210316
-0.153842
-0.186748
-0.278013
0.0878646
-0.187071
-0.0631992
0.323295
-0.164343
-0.158952
0.140568
0.044071
-0.184639
0.0006683
0.00143388
-0.00582586
0.0462535
-0.0404276
0.00624954
0.00234906
-0.0085986
0.252899
-0.212193
0.154344
0.0992277
0.00416079
-0.0314047
0.0184183
0.0791352
-0.0975534
0.262158
-0.0962979
0.103274
-0.08778
-0.0154938
-0.127151
0.191198
-0.000968091
0.00013753
0.000830561
-0.194666
0.299004
-0.104338
0.0359999
0.157033
0.00508534
-0.0048819
-0.000203446
0.312992
-0.270278
-0.042714
0.336418
-0.194607
-0.141811
0.128145
0.045519
0.288766
-0.241639
-0.0471272
0.00378033
-0.00406982
0.0934736
0.154602
-0.248075
0.111345
0.118342
0.274228
-0.201461
-0.0727669
0.197191
0.139227
0.197135
0.0303317
0.0100828
-0.0115347
0.302459
-0.240689
-0.06177
0.120088
0.0663511
0.287327
-0.185205
-0.102122
0.0232583
-0.0255407
0.0558925
-0.0821542
0.0262617
0.254752
-0.100409
-0.310775
0.225389
0.085386
-0.0325439
0.196971
0.0879113
0.211985
-0.00215611
0.00325992
-0.00110381
-0.154747
0.190747
0.226788
0.0968449
0.189205
-0.143566
0.29174
-0.201788
-0.0899519
0.278648
-0.243988
-0.03466
-0.158862
-0.145772
0.304634
-0.0934375
0.172398
0.215379
-0.140632
-0.0747469
0.0743833
0.0205679
-0.0949512
0.225409
-0.0344421
-0.190967
-0.149726
0.0409089
0.144015
0.110737
0.229079
-0.0677702
-0.161308
0.227725
-0.0521212
-0.000356337
-0.00215998
0.218614
-0.245876
0.0272624
-0.000679331
-0.00028876
0.0691578
0.034116
0.289763
-0.289727
-3.61286e-05
0.173214
-0.125544
-0.0822599
-0.174287
0.256546
0.0292755
-0.0131247
0.12798
-0.112876
-0.0151042
0.134185
-0.069768
-0.0644173
0.313526
-0.0897808
-0.206392
0.31575
-0.109358
0.0334941
-0.0293333
-0.0421669
0.256191
-0.149841
0.0456059
0.104235
0.156757
0.0709675
-0.000354853
0.00443883
-0.250959
0.22027
0.0821891
-0.190332
-0.0642165
0.254548
0.0312935
-0.243573
0.21228
0.00736177
-0.0241256
0.0167639
0.00545508
-0.00545508
-0.212
0.321094
-0.109094
-0.318072
0.224957
0.0931144
-0.194408
0.122057
0.072351
0.272323
0.0471229
-0.0949418
-0.204559
0.358611
-0.154053
0.238188
-0.206895
-0.190909
0.140849
0.0500599
0.00170868
0.010257
-0.111985
0.0710269
0.0409576
-0.0496952
0.0438693
0.00399291
0.014442
-0.0184349
0.0968238
0.00282554
-0.0996493
-0.128115
-0.0348036
-0.29769
0.0912978
0.254574
-0.0630593
-0.191515
0.00955114
-0.00782125
-0.0316485
0.0809335
-0.049285
0.0332904
-0.0673043
0.18776
-0.155507
-0.0322527
0.166276
-0.127985
-0.000160494
0.000616952
0.123858
-0.313485
0.149011
-0.253007
0.103995
-0.191093
0.287187
-0.0960934
-0.210128
0.0767085
0.215576
0.0743136
-0.28989
0.131589
0.149616
0.0115696
-0.00345095
-0.00304064
-0.00404695
0.00708759
-0.00486841
0.132848
-0.213154
-0.10121
0.314364
0.283732
-0.0994733
0.0138184
-0.016461
0.00264263
-0.247823
-0.0349001
0.282723
0.30919
-0.221279
-0.0829435
-0.216913
-0.200229
0.141233
0.0434472
-0.18468
-0.0916226
0.00624166
0.000902805
-0.00714446
0.276847
0.0361455
-0.0206157
0.119096
0.0302572
0.0593276
-0.0895848
0.144745
0.0706337
-0.20006
-0.0976295
-0.288332
0.108313
0.180019
0.187798
-0.100124
-0.0876738
-0.0107728
0.00508532
0.0056875
0.302162
-0.251871
-0.0502904
0.267648
-0.118637
-0.144762
0.352882
-0.20812
0.0200625
-0.0329127
0.0128502
0.116359
-0.213466
0.244321
0.0311884
0.156571
-0.00627062
0.00116632
0.0051043
0.234309
-0.0156955
-0.0534837
0.0171816
0.0363022
0.00621268
-0.0164235
0.0102108
0.08764
-0.0963388
0.00869871
-0.0478455
0.202255
-0.118444
0.145453
-0.0270091
0.0651475
0.117745
-0.182892
0.00830865
0.000300316
0.267199
0.0154087
-0.282607
-0.0948878
0.238903
0.17377
0.107966
-0.281735
0.24527
0.0333783
0.283623
-0.107596
-0.176027
-0.00879046
0.000460381
0.322306
-0.207287
0.0880655
0.0997322
-0.0731783
0.0275625
0.0456158
-0.128219
-0.088265
0.216484
-0.00751287
0.00447223
0.0073596
0.00266865
-0.0100283
0.178293
-0.0714938
-0.00945497
-0.0340383
0.0434933
-0.0958003
0.114219
-0.0408148
-0.0585376
-0.00721438
-0.000138621
0.0179801
-0.0572996
0.0393195
-0.00428484
-0.00567649
0.0597145
-0.257753
0.198038
-0.127663
0.0463857
0.0812772
-0.228117
-0.00706634
0.149965
-0.18599
0.0360244
-0.0173099
0.00399706
0.0133128
0.0658987
0.028786
-0.0569121
0.0617891
-0.00487694
-0.23729
-0.0649664
-0.0926167
0.283066
-0.190449
0.014651
0.0844263
0.069417
-0.206796
0.137379
-0.294671
0.0224629
-0.013317
0.0179177
0.0744324
-0.0923501
-0.051599
-0.0982423
-0.170897
0.148409
0.0224873
0.0399141
0.0183191
-0.0582331
0.0199311
-0.0163246
0.00284156
-0.0105034
-0.0901492
0.254037
-0.163888