/*--------------------------------*- C++ -*----------------------------------*\
| =========                 |                                                 |
| \\      /  F ield         | OpenFOAM: The Open Source CFD Toolbox           |
|  \\    /   O peration     | Version:  v2012                                 |
|   \\  /    A nd           | Website:  www.openfoam.com                      |
|    \\/     M anipulation  |                                                 |
\*---------------------------------------------------------------------------*/
FoamFile
{
    version     2.0;
    format      ascii;
    class       volVectorField;
    location    "400";
    object      U;
}
// * * * * * * * * * * * * * * * * * * * * * * * * * * * * * * * * * * * * * //

dimensions      [0 1 -1 0 0 0 0];


internalField   nonuniform List<vector> 
53008
(
(1.03752 0.00580587 5.63346e-22)
(1.04112 -0.0472237 0)
(0.396783 -0.0130047 3.07898e-21)
(1.02556 -2.07101e-05 1.92652e-21)
(1.01946 0.0313275 1.35873e-23)
(1.00853 -0.00112935 -2.23653e-24)
(1.02172 -0.00845905 2.95291e-21)
(1.0061 -6.98096e-05 -9.31782e-23)
(1.01881 -0.0200919 -3.62209e-23)
(1.00959 -0.00137623 1.48721e-24)
(1.0077 0.000284322 2.98678e-23)
(1.06762 -0.0696125 -3.92866e-21)
(1.01385 -1.61339e-05 5.94218e-23)
(-0.00118461 -0.0343282 0)
(0.868554 0.0927996 1.33893e-21)
(0.981505 -0.0760352 1.32983e-21)
(1.01676 -0.000384032 0)
(0.847082 0.132284 1.16206e-21)
(1.07334 -0.0284667 -3.56782e-21)
(1.01357 -0.00497598 3.51132e-22)
(1.01645 -0.00917235 1.09014e-22)
(-0.0605778 0.0440549 1.91233e-20)
(0.880066 -0.018398 -4.3452e-22)
(-0.0107547 0.0505084 -5.94156e-21)
(1.00948 -0.00136118 -3.0666e-24)
(1.04336 -0.0369919 3.13858e-21)
(0.865655 0.123688 -9.38936e-22)
(1.01343 0.000378144 -6.23654e-23)
(-0.0302056 -0.102345 4.49236e-21)
(1.0253 2.47249e-05 3.41351e-21)
(1.07435 -0.0362244 0)
(1.0135 -0.00494255 7.99318e-22)
(-0.10001 -0.0102102 1.17658e-20)
(1.0168 0.0170938 1.69771e-22)
(1.0075 -3.2053e-05 1.09388e-22)
(1.00764 -3.04725e-05 0)
(1.00542 -0.000226203 -1.75467e-22)
(1.01997 -0.0432713 -2.25809e-24)
(1.01293 0.00155834 1.33212e-22)
(0.335246 -0.0145175 5.78798e-21)
(0.285734 0.0791665 -5.67646e-22)
(0.269116 0.0230767 0)
(1.01276 0.00104828 0)
(1.01122 -0.000734045 0)
(0.00212656 -0.0406652 -5.0648e-21)
(-0.0594754 0.0434827 -1.41579e-20)
(0.278244 -0.00161879 9.92123e-21)
(1.01695 0.0357004 7.09265e-22)
(1.01637 -0.0402643 0)
(0.381315 0.00701804 0)
(1.04706 -0.0331381 -3.73985e-21)
(0.701042 -0.0543024 0)
(1.00631 -0.000292231 -7.72045e-22)
(1.02584 -0.0309027 -1.58073e-21)
(1.02619 -0.000601312 3.33935e-22)
(1.08873 -0.0596006 -1.58152e-20)
(0.444554 -0.151473 3.5377e-21)
(1.01316 -0.000393887 -1.23007e-22)
(1.01144 -0.0010104 7.0103e-23)
(1.00257 -1.39176e-05 2.50278e-23)
(1.0185 -0.00532332 0)
(1.01135 -0.00283312 1.6565e-22)
(1.02097 -0.0135552 1.71439e-23)
(1.04773 -0.0330703 0)
(1.01146 -0.0010328 0)
(0.364211 0.0268266 -3.15323e-21)
(0.533338 -0.0381377 0)
(1.08896 -0.0482432 0)
(1.03241 -0.0171689 -1.30252e-21)
(1.01282 -0.00431311 6.32133e-22)
(1.01984 -0.0049381 0)
(1.02128 9.77927e-06 4.73083e-21)
(1.02322 0.00297246 0)
(1.02196 -0.000601986 4.09123e-21)
(1.0808 -0.0459938 -3.84735e-21)
(1.05016 -0.0296239 -2.75744e-21)
(1.0061 -6.53125e-05 0)
(1.01122 -0.00309073 -1.56412e-22)
(1.04278 -0.0369342 4.4396e-22)
(1.02884 -0.00840006 0)
(1.00949 -0.0013925 -1.15617e-23)
(1.01142 -0.000541003 0)
(1.08849 -0.059448 -1.75099e-23)
(1.07505 -0.0364689 0)
(1.02104 -0.00141877 1.27877e-21)
(1.03099 -0.0280967 6.46128e-22)
(1.08332 -0.0536894 2.22041e-20)
(1.08034 -0.0489916 7.09887e-21)
(1.03283 -0.0374135 0)
(1.0191 -0.00343639 0)
(1.0066 8.22526e-05 0)
(1.01798 -0.00508479 -9.5255e-22)
(1.02421 -0.0122822 2.60769e-21)
(1.02107 -0.00133737 0)
(1.08083 -0.0487697 0)
(0.941582 0.0305528 3.56118e-21)
(1.01204 -0.0036687 -1.41901e-22)
(1.00664 8.72729e-05 0)
(1.01386 -5.19011e-05 0)
(1.0127 -0.00423455 -8.92487e-22)
(1.01853 -0.00549002 -5.97478e-23)
(1.00247 -1.34903e-05 0)
(0.903258 -0.0230652 0)
(1.0134 0.00033769 6.04954e-23)
(1.01975 -0.00499888 2.28293e-21)
(0.922167 -0.0865982 -4.07109e-21)
(1.0372 -0.0917744 -4.98657e-21)
(0.243988 -0.0090154 1.68549e-20)
(1.05137 -0.015955 0)
(0.975244 -0.026802 6.80476e-22)
(0.468536 -0.0215105 -2.68054e-21)
(0.492082 -0.035289 -1.25921e-20)
(0.394922 -0.0479129 0)
(1.01131 -0.000697216 7.26095e-23)
(1.02218 -0.017443 0)
(1.02714 -0.00976138 0)
(0.942412 0.00239294 0)
(1.02583 -0.0303023 1.6368e-21)
(1.08297 -0.0538374 -1.44767e-21)
(0.948828 0.0325632 -3.40224e-21)
(1.00664 7.71375e-05 4.83955e-25)
(1.01877 -0.0124887 2.73065e-22)
(0.88676 -0.0582824 0)
(1.05267 -0.0390636 -5.98946e-21)
(1.00975 0.000140461 0)
(0.448185 -0.142055 6.97627e-21)
(0.675019 0.052147 -1.34653e-21)
(1.03065 -0.0509806 1.85885e-21)
(0.363678 -0.00386601 0)
(1.07264 -0.0284879 3.3554e-21)
(1.0097 0.000461772 8.15766e-23)
(1.00667 8.42114e-05 9.61148e-23)
(0.418132 -0.0827766 0)
(1.03081 -0.0447264 0)
(0.518974 -0.0364355 0)
(1.01896 -0.00333282 -1.05458e-21)
(1.00076 -1.53133e-05 -6.22486e-23)
(1.0158 -0.00312128 -1.11322e-22)
(0.476872 -0.0337149 -4.32952e-21)
(1.00964 0.000461823 7.58453e-23)
(-0.00334858 -0.0381011 0)
(0.512013 -0.037905 -7.67427e-21)
(1.02912 -0.00127183 0)
(1.00923 -0.000402841 0)
(1.007 0.000254888 4.33092e-24)
(1.0742 -0.0354602 4.24895e-21)
(1.02121 -0.0131182 -5.3193e-22)
(1.04078 -0.0471206 -8.30849e-22)
(1.00496 -0.000203588 4.11514e-22)
(1.02628 -0.00487359 0)
(0.333223 -0.00851831 0)
(1.01177 -0.000716719 -1.09491e-22)
(1.05012 -0.0517287 3.76245e-21)
(0.486468 -0.0248978 0)
(-0.0626357 0.0400736 7.92387e-21)
(1.03856 -0.0269339 -6.0511e-21)
(1.04949 0.0116574 0)
(0.489811 -0.00024829 2.09759e-21)
(1.0086 -0.00118812 0)
(1.05171 -0.0164701 4.39597e-21)
(1.01025 -9.00471e-05 0)
(1.01119 -0.000747455 -1.16637e-22)
(1.00745 0.000267855 -3.31222e-23)
(1.02808 -0.00491505 0)
(1.00755 0.000276385 9.8562e-23)
(-0.0138073 0.0453409 0)
(1.0842 -0.0623526 0)
(0.449594 -0.135091 -4.64034e-21)
(1.00678 7.07043e-05 2.53779e-23)
(1.00777 -0.000859687 -2.14065e-24)
(1.04297 -0.0458707 5.16103e-22)
(0.506457 0.00123124 4.79143e-21)
(1.04155 -0.0029956 -7.53618e-21)
(0.918478 0.0362488 3.60137e-22)
(1.00938 -0.00137292 0)
(1.01028 -4.1373e-05 -7.86699e-23)
(1.0059 -0.000223209 -1.20915e-21)
(1.02683 -0.00956779 -1.57799e-21)
(1.08423 -0.062086 0)
(1.05037 -0.0292006 6.37725e-21)
(1.05959 -0.0460593 8.4536e-21)
(1.01895 -0.0207433 -1.19932e-22)
(1.00995 -0.000243102 6.52401e-23)
(1.00852 -0.00108688 0)
(0.84123 -0.000106398 6.994e-21)
(1.01141 -0.000711859 6.25317e-23)
(1.00688 0.000213194 9.66287e-23)
(0.335367 -0.00942083 -7.06394e-21)
(0.325723 -0.0126746 0)
(0.350693 -0.00857202 3.29855e-21)
(1.00784 -0.000935038 -4.75722e-23)
(0.0703706 -0.0748151 0)
(1.02859 -0.0433269 0)
(1.01292 -0.0923755 0)
(0.71814 -0.0561042 0)
(1.02126 -0.00134028 0)
(1.02691 -0.104777 -8.17086e-22)
(1.07517 -0.0756457 0)
(1.02126 -0.00125128 0)
(0.592128 0.0069246 2.46155e-21)
(1.0253 -0.00522593 9.91687e-22)
(0.00212734 -0.0394384 -5.93836e-21)
(1.06929 -0.0675823 -2.26743e-21)
(1.0212 -0.000491457 1.49548e-23)
(1.02965 -0.0539993 0)
(1.0156 0.00415865 5.14103e-22)
(1.0078 -0.000915645 0)
(1.01899 -0.01249 -3.36149e-22)
(0.994133 -0.0847613 -1.86443e-22)
(0.3011 0.0736047 6.50424e-22)
(1.04322 -0.0462108 1.45373e-21)
(1.07964 -0.0508215 0)
(0.884967 0.113566 0)
(1.01873 -0.0126282 2.43605e-22)
(-0.0211442 -0.167086 0)
(1.0163 -0.00893442 -1.02052e-22)
(-0.00296198 -0.0343735 -8.55995e-21)
(1.08006 -0.0499439 0)
(0.511094 -0.0374908 1.24596e-20)
(0.49543 -0.0363248 0)
(1.08321 -0.0525388 -8.01358e-22)
(1.01633 -0.00885641 0)
(1.01194 -0.00359146 3.06932e-22)
(0.902623 -0.0578906 0)
(1.07413 -0.0563923 -7.56934e-21)
(0.424679 0.00608537 -3.23073e-21)
(1.05378 -0.0397889 -3.99239e-21)
(0.857245 0.0900304 1.15976e-21)
(1.05383 -0.0390506 4.1369e-21)
(1.03907 -0.0173422 -2.71764e-21)
(1.0106 -0.000388209 6.57947e-23)
(1.02113 -0.113338 1.32777e-22)
(1.03562 -0.00297204 -4.68446e-21)
(0.666861 0.0466021 1.94833e-21)
(1.01595 -0.00762381 0)
(1.04431 -0.0595995 0)
(1.03667 -0.00606321 -2.1924e-21)
(1.01898 -0.0126472 -3.12946e-22)
(1.03799 -0.0487225 6.8419e-22)
(1.01289 0.000114554 -5.65948e-23)
(1.02504 0.0129266 0)
(1.01449 0.00371553 -7.54508e-22)
(1.07495 -0.0597357 1.63371e-20)
(0.895177 0.121944 -1.56614e-21)
(1.01259 -0.00415899 1.151e-23)
(0.971213 0.0426869 3.12723e-21)
(1.01134 -0.00318068 0)
(1.0123 -0.00136001 -9.67054e-22)
(1.03884 -0.0175813 0)
(1.04909 -0.0346822 7.40659e-21)
(0.388422 0.0628363 -1.36695e-21)
(1.0062 -0.0503158 1.41141e-22)
(1.08103 -0.0539503 0)
(1.01006 -8.98716e-05 -6.82881e-23)
(0.999967 -1.7847e-05 -2.01015e-22)
(1.00603 -5.89558e-05 0)
(0.887273 0.113935 1.714e-21)
(1.0684 -0.0679596 5.38578e-21)
(1.08869 -0.0494977 7.0686e-21)
(0.436519 -0.00959399 0)
(0.52185 -0.0405371 4.11541e-21)
(1.08053 -0.0497693 -8.02623e-21)
(1.0125 -0.00407697 0)
(1.00623 -0.000284373 0)
(0.89758 0.11259 -1.4643e-21)
(1.00904 -0.000369663 1.10508e-21)
(0.488101 -0.0343728 6.95242e-21)
(0.49311 -0.0355348 -3.70923e-23)
(1.03828 -0.0264544 2.98335e-21)
(1.0115 0.00847022 3.38791e-22)
(1.07591 -0.0642271 -8.43222e-21)
(1.01418 0.000571646 8.20034e-23)
(1.00121 -4.77933e-06 6.23776e-23)
(1.08296 -0.0522037 6.02127e-22)
(1.01396 -0.0127498 6.86971e-22)
(1.07472 -0.0750088 -5.53941e-21)
(1.02214 -0.0176123 0)
(0.323755 0.00953752 9.13378e-21)
(1.00795 -0.000431457 -5.48672e-22)
(1.00014 -7.89192e-07 1.907e-24)
(1.04932 -0.0343095 -5.20661e-21)
(0.894766 0.105589 2.73942e-22)
(1.02826 -0.0551545 -3.55776e-22)
(0.897437 -0.0859441 1.39079e-20)
(1.02728 -0.0585115 -1.61329e-22)
(1.01831 -0.00519686 6.05277e-23)
(1.02469 -0.000644736 0)
(0.517965 -0.040746 5.5864e-23)
(0.229403 -0.00125313 -7.23791e-21)
(0.670248 -0.0503423 4.25901e-21)
(0.898325 0.109318 -1.81035e-21)
(0.959747 -0.0667864 -6.28511e-22)
(0.356305 -0.00375839 9.79655e-21)
(1.07533 -0.0645386 -7.17961e-21)
(1.02778 -0.00495609 1.28437e-21)
(1.02659 -0.00967307 1.75768e-21)
(0.399332 -0.0130907 3.97849e-22)
(1.01158 -0.000594703 1.27328e-22)
(1.05217 0.00769143 0)
(0.918764 0.0943546 2.67078e-21)
(0.484852 -0.0332463 -8.99616e-21)
(1.00959 -0.000146277 -1.41137e-22)
(1.00941 -0.000148112 1.92623e-22)
(1.01672 -0.00778341 4.64926e-22)
(-0.00858671 -0.0112996 3.31224e-22)
(1.08865 -0.0678043 2.36009e-21)
(1.01362 0.000326212 0)
(1.0437 -0.0354086 -4.36459e-21)
(1.03087 -0.00197404 1.39319e-22)
(0.560916 -0.0391592 2.52155e-21)
(0.977935 -0.0712095 -4.5614e-22)
(1.02132 -8.51606e-05 -6.73662e-22)
(1.01034 -3.24999e-05 6.52006e-23)
(1.01023 0.000146228 1.31088e-22)
(1.03745 -0.0488073 -1.29103e-21)
(1.02447 -0.00228211 -1.62922e-21)
(1.0122 0.00145145 1.3376e-22)
(0.359553 -0.0100166 -8.95196e-21)
(0.958372 0.0251157 -3.52808e-21)
(1.01488 -0.00249338 2.09333e-22)
(1.08008 -0.0506795 0)
(1.0095 0.000577992 6.27071e-24)
(0.939245 -0.0917621 0)
(1.00711 0.000173755 -4.829e-23)
(1.01457 0.00147914 -1.04377e-23)
(-0.0139566 -0.165387 0)
(0.208529 0.00587473 -3.09316e-21)
(1.01393 -0.00351996 -1.82775e-22)
(0.989398 -0.0450748 0)
(1.0386 -0.0186556 0)
(0.904486 -0.0188111 -2.05409e-22)
(0.964462 0.0261991 3.31824e-21)
(1.01106 -0.000428407 0)
(1.01879 -0.0219952 -8.52125e-23)
(0.874326 -0.159526 1.2619e-21)
(1.01682 -0.0102395 0)
(0.366445 0.00354289 -9.38427e-21)
(1.0735 -0.0351973 4.16073e-21)
(1.01183 -0.00353042 1.47381e-22)
(1.03866 -0.0182507 5.88609e-22)
(1.07257 -0.0368488 0)
(1.05203 -0.0387614 6.98172e-21)
(0.354007 0.00298906 -2.79346e-21)
(0.956225 -0.0744461 -2.43392e-22)
(0.85911 -0.0861876 8.09857e-21)
(1.01335 1.51376e-05 1.60211e-22)
(1.08389 -0.0360814 -2.61339e-21)
(1.00742 0.000165096 -4.78433e-23)
(1.01062 -0.000302995 1.88511e-22)
(1.02387 0.00698182 6.63916e-23)
(1.01125 -0.00272304 0)
(1.00768 -0.000820859 6.7071e-23)
(0.745649 -0.0163275 -1.76558e-21)
(0.261355 -0.00515412 -5.89344e-21)
(1.01139 -0.00322578 -2.21316e-22)
(0.867481 -0.160624 -5.0839e-22)
(0.317479 -0.0108802 8.03396e-21)
(-0.00388223 0.096158 -1.06723e-22)
(0.378187 -0.151202 0)
(1.07393 -0.0558637 1.89439e-20)
(1.04909 -0.0921796 5.09553e-21)
(1.01522 -0.000673166 -2.17847e-22)
(0.869338 -0.17443 1.02461e-21)
(1.00989 -0.000184112 0)
(1.00977 -0.00206067 0)
(1.0097 -0.00018758 -6.8095e-23)
(1.04365 -0.0432757 0)
(-0.0259868 -0.110735 0)
(0.231019 0.0477061 7.12026e-21)
(1.03286 -0.00718149 0)
(0.609808 -0.0320089 9.37568e-22)
(1.01988 -0.0109282 1.62421e-22)
(1.02653 -0.00164825 -6.87157e-22)
(1.01613 -0.00324633 1.49196e-22)
(1.02143 -0.00809624 1.20815e-21)
(1.08015 -0.0457669 -3.45633e-21)
(1.01175 -0.00346861 -2.99914e-22)
(0.213451 -0.00102547 1.1636e-20)
(1.02603 0.0115013 -3.8483e-23)
(1.01064 -0.000375978 -1.37552e-22)
(1.01028 -0.00244848 1.75814e-22)
(1.0116 -7.26569e-05 0)
(1.02551 -0.00543443 -1.99975e-21)
(0.825959 -0.122754 -2.49422e-21)
(1.01389 0.00129549 0)
(1.02142 -0.000986695 -2.70149e-21)
(1.01059 -0.00193279 -2.14932e-24)
(0.549573 -0.015831 0)
(0.34063 0.0391967 -5.10569e-22)
(0.659665 0.088923 5.95366e-22)
(0.913739 -0.0582967 7.89316e-22)
(0.329035 -0.00399496 0)
(-0.00863334 -0.0132511 1.52282e-20)
(1.00789 1.6392e-05 2.73262e-23)
(0.434932 -0.152429 8.7313e-21)
(0.914188 -0.0585324 6.24293e-21)
(0.851976 -0.101269 -7.00954e-21)
(1.01187 -0.00305798 0)
(0.267397 0.00854225 1.41894e-20)
(1.01207 -0.00015515 -8.10484e-23)
(1.01356 0.000282952 0)
(1.01017 -0.000286206 0)
(0.401698 -0.0494572 1.09094e-22)
(0.827248 -0.118335 2.95967e-21)
(1.00059 -7.02596e-06 -1.12314e-23)
(1.0162 -0.00285513 -2.53915e-22)
(1.0101 0.00015502 -2.12029e-22)
(1.0804 -0.0697404 1.44254e-20)
(1.04288 -0.0485938 0)
(1.02123 -0.000405929 0)
(1.06891 -0.0522515 -7.74271e-22)
(1.01463 -0.00575791 -7.69028e-22)
(-0.0349404 -0.0217922 -1.7121e-20)
(0.898454 -0.0594837 3.89789e-21)
(1.08955 -0.050465 -1.18262e-20)
(1.02142 -0.00106193 -8.1183e-22)
(0.907455 0.117029 -1.80678e-21)
(1.03261 -0.0190134 1.50246e-21)
(1.01954 -0.0106443 1.28713e-21)
(1.01816 -0.00521857 1.88216e-21)
(1.01033 -0.00249227 -1.71624e-22)
(0.665381 0.0986988 -1.43237e-21)
(1.01043 -0.000251418 1.95223e-22)
(1.01866 -0.00329371 5.01263e-22)
(1.02103 -0.00312536 1.8814e-22)
(1.01454 0.00127706 2.10965e-23)
(1.02389 -0.00487183 -1.7967e-21)
(-0.0781427 0.0171795 -1.66408e-20)
(1.0298 -0.00323307 6.1596e-23)
(1.02158 -0.000865293 -4.08098e-21)
(-0.0528203 0.0490279 -1.32137e-20)
(1.02514 -0.02978 0)
(1.01457 0.00167514 0)
(1.08781 -0.0577823 1.00793e-20)
(1.02109 -0.000353641 2.40283e-21)
(1.01974 -0.0109116 -1.43517e-21)
(0.133578 0.0216449 -3.20979e-21)
(1.0436 -0.0350846 0)
(1.00276 -0.0469179 -2.20155e-22)
(0.558916 -0.0900279 -1.93264e-21)
(0.984798 -0.0468079 7.32998e-24)
(1.03245 -0.00888853 0)
(1.04292 -0.0549438 -1.89281e-21)
(-0.0953431 -0.00980266 0)
(0.287165 0.00922544 -9.54e-21)
(1.02875 -0.00815469 -1.78822e-22)
(1.0145 0.00157871 -5.61314e-24)
(1.01609 -0.014785 0)
(0.164404 0.0347423 6.30257e-21)
(1.00342 3.15947e-05 9.12654e-23)
(0.686287 -0.0517458 0)
(-0.0786792 0.0202108 3.33906e-21)
(1.00948 0.000137543 0)
(1.00748 -0.000329622 9.168e-22)
(-0.0542823 0.0486634 3.99313e-23)
(0.815132 -0.0549366 9.01991e-22)
(0.839466 -0.00954986 -1.90266e-21)
(0.12508 -0.00977445 6.4611e-21)
(1.00039 8.01274e-06 -9.10904e-24)
(0.412376 0.0600338 -4.23367e-21)
(1.01022 -1.42073e-05 1.27491e-22)
(1.04396 -0.00782296 7.86649e-22)
(1.02147 -0.00830994 -3.65751e-21)
(1.01906 -0.00572625 -2.03561e-21)
(1.00984 -0.000448792 0)
(0.654471 -0.0473186 0)
(0.996422 -0.0490958 1.03818e-22)
(0.970068 -0.0267401 0)
(1.08673 -0.0677936 1.33113e-22)
(0.457837 -0.138242 -6.6022e-21)
(1.08856 -0.0491074 0)
(0.982022 -0.0422153 5.01085e-22)
(1.02894 -0.0519359 -1.93574e-21)
(0.270992 -0.0103437 -1.98158e-20)
(1.01882 -0.00338709 -1.07734e-21)
(0.371123 0.00561418 -3.20014e-21)
(1.01439 -0.00557286 1.00953e-22)
(0.436957 0.00345016 3.08684e-21)
(0.594731 0.0698302 7.19552e-22)
(0.729808 -0.0580197 3.87086e-21)
(1.00978 0.000148149 0)
(0.313858 -0.00173707 1.0381e-20)
(0.993286 -0.0450872 0)
(1.04198 -0.0376026 2.79938e-21)
(1.02498 -0.0168659 0)
(1.02407 -0.00499024 -1.81202e-21)
(0.493703 -0.0368143 0)
(1.02137 -0.00630898 6.17967e-22)
(1.06239 -0.0593383 6.87404e-21)
(0.883624 -0.072769 1.78183e-21)
(1.00065 2.31331e-05 0)
(1.00733 0.000168231 -1.15027e-23)
(0.366856 0.0583579 1.1439e-22)
(1.00392 4.70756e-05 0)
(0.944105 -0.0274107 0)
(1.01096 -0.00292752 -3.99478e-22)
(1.02093 -0.000143488 -1.23546e-21)
(1.01611 -0.00768458 0)
(1.02484 -0.0165353 0)
(1.05903 -0.0454849 -2.09618e-22)
(0.190395 -0.000991103 -9.66131e-21)
(1.02246 0.00664159 -3.55594e-23)
(1.03482 -0.0312263 1.65034e-21)
(1.0194 -0.0106114 0)
(0.951989 -0.0898384 0)
(0.404895 -0.00383436 0)
(1.06779 -0.0532346 0)
(1.01007 -3.81583e-05 5.47046e-23)
(1.02677 -0.0130483 -3.33844e-21)
(1.05849 0.00740473 -2.90029e-22)
(1.02393 -0.00111898 2.81598e-24)
(1.00139 1.82106e-05 -4.16501e-23)
(0.460073 -0.0198787 1.57324e-21)
(0.420361 0.0200988 8.14925e-21)
(1.00743 7.96379e-05 8.569e-23)
(1.08335 -0.0627675 2.21142e-20)
(1.04313 -0.0480723 0)
(1.01093 -0.000464314 -7.4434e-23)
(1.00682 -0.000289376 -4.01196e-23)
(1.01152 -0.000922649 1.55828e-22)
(0.34019 0.0755592 1.31305e-23)
(0.972397 -0.0113144 1.33606e-21)
(1.02159 -0.000949929 4.21574e-21)
(1.08316 -0.0361383 0)
(0.936508 0.082083 5.95953e-22)
(1.01149 -0.00329795 3.95777e-22)
(0.505858 -0.0374109 -4.15853e-21)
(1.00667 -0.000255684 -1.6278e-23)
(1.01936 -0.0156388 0)
(1.01247 0.000263723 0)
(1.01364 -0.0122224 0)
(1.00733 -1.58532e-05 7.49037e-23)
(0.983195 -0.00442209 -6.17785e-22)
(0.295816 0.070118 4.64813e-22)
(1.01405 -0.00360177 8.02087e-22)
(0.392707 0.0460307 4.59344e-21)
(1.01103 -0.00296763 4.04862e-22)
(0.986788 -0.0456592 0)
(1.02514 -0.0291942 0)
(1.0265 -0.0129579 2.10845e-21)
(1.01866 0.0166912 -1.99851e-22)
(1.02109 -0.000267116 -1.21325e-21)
(1.00916 -0.000128026 0)
(1.00946 -0.000169117 1.96479e-22)
(1.07109 -0.035611 9.76575e-21)
(-0.00820092 0.0811692 -5.90382e-21)
(1.01155 -0.000941486 0)
(0.286751 -0.00611249 0)
(0.183141 0.000432958 0)
(0.433833 -0.00578159 -1.02047e-20)
(1.03273 -0.018681 0)
(1.0356 -0.00634502 0)
(1.00162 1.93424e-05 4.33228e-23)
(1.01103 -0.000559292 -3.3281e-23)
(1.00029 3.03178e-06 -1.99083e-22)
(1.04236 -0.0544247 -1.93081e-21)
(0.864329 -0.157493 0)
(0.588842 -0.0461924 2.32512e-21)
(1.01284 0.000268443 1.46371e-22)
(-0.00868644 -0.108223 -2.97773e-21)
(1.01124 -0.000641702 -3.55659e-24)
(0.984327 -0.0414641 0)
(1.00996 -5.12842e-05 -7.57255e-23)
(0.56466 -0.0854558 0)
(1.00674 -0.000268243 -6.69902e-23)
(0.392555 -0.0111336 -7.38107e-21)
(1.00809 -0.000108495 1.79161e-22)
(0.390265 0.00318574 0)
(1.06799 -0.0255383 1.21438e-20)
(0.475132 -0.0330173 0)
(1.01115 -0.00304889 -1.65903e-22)
(1.01297 0.000197554 0)
(1.01513 -0.00171096 -1.53769e-22)
(1.06826 -0.0520011 1.33176e-21)
(1.03065 -0.0275718 0)
(0.58154 -0.037809 0)
(1.00621 0.000141051 2.74118e-23)
(1.02141 7.13921e-05 -2.66869e-21)
(1.03166 -0.0161567 -2.95951e-21)
(1.01613 -0.0076104 -1.16178e-23)
(0.808215 -0.0548496 0)
(1.01592 -0.00272039 -1.16694e-22)
(1.01914 -0.015391 2.31686e-23)
(0.192544 -0.0226416 8.49022e-21)
(0.390684 -0.011407 0)
(1.01241 0.000302965 -1.79692e-22)
(0.30762 -0.00167624 7.70511e-21)
(1.08712 -0.0685422 -5.36212e-21)
(0.692901 0.103926 1.5467e-21)
(0.265003 -0.00170787 0)
(1.0362 -0.00606015 0)
(0.963043 0.00657472 1.31604e-22)
(0.504329 -0.0388281 -1.24029e-20)
(0.192432 0.0333501 3.99531e-21)
(1.00635 -0.00018551 4.34007e-23)
(0.415338 -0.0607474 1.77758e-21)
(1.00679 0.00020585 -6.24253e-23)
(1.00766 -2.24498e-05 1.23014e-22)
(0.404614 -0.0151219 -3.00622e-21)
(1.08913 -0.0615304 -8.30762e-21)
(0.828615 -0.0555463 0)
(0.0118397 0.0441847 0)
(0.98742 -0.0889907 1.16529e-22)
(1.01017 -0.00237162 8.7268e-23)
(1.05561 -0.048873 4.75371e-21)
(0.638018 0.0037412 7.87116e-22)
(0.653997 -0.0418963 0)
(0.279095 -0.00341677 0)
(1.01431 0.000618284 7.50743e-23)
(1.01453 -0.00570491 -1.06711e-22)
(1.08727 -0.0565412 2.59531e-20)
(1.01923 -0.0103786 3.88511e-22)
(1.00755 -4.76154e-05 0)
(1.01835 -0.00324264 0)
(1.02495 -0.0163503 0)
(1.00865 -0.00121255 0)
(0.411641 -0.00475611 -1.16852e-21)
(1.00669 7.29715e-05 -2.23171e-22)
(0.981237 -0.00277491 7.09618e-22)
(1.01384 -0.00353108 0)
(1.08385 -0.0628121 -1.69636e-20)
(1.00448 -0.000229888 0)
(-0.126579 -0.0922799 1.05479e-20)
(0.8586 -0.16002 1.85417e-22)
(0.976695 -0.0707171 1.10342e-20)
(0.950594 0.0637543 -1.54133e-21)
(1.01161 0.000251431 0)
(1.01672 -0.0103052 0)
(1.01153 -0.000830242 1.69316e-22)
(1.04256 -0.0376123 -3.22784e-21)
(1.05936 -0.0200238 0)
(1.01477 -0.0058902 1.2098e-21)
(0.436503 -0.134125 0)
(0.965002 0.0107827 -6.95568e-22)
(1.01012 -0.00174762 -3.25494e-23)
(1.07233 -0.0275896 -3.58472e-21)
(0.414282 -0.00469785 -1.57189e-21)
(1.02415 -0.0018845 3.54001e-21)
(0.966953 -0.0669396 0)
(0.98075 -0.0712387 -1.2453e-21)
(0.423372 -0.0100649 1.75361e-21)
(1.01149 -0.000816146 -4.05295e-23)
(1.03853 -0.0497802 -2.66275e-21)
(1.01131 -3.09853e-05 -7.5664e-23)
(1.02455 -0.00520683 1.80689e-21)
(0.990645 -0.0696992 -1.20279e-20)
(1.01018 -2.06512e-05 0)
(1.00846 0.000178638 5.31241e-23)
(1.02242 -0.0101003 -2.65782e-21)
(1.08794 -0.0579446 -1.03803e-20)
(1.01444 -0.00239793 -1.08946e-22)
(1.01636 -0.00900144 -6.24228e-24)
(0.445717 -0.0931004 0)
(1.0235 -0.0043069 3.26851e-21)
(1.08266 -0.0353223 0)
(1.02111 -0.0137879 7.19239e-22)
(1.0152 -0.0022809 2.57122e-22)
(-0.0317378 -0.0219633 1.26674e-20)
(1.03138 -0.0617582 1.08595e-21)
(0.598123 0.0593677 -8.13289e-22)
(1.0191 -0.0103299 -6.27815e-22)
(1.01462 -0.000264343 -1.88946e-21)
(1.02295 -0.0107603 -1.71161e-21)
(1.04425 -0.0074491 -7.28555e-22)
(1.00067 -1.89106e-05 0)
(1.06604 -0.0909359 -5.47405e-21)
(1.0148 -0.013036 0)
(0.42807 -0.00744678 1.24782e-20)
(0.278151 -0.00392664 0)
(1.0077 0.00030591 5.3004e-23)
(0.440297 -0.139501 4.91879e-21)
(1.01286 -0.0648419 -1.16076e-20)
(1.03517 -0.00541002 -9.36402e-22)
(1.0102 -0.000273947 0)
(1.04343 -0.0428157 -4.72694e-22)
(1.01439 -0.00239016 2.64978e-22)
(0.900334 0.0369117 3.04776e-21)
(1.01587 -0.0144312 -1.96403e-22)
(1.00744 5.8229e-05 -5.51267e-23)
(0.977204 -0.0428118 -3.73915e-23)
(0.876298 -0.100731 6.58529e-21)
(0.400009 -0.0122341 0)
(1.01912 -0.00552634 -3.35795e-22)
(1.06416 -0.0143295 4.4307e-21)
(1.01039 -0.000264192 0)
(1.00722 -0.000355336 3.10852e-22)
(0.306655 0.0571339 1.26668e-20)
(1.01174 0.000374386 5.57655e-23)
(-0.0135278 0.00766227 0)
(1.01322 4.89554e-05 0)
(0.335482 -0.0414897 0)
(1.08581 -0.046749 8.99424e-21)
(1.00548 -0.000222523 1.66332e-22)
(1.0108 -0.00281025 -1.03328e-22)
(1.03863 -0.0492737 2.08551e-21)
(1.01526 -0.00675894 -8.12553e-22)
(1.0756 -0.0736977 9.8629e-21)
(1.01172 -0.000620041 -1.53695e-22)
(0.569982 -0.0368928 -4.11471e-21)
(1.02174 8.59655e-05 -2.89205e-21)
(1.01212 0.000312015 1.9412e-22)
(0.831071 -0.0560619 -7.91419e-21)
(1.01491 -0.006902 -1.33212e-22)
(1.06732 -0.0256317 -6.064e-21)
(1.00986 -0.000227077 -6.88616e-23)
(1.02176 -0.000738389 1.29124e-21)
(1.07144 -0.0243247 1.01951e-20)
(1.00181 2.78134e-05 1.02668e-23)
(1.02441 -0.0286698 1.44418e-21)
(0.331431 0.0979317 -2.96712e-21)
(1.0262 -0.00503301 0)
(0.667474 0.0123441 -3.76461e-22)
(1.04342 -0.0564982 4.39464e-21)
(1.01433 -9.6413e-05 -9.00951e-26)
(1.01646 -0.00770585 9.69885e-22)
(0.492857 -0.0276994 0)
(0.396032 0.00661068 0)
(1.02202 -0.0167054 0)
(0.526341 -0.0390695 -1.26534e-20)
(0.242904 -0.00293319 2.45685e-21)
(1.01933 -0.00573259 -4.91672e-22)
(1.03044 -0.0455438 -3.90503e-22)
(1.02029 -0.0128775 -3.11122e-22)
(1.01046 0.000684807 0)
(1.01065 7.77903e-05 1.36257e-22)
(0.00363556 -0.0979662 0)
(1.02031 -0.00299453 -1.02947e-22)
(1.04793 -0.00929384 -3.62484e-21)
(0.641455 -0.0303769 0)
(1.0325 -0.0366789 -3.72334e-22)
(0.566106 -0.115407 -2.11473e-21)
(0.412269 0.00488673 3.60386e-21)
(0.561063 -0.10867 2.25682e-21)
(1.0454 -0.0322849 -3.8494e-21)
(1.02177 -0.000834432 5.27917e-21)
(1.07489 -0.0590938 -7.02163e-23)
(1.02325 -0.018078 0)
(1.00823 -0.0642306 0)
(1.08943 -0.0509526 -9.00764e-22)
(1.02476 -0.0160254 0)
(0.293852 -0.000955011 -9.28029e-21)
(1.01992 -0.00100528 0)
(1.04186 -0.0502337 2.96612e-21)
(1.07508 -0.0658596 0)
(1.0185 -0.00334862 -5.5356e-22)
(1.05187 -0.114706 -5.08848e-21)
(1.049 -0.00607582 1.81507e-21)
(1.01286 -0.0014392 0)
(1.05291 -0.0152652 6.67375e-21)
(0.39527 -0.0135648 -3.15426e-21)
(1.05926 -0.0194681 -3.92251e-21)
(1.01084 -0.00284936 1.18907e-22)
(1.01698 -0.00437568 -3.27066e-22)
(0.557482 -0.0352062 -2.39111e-21)
(0.968948 -0.0315708 0)
(1.07613 -0.0635507 1.19321e-20)
(1.00766 -0.000809167 -1.8318e-23)
(1.06679 -0.0245234 9.0374e-21)
(0.833749 -0.168446 0)
(1.04956 -0.0297317 0)
(1.03895 -0.0194202 0)
(1.01724 -0.00437497 3.28026e-22)
(1.0107 -0.000780286 6.79156e-24)
(0.00332867 -0.114382 0)
(1.06817 -0.0901741 4.82889e-21)
(1.03603 -0.00637465 -3.60211e-21)
(0.403586 -0.0128275 -3.53515e-21)
(0.878439 0.163976 1.92064e-21)
(1.06737 -0.0536001 -4.52469e-21)
(1.01892 -0.0289402 -5.89551e-22)
(0.518407 -0.0356894 1.45438e-20)
(1.07955 -0.0524813 0)
(1.03705 -0.0652575 5.67518e-21)
(0.000492806 -0.0283616 8.82724e-21)
(1.03092 -0.0166856 3.58141e-21)
(1.0628 -0.0188567 0)
(0.354942 0.00362989 1.53747e-20)
(0.657102 -0.118247 2.96135e-21)
(1.0282 -0.0169047 0)
(0.673956 -0.0479039 -7.69904e-21)
(0.431237 -0.011579 0)
(1.01521 -0.000156664 -1.02974e-21)
(0.0328421 0.0635492 2.86901e-20)
(1.01469 -0.00671914 4.36057e-22)
(1.04275 -0.0560118 -1.19448e-21)
(1.01545 -0.00698699 -6.85399e-22)
(1.00308 5.74999e-05 2.48837e-23)
(1.01179 -0.00303095 0)
(0.100921 0.0150646 6.69523e-21)
(0.170401 -0.175392 -2.11656e-22)
(0.279477 0.0882269 1.10126e-22)
(0.0750666 -0.0171483 -7.35626e-21)
(1.02051 -0.013053 0)
(0.293223 -0.0068604 1.0879e-21)
(0.568431 0.00276237 0)
(1.00674 -0.000276036 1.43279e-24)
(0.930508 0.0358608 1.47834e-22)
(0.328019 -0.00395138 0)
(0.879489 0.16089 -1.78142e-21)
(0.0973341 0.0168148 0)
(1.01086 -0.000440239 3.37439e-23)
(0.0279745 -0.109905 -4.53771e-21)
(1.01229 -0.00146248 1.35434e-23)
(1.01104 -0.000444506 0)
(1.01586 -0.0074697 -2.66955e-22)
(0.923077 -0.0763831 1.98983e-21)
(1.0153 -0.00174123 0)
(1.00382 5.5791e-05 0)
(1.03202 -0.0169008 -5.77334e-22)
(1.00223 3.95722e-05 -7.8898e-23)
(1.02553 -0.00948715 1.78441e-21)
(1.02119 -0.00794785 0)
(1.02038 -0.0189367 9.16512e-23)
(-0.0109618 -0.00745486 -6.43215e-21)
(1.08404 -0.0574717 1.09369e-21)
(1.03683 -0.032282 0)
(1.06409 0.0130295 0)
(0.424599 0.110826 0)
(1.00952 -0.00051854 -4.01773e-22)
(1.08283 -0.0348882 0)
(1.01871 -0.00560686 5.76396e-22)
(1.00597 -3.80094e-05 0)
(0.249965 0.106188 -1.00665e-22)
(1.00927 -0.00138004 -3.34348e-23)
(1.00395 0.00272007 5.07946e-22)
(1.001 1.47204e-05 -1.06066e-23)
(1.0639 -0.0573198 -4.83758e-21)
(1.02447 -0.0280995 -1.42429e-21)
(0.0639437 0.00179416 1.16621e-20)
(1.04109 -0.00313552 2.95109e-21)
(0.549688 -0.0367449 7.98814e-21)
(1.02195 -0.000700892 -4.47203e-21)
(0.337832 0.0880832 0)
(1.02369 -0.00441685 -2.13844e-21)
(0.167839 -0.0191424 0)
(1.0065 -0.000288586 5.86516e-22)
(0.935167 0.000252417 0)
(1.05074 -0.122552 2.80318e-21)
(1.08532 -0.0466945 -2.21712e-20)
(0.419624 -0.0896831 0)
(1.00844 -0.00101874 7.61999e-23)
(1.02803 -0.0166882 -1.90396e-21)
(0.971099 -0.0729802 0)
(1.01162 -5.83464e-05 0)
(0.522354 -0.0138638 -3.2168e-22)
(1.01633 -0.00754451 -9.09299e-22)
(0.445088 0.00563614 -1.42579e-20)
(1.07578 -0.0630676 1.45186e-20)
(0.542301 -0.0327623 -9.84081e-21)
(-0.045763 0.0526711 2.35742e-20)
(1.07512 -0.0730541 -2.65873e-21)
(1.01593 -0.00375177 8.63091e-22)
(1.01263 -0.00327391 -1.01448e-21)
(1.05065 -0.0512394 -7.73151e-21)
(1.07541 -0.0711839 2.99913e-21)
(0.532219 -0.0309119 -1.04368e-20)
(0.420484 -0.0152522 -1.03379e-20)
(1.00141 1.37056e-05 -8.00046e-23)
(1.01213 -0.000166367 9.66375e-23)
(0.816019 -0.0673785 1.98612e-21)
(1.00835 -0.000485315 0)
(1.02124 -0.00755112 -1.56403e-21)
(1.01 -0.000232082 -1.36445e-22)
(1.00417 -0.0630935 -4.66224e-22)
(1.08073 -0.0543114 1.12437e-20)
(0.33151 0.136985 -1.10123e-21)
(0.531541 -0.0312889 -1.42235e-21)
(1.04841 -0.00606718 0)
(0.277821 -0.00418571 0)
(0.307673 -0.00179309 1.08469e-20)
(1.07168 -0.0275599 0)
(0.458634 0.0684283 0)
(1.01881 -0.0135335 2.72151e-22)
(1.01126 -0.000584603 0)
(1.01601 -0.00371531 -1.89964e-21)
(1.02628 -0.00949099 -3.7033e-21)
(0.255585 0.103497 -4.79059e-23)
(1.03765 -0.0265052 1.02873e-21)
(1.01317 -4.16242e-05 0)
(1.04242 -0.0242425 4.29284e-21)
(0.106499 -0.0744854 0)
(0.968267 -0.0316385 7.04317e-22)
(1.01123 -0.000544773 -1.00814e-22)
(1.00635 -0.000190117 -3.79881e-23)
(0.623814 0.0856756 -7.7737e-22)
(1.01216 0.000913713 -7.84836e-24)
(1.00604 -5.44429e-05 -1.00132e-22)
(1.01141 -0.000552931 0)
(0.408625 -0.00574158 9.15721e-21)
(1.00936 -0.000155348 -1.97683e-22)
(1.006 0.00624587 -3.79993e-22)
(1.01066 -0.000464311 -6.14329e-23)
(1.00948 0.000577627 -1.0081e-24)
(1.05153 -0.061843 3.59209e-21)
(1.01466 -0.00252702 0)
(0.409709 -0.00536415 0)
(0.797099 -0.0638114 -4.2509e-21)
(1.00551 -0.0866649 -7.3027e-21)
(0.534571 -0.0139031 0)
(0.0462566 -0.113545 5.4709e-21)
(0.796624 -0.0632024 -9.07668e-23)
(1.01123 -0.000556111 -3.26899e-23)
(1.00994 -0.000175016 0)
(1.01363 -0.00353024 0)
(1.00963 -0.000137865 0)
(1.02435 -0.00199422 -1.7464e-21)
(1.00347 -0.0177152 1.47787e-21)
(0.885891 -0.0394637 0)
(1.02115 -0.00618933 0)
(0.366421 0.0493226 1.68388e-21)
(1.07557 -0.0653788 5.09527e-21)
(1.03462 -0.0198087 -3.18074e-21)
(1.05329 -0.0386276 0)
(0.845865 -0.140084 3.66287e-22)
(1.0145 -7.05993e-05 -2.4918e-22)
(1.01195 0.000330082 0)
(1.01617 -0.00729734 4.07267e-22)
(1.01109 -0.000488921 0)
(0.61254 -0.0783076 -1.53623e-22)
(0.347949 0.0847472 2.32019e-21)
(0.906094 -0.0583309 6.98559e-21)
(1.08414 -0.0572702 0)
(1.01631 -0.00745497 -9.28089e-22)
(1.01392 -0.000491179 -2.0501e-21)
(1.04892 -0.00985016 -3.47474e-21)
(1.01116 -0.000679233 1.51743e-22)
(0.342298 0.0468122 -9.09768e-22)
(1.00801 -9.31708e-05 5.75089e-23)
(0.841113 -0.143523 -6.02661e-22)
(1.08532 -0.0687127 -4.45646e-21)
(1.00941 -0.000559766 5.81078e-22)
(0.424353 -0.148172 -6.77729e-22)
(1.00778 -0.000870952 0)