/*--------------------------------*- C++ -*----------------------------------*\
| =========                 |                                                 |
| \\      /  F ield         | OpenFOAM: The Open Source CFD Toolbox           |
|  \\    /   O peration     | Version:  v2012                                 |
|   \\  /    A nd           | Website:  www.openfoam.com                      |
|    \\/     M anipulation  |                                                 |
\*---------------------------------------------------------------------------*/
FoamFile
{
    version     2.0;
    format      ascii;
    class       volVectorField;
    location    "400";
    object      U_0;
}
// * * * * * * * * * * * * * * * * * * * * * * * * * * * * * * * * * * * * * //

dimensions      [0 1 -1 0 0 0 0];


internalField   nonuniform List<vector> 
53008
(
(1.03768 0.00566044 5.59456e-22)
(1.04113 -0.047265 0)
(0.396727 -0.0130092 3.07944e-21)
(1.02556 -2.04177e-05 1.92675e-21)
(1.0197 0.0313249 1.3966e-23)
(1.00853 -0.00112941 -2.24598e-24)
(1.02172 -0.00845891 2.95414e-21)
(1.0061 -6.97851e-05 -9.26929e-23)
(1.01883 -0.020078 -3.64037e-23)
(1.00959 -0.00137631 4.39032e-24)
(1.0077 0.000284308 2.98059e-23)
(1.0676 -0.0695952 -3.92712e-21)
(1.01385 -1.75984e-05 5.93386e-23)
(-0.00108964 -0.0345565 0)
(0.868799 0.0942912 1.33656e-21)
(0.98128 -0.0758814 1.34076e-21)
(1.01676 -0.000384028 0)
(0.847563 0.132209 1.18314e-21)
(1.07334 -0.0284636 -3.56784e-21)
(1.01357 -0.00497599 3.51889e-22)
(1.01645 -0.00916982 1.09894e-22)
(-0.060776 0.0436715 1.91205e-20)
(0.880404 -0.0186791 -4.40938e-22)
(-0.0107636 0.0501892 -5.94088e-21)
(1.00948 -0.00136125 -4.23878e-24)
(1.04336 -0.0369989 3.13938e-21)
(0.866193 0.123508 -9.53743e-22)
(1.01343 0.000376306 -6.22586e-23)
(-0.0303324 -0.101596 4.49325e-21)
(1.0253 2.50095e-05 3.41394e-21)
(1.07435 -0.0362207 0)
(1.0135 -0.00494256 8.01165e-22)
(-0.100042 -0.0107212 1.17608e-20)
(1.0169 0.0171092 1.6882e-22)
(1.0075 -3.20344e-05 1.08974e-22)
(1.00764 -3.04565e-05 0)
(1.00542 -0.000226216 -1.76073e-22)
(1.01975 -0.0432462 -2.42189e-24)
(1.01296 0.00158157 1.32338e-22)
(0.335184 -0.014516 5.78944e-21)
(0.28603 0.0791613 -5.4084e-22)
(0.268772 0.0229247 0)
(1.01276 0.00104912 0)
(1.01122 -0.000734311 0)
(0.00216509 -0.0407721 -5.06147e-21)
(-0.0596462 0.0431016 -1.41556e-20)
(0.278185 -0.00161931 9.92315e-21)
(1.01722 0.0357168 7.05945e-22)
(1.01616 -0.0402291 0)
(0.381366 0.00701473 0)
(1.04706 -0.0331409 -3.74042e-21)
(0.701024 -0.0543366 0)
(1.00631 -0.000292229 -7.73151e-22)
(1.02583 -0.0308939 -1.58049e-21)
(1.02622 -0.000656769 3.31476e-22)
(1.08875 -0.0596039 -1.58175e-20)
(0.444163 -0.151518 3.53012e-21)
(1.01316 -0.000375249 -1.22798e-22)
(1.01144 -0.00101025 6.94925e-23)
(1.00257 -1.39189e-05 2.46677e-23)
(1.0185 -0.00532321 0)
(1.01135 -0.0028331 1.65982e-22)
(1.02097 -0.0135568 1.71435e-23)
(1.04773 -0.0330728 0)
(1.01146 -0.00103263 0)
(0.363972 0.0266617 -3.15064e-21)
(0.533291 -0.038138 0)
(1.08897 -0.0482386 0)
(1.03241 -0.0171686 -1.30274e-21)
(1.01282 -0.0043131 6.33676e-22)
(1.01984 -0.00493801 0)
(1.02128 9.92021e-06 4.73157e-21)
(1.02324 0.00293853 0)
(1.02196 -0.000601822 4.09191e-21)
(1.0808 -0.0459904 -3.84733e-21)
(1.05017 -0.0296247 -2.7577e-21)
(1.0061 -6.52857e-05 0)
(1.01122 -0.00309088 -1.57198e-22)
(1.04278 -0.0369415 4.4407e-22)
(1.02884 -0.0084 0)
(1.00949 -0.00139256 -1.2849e-23)
(1.01142 -0.000540954 0)
(1.08852 -0.0594511 -1.74646e-23)
(1.07506 -0.0364652 0)
(1.02104 -0.0014187 1.27904e-21)
(1.03098 -0.0280946 6.462e-22)
(1.08333 -0.0536897 2.22041e-20)
(1.08034 -0.048989 7.0988e-21)
(1.03281 -0.0374194 0)
(1.0191 -0.00343633 0)
(1.0066 8.22871e-05 0)
(1.01798 -0.00508469 -9.53037e-22)
(1.02421 -0.012282 2.60872e-21)
(1.02107 -0.00133729 0)
(1.08083 -0.0487671 0)
(0.941572 0.0308778 3.5584e-21)
(1.01204 -0.00366884 -1.42691e-22)
(1.00664 8.73131e-05 0)
(1.01386 -5.31483e-05 0)
(1.0127 -0.00423454 -8.94677e-22)
(1.01853 -0.00548991 -5.97777e-23)
(1.00247 -1.34905e-05 0)
(0.903574 -0.0233542 0)
(1.0134 0.000335842 6.03919e-23)
(1.01975 -0.00499879 2.2838e-21)
(0.922131 -0.0866088 -4.06792e-21)
(1.03716 -0.0917469 -4.98099e-21)
(0.244515 -0.0082326 1.69069e-20)
(1.05137 -0.0159542 0)
(0.97512 -0.0265949 6.77967e-22)
(0.468492 -0.0215211 -2.68085e-21)
(0.492032 -0.035287 -1.25951e-20)
(0.394892 -0.0485678 0)
(1.01131 -0.000697545 7.21499e-23)
(1.02219 -0.017446 0)
(1.02714 -0.00976132 0)
(0.942408 0.00275147 0)
(1.02582 -0.0302934 1.63655e-21)
(1.08297 -0.0538379 -1.44767e-21)
(0.948881 0.0328845 -3.39964e-21)
(1.00664 7.71598e-05 4.80419e-25)
(1.01877 -0.0124896 2.73747e-22)
(0.886719 -0.0582808 0)
(1.05268 -0.0390643 -5.99031e-21)
(1.00975 0.000140404 0)
(0.447893 -0.14188 6.95234e-21)
(0.675274 0.051146 -1.35435e-21)
(1.03078 -0.0509298 1.86829e-21)
(0.36363 -0.00386818 0)
(1.07265 -0.0284848 3.35542e-21)
(1.0097 0.000461801 8.14385e-23)
(1.00667 8.42404e-05 9.58382e-23)
(0.418146 -0.0832711 0)
(1.03078 -0.0447423 0)
(0.518927 -0.0364355 0)
(1.01896 -0.00333276 -1.05495e-21)
(1.00076 -1.5318e-05 -6.32929e-23)
(1.01579 -0.00311873 -1.11076e-22)
(0.476822 -0.0337132 -4.33055e-21)
(1.00964 0.000461846 7.57189e-23)
(-0.00332678 -0.0383651 0)
(0.511965 -0.0379018 -7.67611e-21)
(1.02915 -0.0013449 0)
(1.00923 -0.000402852 0)
(1.007 0.000254853 4.32289e-24)
(1.0742 -0.0354566 4.24896e-21)
(1.02126 -0.0131357 -5.29644e-22)
(1.04079 -0.0471614 -8.31757e-22)
(1.00496 -0.000203587 4.12074e-22)
(1.02628 -0.00487348 0)
(0.333159 -0.00851918 0)
(1.01177 -0.000717195 -1.08827e-22)
(1.05014 -0.0517193 3.76343e-21)
(0.486511 -0.0249907 0)
(-0.0627876 0.0396827 7.92275e-21)
(1.03856 -0.0269352 -6.05194e-21)
(1.04968 0.0114313 0)
(0.490308 -2.46176e-05 2.10579e-21)
(1.0086 -0.00118818 0)
(1.05171 -0.0164692 4.39619e-21)
(1.01025 -9.01639e-05 0)
(1.01119 -0.000747691 -1.15826e-22)
(1.00745 0.000267843 -3.30534e-23)
(1.02808 -0.00491485 0)
(1.00755 0.000276372 9.83599e-23)
(-0.0138183 0.0450167 0)
(1.0842 -0.0623672 0)
(0.449352 -0.134865 -4.62179e-21)
(1.00678 7.07032e-05 2.53064e-23)
(1.00777 -0.000859759 -2.13789e-24)
(1.04299 -0.0458945 5.1653e-22)
(0.506925 0.0014332 4.81027e-21)
(1.04155 -0.00299487 -7.53659e-21)
(0.918526 0.0366471 3.57919e-22)
(1.00938 -0.00137297 0)
(1.01028 -4.13605e-05 -7.84453e-23)
(1.0059 -0.000223208 -1.21079e-21)
(1.02683 -0.00956773 -1.57836e-21)
(1.08423 -0.0621002 0)
(1.05037 -0.0292012 6.37787e-21)
(1.0596 -0.0460538 8.45396e-21)
(1.01897 -0.0207287 -1.20345e-22)
(1.00995 -0.00024312 6.49647e-23)
(1.00852 -0.00108694 0)
(0.840731 0.000237248 6.98406e-21)
(1.01141 -0.000712213 6.21422e-23)
(1.00688 0.000213179 9.64158e-23)
(0.335302 -0.0094217 -7.06551e-21)
(0.325661 -0.0126734 0)
(0.350631 -0.0085739 3.29916e-21)
(1.00784 -0.000935061 -4.82661e-23)
(0.0700421 -0.0754291 0)
(1.02856 -0.0433349 0)
(1.01288 -0.0923494 0)
(0.718123 -0.0561389 0)
(1.02126 -0.00134019 0)
(1.02637 -0.104747 -8.04033e-22)
(1.07513 -0.0756416 0)
(1.02126 -0.00125118 0)
(0.591911 0.00766209 2.45837e-21)
(1.0253 -0.00522587 9.91889e-22)
(0.00217779 -0.0395384 -5.93408e-21)
(1.06927 -0.0675697 -2.26683e-21)
(1.0212 -0.000491324 1.49531e-23)
(1.02977 -0.053931 0)
(1.01567 0.00416769 5.1208e-22)
(1.0078 -0.000915674 0)
(1.01899 -0.0124911 -3.36932e-22)
(0.993774 -0.0846342 -1.90973e-22)
(0.301421 0.0736255 6.16267e-22)
(1.04324 -0.0462346 1.4551e-21)
(1.07965 -0.0508195 0)
(0.884845 0.113182 0)
(1.01873 -0.0126291 2.44294e-22)
(-0.0216297 -0.166979 0)
(1.01631 -0.00893134 -1.03899e-22)
(-0.00287794 -0.0346133 -8.5558e-21)
(1.08006 -0.0499416 0)
(0.511047 -0.0374881 1.24625e-20)
(0.495382 -0.0363214 0)
(1.08322 -0.0525382 -8.01356e-22)
(1.01633 -0.00885354 0)
(1.01194 -0.00359161 3.08589e-22)
(0.902587 -0.0578951 0)
(1.07413 -0.0563886 -7.56866e-21)
(0.424695 0.00607866 -3.23009e-21)
(1.05379 -0.0397887 -3.99287e-21)
(0.857518 0.0915287 1.1567e-21)
(1.05384 -0.0390506 4.13738e-21)
(1.03907 -0.0173422 -2.71794e-21)
(1.0106 -0.000388105 6.54912e-23)
(1.02057 -0.113265 1.31079e-22)
(1.03562 -0.00297147 -4.68484e-21)
(0.667028 0.0455977 1.9589e-21)
(1.01595 -0.00762365 0)
(1.0443 -0.0596216 0)
(1.03667 -0.00606266 -2.19259e-21)
(1.01898 -0.0126485 -3.13753e-22)
(1.03798 -0.0487703 6.84792e-22)
(1.01289 0.000114158 -5.65111e-23)
(1.02512 0.0128871 0)
(1.01456 0.0037321 -7.51939e-22)
(1.07494 -0.0597336 1.63352e-20)
(0.895149 0.121595 -1.57083e-21)
(1.01259 -0.00415898 1.15033e-23)
(0.971867 0.0417548 3.14484e-21)
(1.01134 -0.00318084 0)
(1.0123 -0.00136004 -9.68112e-22)
(1.03884 -0.0175813 0)
(1.04909 -0.0346846 7.40768e-21)
(0.388221 0.0621899 -1.36915e-21)
(1.00597 -0.050221 1.43819e-22)
(1.08104 -0.0539504 0)
(1.01006 -8.99617e-05 -6.80683e-23)
(0.999967 -1.78481e-05 -2.02104e-22)
(1.00603 -5.89288e-05 0)
(0.887187 0.113521 1.71816e-21)
(1.06838 -0.0679452 5.38387e-21)
(1.0887 -0.0494935 7.06871e-21)
(0.436502 -0.00960291 0)
(0.521804 -0.0405314 4.11639e-21)
(1.08053 -0.049767 -8.02616e-21)
(1.0125 -0.00407696 0)
(1.00623 -0.00028437 0)
(0.89749 0.112349 -1.46181e-21)
(1.00904 -0.000369674 1.10595e-21)
(0.488051 -0.0343717 6.95404e-21)
(0.493061 -0.0355323 -3.71021e-23)
(1.03827 -0.0264555 2.98376e-21)
(1.01157 0.00850799 3.36761e-22)
(1.07589 -0.0642272 -8.43073e-21)
(1.01419 0.000573227 8.17959e-23)
(1.00121 -4.78568e-06 6.34241e-23)
(1.08296 -0.0522028 6.02125e-22)
(1.01396 -0.0127318 6.85308e-22)
(1.07468 -0.075004 -5.53718e-21)
(1.02215 -0.0176151 0)
(0.323622 0.00949455 9.12525e-21)
(1.00795 -0.000431467 -5.4983e-22)
(1.00014 -7.89948e-07 1.90252e-24)
(1.04933 -0.0343117 -5.20737e-21)
(0.894674 0.105285 2.73588e-22)
(1.02838 -0.0550759 -3.57062e-22)
(0.897397 -0.0859574 1.38968e-20)
(1.02739 -0.0584191 -1.61646e-22)
(1.01831 -0.00519675 6.0558e-23)
(1.02469 -0.000687136 0)
(0.51792 -0.0407399 5.58584e-23)
(0.229658 -0.00141275 -7.24204e-21)
(0.670229 -0.050375 4.25903e-21)
(0.898933 0.108848 -1.82697e-21)
(0.959478 -0.0665201 -6.32567e-22)
(0.356258 -0.00376008 9.7976e-21)
(1.07531 -0.0645377 -7.17813e-21)
(1.02779 -0.00495591 1.28457e-21)
(1.02659 -0.00967301 1.75811e-21)
(0.399277 -0.0130954 3.97908e-22)
(1.01158 -0.000594816 1.26712e-22)
(1.05233 0.00745044 0)
(0.919407 0.0937815 2.69581e-21)
(0.484801 -0.0332456 -8.99824e-21)
(1.00959 -0.000146343 -1.40607e-22)
(1.00941 -0.000148163 1.91881e-22)
(1.01672 -0.00778356 4.65555e-22)
(-0.00858054 -0.0116282 3.31101e-22)
(1.08863 -0.0678286 2.35983e-21)
(1.01362 0.000324067 0)
(1.0437 -0.0354141 -4.36553e-21)
(1.03089 -0.00205768 1.38086e-22)
(0.5609 -0.0392083 2.52182e-21)
(0.977643 -0.0710172 -4.60144e-22)
(1.02132 -8.5018e-05 -6.73769e-22)
(1.01034 -3.24669e-05 6.50205e-23)
(1.01023 0.000146212 1.30786e-22)
(1.03743 -0.0488538 -1.29194e-21)
(1.02448 -0.00228192 -1.62949e-21)
(1.01222 0.00147904 1.32906e-22)
(0.359491 -0.0100188 -8.95363e-21)
(0.958512 0.0254614 -3.52756e-21)
(1.01488 -0.00249523 2.07768e-22)
(1.08009 -0.0506775 0)
(1.0095 0.000578009 6.26163e-24)
(0.939186 -0.0915924 0)
(1.00711 0.000173814 -4.8172e-23)
(1.01457 0.00148928 -1.04437e-23)
(-0.0144415 -0.165324 0)
(0.208535 0.00558952 -3.09599e-21)
(1.01393 -0.00352005 -1.82951e-22)
(0.98922 -0.0449383 0)
(1.0386 -0.0186557 0)
(0.904504 -0.0181265 -2.06425e-22)
(0.964625 0.0265186 3.31774e-21)
(1.01106 -0.000428212 0)
(1.0188 -0.0219775 -8.5385e-23)
(0.874148 -0.159274 1.22443e-21)
(1.01682 -0.0102367 0)
(0.366494 0.00354059 -9.38265e-21)
(1.0735 -0.0351938 4.16074e-21)
(1.01183 -0.00353056 1.48165e-22)
(1.03866 -0.0182507 5.88675e-22)
(1.07257 -0.0368452 0)
(1.05203 -0.0387626 6.98272e-21)
(0.354062 0.00298694 -2.79288e-21)
(0.955925 -0.0741675 -2.45635e-22)
(0.859059 -0.0862023 8.09131e-21)
(1.01335 1.50167e-05 1.59992e-22)
(1.0839 -0.0360771 -2.61338e-21)
(1.00742 0.000165169 -4.77262e-23)
(1.01062 -0.000302874 1.87716e-22)
(1.02392 0.00694625 6.60399e-23)
(1.01125 -0.00272302 0)
(1.00768 -0.000820933 6.87055e-23)
(0.746041 -0.0167454 -1.77801e-21)
(0.261257 -0.00516577 -5.88873e-21)
(1.01139 -0.00322592 -2.2242e-22)
(0.867293 -0.160486 -4.87278e-22)
(0.317416 -0.0108794 8.03598e-21)
(-0.00391622 0.0959717 -1.06735e-22)
(0.377919 -0.151464 0)
(1.07392 -0.0558599 1.89424e-20)
(1.04904 -0.0921453 5.09046e-21)
(1.01522 -0.000673153 -2.17941e-22)
(0.869297 -0.174474 9.95254e-22)
(1.00989 -0.000184184 0)
(1.00976 -0.00201685 0)
(1.0097 -0.000187644 -6.78202e-23)
(1.04366 -0.0432906 0)
(-0.0261884 -0.110031 0)
(0.231513 0.0486625 7.12583e-21)
(1.03284 -0.0072763 0)
(0.610053 -0.0316451 9.33739e-22)
(1.01988 -0.0109286 1.6259e-22)
(1.02656 -0.00170561 -6.81943e-22)
(1.01612 -0.00324555 1.48867e-22)
(1.02143 -0.0080961 1.20866e-21)
(1.08016 -0.0457635 -3.45631e-21)
(1.01175 -0.00346876 -3.01436e-22)
(0.213424 -0.0010259 1.16373e-20)
(1.0261 0.0114571 -3.81859e-23)
(1.01064 -0.000375855 -1.36927e-22)
(1.01028 -0.00244862 1.76567e-22)
(1.0116 -7.2391e-05 0)
(1.02551 -0.00543437 -2.00015e-21)
(0.825735 -0.122209 -2.50215e-21)
(1.01389 0.0012969 0)
(1.02142 -0.000986577 -2.70199e-21)
(1.01058 -0.00189307 -2.12229e-24)
(0.549377 -0.0150238 0)
(0.340645 0.0385049 -5.09567e-22)
(0.659292 0.0882355 5.91457e-22)
(0.9137 -0.0582989 7.89474e-22)
(0.328973 -0.00399607 0)
(-0.00866402 -0.0132542 1.52142e-20)
(1.00789 1.63502e-05 2.72356e-23)
(0.434554 -0.152525 8.71412e-21)
(0.914149 -0.0585336 6.24416e-21)
(0.851878 -0.10117 -6.99178e-21)
(1.01187 -0.00305796 0)
(0.267476 0.00852936 1.41964e-20)
(1.01207 -0.000155179 -8.0853e-23)
(1.01356 0.000280892 0)
(1.01017 -0.000286175 0)
(0.401669 -0.0500927 1.08903e-22)
(0.827109 -0.117666 2.96912e-21)
(1.00059 -7.02727e-06 -1.03894e-23)
(1.01619 -0.00286042 -2.52102e-22)
(1.0101 0.000154991 -2.11537e-22)
(1.08037 -0.0697497 1.4422e-20)
(1.04293 -0.0486202 0)
(1.02123 -0.000405792 0)
(1.06891 -0.0522447 -7.7422e-22)
(1.01463 -0.005758 -7.70313e-22)
(-0.0348017 -0.0221628 -1.71167e-20)
(0.898413 -0.0594832 3.89864e-21)
(1.08955 -0.0504607 -1.18264e-20)
(1.02143 -0.00106181 -8.11989e-22)
(0.907512 0.116846 -1.81489e-21)
(1.03261 -0.019013 1.50271e-21)
(1.01954 -0.0106447 1.28834e-21)
(1.01816 -0.00521847 1.88313e-21)
(1.01033 -0.00249242 -1.72359e-22)
(0.664965 0.0980642 -1.42493e-21)
(1.01043 -0.000251376 1.94423e-22)
(1.01866 -0.00329364 5.01453e-22)
(1.02101 -0.00314847 1.87587e-22)
(1.01454 0.00128692 2.1114e-23)
(1.02389 -0.0048718 -1.79711e-21)
(-0.0782231 0.0167336 -1.66361e-20)
(1.02979 -0.00330375 6.10275e-23)
(1.02158 -0.000865159 -4.08172e-21)
(-0.0530616 0.0486635 -1.32143e-20)
(1.02513 -0.0297698 0)
(1.01457 0.00168674 0)
(1.08783 -0.0577869 1.00801e-20)
(1.02109 -0.000353514 2.40325e-21)
(1.01974 -0.010912 -1.4365e-21)
(0.134039 0.0226151 -3.21159e-21)
(1.0436 -0.03509 0)
(1.00254 -0.0468134 -2.22964e-22)
(0.558738 -0.090173 -1.93107e-21)
(0.984614 -0.0466514 7.36378e-24)
(1.03242 -0.00897957 0)
(1.04297 -0.0549216 -1.89435e-21)
(-0.0953577 -0.0103037 0)
(0.287116 0.00897691 -9.55442e-21)
(1.02875 -0.00815461 -1.78854e-22)
(1.0145 0.00159165 -5.62637e-24)
(1.01608 -0.0147774 0)
(0.164891 0.0356941 6.30645e-21)
(1.00342 3.1601e-05 9.10153e-23)
(0.686268 -0.0517781 0)
(-0.0787791 0.0197672 3.33816e-21)
(1.00948 0.00013748 0)
(1.00748 -0.000329626 9.17702e-22)
(-0.0544998 0.0482952 4.03093e-23)
(0.815116 -0.0549556 9.02101e-22)
(0.838911 -0.00921027 -1.90177e-21)
(0.12533 -0.0101085 6.46925e-21)
(1.00039 8.00963e-06 -9.03113e-24)
(0.412786 0.0608741 -4.23584e-21)
(1.01022 -1.41478e-05 1.27141e-22)
(1.04396 -0.00782218 7.86695e-22)
(1.02147 -0.0083098 -3.65905e-21)
(1.01906 -0.00572612 -2.03655e-21)
(1.00984 -0.000448799 0)
(0.654641 -0.0469785 0)
(0.996205 -0.0489623 1.0508e-22)
(0.969945 -0.0265119 0)
(1.08671 -0.0678162 1.33094e-22)
(0.457568 -0.138055 -6.5794e-21)
(1.08857 -0.0491032 0)
(0.981859 -0.0420443 5.03014e-22)
(1.02907 -0.0518737 -1.94558e-21)
(0.271529 -0.00959613 -1.98769e-20)
(1.01882 -0.00338703 -1.07774e-21)
(0.371174 0.00561163 -3.19954e-21)
(1.01439 -0.00557293 1.01134e-22)
(0.436931 0.00343573 3.08541e-21)
(0.594806 0.0706715 7.14877e-22)
(0.729791 -0.0580557 3.87056e-21)
(1.00978 0.000148084 0)
(0.313964 -0.001771 1.03865e-20)
(0.993086 -0.0449456 0)
(1.04198 -0.0376111 2.80017e-21)
(1.02498 -0.0168653 0)
(1.02407 -0.00499021 -1.81243e-21)
(0.493655 -0.0368105 0)
(1.02137 -0.00630889 6.18179e-22)
(1.06238 -0.0593604 6.87482e-21)
(0.883768 -0.0730835 1.78047e-21)
(1.00065 2.31292e-05 0)
(1.00733 0.000168303 -1.14745e-23)
(0.366694 0.0576961 1.14891e-22)
(1.00392 4.70838e-05 0)
(0.9444 -0.027685 0)
(1.01096 -0.00292766 -4.01355e-22)
(1.02093 -0.000143366 -1.23566e-21)
(1.01612 -0.00768297 0)
(1.02484 -0.0165349 0)
(1.05904 -0.0454798 -2.09601e-22)
(0.190355 -0.000991306 -9.66319e-21)
(1.02251 0.00661344 -3.53755e-23)
(1.03481 -0.0312281 1.65057e-21)
(1.0194 -0.0106118 0)
(0.95194 -0.089666 0)
(0.404887 -0.00383874 0)
(1.06779 -0.0532268 0)
(1.01007 -3.81658e-05 5.45345e-23)
(1.02677 -0.0130481 -3.33937e-21)
(1.05864 0.00711886 -2.84717e-22)
(1.02392 -0.00115738 2.80542e-24)
(1.00139 1.82139e-05 -4.15572e-23)
(0.460029 -0.0198885 1.57342e-21)
(0.420271 0.0200368 8.14315e-21)
(1.00743 7.96083e-05 8.54462e-23)
(1.08334 -0.0627808 2.21131e-20)
(1.04317 -0.0481009 0)
(1.01093 -0.000464314 -7.44788e-23)
(1.00682 -0.000289386 -3.97079e-23)
(1.01152 -0.000922602 1.54626e-22)
(0.340051 0.0749451 1.26432e-23)
(0.97234 -0.0110831 1.33166e-21)
(1.02159 -0.000949799 4.21653e-21)
(1.08316 -0.036134 0)
(0.936605 0.0816102 5.98292e-22)
(1.01149 -0.00329809 3.97731e-22)
(0.505811 -0.0374059 -4.15953e-21)
(1.00667 -0.00025571 -1.61182e-23)
(1.01935 -0.0156448 0)
(1.01247 0.000264613 0)
(1.01363 -0.0122029 0)
(1.00733 -1.58539e-05 7.46239e-23)
(0.983212 -0.00424152 -6.18095e-22)
(0.296109 0.0702402 4.51148e-22)
(1.01405 -0.00360187 8.02854e-22)
(0.393198 0.0469001 4.60274e-21)
(1.01103 -0.00296778 4.0681e-22)
(0.98659 -0.0454923 0)
(1.02514 -0.0291842 0)
(1.0265 -0.0129576 2.10907e-21)
(1.01876 0.0166942 -1.98732e-22)
(1.02109 -0.000266987 -1.21346e-21)
(1.00916 -0.000128053 0)
(1.00946 -0.000169174 1.95703e-22)
(1.07109 -0.0356076 9.76581e-21)
(-0.00822602 0.0809093 -5.90341e-21)
(1.01155 -0.000941401 0)
(0.286686 -0.00611201 0)
(0.18318 0.000432833 0)
(0.433843 -0.00579224 -1.02067e-20)
(1.03273 -0.0186807 0)
(1.0356 -0.00634453 0)
(1.00162 1.93469e-05 4.32262e-23)
(1.01103 -0.000559405 -3.30965e-23)
(1.00029 3.03063e-06 -1.98308e-22)
(1.04242 -0.0544039 -1.9328e-21)
(0.864073 -0.157437 0)
(0.588819 -0.0462505 2.32526e-21)
(1.01284 0.000267114 1.46117e-22)
(-0.0089466 -0.107514 -2.97473e-21)
(1.01124 -0.000641993 -3.55189e-24)
(0.984142 -0.041291 0)
(1.00996 -5.12938e-05 -7.55001e-23)
(0.564501 -0.0855999 0)
(1.00674 -0.000268266 -6.63264e-23)
(0.3925 -0.0111378 -7.38212e-21)
(1.00809 -0.000108468 1.78421e-22)
(0.3903 0.00318262 0)
(1.06799 -0.0255359 1.2144e-20)
(0.475082 -0.0330159 0)
(1.01115 -0.00304904 -1.66693e-22)
(1.01297 0.000198944 0)
(1.01513 -0.00170958 -1.52393e-22)
(1.06826 -0.0519942 1.33168e-21)
(1.03064 -0.0275696 0)
(0.581503 -0.0378231 0)
(1.00621 0.00014109 2.73517e-23)
(1.02141 7.15391e-05 -2.66911e-21)
(1.03166 -0.0161565 -2.96005e-21)
(1.01613 -0.00760903 -1.15938e-23)
(0.80818 -0.054855 0)
(1.01591 -0.00272509 -1.15817e-22)
(1.01913 -0.0153959 2.35325e-23)
(0.193053 -0.0218918 8.51544e-21)
(0.390629 -0.0114111 0)
(1.01241 0.000303953 -1.79443e-22)
(0.307559 -0.00167699 7.70662e-21)
(1.0871 -0.0685644 -5.36134e-21)
(0.692343 0.103409 1.54399e-21)
(0.264938 -0.00170796 0)
(1.0362 -0.00605962 0)
(0.963058 0.00688022 1.31007e-22)
(0.504282 -0.0388229 -1.24058e-20)
(0.192936 0.0343241 3.99957e-21)
(1.00635 -0.000185566 4.30366e-23)
(0.415332 -0.0613246 1.77389e-21)
(1.00679 0.000205837 -6.22871e-23)
(1.00766 -2.24406e-05 1.2256e-22)
(0.404558 -0.0151266 -3.0067e-21)
(1.08914 -0.0615564 -8.30816e-21)
(0.8286 -0.0555662 0)
(0.0114371 0.0438157 0)
(0.987049 -0.0888306 1.19127e-22)
(1.01017 -0.00237175 8.76408e-23)
(1.05562 -0.0488658 4.75417e-21)
(0.638392 0.00456789 7.8889e-22)
(0.654193 -0.0415588 0)
(0.27903 -0.00341697 0)
(1.01431 0.000619222 7.48684e-23)
(1.01453 -0.00570499 -1.06895e-22)
(1.08728 -0.056544 2.59544e-20)
(1.01923 -0.010379 3.88897e-22)
(1.00755 -4.75841e-05 0)
(1.01835 -0.00324257 0)
(1.02495 -0.0163499 0)
(1.00865 -0.00121262 0)
(0.41162 -0.00476082 -1.16864e-21)
(1.00669 7.29721e-05 -2.22508e-22)
(0.981263 -0.00258178 7.09963e-22)
(1.01384 -0.00353118 0)
(1.08384 -0.0628264 -1.69627e-20)
(1.00448 -0.000229898 0)
(-0.126576 -0.092653 1.0543e-20)
(0.858358 -0.160014 1.83613e-22)
(0.976694 -0.0707454 1.10324e-20)
(0.951248 0.0629121 -1.5483e-21)
(1.0116 0.000251463 0)
(1.01672 -0.010302 0)
(1.01154 -0.000830378 1.68072e-22)
(1.04256 -0.0376204 -3.22873e-21)
(1.05936 -0.0200224 0)
(1.01477 -0.00589029 1.21184e-21)
(0.436273 -0.133872 0)
(0.965042 0.0110767 -6.93553e-22)
(1.01012 -0.00174764 -3.40211e-23)
(1.07233 -0.0275866 -3.58475e-21)
(0.41427 -0.00470321 -1.57208e-21)
(1.02415 -0.0018843 3.54059e-21)
(0.966683 -0.0667004 0)
(0.980547 -0.0710768 -1.25554e-21)
(0.423338 -0.0100716 1.75377e-21)
(1.01149 -0.00081631 -4.02341e-23)
(1.03852 -0.0498356 -2.66525e-21)
(1.01131 -3.06958e-05 -7.54824e-23)
(1.02455 -0.00520679 1.80728e-21)
(0.990644 -0.0697275 -1.20258e-20)
(1.01018 -2.06109e-05 0)
(1.00846 0.00017869 5.29963e-23)
(1.02242 -0.0101001 -2.65898e-21)
(1.08795 -0.0579493 -1.03811e-20)
(1.01444 -0.00239726 -1.08269e-22)
(1.01636 -0.0089989 -6.30397e-24)
(0.445648 -0.0926871 0)
(1.0235 -0.00430687 3.26925e-21)
(1.08267 -0.0353181 0)
(1.02111 -0.0137896 7.2002e-22)
(1.0152 -0.00228477 2.54818e-22)
(-0.0316034 -0.0223223 1.26641e-20)
(1.03129 -0.0618205 1.08378e-21)
(0.598226 0.0602234 -8.08009e-22)
(1.0191 -0.0103302 -6.28478e-22)
(1.01462 -0.00026434 -1.89001e-21)
(1.02295 -0.0107602 -1.71234e-21)
(1.04425 -0.0074483 -7.28597e-22)
(1.00067 -1.89144e-05 0)
(1.06598 -0.0909008 -5.46868e-21)
(1.01479 -0.0130219 0)
(0.428054 -0.00745418 1.24796e-20)
(0.278086 -0.00392636 0)
(1.0077 0.000305935 5.29001e-23)
(0.440036 -0.139284 4.89916e-21)
(1.01286 -0.0648717 -1.16072e-20)
(1.03517 -0.00540952 -9.36489e-22)
(1.0102 -0.000273922 0)
(1.04344 -0.0428303 -4.72925e-22)
(1.01439 -0.00238896 2.63261e-22)
(0.900161 0.0371588 3.04e-21)
(1.01585 -0.0144223 -1.95664e-22)
(1.00744 5.81596e-05 -5.49593e-23)
(0.977038 -0.0426186 -3.75339e-23)
(0.876207 -0.100624 6.56911e-21)
(0.399956 -0.0122388 0)
(1.01913 -0.00554187 -3.32979e-22)
(1.06416 -0.0143277 4.43077e-21)
(1.01039 -0.00026414 0)
(1.00722 -0.000355337 3.11427e-22)
(0.307137 0.0580627 1.26755e-20)
(1.01174 0.000375037 5.56829e-23)
(-0.0135275 0.00732147 0)
(1.01322 4.90877e-05 0)
(0.335457 -0.0409346 0)
(1.08581 -0.0467451 8.99428e-21)
(1.00548 -0.000222535 1.66906e-22)
(1.0108 -0.00281041 -1.0385e-22)
(1.03862 -0.0493256 2.0875e-21)
(1.01526 -0.00675889 -8.14995e-22)
(1.07557 -0.073695 9.85902e-21)
(1.01172 -0.000620214 -1.52951e-22)
(0.569943 -0.0369059 -4.11528e-21)
(1.02174 8.61271e-05 -2.89249e-21)
(1.01212 0.000312736 1.93841e-22)
(0.831036 -0.0560682 -7.91575e-21)
(1.01492 -0.00689116 -1.3262e-22)
(1.06732 -0.0256293 -6.0641e-21)
(1.00986 -0.000227114 -6.85752e-23)
(1.02176 -0.00073824 1.29146e-21)
(1.07144 -0.024322 1.01952e-20)
(1.00181 2.78172e-05 1.02436e-23)
(1.02441 -0.0286586 1.44399e-21)
(0.331243 0.0974107 -2.975e-21)
(1.0262 -0.00503291 0)
(0.668001 0.012334 -3.56796e-22)
(1.04347 -0.0564695 4.39736e-21)
(1.01433 -9.86513e-05 -8.6947e-26)
(1.01646 -0.00770595 9.71419e-22)
(0.492897 -0.0278087 0)
(0.396074 0.00660679 0)
(1.02202 -0.0167106 0)
(0.526339 -0.0391795 -1.26558e-20)
(0.242843 -0.00293246 2.45753e-21)
(1.01933 -0.00574925 -4.87318e-22)
(1.03041 -0.0455607 -3.90381e-22)
(1.02029 -0.0128789 -3.11495e-22)
(1.01046 0.000684965 0)
(1.01065 7.79929e-05 1.35921e-22)
(0.00405362 -0.098134 0)
(1.0203 -0.00301462 -1.02641e-22)
(1.04793 -0.00929292 -3.62501e-21)
(0.641712 -0.0300455 0)
(1.03249 -0.0366835 -3.72353e-22)
(0.565715 -0.114919 -2.11745e-21)
(0.412283 0.00488195 3.60313e-21)
(0.560693 -0.108142 2.25822e-21)
(1.0454 -0.0322879 -3.84999e-21)
(1.02177 -0.000834287 5.28011e-21)
(1.07489 -0.0590914 -7.01918e-23)
(1.02325 -0.0180778 0)
(1.00796 -0.0641826 0)
(1.08944 -0.0509484 -9.0078e-22)
(1.02476 -0.016025 0)
(0.293789 -0.000955847 -9.28229e-21)
(1.01992 -0.00100525 0)
(1.04186 -0.050308 2.97175e-21)
(1.07506 -0.0658582 0)
(1.0185 -0.00334855 -5.5377e-22)
(1.05186 -0.115231 -5.05835e-21)
(1.049 -0.00607485 1.81514e-21)
(1.01286 -0.00143923 0)
(1.05291 -0.0152641 6.67405e-21)
(0.395214 -0.0135691 -3.15474e-21)
(1.05926 -0.0194666 -3.92264e-21)
(1.01085 -0.00284951 1.19474e-22)
(1.017 -0.00437719 -3.25204e-22)
(0.557441 -0.0352187 -2.39146e-21)
(0.969222 -0.0318515 0)
(1.07612 -0.0635508 1.19302e-20)
(1.00766 -0.000809247 -1.88637e-23)
(1.06679 -0.024521 9.03757e-21)
(0.833791 -0.168704 0)
(1.04956 -0.0297326 0)
(1.03895 -0.0194203 0)
(1.01726 -0.00437827 3.26079e-22)
(1.01069 -0.000741602 6.64307e-24)
(0.00299052 -0.113711 0)
(1.06811 -0.0901334 4.82404e-21)
(1.03603 -0.00637414 -3.60245e-21)
(0.403533 -0.0128326 -3.53563e-21)
(0.878574 0.163861 1.91291e-21)
(1.06737 -0.0535919 -4.52434e-21)
(1.01891 -0.0289152 -5.88699e-22)
(0.518411 -0.035798 1.45467e-20)
(1.07955 -0.0524801 0)
(1.03704 -0.0652879 5.67498e-21)
(0.000592084 -0.0284184 8.81993e-21)
(1.03092 -0.0166852 3.58212e-21)
(1.0628 -0.0188549 0)
(0.354989 0.00362844 1.5372e-20)
(0.656485 -0.117896 2.96966e-21)
(1.0282 -0.0169041 0)
(0.673935 -0.04793 -7.69931e-21)
(0.431203 -0.0115866 0)
(1.01521 -0.00015666 -1.03001e-21)
(0.0327517 0.0634958 2.87059e-20)
(1.0147 -0.00670713 4.34218e-22)
(1.0428 -0.0559843 -1.19516e-21)
(1.01545 -0.0069869 -6.87381e-22)
(1.00308 5.74985e-05 2.48251e-23)
(1.01179 -0.00303093 0)
(0.101345 0.0160196 6.69977e-21)
(0.169902 -0.175359 -2.11086e-22)
(0.279726 0.0878004 1.2273e-22)
(0.0754219 -0.0174735 -7.36163e-21)
(1.02056 -0.013066 0)
(0.293158 -0.00685984 1.08818e-21)
(0.568231 0.00354166 0)
(1.00674 -0.000276049 1.43542e-24)
(0.930553 0.0362119 1.47024e-22)
(0.327957 -0.00395261 0)
(0.87958 0.160696 -1.77675e-21)
(0.0977435 0.0177606 0)
(1.01086 -0.000440128 3.35828e-23)
(0.0275978 -0.109234 -4.52563e-21)
(1.01229 -0.0014625 1.3538e-23)
(1.01104 -0.000444346 0)
(1.01586 -0.00746957 -2.67623e-22)
(0.923219 -0.076688 1.98841e-21)
(1.01531 -0.00174198 0)
(1.00382 5.58071e-05 0)
(1.03202 -0.0169005 -5.77439e-22)
(1.00223 3.95778e-05 -7.86697e-23)
(1.02553 -0.00948707 1.78489e-21)
(1.02119 -0.00794771 0)
(1.0204 -0.0189314 9.21408e-23)
(-0.0109571 -0.00778361 -6.43016e-21)
(1.08405 -0.0574774 1.0937e-21)
(1.03683 -0.0322855 0)
(1.06436 0.0125476 0)
(0.424547 0.111218 0)
(1.00952 -0.000518541 -4.02256e-22)
(1.08283 -0.034884 0)
(1.01871 -0.00560674 5.76677e-22)
(1.00597 -3.79852e-05 0)
(0.25007 0.105882 -9.2032e-23)
(1.00927 -0.00138008 -3.48655e-23)
(1.00402 0.00279416 5.072e-22)
(1.001 1.47203e-05 -1.05557e-23)
(1.0639 -0.0573065 -4.83692e-21)
(1.02447 -0.0280886 -1.42411e-21)
(0.0643088 0.00274137 1.1666e-20)
(1.04109 -0.00313479 2.95125e-21)
(0.549675 -0.0367943 7.98911e-21)
(1.02195 -0.000700732 -4.47279e-21)
(0.337662 0.0875139 0)
(1.02369 -0.00441682 -2.13892e-21)
(0.168335 -0.0183341 0)
(1.0065 -0.000288588 5.87618e-22)
(0.935157 0.000639631 0)
(1.05055 -0.122921 2.78167e-21)
(1.08532 -0.0466908 -2.21713e-20)
(0.419625 -0.0901617 0)
(1.00844 -0.00101879 7.65148e-23)
(1.02803 -0.0166876 -1.90447e-21)
(0.970803 -0.0727582 0)
(1.01162 -5.80065e-05 0)
(0.522748 -0.0143869 -3.22847e-22)
(1.01633 -0.00754461 -9.10737e-22)
(0.44506 0.00561683 -1.42514e-20)
(1.07576 -0.0630672 1.45162e-20)
(0.542283 -0.0327954 -9.84179e-21)
(-0.0460178 0.0523269 2.35762e-20)
(1.07509 -0.0730508 -2.65785e-21)
(1.01593 -0.00375176 8.63624e-22)
(1.01263 -0.00327395 -1.01587e-21)
(1.05067 -0.0512309 -7.73355e-21)
(1.07538 -0.071182 2.99825e-21)
(0.532202 -0.0309443 -1.0438e-20)
(0.420563 -0.0152999 -1.03427e-20)
(1.00141 1.37064e-05 -7.9798e-23)
(1.01213 -0.000166503 9.64045e-23)
(0.816164 -0.0677183 1.98559e-21)
(1.00835 -0.000485303 0)
(1.02124 -0.00755098 -1.56467e-21)
(1.01 -0.000232106 -1.35876e-22)
(1.00391 -0.0630252 -4.72575e-22)
(1.08073 -0.0543116 1.12434e-20)
(0.331137 0.137177 -1.09118e-21)
(0.531529 -0.0313283 -1.42255e-21)
(1.04841 -0.00606623 0)
(0.277755 -0.00418548 0)
(0.307609 -0.00179411 1.08492e-20)
(1.07168 -0.027557 0)
(0.458939 0.0691954 0)
(1.01876 -0.0135428 2.69983e-22)
(1.01125 -0.000549748 0)
(1.01601 -0.0037153 -1.90084e-21)
(1.02628 -0.00949093 -3.70421e-21)
(0.255705 0.103151 -5.63293e-23)
(1.03765 -0.0265062 1.02887e-21)
(1.01317 -4.31719e-05 0)
(1.04242 -0.0242432 4.29332e-21)
(0.106222 -0.0751341 0)
(0.968148 -0.0314005 7.06277e-22)
(1.01123 -0.000544805 -1.00313e-22)
(1.00635 -0.000190168 -3.76337e-23)
(0.623883 0.0864676 -7.69454e-22)
(1.01216 0.00091433 -7.84472e-24)
(1.00604 -5.44148e-05 -9.96392e-23)
(1.01141 -0.000552942 0)
(0.408605 -0.00574575 9.15818e-21)
(1.00936 -0.000155398 -1.96917e-22)
(1.00604 0.00631655 -3.79285e-22)
(1.01066 -0.000464284 -6.11174e-23)
(1.00948 0.000577661 -1.00669e-24)
(1.05154 -0.0618091 3.59184e-21)
(1.01465 -0.00252678 0)
(0.409681 -0.00536886 0)
(0.797264 -0.0641596 -4.25069e-21)
(1.00549 -0.0866683 -7.29732e-21)
(0.534986 -0.0144135 0)
(0.0458285 -0.112908 5.45671e-21)
(0.796612 -0.063236 -9.07423e-23)
(1.01123 -0.000556188 -3.25255e-23)
(1.00994 -0.000175097 0)
(1.01363 -0.00353034 0)
(1.00963 -0.000137934 0)
(1.02435 -0.00199402 -1.74669e-21)
(1.00352 -0.0176335 1.47859e-21)
(0.886131 -0.0398144 0)
(1.02115 -0.00618923 0)
(0.366278 0.0486417 1.68512e-21)
(1.07555 -0.0653783 5.09427e-21)
(1.03462 -0.0198086 -3.18122e-21)
(1.0533 -0.038628 0)
(0.845499 -0.139972 3.67021e-22)
(1.0145 -7.3331e-05 -2.48846e-22)
(1.01195 0.000330746 0)
(1.01617 -0.00729746 4.07899e-22)
(1.01109 -0.000488916 0)
(0.612542 -0.0779705 -1.52875e-22)
(0.347767 0.0841629 2.32383e-21)
(0.906057 -0.0583349 6.98699e-21)
(1.08414 -0.0572755 0)
(1.01631 -0.0074551 -9.29501e-22)
(1.01392 -0.000491173 -2.05092e-21)
(1.04892 -0.00984921 -3.4749e-21)
(1.01116 -0.000679529 1.50764e-22)
(0.342249 0.046126 -9.09567e-22)
(1.00801 -9.31374e-05 5.72786e-23)
(0.840785 -0.143363 -6.03316e-22)
(1.0853 -0.0687332 -4.45574e-21)
(1.00941 -0.000559762 5.82025e-22)
(0.424045 -0.147982 -6.77287e-22)
(1.00778 -0.000871017 0)