/*--------------------------------*- C++ -*----------------------------------*\
| =========                 |                                                 |
| \\      /  F ield         | OpenFOAM: The Open Source CFD Toolbox           |
|  \\    /   O peration     | Version:  v2012                                 |
|   \\  /    A nd           | Website:  www.openfoam.com                      |
|    \\/     M anipulation  |                                                 |
\*---------------------------------------------------------------------------*/
FoamFile
{
    version     2.0;
    format      ascii;
    class       volScalarField;
    location    "400";
    object      ddt0(omega);
}
// * * * * * * * * * * * * * * * * * * * * * * * * * * * * * * * * * * * * * //

dimensions      [0 0 -2 0 0 0 0];


internalField   nonuniform List<scalar> 
13917
(
-9.65786e-05
6.21174e-07
-0.0313197
5.3591e-06
1.05876e-07
0.00488952
-0.0330676
-0.0307077
0.00301749
-0.0003354
-0.000771347
5.97213e-05
5.62812e-06
-0.027375
8.79225e-06
-3.88666e-06
1.51547e-06
-7.31525e-05
9.00771e-05
1.15929e-07
-5.25516e-08
-0.0314928
2.58624e-07
-0.0195407
-8.7295e-07
-0.0124422
-0.004191
4.67902e-05
0.0231856
0.00180475
7.65656e-05
-8.58663e-06
-4.70547e-05
7.62897e-06
-8.43629e-07
0.114339
2.61085e-07
-0.00690604
1.32701e-05
-0.0119976
2.98117e-08
-1.79228e-08
-1.27835e-07
0.000185563
-1.06571e-06
-6.58675e-05
-8.92488e-05
-0.000307901
0.000616324
5.54439e-08
-6.13517e-05
6.89849e-07
0.00214964
1.40646e-05
1.71442e-06
-3.11583e-06
-0.000968018
8.27225e-07
8.8721e-07
-1.01348e-06
-0.0329694
1.37303e-07
-0.200335
7.50237e-08
0.00904929
0.000963658
-3.86118e-08
1.21765e-07
-0.000844905
-8.01754e-05
2.04009e-07
0.00554459
-0.0140514
-8.7701e-07
0.000112448
0.000107714
-0.0129783
-7.42829e-07
0.0109789
-7.36546e-08
-4.50415e-08
-4.2743e-08
0.0275519
-0.0148625
-0.00445602
-3.24848e-07
2.77513e-08
-0.259803
-2.99196e-05
-8.04054e-08
-0.0131194
0.00127647
1.54503e-07
4.30192e-06
-0.193377
0.0138323
-0.000450892
-0.000197246
-0.000365553
-0.0333421
9.34725e-08
-0.00010847
-6.62068e-05
7.81847e-07
2.95122e-07
0.0206049
-0.00238231
-0.000366035
1.11773e-06
-8.69259e-05
0.00216988
-0.0213755
-6.74642e-05
0.0174276
5.26215e-07
-0.00357026
-5.05125e-07
0.000252919
0.00282399
3.91904e-05
-3.35901e-08
-0.000783316
0.000698805
-0.000465679
8.91829e-08
4.66216e-06
-1.24654e-06
1.09504e-07
-2.33389e-07
0.0324502
4.30205e-05
1.41357e-07
-1.18579e-06
-3.96316e-08
-0.0687192
-0.0182945
-7.28231e-05
-0.0109584
-2.08374e-08
1.65475e-05
0.0242507
-3.01107e-07
1.8242e-06
0.00152353
2.0708e-07
0.0137279
0.00637386
2.88735e-07
-2.00113e-07
-1.11429e-05
-0.000195288
-6.11868e-06
-0.000270117
-2.00446e-05
-6.40126e-06
-0.00905994
-0.00028341
0.0560941
-0.0446381
-0.0144151
-3.10371e-07
-0.00321954
-7.34661e-08
-0.000261334
-0.00017234
-0.000345515
6.14855e-07
-0.000222645
-8.7318e-07
-0.000474838
-0.000177552
0.0158681
1.0403e-05
4.49215e-07
0.00832548
0.000491543
-0.00280296
-0.000719506
0.0137267
1.40122e-06
-0.00123418
7.84527e-05
-3.03912e-07
7.56132e-08
-5.81077e-05
-0.0160662
0.00385732
-0.0190386
-1.45945e-05
-0.00044454
0.026745
-0.0129581
0.00113498
3.19394e-07
-0.0510854
-0.00272225
3.90839e-07
1.48693e-07
0.00394494
-2.93699
7.13733e-06
6.18453e-08
-0.000103454
-0.000189253
-0.0170751
-0.0860802
-8.24309e-07
1.2867e-06
-0.000194281
-0.0246068
1.49479e-06
-0.0365762
-0.030664
-0.000461424
3.41224e-07
-0.0599081
-0.000171281
-0.0103762
-7.69138e-07
-0.0300941
1.29806e-06
0.000603309
-3.21601e-09
-0.0134719
0.0236928
-8.59115e-06
0.00349799
-5.85971e-06
3.06107e-07
0.0857828
0.000112852
4.1324e-06
-0.0194073
-0.0488823
1.59124e-07
-8.17485e-06
-0.0151326
0.000504912
-6.8006e-08
-1.95144e-07
-0.0156745
-0.000940607
-1.96942e-10
0.0033958
-0.000406656
-0.00487988
3.9197e-05
-7.23383e-08
-0.000763175
-0.024254
3.17278e-07
8.94123e-05
0.00299705
-1.15805e-06
4.61525e-07
-0.000277819
0.00721438
-0.000285514
6.24529e-05
-1.39426e-06
-8.63232e-10
-0.00957127
0.0259499
0.0280136
3.76032e-07
-0.0153238
0.000880173
0.0471587
0.0136827
7.2904e-05
-5.77152e-08
-4.31857e-09
-0.000152033
-0.00653105
-0.000975338
-1.4828e-06
-0.156922
9.42788e-05
-2.02478e-07
-0.00251698
-9.93808e-08
0.00791085
6.8152e-06
-3.32108e-10
-4.55294e-05
0.000106065
-0.00430567
-0.00380399
6.85405e-05
2.13209e-08
0.0410991
-0.0141175
0.0342967
-7.71207e-07
0.0203368
2.91748e-08
5.85419e-08
-4.16853e-07
-0.0652314
8.64044e-09
-0.0015312
4.92562e-05
-7.90916e-07
-0.000151868
-1.25701e-07
0.00275953
0.00013148
-7.84274e-05
-4.70238e-07
2.41532e-07
0.000862997
-0.0142708
-6.0912e-07
-7.31636e-09
-0.00625336
1.14159e-06
-0.0125017
-4.59175e-07
-0.0187492
1.96236e-06
0.0108422
-1.6473e-05
-0.00160326
2.08636e-07
-0.164174
0.0175525
-5.00725e-05
-0.000931701
0.0021567
3.51889e-06
-0.00592945
0.0168924
0.00411932
9.8515e-05
0.00783237
-9.7525e-06
0.0100654
-0.0808837
0.00487285
-0.00399213
-0.0381732
-6.29012e-08
-3.9024e-05
0.00714153
1.02422e-06
-8.52553e-08
0.0205267
0.00182374
5.80612e-08
0.0132217
0.0232176
-2.83651e-08
0.00726003
0.0525666
8.25872e-07
9.40337e-08
4.67349e-09
-2.52344e-07
0.0912414
0.0109599
0.0385272
0.00566345
-7.87343e-07
0.00219078
0.00304575
-8.41649e-05
-0.0346378
-0.0115062
0.0209863
1.88075e-07
0.016202
8.99205e-08
-0.0550228
-1.07869e-06
-0.00112709
-0.000342302
7.73686e-06
-2.35688e-08
-0.000143663
0.0010076
-0.000342205
0.000965455
0.00895649
0.00865872
0.0002182
-0.000142602
-1.70225e-07
-0.00409552
-0.022871
2.06968e-06
-0.319444
-3.16003e-07
0.00289776
1.91596e-06
-7.8815e-08
-1.79451e-05
0.0360971
-1.23491e-05
0.0117404
-0.0130486
-0.000745254
0.0719627
3.3702e-06
-0.0425495
-0.0288561
-8.48595e-09
0.00045739
1.30032e-06
-7.57685e-07
0.00169588
-4.74681e-09
-1.0188e-06
1.20403e-07
-0.00062957
-7.36513e-08
0.00269995
0.0167696
0.00357696
0.00155027
0.0193698
-0.0170939
-6.87327e-05
-5.70987e-07
0.000721995
1.10677e-05
-9.10405e-06
2.95136e-07
0.0118197
-0.0271824
0.00789994
-1.20937e-06
0.000154049
9.19359e-06
1.41395e-05
-0.000258974
-1.72859e-06
0.027192
5.53655e-07
1.45148e-08
-0.0112536
5.15987e-05
-0.00165738
-0.00075003
0.00243764
-0.0107418
0.00530861
-0.0110514
-2.33329e-07
-0.000155989
-1.04274e-05
1.44072e-06
-0.0618239
-0.000143006
1.81909e-07
0.000111879
-4.29728e-05
-0.00523976
-4.65181e-08
-0.000736013
-0.0172361
0.0019277
0.011504
-6.74671e-08
1.91989e-06
5.29709e-07
-2.03307e-05
2.01959e-07
-0.00998266
0.110297
1.80445e-05
-0.0127282
-4.44431e-06
-0.000258739
0.0128176
-0.00240598
-0.000659145
0.0272496
-0.000994055
-2.58882e-05
-0.000344209
9.32421e-06
-0.000564656
0.00200831
7.45804e-05
-0.000298748
-3.64722e-08
-0.270413
5.99913e-05
-6.8266e-08
-0.000199697
-3.63297e-07
-0.000796522
0.016762
1.09406e-06
-2.14926e-07
-0.0152488
-0.00846835
-9.89161e-10
0.00217931
1.73841e-06
-0.000315622
1.29518e-06
-0.0199384
-0.109337
-1.16452e-05
-1.77855e-06
0.0218797
0.00152939
0.00861248
-3.0869e-09
-0.0279853
0.00143952
-0.00289488
-1.18438e-07
-8.65473e-05
0.0511335
-5.07439e-05
1.00647e-07
2.50381e-06
0.000281561
-0.00579509
1.94147e-07
8.75271e-09
-2.426e-09
-1.13186e-08
-0.0199053
-0.0617233
-5.10788e-05
0.0034107
1.16313e-07
5.80723e-08
0.000264094
0.0229988
-7.22904e-06
-9.00156e-07
-8.18241e-07
-2.57874e-08
-0.00242172
-0.0205669
2.53488e-08
-3.93294e-08
0.00623255
-6.20152e-06
-0.000336247
1.66926e-06
3.12962e-06
-8.72386e-06
-0.000172134
0.000467982
0.00471225
0.000883123
-0.00011428
-0.188639
-0.000192756
-8.36056e-07
-0.0211348
2.9569e-08
-1.07735e-06
4.67909e-06
-0.102524
0.00122187
1.98153e-08
0.00263452
-0.000534901
-0.00121384
-3.46523e-05
0.000714839
-5.49457e-05
1.23138e-08
0.0388803
0.0092828
-0.0423464
1.15688e-06
-4.98073e-06
0.00258603
-0.0139632
0.0466407
-0.00014759
0.000877452
5.07618e-07
-3.51773e-06
1.67016e-06
-0.00228183
0.000571734
3.82329e-08
-0.000187579
0.00236814
-0.0453443
0.00836264
-5.77898e-06
-0.000340533
-0.288065
0.000231606
1.77526e-06
-0.00395876
0.0226723
0.00475579
0.00109638
-2.66664e-07
-0.00966689
0.000190139
7.10001e-08
-7.94644e-06
-0.000332694
-0.000259264
0.00192965
0.00662921
-0.000397234
2.8498e-05
0.0385138
-5.34515e-07
-0.0268222
-7.54069e-08
4.73701e-08
0.0193144
0.0225518
-0.118945
-3.17342e-07
-2.88779e-06
-1.07927e-07
0.000101108
0.000745389
-0.000157673
-1.8473e-07
-0.000384464
-0.000142563
1.34527e-06
-0.503595
-0.000149671
0.0198405
-3.68278e-07
-0.000250267
-3.8696e-07
-0.0228305
-0.00012401
-0.000429656
-7.34617e-06
-1.11476e-07
-2.89711e-07
-1.39077e-06
-0.0014825
-4.98418e-05
0.000663323
-0.00406055
-0.000237526
-5.24502e-08
0.000413748
-0.0726582
0.168294
1.95939e-07
3.01178e-05
-3.86257e-08
2.37049e-05
-3.47299e-07
0.0506475
-8.02246e-08
0.994437
1.91203e-05
-0.000746683
-7.98007e-05
-0.0142052
-0.00112471
2.64017e-06
-0.00548557
-0.0048314
2.36264e-06
4.55056e-06
-0.116016
0.00214371
-0.000792251
-4.62405e-09
-2.1116e-06
0.00283444
8.69428e-06
-0.000266037
-0.000224229
-2.97619e-07
-0.000127261
-0.0317991
3.84727e-07
3.34766e-06
1.91569e-08
-0.00960042
-5.30513e-08
-1.70458e-06
0.0111476
1.57767e-06
0.0200587
-6.41887e-06
9.61767e-05
8.5799e-09
0.000459541
-2.8031e-07
-0.000154963
-7.85518e-08
-0.00256199
1.70819e-06
-0.035417
-0.0150937
0.0255627
6.3857e-07
-4.39599e-08
-0.000171053
7.03172e-05
0.0212109
0.0169587
-2.38099e-05
-4.7757e-07
0.00406692
-0.0749604
0.0151144
0.00311469
-0.000168868
0.0183005
6.91795e-05
8.71061e-05
0.000241837
-0.00158434
-9.38395e-06
0.0175486
-5.3728e-05
4.61285e-06
-0.000355236
-3.39541e-05
-8.84211e-08
2.22229e-05
-0.000115617
-9.96125e-06
-3.17831e-07
7.32604e-08
-0.000174425
1.73615e-06
-0.00020044
-5.402e-07
-4.21265e-08
-3.81116e-08
-5.16423e-06
2.17231e-07
-9.13232e-06
3.75263e-08
-0.0210112
9.18376e-05
0.0308657
1.74893e-07
-4.95421e-08
4.12117e-05
-4.36539e-05
5.50421e-10
0.00298965
0.000860589
-0.0452843
2.00345e-05
0.000399891
1.79813e-07
-4.76522e-08
-3.23222e-08
-1.32219e-05
0.0304209
-4.31437e-08
-0.108619
-9.15789e-06
0.00385608
0.001039
0.00080322
-0.000702771
-2.54898e-07
-4.80285e-10
9.2496e-05
-1.74739e-07
3.96505e-06
0.000408914
8.16686e-07
1.50163e-08
-5.55035e-06
-1.62928e-07
-2.15263e-07
-1.0545e-05
0.00254003
0.0347761
-7.44129e-05
4.10688e-07
7.898e-09
-0.0198834
-0.00203332
3.05824e-06
5.90663e-07
-0.000794241
-0.109528
0.0148052
0.000339502
4.35036e-06
1.5645e-07
-2.36338e-07
6.1558e-05
1.38593e-05
-0.0053215
-5.73589e-06
-0.00317607
-3.66253e-07
4.10037e-06
0.0212573
-2.01866e-07
-0.000142901
1.77985e-06
2.37405e-08
-6.14017e-06
-0.00481685
-1.02202e-06
0.0220798
0.00396532
0.000841444
-8.4462e-07
1.5428e-08
-0.000299066
-0.166285
-1.74754e-09
-0.202296
-2.9232e-09
7.18983e-05
8.0779e-07
-2.46418e-07
-0.0155127
-3.60625e-07
-0.0033052
9.78255e-06
-3.37753e-08
-2.46311e-07
-2.98112e-07
4.23037e-07
3.05483e-06
-0.0103638
5.20651e-08
-4.41507e-07
-0.0271663
0.0128094
1.62393e-05
7.82354e-05
-0.000105492
-3.87438e-07
-2.44233e-07
-1.08213e-05
-0.018434
-0.00614501
2.70391e-07
-2.01865e-06
0.0180931
-5.98892e-06
0.0123649
-5.18035e-08
-5.23422e-07
-0.0285224
-1.80164e-05
-6.24713e-07
0.0268038
-0.000113654
4.67434e-07
-0.00044782
-3.93612e-08
-4.8057e-07
1.71789e-07
-0.0117526
2.27951e-07
1.18899e-06
-2.70263e-07
-0.00771354
9.15295e-06
-0.000156888
0.00951454
-1.10689e-07
0.000495077
2.54164e-08
0.00668508
-3.15992e-07
1.83488e-07
2.72404e-08
-0.000303062
2.03681e-08
-0.000382307
-0.0268924
-0.0124498
4.53073e-05
0.0513338
0.0077662
3.16585e-07
-0.0112523
-0.0317942
0.00511386
0.0187788
-0.0313492
-0.0464573
0.00039692
2.17063e-06
0.0101911
-1.80769e-05
-0.0218053
-1.69625e-07
-2.96084e-08
3.21949e-06
3.08877e-08
-7.94515e-07
-0.000928774
-0.00727988
-4.68866e-08
3.11577e-08
0.00559637
0.0174815
-1.6543e-08
-0.00536964
-6.27934e-06
-6.34765e-07
-0.0270651
-0.00527153
5.1764e-06
8.78275e-06
-0.0100802
0.0158151
0.00973642
6.98407e-07
0.00136509
-0.00148197
0.011217
0.0237839
5.12239e-05
1.20435e-06
2.51748e-07
-8.52965e-07
2.15867e-07
-7.88428e-06
-2.1426e-07
-8.8213e-06
0.000114819
-0.017169
-0.000698973
1.13003e-06
0.000494827
0.00635878
-6.133e-05
1.70097e-06
-0.0218299
-6.65899e-07
3.66807e-06
9.70194e-05
-0.0237302
-9.2765e-09
-4.00219e-07
-0.0391249
0.000806737
-0.0688439
-0.000983282
0.105543
1.49003e-08
0.000697213
1.96143e-06
-2.24242e-07
8.55589e-07
-0.0121629
-0.00131496
-3.96043e-07
-2.42671e-07
2.13285e-06
-0.106372
5.75208e-06
-5.29714e-06
-7.2029e-08
9.43134e-07
0.000402822
-1.69965e-08
-9.16959e-05
-0.00323725
-0.000402188
-1.0487e-06
0.00353428
-5.51573e-06
-0.0158709
0.00270329
-8.6848e-07
-0.00164518
-8.58457e-05
0.0022596
2.28341e-08
0.0358706
4.54046e-09
-3.61455e-06
0.0001002
-0.00084578
-0.0202938
0.0354313
0.000743626
0.0255306
-8.01837e-08
0.00547786
-2.40366e-07
-5.07532e-06
-0.0414719
1.7933e-06
-1.52224e-09
-2.61095e-06
-9.66383e-07
-0.010779
-2.22718e-07
2.51152e-07
-0.000164238
-3.20625e-05
-0.00021833
0.0284228
-0.000241169
0.0277003
0.000209289
-1.88995e-05
9.41304e-05
-0.00543756
2.26961e-06
-0.0238162
-0.00963432
5.50327e-06
1.38594e-07
0.0220583
0.0102464
3.51646e-07
-0.000275635
-1.23609e-05
1.05509e-06
4.88342e-06
-8.81482e-07
0.000125146
-5.73688e-10
-9.57094e-05
-0.00103035
7.85245e-08
0.000153951
-3.88399e-07
0.00182307
-1.04169e-07
0.000113991
-0.000145799
1.80475e-06
4.36353e-08
-4.41735e-07
0.0171492
-0.00030465
0.0169194
-1.00337e-06
2.80764e-07
-0.00023755
1.53786e-06
-0.000123648
-0.000169067
1.03293e-06
-0.000677825
-4.1528e-07
-0.00863034
5.51959e-07
3.62554e-05
0.0185159
8.24213e-05
2.89881e-08
-1.71453e-06
-0.00652831
-2.03868e-07
-1.87425e-07
0.00858379
-0.00731773
-4.117e-05
0.000791715
6.68842e-08
1.12804e-07
-0.0137662
-1.73669e-06
-2.35558e-07
0.00774122
-3.40482e-07
-0.022167
-1.95516e-08
-1.94763e-07
3.32299e-06
-0.000307971
0.0129762
8.42935e-07
3.51237e-06
-3.65636e-08
-2.59819e-06
-1.69435e-08
0.0128272
7.25839e-06
-4.57243e-09
0.00988056
0.00194202
0.0102298
-0.0139217
-0.000236467
-3.26281e-07
1.13992e-06
2.36518e-06
0.0185561
1.61225e-05
0.0115592
0.00567115
3.13477e-06
-0.0385848
-0.000260311
-2.4962e-06
-0.000372034
-0.000715793
0.0568818
-0.0187525
0.00205096
-0.00156705
-0.0204973
-0.000110232
1.60546e-06
-0.00330913
0.000349837
-2.11272e-07
7.89236e-07
-0.0416801
7.71886e-05
1.04262e-06
-6.21243e-05
0.000442268
-1.99586e-05
0.000754913
-3.3957e-06
0.0200193
7.77059e-05
0.0100214
0.000471118
0.000280512
-5.41973e-06
-3.77072e-07
-1.22164e-05
-0.0220788
-5.93451e-07
3.89613e-06
1.1673e-08
-6.04589e-06
-3.98023e-07
0.00021824
-0.000503308
0.00344987
0.0065372
0.00728277
0.00516638
0.00582849
-5.59338e-07
-0.108437
-0.00162482
-2.10099e-07
-1.12612e-07
-6.59954e-06
0.0243973
-2.01127e-08
9.6905e-05
0.00167073
8.9823e-05
-6.98738e-07
2.91597e-06
-2.88563e-07
-0.000473122
9.7995e-05
1.79531e-08
-0.0219477
0.0151724
-7.3075e-05
-0.223286
-5.55062e-05
-3.64755
1.52496e-06
8.53246e-08
0.000151771
-0.168353
6.87285e-05
0.0257879
-8.45507e-06
-3.16581e-08
-1.51716e-07
1.37753e-06
-1.06317e-06
2.43807e-06
-0.000573739
-1.84894e-07
-0.00109828
-2.31318e-07
-4.77682e-06
-1.63926e-07
0.000675717
-0.000459765
-0.00362665
1.89393e-07
0.000676057
-1.71518e-07
0.00734646
-4.50694e-07
-5.20229e-05
3.08194e-07
-0.00292728
-0.0177183
-0.000430098
1.60841e-08
-0.000642261
2.18388e-06
-1.04226e-05
-0.0111145
-5.62367e-07
1.11132e-06
-7.18165e-05
-4.56676e-06
-0.0365358
-2.55621e-07
-0.000194249
3.68089e-06
-1.38523e-07
0.000453613
5.26872e-06
1.66342e-07
4.70367e-06
-0.0227695
-6.02469e-06
0.0243089
0.00758831
2.2263e-05
0.0129564
-6.03226e-06
1.7129e-07
2.99614e-05
-0.0277305
3.94344e-06
3.73661e-05
-4.9321e-05
1.68839
6.01648e-07
0.000215777
0.00015909
7.83899e-05
-2.93907e-07
-2.68541e-07
0.000521433
2.1417e-06
-1.39512e-08
0.000236104
-2.65252e-07
2.43004e-06
-7.53736e-06
-0.000273489
-0.0222489
-0.0260611
1.12416e-05
-0.000364142
0.0135258
-0.0254149
1.60598e-05
0.00274031
0.0229272
-5.57851e-05
-0.0333581
1.8166e-08
1.50596
0.00134521
6.73599e-08
-8.76638e-09
-3.51217e-07
1.36285e-06
-5.13071e-05
-6.87005e-08
-1.15535e-06
4.62617e-06
-1.2509e-06
0.000120464
-0.0128187
1.04581e-05
1.72676e-06
0.00465523
-7.06151e-07
0.0070813
5.46378e-06
-0.00384325
6.15011e-07
-0.0281217
0.00325382
2.14217e-06
1.46272e-06
0.0332725
-7.8378e-05
0.0135358
-7.42446e-08
-3.02432e-07
-0.0439509
9.49051e-07
-0.00112991
-0.0114833
2.22557e-08
-3.56789e-05
-9.33714e-06
-2.77026e-07
-2.7925e-08
0.0191035
0.0106115
-1.5369e-06
6.69935e-07
1.17542e-06
-9.30707e-06
0.00526052
-0.0171939
4.35703e-06
-0.00431716
0.023928
0.00934566
-0.202534
1.02602e-06
-0.00026521
0.000550396
-6.04443e-05
1.8242e-08
-0.000161568
-0.0107762
4.80473e-06
-6.58359e-06
-0.0239257
0.00373487
0.0173884
1.46908e-06
3.52013e-06
-2.47846e-08
-7.82168e-08
0.0145762
-0.000181576
2.62777e-06
1.77568e-06
-8.88523e-07
-4.80409e-08
1.41604e-06
-3.34281e-07
-0.000332685
7.13059e-05
0.00877327
0.00406129
-0.00211156
0.0162357
1.16827e-05
-3.24148e-05
1.10315e-07
0.000104289
-0.031051
7.30383e-07
-3.93787e-06
-0.000196563
-0.000509546
-0.00385746
0.0257182
0.00384458
-6.97974e-07
-0.000919106
-1.74911e-07
-6.26741e-07
8.71636e-05
-3.42987e-08
3.67667e-07
-0.000882585
0.0158076
-3.37461e-07
-0.00340109
1.33716e-06
-2.95334e-07
-3.8415e-06
0.00188896
-8.054e-06
5.18113e-06
-0.0422583
-3.48983e-06
-0.0102043
0.0234273
-3.95365e-09
0.00315934
6.58396e-08
-0.0294241
8.84168e-05
-1.76478e-07
0.00182169
-7.46833e-05
-4.89529e-05
-2.83424e-08
0.00755046
0.000235541
0.0119844
2.99269e-06
-0.000147594
-0.0259144
-4.12443e-07
0.0370756
7.34295e-07
3.42078e-05
0.000285251
-1.37475e-09
0.0051792
5.18823e-07
-0.000265918
-6.16341e-05
-0.00278021
0.000150651
0.00387127
4.23215e-06
-0.0218058
-5.89915e-05
0.000863085
-0.000158776
-0.000268202
-8.83432e-07
5.02655e-05
-7.65761e-07
0.000238418
-0.0197669
-3.64788e-06
3.31105e-07
-0.00156082
1.09803e-08
-3.15533e-05
-1.70654e-06
-0.00824133
0.0195564
-0.000125443
-6.18402e-07
-3.73242e-07
1.04801e-07
-2.56028e-07
-0.00075167
0.000602157
0.000237958
-8.95151e-06
-3.23675e-07
-0.0923406
1.35902e-06
1.89628e-06
0.0600039
-9.3516e-07
-0.0280522
-0.000160117
2.99371e-05
0.00759874
-0.00889036
-0.099117
-0.00719148
-0.0089077
6.1746e-07
0.00969635
0.0140935
0.0485214
1.3891e-08
1.03673e-07
-0.00111349
0.00666479
0.00786744
0.0126979
1.86216e-06
-0.0025304
-6.14249e-05
0.020522
-1.93734e-05
-3.10578e-05
-0.000796573
-4.31584e-06
-0.000144443
-7.86404e-07
3.58282e-08
0.000662155
0.00563486
1.70027e-07
0.0133156
-2.89167e-08
-4.93244e-07
0.00202524
-0.0151738
-2.4755e-09
2.07304e-06
-2.48527e-06
-3.75564e-07
-0.000285804
-0.00105868
2.94807e-06
-2.95502e-07
1.29332e-07
2.99581e-05
-7.67439e-06
-8.72266e-06
-0.0968674
-9.99532e-07
-0.0157714
0.0226276
-0.039384
3.41593e-05
-5.30318e-05
-0.0401642
-1.50164e-05
0.0168195
0.070398
1.22857
1.387e-06
0.0419198
0.017427
1.8149e-07
-1.37786e-07
0.00216078
0.0111022
-0.00381737
2.6169e-08
2.30811e-06
0.00127961
3.22895
-0.496528
-4.92429e-06
6.34887e-06
-0.00571127
3.0384e-06
-0.0140075
-0.0183736
0.102819
0.0260481
-6.4118e-07
2.21121e-07
-1.0463e-07
-1.21619e-06
-0.00226427
-3.72056e-05
5.88067e-06
-8.04781e-07
0.000471536
0.0190538
3.7083e-05
0.0135747
0.00652084
0.0114367
0.0023614
-1.38163e-07
2.44612e-08
-0.0075428
-2.1924e-07
-2.24016e-07
2.34227e-06
1.17386e-05
-2.40338e-05
-0.0301618
0.00036471
-4.59791e-07
0.017219
6.81875e-05
-2.3707e-07
0.0126725
-0.000849653
-9.04988e-05
2.76704e-07
-0.00411804
0.0148063
3.11078e-08
0.0122292
0.0254294
-0.023166
0.0195783
0.000107425
1.15271e-06
-1.79385e-06
0.000376244
-4.96536e-06
-0.00281567
-0.000101939
0.123184
-0.00686751
2.26748e-06
-0.00010668
1.41932e-06
4.31704e-06
0.00693721
0.0029688
1.31581e-07
0.00798596
-3.78615e-05
2.30676e-06
4.69103e-06
-3.13379e-07
-2.87214e-05
-2.35879e-06
-0.00150041
-0.000646052
1.15908e-06
-6.78583e-08
0.0438021
-0.0329211
-1.88827e-05
-4.50585e-06
5.67469e-05
-8.805e-07
-1.11223e-06
-3.56373e-05
0.0283389
0.011295
0.0134327
4.13309e-08
-6.22668e-08
2.25506e-06
-0.000252155
2.12712e-07
1.44449e-06
-0.000776053
-0.000222487
0.0856019
1.1374e-07
0.0133107
0.011946
-1.84105e-10
0.0346007
-0.00120609
1.35512e-05
-0.00065645
2.04145e-06
-0.00910202
-0.000291681
4.35517e-06
-1.03802e-06
-2.38057e-07
-0.00498795
4.88934e-07
2.51777e-06
5.19723e-05
0.0126459
0.0115613
-4.98141e-08
5.92295e-08
-5.45371e-07
-9.94342e-07
0.00106859
1.83998e-06
0.000232865
1.28147e-06
-0.00975031
1.49227e-06
-0.0411251
7.14975e-08
0.0362241
-1.6756e-06
-2.80151e-07
-0.0321518
0.0311886
-0.118275
0.107687
4.95625e-06
-3.36597e-05
-3.17421e-07
-0.00948909
-9.15581e-08
1.90991e-07
-0.000359334
0.000105571
-0.035172
0.00847118
0.000415091
0.018854
0.000468271
-0.0302722
1.77954e-07
3.14699e-07
-7.71918e-05
-0.0103216
9.00913e-06
-0.000459933
0.00738738
5.95677e-07
8.60588e-08
2.0656e-06
-0.0126843
-0.00455388
1.12667e-06
2.83277e-07
-2.13944e-05
-8.14863e-06
-2.57635e-05
-0.0333866
0.00846127
-1.53574e-07
-0.175038
-0.000137736
-0.04291
-6.08722e-05
-3.9876e-06
-6.8159e-06
0.0122148
-1.02635e-07
0.000297225
-0.0276845
3.75416e-06
-8.34572e-06
-0.000990688
0.00466833
4.21515e-06
-0.0368372
-7.02783e-07
0.00351407
8.49671e-05
-0.000240367
1.33245e-06
0.0116496
4.04861e-08
-0.000759238
0.00190783
0.00887613
-4.42927e-05
-1.55168e-06
5.58456e-06
0.00109387
-2.66721e-08
0.00592041
-3.02903e-06
-2.67229e-07
-6.74356e-06
5.72557e-08
-5.277e-09
0.0032685
1.33176e-07
-3.6628e-09
2.30103e-06
-0.00071588
4.00812e-07
1.37424e-05
-0.000360891
-0.000509554
0.00125186
-1.07306e-08
0.0200861
-0.00120301
0.000811802
0.000342959
0.000131931
2.45095e-05
-0.00817568
0.0125168
1.58078e-09
-0.00109556
-0.00394568
-5.00739e-09
-1.12843e-06
-2.26675e-07
0.225477
0.00230326
1.49813e-07
-0.00191259
-0.00487079
5.99414e-08
-8.4272e-08
0.0319335
0.00725888
9.27825e-05
-2.43134e-07
0.0345975
0.0239795
-0.000176921
-2.51002e-07
-0.0112234
1.2351e-05
-0.000104198
0.00852043
-2.43098e-06
-2.10165e-07
-5.63078e-06
0.000715468
-1.14114e-05
0.0124093
0.0160802
3.0513e-07
0.0166724
0.00517969
0.00979233
1.85186e-08
-0.00631749
2.18831e-07
1.2538e-06
-0.0354656
-0.11868
0.00309825
0.0171316
-0.000101833
-8.89071e-05
1.19984e-06
0.019194
-0.00535783
-1.57656e-07
-1.98862e-06
-0.000152032
1.14669e-07
-2.61401e-05
-0.0495106
0.0155039
-5.53736e-05
-1.81115e-06
4.9839e-07
-0.0302475
1.30167e-06
-0.000123223
1.23475e-07
2.29687e-06
0.00331269
-0.129478
-0.0304405
-0.0162323
-3.45163e-08
0.000575644
7.78281e-07
0.000685935
-0.0151008
0.0233791
1.81581e-07
-6.53311e-09
2.83209e-05
-8.72618e-06
2.20105e-07
-0.0438426
-0.00631732
-4.12672e-07
2.17678e-07
9.82674e-09
-2.6094e-07
-0.00806063
-2.30926e-07
0.0203398
-0.00144439
0.000160861
-3.0742e-07
-3.82248e-05
0.0218223
-1.76957e-05
0.00353365
-0.0204133
3.45112e-06
-0.0386873
9.90246e-05
-0.000218751
0.000863338
-0.011313
0.0105288
8.09466e-05
6.00002e-07
-0.0196855
-2.93188e-07
-6.6398e-05
1.0006e-06
0.018451
9.23499e-06
0.324198
0.0226525
-0.000108551
2.22261e-07
0.00050885
-1.22409e-06
-1.02446e-08
0.0798633
-2.1885e-07
8.98254e-05
-1.82466e-05
5.61293e-07
-0.00418391
-3.69315e-07
0.192974
4.40788e-06
-3.3419e-07
-0.0149932
-0.011166
-4.45985e-06
7.7295e-06
4.8127e-06
-8.58092e-05
-0.000137864
7.41223e-06
-2.3641e-06
1.65197e-06
-0.00142542
1.6651e-05
0.00569056
0.00212787
0.017069
-0.000258394
7.11737e-07
-0.0460518
-2.19109e-07
-0.0287022
-3.14426e-05
0.00798298
0.585437
0.0221475
-0.00540302
0.00664971
0.0043996
1.29934e-07
-0.045577
0.000308946
-5.31037e-07
0.0121255
0.00613858
4.88662e-06
2.635e-06
-8.38761e-06
-7.2313e-06
9.49887e-05
-0.0214966
2.11264e-10
2.99034e-05
1.61327e-05
-2.97268e-05
2.31006e-08
-0.00035711
-2.09935e-07
0.00028935
6.42856e-06
0.00100744
-5.91202e-06
-5.16688e-05
-0.00125826
-0.113439
0.00124489
4.54237e-07
0.0044932
-0.0399598
-0.0633027
6.13453e-07
-0.00174265
-4.67414e-06
0.00935588
9.44481e-08
3.31512e-08
-0.022527
0.000121136
0.014623
-0.000977612
6.35987e-05
0.0145962
1.54763e-06
-1.08189e-07
-0.00808799
-0.00133771
2.37047e-08
-0.01782
-8.44276e-06
0.000917912
8.64551e-05
-0.000204674
-1.5429e-06
0.0114348
-0.00742129
0.00452696
0.000641474
-4.39733e-06
-0.000340772
0.0141918
1.45728e-06
3.51658e-06
0.000156351
-1.74205e-07
-8.86014e-05
-0.0314947
-0.0215931
-0.0148528
-0.000100433
7.21513e-07
-0.0173165
-1.95104e-07
-0.000391299
-7.21561e-08
-0.0437041
-4.78686e-06
-0.000485995
0.000437433
2.95709e-06
8.90304e-08
-0.000280003
-0.0182595
-2.01203e-07
-0.000605389
-2.86889e-07
-0.0084309
0.00272799
-0.0013017
-0.017465
-7.63465e-08
-0.00139704
-0.000675966
-3.1331e-06
-2.28132e-07
1.20959e-06
-4.29073e-09
-9.10923e-05
2.07955e-07
-0.000437877
1.23614e-07
-4.65408e-07
0.0451492
-5.21646e-07
-7.92077e-06
4.5412e-06
-2.96981e-08
-0.00584641
-1.18892e-07
3.87535e-05
-0.024578
7.10947e-05
0.0102886
-6.29927e-07
0.0151051
0.000123881
-0.0245563
-3.76793e-06
-0.000951854
7.19666e-07
-2.10662e-05
-0.000461983
-0.000239652
0.001902
-0.00930031
0.00136853
0.0229402
3.74222e-05
-0.00104603
0.00118809
-0.0366489
7.42057e-06
7.17761e-07
-1.03743e-06
-7.82674e-05
0.0011417
-0.19751
-9.57401e-05
-0.0157907
0.0123542
0.00555444
2.28366e-06
-0.0749567
0.00223415
1.39901e-06
4.03476e-06
1.09579e-08
0.0107038
-8.99643e-07
-0.042244
-4.18244e-07
-7.84736e-06
-0.00804329
0.00239305
-3.16866e-07
-1.10728e-06
-0.0339299
2.27216e-07
1.88378e-06
6.39226e-07
0.000146252
-6.38675e-06
2.43347e-06
-0.00030184
-0.00408528
-0.000500143
0.00241126
0.00712861
-0.00310972
-0.0221251
1.4913e-07
-3.89055e-07
-0.000983525
6.18702e-07
0.00219477
-0.000692985
-0.00431934
-2.46122e-07
-2.72762e-07
0.0249739
-0.0371661
-2.27843e-07
4.18971e-07
4.88859e-05
-0.0448103
0.00217159
-7.12954e-06
7.26528e-05
-2.1147e-08
0.0033866
-0.000372774
-0.00242992
-0.000264544
-0.000898635
1.25322e-06
6.81496e-06
0.0128907
2.83909e-06
-9.95174e-07
-7.90102e-06
-0.0351055
4.1862e-06
0.0263104
2.50737e-07
-0.0167969
4.53037e-06
0.0017201
1.94162e-07
-2.1492e-07
0.00179027
0.00383376
-0.00360043
-0.00220939
-0.0400704
4.10733e-06
-0.0163459
-0.000253957
6.77504e-08
0.0157254
0.00220676
-0.00125997
-3.28526e-08
0.0127067
0.00943408
-5.58732e-08
0.000308962
0.00578782
9.45272e-05
2.19066e-06
-4.33772e-07
-1.8107e-06
2.04822e-06
0.00011647
0.0132746
-0.00193369
0.000544331
-1.70043e-07
3.15505e-06
-0.00126499
-2.21766e-08
6.69173e-05
3.45557e-05
1.46904e-06
-0.000100921
-3.15847e-07
2.79146e-06
0.00449881
-2.00177e-07
-0.00474437
-5.44971e-07
-1.9598
-0.00602436
0.000500183
3.06881e-06
7.24604e-10
-0.0072175
-2.50996e-07
-5.57641e-06
9.55606e-07
-0.00455216
0.00146588
-1.23441e-05
-0.0106475
0.000809709
-0.0741011
8.32289e-08
-0.000217975
-2.32167e-07
2.44049e-07
0.00975806
-0.0100498
0.0180741
-4.34919e-06
-0.000221967
-0.000374999
-0.00435131
-0.0203984
0.000858144
-5.87057e-05
-1.86518e-07
-0.00951287
-6.38697e-07
-8.98732e-07
0.0019998
-0.000581852
1.11944e-05
0.00158938
-0.000548203
-0.000138278
-6.52614e-06
0.0183724
-2.40396e-06
-2.6051e-07
0.0231691
-0.00487608
-2.09691e-07
0.0173953
2.86113e-07
3.0381e-07
6.3342e-05
-0.00175771
-0.0326562
-1.13459e-07
7.28997e-06
3.75479e-07
-0.0105006
4.79466e-07
-0.238971
0.0102159
0.00101688
0.0160214
-0.0464403
0.000211642
-0.0130792
0.0226771
-5.22077e-08
-0.000110526
0.000695248
-0.000127696
0.00624002
-0.00993846
0.00917888
0.0119109
-0.00430535
2.61587e-06
-0.00136584
-7.69298e-08
0.0061553
-4.46994e-06
2.4917e-06
-2.91054e-06
-2.06146e-06
9.41158e-07
0.000148441
0.00986183
7.31059e-08
-7.03214e-06
-9.20246e-08
-0.0161035
-4.79253e-06
0.0449767
0.0196483
0.0162526
2.50147e-07
9.9035e-07
0.00267697
-0.256414
2.23653e-07
-0.0184104
-7.9973e-08
0.0035069
0.000235891
-0.000525347
-4.40044e-05
0.00145671
9.54034e-08
-1.32593e-07
-0.00485039
0.021416
-7.53317e-06
0.000214574
1.0502e-06
-0.0509329
-9.35107e-07
5.36223e-08
-3.98686e-06
-2.09011e-07
-0.00650982
-0.00651343
-0.0331769
0.000150081
-0.00451534
0.106418
-1.90097e-07
-1.87829e-05
-1.70519e-07
0.00667795
-1.5196e-07
1.35405e-06
-1.08379e-06
-2.42071e-07
-3.56528e-07
2.40213
2.18372e-06
0.0267189
5.5174e-07
0.000266066
5.52727e-07
-3.03204e-05
-3.16708e-09
-1.21212e-05
2.02625e-05
-0.000886559
0.00463576
-1.50256e-07
0.00214786
0.000114611
-0.000928741
1.35038e-07
-5.34602e-07
0.0151856
0.0735628
-6.05321e-08
-7.13851e-07
0.00144354
0.00351622
0.0037364
-0.0292313
3.77186e-06
0.0242517
1.06228e-05
-3.19132e-08
0.00886068
3.67449e-06
0.00338648
-9.99339e-07
-2.92955e-06
2.97005e-07
-0.00398544
0.00242254
-1.80053e-07
-0.0432456
-0.00207321
1.44296e-07
-6.61606e-07
1.08632e-07
-0.0901343
-0.0220597
0.000177333
6.87912e-06
3.45652e-05
-2.00994e-07
1.76882e-07
-3.00653e-06
-6.0998e-08
-0.00141966
-1.32292e-07
-5.09693e-05
0.00135075
-3.74704e-05
-2.25577e-07
-0.000831606
-0.000308204
-7.82208e-08
0.00170706
-1.05018e-05
-0.0178935
-4.84097e-06
-0.0339743
-1.29069e-05
2.02931e-06
-6.03527e-05
0.000868384
-1.44934e-06
0.0513828
-2.85377e-05
3.37621e-05
-0.0114174
1.60597e-06
-0.00232703
0.000488718
-0.000180916
-3.73378e-07
1.03793e-06
-2.6259e-07
-0.00719894
-0.000108435
-0.000115593
0.0123625
0.0110949
0.0195928
-5.15004e-08
0.00527044
-0.00406121
-0.0313919
-1.06303e-06
2.28247e-06
-0.00020942
-0.0167051
1.27167e-06
2.26462e-05
-0.0421458
-0.00743935
-0.712352
0.00062562
-7.87075e-05
0.0233874
-0.0707514
-1.60238e-07
0.298251
-0.000985783
-1.95122e-06
2.11975e-07
-2.0676e-06
0.0144268
0.000195962
-0.00909324
-5.82106e-06
-0.900202
-1.55672e-06
-0.217191
0.00932721
3.1707e-06
-1.8882e-05
-0.00831498
0.000301792
-6.52966e-05
-2.07767e-06
3.10848e-06
1.35758e-06
0.0382757
-0.000671864
0.064621
-0.0275998
-2.10536e-07
0.00880315
0.00081635
0.0943578
-8.34898e-08
2.78039e-08
-0.018381
-0.104819
1.09263e-06
-1.3274e-05
0.00018742
0.000135839
0.00159174
-0.0416159
0.0222487
-0.0189718
-2.13747e-06
-2.84751e-07
0.00262812
0.00677531
-0.0295392
-3.46229e-07
0.000310224
0.0117027
-0.0164947
2.35286e-06
-6.2293e-08
0.0447668
-0.0919092
0.25311
0.00811694
0.000941242
-6.00015e-07
0.159221
-0.0171776
1.0904e-06
0.000284979
-0.000454714
-2.08122e-07
-0.000838895
-0.0426274
-0.0132103
-5.83691e-08
-0.00875362
-0.000956178
-0.0416556
2.49319e-07
2.61168e-06
8.41272e-07
3.98893e-06
1.0985e-06
-0.000119937
2.46556e-07
0.00204483
-0.00227655
-2.11074e-05
-0.0090725
-2.96977e-06
2.92078e-05
-1.1532e-05
0.00531718
-0.000981716
0.0120128
-1.40473e-05
-1.55474e-06
0.0706856