/*--------------------------------*- C++ -*----------------------------------*\
| =========                 |                                                 |
| \\      /  F ield         | OpenFOAM: The Open Source CFD Toolbox           |
|  \\    /   O peration     | Version:  v2012                                 |
|   \\  /    A nd           | Website:  www.openfoam.com                      |
|    \\/     M anipulation  |                                                 |
\*---------------------------------------------------------------------------*/
FoamFile
{
    version     2.0;
    format      ascii;
    class       volScalarField;
    location    "400";
    object      ddt0(k);
}
// * * * * * * * * * * * * * * * * * * * * * * * * * * * * * * * * * * * * * //

dimensions      [0 2 -3 0 0 0 0];


internalField   nonuniform List<scalar> 
13917
(
-1.00111e-08
2.27664e-09
0.000987952
7.08766e-09
1.56002e-09
8.91891e-07
0.000742122
0.000894686
-0.00037041
-1.2578e-07
-6.77037e-07
4.91578e-08
6.93822e-09
-0.000213596
-1.2049e-08
-8.1103e-09
9.22034e-09
-3.07142e-08
6.81352e-08
1.38365e-09
-6.9047e-10
0.000695392
3.33791e-09
0.00107988
-1.19017e-08
0.000732746
-4.29926e-07
4.65526e-08
3.20876e-06
1.78867e-07
-1.74667e-08
-2.72369e-08
-8.03508e-09
2.14885e-08
-1.06482e-08
5.07738e-05
3.36178e-09
-0.000112894
1.40374e-08
0.000142784
3.8143e-10
-2.2841e-10
-1.6811e-09
1.31147e-07
-1.36213e-08
-4.74706e-08
-2.59255e-08
-1.65283e-07
-1.71994e-06
7.04086e-10
1.90107e-08
3.16408e-09
2.92569e-07
1.98226e-08
9.87855e-09
3.06575e-09
-7.56574e-07
9.92975e-09
-8.71162e-09
-1.46049e-08
0.000188913
1.33244e-10
-0.000134715
2.06871e-09
7.15128e-07
0.00930722
2.48797e-11
2.1662e-09
-3.81369e-07
-1.89599e-08
2.35211e-09
-0.000419883
-2.64219e-05
-1.15924e-08
8.02393e-07
2.08317e-07
-0.000127432
-4.87784e-09
0.000524096
-9.84711e-10
-5.8363e-10
-1.66215e-10
2.42814e-06
-8.77852e-05
2.60804e-05
-3.82977e-09
3.13012e-10
-0.0363654
1.98415e-08
-9.32064e-10
-0.000133427
-2.25188e-09
-8.78976e-11
1.83058e-08
0.0771571
1.51039e-06
-5.19831e-07
-8.37793e-08
-1.56808e-07
-2.4946e-06
1.42812e-09
-3.99681e-08
1.44149e-07
1.17049e-08
3.82562e-09
-0.000509384
-5.75433e-07
-1.70609e-07
6.35167e-09
-3.68542e-08
0.000145261
0.000176954
-5.1637e-08
-0.000477417
2.65273e-09
-4.41876e-07
-7.36486e-09
2.16152e-06
3.83481e-05
3.31768e-08
-4.5202e-10
-4.39054e-07
-6.43834e-06
-7.6124e-08
1.28912e-09
1.91153e-08
-1.72162e-08
1.43561e-09
-3.08166e-09
1.25728e-06
0.000107318
1.79904e-09
-1.53093e-08
-5.26566e-10
-0.00327625
0.00115837
1.90146e-10
-1.01493e-06
-2.00445e-10
3.18203e-08
2.13371e-05
-3.57919e-09
9.83783e-09
1.57652e-07
2.35961e-09
-0.000685902
4.32017e-07
2.27579e-09
-3.24528e-09
-2.89038e-08
-8.93952e-08
-6.51905e-07
-2.64288e-07
-7.46106e-08
-1.65607e-08
2.09981e-05
-2.02265e-08
0.000341247
-9.48996e-05
-0.00305248
7.99433e-09
-2.3316e-07
-9.47149e-10
-4.93408e-07
-4.86874e-08
-1.5491e-07
1.10731e-08
-1.15074e-07
-1.26462e-08
1.61474e-08
-3.73341e-08
0.000112049
4.82336e-08
3.05911e-09
-0.000432711
1.17613e-08
0.000146074
1.0594e-07
-0.00072855
1.77468e-08
2.40338e-08
-8.06774e-10
-4.41487e-09
8.61727e-10
1.47992e-09
0.000880092
3.39337e-07
6.90143e-06
7.37172e-12
-2.94997e-07
-0.000157297
1.05223e-05
5.10572e-07
4.15916e-09
-3.14581e-06
-3.50429e-07
8.01955e-09
2.03021e-10
4.14897e-09
-0.0250903
2.73272e-08
7.55179e-10
-9.37407e-08
-9.47893e-08
-2.05584e-05
-0.000242039
-1.02583e-08
1.29598e-08
-1.40287e-07
0.00108368
8.90437e-09
0.000737165
2.39684e-06
-3.00724e-07
4.71133e-09
-6.7056e-06
-7.04092e-08
0.000160966
-9.57391e-09
0.000214923
1.71888e-08
2.21117e-07
-2.36793e-10
-0.00013206
-0.000501903
-1.00305e-08
-8.87518e-06
-1.51721e-08
4.30835e-09
6.06379e-05
9.70971e-08
1.24992e-09
0.00130999
2.59827e-06
2.11523e-09
-2.55851e-08
-0.000139652
1.59046e-05
-9.41304e-10
-2.71703e-09
0.000154375
-4.77312e-07
-9.9085e-12
0.000131824
-1.19404e-07
-1.33466e-06
-1.52913e-08
-9.49102e-10
6.01605e-08
-3.56443e-05
8.13235e-09
-2.80007e-07
-2.17232e-07
-1.69181e-08
6.79799e-09
-1.68229e-07
0.000140433
-2.48824e-07
-2.11225e-08
6.74503e-10
-1.91733e-11
7.53745e-07
-0.000617905
6.70365e-05
4.61353e-09
7.016e-05
-0.000205612
0.000579964
0.000455224
1.7229e-07
-7.52169e-10
3.802e-11
-3.09484e-08
-0.000162183
-2.33622e-07
-9.06489e-09
-0.000316
8.92851e-08
-2.44136e-09
0.000102702
1.61684e-09
-0.000330291
2.69806e-08
-9.15807e-12
-1.7721e-08
-7.86612e-08
-7.05387e-07
-1.23938e-05
-9.6099e-09
8.06819e-09
3.22232e-05
0.00132918
-0.000465581
-9.52089e-09
0.000109947
3.21087e-10
8.25084e-09
-5.51567e-09
-1.76693e-06
6.90762e-11
1.68928e-08
-1.52643e-08
-1.15706e-08
-9.0692e-08
-2.82997e-08
3.27748e-07
-5.3858e-08
2.54484e-08
-6.73126e-09
3.4373e-09
0.0001436
-2.35506e-05
-7.92525e-09
-1.90058e-10
0.000205912
1.4303e-08
-4.01197e-05
-6.51575e-09
-0.000128303
5.21591e-09
-3.24313e-07
7.42106e-09
-5.25927e-07
3.84863e-09
0.000506579
5.42118e-08
-1.65918e-08
-5.28588e-07
2.07738e-05
2.42116e-08
1.23777e-05
1.99463e-06
-0.000197645
5.1469e-08
8.00407e-05
-2.42708e-08
0.00014587
-5.50976e-06
-5.76425e-08
-2.3134e-07
0.000792251
-8.28622e-10
-1.89571e-08
0.000150198
1.25049e-08
9.60961e-11
-0.000212854
-1.76156e-07
2.78883e-10
2.38313e-05
3.57169e-06
-5.52785e-10
1.16759e-05
4.45052e-05
3.90021e-10
4.32129e-10
5.49086e-11
-3.43077e-09
-5.31942e-05
-0.000662348
1.27317e-05
0.000148758
-8.96458e-09
-4.08163e-07
-1.05305e-06
-2.72737e-08
0.000654524
-0.000159188
-0.000471946
2.2708e-09
3.07465e-05
1.80536e-09
0.000944394
-1.50028e-08
-3.19908e-07
-1.36585e-07
1.8242e-08
-3.19675e-10
-1.11095e-07
-1.17669e-07
-1.30499e-07
1.75367e-06
0.000134426
0.000152272
2.01592e-07
-1.87605e-07
-2.53884e-09
1.20613e-05
0.000665103
1.90425e-08
-0.00048585
-3.8808e-09
-6.53341e-06
6.14573e-09
-1.04007e-09
-2.21523e-08
0.000120462
-2.19559e-08
0.000141095
-4.96291e-06
-6.53071e-07
9.73417e-06
2.3038e-08
-3.28789e-06
1.54122e-06
-2.56694e-11
-2.24395e-08
1.07371e-08
-8.38568e-09
1.85401e-07
-3.76049e-11
-1.27409e-08
1.94561e-09
4.378e-06
-9.5976e-10
0.000113145
0.000294155
-2.5005e-06
1.00076e-06
0.00020136
0.000152795
-2.77214e-08
-7.36419e-09
3.20292e-07
1.41759e-08
-2.65244e-08
3.96864e-09
-0.000621285
0.00086627
0.000320081
-3.38367e-09
-6.38176e-08
5.36748e-08
1.7522e-08
-6.06606e-08
-8.95316e-09
1.73112e-05
3.9068e-09
1.98658e-10
-5.01275e-05
0.000135948
0.000175532
-2.84315e-08
-2.35321e-06
4.87981e-05
0.000115504
-0.000174926
-3.16743e-09
-5.25549e-08
-1.03993e-08
1.35606e-08
-3.52233e-05
-3.37242e-08
4.91854e-09
1.21728e-08
-1.64911e-08
-0.0001641
-5.59813e-10
-2.84533e-07
-3.31063e-05
-1.7145e-07
0.000106198
-9.01126e-10
1.80925e-08
8.09568e-09
-1.6649e-08
2.49272e-09
0.000993478
8.16674e-06
-3.89931e-08
1.08004e-06
4.76382e-09
-4.82275e-07
0.000116248
5.04409e-08
-6.41649e-07
2.47611e-05
-3.26225e-07
-3.85192e-09
-8.39382e-08
1.22734e-08
-4.53744e-07
6.73044e-07
3.8873e-08
-2.03937e-07
-3.06592e-09
0.000126496
1.69976e-08
-3.7735e-10
-3.99967e-08
2.62819e-10
-0.000177169
-0.000517728
1.54081e-08
-2.71349e-09
0.00131685
0.000152972
-3.44436e-11
9.40016e-05
1.96318e-08
7.06656e-08
1.52936e-08
3.51707e-05
-0.00066438
-2.91592e-08
-2.37555e-08
0.000226712
1.14975e-06
-1.13485e-05
-3.73231e-11
-1.71619e-05
1.84743e-07
0.000454395
-1.02597e-09
3.12384e-05
-9.3794e-05
-2.74045e-08
8.63539e-10
1.80742e-08
2.95888e-07
1.00941e-05
3.48056e-09
-9.37882e-10
-6.69632e-11
-2.73482e-10
7.75809e-05
-2.31821e-05
-2.53292e-08
2.77541e-06
1.48136e-09
1.07313e-09
-2.20644e-08
-0.000123519
-1.45343e-09
-1.34261e-08
-1.05116e-08
-2.04823e-10
0.000356935
2.24676e-06
3.20243e-10
-8.37848e-10
3.00861e-05
6.74491e-09
9.48348e-09
1.643e-08
-2.02278e-08
-2.7732e-08
-1.99913e-07
-4.2186e-06
-1.4581e-06
2.3147e-07
-2.38846e-07
-0.000268401
1.66574e-07
-1.08898e-08
-3.5701e-05
2.28728e-10
-3.30862e-09
2.20174e-08
-0.000462233
-3.6209e-09
1.84624e-10
1.37788e-07
-9.45041e-08
5.3759e-06
-1.85567e-07
6.26776e-07
-2.73304e-08
2.45896e-10
-0.000351722
2.9667e-07
0.000319013
6.98883e-09
2.64931e-09
3.9146e-06
-0.000160685
3.90245e-05
-8.87722e-08
1.36176e-07
-5.21549e-09
-2.3791e-08
1.6537e-08
-4.7108e-07
2.62138e-07
5.14916e-10
-6.78124e-08
4.37107e-07
0.000339502
-7.06486e-06
-2.52298e-08
-4.82812e-07
0.00102741
-2.63885e-08
9.64567e-09
6.90794e-07
-0.00108805
-0.000354217
-2.96753e-07
-3.42188e-09
1.5607e-05
2.27079e-07
8.22001e-10
-1.13777e-08
-2.28771e-07
-1.14849e-07
3.60144e-08
0.000557906
-1.65295e-07
2.81626e-08
-0.000371841
-2.85101e-09
-0.000159051
-9.91355e-10
6.39949e-10
0.000308864
-0.000995143
-2.6891e-06
-1.69689e-09
4.24592e-09
-6.50866e-10
9.23204e-08
1.89612e-06
-6.51501e-08
-2.42957e-08
-5.68782e-07
-9.46747e-08
1.86917e-08
1.34233e-06
-3.44749e-08
-2.49347e-05
-5.8285e-09
-1.95723e-07
-1.75559e-09
-2.31879e-05
-9.84235e-08
4.25887e-08
-5.30311e-10
-1.18958e-09
-4.21524e-09
-1.85956e-08
-2.04761e-07
-2.45227e-08
-1.12663e-05
-9.29194e-06
-1.02293e-07
-9.12094e-10
1.12655e-08
-1.03861e-05
0.000205874
7.52271e-09
1.13892e-08
-1.21082e-09
2.97413e-08
-7.05967e-09
-6.73445e-05
-1.0777e-09
-0.00258757
2.7024e-08
-7.36967e-07
1.99382e-07
2.51251e-06
-6.04286e-08
1.85107e-08
-0.00016615
8.18002e-05
2.2861e-08
2.07627e-08
-0.000442064
5.29956e-08
-2.58893e-07
-6.51151e-11
-2.34715e-08
7.16656e-07
1.88212e-08
-1.02584e-07
-1.29209e-07
-3.98861e-09
-9.9475e-08
0.0010226
7.22991e-09
7.99602e-09
2.20933e-10
-2.8744e-05
-7.05013e-10
-6.70899e-10
0.000116688
6.33307e-09
-0.00112318
-1.74163e-08
5.58258e-08
8.52463e-11
-1.71678e-07
-3.8441e-09
-7.75375e-09
-1.11121e-09
-3.55348e-07
2.02309e-08
-2.28494e-05
1.49187e-06
-0.000112966
1.2692e-08
-5.29083e-10
7.17667e-08
1.04791e-08
-0.000167265
-0.000292678
-3.09851e-08
-9.03177e-09
-6.85767e-06
-5.9292e-06
-1.26827e-05
3.44062e-06
-3.32172e-08
0.000430989
-1.65945e-08
8.10373e-08
2.04731e-07
6.69313e-08
-2.65208e-08
5.01814e-06
-1.09767e-08
1.51483e-08
-2.3528e-07
-2.00598e-08
-1.25784e-09
2.84977e-08
-4.3776e-08
-2.94143e-08
-4.08591e-09
6.92089e-10
-7.18876e-08
2.07481e-08
-1.18686e-07
-7.31127e-09
-5.61302e-10
-5.03653e-10
-1.52418e-08
2.8373e-09
-2.91171e-08
4.34626e-10
4.54582e-05
8.08889e-08
3.60236e-06
2.23112e-09
-6.63038e-10
1.78842e-08
1.88472e-08
1.18717e-09
6.6422e-06
2.78745e-07
0.00565209
2.72651e-08
-1.73892e-07
9.39913e-09
-6.33278e-10
-5.47013e-10
-2.35414e-08
4.74584e-05
-5.5952e-10
-0.00158001
-2.9976e-08
2.60217e-08
1.67395e-07
1.50033e-07
-8.00922e-07
-3.65999e-09
-2.72642e-12
8.62442e-08
-1.72823e-09
2.34253e-08
-0.000319873
1.54126e-09
2.47077e-10
-8.30108e-09
-2.20167e-09
-3.23751e-09
-2.69986e-08
-2.07493e-06
-0.000192352
-1.83084e-08
7.03322e-09
5.18403e-11
-0.000161129
-3.38595e-08
2.25008e-08
4.5976e-09
-0.000121695
-0.000367792
0.000139371
4.16088e-07
1.51436e-08
2.04615e-09
-3.14207e-09
3.27951e-08
-1.29665e-08
-4.82096e-06
-6.57476e-08
-1.89648e-05
-1.3103e-08
1.31238e-08
0.000125395
-2.95156e-09
1.88073e-08
1.97174e-08
3.46938e-10
-5.17473e-08
-1.26069e-06
-8.80125e-09
-0.0010338
0.000154707
8.4572e-08
-1.05686e-08
3.64481e-10
-2.62163e-07
-0.00099269
-6.36878e-11
-0.000336021
-1.89248e-10
-2.73882e-08
1.07586e-08
-2.47181e-09
2.48118e-05
-2.50677e-09
0.000204444
-3.74103e-09
-4.51779e-10
-3.20266e-09
-2.6343e-09
6.37958e-09
8.3867e-09
3.50818e-06
4.91279e-09
-5.4826e-09
-0.000218108
-0.000544702
2.48844e-08
2.85258e-09
5.43757e-09
1.51052e-08
-3.17173e-09
5.47849e-08
-2.81905e-05
-8.4705e-07
3.58087e-09
-2.16169e-08
-0.000337079
-2.49052e-09
0.000163952
-6.83964e-10
4.48657e-10
-1.1916e-05
3.82764e-09
-4.61409e-09
1.09488e-05
-8.85569e-07
7.14464e-09
9.36022e-08
-6.64299e-10
-5.02615e-09
2.14714e-09
5.53155e-05
3.06522e-09
6.28948e-09
-3.78535e-09
3.40575e-05
1.44907e-08
1.68428e-07
2.24969e-06
-3.36567e-10
4.27304e-08
2.40914e-10
0.000151207
-3.5753e-09
5.92063e-09
3.52875e-10
-2.81315e-07
3.34364e-10
-1.65618e-07
0.000170555
0.001476
3.22249e-08
1.3939e-05
0.000116987
4.83179e-09
1.90305e-05
0.000126138
0.000123136
0.000202101
-0.000208421
-4.50958e-06
4.42215e-08
1.4703e-08
0.000503421
3.56781e-09
0.000551998
-1.90596e-09
-6.92597e-10
2.40646e-08
6.83984e-10
1.9034e-08
-3.45947e-07
-5.01222e-05
-2.39861e-10
5.89598e-10
-3.49878e-06
-8.43724e-07
4.09452e-10
-3.19921e-06
-7.74231e-09
-4.19196e-09
-1.10237e-05
-1.9891e-06
1.46017e-08
1.49202e-08
0.000151387
0.000130704
2.5795e-06
9.81731e-09
4.13937e-07
-1.32458e-07
5.94072e-05
-0.00045718
1.1419e-07
1.51847e-08
9.55302e-09
-1.12357e-08
2.80176e-09
-1.87828e-08
-3.00514e-09
-2.82274e-08
-2.26479e-08
-7.22419e-06
-3.49667e-07
6.34235e-09
-2.12734e-07
0.00010309
-1.87637e-08
9.29034e-09
-0.000140605
-1.03543e-08
2.21034e-08
5.68226e-08
-1.43059e-05
-8.26712e-11
-6.2142e-09
0.00066223
2.23425e-05
-0.000224416
-1.88492e-07
7.26095e-05
4.57669e-10
2.60473e-07
1.13744e-08
-2.79652e-09
7.44277e-09
0.000894335
0.000151877
-4.52693e-09
-3.24229e-09
2.17525e-08
-0.000466133
-1.34284e-08
5.27189e-09
-2.0975e-09
4.89484e-09
4.11866e-07
3.35455e-10
-1.54148e-08
-2.28062e-07
0.000201721
-1.5116e-08
4.13429e-07
-2.53127e-08
2.34428e-05
9.78837e-05
-1.17953e-08
0.000148084
-2.39905e-08
-4.52236e-07
2.78161e-10
0.000147068
3.62876e-11
1.5675e-09
1.04138e-08
-1.27321e-07
0.00117399
-7.51782e-06
6.22019e-07
-0.000978761
-1.08693e-09
1.82304e-05
-1.89074e-09
-2.30429e-08
0.000609026
1.54627e-08
-6.71247e-12
-2.43998e-08
-1.15307e-08
4.114e-06
-2.98072e-09
3.32337e-09
-9.73518e-08
-1.02957e-08
-5.32432e-08
-1.3631e-06
2.60147e-07
2.82194e-05
2.31422e-07
-9.86697e-10
8.10853e-08
-0.000170532
1.45463e-08
0.000554731
0.000628704
2.66786e-08
2.12521e-09
0.000147514
-1.7546e-05
2.48137e-09
4.9051e-08
-5.71197e-10
1.15063e-08
1.83029e-08
-9.43094e-09
3.69954e-08
-7.72533e-12
-4.37438e-08
-9.29176e-08
1.14716e-09
4.36027e-08
-6.06702e-09
3.72776e-07
-1.36497e-09
2.18841e-08
-2.7644e-08
2.08454e-08
8.03325e-09
-5.04116e-09
1.64866e-05
-1.59067e-07
-0.00117612
-1.37625e-08
-5.31683e-09
-8.42273e-08
1.89486e-08
-7.63716e-08
-2.29656e-07
1.21371e-08
-1.97368e-07
-5.66506e-09
0.000417523
3.95599e-09
2.47544e-08
-0.000204447
1.72343e-05
1.10546e-09
-8.56506e-09
0.000131696
-2.72927e-09
-2.13818e-09
6.77224e-05
4.66648e-05
-3.22963e-08
7.34738e-07
1.38023e-09
8.50946e-09
0.000989262
-2.68036e-08
-3.16567e-09
4.86864e-05
-4.10622e-09
-8.81002e-05
-2.5569e-10
-2.59707e-09
2.40552e-08
1.13287e-07
0.000145668
8.37245e-09
2.37665e-08
2.81999e-11
-6.74504e-09
4.4986e-10
-2.62333e-06
-5.26146e-09
-4.79201e-11
-0.00055728
4.7903e-07
2.26842e-05
8.91026e-05
-5.97482e-07
-4.77172e-09
8.74779e-09
2.18804e-08
2.16144e-06
5.5169e-09
0.000133982
0.000129961
1.20312e-08
0.000593548
-1.40954e-07
-5.53583e-08
5.79143e-08
-2.33612e-07
5.40988e-06
0.0012993
4.7233e-07
3.12313e-08
-6.30223e-05
-5.77313e-08
-7.96127e-09
-0.000168558
8.71165e-08
-2.43689e-09
1.29959e-08
0.000261737
-5.96535e-09
1.37369e-08
-1.45157e-08
1.58009e-07
-1.49069e-08
-0.000171962
-1.75388e-08
-0.0012112
6.76046e-08
1.38863e-05
1.54356e-07
-1.00002e-06
-5.35753e-09
-5.68309e-09
7.35726e-10
0.00127161
-7.68852e-09
1.00821e-08
-1.41518e-09
-2.04504e-08
-5.46481e-09
-2.04817e-07
-3.97378e-07
2.60643e-06
1.12087e-06
1.98176e-06
0.000403416
4.0573e-06
-8.75975e-09
-0.000427532
0.000771921
-2.90647e-09
-1.56643e-09
-3.52564e-09
5.18492e-05
-2.93686e-10
1.00589e-07
-5.41313e-06
-1.51339e-09
-6.90318e-09
1.69529e-08
-2.6281e-09
6.55861e-08
-9.41365e-08
3.25805e-10
-1.66682e-05
0.000476314
8.15245e-08
-0.000371592
-2.44794e-08
-0.00180457
5.79067e-09
1.32722e-08
0.00151385
-0.000817278
1.1576e-07
2.61902e-05
-2.45115e-08
-4.20519e-10
3.5569e-09
-2.37777e-09
-1.24057e-08
1.03718e-08
6.42565e-08
-2.37974e-09
-7.07417e-07
-2.13655e-09
-7.3712e-09
-1.92632e-09
-1.31267e-07
-5.24982e-07
-3.78146e-07
1.18403e-09
-1.74953e-07
3.24825e-09
0.00183517
-5.47724e-09
8.27851e-08
4.07168e-09
-2.71249e-06
1.65675e-05
-2.21601e-07
8.31797e-10
-2.00291e-07
2.15758e-08
-2.63035e-08
-4.1848e-06
-7.53972e-09
7.44158e-09
9.41168e-10
-1.02159e-08
0.000573586
-2.7162e-09
-7.89992e-08
8.01754e-09
-1.8561e-09
3.16614e-07
7.16836e-09
2.10467e-09
1.15157e-08
-4.63709e-05
-2.75504e-08
0.00029484
-0.000431243
-2.26939e-08
0.000168927
-2.91462e-08
2.2971e-09
-2.90895e-08
0.000109334
1.24966e-08
-1.11427e-08
-1.9712e-08
-0.221791
7.07917e-09
3.53256e-06
3.84193e-08
-2.25734e-08
-3.0869e-09
-3.47712e-09
6.65586e-07
1.04621e-08
-1.92933e-10
3.18291e-08
-3.46486e-09
1.08894e-08
-2.17601e-08
-1.741e-07
1.72823e-07
0.000802783
1.54434e-08
-2.10065e-07
0.00055159
0.000143226
1.9378e-08
2.22798e-07
3.30378e-05
-5.43735e-09
0.000316894
-5.91769e-09
0.000236848
-2.02724e-06
1.41111e-09
-1.04647e-10
-3.6678e-09
1.64767e-08
3.77056e-09
-6.22934e-10
1.33079e-08
1.44522e-07
-5.55945e-09
-2.36677e-07
-0.000125119
8.20575e-08
1.87393e-08
-0.000375478
-7.64657e-09
8.1078e-05
2.10572e-08
-7.73312e-07
7.84834e-09
7.11924e-05
0.000139014
2.07829e-08
1.85739e-08
0.000109822
2.37933e-08
-8.72259e-06
8.29557e-10
-4.03804e-09
0.000408814
1.74405e-08
-3.29787e-07
-1.30548e-05
2.0626e-12
8.12074e-09
-2.34364e-08
-3.60319e-09
-6.64517e-10
0.000419791
0.000109676
-1.95196e-08
1.55188e-08
1.08777e-08
-2.89086e-08
7.13121e-07
-0.000157644
1.99265e-08
-2.95415e-06
0.000348572
-1.82509e-05
-0.00128892
1.69155e-08
2.49047e-07
2.80238e-08
-4.31165e-08
3.31681e-10
-8.85709e-08
-0.000157558
1.34217e-08
5.76657e-08
0.000922293
-6.30599e-07
3.20944e-07
-1.48173e-08
2.30253e-08
-3.23602e-10
-3.65452e-10
0.00011988
-7.25599e-08
2.21479e-08
2.07171e-08
-1.06381e-08
-6.32546e-10
1.5598e-08
-6.36906e-09
-2.009e-07
6.39918e-08
-0.000459279
1.02607e-06
-3.54449e-06
0.000144714
3.66816e-09
-5.11592e-08
1.65456e-09
-2.05778e-08
6.84493e-05
5.46088e-09
-1.86924e-08
-5.97788e-08
-2.39812e-07
-1.94885e-08
3.86224e-05
0.000122556
-1.06434e-08
-0.000134875
-2.29525e-09
-7.15539e-09
1.11462e-07
-4.59625e-10
8.17936e-09
-9.88975e-07
-0.00088444
-4.98589e-09
0.0010504
-9.10578e-10
-4.44216e-09
-1.96352e-08
-1.24915e-07
-2.74108e-08
2.01373e-08
0.000174353
-2.69132e-08
-1.20343e-05
0.000241466
-3.29706e-11
7.96504e-07
5.3097e-10
0.00016682
1.08674e-08
-2.22303e-09
0.000668887
-5.50856e-08
-2.9771e-09
-3.78426e-10
0.000131365
-2.12474e-07
-1.64281e-06
1.01429e-08
-5.93071e-08
0.000115572
-5.10932e-09
1.2417e-05
6.20641e-09
4.08056e-08
5.89192e-08
-2.4291e-11
1.64358e-05
2.54918e-09
-2.29796e-07
-3.06383e-08
-8.99782e-07
-2.74875e-08
3.67268e-08
1.9516e-08
0.000949839
1.57794e-07
9.74748e-05
6.44396e-08
-1.44793e-07
-1.28562e-08
2.79158e-09
-7.29908e-09
2.47335e-07
0.00138963
-2.89729e-09
4.77554e-09
-2.93819e-07
3.08254e-09
0.000244877
-1.61543e-08
0.00118293
-4.23375e-06
-2.05234e-08
-8.51288e-09
-5.41594e-09
2.00932e-09
-3.42113e-09
4.9608e-08
1.98532e-07
-7.44492e-07
-2.92486e-08
1.76e-09
-0.000303766
1.73865e-08
-2.13143e-08
0.000419299
-9.86794e-09
-4.97295e-05
-4.82433e-08
3.08968e-08
6.86622e-07
-0.000143608
-0.000138043
0.00155325
0.00154957
7.66128e-09
1.70766e-07
6.36881e-05
3.46895e-06
2.40262e-10
1.74266e-09
-5.33774e-07
0.000577035
9.36948e-05
5.39761e-07
4.45017e-09
-7.17969e-07
-7.3199e-09
0.000233354
2.57634e-07
-2.48276e-08
-6.33743e-07
-1.85496e-08
-2.37811e-07
1.4167e-07
5.26167e-10
1.85518e-07
-0.000132898
2.37643e-09
-0.000193299
-4.79267e-10
-5.95734e-09
-0.00017919
-0.000160126
-1.16558e-10
5.04691e-09
-2.36376e-08
-5.21046e-09
-3.20918e-08
-1.61085e-06
1.6903e-08
-3.45497e-09
1.73947e-09
2.04562e-08
-2.28164e-08
-2.55443e-08
9.58566e-05
-1.22453e-08
-0.000141363
-8.95501e-08
-0.000103251
4.53586e-08
2.78397e-08
-0.000107903
3.75267e-09
0.000436854
0.000503929
-0.00884168
7.23749e-09
0.000255725
0.000186731
2.34454e-09
-2.15009e-09
1.85074e-07
0.000156618
0.000322906
1.45116e-09
2.18673e-08
0.000158621
4.83817e-05
0.00917387
-2.94039e-08
-7.89697e-09
-5.85765e-07
2.32426e-08
0.000121984
9.39952e-07
0.000249046
7.97081e-06
-5.29048e-09
2.23016e-09
-1.2017e-09
3.0054e-08
-5.40583e-05
-8.12336e-09
2.68775e-08
6.20033e-10
-1.99301e-07
9.7135e-05
2.49208e-08
-0.00140095
1.7441e-06
2.05142e-05
1.65519e-06
-1.96129e-09
2.01062e-10
0.00130616
-2.85751e-09
-3.22913e-09
1.04768e-08
-4.81394e-08
-3.48343e-09
-3.51701e-05
3.40933e-08
-5.77685e-09
-0.000226914
-5.38452e-09
-4.60729e-09
-7.34986e-06
8.32687e-08
-7.96493e-08
1.1344e-08
-2.21611e-06
0.000162464
4.70183e-10
-0.000456999
0.000582813
8.53157e-06
2.52903e-05
2.52484e-07
1.48371e-08
-1.50637e-08
-5.56965e-05
-9.86329e-09
0.00166237
-2.16718e-09
6.09786e-05
5.13417e-05
1.0374e-08
2.07545e-09
1.79691e-08
1.88878e-08
0.000123152
8.07477e-05
1.38956e-09
5.94124e-06
-2.84317e-08
2.25508e-08
6.36923e-09
-4.2469e-09
2.66021e-07
-2.31047e-08
-3.04321e-06
-3.55581e-07
1.59762e-08
-1.04982e-09
3.60239e-06
-0.000124771
-3.95214e-09
-2.07754e-08
-8.99313e-09
-8.69058e-09
-9.14863e-09
2.18014e-08
9.93236e-05
0.00010945
0.000169269
5.3651e-10
-9.80257e-10
1.436e-08
9.84535e-08
2.4237e-09
9.64067e-09
-7.98778e-07
-1.27454e-07
0.000162548
1.90906e-09
0.00013421
0.000120833
-6.97637e-12
6.12653e-05
-3.73414e-07
1.36352e-08
6.2819e-08
1.3252e-08
6.47097e-06
6.58582e-08
1.75093e-08
6.66535e-10
-3.14162e-09
-3.31275e-05
1.28368e-08
1.07131e-08
-1.45649e-07
0.000156013
0.000156306
-5.50287e-10
7.28149e-10
-2.71112e-08
-1.52425e-08
2.41401e-07
8.6916e-09
-5.41814e-08
1.83362e-08
-0.000160057
1.72364e-08
0.000373759
7.30134e-10
-8.89603e-05
-1.98667e-08
-3.58355e-09
-1.88013e-05
2.44572e-06
-9.20413e-06
0.000173702
-3.81435e-07
-1.59289e-08
-2.70735e-09
0.000153757
-5.08869e-10
2.52169e-09
-2.87388e-07
1.00311e-07
-5.26592e-05
8.82767e-05
-1.0146e-07
-0.000751529
1.13296e-07
-0.00271925
4.57067e-09
5.27984e-09
2.04687e-08
-6.88998e-05
-1.15318e-08
8.37769e-05
2.89524e-06
1.2298e-08
-6.13705e-10
2.11255e-08
0.000307457
-6.08685e-06
1.52906e-08
3.79982e-09
-1.19814e-08
-2.46674e-08
-3.81718e-09
-0.000100299
2.25635e-07
1.64978e-09
6.97149e-06
-1.11259e-08
2.5802e-05
-6.43156e-08
-1.56397e-08
-1.98804e-08
-0.000203926
-1.18247e-09
-7.44406e-08
0.0011716
1.88206e-08
-2.96751e-08
-1.56022e-06
1.25831e-06
1.81843e-08
-3.56829e-05
-1.39726e-08
2.23254e-05
7.05301e-08
-7.31573e-09
1.9362e-08
0.000159605
3.65882e-10
-6.02917e-08
1.37292e-07
0.000141143
6.14808e-11
2.39664e-08
2.72383e-08
5.21086e-07
-3.01499e-10
0.000130047
2.32937e-08
3.01996e-09
2.62499e-09
1.47049e-09
-6.71108e-11
1.90583e-07
1.59278e-09
-3.49055e-11
2.10321e-08
-4.55273e-07
1.6269e-09
-2.37912e-08
-2.08736e-07
3.92964e-08
1.73369e-07
-1.35248e-10
3.61641e-07
2.02725e-07
-2.99146e-07
-1.41907e-08
8.29732e-07
3.0149e-07
0.00151357
5.00579e-07
-4.27979e-11
2.69109e-05
0.000875082
-2.72982e-11
-1.64459e-08
-3.01101e-09
2.36869e-05
2.05886e-07
9.90759e-09
-4.98065e-07
3.146e-05
6.94066e-10
3.64629e-10
4.89801e-05
1.84498e-05
9.46048e-08
-2.90427e-09
0.0039207
0.000140672
-4.48308e-07
-2.86826e-09
-9.23857e-05
1.48661e-07
-5.01093e-08
0.000139871
5.92447e-09
-2.8595e-09
-4.57602e-09
1.01289e-07
6.10726e-09
0.000483514
0.000126105
3.6572e-09
-0.00125101
4.89712e-07
7.68697e-05
2.55925e-10
-1.63282e-06
4.87395e-10
1.63122e-08
-0.000108424
-0.00073182
6.4353e-06
-2.46595e-05
-6.73027e-08
5.52047e-09
1.1328e-08
0.000189519
8.35895e-05
-1.60446e-09
-2.12116e-08
-2.63953e-08
3.12786e-09
-5.21315e-08
0.000284962
-0.000351393
-7.15527e-09
-1.69961e-08
1.18625e-08
-0.000163851
-2.12157e-11
-4.16086e-08
1.17656e-09
7.77246e-09
2.09429e-07
-0.000993801
-0.000442569
1.13e-06
1.87317e-10
-3.43343e-06
1.6071e-08
-1.97474e-07
0.000366757
1.39434e-05
2.33951e-09
-9.29792e-11
2.87061e-08
3.6411e-09
1.9472e-09
-8.21568e-05
-1.11729e-05
-5.96633e-09
2.81836e-09
9.5772e-11
-3.15911e-09
4.49297e-06
-3.47976e-09
0.000263857
3.59096e-08
1.59997e-07
-5.35738e-09
-1.08441e-08
0.000143588
3.28712e-09
-5.505e-07
-1.20139e-05
2.348e-08
3.25822e-05
4.52052e-08
4.09749e-07
7.28725e-08
0.000159173
8.01491e-05
6.18006e-08
7.62094e-09
-7.6648e-07
-3.97579e-09
-4.22248e-08
6.40981e-09
0.000174356
8.23807e-08
-0.0160035
-1.25788e-05
-8.003e-09
2.56162e-09
-1.81716e-07
1.82606e-08
-7.76644e-11
4.63739e-06
-2.87615e-09
7.41076e-08
-3.72069e-10
5.44732e-09
0.000293268
-2.95942e-09
9.71014e-06
1.94429e-08
-4.43006e-09
2.19076e-05
8.20188e-05
1.19192e-09
9.39938e-08
1.55989e-08
-8.8531e-08
-8.11216e-08
2.72712e-08
-7.9656e-09
9.60774e-09
-2.4139e-06
3.5207e-09
0.000443086
3.87034e-08
-1.45478e-05
2.5125e-07
1.58626e-08
-6.36604e-05
-2.99382e-09
0.000988812
-1.55385e-08
0.000155001
-0.00314302
0.00124461
-0.000464326
-8.96647e-06
3.48472e-07
9.36425e-09
0.000202139
4.56852e-08
-4.35894e-09
0.000126307
-0.000342384
1.61156e-08
2.25404e-08
-2.01716e-08
-1.98042e-08
7.74765e-09
-8.31828e-06
-1.99909e-12
3.18408e-08
1.41738e-08
-9.51694e-08
3.93161e-10
-2.39107e-07
-2.54893e-09
0.000726347
1.40155e-08
2.62468e-07
-7.64973e-09
-5.68671e-09
-1.29229e-07
-0.000759245
-1.29169e-07
6.59933e-09
-1.3691e-07
0.000482742
8.79478e-06
1.53388e-08
0.00109471
5.39182e-09
1.88516e-05
4.10974e-10
1.30134e-09
-3.42338e-05
5.92085e-08
3.37472e-05
0.000156919
-7.48061e-08
-0.00010868
1.79886e-08
-1.53271e-09
0.000152734
-6.28043e-07
-8.22179e-12
-0.000252014
-2.558e-08
1.36222e-08
1.29861e-08
2.77876e-08
-1.78918e-08
-0.000892636
0.000659076
-4.90392e-06
1.07616e-05
-8.41897e-09
-1.21377e-07
5.10524e-05
1.3548e-09
2.1715e-08
-1.70948e-07
-2.75641e-09
2.73466e-08
-3.88191e-05
7.05184e-05
-8.0199e-05
-9.56807e-08
1.62762e-08
-0.000160457
-2.57637e-09
-2.42638e-07
-9.45116e-10
2.19892e-05
-2.22029e-08
2.22968e-08
4.52591e-05
1.72755e-07
3.55558e-10
-5.05011e-08
-1.86627e-05
-1.94135e-09
-6.91046e-07
-3.72396e-09
0.000489035
0.000110283
-4.78292e-07
-8.06571e-07
-2.09994e-09
-3.02366e-06
-6.09551e-07
-4.31593e-09
-2.97885e-09
1.60276e-08
-5.5222e-11
-9.00114e-08
2.81304e-09
-2.90672e-07
8.55075e-10
-6.41669e-09
0.000267153
-8.53508e-09
-2.36905e-08
2.62217e-08
-3.94624e-10
9.36843e-05
-1.89197e-09
-3.2692e-08
-0.000159727
7.16281e-08
0.000189399
-5.959e-09
0.000170873
6.64393e-08
-0.000246826
-1.77151e-08
-7.14963e-07
1.11274e-08
-1.59678e-08
-4.90198e-07
-4.67726e-07
9.84262e-07
-4.48351e-05
5.50839e-07
-0.000521352
2.47742e-08
-5.03104e-07
1.54982e-07
-0.00210527
2.03934e-08
1.03499e-08
-1.10334e-08
-7.16048e-08
-1.2854e-07
-0.000808381
-6.55334e-08
0.00147927
-0.00098872
-2.44748e-08
2.24926e-08
-0.00159127
2.65229e-07
9.08739e-09
1.1575e-08
1.39874e-09
0.0012209
-1.00386e-08
7.85783e-05
-6.10149e-09
2.2165e-08
0.00015283
2.18439e-07
-3.89504e-09
-1.18557e-08
-1.68618e-05
3.30151e-09
4.14558e-09
9.07933e-09
-1.75449e-08
-1.82479e-08
1.83444e-08
-3.04535e-09
-1.0284e-06
2.32847e-08
2.48442e-05
9.13059e-05
8.25809e-05
8.91774e-05
1.74179e-09
-4.96813e-09
-5.00088e-08
1.59563e-08
3.42462e-07
0.000871486
-3.76193e-05
-3.2909e-09
-4.70878e-09
0.000231157
-0.000173778
-3.56831e-09
6.29308e-09
3.95861e-08
-8.01779e-05
0.000638425
-2.00307e-08
-2.20086e-08
-3.44823e-10
-4.12285e-05
-5.25729e-07
-3.96009e-07
-6.85288e-08
1.66762e-07
4.29698e-09
-6.09086e-09
3.03947e-06
1.06208e-08
-1.24346e-08
-2.4706e-08
0.000994314
2.94129e-09
6.66764e-05
3.48006e-09
-6.24367e-05
1.34169e-08
-1.1001e-07
2.35436e-09
-2.97402e-09
1.0535e-06
-0.000281126
-1.55007e-06
0.000137615
-6.32514e-05
2.02333e-08
-0.000161598
1.54562e-07
-1.00202e-09
-8.58818e-05
-7.62265e-07
-3.71059e-07
-4.53276e-10
0.000206188
6.994e-05
5.63379e-09
9.80537e-08
7.79495e-05
-3.45023e-09
2.12637e-08
-5.66138e-09
-1.96369e-08
1.88138e-08
1.26943e-07
1.45914e-05
-5.07353e-07
-1.34636e-09
-3.07497e-09
2.34147e-08
0.00169245
-2.15394e-11
-1.20951e-08
2.67769e-09
3.83521e-09
-2.09367e-09
-3.6546e-09
6.55689e-09
-2.31053e-05
-2.0686e-09
0.000145122
-7.38428e-09
-0.000285154
0.000266452
1.33135e-07
2.02718e-08
-2.24123e-11
-5.94666e-05
-3.25822e-09
-2.87431e-08
6.32181e-09
7.2171e-08
-0.00380202
-1.51656e-10
0.000143248
4.62843e-08
7.56967e-06
1.34022e-09
-1.64295e-07
-2.66609e-09
3.20066e-09
3.70061e-06
-5.62448e-06
4.2031e-06
-2.86768e-08
-1.0851e-07
-1.86169e-07
1.26202e-05
-0.000172433
5.5879e-06
-3.25158e-09
-2.53045e-09
1.39056e-06
-9.56591e-09
-1.40015e-08
8.10997e-06
-4.78434e-07
4.42414e-09
2.53756e-07
-2.4495e-07
-6.57434e-08
-1.90747e-08
-0.000146582
-4.917e-09
-3.16574e-09
2.09078e-05
-7.23033e-07
-3.01588e-09
0.000182639
3.37546e-10
3.99798e-09
2.84199e-07
-3.13965e-08
-1.74435e-05
-2.24462e-09
1.07622e-08
5.16683e-09
-4.50049e-06
5.29079e-09
-1.23053e-05
-0.000194992
0.000226639
0.000164066
-1.2962e-05
3.26369e-08
7.54425e-05
2.38286e-06
-7.00889e-10
1.50767e-08
4.04896e-07
-2.04871e-08
1.70477e-08
-0.000149883
0.000136081
0.000316795
-2.57789e-07
2.08558e-08
-4.14433e-07
8.87401e-10
7.4092e-06
2.46961e-09
2.17216e-08
-1.72793e-08
-1.89954e-08
1.18701e-08
-1.65632e-07
0.000148506
9.27095e-10
-2.43254e-08
-1.05389e-09
-5.86976e-05
-2.01802e-08
0.000110499
-4.64591e-05
1.24068e-05
3.09546e-09
1.17748e-08
-0.000175594
-1.341e-05
3.02113e-09
-3.41511e-07
-1.12343e-09
2.26983e-07
9.67478e-08
3.21201e-08
-7.10137e-08
-0.00502776
8.58859e-10
-3.70791e-10
-7.13466e-06
0.000172713
-2.12602e-08
-8.43575e-09
1.37774e-08
0.000145035
-1.35926e-08
7.75639e-10
-2.54106e-08
-1.91326e-09
-3.89855e-06
-0.000158334
-3.74803e-05
1.59594e-07
-3.04497e-05
-0.00142026
-2.66472e-09
9.82794e-09
-2.25588e-09
1.17986e-06
4.19777e-09
-4.30802e-10
-1.60254e-08
-2.67303e-09
-5.0534e-09
-5.88031e-06
1.52071e-08
5.59159e-06
7.03596e-09
-3.34121e-07
-8.01184e-09
5.12017e-07
1.73101e-11
6.61196e-09
1.48444e-08
-8.58041e-09
0.000189717
-2.06171e-09
3.40416e-06
-1.33802e-08
-6.7262e-08
5.21194e-09
-5.62931e-09
0.000190202
4.94696e-05
5.54316e-09
-1.09329e-08
-4.63404e-07
2.7312e-06
1.37063e-07
-3.4527e-05
1.82219e-08
-0.000287958
1.09854e-08
-5.03642e-10
-0.000280925
5.40557e-09
0.000545653
-1.15842e-08
-2.44255e-08
3.9181e-09
-0.000161749
0.000184277
-1.77154e-09
-4.93037e-06
-6.33218e-06
6.12017e-10
-9.81525e-09
1.33326e-09
-6.23357e-06
-0.000167563
2.74458e-08
1.56112e-08
-5.28553e-09
-2.58978e-09
2.54368e-09
-1.66887e-08
-1.41044e-09
-1.9837e-06
-7.77856e-10
-4.16064e-08
7.27656e-08
-1.29907e-08
-2.88264e-09
0.000494546
-1.82479e-07
-1.02046e-09
1.86886e-07
7.64201e-09
5.32639e-06
1.04303e-08
0.00013307
-2.63009e-09
2.17352e-08
5.75983e-08
1.50142e-07
-5.58724e-09
8.98594e-05
-3.33494e-08
3.37073e-08
-2.2693e-05
1.85597e-08
-3.963e-07
1.23522e-07
-3.52884e-07
-5.01468e-09
1.48826e-08
-3.43921e-09
1.27006e-07
-5.79086e-08
-7.25221e-08
-0.00137436
4.23959e-05
7.00411e-05
-6.76018e-10