/*--------------------------------*- C++ -*----------------------------------*\
| =========                 |                                                 |
| \\      /  F ield         | OpenFOAM: The Open Source CFD Toolbox           |
|  \\    /   O peration     | Version:  v2012                                 |
|   \\  /    A nd           | Website:  www.openfoam.com                      |
|    \\/     M anipulation  |                                                 |
\*---------------------------------------------------------------------------*/
FoamFile
{
    version     2.0;
    format      ascii;
    class       volVectorField;
    location    "400";
    object      ddtCorrDdt0(U);
}
// * * * * * * * * * * * * * * * * * * * * * * * * * * * * * * * * * * * * * //

dimensions      [0 1 -2 0 0 0 0];


internalField   nonuniform List<vector> 
13917
(
(-0.00023341 -6.42027e-05 -9.28428e-22)
(-0.000102239 4.19604e-05 -3.00658e-22)
(-0.00662085 0.00460172 -8.26371e-22)
(8.43528e-05 0.000195288 -3.74762e-22)
(-7.17858e-06 -3.65732e-05 1.18817e-21)
(2.11176e-05 -0.000796884 0)
(-0.00611023 0.00365372 0)
(-0.00603015 0.00481777 0)
(0.00175736 -0.00104231 2.55039e-22)
(-0.00016524 -2.23355e-05 8.55413e-22)
(0.00151066 0.00270259 -3.50737e-23)
(0.000578434 0.000637499 0)
(9.00876e-05 0.000195248 0)
(0.000763383 0.000351266 -2.49773e-23)
(-0.000159576 -6.93728e-05 6.56237e-22)
(-0.000166944 -3.70137e-05 -6.70492e-22)
(-0.00010757 2.23093e-05 -1.23631e-21)
(-0.000703136 9.75642e-05 0)
(0.000535964 0.00060937 5.92831e-23)
(-2.39927e-05 -1.72976e-05 -1.57672e-21)
(-1.47201e-06 -3.77802e-05 0)
(-0.00604994 0.00349869 0)
(-2.84165e-05 -9.77039e-06 -1.49414e-21)
(-0.00662831 0.0050425 -1.20349e-22)
(-3.07409e-05 -3.9302e-05 -1.46477e-22)
(-0.00686049 0.00210806 7.46728e-22)
(-4.67774e-05 -0.000354499 0)
(-0.000157894 -0.000419598 3.42201e-22)
(-0.000656823 -0.000860493 0)
(-1.28823e-05 -0.000453469 0)
(-0.000231587 -8.60251e-05 8.77617e-22)
(-0.000210623 -3.3368e-05 6.60139e-22)
(-9.27964e-05 -0.00027605 0)
(2.6938e-08 -0.000163206 -4.35079e-22)
(-2.34569e-05 -4.55794e-05 1.37649e-22)
(0.00424205 0.00335033 3.34554e-22)
(-2.77724e-05 -1.96861e-05 -1.01426e-22)
(0.00179706 0.00173594 0)
(0.000147027 0.000257978 -9.38769e-22)
(-0.0103133 -0.000301002 -1.86623e-23)
(-2.61138e-05 -2.46602e-06 0)
(-9.37461e-08 -1.24263e-05 1.29551e-22)
(-1.25266e-05 1.28907e-05 -1.99804e-21)
(-0.000237426 -0.000537129 0)
(-7.79608e-05 1.88118e-05 -1.55635e-21)
(-1.70443e-05 -0.00018442 0)
(-0.000690865 0.000133986 0)
(-0.00102267 0.000793384 0)
(-2.46286e-05 -0.000906955 -6.80705e-22)
(-1.72435e-05 1.42766e-06 1.44567e-21)
(-0.000188578 0.000218449 0)
(-2.09233e-05 -0.000176636 2.06905e-22)
(-1.03459e-05 -0.000968243 1.21684e-21)
(-1.21679e-06 -0.000166169 -4.62203e-22)
(-0.000109346 2.07164e-05 0)
(-0.000240767 5.27893e-05 -6.72703e-22)
(0.00134984 0.00271588 -3.23281e-22)
(-6.54648e-05 -0.000118932 -1.34155e-21)
(-0.00019583 1.39196e-05 5.04712e-22)
(-7.61925e-05 1.97361e-05 -9.4549e-24)
(-0.00315504 0.000991802 0)
(-0.000105235 4.36595e-05 1.29532e-23)
(0.000534413 0.000197563 6.6072e-23)
(-2.38591e-05 -1.29452e-05 0)
(-4.44768e-05 -0.000786606 0)
(-0.00148266 -0.000711399 5.3742e-22)
(9.11169e-08 -2.98537e-05 1.10334e-21)
(1.33292e-06 -3.7177e-05 1.24531e-21)
(-0.00227311 0.00248797 -6.42635e-23)
(-0.000247221 -4.24727e-05 -3.90272e-22)
(-1.01953e-05 -4.79294e-05 -1.09262e-21)
(0.00163717 -0.000883881 -1.32229e-22)
(0.00321103 -0.000986597 6.21767e-22)
(-2.81078e-05 -3.21334e-05 4.48198e-22)
(-1.74745e-05 -0.000928143 5.47436e-22)
(0.000403481 0.000228912 -6.4183e-22)
(0.00543262 -0.000124038 -2.18574e-22)
(-0.000115039 3.24135e-05 0)
(-0.00707918 0.000339982 0)
(-4.55827e-06 -7.38981e-05 1.11525e-21)
(-1.09785e-05 -7.91981e-05 1.23298e-21)
(1.46136e-06 -4.35465e-05 0)
(-2.65159e-05 -0.000845801 0)
(0.0018622 0.00200229 0)
(-0.00048314 0.000718676 -2.47897e-22)
(-0.000108129 3.14273e-05 -8.87163e-22)
(-1.61693e-05 -6.9399e-05 -1.4066e-21)
(-0.00502685 0.000472906 0)
(-0.000174567 0.000214751 1.44901e-21)
(-1.20163e-05 1.59216e-05 0)
(0.00483287 -0.000353139 0)
(-1.66033e-05 -0.000116295 -1.20232e-21)
(-6.51726e-05 5.28729e-05 0)
(-0.000102106 -8.3746e-05 -6.9661e-24)
(0.00172339 0.000380684 -5.46223e-21)
(3.38509e-05 -0.000812806 3.30988e-22)
(-0.00040282 0.00245127 -1.86697e-22)
(-0.000935942 0.00048557 -4.83707e-22)
(0.00138376 -0.000501184 -4.2268e-22)
(-0.000105034 -0.000621929 -7.62197e-22)
(-3.20318e-05 5.55916e-06 3.26792e-21)
(-3.45976e-06 -0.000248455 6.116e-22)
(-0.000207243 -0.000531694 -4.01032e-22)
(-0.000114304 8.08677e-05 0)
(-4.03489e-05 3.39046e-05 7.63694e-22)
(0.00216795 -0.00194427 2.80054e-23)
(-0.0007048 -0.000689841 5.95129e-22)
(-0.00109339 0.00078764 8.84211e-22)
(-0.000109572 2.75713e-05 0)
(-0.000220236 -7.02282e-05 6.06733e-23)
(-0.0037717 -0.000430554 6.24614e-22)
(-0.0103637 -0.000347036 -2.91536e-23)
(0.000892271 0.000502908 0)
(0.00202523 -0.00185116 -8.83546e-22)
(-1.2902e-05 -0.00016532 -2.95154e-22)
(6.78808e-05 -0.00100714 4.29904e-22)
(-3.05893e-05 -6.56001e-06 2.33591e-21)
(-4.3422e-05 -0.00091755 1.20214e-22)
(-0.00775005 0.000737588 -1.76064e-22)
(-2.37789e-05 -0.000164399 1.19309e-21)
(-4.93991e-07 -2.70731e-05 9.55489e-22)
(-0.00227373 0.00231078 9.88637e-23)
(-0.00482744 0.00103303 0)
(-0.000143529 -0.000409649 -2.62267e-22)
(-1.77397e-05 -3.83011e-07 -8.40661e-22)
(-9.964e-05 -8.83391e-05 0)
(-8.14189e-05 3.33016e-05 -2.25156e-21)
(-1.82976e-05 -3.81687e-07 1.49254e-21)
(-1.26916e-05 1.34317e-06 -9.88703e-22)
(1.81276e-06 -0.000810437 0)
(-0.00526194 0.00199104 -2.80391e-22)
(-1.09643e-05 -0.000170599 -2.36005e-22)
(-8.18342e-05 2.11149e-05 -1.33761e-21)
(-8.84791e-07 -3.01711e-05 0)
(0.000884135 -0.00301863 -1.2158e-21)
(-0.00690828 0.00511881 0)
(-0.000234682 -5.98662e-05 8.71471e-22)
(-0.000105393 -0.000620696 -2.46459e-22)
(-2.32678e-06 -2.34614e-05 -1.23978e-21)
(-1.41525e-05 -0.000164473 -6.55637e-22)
(0.00453894 0.00344231 -6.78168e-22)
(-3.60502e-05 2.08805e-05 0)
(-3.4998e-05 -0.000162204 0)
(-0.000209393 -0.000597667 0)
(-7.968e-07 -4.55738e-05 -5.66822e-22)
(0.0018148 -0.000300966 6.2603e-24)
(-0.000775945 -0.000798151 -3.12481e-22)
(-2.16384e-05 -0.00018106 0)
(-3.08107e-05 1.51619e-05 -1.71971e-21)
(-0.000213714 -3.43645e-05 -1.12665e-21)
(-0.000289662 0.00100818 0)
(4.13882e-05 -0.00100922 -1.44577e-21)
(0.000522388 0.00155699 4.59635e-22)
(-0.000304307 -7.37705e-05 -7.84735e-24)
(-0.000223833 -2.48818e-05 0)
(0.00012433 -5.4499e-05 -1.82506e-22)
(-0.000244308 -4.77205e-05 0)
(-0.00309023 0.00653505 -1.65575e-22)
(0.00550841 -9.34753e-05 -4.83201e-22)
(0.00166124 -0.0030161 -1.01355e-22)
(-7.19733e-05 -0.000129973 3.66331e-22)
(3.9468e-05 -0.000337901 4.45348e-22)
(-4.69062e-06 -6.4244e-05 -1.15114e-21)
(-0.000286603 0.00235114 -1.99862e-22)
(0.000868201 0.000568403 2.45457e-22)
(0.00139825 -0.00037659 4.44254e-22)
(-0.000112303 7.32542e-05 0)
(-0.000623218 0.000876629 8.58003e-22)
(-6.15853e-05 2.56998e-05 0)
(9.81313e-06 -0.000262048 -3.79723e-22)
(-0.000294495 -5.6291e-05 0)
(-0.00399151 0.000120859 4.55108e-22)
(0.000902206 0.000244408 0)
(-0.000121414 1.58184e-05 -8.47592e-22)
(-0.000111898 0.00232953 -1.7498e-22)
(-0.000346805 -8.87687e-05 -8.83028e-22)
(-0.00526691 0.00219594 2.39133e-22)
(-2.47353e-05 -0.000921238 4.44038e-22)
(0.00168203 0.000140841 0)
(-7.28073e-05 -1.3527e-05 0)
(1.26305e-05 -0.00015609 0)
(-0.000228278 -9.55396e-05 0)
(-3.56209e-05 1.67494e-05 9.72525e-22)
(-1.68481e-05 -6.96827e-05 1.18711e-21)
(-0.000182479 -0.000133123 -5.57107e-22)
(-0.00693341 0.00214167 -1.76024e-25)
(0.00089252 8.19311e-05 -1.55831e-21)
(-0.000103715 -5.59993e-05 1.05105e-22)
(-0.000391829 1.90335e-05 -4.63478e-22)
(0.00167755 0.000548016 8.09126e-22)
(0.00199615 0.00513962 -4.10414e-22)
(-0.00056375 0.000764838 -2.49374e-22)
(0.000404084 0.00050785 -8.68657e-22)
(-2.51616e-05 -2.63325e-05 1.27491e-21)
(-3.29334e-05 -0.000663143 0)
(-4.94409e-05 -0.000335558 -1.04528e-21)
(-2.07479e-05 5.1296e-07 0)
(-6.72272e-05 5.24138e-05 0)
(-0.000689983 -0.000517121 -3.04948e-22)
(-0.00124158 0.00291497 0)
(-3.44391e-05 0.000327842 -4.25785e-22)
(-1.78256e-05 1.40499e-06 1.86358e-21)
(-0.000480896 0.00085366 1.50889e-21)
(-0.000239232 0.000986062 0)
(0.00347765 -0.000772665 9.92167e-22)
(-0.0028285 -0.0027192 1.3918e-22)
(-2.19473e-05 -3.57667e-05 0)
(-6.66696e-05 -0.000117757 1.51018e-21)
(-0.000894548 0.000542144 1.1563e-22)
(-0.00722231 0.00348707 -3.27108e-22)
(-3.78468e-05 -0.000166999 -3.94772e-22)
(-0.00577545 0.00387524 0)
(0.00369437 -0.000465548 -3.43704e-22)
(0.00166046 0.000652318 -5.30559e-22)
(-4.23567e-05 3.18005e-05 3.68971e-22)
(-0.000300952 -0.000861581 -1.22489e-21)
(-0.000713693 0.000576538 8.74459e-22)
(-0.00294013 -0.000310663 -1.1967e-21)
(-4.22331e-05 -6.50329e-05 0)
(-0.00381812 0.000920565 0)
(-7.07438e-05 -1.92958e-05 7.19625e-22)
(-0.000256529 -0.000557413 7.36875e-22)
(-2.3967e-05 -2.64026e-06 0)
(0.00349113 0.00144324 0)
(0.00225768 -0.00225775 -4.09913e-22)
(-0.000174178 -3.69439e-05 8.57938e-22)
(-0.0011436 0.000307172 -5.12724e-23)
(-0.000231136 -2.40392e-05 0)
(-4.25557e-05 2.76486e-05 -2.60447e-21)
(0.00522863 0.00298847 0)
(0.000815277 0.000225269 0)
(-0.000391091 3.801e-05 -2.50923e-22)
(-0.0074791 0.00491762 -1.94221e-22)
(0.00363364 -0.000412641 -1.62324e-22)
(-2.51141e-05 9.44675e-06 1.54049e-21)
(-0.000215053 -3.75002e-05 0)
(0.00451185 -0.000591764 0)
(1.69454e-05 0.000338999 0)
(-6.46978e-06 -7.17433e-05 0)
(-2.64812e-05 -2.34129e-05 -1.03635e-21)
(-0.0091085 -0.00059561 -1.65842e-22)
(-0.000755918 0.00267799 -8.18664e-23)
(-7.43921e-07 -2.57742e-06 0)
(0.00446396 0.00177588 -1.19772e-21)
(-0.00123958 -0.000346789 0)
(4.57465e-05 -0.000339061 0)
(-0.000232939 -6.68536e-05 -1.65134e-21)
(-6.79575e-06 -6.80937e-05 1.14119e-21)
(-0.000345491 -0.000142994 0)
(0.00458734 -0.000296873 8.42725e-22)
(-1.27495e-05 0.000107786 8.3809e-22)
(0.000123582 -4.35352e-05 6.83626e-22)
(-0.000163068 -0.000691213 -4.17678e-22)
(-7.90365e-05 3.17901e-05 -1.74697e-21)
(-6.19442e-05 -0.000123223 1.49751e-21)
(0.000376137 0.00119611 1.00016e-21)
(-0.00943391 -0.000727928 0)
(0.000488876 0.00147817 0)
(-0.000193409 -0.000134105 0)
(-0.000167668 -6.66353e-05 -9.42176e-22)
(-6.57387e-07 -4.45796e-06 -8.03084e-23)
(-0.00512237 0.000709479 0)
(0.00400808 -0.00295643 0)
(0.00609738 -0.000455052 -1.84747e-22)
(-4.3152e-05 2.47086e-05 4.02018e-21)
(0.000633073 -0.00103913 3.62467e-22)
(0.00208022 0.00049728 0)
(-0.00391333 0.00639514 2.67753e-22)
(-0.00733689 0.000244514 5.64756e-23)
(0.000408631 0.000155387 -2.12301e-22)
(-1.03049e-05 -7.84548e-05 -1.18326e-21)
(-1.9003e-05 -1.94254e-06 2.81293e-21)
(-0.00071365 0.000215391 9.49033e-22)
(0.00473387 0.000712428 -4.26182e-22)
(-0.00199845 0.000811407 7.17569e-23)
(-0.000188494 1.77908e-05 2.06931e-21)
(-0.000703294 -0.00277784 0)
(0.000334801 0.000536199 0)
(-1.2597e-05 1.43554e-06 1.5967e-21)
(0.00103228 -0.00108831 -4.78836e-22)
(-2.33895e-05 -4.82334e-06 7.56586e-24)
(-0.000411291 0.0023993 -2.311e-23)
(-2.69644e-05 0.000314745 3.68225e-22)
(-1.29812e-06 -2.71034e-06 2.14728e-22)
(-0.000196557 -4.80589e-05 0)
(-0.000310985 -7.43302e-05 -4.51965e-25)
(3.82588e-05 -0.000336994 0)
(0.00487581 0.00211054 9.7558e-22)
(-0.000248906 -8.439e-05 1.11898e-21)
(-4.50394e-05 6.81409e-05 1.25819e-21)
(-0.000480421 -0.00262614 0)
(-0.00745841 0.00503187 2.17904e-22)
(0.00365257 -0.00286918 0)
(-3.93649e-05 -6.01678e-05 1.22634e-21)
(-0.00307288 0.00569631 0)
(-1.32953e-06 -0.000120548 0)
(-4.1578e-05 7.50076e-05 4.46403e-21)
(-2.93299e-05 1.21835e-07 -2.64144e-21)
(-0.000850636 -0.000865279 3.49667e-22)
(-1.92949e-05 -3.25706e-06 0)
(-0.000226961 -0.000603966 7.8051e-22)
(-0.000232489 -6.4053e-05 1.40611e-21)
(-5.81183e-05 2.3046e-05 2.07867e-21)
(-0.000457142 0.000925124 -1.89826e-21)
(-0.000144856 1.90657e-05 1.72072e-21)
(-4.37289e-05 -0.000920862 1.01642e-22)
(-0.000334017 -8.98968e-05 5.35232e-22)
(-5.03063e-05 -0.000128005 -5.67167e-22)
(-4.30722e-05 1.00096e-05 -3.44652e-21)
(-5.95847e-05 -0.000121746 -2.1802e-21)
(-0.0038928 -0.00024649 3.48846e-22)
(-0.00331394 0.000953528 -5.1134e-22)
(-3.19408e-05 -1.45199e-05 5.5483e-22)
(-2.12052e-05 -2.47857e-06 -8.46394e-22)
(0.000841405 -0.00110861 0)
(-7.03939e-05 1.73009e-05 -1.23457e-21)
(0.00325611 -0.00108024 -1.18403e-21)
(-4.20334e-05 1.12913e-05 1.2313e-21)
(0.00351313 0.00154957 -8.54313e-23)
(3.6904e-05 0.000150809 -3.99765e-21)
(-0.000745358 0.000504499 5.74077e-22)
(-0.00026597 0.000402117 -2.7588e-21)
(-3.07286e-05 -0.0009537 -1.0867e-21)
(-7.29037e-05 -0.000128483 -6.6942e-22)
(0.00193509 -0.00305767 -4.27435e-24)
(-0.000246273 -0.000799182 0)
(-0.000190026 -4.28268e-05 0)
(-0.000900913 0.00258777 -3.87916e-22)
(-0.000934363 -0.000518103 0)
(-9.317e-05 -6.13652e-05 0)
(-0.00236815 0.0020712 0)
(7.86048e-07 -0.000624854 0)
(0.00241062 0.000692064 8.02717e-24)
(-3.49333e-05 -0.000153028 8.63749e-22)
(-0.0107911 0.000160454 0)
(-0.000219798 -4.05103e-05 1.32485e-21)
(-0.00263453 0.000966073 -6.43301e-22)
(-0.000223433 -0.00077343 0)
(-0.000588577 -0.000335106 -6.85481e-22)
(-0.000584551 -0.000311937 6.43662e-22)
(-0.00579163 0.00446331 5.00542e-22)
(-7.10137e-06 -9.66006e-05 -6.78102e-22)
(-0.000300001 -4.75845e-05 -8.60565e-22)
(-0.00372739 -0.000451382 -5.80991e-22)
(-5.76242e-05 -0.000139598 0)
(-0.000140444 -9.69913e-06 1.34493e-21)
(0.00116523 0.000634697 6.94263e-23)
(-0.00070489 -0.000584029 0)
(-0.000119839 2.73528e-05 2.87602e-22)
(0.00158348 0.00510991 0)
(-0.000592038 -0.00084939 0)
(-3.11108e-05 -9.47476e-06 0)
(-0.00766862 0.000497533 1.82224e-22)
(0.00424464 0.00430239 8.27432e-22)
(-2.41687e-05 -1.4029e-06 1.69099e-21)
(-4.15854e-05 -3.79493e-05 0)
(2.16644e-06 -0.000124239 -2.91006e-23)
(-2.9873e-05 1.19119e-05 1.93256e-21)
(-0.00104099 -0.00271394 -2.86012e-22)
(0.00119321 0.000884475 -4.14418e-22)
(0.000280444 -0.000835887 0)
(-0.00384151 -0.000277871 -3.05711e-22)
(-2.98256e-05 -1.80832e-05 -7.82307e-24)
(0.000176801 -3.53699e-05 -1.20438e-21)
(0.000274367 -9.4158e-06 4.57814e-25)
(-0.000350084 0.000626176 -2.2347e-22)
(-0.0056946 0.00372123 0)
(0.00464445 0.000858014 -4.17213e-22)
(0.00206671 -0.00216646 1.31556e-21)
(-2.70447e-05 1.94913e-05 -1.32982e-21)
(0.00521065 -0.000408533 -3.46589e-22)
(-4.33832e-05 -2.44312e-05 0)
(-0.00323984 8.85832e-05 3.2975e-22)
(-7.66036e-05 2.21155e-05 1.61509e-21)
(-3.36021e-05 -0.00101225 5.66175e-22)
(-0.00120076 -0.000430921 2.10729e-22)
(5.62787e-05 0.000278591 2.67435e-21)
(-9.13065e-06 -0.00010638 3.7816e-22)
(-0.000825268 0.000551046 -1.86463e-21)
(5.09931e-05 -0.000151443 0)
(-0.00107126 8.70089e-05 0)
(-0.000347546 -0.00168741 1.75079e-22)
(-0.00283346 0.000834137 -6.9554e-22)
(-0.00301246 -0.000303068 1.46819e-21)
(-0.000363311 -0.000137331 0)
(-0.000179891 -3.46367e-05 -2.12594e-21)
(-2.5192e-05 -1.88977e-05 0)
(-3.63711e-05 0.000398069 0)
(-0.00635794 0.00302191 8.42514e-22)
(-7.69387e-05 -8.84124e-05 8.99976e-22)
(-0.000905005 -0.00278451 -4.35952e-23)
(-2.46341e-05 3.3798e-06 0)
(-0.00231354 -0.00191351 1.15211e-22)
(3.34291e-05 0.000155585 2.81342e-21)
(-5.09408e-06 -8.79098e-05 0)
(-0.0001453 1.9982e-05 0)
(-0.00603917 -0.00188585 -2.75154e-22)
(-0.000143448 2.20008e-05 0)
(-0.00927946 -0.000888179 -3.52104e-22)
(9.90388e-05 0.000116903 1.76e-23)
(0.00173378 0.00191118 -1.07274e-21)
(-0.000181999 -0.00085045 0)
(-9.29266e-05 -5.75498e-05 -5.70598e-22)
(-0.000259766 -0.000853267 1.01244e-21)
(-0.000207663 -0.000848837 -6.14113e-22)
(-2.76643e-05 1.38333e-05 -8.15943e-22)
(-0.000671367 -0.000630082 -5.54667e-22)
(-5.79777e-05 -0.000145189 -1.31298e-23)
(-2.33863e-05 -2.07746e-05 -1.54327e-22)
(4.56265e-06 -0.00040106 0)
(-1.28078e-06 -7.01282e-06 0)
(-2.88275e-05 -4.3943e-05 -4.23088e-22)
(-4.32969e-05 -2.15205e-05 0)
(-0.000537923 -0.00203136 2.75615e-22)
(-3.35653e-06 -6.06818e-05 7.62282e-23)
(-0.0105697 0.000247814 0)
(-0.00496628 -0.00162586 0)
(0.000281017 4.39896e-05 0)
(0.000330106 0.000488931 3.03441e-22)
(-0.00985888 -0.000216404 7.65956e-23)
(-0.00168338 -0.000485101 0)
(-0.000306907 0.000629959 4.49802e-22)
(-3.03175e-05 -8.99689e-06 0)
(-0.00131628 -0.00134353 -6.78378e-23)
(0.000135459 0.000253382 7.89263e-22)
(-0.000221422 -4.52935e-05 1.30999e-21)
(-2.59938e-05 -1.44036e-05 1.47049e-21)
(0.00138483 0.000381029 3.9721e-22)
(-0.00661447 0.0033878 3.64139e-22)
(-0.00415396 -0.00186971 -6.40049e-23)
(-0.000149716 -4.52691e-05 -2.57653e-24)
(-0.00151743 -0.000307409 -2.05041e-22)
(-2.65936e-05 -0.000151364 -1.33991e-21)
(0.000155131 0.000270464 -1.70124e-21)
(-0.00106678 0.000150802 0)
(-0.000134132 2.21335e-05 -2.05031e-21)
(0.0052489 -0.00104728 0)
(-0.000107817 3.166e-05 0)
(-1.8773e-05 -3.71752e-06 1.5578e-21)
(0.00294488 -0.00131141 0)
(-0.00580933 0.00204156 0)
(-0.00577183 0.00218786 -1.25905e-22)
(-0.000181139 0.000259775 -8.76725e-22)
(0.000374086 3.09373e-05 0)
(-0.00217292 0.00241843 0)
(-0.00219549 -0.00147558 0)
(0.00520019 0.000269041 0)
(-1.20611e-05 1.15692e-06 1.74791e-21)
(-0.000808174 0.000361317 -1.59703e-23)
(-0.000135374 1.81255e-05 2.08583e-21)
(-6.83792e-05 -0.000123465 0)
(-0.00387373 -0.00274443 6.95892e-23)
(-0.000729281 0.000174572 -1.08767e-21)
(4.56822e-06 4.08545e-06 0)
(-0.000527884 -0.000278998 0)
(-0.000342035 0.00052287 -9.6687e-22)
(0.00483485 0.000269947 4.47366e-22)
(-2.8254e-05 1.40741e-05 -1.02876e-21)
(-0.00141763 0.00179277 -5.69546e-22)
(3.2522e-05 -0.000206911 -1.24118e-22)
(-0.000891051 0.000636001 3.51957e-22)
(-0.00983326 0.000514022 -6.48908e-22)
(-2.49987e-06 -5.42902e-05 6.3487e-22)
(-7.39046e-05 -9.49592e-05 -1.15429e-22)
(-2.67286e-05 1.51074e-06 -4.63529e-22)
(-0.000248213 -4.65392e-05 5.24429e-23)
(-2.56941e-05 1.89358e-05 3.32263e-21)
(-0.00691899 0.00144709 -3.63976e-22)
(0.000225164 -0.000832463 4.121e-22)
(-0.000241419 -7.34661e-05 -9.65588e-22)
(9.19438e-06 0.000203856 0)
(-0.000235027 6.38964e-05 1.30437e-21)
(-0.00011911 0.00241704 0)
(-0.0021624 -0.00166153 -3.2113e-22)
(-0.000783166 -0.00076389 -2.3846e-22)
(0.00169591 0.00174294 9.177e-22)
(0.00481961 0.00379184 8.79167e-22)
(-0.00138563 0.00191311 4.78971e-22)
(-0.000371814 -0.000277937 1.19203e-21)
(-0.0019647 -0.000928753 0)
(0.000150735 0.000714285 1.08994e-21)
(0.00242183 0.00110104 -6.14581e-22)
(-4.40631e-05 -0.000810927 0)
(0.000315035 0.000674605 -1.24812e-21)
(-0.001122 0.00109007 2.48365e-22)
(-1.22663e-05 2.53568e-06 2.03661e-21)
(-0.000888924 -0.00290248 0)
(-0.000217821 0.00020338 1.34081e-21)
(-1.24539e-05 6.04063e-05 -2.60727e-23)
(-0.000243773 -4.79646e-05 0)
(-0.000116924 4.388e-05 -8.70612e-22)
(0.00501008 0.000342711 0)
(0.00196338 -0.00169678 0)
(-6.95826e-05 1.04364e-05 8.35249e-22)
(-1.18231e-05 1.18844e-06 5.57529e-22)
(-0.00773967 0.00294142 -3.67916e-22)
(-0.00174836 -0.000453724 0)
(-1.12397e-06 -5.29076e-06 1.10798e-21)
(-0.0101683 0.000361487 6.56565e-22)
(-3.23602e-05 0.000165401 -2.81882e-21)
(0.000367282 0.000257866 2.51079e-22)
(-7.22662e-05 3.728e-06 -5.99829e-22)
(0.00226936 -0.000860531 2.83308e-22)
(-0.00254179 0.003071 0)
(-0.000213895 -3.65129e-05 1.15397e-21)
(-0.000108789 3.43897e-05 -1.90616e-21)
(-0.00945046 -0.000189833 -1.94698e-22)
(0.000693423 1.64533e-05 1.06836e-21)
(0.000279248 5.86267e-05 0)
(-8.44916e-07 -6.11366e-06 0)
(0.00405476 -0.000445804 7.63894e-22)
(-2.2102e-06 -0.000939305 -5.92062e-22)
(0.000377446 -0.000949598 8.80734e-23)
(-1.48273e-05 5.64842e-05 -4.71283e-21)
(-0.000423144 0.000674772 -6.55471e-23)
(0.00128477 -0.00266755 0)
(-0.000268519 0.000667077 1.7735e-21)
(-4.29164e-05 -3.36708e-05 1.84285e-21)
(-0.000106967 1.1828e-06 0)
(0.000226272 0.000214578 -8.26068e-22)
(-0.00313065 -0.00216371 4.42645e-23)
(6.62244e-06 5.46473e-06 -6.84776e-22)
(-3.92723e-05 -3.90076e-05 1.09168e-21)
(-1.76554e-05 -2.19121e-06 1.80503e-21)
(-1.84426e-05 -3.61631e-06 0)
(0.000936261 -0.000828439 -2.51746e-22)
(-0.00367388 -0.00271672 -4.89528e-23)
(-0.000283469 0.000644228 -1.77387e-21)
(0.000755713 -0.000149927 -1.21545e-23)
(-2.12452e-05 -1.83472e-06 -2.73992e-21)
(-3.13323e-05 2.14075e-06 -2.79064e-21)
(-0.0015244 -0.0001927 1.07331e-22)
(0.000853467 -0.00275231 -3.67545e-23)
(-0.000321008 -1.4331e-05 0)
(-6.4115e-05 2.31908e-05 0)
(-2.73258e-05 -2.34688e-05 0)
(-2.89949e-07 4.41076e-06 1.34482e-21)
(0.000527069 -0.000777031 9.33791e-22)
(-0.000798964 0.000907153 4.98143e-22)
(-1.67147e-05 -6.01665e-05 0)
(-6.67787e-06 5.01054e-06 9.20925e-22)
(0.00502287 -0.000760454 -1.68072e-22)
(0.000116294 0.00070725 -1.02757e-21)
(-0.000250653 0.000416704 -5.35821e-22)
(-7.41155e-05 -0.000103072 1.60956e-21)
(-0.000144516 1.87124e-05 9.69777e-22)
(-0.000201651 -2.4101e-05 2.88626e-22)
(-0.00103472 0.00113729 1.48674e-23)
(-0.000874319 -0.000477072 0)
(0.000844627 -3.08063e-05 1.22674e-21)
(-0.00146044 -0.00139286 4.49899e-22)
(-0.00164591 0.000482776 0)
(-0.00192643 -0.0026596 -1.047e-23)
(-6.11118e-05 -0.000160677 -7.36956e-22)
(-3.74671e-05 -5.18678e-05 -1.24971e-21)
(0.00436654 -0.000433589 -7.46351e-22)
(1.46833e-06 3.85687e-06 -8.34863e-22)
(-0.000144219 -9.79346e-06 -1.59058e-21)
(-1.292e-05 0.000256773 9.24578e-23)
(-0.00173724 -0.00335226 -2.10187e-22)
(-0.000514639 -0.000162115 0)
(-2.61464e-05 1.06806e-07 0)
(-0.000821406 0.00064557 0)
(2.40089e-05 -0.000580667 0)
(0.000276236 3.63047e-05 5.75604e-23)
(-0.00161038 0.000386168 4.32819e-22)
(-0.000204016 -0.000228228 1.39783e-24)
(-0.000380682 0.000552928 -8.48119e-22)
(-1.01394e-05 -0.000107908 -7.93137e-22)
(0.00307542 -0.00285627 0)
(-0.000727132 0.000585696 -6.65533e-22)
(-0.00270479 0.00386747 0)
(-0.000105189 3.1321e-05 0)
(-0.000288232 4.27807e-05 2.0165e-21)
(0.000790007 -0.000195663 0)
(0.00471043 0.00081996 9.35806e-22)
(0.000561145 -0.000109426 4.23818e-22)
(-0.00100594 0.000514314 1.53584e-23)
(-0.00016569 0.000306963 -1.2016e-22)
(-0.000158519 -4.02543e-05 1.95076e-22)
(-0.000174373 -2.63677e-06 1.51552e-22)
(-7.01609e-05 -0.000105269 9.03706e-22)
(-0.00035193 -0.000293671 0)
(-0.000197082 -0.000569743 0)
(6.45017e-06 -0.00017396 0)
(-0.000666227 0.00061382 0)
(-0.000117716 -0.000671315 1.02029e-21)
(-0.00268464 0.00397293 -9.00772e-23)
(0.000257397 4.59177e-05 0)
(-0.000162132 4.62406e-06 -4.54556e-22)
(-1.4405e-05 0.00232694 -2.92023e-23)
(-0.00392909 0.0038624 0)
(-0.000207985 -5.1792e-05 6.02006e-22)
(-4.50159e-05 -0.000162784 8.16965e-22)
(-0.000106677 -0.00110201 0)
(0.00391948 -0.00252375 -3.81211e-22)
(0.0003928 0.00100033 -4.39086e-22)
(0.000938427 -0.000385756 -1.48562e-21)
(-1.28571e-05 1.35945e-06 0)
(-0.00723856 0.000684094 -1.99519e-22)
(0.000323625 0.000241893 8.08101e-22)
(-2.58046e-05 -3.75346e-07 0)
(-0.00026046 -5.38884e-05 -3.97822e-22)
(-0.000392647 0.00147537 0)
(-9.65461e-05 -0.000260814 -4.99954e-22)
(-6.60577e-05 -0.000466079 3.39011e-22)
(-0.00717669 0.00069264 0)
(-0.00197169 -0.000780911 1.28972e-22)
(8.81389e-05 0.000617201 1.36807e-21)
(0.00309877 -0.00294188 0)
(-0.000136542 3.04467e-05 5.89055e-22)
(0.00527291 0.00020377 7.24751e-23)
(-6.84831e-06 -6.73881e-05 0)
(-1.64867e-05 -5.84208e-05 5.95584e-23)
(-0.00337089 0.00577628 2.31108e-22)
(0.00370992 -0.00248457 2.63758e-22)
(-0.000102277 -0.000859868 6.54109e-22)
(-0.000134217 3.54667e-05 -6.27498e-22)
(-0.00012028 2.01666e-05 1.38556e-21)
(-7.85565e-06 4.57907e-06 -1.30273e-21)
(0.000329119 0.000544815 7.4279e-22)
(-2.45344e-05 -0.000935295 -6.38412e-22)
(0.00125718 -0.00030837 -4.23801e-22)
(-0.00017892 -4.94181e-06 1.54433e-22)
(0.00154029 0.00167241 -5.28244e-22)
(-0.000774404 0.00059477 8.71202e-22)
(-7.30477e-05 4.94387e-06 -2.15541e-21)
(-0.0013527 9.35339e-06 -6.26536e-22)
(0.00109683 -0.000347308 3.10675e-22)
(0.00374221 -0.00291256 2.9605e-22)
(-5.35413e-05 -7.23888e-05 0)
(-0.00209962 -0.000537884 -9.21344e-23)
(-0.000119291 3.55756e-05 -1.27526e-22)
(-2.43858e-05 7.20618e-05 7.70453e-23)
(-0.000146983 -3.29865e-05 -8.29606e-22)
(-0.000503025 -0.000138322 0)
(-0.000292309 3.55013e-05 -1.86397e-21)
(-2.59899e-05 -8.61598e-06 -1.94098e-21)
(-2.28838e-05 2.32889e-05 1.12481e-21)
(-8.42457e-05 3.07867e-05 1.54039e-21)
(-0.000620422 -0.000262336 6.6496e-22)
(-3.11595e-05 -0.000188719 0)
(0.000210892 -0.00172595 -7.78491e-22)
(-0.000494851 -0.0013006 -2.28282e-23)
(-0.000648012 0.000804777 -9.05961e-22)
(-2.9689e-05 -1.26189e-05 0)
(-0.00164867 -0.000971075 0)
(-0.000136984 -0.000876777 0)
(0.00238681 0.0044261 -8.39876e-22)
(-1.53091e-05 0.000101074 0)
(-4.74277e-05 -0.000170492 -2.50329e-22)
(-3.78309e-05 -4.14637e-05 -5.77783e-24)
(0.000120895 0.000416079 0)
(-0.000203453 1.87147e-05 0)
(0.00103347 -0.00273691 -8.98544e-23)
(-5.49865e-06 -8.30118e-05 0)
(-0.00159671 0.000621509 2.79207e-21)
(8.05361e-05 0.000418522 0)
(0.00165112 0.0024989 1.53697e-22)
(-3.26013e-05 -4.50286e-05 -3.38056e-22)
(0.0025666 -0.00106109 -7.54527e-22)
(-0.000506907 -9.48084e-05 7.06321e-22)
(-0.000103884 -2.83315e-06 3.08108e-22)
(0.00515941 0.000438155 4.80313e-22)
(0.000801678 -0.000249402 -1.93824e-22)
(-8.58525e-05 -4.12057e-05 0)
(-3.61113e-06 0.000254284 3.65142e-22)
(-0.00230647 0.00169167 -1.27598e-21)
(0.000737186 -0.000379497 0)
(-0.0018934 0.00090382 -1.30291e-22)
(-3.14956e-06 -7.97872e-06 1.36291e-21)
(-0.000110265 3.13413e-05 0)
(-0.000688759 0.000453855 0)
(6.22212e-05 0.000284674 -3.58935e-21)
(-0.00101811 2.91605e-05 0)
(0.000324145 0.00113966 0)
(-2.27439e-05 2.73693e-05 1.54665e-21)
(-0.000138858 0.00100791 0)
(-0.00665458 0.00469784 4.46417e-22)
(-7.08573e-06 0.000109627 1.79943e-21)
(5.32747e-05 0.000186273 0)
(-1.69006e-05 2.69666e-07 -1.60039e-21)
(-0.00368586 0.000862404 -2.76421e-22)
(-1.07231e-06 -4.02967e-05 -1.35929e-22)
(-0.000148284 -4.44907e-05 -2.76468e-24)
(-0.00395072 0.000147657 4.44034e-22)
(-0.000131652 -1.97386e-05 -7.78129e-22)
(0.00378031 -0.00226074 -2.51521e-22)
(-0.000221461 -2.73251e-05 -1.44915e-22)
(-0.000104692 -0.00027821 8.52274e-22)
(-1.75508e-05 -8.72134e-07 -2.71344e-21)
(-0.000366623 -8.49698e-05 1.05411e-21)
(-2.90014e-05 7.15959e-06 1.44306e-21)
(-0.000317214 -0.000260023 -2.53626e-22)
(-2.40488e-05 -4.73279e-06 0)
(-0.000470956 3.46938e-05 -7.63083e-22)
(-3.47338e-05 0.000160139 0)
(-0.000431259 -0.000298425 1.74836e-22)
(-0.000373747 -0.00119715 -2.87582e-22)
(0.000784626 -0.0027547 4.4048e-23)
(-2.92487e-05 1.67199e-06 -3.89241e-22)
(-8.04333e-06 -0.00010439 6.06018e-22)
(-9.13574e-05 -0.000165065 7.06269e-22)
(-0.000212972 -0.000102979 -1.93976e-24)
(0.000389549 0.00079669 -2.00923e-22)
(0.00170888 -0.00244086 -4.37058e-22)
(-0.000682318 5.30236e-05 9.70343e-22)
(-2.17045e-05 -2.33654e-05 0)
(-0.000594304 -0.00193555 2.38763e-22)
(-8.61179e-05 -0.000883364 -1.37583e-21)
(0.00378243 -0.00251448 -2.69403e-22)
(0.000349124 -0.00160478 9.74411e-22)
(-0.000675422 0.00030797 1.00027e-21)
(-0.00661652 -0.000543478 2.9657e-22)
(-0.000242725 -5.2182e-05 -4.79335e-22)
(0.000331476 0.000531091 1.28429e-21)
(-0.000929068 -0.00116411 3.43145e-22)
(-0.0006545 -0.000510268 -3.3768e-22)
(-0.000647992 4.30582e-05 -6.8607e-22)
(-0.000147457 -0.000882947 8.7705e-22)
(-0.000601915 -2.22236e-05 4.28733e-22)
(4.1629e-05 0.000226118 -1.51497e-21)
(-0.0004331 0.00155709 -4.6493e-22)
(-0.000192653 -3.92754e-05 6.81839e-22)
(-1.82677e-05 6.31427e-05 5.99415e-21)
(0.000109947 0.00041732 5.17538e-22)
(-0.000221031 -7.83187e-05 9.86095e-22)
(-0.000208029 -3.09326e-05 4.57742e-24)
(-2.79543e-05 8.08441e-06 0)
(-2.0748e-05 -1.61418e-06 0)
(-0.000721143 0.00071089 8.57591e-22)
(-7.6979e-05 0.000149859 -2.16527e-21)
(-0.00104066 -2.70323e-05 6.22952e-23)
(-2.36465e-05 -1.50588e-05 0)
(-2.04507e-05 8.17161e-06 0)
(-2.9339e-07 -3.25347e-05 -9.18698e-24)
(-0.000143289 2.18495e-05 5.76807e-23)
(-1.43516e-06 4.32474e-05 -2.82052e-21)
(-0.000192587 -1.93204e-05 1.12393e-21)
(-1.78616e-05 3.12675e-06 4.31439e-22)
(0.00207162 -0.000778039 0)
(0.000509778 0.00053117 0)
(0.000280836 -0.000795202 1.0116e-22)
(-2.85023e-05 1.40602e-05 5.07619e-22)
(-3.24284e-06 -4.24749e-05 -1.44443e-21)
(-0.00019747 -0.00037084 5.36292e-22)
(-0.000389653 -0.000299775 -1.378e-21)
(-9.04142e-06 -0.00017418 0)
(0.00138584 -0.00117558 9.09888e-22)
(-0.000253217 9.03632e-05 1.38996e-21)
(-0.0041405 -0.000274707 -3.66324e-22)
(9.39421e-05 0.000423979 -6.7099e-22)
(-0.00167721 -0.000494441 1.90109e-22)
(-7.3886e-05 6.74023e-05 1.20887e-21)
(1.09623e-06 -3.17891e-05 -1.15766e-21)
(-1.85301e-05 -4.38753e-06 0)
(-0.000144925 2.18931e-05 -2.68422e-21)
(-0.00277339 0.000252251 -8.57297e-22)
(-2.30038e-06 -3.51195e-05 2.06716e-21)
(0.00309227 -0.00215835 -7.99393e-23)
(-0.000193214 -2.11161e-05 0)
(0.000248548 -6.59891e-06 2.019e-23)
(-0.000381154 -0.000169883 9.94778e-22)
(-0.000230596 9.87706e-05 -7.78615e-22)
(0.00168009 0.00238619 7.58243e-23)
(-1.98225e-05 2.49511e-06 0)
(-2.50671e-08 -7.04813e-07 0)
(0.00054548 0.000542512 0)
(-9.97023e-06 -3.69633e-05 0)
(-8.97575e-05 -9.20804e-05 -5.1455e-22)
(0.00234933 -0.00174731 0)
(-0.000125894 1.67926e-05 -7.53262e-22)
(-5.21109e-06 -0.000121268 -2.57452e-22)
(-0.000247488 -7.26901e-06 -1.63144e-21)
(-2.49185e-05 -2.144e-05 9.57161e-22)
(-1.14397e-05 1.64637e-06 -1.29411e-21)
(-0.000210851 -3.28956e-05 -6.26616e-22)
(3.66599e-05 -0.000189163 0)
(9.42882e-05 0.000508287 -1.64948e-22)
(-0.000230583 -5.77374e-05 9.56299e-23)
(-4.02647e-06 0.00011099 2.15431e-21)
(-2.5996e-05 -1.8054e-06 0)
(0.00449888 0.000915533 -4.72103e-22)
(-0.000624955 -0.00029312 0)
(-9.39873e-05 -4.35124e-05 9.74499e-22)
(-0.000102758 3.23582e-05 -6.85859e-22)
(0.00178128 -0.00147818 -1.39206e-21)
(-0.00304204 0.00214805 -4.61726e-22)
(-0.00379532 -0.000150759 1.09124e-21)
(-0.000210233 -0.000215277 0)
(3.38874e-05 0.000231064 7.91722e-22)
(-2.61332e-05 9.01239e-06 -1.10782e-21)
(-1.22059e-05 1.1747e-06 2.64414e-21)
(0.000318387 0.000700918 1.69631e-23)
(-0.000231162 -6.0893e-05 -4.93061e-23)
(0.000267171 0.00461176 -1.66486e-22)
(-3.24452e-05 -0.00015221 0)
(-0.00220315 0.00176831 -4.20022e-22)
(-0.000108718 4.50274e-05 2.41128e-21)
(-0.000105289 -8.43325e-05 -7.38934e-22)
(-0.00391208 -4.28981e-05 -1.22329e-21)
(-2.23194e-05 4.41684e-06 0)
(-0.000218046 0.00022252 -1.54899e-21)
(-7.7157e-05 -6.35977e-05 -1.28963e-21)
(-2.02072e-05 -1.04591e-06 -1.8593e-21)
(-0.000226501 -6.59015e-05 1.20694e-22)