/*--------------------------------*- C++ -*----------------------------------*\
| =========                 |                                                 |
| \\      /  F ield         | OpenFOAM: The Open Source CFD Toolbox           |
|  \\    /   O peration     | Version:  v2012                                 |
|   \\  /    A nd           | Website:  www.openfoam.com                      |
|    \\/     M anipulation  |                                                 |
\*---------------------------------------------------------------------------*/
FoamFile
{
    version     2.0;
    format      ascii;
    class       volScalarField;
    location    "400";
    object      k;
}
// * * * * * * * * * * * * * * * * * * * * * * * * * * * * * * * * * * * * * //

dimensions      [0 2 -2 0 0 0 0];


internalField   nonuniform List<scalar> 
13917
(
0.000165868
0.000148639
0.0604389
0.000153407
0.000148418
0.000196602
0.0583546
0.0627119
0.0785564
0.000174818
0.000208932
0.000185699
0.00015358
0.0158487
0.000154586
0.000153502
0.000149017
0.000176213
0.00018522
0.000148448
0.000149724
0.0579435
0.000148293
0.0599015
0.00014777
0.0538128
0.000161764
0.000164824
0.000213747
0.00018627
0.000167642
0.000157223
0.000160096
0.000153828
0.000147918
9.20267e-05
0.000148364
0.0460812
0.000156823
0.0191014
0.000146928
0.000149881
0.000144285
0.000169184
0.000148484
0.000155341
0.000175873
0.000184214
0.000395547
0.000147665
0.000157833
0.000149254
0.000458749
0.000154173
0.00014907
0.000157229
0.000208325
0.000148065
0.000154588
0.000148284
0.0833665
0.000148655
0.00791024
0.000148354
0.000195109
0.0286709
0.000148389
0.000148067
0.000209747
0.000163225
0.000148476
0.0778248
0.0436437
0.00014779
0.000407656
0.000189763
0.0313094
0.000150648
0.0497248
0.000149475
0.000149208
0.000148444
0.000192912
0.0503329
0.0458135
0.000150419
0.000149007
0.0107939
0.00015747
0.000144232
0.0482916
0.000181346
0.000147166
0.000150575
0.0182659
0.000192511
0.000199317
0.00018185
0.000204674
0.000171391
0.000146097
0.000158431
0.000169016
0.000151742
0.000146079
0.079729
0.000198006
0.000185261
0.000149048
0.000168867
0.0479122
0.0208819
0.000192031
0.079654
0.000150525
0.000430422
0.000147662
0.000267549
0.0266935
0.000154137
0.000149783
0.000208257
0.0300165
0.000164103
0.000147399
0.000150279
0.000148256
0.000147467
0.000144402
0.000194955
0.0430724
0.000150365
0.000148576
0.000149786
0.00479411
0.0586505
0.000166045
0.000172307
0.000148332
0.000153992
8.97187e-05
0.000146106
0.000149775
0.00017155
0.000148078
0.0695006
0.000217505
0.000149114
0.000145799
0.000157678
0.000179718
0.000436772
0.000191983
0.000164096
0.000156889
0.0239643
0.000162265
0.00641556
0.0255453
0.00570758
0.000152342
0.000162085
0.000149475
0.000198228
0.000191491
0.000204055
0.000151664
0.000180868
0.000147594
0.000158933
0.00016481
0.0258764
0.000194467
0.000149839
0.0541876
0.0001654
0.0455421
0.000309827
0.0644069
0.000147319
0.000182561
0.000168565
0.000146064
0.000148933
0.000157685
0.0535816
0.000222019
0.0298943
0.000165814
0.000201983
8.00694e-05
0.0506119
0.00021778
0.000148377
0.000173367
0.000161358
0.000153864
0.000147251
0.000184372
0.00139777
0.000157465
0.00014779
0.000178959
0.000179442
0.0382216
0.00163541
0.000147918
0.000148148
0.000181425
0.0560432
0.000149559
0.0591728
0.0280112
0.000202065
0.00014612
0.000204082
0.000178199
0.0292858
0.000147388
0.0790582
0.000147256
0.000185211
0.000146759
0.0492309
0.0805964
0.000153857
0.00041891
0.000157266
0.000146153
0.000103672
0.000193856
0.000165599
0.0569805
0.0229792
0.000145722
0.000157736
0.0530979
0.0350664
0.00014941
0.000147144
0.0210055
0.000202755
0.00014972
0.000152129
0.000189647
0.000161574
0.00016449
0.000149409
0.000164623
0.025667
0.000148286
0.000187066
0.000175288
0.000148143
0.000148016
0.000186192
0.027352
0.000190406
0.000157895
0.000154767
0.000149758
0.0246229
0.0780392
6.74753e-05
0.000146195
0.041006
0.0247021
0.0147343
0.049074
0.000191415
0.000149298
0.000147003
0.000176226
0.042725
0.000196961
0.000154185
0.00243535
0.000173399
0.000144312
0.0547951
0.000148252
0.057335
0.000156816
0.00014968
0.000155898
0.000164032
0.000161944
0.000121711
0.000159836
0.000148632
0.000192747
0.0563452
0.0830802
0.00014739
0.020932
0.000148935
0.000148631
0.000147713
0.000235763
0.000148371
0.000187227
0.00016377
0.000147475
0.000179247
0.000151084
0.000352446
0.000165017
0.000179879
0.000146721
0.000147952
0.0448246
0.0285234
0.000147621
0.000146882
0.0508293
0.000147204
0.0471076
0.00014659
0.0522583
0.000150296
0.000226793
0.00016473
0.000446455
0.000151953
0.000183222
0.000188305
0.000155912
0.000202427
0.000205402
0.000148932
0.0434628
0.000172955
0.0285789
0.000152976
0.0203123
0.000158482
0.0585187
0.000183363
0.000174832
0.000174224
0.0613445
0.00014931
0.000165422
0.0529162
0.000148691
0.000151495
0.0261481
0.000187866
0.00014969
0.000128489
0.000209912
0.000146415
0.0230727
1.36041e-05
0.000148198
0.000146765
0.000148996
0.00014576
0.000206411
0.0603574
0.000214472
0.0501681
0.000147742
0.00018966
0.00818942
0.000171676
0.0586788
0.0476517
0.0804642
0.000145699
0.000111184
0.000146604
0.0706927
0.000148256
0.000462672
0.000189564
0.000155324
0.000149158
0.000180249
0.000184601
0.000183652
0.000637575
0.0534903
0.0228156
0.00016513
0.000173672
0.000147203
0.0384877
0.056224
0.000148143
0.000120152
0.000147926
0.000240197
0.000150271
0.000149392
0.000151095
0.0442892
0.000151019
0.0305153
0.0107676
0.000205455
0.000197906
0.000148873
0.000199418
0.000194593
0.000147855
0.000189759
0.000148616
0.000147858
0.000186144
0.000149676
0.000147805
0.00014657
0.000249869
0.000149567
0.0234719
0.0449625
0.00519208
0.000215128
0.0368418
0.0295797
0.00017127
0.000147771
0.000204867
0.000156446
0.000158901
0.000148319
0.0666643
0.0569008
0.0426559
0.000153375
0.000193023
0.000152674
0.000157519
0.000183627
0.000150557
0.00010604
0.000149023
0.000148299
0.0521705
0.0439478
0.0460158
0.000185704
0.00347515
0.0475866
0.0564251
0.0306141
0.000144626
0.000178815
0.000150651
0.000148297
0.000312809
0.000176533
0.000147792
0.000178353
0.000169622
0.0290687
0.000147823
0.000197578
0.0144137
0.000251966
0.0284049
0.000149628
0.000148188
0.000153724
0.000162298
0.00014572
0.0506373
0.000205894
0.000159798
0.0373695
0.000157176
0.000198898
0.0614971
0.000218961
0.000204477
5.25301e-05
0.000197602
0.000177162
0.000204001
0.000172846
0.000209553
0.000212478
0.000176787
0.000188358
0.000147272
0.00209249
0.000158681
0.000145474
0.000161353
0.000150957
0.0314618
0.0793926
0.000147127
0.000144534
0.0519997
0.024322
0.000149678
0.0232275
0.000151316
0.000204337
0.000147255
0.035934
0.00278276
0.000157668
0.000149218
0.0399497
0.000213173
0.0123164
0.000149743
0.0289551
0.000353054
0.0539989
0.000145571
0.0415305
0.0849038
0.000171893
0.000146711
0.000148983
0.000189827
0.000232414
0.000147093
0.000146797
0.00014718
0.000147136
0.0357992
0.000512245
0.000171476
0.000217918
0.000147442
0.000146148
0.000192592
0.0762718
0.000163128
0.000147713
0.000147815
0.000148122
0.0601966
0.0557479
0.000148956
0.000148118
0.000108009
0.000172442
0.000164723
0.000148139
0.000151194
0.000156073
0.000187728
0.000198449
0.000221407
0.000205925
0.000191722
0.00141947
0.000179553
0.000147457
0.0300203
0.000148144
0.000151912
0.000154411
0.00213945
0.000171169
0.000146211
0.00025595
0.000189332
0.00786143
0.00019184
0.000160245
0.000171052
0.00014908
0.0841403
0.000230365
0.0612804
0.000148745
0.000160109
0.000222114
0.0498436
0.00970541
0.000182891
0.000188871
0.000153349
0.000153029
0.000148166
0.000165865
0.000169956
0.000148705
0.000177973
0.0001742
0.0623918
0.0145497
0.00015258
0.00019811
0.00194624
0.000156975
0.000149352
0.000453831
0.0738595
0.0707968
0.000217179
0.000144528
0.0258756
0.000189355
0.000146602
0.000161082
0.000187169
0.000159485
0.000186198
0.050462
0.000203448
0.000169394
0.0840923
0.000151589
0.0258497
0.000149482
0.000148901
0.0235452
0.0755192
0.000210281
0.00015159
0.000149683
0.000148133
0.00017391
0.00045079
0.000202367
0.000153375
0.000202424
0.000179769
0.000147303
0.000386091
0.000201647
9.69533e-05
0.000147275
0.000202795
0.000150871
0.0139611
0.000175444
0.000171028
0.000160364
0.000146569
0.000145478
0.000148401
0.000175891
0.000155627
0.00024064
0.000542343
0.000180365
0.000146485
0.000202116
0.000212403
0.000577217
0.000148148
0.000155166
0.000146859
0.000161291
0.000154836
0.0842009
0.000149409
0.000606478
0.000160898
0.000208675
0.000181047
0.0431973
0.000171984
0.000148851
0.0402159
0.0108198
0.000148036
0.000154315
0.00458934
0.000210511
0.000197012
0.000149474
0.000149324
0.000209969
0.000155559
0.000183257
0.000184946
0.000145522
0.000179588
0.0603808
0.000148099
0.000151958
0.000147341
0.0266735
0.000149714
0.000153011
0.0279573
0.000151211
0.071536
0.000156889
0.000160343
0.000147282
0.000166921
0.000147773
0.00017616
0.000146608
0.00017486
0.000151301
0.017916
0.000328159
0.0762394
0.000152195
0.000149217
0.000178593
0.000170652
0.0314273
0.0794232
0.000175782
0.000147904
0.000246403
0.000211627
0.000100921
0.000219881
0.000175533
0.0480397
0.000165249
0.000172028
0.000199399
0.000180728
0.000175392
0.00024406
0.000174772
0.000153164
0.000188582
0.000156049
0.0001464
0.00016103
0.000168989
0.000157059
0.000147835
0.000146983
0.000180138
0.000152341
0.000183412
0.000147909
0.000148036
0.000149778
0.000150977
0.000144022
0.00015502
0.000147505
0.0347081
0.000185294
0.000191439
0.000145898
0.000149561
0.000163826
0.000177518
0.000150052
0.0697829
0.000176569
0.0527443
0.000161036
0.000196136
0.000149971
0.000149741
0.000146996
0.000151081
0.0196627
0.000149626
0.00997182
0.000155425
0.00992029
0.000165617
0.000177252
0.000208204
0.000145118
0.000149924
0.000185743
0.000148073
0.000149327
0.0531505
0.000150022
0.000149
0.00015806
0.000147084
0.000145065
0.000157224
0.000155973
0.0258585
0.000162911
0.000148094
0.000146664
0.0543556
0.000175877
0.000148662
0.000148739
0.059214
0.00285132
0.0230071
0.00016021
0.000153176
0.000145814
0.000144897
0.000177344
0.000163703
0.000234033
0.000153335
0.0402726
0.000149063
0.000151578
0.0192284
0.00014798
0.000158912
0.000147797
0.000148168
0.000168077
0.000162188
0.000149925
0.0732009
0.0252558
0.000181582
0.000147438
0.000144575
0.000201445
0.00924703
0.000149673
0.00081398
0.000144543
0.000167692
0.000146683
0.000146834
0.000223599
0.000148229
0.0130608
0.000166862
0.000149776
0.000144548
0.000148299
0.000147024
0.000151737
0.000442295
0.000147786
0.000146402
0.0744963
0.0742055
0.00017034
0.000170008
0.000182743
0.00015524
0.000146235
0.000155919
0.0359664
0.000175737
0.0001486
0.000149043
0.0800412
0.000166363
0.0566958
0.000149719
0.00015023
0.0243499
0.000164598
0.000150174
0.0175413
0.000294621
0.000146984
0.000196581
0.000146977
0.000148074
0.000145801
0.0450793
0.000143949
0.000148421
0.000146196
0.0189635
0.000155592
0.000204226
0.000166358
0.000146833
0.000158642
0.000148954
0.0516984
0.000147275
0.000147903
0.000149009
0.000202427
0.000148944
0.000203564
0.0201435
0.0538988
0.000154743
9.72265e-05
0.0329733
0.000147917
0.0218298
0.0832426
0.0370563
0.0371083
0.0737548
0.00850495
0.000199948
0.00014907
0.0498023
0.000164426
0.05601
0.000145459
0.000147166
0.000148702
0.000148898
0.000156531
0.000158011
0.0325758
0.000147054
0.000148152
0.011444
0.000191235
0.00014829
0.000160648
0.000159817
0.000149089
0.000316899
0.000160858
0.000151762
0.000155443
0.020585
0.023902
0.000260481
0.000146467
0.00021148
0.000189375
0.0343788
0.0811852
0.000193889
0.00014725
0.000150144
0.00014906
0.000143601
0.000151172
0.000144538
0.000156179
0.00016462
0.0416743
0.000201266
0.000148451
0.000195676
0.0580493
0.000166883
0.000149099
0.0275579
0.000147332
0.00014912
0.000160647
0.042492
0.000148943
0.000147305
0.0600454
0.000146218
0.00100174
0.000194124
0.000244082
0.000147094
0.000206159
0.00014919
0.000147546
0.000149213
0.0522739
0.0283707
0.000146412
0.000144531
0.000147909
0.0048777
0.000150738
0.000160412
0.000148054
0.000149369
0.000204893
0.000147035
0.000176858
0.000201627
0.0463727
0.000147999
0.00017379
0.000152774
0.0405972
0.0556251
0.000147804
0.0437444
0.000184129
0.000273234
0.000148934
0.0441524
0.000149539
0.000156958
0.000167086
0.000194011
0.0542727
6.66541e-05
0.000212779
0.0766897
0.000146426
0.000238827
0.000146758
0.000156052
0.0608151
0.00014833
0.000149603
0.000150436
0.000148931
0.0400662
0.00014503
0.000148218
0.00017996
0.000170647
0.000176154
0.000208619
0.000204225
0.0189632
0.000185912
0.00016572
0.000171397
0.037069
0.000170989
0.064029
0.0533132
0.000156222
0.000147127
0.0354173
9.73982e-05
0.000149124
0.000193252
0.000163579
0.000149887
0.00015707
0.000149101
0.000167243
0.000149934
0.000175004
0.00017228
0.00014666
0.000177807
0.000146906
0.000167773
0.00014658
0.000154324
0.000179322
0.00015266
0.000148842
0.000146496
0.000298682
0.000178598
0.0673694
0.000147802
0.000148481
0.000180819
0.000147799
0.000186715
0.000178587
0.000149884
0.000189962
0.000146713
0.0732906
0.000149019
0.000169075
0.0291845
0.000238714
0.000147154
0.000151713
0.0171348
0.000147568
0.000146952
0.0384044
0.0501663
0.000152329
0.000210977
0.000148371
0.000148843
0.0522195
0.000150878
0.000145198
0.000169884
0.000147043
0.00257748
0.000149157
0.000145202
0.000148691
0.000204931
0.0348207
0.000148505
0.000148943
0.000147094
0.000154314
0.000148141
0.000234714
0.000177394
0.000149738
0.0627941
0.000165725
0.000242494
0.04985
0.00044375
0.000146245
0.000148953
0.000148081
0.000214267
0.000154742
0.0347886
0.0315328
0.000151899
0.060084
0.000326507
0.00017546
0.000207557
0.000170639
0.000193628
0.0536231
0.000168359
0.000424853
0.0531181
0.000184923
0.000153634
0.0380529
0.000164828
0.000145584
0.000152092
0.0759098
0.000163268
0.00014705
0.000167295
0.000188842
0.000164937
0.0375886
0.000151987
0.0703915
0.000171292
0.000116922
0.000196104
0.000213501
0.00015922
0.000146573
0.000149771
0.0575646
0.00014755
0.000152137
0.000146422
0.000151223
0.000147181
0.000160424
0.000208993
0.000307278
0.000163247
0.000165795
0.041128
0.000196275
0.000147198
0.00392862
0.0486653
0.000145631
0.000146884
0.000160966
0.0230068
0.000149617
0.000182
0.00021665
0.000167799
0.000148244
0.000152153
0.000147257
0.000193161
0.000163508
0.000147433
0.021648
0.048734
0.00016413
0.00102738
0.000185396
0.002692
0.000151111
0.00015567
0.0423285
0.00299882
0.000194173
0.000274283
0.000157715
0.000149803
0.000148152
0.000148627
0.000147991
0.000149876
0.000167769
0.000147225
0.000201344
0.000147071
0.000158639
0.000146507
0.000177451
0.000201802
0.000332716
0.000147839
0.000215076
0.000148138
0.0413919
0.000147898
0.000153768
0.000148549
0.000235701
0.0392403
0.000206884
0.000147194
0.000201256
0.000147974
0.000158949
0.0484278
0.000147898
0.000149248
0.000169681
0.000161088
0.0593648
0.000147244
0.000157874
0.000152321
0.000147898
0.000158561
0.000149504
0.000145523
0.000151557
0.0284661
0.000153395
0.00012268
0.0692362
0.000175298
0.0368207
0.000153013
0.000145576
0.000158635
0.023618
0.000152725
0.000162414
0.00017188
0.000853256
0.000146898
0.00355074
0.000178491
0.000182558
0.000145555
0.000144655
0.000211978
0.000149395
0.000149883
0.000159086
0.000145494
0.000152509
0.00015817
0.000186788
0.000185069
0.0565882
0.000156394
0.000187532
0.00719077
0.0157725
0.000169143
0.00018481
0.0220704
0.000168238
0.0726216
0.000151613
0.00944975
0.00342998
0.000145509
0.00014968
0.000147197
0.000150683
0.000169218
0.000146591
0.000151944
0.000193933
0.000151822
0.000160377
0.0444764
0.000157375
0.000153818
0.078811
0.000150165
0.0234436
0.000154617
0.000165888
0.000146809
0.0278793
0.0287485
0.00014798
0.000150986
0.0445556
0.000156962
0.0154793
0.000147695
0.00014706
0.0618616
0.000150834
0.000162888
0.00876062
0.000148116
0.00017596
0.000158556
0.000144637
0.000146754
0.0481949
0.0309499
0.00014881
0.000152556
0.000148184
0.000155703
0.000160028
0.0290809
0.000149936
0.000339187
0.0195167
0.000105594
0.00472486
0.000150653
0.000202075
0.000181208
0.000156675
0.000148067
0.000182671
0.0461072
0.000151204
0.000163321
0.0620707
0.000472597
0.000187469
0.000153356
0.000148919
0.000149547
0.000148143
0.0244692
0.000178558
0.000153409
0.000151284
0.000153692
0.000149751
0.000147703
0.000148049
0.000187083
0.000170128
0.059868
0.000163901
0.00865979
0.032475
0.000158337
0.000175997
0.00014604
0.000156992
0.0236582
0.000148458
0.000151742
0.000176946
0.000197195
0.000165287
0.043026
0.000150823
0.000147326
0.0428726
0.000144371
0.000149232
0.000164369
0.000149778
0.000148291
0.000209414
0.0683044
0.000147079
0.0449576
0.000148392
0.000146156
0.000151585
0.000362838
0.00015834
0.000154614
0.0782889
0.00015069
0.000226606
0.0413822
0.000149547
0.000164109
0.000147602
0.019454
0.000182522
0.000148087
0.0498727
0.000177366
0.000169026
0.000149822
0.0271226
0.000156913
0.000194465
0.000151752
0.000168626
0.0281504
0.000146322
0.000259105
0.000148451
0.000178039
0.000164549
0.00014954
0.0316439
0.000151617
0.000196799
0.000177124
0.000170812
0.000163225
0.000163557
0.000149787
0.0615801
0.000158965
0.0199238
0.000157586
0.000184403
0.000147845
0.000168598
0.000148174
0.000187283
0.0545403
0.000150158
0.000146464
0.000451819
0.000150909
0.0119477
0.000149828
0.0479503
0.00010223
0.000162938
0.000147521
0.000147126
0.000148444
0.000144578
0.000191032
0.000166723
0.000160942
0.000154997
0.000148198
0.00296863
0.000152743
0.000162044
0.003344
0.000148082
0.0165021
0.000176655
0.000162505
0.000256787
0.0414719
0.000175298
0.0482302
0.0262543
0.000146853
0.000202573
0.0317839
0.000190508
0.000148948
0.000148903
0.000199284
0.0497439
0.023517
0.000240005
0.000149984
0.000164963
0.000168802
0.0400903
0.00285318
0.000171702
0.000201495
0.000152243
0.000178136
0.00019408
0.00014888
0.00018943
0.0641674
0.000148601
0.00968977
0.00014961
0.000148055
0.0347677
0.0509635
0.000146339
0.000150243
0.000149678
0.000147037
0.000167057
0.000210677
0.000152076
0.000147467
0.000148331
0.000171288
0.000157536
0.000157145
0.000192298
0.000147942
0.0547835
0.0166164
0.0637629
0.000177854
0.000174054
0.000566012
0.000164046
0.0487168
0.00239573
0.0137379
0.000149347
0.0850409
0.0348906
0.000145687
0.000147858
0.000186474
0.0555288
0.066843
0.000146922
0.000148007
0.0443564
0.00216651
0.00959917
0.000152646
0.000151951
0.000302249
0.000148713
0.0502325
0.030784
0.000766209
0.000311616
0.00014828
0.000147122
0.000146614
0.000154387
0.0363201
0.000170565
0.000156402
0.000149899
0.000174681
0.0241739
0.000171324
0.0593192
0.0147797
0.0258075
0.000322377
0.000148006
0.000148938
0.0468408
0.000144903
0.000145534
0.000150724
0.000383017
0.000166983
0.0385239
0.000195614
0.000147809
0.0781128
0.000166627
0.000147173
0.0166866
0.000178177
0.000153322
0.000148999
0.00525224
0.0599882
0.000149003
0.070181
0.0218072
0.0602511
0.000250441
0.000178068
0.000147313
0.000150079
0.000353357
0.000155397
0.0467182
0.000167989
0.000902722
0.000183726
0.000150404
0.000156982
0.000147353
0.000150013
0.0562092
0.0201785
0.000148143
0.0220015
0.00017226
0.000148044
0.000153028
0.000147101
0.000205635
0.000149611
0.000321878
0.000165319
0.000147246
0.000146509
0.000170942
0.022722
0.000167805
0.000152426
0.000168555
0.000148136
0.000151482
0.000158634
0.0192487
0.0306862
0.0578565
0.000145346
0.000146456
0.000149183
0.000202413
0.00014664
0.00014931
0.000209957
0.000180663
0.000131946
0.000145363
0.0607645
0.0307284
0.000149867
0.0183879
0.000197718
0.000168749
0.000326791
0.000149014
0.0369811
0.000157246
0.000150674
0.000151943
0.000144867
0.000165111
0.000153688
0.000151389
0.000157671
0.0310083
0.0366723
0.000149551
0.000147704
0.000151997
0.000147983
0.000197721
0.000149442
0.000185059
0.000152712
0.0442731
0.00015093
0.0608695
0.00014538
0.0792774
0.00014959
0.000144749
0.0617785
0.000188359
0.000173146
0.000553982
0.000162723
0.000169621
0.000148044
0.0357597
0.000148117
0.000146687
0.000169853
0.000185252
0.0459292
0.0403289
0.000195975
0.0725033
0.000194679
0.000113387
0.000147757
0.000154807
0.000159301
0.0555028
0.000152995
0.0545518
0.030951
0.000149392
0.000148314
0.000147952
0.000372259
0.000436957
0.000152271
0.000148436
0.000154296
0.000157658
0.000167521
0.000252025
0.000197532
0.000148044
0.000209717
0.000183343
0.022045
0.000183176
0.000151229
0.000152789
0.0763555
0.000146588
0.000186177
0.0572456
0.000150078
0.000154545
0.00021088
0.000174728
0.000150139
0.0247774
0.000153678
0.000242529
0.000171896
0.000157995
0.000150999
0.0572897
0.000146445
0.000172929
0.000268703
0.0596327
0.000173562
0.000177262
0.000156612
0.000164238
0.000149712
0.0613093
0.000157838
0.000148303
0.000160528
0.000148276
0.000149742
0.000390885
0.000148121
0.000148985
0.000148112
0.000202009
0.000149004
0.00016128
0.000186961
0.000205311
0.000192293
0.00014961
0.000186746
0.000197892
0.000208418
0.000182829
0.00015546
0.000204865
0.0526183
0.000249044
0.000149869
0.0466077
0.0480986
0.000149864
0.000153237
0.000144757
0.000221912
0.000186865
0.000148737
0.000258631
0.0536547
0.000146048
0.000148895
0.0440044
0.0333357
0.000185827
0.00014493
0.041082
0.0366999
0.000493106
0.000147798
0.0571383
0.000191795
0.000168528
0.0500128
0.000156502
0.00014486
0.000160354
0.00020213
0.000162905
0.0478053
0.0630105
0.00014643
0.0678454
0.00020334
0.0367871
0.000145367
0.00016424
0.000149129
0.000147316
0.0613155
0.00688466
0.000238719
0.0110821
0.000157455
0.000174242
0.000151002
0.0627703
0.0229103
0.000148054
0.000148991
0.00015822
0.000147392
0.000176308
0.0648037
0.076742
0.000174765
0.00014983
0.000149236
0.0610754
0.000153295
0.000176664
0.000146246
0.000150607
0.000253376
0.00873157
0.000143565
0.000371392
0.000148925
0.000239063
0.000152168
0.000164274
0.0819702
0.0203135
0.000148155
0.000149949
0.000167803
0.000153954
0.000148814
0.0659334
0.0552737
0.000146446
0.000143861
0.000149089
0.000147299
0.00034095
0.000146225
0.0451902
0.000191404
0.000185221
0.000147061
0.000167887
0.06578
0.000164501
0.000199362
0.0478761
0.000148905
0.0263824
0.000158883
0.000159753
0.000193714
0.0269539
0.0362266
0.000183505
0.000146937
0.000193252
0.00014632
0.000153455
0.000148843
0.0436911
0.000158905
0.000400784
8.06772e-05
0.000173694
0.00014855
0.000214321
0.00015787
0.000149752
0.000184785
0.000144361
0.000170346
0.000163979
0.000148731
0.0757222
0.000151346
0.000210616
0.000150256
0.000147105
0.0549247
0.0481814
0.000152206
0.000158541
0.000170432
0.000173068
0.000182061
0.000157613
0.000154391
0.000155331
0.000208216
0.000153365
0.0436189
0.000167533
6.06417e-05
0.000201098
0.000150711
0.0680656
0.000144409
0.0576603
0.000152311
0.0541195
0.00403463
0.0240661
0.0364925
0.000238989
0.000169564
0.000148592
0.0630029
0.000171092
0.000148079
0.0218804
0.0670738
0.000151039
0.000153401
0.00016009
0.000160132
0.000163871
0.0345588
0.000149865
0.000162646
0.000167025
0.000159342
0.000148874
0.000192062
0.000144667
0.0452274
0.000151696
0.00019514
0.000161595
0.000168448
0.000185656
0.00715786
0.000183748
0.000146508
0.000191115
0.060525
0.0673326
0.000150007
0.0418296
0.000159681
0.000303645
0.000148118
0.000152815
0.0536507
0.000179298
0.0279266
0.0259315
0.000159051
0.073284
0.000147721
0.000144605
0.0221945
0.000165675
0.000152757
0.0758247
0.000156535
0.000163843
0.000157466
0.000178533
0.000148711
0.0557953
0.061449
0.00955964
0.000241536
0.000155354
0.000173088
0.0296893
0.000152282
0.000149108
0.000178391
0.000145257
0.000187018
0.04912
0.0218923
0.0284528
0.000180153
0.000150231
0.0597935
0.000144399
0.000187352
0.000149464
0.0386876
0.000152178
0.000165083
0.0395401
0.000194689
0.000147748
0.00015929
0.0103542
0.000148356
0.000204196
0.000146347
0.0611487
0.0546626
0.000197723
0.000168958
0.000147158
0.000203521
0.000205093
0.000168117
0.000146369
0.000150447
0.000148718
0.00017975
0.000148544
0.000192308
0.000148561
0.000146615
0.0841073
0.000147193
0.000156488
0.000155812
0.00014979
0.0453234
0.000147058
0.000161416
0.0569969
0.000177447
0.0412558
0.000148272
0.0595175
0.000178883
0.0746744
0.000151775
0.000201782
0.000149421
0.000169838
0.000201603
0.000199564
0.000217028
0.0537639
0.000211088
0.000403582
0.000155135
0.000198572
0.000163528
0.000100073
0.000153237
0.000149211
0.000148059
0.00017818
0.000165543
0.00270812
0.000177528
0.0534496
0.0592307
0.000171674
0.000147906
0.0135547
0.000180874
0.000149557
0.000152182
0.000148313
0.0479122
0.000148053
0.0175569
0.000147067
0.000158379
0.0373531
0.000172032
0.000147968
0.000148006
0.0249453
0.000147076
0.000152259
0.000155337
0.000160536
0.000157564
0.000148602
0.000209218
0.000168802
0.000163185
0.000228312
0.0450198
0.0434708
0.0304739
0.000145488
0.000147761
0.000173439
0.000150232
0.000163768
0.0416375
0.0432193
0.000144891
0.000148027
0.0412582
0.000117815
0.000145057
0.00014656
0.000154747
0.0569932
0.0506598
0.000156344
0.000162101
0.000149175
0.000253549
0.000202405
0.000175777
0.000158163
0.00016411
0.000149434
0.000166017
0.000235223
0.000150189
0.00014883
0.00015594
0.0588293
0.000153569
0.0228624
0.000148416
0.0514185
0.000162339
0.000155803
0.000145798
0.000147024
0.000257675
0.0586994
0.000165451
0.0246688
0.0567719
0.000149644
0.052728
0.000207065
0.000147531
0.0250042
8.00968e-05
0.000197537
0.000149612
0.0403153
0.0377751
0.000148271
0.000163091
0.0301581
0.00016711
0.000148157
0.000146489
0.000149592
0.000153476
0.000183702
0.000237709
0.000168497
0.000181364
0.000145607
0.00014872
0.0487413
0.000146816
0.000169093
0.000154725
0.000149469
0.000174263
0.000147794
0.000151797
0.000246311
0.000147551
0.0432345
0.000147786
0.00453635
0.0496142
0.00018897
0.000148842
0.000149939
0.0585366
0.00014477
0.000153021
0.000149249
0.000207885
0.000238464
0.00016373
0.0489288
0.000163048
0.000770819
0.000149738
0.000185533
0.00014709
0.00014868
0.0215552
0.0472728
0.000308532
0.000152299
0.000184571
0.000185064
0.0392033
0.0573082
0.000241652
0.000166507
0.000144347
0.0502113
0.000147744
0.000147999
0.000237862
0.000199467
0.00015641
0.000180431
0.000164426
0.00015942
0.000157525
0.0757715
0.000153815
0.000147508
0.0208189
0.000164624
0.000145507
0.0351842
0.000147797
0.000148455
0.000205631
0.000188874
0.0394717
0.000145646
0.000153043
0.000147072
0.000319378
0.000146956
0.000204828
0.0143042
0.0466008
0.0326283
0.0151669
0.00015734
0.0426407
0.000228287
0.000149256
0.000158209
0.000163205
0.000157561
0.000254327
0.0448052
0.0518789
0.0461777
0.000364063
0.000148611
0.000195962
0.000147852
0.0215263
0.000159299
0.000152212
0.000153228
0.000150418
0.000146974
0.000194913
0.0534212
0.000145366
0.000152353
0.000146444
0.0394772
0.000152131
0.0785086
0.0414454
0.000264361
0.000148321
0.00014705
0.0370407
0.00019269
0.000148674
0.000194539
0.000149407
0.000190102
0.000179873
0.000190275
0.000177502
0.0340086
0.00014625
0.000147194
0.000240123
0.0357247
0.000158958
0.000167282
0.000147373
0.016028
0.000147761
0.000147183
0.000151363
0.000147828
0.0069167
0.0440778
0.00180374
0.000183673
0.0585103
0.000228397
0.000144891
0.000162712
0.000145281
0.000259444
0.000148417
0.000153169
0.000147761
0.000146978
0.000146697
0.000414551
0.000151493
0.00028464
0.000145001
0.00015854
0.00015783
0.000273294
0.000147944
0.000162641
0.000167095
0.000173636
0.0787883
0.000146962
0.0328897
0.000177561
0.000165228
0.00014869
0.000147284
0.0371989
0.00968045
0.000148497
0.000147492
0.000244853
0.000241127
0.000160795
0.056896
0.000150151
8.31119e-05
0.000163021
0.000145291
0.0553082
0.0001522
0.0511073
0.000148024
0.000150329
0.000148526
0.0400033
0.0447812
0.000145042
0.000183964
0.000241528
0.00014801
0.00014734
0.000146992
0.000185543
0.0561028
0.000176314
0.00015479
0.000167033
0.000147821
0.000148188
0.00015254
0.000147591
0.000212474
0.000148274
0.000184641
0.000311512
0.000164108
0.000144488
0.0369632
0.000186466
0.000147888
0.000179654
0.000161822
0.00119329
0.000152639
0.0827198
0.000176129
0.000147831
0.000184465
0.000184704
0.000154253
0.0821679
0.000183086
0.000162738
0.00173163
0.000147502
0.000187727
0.000170127
0.00018428
0.000147132
0.000147705
0.000144734
0.000158985
0.000180706
0.000179853
0.0590989
0.0324531
0.0425598
0.000149724
0.000306183
0.0507916
0.062657
0.000147801
0.000148012
0.000178151
0.0546737
0.000152447
0.000166726
0.0117046
0.0341612
0.00455059
0.000172925
0.000206469
0.0400035
0.000195953
0.000144691
0.00208399
0.000232039
0.000149353
0.000149778
0.000150325
0.0602691
0.000186768
0.0631575
0.00015266
0.00939339
0.000148615
0.000527061
0.0343499
0.000148805
0.000165379
0.0482017
0.0493874
0.00017521
0.000150853
0.000151778
0.000149363
0.000188359
0.000202063
0.000355575
0.0602968
0.000145895
0.0185481
0.000194148
0.00011593
0.000147759
0.000148877
0.0026593
0.000185109
0.000147586
0.00017317
0.000167945
0.000161135
0.0438275
0.0610978
0.0648268
0.0578893
0.000153913
0.000145281
0.000166979
0.0282229
0.0638062
0.000148087
0.000185887
0.000169905
0.00019719
0.000150673
0.000149639
0.000246804
0.0099638
0.00887675
0.000281062
0.0252635
0.000147296
0.000184867
0.0565942
0.000148929
0.00016642
0.000192754
0.000145154
0.000206942
0.0712369
0.00018327
0.00014963
0.0204096
0.000196846
0.0483651
0.000143713
0.000153263
0.000148573
0.000152529
0.000148455
0.000172129
0.000163136
0.000162886
0.000189603
0.000165068
0.0429442
0.000153524
0.000161766
0.000157227
0.0210533
0.000165653
0.0334292
0.00015699
0.000155881
0.0110005
0.000171137
0.00014832
0.000163176
0.0122099
0.067188
0.000239183
0.000147732
0.000147195
0.000147499
0.000222894
0.000150965
0.000341599
0.000265224
0.000185457
0.000160477
0.000214603
0.0286392
0.00014845
0.0676023
0.000160164
0.000164201
0.000147595
0.00014794
0.000175753
0.0595392
0.00014817
0.0302084
0.000222239
0.000171415
0.000201998
0.000147064
0.000147745
0.000161039
0.000151764
0.0606089
0.0259647
0.000170999
0.000256612
0.000147643
0.000148427
0.000148815
0.000149543
0.0834385
0.000152058
0.0418567
0.00016997
0.00015077
0.000192271
0.000482575
0.0404691
0.0209855
0.000152704
0.000146947
0.000148603
0.000153317
0.000221434
0.000182967
0.0820618
0.000148802
0.000150219
0.000178319
0.000149665
0.000163865
0.00015165
0.000176883
0.00017837
0.000163099
0.000163243
0.000145638
0.000172582
0.000162655
0.000183439
0.000168767
0.000163499
0.000146519
0.000191495
0.000146989
0.000855532
0.0485237