/*--------------------------------*- C++ -*----------------------------------*\
| =========                 |                                                 |
| \\      /  F ield         | OpenFOAM: The Open Source CFD Toolbox           |
|  \\    /   O peration     | Version:  v2012                                 |
|   \\  /    A nd           | Website:  www.openfoam.com                      |
|    \\/     M anipulation  |                                                 |
\*---------------------------------------------------------------------------*/
FoamFile
{
    version     2.0;
    format      ascii;
    class       volScalarField;
    location    "400";
    object      nut;
}
// * * * * * * * * * * * * * * * * * * * * * * * * * * * * * * * * * * * * * //

dimensions      [0 2 -1 0 0 0 0];


internalField   nonuniform List<scalar> 
13917
(
0.000422716
0.00216974
0.0124715
0.00305557
0.00583352
3.65625e-05
0.0119966
0.00939086
0.0116259
0.000275743
0.00092276
0.00144649
0.00317295
0.00128583
0.000589963
0.000801313
0.00223059
0.000609587
0.0016634
0.00583249
0.00583586
0.0132347
0.00583286
0.0120771
0.00583967
0.0122282
0.000162664
0.000110642
3.12918e-05
0.000330935
0.000453265
0.000750339
0.000222325
0.000574662
0.00584124
0.000104877
0.00583294
0.0119317
0.00258514
0.0030302
0.00583957
0.00583626
0.00583238
7.29862e-05
0.00353216
0.000486446
0.000702005
0.000700823
5.44047e-05
0.00583038
0.00139958
0.00196412
6.23158e-05
0.000515763
0.00200239
0.00116341
0.00108584
0.00340413
0.00124637
0.00350677
0.00666804
0.0025108
0.00033067
0.00583225
3.72797e-05
0.00166766
0.00583376
0.00584234
0.000613289
0.000374644
0.0058332
0.0113293
0.0100513
0.00583807
4.79342e-05
0.00199963
0.0054247
0.00223683
0.0126136
0.00583524
0.00583461
0.00583354
3.63786e-05
0.0130951
0.00956089
0.00243649
0.00583415
0.000715028
0.00143323
0.00583345
0.0117182
0.000298699
0.00529728
0.001191
0.00115708
3.77295e-05
0.000824832
0.000716383
0.0014289
5.70082e-05
0.00583061
0.000255145
7.06067e-05
0.00214154
0.00583851
0.0112743
4.2044e-05
0.000783103
0.00212688
0.00039646
0.0111221
0.00376785
0.00159613
0.0137952
0.00121335
5.17836e-05
0.00583411
3.97986e-05
0.00521306
0.000527884
0.00583602
0.000803016
0.00649029
0.000131575
0.0058326
0.00130463
0.00337167
0.00583311
0.005829
3.64056e-05
0.0118415
0.00117382
0.00334075
0.00583601
0.00111616
0.0113294
0.000420288
5.27215e-05
0.00583386
0.000553319
0.000260464
0.00585308
0.00150028
5.87094e-05
0.00552447
0.00955516
4.07744e-05
0.00184503
0.00584732
0.000628525
0.000906472
5.19472e-05
0.00121099
0.000293291
0.000916252
0.00371123
0.000428827
0.00178985
0.00321872
0.00137587
0.000795864
0.000159865
0.00583527
0.000837604
0.00163064
0.00145055
0.00215158
0.000843222
0.00475282
0.000255659
0.000276881
0.00384856
0.00154781
0.00163654
0.00868013
0.000246318
0.0125252
4.20126e-05
0.0100544
0.00520164
0.000299781
0.000448816
0.0058533
0.00583399
0.0004138
0.0115559
0.000344806
0.00349289
0.00074573
0.00131591
0.000188659
0.00954588
0.000263294
0.00583304
5.49491e-05
0.000162266
0.00543703
0.00496287
4.72788e-05
0.000187599
0.00190759
0.00583055
0.000967945
0.0010638
0.00798878
0.000771422
0.00584018
0.00361725
0.00074312
0.0114
0.00164965
0.0124998
0.00416322
0.00142207
0.00583749
2.74235e-05
0.000808845
0.00475154
0.00583747
0.00724068
0.00574072
0.000384043
0.00583438
0.0126002
0.0115466
0.000750678
0.00019639
0.000926009
0.00583768
0.000124822
0.00168944
0.000794037
0.0107412
0.002542
0.0058292
0.00069885
0.0130739
0.00757719
0.0058351
0.00583127
0.00416002
0.000782196
0.00583573
0.000621615
0.000552457
0.00015838
0.000500073
0.0058351
0.000209884
0.00345723
0.00552764
0.000256392
4.8589e-05
0.00354793
0.0036391
0.00116918
0.00725168
0.00103521
0.000347358
0.000650029
0.00583584
0.00412251
0.00903331
0.000232374
0.00583664
0.00892323
0.00348103
0.00359077
0.0126971
0.00216873
0.00583485
0.00583002
0.000724117
0.0103387
0.000617862
0.0013482
0.000792493
0.00197373
0.00582736
0.00643893
0.00583197
0.00969156
0.00183679
0.00583556
0.000573634
0.000273058
0.000167492
0.000270617
0.000359592
0.00430637
0.000163244
0.0109509
0.00804951
0.00583703
0.00460119
0.00583365
0.00439725
0.0058336
3.2593e-05
0.0058314
0.000387271
0.000507046
0.00504912
0.000930559
0.00151312
5.31446e-05
0.000271728
0.000305078
0.00587233
0.00396609
0.0101921
0.0055046
0.00583427
0.00583235
0.00593163
0.00500155
0.0112489
0.00586796
0.0133459
0.00433772
0.000199944
0.00119948
4.94649e-05
0.00081835
8.63987e-05
3.47414e-05
0.000631335
0.000789327
4.91941e-05
0.00203139
0.011614
5.60572e-05
0.00491086
0.000641198
0.00307042
0.000650835
0.0124578
4.08794e-05
7.86988e-05
8.10428e-05
0.0107497
0.00583481
0.000293522
0.0123621
0.00240067
0.00110451
0.0041049
4.36587e-05
0.00188651
0.000208503
3.09005e-05
0.00582982
0.0037375
3.27765e-05
0.00583183
0.00583418
0.0058338
0.00584763
0.000521752
0.00905576
3.25004e-05
0.0116877
0.00583615
0.000252485
0.00122239
0.000935227
0.0133747
0.0119982
0.0126039
0.00583093
0.000351368
0.00583416
0.00640356
0.00361316
4.78406e-05
0.000480272
0.00244904
0.00583444
0.000772711
0.000286479
0.000658685
1.39278e-05
0.0119817
0.00239288
0.000195473
0.000289452
0.00583107
0.00805521
0.0132629
0.00300217
0.000124936
0.00583512
0.00072906
0.00482897
0.00583501
0.00138507
0.0122358
0.00142804
0.00882372
0.00180715
0.00106126
3.3366e-05
0.00213609
3.13687e-05
3.13786e-05
0.00583234
4.42465e-05
0.00246001
0.00583766
0.000358349
0.00583558
0.00583967
0.00583403
0.000671541
0.00583546
0.00424097
0.0101107
0.00098085
0.000287831
0.0108358
0.00482298
0.00104993
0.0058351
0.000489473
0.0025763
0.000661663
0.00583313
0.00980838
0.0111733
0.0096199
0.00072987
0.000535103
0.000726437
0.00255019
0.000656585
0.00143322
0.000322925
0.00216443
0.00583174
0.0127137
0.0121263
0.0126756
0.00019445
0.000547877
0.0127998
0.0132894
0.00521481
0.00582854
0.000741027
0.00141514
0.00298233
0.000320435
0.000728446
0.00591476
0.00050506
0.000993217
0.00493102
0.0058324
0.000813876
0.000766578
0.000309175
0.00644676
0.00583561
0.00330061
0.00598667
0.000399474
0.00583088
0.0103914
3.52328e-05
0.000401148
0.00699238
0.00117842
0.000916107
0.0140855
3.37195e-05
0.001096
0.000137928
0.000802879
0.000447669
0.000531355
0.00136016
0.0011125
3.98208e-05
0.00159108
0.000734987
0.00587662
0.000840063
0.00128629
0.0058644
0.000427865
0.00235212
0.00579165
0.0120423
0.00585025
0.00583225
0.0100672
0.00279474
0.00583556
0.00404417
0.00289955
0.000266348
0.00561334
0.00709729
0.00086685
0.000711255
0.00223812
0.011813
0.000262239
0.00175637
0.00583579
0.0044111
5.2168e-05
0.00614683
0.0058655
0.00905975
0.0114579
0.00118346
0.0058342
0.00213208
0.00229106
0.000469439
0.00590201
0.00583325
0.00582944
0.00582946
0.00692297
0.00049007
0.00117113
0.000347826
0.00583954
0.00583029
0.000544758
0.0149922
0.000767742
0.00424479
0.0058371
0.00583621
0.00691687
0.00931164
0.00583395
0.00583643
0.000473103
0.00141085
0.00124667
0.00304499
0.00129897
0.0007149
0.000787647
5.04019e-05
0.000435735
0.000505085
0.000616223
0.000603472
0.000313004
0.00583652
0.00484686
0.00583591
0.000973052
0.0021537
0.000947534
0.000119011
0.00583197
0.000313912
0.000328865
0.000368505
0.000633222
0.000223645
0.00105942
0.00583403
0.0125328
0.000246085
0.0142793
0.00237594
0.00100856
0.000440435
0.0125746
0.000373426
0.000699033
0.000190716
0.000735339
0.00128816
0.00318982
0.000126171
6.85806e-05
0.00255607
0.000828175
5.01224e-05
0.0142441
0.00230544
0.00106464
0.000876537
0.000901396
0.000598163
0.00162766
2.99976e-05
0.00983654
0.011208
0.000331838
0.00582971
0.00468157
0.00200425
0.00583851
0.000726993
0.000907053
0.000231249
0.000343909
0.0127063
0.000524761
0.00142719
0.0122338
0.00191311
0.00348047
0.00583529
0.00583381
0.00510519
0.011501
3.47823e-05
0.00194248
0.00163716
0.00583588
0.00189565
5.43158e-05
0.00152471
0.00122761
0.00113156
0.000790996
0.005292
0.000175302
0.0015636
0.000316437
0.00583883
0.000522853
0.00212982
0.00143499
0.000301337
0.000125989
0.000905915
0.0058292
0.00585694
0.00321136
7.88992e-05
0.000370645
0.000658428
1.48861e-05
0.000877757
0.00582973
0.000493433
3.10328e-05
0.000376821
0.00556717
0.000474091
0.00583327
0.00198727
0.00124102
0.0138521
0.00583508
0.000128657
0.00200057
0.00093152
0.000273667
0.00990204
0.00013114
0.00226328
0.00921298
0.000610719
0.003252
0.00236963
0.00146001
0.000302025
0.000665546
0.00583493
0.00230941
0.000153075
0.00249532
0.000610651
0.001241
0.00585853
0.00104459
0.0115955
0.00591807
0.00351376
0.00582975
0.00491936
0.00583583
0.0007963
0.00459808
0.00109352
0.00931843
0.000929144
0.000200383
0.0058297
0.000201279
0.00583333
0.000449819
0.00582908
0.000153411
0.00319709
0.000666682
1.69239e-05
0.014899
0.00595228
0.00583436
0.000325005
0.00042631
0.00655658
0.0145233
0.000676449
0.00583878
0.000668961
3.26096e-05
0.000361649
0.000457084
0.000759975
0.0120323
0.000416937
0.00204861
0.000417991
5.34816e-05
0.00066127
3.19992e-05
0.000627787
0.00272769
0.000928748
0.000584967
0.00588256
0.00203181
0.000400289
0.000647189
0.00583377
0.00583287
0.000830486
0.00231775
0.000543562
0.005838
0.00583491
0.00583596
0.00135029
0.00583757
0.000920046
0.00583008
0.00661955
0.00159982
3.77958e-05
0.00583028
0.00583545
0.000130781
0.000472785
0.00132361
0.008487
0.000216797
0.0046992
0.0019771
0.00053037
0.00294755
0.00583592
0.00582924
0.00138829
0.00250659
0.00583559
0.00206041
0.000817507
0.00164437
0.000167129
0.000213265
0.000995221
0.00583767
0.00583636
0.00173293
0.00557184
0.00172541
0.00671196
0.00156624
0.00583383
0.000940254
0.0058308
0.00583747
0.000708664
0.000400873
0.00420944
0.000515018
0.00591844
0.00583599
0.013653
8.95797e-05
0.0023024
0.00258328
0.00726055
0.000980752
0.00266428
0.000245673
0.00272837
0.00582936
0.0058352
0.00155323
0.00047053
0.000706702
0.000583006
0.0105283
0.00231876
0.000933412
0.00205802
0.00583532
0.00140536
0.00384536
0.00583144
0.000403664
0.000147498
0.00248229
0.0113087
0.00583191
0.000286797
0.00583709
0.0058446
0.00139548
0.00220086
0.00583557
0.000483373
0.005843
0.000434274
0.00590211
0.00588954
0.00029595
0.00417117
0.00401164
0.00052044
0.00583594
0.00583316
0.00346646
0.0058418
0.00354293
2.43802e-05
0.00591236
0.00587118
0.0129559
0.0092246
0.00157314
0.000395934
0.000659689
0.00146831
0.00585404
0.000398419
0.00706591
0.000142811
0.00583355
0.00258873
0.0138255
0.000919296
0.0129508
0.00583583
0.00121587
0.00377577
0.00103025
0.00242672
0.00220001
4.06414e-05
0.00584104
0.000426654
0.00582926
0.00416873
0.00583069
0.0104176
0.00583675
0.00593116
0.00585431
0.00551909
0.00253734
0.000252497
8.83673e-05
0.00589312
0.000253119
0.00583385
0.0120223
0.00583185
0.00571164
0.00583387
0.00144454
0.00583368
0.000550921
0.00347755
0.00980388
0.000473888
0.000202855
0.00619725
0.00408106
0.00315888
0.00682621
0.0077083
0.0108446
0.014074
0.000229609
0.000437485
0.00223335
0.0128039
0.00105751
0.0134871
0.00586178
0.00536291
0.00247827
0.00583371
0.00141959
0.00030119
0.00716596
0.00555785
0.00583503
0.00176405
5.63463e-05
0.00360149
0.000220818
0.000846662
0.00311295
2.31796e-05
0.000163891
0.000863482
0.00297209
0.00359472
0.00307349
4.03077e-05
0.00589684
0.000299481
0.000345757
0.00747402
0.0119605
0.00174957
0.00516522
0.00283384
0.0022597
0.0058342
0.00136303
0.00582687
0.000763054
0.000373444
0.00730883
0.00068318
0.00592828
0.000539145
0.0135985
0.000414188
0.00195334
0.00417009
0.00509531
0.00190912
0.000191229
0.0064697
0.00583361
0.00584019
0.0128373
0.000279469
0.000585033
0.000630411
0.000267965
0.00583909
0.000525863
0.00193403
0.00583231
0.00190901
0.0121132
0.00447879
0.00587492
0.00583396
0.00359022
0.00143201
0.00162957
0.000985886
0.00584131
0.00195809
0.000536641
0.00589819
0.000456575
9.28281e-05
0.0127822
0.00365925
0.000144075
0.000983347
0.00893024
0.0131537
0.0058387
0.00982219
0.000654411
3.99812e-05
0.0058337
0.0123826
0.00583511
0.00109961
0.000388431
0.000625428
0.0109286
0.000190962
0.00112247
0.00986158
0.00582928
0.00078293
0.00588919
0.000619201
0.012525
0.0028296
0.00583537
0.00175646
0.0030596
0.00776156
0.00583504
0.00583274
0.00107686
0.000452668
0.000904584
3.39647e-05
0.00143949
0.00247278
0.00207472
0.000831379
0.00196782
0.00785709
0.0014589
0.00450735
0.0129342
0.00185256
0.00590232
0.0108109
0.000328294
0.00190917
0.000501965
0.000747387
0.00392435
0.00145431
0.00275589
0.000382322
0.00583638
0.000799766
5.47433e-05
0.00583391
0.000509451
0.00588248
0.000150583
0.00582953
0.000512195
0.000723755
0.00223473
0.00392891
0.00587545
2.74686e-05
0.000255911
0.00869788
0.00584063
0.00260648
0.000847075
0.00400641
0.000419961
0.00025801
0.0045575
0.000545843
0.00587852
0.00729649
0.00206398
0.00158499
0.00527591
0.000792512
0.00583946
0.00111244
0.0025231
0.00583228
0.00583335
0.00862704
0.0119972
0.000742558
0.00119028
0.00583229
0.00398965
0.0114707
0.00159775
0.00583785
0.000273465
0.00588847
0.000928819
0.00583454
0.0058366
0.00242651
0.00142022
0.00949237
0.00256195
0.00203037
0.0058387
0.000634208
0.00583114
3.48302e-05
0.000516639
0.00583579
0.00934736
0.000186418
0.000562236
0.0133199
3.28662e-05
0.00587134
0.00199582
0.00322796
3.54692e-05
0.000564988
0.00937822
0.00553088
0.000857492
0.013722
4.40989e-05
0.000842797
0.00131808
0.000142842
3.64092e-05
0.0102562
0.000120808
0.000376529
0.0137004
0.00146635
0.000760337
0.00840339
0.000102448
0.00586347
0.00204217
0.00561247
0.000329598
0.00585205
0.000190859
0.000412436
0.000450964
0.00848197
0.00112434
0.00946039
0.00195477
0.000454752
0.00050986
0.000301949
0.000893559
0.00587426
0.00168796
0.0100022
0.00583392
0.000787962
0.00585751
0.00132866
0.00531868
0.000250313
0.00126451
4.14409e-05
0.000164028
9.77699e-05
0.00895436
5.21257e-05
0.00537233
0.00130459
0.0108785
0.0058449
0.0058334
0.000889906
0.00343569
0.0058354
0.000574019
7.38635e-05
0.000277933
0.00362841
0.00298359
0.00589452
0.000529895
0.000282539
0.00582999
0.000695044
0.0121095
0.00022507
0.000504016
0.00131243
0.000457645
0.00116438
0.00145137
0.00857467
0.0011166
0.00175551
2.13211e-05
0.000746084
0.00583608
0.00495645
0.00283304
0.00514436
0.00139212
0.000219031
0.00583959
0.000959124
0.00583072
0.00090857
0.00588383
0.000221241
0.00117247
0.000379434
0.00431403
0.000264461
0.00498781
0.00823832
0.00583591
0.000572448
0.00583339
0.000877539
0.008391
0.00135758
0.00584067
0.000739653
0.00353577
0.000653399
0.0116383
0.00438593
0.00180639
0.00047561
0.000745789
0.0135454
0.00584021
0.000444583
0.0030875
0.00583354
0.000298316
0.00186976
0.00582946
0.000908922
0.00439008
0.00113532
0.000336941
0.00981765
0.000645141
0.0103052
0.00120662
0.00582957
0.000372913
0.00282491
0.00301701
0.000337242
0.00121077
0.000163275
0.00584094
0.000614544
0.000505493
0.000575717
0.00584502
0.00583266
0.00116096
0.00172192
0.00583626
0.00023968
0.00585956
0.000726766
0.00075921
0.00105995
3.87235e-05
0.012891
0.00245478
0.00112689
0.00242142
0.00209803
0.00140668
3.59816e-05
0.00335941
0.000788925
0.00556264
0.000980322
0.000452168
0.000628114
0.00586751
0.00583561
0.00583168
0.00326817
0.000445935
0.00588781
0.000840694
0.00186659
0.00179656
0.000283772
0.0104116
0.000335388
0.0017408
0.0137105
0.00241851
0.00414339
0.00230319
0.000120416
0.00584066
0.00409044
0.0048126
0.00335518
0.00302021
0.0119344
0.000343719
0.00228807
0.00583043
0.0058904
0.014122
0.0025624
0.000146868
0.000926789
0.0058356
0.000573822
0.000708827
0.00583347
0.00583069
0.0125432
0.00557475
0.00265057
0.00185301
0.00322505
0.000728397
0.000213267
0.00470552
0.00137523
3.09944e-05
0.00437133
0.00042696
0.00123143
0.00285701
0.00153426
4.78335e-05
0.0003633
0.00583454
0.00118725
0.0112738
0.000966212
0.000134297
0.0123607
4.00346e-05
3.96919e-05
0.000584837
0.0021734
0.00583519
0.00583601
0.00329473
0.00083836
0.00219485
0.00279517
0.00136534
0.00583597
0.00426745
0.00584255
0.00116759
0.00174791
0.00911768
0.000161262
0.00172588
0.00963522
0.000406595
0.000789291
0.00583059
0.000496315
0.00286122
0.00263428
0.00120582
0.000881065
0.000664276
0.000107061
0.0111489
0.000294912
0.00514981
0.0108556
0.00583276
0.00308245
0.000173307
0.00583593
0.00548392
0.00074951
0.00920892
0.00588837
0.00925323
0.00265919
0.00587068
0.00126149
3.42315e-05
0.000650858
0.00249418
0.00597958
0.00159553
0.000752623
0.0121898
0.00583519
0.000135226
0.00583032
0.00329935
0.000585903
0.0058439
0.0112068
0.0007611
7.66274e-05
0.00583613
0.00418006
0.000393518
3.49346e-05
0.00317932
9.21779e-05
0.00410126
0.00587039
2.59728e-05
0.00271405
0.000461945
0.000108253
0.00583517
0.00696632
0.00104545
0.000694974
0.000544148
6.68364e-05
0.000237489
0.000190205
0.00161212
0.0123531
0.000357863
0.00286136
0.000365039
0.00115432
0.00388775
0.000471102
0.00374279
0.00210622
0.0104006
0.00170364
0.00584751
5.15146e-05
0.00234375
0.00375094
0.00237197
0.0099809
0.000348611
0.000469136
0.00583401
0.00583413
0.00583468
0.00582945
0.000503592
0.000145634
0.000180897
0.000866828
0.00583183
0.0010825
0.00221165
0.000506585
0.00136001
0.00435836
0.00113724
0.000858887
0.0020073
3.98772e-05
0.00952684
0.000150671
0.00943924
0.00277601
0.00584168
8.70384e-05
0.00643089
3.70609e-05
0.00583378
0.00219236
0.000984048
0.0120621
0.00425032
0.000341392
0.00434054
0.000154111
0.000850061
0.0117783
0.000576568
0.0011223
0.000826758
0.00103468
0.000262841
0.00190355
0.00583366
0.00039145
0.00796831
0.00583348
0.00256869
0.00583552
0.00412201
0.00733418
0.0127151
0.00583011
0.00403493
0.00208519
0.00588633
0.000233031
0.000660845
0.00340837
0.00583196
0.00583235
0.00161501
0.00079403
0.000758702
0.000403753
0.00584287
0.0134538
0.00218689
0.0149063
5.33963e-05
0.000522354
0.000408898
0.000974152
0.0127068
0.00110109
0.0013965
0.00183853
0.0108854
0.0101041
0.00582941
0.00583337
0.000308842
0.0125052
0.00680166
0.00589719
0.00337536
0.0122769
0.000424879
0.00137269
0.00121193
0.000792002
4.34143e-05
0.0022762
0.0134144
0.00428136
0.000576176
0.000112739
0.0035141
0.0058408
0.00582922
0.000523058
0.00888635
0.00119427
0.00187966
0.00140019
0.000140532
0.00341192
0.00145503
0.00890807
0.00275611
0.00494251
4.0237e-05
0.00583546
0.00583371
0.00929992
0.00583299
0.0058616
0.00123884
4.93949e-05
0.000827945
0.00361407
0.000392838
0.0058348
0.0139676
0.000542797
0.00530263
0.00274094
4.65255e-05
0.000606982
0.00415275
0.0010354
0.0136349
0.0058339
0.00873896
0.00484147
0.00900253
9.90396e-05
0.000226846
0.00561599
0.00227285
0.000181242
0.00121399
0.00896192
0.000566687
0.000247341
0.000509538
0.00118657
0.000397858
0.00450086
0.00139808
0.0120748
0.0029271
0.0058359
0.00450249
0.00100814
0.00312106
0.00069038
0.00583482
0.000610103
0.00205716
4.46087e-05
0.000142858
0.00569518
0.00582927
7.08626e-05
0.00276449
0.000790068
0.00113443
0.000510933
0.00411339
0.0018601
0.00148087
0.00221173
0.00752109
0.0130917
0.00583197
0.00582906
0.00204819
0.00152192
0.00583525
0.00196911
0.000630158
0.000887921
0.000120009
0.00586494
0.0139284
0.00758583
0.00583615
0.00208826
0.00097918
0.00157291
4.21282e-05
0.00209772
0.00724331
0.000397212
0.00110364
0.000831781
0.00583261
0.00071321
0.0053585
0.00331864
0.000299831
0.00886542
0.0101633
0.00583538
0.00583102
0.00143905
0.00372121
0.000460745
0.00159837
0.000436309
0.00208306
0.0106622
0.0031531
0.0141715
0.00583322
0.0133377
0.00242693
0.00583305
0.00858341
3.34467e-05
6.09181e-05
0.00049148
0.000146749
0.000838766
0.00584109
0.00696475
0.00583631
0.0058351
6.6429e-05
0.00175231
0.00393937
0.00908135
0.000507171
0.01013
0.000399121
0.000116639
0.00591052
0.00137117
0.0014247
0.0135059
0.000657483
0.0129503
0.00692144
0.00389146
0.00351206
0.00346442
0.000218856
4.10613e-05
0.00195922
0.00583327
0.000656675
0.000805876
0.000876848
0.000610149
7.57215e-05
0.00583141
3.14212e-05
0.000370465
0.00257351
0.000599958
0.00120112
0.00140891
0.0146219
0.00582902
0.000431399
0.0108103
0.00144101
0.000905211
0.000621438
5.1109e-05
0.00133018
0.00391214
0.0013649
0.000803391
0.00194653
0.000385781
0.00265545
0.0131936
0.00583123
9.04663e-05
4.21436e-05
0.0124252
0.000602845
0.000357118
0.0018674
0.000145297
0.00583568
0.0122454
0.00149677
0.00440821
0.000968766
0.00583209
0.0058358
4.44665e-05
0.00583421
0.00583338
0.00318337
0.000813913
0.00210257
0.000511806
0.000929346
0.000261758
0.000395385
0.00583538
5.9424e-05
3.17086e-05
0.000348552
0.000367749
0.000437145
0.000620573
0.0090228
0.000347854
0.00583617
0.00605258
0.0101405
0.00583615
0.00138875
0.00583088
3.73525e-05
0.000303141
0.00415568
3.91478e-05
0.0129176
0.00583113
0.00215922
0.0116349
0.00803215
0.00178767
0.00583472
0.00363364
0.0112736
4.87133e-05
0.00583343
0.0138598
0.00188408
9.23338e-05
0.0114586
0.00123001
0.00583138
0.000895906
0.000312549
0.00100373
0.0119005
0.0142347
0.00584796
0.00919619
3.61479e-05
0.00810147
0.00583375
0.000114279
0.00201345
0.00543285
0.0147253
0.00195478
0.00079879
0.00270677
0.000443428
0.00061454
0.00592234
0.0135738
0.00388679
0.00584004
0.00250586
0.00027062
0.00590798
0.000819482
0.0143166
0.00876131
0.000624459
0.00234153
0.00434478
0.0147048
0.000648427
0.000741555
0.00584667
0.00128333
0.000316925
0.00223432
0.000297703
2.78325e-05
0.00583363
0.000737554
0.00594955
0.000155364
0.00729106
0.00298156
0.00583396
0.00583644
0.00159569
0.000561846
0.00230957
0.0146506
0.0133863
0.00586563
0.00583991
0.00583398
0.00583143
2.3942e-05
0.00587447
0.0115231
0.000470205
0.00188705
0.00557743
0.000311044
0.0144144
0.000990829
4.30279e-05
0.00818818
0.00198173
0.0036739
0.000255462
0.000208555
4.65439e-05
0.00374774
0.007867
0.00168946
0.00584183
9.0464e-05
0.00587509
0.000602969
0.00215627
0.00983496
0.000319005
0.000147701
0.000269735
0.000645037
0.00583315
0.000291976
0.00124825
0.00583583
3.94119e-05
0.00582899
0.00192959
0.00084218
0.00236905
0.00769618
0.00114888
3.68639e-05
0.00127961
0.00583393
0.00988299
0.0129709
0.000749239
0.000250943
0.00142123
0.000347539
0.00125286
0.00194637
0.000593335
0.00142476
0.000775074
0.000617035
0.00984288
0.000133919
0.0002189
0.00158444
0.00281954
0.0148717
0.00582717
0.0112987
0.000757072
0.0126059
0.000673861
0.00264661
0.00469608
0.000719258
9.12066e-05
0.00431781
0.0144886
8.51489e-05
0.00546748
0.00278528
0.00963325
0.00103264
0.00222818
0.000591033
0.000670706
0.00114824
0.00657282
0.00583613
0.00190467
0.00144888
0.000377319
0.00583357
0.0011328
0.00584056
0.00965664
0.000909349
0.000383762
0.000742379
0.000779846
0.000201884
0.00177829
0.000352773
0.00584577
8.21152e-05
0.0138923
0.00298903
0.00332618
0.008777
0.000999363
4.33057e-05
0.00583631
0.000783952
0.0138387
0.00164947
0.00556087
0.00353674
0.000240145
0.0147878
0.00349618
0.00584175
0.00250641
8.98218e-05
0.000827408
0.0131483
0.000808995
0.000162398
0.000414378
0.000345506
0.00274588
0.00861406
0.00972666
0.00134787
0.000800292
0.00120788
0.00032451
0.00595019
0.000873759
0.00202201
0.000235036
0.00583895
3.4841e-05
0.00560465
0.00343669
0.00541181
0.00110826
0.00316848
0.014374
0.00583194
0.00102209
0.00583523
0.00162214
0.00112925
0.000164968
0.0105631
0.000503936
0.00583097
0.000357596
0.00116611
0.00344622
0.000728826
0.0058559
0.00639542
0.0129353
0.00074865
7.25013e-05
0.00583072
0.000894793
0.00124781
0.000753955
0.00585515
0.00334456
0.00583289
0.00109047
0.00583332
0.00121507
0.0027988
0.00586737
0.0121177
0.00533995
0.000865238
0.00191903
0.00583605
0.0123666
0.00552986
0.000418868
0.0141603
0.001696
0.0100232
0.00352023
0.0134184
0.00170683
0.0136399
0.00116324
0.000934862
0.00434774
0.000819547
0.00103794
0.00116334
0.000380412
0.0131009
0.00034566
0.000199811
0.000535963
0.000995717
0.000213356
0.000110298
0.000647439
0.00447261
0.00451875
0.00104951
0.000197594
0.000885002
0.000802319
0.0098024
0.00864985
6.04828e-05
0.00354836
0.00278369
4.22692e-05
0.00166532
0.000772405
0.00305218
0.0088517
0.00492567
0.00213318
0.00561623
0.00148688
0.00763545
0.000126699
0.00583622
0.00484336
0.00315217
0.00552072
0.000896415
0.0014339
0.000443914
0.000829079
0.00246949
0.00126327
6.94987e-05
0.000164737
0.000611587
0.0102225
0.0118914
0.00492462
0.0058327
0.00488687
7.26287e-05
0.00304334
0.000152299
0.00897328
0.0114378
0.0058341
0.00583994
0.0122021
0.000200331
0.00583612
0.00584793
0.000488002
0.00436202
0.0123601
0.000932116
0.000486326
0.00583467
0.000628508
0.00103704
5.19734e-05
0.00027374
0.000193661
0.00176782
0.000595635
0.000708883
0.0013533
0.00329989
0.000915138
0.0118748
0.000724084
0.0031479
0.00583307
0.0133883
0.000310873
0.000393051
0.00583105
0.00583401
0.000273671
0.00745516
0.000101343
0.0058195
0.00541879
0.00148508
0.0131315
0.00133961
0.00587864
0.00527825
0.000246554
0.000657786
0.00583541
0.0115293
0.00841248
0.00481694
0.000251936
0.00706946
0.000322815
0.0032069
0.00586346
0.00237253
0.00191574
0.000406131
0.000774597
7.25665e-05
0.000366123
0.00584607
0.00240841
0.00896536
0.00585987
0.000352983
0.000479292
0.00488277
0.000604597
0.00583399
0.00094053
0.000680304
0.0058317
0.00969272
0.00583538
0.000294882
0.0133705
0.000465742
0.00233905
0.00583639
0.0140719
0.00583224
0.00114549
0.00189821
0.000150319
0.00018427
0.000770811
0.0132044
0.000194949
0.000420059
0.00146507
0.000922969
0.00589499
0.00583355
0.00425493
0.0126231
0.000207502
0.00123785
0.000817322
0.000837017
0.00819746
0.0140765
0.000707034
0.000528823
0.00583118
0.0121359
0.00467356
0.00400161
0.00075507
0.00105949
0.000422763
4.24322e-05
0.000171069
0.00042155
0.000815373
0.0149577
0.00140756
0.00583178
0.00307742
0.00015106
0.00584235
0.0101775
0.005831
0.00583328
0.000611929
0.000165625
0.00325388
0.0058426
0.000676409
0.00584152
3.54644e-05
0.00585737
3.52373e-05
0.00328067
0.0128608
0.00948358
0.00045496
0.000315021
0.00953749
3.73023e-05
0.00583471
0.000377762
0.000169329
0.000321594
4.06544e-05
0.0107766
0.011765
0.0128955
5.29697e-05
0.00235261
0.00091318
0.00583078
0.00443913
0.00104132
0.00281381
0.00137294
0.00204746
0.00585219
0.000706837
0.0121261
0.00583148
0.00142434
0.00582901
0.00858654
0.00150877
0.013907
0.00993717
0.000189355
0.0058336
0.00585349
0.00829177
3.73354e-05
0.00583352
6.85388e-05
0.00583511
0.000210204
4.59309e-05
0.000546601
0.000948523
0.00317702
0.00584724
0.00589973
0.000998848
0.0107482
0.00072296
0.000257466
0.00550602
0.00186013
0.00583782
0.00583195
0.00163647
0.00455402
0.00133333
0.0108663
0.000900003
0.00186576
0.0140263
0.000374251
0.00583185
0.00118683
0.00583691
4.0231e-05
0.00425284
0.000761502
0.0058443
0.00583355
0.00587951
9.91534e-05
0.00324065
3.32962e-05
0.00586487
0.000256016
0.00604997
3.97157e-05
0.00583297
0.00103337
0.00152026
0.000203728
0.0100789
0.00583436
0.00776858
0.000331206
0.000203862
0.00592566
0.00583817
0.0106038
0.000603438
0.00432637
0.00485308
0.000864655
0.00096473
0.00017912
0.0142903
0.00136517
0.000157686
0.001214
0.00583399
0.00945815
0.00340191
0.0128611
0.00499644
0.00191303
0.00583331
0.00934508
0.0124307
0.00583383
3.9104e-05
0.000927134
0.00583113
0.0051165
0.00584438
4.07428e-05
0.0139641
0.000345449
0.00244139
0.000573227
0.00583316
0.00333585
0.00148989
0.00583155
0.000617949
0.00334581
0.00137677
0.000318434
0.000563886
0.00582763
0.00836171
0.000831362
0.00583302
0.000265133
0.00108307
0.000682857
0.000665261
0.00657634
0.000493794
0.00362612
0.000365602
0.000384479
0.00134836
0.0134583
0.00136434
0.00212136
0.000735904
0.00481149
0.000159574
6.92614e-05
0.000165888
0.00583351
0.00440297
0.0058317
0.000251687
0.00126406
0.00115591
0.00875998
0.00703072
0.0099898
0.00583587
4.43142e-05
0.0134316
0.0148395
0.00543954
0.00322264
0.000884151
0.0125301
0.000848856
0.00119602
0.000359261
0.00671435
0.00026716
5.71331e-05
0.000589919
0.0118812
0.000171476
0.00584202
0.000173225
0.00077152
0.00248515
0.00313601
0.00144149
0.012972
0.000360124
0.00861092
0.00116169
0.00108657
0.00294194
0.000315982
0.00898365
0.0023218
0.00105615
0.0113728
0.0089593
0.000456592
0.00190291
0.000967281
0.00174275
7.71175e-05
0.00129132
0.000125266
0.0145984
0.00584887
0.00349704
0.000218184
0.00011302
0.00583064
0.0058335
0.0011286
3.8962e-05
0.00473579
0.000510012
7.77667e-05
0.000174594
0.0094812
0.0126469
0.0140836
0.0141134
0.000647751
0.0058519
8.44937e-05
0.00626354
0.00623596
0.00455446
3.55959e-05
5.83341e-05
3.26304e-05
0.00408045
0.00583567
2.92115e-05
0.00221889
0.00125709
3.29595e-05
0.00598924
0.00583462
4.25748e-05
0.0138398
0.00224477
9.12012e-05
0.000544567
0.00583587
0.000638474
0.0135116
3.92945e-05
0.00583562
0.00387248
0.000621787
0.00177537
0.00583237
0.00239484
0.0024697
0.00326005
0.00248831
0.000335406
0.000238344
0.000182059
3.53349e-05
0.00116739
0.0101547
0.0006327
0.00209379
0.000652274
0.00233572
0.000100219
0.00674747
0.000584297
0.000417577
0.000575013
5.87923e-05
0.00332567
0.00019061
0.00274585
0.0103885
0.000677232
0.0039383
0.00542349
0.00443434
0.000150488
0.00120781
4.10869e-05
3.95878e-05
3.91264e-05
0.000540723
0.000337359
0.00516788
0.00266201
0.00882536
0.000347465
0.000121921
0.00407269
0.00480612
0.00058761
0.0138973
0.00583149
0.00613835
0.000150475
6.76343e-05
0.000297258
0.00556685
0.00583199
0.00101979
0.003064
0.00239171
0.00105128
9.18244e-05
0.000223491
0.00407455
0.00303145
0.0027786
0.00583516
0.00970786
0.00214312
0.00931858
6.82303e-05
0.00429129
3.6662e-05
0.00016658
0.0116933
0.00246005
0.00200629
0.00589411
0.00583354
0.00292336
3.89347e-05
3.83117e-05
0.0132933
0.00583369
0.00326052
5.26135e-05
0.00583552
0.000433784
0.000876823
4.70166e-05
4.56636e-05
0.000214084
0.000255165
0.00584459
0.000624794
0.00028296
5.51149e-05
6.83699e-05
0.000214818
0.00583133
8.64762e-05
0.00584983
0.000249883
0.0131312
3.85088e-05
0.00317605
6.61269e-05
0.00338379
0.000759093
0.00187616
0.00330757
0.000383223
0.0024866
0.0125284
7.3343e-05
0.000218234
7.18053e-05
0.00019432
0.0106671
0.0139102
0.00044388
0.0124087
0.000122051
0.0058242
0.000110679
0.0145884
6.58432e-05
0.00583522
0.000505431
3.51457e-05
0.000372172
0.00268389
0.00311327
0.000149936
0.00583422
0.00584805
0.0015903
0.000117481
0.00583569
0.0068264
0.0121069
0.000314737
0.0070864
3.72996e-05
0.0135782
0.000435337
0.00584105
0.00112304
0.00585664
0.000161587
0.000738533
0.000477378
0.00078696
0.000245938
0.00586117
0.013007
0.00102781
0.000526941
0.0130495
5.53222e-05
0.00557087
0.0144504
0.00441455
0.00284757
0.00583349
0.000405281
0.000137866