/*--------------------------------*- C++ -*----------------------------------*\
| =========                 |                                                 |
| \\      /  F ield         | OpenFOAM: The Open Source CFD Toolbox           |
|  \\    /   O peration     | Version:  v2012                                 |
|   \\  /    A nd           | Website:  www.openfoam.com                      |
|    \\/     M anipulation  |                                                 |
\*---------------------------------------------------------------------------*/
FoamFile
{
    version     2.0;
    format      ascii;
    class       volScalarField;
    location    "400";
    object      omega;
}
// * * * * * * * * * * * * * * * * * * * * * * * * * * * * * * * * * * * * * //

dimensions      [0 0 -1 0 0 0 0];


internalField   nonuniform List<scalar> 
13917
(
0.0445705
0.025383
4.79437
0.0265775
0.0254423
0.487068
4.46421
4.9592
5.56273
0.072737
0.167865
0.0709068
0.0266477
12.3256
0.0294292
0.0281953
0.0254991
0.0578162
0.069565
0.025452
0.0256558
4.37814
0.0254238
4.95991
0.0253045
4.20164
0.0465845
0.0603257
0.819078
0.109344
0.0473359
0.0311114
0.0403842
0.0288501
0.025323
0.877475
0.0254355
3.86207
0.0283271
6.30368
0.0251608
0.0256811
0.0247386
0.0919241
0.0252512
0.0307738
0.0568899
0.0753764
2.85229
0.0253269
0.0298924
0.0255802
3.27866
0.0292697
0.0255122
0.0299212
0.165323
0.0252902
0.0280821
0.0252132
10.2576
0.0253842
23.9219
0.0254368
0.449156
17.1922
0.0254362
0.0253437
0.183928
0.0407987
0.0254537
5.66688
4.34209
0.0253148
2.93457
0.0826896
5.77163
0.0258683
3.94215
0.0256159
0.0255729
0.0254467
0.42195
3.84364
4.79176
0.025772
0.0255404
15.0958
0.0296149
0.0247251
4.12109
0.0958914
0.025096
0.0262056
15.7862
0.423669
0.128494
0.0696284
0.143239
0.119564
0.0250569
0.0364511
0.0922101
0.0262312
0.0250199
5.90557
0.503009
0.0795353
0.025503
0.050812
4.30785
5.54213
0.0908987
5.77404
0.0261715
3.28893
0.0253101
1.53581
5.1205
0.0292399
0.0256652
0.17709
4.62484
0.0568694
0.0252715
0.0260388
0.0252318
0.025281
0.024773
0.4696
3.63742
0.0260816
0.0252766
0.0256658
4.29518
4.92619
0.0452349
0.129585
0.0254261
0.0291368
0.344457
0.0249623
0.0257964
0.114485
0.0253419
5.84798
0.854812
0.025531
0.0249344
0.0317575
0.0603892
3.28505
0.0937677
0.0465609
0.030169
6.45724
0.0390822
3.58442
7.93646
4.14836
0.0274147
0.0475083
0.0256158
0.123051
0.089138
0.140674
0.0262028
0.0644221
0.0250995
0.0375832
0.0468926
6.72367
0.0987412
0.0257997
5.51275
0.0510995
3.63604
1.98599
5.79258
0.0251625
0.100062
0.0490414
0.0249541
0.0255285
0.0337328
4.33667
0.368406
8.30355
0.0397925
0.131734
0.424413
5.30196
0.336579
0.0254373
0.134529
0.0449079
0.0257035
0.025104
0.262917
7.45086
0.0291646
0.0253475
0.0597263
0.0596092
4.78441
2.12
0.0253276
0.0252995
0.0680214
4.56672
0.0257038
4.4772
6.72826
0.1322
0.0250313
0.639543
0.0594919
6.16343
0.0252486
10.9186
0.0251604
0.0977411
0.0251541
3.90715
5.93508
0.0285336
2.13305
0.0305064
0.0250362
0.830563
0.096674
0.0393587
4.85951
9.03981
0.0249986
0.0316143
4.06138
4.62789
0.0256053
0.0252336
5.04937
0.145568
0.0256558
0.238512
0.103374
0.0453883
0.0408985
0.0256052
0.0508957
7.42415
0.0250669
0.12755
0.160323
0.0252066
0.0252833
0.0742501
3.77181
0.0882196
0.0341129
0.0295504
0.0256618
5.97279
7.00441
0.249872
0.0250479
4.59541
7.09623
4.10339
3.86497
0.0882614
0.0255872
0.0252149
0.057145
4.13251
0.12807
0.0277891
3.07302
0.0455024
0.0247646
8.50997
0.0254206
5.50789
0.0286988
0.0256496
0.0306106
0.046203
0.0472642
0.235017
0.0364323
0.0251847
0.347995
4.88524
6.9518
0.0252509
4.54926
0.0255303
0.0251771
0.025321
1.21498
0.0254434
0.106717
0.0398956
0.02508
0.0599106
0.0262825
2.39907
0.0497928
0.0878682
0.0249852
0.0252769
4.39798
5.18174
0.0253023
0.0251841
8.56919
0.0251385
4.18775
0.0249814
3.91569
0.0254837
0.519265
0.0364508
3.05109
0.0271203
2.12066
0.356252
0.0306032
0.144763
0.580416
0.0254829
3.74229
0.134255
5.81954
0.0279564
6.61547
0.0323495
4.69734
0.276066
0.125921
0.122443
4.70927
0.0255895
0.0487171
4.28051
0.0254135
0.0266541
6.36998
0.31991
0.0257235
0.243867
0.758427
0.0251148
6.1733
0.415056
0.025412
0.0251561
0.0255402
0.0249264
0.36036
5.69489
0.733268
4.29237
0.0253149
0.142725
6.6995
0.0457634
4.38731
3.97157
5.81493
0.0249872
0.242718
0.0251286
11.0396
0.0252116
3.79357
0.103309
0.027603
0.0255651
0.0645745
0.109075
0.078434
8.07431
4.46432
9.53482
0.0531142
0.068094
0.0252446
4.77799
4.23919
0.0252953
0.961707
0.025351
0.329461
0.0254822
0.0256027
0.0263247
3.61963
0.0262884
3.45833
5.95833
0.15042
0.503219
0.0254703
0.538419
0.458211
0.0253508
0.355029
0.0254009
0.0253283
0.109643
0.0256489
0.0253105
0.0251233
0.372083
0.0256306
5.53456
3.97838
5.29345
0.336677
3.40001
6.13308
0.0451214
0.0253245
0.185438
0.0281124
0.0329184
0.025427
5.76455
4.4605
4.00834
0.0281622
0.117176
0.0277936
0.0287812
0.0779811
0.0261103
0.280108
0.0254902
0.0254296
4.10349
3.62419
3.63026
0.14232
6.34293
3.71776
4.24586
5.8706
0.0248134
0.0622151
0.0261683
0.025326
0.976203
0.0579544
0.024987
0.067568
0.0428906
5.89506
0.0253451
0.125296
13.9489
0.814963
4.40608
0.0256405
0.025303
0.0256776
0.0393314
0.024991
4.32797
0.588228
0.0362436
5.34432
0.0298334
0.125389
4.36599
0.868235
0.145701
0.380851
0.124924
0.0661762
0.174223
0.0457309
0.166481
0.636221
0.0515917
0.0884172
0.0250607
2.49087
0.0306576
0.0248064
0.037626
0.0259665
5.43226
5.79303
0.0251351
0.0247818
4.51671
8.70279
0.0256493
5.74346
0.0259149
0.246538
0.0251493
5.06306
3.2102
0.0316868
0.0254954
3.38185
0.283174
7.01242
0.0256594
6.56415
2.45482
8.78483
0.0248182
4.58406
6.26261
0.0458413
0.0251467
0.0254957
0.0828556
0.36258
0.0249225
0.0251655
0.0252476
0.0252401
5.17108
1.04525
0.0452074
0.356544
0.0252489
0.0250671
0.114641
5.08744
0.0365746
0.0251114
0.0253233
0.0253798
8.70285
5.84472
0.0255326
0.0253782
0.228299
0.0454167
0.0364284
0.0253007
0.0264054
0.0301702
0.0863501
0.464084
0.366743
0.189788
0.105223
2.35218
0.0856112
0.0252644
6.19376
0.0253849
0.0269426
0.0272523
2.25792
0.0857924
0.0250705
0.815357
0.122984
12.0864
0.106324
0.0403005
0.0450521
0.0255536
6.71363
0.566312
4.29156
0.0254137
0.0326568
0.356257
3.96383
24.2046
0.0729122
0.163932
0.0281392
0.0272731
0.0253031
0.061385
0.0983483
0.0254188
0.0589096
0.152009
4.38019
6.31105
0.0272122
0.121464
2.15914
0.0318378
0.0256178
3.54199
6.34083
5.6505
0.320627
0.0247917
5.52713
0.0811823
0.0251094
0.0347386
0.0808888
0.0387857
0.107089
3.97141
0.169837
0.0408033
6.65614
0.026252
7.42708
0.0256169
0.0255238
4.61201
6.27411
0.676141
0.0262456
0.0257452
0.0253832
0.0461753
3.3745
0.132725
0.0274774
0.135814
0.0633345
0.0251535
2.20243
0.128963
0.278763
0.0252234
0.164629
0.0259436
9.729
0.0742052
0.085579
0.0329966
0.0251439
0.0248386
0.025263
0.135699
0.0311904
0.365477
7.08364
0.063613
0.0251273
0.166097
0.74343
1.5318
0.0250457
0.0305172
0.0251761
0.0318241
0.0282488
6.07858
0.0256053
4.71391
0.0315721
0.165963
0.0974536
4.36246
0.0889617
0.0254517
4.36513
17.7165
0.0252679
0.0271683
3.14335
0.255942
0.127957
0.0256171
0.0255228
0.388198
0.0277393
0.0777236
0.0707107
0.0248393
0.0595094
4.82517
0.0250249
0.0260303
0.025274
5.42215
0.0256543
0.0278313
6.08021
0.0265193
6.25933
0.0302571
0.0411743
0.0252641
0.0569111
0.0253325
0.0646965
0.0251511
0.0967217
0.0259167
26.8733
3.06821
5.11709
0.0255693
0.0255756
0.0811809
0.0539322
4.79325
5.41974
0.0572797
0.0253313
0.368337
0.738012
0.279059
0.313101
0.0547575
3.9008
0.044135
0.0434351
0.159719
0.207755
0.0564865
1.17531
0.0559434
0.0265575
0.0861151
0.0307037
0.0248871
0.0316063
0.0507703
0.0310938
0.0253412
0.0251991
0.0636184
0.0263971
0.0787305
0.0253355
0.0253708
0.0256646
0.0263081
0.0246715
0.0290158
0.0253007
5.24328
0.0695331
0.401146
0.0250241
0.0256297
0.0543052
0.0673261
0.0259049
8.22232
0.0903046
11.2241
0.0316758
0.133306
0.0255554
0.0256586
0.0252171
0.0263007
7.8444
0.0256402
4.83971
0.0293039
6.03289
0.0558642
0.0917445
0.163071
0.0248588
0.025688
0.0708177
0.025343
0.0256147
7.91877
0.0258818
0.0255408
0.0310486
0.0252254
0.0248506
0.031154
0.0316086
6.14298
0.0387598
0.0250225
0.025131
3.98121
0.133451
0.025413
0.025415
8.15558
2.90728
8.6354
0.0403484
0.026568
0.0250138
0.0248315
0.0526057
0.0398918
0.243156
0.028403
3.82516
0.0254819
0.0268239
9.34315
0.0253594
0.030804
0.025236
0.0254084
0.0492947
0.0485606
0.0256246
6.20208
4.33063
0.0987089
0.0252588
0.0247364
0.128716
4.20154
0.0256485
1.68396
0.0247379
0.0477265
0.0248527
0.0249313
0.385385
0.0251474
3.25572
0.0438917
0.0256644
0.0247803
0.0253448
0.0251675
0.0259506
4.19702
0.024996
0.0249358
5.11472
5.82774
0.0420225
0.0524121
0.0736238
0.0281754
0.0249801
0.0316335
5.09013
0.102452
0.0254734
0.0254422
5.52693
0.0393297
4.37778
0.0256551
0.026012
6.449
0.0367595
0.0256952
7.97327
1.75753
0.0251641
0.143937
0.0252136
0.0251275
0.0250058
4.32723
0.0246625
0.0250239
0.0249725
3.43598
0.0276602
0.244343
0.0708329
0.024916
0.036959
0.0255328
4.30019
0.0252536
0.0250115
0.0255421
0.13372
0.0255317
0.169612
5.79246
4.78962
0.029917
0.479291
5.32064
0.02527
6.9106
9.59482
4.80732
3.42183
5.01403
37.041
0.154514
0.0255167
3.88961
0.0366989
4.15286
0.0248148
0.0250882
0.0254122
0.0255237
0.0289808
0.034955
4.5459
0.0250786
0.0253901
6.48731
0.333427
0.025345
0.0422031
0.0328005
0.0253623
2.8508
0.0427919
0.026945
0.027601
5.72647
7.77683
1.34483
0.0248382
0.286359
0.122623
4.59977
5.84449
0.0966166
0.0251431
0.0256138
0.0254847
0.0246136
0.0263946
0.0248054
0.0302839
0.0429203
5.59797
0.142829
0.0250411
0.130071
4.26881
0.0465217
0.0255395
6.60848
0.0250653
0.0255408
0.0424679
6.56785
0.0255319
0.0252226
4.48113
0.222585
1.71227
0.115579
0.910873
0.0251912
0.189071
0.0255658
0.025298
0.0255624
4.30898
6.33446
0.0249215
0.0247741
0.0252493
3.4062
0.0261802
0.0328312
0.0253459
0.0256137
0.183034
0.0249288
0.0659343
0.385422
3.62792
0.0251808
0.0944159
0.0273901
4.54603
4.22886
0.0253145
4.45363
0.0786219
1.47751
0.02553
3.56568
0.0256274
0.0297343
0.0479525
0.11567
4.53042
0.349043
0.189563
6.4153
0.025119
0.305043
0.0249199
0.0306763
4.4763
0.0253324
0.0256373
0.0259534
0.0253427
5.16213
0.0248551
0.0254114
0.0605423
0.0520961
0.054633
0.646382
0.141873
7.66879
0.0706245
0.0385479
0.0424389
4.71791
0.0431622
14.2055
4.12186
0.028411
0.024927
3.27609
0.280058
0.0255338
0.120114
0.0369803
0.0254233
0.0293828
0.0253816
0.0479789
0.0256895
0.0536128
0.121622
0.0251393
0.0669494
0.0249734
0.0673962
0.0251443
0.029398
0.0635975
0.0265303
0.0252418
0.0249335
2.15505
0.0908247
6.14998
0.0253058
0.0253309
0.0647778
0.0252375
0.100003
0.0910605
0.0254254
0.103816
0.0249574
10.0446
0.0255018
0.0403245
5.53165
0.301211
0.0251999
0.0267804
6.79117
0.025302
0.0251918
4.45163
4.18151
0.0273978
0.177249
0.0254395
0.0252332
4.35545
0.0261668
0.0248718
0.263283
0.0249714
2.77501
0.0255644
0.0248778
0.0254146
0.144296
3.66829
0.025371
0.0254843
0.025193
0.0290658
0.0254052
1.06471
0.0646288
0.0256586
5.68783
0.0559785
0.300517
3.74251
3.66122
0.0249083
0.0254883
0.0252784
0.83282
0.0295403
3.70952
5.70123
0.0271009
4.37866
2.35783
0.0540913
0.157469
0.0790259
0.433199
4.563
0.0713583
1.12834
3.87712
0.0695851
0.028362
4.52828
0.0608829
0.024829
0.0263789
13.5252
0.0429095
0.025128
0.0590524
0.110007
0.0430753
4.43158
0.0269069
6.44504
0.0425611
0.257112
0.135972
0.306911
0.0320939
0.0249517
0.025757
4.7927
0.0252917
0.0272952
0.0249973
0.0264194
0.0250737
0.0397648
0.163668
1.93775
0.05038
0.0666769
4.0273
0.402825
0.0250591
3.01139
4.21371
0.0249158
0.0251798
0.0339378
6.69642
0.0256395
0.0760176
0.678016
0.0540158
0.0253325
0.02618
0.0249819
0.12043
0.0444451
0.0252888
31.1463
3.91871
0.0484136
2.03838
0.0704978
5.88228
0.0264557
0.0284684
4.30875
2.68567
0.0976088
1.82522
0.0314912
0.0256685
0.0251003
0.025374
0.025315
0.0258404
0.059496
0.0252115
0.134214
0.0252234
0.0315968
0.0248999
0.090935
0.132953
0.876875
0.0252627
0.303743
0.0250996
4.40957
0.0253427
0.0288315
0.0254652
0.268593
4.67647
0.152392
0.0252016
0.143193
0.02525
0.0329601
4.16106
0.025106
0.0255818
0.0502353
0.0347067
4.38264
0.0252122
0.0333862
0.0261584
0.025353
0.0362936
0.0256552
0.0249635
0.0268481
6.48419
0.0275824
0.279048
5.69474
0.0565508
3.57301
0.0273335
0.0249719
0.0347593
8.36061
0.0263651
0.0409959
0.0453872
5.22588
0.0251497
5.77785
0.0685435
0.0767537
0.0249024
0.0248009
0.182588
0.0256425
0.0256813
0.0377775
0.0248302
0.0275603
0.0317438
0.0762921
0.304915
4.38974
0.0281136
0.0804902
2.96965
7.51775
0.0406635
0.299216
6.56973
0.0426416
13.0552
0.0268592
20.8988
5.46076
0.0247991
0.0256494
0.0252409
0.0256804
0.0499402
0.0248974
0.0270865
0.0966414
0.0263862
0.0398867
4.27181
0.0338991
0.0271826
5.56273
0.0257017
5.65808
0.0273238
0.0613844
0.0251357
6.81571
5.9736
0.0252482
0.0257952
3.73336
0.033138
6.7652
0.0253318
0.024966
4.38052
0.0257916
0.0499797
9.45266
0.0253814
0.0599462
0.03238
0.0247942
0.0251693
3.84231
5.55179
0.0253841
0.0265642
0.0253062
0.0297242
0.0405149
6.18017
0.0258704
2.60186
4.46469
0.247315
3.83687
0.0257452
0.131708
0.220782
0.0326603
0.0253777
0.0652172
4.08975
0.0265661
0.0522135
5.02162
3.67965
0.325775
0.028409
0.0254774
0.0256285
0.0253842
7.42678
0.0597848
0.0268479
0.0258994
0.0274707
0.0256601
0.025229
0.0253397
0.0790838
0.041014
5.60765
0.0525568
5.01761
3.37045
0.0341875
0.0552294
0.0250472
0.0318467
8.26854
0.0253335
0.0267235
0.0558395
0.128131
0.0639683
3.85921
0.25174
0.0250724
3.94934
0.0247517
0.0254052
0.0515788
0.0256648
0.025059
0.184396
6.84849
0.0249778
4.25171
0.0253137
0.0248959
0.0266386
2.71094
0.0323461
0.0272928
12.6798
0.0260721
0.245671
3.39483
0.0256285
0.0538254
0.0253162
5.8963
0.0773413
0.0253405
4.14177
0.0587453
0.088957
0.0256714
6.48857
0.0328177
0.452005
0.0259756
0.0813811
6.86384
0.0249254
1.52706
0.0253638
0.0682337
0.0588259
0.0256273
4.54242
0.0267727
0.125619
0.0631591
0.108886
0.0455892
0.04937
0.0257999
4.98501
0.0358174
6.96304
0.0336768
0.0697491
0.0251633
0.0487266
0.0253204
0.0745622
4.6706
0.0259267
0.0250472
3.4506
0.0259353
3.18527
0.0256239
4.35018
0.293249
0.0389382
0.0252864
0.0252183
0.0254416
0.0248013
0.112186
0.0636681
0.0431578
0.0289771
0.0254119
2.74238
0.0266434
0.0375483
2.45881
0.0253133
13.2897
0.0556556
0.0327546
1.30965
4.35317
0.35752
4.50073
9.45755
0.0251389
0.407479
4.94237
0.382286
0.025532
0.0254662
0.124339
4.0661
5.53301
0.703018
0.02539
0.0570868
0.0433722
3.40375
4.94856
0.045356
0.139285
0.0270748
0.0909121
0.0972266
0.0255209
0.11474
8.05282
0.0254738
3.77226
0.0256379
0.0251288
4.7405
4.00812
0.0251005
0.0254618
0.0256327
0.0249794
0.0550009
0.19186
0.0261494
0.025286
0.0254324
0.0433913
0.0310075
0.0307415
0.367202
0.0253201
4.07197
7.59817
4.27759
0.174417
0.0575251
1.38424
0.0365889
3.83391
2.17579
9.83739
0.0256089
6.61325
3.45312
0.0249917
0.0253469
0.114464
4.44045
9.82745
0.024914
0.025259
3.61299
5.09914
6.99295
0.0271374
0.0271098
1.9067
0.0254244
3.74468
7.19024
1.32982
2.76405
0.025335
0.0251887
0.0251516
0.0294427
4.08718
0.043338
0.0284763
0.0258503
0.0982363
7.08512
0.0433488
6.13734
5.36251
5.22153
2.1981
0.0253632
0.0255305
4.36542
0.024842
0.0248284
0.0262413
2.86308
0.0405141
9.30331
0.143664
0.0253322
5.25412
0.0431866
0.0250807
6.08792
0.191607
0.028269
0.0252316
5.07265
4.39961
0.0255408
7.44493
4.50425
6.20092
2.5287
0.093378
0.0251785
0.0257036
1.94964
0.0286938
4.49897
0.0459475
3.64971
0.279593
0.0261026
0.0326467
0.025164
0.0259111
4.65509
6.89366
0.0253848
4.88651
0.0461482
0.0252682
0.028013
0.0252109
0.175892
0.0256131
2.3527
0.0582079
0.025166
0.0251334
0.108496
8.21926
0.0422583
0.0271708
0.0472609
0.0253183
0.0262409
0.0303993
8.70302
4.08001
4.41932
0.0249222
0.0251251
0.0255524
0.132998
0.02513
0.0255945
0.185904
0.0638215
1.09946
0.0247852
4.36263
4.05076
0.0256791
8.80538
0.125128
0.0402532
2.08083
0.0255021
5.10555
0.033195
0.0262564
0.0271022
0.0248375
0.231505
0.025704
0.0258464
0.034727
3.49767
3.60831
0.0256284
0.0253307
0.0266514
0.0251837
0.145082
0.0256615
0.0919967
0.0266093
4.15233
0.0257598
4.29521
0.0249228
5.39638
0.0255635
0.0248154
6.92652
0.363174
0.126444
1.12717
0.0498158
0.0439822
0.0253453
5.13438
0.0253786
0.0251387
0.0988366
0.0692093
9.95974
4.44085
0.133348
6.95131
0.140921
0.972123
0.024999
0.0280171
0.0309692
4.10953
0.028019
4.2124
4.47176
0.0253136
0.0253459
0.0252574
1.70093
3.37605
0.0264415
0.0254464
0.0289636
0.0313165
0.0412714
0.413055
0.359843
0.0253873
0.68329
0.0933607
8.5661
0.0786426
0.0264517
0.0270153
5.08789
0.025148
0.0973793
4.64552
0.0259272
0.0285882
0.191325
0.151888
0.0259735
6.33348
0.0274892
0.301881
0.04345
0.0341
0.0258424
4.34223
0.0251139
0.110757
1.50104
4.79932
0.0544577
0.0743323
0.0286262
0.0540294
0.0256546
5.00672
0.0297306
0.0251381
0.0330456
0.0254241
0.0256591
2.97567
0.0253883
0.0255402
0.0252871
0.141835
0.0254941
0.0366737
0.079049
0.25808
0.127699
0.0256384
0.275402
0.532648
0.244427
0.0935895
0.0309403
0.170506
4.79526
0.715944
0.0256794
7.70048
4.24972
0.0256786
0.0272472
0.024826
0.772106
0.116979
0.0251856
1.33878
4.15361
0.0250463
0.0254649
3.77609
4.15028
0.0708117
0.0248392
11.306
3.25539
3.29144
0.0253363
4.1226
0.0893343
0.080303
4.36465
0.0292786
0.0248414
0.0332612
0.208114
0.0351865
4.01708
4.42653
0.0250395
6.48772
0.587336
4.54079
0.0249183
0.0575302
0.0255325
0.0251726
4.16396
3.52195
0.298851
4.09422
0.0328919
0.0553716
0.0254971
4.62437
5.8944
0.0253515
0.0254389
0.0358421
0.0249479
0.0554007
4.52648
7.46429
0.0559604
0.0256294
0.0252745
4.15344
0.0281945
0.0575904
0.0250136
0.0261799
0.799484
3.90793
0.482242
2.98696
0.0255287
0.324129
0.0255764
0.0539946
9.77866
6.81303
0.0253952
0.0256918
0.0387264
0.0289785
0.0254441
4.42103
4.12913
0.0249669
0.0246342
0.0255552
0.0252596
2.74884
0.0248917
3.92171
0.112232
0.0689577
0.0250629
0.0540772
4.5635
0.036823
0.511703
5.84698
0.0254751
7.18103
0.0373382
0.0401895
0.411492
7.19202
4.60487
0.0652997
0.0251526
0.288125
0.0249051
0.0284987
0.025457
3.92676
0.0357301
2.71348
0.299098
0.0530793
0.0254665
0.323517
0.0299923
0.0256607
0.295519
0.0247659
0.0410509
0.0374164
0.0254247
9.83894
0.0265716
0.633089
0.0260391
0.0252154
5.55749
3.71458
0.0273221
0.0367026
0.0423776
0.0651957
0.0636657
0.0292663
0.0291242
0.0282997
0.238381
0.0282389
4.05325
0.0677974
0.277029
0.12692
0.0257684
4.57685
0.024782
4.59869
0.0274238
4.29318
5.98734
9.09319
7.77084
0.332272
0.0875352
0.0251574
4.34845
0.0970695
0.0253381
7.85576
5.633
0.0264883
0.0268243
0.0340518
0.0340569
0.0355658
5.25784
0.0256789
0.0328768
0.0382891
0.0363012
0.0255203
0.0927325
0.0247694
4.16148
0.0268653
0.145747
0.0351559
0.0431028
0.138598
4.02513
0.0955073
0.0250622
0.277459
4.35672
22.5266
0.0255187
4.20051
0.0321403
1.85009
0.0253787
0.0277213
3.87685
0.0560768
5.02198
7.33203
0.0376365
4.84863
0.0252026
0.0247538
8.85508
0.0669121
0.0276431
5.29644
0.0301768
0.0516625
0.0330529
0.079346
0.0253558
5.74379
5.24651
7.09242
0.30181
0.0286583
0.0642758
4.98964
0.0272467
0.0255355
0.0930192
0.0248773
0.335821
7.75954
6.37017
5.25754
0.0605444
0.0255816
4.15983
0.02476
0.080705
0.0256141
23.8497
0.026978
0.0539669
3.74322
0.129331
0.0253385
0.0361731
8.87926
0.0253506
0.157426
0.0249914
9.56132
4.22584
0.12403
0.0928339
0.0252385
0.22745
0.149246
0.0428707
0.0249984
0.0256071
0.0254965
0.0594541
0.0254648
0.0937794
0.0253865
0.0249882
6.39563
0.0250668
0.0300677
0.0281267
0.0256664
3.66497
0.0250711
0.0379982
4.02513
0.0524227
3.95834
0.0253378
4.43552
0.0552731
5.07623
0.0267558
0.137335
0.0252972
0.0444788
0.133742
0.122367
0.279515
4.10384
0.238052
2.01982
0.03042
0.120926
0.0472081
0.907297
0.028271
0.0252457
0.0253147
0.0563607
0.0524478
3.06001
0.0584332
4.68853
6.84759
0.114704
0.0252472
4.86933
0.22839
0.0256996
0.0272758
0.0253365
4.9093
0.0253233
8.23039
0.0250554
0.0301436
4.89206
0.0893812
0.0253535
0.025312
7.91368
0.0250898
0.0272585
0.0283417
0.0364554
0.0309105
0.025382
0.165616
0.0917459
0.0496544
0.354575
4.40397
3.65563
6.18807
0.0249436
0.0252613
0.116235
0.0255938
0.0534683
4.14524
3.77865
0.0248352
0.0253473
3.38125
0.588101
0.024855
0.0250619
0.0299609
13.0658
4.09864
0.0297666
0.0377837
0.0255671
0.403415
0.136564
0.160058
0.0357348
0.0499071
0.0256471
0.0418554
0.331822
0.0259858
0.0253243
0.0295722
4.62357
0.028398
7.26273
0.0254438
3.84056
0.0412057
0.0315754
0.0250038
0.0252012
0.887526
7.87367
0.0656132
4.23899
9.68503
0.0257468
4.0154
0.154572
0.0250961
4.73721
0.321212
0.124258
0.0256387
3.49675
4.49036
0.0251091
0.0448045
4.26597
0.0508426
0.0252939
0.0249834
0.0255657
0.0269985
0.0902288
0.30688
0.0871597
0.0862681
0.0249068
0.0254222
4.64506
0.0250545
0.0547506
0.0299752
0.0252467
0.0554307
0.0253333
0.0269251
0.36206
0.0253016
4.46051
0.0253258
15.3836
3.71073
0.102623
0.0254591
0.0256904
4.15984
0.0248224
0.0273701
0.025575
0.376947
1.2941
0.0370794
3.7055
0.0472595
1.83503
0.0257634
0.0756315
0.0249517
0.0254871
5.06594
3.74494
1.48689
0.0269578
0.075637
0.075629
4.78237
4.07119
0.341783
0.0433545
0.0247543
4.1374
0.0250909
0.0251568
0.315019
0.12352
0.0319047
0.22722
0.0534569
0.0355747
0.0309313
5.04132
0.0275021
0.0252938
6.76506
0.05328
0.0249056
3.45705
0.0253468
0.0254496
0.175409
0.170835
12.1306
0.0249282
0.0279924
0.025177
2.28323
0.0250891
0.60297
4.36016
3.62347
3.4405
33.3369
0.0340885
4.47085
0.919319
0.0255807
0.0344874
0.0495228
0.0342277
1.2799
4.15765
4.40958
3.58091
2.46478
0.0253924
0.11485
0.0253572
4.84922
0.03189
0.0262452
0.0272513
0.0258554
0.0251144
0.115364
4.40548
0.0249279
0.0268
0.0251232
4.59757
0.0266456
5.41562
3.86177
1.39611
0.0254252
0.0251218
4.46717
0.416397
0.0254862
0.344818
0.0256049
0.157997
0.21328
0.103637
0.0561092
10.7045
0.0250118
0.0249492
0.2404
3.3238
0.0326985
0.0531831
0.0251902
8.61661
0.025311
0.0252374
0.0263139
0.0252656
5.18753
4.05636
2.00414
0.0651391
4.17148
0.610277
0.0248448
0.0343543
0.02489
1.3127
0.0251545
0.0280597
0.025283
0.0251953
0.0249505
2.97576
0.0259176
1.76593
0.0247237
0.0365879
0.0260878
1.60133
0.0253635
0.0348391
0.0383543
0.0794163
6.76993
0.025189
4.23369
0.0771662
0.0517461
0.0250926
0.0252278
3.50807
16.0422
0.0251686
0.0250755
0.28318
0.249943
0.0430817
3.98144
0.0259618
0.527072
0.0345372
0.0249043
5.4576
0.0260968
3.97379
0.0253174
0.0258541
0.0254617
4.28068
3.60246
0.0248623
0.282098
0.254216
0.0253827
0.0250569
0.0251511
0.299065
4.01766
0.0725153
0.0273049
0.0435279
0.0253415
0.0253134
0.0268372
0.0253091
0.201725
0.0253288
0.0691441
0.69445
0.0396834
0.0247937
3.9756
0.0810744
0.0253535
0.0907758
0.0338573
1.7475
0.0277301
10.1976
0.0630034
0.02523
0.0965262
0.0951863
0.0278027
5.82025
0.0651563
0.0328793
2.35306
0.0251782
0.170571
0.100044
0.143986
0.0252219
0.0252318
0.0248184
0.0372127
0.0606315
0.0593081
6.46334
4.6159
3.89779
0.0256558
1.93956
3.7815
4.22232
0.0252819
0.0252585
0.05876
4.23025
0.0273822
0.0385928
32.5796
5.08778
17.0332
0.128897
0.181943
3.36695
0.433252
0.0247672
12.0306
0.300756
0.025501
0.0254917
0.0260028
4.64608
0.107027
5.27519
0.0271707
8.64496
0.0253223
1.66801
3.8236
0.0254418
0.0374313
4.23834
4.70931
0.0615975
0.0260146
0.0269261
0.0256185
0.261686
0.132771
2.83855
4.13038
0.0249442
5.30396
0.186399
1.02575
0.0253419
0.0255211
2.35627
0.299529
0.0252161
0.0553608
0.0825817
0.0441532
4.11643
4.65134
4.60299
4.10172
0.02867
0.0248262
0.074533
4.5059
10.232
0.025114
0.315171
0.101101
0.494477
0.0255783
0.0256421
1.27556
4.49043
7.06135
1.73273
4.21815
0.0252452
0.290043
4.08925
0.0254795
0.0705417
0.117033
0.0248728
0.176761
4.91254
0.280471
0.0256407
5.27042
0.128408
27.2422
0.0246406
0.0267307
0.0253696
0.0262172
0.0253388
0.060931
0.0456659
0.0483265
0.373796
0.0370857
4.22901
0.0285308
0.0320085
0.0313788
9.0136
0.0654149
4.95433
0.0314242
0.0313938
19.1308
0.109621
0.0253435
0.0482551
4.44667
5.31312
0.332277
0.0252177
0.0251532
0.0251619
1.48115
0.0263602
2.51652
1.36751
0.301367
0.0354819
0.284526
5.54177
0.0253402
7.30621
0.0379357
0.0575448
0.0251626
0.0250814
0.0587773
4.28421
0.0254086
4.92126
0.570265
0.11245
0.208399
0.0250958
0.0253336
0.033205
0.0260125
25.3413
24.6982
0.0959008
0.892015
0.0252004
0.0252867
0.0253626
0.0256279
7.53021
0.0263294
4.49174
0.0984306
0.0256055
0.415567
2.89695
3.46088
8.53053
0.0266591
0.0249311
0.0254738
0.0265568
0.793889
0.275178
5.71683
0.0255074
0.0255541
0.183269
0.0256472
0.218719
0.0268978
0.171997
0.19591
0.0469162
0.0450824
0.0249184
0.0518919
0.0432288
0.24018
0.0913163
0.0481443
0.0251262
0.277796
0.0251271
3.42374
3.6953
0.987521
0.0253328
0.123587
0.025271
0.0539781
0.0261257
0.025811
0.0318006
8.86833
4.11124
0.0892628
0.0536915
0.263191
0.0892409
4.01289
4.20949
0.0349195
4.17554
0.395348
0.0250618
0.0638185
4.23413
0.109272
0.0256153
0.0598614
2.30462
0.52984
8.62118
0.0253191
1.14536
0.0254265
0.0251878
0.0457183
0.385203
0.025652
4.22434
5.12587
0.223676
11.1177
0.427801
4.70662
0.35009
0.0249216
0.0279824
0.0248041
0.0493071
0.319129
0.480074
0.0275781
0.0473322
0.0247812
4.31129
0.042087
0.0526734
4.13894
0.112512
6.70743
4.64512
0.0252221
6.75615
0.0254552
0.0319393
0.0536432
3.92287
0.16725
0.0313726
0.0262917
0.643674
0.0380016
4.36351
5.90718
0.0356885
3.25445
0.049054
0.0256641
1.20774
0.0701572
0.0262098
9.01234
15.1297
0.0332451
0.0293446
0.142805
5.99381
0.0252215
0.0254063
0.0248571
0.0249697
0.0255703
4.82184
0.0355842
3.93637
0.025244
0.025108
0.888784
0.0253567
0.0268061
0.0253765
0.0253351
2.45337
0.0249442
4.74829
0.025156
0.0262048
0.0468591
0.0254308
0.163799
0.0249578
0.0256536
0.0249869
0.0310147
0.101168
0.0275904
3.70456
0.0251728
0.0493646
0.0330471
4.19527
0.0259751
0.0256585
0.0248404
0.0248635
0.429298
0.025152
0.025087
0.0277381
2.17814
0.025216
0.0485181
0.0368509
0.025267
4.87292
6.6623
0.307015
4.93916
0.027936
0.121336
0.0254072
0.112723
0.368311
0.0254569
2.35039
0.142089
4.60579
0.0346971
0.0253377
1.63192
0.0491112
0.868495
5.09493
0.0247091
0.0252569
7.49634
3.23824
0.0651813
0.0642452
0.0262576
10.4746
5.73642
0.0246445
0.0252546
0.0252827
0.0255317
0.0256311
0.0253334
0.0401009
4.22341
0.0349191
0.02544
0.471704
0.0252824
0.900016
0.0523173
0.0252137
0.0307868
0.0251773
0.4083
0.0281042
0.0576398
0.0252265
0.0254465
4.48643
4.8715
0.025536
0.0563694
0.0501584
0.0349327
0.0271267
0.0256619
0.0258817
1.71618
0.615049
0.0437245
4.89603
0.0256283
24.1364
0.115385
0.029138
17.474
0.0262779
4.35376
5.33801
3.44333
4.09993
4.09484
3.77465
0.0247853
0.0305278
0.0279556
0.0247919
0.0249015
0.03251
0.0865843
0.024959
0.0331617
0.133648
0.0858862
0.327982
0.225817
0.0371898
1.90534
9.52601
0.0382314
0.0281101
0.140372
8.67734
3.87066
0.0287699
0.0247684
0.0250999
0.0249763
0.0352139
3.82268
0.410444
0.0248936
4.64339
0.0252753
0.150978
4.17426
0.0930614
0.215321
0.101397
0.369875
0.0260417
0.0374807
0.0251103
0.270476
0.0252256
0.026147
0.0366154
0.166917
0.0255361
0.0276524
5.47711
0.0250593
0.0252349
0.0327744
5.66848
0.126921
0.68151
0.0434877
0.0255004
3.35743
0.0420408
0.0264578
0.0253122
0.0344943
0.0298808
0.0253233
0.0310507
4.49615
0.0267652
0.0248173
0.0529007
0.0251347
0.035807
0.0339542
0.0253871
0.0252946
4.68831
0.0249112
0.0253393
0.0248341
0.0289763
0.0246018
4.86724
0.029107
0.235189
0.0252496
0.0250841
0.0252022
4.30921
0.0706592
0.0253309
0.0247476
5.53257
0.0282882
0.0734357
0.0251079
0.163084
0.0265681
0.0247079
4.04302
0.0249114
0.0254992
0.0254959
0.0251518
0.0273436
0.0254683
0.0253479
1.69409
1.57101
4.64377
0.242433
8.33
0.0250804
4.58296
0.0252575
4.09627
7.90195
0.0250318
10.2756
0.0252736
4.171
11.5899
0.298013
4.1223
3.97871
0.894762
2.02661
6.06751
5.22924
0.0488762
0.0460147
4.65316
0.0267049
0.0248408
1.86347
0.0270236
0.0318379
11.843
0.0261696
0.613531
3.68357
6.34739
0.413919
0.128377
0.025636
0.0318355
0.0541423
0.0254543
6.88337
0.397765
0.122101
0.0251497
0.0253934
8.02586
0.0248767
0.787705
0.0250418
9.07621
4.45987
0.0389063
0.0293571
0.0252543
10.1975
4.07168
0.0286722
0.0377436
0.025681
0.0256807
0.0635818
0.0263775
0.0361448
0.0756048
0.0274605
0.0362554
0.0253447
0.036181
15.0852
0.025657
10.7398
0.0251465
3.46998
0.0615391
0.025348
9.94449
0.137295
0.0250858
0.175445
0.0253363
0.446097
0.0254405
0.0253076
3.88742
0.0254948
0.116321
0.0265407
0.15094
0.0250467
0.0255626
0.0251099
0.0338445
0.0274381
0.0255231
0.0258155
0.0285468
0.0256711
0.134836
0.0726638
0.032909
0.0265664
0.0247687
2.39243
8.49006
0.0259888
0.0257506
0.0258666
0.0426683
0.025432
0.0393469
0.0247213
0.0256804
0.247998
0.0265439
0.0256795
0.0251634
4.78923
10.8817
0.0247616
0.0812358
0.0661812
0.259009
0.235879
6.72219
4.33179
0.711757
0.0260726
0.149766
0.0252053
0.0353737
7.10282
4.43138
0.152761
0.0271266
15.2792
0.025354
0.0526906
0.443499
0.0254607
0.147743
0.0266474
0.0264421
0.0836681
0.1593
3.92719
3.39533
0.0250255
0.0247513
4.78258
3.79497
0.0254683
0.0327247
0.132672
0.0253394
0.0253211
0.0272962
1.85349
0.0249871
4.28826
0.0332141
0.025407
0.239322
0.0802288
0.074319
0.128169
4.92346
0.0276214
0.0381399
0.0310163
0.0269612
9.57428
0.0350969
4.2158
4.138
0.0754783
4.18024
0.0523452
0.0541129
0.387225
0.0249249
4.28207
0.0981018
0.0379755
0.0327901
0.0255375
0.0248265
4.13549
0.048888
4.28993
4.3006
0.0254529
4.25726
0.0250778
0.0252171
0.0324116
11.2475
0.0816547
0.0248214
4.07808
0.0252574
0.0270017
3.97787
0.0268665
3.47673
0.0256637
4.40013
4.1088
0.0776273
2.71003
0.0265843
3.47288
0.0247627
5.32791
4.76389
4.41389
5.07444
0.0252285
0.0250059
0.266513
3.76129
3.47677
3.83084
3.76886
0.0253568
4.91884
3.46057
0.0256338
5.0018
0.0355281
0.0367628
12.1144
0.0430949
4.42482
0.0251491
0.0427516
0.0380438
0.225823
6.23773
0.0415613
3.58378
4.46831
0.0255298
0.0278256
0.0269962
0.0279636
3.4903
0.0253169
0.0249741
0.0444171
3.77927
4.00016
0.0314659
3.88303
4.23497
0.0252201
8.47397
4.71692
0.193474
4.00086
0.0747649
0.0275846
0.0255305
0.175575
0.0296608
0.0897945
9.89073
4.53704
0.0326908
0.0801102
0.029025
0.0423783
0.0248378
0.0453943
0.0278849
0.101033
4.62868
6.9771
3.90879
0.0248125
0.142384
0.0690508
4.21757
0.0264398
4.67269
4.74216
4.24148
0.025269
0.19573
4.55057
10.7583
7.35619
0.0411759
5.49508
4.02935
0.0689011
0.0749078
0.0272318
0.0329155
4.72482
0.0511761
0.0255487
3.32116
0.0252363
0.0254436
0.133999
0.134159
0.0249883
0.101869
0.027916
3.76693
10.7655
0.0270475
3.87836