/*--------------------------------*- C++ -*----------------------------------*\
| =========                 |                                                 |
| \\      /  F ield         | OpenFOAM: The Open Source CFD Toolbox           |
|  \\    /   O peration     | Version:  v2012                                 |
|   \\  /    A nd           | Website:  www.openfoam.com                      |
|    \\/     M anipulation  |                                                 |
\*---------------------------------------------------------------------------*/
FoamFile
{
    version     2.0;
    format      ascii;
    class       volScalarField;
    location    "400";
    object      omega_0;
}
// * * * * * * * * * * * * * * * * * * * * * * * * * * * * * * * * * * * * * //

dimensions      [0 0 -1 0 0 0 0];


internalField   nonuniform List<scalar> 
13917
(
0.0445719
0.025383
4.79483
0.0265775
0.0254423
0.486993
4.46469
4.95964
5.56269
0.0727417
0.167876
0.070906
0.0266476
12.3261
0.0294291
0.0281953
0.025499
0.0578172
0.0695637
0.025452
0.0256558
4.37859
0.0254238
4.96019
0.0253045
4.20182
0.0466443
0.0603258
0.818742
0.109318
0.0473348
0.0311115
0.0403852
0.02885
0.0253231
0.875815
0.0254355
3.86217
0.0283269
6.30385
0.0251608
0.0256811
0.0247386
0.0919229
0.0252513
0.0307747
0.0568912
0.0753808
2.85228
0.0253269
0.0298933
0.0255802
3.27863
0.0292696
0.0255122
0.0299213
0.165337
0.0252902
0.0280821
0.0252132
10.2581
0.0253842
23.9248
0.0254368
0.449031
17.1931
0.0254362
0.0253437
0.18394
0.0408
0.0254536
5.66679
4.3423
0.0253148
2.93456
0.0826882
5.77182
0.0258683
3.94199
0.0256159
0.0255729
0.0254467
0.421545
3.84385
4.79182
0.025772
0.0255404
15.0993
0.0296154
0.0247251
4.12128
0.0958711
0.025096
0.0262055
15.786
0.423518
0.1285
0.0696313
0.143244
0.120062
0.0250569
0.0364522
0.0922126
0.0262312
0.0250199
5.90527
0.503055
0.0795406
0.025503
0.0508131
4.30782
5.54244
0.0908998
5.77379
0.0261715
3.28898
0.0253101
1.5358
5.12046
0.0292394
0.0256652
0.177101
4.62483
0.0568763
0.0252715
0.0260387
0.0252319
0.025281
0.024773
0.469159
3.63743
0.0260816
0.0252766
0.0256658
4.29435
4.92645
0.0452358
0.129771
0.0254261
0.0291366
0.344112
0.0249623
0.0257963
0.114462
0.0253419
5.84778
0.854685
0.025531
0.0249344
0.0317577
0.060392
3.28505
0.0937715
0.0465611
0.0301691
6.45737
0.0390862
3.58363
7.93711
4.14903
0.0274147
0.0475587
0.0256158
0.123055
0.0891406
0.140679
0.0262028
0.0644253
0.0250996
0.0375902
0.0468951
6.72344
0.0987412
0.0257996
5.51263
0.0510917
3.63608
1.986
5.79238
0.0251625
0.100078
0.0490402
0.0249541
0.0255285
0.0337338
4.33691
0.368354
8.30383
0.0397928
0.131741
0.423978
5.30215
0.336561
0.0254373
0.135285
0.0449374
0.0257035
0.025104
0.26287
7.50027
0.0291645
0.0253475
0.0597278
0.0596119
4.78466
2.12118
0.0253276
0.0252994
0.0680242
4.56708
0.0257038
4.47773
6.72871
0.132207
0.0250313
0.640444
0.0594943
6.16358
0.0252486
10.919
0.0251604
0.0977336
0.0251541
3.90734
5.93473
0.0285337
2.13423
0.0305064
0.0250362
0.829348
0.0966724
0.0393586
4.85979
9.04051
0.0249986
0.0316144
4.06159
4.62788
0.0256053
0.0252336
5.04959
0.145581
0.0256558
0.23852
0.10338
0.0454555
0.0408979
0.0256052
0.0509074
7.4245
0.0250669
0.127547
0.160313
0.0252066
0.0252833
0.0742541
3.77171
0.0882237
0.0341123
0.0295504
0.0256618
5.97293
7.00404
0.249471
0.0250479
4.59563
7.09622
4.10271
3.86477
0.0882605
0.0255872
0.0252149
0.0571472
4.13261
0.128084
0.0277891
3.07528
0.045501
0.0247646
8.51003
0.0254206
5.50777
0.0286987
0.0256496
0.0306112
0.0462014
0.0473225
0.235173
0.0364313
0.0251847
0.347819
4.88544
6.9513
0.0252509
4.54897
0.0255303
0.0251771
0.025321
1.21577
0.0254434
0.106739
0.039895
0.0250801
0.0599128
0.0262825
2.39903
0.0497907
0.0878691
0.0249852
0.0252769
4.39797
5.18195
0.0253023
0.0251841
8.5693
0.0251385
4.18793
0.0249814
3.91596
0.0254837
0.519162
0.0364507
3.05112
0.0271203
2.12293
0.356331
0.0306039
0.144777
0.580376
0.0254828
3.74237
0.133992
5.81948
0.0279549
6.61536
0.0323497
4.69719
0.277051
0.125845
0.122495
4.70982
0.0255895
0.0487178
4.2804
0.0254135
0.0266541
6.36969
0.319882
0.0257235
0.243768
0.758111
0.0251148
6.17319
0.414278
0.025412
0.0251561
0.0255402
0.0249264
0.359503
5.69473
0.732464
4.29229
0.0253149
0.142691
6.69946
0.0457646
4.38781
3.97174
5.81462
0.0249872
0.242482
0.0251286
11.0403
0.0252117
3.79358
0.103313
0.0276029
0.0255651
0.0645766
0.10906
0.0784389
8.07431
4.4642
9.5347
0.0531117
0.0680954
0.0252446
4.77805
4.23953
0.0252952
0.966091
0.025351
0.329405
0.0254821
0.0256027
0.0263249
3.61911
0.0262885
3.45816
5.95852
0.150431
0.501942
0.0254702
0.53915
0.458266
0.0253508
0.355023
0.0254009
0.0253284
0.109619
0.0256489
0.0253106
0.0251233
0.372107
0.0256306
5.53452
3.97815
5.2934
0.336654
3.39973
6.13333
0.0451224
0.0253245
0.185428
0.0281123
0.0329186
0.025427
5.76438
4.4609
4.00823
0.0281623
0.117175
0.0277935
0.028781
0.077985
0.0261103
0.279718
0.0254902
0.0254296
4.10365
3.62419
3.63029
0.14233
6.3429
3.71791
4.24579
5.87077
0.0248134
0.0622174
0.0261684
0.0253259
0.977118
0.0579564
0.024987
0.0675663
0.0428912
5.89514
0.0253451
0.125306
13.9491
0.814946
4.40591
0.0256405
0.025303
0.0256776
0.0393316
0.024991
4.32812
0.586645
0.0362434
5.3445
0.0298335
0.125393
4.36581
0.868241
0.14571
0.380452
0.124938
0.0661767
0.174227
0.0457308
0.166489
0.636184
0.0515906
0.0884219
0.0250607
2.49476
0.0306567
0.0248064
0.0376288
0.0259665
5.43228
5.79279
0.0251351
0.0247818
4.51694
8.70291
0.0256493
5.74342
0.0259148
0.246544
0.0251493
5.06335
3.21174
0.031687
0.0254954
3.38154
0.283153
7.0123
0.0256594
6.56456
2.4548
8.78487
0.0248182
4.58406
6.26187
0.045842
0.0251467
0.0254957
0.0828516
0.362666
0.0249225
0.0251655
0.0252476
0.0252401
5.17136
1.04618
0.0452081
0.356493
0.0252489
0.0250671
0.114637
5.0871
0.0365747
0.0251114
0.0253233
0.0253798
8.70288
5.84502
0.0255326
0.0253782
0.228221
0.0454168
0.0364333
0.0253007
0.0264054
0.0301704
0.0863528
0.464087
0.366675
0.189775
0.105225
2.35479
0.0856138
0.0252645
6.19406
0.0253849
0.0269426
0.0272522
2.25974
0.0857755
0.0250705
0.815321
0.122988
12.0864
0.106324
0.0402926
0.0450529
0.0255536
6.71307
0.566082
4.29218
0.0254137
0.0326569
0.356217
3.96403
24.2039
0.0729142
0.163917
0.0281391
0.0272732
0.025303
0.061423
0.0983418
0.0254188
0.0589123
0.151996
4.38085
6.31093
0.0272123
0.121469
2.1621
0.0318344
0.0256178
3.54205
6.3405
5.65042
0.320609
0.0247917
5.52727
0.0811797
0.0251094
0.0347388
0.0808936
0.0387893
0.10706
3.97132
0.169842
0.0408029
6.65559
0.026252
7.42747
0.0256169
0.0255238
4.61174
6.27378
0.677608
0.0262456
0.0257452
0.0253832
0.0461739
3.37448
0.132727
0.0274774
0.13582
0.0633366
0.0251535
2.20482
0.128965
0.278484
0.0252235
0.164633
0.0259437
9.72933
0.0742079
0.0855875
0.0329967
0.0251439
0.0248386
0.025263
0.135723
0.0311912
0.365486
7.08374
0.0636164
0.0251273
0.16609
0.74459
1.52938
0.0250457
0.0305167
0.0251761
0.0318237
0.0282488
6.07785
0.0256053
4.68096
0.0315718
0.165974
0.0974535
4.36267
0.0889753
0.0254516
4.36521
17.7166
0.0252679
0.0271682
3.14504
0.255909
0.127969
0.0256171
0.0255228
0.388182
0.0277392
0.0777273
0.0707141
0.0248393
0.0595113
4.82563
0.0250249
0.0260303
0.025274
5.42228
0.0256543
0.0278313
6.08005
0.0265193
6.25904
0.0302572
0.0411732
0.0252641
0.0569042
0.0253325
0.0646986
0.0251511
0.0967511
0.0259167
26.8738
3.06837
5.11672
0.0255693
0.0255756
0.081183
0.0539312
4.79294
5.41949
0.05728
0.0253314
0.368291
0.739025
0.278847
0.313054
0.05476
3.90054
0.0441338
0.0434339
0.159715
0.20778
0.0564866
1.17511
0.0559443
0.0265575
0.0861205
0.0307042
0.0248871
0.031606
0.050772
0.0310939
0.0253412
0.0251991
0.0636208
0.0263971
0.0787332
0.0253355
0.0253708
0.0256646
0.0263082
0.0246715
0.0290159
0.0253007
5.24358
0.0695318
0.400681
0.0250241
0.0256297
0.0543048
0.0673268
0.0259049
8.22228
0.0902917
11.2244
0.0316755
0.1333
0.0255554
0.0256586
0.0252171
0.0263009
7.84396
0.0256402
4.84128
0.0293041
6.03284
0.0558509
0.0917324
0.163081
0.0248588
0.025688
0.0708164
0.025343
0.0256146
7.91876
0.0258818
0.0255408
0.0310487
0.0252254
0.0248506
0.0311542
0.0315694
6.14249
0.038761
0.0250225
0.025131
3.9815
0.133484
0.025413
0.025415
8.1556
2.90887
8.63518
0.040345
0.026568
0.0250138
0.0248315
0.0526049
0.0398917
0.243246
0.028403
3.82521
0.0254819
0.0268238
9.34284
0.0253594
0.030806
0.0252359
0.0254084
0.0492947
0.0486367
0.0256246
6.20176
4.33057
0.0986976
0.0252589
0.0247364
0.128721
4.20393
0.0256485
1.68686
0.0247379
0.0477255
0.0248527
0.0249313
0.385586
0.0251474
3.25577
0.0438917
0.0256644
0.0247803
0.0253448
0.0251675
0.0259506
4.19717
0.024996
0.0249358
5.11511
5.82755
0.0420223
0.052411
0.0736255
0.0281754
0.0249802
0.0316339
5.09039
0.102536
0.0254734
0.0254422
5.52666
0.0393298
4.3776
0.0256551
0.026012
6.4494
0.0367598
0.0256952
7.97288
1.75753
0.0251641
0.143943
0.0252136
0.0251275
0.0250058
4.3274
0.0246625
0.0250239
0.0249725
3.43609
0.0276601
0.244346
0.0706989
0.024916
0.0369522
0.0255328
4.30009
0.0252536
0.0250115
0.0255421
0.133724
0.0255317
0.169618
5.79285
4.7898
0.0299163
0.478564
5.32053
0.02527
6.91077
9.59528
4.80725
3.42156
5.01448
37.0417
0.154507
0.0255167
3.88947
0.0366992
4.15318
0.0248148
0.0250882
0.0254122
0.0255237
0.0289808
0.0349686
4.54601
0.0250786
0.0253901
6.48723
0.333176
0.025345
0.042278
0.0328006
0.0253623
2.85114
0.0428623
0.0269449
0.0276009
5.72661
7.7766
1.34469
0.0248382
0.28634
0.122643
4.5996
5.84415
0.0966158
0.0251431
0.0256138
0.0254847
0.0246136
0.0263947
0.0248054
0.030284
0.0429187
5.59822
0.142839
0.0250411
0.130064
4.26872
0.0465227
0.0255395
6.60879
0.0250653
0.0255408
0.0424665
6.56819
0.0255319
0.0252226
4.4817
0.222581
1.71329
0.115593
0.909349
0.0251912
0.189061
0.0255658
0.025298
0.0255624
4.30916
6.33448
0.0249216
0.0247741
0.0252493
3.40776
0.0261801
0.0328312
0.0253459
0.0256137
0.183028
0.0249288
0.0659357
0.385449
3.62793
0.0251808
0.0943636
0.0273901
4.54626
4.22882
0.0253145
4.45365
0.0786233
1.47748
0.02553
3.56516
0.0256274
0.0297344
0.0479511
0.115682
4.53072
0.348519
0.189552
6.41493
0.025119
0.304955
0.0249199
0.0306764
4.4769
0.0253324
0.0256373
0.0259534
0.0253427
5.16229
0.0248551
0.0254114
0.0605447
0.0520965
0.0546361
0.645887
0.141877
7.66839
0.0706215
0.0385482
0.0424375
4.71799
0.0431622
14.2058
4.122
0.0284109
0.024927
3.27577
0.279909
0.0255338
0.120118
0.0369805
0.0254233
0.0293828
0.0253816
0.047977
0.0256895
0.0536143
0.121634
0.0251393
0.0669473
0.0249734
0.06737
0.0251443
0.0293963
0.0635996
0.0265302
0.0252418
0.0249336
2.15477
0.0908296
6.14973
0.0253058
0.0253309
0.0647811
0.0252375
0.100005
0.0910628
0.0254254
0.103826
0.0249574
10.0449
0.0255018
0.040324
5.53138
0.301201
0.0251999
0.0267804
6.79126
0.025302
0.0251918
4.4515
4.18161
0.0273983
0.177238
0.0254395
0.0252332
4.35565
0.0261669
0.0248718
0.263175
0.0249714
2.77532
0.0255644
0.0248778
0.0254146
0.1443
3.6681
0.025371
0.0254842
0.025193
0.0290659
0.0254052
1.06459
0.0646285
0.0256586
5.68768
0.0559509
0.300353
3.74271
3.66122
0.0249083
0.0254883
0.0252784
0.832535
0.0295401
3.70935
5.70114
0.0271009
4.37922
2.35783
0.0540914
0.157475
0.0790396
0.432384
4.56327
0.0713261
1.12834
3.87741
0.0695867
0.028362
4.52833
0.060878
0.024829
0.0263789
13.5258
0.0429084
0.025128
0.0590519
0.110001
0.0430755
4.43157
0.0269069
6.44475
0.04256
0.256959
0.135966
0.306908
0.0320939
0.0249517
0.0257572
4.79302
0.0252918
0.0272951
0.0249973
0.0264195
0.0250737
0.0397616
0.163675
1.93771
0.0502885
0.0665821
4.02723
0.402709
0.0250591
3.01295
4.21373
0.0249158
0.0251798
0.0339379
6.69607
0.0256395
0.0760164
0.678001
0.0540144
0.0253325
0.0261799
0.024982
0.120437
0.0444437
0.0252888
31.1465
3.9185
0.0484145
2.04151
0.0704987
5.92505
0.0264557
0.0284684
4.30875
2.68816
0.0976077
1.8248
0.0314913
0.0256685
0.0251003
0.025374
0.0253151
0.0258403
0.0595051
0.0252115
0.13423
0.0252234
0.0315969
0.0248999
0.0909246
0.13296
0.876881
0.0252627
0.303733
0.0250996
4.40947
0.0253427
0.0288325
0.0254652
0.268636
4.67672
0.152398
0.0252016
0.143202
0.02525
0.0329602
4.16122
0.025106
0.0255818
0.0502364
0.0347067
4.38317
0.0252122
0.033389
0.0261584
0.025353
0.0362891
0.0256551
0.0249635
0.026848
6.48452
0.0275825
0.278847
5.69462
0.0565505
3.57283
0.0273335
0.0249719
0.0347586
8.36101
0.0263651
0.0409955
0.045388
5.22369
0.0251497
5.77784
0.0685412
0.0767525
0.0249024
0.0248009
0.182581
0.0256425
0.0256813
0.0377732
0.0248302
0.0275602
0.0317439
0.076296
0.305226
4.39012
0.0281134
0.0804955
2.96944
7.51812
0.0406633
0.299175
6.56939
0.0426424
13.0557
0.0268592
20.8695
5.46074
0.0247991
0.0256494
0.0252409
0.0256803
0.0499409
0.0248974
0.0270865
0.0966413
0.0263862
0.0398852
4.27199
0.033899
0.0271826
5.56266
0.0257017
5.65798
0.0273237
0.0614418
0.0251357
6.81611
5.97355
0.0252481
0.0257952
3.73288
0.033139
6.765
0.0253318
0.024966
4.38116
0.0257915
0.0499978
9.45283
0.0253814
0.0599467
0.0323801
0.0247942
0.0251693
3.84204
5.55164
0.0253842
0.0265642
0.0253061
0.0297243
0.0404399
6.18042
0.0258703
2.60192
4.46435
0.247187
3.83983
0.0257451
0.131712
0.220772
0.0326611
0.0253777
0.0652195
4.08991
0.026566
0.0522136
5.02197
3.6796
0.325602
0.028409
0.0254774
0.0256285
0.0253842
7.42656
0.0597874
0.0268478
0.0258993
0.0274708
0.0256601
0.025229
0.0253398
0.0790887
0.041013
5.60753
0.0524961
5.01764
3.37021
0.0341875
0.05523
0.0250472
0.0318451
8.26899
0.0253335
0.0267235
0.0558424
0.128139
0.0640304
3.85884
0.251713
0.0250724
3.94935
0.0247517
0.0254052
0.0515708
0.0256648
0.025059
0.184409
6.84826
0.0249778
4.25176
0.0253137
0.0248959
0.0266386
2.71091
0.0323462
0.0272927
12.6804
0.0260722
0.245825
3.39449
0.0256285
0.0537751
0.0253162
5.89673
0.07734
0.0253405
4.14174
0.0587464
0.0889583
0.0256714
6.48846
0.0328142
0.451834
0.0259756
0.0813834
6.86421
0.0249254
1.52648
0.0253638
0.0682334
0.058822
0.0256273
4.54234
0.0267727
0.125624
0.0631599
0.108931
0.0455871
0.0493144
0.0257998
4.98532
0.0358185
6.96302
0.0336793
0.069753
0.0251633
0.0487258
0.0253204
0.0745587
4.67088
0.0259267
0.0250472
3.45062
0.0259353
3.18526
0.0256239
4.3503
0.292967
0.0389399
0.0252864
0.0252183
0.0254416
0.0248013
0.112197
0.0636626
0.0431472
0.0289772
0.0254119
2.74372
0.0266434
0.0375482
2.45793
0.0253134
13.2901
0.0556578
0.0327541
1.30954
4.3533
0.358522
4.50083
9.45748
0.0251389
0.407324
4.94217
0.381488
0.025532
0.0254662
0.124355
4.066
5.53289
0.702823
0.02539
0.0571176
0.0433731
3.40346
4.94856
0.0453565
0.139296
0.0270749
0.0909141
0.0972266
0.0255209
0.114733
8.05274
0.0254737
3.77207
0.0256379
0.0251289
4.74048
4.00834
0.0251005
0.0254617
0.0256328
0.0249794
0.0550049
0.191876
0.0261493
0.025286
0.0254324
0.0433909
0.0310076
0.0307416
0.368515
0.0253201
4.0722
7.59785
4.27816
0.174417
0.0575259
1.38487
0.0365891
3.83367
2.17484
9.82289
0.0256088
6.61265
3.45287
0.0249917
0.0253469
0.114436
4.44029
9.82748
0.024914
0.025259
3.61297
5.10609
6.99191
0.0271375
0.0271097
1.90678
0.0254243
3.74488
7.1905
1.32832
2.76366
0.025335
0.0251887
0.0251517
0.0294427
4.08722
0.0433386
0.0284762
0.0258503
0.0982225
7.08484
0.0433483
6.13715
5.36242
5.22136
2.19807
0.0253632
0.0255305
4.36553
0.024842
0.0248284
0.0262413
2.86308
0.0405145
9.30374
0.143659
0.0253322
5.25387
0.0431856
0.0250807
6.08774
0.191623
0.0282701
0.0252316
5.07271
4.39939
0.0255408
7.44475
4.50389
6.20125
2.5284
0.0933758
0.0251785
0.0257036
1.94964
0.0286939
4.49901
0.0459491
3.64791
0.279724
0.0261026
0.0326482
0.025164
0.0259111
4.65499
6.89362
0.0253848
4.8864
0.0461488
0.0252682
0.0280129
0.0252109
0.175893
0.0256132
2.35273
0.0582159
0.025166
0.0251334
0.107904
8.21973
0.0422585
0.0271709
0.0472603
0.0253183
0.0262409
0.0303998
8.70261
4.07985
4.41912
0.0249222
0.0251251
0.0255523
0.133002
0.02513
0.0255944
0.185915
0.0638247
1.09822
0.0247852
4.36244
4.05059
0.0256791
8.80488
0.125145
0.040253
2.08084
0.0255021
5.10568
0.033199
0.0262564
0.0271022
0.0248375
0.231526
0.025704
0.0258464
0.0347259
3.49748
3.60814
0.0256284
0.0253307
0.0266514
0.0251838
0.145066
0.0256615
0.0919928
0.0266093
4.15247
0.0257598
4.29581
0.0249228
5.39585
0.0255636
0.0248154
6.92699
0.362726
0.128034
1.12562
0.0498149
0.0439827
0.0253453
5.13451
0.0253786
0.0251387
0.0988435
0.0692078
9.96025
4.44073
0.133342
6.95104
0.140914
0.972439
0.024999
0.0280171
0.0309704
4.10968
0.0280189
4.21241
4.47165
0.0253136
0.0253459
0.0252574
1.70113
3.37613
0.0264415
0.0254464
0.028964
0.0313166
0.0412718
0.413403
0.359743
0.0253873
0.685636
0.0933614
8.56672
0.0786432
0.0264517
0.0270154
5.08771
0.025148
0.097375
4.64592
0.0259272
0.0285884
0.191339
0.151822
0.0259734
6.334
0.0274892
0.301819
0.0434488
0.0341034
0.0258424
4.34206
0.0251139
0.110766
1.50101
4.79919
0.0544582
0.0743323
0.0286261
0.0540139
0.0256546
5.00664
0.0297307
0.0251381
0.0330457
0.0254241
0.0256591
2.97562
0.0253883
0.0255402
0.0252871
0.141846
0.0254941
0.0366735
0.0790542
0.258087
0.127681
0.0256384
0.275163
0.532666
0.244414
0.0935862
0.0309399
0.170505
4.79538
0.715758
0.0256794
7.70049
4.24978
0.0256786
0.0272472
0.024826
0.768882
0.116949
0.0251856
1.33879
4.15368
0.0250463
0.0254649
3.77563
4.15018
0.0708104
0.0248392
11.3053
3.25504
3.29144
0.0253363
4.12276
0.0893342
0.0803049
4.36453
0.0292787
0.0248414
0.0332612
0.208103
0.0351867
4.01691
4.4263
0.0250395
6.48748
0.587275
4.54065
0.0249183
0.0576187
0.0255325
0.0251726
4.16447
3.52367
0.298811
4.09398
0.0328931
0.0553729
0.025497
4.62409
5.89447
0.0253515
0.025439
0.0358447
0.0249479
0.055401
4.5272
7.46407
0.0559612
0.0256294
0.0252745
4.15388
0.0281945
0.0575922
0.0250136
0.0261799
0.79944
3.90981
0.482675
2.9872
0.0255287
0.324116
0.0255764
0.0539831
9.77889
6.8127
0.0253952
0.0256918
0.038726
0.0289786
0.025444
4.42166
4.12922
0.0249669
0.0246342
0.0255552
0.0252596
2.74896
0.0248917
3.92142
0.112253
0.0689554
0.0250629
0.0540775
4.56318
0.0368233
0.511658
5.84727
0.025475
7.18159
0.0373367
0.040195
0.411468
7.19218
4.60472
0.0652986
0.0251526
0.288387
0.0249051
0.0284997
0.025457
3.9265
0.03573
2.7101
0.298762
0.0530809
0.0254665
0.323508
0.0299923
0.0256607
0.294291
0.0247659
0.0410496
0.0374166
0.0254247
9.83897
0.0265716
0.630514
0.026039
0.0252154
5.55771
3.71475
0.0273221
0.0367029
0.0423775
0.0651964
0.0636678
0.0292662
0.0291242
0.0282997
0.238395
0.0282386
4.05317
0.0677678
0.276789
0.126924
0.0257684
4.57752
0.024782
4.5991
0.0274242
4.29307
5.97898
9.09258
7.77091
0.332167
0.0874754
0.0251574
4.34911
0.0970648
0.0253381
7.85558
5.63291
0.0264882
0.0268243
0.0340519
0.034057
0.0355644
5.25815
0.0256789
0.0328764
0.0382889
0.0363014
0.0255203
0.0927378
0.0247695
4.16147
0.0268652
0.145732
0.035156
0.0431035
0.138616
4.02678
0.0954892
0.0250622
0.277348
4.3573
22.5275
0.0255187
4.20053
0.0321404
1.85
0.0253787
0.0277213
3.87718
0.0560751
5.02177
7.33205
0.0376352
4.84841
0.0252026
0.0247538
8.85519
0.0669362
0.0276431
5.2967
0.0301769
0.0516474
0.0330514
0.0793492
0.0253559
5.74363
5.24661
7.09236
0.301804
0.0286584
0.0642807
4.98943
0.0272466
0.0255355
0.0930163
0.0248773
0.335817
7.76
6.37048
5.25775
0.0605459
0.0255816
4.16008
0.02476
0.0807107
0.0256141
23.8503
0.0269781
0.053977
3.74321
0.129331
0.0253385
0.036177
8.87953
0.0253507
0.157434
0.0249914
9.56144
4.2258
0.124049
0.0931254
0.0252385
0.227474
0.149256
0.0428707
0.0249984
0.0256071
0.0254965
0.0594554
0.0254648
0.0937857
0.0253865
0.0249882
6.39498
0.0250668
0.0300678
0.0281266
0.0256664
3.66506
0.0250711
0.0379973
4.02549
0.0524217
3.9582
0.0253378
4.4353
0.0552714
5.07658
0.0267559
0.137348
0.0252972
0.0444791
0.133749
0.122371
0.279486
4.10397
0.238033
2.02043
0.0304195
0.120941
0.0471899
0.90785
0.0282708
0.0252457
0.0253147
0.0563619
0.0524327
3.06292
0.0584346
4.68876
6.84742
0.114623
0.0252472
4.87042
0.228361
0.0256995
0.0272758
0.0253365
4.90915
0.0253233
8.231
0.0250554
0.0301438
4.89218
0.0893453
0.0253535
0.025312
7.91417
0.0250898
0.0272585
0.0283417
0.0364528
0.0309106
0.0253819
0.165621
0.0918012
0.0496638
0.354533
4.40387
3.65568
6.18839
0.0249436
0.0252614
0.116254
0.0255938
0.0534402
4.14525
3.77871
0.0248352
0.0253473
3.38089
0.588593
0.024855
0.0250619
0.0299602
13.0664
4.09861
0.0297667
0.0377826
0.0255671
0.403428
0.136569
0.160097
0.0357385
0.0499187
0.0256471
0.0418553
0.331634
0.0259857
0.0253243
0.0295723
4.62408
0.028398
7.26235
0.0254438
3.84081
0.0412058
0.0315509
0.0250038
0.0252012
0.887497
7.87361
0.065667
4.23902
9.68561
0.0257467
4.01563
0.154576
0.0250961
4.73698
0.321162
0.124275
0.0256387
3.49657
4.49022
0.0251091
0.0448009
4.26588
0.0508412
0.0252938
0.0249834
0.0255658
0.0269984
0.0902273
0.306687
0.0871833
0.0862604
0.0249068
0.0254221
4.64508
0.0250545
0.0547498
0.0299746
0.0252466
0.0554321
0.0253333
0.026925
0.361987
0.0253016
4.46058
0.0253259
15.4074
3.71082
0.102616
0.025459
0.0256904
4.15994
0.0248224
0.0273702
0.025575
0.377028
1.2925
0.0370796
3.70566
0.0472446
1.83612
0.0257634
0.0756347
0.0249517
0.0254871
5.0658
3.74509
1.48663
0.0269579
0.0756402
0.0756344
4.78243
4.07148
0.341771
0.0433555
0.0247543
4.13754
0.0250909
0.0251568
0.314989
0.123528
0.0319048
0.227199
0.053463
0.035577
0.0309314
5.04105
0.0275021
0.0252938
6.76472
0.0533476
0.0249056
3.4568
0.0253468
0.0254496
0.175409
0.170859
12.1311
0.0249282
0.0279923
0.025177
2.28337
0.0250891
0.60654
4.36002
3.62346
3.44027
33.3375
0.0340855
4.47104
0.919023
0.0255807
0.0344888
0.0495151
0.0342293
1.27981
4.15779
4.40945
3.58074
2.46485
0.0253923
0.114869
0.0253572
4.84913
0.03189
0.0262451
0.0272514
0.0258554
0.0251144
0.115363
4.40534
0.0249279
0.0268001
0.0251232
4.5978
0.0266457
5.41497
3.86149
1.3959
0.0254252
0.0251218
4.46713
0.42011
0.0254862
0.345103
0.0256049
0.157947
0.213278
0.103645
0.0561098
10.7049
0.0250118
0.0249492
0.240478
3.32349
0.0326986
0.05318
0.0251902
8.61734
0.025311
0.0252374
0.026314
0.0252656
5.18762
4.05645
2.00462
0.0651369
4.17154
0.608718
0.0248448
0.0343546
0.02489
1.31258
0.0251545
0.0280597
0.025283
0.0251953
0.0249505
2.94756
0.0259176
1.76553
0.0247237
0.036583
0.0260878
1.60133
0.0253635
0.0348393
0.038354
0.0794286
6.76987
0.025189
4.23366
0.0771641
0.0517605
0.0250926
0.0252278
3.50785
16.0411
0.0251686
0.0250755
0.283157
0.249895
0.0430293
3.98186
0.0259617
0.526659
0.034537
0.0249043
5.45747
0.0260968
3.97375
0.0253175
0.0258542
0.0254616
4.28074
3.60243
0.0248623
0.282802
0.254245
0.0253827
0.0250569
0.0251511
0.300365
4.01797
0.0725125
0.0273048
0.0435274
0.0253415
0.0253134
0.0268372
0.0253091
0.201746
0.0253288
0.0691448
0.694428
0.0396839
0.0247937
3.97561
0.0810787
0.0253535
0.0907515
0.0338574
1.74781
0.0277301
10.1981
0.0630037
0.02523
0.0965268
0.0951731
0.0278028
5.81951
0.0651567
0.0328788
2.35324
0.0251781
0.170611
0.100038
0.143989
0.0252219
0.0252318
0.0248184
0.0373149
0.0606331
0.0593097
6.46317
4.61574
3.89751
0.0256558
1.9395
3.78156
4.22277
0.0252819
0.0252585
0.0587631
4.23049
0.0273822
0.0385925
32.5802
5.08789
17.0367
0.128884
0.181944
3.36662
0.434513
0.0247672
12.0372
0.300767
0.0255011
0.0254917
0.0260028
4.64587
0.107023
5.27532
0.0271708
8.65583
0.0253223
1.67114
3.82347
0.0254417
0.0374316
4.23846
4.70931
0.0615983
0.0260146
0.0269261
0.0256185
0.261103
0.132781
2.83766
4.13078
0.0249442
5.30383
0.186384
1.02436
0.0253419
0.0255211
2.3565
0.301019
0.0252161
0.055361
0.0825747
0.0441509
4.11641
4.65194
4.60267
4.10199
0.02867
0.0248262
0.0744966
4.5058
10.2325
0.025114
0.31516
0.100855
0.494698
0.0255783
0.0256421
1.27496
4.49176
7.05748
1.73257
4.21814
0.0252452
0.28778
4.0895
0.0254794
0.0705394
0.117041
0.0248728
0.176772
4.91315
0.28069
0.0256407
5.27055
0.128421
27.2429
0.0246406
0.0267306
0.0253696
0.0262171
0.0253388
0.0609328
0.0456659
0.0482996
0.373867
0.037086
4.22914
0.0285308
0.0320081
0.031379
9.01352
0.0654316
4.95416
0.0314244
0.0313938
19.1298
0.10963
0.0253435
0.048254
4.44827
5.31331
0.332109
0.0252176
0.0251531
0.0251619
1.48285
0.0263602
2.51656
1.36748
0.302314
0.035482
0.284507
5.54161
0.0253402
7.30604
0.0379341
0.0575482
0.0251626
0.0250814
0.0587778
4.28412
0.0254086
4.92105
0.570357
0.11238
0.208384
0.0250958
0.0253336
0.0332051
0.0260125
25.342
24.6988
0.0958975
0.891972
0.0252004
0.0252867
0.0253626
0.0256279
7.53023
0.0263294
4.49171
0.098394
0.0256055
0.41713
2.89647
3.46065
8.53009
0.0266591
0.0249311
0.0254738
0.0265567
0.793851
0.275445
5.71622
0.0255074
0.025554
0.183268
0.0256472
0.218871
0.0268977
0.172011
0.195926
0.0469045
0.0450772
0.0249184
0.0518915
0.0432302
0.240316
0.0913859
0.0481546
0.0251262
0.277851
0.0251271
3.40631
3.69517
0.987389
0.0253328
0.123594
0.025271
0.053978
0.0261257
0.0258109
0.0318007
8.86797
4.11126
0.0892693
0.0536935
0.262733
0.0892474
4.01272
4.20949
0.0349187
4.17561
0.395227
0.0250618
0.0638336
4.23427
0.109305
0.0256153
0.0598623
2.30506
0.530754
8.62191
0.0253192
1.14574
0.0254265
0.0251878
0.0457176
0.384898
0.025652
4.22416
5.12582
0.223577
11.1181
0.426754
4.70633
0.350107
0.0249216
0.0279825
0.0248041
0.0493241
0.31913
0.480146
0.0275781
0.0473369
0.0247812
4.31114
0.0420873
0.0526746
4.13913
0.112526
6.70775
4.64476
0.0252221
6.75584
0.0254552
0.0319421
0.0535987
3.92301
0.167263
0.0313721
0.0262917
0.644206
0.0380009
4.3638
5.90726
0.0356864
3.25413
0.0490531
0.0256641
1.20738
0.0701569
0.0262097
9.01182
15.1304
0.0332452
0.0293445
0.14281
5.99377
0.0252215
0.0254063
0.0248571
0.0249697
0.0255703
4.82187
0.0355817
3.93657
0.025244
0.025108
0.886296
0.0253567
0.0268061
0.0253765
0.0253351
2.45515
0.0249442
4.74822
0.025156
0.0262048
0.04686
0.0254308
0.163845
0.0249578
0.0256536
0.0249869
0.0310148
0.101123
0.0275903
3.70453
0.0251728
0.049341
0.0330472
4.19527
0.0259751
0.0256585
0.0248404
0.0248635
0.428788
0.025152
0.0250871
0.0277381
2.17661
0.025216
0.0485189
0.0368528
0.0252669
4.87298
6.66273
0.306698
4.9392
0.0279359
0.121345
0.0254071
0.112754
0.36818
0.0254569
2.3508
0.142091
4.60562
0.0346974
0.0253377
1.63239
0.0491112
0.868467
5.09544
0.0247091
0.025257
7.49608
3.23788
0.0651827
0.0642694
0.0262576
10.4752
5.7363
0.0246445
0.0252546
0.0252827
0.0255317
0.0256311
0.0253334
0.0401052
4.22372
0.0349215
0.02544
0.472281
0.0252824
0.900134
0.0523771
0.0252137
0.0307869
0.0251773
0.408437
0.0281042
0.0578983
0.0252265
0.0254465
4.48646
4.87137
0.025536
0.0563705
0.0501585
0.034934
0.0271267
0.0256619
0.0258816
1.71624
0.615211
0.0437233
4.89583
0.0256282
24.1372
0.115397
0.0291381
17.4744
0.0262778
4.35441
5.33809
3.44309
4.09389
4.09501
3.77468
0.0247853
0.0305279
0.0279549
0.0247919
0.0249015
0.0325101
0.0867045
0.024959
0.0331579
0.133663
0.0858358
0.328324
0.22587
0.0371904
1.90576
9.526
0.0382349
0.0281095
0.140377
8.67777
3.87093
0.0287697
0.0247684
0.0250998
0.0249763
0.035214
3.82273
0.410389
0.0248936
4.64351
0.0252753
0.150982
4.17426
0.0930588
0.215297
0.101521
0.369047
0.0260417
0.0374763
0.0251103
0.270458
0.0252256
0.0261471
0.0366156
0.166925
0.0255361
0.0276526
5.47701
0.0250593
0.0252349
0.032774
5.66867
0.126903
0.681605
0.0434549
0.0255004
3.35723
0.0420276
0.0264579
0.0253122
0.0345
0.0298809
0.0253233
0.0310504
4.49626
0.0267652
0.0248173
0.0528879
0.0251347
0.0358003
0.0339518
0.0253871
0.0252946
4.68829
0.0249112
0.0253393
0.0248341
0.0289765
0.0246018
4.86723
0.0291072
0.235179
0.0252496
0.0250841
0.0252022
4.30923
0.0706572
0.0253309
0.0247476
5.53255
0.0282883
0.0734398
0.0251079
0.163084
0.0265681
0.0247079
4.04235
0.0249114
0.0254992
0.0254959
0.0251518
0.0273437
0.0254683
0.0253479
1.69347
1.57099
4.64372
0.242333
8.33056
0.0250804
4.58267
0.0252575
4.09619
7.90249
0.0250318
10.2762
0.0252736
4.17097
11.5904
0.298069
4.12246
3.97881
0.894198
2.0257
6.06785
5.22941
0.0488764
0.046014
4.65329
0.0267047
0.0248408
1.86553
0.0270237
0.0318399
11.8434
0.0261696
0.612975
3.68363
6.34703
0.414238
0.128385
0.025636
0.0318326
0.0541342
0.0254543
6.8831
0.397845
0.122085
0.0251497
0.0253934
8.02621
0.0248767
0.787708
0.0250418
9.0766
4.45978
0.0389251
0.0293572
0.0252543
10.1978
4.07162
0.0286722
0.0377438
0.025681
0.0256807
0.0635826
0.0263775
0.0361436
0.0756378
0.0274605
0.0362567
0.0253447
0.0361717
15.0859
0.025657
10.7393
0.0251465
3.4695
0.0615759
0.025348
9.94346
0.137305
0.0250858
0.175462
0.0253363
0.446523
0.0254404
0.0253076
3.88706
0.0254948
0.116314
0.0265407
0.150952
0.0250467
0.0255625
0.0251099
0.033848
0.027438
0.0255231
0.0258154
0.0285481
0.0256711
0.134844
0.0726895
0.0329084
0.0265664
0.0247687
2.39336
8.48305
0.0259887
0.0257506
0.0258666
0.0426703
0.0254319
0.0393456
0.0247213
0.0256804
0.247974
0.0265439
0.0256795
0.0251634
4.78907
10.8823
0.0247616
0.0812226
0.0661536
0.258975
0.235979
6.72157
4.33166
0.711728
0.0260726
0.149776
0.0252053
0.0353804
7.10331
4.43133
0.152766
0.0271266
15.2798
0.025354
0.0526914
0.443457
0.0254607
0.147754
0.0266475
0.0264421
0.0836661
0.159307
3.92711
3.3951
0.0250255
0.0247513
4.7824
3.79499
0.0254682
0.0327272
0.132681
0.0253394
0.0253211
0.0272963
1.85189
0.024987
4.28846
0.0332161
0.025407
0.239284
0.0802279
0.0743167
0.128163
4.92361
0.0276213
0.03814
0.0310171
0.0269612
9.57486
0.0350975
4.21572
4.1381
0.0755097
4.18032
0.0523445
0.0541167
0.387235
0.0249249
4.28194
0.0980964
0.037975
0.0327873
0.0255375
0.0248265
4.13546
0.0488886
4.29004
4.3004
0.0254529
4.25745
0.0250778
0.0252171
0.03241
11.248
0.0816557
0.0248214
4.07809
0.0252574
0.0270016
3.97787
0.0268666
3.4765
0.0256637
4.39998
4.11239
0.0775699
2.71337
0.0265842
3.47265
0.0247627
5.32767
4.76371
4.41378
5.07453
0.0252285
0.0250059
0.26651
3.76121
3.47656
3.83073
3.76866
0.0253568
4.9188
3.46032
0.0256338
4.99681
0.0355253
0.0367629
12.1147
0.043097
4.42513
0.025149
0.0427632
0.0380441
0.225799
6.23809
0.041556
3.58357
4.46848
0.0255298
0.0278255
0.0269962
0.0279636
3.49011
0.0253169
0.0249741
0.0444315
3.77937
4.00036
0.031466
3.88296
4.23526
0.0252201
8.47438
4.71714
0.193494
4.00078
0.0747601
0.0275845
0.0255305
0.175562
0.0296609
0.0897887
9.89114
4.53689
0.0326882
0.0801132
0.0290257
0.0423777
0.0248378
0.0453935
0.0278847
0.101007
4.62885
6.97627
3.90899
0.0248125
0.142388
0.069051
4.21766
0.0264398
4.67263
4.7424
4.24157
0.025269
0.195708
4.55055
10.7585
7.35668
0.0411764
5.49501
4.02819
0.0689032
0.0749107
0.0272319
0.0329161
4.72461
0.0511783
0.0255487
3.32084
0.0252363
0.0254436
0.13401
0.134164
0.0249883
0.101942
0.027916
3.76681
10.7647
0.0270475
3.87826