/*--------------------------------*- C++ -*----------------------------------*\
| =========                 |                                                 |
| \\      /  F ield         | OpenFOAM: The Open Source CFD Toolbox           |
|  \\    /   O peration     | Version:  v2012                                 |
|   \\  /    A nd           | Website:  www.openfoam.com                      |
|    \\/     M anipulation  |                                                 |
\*---------------------------------------------------------------------------*/
FoamFile
{
    version     2.0;
    format      ascii;
    class       surfaceScalarField;
    location    "400";
    object      phi;
}
// * * * * * * * * * * * * * * * * * * * * * * * * * * * * * * * * * * * * * //

dimensions      [0 3 -1 0 0 0 0];
oriented        oriented;


internalField   nonuniform List<scalar> 
20673
(
-0.17244
0.161888
0.010552
0.371009
-0.306319
-0.0646896
0.0219041
-0.0478854
0.0259814
0.151827
-0.277424
0.125597
-0.361225
-0.116527
0.477753
-0.0200614
-0.00249027
0.0225517
0.0335478
-0.0283809
-0.00516688
0.00840682
0.0184831
-0.0268899
0.0128363
-0.0242901
0.0114538
-0.0558826
0.157807
-0.101925
-0.107502
0.106143
0.0013588
0.150199
0.00446417
-0.154663
-0.0982194
-0.00108167
-0.000360325
0.00144199
0.204514
-0.0386178
-0.165896
0.241316
-0.242596
0.00128047
-0.106283
0.300392
-0.194109
0.14131
-0.16357
0.02226
0.150969
-0.00077033
0.336643
0.263733
-0.600376
-0.373562
0.573245
-0.199682
0.0308886
0.00265923
-0.598228
0.333918
0.26431
0.0434749
-0.0350681
-0.307366
-0.0601558
0.367521
-0.0044816
0.0312704
-0.0267887
-0.105657
0.0778895
0.027767
-0.099957
0.0517204
0.0482366
-0.065377
0.0526633
0.0127136
-0.14819
0.110004
0.0381856
0.156488
-0.171201
0.0147132
0.195292
-0.206357
0.0110646
-0.0965252
0.138116
-0.0415904
0.174418
-0.0487664
-0.125652
-0.387493
0.361781
0.0257121
0.0887788
-0.109114
0.0203351
-0.36575
-0.232479
-0.00390332
-0.00200242
0.00590574
-0.186905
-0.055026
-0.0156343
0.000826662
0.0148076
-0.580576
0.590529
-0.00995353
0.68529
-0.386955
-0.298335
0.365528
-0.538635
0.173107
-0.0498449
-0.0181029
0.0679478
-0.170856
-0.156076
0.326931
0.0965794
0.071034
-0.167613
0.147641
-0.00633115
-0.0173539
-0.111931
0.129285
-0.00362032
0.0103028
-0.00668247
-0.680556
0.43674
0.243816
0.0435342
-0.165646
0.122112
-0.282604
0.0325548
0.250049
-0.00675063
0.00313031
0.0555976
0.118821
0.167365
-0.273648
0.213426
-0.224338
0.0109124
-0.112959
0.00545741
0.270319
-0.352752
0.0824331
0.0852079
0.161044
-0.246252
-0.333076
0.16222
-0.0171331
-0.0182747
0.0354078
0.164572
0.206437
-0.00108167
-0.165797
0.50244
0.015914
-0.0359754
-0.0776949
0.0854341
-0.00773917
-0.515675
0.323811
0.263369
-0.361783
-0.105959
0.10438
0.00157892
-0.162063
0.182227
-0.0201642
-0.525257
0.164032
-0.0147948
0.0276311
0.000110771
-0.00408754
0.00397677
0.143504
-0.450869
-0.00760978
-0.00698307
0.0145929
-0.018485
0.144659
-0.126174
0.0048339
0.000282992
-0.00511689
0.0730044
0.191169
-0.264173
0.0334815
-0.0305265
-0.00295503
-0.612019
0.326733
0.285286
-0.325376
0.600583
-0.275207
-0.257163
0.00784092
0.0248138
-0.0326548
0.00534496
-0.00924828
0.00266347
0.00345885
-0.00612232
-0.213177
0.286181
0.367875
0.20488
-0.572755
-0.0882676
0.0105727
0.212771
-0.169237
0.516648
-0.151119
-0.00150663
0.00210546
-0.00059883
0.122225
-0.00349828
-0.118727
-0.0517305
0.36629
-0.314559
-0.26122
0.0521492
0.209071
-0.0391331
-0.0491346
0.0249567
-0.0350877
0.010131
0.0867373
-0.125222
0.0384845
0.129413
-0.00157384
-0.127839
-0.0656381
-0.0364359
0.102074
0.0517132
-0.0640868
0.0123737
-0.455674
0.560102
-0.104428
0.12202
0.00838901
-0.130409
0.018863
-0.0687079
-0.272625
0.0729396
0.199685
-0.484578
0.089455
0.395123
0.0327135
-0.0246463
-0.0080672
-0.0026023
-0.0626482
0.0652505
0.0944562
-0.11181
0.104077
0.196314
0.162378
-0.150828
-0.0115491
0.0025623
0.00663107
-0.00919337
-0.00295622
-0.0126781
-0.111586
0.132025
-0.020439
0.0298254
0.00288806
-0.274539
0.117487
0.157052
0.00704326
-0.00764971
0.000606452
-0.362085
0.500281
-0.138197
0.0109655
-0.01194
0.000974481
-0.00649335
0.00848551
-0.00199215
-0.0775117
0.165472
-0.0879601
0.498003
0.187287
-0.0972013
-0.00875764
0.00151187
0.00484833
-0.0063602
-0.056337
-0.04362
-0.609109
0.123218
0.485891
-0.246101
-0.015119
0.0998565
0.219347
-0.319204
-0.534916
-0.0741934
-0.493467
0.587838
-0.094371
0.0224664
0.00754943
-0.0117581
0.00420872
-0.0830137
-0.191525
0.148801
-0.304877
0.208269
-0.581831
-0.129579
0.0652175
0.0643613
0.00747298
0.036002
-0.0169828
-0.155457
0.0514364
0.000276784
-0.11392
0.437731
0.101153
-0.178665
-0.0948402
0.113615
-0.018775
0.45231
-0.191834
-0.260476
-0.215566
0.277122
-0.0615559
-0.0715503
0.0244411
0.0471092
-0.0683814
0.33175
0.0419938
0.0052964
-0.0472902
0.0175524
0.0437083
-0.0612607
0.0187317
-0.301336
0.504929
-0.168168
-0.336761
0.224444
-0.214337
-0.0101068
0.155378
0.00413259
-0.159511
-0.000468601
0.00751186
0.0218585
-0.116101
0.0942421
-0.082171
-0.0434188
0.12559
0.219165
-0.214607
-0.0045587
0.00219258
0.00232138
-0.00451395
-0.174633
0.0125701
0.0328496
-0.0908429
0.0579933
-0.000654076
0.00548797
-0.0763882
-0.0531906
-0.147955
0.219113
-0.0711581
-0.0858646
-0.00578831
0.0916529
0.243231
0.35682
-0.600051
0.113046
-0.0263084
-0.135011
0.0234245
0.0285799
-0.094218
-0.203284
-0.0693409
-0.158098
0.154737
0.00336158
0.134398
0.221163
-0.355561
0.0248924
0.0971273
0.150195
-0.142915
-0.00728027
0.0172063
-0.00737895
-0.00982736
0.109439
0.00579096
-0.11523
-0.00652107
0.236029
-0.229508
0.0589557
-0.0461153
-0.0128404
-0.0428121
-0.070265
0.113077
0.0135481
-0.00599868
0.000364117
0.0106014
0.0567222
-0.0147284
-0.25871
0.402357
-0.143646
0.00544348
0.116782
-0.0134889
0.169977
0.298488
0.153822
-0.0900433
0.457918
0.190185
-0.092253
-0.0979323
0.0336878
-0.0381694
-0.0323108
0.128581
-0.0962704
-0.000437881
0.00263046
0.152118
-0.151362
-0.000756068
-0.107387
0.0979021
0.00948474
-0.0107239
0.0763111
-0.0655872
6.82876e-05
0.00259518
-0.114563
0.0954948
0.0190685
0.624712
-0.278607
-0.346105
-0.0316508
-0.013709
0.0453598
-0.102275
-0.00338188
0.632441
-0.632441
-0.304807
0.253077
0.0060655
-0.0809699
0.0749043
-0.0885062
0.0885569
-5.06943e-05
0.0245671
0.176852
-0.201419
-0.340106
-0.34045
0.164054
-0.00198274
-0.162072
0.154165
0.00121343
-0.00541994
0.00553071
-0.076571
0.105101
-0.0285296
-0.279917
-0.107576
-0.0913664
0.361686
0.00867845
0.120735
0.016093
0.0301058
-0.0461989
-0.287028
0.0714619
0.0359104
-0.0266556
-0.00925481
0.00721963
0.000332609
-0.00755224
-0.00618901
-0.101198
-0.415022
-0.0695562
-0.0584766
0.0418744
0.0166022
0.149437
-0.00563906
-0.143798
0.0100384
0.00387864
-0.013917
-0.491838
0.291559
0.200279
0.0398294
-0.0569625
-0.396927
0.138217
-0.000208027
0.115475
-0.115267
-0.128139
-0.452436
-0.0051435
0.000282603
0.0048609
0.0304498
-0.0227874
-0.00766244
0.0632174
0.178099
-0.119783
0.0183155
0.101467
0.0375893
0.181576
-0.456513
0.0414913
0.00437751
0.0844013
0.124227
-0.0147874
-0.0100824
0.162201
-0.0553245
0.0203069
0.0350176
0.00846325
-0.00124362
-0.591837
0.489936
0.1019
0.194324
0.000968725
-0.00153073
2.41069e-05
-0.00334343
-0.00247321
0.00581664
-0.303375
0.546606
-0.461357
0.442698
0.0186594
-0.0173999
0.00136679
-0.119136
0.0951836
0.0239519
0.399599
-0.602083
0.202484
-0.0769291
0.0919056
-0.0149764
-0.145428
0.142024
0.00340328
-0.103155
0.0172907
-0.167528
-0.0129473
0.180475
0.582402
-0.225582
0.140001
0.00566974
-0.145671
0.00706284
-0.00767719
0.000614353
-0.287966
0.38754
-0.099574
0.0538824
-0.134153
0.0802707
-0.0380762
-0.00986951
0.0479457
-0.239388
0.339245
-0.281568
-0.0711845
-0.0259666
-0.105998
0.131965
0.000584033
0.0135052
-0.0140892
0.105899
-0.0840404
0.122583
0.0676028
0.0137096
0.190804
0.241486
0.370707
-0.612193
-0.00299308
0.00450495
0.00442789
0.0390719
-0.0434997
0.0552506
-0.0891362
0.0338856
-0.382181
-0.0743325
-0.00189925
-0.0056175
0.00751675
-0.000320766
-6.75417e-05
0.000388308
-0.0424865
0.0753361
0.0331119
0.000369611
-0.123399
0.104914
0.257026
0.473172
-0.661852
0.18868
-0.142823
0.00290384
0.13992
-0.00154103
0.00117389
0.000367134
0.117995
-0.134519
0.0165244
-0.170968
0.256176
-0.108454
0.031883
-0.145472
-0.0151333
-0.0929151
-0.454333
0.547248
-0.0719647
0.0678996
0.00406514
0.254596
0.281626
-0.536222
0.0549368
0.0040189
-0.209755
0.234322
-0.072316
0.471915
0.0839931
0.112483
-0.196476
0.0490513
-0.131222
0.105912
-0.1117
0.0227611
-0.0996902
-0.00352223
0.131485
-0.127962
0.377696
-0.0909332
-0.286763
0.0837373
-0.0965945
0.0128572
-0.0271126
-0.0282119
0.0260577
-0.0216298
-0.227545
-0.264293
0.0803671
-0.0250565
-0.0553106
-0.483716
0.0154141
0.468301
0.186288
0.191409
-0.474978
0.112893
0.0615916
-0.0440392
-0.0587772
0.520121
-0.461343
-0.107643
0.107435
-0.1804
0.0128723
-0.265514
0.399912
0.0033685
0.160686
-0.246528
0.0281087
0.218419
-0.00822633
0.00220111
0.00602522
0.0850957
-0.127908
0.125827
-0.129325
-0.276121
-0.108053
0.384174
0.0688525
-0.35042
0.000608376
-0.00909464
0.00848626
0.00530845
-0.00341082
-0.00189763
0.28781
0.212471
-0.392589
0.625972
-0.233383
-0.06261
-0.00935468
-0.289644
-0.0683784
0.358022
-0.000774048
-0.00331349
0.102914
-0.379035
-0.00537033
0.000226827
-0.332582
0.255367
0.0772145
0.104106
-0.0109518
-0.0931538
0.217317
-0.143995
-0.0733216
0.0176066
-0.0119747
-0.00563188
0.0625057
-0.210461
-0.000498949
-0.0758893
-0.051937
0.0107907
0.0411464
0.18224
-0.0982474
-0.0622439
-0.0568916
-0.0074815
0.07156
-0.0640785
0.0555131
-0.280897
0.225384
-0.00416938
-0.00497977
0.00914915
-0.0522125
0.0205616
-0.000594915
0.000274148
-0.188812
0.169861
0.0189506
-0.0112522
0.000296114
0.010956
-0.159794
-0.058052
0.217846
-0.00133257
0.00409803
-0.00276547
-0.044312
-0.00762502
0.0726551
-0.0941565
0.0215014
0.0946652
-0.0220101
0.0342865
-0.0123825
-0.563497
0.336277
0.22722
0.144381
0.00581424
-0.00560235
0.00816466
-0.17855
0.293794
-0.115244
0.222756
-0.00141645
-0.221339
-0.00121526
0.000854938
-0.0664817
0.0725472
-0.213575
-0.0528085
0.266384
-0.0824151
0.0716912
-0.0372974
-0.0280795
-0.601852
0.324918
0.276934
-0.00784401
0.00135065
-0.111023
0.0350212
0.076002
-0.266894
0.521491
0.508894
-0.35933
-0.149564
0.109964
-0.593679
0.236368
0.268561
-0.0124735
0.0962108
-0.0383721
0.0563353
-0.0179632
-0.0380922
0.0219478
0.0161444
0.0080138
-0.00740542
-0.372947
-0.0048468
0.377794
-0.0626179
0.1165
-0.00952939
0.0101686
-0.000639238
0.125469
-0.166277
0.0408076
0.00752948
-0.00330325
0.00176223
0.00580349
0.211702
-0.480376
0.268674
0.0909962
-0.0357456
0.322952
-0.495706
0.172754
-0.0150081
0.0548375
-0.1444
-0.188676
0.015972
0.0016346
-0.0288703
-0.116557
0.182211
0.0872715
-0.269482
0.460713
-0.572403
0.11169
0.14074
-0.132062
-0.0938285
0.099272
0.125111
-0.128663
0.00355187
-0.0131706
-0.0378368
0.0510073
-0.00703584
0.00570327
0.013727
-0.0036886
0.00544121
0.13456
0.0625592
-0.118442
0.0178691
-0.479226
-0.00638708
0.00304365
-0.0198327
-0.00958211
0.0294148
-0.0309702
0.289277
-0.258307
0.0932587
-0.0937577
-0.305822
0.50125
-0.195428
0.0380379
0.0743207
-0.112359
-0.099291
-0.233291
-0.319129
-0.244368
-0.294525
0.110974
0.183551
-0.0251482
-0.00748484
0.032633
-0.0774944
-0.21703
-0.0188586
0.0194426
0.00401443
-0.00127953
-0.0027349
0.0801454
-0.0846402
0.0044948
0.0274382
-0.0448156
0.0173774
-0.21451
0.270023
-0.0334706
-0.025006
0.0382288
0.58895
-0.243887
-0.345063
-0.069084
-0.296539
0.117989
0.214872
-0.339687
0.124815
-0.0759478
-0.0722418
-0.365247
0.606733
-0.391916
0.461655
-0.0697392
0.389413
-0.0664608
0.0915251
-0.103999
-0.328451
-0.283568
-0.00974757
-0.00150458
-0.00263586
0.0371718
-0.0345359
0.00354813
0.00301518
-0.00656331
-0.0817959
-0.0327674
-0.00606934
-0.0125109
0.0185803
0.00945519
0.00214151
-0.0115967
0.166378
-0.0409093
-0.47328
0.100333
0.11086
0.0142916
-0.125151
-0.267262
0.0803572
0.207427
-0.194928
-0.0124994
0.226613
0.3981
0.0183501
0.0351108
-0.0190177
-0.0503003
0.0476644
-0.189182
0.208729
-0.0195471
0.109926
0.0265818
-0.136507
-0.165345
-0.0234665
-0.2604
0.205374
0.00560199
0.119509
0.195407
-0.242486
0.0470794
-0.0803414
0.0853268
-0.0049854
-0.174433
0.27851
-0.438231
0.379454
-0.00215339
0.00137934
0.0105581
0.00298997
0.0147545
-0.00419641
0.0435921
0.0911431
-0.134735
0.00614325
-0.00259512
0.00868458
-0.012854
-0.000605176
-0.00446074
0.00506592
0.00397283
-0.000778128
-0.0031947
0.147885
0.366271
-0.514156
-0.132233
0.00203589
0.130197
0.225716
-0.0303096
0.346901
-0.263345
-0.0835559
-0.113277
0.0310426
0.0822347
0.00481776
0.485285
-0.539217
0.0539329
0.0127935
-0.138436
0.125643
-0.00511307
-0.149746
0.15486
0.00283898
-0.00198028
-0.000858707
0.344541
0.244408
0.121766
-0.00860532
-0.11316
0.0013326
0.00082486
-0.00215746
0.102916
-0.0181027
-0.0848137
0.000991821
-0.0104099
0.00941808
0.244793
-0.252078
0.221107
0.521865
0.110576
-0.149568
-0.0250651
0.509403
-0.297701
-0.0309912
-0.0100721
0.0410634
-0.0321871
-0.00590507
-0.154843
0.15132
0.00293493
-0.0054775
0.00254256
0.0231953
0.190231
0.0987333
0.0143124
0.00182098
-0.00242616
-0.00876731
0.0524756
-0.0123772
0.0925226
-0.00339788
-0.0914423
0.105413
0.0163526
0.122679
-0.148504
0.0258241
0.0867961
0.0322603
-0.119056
-0.171992
0.178234
-0.00624154
0.0916872
-0.109005
0.0173176
0.0237549
-0.138637
-0.0139966
0.152634
0.105547
0.00368421
-0.109231
-0.531087
0.544776
-0.0136891
0.107775
-0.0295176
-0.0782577
0.215978
-0.0153273
-0.200651
-0.431835
0.3047
0.127134
-0.160991
0.0114228
-0.265146
0.185063
0.0800825
-0.00054036
0.00337934
0.0110705
0.018755
0.0906874
-0.380331
-0.517331
0.424416
-0.0336213
-0.00982755
0.0434488
0.0121212
-0.00266599
0.593916
-0.223208
-0.00814888
0.0091407
-0.313979
0.23303
0.0809493
0.126218
-0.0970891
-0.0291285
0.00684285
0.32485
-0.331693
0.00802055
-0.00516687
-0.00285367
0.0642806
-0.0964923
0.0322117
0.0440447
0.180399
0.30571
-0.190663
-0.115047
0.0181768
-0.0242462
-0.116977
0.0846658
-0.0127719
0.0127019
6.9992e-05
0.241236
-0.606484
-5.16301e-05
-0.0073063
0.00735793
-0.00786222
0.0780372
-0.0130399
-0.0649973
-0.35433
-0.077505
-0.00396186
0.00742071
0.0225324
-0.0116827
-0.0108498
-0.130112
0.167197
-0.0370845
0.126535
0.382358
-0.217187
0.265773
-0.0485858
-0.14007
-0.0632913
0.101329
-0.0438045
0.529089
-0.518733
0.159403
0.650313
-0.43919
-0.211124
0.408142
0.242172
0.00521352
-0.00711277
-0.047233
-0.0660443
0.036266
-0.103127
0.117177
-0.0140501
0.57294
-0.0997681
-0.0480506
-0.407624
-0.0102444
0.12017
-0.0120002
0.0049093
0.00709091
0.150721
-0.168513
0.0177928
-0.115298
0.336461
0.452072
-0.2372
-0.286928
-0.0906888
0.377617
0.0154272
0.00085097
-0.000782682
0.396568
0.165832
-0.5624
-0.265751
-0.142674
0.408426
0.0106548
-0.0228357
-0.149157
0.106153
0.111164
0.0423544
-0.294432
-0.14964
0.262118
-0.112478
0.183804
-0.220663
0.036859
-0.00434983
0.109897
0.0641449
-0.0716264
0.025454
0.10045
0.0104094
-0.15
0.0606231
0.0893774
0.0189319
0.0861687
0.0079531
0.117873
0.453224
-0.292692
-0.160533
0.00719372
-0.000130881
-0.452751
0.250336
-0.0275807
0.252777
0.0057883
-0.258565
0.0772167
0.0305586
0.0829449
0.0200034
-0.102948
-0.0143821
0.399884
-0.385502
-0.000759061
0.103675
0.111048
-0.14027
0.0292221
0.00241723
0.00168893
-0.00410616
-0.0819385
-0.068062
0.00433784
0.093467
-0.0978049
0.142293
-0.147406
0.322979
0.137734
0.0401187
-0.014061
0.103347
-0.0228163
0.0176369
0.00517938
0.170867
-0.345299
-0.157568
0.186934
-0.0293662
0.112001
0.00517623
-0.00250803
-0.000795221
0.0120852
-0.0120852
0.118916
-0.12049
-0.066167
0.109759
-0.0374782
-0.205118
0.199057
-0.228178
0.0291214
-0.212373
0.254728
-0.0753056
-0.0148527
0.0901583
-0.0526874
0.0270302
0.147557
0.00188052
0.0133602
-0.0151478
-0.00766853
-0.00318867
-0.00958321
0.0199214
-0.218393
0.198472
-0.00975958
0.108493
0.0933651
-0.0290845
0.0863046
0.0920374
-0.178342
-0.291425
0.0887871
0.202638
-0.0304327
0.00291822
0.0275145
0.05162
-0.0333772
-0.0182428
-0.0467312
0.0359836
0.0107475
-0.038571
-0.069585
0.108156
-0.539788
0.046321
-0.00592586
-0.00191814
0.00458867
-0.467547
0.453165
0.18663
-0.18357
-0.00305994
-0.00694092
-0.113157
0.120098
-0.125136
0.0286107
-0.0151643
0.125168
0.0354522
-0.01018
-0.0252722
0.111994
-0.0251981
-0.0205646
0.192707
-0.172142
0.0201018
0.0200169
0.265718
-0.198315
-0.0674034
0.00393811
3.47188e-05
0.271539
-0.574915
-0.0121825
0.40875
0.0658794
0.0144877
0.0386234
0.0129966
0.0322868
-0.00742124
-0.0248655
0.0975831
0.168135
0.258148
-0.264669
-0.448275
0.182524
0.00464717
-0.150119
0.002693
0.114987
-0.0864069
0.221477
-0.0224195
0.100503
-0.11288
0.135101
-0.262943
0.269786
-0.0518323
-0.0679505
0.116245
-0.00125817
-0.0809499
0.0723126
0.00863731
-0.0482117
0.360138
-0.311926
-0.0845596
-0.0252282
0.109788
-0.0739768
0.000434934
0.00357949
0.0325381
0.125269
0.109543
-0.0265982
-0.189716
0.0321475
-0.259198
0.537253
-0.278055
0.292162
0.086235
-0.378397
-0.0917803
0.311128
-0.0888784
-0.00982703
0.0987054
0.154817
-0.0582381
-0.0557306
0.104912
-0.049181
-0.0382161
0.0250455
-0.141034
-0.0170638
-0.222391
-0.37946
0.0285261
-0.09095
0.0624239
0.0225478
0.00973894
-0.1041
0.0855331
0.0185668
0.0582914
-0.346258
-0.179983
0.148249
0.0317343
-0.121235
-0.397497
-0.160601
-0.0420616
0.202663
-0.0532818
0.214326
0.00514153
0.0173909
-0.287483
0.614216
-0.0701907
0.189321
-0.00267171
-0.18665
0.0836836
0.0224597
0.149067
-0.0607466
-0.0883205
0.00489386
0.000136098
-0.00502996
-0.0213866
-0.0908341
0.112221
0.0489832
-0.26617
0.00180164
-0.000645262
-0.00115637
0.00974603
0.00233921
0.354596
-0.265279
-0.0893171
0.222139
0.0306378
0.107007
-0.0780462
-0.0289605
0.0856856
-0.124257
0.118812
-0.000817418
-0.347951
-0.242502
0.590453
0.0342289
0.271481
-0.104302
0.0933504
0.243834
-0.061623
-0.11337
-0.0152929
-0.151005
0.125038
0.388601
-0.096439
-0.145692
0.151076
-0.00538403
-0.0275785
0.401229
-0.176458
-0.224771
-0.266953
-0.0315099
0.298462
0.672881
-0.393297
-0.279585
0.00344053
0.00186792
-0.413778
0.622047
-0.202032
0.0128497
0.00397086
0.0132354
0.00983592
0.201497
-0.211333
0.0467141
-0.00809067
-0.0277351
-0.186872
0.0662296
0.071886
0.233692
0.122144
-0.00448559
-0.117658
-0.0993088
-0.375669
0.139302
-0.00519602
-0.134106
0.325304
-0.586182
0.260879
0.11169
-0.102185
-0.00950535
-0.219813
-0.0941664
-0.01877
0.0201026
0.049677
-0.043342
-0.00633506
-0.00293504
-0.00906518
-0.560268
-0.0721728
-0.236126
0.129863
-0.12191
-0.147835
0.163761
-0.0159258
0.0010126
-0.0027974
0.0017848
0.0169699
-0.016553
-0.000416917
-0.135237
-0.0283332
-0.33186
-0.0138062
0.345666
0.10718
-0.0156545
-0.02654
0.0191188
-0.0843217
0.0033718
0.0579304
-0.113661
0.143028
0.00021224
-0.143241
-0.0280749
-0.00590963
0.0339845
-0.165465
0.152162
0.0133038
0.16099
-0.176124
0.00223929
0.0938887
-0.096128
-0.0775105
-0.00345935
-0.149617
0.0143802
-0.00189815
0.0195252
-0.017627
0.147703
-0.153741
0.00603776
-0.281268
0.080812
0.200456
0.0993792
-0.10632
0.0712019
0.111039
-0.405975
0.318294
0.0876815
-0.18601
0.0254095
0.0152768
0.147101
-0.169859
-0.0444781
-0.381613
-0.041598
0.423211
0.180351
0.148985
-0.0145434
-0.134441
-0.0633826
0.243277
-0.179894
-0.139339
0.0259691
0.0102724
-0.342132
-0.225905
0.462742
-0.236837
0.135172
-0.54895
0.21552
-0.158417
-0.0571032
0.223644
0.223986
-0.447631
0.0263017
0.186597
-0.212899
0.625875
-0.283346
-0.342528
0.00662803
0.00139252
-0.147621
0.146617
0.00100389
0.039083
-0.0378806
0.237373
-0.516921
0.279548
-0.354367
-0.205281
0.559648
-0.0349813
0.0860046
-0.0510234
0.152619
-0.0299396
0.250273
-0.194383
-0.0558892
0.0407856
0.015978
-0.0567635
0.136893
-0.0400067
-0.0968862
-0.07404
0.0590319
0.00331078
0.0979074
-0.125523
0.027616
-0.0893252
0.261291
-0.171966
-0.633921
0.0244563
0.609464
0.598677
-0.190535
-0.256759
0.0102311
0.0154029
-0.0157489
0.000345929
-0.603351
0.248984
-0.0924468
0.0191228
0.073324
-0.128301
0.154603
-0.00161738
-0.00791202
0.110487
-0.137173
0.0266863
0.112805
0.0240884
-0.0126924
0.0963759
-0.441049
0.102875
0.338174
0.280805
0.31621
0.00334812
-0.429763
0.275108
0.154654
-0.299506
0.0803605
0.219145
-0.047413
-0.0207149
0.0681279
0.251788
-0.015759
0.0981217
0.448489
-0.546611
-0.00814729
0.17812
-0.169973
-0.0589681
-0.417633
0.476601
0.324807
-0.474944
0.150137
-0.162312
0.0136369
-0.000343227
0.00135582
0.166535
-0.177979
0.0114445
0.251562
0.149668
0.464743
0.125786
0.0032098
-0.00571784
0.00578673
0.33225
-0.102467
-0.229783
-0.108775
0.279641
0.0629506
-0.022165
-0.0855315
0.102763
-0.0172312
-0.0121746
-0.0017451
0.0139197
-0.112445
0.116783
-0.0501526
-0.231115
-0.235286
-0.356551
0.506199
-0.181392
0.00919515
-0.147832
-0.0138656
0.0215236
-0.0908788
0.0693552
0.0497722
0.120089
-0.00886316
0.00388339
-0.286983
0.088052
0.198931
0.0337038
-0.21583
0.182127
0.0110386
-0.0137359
0.00269726
0.144419
-0.450241
0.00230616
0.213672
0.273768
-0.35781
0.0840427
0.335938
0.259911
-0.595849
0.0051501
-0.155979
0.0870755
0.018836
0.20532
-0.277385
0.0720645
0.0425258
0.00418825
0.00126193
0.0130104
-0.0142724
0.0303404
0.22568
-0.311131
-0.119234
0.430365
-0.0912993
-0.0119509
0.10325
-0.0735149
-0.32541
0.566646
-0.0848313
0.103298
-0.0184671
-0.438232
0.127101
-0.155924
-0.280493
0.365691
-0.0851976
0.439125
-0.154916
-0.284209
-0.110524
-0.242304
-0.102861
0.345164
0.0283762
-0.0886161
0.145681
0.0407676
-0.186448
0.393174
-0.58643
0.193256
0.374868
-0.505506
0.130638
-0.0167701
-0.266791
0.283561
0.0306701
-0.320825
0.290154
-0.340183
0.0732306
-0.0320583
0.0445511
-0.0124928
0.29006
0.0514269
-0.341487
-0.11024
0.401697
-0.291458
0.0210335
-0.0076341
-0.0133994
-0.0255041
0.0308005
-0.152484
0.13192
-0.161324
0.00027359
-0.121579
0.121305
-0.0516203
-0.166589
0.218209
0.47295
-0.163596
-0.309354
0.125158
-0.0541244
-0.00547157
0.114261
-0.0025712
0.273182
-0.482254
0.209072
-0.303192
0.112529
-0.00327865
0.0202486
-0.0516823
-0.083421
0.135103
-0.00116574
0.00564831
-0.00448257
0.528347
0.167259
0.00062924
-0.00404006
-0.183375
0.156088
0.0272872
-0.277983
0.0648059
0.015446
-0.0148453
-0.000600694
-0.0187869
0.0101739
0.00861298
0.354059
-0.323388
0.103686
-0.101447
0.491793
0.106884
-0.339761
0.0974567
0.429452
-0.192079
9.63745e-05
-0.00571387
0.473014
-0.249369
-0.3294
0.281116
-0.0494962
-0.274232
0.0742714
0.19996
0.0329141
0.0933035
-0.092055
0.046069
0.305247
0.0743554
-0.379603
0.097796
-0.123846
0.0260502
0.372276
0.166925
-0.539201
0.00684806
0.505228
-0.482423
-0.0228054
0.348351
0.360567
0.219435
-0.580002
0.00660278
0.458688
0.0274346
-0.0120754
0.0157891
-0.00371372
0.0161223
-0.0517842
0.0356618
0.00109074
-0.181074
-0.0428641
-0.0681591
-0.0119228
0.0136296
-0.00170684
-0.280512
0.349364
0.000396894
-0.00632276
-0.025864
0.00758932
-0.0134648
0.00154207
-0.000369035
0.0154648
-0.0150958
0.00606939
0.0149642
-0.0162381
0.0186553
-0.0718638
0.10039
0.178966
0.0868063
0.00492577
-0.154675
-0.0287004
0.0065502
-0.0263829
-0.413157
0.0588275
0.0912965
0.274993
0.276658
0.055592
0.538109
0.164051
-0.231189
0.0671386
0.120176
-0.146814
0.0266378
-0.00386759
0.00450431
-0.000636724
0.372535
-0.281238
0.425331
-0.186273
-0.239058
-0.00244972
0.0105808
-0.00813105
0.00871205
-0.0779219
0.0692098
-0.269659
0.252889
0.0228916
0.0230833
-0.176678
0.153595
-0.0732457
-0.206168
0.279413
0.0249367
0.0247403
0.0887363
-0.0658447
0.161209
-0.212102
0.0508935
-0.166756
-0.107475
0.0127806
-0.0115187
0.0122175
-0.00117887
0.00327235
-0.0152124
-0.364113
0.0836199
-0.0879327
-0.0290439
-0.00912966
0.120177
-0.00752876
-0.00409816
0.0116269
-0.026066
-0.121509
0.123751
-0.0022416
0.256472
0.170022
-0.259347
-0.0769191
-0.210064
-0.509433
-0.114533
0.0658803
0.512661
-0.364777
0.169749
0.0140553
-0.0629495
-0.102516
-0.00475179
0.0024735
0.0022783
-0.132975
0.0352857
0.0976898
-0.0953426
-0.234057
0.124489
-0.00322969
0.00446745
-0.00123776
0.167038
0.327441
-0.244943
-0.0824989
-0.00342994
-0.0008773
0.00430723
-0.361827
0.0963129
-0.305345
0.00583948
0.0736901
-0.10862
0.0349298
0.00224808
0.000686853
0.482459
0.29909
-0.347302
-0.0231369
0.0327006
-0.00956375
-0.102674
0.0598097
-0.0285482
0.0940634
-0.0655151
-0.138319
0.0372193
0.1011
-0.0448755
-0.0642384
-0.487541
0.173578
0.313963
-0.102041
0.100614
0.00142645
0.172402
0.15504
0.0127576
0.356976
-0.369733
-0.0806857
-0.210739
-0.0450479
0.0140567
0.00112831
-0.0133029
-0.369988
0.0900528
0.279935
0.50118
-0.126313
-0.0739162
0.347684
0.0214752
0.0672992
-0.182734
-0.00507307
0.187808
-0.232988
-0.196775
-0.303091
0.0895153
-0.00159046
0.365024
-0.0597763
-0.0092012
-0.0761982
-0.0138098
0.090008
-0.0112664
-0.00486887
0.0161353
-0.327658
0.0882698
0.117818
-0.0256129
-0.0922054
0.183791
-0.16387
-0.0062707
0.00110383
-0.0041624
0.000932708
0.0100743
-0.00344321
-0.12164
0.121913
-0.0050535
-0.0137334
0.463903
0.00538896
-0.0305372
-0.466497
0.479678
-0.0730826
-0.151256
0.172802
-0.156925
-0.0158777
-0.0776959
-0.0424849
0.00886364
0.0463067
0.0299553
-0.0762621
0.0918154
0.0164992
-0.108315
-0.0142048
0.0432563
-0.0290515
-0.286181
-0.273897
0.560078
-0.0587857
0.101516
-0.0427303
0.106458
0.332667
-0.0851663
0.156368
0.0288985
-0.0208206
-0.00807791
0.229789
0.117112
0.1748
-0.641296
0.218388
-0.267615
0.0492276
0.101264
-0.25599
0.154726
-0.00322266
-0.00152913
0.468545
-0.103087
-0.365458
0.51323
-0.179312
0.0084729
-0.0206788
0.13184
-0.111161
0.147987
-0.14714
-0.000846792
-0.0262309
-0.000309104
-0.100536
-0.00780486
0.108341
0.0147583
0.000427743
-0.015186
-0.00166563
-0.132557
0.113777
-0.165459
-0.000981136
0.00102351
-0.17532
0.00464082
0.0537898
-0.0584306
0.0019819
0.0292885
0.205464
-0.00647031
-0.198993
-0.30767
-0.0583483
0.366019
0.00213759
0.0196231
-0.0217607
-0.038015
-0.246779
0.26551
-0.146475
0.0374129
0.109062
0.156363
-0.00564223
-0.345813
0.118031
0.227781
-0.028248
0.192299
-0.143919
0.245183
0.15582
0.286104
0.310911
0.13756
0.00546849
-0.0262703
0.0507114
-0.369171
0.139462
-0.130399
-0.00906326
0.110407
0.209017
-0.319425
0.104342
-0.0979306
-0.00641181
-0.252603
0.577907
0.156751
0.00168043
-0.133914
-0.232295
0.168913
0.321193
-0.0823942
-0.238799
-0.297069
-0.0729186
0.0388342
-0.0375047
-0.00132944
-0.0919501
-0.0293917
0.121342
-0.0223605
0.0499289
-0.0275684
0.264096
0.197559
-0.324461
0.267781
0.0566807
0.00795039
-0.270983
-0.0868278
0.018706
0.116846
-0.135551
-0.127066
0.0351159
-0.23547
-0.110342
0.0274453
0.114579
-0.258632
0.369039
-0.0181272
0.0503099
-0.0321827
-0.290885
0.0441065
-4.35485e-06
0.192711
-0.000278214
-0.000937049
-0.0765309
0.101689
-0.0251577
-0.0940294
0.401107
-0.307077
-0.223293
0.192765
0.0305278
0.00193429
-0.0140097
0.354981
-0.342223
0.474793
-0.118945
-0.355849
-0.011341
0.0038122
-0.00412476
0.00422114
0.0312085
-0.196554
-0.00951676
-0.0865722
0.096089
0.544371
-0.280638
0.23026
-0.0113602
0.23901
-0.210902
-0.354099
-0.0869505
-0.0938509
0.0230251
0.0708258
0.307246
-0.288056
-0.0191894
0.0231398
0.0670656
-0.0902054
0.198718
0.401865
-0.4472
0.0931008
-0.2972
0.194733
0.00604901
-0.106585
0.0115936
0.00249383
-0.0140874
-0.220517
-0.0760223
0.00152938
-0.237175
0.235645
-0.349226
-0.138315
0.1983
-0.184591
0.481977
-0.146039
0.0206497
0.13745
-0.124656
-0.584735
0.259325
0.0155345
0.0408009
0.115928
-0.095744
0.0369583
0.0126486
-0.00396403
-0.0214179
-0.00901482
0.396156
-0.306103
-0.30196
0.0570176
-0.257848
0.338713
-0.0808654
-0.00859735
-0.178729
0.140111
0.00127314
0.0116459
-0.012919
-0.00456347
-0.00946152
0.014025
0.230892
-0.168387
0.00576162
0.00829647
-0.0152795
-0.143778
0.146313
-0.00253481
-0.0971207
0.0876039
-0.114185
0.092798
-0.00141707
-0.0123791
0.11052
-0.00617728
0.0354123
0.0552971
-0.0907093
0.00952119
-0.00417623
0.135063
0.00343153
-0.138495
0.171251
-0.00118562
-0.024647
0.0763674
-0.39964
-0.0135167
0.21544
-0.1425
0.0369765
-0.0323356
-0.12678
0.144853
-0.0180725
0.373801
-0.283114
0.123726
-0.00158212
-0.100368
0.119074
-0.0032952
0.000983529
-0.00107762
9.40942e-05
0.214963
-0.00151836
-0.213445
-0.0517681
0.0375633
0.0287253
0.131182
-0.159908
-0.018213
0.0872032
-0.0689902
-0.0521108
-0.0521399
0.104251
0.122665
-0.0897513
-0.159965
0.183048
-0.368872
0.205339
0.0421037
0.307091
-0.431304
0.124213
-0.0461298
0.207339
-0.504304
-0.0267832
0.184624
-0.370506
0.11334
0.257166
0.00594574
0.109822
-0.115767
-0.0161322
0.107819
0.0116726
0.0056015
-0.0172741
0.0781603
0.030956
-0.109116
-0.032144
-0.0599111
-0.0404293
-0.00987095
0.072857
0.261066
-0.364471
0.103405
0.00627049
0.00802733
-0.0412753
0.0332479
0.325173
-0.392625
0.0674522
0.353558
-0.152222
-0.0110573
0.163279
0.0025087
0.0128942
0.338054
-0.59383
0.255776
0.13042
-0.00693732
-0.123483
0.0742687
-0.00269835
-0.0715704
0.121835
-0.152826
0.0309912
0.373829
-0.267882
-0.105947
-0.28781
0.230687
0.0571228
-0.180288
0.323643
-0.143355
-0.0811419
-0.0653331
-0.146918
0.103499
0.232578
0.00559177
-0.0243618
0.0336857
-0.0228975
-0.0107882
-0.118957
0.124627
-0.100635
0.0158041
-0.0187351
0.153798
0.100643
-0.090506
-0.010137
-0.213019
0.222855
-0.205219
0.153599
0.0113945
0.0417923
-0.0531868
-0.0687236
0.098268
-0.0295443
0.00271767
-0.00450781
0.0345296
-0.0432668
-0.590654
-0.416712
0.310613
0.106099
-0.14637
0.310942
0.34669
-0.0714234
-0.275267
0.117529
0.159593
-0.0562392
-0.0775956
0.133835
0.371715
-0.0775681
-0.294147
-0.000424898
0.100189
-0.0997638
-0.502547
0.443579
-0.168112
-0.299518
0.128865
-0.0160603
-0.00626718
0.10677
-0.0596406
0.0950529
-0.355475
0.0749631
0.0347327
-0.175653
-0.241059
0.0124468
0.0430634
-0.0555102
0.273398
0.227852
-0.18475
0.135983
0.458183
-0.185001
0.0200537
0.0765967
-0.0966504
-0.00137685
0.0660109
-0.102447
0.277686
-0.074369
-0.0586065
0.35941
-0.145234
-0.214175
0.149375
0.00364815
-0.00351205
0.234202
0.102906
-0.337108
0.194747
-0.275432
-0.139334
0.118655
0.171666
0.0149645
0.006045
0.28257
0.116477
-0.177975
0.0614988
0.25088
-0.28239
0.119883
-0.501495
0.137529
-0.0173529
-0.0953463
-0.169323
-0.215418
-0.237262
0.45268
-0.162786
-0.0493165
-0.00334122
-0.00433597
-0.202087
-0.0144769
0.216564
-0.0661211
0.0876447
-0.0311967
-0.00191433
-0.00307464
0.0146682
-0.222602
0.0205148
-0.448512
0.233094
0.0528537
0.125385
-0.178239
0.0100769
0.000516867
-0.0105938