/*--------------------------------*- C++ -*----------------------------------*\
| =========                 |                                                 |
| \\      /  F ield         | OpenFOAM: The Open Source CFD Toolbox           |
|  \\    /   O peration     | Version:  v2012                                 |
|   \\  /    A nd           | Website:  www.openfoam.com                      |
|    \\/     M anipulation  |                                                 |
\*---------------------------------------------------------------------------*/
FoamFile
{
    version     2.0;
    format      ascii;
    class       surfaceScalarField;
    location    "400";
    object      phi_0;
}
// * * * * * * * * * * * * * * * * * * * * * * * * * * * * * * * * * * * * * //

dimensions      [0 3 -1 0 0 0 0];
oriented        oriented;


internalField   nonuniform List<scalar> 
20673
(
-0.17244
0.161888
0.0105522
0.371009
-0.30632
-0.0646896
0.0219119
-0.0478947
0.0259828
0.151828
-0.277423
0.125596
-0.361225
-0.116528
0.477753
-0.0200606
-0.00249109
0.0225517
0.033556
-0.028385
-0.00517099
0.00840414
0.0184889
-0.0268931
0.0128362
-0.0242886
0.0114524
-0.0558827
0.157808
-0.101925
-0.107504
0.106141
0.00136268
0.150197
0.00446535
-0.154662
-0.0982188
-0.00108198
-0.00036066
0.00144264
0.204514
-0.0386181
-0.165896
0.241317
-0.242597
0.00128052
-0.106283
0.300392
-0.194109
0.141311
-0.163571
0.0222604
0.150969
-0.000771784
0.336643
0.263733
-0.600376
-0.373563
0.573245
-0.199682
0.030894
0.00266207
-0.598228
0.333918
0.26431
0.0434796
-0.0350754
-0.307365
-0.060156
0.367521
-0.00448393
0.0312774
-0.0267935
-0.105656
0.0778899
0.0277664
-0.0999574
0.051721
0.0482364
-0.065378
0.0526644
0.0127136
-0.14819
0.110005
0.0381849
0.156488
-0.171202
0.0147134
0.195293
-0.206358
0.0110647
-0.0965249
0.138116
-0.0415911
0.174419
-0.0487669
-0.125652
-0.387494
0.361781
0.0257124
0.0887709
-0.109109
0.020338
-0.36575
-0.232478
-0.00390444
-0.00200037
0.00590481
-0.186905
-0.0550249
-0.0156421
0.000826824
0.0148152
-0.580576
0.590529
-0.00995352
0.68529
-0.386955
-0.298335
0.365528
-0.538635
0.173107
-0.0498459
-0.0181023
0.0679482
-0.170856
-0.156076
0.326932
0.09658
0.0710335
-0.167613
0.147643
-0.00633154
-0.0173526
-0.111933
0.129286
-0.00362105
0.0103035
-0.00668241
-0.680556
0.43674
0.243816
0.0435336
-0.165646
0.122112
-0.282604
0.0325541
0.25005
-0.00675144
0.00313039
0.055598
0.11882
0.167365
-0.273648
0.213427
-0.224339
0.0109126
-0.112957
0.00545295
0.270319
-0.352753
0.0824338
0.0852081
0.161045
-0.246253
-0.333076
0.162221
-0.0171358
-0.0182751
0.0354109
0.164572
0.206437
-0.00108198
-0.165797
0.50244
0.0159149
-0.0359756
-0.0776971
0.0854364
-0.00773935
-0.515675
0.323811
0.263369
-0.361783
-0.105964
0.104382
0.00158187
-0.162063
0.182227
-0.0201643
-0.525257
0.164032
-0.0147935
0.0276297
0.000109636
-0.00408887
0.00397924
0.143504
-0.45087
-0.00761048
-0.00698307
0.0145936
-0.0184844
0.144658
-0.126174
0.00483707
0.00028397
-0.00512104
0.0730043
0.191169
-0.264174
0.033488
-0.0305328
-0.00295515
-0.612019
0.326733
0.285286
-0.325377
0.600583
-0.275206
-0.257163
0.00784013
0.0248147
-0.0326548
0.00534259
-0.00924703
0.00266253
0.00345926
-0.00612179
-0.213177
0.286182
0.367874
0.20488
-0.572755
-0.088269
0.010572
0.212771
-0.169237
0.516648
-0.151119
-0.00150503
0.00210761
-0.000602584
0.122225
-0.00349804
-0.118727
-0.0517302
0.36629
-0.31456
-0.261221
0.052149
0.209072
-0.039134
-0.0491351
0.0249573
-0.0350875
0.0101302
0.0867343
-0.125222
0.0384879
0.129414
-0.0015729
-0.127841
-0.0656364
-0.0364358
0.102072
0.0517128
-0.0640874
0.0123747
-0.455675
0.560103
-0.104428
0.122019
0.00838962
-0.130409
0.0188625
-0.0687084
-0.272625
0.07294
0.199685
-0.484578
0.0894548
0.395124
0.0327105
-0.0246455
-0.00806505
-0.002602
-0.0626493
0.0652513
0.0944586
-0.111811
0.104077
0.196315
0.162378
-0.150829
-0.0115492
0.00256148
0.00662897
-0.00919044
-0.00295692
-0.0126851
-0.111586
0.132024
-0.0204379
0.029824
0.00288656
-0.274539
0.117487
0.157052
0.00704239
-0.00764911
0.000606724
-0.362085
0.500282
-0.138197
0.0109655
-0.0119407
0.000975227
-0.00649811
0.00849171
-0.00199361
-0.0775122
0.165472
-0.0879598
0.498004
0.187287
-0.0972033
-0.00876094
0.00151312
0.0048506
-0.00636372
-0.0563378
-0.0436196
-0.60911
0.123218
0.485891
-0.246102
-0.0151187
0.0998565
0.219348
-0.319204
-0.534916
-0.0741934
-0.493467
0.587838
-0.0943711
0.0224662
0.00755083
-0.0117619
0.00421105
-0.0830143
-0.191525
0.148801
-0.304877
0.208269
-0.581831
-0.129577
0.0652201
0.0643567
0.00746993
0.0360096
-0.0169829
-0.155457
0.0514367
0.000276031
-0.11392
0.437731
0.101153
-0.178665
-0.0948307
0.113609
-0.0187785
0.452311
-0.191834
-0.260476
-0.215566
0.277122
-0.0615567
-0.0715507
0.0244406
0.0471101
-0.0683812
0.33175
0.0419922
0.0052959
-0.0472881
0.0175524
0.0437092
-0.0612616
0.0187325
-0.301336
0.504929
-0.168168
-0.336761
0.224444
-0.214337
-0.0101069
0.155377
0.00413458
-0.159511
-0.000468999
0.00751139
0.021855
-0.116098
0.0942435
-0.0821714
-0.0434189
0.12559
0.219166
-0.214607
-0.00455869
0.00219264
0.00232143
-0.00451408
-0.174633
0.0125702
0.0328592
-0.0908491
0.0579899
-0.00065472
0.00549179
-0.0763843
-0.0531924
-0.147955
0.219113
-0.0711585
-0.085865
-0.00578761
0.0916526
0.24323
0.356821
-0.600051
0.113047
-0.0263123
-0.135009
0.0234231
0.0285798
-0.0942162
-0.203284
-0.0693412
-0.1581
0.154737
0.00336327
0.134398
0.221163
-0.355561
0.0248918
0.0971276
0.150196
-0.142916
-0.00728029
0.0172029
-0.00737748
-0.0098254
0.109438
0.00579133
-0.115229
-0.00652118
0.236029
-0.229508
0.0589571
-0.0461139
-0.0128433
-0.0428122
-0.0702654
0.113078
0.0135527
-0.00600184
0.000363406
0.0106021
0.0567205
-0.0147284
-0.25871
0.402357
-0.143647
0.00544319
0.116782
-0.0134891
0.169977
0.298488
0.153822
-0.0900439
0.457918
0.190186
-0.0922535
-0.0979324
0.0336927
-0.0381767
-0.0323105
0.12858
-0.0962692
-0.000437806
0.00263045
0.152119
-0.151363
-0.000756009
-0.107385
0.0978999
0.00948526
-0.0107314
0.0763135
-0.0655821
6.80701e-05
0.00259446
-0.114563
0.0954939
0.019069
0.624712
-0.278607
-0.346106
-0.0316517
-0.0137082
0.0453598
-0.102275
-0.00338131
0.632442
-0.632442
-0.304807
0.253077
0.00606536
-0.0809707
0.0749054
-0.0885093
0.0885596
-5.02716e-05
0.024566
0.176853
-0.201419
-0.340106
-0.340451
0.164057
-0.00198464
-0.162072
0.154165
0.00121142
-0.0054226
0.00553224
-0.0765747
0.105103
-0.0285278
-0.279917
-0.107577
-0.0913671
0.361686
0.00867738
0.120737
0.016099
0.0301093
-0.0462083
-0.287028
0.0714627
0.0359184
-0.0266588
-0.00925962
0.0072214
0.000333458
-0.00755486
-0.00619015
-0.101195
-0.415022
-0.0695561
-0.0584776
0.0418755
0.0166021
0.149438
-0.00563788
-0.1438
0.0100366
0.00387823
-0.0139148
-0.491838
0.291559
0.200279
0.0398313
-0.0569672
-0.396928
0.138217
-0.000208978
0.115476
-0.115267
-0.128139
-0.452436
-0.00514301
0.000284574
0.00485843
0.0304469
-0.0227868
-0.00766018
0.0632175
0.178099
-0.119785
0.0183173
0.101467
0.0375893
0.181577
-0.456514
0.0414912
0.00437392
0.084397
0.124225
-0.0147878
-0.0100825
0.162201
-0.0553344
0.0203142
0.0350203
0.00846556
-0.00124416
-0.591837
0.489936
0.1019
0.194324
0.000968677
-0.00152646
2.14326e-05
-0.00334369
-0.00247296
0.00581664
-0.303376
0.546606
-0.461357
0.442698
0.0186592
-0.0174071
0.00136802
-0.119138
0.0951822
0.0239557
0.399599
-0.602083
0.202484
-0.076922
0.0919005
-0.0149786
-0.14543
0.142026
0.00340381
-0.103155
0.0172901
-0.167529
-0.0129474
0.180476
0.582402
-0.225581
0.140002
0.00566991
-0.145671
0.00706624
-0.00768059
0.000614348
-0.287967
0.38754
-0.0995735
0.0538822
-0.134153
0.0802707
-0.0380772
-0.00986876
0.0479459
-0.239389
0.339245
-0.281568
-0.0711852
-0.025969
-0.105996
0.131965
0.000585433
0.0135099
-0.0140954
0.105897
-0.084042
0.122583
0.0676028
0.0137098
0.190805
0.241486
0.370707
-0.612193
-0.00299532
0.00450844
0.00442431
0.0390707
-0.043495
0.0552464
-0.0891292
0.0338828
-0.382181
-0.0743324
-0.00190026
-0.00561717
0.00751743
-0.000319564
-6.90292e-05
0.000388593
-0.0424828
0.075342
0.0331188
0.000369238
-0.123398
0.104914
0.257025
0.473172
-0.661852
0.18868
-0.142824
0.0029034
0.139921
-0.00154162
0.00117118
0.000370445
0.117996
-0.134522
0.016526
-0.170969
0.256177
-0.108454
0.0318797
-0.145471
-0.0151346
-0.0929151
-0.454333
0.547248
-0.071963
0.0678987
0.00406424
0.254596
0.281626
-0.536222
0.0549361
0.00402098
-0.209756
0.234322
-0.072316
0.471915
0.0839934
0.112483
-0.196476
0.0490515
-0.131223
0.105912
-0.111699
0.0227619
-0.0996838
-0.00352212
0.131485
-0.127963
0.377697
-0.090933
-0.286764
0.0837404
-0.0965937
0.0128533
-0.0271206
-0.0282138
0.0260537
-0.0216294
-0.227545
-0.264293
0.0803743
-0.0250647
-0.0553096
-0.483716
0.015415
0.468301
0.186287
0.191409
-0.474978
0.112893
0.0615926
-0.0440401
-0.0587773
0.520121
-0.461344
-0.107643
0.107434
-0.180401
0.0128725
-0.265514
0.399912
0.00337032
0.160687
-0.246529
0.0281086
0.21842
-0.00822633
0.00220071
0.00602562
0.0850961
-0.127908
0.125827
-0.129325
-0.276121
-0.108053
0.384175
0.0688532
-0.350421
0.000608192
-0.00909205
0.00848386
0.00531146
-0.0034125
-0.00189896
0.287811
0.212471
-0.392589
0.625972
-0.233383
-0.0626099
-0.00935309
-0.289644
-0.0683783
0.358022
-0.000772486
-0.00331639
0.102914
-0.379035
-0.00536787
0.000224859
-0.332582
0.255367
0.0772151
0.104107
-0.0109528
-0.093154
0.217317
-0.143997
-0.0733209
0.0176073
-0.0119755
-0.00563182
0.0625062
-0.210461
-0.00049402
-0.0758903
-0.0519374
0.0107902
0.0411472
0.182241
-0.0982476
-0.0622477
-0.0568901
-0.00748159
0.071561
-0.0640794
0.0555134
-0.280898
0.225384
-0.00417183
-0.00497978
0.00915161
-0.0522127
0.020561
-0.000595533
0.000275969
-0.188812
0.169861
0.0189511
-0.0112602
0.000296183
0.010964
-0.159795
-0.0580523
0.217847
-0.0013311
0.0040956
-0.00276449
-0.044313
-0.00762441
0.0726559
-0.0941575
0.0215015
0.0946661
-0.0220101
0.0342931
-0.0123812
-0.563497
0.336277
0.22722
0.144382
0.00581428
-0.00559979
0.00816126
-0.17855
0.293795
-0.115245
0.222756
-0.00141646
-0.22134
-0.00121449
0.000853831
-0.0664828
0.0725481
-0.213576
-0.0528084
0.266384
-0.0824169
0.0716855
-0.0372983
-0.0280797
-0.601852
0.324918
0.276934
-0.00784993
0.00135183
-0.111019
0.035025
0.0759938
-0.266894
0.521491
0.508894
-0.35933
-0.149564
0.109963
-0.593679
0.236368
0.268561
-0.0124706
0.096211
-0.0383706
0.0563345
-0.0179639
-0.0380912
0.0219468
0.0161444
0.00801077
-0.00740258
-0.372947
-0.00484692
0.377794
-0.0626178
0.1165
-0.00952957
0.0101688
-0.000639239
0.125468
-0.166277
0.0408092
0.00753339
-0.00329994
0.00175832
0.00580146
0.211702
-0.480376
0.268674
0.0909901
-0.0357437
0.322952
-0.495706
0.172754
-0.0150094
0.0548407
-0.1444
-0.188676
0.0159727
0.00163454
-0.0288715
-0.116559
0.182212
0.0872704
-0.269482
0.460712
-0.572403
0.111691
0.140741
-0.132063
-0.0938286
0.0992718
0.125112
-0.128664
0.00355207
-0.0131707
-0.0378376
0.0510083
-0.00703313
0.00570203
0.0137248
-0.00368818
0.00544111
0.13456
0.0625593
-0.118442
0.0178692
-0.479226
-0.00638711
0.00304342
-0.0198352
-0.00958624
0.0294214
-0.0309708
0.289278
-0.258307
0.0932626
-0.0937566
-0.305822
0.50125
-0.195428
0.0380362
0.0743246
-0.112361
-0.0992915
-0.233291
-0.319129
-0.244369
-0.294525
0.110974
0.183551
-0.0251537
-0.00748376
0.0326375
-0.0774945
-0.217031
-0.0188648
0.0194502
0.00401438
-0.00127939
-0.00273499
0.0801416
-0.0846382
0.00449657
0.0274392
-0.0448165
0.0173773
-0.21451
0.270023
-0.0334707
-0.0250068
0.0382294
0.58895
-0.243887
-0.345063
-0.0690848
-0.296539
0.11799
0.214872
-0.339687
0.124815
-0.0759482
-0.0722414
-0.365247
0.606733
-0.391916
0.461656
-0.0697395
0.389413
-0.0664607
0.0915277
-0.103998
-0.328452
-0.283567
-0.00975488
-0.00150531
-0.00263382
0.0371748
-0.034541
0.00354832
0.0030152
-0.00656352
-0.0817951
-0.0327678
-0.0060708
-0.012517
0.0185878
0.00945392
0.0021417
-0.0115956
0.166379
-0.0409109
-0.47328
0.100333
0.11086
0.0142937
-0.125154
-0.267262
0.0803564
0.207428
-0.194928
-0.0124995
0.226613
0.3981
0.0183499
0.0351179
-0.0190189
-0.0503034
0.0476695
-0.189182
0.20873
-0.0195473
0.109928
0.0265818
-0.13651
-0.165345
-0.0234671
-0.2604
0.205375
0.00560174
0.119511
0.195407
-0.242486
0.0470796
-0.0803353
0.0853211
-0.00498581
-0.174433
0.278511
-0.438232
0.379454
-0.00215435
0.00138187
0.0105607
0.00299197
0.0147596
-0.00419893
0.0435926
0.0911429
-0.134736
0.00614352
-0.0025952
0.00868475
-0.0128566
-0.000604235
-0.00445955
0.00506379
0.00397667
-0.000778264
-0.00319841
0.147885
0.366271
-0.514156
-0.132234
0.00203519
0.130199
0.225717
-0.0303097
0.346902
-0.263345
-0.0835566
-0.113282
0.0310405
0.082241
0.00481812
0.485285
-0.539217
0.0539328
0.0127941
-0.138438
0.125644
-0.00511169
-0.149748
0.15486
0.002843
-0.00198314
-0.000859863
0.344541
0.244409
0.12177
-0.00860821
-0.113162
0.00133277
0.000824752
-0.00215752
0.102917
-0.0181018
-0.0848149
0.000992388
-0.0104164
0.00942404
0.244793
-0.252078
0.221107
0.521865
0.110576
-0.149568
-0.0250652
0.509403
-0.297701
-0.0309957
-0.0100745
0.0410702
-0.0321869
-0.0059043
-0.154843
0.151321
0.00293474
-0.00547746
0.00254272
0.0231952
0.190231
0.0987306
0.0143159
0.00181962
-0.00242386
-0.00876729
0.0524765
-0.01238
0.0925216
-0.00339283
-0.0914378
0.105414
0.0163557
0.12268
-0.148504
0.0258247
0.0867994
0.0322599
-0.119059
-0.171993
0.178233
-0.00624
0.0916831
-0.109002
0.0173187
0.0237551
-0.138636
-0.0139979
0.152634
0.105547
0.00368605
-0.109233
-0.531087
0.544776
-0.0136891
0.107778
-0.0295216
-0.0782568
0.21598
-0.015328
-0.200652
-0.431834
0.304701
0.127134
-0.160991
0.0114229
-0.265146
0.185063
0.0800829
-0.000540065
0.00338307
0.0110709
0.0187531
0.0906874
-0.380331
-0.517331
0.424416
-0.0336254
-0.00983154
0.043457
0.0121199
-0.00266594
0.593916
-0.223208
-0.00815531
0.0091477
-0.313979
0.233029
0.0809499
0.126217
-0.0970884
-0.0291286
0.00684289
0.32485
-0.331693
0.00802206
-0.00516732
-0.00285474
0.0642792
-0.0964946
0.0322154
0.0440449
0.180399
0.305711
-0.190663
-0.115047
0.0181838
-0.0242546
-0.116976
0.0846652
-0.0127721
0.012702
7.00674e-05
0.241236
-0.606484
-5.0929e-05
-0.00730929
0.00736022
-0.00786293
0.0780363
-0.0130385
-0.0649978
-0.35433
-0.0775047
-0.00396124
0.00742049
0.02253
-0.0116793
-0.0108507
-0.130114
0.167197
-0.0370832
0.126536
0.382359
-0.217187
0.265773
-0.0485859
-0.14007
-0.0632965
0.101333
-0.0438045
0.529089
-0.518733
0.159403
0.650314
-0.43919
-0.211124
0.408142
0.242172
0.00521329
-0.00711355
-0.0472322
-0.0660493
0.0362647
-0.103126
0.117176
-0.0140497
0.57294
-0.0997681
-0.0480507
-0.407624
-0.0102444
0.120172
-0.0119995
0.00491125
0.00708828
0.150721
-0.168514
0.0177929
-0.115298
0.336461
0.452072
-0.2372
-0.286928
-0.0906888
0.377617
0.0154264
0.000849883
-0.000781813
0.396567
0.165833
-0.5624
-0.265751
-0.142674
0.408426
0.0106548
-0.0228373
-0.149156
0.106152
0.111165
0.0423538
-0.294432
-0.14964
0.262119
-0.112479
0.183805
-0.220664
0.0368591
-0.00435184
0.109899
0.0641458
-0.0716274
0.0254534
0.100452
0.0104074
-0.150004
0.0606249
0.0893787
0.0189291
0.0861734
0.0079534
0.117873
0.453225
-0.292692
-0.160533
0.00719639
-0.000130149
-0.452751
0.250337
-0.0275808
0.252776
0.00578916
-0.258565
0.0772158
0.0305626
0.0829455
0.0200036
-0.102949
-0.0143821
0.399884
-0.385502
-0.000759972
0.103677
0.111048
-0.14027
0.0292213
0.00241738
0.00168896
-0.00410634
-0.0819405
-0.068063
0.00433834
0.0934671
-0.0978055
0.142295
-0.147406
0.322979
0.137733
0.0401153
-0.0140616
0.103347
-0.0228204
0.0176377
0.00518274
0.170867
-0.3453
-0.157568
0.186935
-0.0293665
0.112
0.00517598
-0.00250816
-0.000791783
0.0120859
-0.0120859
0.118918
-0.120491
-0.0661667
0.109759
-0.0374784
-0.205119
0.199058
-0.228179
0.0291214
-0.212374
0.254728
-0.0753063
-0.0148525
0.0901588
-0.0526882
0.027031
0.147559
0.00187926
0.0133596
-0.0151476
-0.00767279
-0.00318876
-0.00958334
0.0199215
-0.218393
0.198472
-0.0097631
0.108494
0.0933694
-0.0290902
0.0863049
0.0920376
-0.178343
-0.291425
0.0887879
0.202637
-0.0304337
0.00291853
0.0275152
0.0516143
-0.0333753
-0.0182389
-0.0467309
0.0359826
0.0107483
-0.0385699
-0.0695848
0.108155
-0.539788
0.0463211
-0.00593037
-0.00191957
0.00458793
-0.467547
0.453165
0.186631
-0.183571
-0.00306004
-0.00693791
-0.113159
0.120097
-0.125136
0.0286113
-0.0151635
0.125168
0.0354595
-0.0101819
-0.0252776
0.111997
-0.0251975
-0.0205628
0.192705
-0.172143
0.0201022
0.0200131
0.265718
-0.198315
-0.0674035
0.00394209
3.4584e-05
0.271539
-0.574915
-0.0121829
0.40875
0.0658804
0.0144939
0.0386208
0.0129934
0.0322877
-0.00742215
-0.0248655
0.0975831
0.168135
0.258148
-0.264669
-0.448275
0.182524
0.00464837
-0.150119
0.00269298
0.114985
-0.0864053
0.221477
-0.0224195
0.100499
-0.112879
0.135103
-0.262943
0.269786
-0.0518334
-0.0679512
0.116243
-0.00125782
-0.0809434
0.0723105
0.0086329
-0.0482122
0.360138
-0.311926
-0.0845625
-0.0252281
0.109791
-0.0739768
0.000434877
0.00357951
0.0325381
0.125269
0.109544
-0.0265983
-0.189716
0.0321478
-0.259198
0.537254
-0.278055
0.292162
0.0862349
-0.378397
-0.0917803
0.311128
-0.0888793
-0.00982706
0.0987064
0.154818
-0.0582377
-0.055728
0.104911
-0.0491828
-0.0382169
0.0250462
-0.141035
-0.0170654
-0.222391
-0.379461
0.0285282
-0.0909524
0.0624242
0.022548
0.00973964
-0.104098
0.0855265
0.0185718
0.0582909
-0.346258
-0.179983
0.148249
0.0317339
-0.121236
-0.397497
-0.160602
-0.0420605
0.202662
-0.0532819
0.214327
0.0051392
0.0173908
-0.287483
0.614216
-0.070192
0.189322
-0.00267291
-0.186649
0.0836785
0.0224625
0.149067
-0.0607466
-0.0883206
0.00489466
0.000137515
-0.00503217
-0.0213869
-0.0908347
0.112222
0.0489833
-0.26617
0.00180515
-0.000648984
-0.00115617
0.00974621
0.00233968
0.354597
-0.265279
-0.0893175
0.222139
0.0306369
0.10701
-0.0780466
-0.0289638
0.0856854
-0.124255
0.118815
-0.000818733
-0.347951
-0.242502
0.590453
0.0342291
0.271481
-0.104303
0.0933505
0.243834
-0.0616221
-0.113371
-0.0152931
-0.151005
0.125036
0.388601
-0.0964389
-0.14569
0.151077
-0.00538621
-0.0275805
0.401229
-0.176458
-0.224772
-0.266953
-0.031509
0.298462
0.672882
-0.393297
-0.279585
0.003442
0.00186946
-0.413778
0.622047
-0.202032
0.0128498
0.00396987
0.013233
0.00983599
0.201497
-0.211333
0.0467088
-0.00808796
-0.0277352
-0.186872
0.0662294
0.0718866
0.233692
0.122145
-0.0044856
-0.117659
-0.0993088
-0.375669
0.139303
-0.00519554
-0.134107
0.325304
-0.586183
0.260879
0.111691
-0.102185
-0.00950564
-0.219812
-0.0941669
-0.0187705
0.0201032
0.0496781
-0.0433427
-0.00633538
-0.00293657
-0.00906296
-0.560269
-0.0721728
-0.236127
0.129864
-0.12191
-0.147835
0.163761
-0.015926
0.00101306
-0.00279724
0.00178418
0.0169693
-0.0165508
-0.000418518
-0.135238
-0.0283333
-0.33186
-0.0138063
0.345666
0.10718
-0.015652
-0.0265409
0.0191187
-0.0843175
0.00337413
0.057932
-0.11366
0.143029
0.000212882
-0.143242
-0.0280808
-0.0059094
0.0339902
-0.165466
0.152162
0.0133038
0.160989
-0.176124
0.00224091
0.093889
-0.0961299
-0.0775116
-0.00345912
-0.149618
0.0143802
-0.00189759
0.0195255
-0.0176279
0.147704
-0.153742
0.00603778
-0.281267
0.0808111
0.200456
0.0993818
-0.10632
0.0712021
0.111039
-0.405975
0.318294
0.0876812
-0.18601
0.0254082
0.015277
0.147101
-0.169859
-0.0444782
-0.381613
-0.0415979
0.423211
0.180351
0.148987
-0.014545
-0.134442
-0.0633822
0.243277
-0.179895
-0.139341
0.0259694
0.0102724
-0.342133
-0.225905
0.462742
-0.236837
0.135172
-0.54895
0.21552
-0.158417
-0.0571032
0.223644
0.223987
-0.447631
0.0263017
0.186597
-0.212899
0.625875
-0.283346
-0.342529
0.00662976
0.0013923
-0.147619
0.146617
0.00100266
0.0390826
-0.0378797
0.237373
-0.516921
0.279548
-0.354367
-0.205282
0.559648
-0.0349808
0.0860049
-0.0510241
0.15262
-0.0299403
0.250273
-0.194383
-0.0558899
0.0407858
0.0159765
-0.0567623
0.136893
-0.040007
-0.0968863
-0.0740452
0.0590359
0.00331178
0.0979099
-0.125526
0.0276159
-0.089325
0.261292
-0.171967
-0.633921
0.0244561
0.609465
0.598677
-0.190535
-0.25676
0.0102312
0.0154009
-0.0157469
0.000346009
-0.603351
0.248984
-0.0924433
0.0191198
0.0733235
-0.128302
0.154603
-0.00161741
-0.00791216
0.110488
-0.137174
0.0266863
0.112805
0.0240887
-0.0126957
0.0963742
-0.441049
0.102875
0.338174
0.280805
0.31621
0.00334914
-0.429763
0.275108
0.154655
-0.299506
0.0803602
0.219146
-0.0474129
-0.0207121
0.0681251
0.251788
-0.015759
0.0981225
0.448488
-0.546611
-0.00814731
0.178121
-0.169974
-0.0589683
-0.417633
0.476601
0.324807
-0.474944
0.150137
-0.162313
0.0136374
-0.000342954
0.00135601
0.166535
-0.17798
0.0114446
0.251561
0.149668
0.464743
0.125786
0.00320638
-0.00571454
0.00578673
0.33225
-0.102467
-0.229783
-0.108775
0.279642
0.0629486
-0.0221627
-0.0855331
0.102768
-0.0172347
-0.0121722
-0.00174483
0.013917
-0.112445
0.116783
-0.0501518
-0.231116
-0.235286
-0.356551
0.506199
-0.181392
0.0091966
-0.147832
-0.0138657
0.0215297
-0.0908813
0.0693516
0.0497718
0.120089
-0.00886507
0.00388529
-0.286984
0.0880519
0.198932
0.0337035
-0.215831
0.182127
0.0110365
-0.0137333
0.00269679
0.144419
-0.450241
0.00230678
0.213673
0.273768
-0.357811
0.0840431
0.335938
0.259911
-0.595849
0.0051502
-0.155979
0.0870752
0.0188366
0.20532
-0.277385
0.0720645
0.0425227
0.00418608
0.00126203
0.0130171
-0.0142791
0.0303403
0.225679
-0.311132
-0.119233
0.430365
-0.0912967
-0.0119515
0.103248
-0.0735142
-0.32541
0.566646
-0.0848362
0.103303
-0.0184664
-0.438232
0.127101
-0.155925
-0.280494
0.365691
-0.0851971
0.439125
-0.154915
-0.284209
-0.110529
-0.242304
-0.102861
0.345165
0.0283723
-0.088617
0.145682
0.0407676
-0.186449
0.393175
-0.58643
0.193256
0.374868
-0.505506
0.130638
-0.0167707
-0.26679
0.283561
0.0306705
-0.320825
0.290154
-0.340183
0.0732298
-0.032059
0.0445522
-0.0124933
0.29006
0.0514265
-0.341487
-0.11024
0.401698
-0.291458
0.0210326
-0.00763469
-0.0133979
-0.0255033
0.0307992
-0.152483
0.13192
-0.161324
0.000274145
-0.12158
0.121306
-0.0516201
-0.16659
0.21821
0.47295
-0.163596
-0.309355
0.125158
-0.0541247
-0.00547353
0.114262
-0.00257098
0.273183
-0.482254
0.209072
-0.303193
0.112529
-0.00327666
0.020246
-0.0516832
-0.0834211
0.135104
-0.00116506
0.00564533
-0.00448027
0.528347
0.167259
0.000629821
-0.00404232
-0.183377
0.156088
0.0272881
-0.277983
0.0648059
0.015445
-0.0148444
-0.000600546
-0.0187876
0.0101739
0.00861372
0.354059
-0.323388
0.103688
-0.101447
0.491793
0.106884
-0.339761
0.0974567
0.429452
-0.192079
9.76538e-05
-0.00571482
0.473014
-0.249369
-0.329399
0.281116
-0.0494998
-0.274232
0.0742719
0.19996
0.0329141
0.0933029
-0.0920546
0.0460694
0.305248
0.074355
-0.379603
0.0977957
-0.123846
0.0260507
0.372276
0.166925
-0.539201
0.00684572
0.505228
-0.482423
-0.0228055
0.348351
0.360566
0.219436
-0.580002
0.00660322
0.458688
0.0274344
-0.0120815
0.0157962
-0.00371469
0.0161295
-0.0517944
0.0356649
0.00109117
-0.181074
-0.0428666
-0.0681522
-0.0119203
0.0136267
-0.00170633
-0.280512
0.349365
0.000397297
-0.00632766
-0.0258662
0.00759109
-0.0134618
0.00154143
-0.000368425
0.0154712
-0.0151028
0.00606988
0.0149627
-0.0162382
0.0186556
-0.0718644
0.100393
0.178967
0.0868064
0.0049267
-0.154675
-0.0287013
0.00655361
-0.0263888
-0.413157
0.0588273
0.0912963
0.274994
0.276658
0.0555922
0.538109
0.164051
-0.23119
0.0671384
0.120176
-0.146815
0.0266383
-0.00386928
0.00450589
-0.000636611
0.372535
-0.281239
0.425331
-0.186273
-0.239058
-0.00244978
0.010581
-0.00813118
0.00871218
-0.0779228
0.0692106
-0.26966
0.252889
0.0228923
0.0230834
-0.176679
0.153595
-0.0732457
-0.206168
0.279414
0.0249371
0.024741
0.0887365
-0.0658443
0.161209
-0.212103
0.0508939
-0.166756
-0.107476
0.0127875
-0.0115255
0.0122151
-0.0011786
0.00327161
-0.0152123
-0.364113
0.0836194
-0.087932
-0.0290438
-0.00912887
0.120177
-0.00752845
-0.00409737
0.0116258
-0.0260634
-0.121508
0.12375
-0.00224194
0.256472
0.170022
-0.259347
-0.076919
-0.210065
-0.509433
-0.114533
0.0658806
0.512662
-0.364777
0.169749
0.0140554
-0.0629497
-0.102516
-0.00475159
0.0024736
0.00227799
-0.132979
0.0352896
0.0976898
-0.0953421
-0.234057
0.124492
-0.00322913
0.00446555
-0.00123642
0.167038
0.327442
-0.244942
-0.0824997
-0.00343292
-0.000877642
0.00431056
-0.361827
0.0963129
-0.305346
0.00583985
0.0736897
-0.10862
0.0349305
0.00224817
0.000686563
0.482459
0.29909
-0.347302
-0.0231389
0.0327075
-0.00956862
-0.10267
0.0598032
-0.028554
0.0940688
-0.0655148
-0.138322
0.0372209
0.101101
-0.0448759
-0.0642331
-0.487541
0.173578
0.313964
-0.102041
0.100616
0.00142481
0.172401
0.155041
0.0127576
0.356976
-0.369733
-0.0806865
-0.210739
-0.045056
0.0140603
0.00112814
-0.0133003
-0.369988
0.0900527
0.279935
0.50118
-0.126313
-0.0739166
0.347684
0.0214773
0.0672993
-0.182735
-0.00507333
0.187808
-0.232988
-0.196775
-0.303091
0.0895153
-0.00158881
0.365024
-0.0597759
-0.00920172
-0.0761987
-0.0138104
0.0900091
-0.0112693
-0.00487173
0.016141
-0.327658
0.0882697
0.117819
-0.0256132
-0.0922059
0.183792
-0.16387
-0.00627263
0.00110531
-0.00416091
0.000931779
0.0100714
-0.00344241
-0.121641
0.121915
-0.00505425
-0.0137334
0.463903
0.00538817
-0.0305419
-0.466496
0.479678
-0.0730829
-0.151256
0.172803
-0.156925
-0.0158777
-0.0776972
-0.0424931
0.00886768
0.0463067
0.029951
-0.0762576
0.091815
0.016497
-0.108312
-0.014201
0.0432512
-0.0290502
-0.286182
-0.273897
0.560078
-0.0587891
0.101521
-0.0427316
0.106457
0.332667
-0.0851665
0.156369
0.0289042
-0.0208218
-0.00808239
0.229789
0.117113
0.1748
-0.641296
0.218388
-0.267616
0.0492275
0.101264
-0.25599
0.154726
-0.00322266
-0.00152893
0.468545
-0.103087
-0.365458
0.51323
-0.179312
0.00847495
-0.0206786
0.13184
-0.111161
0.147989
-0.147141
-0.000848066
-0.026231
-0.000309909
-0.100536
-0.00780368
0.108339
0.0147568
0.000427823
-0.0151846
-0.00166474
-0.132557
0.113777
-0.16546
-0.000982569
0.00102689
-0.17532
0.00464238
0.0537928
-0.0584352
0.00198315
0.0292942
0.205464
-0.00647122
-0.198993
-0.307671
-0.0583478
0.366019
0.00213692
0.0196302
-0.0217671
-0.0380108
-0.246778
0.265511
-0.146477
0.0374129
0.109064
0.156363
-0.00564227
-0.345813
0.118032
0.227781
-0.0282475
0.192299
-0.143919
0.245183
0.15582
0.286104
0.310911
0.137561
0.00546778
-0.0262711
0.0507117
-0.369171
0.139463
-0.1304
-0.0090628
0.110407
0.209018
-0.319425
0.104343
-0.0979313
-0.00641172
-0.252603
0.577907
0.156751
0.00168104
-0.133915
-0.232296
0.168913
0.321193
-0.082394
-0.238799
-0.297069
-0.0729185
0.0388352
-0.0375054
-0.00132977
-0.0919502
-0.0293918
0.121342
-0.0223572
0.0499251
-0.0275679
0.264096
0.19756
-0.324462
0.267781
0.0566809
0.00795196
-0.270983
-0.0868283
0.0187049
0.116847
-0.135552
-0.127066
0.035116
-0.23547
-0.110343
0.0274452
0.114581
-0.258632
0.369039
-0.0181276
0.0503122
-0.0321846
-0.290886
0.0441073
-5.82605e-06
0.192711
-0.000277055
-0.000937435
-0.0765344
0.101693
-0.0251588
-0.09403
0.401107
-0.307077
-0.223293
0.192765
0.0305279
0.00193503
-0.0140166
0.354981
-0.342223
0.474794
-0.118945
-0.355849
-0.0113396
0.00381118
-0.00412411
0.00422177
0.031209
-0.196554
-0.00951472
-0.0865722
0.0960869
0.544371
-0.280638
0.23026
-0.0113633
0.239011
-0.210902
-0.354099
-0.0869505
-0.0938572
0.0230307
0.0708265
0.307246
-0.288056
-0.0191895
0.0231474
0.0670635
-0.0902109
0.198719
0.401864
-0.4472
0.0931008
-0.297201
0.194733
0.00604752
-0.106583
0.0115995
0.00249512
-0.0140946
-0.220516
-0.076023
0.00152973
-0.237175
0.235646
-0.349226
-0.138315
0.198301
-0.184591
0.481977
-0.146039
0.0206505
0.137451
-0.124657
-0.584735
0.259325
0.0155352
0.0407993
0.115929
-0.0957492
0.0369601
0.0126515
-0.00396673
-0.0214184
-0.00901526
0.396156
-0.306103
-0.301961
0.0570184
-0.257848
0.338714
-0.0808658
-0.00859724
-0.178729
0.140111
0.00127385
0.0116519
-0.0129257
-0.00456245
-0.00945946
0.0140219
0.230893
-0.168387
0.00576532
0.0082972
-0.0152803
-0.143779
0.146315
-0.00253574
-0.0971188
0.0876041
-0.114185
0.0927986
-0.0014163
-0.0123839
0.11052
-0.00617742
0.0354109
0.0552981
-0.090709
0.00952067
-0.00417808
0.135064
0.00342975
-0.138493
0.171251
-0.00118905
-0.0246464
0.0763675
-0.399641
-0.0135165
0.21544
-0.1425
0.0369801
-0.0323377
-0.126781
0.144853
-0.0180726
0.373801
-0.283114
0.123727
-0.00158212
-0.100369
0.119074
-0.00329514
0.000981508
-0.00107847
9.69592e-05
0.214964
-0.00151844
-0.213445
-0.0517628
0.0375618
0.0287237
0.131183
-0.159907
-0.0182082
0.0871996
-0.0689913
-0.0521128
-0.0521397
0.104252
0.122665
-0.0897505
-0.159965
0.183049
-0.368872
0.20534
0.0421123
0.307091
-0.431304
0.124213
-0.0461302
0.207339
-0.504304
-0.0267832
0.184624
-0.370507
0.11334
0.257167
0.00594609
0.109822
-0.115768
-0.0161334
0.107816
0.0116726
0.0056021
-0.0172747
0.0781604
0.0309566
-0.109117
-0.0321432
-0.0599114
-0.0404341
-0.00986926
0.0728579
0.261066
-0.364471
0.103405
0.00627316
0.00802829
-0.0412811
0.0332528
0.325173
-0.392625
0.0674523
0.353558
-0.152223
-0.0110573
0.16328
0.00250805
0.0128928
0.338054
-0.59383
0.255776
0.130421
-0.0069371
-0.123484
0.0742699
-0.0026986
-0.0715713
0.121835
-0.152826
0.0309913
0.373829
-0.267882
-0.105947
-0.28781
0.230686
0.0571235
-0.180288
0.323643
-0.143355
-0.0811425
-0.0653349
-0.146919
0.1035
0.232578
0.00559177
-0.0243622
0.0336919
-0.0229027
-0.0107892
-0.118958
0.124628
-0.100638
0.0158021
-0.0187336
0.153797
0.100644
-0.0905078
-0.0101362
-0.213019
0.222855
-0.205219
0.153599
0.011397
0.0417976
-0.0531946
-0.0687245
0.0982694
-0.0295449
0.00271784
-0.00450756
0.0345297
-0.0432667
-0.590654
-0.416712
0.310613
0.106099
-0.146371
0.310942
0.34669
-0.0714239
-0.275266
0.117528
0.159594
-0.0562395
-0.077596
0.133835
0.371715
-0.0775686
-0.294147
-0.000428361
0.100189
-0.0997608
-0.502548
0.443579
-0.168113
-0.299518
0.128865
-0.0160605
-0.0062696
0.106769
-0.0596416
0.0950525
-0.355475
0.0749638
0.0347327
-0.175653
-0.241059
0.0124512
0.0430682
-0.0555194
0.273398
0.227852
-0.18475
0.135983
0.458184
-0.185001
0.0200597
0.0765933
-0.096653
-0.00137797
0.066009
-0.102445
0.277686
-0.074369
-0.0586105
0.35941
-0.145235
-0.214175
0.149376
0.00365014
-0.00351262
0.234202
0.102906
-0.337108
0.194746
-0.275433
-0.139334
0.118655
0.171666
0.0149646
0.00604868
0.28257
0.116477
-0.177976
0.0614991
0.25088
-0.282389
0.119882
-0.501496
0.13753
-0.0173534
-0.0953465
-0.169323
-0.215418
-0.237262
0.45268
-0.162786
-0.049317
-0.00334243
-0.00433816
-0.202088
-0.0144769
0.216565
-0.0661169
0.0876466
-0.0311957
-0.00191438
-0.00307602
0.0146755
-0.222603
0.0205148
-0.448512