/*--------------------------------*- C++ -*----------------------------------*\
| =========                 |                                                 |
| \\      /  F ield         | OpenFOAM: The Open Source CFD Toolbox           |
|  \\    /   O peration     | Version:  v2012                                 |
|   \\  /    A nd           | Website:  www.openfoam.com                      |
|    \\/     M anipulation  |                                                 |
\*---------------------------------------------------------------------------*/
FoamFile
{
    version     2.0;
    format      ascii;
    class       volVectorField;
    location    "400";
    object      U;
}
// * * * * * * * * * * * * * * * * * * * * * * * * * * * * * * * * * * * * * //

dimensions      [0 1 -1 0 0 0 0];


internalField   nonuniform List<vector> 
13917
(
(1.09659 0.122345 -2.46383e-20)
(1.02076 0.0420659 2.61954e-22)
(0.57078 -0.0697808 -4.57843e-20)
(1.05674 -0.0102739 -1.76068e-21)
(0.996237 0.00328433 -1.10884e-20)
(0.35875 0.0543462 0)
(0.500505 -0.0609287 0)
(0.574305 -0.0673733 0)
(0.39339 -0.0575788 -1.57546e-20)
(1.14021 0.151467 3.57095e-20)
(1.11898 -0.0624548 -1.97688e-21)
(1.09434 -0.0439122 0)
(1.05725 -0.0110263 0)
(-0.0170166 -0.00455325 -1.76805e-20)
(0.971859 0.0945917 -9.08325e-21)
(0.995132 0.0892745 4.68851e-21)
(1.01512 0.0472668 1.13492e-21)
(1.14148 0.0211753 0)
(1.09322 -0.0434141 1.29215e-21)
(1.00151 0.00480042 3.20135e-21)
(0.999976 0.00101504 0)
(0.479105 -0.059505 0)
(1.00095 0.00791622 5.4449e-21)
(0.632614 -0.0720644 -1.67573e-20)
(0.994923 0.0150436 1.12186e-21)
(0.512549 -0.0585832 2.02697e-20)
(0.782929 0.0340519 0)
(0.757343 0.121845 -3.23951e-20)
(0.732541 0.571352 0)
(1.19486 0.0916641 0)
(1.11112 0.112328 2.63459e-20)
(1.06057 0.0900093 7.75265e-21)
(0.837138 0.0689535 0)
(0.910339 0.000826838 1.89152e-20)
(0.991376 0.0120214 -1.33188e-21)
(1.12742 -0.0801284 1.47013e-20)
(1.00087 0.00746965 3.64182e-22)
(0.108147 -0.0279853 0)
(1.06391 -0.0155969 -5.1068e-21)
(0.28163 -0.00883907 9.4531e-22)
(1.00857 0.000789457 0)
(0.999988 0.000436669 -6.54746e-22)
(1.02087 0.00258253 -3.64423e-21)
(0.702895 0.204537 0)
(1.03919 0.024949 -6.55074e-21)
(0.891684 0.0146296 0)
(1.13901 0.0193832 0)
(1.14291 -0.0115714 0)
(0.104196 0.136848 1.50163e-19)
(1.00348 0.000793961 -1.0552e-21)
(1.08654 0.0157046 0)
(0.965268 0.00961643 -4.56531e-21)
(0.0751955 0.115644 -2.75342e-19)
(0.905699 0.00208668 2.17002e-20)
(1.01393 0.0482535 0)
(1.08603 0.0394758 -1.04524e-20)
(1.11992 -0.0616251 -1.93749e-20)
(0.995461 0.0297461 9.50263e-21)
(1.07185 0.0456357 6.08167e-21)
(1.03774 0.0244872 2.29069e-22)
(0.537115 0.047394 0)
(1.02229 0.0421484 2.9605e-22)
(-0.0302681 0.000366798 1.91582e-20)
(1.00161 0.00519752 0)
(0.385663 0.0666136 0)
(1.03462 0.347709 -2.58292e-20)
(0.995436 -0.000562204 -1.23468e-20)
(0.988039 -0.00151929 -1.80118e-20)
(1.15775 -0.0471005 -4.13249e-20)
(1.0635 0.13665 -6.43158e-21)
(0.996629 0.00343112 1.02004e-20)
(0.451236 -0.0646785 7.75771e-21)
(-0.089906 -0.017882 -4.88134e-20)
(0.995509 0.0146617 -3.22707e-21)
(0.105749 0.210551 -1.25848e-19)
(1.08667 -0.0498683 -1.5917e-20)
(-0.0969794 -0.0112858 1.24436e-20)
(1.05451 0.027597 0)
(0.524692 -0.053229 0)
(0.999899 0.00207651 -6.05565e-21)
(1.00008 0.0031667 -5.29092e-21)
(0.995991 -0.000446603 0)
(0.404778 0.129853 0)
(0.134679 -0.0321612 0)
(-0.0961023 0.0148295 -6.99144e-20)
(1.05343 0.0264031 -5.99039e-21)
(1.00036 0.00409851 4.92823e-21)
(1.18142 0.423986 0)
(1.08467 0.0156097 1.92097e-20)
(1.02133 0.00259668 0)
(-0.0165134 -0.0243834 0)
(1.17653 0.131243 -6.88509e-20)
(1.02326 0.0237321 0)
(0.97369 0.05354 -4.99561e-22)
(1.13264 0.418377 6.44072e-20)
(0.386037 -0.00675008 -5.72753e-20)
(1.13463 -0.0476983 -1.59832e-20)
(1.143 -0.00201039 -2.47781e-20)
(1.09072 -0.0598518 -2.08461e-20)
(0.608453 0.129871 1.05705e-19)
(1.01133 0.00586511 1.84361e-21)
(0.844589 0.000500664 -4.15683e-20)
(0.692643 0.189379 4.59976e-20)
(1.06205 0.0209421 0)
(1.01655 0.012407 8.04207e-22)
(0.462556 -0.0592081 9.13595e-22)
(0.813 0.509981 -2.71841e-20)
(1.14542 -0.0126906 5.71038e-20)
(1.01698 0.0477882 0)
(1.11132 0.127111 1.95302e-21)
(-0.166946 -0.0130238 6.06012e-20)
(0.289335 -0.00973741 2.98076e-21)
(1.09539 -0.0505032 0)
(0.426131 -0.058903 6.03848e-20)
(0.948045 0.00837339 8.64178e-21)
(0.0827553 -0.114879 -7.55855e-20)
(1.00082 0.0139074 -9.84985e-21)
(0.200443 0.0954553 -2.73124e-20)
(0.158264 -0.0122488 -4.74431e-21)
(0.907067 0.0146779 -5.41798e-20)
(0.999984 0.000854704 -4.76657e-21)
(1.15821 -0.0454881 6.82231e-20)
(0.122998 -0.0137136 0)
(0.766197 0.115075 2.48086e-20)
(1.00518 0.000698515 3.78633e-22)
(0.975112 0.0509445 0)
(1.03457 0.0284354 -8.29278e-21)
(1.00481 0.000567255 -6.35937e-22)
(1.01811 0.00178436 -1.61713e-21)
(0.361515 0.00753286 0)
(0.22168 -0.028889 -9.64561e-21)
(0.950493 0.00745741 6.80264e-21)
(1.03955 0.0259526 -6.11106e-21)
(0.999979 0.000802216 0)
(1.26458 -0.00352167 -4.38619e-20)
(0.649145 -0.0757476 0)
(1.09401 0.126918 2.10335e-20)
(0.584611 0.130973 3.59131e-20)
(0.995118 -0.000170888 1.38736e-20)
(0.90801 0.0104227 2.98521e-20)
(1.11863 -0.0766835 -3.16942e-20)
(1.02486 0.0133685 0)
(0.962133 0.0217624 0)
(0.654846 0.20125 0)
(0.987394 -0.00119328 8.25538e-21)
(0.663161 -0.0672767 -3.60086e-22)
(0.803138 0.577202 4.89178e-21)
(0.967199 0.0100646 0)
(1.0235 0.0112692 -3.48164e-21)
(1.05549 0.0991717 -1.1739e-20)
(1.11894 -0.0216171 0)
(0.0924447 -0.148589 2.52453e-19)
(1.11457 -0.0453737 1.93538e-20)
(1.02618 0.180436 -6.02272e-23)
(1.07728 0.0642515 0)
(-0.0576795 0.0502482 1.60178e-19)
(1.0587 0.133915 0)
(1.12741 -0.0800758 5.53402e-20)
(-0.118773 -0.00887906 2.6524e-20)
(1.25946 -0.00208689 -6.47677e-21)
(0.939734 0.0440128 -9.99841e-21)
(0.78344 -0.0264103 -4.07972e-20)
(1.00003 0.00218289 5.10788e-21)
(1.13258 -0.0469877 -1.46398e-20)
(1.09616 -0.0498231 6.90906e-21)
(1.09183 -0.0594777 2.19182e-20)
(1.06114 0.0218145 0)
(1.13007 -0.014079 3.61199e-20)
(1.03244 0.0213605 0)
(0.837675 -0.00377358 2.76475e-20)
(1.04573 0.173307 0)
(-0.292429 -0.000316567 4.42435e-20)
(1.09295 -0.0528474 0)
(1.01273 0.0564314 1.60665e-21)
(0.811726 -0.0739211 9.76581e-21)
(1.01555 0.20123 -2.71931e-21)
(0.243373 -0.0331093 8.09004e-21)
(0.163344 0.097208 -9.15948e-20)
(0.720771 -0.0698267 0)
(1.01259 0.0270398 0)
(1.18189 0.126072 0)
(1.1165 0.110872 0)
(1.02537 0.0129263 2.36198e-21)
(1.00036 0.00446843 -4.11715e-21)
(0.936119 0.113839 1.63465e-20)
(0.566758 -0.0622694 -4.86914e-24)
(1.26064 0.135645 -1.30713e-19)
(-0.00409524 0.0506552 -1.12806e-19)
(1.11689 0.0427846 -1.2772e-20)
(1.09935 -0.0586006 3.17865e-20)
(1.1411 -0.0769092 -2.50414e-20)
(-0.0461664 0.0188345 -7.07187e-20)
(1.25208 0.175886 -7.84536e-20)
(0.999725 0.00777932 -6.46553e-21)
(0.563379 0.0640634 0)
(0.793549 0.0358363 8.80434e-20)
(1.00736 0.000292897 0)
(1.02346 0.0247468 0)
(0.873971 0.444099 5.95576e-21)
(1.21194 0.47523 0)
(1.07758 -0.00177102 -4.13652e-21)
(1.00318 0.000710381 -1.574e-21)
(1.12367 -0.0146257 5.5806e-20)
(1.11706 -0.0217187 0)
(-0.116656 -0.0143992 -7.93084e-20)
(1.24168 -0.0348021 -4.7254e-20)
(0.991704 0.0111826 0)
(0.994734 0.0308114 -1.06972e-20)
(1.14056 -0.00377255 5.61674e-21)
(0.587309 -0.0683884 -9.85154e-21)
(0.964381 0.0221457 8.1019e-21)
(0.484795 -0.0621024 0)
(-0.162588 -0.00897433 2.75962e-20)
(1.10036 -0.058261 -2.08759e-20)
(1.01616 0.0126736 3.70292e-22)
(0.493715 0.409527 2.11588e-19)
(1.13312 -0.00267537 3.62013e-20)
(-0.254019 -0.00780725 -1.44611e-19)
(1.00293 0.0182961 0)
(0.690453 0.068921 0)
(1.01221 0.0260601 -5.15747e-22)
(1.18698 0.0687726 4.59519e-20)
(1.00838 0.000987686 0)
(0.0893766 -0.0311825 0)
(0.441781 -0.0583302 3.14773e-20)
(0.996096 0.0927792 -5.95049e-21)
(1.19209 0.478758 7.98445e-20)
(1.08033 0.0632503 0)
(1.01545 0.0122197 -2.2099e-21)
(1.12542 -0.07923 0)
(1.09189 -0.0521907 0)
(1.11562 0.0403149 -6.69979e-21)
(0.657624 -0.0740138 -1.21874e-20)
(-0.182475 -0.00653269 1.38933e-20)
(1.01232 0.00305725 1.29219e-21)
(1.06385 0.091177 0)
(0.0125187 -0.0279188 0)
(-0.139026 0.0178991 0)
(0.999989 0.00244684 0)
(1.00617 0.00909755 8.70471e-22)
(0.331356 -0.00861831 3.27266e-21)
(1.14016 -0.0490588 -9.64267e-21)
(1.00004 0.000130335 0)
(1.10155 -0.0742012 -4.5781e-20)
(1.17499 0.0120661 0)
(0.793318 -0.0314836 0)
(1.0943 0.107763 -3.81919e-20)
(1.00004 0.00237368 -5.06373e-21)
(0.979012 0.205647 0)
(-0.153186 -0.00741208 -5.73473e-20)
(1.04162 0.00371109 3.01739e-21)
(1.19809 0.142255 4.56761e-20)
(0.569979 0.175385 6.29711e-20)
(1.03429 0.027162 -6.16429e-21)
(0.994879 0.0280896 -1.055e-20)
(1.1095 -0.0391621 3.29298e-20)
(0.34638 -0.0156508 0)
(1.11354 -0.0441465 0)
(0.936958 0.118542 0)
(0.975212 0.0972569 1.35353e-20)
(1.00004 0.000228145 1.32106e-22)
(0.101918 -0.00956272 0)
(0.648672 -0.0409091 0)
(1.09899 -0.0745239 -7.55244e-21)
(1.01499 0.0124702 3.32428e-21)
(-0.143425 -0.0138532 -1.05001e-19)
(-0.00793317 -0.00908134 0)
(1.07525 -0.0821626 -6.11242e-20)
(0.50631 -0.0514161 2.39778e-21)
(1.08686 -0.0508898 -6.41956e-21)
(1.00003 0.00294662 5.07756e-21)
(1.00632 0.00083812 -4.2399e-22)
(1.13813 0.0144571 4.08576e-20)
(0.016116 -0.0218102 3.44035e-20)
(1.16509 -0.0236511 9.19381e-21)
(1.07033 0.0435395 2.37622e-20)
(1.23693 -0.0356737 0)
(1.08026 -0.0356917 0)
(1.01804 0.00117518 2.5972e-21)
(0.935975 0.0181824 -4.31918e-20)
(1.00192 0.00470516 8.53623e-23)
(0.77316 -0.0732693 1.29785e-21)
(1.07577 -0.00141715 3.5773e-21)
(1.00007 0.000132618 -3.32566e-22)
(0.999862 0.109839 0)
(1.0205 0.18233 -1.05454e-21)
(0.783693 -0.0140038 0)
(1.10562 -0.0755801 3.3304e-20)
(0.997461 0.145469 -4.92169e-21)
(1.04421 0.0103334 5.59628e-21)
(1.2433 0.0155398 0)
(0.667732 -0.0737981 1.37437e-20)
(0.549165 -0.0436199 0)
(1.00264 0.0177767 -4.54491e-21)
(1.04598 -0.079197 0)
(0.998386 0.000307007 0)
(1.04428 0.00939433 1.9535e-20)
(1.00095 0.0132684 1.11434e-20)
(0.81549 0.617179 -5.476e-21)
(1.0016 0.000848551 0)
(1.19177 0.0685576 5.19118e-20)
(1.08977 0.107552 3.24736e-20)
(1.03203 0.0203932 6.40737e-21)
(1.12351 -0.0168303 -7.01413e-20)
(1.0381 0.057511 7.916e-21)
(0.113535 0.0590266 -2.32426e-20)
(1.01475 0.196087 2.74187e-21)
(1.17077 0.128704 -2.98068e-20)
(1.0306 0.0143705 -1.00072e-20)
(0.995564 0.0271075 1.53424e-20)
(-0.18745 -0.010466 3.343e-20)
(0.0927446 -0.0119521 -2.5278e-20)
(1.00107 0.0145015 -2.15432e-21)
(1.0072 0.000875491 3.72706e-23)
(0.98956 0.026872 0)
(1.0159 0.025622 -2.43167e-22)
(-0.0676724 -0.0204778 9.00925e-20)
(1.02965 0.0142502 3.61895e-21)
(0.105534 -0.0323091 7.79106e-21)
(1.04817 -0.00442799 -1.4948e-20)
(1.2096 0.324999 4.71866e-20)
(1.10275 0.00461681 -5.50357e-20)
(0.111188 0.282718 2.51144e-19)
(0.943559 0.0437537 1.91365e-20)
(1.30126 0.00412843 -1.84731e-21)
(0.510201 0.302832 0)
(1.00293 0.10762 0)
(1.14194 -0.0476824 -4.45291e-20)
(0.954653 0.522356 0)
(0.9958 0.0440504 0)
(0.164945 -0.0278486 0)
(0.571482 0.0430952 0)
(-0.00112784 -0.0117534 -2.69929e-21)
(0.92163 0.019541 -3.32494e-20)
(0.207505 -0.0088667 0)
(1.07009 0.0893821 1.87646e-20)
(-0.0765122 -0.00286206 -6.40638e-20)
(0.528331 0.28174 0)
(0.9212 0.353153 1.51441e-20)
(0.937394 0.347995 -7.98613e-21)
(0.515964 -0.067257 2.75637e-20)
(0.999722 0.00259268 4.0745e-21)
(1.05202 0.176548 -1.33747e-20)
(-0.133557 -0.0142134 -5.49286e-20)
(0.982574 0.0297745 0)
(1.00201 0.0722463 -6.58715e-21)
(0.0137631 -0.00920302 3.15948e-20)
(0.861007 0.478677 0)
(1.01759 0.0533026 -3.48198e-22)
(1.12837 -0.0745039 0)
(0.70222 0.543859 0)
(1.00934 0.00509767 0)
(0.138914 -0.0085466 4.90422e-21)
(1.13069 -0.0782271 4.68467e-20)
(1.00205 0.00507186 -3.01269e-21)
(1.00954 0.013093 0)
(0.998579 0.000138208 2.77687e-22)
(1.0239 0.0109007 4.21033e-21)
(1.23546 0.0133568 -2.53784e-20)
(0.75948 -0.0718483 2.26565e-20)
(0.38587 -0.277821 0)
(-0.154282 -0.0121663 -2.85415e-20)
(0.997956 0.0145924 4.82059e-23)
(1.20495 0.141571 -8.11094e-20)
(-0.195915 0.0204183 -1.41911e-21)
(1.11396 -0.00603069 -6.28755e-21)
(0.46486 -0.0602225 0)
(0.0445441 -0.0264988 2.95307e-20)
(0.406113 -0.0577375 -9.65831e-20)
(1.01358 0.00560651 -1.26231e-21)
(1.09394 -0.0727261 -1.39832e-20)
(1.01074 0.0126751 0)
(0.818204 0.0830621 4.8744e-20)
(1.03684 0.0251552 6.46453e-21)
(0.0854873 0.330497 -1.31397e-19)
(1.17785 0.0141365 1.84926e-20)
(1.06624 -0.00765093 1.78593e-20)
(0.99957 0.00313139 -2.3337e-21)
(1.13802 -0.00251365 -8.60635e-20)
(1.18786 0.127242 0)
(1.15736 0.00805342 0)
(0.327161 1.09504 3.68294e-22)
(-0.119635 -0.00371297 -6.91094e-20)
(-0.280166 -0.00517189 1.75306e-19)
(0.984078 0.213715 0)
(1.13383 0.148502 -8.91823e-20)
(1.00586 0.00865151 0)
(-0.113875 0.018802 0)
(0.469032 -0.0576271 2.51577e-20)
(0.999486 0.0337381 -4.7213e-21)
(1.28054 0.00896373 4.89049e-20)
(0.995686 0.010857 0)
(1.20861 -0.0189037 7.23247e-20)
(1.04823 -0.00383062 1.07436e-20)
(0.999791 0.00218754 0)
(1.03345 0.0606135 0)
(0.557843 -0.0473049 1.18799e-20)
(1.03167 0.0608953 0)
(0.36632 -0.0196731 1.00286e-20)
(-0.0604526 0.0384805 -2.57287e-20)
(1.11175 -0.0606033 -5.13908e-20)
(0.442128 0.283067 0)
(0.997547 0.0437004 3.42935e-21)
(0.495525 0.366706 -1.73927e-19)
(0.468291 0.307747 1.11218e-19)
(1.00213 0.0101289 2.52583e-21)
(0.825695 0.479356 2.53163e-20)
(0.983984 0.0295066 1.55482e-22)
(0.994451 0.0127345 1.26482e-21)
(1.19336 0.0962543 0)
(1.00007 0.000342208 0)
(0.993785 0.0144734 3.5058e-21)
(1.01098 0.012472 0)
(1.23614 0.0173548 2.31811e-20)
(0.999946 0.00164892 -4.20949e-22)
(0.216635 -0.0109593 0)
(0.651867 -0.0577379 0)
(-0.129062 0.0161669 0)
(1.24754 0.182247 2.70183e-20)
(0.346434 -0.0277333 5.6705e-21)
(-0.234392 -0.00932235 0)
(1.11189 -0.00643512 1.1276e-20)
(0.998311 0.0139717 0)
(1.20745 0.0117543 -1.37226e-20)
(1.06358 -0.0143864 4.24608e-21)
(1.06864 0.0967336 1.85247e-20)
(0.999728 0.0083158 -7.13962e-21)
(0.690338 -0.0712906 -2.17841e-20)
(0.529909 -0.0648178 1.09589e-20)
(0.706906 -0.0607175 -7.37236e-23)
(0.983918 0.0878805 -5.11514e-22)
(1.17866 0.00241526 -2.06257e-20)
(0.925014 0.0166354 5.05477e-20)
(1.06527 -0.0160643 -1.02218e-20)
(1.15529 0.00652585 0)
(1.01933 0.0622458 -7.54252e-22)
(1.09376 -0.0719107 0)
(1.01807 0.0465753 0)
(1.00158 0.000999358 -1.86085e-21)
(-0.0370365 -0.0242707 0)
(0.239366 -0.0313264 0)
(0.259541 -0.0343749 -4.0239e-21)
(1.17998 0.211344 -5.51762e-20)
(-0.137562 0.0119431 0)
(0.192749 -0.0324933 0)
(-0.0851969 -0.0232329 0)
(-0.0615556 -0.0119711 0)
(1.01729 0.00192278 2.7399e-21)
(1.13983 0.00540976 -7.11288e-22)
(1.02137 0.0620727 9.91469e-22)
(0.992403 0.0313962 0)
(1.2404 -0.0288216 -1.10139e-19)
(1.14017 0.0160965 -4.67536e-20)
(1.01885 -0.00011918 0)
(1.15807 0.0493686 0)
(1.11256 -0.00109956 -2.42851e-20)
(-0.0535396 -0.00948585 -4.02862e-20)
(1.0023 0.0105121 2.95645e-21)
(1.14856 -0.0361881 -6.66394e-20)
(-0.00944701 0.0112381 4.72023e-20)
(1.22943 0.339772 3.05137e-20)
(0.2186 -0.0148804 -1.76811e-20)
(0.999947 0.00143787 -3.6752e-21)
(0.998347 0.0341856 6.49889e-22)
(1.01132 0.000412849 -4.60013e-22)
(1.05355 0.137737 6.67526e-22)
(1.01351 0.00519634 3.10229e-21)
(0.628363 -0.0657759 -9.77739e-21)
(0.39735 -0.238325 -5.88254e-20)
(1.00037 0.140085 4.56221e-21)
(-0.0730255 0.0269307 0)
(1.08548 0.0370865 2.04124e-20)
(1.131 -0.0487963 0)
(-0.0467283 -0.0257674 -5.41889e-20)
(0.824483 0.57794 7.55077e-22)
(1.11054 -0.0600639 4.27878e-20)
(1.1249 -0.078191 4.43837e-20)
(1.14788 -0.0378067 5.66034e-20)
(1.15624 0.066215 5.83218e-20)
(1.19702 -0.00416575 0)
(1.09646 -0.0256574 1.9574e-20)
(1.10376 -0.0643305 -2.59697e-20)
(0.375106 0.109687 0)
(1.09222 -0.0338915 -2.23508e-20)
(1.14429 -0.0210803 1.72597e-20)
(1.01487 0.000687557 2.61109e-21)
(1.26553 -0.0117553 0)
(1.08956 0.0185938 2.0588e-20)
(1.03053 0.00375235 -7.49006e-23)
(1.04915 0.134164 0)
(1.05697 0.0259203 -6.61828e-21)
(-0.0502329 -0.0124758 0)
(0.449302 -0.0626245 0)
(1.01518 0.0246151 -8.92214e-23)
(1.01794 0.000942676 8.87925e-22)
(0.654037 -0.0705444 -1.09481e-20)
(-0.25603 -0.00636865 0)
(1.00006 0.00025949 -1.78063e-21)
(0.196372 -0.0102139 1.7689e-20)
(1.05792 0.00542949 -1.67286e-20)
(1.236 0.162286 2.05643e-20)
(1.01455 0.0265312 2.1812e-23)
(-0.147191 -0.011393 -3.38322e-20)
(1.18535 -0.0663316 0)
(1.05846 0.0968663 1.42663e-20)
(1.03738 0.0380814 -7.92698e-21)
(0.371438 -0.0320665 -1.47294e-20)
(1.24968 0.134206 8.94327e-20)
(-0.255975 0.00959576 0)
(1.00004 0.000308967 0)
(-0.151996 -0.00948453 -5.47954e-20)
(0.135867 0.0584619 1.22289e-19)
(0.964059 0.0285636 2.6788e-21)
(1.03066 0.00426289 -1.23867e-20)
(-0.128213 0.0151921 -1.94726e-20)
(0.306203 -0.0437938 0)
(1.11149 -0.010007 4.56927e-20)
(1.01009 0.013155 -4.90647e-22)
(1.00906 0.0476233 0)
(1.08455 -0.0501877 -2.00603e-20)
(1.2123 -0.0222689 5.88406e-20)
(1.01936 -0.00011975 -1.16779e-21)
(1.00906 0.0123797 -5.97204e-22)
(1.00506 0.00244025 -9.17519e-22)
(1.00538 0.00255282 0)
(-0.167581 -0.0119438 6.43398e-20)
(1.23939 -0.0249346 -9.43994e-20)
(1.11099 -0.0086863 -4.56502e-20)
(1.25919 0.122415 -1.51606e-21)
(1.00638 0.000648599 4.13269e-22)
(1.01088 0.00556753 -1.5038e-21)
(1.17535 0.000888937 1.01042e-20)
(0.168089 -0.040682 8.51325e-21)
(1.10683 0.0531113 0)
(1.0336 0.021624 0)
(0.994794 0.0132017 0)
(0.992344 -0.00014206 -1.64241e-20)
(0.903595 0.0191728 7.86581e-20)
(-0.0011873 0.021 1.49479e-19)
(1.00051 0.00387584 0)
(0.992551 0.00286836 -1.03182e-20)
(1.09129 -0.0718799 -7.26487e-21)
(1.09697 -0.0241664 -1.95837e-20)
(1.10186 0.00327136 -9.90102e-21)
(0.997331 0.0326479 -9.88396e-21)
(1.02893 0.0637577 2.41387e-21)
(1.04407 0.095297 2.0437e-21)
(1.14199 -0.0218787 9.49729e-22)
(0.950342 0.495965 0)
(1.26391 0.130621 1.00499e-19)
(1.20811 0.00789087 6.39002e-20)
(1.16312 -0.0127157 0)
(1.23722 -0.0387432 1.26499e-20)
(1.17038 0.121856 -3.98532e-20)
(1.00183 0.0172021 4.95978e-21)
(-0.139913 -0.00960589 4.93011e-20)
(0.992689 -0.000647599 1.02293e-20)
(1.00262 0.0751487 7.68746e-21)
(1.06805 -0.00012459 7.20737e-22)
(1.2659 -0.0128012 -2.9123e-20)
(0.992725 0.290477 0)
(1.0101 0.0012274 0)
(1.2319 0.328639 0)
(1.20332 0.0845814 0)
(-0.0936676 -0.00456532 -5.3962e-20)
(1.16453 -0.0106752 4.17267e-20)
(0.887289 0.135828 -9.39367e-23)
(1.11496 -0.00184785 -2.33825e-20)
(0.999435 0.00342223 5.03043e-21)
(0.478566 -0.0449279 0)
(1.22103 0.318441 -5.42759e-20)
(0.353546 -0.0536469 0)
(1.01741 0.0443972 0)
(1.0968 0.0426898 3.98924e-20)
(1.26221 0.117959 0)
(0.0530606 -0.0284682 -6.39469e-20)
(-0.189761 0.00284412 -1.39657e-19)
(1.14566 -0.00346063 8.19393e-22)
(1.18872 0.213056 -8.21472e-21)
(0.991265 0.0883081 -1.76347e-21)
(1.05674 0.0569446 1.3586e-21)
(0.996233 0.0331509 -6.17238e-21)
(0.889205 0.23198 0)
(0.670608 0.183057 0)
(0.973414 -0.00363841 0)
(1.13071 -0.0040777 0)
(0.568906 0.150095 -1.55877e-19)
(0.367519 -0.0551816 -9.10824e-21)
(-0.249294 0.0112923 0)
(1.03194 0.0738485 -1.35385e-21)
(1.12915 -0.0483256 -1.92808e-21)
(1.19462 -0.0658851 0)
(1.0044 0.118045 -1.8268e-21)
(0.967946 0.024142 -1.60683e-20)
(0.174796 0.542935 0)
(0.645679 -0.0592387 5.46866e-20)
(0.606487 -0.0694246 2.34972e-20)
(1.25424 0.106067 -1.11071e-19)
(1.01799 0.00202464 0)
(0.144347 -0.0107713 -5.73914e-21)
(1.08553 -0.0495122 1.9654e-20)
(1.01004 0.000907839 0)
(1.0942 0.0747075 -8.23418e-21)
(1.12784 -0.0320996 0)
(0.846521 0.0706373 3.20988e-20)
(1.19152 0.086965 2.09954e-20)
(0.513199 -0.0550437 0)
(1.1937 -0.00473064 1.95479e-20)
(1.09262 -0.0222768 2.10006e-20)
(0.479349 -0.0444767 0)
(1.0591 0.0320403 4.8429e-21)
(-0.0818175 -0.00985805 -5.41889e-21)
(0.999985 0.0021704 0)
(1.00051 0.00418263 -1.82642e-22)
(1.02119 -0.0808199 -2.65025e-20)
(0.61538 -0.0602702 -3.03292e-20)
(0.376516 0.241244 -1.31965e-19)
(1.05966 0.030635 -5.15896e-21)
(1.01403 0.0545114 -1.34774e-21)
(0.992983 0.0033255 1.45005e-20)
(1.08149 -0.0358732 8.86947e-21)
(0.0782572 0.17577 1.447e-19)
(1.09172 -0.0584198 -1.9884e-20)
(1.05905 0.0573785 1.5328e-21)
(1.1106 -0.0583035 -2.30913e-20)
(1.13566 -0.00406677 3.99963e-20)
(1.01441 0.0272701 9.56624e-22)
(1.17 0.487098 3.50022e-20)
(1.09061 -0.0578212 1.46386e-20)
(1.08883 -0.0687737 2.63583e-20)
(1.00467 0.0197965 0)
(1.18935 -0.00904787 -1.52384e-20)
(1.05609 0.0274569 -9.36637e-22)
(-0.0172545 0.049212 -8.64526e-20)
(1.146 0.148141 -3.80562e-20)
(1.00347 0.283475 0)
(1.09794 0.0445958 -3.71452e-20)
(1.00786 0.00288292 -1.1789e-22)
(1.02837 0.00645573 2.80829e-21)
(1.03582 0.029015 5.77075e-21)
(0.967909 0.353647 4.57822e-22)
(0.890108 0.0196992 0)
(1.25091 0.0466463 -6.78644e-20)
(0.470625 0.808964 1.10078e-20)
(1.13024 -0.0117119 -3.81873e-20)
(1.00887 0.00504347 0)
(1.19778 0.002287 0)
(0.373548 0.271778 0)
(1.13324 -0.0816052 -3.89256e-20)
(1.04087 0.00423344 0)
(0.899677 0.0327292 1.0522e-20)
(1.00853 0.0122772 -9.64083e-23)
(1.07776 -0.016462 0)
(1.07426 0.0452653 0)
(0.284013 -0.043988 -2.14931e-20)
(0.999862 0.00226104 0)
(1.23877 0.505481 -4.61076e-20)
(1.07904 -0.0135312 0)
(1.11708 -0.0630516 8.26231e-21)
(1.17358 0.143442 -1.79071e-20)
(-0.102832 -0.0159913 8.01572e-20)
(1.02628 0.281447 9.92466e-21)
(1.00866 0.0459515 -1.04005e-21)
(-0.0162336 -0.0193634 -3.82089e-20)
(-0.258602 -0.00317725 6.88753e-20)
(1.00633 0.035295 0)
(1.06698 -0.000922628 2.62439e-21)
(1.19119 -0.0613435 1.06131e-19)
(1.24578 0.108337 0)
(1.1623 -0.0240937 -1.8935e-20)
(1.00016 0.000378507 -2.16663e-21)
(1.03867 0.0380317 0)
(1.1972 0.31605 0)
(1.06683 -0.00859402 -2.39925e-20)
(1.15717 0.0115777 0)
(1.1087 -0.0373982 0)
(1.02905 0.00632705 4.0403e-21)
(1.11477 -0.024393 0)
(0.579949 -0.0701539 2.57798e-20)
(1.04039 0.00266644 6.14074e-21)
(1.0542 -0.00646222 0)
(1.00452 0.00259375 9.83056e-22)
(0.090333 -0.00994496 -1.21111e-20)
(0.999953 0.000979117 8.22381e-22)
(0.984217 0.0839914 -4.87092e-22)
(-0.287494 -0.00263051 4.36234e-20)
(0.993378 0.0687504 6.43407e-21)
(0.675666 -0.0583651 2.85424e-20)
(1.07615 0.0669747 -2.22029e-21)
(0.831303 0.0748188 -6.17349e-20)
(1.00485 0.00271612 1.41112e-21)
(1.02289 0.215749 1.00157e-20)
(1.00068 0.0125852 -6.00701e-21)
(1.15424 0.0742368 -1.16403e-20)
(1.00752 0.00172588 0)
(1.08458 0.261849 -2.39976e-20)
(1.05763 0.00620276 0)
(0.240619 0.14138 -8.34932e-20)
(0.433732 0.684223 4.34296e-20)
(0.165405 -0.0416253 -1.0652e-20)
(1.01085 0.000398441 -3.29716e-22)
(0.999654 0.00279125 -3.86797e-21)
(1.16477 0.118777 3.65659e-20)
(1.12599 0.114272 -7.1372e-23)
(0.0500912 -0.0138593 -3.26977e-20)
(0.275854 -0.0506426 4.01229e-20)
(1.14239 0.0247593 4.19976e-20)
(0.992728 0.0115487 0)
(1.2352 0.0155805 2.18554e-20)
(0.343622 0.216293 2.77711e-19)
(1.08677 -0.0686217 -2.26011e-20)
(1.24805 0.0500186 8.38229e-20)
(1.13362 0.0107347 3.88857e-20)
(0.556711 -0.0544048 1.79837e-20)
(1.08678 0.131243 -1.10285e-20)
(1.07979 -0.0344191 1.38738e-20)
(1.20478 0.0244939 3.50473e-20)
(0.85608 0.423137 1.22654e-20)
(1.14074 0.026682 -2.97744e-20)
(0.304906 0.292429 -1.79584e-19)
(1.14108 0.0328447 1.82863e-20)
(1.06001 -0.00499374 -8.6276e-21)
(1.1293 -0.0334683 -2.57271e-20)
(1.00709 0.109148 -1.76283e-21)
(1.03406 0.00522502 1.80032e-20)
(1.07768 -0.0154785 4.96116e-21)
(1.1131 0.122015 3.20774e-20)
(1.05133 0.0975881 1.24937e-21)
(0.999541 0.0124968 0)
(1.00682 0.000515156 0)
(1.13308 -0.00835319 3.77938e-20)
(1.06377 0.011678 -1.63753e-20)
(1.16011 0.0130383 3.97674e-21)
(0.993425 0.0112303 0)
(0.995271 0.00880618 0)
(0.999962 0.000776277 5.64993e-23)
(1.02475 0.0639115 1.0998e-22)
(1.02363 0.00128481 -5.59224e-21)
(1.0496 0.083291 9.91355e-21)
(1.004 0.00275087 -3.05078e-22)
(-0.15455 -0.010654 0)
(1.09111 -0.0442998 0)
(0.470421 -0.284202 -1.24296e-20)
(1.01231 0.00528364 3.63181e-22)
(1.00007 0.00164716 4.94128e-21)
(0.802317 0.144993 -4.28914e-20)
(1.15957 0.0641005 -6.8557e-20)
(0.953384 0.00336242 0)
(0.806669 0.00141221 7.70433e-20)
(1.13568 0.198353 6.40771e-20)
(0.994919 0.110036 -9.0654e-20)
(1.07904 -0.0145437 -6.43108e-21)
(1.18487 0.00047361 2.50796e-20)
(1.05209 0.0159644 7.21177e-21)
(0.999907 0.00104217 5.44004e-21)
(1.00563 0.002278 0)
(1.03634 0.0585505 -1.20747e-20)
(-0.3164 -0.000126619 -1.07706e-19)
(1.00005 0.00139699 -6.98715e-21)
(1.17579 -0.0469078 2.60451e-20)
(1.05097 0.0857112 0)
(-0.19416 0.0232967 -6.91951e-20)
(0.967395 0.22518 -9.12887e-21)
(1.14296 0.196337 -3.63983e-20)
(1.11549 -0.0624369 3.9125e-21)
(1.02109 0.00647469 0)
(1 4.38189e-05 0)
(1.09237 -0.0446735 0)
(0.988147 0.00340686 0)
(0.98548 0.043263 5.4702e-21)
(0.946296 0.00048124 0)
(1.01375 0.0583549 7.9931e-22)
(0.998612 0.000816626 2.36689e-21)
(1.08651 0.0552666 -2.79729e-20)
(1.00632 0.00778263 -5.98164e-22)
(1.01685 0.000882953 -1.92641e-21)
(1.05786 0.0926653 -7.35692e-21)
(0.884838 -0.0235533 0)
(0.0292764 -0.010057 -1.91351e-20)
(1.0821 0.111282 1.87096e-21)
(1.04038 0.00214369 7.22911e-21)
(1.00924 0.000950929 0)
(0.084408 -0.0329711 3.02849e-20)
(0.95338 0.361258 0)
(1.00222 0.0424497 -4.26358e-21)
(1.01845 0.0437388 -3.36576e-23)
(0.898604 0.00462645 -1.18873e-19)
(1.19506 -0.0628642 4.43411e-20)
(-0.294573 -0.00527312 1.09512e-19)
(0.895086 0.136311 0)
(1.06091 -0.00420551 4.3199e-21)
(1.01194 0.00317938 -9.16784e-22)
(1.01708 0.00104439 3.93203e-21)
(1.09369 -0.0339974 -3.5735e-22)
(1.08677 0.112327 -1.08555e-21)
(1.13014 -0.0706891 -2.49869e-20)
(0.917673 0.0195212 0)
(0.140894 -0.0235378 -2.55931e-20)
(1.02887 0.0432386 6.23895e-21)
(0.965156 0.0594889 1.33227e-20)
(-0.304093 -0.00179215 -1.22176e-19)
(0.995497 0.0102955 0)
(1.0906 0.0169806 -2.37847e-20)
(1.00519 0.0317232 4.42109e-21)
(1.00203 0.0012864 2.0619e-21)
(1.10581 0.127481 3.44465e-21)
(0.773637 -0.00782824 -4.5232e-20)
(1.04965 0.0280652 0)
(0.639703 -0.0589806 0)
(0.300935 -0.0133283 -1.48142e-20)
(1.17793 0.138537 1.59527e-20)
(1.00214 0.0178104 8.66342e-21)
(1.02551 0.00287909 -2.44179e-23)
(1.09726 -0.0581871 -4.02186e-20)
(1.19779 -0.0437663 -3.86115e-20)
(1.00007 0.0004247 2.4864e-21)
(1.23027 -0.0418249 5.92293e-20)
(1.025 0.00303013 0)
(1.10958 0.116916 -2.82352e-20)
(1.03499 -0.00123138 0)
(1.0352 0.00693175 -1.60614e-20)
(1.22145 -0.0218657 4.29371e-20)
(1.04049 0.0163469 -1.40983e-20)
(1.00019 -0.066374 0)
(1.11498 0.0897162 -3.41658e-21)
(0.999956 0.000714211 6.91181e-21)
(1.02045 0.00354728 0)
(0.981258 0.00116948 1.04414e-20)
(1.00971 0.0204006 0)
(1.05374 -0.00547075 -5.06981e-21)
(0.272042 0.686786 -6.44324e-20)
(1.03913 0.00451983 1.43853e-20)
(1.0313 0.0107778 -6.6144e-21)
(0.347063 -0.0586887 0)
(0.57521 -0.0657748 4.52208e-22)
(1.09395 -0.0236053 9.18017e-21)
(1.12063 0.115537 0)
(1.1504 0.0029612 -5.95306e-20)
(1.07769 0.0249502 3.43562e-20)
(1.02475 0.0145613 0)
(0.887795 0.012391 -1.84373e-20)
(-0.123392 -0.0132855 7.91239e-20)
(1.09435 0.263213 0)
(0.998279 0.00540305 5.81104e-21)
(1.03606 0.037219 8.87602e-21)
(0.306306 -0.0530944 0)
(1.11468 0.0206753 2.97163e-20)
(-0.107681 -0.0139051 3.19198e-20)
(0.999958 0.000933857 -7.69696e-21)
(0.950981 0.00418801 1.55686e-20)
(0.0734707 -0.00894968 1.99904e-20)
(1.1072 0.0147803 4.01564e-20)
(1.05179 0.0266796 0)
(-0.31002 0.00148778 2.19341e-19)
(0.212838 0.238845 1.35782e-19)
(1.00998 0.0198646 0)
(1.2006 0.0258151 0)
(1.00595 0.00239302 0)
(1.03934 0.0163075 1.44991e-20)
(1.01268 0.0055621 0)
(-0.118129 -0.0169915 2.81134e-20)
(1.02324 0.00113412 6.68002e-23)
(1.03972 -0.00326018 6.76022e-21)
(1.0253 0.0141251 0)
(0.951371 -0.0659037 0)
(1.06328 -0.0122049 1.23236e-20)
(1.24019 0.155557 -2.01797e-20)
(0.701344 -0.0937311 6.74744e-20)
(1.03577 0.00512989 -2.27421e-21)
(0.844721 0.0275265 -1.20725e-20)
(1.00054 0.00367793 2.10171e-21)
(-0.144425 -0.0120133 3.41406e-20)
(1.00549 0.01038 -1.67454e-21)
(1.03981 0.00398732 -1.16589e-20)
(0.998674 0.00131415 0)
(1.09817 -0.058882 5.54577e-20)
(0.998503 0.00119778 3.53327e-22)
(1.19262 -0.00856076 2.3892e-20)
(0.309277 -0.00856177 6.96478e-21)
(0.694778 -0.0755804 1.2782e-20)
(0.904561 0.033223 -3.85486e-20)
(1.13031 -0.0771232 1.11715e-20)
(-0.262463 -0.00406549 -6.51953e-20)
(0.996725 0.027314 0)
(0.125321 -0.00779671 1.36157e-20)
(0.410115 0.0412402 -1.49888e-19)
(-0.240839 -0.00444191 -4.36215e-20)
(0.33329 -0.0271371 2.12764e-22)
(0.328367 -0.0576597 1.49443e-20)
(0.109549 0.166162 -1.02276e-19)
(1.19441 0.00356648 0)
(1.01073 0.0485957 1.31459e-21)
(0.49796 -0.0531818 0)
(1.10658 0.0167683 -2.81389e-20)
(0.436827 -0.0544771 -1.318e-20)
(1.02997 0.00463869 4.45014e-21)
(1.02413 0.0232755 0)
(1.00367 0.0434309 8.32001e-21)
(1.00057 0.00397466 0)
(1.08263 0.0204711 2.17171e-20)
(0.891312 0.0920301 -6.91181e-21)
(0.094579 -0.0162943 3.09097e-20)
(1.02396 0.0222985 0)
(0.993837 0.00413018 -9.98035e-21)
(-0.225027 0.0163334 -1.35226e-19)
(0.972462 0.453272 1.09203e-22)
(0.981421 -0.000101551 0)
(0.811808 -0.0530517 3.96568e-20)
(1.09395 0.0572615 0)
(1.0455 0.0219904 4.51074e-21)
(0.496128 0.721124 0)
(0.805598 -0.0478357 0)
(0.951967 0.0515676 1.78315e-20)
(1.06366 -0.0114757 -1.25728e-20)
(0.279517 -0.00922111 1.54196e-20)
(-0.289265 -0.00141749 1.24781e-19)
(0.222621 0.0610887 -2.20067e-19)
(1.03452 -0.0007771 0)
(1.24654 0.141679 4.53628e-20)
(1.19986 0.0807651 -1.37857e-20)
(-0.224268 0.0033301 -7.00596e-20)
(0.390167 -0.0572833 -3.68925e-20)
(1.08984 -0.0523564 0)
(1.01563 0.0265907 -1.70933e-22)
(1.05311 0.0166986 -7.32071e-21)
(1.02746 0.0435863 -5.65533e-21)
(1.01986 4.2569e-05 3.98965e-21)
(1.0274 0.0650026 -2.63457e-21)
(1.01725 0.00167859 1.99369e-21)
(1.04646 0.09373 2.90071e-21)
(1.08261 0.13105 2.45479e-20)
(-0.0535978 0.0267897 0)
(1.15259 -0.0402128 0)
(1.04017 -0.00272411 -1.09066e-20)
(1.18156 -0.000493647 -2.31647e-20)
(-0.0685052 -0.0244614 5.34501e-20)
(1.10246 0.122295 4.6075e-20)
(0.972411 0.0240487 1.28421e-20)
(-0.0889527 -0.00826605 6.19862e-21)
(1.0308 0.0200222 -3.73442e-21)
(0.986339 0.0412371 1.05346e-20)
(0.81762 0.06405 -2.44308e-21)
(-0.0152573 0.0337677 0)
(0.998422 -0.000201213 -1.03453e-20)
(1.00423 0.0201111 -2.17179e-21)
(0.465882 -0.0611413 -3.33063e-20)
(1.11793 -0.074747 0)
(1.19256 -0.0665291 -1.22349e-19)
(1.16422 -0.0176546 -4.14729e-20)
(1.1287 -0.0793785 -2.34236e-20)
(1.00785 0.0191391 0)
(1.20463 0.00237737 -7.70013e-20)
(0.97148 0.0259513 0)
(1.00361 0.0108848 2.44751e-21)
(0.969297 0.0219062 0)
(0.587206 -0.0642678 2.61208e-20)
(-0.272509 -0.00635709 -6.43647e-20)
(1.0325 0.00919802 0)