/*--------------------------------*- C++ -*----------------------------------*\
| =========                 |                                                 |
| \\      /  F ield         | OpenFOAM: The Open Source CFD Toolbox           |
|  \\    /   O peration     | Version:  v2012                                 |
|   \\  /    A nd           | Website:  www.openfoam.com                      |
|    \\/     M anipulation  |                                                 |
\*---------------------------------------------------------------------------*/
FoamFile
{
    version     2.0;
    format      ascii;
    class       volVectorField;
    location    "400";
    object      U_0;
}
// * * * * * * * * * * * * * * * * * * * * * * * * * * * * * * * * * * * * * //

dimensions      [0 1 -1 0 0 0 0];


internalField   nonuniform List<vector> 
13917
(
(1.09659 0.122345 -2.46468e-20)
(1.02076 0.0420653 2.6034e-22)
(0.570876 -0.0698474 -4.57995e-20)
(1.05674 -0.0102768 -1.76195e-21)
(0.996238 0.00328487 -1.10824e-20)
(0.358749 0.0543578 0)
(0.500593 -0.0609817 0)
(0.574392 -0.0674429 0)
(0.393365 -0.0575634 -1.57637e-20)
(1.14022 0.151468 3.5718e-20)
(1.11896 -0.0624941 -1.97773e-21)
(1.09433 -0.0439216 0)
(1.05724 -0.0110291 0)
(-0.0170282 -0.00455831 -1.76891e-20)
(0.971862 0.0945927 -9.07863e-21)
(0.995134 0.0892751 4.68382e-21)
(1.01512 0.0472665 1.12799e-21)
(1.14149 0.0211739 0)
(1.09321 -0.043423 1.29292e-21)
(1.00151 0.00480067 3.19431e-21)
(0.999976 0.00101558 0)
(0.479192 -0.0595558 0)
(1.00095 0.00791637 5.43787e-21)
(0.632709 -0.0721373 -1.67645e-20)
(0.994924 0.0150442 1.12111e-21)
(0.512648 -0.058614 2.02738e-20)
(0.78293 0.034057 0)
(0.757345 0.121851 -3.23928e-20)
(0.73255 0.571365 0)
(1.19486 0.0916706 0)
(1.11112 0.112329 2.6354e-20)
(1.06057 0.0900098 7.75767e-21)
(0.83714 0.0689575 0)
(0.910339 0.000829212 1.89128e-20)
(0.991376 0.012022 -1.33117e-21)
(1.12736 -0.0801771 1.47064e-20)
(1.00087 0.00746994 3.63706e-22)
(0.10812 -0.0280103 0)
(1.06391 -0.0156007 -5.1102e-21)
(0.28178 -0.00883479 9.46233e-22)
(1.00857 0.000789493 0)
(0.999988 0.000436847 -6.54124e-22)
(1.02087 0.00258235 -3.65077e-21)
(0.702898 0.204544 0)
(1.03919 0.0249487 -6.558e-21)
(0.891684 0.0146323 0)
(1.13902 0.0193813 0)
(1.14293 -0.0115828 0)
(0.104196 0.136861 1.50159e-19)
(1.00348 0.000793941 -1.04909e-21)
(1.08655 0.0157014 0)
(0.965269 0.009619 -4.56418e-21)
(0.0751956 0.115658 -2.75334e-19)
(0.905699 0.0020891 2.16976e-20)
(1.01393 0.0482532 0)
(1.08604 0.0394751 -1.04573e-20)
(1.1199 -0.0616645 -1.93836e-20)
(0.995462 0.0297478 9.4954e-21)
(1.07185 0.0456355 6.08504e-21)
(1.03774 0.0244869 2.29108e-22)
(0.537161 0.0473796 0)
(1.02229 0.0421478 2.96088e-22)
(-0.0302763 0.00036397 1.91671e-20)
(1.00161 0.00519771 0)
(0.385663 0.066625 0)
(1.03465 0.347717 -2.58335e-20)
(0.995436 -0.000561761 -1.23411e-20)
(0.988039 -0.00151876 -1.80054e-20)
(1.15778 -0.0471363 -4.13442e-20)
(1.0635 0.136651 -6.43495e-21)
(0.996629 0.00343183 1.01948e-20)
(0.451212 -0.0646654 7.76228e-21)
(-0.089952 -0.0178677 -4.88346e-20)
(0.99551 0.0146621 -3.22479e-21)
(0.105749 0.210564 -1.25844e-19)
(1.08667 -0.0498717 -1.59289e-20)
(-0.0970578 -0.011284 1.24505e-20)
(1.05451 0.0275966 0)
(0.524795 -0.0532342 0)
(0.999899 0.00207758 -6.05027e-21)
(1.00008 0.00316784 -5.2851e-21)
(0.995991 -0.000445962 0)
(0.404778 0.129865 0)
(0.134651 -0.03219 0)
(-0.0960955 0.0148192 -6.99214e-20)
(1.05344 0.0264027 -5.99488e-21)
(1.00036 0.00409952 4.92169e-21)
(1.18147 0.423981 0)
(1.08467 0.0156066 1.92192e-20)
(1.02133 0.00259645 0)
(-0.0165831 -0.0243781 0)
(1.17653 0.131245 -6.8863e-20)
(1.02326 0.0237314 0)
(0.973692 0.0535412 -4.99608e-22)
(1.1326 0.418392 6.44305e-20)
(0.386036 -0.0067383 -5.72742e-20)
(1.13463 -0.0477337 -1.59905e-20)
(1.14301 -0.00201736 -2.4787e-20)
(1.0907 -0.0598448 -2.08595e-20)
(0.608455 0.12988 1.057e-19)
(1.01133 0.00586503 1.85663e-21)
(0.844589 0.000504268 -4.15651e-20)
(0.692646 0.189387 4.59946e-20)
(1.06205 0.0209409 0)
(1.01655 0.0124065 8.0733e-22)
(0.462525 -0.0591798 9.13066e-22)
(0.81301 0.509991 -2.71725e-20)
(1.14543 -0.0127019 5.71256e-20)
(1.01698 0.0477878 0)
(1.11132 0.127112 1.95359e-21)
(-0.166892 -0.0130177 6.06044e-20)
(0.289485 -0.00973248 2.98336e-21)
(1.09538 -0.0505106 0)
(0.426102 -0.058876 6.04158e-20)
(0.948045 0.00837579 8.64014e-21)
(0.0827543 -0.114864 -7.55848e-20)
(1.00082 0.0139075 -9.83852e-21)
(0.200444 0.0954686 -2.73116e-20)
(0.158376 -0.0122595 -4.74507e-21)
(0.907068 0.0146802 -5.4173e-20)
(0.999984 0.000855093 -4.762e-21)
(1.15825 -0.0455213 6.82549e-20)
(0.123067 -0.0137285 0)
(0.766199 0.115081 2.48068e-20)
(1.00518 0.000698521 3.75129e-22)
(0.975113 0.0509458 0)
(1.03457 0.0284349 -8.30366e-21)
(1.00481 0.000567261 -6.29725e-22)
(1.01811 0.00178434 -1.62046e-21)
(0.361515 0.00754461 0)
(0.221755 -0.0289178 -9.64768e-21)
(0.950493 0.00745989 6.80134e-21)
(1.03955 0.0259523 -6.11746e-21)
(0.999979 0.00080265 0)
(1.26456 -0.00347851 -4.38641e-20)
(0.649244 -0.0758217 0)
(1.09401 0.126919 2.10413e-20)
(0.584612 0.130982 3.59117e-20)
(0.995118 -0.000170538 1.38672e-20)
(0.90801 0.010425 2.98484e-20)
(1.11856 -0.0767337 -3.17053e-20)
(1.02486 0.0133682 0)
(0.962134 0.0217648 0)
(0.654849 0.201259 0)
(0.987394 -0.00119262 8.25243e-21)
(0.663135 -0.067272 -3.60301e-22)
(0.803149 0.577213 4.88272e-21)
(0.967199 0.0100672 0)
(1.0235 0.0112689 -3.48829e-21)
(1.05549 0.0991722 -1.17477e-20)
(1.11895 -0.0216316 0)
(0.0924441 -0.148575 2.5245e-19)
(1.11457 -0.0453962 1.93629e-20)
(1.02619 0.180437 -6.02981e-23)
(1.07728 0.0642518 0)
(-0.0576809 0.0502492 1.60196e-19)
(1.0587 0.133916 0)
(1.12745 -0.0801704 5.53703e-20)
(-0.118852 -0.00887764 2.65385e-20)
(1.25944 -0.00204113 -6.47714e-21)
(0.939735 0.0440147 -9.99617e-21)
(0.78344 -0.0264054 -4.07951e-20)
(1.00003 0.00218382 5.10242e-21)
(1.13258 -0.0470217 -1.46465e-20)
(1.09614 -0.0498314 6.9131e-21)
(1.09181 -0.0594725 2.19323e-20)
(1.06114 0.0218134 0)
(1.13008 -0.0140917 3.61344e-20)
(1.03244 0.0213601 0)
(0.837675 -0.00376978 2.76455e-20)
(1.04574 0.173308 0)
(-0.292372 -0.000318356 4.42451e-20)
(1.09294 -0.0528511 0)
(1.01273 0.0564312 1.60159e-21)
(0.811727 -0.0739543 9.77219e-21)
(1.01556 0.201231 -2.72746e-21)
(0.243448 -0.0331411 8.09177e-21)
(0.163344 0.0972213 -9.15928e-20)
(0.720747 -0.0698282 0)
(1.01259 0.02704 0)
(1.18189 0.126074 0)
(1.11651 0.110873 0)
(1.02537 0.012926 2.36585e-21)
(1.00036 0.00446944 -4.11164e-21)
(0.936122 0.113841 1.63424e-20)
(0.566859 -0.0623007 -4.87005e-24)
(1.26063 0.135644 -1.30725e-19)
(-0.00409357 0.0506563 -1.12819e-19)
(1.11689 0.0427843 -1.27765e-20)
(1.09932 -0.0586088 3.18032e-20)
(1.14107 -0.0769843 -2.50508e-20)
(-0.0461584 0.0188236 -7.07261e-20)
(1.25208 0.175879 -7.84617e-20)
(0.999725 0.0077797 -6.45937e-21)
(0.563379 0.064073 0)
(0.79355 0.0358412 8.80376e-20)
(1.00736 0.000292889 0)
(1.02346 0.0247461 0)
(0.873981 0.444107 5.95031e-21)
(1.21194 0.475172 0)
(1.07758 -0.00177577 -4.13884e-21)
(1.00318 0.000710361 -1.56609e-21)
(1.12367 -0.014638 5.58296e-20)
(1.11706 -0.021733 0)
(-0.116705 -0.0143879 -7.93426e-20)
(1.24173 -0.034763 -4.72698e-20)
(0.991704 0.0111832 0)
(0.994735 0.0308131 -1.06891e-20)
(1.14057 -0.00378034 5.61881e-21)
(0.587413 -0.068439 -9.85339e-21)
(0.964382 0.0221481 8.09967e-21)
(0.484878 -0.0621586 0)
(-0.162641 -0.00896757 2.76081e-20)
(1.10034 -0.0582707 -2.08869e-20)
(1.01616 0.0126731 3.71823e-22)
(0.493719 0.409539 2.11575e-19)
(1.13313 -0.00268367 3.62149e-20)
(-0.253976 -0.0078028 -1.44625e-19)
(1.00293 0.018297 0)
(0.690507 0.0689069 0)
(1.01221 0.0260604 -5.12261e-22)
(1.18699 0.0687806 4.59605e-20)
(1.00838 0.000987725 0)
(0.0893259 -0.0312032 0)
(0.441748 -0.0582974 3.14923e-20)
(0.996098 0.0927798 -5.9445e-21)
(1.19211 0.478749 7.98545e-20)
(1.08033 0.0632506 0)
(1.01545 0.0122193 -2.22071e-21)
(1.12535 -0.0792738 0)
(1.09188 -0.0521941 0)
(1.11563 0.0403144 -6.70219e-21)
(0.657732 -0.074085 -1.21918e-20)
(-0.182527 -0.0065267 1.38991e-20)
(1.01232 0.00305711 1.2981e-21)
(1.06385 0.0911775 0)
(0.0124536 -0.0279102 0)
(-0.139026 0.0178943 0)
(0.999989 0.00244788 0)
(1.00617 0.00909789 8.65966e-22)
(0.331489 -0.00860975 3.27712e-21)
(1.14017 -0.0490975 -9.64714e-21)
(1.00004 0.000130372 0)
(1.10149 -0.0742274 -4.57953e-20)
(1.17501 0.0120712 0)
(0.793317 -0.0314787 0)
(1.09431 0.107764 -3.82064e-20)
(1.00004 0.00237466 -5.05831e-21)
(0.979017 0.205649 0)
(-0.153252 -0.00740775 -5.73742e-20)
(1.04162 0.00370953 3.02024e-21)
(1.19809 0.142256 4.56828e-20)
(0.569981 0.175395 6.29684e-20)
(1.03429 0.0271615 -6.17259e-21)
(0.99488 0.0280914 -1.0542e-20)
(1.1095 -0.0391794 3.29458e-20)
(0.346517 -0.0156404 0)
(1.11353 -0.0441679 0)
(0.936961 0.118544 0)
(0.975214 0.0972579 1.35287e-20)
(1.00004 0.000228209 1.31754e-22)
(0.101991 -0.009573 0)
(0.648615 -0.0408665 0)
(1.0989 -0.0745179 -7.55564e-21)
(1.01499 0.0124698 3.34098e-21)
(-0.143434 -0.0138382 -1.05031e-19)
(-0.00796373 -0.00908849 0)
(1.0753 -0.0822551 -6.1158e-20)
(0.506417 -0.05142 2.39874e-21)
(1.08685 -0.0508922 -6.42417e-21)
(1.00003 0.00294776 5.07196e-21)
(1.00632 0.000838148 -4.12442e-22)
(1.13814 0.014454 4.08713e-20)
(0.0160474 -0.0218204 3.4424e-20)
(1.16512 -0.0236626 9.19721e-21)
(1.07033 0.0435393 2.37756e-20)
(1.23694 -0.0356337 0)
(1.08026 -0.0356995 0)
(1.01804 0.00117516 2.60253e-21)
(0.935961 0.018198 -4.31922e-20)
(1.00192 0.00470523 8.5377e-23)
(0.773165 -0.0733036 1.29871e-21)
(1.07577 -0.00142171 3.5793e-21)
(1.00007 0.000132657 -3.31627e-22)
(0.999865 0.10984 0)
(1.02051 0.182331 -1.0546e-21)
(0.783693 -0.0139989 0)
(1.10555 -0.0756108 3.3312e-20)
(0.997465 0.14547 -4.91252e-21)
(1.04421 0.0103324 5.60125e-21)
(1.24331 0.0155761 0)
(0.66784 -0.073871 1.37487e-20)
(0.549113 -0.0435785 0)
(1.00265 0.0177776 -4.53892e-21)
(1.04603 -0.0792789 0)
(0.998386 0.000308755 0)
(1.04428 0.00939325 1.95524e-20)
(1.00095 0.0132684 1.11306e-20)
(0.815502 0.617192 -5.46585e-21)
(1.0016 0.000848599 0)
(1.19177 0.0685663 5.19211e-20)
(1.08978 0.107553 3.2486e-20)
(1.03203 0.0203928 6.41645e-21)
(1.12352 -0.0168437 -7.01709e-20)
(1.0381 0.0575107 7.9266e-21)
(0.113536 0.05904 -2.32419e-20)
(1.01476 0.196089 2.7469e-21)
(1.17077 0.128706 -2.98125e-20)
(1.0306 0.0143704 -1.00211e-20)
(0.995565 0.0271092 1.53308e-20)
(-0.187394 -0.0104625 3.34315e-20)
(0.0927918 -0.0119659 -2.52856e-20)
(1.00108 0.0145017 -2.15164e-21)
(1.0072 0.000875527 3.38241e-23)
(0.989548 0.0268878 0)
(1.0159 0.0256217 -2.49063e-22)
(-0.067719 -0.0204621 9.01322e-20)
(1.02965 0.01425 3.62394e-21)
(0.105483 -0.0323314 7.79578e-21)
(1.04817 -0.00443018 -1.49605e-20)
(1.20961 0.324992 4.71935e-20)
(1.10276 0.004611 -5.50599e-20)
(0.111188 0.282732 2.51135e-19)
(0.94356 0.0437555 1.91324e-20)
(1.30123 0.00417728 -1.84756e-21)
(0.510204 0.302844 0)
(1.00293 0.107621 0)
(1.14195 -0.0477198 -4.45495e-20)
(0.954667 0.522364 0)
(0.995802 0.0440513 0)
(0.164979 -0.0278786 0)
(0.571482 0.0431042 0)
(-0.00116315 -0.0117633 -2.70069e-21)
(0.92163 0.0195432 -3.32445e-20)
(0.20766 -0.00886908 0)
(1.07009 0.0893827 1.87749e-20)
(-0.0764743 -0.00287614 -6.40657e-20)
(0.528334 0.281752 0)
(0.921209 0.353158 1.51353e-20)
(0.937403 0.348 -7.97809e-21)
(0.516047 -0.0673215 2.7573e-20)
(0.999722 0.00259408 4.07119e-21)
(1.05202 0.176549 -1.33826e-20)
(-0.133503 -0.014207 -5.49313e-20)
(0.982575 0.0297765 0)
(1.00201 0.0722465 -6.57838e-21)
(0.0137457 -0.00921215 3.16098e-20)
(0.861017 0.478686 0)
(1.01759 0.0533022 -3.46561e-22)
(1.12835 -0.0745772 0)
(0.702229 0.543871 0)
(1.00934 0.00509781 0)
(0.139024 -0.00855383 4.90496e-21)
(1.13062 -0.0782894 4.68645e-20)
(1.00205 0.00507188 -3.0052e-21)
(1.00954 0.0130935 0)
(0.998579 0.000140008 2.77539e-22)
(1.0239 0.0109005 4.21776e-21)
(1.23547 0.0133957 -2.53819e-20)
(0.759463 -0.0718604 2.26709e-20)
(0.385866 -0.277809 0)
(-0.154226 -0.0121624 -2.85427e-20)
(0.997957 0.0145927 4.81667e-23)
(1.20495 0.141571 -8.11212e-20)
(-0.195918 0.0204184 -1.41918e-21)
(1.11396 -0.00603974 -6.29024e-21)
(0.464942 -0.0602765 0)
(0.0444768 -0.026511 2.9549e-20)
(0.406083 -0.057706 -9.66304e-20)
(1.01358 0.00560623 -1.26744e-21)
(1.09387 -0.0727208 -1.39892e-20)
(1.01074 0.0126755 0)
(0.81825 0.0830596 4.87476e-20)
(1.03684 0.0251549 6.47212e-21)
(0.0854877 0.330512 -1.31392e-19)
(1.17786 0.0141428 1.84976e-20)
(1.06624 -0.00765497 1.78706e-20)
(0.99957 0.00313293 -2.33185e-21)
(1.13803 -0.00252157 -8.60954e-20)
(1.18786 0.127245 0)
(1.15738 0.00805223 0)
(0.327166 1.09507 3.7712e-22)
(-0.119594 -0.00372513 -6.91115e-20)
(-0.280122 -0.00516754 1.75323e-19)
(0.984084 0.213717 0)
(1.13383 0.148503 -8.92033e-20)
(1.00586 0.00865178 0)
(-0.113874 0.0187964 0)
(0.469124 -0.057671 2.51624e-20)
(0.999487 0.0337394 -4.71644e-21)
(1.28056 0.00900966 4.8912e-20)
(0.995686 0.010857 0)
(1.20865 -0.018876 7.2345e-20)
(1.04823 -0.00383287 1.07525e-20)
(0.999791 0.0021888 0)
(1.03345 0.0606132 0)
(0.557931 -0.0472779 1.18919e-20)
(1.03167 0.060895 0)
(0.366455 -0.0196604 1.00402e-20)
(-0.0604543 0.0384786 -2.57313e-20)
(1.11173 -0.0606311 -5.14145e-20)
(0.442131 0.283079 0)
(0.997549 0.0437012 3.4261e-21)
(0.495529 0.366718 -1.73916e-19)
(0.468294 0.307759 1.11212e-19)
(1.00213 0.0101287 2.52201e-21)
(0.825705 0.479365 2.53055e-20)
(0.983985 0.0295087 1.55409e-22)
(0.994451 0.0127348 1.26403e-21)
(1.19336 0.0962601 0)
(1.00007 0.000342309 0)
(0.993786 0.0144741 3.50362e-21)
(1.01098 0.0124723 0)
(1.23615 0.0173856 2.31841e-20)
(0.999946 0.00164979 -4.20581e-22)
(0.216787 -0.0109629 0)
(0.65194 -0.0577149 0)
(-0.129066 0.0161662 0)
(1.24753 0.18224 2.70212e-20)
(0.346577 -0.0277303 5.67356e-21)
(-0.234367 -0.00931537 0)
(1.11189 -0.00644422 1.12809e-20)
(0.998311 0.0139718 0)
(1.20747 0.0117737 -1.3726e-20)
(1.06357 -0.0143901 4.24893e-21)
(1.06864 0.0967343 1.8535e-20)
(0.999729 0.00831602 -7.13252e-21)
(0.690318 -0.0712955 -2.17978e-20)
(0.530004 -0.064867 1.0961e-20)
(0.706966 -0.0606909 -7.30223e-23)
(0.98392 0.0878811 -5.11581e-22)
(1.17869 0.00241979 -2.06317e-20)
(0.925014 0.0166376 5.054e-20)
(1.06527 -0.0160682 -1.02284e-20)
(1.1553 0.00652372 0)
(1.01933 0.0622454 -7.66862e-22)
(1.09368 -0.0718961 0)
(1.01808 0.0465748 0)
(1.00158 0.000999412 -1.85413e-21)
(-0.0370786 -0.0242517 0)
(0.23945 -0.031356 0)
(0.259624 -0.0344066 -4.02471e-21)
(1.17998 0.21134 -5.51854e-20)
(-0.137567 0.0119426 0)
(0.19278 -0.0325282 0)
(-0.0851648 -0.0232117 0)
(-0.0616309 -0.0119749 0)
(1.01729 0.00192277 2.74591e-21)
(1.13984 0.00540457 -7.11539e-22)
(1.02138 0.0620724 1.00426e-21)
(0.992404 0.031398 0)
(1.24046 -0.028782 -1.10171e-19)
(1.14018 0.016094 -4.67693e-20)
(1.01885 -0.000119239 0)
(1.15808 0.0493726 0)
(1.11257 -0.00110711 -2.42954e-20)
(-0.0536097 -0.00948968 -4.03094e-20)
(1.0023 0.0105119 2.95166e-21)
(1.14858 -0.0362139 -6.66684e-20)
(-0.0094478 0.0112412 4.72079e-20)
(1.22944 0.339763 3.05181e-20)
(0.218741 -0.0148879 -1.76846e-20)
(0.999947 0.00143865 -3.67212e-21)
(0.998348 0.034187 6.49266e-22)
(1.01132 0.000412827 -4.6175e-22)
(1.05355 0.137737 6.67976e-22)
(1.01351 0.00519607 3.1151e-21)
(0.628464 -0.0657972 -9.7793e-21)
(0.397347 -0.238312 -5.8825e-20)
(1.00038 0.140086 4.55445e-21)
(-0.0730257 0.0269278 0)
(1.08548 0.0370855 2.04219e-20)
(1.131 -0.0488313 0)
(-0.0466967 -0.0257435 -5.41962e-20)
(0.824494 0.577951 7.48318e-22)
(1.11051 -0.0600893 4.28074e-20)
(1.12483 -0.0782462 4.44001e-20)
(1.1479 -0.0378342 5.6628e-20)
(1.15625 0.0662191 5.83357e-20)
(1.19705 -0.00415221 0)
(1.09646 -0.0256678 1.95843e-20)
(1.10372 -0.0643467 -2.59817e-20)
(0.375107 0.109699 0)
(1.09221 -0.0339013 -2.23635e-20)
(1.14431 -0.021096 1.72666e-20)
(1.01487 0.00068752 2.61842e-21)
(1.26554 -0.0117089 0)
(1.08956 0.0185908 2.05976e-20)
(1.03053 0.00375148 -7.49083e-23)
(1.04915 0.134165 0)
(1.05697 0.0259196 -6.62286e-21)
(-0.0503055 -0.0124806 0)
(0.449274 -0.0625997 0)
(1.01518 0.024615 -8.52489e-23)
(1.01794 0.000942658 8.89799e-22)
(0.654149 -0.0705873 -1.09501e-20)
(-0.256004 -0.00636211 0)
(1.00006 0.000259567 -1.77577e-21)
(0.196519 -0.0102192 1.76927e-20)
(1.05792 0.00542709 -1.67403e-20)
(1.236 0.162283 2.05667e-20)
(1.01455 0.0265311 1.89232e-23)
(-0.147223 -0.0113805 -3.38445e-20)
(1.18538 -0.0663746 0)
(1.05846 0.0968669 1.42753e-20)
(1.03738 0.0380809 -7.93707e-21)
(0.371574 -0.032064 -1.47374e-20)
(1.24967 0.134206 8.9442e-20)
(-0.255979 0.00959499 0)
(1.00004 0.000309055 0)
(-0.152054 -0.00947806 -5.48203e-20)
(0.135867 0.0584755 1.22287e-19)
(0.964055 0.0285778 2.67841e-21)
(1.03066 0.00426207 -1.24022e-20)
(-0.128207 0.0151824 -1.94745e-20)
(0.306185 -0.0437555 0)
(1.11149 -0.0100166 4.57127e-20)
(1.01009 0.0131555 -4.82602e-22)
(1.00906 0.0476233 0)
(1.08455 -0.0501909 -2.0076e-20)
(1.21235 -0.0222377 5.88575e-20)
(1.01936 -0.000119829 -1.16986e-21)
(1.00906 0.0123803 -5.92421e-22)
(1.00506 0.00244029 -9.09949e-22)
(1.00538 0.00255287 0)
(-0.167594 -0.0119319 6.43586e-20)
(1.23945 -0.0248954 -9.44251e-20)
(1.111 -0.00869561 -4.56703e-20)
(1.25918 0.122417 -1.51587e-21)
(1.00638 0.000648626 4.02019e-22)
(1.01088 0.0055675 -1.51493e-21)
(1.17537 0.000891785 1.01072e-20)
(0.168077 -0.0406422 8.51587e-21)
(1.10683 0.0531115 0)
(1.0336 0.0216236 0)
(0.994795 0.013202 0)
(0.992344 -0.000142117 -1.64171e-20)
(0.903588 0.0191843 7.86578e-20)
(-0.00117585 0.0209869 1.49495e-19)
(1.00051 0.00387672 0)
(0.992551 0.00286829 -1.03135e-20)
(1.09121 -0.0718694 -7.26819e-21)
(1.09697 -0.0241767 -1.95937e-20)
(1.10186 0.00326534 -9.90553e-21)
(0.997332 0.0326494 -9.8753e-21)
(1.02893 0.0637574 2.41995e-21)
(1.04407 0.0952974 2.04583e-21)
(1.14201 -0.0218951 9.50111e-22)
(0.950354 0.495972 0)
(1.26389 0.130621 1.00509e-19)
(1.20813 0.00791102 6.3915e-20)
(1.16314 -0.0127226 0)
(1.23725 -0.0387046 1.26534e-20)
(1.17038 0.121858 -3.98606e-20)
(1.00183 0.0172028 4.95367e-21)
(-0.139976 -0.00959958 4.93245e-20)
(0.992689 -0.000647648 1.0225e-20)
(1.00262 0.0751489 7.67712e-21)
(1.06805 -0.00012831 7.21175e-22)
(1.26593 -0.0127539 -2.91274e-20)
(0.992733 0.290479 0)
(1.0101 0.0012274 0)
(1.23191 0.32863 0)
(1.20332 0.0845897 0)
(-0.0936717 -0.00456586 -5.39684e-20)
(1.16455 -0.0106806 4.17412e-20)
(0.887292 0.135831 -9.40468e-23)
(1.11496 -0.00185583 -2.33922e-20)
(0.999436 0.00342379 5.02654e-21)
(0.478521 -0.0448868 0)
(1.22104 0.318432 -5.42837e-20)
(0.353584 -0.0537028 0)
(1.01741 0.0443968 0)
(1.0968 0.0426892 3.99089e-20)
(1.2622 0.117961 0)
(0.0529924 -0.0284799 -6.39868e-20)
(-0.189769 0.0028457 -1.39696e-19)
(1.14568 -0.00346801 8.19687e-22)
(1.18872 0.213052 -8.216e-21)
(0.991268 0.0883087 -1.76213e-21)
(1.05675 0.0569447 1.35957e-21)
(0.996234 0.0331524 -6.16747e-21)
(0.88921 0.231984 0)
(0.670611 0.183065 0)
(0.973413 -0.00363589 0)
(1.13072 -0.00408655 0)
(0.568908 0.150104 -1.55871e-19)
(0.367557 -0.055239 -9.11198e-21)
(-0.249298 0.0112917 0)
(1.03194 0.0738484 -1.35681e-21)
(1.12915 -0.0483592 -1.92896e-21)
(1.19468 -0.0659364 0)
(1.0044 0.118046 -1.82223e-21)
(0.967946 0.0241444 -1.60636e-20)
(0.174797 0.542951 0)
(0.645622 -0.059202 5.47067e-20)
(0.606481 -0.0694386 2.35125e-20)
(1.25423 0.106072 -1.11081e-19)
(1.01799 0.00202462 0)
(0.144451 -0.0107812 -5.7401e-21)
(1.08552 -0.0495158 1.96683e-20)
(1.01004 0.000907845 0)
(1.09421 0.0747082 -8.23748e-21)
(1.12785 -0.0321209 0)
(0.846523 0.070641 3.20956e-20)
(1.19152 0.0869717 2.0999e-20)
(0.513303 -0.055054 0)
(1.19373 -0.00471925 1.95535e-20)
(1.09262 -0.0222858 2.10122e-20)
(0.479305 -0.0444343 0)
(1.05911 0.0320398 4.84617e-21)
(-0.0818938 -0.00986093 -5.42205e-21)
(0.999985 0.00217137 0)
(1.00051 0.00418348 -1.82369e-22)
(1.02124 -0.080903 -2.65182e-20)
(0.615326 -0.0602342 -3.03414e-20)
(0.376518 0.241256 -1.3196e-19)
(1.05967 0.0306345 -5.16245e-21)
(1.01403 0.0545111 -1.33954e-21)
(0.992983 0.00332544 1.44937e-20)
(1.08148 -0.0358812 8.87511e-21)
(0.0782575 0.175784 1.44696e-19)
(1.0917 -0.0584155 -1.98973e-20)
(1.05905 0.0573785 1.53382e-21)
(1.11057 -0.0583279 -2.31021e-20)
(1.13567 -0.00407533 4.00112e-20)
(1.01441 0.02727 9.46087e-22)
(1.17003 0.487099 3.50088e-20)
(1.09059 -0.0578164 1.46483e-20)
(1.08878 -0.068732 2.63752e-20)
(1.00467 0.0197975 0)
(1.18938 -0.00903997 -1.52431e-20)
(1.05609 0.0274564 -9.37304e-22)
(-0.0172545 0.0492107 -8.64613e-20)
(1.146 0.148141 -3.80645e-20)
(1.00348 0.283477 0)
(1.09794 0.0445952 -3.71604e-20)
(1.00786 0.00288305 -1.25778e-22)
(1.02837 0.0064554 2.81218e-21)
(1.03583 0.0290146 5.7782e-21)
(0.967918 0.353651 4.66236e-22)
(0.890109 0.0197019 0)
(1.25091 0.046671 -6.78716e-20)
(0.470632 0.808983 1.10081e-20)
(1.13025 -0.0117235 -3.82026e-20)
(1.00887 0.00504365 0)
(1.19781 0.00230111 0)
(0.37355 0.271791 0)
(1.1332 -0.0816697 -3.89385e-20)
(1.04088 0.00423198 0)
(0.899678 0.0327316 1.05206e-20)
(1.00853 0.0122778 -9.64294e-23)
(1.07775 -0.016468 0)
(1.07427 0.045265 0)
(0.283998 -0.0439485 -2.14963e-20)
(0.999862 0.00226224 0)
(1.23881 0.505475 -4.61202e-20)
(1.07904 -0.0135373 0)
(1.11706 -0.0630879 8.26589e-21)
(1.17358 0.143443 -1.79105e-20)
(-0.102868 -0.0159759 8.01879e-20)
(1.02628 0.281449 9.93233e-21)
(1.00866 0.0459515 -1.03831e-21)
(-0.0163082 -0.0193696 -3.82312e-20)
(-0.258613 -0.00317366 6.88942e-20)
(1.00634 0.0352956 0)
(1.06698 -0.000926313 2.62603e-21)
(1.19122 -0.0613675 1.06188e-19)
(1.24577 0.108342 0)
(1.16233 -0.0241066 -1.89425e-20)
(1.00016 0.000378622 -2.16066e-21)
(1.03867 0.0380312 0)
(1.19721 0.316043 0)
(1.06682 -0.00859815 -2.40077e-20)
(1.15719 0.0115774 0)
(1.10869 -0.0374148 0)
(1.02905 0.00632665 4.04567e-21)
(1.11478 -0.0244076 0)
(0.580045 -0.0702219 2.57885e-20)
(1.04039 0.00266485 6.14674e-21)
(1.0542 -0.00646492 0)
(1.00452 0.00259374 9.76315e-22)
(0.0903856 -0.00995741 -1.21145e-20)
(0.999953 0.000979697 8.21718e-22)
(0.98422 0.083992 -4.8715e-22)
(-0.287437 -0.00263269 4.3625e-20)
(0.99338 0.0687507 6.42906e-21)
(0.675611 -0.0583322 2.8554e-20)
(1.07615 0.066975 -2.22138e-21)
(0.831304 0.0748228 -6.17295e-20)
(1.00485 0.00271613 1.39974e-21)
(1.02289 0.21575 1.00259e-20)
(1.00068 0.0125851 -6.00005e-21)
(1.15424 0.0742405 -1.16432e-20)
(1.00752 0.00172595 0)
(1.08459 0.261848 -2.40054e-20)
(1.05763 0.00620044 0)
(0.240625 0.141385 -8.35027e-20)
(0.433737 0.68424 4.34229e-20)
(0.165394 -0.0415855 -1.06552e-20)
(1.01085 0.000398417 -3.31196e-22)
(0.999654 0.00279276 -3.86499e-21)
(1.16477 0.11878 3.65732e-20)
(1.12599 0.114274 -7.13909e-23)
(0.050085 -0.0138708 -3.27118e-20)
(0.275829 -0.0506072 4.01399e-20)
(1.1424 0.0247585 4.20108e-20)
(0.992729 0.011549 0)
(1.23521 0.0156084 2.18587e-20)
(0.343623 0.216306 2.77701e-19)
(1.08672 -0.0685858 -2.26152e-20)
(1.24805 0.0500419 8.38312e-20)
(1.13362 0.0107303 3.88994e-20)
(0.556807 -0.0543974 1.79926e-20)
(1.08678 0.131244 -1.10328e-20)
(1.07979 -0.0344268 1.38826e-20)
(1.20479 0.0245107 3.50546e-20)
(0.856089 0.423144 1.22602e-20)
(1.14075 0.0266814 -2.97838e-20)
(0.304908 0.292442 -1.79577e-19)
(1.14109 0.032845 1.82918e-20)
(1.06001 -0.00499702 -8.63349e-21)
(1.1293 -0.0334908 -2.57384e-20)
(1.00709 0.109149 -1.75779e-21)
(1.03406 0.00522411 1.80235e-20)
(1.07768 -0.0154846 4.964e-21)
(1.1131 0.122016 3.20868e-20)
(1.05134 0.0975886 1.24946e-21)
(0.999542 0.0124967 0)
(1.00682 0.000515179 0)
(1.13309 -0.00836343 3.78086e-20)
(1.06377 0.0116758 -1.63858e-20)
(1.16013 0.0130388 3.97792e-21)
(0.993425 0.0112305 0)
(0.995272 0.00880607 0)
(0.999962 0.000776745 5.64544e-23)
(1.02475 0.0639112 1.10342e-22)
(1.02363 0.00128418 -5.60095e-21)
(1.0496 0.0832913 9.92161e-21)
(1.00401 0.00275082 -3.03251e-22)
(-0.154579 -0.0106427 0)
(1.09111 -0.0443076 0)
(0.470417 -0.284191 -1.24295e-20)
(1.01231 0.00528344 3.65173e-22)
(1.00007 0.00164778 4.9346e-21)
(0.80232 0.144998 -4.28874e-20)
(1.15957 0.0641049 -6.85732e-20)
(0.953384 0.00336496 0)
(0.806649 0.00142904 7.70442e-20)
(1.13569 0.198352 6.40914e-20)
(0.994981 0.110039 -9.06627e-20)
(1.07904 -0.0145499 -6.43476e-21)
(1.18489 0.000480846 2.50869e-20)
(1.05209 0.0159634 7.21726e-21)
(0.999907 0.00104263 5.43455e-21)
(1.00563 0.00227806 0)
(1.03634 0.0585501 -1.20913e-20)
(-0.31636 -0.000130281 -1.07711e-19)
(1.00005 0.00139749 -6.9776e-21)
(1.17574 -0.0468761 2.60538e-20)
(1.05098 0.0857115 0)
(-0.194163 0.0232968 -6.92022e-20)
(0.967401 0.225182 -9.1193e-21)
(1.14296 0.196336 -3.64062e-20)
(1.11547 -0.0624716 3.91425e-21)
(1.02109 0.00647465 0)
(1 4.38291e-05 0)
(1.09237 -0.0446814 0)
(0.988147 0.0034074 0)
(0.985481 0.0432643 5.46717e-21)
(0.946263 0.000506463 0)
(1.01375 0.0583546 7.9476e-22)
(0.998612 0.000818384 2.36557e-21)
(1.08651 0.0552667 -2.79854e-20)
(1.00632 0.00778294 -5.94066e-22)
(1.01685 0.000882929 -1.93089e-21)
(1.05786 0.0926658 -7.36168e-21)
(0.884837 -0.0235506 0)
(0.0292744 -0.0100644 -1.91429e-20)
(1.0821 0.111283 1.87177e-21)
(1.04038 0.00214209 7.23616e-21)
(1.00924 0.000950955 0)
(0.0843429 -0.0329841 3.03041e-20)
(0.953389 0.361262 0)
(1.00222 0.0424503 -4.25812e-21)
(1.01845 0.0437383 -3.74024e-23)
(0.898579 0.00464766 -1.18874e-19)
(1.1951 -0.0628962 4.43649e-20)
(-0.294518 -0.00527098 1.09518e-19)
(0.895089 0.136315 0)
(1.06091 -0.00420886 4.32291e-21)
(1.01194 0.00317925 -9.21039e-22)
(1.01708 0.00104437 3.94117e-21)
(1.09368 -0.0340076 -3.57365e-22)
(1.08678 0.112328 -1.08598e-21)
(1.13014 -0.0707557 -2.49988e-20)
(0.917674 0.0195234 0)
(0.140925 -0.0235633 -2.56017e-20)
(1.02887 0.043238 6.25221e-21)
(0.965157 0.0594902 1.33181e-20)
(-0.304037 -0.00179156 -1.22182e-19)
(0.995497 0.0102955 0)
(1.0906 0.0169773 -2.37958e-20)
(1.00519 0.0317241 4.41431e-21)
(1.00203 0.00128642 2.05391e-21)
(1.10582 0.127482 3.44577e-21)
(0.773637 -0.00782267 -4.52296e-20)
(1.04966 0.0280649 0)
(0.639651 -0.0589481 0)
(0.301086 -0.0133232 -1.48258e-20)
(1.17793 0.138538 1.59557e-20)
(1.00214 0.0178112 8.65215e-21)
(1.02551 0.00287848 -2.44295e-23)
(1.09723 -0.0581919 -4.02409e-20)
(1.19777 -0.0437301 -3.86248e-20)
(1.00007 0.000424826 2.48013e-21)
(1.23033 -0.0418 5.9251e-20)
(1.025 0.0030296 0)
(1.10958 0.116917 -2.82439e-20)
(1.03499 -0.00123274 0)
(1.0352 0.00693097 -1.60793e-20)
(1.2215 -0.0218312 4.29489e-20)
(1.04049 0.0163466 -1.41126e-20)
(1.00021 -0.0663113 0)
(1.11499 0.0897176 -3.41766e-21)
(0.999956 0.000714692 6.90655e-21)
(1.02045 0.00354721 0)
(0.981258 0.00117127 1.04381e-20)
(1.00971 0.0204013 0)
(1.05374 -0.00547344 -5.07369e-21)
(0.272045 0.686803 -6.4426e-20)
(1.03913 0.0045185 1.43996e-20)
(1.0313 0.0107777 -6.62307e-21)
(0.347043 -0.0587001 0)
(0.575187 -0.0657678 4.52478e-22)
(1.09395 -0.0236146 9.18509e-21)
(1.12063 0.115538 0)
(1.15041 0.00295676 -5.95508e-20)
(1.07769 0.0249486 3.43743e-20)
(1.02475 0.0145609 0)
(0.887795 0.0123938 -1.84354e-20)
(-0.123446 -0.0132761 7.91591e-20)
(1.09436 0.263212 0)
(0.998279 0.00540402 5.80697e-21)
(1.03606 0.0372184 8.88757e-21)
(0.30628 -0.0530599 0)
(1.11469 0.0206722 2.97275e-20)
(-0.107628 -0.0139027 3.19209e-20)
(0.999958 0.000934473 -7.6911e-21)
(0.950981 0.00419049 1.55657e-20)
(0.0735152 -0.00895925 1.99966e-20)
(1.1072 0.0147761 4.01729e-20)
(1.05179 0.0266792 0)
(-0.310001 0.00148416 2.19357e-19)
(0.212839 0.238859 1.35777e-19)
(1.00998 0.0198653 0)
(1.20062 0.0258303 0)
(1.00595 0.0023931 0)
(1.03934 0.0163072 1.45139e-20)
(1.01268 0.00556186 0)
(-0.118139 -0.0169735 2.81215e-20)
(1.02324 0.00113352 6.68153e-23)
(1.03972 -0.00326176 6.76688e-21)
(1.0253 0.0141248 0)
(0.951391 -0.0658443 0)
(1.06328 -0.0122085 1.23318e-20)
(1.24018 0.155553 -2.01821e-20)
(0.701342 -0.0937242 6.74723e-20)
(1.03577 0.00512885 -2.27671e-21)
(0.844722 0.0275302 -1.20715e-20)
(1.00054 0.00367873 2.09817e-21)
(-0.14437 -0.0120107 3.41419e-20)
(1.00549 0.0103803 -1.66905e-21)
(1.03981 0.0039859 -1.16705e-20)
(0.998674 0.00131599 0)
(1.09815 -0.0588875 5.54885e-20)
(0.998503 0.00119951 3.53129e-22)
(1.19265 -0.00855083 2.38992e-20)
(0.309418 -0.00855453 6.97265e-21)
(0.694894 -0.0756496 1.27861e-20)
(0.904561 0.0332254 -3.85436e-20)
(1.13026 -0.0771868 1.11759e-20)
(-0.262409 -0.00406868 -6.51975e-20)
(0.996726 0.0273157 0)
(0.125424 -0.00780448 1.3618e-20)
(0.410155 0.0412232 -1.49898e-19)
(-0.240785 -0.00444554 -4.3623e-20)
(0.333433 -0.0271375 2.12409e-22)
(0.328344 -0.0576735 1.49543e-20)
(0.109548 0.166163 -1.02288e-19)
(1.19443 0.00357916 0)
(1.01073 0.0485956 1.31063e-21)
(0.498067 -0.0531901 0)
(1.10658 0.0167644 -2.81505e-20)
(0.436916 -0.0545208 -1.31824e-20)
(1.02997 0.00463797 4.45583e-21)
(1.02413 0.0232747 0)
(1.00367 0.0434314 8.30906e-21)
(1.00057 0.00397547 0)
(1.08263 0.0204687 2.17278e-20)
(0.891314 0.0920328 -6.91075e-21)
(0.0946094 -0.0163097 3.09205e-20)
(1.02396 0.0222977 0)
(0.993837 0.00413013 -9.97537e-21)
(-0.225031 0.0163333 -1.3524e-19)
(0.972474 0.453278 1.09176e-22)
(0.981421 -9.97983e-05 0)
(0.811807 -0.0530472 3.96546e-20)
(1.09396 0.0572617 0)
(1.0455 0.02199 4.51474e-21)
(0.496134 0.721141 0)
(0.805597 -0.0478311 0)
(0.951968 0.0515693 1.78269e-20)
(1.06366 -0.0114794 -1.25811e-20)
(0.279671 -0.00921746 1.5432e-20)
(-0.289208 -0.00141703 1.24787e-19)
(0.222622 0.0611018 -2.20063e-19)
(1.03452 -0.000778445 0)
(1.24653 0.141678 4.53678e-20)
(1.19986 0.0807735 -1.37879e-20)
(-0.224247 0.0033211 -7.00644e-20)
(0.390137 -0.0572486 -3.69089e-20)
(1.08983 -0.0523582 0)
(1.01563 0.0265905 -1.68721e-22)
(1.05312 0.0166976 -7.32628e-21)
(1.02746 0.0435857 -5.6694e-21)
(1.01986 4.24127e-05 3.99673e-21)
(1.0274 0.0650023 -2.6413e-21)
(1.01725 0.00167857 1.998e-21)
(1.04646 0.0937303 2.9032e-21)
(1.08261 0.131051 2.4558e-20)
(-0.0535961 0.0267855 0)
(1.15261 -0.0402421 0)
(1.04017 -0.00272577 -1.09173e-20)
(1.18159 -0.000488394 -2.31717e-20)
(-0.068478 -0.0244381 5.34588e-20)
(1.10246 0.122296 4.60904e-20)
(0.972412 0.0240511 1.28378e-20)
(-0.0890312 -0.00826687 6.20217e-21)
(1.0308 0.0200218 -3.73956e-21)
(0.986341 0.0412386 1.05288e-20)
(0.817621 0.0640545 -2.44317e-21)
(-0.0152538 0.033765 0)
(0.998422 -0.000199457 -1.034e-20)
(1.00423 0.0201122 -2.16842e-21)
(0.465959 -0.0611995 -3.33151e-20)
(1.11789 -0.0748065 0)
(1.19262 -0.0665842 -1.22412e-19)
(1.16424 -0.0176634 -4.14882e-20)
(1.12863 -0.0794292 -2.34315e-20)
(1.00786 0.01914 0)
(1.20465 0.00239556 -7.70205e-20)
(0.971481 0.0259536 0)
(1.00361 0.0108848 2.44268e-21)
(0.969297 0.0219086 0)
(0.587306 -0.0642928 2.61262e-20)
(-0.272455 -0.0063542 -6.43687e-20)