/*--------------------------------*- C++ -*----------------------------------*\
| =========                 |                                                 |
| \\      /  F ield         | OpenFOAM: The Open Source CFD Toolbox           |
|  \\    /   O peration     | Version:  v2012                                 |
|   \\  /    A nd           | Website:  www.openfoam.com                      |
|    \\/     M anipulation  |                                                 |
\*---------------------------------------------------------------------------*/
FoamFile
{
    version     2.0;
    format      ascii;
    class       volScalarField;
    location    "300";
    object      nut;
}
// * * * * * * * * * * * * * * * * * * * * * * * * * * * * * * * * * * * * * //

dimensions      [0 2 -1 0 0 0 0];


internalField   nonuniform List<scalar> 
37809
(
7.08358e-05
0.00269339
0.00583571
0.00127791
0.0138745
0.00137844
3.98426e-05
5.49954e-05
0.0001706
0.0012146
0.000293594
0.00402654
0.000616866
0.000618968
0.00148259
0.000720383
0.00583208
0.010609
0.00253992
5.11883e-05
9.6797e-05
0.000100345
0.0111306
0.00583124
0.000116472
0.00246167
0.000705871
0.00178586
0.00583548
4.31423e-05
0.000788194
0.00242677
0.00583124
2.64787e-05
0.00473786
0.00583217
0.00587215
0.00147726
0.000831783
0.000252778
0.0103783
0.00160122
0.00302551
0.00126858
0.00432395
0.00171452
0.0011435
0.00790868
0.000583532
0.000229875
0.00328353
0.00583724
0.00583134
0.00186202
0.0025515
0.00583118
0.000336401
0.00175293
0.000866589
0.000149762
0.00303891
0.000813275
0.000607591
0.000680666
0.000811022
0.000120103
0.00304641
0.00239699
0.00259519
0.00187154
0.00109708
0.000164981
0.00328047
0.000650875
0.00184909
0.00586103
0.000281039
9.40779e-05
8.53902e-05
0.000526197
0.00583939
0.00583559
0.00842374
0.00121622
0.00433234
0.0018418
0.00106884
0.000146282
0.00109504
0.000270633
0.00118793
0.00162901
7.08387e-05
0.00814102
0.00102495
0.0093595
0.00311258
0.0033056
0.00217837
0.00585296
0.00077966
0.00311123
0.000696809
0.00981527
0.00173251
0.00583476
4.29655e-05
0.000788351
0.000109441
0.00405952
5.92771e-05
0.0012988
4.94134e-05
0.000843638
0.000381685
0.000881542
0.00196128
0.00349401
0.000696756
0.00319659
0.00583614
0.00228664
0.000820113
0.0122577
0.00150038
0.00206463
0.00110003
0.0028766
0.000284806
0.00253925
0.000651246
0.00115518
0.00200316
0.00583275
0.000560384
0.00588889
0.0035095
0.000823152
0.000475606
0.000730915
0.00496712
0.00291693
0.000203817
0.0105807
0.00320951
0.00273518
0.0014315
0.000927582
0.0080294
0.00593415
0.00189872
0.00275423
0.00160141
0.000663725
0.000411077
0.00594878
0.00162609
0.000701261
0.0017715
0.000276537
0.000286643
0.00102544
2.31861e-05
0.00340278
0.000991259
0.00583959
0.00583475
0.00286205
0.000820251
0.00041497
0.000355475
0.00583519
0.00563392
0.0014667
0.00265975
0.000571999
0.00172296
0.000279637
0.0137449
0.000112611
0.00331356
0.00237508
0.00583144
0.00174158
0.00585337
0.000795323
0.00236065
0.00117996
9.48534e-05
0.000351747
0.000241432
0.003107
0.00243831
0.00178655
0.000235976
3.17605e-05
0.00465696
0.00583211
0.00583074
0.000867621
0.000168926
0.000296484
0.00231872
0.000117635
0.00296457
0.00585363
0.00135275
9.22104e-05
0.00583565
0.00126447
9.29878e-05
0.00268309
0.00582977
0.00372621
0.00584183
0.000176981
9.87499e-05
0.00534117
0.00582985
0.00118678
0.00823748
5.63091e-05
0.00169474
0.00223482
0.00583912
0.0119979
0.0128343
0.00112814
0.00036912
0.000472493
0.00178531
4.46573e-05
0.000783954
0.000909485
0.000272534
0.000194505
0.00583155
0.0126828
0.00111939
0.000251787
0.00978847
0.00583498
0.000190823
0.00219805
0.00440145
0.00583655
0.00583587
0.00582812
0.000443462
0.0058558
0.00583348
0.00583136
0.00583346
0.0144044
0.00301501
0.00272989
0.00583139
0.00583497
2.10241e-05
0.0062916
0.000603637
0.00239869
0.000276465
0.00222737
0.00173948
0.000104726
0.00114793
0.000793112
0.00429082
3.5045e-05
0.00201968
0.00584227
0.0127169
0.000164566
0.00583134
0.000228242
2.56745e-05
0.00583346
5.81326e-05
0.00583481
0.00342919
0.000941919
0.000776803
0.00583119
0.00142179
0.00583681
0.00346373
0.0058326
0.00285228
0.00344183
0.00583404
0.00106734
0.000127118
0.00583111
0.00321174
0.0011538
0.00112889
0.000924508
0.00280757
7.06859e-06
0.00115251
0.0013967
0.00586133
0.000772525
0.000735736
0.00113997
0.00583562
0.00090508
0.00957318
0.00583449
0.00140324
0.0145249
0.0016787
0.000182105
0.00583605
0.0123423
0.000768109
0.0024741
4.05585e-05
0.000189119
0.000531868
5.63117e-05
0.000182762
0.000948487
0.000885357
9.37429e-05
0.000690412
0.00443724
0.00583564
0.000881283
0.00583168
0.00590146
0.00351572
0.000689333
0.0058351
0.00583291
0.00147306
0.00253162
0.00583172
0.000387619
0.00584064
0.00062446
2.06455e-05
0.00181062
0.00093474
0.000876064
6.99316e-06
0.00583347
0.00186671
0.00158488
5.33834e-05
4.23323e-05
0.00402742
0.0022651
0.000699888
0.00131312
0.00585606
0.00117301
0.00471593
0.0102607
0.0022833
0.000702595
0.00274494
0.00287206
0.00603926
0.011433
0.000155604
0.000595242
0.00133408
0.00583342
0.000588026
7.26197e-05
0.00135166
0.000180013
0.000343804
0.00583994
0.00106942
0.0058583
0.00200968
1.74265e-05
0.00337653
0.000800101
0.00280882
0.000866971
5.80682e-05
0.000491822
0.00100389
0.000241949
3.96054e-05
0.00583864
0.00583454
0.00260559
0.00583573
0.00215285
0.000544178
0.00127074
0.00298904
4.04338e-05
0.000973686
0.00583574
0.0125011
0.00131241
0.00583801
0.00288156
0.00589903
7.3992e-05
0.00583442
0.0125123
0.0084946
0.00707881
0.000100805
0.000943229
0.000263669
0.00169376
0.0058639
0.000163284
4.08633e-05
0.000630016
0.00583601
0.00583126
0.0113566
0.000782189
4.72908e-05
0.000797569
0.00583256
0.0130499
0.00217249
0.000272114
0.00035187
3.56041e-05
0.00539488
0.000126362
0.00111693
0.000856882
0.0115454
0.00175431
0.00211983
0.0124948
0.000444999
0.00583155
0.00121133
9.25421e-05
0.000553275
0.0014001
0.00583418
0.00513004
0.0076822
0.000479139
0.00125166
0.00101399
0.000993437
0.00583999
0.000837035
0.00583512
0.00283628
0.00583099
0.00587163
0.00583126
0.00218073
0.00523257
0.00173354
0.000623045
0.000223845
0.00122832
0.00246402
0.00235227
0.00240316
0.000325862
0.00752035
0.00583486
0.000977448
0.00550955
0.00583346
0.00415616
0.00150255
0.0058412
0.000291357
0.00225376
0.00172045
0.0058349
0.00583368
0.00520749
0.000989594
0.0058584
0.000884029
0.00583431
0.000967826
0.000853743
0.00903368
0.00328859
0.00305416
0.00154614
0.00150313
0.00328532
0.000400218
0.00836736
0.00582835
0.00104933
0.000461751
0.000421739
8.03762e-05
0.000636908
0.0116847
0.0037691
0.000659531
0.000421951
0.00092239
0.00179243
0.00254482
0.00247339
0.00586199
0.00584105
0.0130676
0.000432607
0.00254045
0.000222783
0.000497744
0.0016196
5.1268e-05
0.000589139
0.00061254
0.000520471
0.00583346
0.00103222
0.00249117
0.000994497
0.00066647
0.0131756
0.000132483
0.000868182
0.000885382
0.00113944
0.00055341
0.000169813
0.00583599
0.00584041
0.00426341
0.0038133
0.00583537
0.00583259
0.000272578
0.00103264
0.00897363
0.0010151
0.000334211
0.00206501
0.00328327
0.000389966
0.00147454
0.00583611
0.000939805
0.00125772
0.00583344
0.000255797
0.00639211
0.000970453
0.0058338
0.000108738
2.87036e-05
0.000284308
8.50667e-05
0.00192973
0.000958563
0.00583951
0.00130309
0.00163292
0.000453874
0.00247414
0.00932622
0.000787753
0.00583607
0.00110892
0.00440902
0.00175363
0.00535305
0.00583485
0.00956609
0.00150975
0.00583794
0.00583861
0.000672762
0.000241757
9.28503e-05
0.00104086
0.00164716
0.00272895
0.0132802
0.000650409
0.00185958
0.0129209
0.00345325
0.00583146
0.000959501
0.00134186
0.00217525
0.00583496
0.00583824
0.00876667
0.00147473
0.00583311
0.0025204
0.00583611
0.00272893
0.000341685
2.47621e-05
0.0022289
0.00141939
0.00152855
0.000259668
0.000604874
0.0058308
0.00220223
0.00353617
0.00119292
0.00269986
0.00148121
0.00220981
0.0153263
5.01051e-05
5.55969e-05
0.00583348
0.0133273
0.0109273
0.00098681
0.00164917
0.00138025
0.00140824
0.00583146
0.00426196
0.00499126
0.000336474
0.0101687
0.00134441
0.00966406
0.00583467
0.00483047
0.00111729
0.000728066
0.00529826
0.00798178
0.000686557
0.00144082
4.37664e-05
0.000189895
0.00239825
8.71183e-05
0.000710778
0.00461928
0.00583906
0.00182791
0.00241879
0.000267663
0.0106993
0.00426512
0.000112374
0.000531398
0.00905922
0.00120307
0.00887688
0.000387099
2.15146e-05
0.00256977
0.00583264
0.000285729
0.00346374
0.00137901
5.22808e-05
0.000291224
0.00161561
0.000773584
0.00236129
0.0154296
0.000364631
0.00583424
0.00145939
0.00584046
0.000695908
0.00435706
0.00592511
0.000750526
0.000820687
0.0115604
0.00124762
0.00583584
0.00786171
0.000173553
0.00923758
0.00285474
0.00184497
0.00273489
0.000490946
0.000369781
0.00213708
0.000111122
0.0046463
0.00253756
0.00247846
0.00343185
0.00495435
0.000771653
0.0141855
0.0153917
0.00446174
0.00583183
0.00213757
0.000727121
0.000423614
0.000270476
0.00154767
0.00177019
0.00106236
0.00102451
0.0115649
0.000249284
0.000703974
0.0066656
0.00284935
0.000267397
0.00129354
0.00113623
0.00190824
0.0116225
0.000328834
0.00107973
0.000398862
0.000408618
0.00036573
0.000829627
0.000254298
0.000910749
0.000308201
0.00220625
0.00169597
0.00149285
0.00227341
0.00430755
0.00192658
0.00309955
0.00176896
0.000707789
2.25547e-05
0.00213274
0.00413345
0.000244395
0.00656212
0.00583462
0.000710601
0.000109468
0.000851151
0.00583572
0.00202137
0.00228314
0.000851687
0.00108164
0.00395112
0.00583333
0.00161723
0.0148278
9.25899e-05
0.000476307
0.00583561
0.00583143
0.000346723
0.00583518
0.00583477
0.000829467
0.013649
0.000790377
0.00606724
0.00583206
0.000786068
7.68705e-05
0.0130846
0.00011344
0.000313385
0.00048823
1.05506e-05
0.00586895
0.00583136
0.010245
9.55342e-05
0.000400035
0.000347612
0.0138669
0.00207695
3.83771e-05
0.0018527
0.000783333
0.0072753
0.000862651
0.00886626
0.000215674
0.000198632
0.00140654
0.000141795
0.00026006
0.00107052
0.0045537
0.00390988
6.44185e-05
0.000919084
0.00583134
0.00260916
0.00583838
0.00134334
0.00590134
0.000338949
0.00440254
0.000265207
0.000726718
0.000406973
0.00583693
0.0114774
4.82618e-05
0.00583159
0.00259453
0.00717588
0.000812666
0.0011885
0.00129149
0.00161683
0.000662013
0.00585003
0.00102081
0.0152297
0.0151674
0.0114366
9.37709e-05
0.000341084
0.000110385
0.000153087
0.000886868
0.0100197
0.002587
0.000530655
0.00583561
0.000729158
4.77866e-05
0.00218665
0.00602197
0.00313567
0.000312162
0.0058349
8.94304e-05
0.00282197
0.000197961
0.00226584
0.00334912
0.000347842
0.0103088
0.00583714
0.000320397
0.000348526
0.00583059
0.000475561
0.0149417
0.00127264
0.00159322
0.000660658
0.000863749
0.00121358
0.000647923
0.00583305
0.00025794
0.00584967
0.00583489
0.00578914
0.000974344
0.000623512
0.00184085
0.00583595
0.00170318
0.00587154
5.12673e-05
4.03612e-05
0.0010084
0.000775996
0.00250004
0.00583172
0.000112213
0.00583414
0.00209803
0.00583564
0.00178401
0.00849904
0.000500826
0.000275806
0.00264565
0.00128664
0.000214161
0.00992868
0.00583346
0.000517446
0.00196117
0.00255786
0.00583574
0.00161525
0.00216393
0.000156001
0.000533307
0.000624879
9.46759e-05
0.000412999
0.00509155
0.00380228
0.00583079
0.00119639
0.000973723
0.00183874
6.16891e-05
0.000923032
0.000248965
8.93887e-05
0.00573453
0.000435955
0.00583391
0.00148263
0.0144488
0.000839548
0.00124239
0.000964179
0.00215163
0.00051953
0.000700694
0.000473046
0.00106806
0.00706391
0.00583348
4.52779e-05
0.00573166
0.000396929
0.0007726
0.00332244
0.000642771
6.91468e-05
0.000340139
0.000130719
0.0058665
0.000644604
0.000873796
0.00047066
0.00583041
0.00147708
0.00465568
0.000236251
0.00582948
0.000606236
1.87297e-05
0.00151131
0.000857452
0.0027319
0.000525766
0.00583564
0.000256561
0.00072714
3.66952e-05
0.00156742
0.00103041
0.000273461
0.005841
0.00583536
0.00108624
0.00584133
0.00583836
0.0016517
0.000979884
0.000131647
0.00044596
0.00584613
0.00587382
0.00586545
0.00120831
0.00253655
0.000949223
0.00435947
0.00586879
0.00308202
0.0042174
0.00148519
2.58321e-05
0.00102158
0.00137391
0.000140474
0.0037422
0.0124523
0.0058337
0.000971534
0.000774182
0.00334657
4.71486e-05
0.000248194
0.00583197
0.00314065
0.00146391
0.00194664
0.0016328
0.00854673
0.000580329
0.00232145
0.00431589
0.000100475
0.000147728
0.00306603
0.00583126
0.00180519
0.00532001
0.00147181
0.00262954
2.72605e-05
0.0152299
0.00583613
0.000452603
0.00110081
0.0141577
0.000235688
0.00101073
0.000334201
0.00584099
0.000950741
0.00539682
0.0058418
0.00440533
0.00250987
0.00155824
0.00584056
0.000228566
0.000778667
0.00584145
0.00583601
0.000177036
0.00889974
0.000808823
0.00033567
0.00362716
5.62283e-05
7.39845e-05
0.00583688
0.000592862
0.000150537
0.00102387
0.0102079
0.000307411
0.00269063
0.000600062
4.37314e-05
0.00114893
0.000168918
0.00112571
0.000600178
0.000512158
0.00583764
0.000351366
0.000424949
0.000469575
0.00507009
0.00288901
0.0010764
3.18673e-05
0.00149118
0.00585782
0.00583612
0.0058407
0.00583198
0.00583475
0.000795369
0.00263851
0.000375532
0.00167155
0.000384363
0.00042791
0.00486465
0.0138129
0.000365263
0.00124407
0.00160215
0.00163152
4.25143e-05
0.00102012
0.000221745
0.00575312
0.0120482
0.00583171
0.000221328
0.000202603
0.000949441
0.000270073
4.72791e-05
0.00584167
0.00282173
0.00347753
0.00193784
0.00409087
0.00106966
0.000627731
0.00039041
0.000389865
0.00583187
0.00583394
0.00520384
0.0048366
0.00243054
0.00516406
0.0014147
0.00583822
0.00600293
0.0059755
0.000350845
0.00875947
0.00583602
0.00583459
0.000842459
0.002175
0.00126447
0.00583552
0.00889828
0.00583542
0.00583723
0.0011074
0.000181958
0.000370164
0.000404819
0.0012233
0.00483384
0.00132334
5.67518e-05
0.00583267
0.00249797
0.00437929
0.0133934
0.00119479
0.00180934
0.00160168
0.00105247
5.89423e-05
0.000361526
0.00583285
0.000661848
0.00173733
0.000963812
0.00078164
4.84347e-05
0.000191012
0.000716423
3.31928e-05
0.014142
0.000244662
0.00337993
0.000716768
0.00207022
0.000817463
4.07262e-05
0.00145037
0.00010525
0.000353118
0.00128114
0.00271375
0.00582998
0.00373957
0.00025097
0.00150307
0.00197677
0.00583533
0.00212731
0.00162814
0.000571188
0.00759772
0.000461086
0.00583159
0.00583293
0.000972883
0.00430634
0.00582864
0.0150574
0.00155736
0.00770529
0.00187689
0.000459518
0.00292417
0.001372
0.000589586
0.000538178
0.000578811
0.00585188
0.00770116
0.00111637
0.00586909
0.000504307
0.00378353
0.00591366
0.00192788
0.0121684
0.00812417
0.000246286
4.35323e-05
0.000410271
0.000868891
0.00583275
0.000819988
0.00121749
0.00327901
0.00583381
0.00212296
4.97007e-05
0.000808704
0.00158626
0.000423771
0.0058284
0.00583424
0.00351448
0.00583343
3.69568e-05
0.0001402
0.00434859
0.00416544
0.000322251
0.000476311
0.00583569
0.000287442
9.62821e-05
0.0058339
0.000620438
0.00397883
0.00714617
0.000151544
0.0013889
0.00583352
0.000683809
0.00135607
0.00763384
0.0133961
0.00189748
0.00133354
0.00109378
0.00016641
9.91807e-05
0.00129421
0.012371
0.00360458
0.00137791
0.000564033
0.00585638
0.0021044
0.00058069
0.00583595
0.00224777
0.000829918
3.50099e-05
0.0030482
0.00583426
0.0101238
0.00583467
0.00565455
0.00265369
0.00160892
5.97979e-05
0.00583272
0.000849056
0.0120503
0.000490514
0.00583253
0.00137737
0.00117795
0.00731035
0.00127026
0.000510913
0.00583427
0.00258226
0.00583008
0.00713399
0.000258105
0.000643551
0.0149607
0.00583677
0.00583563
0.000413921
0.00583245
0.000627708
0.00162468
0.00196083
0.00243678
0.000260233
0.00846515
0.00258946
0.00583105
0.00115129
0.000607174
0.000758655
0.00583572
0.00161871
0.000546202
0.000754683
0.00024324
0.00155545
0.00583257
0.00532379
0.0136737
0.00554604
0.00244115
0.000552738
0.000314093
0.0108171
0.00586382
0.000104869
0.00925981
4.60136e-05
0.00592657
0.000222399
0.00587658
0.00583329
0.00584425
0.00449864
0.00124168
0.000359967
0.000493699
0.00713169
0.00459032
0.00583141
0.00814817
0.000476982
0.00167607
0.00848234
0.00403598
0.0100858
0.00583161
0.00159817
0.00217967
0.000453929
0.00139712
0.00112863
0.00321393
0.00583347
0.00583029
0.00105091
0.000232749
0.000698977
0.00583253
0.00311071
0.000384677
0.00243027
0.0127364
0.0012665
6.87454e-05
0.00148051
7.19376e-05
0.00583173
0.00209952
0.00274242
7.50444e-05
0.011444
0.00101824
0.000451562
0.00115249
0.00124945
0.00596809
0.000524997
0.00583815
0.00119175
5.7223e-05
0.00583538
0.0058326
0.00149963
0.00259069
0.00583507
0.00583499
0.00583517
0.0058345
0.0048159
0.00890034
0.000824839
0.00592505
0.00185851
8.21026e-05
0.00583873
0.000748091
0.00583523
0.00583759
0.0026861
0.00164319
0.000772726
0.00212693
0.000924585
0.00583533
0.00150475
0.000929115
0.000882446
3.56488e-05
0.00100689
0.00125558
0.00583132
0.00583528
0.00584377
4.0179e-05
0.00582999
0.00583383
0.0112345
0.00150013
0.00039009
0.00582983
0.00149046
0.000185541
0.00228562
0.00371888
0.000667413
4.87869e-05
0.00583208
0.000553966
0.00126814
0.00137358
0.00257127
0.00883419
0.00562926
0.000102983
5.73487e-05
0.000337355
0.00145561
0.00217737
0.00961613
0.00341317
0.00845289
0.0024136
0.0146855
0.00583576
3.27575e-05
0.00559005
0.00583779
0.0133633
0.00583571
0.00177651
0.0112328
0.00582985
0.00141616
8.42496e-05
0.00701082
0.00156166
0.00205486
0.000160212
0.00583541
0.00256382
0.000201819
0.000318649
0.00865099
0.00583362
0.00425315
0.00443836
0.000311764
0.00669688
0.000624856
0.00463767
0.00128742
0.0058318
0.0146614
0.000936391
0.00710799
0.00578082
0.000125487
0.000218669
8.80468e-05
0.00118816
0.00749547
0.00583465
0.00583344
0.000147431
0.00583375
0.000167346
0.00098314
0.00170287
4.02713e-05
0.00105503
0.00131253
0.0123145
0.000645874
0.00583274
0.000824557
2.40464e-05
0.00250283
0.00137866
0.00583488
0.00937063
0.00583781
0.0104028
0.00491611
0.000278569
0.00145464
3.69846e-05
0.000835656
0.00113
9.87904e-05
0.00583472
0.000354177
0.00211555
0.00587618
0.00109692
0.00583156
0.00583602
0.00962683
0.00483137
0.0130091
0.00326051
0.00583287
0.00583448
0.000643934
0.000721547
0.00583859
0.000709015
0.005839
0.00583276
0.000601311
0.000918953
0.0015321
0.00019557
2.07306e-05
0.00039034
0.00583525
0.00583604
0.00583565
0.00248832
0.00951197
0.00584963
0.0014233
0.00856928
0.00583507
0.000365352
0.00583535
0.00583383
0.00910872
0.0058492
0.000891335
0.00583437
0.00584112
0.00583382
0.0029142
0.00174257
0.000328782
0.0121225
0.000442788
0.0011173
0.00150109
0.00583515
0.000307468
0.00262734
0.00584518
0.00583456
0.000428215
0.000773923
0.00184206
7.51001e-05
0.0029465
0.00583614
0.00584054
0.00119961
0.0058335
0.000754823
0.000747663
2.72639e-05
0.000640241
0.00143638
0.01192
0.00583192
0.00144123
4.20013e-05
0.000561327
0.000287465
0.000871252
0.0012794
0.00538789
0.00151714
0.00583983
0.00547748
0.00171022
0.000763345
0.00101029
0.000943569
0.000277156
0.00583563
0.00418227
0.0114096
0.00272826
0.00162946
0.000290903
2.75623e-05
9.98974e-05
0.000996999
0.000791052
0.000510817
0.00583345
0.0019623
0.0058326
0.0058329
0.00583645
3.82819e-05
0.000322382
8.67281e-05
0.000628113
0.00208641
0.00995025
9.2472e-05
0.00107162
0.0114044
0.00256655
4.35527e-05
5.66776e-05
0.000729462
0.00562213
0.000118134
0.00583274
0.011473
0.00583
0.014232
0.00583335
0.00242081
0.0103922
0.00132178
0.00337025
0.00081685
0.00165317
3.68063e-05
0.000306813
0.0155299
0.00211328
0.000815424
0.000422588
0.00161795
0.0027743
0.000348277
0.0100331
0.000292904
0.00106883
0.012349
0.00298608
0.000100246
0.0035941
0.00173624
0.0028452
0.00584224
0.00535898
0.000735962
0.000204277
0.00139543
9.34128e-05
0.000890992
0.000211498
0.00130947
0.00303035
0.000336568
0.00199294
4.91154e-05
3.86886e-05
0.00583645
0.00582978
0.000294355
0.000334582
4.47298e-05
9.67301e-05
0.000349195
0.00167407
0.00202684
0.00155551
0.0010725
0.000228552
0.00498656
0.000733206
0.00108039
0.00587405
0.000128869
0.00582992
0.000587697
0.00583731
0.00583563
0.00490473
0.00199545
0.0149761
3.70943e-05
0.00584678
0.00956778
0.000290657
0.00885886
0.000744291
0.00084035
0.00277202
0.00135925
0.000145198
0.00496059
0.00043445
0.00110778
0.00586187
0.00583473
0.000994241
0.00583395
0.00103702
0.00265155
0.00583833
0.0012954
0.000817879
0.013587
0.00288546
0.00107359
0.00463525
5.50119e-05
0.000975538
0.00583001
0.000730175
0.00727223
0.00193805
0.00586266
0.000860934
0.00279044
0.0012564
0.00297215
0.000677052
0.000540767
0.00465242
4.36949e-05
3.85705e-05
0.00141082
0.000736877
0.0022092
7.45201e-05
0.00354338
0.00695821
0.00115024
2.26108e-05
0.00582963
0.00140594
0.00412662
0.0153893
0.00583448
0.00141494
0.00250378
0.00111335
0.00583961
0.0135312
0.00110717
0.0129205
0.00110993
0.000296252
0.00531291
0.000334781
0.00583101
0.00548779
3.38039e-05
0.00174618
0.0123941
0.00163912
0.00583889
0.000417207
0.000281611
0.00119918
0.00583455
0.000282847
0.00923693
0.00129565
0.00133424
0.0010429
0.00376108
0.00583348
0.000438729
0.00316672
0.00726332
0.00582984
0.00583533
0.0122444
0.0128669
0.00583234
0.00101243
0.00100383
0.00295204
0.00594014
0.00583561
0.0011985
0.0058352
0.00026472
0.000618275
2.55305e-05
0.000157071
0.005833
0.000101225
0.00582949
0.000358515
0.00583684
0.00403409
0.000158598
0.00159853
0.00105058
0.000404234
9.76249e-05
2.16621e-05
0.00583444
4.89315e-05
0.000990473
0.000715526
0.000234656
0.0149928
0.000155223
0.00158147
0.000914589
0.00186069
0.00076668
0.000267178
0.00582978
0.000285212
7.6979e-05
0.00424343
0.000337623
0.000589601
0.0058352
0.00584618
0.00583614
0.00583464
0.0120691
0.00583346
0.000529269
4.39657e-05
0.0102413
0.00109742
3.8966e-05
0.000558641
0.000276758
0.000607083
0.00583069
0.00137836
0.00139473
0.000117016
0.00367938
0.0125507
0.00115323
0.00114745
0.00100646
0.00341309
0.000755014
0.000768023
0.000738339
0.0105345
0.000545331
0.000222887
0.0058307
0.00584155
0.00583526
0.00089176
0.00034484
0.00788927
0.00681309
0.000736466
0.00283911
0.0132322
0.005836
0.000192789
0.00585693
2.04095e-05
0.00149838
0.00796216
6.20694e-05
0.00122043
0.000166331
0.00168139
0.00583005
0.000374137
0.00493841
0.00273771
0.000277925
0.0058295
0.00055463
0.00696624
0.00583581
0.00583271
0.00583426
0.000137136
0.000193008
0.00583601
0.0024419
4.31107e-05
0.00583242
0.000187623
0.000106121
0.00583098
0.00394856
0.000339201
0.000903672
0.000796899
0.00504349
0.00594934
0.000560491
0.000419655
0.00590611
0.00583359
0.0152339
0.000176197
0.0094418
0.000482621
2.58526e-05
0.00583348
0.00040136
0.00246328
0.00040659
5.68547e-05
0.00255199
0.00984652
0.00583428
0.000580842
0.000443687
0.00254819
0.00582967
0.00167475
0.00161962
0.00583401
0.00583497
8.92241e-05
0.000434961
0.00121719
0.00544454
0.00583867
0.00197753
0.00116715
3.85742e-05
0.00584965
0.000827645
0.00109294
0.00289675
0.00159929
0.0135995
0.00713922
0.00264961
3.18126e-05
0.00583346
0.000112113
0.00587069
0.00109469
0.000356151
0.00145992
0.00583236
0.00017926
0.00135733
0.00528103
0.00583608
0.00290698
0.000442773
0.00193817
0.00143526
0.000380943
0.00804494
0.0047612
0.00583256
0.00215796
0.00142994
0.00148619
0.000441286
0.00104573
0.000540522
0.00583095
0.0058708
0.00583607
0.0143216
0.000321594
0.00133532
0.000117104
0.000424362
0.00571763
0.00152244
0.00111938
0.00402806
0.00600897
0.00258342
0.0058388
0.0074772
3.81527e-05
0.00136174
0.00583209
0.000765937
0.00583877
0.000365124
4.02701e-05
0.0142563
0.00583421
0.00583943
0.00111242
0.0058324
0.0151507
0.011166
0.0144328
0.00207749
0.00583848
0.00106782
0.00608261
0.00583348
0.00591128
0.000241198
0.00583184
0.000106078
0.00583611
0.00157476
0.00583342
0.00588132
0.000307104
0.00559568
0.00014059
0.000183325
0.0106636
0.00884147
0.000985909
0.00583395
0.00153279
0.000821016
0.000753537
0.0058968
0.00245905
0.000568338
0.00584115
6.76283e-05
0.000437916
9.6372e-05
0.00390145
0.000618115
0.00256471
0.0102055
0.0014025
9.80182e-05
0.0008008
0.000994241
0.000483873
0.0058319
0.000217658
0.0017864
0.00583489
0.00583348
0.000576732
0.0058339
0.00270959
0.00197835
0.01152
0.00584524
0.00315273
0.000828616
0.000691559
0.00585364
4.56536e-05
0.00584009
0.00583411
0.0115945
0.0119722
0.000130744
0.000670055
0.000742452
0.000317859
0.000134031
0.000942354
0.000333856
0.00727393
0.000808962
0.000968616
6.29321e-05
0.00967982
0.00588059
0.00583523
0.00583588
0.000784357
0.000261557
0.000408821
0.00330075
0.0131266
0.00105009
0.00010249
0.000894569
0.00213017
0.00175197
0.00584195
0.00532137
0.00154102
0.000401879
0.0105679
0.0144039
0.00583346
0.00582968
0.013074
0.00184691
0.00583448
0.00192379
0.0058296
0.000489661
0.00583549
0.00583537
0.00305764
0.00322363
0.00987582
0.000516817
0.00550406
0.000523773
0.010184
0.00257109
0.00111797
0.00582964
0.000770002
0.000499888
0.000595979
0.00137618
0.000401218
0.00583554
0.00424916
0.000306703
0.000946754
0.000394789
0.00105518
0.00360377
0.00584186
0.00928246
0.000218285
0.00047446
2.82531e-05
0.000256388
0.00583757
0.00014723
0.00225431
0.00315652
0.00554674
0.00421625
0.00730827
0.00582944
0.0141943
0.00300201
0.004618
0.00583179
0.0135339
0.000338881
0.000878017
0.00433034
0.0058319
4.49996e-05
0.000702382
0.00239385
0.000738488
0.00583094
0.0121121
4.21323e-05
0.00194529
0.00219284
0.0058357
0.00061278
0.000488001
0.00582976
0.00583252
0.00199788
0.000423725
0.00200326
0.000197043
5.64316e-05
0.00128885
0.0058334
0.000327011
0.00438204
0.00291999
0.0108978
0.0015778
0.000248826
0.007001
4.06822e-05
0.00583364
0.0132005
0.0035315
0.0045768
0.00028955
0.000679027
0.0058351
4.06865e-05
0.00265065
0.000486928
0.00151763
0.0010866
0.0010537
0.00583661
0.013872
0.000286523
0.00584038
0.0101996
0.00583387
0.00115055
4.89144e-05
0.000485069
0.011474
4.24114e-05
0.00257023
0.00053327
0.00250747
0.00586457
0.00595405
0.000872916
0.000130031
0.00285995
0.0112835
0.00583529
0.00584281
0.00583346
0.00583562
0.0100128
0.000203782
0.01112
0.0109413
0.000352003
0.00100677
0.01246
0.000295726
0.00216457
0.00298374
2.48606e-05
0.00146824
0.00583377
0.00056857
0.000150022
5.58852e-05
3.04277e-05
0.000160638
0.00967642
0.00242129
3.1764e-05
0.00583465
0.0103547
0.00583514
0.0102238
0.00583617
0.00166663
0.00270385
0.0042803
0.00310419
0.00583097
0.000560884
0.00583629
0.00201868
0.00169358
0.000673628
0.00186543
0.0010301
0.00217004
0.00584532
0.000735044
0.00124055
0.0058347
0.0024952
0.00340732
0.00048988
0.000251304
0.00583416
0.00266556
0.00583858
0.000519978
0.00317032
0.00144227
0.00271544
0.000351433
0.00584086
0.00149014
0.011216
0.0108012
0.00361509
0.00648046
0.00118265
0.000374728
0.00444032
2.70614e-05
0.000732292
0.00146233
0.00296574
0.000112811
0.00196454
0.00589648
0.00130416
0.00106329
0.0116868
0.00101343
0.00279652
0.0122116
3.17034e-05
0.000296864
0.00548756
0.00100736
0.010407
0.0110214
0.0101653
0.0107094
0.000975348
0.0122675
0.000672449
0.00583377
0.000396341
0.00583386
0.00544487
0.000663672
0.00980264
0.00583471
0.00444659
0.000105201
0.000768313
0.000990568
0.000372326
0.0025018
0.00583343
0.00583212
0.00200711
0.000106688
0.00583384
0.00462912
0.00077507
0.000307458
0.00175426
0.00415017
0.00120728
0.000734373
0.000727936
0.00013245
0.0126366
0.000139269
5.6351e-05
0.0125204
0.00159726
0.000486943
0.00598827
4.18935e-05
0.00583471
0.00162982
0.00583411
0.00587077
0.00583552
0.00583506
0.000865871
0.000873157
0.00583601
0.00285898
0.00127943
0.00584132
0.00184415
0.00558761
0.00923074
0.000831383
0.00181522
0.00583478
3.81249e-05
0.00046485
0.00623222
0.00583346
0.00483173
0.00143674
0.00583216
0.0019321
0.000403288
0.00586703
0.0107676
0.000182848
0.00318952
0.000242787
0.001525
0.00101748
0.00583586
0.000187513
0.0011833
0.00585065
0.00105759
0.0058321
0.00125103
0.012276
0.00325215
0.00171578
0.0058351
0.00162484
0.000192493
0.00207312
0.000878654
0.000485874
0.000704175
0.00583207
0.0120865
0.00186773
0.0101086
0.00105795
6.18964e-05
0.00103922
0.00242273
0.00162872
0.00457594
0.0058353
0.00148861
0.0114776
0.00909863
0.00583184
0.00583581
0.000402723
0.00583796
0.0131447
0.00156127
0.000654454
0.000345184
0.000355505
0.00583413
0.00715028
0.0125645
0.000351212
0.000441845
0.000370236
0.00584086
0.000143489
0.00134193
0.00219876
0.00839853
0.000661978
0.00583359
0.00134978
0.00525848
0.0153804
0.00497144
0.000273366
0.000206521
4.65294e-05
0.00800171
0.00016402
0.00586145
0.0099782
0.00112659
0.00592404
8.20516e-05
0.00165936
0.0005561
0.00087304
0.00583441
0.00165159
0.00583347
0.00583251
0.0134286
0.00268649
0.00583506
0.00029656
0.000282126
2.75361e-05
0.0124406
0.00309792
0.00115598
0.00172681
0.0058346
0.00179315
0.00145106
0.00444295
0.0014749
0.00584958
0.000305818
0.000497302
0.00117032
0.00583674
0.0111763
0.000215737
0.000194142
0.000847871
3.80655e-05
0.00016561
0.00583349
0.0126954
0.000633024
0.000705949
0.000895672
0.00503299
0.00345392
0.00211093
0.00136826
0.00111145
0.000850975
0.000178827
0.00242707
0.000494273
0.00297754
0.000139817
0.000418741
0.00153576
0.000152468
0.00249706
0.00566016
0.00583235
0.00241514
0.000116748
0.00113013
0.00545717
0.00583533
0.00253633
0.00588109
0.00202384
0.0058378
0.00583527
0.00023592
0.00610379
0.000702119
0.00583602
0.000853021
0.000492588
0.000165373
0.00583386
0.000841445
0.000948046
0.00584858
0.00210124
0.000357801
6.2552e-05
0.00266963
0.000695372
0.00583098
0.00251319
0.00583617
0.00583614
0.000474186
0.000291924
0.00583351
0.00843856
0.000332839
3.92114e-05
0.00833413
0.00104059
0.00127798
0.00583548
0.00207147
0.00582999
0.0031585
0.00113671
0.00583175
0.000134626
0.0005773
0.00278326
0.000518853
0.0131365
0.000659983
0.000290723
0.000472194
0.00457161
0.0102549
0.00267276
0.0031638
0.00017621
0.000469089
0.000124419
0.00150278
0.01479
0.000321066
0.00277713
0.00280195
6.14799e-05
0.0125588
0.0029548
0.000297833
0.00319898
0.00426202
0.00533639
0.000711482
0.00936302
0.00584272
0.000841131
0.0011075
0.0104962
0.0129769
0.00307422
0.0128813
0.00585369
0.0010788
0.00201496
0.0009834
0.00583167
0.00684131
0.000785104
0.00055992
0.00583173
0.00255323
0.000872647
0.000338901
3.01858e-05
0.00585405
4.64005e-05
0.000582509
0.00790196
0.00583356
0.00582998
0.00254916
0.0109485
0.00590254
0.000202634
0.00583281
0.000224944
0.00584869
0.00185771
0.00129311
0.000195108
0.00183546
0.00587126
0.000117613
0.0113747
0.000733156
0.000854217
0.00214679
0.00379203
0.00522298
0.00583409
0.00333206
0.00254874
0.000933136
0.0138808
0.00584768
0.00222284
0.000924484
0.00428245
0.00403797
0.000470327
0.0010613
0.00243419
0.000604287
0.000754757
0.00422396
0.000329987