/*--------------------------------*- C++ -*----------------------------------*\
| =========                 |                                                 |
| \\      /  F ield         | OpenFOAM: The Open Source CFD Toolbox           |
|  \\    /   O peration     | Version:  v2012                                 |
|   \\  /    A nd           | Website:  www.openfoam.com                      |
|    \\/     M anipulation  |                                                 |
\*---------------------------------------------------------------------------*/
FoamFile
{
    version     2.0;
    format      ascii;
    class       volScalarField;
    location    "300";
    object      p;
}
// * * * * * * * * * * * * * * * * * * * * * * * * * * * * * * * * * * * * * //

dimensions      [0 2 -2 0 0 0 0];


internalField   nonuniform List<scalar> 
37809
(
-0.00846152
-0.0652522
0.0190616
-0.0545327
-0.118466
-0.0828813
0.181959
0.472906
-0.0941001
-0.408991
-0.162573
0.0322867
0.103235
0.103617
-0.329101
0.0166117
0.00678769
-0.0616615
-0.0112389
0.158855
0.271628
0.269465
-0.0766177
0.00632442
0.147313
-0.278236
-0.0929998
0.0569801
0.010642
0.449097
-0.129168
-0.253607
0.00646982
0.20468
-0.0298177
0.00676649
-0.0206505
-0.226659
-0.113742
-0.199272
-0.390313
-0.377347
-0.138426
-0.400065
0.0151755
-0.0623256
-0.0902284
-0.140105
-0.0931756
-0.0344259
-0.0335493
0.024736
0.00216958
-0.00872516
-0.238064
0.00220838
0.058282
-0.0579766
-0.110065
-0.23914
-0.341386
0.0887921
0.101646
-0.132383
-0.128195
0.141822
-0.345311
-0.0105612
-0.045464
-0.0671838
-0.0132207
-0.272957
0.0358249
0.102517
0.0562301
-0.0184564
-0.196632
-0.103681
0.00149464
-0.211055
0.0126544
0.0108564
-0.102133
-0.0802222
-0.00978519
-0.137211
0.0538199
-0.340776
-0.0938749
0.129348
-0.227881
-0.396854
0.29239
-0.367601
0.055364
-0.0982309
0.0370923
-0.0343406
-0.100897
-0.00449083
-0.306315
-0.034448
-0.130585
-0.0601916
-0.0992411
0.00662174
0.436838
-0.402879
-0.155494
0.0319204
0.162738
-0.0790557
0.320576
0.0604719
0.0586933
-0.112478
0.0337665
0.0405174
-0.141674
-0.139501
0.00674459
-0.0238204
-0.103041
-0.123007
-0.405781
0.0345278
-0.0937416
0.0123486
0.128959
-0.0448698
-0.19983
-0.0861547
-0.114773
0.00695891
-0.213557
-0.00470153
-0.0334049
0.0889181
-0.214512
-0.311259
-0.0293828
-0.157136
-0.219996
-0.389428
0.0354921
-0.34568
-0.0556697
0.0798756
-0.102704
-0.0111234
-0.0918266
-0.0442811
-0.0718208
-0.230752
-0.195502
-0.0109173
-0.157495
-0.140642
-0.00928931
-0.27712
0.130878
-0.076144
0.25539
-0.406173
0.0770272
-0.0152576
0.0170886
-0.403509
-0.121573
-0.192939
-0.11854
0.000529619
-0.160397
-0.0382527
-0.0462155
0.0638011
-0.0971491
0.131439
-0.0941484
4.30211e-05
-0.14108
-0.0298319
0.00237399
0.0540611
-0.0177598
-0.146
-0.0306999
-0.0788451
-0.30457
-0.378789
-0.036188
0.0367931
0.0343439
-0.41026
-0.24896
0.396215
0.0353054
-0.0142696
0.00101092
-0.0146958
-0.0733146
-0.167468
-0.330424
-0.00734653
-0.115924
-0.0177976
-0.0395221
0.18909
0.0195861
-0.0854562
0.196536
-0.0659203
-0.000480603
0.0399404
0.0227021
-0.336435
0.257096
-0.00430132
-0.000484952
-0.0891191
-0.369999
0.517975
0.0420122
-0.0278663
0.0131332
-0.0940257
-0.366469
-0.0926207
0.136293
-0.304252
0.0516678
0.357606
-0.140089
0.0860208
-0.119404
-0.335106
-0.00113751
-0.100274
0.0761846
-0.20981
-0.126817
0.000868763
-0.232266
-0.102062
0.014705
0.0296175
0.0126604
-0.0120736
-0.194303
-0.0180491
0.026181
0.00681873
0.0206948
-0.15733
0.0231754
0.0242447
-0.0141809
0.0291137
0.138959
-0.193075
-0.227544
0.034766
-0.075132
-0.0237839
-0.340046
0.0252965
-0.0901815
-0.100857
0.0366417
0.40063
-0.116751
0.0232151
-0.114493
-0.246122
0.00696597
-0.205449
0.1947
0.0241208
-0.237319
0.0282528
-0.0311835
-0.112366
-0.40794
0.00589532
-0.078412
0.0296267
0.0345704
0.0117935
0.0234632
-0.0692464
0.0192734
-0.0949559
-0.316097
0.00195557
0.0128398
-0.0776937
-0.0910684
-0.407546
0.0224388
-0.369192
-0.0941227
-0.25229
-0.0185232
-0.0978448
-0.409462
-0.08167
0.0182033
-0.0112479
-0.393273
0.000900645
-0.0806802
-0.154223
-0.0688014
-0.0170405
0.00675148
-0.374195
0.0829022
-0.012201
-0.185377
-0.112397
-0.150187
0.518663
0.0923593
-0.00944167
-0.347944
0.270957
-0.40979
0.0371613
0.0168061
-0.11459
-0.000898466
-0.0228311
-0.0309497
-0.403118
-0.0112946
0.00671448
-0.0757566
-0.0127994
0.00820736
-0.166892
0.000791801
0.102904
0.219862
-0.0664463
-0.064109
-0.113461
-0.372292
0.0241972
-0.147678
-0.056349
0.515939
0.354881
0.0323039
-0.00957296
-0.0941575
-0.303543
-0.0180461
-0.0881021
0.0346865
-0.0759008
-0.0986774
0.0111788
-0.164217
-0.0902695
-0.394969
-0.0944464
0.21105
0.0357218
-0.0590094
0.0109168
0.103968
0.283897
-0.0830771
-0.0795955
-0.156314
-0.0092771
-0.0960233
-0.0182901
-0.0961866
0.127554
0.0342219
0.0813063
-0.117763
-0.102149
0.498839
-0.107231
-0.301676
0.0777546
-0.194667
-0.011689
0.0279951
-0.291355
0.0166163
0.0251036
0.0712136
-0.0944896
-0.186416
0.485563
-0.0787836
0.0180547
-0.376043
-0.0856318
-0.0116136
0.040734
-0.00765707
0.101089
0.0012694
-0.09972
-0.143332
-0.161715
0.27756
-0.0806817
-0.140427
0.0528264
-0.019203
-0.234178
0.487617
-0.410796
0.0125818
0.0059549
-0.384537
-0.120179
-0.0294717
-0.097193
0.0119428
-0.0783992
-0.0268642
0.166028
0.135914
-0.272549
0.00155416
0.030726
-0.0531185
0.057192
-0.386561
0.0500885
-0.111098
-0.110205
-0.135606
-0.00059976
0.0460079
-0.180983
-0.130277
-0.0851108
0.0188612
-0.0207655
-0.194292
-0.231551
-0.0847849
-0.101374
-0.0950085
-0.00941823
0.0591022
0.0293014
0.039323
0.00601154
-0.0205781
0.00606004
-0.355413
0.0211612
0.0430558
0.00966551
-0.243775
-0.102194
-0.149088
-0.0636233
-0.0479041
0.0437759
-0.103511
0.0230115
-0.0849588
0.00119482
0.0237885
0.00521837
-0.0767697
0.00239125
-0.0955042
-0.359249
-0.0663729
0.0291107
0.0111609
0.0336289
-0.0758646
-0.0183432
-0.403463
0.0196337
-0.096113
-0.117201
-0.201871
-0.0321604
-0.18802
-0.0748119
-0.0762847
-0.0350425
-0.164975
-0.178632
-0.012174
-0.0963989
-0.13569
-0.10432
-0.0195099
-0.234605
-0.386082
-0.346854
0.0334894
0.00682375
-0.111611
-0.261788
-0.0142653
-0.0137638
-0.0188669
0.0020103
-0.365647
0.004232
-0.0461915
-0.329602
-0.404388
0.0272732
-0.411791
0.0684039
-0.402427
-0.198577
0.0263784
-0.409773
-0.0469112
0.0174167
-0.225951
-0.0670316
0.23182
-0.116604
-0.40935
0.0761931
-0.223054
-0.0136987
0.00727829
-0.0130618
-0.00905374
-0.0680936
0.0233262
0.0124141
-0.19663
0.0188695
-0.0747117
-0.102012
-0.403694
0.048223
0.0417814
-0.21479
-0.0722107
0.00723054
-0.0662507
-0.0853938
0.0237374
-0.20938
-0.358622
-0.0777455
0.0210439
-0.145306
0.310069
0.0743083
-0.0256155
-0.116413
-0.106805
-0.0128482
-0.392881
-0.0680491
-0.164195
0.0251317
-0.207105
-0.0955574
0.0106969
-0.395971
0.0381027
0.0513974
-0.00490408
0.0288933
-0.392731
-0.154196
-0.0118422
-0.0151102
0.0114072
0.0948099
0.262302
-0.0957419
-0.400723
-0.328046
-0.10139
-0.410479
-0.402987
-0.0975885
0.0417284
0.00729407
-0.0238232
-0.073657
-0.0278431
0.02902
-0.0119032
-0.120566
-0.354114
0.00786752
0.0363944
0.019237
-0.100527
-0.0654552
0.277719
-0.0288112
-0.079617
-0.0543503
-0.145654
-0.148108
0.00125442
-0.0740942
-0.0319664
-0.0866896
0.0385612
0.0279348
0.034372
-0.189431
0.464818
0.486629
0.0262401
-0.0793128
-0.0956575
0.0769509
-0.409163
-0.0789167
-0.0800075
0.00744758
0.0363863
0.0342034
-0.248966
-0.300873
-0.0770902
-0.391977
0.0156507
0.0369818
-0.0926171
-0.0929856
-0.00105334
-0.357185
-0.00960902
-0.0725878
0.392791
-0.189125
-0.0914789
0.520407
-0.137731
0.0379067
-0.0125487
-0.0590193
0.037834
0.138478
-0.384971
0.0365702
-0.387317
-0.206461
-0.356774
-0.0544058
-0.124925
-0.0809649
-0.0233138
-0.0460574
0.0122866
0.152048
0.0430757
-0.0590244
-0.0451626
-0.290332
-0.401448
-0.0998118
-0.410382
-0.190395
-0.0703216
0.0192202
-0.0739075
-0.0154747
-0.248573
-0.340717
-0.00876083
-0.0491719
-0.0950511
-0.0950633
0.0432521
0.01903
-0.0985798
-0.234413
-0.380612
0.0250406
-0.405476
-0.0024599
-0.116249
-0.0755748
-0.0413347
0.0457065
-0.0863434
-0.0151934
0.038414
0.0249606
-0.00361762
-0.146201
-0.0939991
-0.186974
-0.264092
0.00878007
-0.15508
-0.0907833
-0.196374
-0.317488
-0.0598458
-0.376871
0.0759754
0.0512833
-0.0802113
-0.329501
-0.131481
-0.205856
-0.102319
-0.0682832
-0.391987
-0.0899716
0.0569968
-0.0807349
0.144914
-0.0916312
0.121908
0.111696
-0.0792024
0.0624173
0.166932
-0.117648
0.129716
-0.0540666
-0.065754
-0.0763466
-0.0506222
0.0319611
0.0489169
0.0259575
0.0581663
-0.139066
0.189475
-0.0268258
-0.0144955
-0.0150748
-0.39994
0.00656797
0.0102751
0.160589
-0.115965
0.0171133
0.0118766
-0.0504242
-0.115556
-0.0104018
0.00972879
0.00196119
-0.149874
-0.133781
-0.242641
0.000744477
0.0172861
0.00632254
0.0981292
0.0292786
0.0166197
-0.0473464
-0.352939
-0.120916
-0.0626564
0.00992099
-0.00801951
0.210907
-0.0672819
0.0397864
-0.274075
-0.0707203
0.0442267
-0.0201105
0.00647992
-0.354552
-0.114678
-0.0810505
-0.159834
-0.12549
-0.0743025
0.194251
-0.00760866
-0.138793
-0.40127
-0.0504403
-0.321124
-0.119527
-0.306561
-0.227481
-0.220425
-0.136405
0.0769445
-0.0841803
-0.0139869
0.519461
-0.0668581
-0.000530265
0.00176841
-0.0123618
-0.361745
-0.0229076
-0.197718
0.0357789
0.0916895
-0.196699
-0.00134281
0.0242237
-0.38794
0.330928
0.00789214
-0.015652
-0.389661
-0.11943
-0.0804445
-0.0757577
-0.0634349
0.0520538
-0.0124281
-0.0770609
-0.183389
-0.16592
-0.38837
-0.10456
-0.199312
0.154827
-0.229259
0.0761424
-0.14104
-0.405853
-0.203241
0.0178174
0.031969
0.399367
0.012333
-0.0854512
-0.410353
-0.244425
0.0289768
0.204066
-0.00244227
0.0822772
-0.392973
0.0259401
-0.117651
-0.293739
0.0304658
0.00840761
-0.0630186
-0.0134109
-0.0586679
-0.131726
-0.0856319
-0.0713125
-0.407644
-0.114252
0.0447848
0.100092
0.00192161
0.142315
-0.0120417
0.0290504
-0.233417
-0.0964252
0.103258
-0.0340876
-0.0114682
-0.0342569
-0.0200126
0.389401
0.40584
0.0295415
-0.0988297
-0.0775333
-0.00141995
-0.145005
0.0150645
-0.0534431
0.0175026
0.0581274
-0.103054
0.0713925
-0.389844
0.0378407
0.0631249
-0.284871
-0.136093
0.0262684
0.0124412
-0.404681
-0.40575
0.0176481
-0.404837
-0.0635294
0.0809471
-0.207757
0.101554
-0.370285
0.10904
0.0334933
0.00987386
0.000726585
0.0630486
0.0313265
-0.0902102
0.344426
-0.0868703
-0.341173
0.12646
-0.0633614
-0.0560633
0.0241424
-0.0760653
-0.120809
-0.0741986
-0.0848872
-0.074458
-0.228997
-0.152017
0.0499847
-0.0580641
0.076002
-0.393779
0.0264256
0.400184
-0.00548709
0.0108424
0.0649739
-0.331007
0.0501233
0.123699
0.100853
0.0599038
-0.0197332
-0.178111
-0.114637
-0.0630246
-0.0132759
-0.07728
-0.0672589
-0.263717
-0.00777468
0.104495
0.165904
-0.104073
-0.31091
0.0431516
-0.132027
0.0117278
-0.0536172
-0.13448
0.430205
-0.0647904
-0.10205
0.165405
0.0312032
0.0141639
-0.0936214
0.0311211
0.0246858
-0.032756
-0.101154
-0.3286
-0.0635966
-0.00539689
-0.0203375
-0.0194056
-0.0766275
-0.0165736
-0.105344
-0.338186
-0.0200719
-0.192915
-0.0324556
-0.277149
0.292751
-0.0967913
-0.0580892
0.228115
0.0412072
-0.378764
-0.00497583
-0.0757211
0.0316309
0.0433597
0.403686
-0.0137202
0.0056268
-0.219977
-0.0775485
-0.0582818
-0.0504862
-0.337023
-0.146817
-0.349494
-0.0318552
0.249229
-0.217955
-0.101849
-0.000227446
-0.0604539
-0.00280738
-0.0772821
-0.102188
0.332514
-0.16445
0.00699908
-0.0529153
0.0420863
-0.125027
-0.327562
0.0777012
-0.200664
0.0305659
-0.0856167
-0.00218668
0.0317873
0.00580877
-0.0479996
-0.384232
0.0305869
0.0228689
-0.13899
0.0318739
0.00703173
0.205181
-0.124778
-0.0503057
-0.201264
-0.000539575
0.479693
0.519418
0.0300948
-0.113693
0.194794
-0.097555
-0.120528
0.0469491
-0.0169912
-0.21648
0.348106
0.0420767
-0.334786
-0.092681
-0.196743
0.0717028
-0.0148999
-0.249305
-0.166815
-0.248734
-0.00300037
-0.241388
-0.0979311
0.304212
-0.0704759
-0.0162681
0.00691667
0.00114764
0.00883344
0.0149981
0.0814027
-0.117506
0.063289
0.0588449
0.113456
0.118098
0.0210716
-0.0970815
0.133948
-0.0839891
-0.0696995
-0.0314113
0.423497
-0.10738
-0.124923
-0.112382
-0.0920186
-0.00189104
-0.0699766
-0.188349
-0.105314
-0.200161
0.493559
-0.0157897
0.0396557
-0.0865098
0.0475338
-0.408054
-0.092476
-0.15771
0.118023
0.116152
0.0056009
0.00163601
0.03285
0.0376952
0.0500012
0.0362801
-0.336742
0.0315897
-0.337701
-0.012034
-0.135669
-0.384361
0.00694367
0.0286156
-0.140436
-0.39966
-0.0760108
0.0081487
-0.293417
0.00824076
0.0301187
0.0755355
-0.323434
-0.0906157
-0.244672
-0.401839
-0.078645
-0.0755277
0.355314
-0.00496932
-0.0178937
-0.335635
-0.357405
-0.0857085
-0.066186
-0.0324834
-0.291423
0.349614
-0.403703
0.00202737
-0.177565
-0.0351584
0.0347419
-0.0745907
0.252798
-0.216892
0.0148859
0.314729
-0.0939001
-0.319543
0.0414053
-0.0133408
-0.276929
0.0873926
-0.165869
-0.0597077
0.174624
-0.0739847
-0.0860106
-0.180095
-0.00192499
0.0320167
0.0193524
-0.0772812
-0.324236
0.0106092
-0.410189
-0.0338866
-0.40799
-0.335571
-0.19488
0.00667906
0.00810777
-0.114698
-0.143999
-0.0116918
-0.22124
-0.0283099
-0.402149
-0.0595352
0.128963
0.0404133
-0.0804031
-0.144031
0.0637114
-0.000229846
-0.000660934
-0.407985
-0.0900593
-0.0197248
-0.0849094
-0.327149
-0.181015
-0.0591736
-0.353339
-0.0991154
-0.0788657
0.394375
0.016604
-0.120862
0.00617522
-0.119477
0.0420866
-0.166473
0.0240953
0.0330341
0.49352
-0.122621
-0.0517701
-0.0904819
-0.0115947
0.0281391
-0.407767
0.00154933
0.459822
0.231522
0.0379442
-0.0998878
-0.150845
-0.192126
0.029924
0.155045
-0.0844363
0.0239593
0.103281
-0.280895
-0.098539
0.204322
-0.0801144
0.0198967
-0.0174147
-0.078546
-0.357616
-0.101843
-0.0696184
-0.0784397
0.0764922
-0.33688
-0.0911026
-0.0855594
-0.377568
-0.000929842
-0.0795158
-0.172506
-0.0159176
0.0544121
-0.171307
0.0192709
-0.360948
-0.119847
-0.033638
0.0152939
0.0193314
-0.0994933
0.0152005
-0.384489
-0.1229
-0.169403
0.351815
0.00794894
0.0866438
-0.12831
0.0181884
0.0062289
-0.0742822
0.0405638
-0.113374
-0.349891
0.113961
0.019125
0.0395166
-0.00204704
-0.179161
-0.264535
-0.198083
-0.223736
0.0238406
0.0192071
-0.0798542
0.00936136
-0.148928
-0.0629015
-0.337482
-0.220502
-0.0504726
-0.0985443
-0.083337
0.000365351
-0.0890602
-0.155828
-0.0161053
0.0160977
-0.0687005
0.112891
-0.129495
-0.330856
-0.294875
0.00917434
0.0200268
-0.0878637
-0.143858
-0.385614
-0.218263
0.140087
-0.364682
-0.0193488
-0.156021
-0.354849
0.314962
-0.0078672
-0.141051
-0.0206207
0.0196123
0.00548261
-0.0101368
0.0419219
0.0626275
-0.101334
-0.391025
0.0373745
-0.013625
-0.063954
-0.236225
-0.069022
-0.378473
-0.297583
-0.249123
0.00674315
0.0549363
-0.225537
-0.102853
-0.0786795
0.0365783
0.014301
0.0263157
-0.0078165
0.0761133
-0.129447
-0.345178
0.00570897
-0.0394397
0.0650437
-0.0413826
-0.0894836
-0.0844152
0.111032
-0.410748
0.312658
0.00834229
-0.404306
-0.22353
0.139157
-0.260155
-0.0177891
-0.0876249
-0.382369
-0.0849881
-0.347084
0.069249
0.0318753
-0.386941
0.349933
0.020608
0.0114053
-0.0801785
-0.263189
-5.37602e-05
-0.0106497
0.0222461
-0.0104411
-0.0212566
-0.0898911
-0.118508
-0.0113658
-0.0613211
0.204384
0.0323571
-0.0118857
0.0216937
-0.0147813
0.0423451
-0.0702496
-0.044151
0.0515287
-0.0641269
0.0217454
-0.0632218
0.0718684
-0.407912
0.439415
-0.21461
-0.0845962
-0.0134924
0.0223118
0.00574893
0.347134
-0.000688799
-0.00993645
-0.0777168
-0.122825
-0.11502
-0.00694688
-0.0795094
-0.25287
0.0514005
-0.078835
0.0986601
-0.117031
0.0100415
-0.213095
-0.223821
0.0649711
0.00182261
-0.322858
-0.100887
0.0552173
0.499285
-0.310405
-0.2361
-0.190864
-0.225648
0.043108
-0.0978398
-0.174501
-0.27727
0.0108862
0.42517
0.0258221
-0.0153005
-0.0909114
0.0156455
-0.0760547
-0.0630689
-0.00670896
-0.360696
0.142868
-0.138781
-0.070611
-0.0418786
0.0685092
-0.00179279
0.0489777
-0.00465117
0.164687
-0.0878934
-0.00628413
-0.222295
-0.183469
-0.0988874
-0.141301
-0.115759
0.0360509
-0.406575
0.00836762
-0.143957
-0.40958
-0.401657
-0.360097
-0.221059
-0.124443
-0.0930283
-0.0512048
-0.408182
0.0147391
0.0173289
-0.105889
0.0243991
0.0892808
-0.402556
0.0529623
0.488337
-0.0380761
0.0157337
-0.095829
0.100161
0.0145694
-0.105999
0.169324
-0.0469586
-0.0794195
0.00665778
-0.159119
0.0244772
-0.0760665
0.0197654
-0.317059
-0.075166
0.431475
-0.408589
0.0357924
-0.105154
0.0145267
-0.304179
-0.0400155
-0.0196718
-0.0965815
0.00775583
0.0137221
-0.3837
-0.0193337
-0.099179
0.015655
-0.00364554
0.0284731
-0.113021
-0.108829
0.0139191
-0.199443
0.0325997
0.0023487
0.104568
-0.099129
-0.0764768
-0.195008
0.11817
0.125256
0.0227482
0.0135228
0.0297412
-0.0473116
-0.215926
0.000429674
0.0640622
-0.152017
0.0106925
0.121931
0.0230007
0.024318
-0.19765
-0.0115833
0.00212094
0.0149188
0.000593223
0.0242971
-0.324453
-0.0353472
-0.228503
-0.238911
-0.125394
-0.404651
-0.0742795
0.0227049
-0.321841
-0.110922
-0.00524401
0.0142949
-0.12728
-0.122732
0.0576636
0.305267
-0.0384508
0.00756898
0.00296778
-0.409141
0.0227848
-0.138225
-0.040715
0.323804
-0.404655
0.0291553
-0.293718
0.00835297
-0.346862
0.40036
-0.175023
-0.104109
-0.106576
0.0169515
-0.350351
-0.0763897
-0.00645302
0.000569592
0.0465513
-0.102035
-0.0953343
-0.114274
-0.258418
0.0163043
-0.00861662
-0.364845
0.0380026
-0.297769
-0.0363259
-0.335384
0.272032
-0.0363147
-0.0532973
-0.0819448
0.0230675
-0.0196424
0.00819539
0.0159076
0.0233732
0.469813
0.0376383
0.248109
-0.221119
-0.0393931
-0.321595
0.274212
-0.00847004
-0.241885
-0.0457372
0.362556
0.354727
-0.00337553
-0.078773
-0.192157
0.0144264
-0.352446
-0.00242297
-0.279323
0.0174962
0.0493577
-0.1356
-0.0847796
0.0397098
-0.0531277
-0.0594462
0.454957
0.00504241
-0.214121
0.0352869
-0.137252
-0.190346
-0.0723725
0.0199375
-0.0526906
-0.29985
0.133808
0.0523217
-0.106188
-0.0386279
-0.41373
-0.0708839
-0.071254
0.0207877
-0.00122925
-0.339821
-0.129779
-0.316149
-0.0786408
-0.237091
-0.100581
-0.259923
-0.0837333
-0.408218
-0.0385122
-0.39775
0.243038
0.486319
0.0290595
-0.00330169
-0.201762
-0.0366412
0.480001
-0.379731
-0.114447
-0.399684
-0.295969
-0.0700246
0.00325318
-0.274668
-0.0221392
-0.127765
0.0494195
-0.019354
-0.275906
-0.00341727
-0.141488
0.030525
0.0158352
0.034943
-0.13944
-0.140623
0.458941
0.0118201
-0.179833
0.0173933
-0.350834
-0.125395
-0.40597
0.0406248
-0.371934
-0.167548
-0.0198043
-0.140573
0.0478569
-0.0191241
0.0158579
0.0351597
0.0251457
0.0281391
0.0356431
0.0134441
0.0131485
-0.104084
-0.138485
0.041707
-0.0970633
-0.0826373
0.313813
-0.0755552
-0.00251797
-0.129658
-0.232781
-0.0610049
-0.0191924
-0.120602
0.0212019
-0.0837239
0.0139697
-0.198546
-0.15256
-0.0137643
0.436004
0.45208
-0.0789847
-0.0461386
-0.256964
0.316931
-0.35811
-0.28088
0.0475609
0.244558
0.000967716
-0.0760803
-0.0225429
-0.186177
0.00925428
-0.073286
-0.201349
0.026554
0.0327827
-0.246522
-0.00805094
-0.0604575
0.0332489
-0.154087
-0.0844392
0.139041
0.00144564
-0.297337
0.448596
-0.060165
-0.073563
-0.103003
0.0325941
-0.155338
-0.0922256
0.0648974
0.0276224
-0.282496
-0.34501
-0.319239
0.0616367
0.0769128
-0.408049
0.0245904
-0.103101
-0.406439
-0.180656
0.000248081
0.0219975
-0.259672
-0.0611466
0.00828421
-0.0963893
-0.389987
-0.0788452
-0.280056
0.0181311
0.0616488
0.0107625
-0.110682
0.102894
0.304575
0.210432
0.0156346
0.168012
0.000326394
-0.197606
0.0294112
-0.213908
0.0584652
-0.052445
-0.406855
-0.100345
0.25555
0.182972
0.00890833
0.355754
-0.0107818
-0.135777
-0.139453
-0.13945
0.0740269
-0.0735108
0.0715033
-0.0130118
-0.12846
-0.131539
-0.00780491
-0.158602
0.0224867
-0.0145585
-0.117768
-0.408902
0.0221294
0.0119604
0.0071063
0.0142655
-0.35786
0.0167922
-0.211745
0.178036
-0.277367
-0.0951639
0.467715
-0.030658
-0.254482
0.0679533
0.00471685
-0.0794418
0.065526
0.168015
-0.206446
-0.0987257
-0.0825582
-0.0941089
-0.0681501
0.0268104
-0.151595
-0.101027
-0.0429704
-0.0625239
-0.0335619
-0.199538
0.00487785
0.00103608
0.0211904
-0.111553
-0.195993
-0.196626
-0.279895
0.0157594
-0.0197792
-0.365487
0.00766406
-0.178019
-0.00769379
0.181953
-0.399579
-0.148906
0.351715
-0.338827
-0.0801173
-0.202505
-0.00736249
-0.32202
-0.0203224
-0.0892806
-0.235735
-0.00763088
0.0934634
-0.0755422
0.0230251
0.00577036
-0.0101326
0.230445
-0.244503
0.00714508
-0.047542
0.39862
0.0121218
-0.36322
0.222452
0.00065983
-0.174387
-0.330905
-0.251992
-0.121181
9.31464e-05
-0.102688
-0.000528178
-0.179341
-0.00704638
-0.0101498
-0.184212
0.0633473
-0.275897
-0.188184
0.295384
0.0261621
-0.0860475
-0.103828
0.129101
0.492127
-0.0466675
-0.401306
0.0212467
-0.139057
-0.0473588
-0.0958171
0.000621686
-0.0634206
-0.0697833
0.010239
0.0174529
0.242599
-0.192029
-0.0862966
0.0354664
0.0325687
-0.0189364
0.035398
0.44363
-0.0119391
-0.103935
-0.0960166
-0.0383331
-0.107121
-0.353112
-0.0843076
-0.148867
0.373097
0.0191199
0.216051
-0.0198573
-0.0771817
0.0918053
-0.208595
0.0116889
0.0888962
0.0664406
0.0356842
0.0225386
0.0220213
-0.139415
0.0551588
-0.0796211
-0.0803882
-0.103226
-0.281382
0.0112803
-0.06858
0.0656847
-0.2557
-0.13959
-0.0699202
0.0926058
0.00118841
-0.0200049
0.0110844
-0.0981311
0.0199698
-0.0794837
-0.136557
-0.18031
0.0249222
-0.0698522
-0.09397
-0.0814896
-0.0113852
-0.0438285
0.0326002
-0.385919
0.45669
0.0662835
-0.001786
-0.147487
0.00581395
0.131064
0.488135
-0.224215
0.0215092
0.00545897
-0.0755667
0.0122137
-0.250739
-0.147026
-0.212169
-0.00226136
-0.011541
-0.0936651
-0.0833715
0.0260558
-0.0114915
-0.144519
0.00629732
0.18867
0.00775375
-0.311006
0.0188819
-0.0218286
0.128294
-0.00506758
0.216645
0.092356
-0.217596
-0.348506
-0.0817125
0.0240095
-0.389167
-0.410643
-0.151044
-0.0226855
-0.203921
0.0665025
0.0335716
0.518016
-0.0418905
0.182203
-0.379722
0.102237
-0.107136
-0.399614
-0.364058
0.273958
0.0124699
-0.0167553
0.116959
0.00643246
-0.186347
-0.339819
0.0191582
0.0264161
-0.139658
0.0242078
-0.177156
-0.338262
-0.0907669
0.00356234
-0.0196362
0.0770542
0.0468012
-0.00227847
0.0620742
0.033117
0.0105461
-0.105311
-0.375978
0.231189
-0.190153
-0.106459
0.0233121
-0.230861
-0.07145
-0.0696248
-0.0750647
-0.13276
-0.0616664
0.311628
-0.318812
-0.0216913
0.00674518
0.0106906
-0.403678
-0.0888224
-0.0897633
0.0404775
-0.103726
-0.108978
0.264804
-0.113084
-0.210317
-0.401446
0.0222168
-0.00791538
-0.0750351
-0.336062
-0.0735802
-0.217117
0.0262473
0.000896277
-0.139864
0.0572169
0.0272471
-0.013085
-0.00335668
-0.191007
0.00792665
0.0209925
0.0401436
0.0434476
-0.14065
-0.207969
-0.00733874
0.116273
-0.320838
0.0399652
-0.00622999
-0.0089117
0.0131606
-0.404424
-0.0702141
-0.408292
-0.089666
0.0205845
0.00659926
-0.0688547
-0.108282
-0.36159
-0.0790139
-0.00480926
0.0212225
-0.152495
-0.2497
-0.188114
0.315159
0.167607
0.0248518
-0.224528
-0.404043
-0.0236713
0.0244786
-0.16107
-0.0904611
0.000752645
-0.120837
0.0394573
0.0374017
0.00861913
-0.138802
-0.0391338
-0.121991
-0.33427
0.00867128
-0.0374332
-0.404951
-0.404087
-0.152173
0.00547046
-0.0784864
0.378898
-0.0569485
-0.292184
0.0230475
0.104346
-0.189986
-0.00885336
0.00880568
-0.011809
-0.23576
-0.0558352
0.195682
0.355513
-0.0838312
0.0166073
0.142127
0.0378122
-0.140922
-0.0910402
-0.068999
-0.143288
-0.405062
0.441961
-0.00582959
-0.0963157
-0.00431908
-0.0135909
0.166576
0.0907086
0.00830264
0.436471
-0.0421747
0.11773
-0.0760861
-0.0775043
-0.0799235
-0.0145682
-0.122833
0.135596
0.0233425
-0.094332
0.0241238
-0.0816616
0.296897
0.118853
-0.0778824
0.486495
0.0492255
-0.198315
-0.0418162
-0.019474
-0.263773
-0.121668
0.232617
-0.405389
-0.130398
0.00715603
0.021636
0.0262409
0.0188635
-0.200364
-0.00873759
-0.320024
-0.238096
-0.0588299
-0.0952315
-0.0787763
0.0210155
-0.0852378
-0.409648
0.225394
-0.0753277
0.010932
-0.254687
0.206865
0.498617
0.339838
0.213895
-0.336546
0.0383853
0.413207
0.0279371
-0.200679
-0.00337805
-0.397792
0.0108852
-0.0631325
-0.0269167
-0.0893257
0.0404194
0.00537018
-0.176523
0.0285418
-0.0124147
-0.0629839
-0.00519601
-0.350056
-0.0937809
-0.403487
0.00399839
0.0907716
-0.0837642
0.019189
-0.0692254
0.0425799
-0.250871
-0.372477
-0.00573496
-0.0973341
0.0317153
0.0782522
-0.0237815
0.065317
-0.0927281
0.0746308
0.0231495
-0.0853384
-0.390779
-0.0749935
-0.0671602
-0.092229
-0.0800726
0.0679286
-0.0193752
0.331924
-0.131268
-0.0752824
-0.17049
-0.082414
-0.35699
-0.0225563
-0.0579978
-0.0994512
-0.220244
0.0526308
0.0409968
-0.375561
0.395918
-0.291475
-0.0891108
-0.0252817
-0.221582
-0.294641
-0.390357
-0.222561
-0.0747331
-0.381434
-0.186315
0.0243034
-0.0859896
0.011158
-0.205724
0.0496044
-0.237323
0.0110405
-0.0662486
-0.306269
0.0856491
-0.104021
-0.23175
-0.0458123
0.0259298
0.00418328
0.00954312
0.258563
0.024257
0.0045567
-0.122089
0.0290058
-0.060226
-0.146123
-0.0874345
0.000841216
-0.0220465
0.226415
-0.0728597
-0.18308
0.502702
-0.0803603
-0.073284
-0.403311
-0.0123753
0.0577693
0.0140769
-0.0634539
0.0216168
-0.0202579
0.0118999
0.0293285
-0.126598
-0.127802
0.00785581
-0.0970842
-0.0848021
-0.0158661
-0.194223
-0.00614158
-0.199671
-0.0660013
-0.038423
0.0109373
0.478579
0.0801545
-0.335789
0.026347
-0.0815925
-0.0789049
0.00589398
0.0495629
-0.00731196
-0.0197703
-0.218502
-0.21039
-0.039779
0.157325
-0.0700389
-0.101568
0.0299091
-0.159154
-0.0882838
-0.0126174
-0.392766
0.00592313
-0.0753152
-0.0736973
0.0268264
0.0307338
0.0226825
-0.0722342
-0.00697251
-0.136433
0.0800039
-0.06715
0.0858501
0.0044554
-0.317513
-0.118637
-0.144841
-0.351225
0.331032
-0.0988574
-0.0624746
-0.0708316
0.0381377
0.019616
-0.331921
-0.246092
-0.214972
0.00864711
0.0203524
-0.0133914
0.00792218
-0.366174
-0.0295601
-0.405112
0.139326
0.136538
0.0253725
-0.392975
-0.0948225
0.0253405
-0.190028
-0.1929
0.0032874
0.228645
-0.339048
0.0556461
-0.161428
-0.140338
0.0104807
-0.0585226
-0.0202404
-0.162771
-0.384625
-0.184341
0.18089
0.406143
-0.383592
-0.173211
-0.0190849
-0.0713479
0.0646789
-0.0262383
-0.357837
-0.0683351
-0.0445572
-0.404179
0.0211722
-0.0523738
0.0249185
0.00972564
-0.0709133
-0.206262
0.0292952
0.155622
-0.259003
0.313527
-0.05892
-0.320156
-0.0852396
-0.383139
0.0275689
-0.379595
-0.0589275
0.0384119
-0.071355
-0.0126257
-0.261195
-0.183958
-0.0876372
-0.0120312
-0.299721
-0.00719994
0.19263
0.054254
0.447279
0.046149
0.02327
-0.059398
0.0695362
-0.00102618
-0.109394
-0.0840505
0.0275009
0.0558814
0.0660689
-0.0748519
0.0779846
-0.233819
-0.408
-0.0845685
-0.0244392
-0.168792
-0.0505826
-0.059301
-0.336666
-0.216648
-0.127181
0.0117627
-0.299388
-0.205079
-0.0731661
0.0259834
-0.00172409
-0.0107104
-0.183243
0.0546127
-0.015244
-0.001494
-0.0442413
-0.0589761
-0.114307
0.00749623
-0.11927
-0.0706911
-0.227452
-0.00616133
-0.0929961
0.0623134
-0.016425
-0.0308147
-0.107258
0.343325
-0.11966
-0.190005
0.000147766
-0.0572048
0.011269
0.00795487
-0.406401
-0.251033
0.0105949
-0.141784
0.14405
0.476796
-0.274502
-0.10049
0.0376133
0.0297235
-0.0701847
-0.00288377
-0.0394544
-0.0772705
0.00525907
-0.408674
-0.0250315
-0.0391144
-0.404918
-0.330933
-0.138551
-0.254282
-0.240889
0.0380535
-0.0716139
-0.0453899
-0.0357801
-0.178887
-0.00524776
-0.0480623
-0.0709311
-0.223375
-0.0986065
-6.11821e-05
-0.0810355
0.309342
-0.223398
-0.0327762
-0.154223
0.0398379
-0.00790425
-0.38714
-0.0940464
-0.142237
-0.0159421
0.0795879
-0.0939046
-0.122824
-0.102944
-0.0399124
-0.36732
-0.00745094
0.0750383
-0.0550179
-0.0725326
0.00759064
-0.175544
0.0506186
-0.0470003
0.00522711
-0.294098
0.0758852
-0.211638
0.396089
-0.0072137
0.36092
-0.141531
-0.0986331
0.0101265
0.00306215
0.0369458
-0.225108
-0.00937106
-0.0957784
0.00735659
0.169885
-0.000898582
-0.408604
-0.074141
0.0891798
-0.0979284
-0.020373
-0.0171767
-0.261138
-0.107658
-0.124982
-0.0298648
-0.0833946
0.0326562
0.0220171
0.016935
-0.0464228
-0.104983
-0.331188
-0.0167283
-0.0537219
-0.279967
-0.357655
0.0372812
0.114317
-0.404119
-0.00053953
0.103783
-0.10546
0.0371774
0.142664
-3.24266e-05
-0.0118226
0.00370611
-0.146957
-0.0962851
0.00407162
0.0497402
0.0195971
0.125231
0.0218878
-0.0695843
0.00289569
-0.0904429
-0.237695
0.0512289
-0.162003
0.06642
-0.379701
0.101258
-0.114433
-0.145934
-0.0157336
-0.0569045
0.0180555
0.053821
0.032871
0.0623648
-0.0765344
-0.00769847
-0.199146
-0.102953
-0.298047
-0.0400981
-0.00915778
-0.0646224
-0.1167
0.0185833
-0.368486
-0.00200029
-0.269999
0.00428188
0.0184185
-0.0199619
-0.394218
-0.181126
-0.363251
-0.319551
0.0578441
-0.280362
-0.0826181
-0.236429
-0.086363
-0.00952917
-0.111316
-0.0651792
-0.40363
0.174682
-0.135692
0.189767
-0.320339
0.0102429
-0.0975007
0.185175
0.515904
-0.36609
-0.197812
-0.061914
0.292229
-0.0754384
-0.229017
-0.131171
0.0184359
-0.0992834
0.168717
-0.0808658
-0.0584
-0.0628933
-0.00310176
0.486044
-0.0402258
-0.00631
-0.0832541
-0.254599
-0.00348292
-0.0558847
0.176972
0.0503833
-0.106224
-0.00606954
-0.0741131
-0.397117
-0.0721852
-0.25509
-0.0706427
-0.0820922
-0.125794
-0.112144
0.00740952
-0.0774032
-0.388274
-0.244619
0.100382
-0.00151032
-0.00587533
-0.00160058
0.125086
-0.061886
-0.00150563
0.0708721
-0.0189348
-0.010296
0.12688
-0.143166
-0.0555046
0.0135505
0.0359781
0.007348
-0.0172047
0.012242
-0.152728
-0.108672
-0.355861
-0.0199568
0.259205
-0.0787854
0.00712986
0.00564501
-0.00589263
-0.266084
-0.0975018
-0.0370984
8.50583e-06
-0.0166505
-0.0710373
0.014712
-0.0429381
-0.0644453
-0.314908
-0.407681
0.309635
0.0236089
-0.0442541
0.0229564
-0.0118556
-0.00742695
-0.37862
-0.0987201
-0.0827238
0.00164765
-0.140989
0.0575201
0.34889
0.0287302
0.0814607
-0.232668
-0.135191
-0.391254
-0.363095
-0.275046
0.321833
-0.0873304
-0.16025
0.233514
-0.0966257
-0.103499
-0.0826951
-0.325341
-0.00199288
-0.386109
-0.0198295
-0.0452713
-0.188217
-0.0483446
-0.392501
0.407032
-0.0828913
0.05646
-0.37893
-0.110335
0.277885
-0.408413
0.0339938
-0.0110879
-0.0614865
-0.0684749
-0.0589556
-0.261573
0.0788496
0.0478343
-0.206251
0.316221
-0.0910872
-0.300186
-0.0351855
-0.196234
-0.318466
0.0686367
0.00138819
-0.0898927
-0.126233
-0.0780471
0.0089873
-0.137249
0.0145846
0.0196831
-0.350458
-0.160795
-0.007789
-0.0262133
-0.0244592
-0.407432
-0.0896685
0.0355034
0.234732
-0.0247164
0.0491825
-0.0886477
-0.0423835
-0.100709
-0.313892
-0.0127695
-0.0691437
0.0118579
-0.408047
-0.267963
-0.112846
-0.027873
0.0947016
0.289611
0.0143762
0.0577826
-0.101961
0.116495
-0.258499
-0.0265803
-0.324564
-0.0419194
-0.0551325
-0.133757
0.0421956
-0.0750704
-0.322663
0.00580453
0.0235269
-0.095443
-0.0749917
-0.200279
-0.0580346