/*--------------------------------*- C++ -*----------------------------------*\
| =========                 |                                                 |
| \\      /  F ield         | OpenFOAM: The Open Source CFD Toolbox           |
|  \\    /   O peration     | Version:  v2012                                 |
|   \\  /    A nd           | Website:  www.openfoam.com                      |
|    \\/     M anipulation  |                                                 |
\*---------------------------------------------------------------------------*/
FoamFile
{
    version     2.0;
    format      ascii;
    class       volScalarField;
    location    "300";
    object      ddt0(k);
}
// * * * * * * * * * * * * * * * * * * * * * * * * * * * * * * * * * * * * * //

dimensions      [0 2 -3 0 0 0 0];


internalField   nonuniform List<scalar> 
13851
(
1.05751e-06
-2.26549e-08
-2.31013e-08
-6.94616e-05
-4.95399e-10
-3.25521e-08
1.76803e-08
4.58902e-09
-0.000708335
2.90187e-09
-4.75468e-08
3.42043e-09
-1.41736e-08
-0.000340831
-5.15639e-08
3.03484e-07
-0.000147376
-8.71898e-09
-1.34051e-05
7.26091e-07
-6.28183e-08
-4.93428e-09
-0.00132635
-1.47764e-11
0.00973309
-2.04444e-07
-0.000160675
0.00217113
0.000845848
4.87659e-09
0.00021936
1.82293e-08
1.0132e-06
0.000499601
3.27739e-08
0.00114617
4.35744e-12
-0.00625167
0.000140217
1.14887e-08
-0.000647919
0.000869358
3.42237e-06
-2.66216e-06
0.000211065
4.16665e-09
3.17e-09
-1.45763e-06
-9.61191e-09
-1.38947e-08
0.000160457
-8.31609e-09
8.30476e-08
2.43982e-09
-0.000140253
1.09089e-08
1.31488e-06
-0.000420014
7.28303e-05
5.55453e-05
2.91196e-09
4.68124e-05
2.77473e-09
-1.18955e-08
2.04929e-06
1.95101e-06
7.00691e-05
-2.84707e-06
2.48004e-08
-0.000206369
0.000121325
-1.84411e-08
-2.08634e-08
2.01275e-05
-1.81738e-08
1.6293e-08
-0.000125417
3.05346e-10
0.00653084
-1.09566e-08
2.41201e-08
-4.98293e-07
3.96122e-09
-0.000349612
-4.65047e-06
0.000193433
-4.69336e-09
-8.14897e-05
1.25807e-10
0.000188438
-6.39609e-09
1.82422e-08
0.000124338
0.000137887
0.000662478
-1.68646e-06
-6.82626e-09
-9.09033e-07
0.00016877
-4.06919e-07
-1.10876e-06
9.05013e-07
3.77885e-07
-1.6499e-08
1.00842e-08
2.77618e-08
9.50968e-09
0.000162586
1.82766e-08
-6.74052e-09
-6.16061e-08
6.28276e-09
1.79632e-06
1.00972e-07
-4.25468e-07
6.52347e-09
1.99795e-09
3.87165e-09
-8.03783e-05
-0.000272744
-5.31651e-06
8.4733e-10
2.43763e-08
0.000116639
-3.66107e-06
-1.65749e-08
-5.73682e-09
-1.14934e-08
0.000343189
-6.89323e-08
-1.47474e-09
-2.87324e-08
-0.00148609
0.000631166
-3.90388e-08
0.000627919
-2.78294e-06
0.000185193
5.55629e-08
-8.73136e-08
1.16907e-06
-1.35516e-08
-1.04637e-09
-4.46521e-06
0.000245666
2.46971e-08
-2.25537e-10
0.000132338
0.000131472
5.98443e-08
-1.41111e-06
1.66704e-06
1.26128e-07
-2.51902e-06
-7.92018e-09
-7.0389e-09
1.1281e-09
0.000163474
-7.52675e-08
1.46307e-08
-2.63211e-11
0.000987438
-2.09994e-08
-1.55307e-06
-0.000354175
-0.000834052
-0.000841842
0.000179112
9.99317e-09
0.00207999
1.97795e-09
1.97084e-09
-6.64713e-09
-3.30189e-10
0.000771345
0.00012543
-3.47165e-06
2.58405e-09
-1.43564e-08
-3.28475e-06
-3.87757e-06
3.21967e-06
-6.26944e-09
-6.20012e-08
-8.12898e-05
0.000168724
8.60916e-07
7.81769e-08
-1.14301e-08
6.88601e-09
-0.00331636
-7.48455e-08
-0.000246659
-3.21254e-08
2.49532e-08
-4.72076e-07
4.67625e-07
-8.09953e-09
-1.42768e-08
-3.05189e-06
-8.09753e-06
0.000109951
-0.000661245
-5.71855e-08
-0.00196082
2.92932e-05
5.36645e-09
-1.19298e-07
-0.000715033
-3.45641e-08
7.14702e-07
2.38066e-08
-3.40797e-06
-6.95546e-10
2.50024e-08
9.52135e-09
-1.4531e-08
-1.18885e-06
-1.84855e-08
-6.81492e-06
2.49065e-09
5.3156e-07
-0.000249852
0.000692406
3.42464e-08
-1.22064e-07
-1.31842e-10
3.17963e-07
3.22687e-09
2.8507e-08
-0.000468366
4.79613e-08
-3.41882e-08
5.63719e-10
-0.000507678
4.65394e-09
-0.012703
-0.000619656
1.72703e-06
-3.19542e-11
0.00010408
-6.83764e-05
0.000137384
5.45311e-07
-2.89945e-08
-1.56535e-06
2.12386e-06
-9.20696e-09
8.50539e-07
-1.97252e-07
1.24707e-05
-5.42926e-07
4.16441e-11
-1.80428e-08
-6.43231e-07
0.000953849
-0.00014654
6.00235e-09
-1.39768e-06
1.10813e-09
3.94071e-06
-2.04684e-06
-1.49699e-08
-6.39815e-08
-4.74973e-07
-2.01314e-08
-1.07852e-06
-1.36923e-06
0.0012378
6.37914e-09
-1.33817e-08
6.98108e-08
-0.000288447
-0.000104821
-6.68088e-08
4.45902e-11
-3.66667e-06
-4.28927e-06
-8.61558e-08
-6.11774e-08
-0.000416742
0.000241566
-2.4962e-08
-3.41538e-08
0.000729288
1.09362e-08
8.96775e-10
1.1216e-07
1.67262e-08
3.77073e-09
-6.1361e-10
1.9317e-09
4.40836e-10
-2.94019e-08
1.63507e-09
-0.000741508
-3.99337e-08
1.01122e-08
0.00100503
3.55064e-05
-1.01168e-08
5.09893e-07
0.000133546
3.36958e-08
-9.03378e-09
-2.57342e-08
-0.000278449
0.000442221
-3.82125e-08
-1.47014e-10
0.00224875
2.60312e-09
-4.28512e-08
0.000135894
0.0014272
1.38755e-08
0.0006753
0.000162881
0.000157768
7.61964e-07
-3.01602e-06
0.000729119
0.000279023
-0.000254494
-1.62755e-08
2.46044e-05
-0.000130039
1.22325e-05
-4.12174e-06
5.6832e-09
-2.59653e-08
1.02684e-08
-8.04057e-05
2.30887e-06
-1.0557e-09
2.16149e-09
-2.77132e-08
0.000128613
-1.40218e-05
1.05074e-08
0.000613564
1.12551e-08
-3.17683e-08
1.5067e-08
-0.000191196
-3.03011e-06
-2.22684e-07
1.39523e-08
-3.39138e-08
0.00121803
-1.11014e-08
-3.89689e-06
-2.33551e-08
-2.74848e-08
4.21191e-08
8.99555e-11
1.15315e-08
-9.58164e-08
3.36824e-06
-8.39661e-07
8.33422e-05
0.00137725
2.43601e-08
-0.000494802
1.29758e-06
-3.016e-09
0.00146521
1.46436e-07
0.000143617
-2.62871e-08
-1.25332e-07
-6.19925e-05
-0.00169274
2.03336e-08
-5.82536e-06
-1.75148e-08
6.77671e-05
1.46222e-05
-2.47254e-08
5.91184e-05
-2.54818e-08
-0.0007686
-3.35325e-08
-1.59262e-08
-7.97447e-07
1.97117e-06
-7.23215e-09
-2.72669e-08
-1.98902e-08
-1.38829e-08
1.25229e-09
-7.43713e-08
-0.00231528
-1.80957e-08
-1.19778e-07
-4.05424e-05
-3.18468e-08
-0.00148981
-8.02456e-08
0.000457426
-3.43388e-08
-1.61415e-07
0.000197979
-3.46186e-06
-1.94711e-09
-0.00017449
-4.07317e-05
6.03918e-05
-2.0224e-08
-5.104e-07
-2.67901e-08
-1.37703e-07
3.55197e-09
-5.33935e-05
-0.00332442
0.00245305
-3.38369e-08
-8.40769e-07
-5.76154e-05
-8.70074e-05
-4.69913e-09
9.60971e-06
-9.85525e-06
-0.000877173
-5.69615e-08
-0.00472061
-1.25928e-08
-3.91528e-10
-9.49436e-05
-7.30325e-05
2.35373e-09
-2.40934e-08
-1.15723e-07
-1.18363e-10
-0.00397616
-1.98287e-08
1.41699e-07
2.49517e-09
-1.80419e-08
-4.96025e-09
-0.00129664
6.86895e-09
-4.50595e-09
-0.000394613
-0.00305573
3.12649e-09
-2.27354e-05
1.90169e-09
1.35665e-09
-3.27221e-08
-6.83533e-07
-5.74894e-08
2.14518e-09
-2.70044e-08
-8.74917e-07
-1.65325e-08
0.00017806
2.97901e-09
5.37367e-09
4.531e-05
-4.56711e-08
-2.95126e-09
7.0545e-10
6.92861e-11
-5.43046e-09
-0.000242172
0.000125223
-2.83822e-08
-1.00894e-06
-3.25593e-08
6.46817e-09
0.000359722
1.99787e-05
-2.52537e-07
-1.40929e-08
0.000202366
-1.46532e-07
0.261067
-1.74944e-08
-3.25103e-08
1.69682e-07
-3.94209e-08
0.000353653
-0.000129655
0.00160195
1.6562e-08
8.65121e-07
-1.9347e-08
0.000856778
-8.44435e-08
4.39012e-07
-2.63427e-08
1.45873e-08
-9.15478e-08
-1.81935e-08
-3.81134e-10
-5.87145e-05
0.000261609
4.34077e-05
4.90482e-05
-0.000133349
8.58722e-06
-2.75586e-06
3.88749e-09
-1.95426e-09
-0.0075013
3.50778e-09
7.51385e-10
2.59145e-08
0.000751481
-1.52428e-08
6.27569e-09
-9.55546e-08
1.36008e-08
1.13596e-09
0.00103064
-1.14693e-08
0.000442065
-7.00984e-05
-1.16659e-08
1.24448e-10
7.04323e-06
0.00149724
4.50283e-09
-0.00328244
-0.000767056
-7.0009e-09
-0.000334223
-1.32895e-05
5.50197e-07
1.63095e-08
-0.000387444
0.000240827
-6.75559e-09
1.28132e-06
2.50415e-08
-1.03989e-08
0.000816173
-0.000761962
-1.67371e-08
-5.01749e-08
2.79113e-09
-2.08006e-07
0.000349149
0.000455892
-8.19158e-09
-0.000137055
9.95949e-10
2.47625e-08
1.76676e-09
1.19657e-08
-4.67163e-09
1.76228e-08
-0.000381343
1.33251e-06
-0.000307856
-1.49674e-08
-2.45721e-09
-0.000350471
-2.32599e-09
-4.94797e-07
-1.38299e-09
-2.44944e-08
-2.79243e-08
-4.56384e-05
0.000227685
-3.06036e-08
5.096e-05
1.2009e-08
6.69375e-08
0.000748539
-0.00019504
2.15724e-08
-1.94093e-08
-2.86967e-06
-0.000313831
-7.19068e-06
-2.04802e-07
-0.108603
1.10535e-08
-3.20877e-08
-0.000551338
0.00162599
1.0233e-06
0.000467899
-7.45934e-07
0.00149848
-1.07293e-08
4.98498e-05
-0.00339272
5.5166e-09
0.000107572
-0.00014987
-2.16182e-08
-8.17655e-08
1.75922e-09
-8.79601e-06
-3.1967e-08
0.00424649
4.99862e-09
-1.88557e-10
-3.90961e-08
-1.12519e-08
2.4601e-09
0.000652037
-2.68481e-10
7.12992e-07
2.26299e-08
-1.49473e-07
-1.60315e-08
6.928e-10
-3.21668e-09
-0.000135814
-7.61861e-08
0.000598259
-2.54928e-08
-6.09908e-10
-3.05736e-09
-6.41346e-09
-2.72019e-08
5.13315e-07
-1.8201e-08
-4.48309e-10
0.000267332
-2.26901e-09
-9.45916e-05
-2.66636e-10
-1.09645e-07
4.06005e-05
-0.000667128
1.48478e-06
0.00606023
-1.20968e-07
-3.85537e-06
0.000249042
-7.11814e-09
0.000313051
1.25361e-08
-2.5345e-08
2.02951e-05
0.00425728
-3.22074e-09
4.26758e-07
-7.40974e-09
0.00128767
0.000224998
1.93714e-08
-2.30839e-06
-0.00298004
-4.098e-10
-4.69829e-10
-1.72096e-07
-7.43385e-05
0.000193339
-8.62704e-09
-1.17501e-06
-1.66854e-08
1.10102e-10
-0.00116029
-1.26993e-06
-1.11917e-06
-4.28712e-09
-1.47518e-06
-1.55698e-07
-1.12779e-07
-5.65178e-11
2.59826e-08
-1.97322e-07
7.97617e-10
-1.52168e-06
-2.33767e-08
-3.17328e-08
-1.6376e-07
0.0051524
-9.77342e-06
0.00255531
-0.00358133
-1.21469e-06
-0.000433236
-1.20791e-07
0.000933109
4.97705e-07
-2.1953e-09
-2.54248e-08
3.69202e-06
-1.6635e-08
-9.47269e-09
-7.79765e-09
-1.37126e-07
-6.85083e-05
3.43692e-09
-0.000472367
-9.4066e-10
0.000265348
7.79655e-07
0.000136958
3.64103e-07
-3.44266e-08
-1.99843e-08
0.000140046
-2.18641e-06
9.70543e-09
-3.55251e-05
-1.75419e-08
-1.24248e-05
-1.01165e-07
-1.31135e-06
-2.89095e-08
-2.3614e-05
-1.37331e-08
-4.41517e-10
4.70368e-09
-3.35611e-10
0.000568414
5.03075e-10
-0.000389671
-0.000478729
3.63093e-07
0.000579196
0.000163668
-5.89498e-07
1.20811e-06
3.02478e-07
-5.18504e-10
-1.30342e-08
1.387e-09
-2.13272e-09
-2.76941e-10
2.13095e-08
2.31499e-06
-7.66785e-07
0.00277539
1.79748e-08
-0.000705032
7.30293e-12
-8.61841e-05
-1.14465e-07
8.20872e-12
-1.25549e-11
-0.0007458
-3.3202e-08
0.00485478
0.000193966
-7.83987e-08
-3.65232e-08
-5.96461e-09
0.000499444
2.58408e-08
-1.60236e-08
-4.16144e-05
-7.2792e-10
-2.1811e-09
-7.91854e-09
-9.68704e-08
1.03874e-05
-2.94487e-08
-2.93498e-08
-1.35601e-05
0.000403465
1.39037e-07
-6.49425e-08
0.00117308
1.2886e-09
0.00125283
-2.38401e-10
-1.34429e-08
0.00570635
-6.16462e-07
-8.90708e-08
-1.89711e-07
-2.33191e-08
-6.64465e-10
2.58925e-11
9.66508e-08
-1.27893e-08
-3.65805e-10
4.89151e-09
-3.4485e-05
9.31609e-10
6.55827e-06
0.000502276
0.00435023
-5.19255e-08
-0.000163173
2.73966e-07
-6.48341e-10
-8.08906e-07
-1.89428e-09
-2.68693e-08
0.00294505
0.00139509
0.000819118
0.00112932
1.62477e-08
2.27059e-08
8.12882e-08
2.69088e-08
8.70974e-09
-0.00249135
2.33954e-06
1.51223e-05
-8.66327e-08
-5.88213e-07
-2.11157e-09
4.99254e-09
0.00101287
4.7387e-08
-1.42067e-08
5.75223e-11
-5.3525e-07
2.60159e-06
-0.000552488
-8.46624e-09
-7.60494e-10
-2.54378e-05
-7.89652e-10
-3.02362e-08
-8.87235e-10
0.000744844
9.03045e-10
3.72264e-05
5.9739e-09
-9.41008e-08
-4.61836e-08
4.66272e-07
-2.92506e-08
-2.02375e-08
-2.62302e-08
8.29744e-10
-2.37849e-06
8.17726e-10
-9.6695e-05
-2.12251e-08
-0.00630181
0.000304208
-2.983e-08
7.76833e-10
-9.3906e-07
-0.0002082
-2.98261e-08
-6.21761e-07
-1.1766e-08
-0.000168343
-3.93308e-09
1.289e-08
6.79948e-09
8.93618e-10
0.00486608
-2.83076e-08
1.40934e-09
3.66763e-11
-0.000104129
6.74845e-05
-0.00275592
5.89153e-09
-0.000467861
6.57088e-09
9.95933e-10
-7.78022e-09
1.77844e-09
-1.09244e-09
-0.000300762
0.00198489
-1.9227e-08
-2.76333e-10
-3.66001e-08
6.6086e-09
-2.25338e-07
-1.31625e-07
-0.00037653
0.000708182
-2.81239e-08
-1.61943e-06
6.07455e-09
-6.45763e-08
5.67833e-07
-8.01778e-09
-2.17824e-10
-0.00027688
0.000226265
-2.61294e-08
-8.34892e-05
-2.00685e-07
2.17489e-09
-6.81094e-08
-6.65155e-07
-5.88205e-05
-2.7841e-08
0.00280988
4.00557e-08
-8.08893e-10
0.000100262
-0.000679505
0.000100235
0.00228879
0.00136572
2.21649e-08
-1.38215e-06
-3.17361e-09
-0.000521423
-1.92103e-08
-9.69436e-10
-0.00203742
2.20696e-08
6.93529e-10
2.29241e-08
2.56872e-08
0.000652336
-6.51698e-07
-2.98163e-09
-4.40033e-08
-0.000321498
6.02234e-10
-7.18095e-05
1.0295e-08
-3.62145e-07
-0.000506404
1.71762e-09
2.14422e-06
-1.9266e-08
-2.69539e-08
-8.77076e-06
2.25738e-08
-6.93667e-06
-1.3226e-07
-0.000398823
2.86071e-09
-5.81438e-05
-2.53918e-08
-7.81373e-05
0.000140653
-0.000135508
-8.86355e-08
-1.8616e-08
1.69219e-08
-1.60366e-10
-3.26803e-09
1.28737e-09
0.0003622
9.12514e-09
1.10742e-08
1.04272e-07
2.49194e-08
4.74057e-09
1.81709e-08
-1.77362e-08
-1.72651e-09
-1.36855e-08
0.00155293
-0.000193516
-2.55657e-08
-5.19809e-09
-0.00156628
4.4689e-09
4.93237e-05
2.35626e-09
2.35415e-07
9.0712e-10
1.72029e-08
9.92862e-09
6.77647e-09
-2.51723e-09
-2.87525e-06
-7.00901e-09
-1.41672e-05
-2.57678e-08
9.52105e-05
0.000315377
-9.04186e-07
2.11819e-06
-1.54438e-08
0.000514383
1.68484e-07
-8.94751e-10
-1.71708e-08
3.93857e-09
6.24222e-05
9.6177e-09
-5.92279e-07
0.00149758
-7.6101e-05
1.4311e-07
-6.37941e-09
-0.000117532
0.000894621
0.00141901
-1.53735e-08
1.31272e-10
-8.62523e-09
-4.27282e-08
-1.74108e-08
0.00022192
-4.2984e-07
-2.12878e-09
3.37475e-06
7.19557e-06
-6.50825e-09
0.00142689
3.58928e-05
3.5453e-06
-2.16811e-08
0.000141018
-7.08431e-09
2.74015e-09
-4.85381e-06
1.3029e-08
-3.84302e-09
-1.52337e-08
-8.51269e-09
-1.35168e-08
-0.000708347
0.000203606
-7.07365e-08
-0.000789213
-2.92489e-08
-9.82635e-09
1.3839e-06
-6.86363e-09
0.00106308
-9.08351e-09
6.12235e-10
2.28477e-08
-1.40491e-08
-0.000121735
-0.00013395
-1.70328e-05
0.000207587
0.000316348
1.07739e-08
-1.75648e-08
-2.54864e-08
-1.2206e-06
-9.36682e-09
-2.90649e-09
-1.30811e-07
0.00867062
-2.98304e-06
-2.34198e-09
1.0973e-07
-2.83791e-08
-3.95249e-07
8.09696e-06
-6.8598e-09
-4.302e-09
1.28596e-08
-0.000225254
4.69152e-09
0.000243509
2.66802e-08
-8.07493e-10
-4.16786e-09
-1.38324e-08
8.6118e-09
4.5009e-07
0.00163722
-0.000701991
3.92003e-07
7.15934e-09
-0.000316029
-4.02463e-09
-0.00573079
0.000242501
-6.79884e-09
-0.000120975
0.000701644
-0.00011012
-1.49047e-07
-2.52281e-08
-0.000495773
-2.68004e-08
1.68304e-08
-5.88043e-08
-1.50481e-05
-7.56264e-09
-5.87327e-07
-9.88185e-09
0.00339796
0.000688552
2.57132e-09
1.71323e-08
3.93156e-08
-1.34888e-06
-2.83143e-08
-5.35399e-10
-3.88338e-09
4.77721e-09
5.07795e-09
-1.42751e-06
-1.52548e-09
-0.000150478
3.34082e-06
-1.2646e-08
-2.32958e-08
-2.06474e-08
4.8203e-09
0.00117073
-7.91101e-05
0.00061549
9.00166e-05
5.78213e-09
-2.05999e-10
-2.69052e-08
-7.89577e-09
-2.35696e-06
-3.09538e-08
-1.93037e-10
-3.09308e-07
3.58858e-08
-0.00437757
-5.05352e-08
-0.000245792
3.60834e-09
4.25503e-09
2.76812e-06
-1.04314e-07
-4.84753e-08
-2.00111e-08
-9.67266e-05
0.000169611
-0.00174601
-2.9431e-05
0.00296751
-0.000806534
-0.000126175
-1.83214e-08
2.18714e-10
-1.16648e-08
-7.66261e-06
-7.11459e-08
-3.25144e-08
5.34864e-06
1.42962e-09
1.61515e-09
3.03633e-09
3.27025e-06
-9.67108e-10
-1.07616e-08
2.22666e-08
0.000653669
2.50073e-09
-2.25128e-09
5.66408e-09
-4.57503e-09
-2.45267e-10
1.59616e-09
-3.35293e-06
3.38801e-08
-0.00414143
4.48885e-09
-1.31925e-08
0.000418425
0.000556043
-5.70896e-05
0.00221197
-7.08437e-07
-0.00017359
2.03003e-10
-2.48659e-07
8.63736e-09
5.5208e-09
1.533e-08
3.81356e-05
-1.52301e-08
-6.0893e-08
0.00342649
-8.07388e-09
1.65604e-08
8.92709e-09
-6.86162e-07
-5.4345e-11
0.000492125
-1.11037e-08
8.44392e-06
9.8257e-11
-1.92358e-08
-2.89958e-08
-1.28621e-06
-1.5023e-08
0.000574358
0.000161636
1.4821e-06
0.000795347
-1.11892e-08
-7.15068e-05
0.000520651
7.37654e-09
-0.000644964
-8.62934e-09
8.72985e-07
-1.01371e-08
6.7372e-09
-1.20556e-11
5.2021e-10
2.40186e-08
1.59784e-07
-7.53398e-08
-8.91315e-09
1.52268e-09
-2.88827e-06
-4.9092e-09
0.00145591
3.24926e-10
-2.72267e-08
-1.96719e-08
0.000122068
0.00822565
-9.04582e-10
4.68002e-07
-8.54439e-10
6.08078e-09
-1.90563e-09
0.00210056
-1.08924e-07
-2.53743e-11
-1.21014e-06
1.76685e-06
-3.7387e-07
-0.000170497
8.57631e-08
1.88336e-06
-2.09381e-07
-1.77954e-07
1.25467e-08
2.6988e-09
0.00475906
-5.23985e-05
-2.20209e-08
2.55552e-09
-2.47348e-05
-7.67565e-10
-2.07762e-08
-5.18643e-09
1.23371e-07
-0.00394144
-6.81563e-10
-7.09102e-05
-3.10051e-08
-7.592e-10
-3.37389e-06
-9.92353e-10
1.42243e-06
0.000161715
-2.7298e-08
0.00474893
-3.53444e-10
-8.85784e-11
-1.01098e-06
-1.3325e-09
-1.35467e-10
8.83308e-11
-2.7223e-08
-4.98197e-08
1.59689e-07
-1.39206e-08
1.13141e-07
3.88377e-09
6.36456e-09
-1.64159e-09
7.01737e-09
0.000208837
-8.02743e-09
1.05931e-08
-1.8239e-05
-2.31261e-10
2.06604e-09
0.000131279
-2.37947e-10
0.000113251
-1.17108e-08
2.55664e-05
-3.44109e-06
3.49197e-07
0.000740086
-1.02301e-08
-2.31661e-05
-2.05634e-08
2.55294e-06
-3.00101e-08
2.04069e-09
3.44989e-09
1.0214e-08
-2.53483e-08
-7.39579e-09
-2.03685e-09
-4.00707e-09
2.68131e-09
-2.47786e-05
0.000171551
-0.00163021
1.39845e-08
-4.80734e-07
0.000165257
-0.000300351
-2.15993e-09
-7.83281e-09
-0.000111282
-1.71075e-08
1.50557e-08
-0.000498221
-0.000634134
8.11978e-11
-9.35968e-08
2.79074e-08
7.08201e-06
3.48001e-11
7.09699e-08
-0.00231487
-8.08812e-09
4.29453e-09
0.00137743
-6.39153e-08
-1.82285e-05
0.000642278
-2.08484e-07
1.45776e-09
-3.95454e-09
-1.99515e-08
-0.000108292
-0.00238024
-0.00285532
-7.75415e-09
-1.67341e-09
5.63549e-05
1.97244e-09
1.53257e-06
1.0539e-07
1.27107e-08
-2.0263e-08
7.05048e-09
0.00056823
0.000238765
-1.93004e-10
-4.60041e-08
-7.73363e-08
0.000329449
4.66857e-08
-1.76086e-07
-7.71016e-06
-2.41144e-08
-5.09698e-05
-2.30631e-07
1.62229e-09
-4.01671e-08
2.03068e-07
-0.000284446
5.90832e-09
0.00202678
3.56454e-08
-1.33016e-07
-6.06894e-11
0.00024252
-1.45447e-08
2.47149e-08
9.90557e-09
-4.62677e-08
-3.71154e-08
9.41849e-08
-1.49068e-09
2.8958e-08
8.90942e-09
0.000119961
-1.07312e-08
-1.46386e-09
1.63585e-10
-3.90777e-08
1.67702e-06
-2.27176e-09
-1.34999e-07
0.00148102
3.85194e-09
-0.000747637
-1.00994e-08
0.000151279
-9.0153e-06
-1.90547e-08
3.36376e-05
-6.74072e-12
-1.26622e-10
-2.2689e-08
-3.06382e-08
3.59602e-07
-1.15005e-07
-1.78526e-09
-1.25921e-08
-2.99006e-08
2.11223e-08
-1.54499e-09
3.80245e-07
-1.24896e-08
1.33529e-08
0.000154529
-2.04155e-08
-1.63492e-07
-9.39583e-09
-2.66755e-05
-6.98772e-08
-1.50251e-08
-2.03255e-08
2.0695e-09
-0.000237853
-5.89671e-07
-2.2514e-08
0.0004143
-4.43395e-05
0.00021684
-1.6841e-07
6.43017e-06
-5.82586e-09
2.97509e-06
-3.51824e-09
6.00663e-08
0.000171917
0.00109655
1.13001e-05
0.000170366
5.97292e-10
-0.000194506
-5.47027e-09
-6.5066e-07
1.85806e-08
-0.000528195
-0.000823278
1.82779e-08
4.07319e-10
9.92982e-06
-1.63504e-07
3.58021e-09
-7.80433e-05
1.79453e-09
2.44387e-08
-1.11499e-08
-9.67288e-09
-3.27556e-08
6.33845e-09
-4.7661e-09
-5.25414e-08
4.86529e-05
-4.4996e-08
-8.40583e-09
2.81078e-09
0.000133755
0.00132343
8.85172e-10
-5.38384e-06
1.90926e-08
1.19835e-08
-0.00536875
9.03708e-10
1.48398e-08
1.66486e-08
2.39387e-05
5.57548e-09
-7.32842e-10
6.12952e-09
0.00188862
8.30053e-10
3.59299e-09
1.89954e-07
0.000454301
-3.44807e-08
-8.91314e-09
1.59891e-06
1.6585e-09
-3.48627e-06
3.40648e-09
0.000102494
-3.28367e-08
3.04753e-09
1.48934e-08
1.88137e-07
-6.7557e-10
-1.67863e-08
-5.29296e-07
0.00165056
-2.92933e-09
-7.4765e-05
-1.49711e-09
3.13914e-09
-1.94417e-08
5.63117e-09
-8.04394e-09
-0.000861661
-1.0302e-10
-2.32639e-08
-2.99809e-06
-1.00157e-05
0.000208656
-9.47234e-09
3.02724e-09
2.44813e-08
2.08341e-09
-1.80641e-08
4.67419e-09
-0.00066051
-2.03415e-09
-6.41222e-05
-1.08005e-06
3.27644e-09
-4.83119e-09
-3.53235e-08
-1.04529e-06
-2.22763e-05
-1.83232e-07
3.33822e-09
1.88589e-08
-0.000746017
4.82353e-08
9.71329e-09
-6.82299e-08
1.59667e-07
2.32275e-07
0.00047617
-1.32599e-08
-4.40699e-05
-0.00639885
-4.2384e-05
-1.66479e-08
1.51289e-08
-1.263e-08
-1.6384e-07
-3.69384e-09
-9.93538e-10
2.86779e-07
-3.52966e-10
1.23016e-08
7.53922e-09
-4.30788e-09
5.2129e-09
-1.37335e-08
-0.000103624
5.30868e-10
-2.47445e-05
1.79728e-09
-2.40398e-07
-8.9089e-09
-2.22806e-07
-9.25656e-08
-1.87242e-08
0.00215592
1.92586e-08
-1.25946e-09
-4.87202e-08
2.98403e-09
8.65735e-09
-9.19091e-09
0.00177033
6.35403e-09
-3.4238e-08
3.02778e-06
0.00250033
3.53307e-10
-2.1456e-06
0.00225869
-4.89019e-08
-1.57363e-08
-2.59148e-08
6.70519e-07
3.24442e-08
0.000160713
3.91152e-09
-0.000323786
1.96749e-08
-3.49094e-08
0.000111292
3.12824e-10
-0.000245972
-2.49132e-09
-2.75732e-08
1.83673e-08
-0.000141799
-2.72838e-08
-3.26769e-10
-6.30267e-08
8.12285e-07
-6.63192e-09
6.01123e-09
-5.86119e-10
0.000260061
-3.4722e-10
5.64006e-10
0.000661847
2.26789e-08
-2.0338e-08
-1.52573e-08
-3.71048e-10
6.40657e-05
1.54559e-09
-1.20629e-08
-2.72782e-09
-3.32551e-08
-2.08148e-08
-1.58441e-08
-2.08476e-07
0.000346405
-1.9588e-08
1.40096e-09
-0.00304656
4.45427e-09
-8.22281e-05
1.61147e-08
-0.000203796
9.93276e-09
2.41161e-08
-6.61424e-10
0.000121941
0.000861401
-5.48285e-09
3.3844e-07
4.17971e-07
2.69696e-09
7.7883e-10
0.0016772
-3.80722e-10
-6.04491e-07
-3.32516e-09
-2.34535e-08
-2.25612e-09
-0.00365972
-1.47534e-09
-9.60347e-08
4.22858e-09
6.22568e-05
-3.40286e-05
3.40801e-09
8.62514e-09
-0.00147402
-1.95843e-07
0.00141791
-0.000660786
-5.44812e-06
5.21954e-09
-2.53672e-08
-9.48009e-08
0.00180775
6.28273e-09
-2.27027e-08
-5.44284e-09
1.76135e-08
-6.37127e-05
-0.000615575
-7.17828e-08
-1.72496e-07
1.95267e-06
-5.97467e-08
-0.000393182
-3.82223e-09
4.20834e-09
2.77113e-07
0.00149882
2.23822e-06
9.65528e-07
0.000390685
4.89246e-10
0.000415842
5.26558e-05
-0.000433941
-5.42881e-10
0.000133129
1.95807e-05
-7.89001e-05
-0.000220398
-0.00047091
-6.7017e-07
-3.13652e-08
2.26823e-06
6.53977e-08
2.79879e-10
-0.000191706
1.36526e-07
-2.65599e-09
9.49585e-05
-2.22087e-09
1.80025e-07
-3.85172e-08
1.48033e-08
0.00134332
6.20699e-09
-7.18077e-05
-7.41927e-08
-2.18025e-07
-0.00669122
0.000145696
-7.54262e-07
-3.41747e-09
6.56015e-09
3.88668e-08
-2.85491e-07
-1.58461e-09
-4.15158e-08
-4.81976e-07
4.05067e-07
-1.42973e-08
1.20235e-06
1.92862e-08
-7.19607e-08
-0.00010197
-3.37711e-05
1.85957e-09
2.02523e-06
-9.21591e-05
-9.60683e-09
2.75169e-08
0.000166929
-5.85604e-06
-1.87862e-08
-3.26613e-08
4.06344e-09
-2.1651e-07
5.65834e-09
0.00106484
5.55744e-07
-6.32404e-10
-2.0491e-10
-2.18195e-06
-5.26434e-09
-0.00215737
0.000193973
4.37425e-09
5.89267e-09
-1.96297e-08
-1.36286e-09
-3.17733e-08
2.52429e-08
-2.07643e-08
1.94389e-08
-1.53289e-08
1.77018e-08
-9.2645e-09
-1.22028e-07
0.00176509
-1.35324e-10
-0.00408875
-0.000129415
3.60398e-09
2.32566e-06
2.49708e-06
-3.28272e-07
1.89537e-08
1.18127e-07
-2.58785e-08
1.6028e-06
-2.38001e-08
-5.27919e-09
-2.72412e-10
0.000108709
1.68854e-08
0.00414721
8.91617e-09
-7.46056e-11
4.68603e-09
6.52112e-08
-1.84751e-08
-7.6447e-08
-2.82245e-07
7.45895e-06
-8.1939e-09
0.0002386
-0.00202425
0.000211115
8.848e-10
-5.08561e-07
-7.1945e-06
-0.00216908
0.000995573
-1.7981e-09
2.67858e-08
4.38237e-07
-0.000969515
0.00467317
-3.35061e-08
-1.55506e-05
-1.70122e-11
-9.75915e-10
-7.89139e-09
-1.92166e-09
-2.68746e-09
-8.64494e-07
-1.48531e-10
2.06896e-06
9.15663e-09
-0.000689876
-0.00317053
-0.005187
6.45605e-05
0.00018973
-1.18774e-08
-1.04392e-09
-0.00131457
3.56523e-09
4.52541e-09
3.12898e-09
1.9699e-06
9.01175e-05
0.000146227
1.66192e-08
4.32618e-10
7.12431e-09
-1.62699e-08
-0.000309203
8.29728e-10
-0.000671171
-0.000640079
-2.20943e-09
-9.70804e-10
-0.000214105
-5.30136e-07
1.41192e-08
6.36548e-09
-0.00230786
4.3252e-05
-1.16795e-08
3.55826e-06
-3.09512e-10
0.000170235
0.00220159
1.56042e-08
3.71116e-05
-6.51913e-06
-0.00180742
8.06099e-09
6.07775e-09
-6.47942e-10
-9.60897e-12
0.00068057
-8.93573e-10
-2.39275e-05
-2.08779e-07
0.000208795
-2.15961e-08
-2.95683e-08
-9.21478e-05
-6.79967e-08
-0.000913132
-0.00019041
-2.87166e-10
-1.55216e-08
-1.96907e-08
5.58931e-07
-0.000698435
-4.17244e-09
-4.48504e-06
8.53233e-08
-8.57943e-08
1.43596e-08
3.75452e-10
-3.84234e-06
6.95007e-08
-6.70376e-06
-1.84349e-09
-7.39646e-09
-1.76229e-08
1.84972e-07
-1.93806e-08
0.000206943
-0.00552077
1.64363e-05
-1.90183e-07
-1.51557e-08
2.20441e-08
5.25686e-08
1.36199e-07
-0.000522026
-0.0013393
-6.20464e-10
-0.000272818
-1.65453e-06
0.000896361
1.74011e-08
-7.26134e-08
-3.89747e-08
-5.74128e-09
-0.00275728
6.38785e-09
-2.62251e-08
-6.06489e-05
-0.000880119
2.18397e-05
2.52451e-05
-7.71359e-09
-4.02102e-08
-1.15021e-09
-0.000536165
5.00982e-09
-0.0042179
-2.17983e-09
0.00101229
-1.11069e-09
1.07237e-09
-2.58562e-08
-1.24927e-08
1.31125e-08
2.86855e-09
6.933e-06
-8.87098e-08
-3.6897e-09
1.26205e-08
0.000176884
0.00011884
-1.01407e-08
-0.000223565
1.09433e-09
-3.33101e-08
-1.16285e-08
2.92649e-09
7.37037e-08
-2.71334e-10
-0.00440561
-4.38571e-07
1.46553e-08
1.30261e-09
7.2366e-06
-4.04828e-08
-2.27015e-09
-0.00577853
-0.00317094
-3.0295e-06
3.40043e-10
9.33417e-05
-3.89238e-10
1.10648e-06
-3.24467e-10
-8.37518e-07
-0.000606513
-0.000178257
2.85449e-07
0.000181819
-1.87676e-08
-2.03994e-07
3.23796e-09
-0.00341046
-7.52536e-07
6.14535e-07
-1.61921e-06
-1.04879e-10
0.000220666
7.05649e-08
-9.3055e-06
-1.65328e-05
-0.000268429
7.8981e-05
-6.7213e-05
2.01786e-05
-4.27005e-07
7.3244e-09
4.41676e-09
-7.17217e-09
-4.40292e-09
1.95985e-06
1.02197e-08
1.1176e-07
-0.000422133
-1.47763e-08
-2.41883e-09
-6.35146e-08
-1.96992e-08
-2.17044e-08
3.84016e-09
0.000232374
-3.06049e-08
-8.39295e-08
1.20819e-08
-2.82557e-05
1.74818e-08
-0.000870348
4.19275e-07
-2.9711e-08
-2.88252e-08
5.26348e-09
-8.55266e-05
-0.000118686
1.01581e-07
3.30942e-09
-1.7248e-10
-0.000134721
0.000237721
0.00109332
-4.36157e-09
1.33282e-07
0.000131922
-1.40679e-08
2.08028e-09
2.3657e-08
0.000333716
-2.42482e-06
-8.08131e-08
1.76538e-08
-3.1259e-09
0.00321229
-8.66412e-08
-3.76561e-06
1.52805e-08
-2.97539e-08
-4.07813e-09
2.49618e-06
-2.77679e-08
-1.09984e-08
0.0022223
-0.000261084
-5.46668e-06
0.0017767
4.32314e-05
0.000684806
-0.000448365
3.11566e-09
-7.90349e-09
0.00176481
0.000143486
-0.00221443
1.28103e-09
-3.09248e-08
-1.22348e-09
-1.97702e-08
-0.000146019
-0.000926485
-4.2367e-08
1.56431e-09
6.48569e-05
-2.26856e-08
-1.24832e-08
-0.000351361
0.0010308
-2.86934e-06
2.77914e-11
0.000248661
-0.000718232
2.27488e-06
-1.56239e-08
-2.14982e-08
-5.86431e-09
-4.34832e-09
-2.57374e-08
-3.72551e-08
4.99076e-09
-7.62488e-08
-2.05721e-08
1.92996e-08
7.05933e-07
-0.000258552
6.25495e-09
-7.87301e-08
0.000227491
7.11241e-06
1.3197e-09
4.82519e-07
-4.84345e-06
8.45265e-06
-5.45865e-08
-8.05405e-09
-2.75316e-08
-2.87706e-08
1.55223e-08
2.94965e-09
-9.99408e-08
-1.76952e-08
-1.03208e-07
7.5067e-07
-1.62461e-10
-3.23947e-10
-6.87516e-05
0.000863979
0.000424264
-2.63036e-05
-9.38103e-07
-1.30142e-10
1.01679e-09
-3.0679e-08
-2.02198e-10
-0.00123123
-1.08293e-10
-1.08687e-10
3.49575e-09
0.00216076
-0.00180184
-1.29965e-09
-1.46608e-07
-1.99064e-08
-4.03253e-12
-3.26633e-08
-4.07403e-07
-4.70648e-08
9.96373e-09
-0.000119678
-1.79559e-08
6.95791e-05
-9.12172e-08
0.000715251
-3.12328e-08
5.57387e-10
3.02286e-09
1.47369e-07
-7.96365e-07
-1.37436e-09
7.7848e-08
-3.11614e-08
2.02731e-08
-0.000187646
0.000109496
0.00144515
-1.14211e-10
-0.00186197
2.8395e-07
2.60467e-08
3.42962e-09
8.86883e-08
2.19747e-08
-9.93251e-05
-0.000140836
-6.8152e-08
6.16362e-09
0.00114565
2.25706e-08
-0.000382617
8.57308e-05
-1.04915e-06
1.458e-08
2.61473e-07
0.00337711
0.00134038
-0.000433262
5.30866e-08
1.09279e-08
-2.96613e-08
-5.96363e-09
-0.00014313
1.89108e-08
-3.21274e-08
1.03014e-05
0.00084034
1.0476e-08
-4.90382e-09
-8.9002e-05
-7.45004e-08
0.000239067
-2.01526e-07
6.4732e-09
-2.39839e-08
2.14323e-06
-3.26088e-07
0.00162622
-5.46523e-08
-0.000244063
-3.06953e-08
-8.87078e-10
-2.58706e-10
1.41714e-07
1.85083e-09
1.34573e-07
-5.03516e-09
1.88902e-08
-8.7505e-07
-1.14713e-09
-2.01665e-09
5.37574e-09
-2.77612e-08
-0.00121432
-7.55924e-08
-3.28651e-08
1.5914e-08
5.96187e-08
-1.10156e-08
2.55871e-06
-2.84296e-08
-4.88312e-09
9.29629e-07
1.62557e-08
4.12085e-07
2.32321e-07
-4.92881e-09
-1.02572e-07
-0.000590986
4.78478e-05
-1.61155e-08
-0.000957893
-0.000316774
-1.6677e-08
9.98497e-10
7.3298e-07
-0.000175054
-9.73821e-08
-0.00015462
6.02189e-06
-2.00188e-09
-5.12361e-07
-4.25346e-09
-2.59983e-08
5.09258e-08
-0.00268002
-3.0653e-06
3.12204e-06
1.03613e-06
0.00227601
0.000255821
1.37088e-08
-0.000555112
6.08461e-10
-0.000595395
0.00026303
3.93969e-09
-2.28278e-10
0.00011477
-7.81415e-09
5.65503e-09
-1.99399e-05
-0.000387863
-2.61172e-06
3.4395e-09
0.000238035
-5.09034e-10
0.000675615
-0.000409446
-6.25378e-10
-0.000360022
-0.00259427
0.000152244
0.000302139
-0.000356622
0.000144658
-4.3856e-09
6.00205e-09
2.08569e-08
-6.34657e-08
5.93175e-09
6.5497e-06
5.20066e-09
-0.000267302
2.35058e-05
-3.31761e-08
-8.23887e-06
-0.000137911
2.9164e-05
-6.73885e-06
-2.9564e-06
-0.000114186
-9.50201e-05
-2.50916e-09
-2.11451e-09
-0.000457971
1.61453e-08
3.80627e-09
-7.79458e-05
-2.01504e-08
0.000268609
-7.19333e-09
-0.000593871
4.00703e-09
-1.60944e-08
-0.00321062
9.8449e-08
-3.07576e-09
-1.58408e-05
-0.00222662
0.000394981
3.04776e-09
-3.41729e-08
2.47855e-08
-5.10443e-08
2.29173e-07
-6.51453e-08
-4.81969e-10
-0.000593752
-2.55865e-08
1.1919e-08
0.000160036
-3.1123e-08
-3.68321e-08
3.53054e-06
4.3976e-08
-9.64144e-08
-1.62643e-08
-9.42686e-07
3.69477e-09
4.99756e-07
0.000216771
0.00023409
-3.3715e-09
-3.52057e-09
-0.000184016
-1.2436e-08
5.92063e-08
-1.41366e-09
-7.34086e-09
0.00102994
-5.83806e-08
6.46088e-09
0.00367046
-3.01536e-09
0.00141581
7.06231e-11
-2.66442e-08
7.2641e-07
0.00123375
-5.8845e-08
3.55081e-06
4.60763e-06
-1.32654e-08
-1.22911e-08
3.02051e-06
-3.58139e-08
-0.00012897
-1.43237e-09
0.0196316
5.1265e-08
-7.41743e-09
-3.22289e-08
-3.77298e-07
-5.51528e-08
2.4221e-06
-5.04611e-08
7.26758e-08
-2.50304e-08
-5.26285e-10
-0.000654226
-1.9723e-08
-3.41528e-08
-3.01105e-09
-7.6058e-07
-3.23936e-08
-5.90995e-08
-0.000339979
1.33251e-09
-1.14351e-06
-8.4033e-10
-1.08538e-08
-2.04922e-09
-9.35695e-10
1.21011e-08
-7.25163e-09
-5.49734e-07
0.000223429
-1.02508e-07
-4.87605e-08
5.3336e-09
1.82826e-08
-7.93185e-06
-1.1686e-08
0.00308332
-0.00605359
4.97396e-05
-2.46107e-06
-2.66838e-08
6.66326e-09
-2.32997e-09
1.21606e-08
-2.21789e-06
-4.19854e-08
-1.05879e-05
-1.63121e-07
1.65713e-05
-1.69582e-06
-5.045e-10
-1.96845e-09
6.65775e-05
-6.66792e-09
-2.26414e-08