/*--------------------------------*- C++ -*----------------------------------*\
| =========                 |                                                 |
| \\      /  F ield         | OpenFOAM: The Open Source CFD Toolbox           |
|  \\    /   O peration     | Version:  v2012                                 |
|   \\  /    A nd           | Website:  www.openfoam.com                      |
|    \\/     M anipulation  |                                                 |
\*---------------------------------------------------------------------------*/
FoamFile
{
    version     2.0;
    format      ascii;
    class       volScalarField;
    location    "300";
    object      ddt0(omega);
}
// * * * * * * * * * * * * * * * * * * * * * * * * * * * * * * * * * * * * * //

dimensions      [0 0 -2 0 0 0 0];


internalField   nonuniform List<scalar> 
13851
(
0.00184078
-6.54205e-06
-6.22473e-06
0.00943423
-3.91974e-08
-1.15961e-05
2.64919e-06
2.10516e-07
-0.0547758
1.91387e-07
0.000135571
2.56609e-07
-1.77186e-06
-0.00819418
-7.09301e-05
0.000327984
0.0211237
-5.0283e-07
-0.00323337
0.00137586
-7.77793e-05
-3.60275e-06
-0.0906879
-1.01028e-09
0.108377
-0.000188154
0.0741757
0.194515
-0.0145998
3.71859e-07
0.0132183
2.3281e-06
0.00230292
0.0348353
-4.85471e-06
-0.0120508
2.44767e-10
-0.108444
0.0252088
1.15875e-06
0.0189908
-0.0201732
0.00277226
0.0433795
-0.0409822
2.54787e-07
1.42842e-07
-0.0020193
-2.7031e-06
-1.70679e-06
0.00107749
-1.134e-06
-4.18209e-05
-4.99652e-06
0.0161018
1.09176e-06
0.00295447
0.0180218
0.245556
-0.0678778
2.17804e-07
0.0153997
2.00285e-07
-3.28851e-06
0.010225
0.0185109
-0.103859
-0.0170324
2.38322e-06
-0.0117657
0.00923392
-8.42047e-05
-2.03529e-06
-0.0898657
-2.93418e-05
3.37869e-06
0.03004
1.42288e-08
0.492291
-8.40696e-07
2.40127e-06
-0.00911027
-4.44162e-05
-0.0456226
-0.0617232
0.00797533
-3.34094e-06
-0.0172588
2.44143e-08
0.0132193
-1.05858e-06
1.36017e-06
0.154266
0.00380042
0.0311259
0.00212835
-4.94966e-07
-0.00115871
0.0054298
0.00338765
-0.00142526
0.00717397
0.000818578
-2.01628e-06
8.08333e-07
-4.59018e-05
6.43644e-07
0.00820005
1.16055e-06
-3.87451e-07
-0.000136848
4.94689e-07
0.00513758
0.000235129
3.42366e-05
-1.47211e-06
1.35121e-07
2.13644e-07
0.0191906
-0.0367663
0.00413854
9.35118e-08
2.49501e-06
-0.0127188
-0.00500271
0.00364562
-4.70571e-07
0.000742786
0.0178318
-0.000115364
-2.44646e-06
-1.29431e-05
-0.431997
0.0251016
-8.18088e-05
0.0303031
-0.00249292
0.00658319
-0.000476269
-0.000132093
-0.00085828
1.48484e-06
-6.5125e-08
-0.011776
-0.0590452
5.31653e-06
-8.08332e-09
0.00213358
-0.0128523
0.00063605
-0.00171635
0.00456448
0.000404264
-0.010432
-1.33166e-06
-7.09228e-07
8.32053e-08
0.0231294
-0.000106114
-1.58917e-06
-1.90468e-09
-0.0130101
-2.84921e-05
-0.00214818
0.00449876
-0.0757843
-0.0811355
0.00183825
-1.6747e-05
0.0216816
1.4767e-07
1.49479e-07
-2.04454e-05
-2.34736e-08
0.0395334
-0.0761663
-0.00277697
1.7697e-07
-2.47861e-05
-0.00297674
-0.00548863
0.0282532
1.24771e-05
-0.000123232
-0.117649
-0.0125308
0.00230002
0.000160326
-1.74023e-06
5.24921e-07
0.69783
-0.000104433
-0.060784
-1.16588e-05
5.37867e-06
-0.000836624
0.00155293
-9.59406e-07
-1.10799e-06
-0.011028
-0.00387742
0.0170534
0.0124275
-7.39944e-05
0.0246199
0.0118519
1.39932e-06
-0.00015919
-0.0582265
-1.02998e-05
0.00140672
2.21499e-06
5.74785e-05
-5.25334e-08
3.07461e-05
1.27672e-06
-1.66719e-06
0.00142918
-1.22788e-06
-0.0468049
1.90505e-07
0.000633535
-0.121259
0.0346874
-1.71219e-05
-0.00016472
-9.86395e-09
0.00776136
2.44575e-07
1.86842e-05
-0.144349
4.78736e-06
-1.02552e-05
7.349e-09
0.0123317
3.51908e-07
-0.244928
0.00925372
-0.00212272
-2.39865e-09
0.0874271
-0.0362868
-0.0425479
0.000906592
-3.34048e-05
-0.0124525
0.00217802
-1.40537e-05
0.00709723
7.18702e-06
-0.00414345
-0.000945928
3.35141e-09
-1.19348e-05
-0.001205
-0.010528
0.0103247
4.43708e-07
-0.00099342
4.09339e-08
0.00486421
-0.00983063
-1.27412e-05
-4.22687e-05
-0.000700346
-1.69885e-06
-2.03994e-06
-0.00186824
0.254719
4.80275e-07
-1.53224e-06
1.73383e-05
-0.071215
0.0331595
-8.38637e-05
-4.49785e-08
-0.0056633
-0.01171
0.000175509
-5.4889e-05
-0.0678757
-0.0136536
-1.43707e-05
-5.32661e-05
-0.00801504
7.9148e-07
6.50542e-08
0.000802336
-6.3498e-05
2.96626e-07
-4.58669e-08
1.55949e-07
3.52669e-08
-4.13221e-05
1.2234e-07
-0.0620037
-7.44975e-05
9.05399e-07
-0.00920666
-0.0154071
-1.59187e-06
0.000142958
0.00772799
1.99714e-06
-1.48746e-06
-6.03103e-05
-0.0567334
-0.0476066
-6.35221e-05
-1.51361e-08
0.00811339
1.95188e-07
-9.25706e-05
0.00214362
0.232961
-1.67476e-06
0.0576978
-0.0222151
-0.000112655
0.00224616
-0.00612193
0.0429727
-0.00548932
0.316061
-1.37643e-06
-0.0110508
-0.179745
0.0924983
-0.0370813
1.5072e-06
-5.1708e-05
8.62649e-06
-0.0110663
0.00594828
-7.95867e-08
1.23356e-07
-1.09562e-05
0.00590173
-0.0963399
7.47878e-07
0.0274943
-4.59879e-05
-1.75423e-05
-1.48115e-06
-0.145519
-0.00593847
-0.000753733
2.46315e-06
-9.19607e-06
-0.0146704
-1.7702e-06
-0.0128561
-1.42873e-05
-6.34537e-05
0.000345706
-9.12988e-08
9.44193e-07
0.00167189
0.00468837
-0.00165256
-0.290093
-0.0150922
5.29594e-06
0.00955417
0.010297
-2.36934e-07
0.20102
0.000155667
-0.00062206
-1.12142e-05
-4.2266e-05
0.00045069
-0.242277
0.00151062
0.000914215
-2.29283e-06
-0.127657
-0.0305658
-2.09635e-05
-0.00011867
-2.24846e-05
0.00674755
-4.8189e-05
-4.4751e-06
-0.00313785
-0.00275681
-6.30224e-07
-1.28785e-05
-0.000267358
-2.23622e-05
1.5964e-07
-0.000101428
0.0414574
-1.89375e-06
-0.000156108
0.00191668
-6.93251e-06
-0.482525
-7.6902e-05
-0.0562563
-1.11398e-05
-0.000162729
0.023869
-0.0101813
-6.41577e-05
0.0111241
-0.0935847
0.0124298
-1.76155e-06
-0.0012622
-1.90176e-05
-7.23043e-05
2.65283e-07
-0.0764435
0.0173168
0.148632
-9.00926e-06
-0.00157355
0.0117888
0.0258995
-3.54078e-07
-0.0304808
-0.0138909
-0.101232
-0.000153741
-0.0762161
-1.26781e-06
-2.93367e-08
0.0205853
0.000435339
1.35388e-07
-6.78602e-06
-0.000164784
-4.8282e-08
0.00776039
-5.03131e-05
0.000513302
-8.58598e-06
-2.39072e-06
-7.10445e-07
-0.334049
7.49571e-07
-6.44808e-07
0.0197134
0.0397407
-8.09745e-07
-0.0293632
1.40186e-07
1.0061e-07
-7.68173e-06
-0.00063919
-4.94105e-05
1.91834e-07
-3.64352e-06
0.00454802
-4.02692e-06
0.0380632
2.22834e-07
-9.04076e-06
-0.0483832
1.273e-05
-2.18232e-07
5.12182e-08
-8.99268e-06
-1.05612e-06
-0.126535
0.0152254
-3.52473e-05
0.011273
-7.83753e-06
4.85919e-07
-0.0122095
0.0159966
-0.000614307
-1.61209e-06
-0.00934345
-0.00039268
8.44485
-2.0962e-06
-8.33764e-06
0.00142202
-4.89598e-05
0.00108017
0.0225807
0.160991
6.58639e-06
0.00188124
-1.69042e-06
-0.0104997
-9.17714e-05
0.00151041
-2.08586e-05
2.76546e-06
-0.000909929
-1.68813e-05
-3.20193e-08
0.0187554
-0.0147052
0.0572966
-0.0138462
0.0167762
0.0224
-0.0122734
6.66937e-06
-1.48122e-07
-0.666702
2.89837e-07
1.61175e-08
-4.06288e-06
0.0411352
-5.30567e-06
8.00795e-07
-0.00414063
5.7947e-06
7.28394e-08
-0.106962
-7.9419e-07
0.0195754
-0.0425071
-8.59602e-07
-2.95311e-06
-0.00156518
0.256046
3.37841e-07
0.127159
-0.328659
-5.60668e-07
-0.0237496
-0.00475252
0.00102985
6.44669e-06
0.00886244
-0.0425897
-5.63759e-07
0.0129002
2.44499e-06
-7.69245e-07
0.0747011
0.00586578
1.77986e-05
-5.08349e-05
2.3038e-07
-0.000214037
0.0229062
0.0310043
-6.60948e-07
0.0505664
1.08519e-07
2.52413e-06
-5.11082e-05
-2.18281e-06
-3.6163e-07
3.60064e-06
-0.0256845
-0.00388649
-0.0149048
-4.47723e-06
-7.81116e-08
-0.0790016
-1.7425e-07
-0.00347298
-1.45476e-05
-3.51758e-05
-3.20059e-05
-0.0495471
-0.0184849
-1.16594e-05
-0.0318811
-1.72398e-06
0.000130594
-0.0242636
0.000928155
2.17942e-06
-1.78184e-06
-0.0172882
-0.0134118
-0.0138141
-0.000202285
-1.26002
-3.98884e-07
-4.34316e-05
-0.0836396
-0.114569
-0.00456223
0.010748
0.00134882
-0.0144498
-1.28558e-06
0.28961
-0.760469
4.1568e-07
0.152604
0.0823656
-9.66115e-06
-0.000126212
3.07008e-08
-0.00974712
-0.00120937
0.0260071
4.82711e-07
-1.40567e-08
1.95079e-05
1.70446e-05
1.83961e-07
0.0335142
-2.19056e-08
0.00218889
6.85215e-06
-8.11617e-05
-1.95417e-06
5.7901e-08
0.000310953
0.0513021
-1.33686e-05
0.0270423
-1.0006e-05
-3.17446e-08
-2.07001e-07
-2.87072e-05
-3.65787e-06
0.00163954
-6.79178e-06
-0.000122587
0.271732
-1.72678e-07
0.000440316
-2.00091e-08
8.29513e-05
-0.0263184
-0.0759908
-0.00361613
-0.0880869
-0.00219828
0.00179044
0.0948091
-6.82746e-07
-0.0888827
-2.3618e-05
-2.16713e-05
-0.00846717
0.415066
-2.08633e-07
0.00102759
-9.27319e-07
-0.0126074
-0.000598573
1.96696e-06
-0.0155344
-0.0169139
-2.95343e-08
-3.07393e-08
-0.000138038
-0.00998206
-0.00652456
-1.42807e-06
-0.00362857
-3.61438e-06
1.09684e-08
0.152286
-0.00468774
-0.000564153
-3.25307e-07
-0.00197204
0.000394327
-0.000101379
-2.15324e-07
5.40562e-06
-0.00181629
1.61943e-06
-0.00180564
-8.26406e-05
-9.93992e-05
0.000579233
-1.30179
0.0053292
-0.0040491
0.0841272
-0.00169807
-0.0199329
-0.000854803
0.0636727
0.000822027
-1.52985e-08
-3.84787e-05
-0.0047783
-7.76342e-06
-6.79948e-07
-5.69811e-07
0.000286272
0.0030828
-1.06387e-05
0.00703669
-5.88739e-08
-0.00765775
0.00599821
0.00912293
0.000817183
-1.13516e-05
-6.11909e-06
0.00683523
-0.00331697
-0.000155336
0.00768204
-2.13187e-06
1.36964
0.000108841
0.00124429
-1.13495e-05
0.00734737
-1.23521e-06
-3.33002e-08
1.20318e-06
-6.49528e-08
-0.0274055
3.90034e-08
0.0832332
-0.0751883
0.00191443
0.0379311
-0.00118909
0.00133275
0.00903962
-0.000696633
-4.92613e-08
-1.40068e-06
8.41323e-08
-1.8548e-07
-1.92549e-08
3.90094e-05
0.00841158
0.000139717
0.199056
2.97983e-06
-0.0530237
1.42348e-09
-0.0101104
5.74271e-05
3.75883e-10
-4.03218e-09
-0.0784605
-1.16274e-05
0.0112508
0.0884639
-0.0001224
-3.84884e-05
-4.96492e-07
0.0297774
7.06091e-06
-5.72411e-06
0.222983
-5.49477e-08
1.24288e-06
-5.55912e-07
-0.000111807
-0.0019919
-1.10974e-05
-1.58468e-05
-0.0138204
0.0234131
0.000169969
2.53184e-05
-0.0180967
1.10335e-07
-0.0155631
-1.80333e-08
-3.84166e-06
0.563148
-0.000836679
0.000307961
-0.00129468
-4.73305e-05
-5.03454e-08
2.53844e-09
0.000221604
-1.70322e-06
-2.68575e-08
-8.23323e-06
0.0060536
6.89069e-08
-0.00456398
-0.860464
0.0256771
-0.000670097
-0.00463858
-0.00067686
-5.02015e-08
-0.00417488
-1.60867e-07
-1.30641e-05
-0.00312442
-0.0163625
-0.101781
-0.0210341
1.81802e-06
2.20308e-06
-0.00444091
5.35851e-06
6.68226e-07
-0.185893
0.00379616
0.00120717
7.89411e-05
-0.000757828
-2.29897e-07
3.77067e-07
0.873128
0.000802541
-4.85559e-06
5.90213e-09
-0.000125377
0.00599522
0.00703636
-1.4226e-06
-5.74469e-08
-0.00729298
-3.14349e-07
-2.71014e-05
-6.94341e-08
0.0420488
1.41967e-07
-0.0223315
4.26846e-07
-0.000970577
-5.73237e-05
0.000191571
-1.40272e-05
-1.96438e-06
-7.03445e-06
6.047e-08
0.046776
-4.22934e-08
0.0112845
-2.6442e-06
-0.00155344
-0.0261451
-1.36572e-05
5.87861e-08
-0.00239056
0.00103817
-1.26671e-05
-0.000849563
-1.31156e-06
8.58158e-05
-2.22874e-07
-0.00100896
5.12881e-07
6.52225e-08
0.04976
-3.15436e-05
1.07226e-07
-7.80906e-06
0.01984
0.0247796
-0.0096438
4.11764e-07
-0.0183012
4.87251e-07
7.20447e-08
-1.28509e-06
1.4502e-07
-8.20823e-08
0.00282758
0.0277664
-1.40617e-06
-2.35038e-08
-1.55491e-06
5.21438e-07
-0.00287678
-0.00148753
-0.0275623
0.0461808
-7.00852e-06
-0.00210469
4.58187e-07
-6.89114e-05
0.00290835
-6.89496e-07
-1.65136e-08
0.0472503
0.00752359
-2.50434e-05
-0.065636
-0.000284417
1.65992e-07
-1.9151e-05
-0.000931383
0.0679691
-3.64819e-05
0.46198
0.000676602
-6.06753e-08
0.00723019
-0.0696607
0.00465358
0.709182
0.0872477
6.80112e-06
-0.012899
-4.38308e-07
-0.266377
-9.06301e-06
-7.63321e-08
-0.00735654
3.96127e-06
5.25304e-08
2.26542e-06
4.18628e-06
0.0349085
-0.00994266
-2.39287e-07
-7.8226e-07
-0.0449733
-5.60508e-07
-0.11561
2.42921e-06
-0.000476312
0.00842871
1.27879e-07
-0.0273332
4.55483e-07
-1.30763e-05
-0.000119412
3.78472e-06
-0.0164608
-0.000109461
0.025544
-9.11627e-07
0.00591702
-2.00063e-05
-0.0196657
0.0430892
-0.00519702
-0.000128794
-1.92151e-06
1.87741e-06
-1.31633e-08
4.78214e-06
9.7508e-08
0.00742647
1.43424e-05
7.70026e-06
3.71648e-05
6.81348e-06
3.62342e-07
4.97616e-06
-9.84175e-06
-3.05674e-06
-6.29931e-06
0.113625
0.01631
-2.05754e-05
0.000251886
-0.0116721
1.06514e-06
-0.00201
1.80521e-07
0.000165462
-8.13863e-08
1.29462e-06
1.61794e-05
5.23651e-07
-1.73944e-07
-0.0125418
-7.52267e-07
0.0080808
-3.16952e-06
0.192772
0.151354
-0.00403675
0.00941068
-1.00216e-06
0.0296652
0.000297586
-6.76655e-08
-8.96215e-06
-3.23125e-08
-0.0109248
2.0462e-06
-0.00314586
0.0377097
-0.000168772
0.00106153
-4.62797e-07
-0.0509438
0.212194
0.0719761
-2.30254e-05
2.53261e-09
-6.86064e-07
-6.01414e-05
-1.69266e-06
-0.0480078
-0.00215869
-1.61237e-07
0.0102159
0.0017594
-4.73957e-07
0.107523
-0.0292944
0.00477523
-2.79459e-06
-0.0431283
6.0989e-06
1.91862e-07
0.000284595
5.52267e-06
-2.60788e-07
-1.14513e-06
-1.9943e-05
-8.39179e-06
-0.0685482
0.0240028
-7.50286e-05
-0.0806087
-4.12129e-05
-7.83311e-07
0.00467064
-5.456e-07
0.711918
-6.75677e-07
4.30784e-08
5.64584e-06
-1.68754e-06
-0.056983
-0.00154447
-0.00194127
-0.0131034
-0.132159
1.64575e-06
-1.84562e-06
-3.19487e-06
-0.0111964
-7.04516e-07
4.73574e-08
4.0709e-05
0.223682
0.0125917
-1.70207e-07
-2.31265e-05
-1.64744e-05
-0.00144185
-0.0973656
-5.19031e-07
-3.2792e-07
-1.77087e-06
0.0514371
-8.20843e-06
0.0247477
5.64221e-06
-6.17631e-08
-3.14862e-07
-9.84869e-07
6.26159e-07
0.00196716
-0.0147974
-0.071286
-7.83627e-05
5.40682e-07
-0.898323
-1.04889e-06
0.0164126
-0.0303781
-3.27273e-05
0.0431414
-0.0221579
-0.00405105
-0.000134203
-3.44213e-05
-0.0260301
-2.4016e-05
-5.11968e-05
-0.0051285
-0.00116346
-1.1416e-06
0.0755056
-1.03096e-06
-0.0176317
0.0284457
1.96725e-07
6.81852e-06
-2.63826e-05
-0.00173869
-3.97538e-05
-4.13674e-08
-1.59769e-05
1.19525e-06
-7.15444e-06
0.0221446
-1.23736e-07
-0.0130849
-0.00257407
-1.13265e-06
-2.92293e-05
-1.89639e-05
3.6284e-07
-0.0160115
-0.130167
0.0356854
0.00452982
4.36038e-07
-1.2724e-06
-9.96765e-06
-1.4912e-06
-0.0056242
-4.20143e-05
-1.48962e-08
-0.000394058
3.83165e-06
0.0614319
-6.62885e-05
-0.13917
7.62927e-07
5.18022e-07
0.0112289
-0.000804985
-6.13356e-05
-1.59402e-06
-0.167505
-0.0190451
-0.283681
0.0178818
-0.019023
-0.0743396
-0.0262714
-1.41173e-06
2.93822e-08
-6.85221e-07
-0.0184747
-6.56679e-05
-7.54155e-05
-0.0112362
-9.0663e-07
1.19791e-07
1.95186e-07
0.00475247
-8.07094e-08
-1.27581e-05
4.78267e-06
-0.0202818
3.08246e-06
-1.59273e-07
4.27253e-07
-6.2835e-07
-1.73266e-08
8.49714e-05
-0.00634401
-7.94746e-05
-0.0149468
3.69858e-07
-9.94366e-07
0.0146584
-0.0161938
-0.00430059
-0.011027
-0.00157482
0.00314894
6.5914e-09
-0.000359822
6.95889e-07
4.14769e-07
-1.58505e-06
-0.00820561
-2.97618e-06
-0.000426226
0.620049
-9.73601e-07
1.18563e-06
4.39647e-06
0.000769244
-4.01062e-09
-0.0165449
-6.96811e-07
-0.00260464
3.00783e-08
-1.42966e-06
-1.30034e-05
-0.00679932
-1.95487e-06
0.0960119
0.00793878
0.00713903
0.0211683
-9.82419e-07
0.0532712
-0.049003
5.6581e-07
-0.124008
-1.48699e-06
0.00316356
-1.55761e-06
-4.97104e-07
-3.22572e-09
9.31079e-08
3.01088e-06
0.000182418
-0.000114356
-7.34695e-07
1.14684e-07
-0.00787934
-3.81683e-07
-0.0903828
5.04807e-08
-2.25024e-05
-2.82974e-05
-0.0372803
0.208522
-7.20014e-08
0.00260189
-6.78395e-08
-2.50907e-06
-0.00163652
0.00354645
-0.000147999
-1.77601e-09
-0.00144529
0.00491509
-0.000540147
0.0215609
0.000142113
0.00784332
-0.000241721
-0.000236013
2.88075e-06
2.17901e-07
0.0576644
0.00308828
-6.58976e-06
1.92068e-07
-0.111754
-7.68838e-08
-7.56742e-05
-3.78231e-07
0.00130013
-0.385157
-4.12932e-08
0.00664821
-1.14733e-05
-5.74636e-08
-0.00368315
-7.15825e-08
0.00364211
0.00185246
-3.78453e-05
0.0417581
-3.05824e-08
-6.51548e-09
0.00304407
-1.00179e-07
-9.67764e-09
-1.32469e-05
-1.81423e-05
-6.29247e-05
0.000426197
-1.81943e-06
-0.000109119
3.44781e-07
4.79891e-07
-1.2385e-07
5.25205e-07
0.238621
-6.11405e-07
2.42652e-06
-0.0329681
-1.72263e-08
1.3869e-07
-0.053756
-1.80378e-08
0.125636
-2.77402e-06
-0.0826561
-0.00354446
0.000957582
0.681459
0.000114107
0.033697
-1.84163e-06
0.00709226
-1.15295e-05
1.56585e-07
2.85496e-07
2.24829e-06
-2.45373e-05
-5.90437e-07
4.63092e-05
-3.05312e-07
-1.55481e-07
-0.0978479
-0.000415975
-0.173098
-2.06153e-06
-0.0107719
-0.0160845
-0.109258
-1.60872e-07
-1.09624e-05
0.0880408
-1.0987e-06
-3.21316e-05
0.220721
-0.0696128
-1.26662e-05
-0.000109945
4.80307e-06
0.00362263
2.40304e-09
0.000457633
-0.0713609
-1.24597e-06
2.22183e-07
-0.0819571
3.2171e-05
-0.000576564
0.0319517
0.000199859
-2.98807e-07
-2.85335e-07
-1.63779e-06
0.0328085
-0.802395
-0.0435266
7.10773e-05
-1.57972e-07
-0.00204767
1.29014e-07
0.0056471
-0.000405697
-1.54198e-06
-7.0975e-05
5.3502e-07
0.097714
-0.119768
-2.61056e-08
-6.55273e-05
-6.76999e-05
0.0909604
4.65491e-05
-0.000178792
-0.00415488
-3.39802e-05
0.0117571
-0.000287284
1.17418e-07
-5.31774e-05
-0.000864997
0.00586623
4.46869e-07
0.715782
7.85976e-05
-0.000139083
-4.63205e-09
-0.140006
-1.11004e-05
6.50633e-06
7.31842e-07
-3.32981e-05
-3.32095e-05
-0.000122911
-1.15231e-07
4.85276e-06
0.000303794
0.174559
3.09552e-05
-1.05634e-07
-2.78627e-07
-5.07486e-05
0.00431646
-1.71164e-07
-0.00109077
0.106842
-5.23434e-06
-0.0865193
-5.96678e-06
0.00973365
-0.0143541
-1.50902e-06
-0.0869584
-4.88662e-10
-2.08509e-06
-3.69274e-05
-3.74415e-05
0.00081845
-0.000128021
2.60203e-05
0.000179203
-1.18463e-05
4.76388e-06
-1.061e-07
0.00115604
-8.80267e-06
1.20651e-07
0.368775
-7.92647e-06
-0.000354931
-7.55699e-07
0.00979071
-0.00174428
-1.88796e-06
-6.90856e-06
5.20338e-07
-0.0648256
-0.00204857
-3.59781e-05
-0.0357326
0.0132669
0.0950309
-0.00113457
-0.0253441
-4.48397e-07
0.0248941
2.51044e-08
-9.34364e-05
-0.069593
-0.0162424
0.020758
0.296278
3.94061e-08
-0.126462
-3.93348e-07
-0.000918881
7.19355e-06
0.0256263
0.000669029
3.61202e-06
3.04288e-08
0.0184327
0.00416971
2.72866e-07
0.0187701
1.60139e-07
6.72102e-06
-8.70207e-06
-1.47901e-06
-1.12699e-05
7.91378e-07
-4.60487e-07
-1.2282e-05
0.00614439
-7.38366e-05
-3.16495e-05
2.13275e-07
0.00323555
-0.0179465
6.5545e-08
0.0203055
5.92841e-06
6.30997e-06
0.0262293
6.64729e-08
2.73515e-06
9.87553e-06
-0.000835871
4.27312e-07
-5.5371e-08
4.12674e-07
0.0781174
6.30039e-08
-8.127e-06
7.38206e-05
0.28616
4.15267e-05
-2.49722e-05
0.00784229
1.55916e-07
-0.0261352
2.53243e-07
-0.0642144
-1.718e-05
2.60866e-07
-1.74851e-06
-0.000295577
-5.15071e-08
-1.09629e-06
-0.00222414
-0.00991742
-1.00089e-06
-0.0399367
-1.12664e-07
2.34767e-07
-5.44979e-05
4.24342e-07
-6.17723e-07
0.0771869
-7.5675e-09
-5.23009e-05
-0.00324244
-0.020076
0.134345
-7.12693e-07
2.88505e-06
6.29975e-06
1.55034e-07
-1.74109e-06
3.5131e-07
0.0147845
-1.52158e-07
0.00657899
-0.00110252
2.14955e-07
-3.59279e-07
-1.36597e-05
-0.00105368
-0.00967287
-0.0065809
9.93467e-05
4.00163e-06
-0.0625432
0.00137554
2.44739e-06
-9.2036e-05
0.00165185
0.000834075
9.86732e-05
-1.05849e-05
0.00834103
-0.0496506
-0.0152876
-6.76984e-06
1.1971e-06
2.28625e-05
-0.000719101
-2.85186e-07
-1.02824e-06
0.00117789
-2.66533e-08
1.23631e-06
5.60158e-07
-3.34128e-07
-2.50203e-06
-8.37936e-07
0.00919568
3.94784e-08
0.0209596
1.33614e-07
-0.00359972
-1.21688e-06
7.86811e-05
-0.0017234
-1.89066e-06
0.0159763
1.59291e-06
-9.65977e-08
-7.82093e-05
2.81852e-07
1.5444e-06
-5.09121e-07
-0.013905
1.0739e-06
-2.36362e-05
0.0161957
0.0101672
-1.90755e-06
0.00630713
0.176382
3.97435e-05
-9.96078e-07
-3.45207e-06
0.00241206
6.977e-05
0.0330444
2.84774e-07
-0.0537878
1.89097e-06
-0.000734518
0.0204407
-3.66563e-05
0.056265
-2.57256e-06
-2.48705e-05
4.95533e-06
-0.113011
-1.3682e-05
-2.45949e-08
-0.000540339
0.00349518
-1.96144e-06
4.43072e-07
-4.46374e-08
0.0289566
-2.78955e-08
1.34091e-05
0.00459509
5.97572e-06
-1.64294e-06
0.000406205
-2.23317e-06
0.0554567
1.10637e-07
-8.97685e-07
-2.32216e-07
4.57658e-05
-1.75677e-06
-1.01163e-06
-0.000299513
-0.0184926
-1.52665e-06
7.78876e-08
-0.0518368
-8.48155e-07
0.0109822
2.10879e-06
-0.145829
7.46081e-07
7.1094e-06
-4.38471e-08
0.00968495
0.0124625
0.000360935
-0.000183086
9.06786e-05
1.5521e-07
6.15481e-08
-0.0130981
-2.87332e-08
-0.000833947
-4.6381e-08
-1.81986e-05
-1.71181e-07
-0.0228636
-1.09417e-07
-0.000114404
1.40953e-07
0.0268708
0.0535369
2.62494e-07
1.25456e-05
-0.0115413
-0.000282214
-0.0225181
0.042696
0.0062115
1.43751e-06
-2.16348e-05
-0.00119958
0.217459
-5.70083e-07
-2.11045e-05
7.09167e-06
1.45101e-06
0.00961285
-0.172371
-8.61701e-05
-0.00119842
0.00880071
-1.85581e-05
-0.0856734
-2.70626e-07
3.16631e-07
0.00109356
-0.123178
0.00639654
0.00395064
0.096235
3.35476e-08
-0.13897
-0.00468264
0.102158
-4.09701e-08
0.0228084
0.00954029
-0.0593613
-0.0319092
-0.0283645
-0.000951643
-1.26926e-05
0.00696527
4.81798e-05
-1.56501e-07
-0.425995
-8.34608e-05
-1.95222e-07
-0.0414076
-1.67973e-07
0.000164784
-8.22998e-05
6.92001e-06
0.174663
0.000377716
0.0148237
-8.98198e-05
-7.48456e-05
-0.127877
0.0239719
-0.00260164
-7.96446e-07
3.50987e-06
6.1444e-05
-0.00272063
-1.25433e-07
0.000110528
3.91577e-05
0.000228062
-1.28974e-06
0.00141598
4.34036e-06
-0.000164846
-0.0064426
0.0105591
3.63001e-07
0.00356955
0.0278211
-1.33913e-06
4.70381e-06
0.0872875
-0.000876034
-5.76715e-06
-7.92553e-06
3.05509e-07
0.000361259
-6.28167e-06
-0.0177031
0.00197217
3.23732e-07
-1.55605e-08
-0.0088458
1.34051e-05
-0.0695065
-0.000280187
3.43045e-07
4.49043e-07
-1.0242e-05
-1.03445e-07
-6.90385e-06
4.34853e-06
-2.67109e-06
4.68534e-06
-1.1433e-06
4.64513e-06
-1.39252e-06
-0.000142505
0.208649
-1.05454e-08
-0.00379873
0.0293238
2.6695e-07
0.0210715
-0.00208541
-0.0013885
2.89726e-06
0.000293991
-1.39734e-05
0.003591
-2.27079e-05
-1.75148e-06
-2.02213e-08
0.0446189
6.13989e-06
0.012662
2.58979e-06
-3.01764e-08
3.52381e-07
-0.000374931
-1.43407e-06
-6.52908e-05
-0.000344683
0.0317605
-6.17027e-07
-0.0479106
-0.644891
-0.0144824
3.26662e-08
-0.00395617
-0.0476038
-0.444036
1.0943
-3.32764e-07
3.2826e-06
0.00281524
0.0845874
0.118598
-4.75274e-05
-0.00748728
-1.28239e-09
-8.09859e-08
-2.08418e-05
-1.43609e-07
-3.26884e-07
-0.00372033
-1.14719e-08
0.00597172
6.96872e-07
0.00638524
0.0371606
0.0463225
-0.0130269
-0.0196826
-1.51565e-06
-7.93474e-08
0.0784606
2.56604e-07
3.03985e-07
2.17743e-07
0.00463662
0.0415226
0.0295029
8.25756e-06
-8.79387e-07
5.66092e-07
-3.15888e-06
-0.0617913
5.9139e-08
0.0260262
0.00732294
-1.64716e-07
-7.12841e-08
-0.00534952
-0.00069333
-1.2783e-06
5.23955e-07
-0.0155894
-0.0106007
-6.71589e-07
0.00332427
-2.34892e-08
-0.012369
0.0781528
1.34431e-06
0.0644906
-0.0178404
-0.0533789
6.49718e-07
-6.11245e-07
-5.07269e-08
-6.55834e-10
-0.00417335
-1.14471e-07
-0.00134041
-0.0327371
0.0293086
-2.65644e-06
4.48495e-05
0.000781392
5.61102e-05
0.0819826
-0.0123661
-8.17383e-09
-9.51374e-06
-1.04237e-05
0.00169739
-0.086392
-3.21991e-07
0.00107222
5.94838e-05
-0.000111822
2.85877e-06
2.83781e-08
-0.00878302
1.95281e-05
-0.000163636
-1.40148e-07
4.47416e-05
-2.13699e-06
0.00088765
-5.71494e-06
-0.0259525
-0.276411
-0.00363748
0.000129424
-1.37458e-06
5.30215e-06
-2.6134e-05
0.00423699
-0.0817203
0.0539743
-4.77612e-08
0.00412273
-0.00754557
0.0713144
5.0036e-06
6.54349e-05
1.09395e-05
-4.22105e-07
-0.0337962
4.84965e-07
-3.14363e-05
0.00585679
0.00840293
0.0715431
0.0359097
-2.48724e-05
-8.0608e-05
-4.97214e-08
0.00971118
9.69732e-07
-0.0488011
-1.13422e-07
0.0470282
-1.01235e-07
7.2526e-08
-2.77122e-05
4.71465e-05
5.39715e-06
5.54345e-09
-0.00991653
-0.000101987
-2.4276e-07
-4.56862e-05
0.00539326
0.0177654
-8.50161e-07
-0.0327456
-2.8613e-07
-4.40023e-05
-2.30203e-05
2.1486e-07
0.000318396
-5.51908e-08
-0.168261
-0.00267386
-1.00673e-06
1.6033e-07
-0.00160029
-2.49679e-05
-1.57731e-07
0.0188225
-1.47423
-0.00561316
5.43888e-08
0.303527
-3.25906e-08
0.0046662
-1.24834e-05
-0.00325724
-0.494664
-0.00997424
0.00156985
0.0359763
-3.31244e-05
-7.05781e-05
2.55531e-07
0.0498371
-0.00178165
0.00196529
-0.000821098
-8.29801e-09
0.0621864
0.00152008
-0.00259848
-0.0242527
0.0764236
-0.00740295
-0.295767
0.0235092
-0.000710325
-1.63975e-05
3.32955e-07
-5.74841e-07
-3.41675e-07
0.00577906
-2.55722e-05
0.00267117
-0.0194294
-1.11772e-06
-1.91032e-07
-7.49834e-05
3.71286e-05
-1.72845e-05
1.70569e-07
0.0216056
-6.88948e-06
-0.000100887
1.36402e-06
-0.00144996
4.60727e-06
-0.00618796
-0.00171861
-2.35135e-05
-8.35602e-07
3.96813e-07
-0.000539384
0.0034942
0.000402056
1.74254e-07
-1.03892e-08
0.0318838
0.00823332
-0.00982304
-2.73267e-07
0.00035001
0.134688
-8.51778e-07
1.60438e-07
2.30929e-06
0.0342648
-0.00759169
-3.73826e-05
3.41477e-06
-9.78197e-06
-0.0107904
-8.77612e-05
-0.00589547
-1.27733e-06
-2.92135e-05
-3.15651e-07
-0.00150714
3.79516e-05
-8.32765e-07
-0.0103277
-0.0185868
0.0145177
-0.00335586
0.00643979
-0.0650493
0.080592
6.29196e-07
-6.29954e-07
-0.0215625
0.000915259
-0.106743
-6.80863e-08
-5.94533e-05
-1.78925e-07
-1.47441e-06
0.0852286
0.00559158
-4.27745e-05
1.17074e-07
-0.0407708
-0.000252313
3.83333e-05
-0.0197419
0.891818
0.00354138
2.14437e-09
-0.0195813
-0.0110498
-0.00812858
-2.77543e-05
-1.22743e-05
-8.49772e-07
-2.89913e-07
3.52719e-05
3.19822e-05
2.64512e-07
-9.50573e-05
-1.72264e-05
4.30087e-06
-0.00493313
-0.00559125
2.05436e-05
-0.000109927
-0.0142871
0.000515677
9.58139e-08
0.00454818
0.00906034
0.00277644
-2.73677e-05
-6.46651e-07
-2.00554e-05
-1.05225e-05
3.25428e-06
2.2602e-07
-4.17759e-07
-2.91301e-05
-0.000133942
0.0020334
-1.18176e-08
-6.0645e-07
-0.0107774
-0.0241553
0.0310371
0.0014036
-0.0010227
-1.83529e-08
4.33458e-08
-1.6449e-05
-2.33741e-08
-0.00954566
-7.84263e-08
-3.16713e-09
2.68876e-07
-0.0133045
-0.209585
-4.06219e-07
-0.00020383
-1.02903e-05
4.72905e-05
-1.33229e-05
-0.00154228
-7.20357e-05
2.19987e-06
0.00832344
-1.12224e-05
-0.00846896
3.92986e-05
0.0420692
-1.17774e-05
3.72717e-08
2.14096e-07
6.01244e-05
-0.00201659
-1.08069e-07
0.000746819
-1.27481e-05
0.000117747
-0.00238976
0.107647
0.0471975
-7.15729e-09
-0.235593
0.000684885
-2.18382e-05
2.45528e-07
0.000335912
4.80291e-06
0.00972664
0.0313247
0.000111723
4.62444e-07
-0.0191657
-3.16485e-05
0.000114652
-0.00383357
-0.00264964
2.83839e-06
0.000746565
0.0221504
-0.379236
-0.0343064
0.000235714
8.41724e-07
4.17191e-05
-4.59403e-07
0.0118057
4.42587e-06
-6.40368e-06
-0.0299429
0.0498071
7.5123e-07
-5.52288e-07
0.013434
3.61673e-05
0.00333194
-0.000899691
4.79915e-07
3.98616e-05
0.00208322
-0.000854577
-0.00612466
8.71029e-06
-0.3572
-8.93443e-06
-6.37794e-08
-1.19307e-07
-0.00330955
-4.92306e-08
-0.00345411
-6.08829e-07
1.5061e-06
-0.00694188
-9.48964e-06
-1.47862e-07
4.07473e-07
-5.25659e-05
-0.0844387
-9.70005e-05
-1.12774e-05
7.00471e-06
0.0001367
-1.32136e-06
-0.00285791
-1.6635e-05
-3.60089e-05
0.00441095
4.4039e-06
0.00407559
0.00141304
-3.7703e-07
-0.000142033
-0.116518
0.00142845
-1.02941e-06
-0.153905
-0.00164846
-1.34748e-06
-9.48551e-08
0.00393471
-0.0241951
0.0001366
-0.00365442
0.0130678
-8.27055e-07
-0.000641723
-3.1767e-07
-1.1377e-05
0.00015428
-0.0356874
-0.0238237
0.00110924
-3.72547e-05
-0.00320785
-0.00718552
-1.28519e-06
-0.027868
1.21229e-07
0.045648
-0.00652348
2.96513e-07
-1.91171e-08
0.00522089
-9.4494e-07
4.26033e-07
0.00354384
-0.0935265
-0.00614262
-8.4839e-06
-0.0146494
-3.40217e-08
-0.025544
-0.0137798
-4.7239e-08
-0.262699
-0.75275
0.00292158
0.00336859
-0.0167115
0.00719136
-3.56394e-07
1.41567e-06
2.52323e-05
-8.7708e-05
4.52381e-07
0.00692
4.14611e-07
-0.0190591
0.0346248
0.000507864
0.0058296
-0.0190928
0.0319919
-0.00628453
-0.0113475
-0.000134586
-0.012304
-7.09118e-06
-1.53094e-07
0.00547173
-5.92537e-06
3.05366e-07
-0.146856
-1.60948e-06
0.00498015
-1.01061e-06
0.0277223
-6.5654e-06
-1.23503e-06
16.1143
4.51229e-05
-1.45204e-05
0.00794597
0.0908258
1.0184
-1.14071e-05
-3.19198e-05
4.68618e-06
-5.67175e-05
0.000522453
-8.63208e-05
-3.5138e-08
0.0354273
-7.43229e-05
-3.91891e-05
0.00410481
-2.36067e-05
-8.57985e-05
0.0022358
4.47292e-05
-0.000125769
-1.30153e-06
-0.000857821
2.91719e-07
0.000882876
0.0853481
-0.0232829
-2.37715e-07
-1.77549e-05
-0.00546987
-3.26689e-06
0.000212919
-1.1464e-05
5.7504e-05
-0.00791516
-9.51072e-05
1.60086e-06
-0.171111
-2.30144e-07
-0.0155609
4.98002e-09
-3.59583e-06
0.00146985
-0.0119788
2.12277e-05
0.0640263
0.0293754
-2.62364e-05
-9.96333e-07
0.0156122
7.16385e-05
0.00427172
2.29903e-05
-1.5193
0.000178157
-1.98032e-05
-1.64422e-05
-0.00345818
-7.73179e-06
0.0109124
-7.28074e-05
0.000349194
-6.36453e-06
-8.61492e-07
0.0839057
-1.80686e-06
-1.31813e-05
-2.16814e-07
-0.000418931
-1.43878e-05
-9.49631e-05
-0.0207579
2.44518e-07
-0.00111366
-6.9523e-08
-1.53077e-06
-1.54486e-07
-7.01795e-08
-3.732e-06
-5.49799e-07
-0.000679978
-0.00855007
-0.000154824
-7.45108e-05
-5.61578e-06
1.57126e-06
-0.000256698
-1.19904e-06
0.0332741
0.000522407
-0.0112281
-0.00366292
1.20815e-05
-8.07586e-06
-1.77734e-07
8.58361e-06
-0.00555736
-2.59785e-05
-0.00800928
-0.000209657
-0.0362802
-0.00199013
-3.82433e-08
-1.57406e-07
0.00318287
-5.9281e-07
-2.43535e-05
-0.00522502
0.0172097
-2.20389e-06
0.0138523
-7.76811e-08
-6.58029e-06
-8.62442e-08
1.9867e-06
0.0230746
-0.0017155
1.54146e-06
-2.47976e-05
0.00222367
-7.73625e-05
-0.000281434
0.0350996
0.00910537
-0.00742282
-0.000752227
4.42484e-06
-9.85078e-07
-0.000257853
-0.0134101
0.076921
-0.0363621
-3.28137e-05
0.0129148
-0.000856823
-3.01502e-06
-1.0624e-10
-0.00016411
-9.6173e-08
-1.5015e-05
-0.019301
-1.35278e-06
6.87791e-08
-0.00542023
0.107584
-0.000117985
0.157075
-1.44599e-06
0.0183914
-5.69648e-05
0.0412672
0.00107582
-3.4699e-07
-0.0342472
0.0088631
-1.44577e-06
-0.00286032
-3.0553e-08
0.0014557
-1.39624e-05
0.015243
-0.130622
-0.000303748
0.00170352
-7.97355e-07
0.0169008
-1.97536e-06
-1.11012e-05
2.98269e-06
8.54106e-05
-4.95239e-08
-0.000241537
-0.0175255
-0.136346
1.29745e-05
-4.29664e-05
0.00972925
1.08858e-06
2.27143e-07
-2.71815e-06
-0.0502918
-7.95618e-06
0.012022
-0.0252792
-0.00507955
-1.28902e-07
-0.00171627
-0.00383817
-0.00313016
3.28011e-06
-0.0139887
-1.52176e-06
-9.16845e-08
-1.48335e-06
-0.110102
-3.18608e-07
-1.84165e-06
-0.0305133
-1.11798e-06
0.00294637
-0.00512853
-6.31626e-07
-0.0631563
3.78946e-06
0.0235323
8.58002e-07
-0.0561374
4.42325e-07
-0.000591894
0.356859
-6.24239e-05
-1.21052e-06
-5.85018e-06
0.0460486
-1.76354e-05
-0.00654533
-2.25024e-05
-9.03887e-06
0.00522871
1.87632e-05
-8.33857e-07
-0.113443
-1.44795e-05
-3.29904e-06
0.00162388
-1.55259e-06
5.4733e-07
-3.21989e-08
3.34886e-06
-1.98269e-06