/*--------------------------------*- C++ -*----------------------------------*\
| =========                 |                                                 |
| \\      /  F ield         | OpenFOAM: The Open Source CFD Toolbox           |
|  \\    /   O peration     | Version:  v2012                                 |
|   \\  /    A nd           | Website:  www.openfoam.com                      |
|    \\/     M anipulation  |                                                 |
\*---------------------------------------------------------------------------*/
FoamFile
{
    version     2.0;
    format      ascii;
    class       surfaceScalarField;
    location    "300";
    object      ddtCorrDdt0(phi);
}
// * * * * * * * * * * * * * * * * * * * * * * * * * * * * * * * * * * * * * //

dimensions      [0 3 -2 0 0 0 0];
oriented        oriented;


internalField   nonuniform List<scalar> 
20580
(
0.000327761
1.91736e-05
-0.000346934
7.5708e-07
3.28157e-05
-3.3573e-05
-4.13916e-05
4.21484e-05
-0.000191433
-0.000132376
0.00032378
-1.02467e-05
1.24398e-05
-2.19259e-06
-5.69519e-05
2.56946e-05
3.12577e-05
1.92142e-05
-6.85255e-05
-1.51088e-05
1.43904e-05
7.20115e-07
-6.26075e-05
0.000270556
-0.00020795
-1.12681e-05
1.82285e-05
-6.96073e-06
-5.99677e-05
3.91598e-05
2.08087e-05
1.02457e-05
-2.841e-05
1.8164e-05
4.51914e-05
-2.03408e-05
-2.48501e-05
0.000533718
-0.00026623
-0.000267488
-3.92581e-05
-5.74051e-05
9.66622e-05
-8.58119e-05
0.000184465
-9.86526e-05
-0.000125561
-3.74284e-05
0.000162985
3.83246e-05
-3.26346e-05
-5.68924e-06
-0.000688796
0.000686661
2.11567e-06
0.000300665
2.70956e-05
-8.077e-05
0.000122619
-4.18489e-05
-5.95104e-05
3.96692e-05
1.98413e-05
0.000127375
-0.000403001
0.000275625
-4.25103e-07
1.92397e-07
2.33062e-07
-0.000311891
0.00168453
-0.00137274
0.000170266
-3.61943e-05
-0.000134071
0.00110884
-0.00115137
4.25379e-05
0.000367632
0.000267269
-0.00063488
0.000131932
-0.000281433
0.000149501
-2.67673e-05
1.56498e-07
2.6611e-05
0.00033338
3.44812e-05
-0.000367871
-4.82364e-05
6.745e-05
0.000289574
-0.000423104
0.000133529
0.000605717
-0.000183264
-0.000422451
4.43176e-05
-2.57369e-05
-1.85795e-05
4.7861e-05
0.000171463
-0.000219325
-3.93208e-08
-3.85561e-07
-0.000923913
-0.000310247
0.00123415
0.000167857
-0.000575686
0.000407809
4.92082e-05
-1.02396e-05
-3.89681e-05
0.000234257
-0.000147101
-8.71583e-05
0.000337246
-0.000205314
0.000115412
-0.000115406
-0.000272253
0.000150511
0.000121744
-0.000362248
0.000493917
-0.000131668
-3.11522e-05
3.52911e-05
-4.13861e-06
-6.42783e-06
3.38982e-06
-0.000158452
-0.00011097
0.000269424
-1.71977e-05
4.78209e-05
-3.06229e-05
1.45474e-05
3.0645e-05
0.000276879
-0.000303176
2.62946e-05
4.85316e-05
-5.96934e-06
-4.25615e-05
-0.000216439
0.000130628
0.000109933
-9.60819e-05
-1.38516e-05
0.000141357
9.16637e-05
-0.000233023
1.34525e-05
3.57559e-05
-8.84274e-05
0.000378001
0.000147498
8.67575e-05
-8.52063e-05
0.000921166
-0.000835967
-0.000135081
0.000276536
-0.00014145
3.48597e-05
-2.46141e-05
0.00097496
0.000133893
6.15213e-05
-5.95116e-05
-2.01106e-06
2.41675e-05
-4.13651e-05
7.97648e-05
-7.16278e-05
-8.14834e-06
7.11238e-05
8.63528e-06
-0.000210675
7.55944e-05
2.06836e-05
-5.16972e-05
-4.4209e-05
3.26695e-05
1.15396e-05
0.000144906
-0.000316701
0.000171814
-0.000142202
0.000166587
-2.43914e-05
-0.000104178
0.000140702
-3.65239e-05
-3.17925e-05
3.71901e-05
-5.39767e-06
0.000234735
4.18063e-05
-5.94919e-05
0.000108198
-4.87064e-05
-4.47082e-05
4.02502e-05
4.45841e-06
-0.00019608
7.05169e-05
8.494e-06
7.3789e-06
-1.58728e-05
-0.00146869
0.0011568
-2.06988e-05
2.86969e-06
1.78296e-05
-2.87754e-05
-1.54337e-05
0.000900037
-0.000339138
-0.0005609
2.48626e-05
1.94566e-05
-0.000412908
0.000487651
-7.47447e-05
0.000315009
-8.02735e-05
0.000282446
-4.9607e-05
-0.000232843
-2.85665e-05
-3.09439e-05
-0.000284269
3.93302e-05
0.000244941
-1.3837e-07
-1.13576e-05
1.14951e-05
0.000148479
0.000184898
6.69865e-08
4.84648e-05
1.6268e-05
-6.45042e-05
0.000397624
-0.000397627
0.000201493
8.09493e-05
-0.000522023
0.000476298
4.57211e-05
2.72621e-05
-0.000163539
0.000136284
-4.71963e-05
4.03157e-05
6.88094e-06
-0.000304194
0.000135322
0.000168874
3.94539e-05
-4.63908e-05
6.93631e-06
-6.74159e-05
8.53566e-05
-1.79414e-05
-0.000178444
-0.000125748
-4.05124e-05
5.67784e-05
-1.62668e-05
-6.56752e-05
3.27704e-05
3.29052e-05
4.99232e-05
-3.68764e-05
-1.30472e-05
3.47232e-05
-6.94361e-06
-2.77794e-05
-8.48677e-05
9.60814e-05
-1.12135e-05
4.38981e-06
3.03334e-05
0.000101997
-0.000244198
6.21193e-05
-4.58516e-05
2.97356e-05
8.5892e-06
8.80893e-06
-5.0169e-05
4.1361e-05
-3.7704e-05
6.55165e-06
-0.000479554
0.000230135
0.000249418
3.48227e-05
-2.08604e-05
-1.39618e-05
0.00049084
-0.000126672
-0.000364168
8.54234e-05
2.45101e-05
-2.07752e-06
1.47988e-05
-1.27209e-05
-9.39647e-06
-5.71264e-06
0.000118803
-0.000310231
-0.000350817
0.00049573
-7.78649e-05
0.000163131
-8.52636e-05
-3.72839e-05
2.58759e-05
1.14079e-05
2.5101e-05
-3.75216e-05
1.24204e-05
0.000366095
-0.000146222
-0.000219881
6.77121e-05
0.000189098
-0.00025681
4.61252e-05
8.27945e-06
-5.44085e-05
-3.57889e-05
-1.14072e-05
-4.33962e-05
-1.38998e-05
5.72966e-05
-2.03536e-05
0.000327943
-0.000307588
-2.43551e-05
-7.92396e-05
0.000103594
5.01089e-05
-1.04397e-05
1.64901e-05
-4.3179e-05
2.66897e-05
-0.000933455
9.53988e-06
0.000189274
0.000416444
-4.58246e-05
-1.41429e-05
-3.13011e-05
-0.000439916
0.000471215
-3.62242e-05
-0.000199801
0.000150192
-4.81074e-05
1.69415e-06
4.64141e-05
4.15428e-05
8.68933e-05
-0.000128437
0.000357551
0.000542487
-1.77649e-05
6.15113e-05
-4.37462e-05
1.03094e-05
-1.04484e-05
2.10616e-05
3.91265e-05
-6.01808e-05
-0.00170391
0.000898555
0.000805362
-2.21815e-06
-3.8162e-05
4.03811e-05
-7.06267e-06
1.55565e-05
0.000235973
-9.74578e-05
0.000167564
-7.01075e-05
2.69231e-06
-4.60882e-05
6.75958e-05
-0.000246039
-0.000228588
-0.000250966
6.88931e-06
2.79337e-05
-0.00050437
0.000511792
-7.43353e-06
5.20736e-05
-5.6286e-05
4.21262e-06
-2.46968e-05
1.51285e-05
9.56855e-06
-4.12211e-05
3.08565e-05
1.03645e-05
0.000450968
-0.000283122
0.000104149
-0.000103981
-1.69277e-07
5.8878e-05
-3.76488e-05
-2.12306e-05
3.69988e-07
-3.95322e-07
2.58247e-08
-0.000301081
0.00018311
0.000117971
-9.45457e-05
9.6781e-06
0.000211705
-0.000370156
0.000301966
0.000231752
0.000341928
-0.000292086
-4.98438e-05
-0.000115424
0.00045735
0.000321281
-4.44036e-05
-4.15443e-05
5.03534e-05
0.00108437
-0.000563136
-0.000521224
-1.05779e-05
3.93509e-05
-2.87731e-05
-1.54843e-05
1.3407e-05
-7.06828e-05
0.00010839
-3.77065e-05
-7.45897e-06
5.10542e-06
2.35398e-06
-0.000363017
-0.000159006
0.000661659
0.000834336
-0.001496
0.000533005
-0.000158863
-0.000374144
-1.1399e-06
-1.43441e-05
-6.8671e-05
-4.24309e-05
0.000111102
0.000157654
0.000375353
-8.74322e-05
0.000155145
-0.000244991
-1.01037e-05
5.14273e-05
-4.13233e-05
-0.000134557
0.000110201
0.000151143
-0.000151148
3.70321e-05
-0.00013449
-0.000185765
-0.00023734
-4.329e-05
5.25717e-05
-9.28107e-06
-4.7438e-05
5.42434e-05
-6.80539e-06
1.71817e-05
9.40086e-06
-2.65822e-05
-0.00094954
-0.000754374
8.44764e-06
9.57006e-05
-0.00034736
8.11297e-05
-1.32998e-05
-4.3652e-05
3.59703e-05
-3.81881e-05
-0.000249738
0.000109792
0.000139948
-0.000362513
0.000176748
5.65323e-06
-2.661e-05
2.09566e-05
-4.37696e-05
3.79635e-05
5.80628e-06
6.12469e-05
-1.43896e-05
-4.68582e-05
-0.000782074
0.000434789
0.000347287
0.000103689
-1.57068e-05
-8.79894e-05
-0.000111767
0.000129617
-1.78546e-05
6.91311e-05
-0.00010839
-0.000135584
-0.000107692
0.000243289
0.000124265
-2.05769e-05
-4.43248e-05
-1.45988e-05
5.89237e-05
-0.000166667
4.45344e-05
0.000122133
0.000147601
0.000227408
-0.00037501
-2.68717e-05
-1.51548e-05
4.20265e-05
-4.6302e-05
0.000169539
-0.000123238
3.30095e-05
-7.90848e-06
-0.000424521
4.55496e-07
-8.26987e-06
7.81462e-06
3.90431e-05
-2.82122e-05
-1.08294e-05
4.60221e-05
-3.4355e-05
-1.16669e-05
4.27159e-05
-2.81676e-05
-0.000240375
-4.9191e-05
0.000289566
-8.33801e-06
3.40173e-05
-2.56799e-05
-7.59098e-06
-2.77298e-05
1.41762e-05
-1.5316e-05
-0.000239761
0.000253107
-1.33456e-05
-0.000478174
6.52655e-05
-0.000343746
0.000501824
-0.000158084
4.21586e-05
5.28106e-06
-4.7442e-05
-4.84264e-05
-0.000118241
6.2197e-08
1.19869e-06
-1.26072e-06
-3.2901e-05
5.39611e-05
-7.34608e-06
1.83332e-05
-1.0987e-05
1.33069e-05
-0.000307907
0.00054388
-0.00023604
-4.82132e-05
4.92276e-06
2.53939e-05
-5.22658e-05
-1.92052e-06
-6.25598e-05
3.87031e-05
-0.000150472
-3.48875e-05
8.12026e-06
0.000555829
-0.00042846
-0.000108062
0.000101682
6.3768e-06
-3.12517e-05
-3.6164e-05
5.0383e-07
-1.33617e-07
0.000610798
-2.36316e-05
-0.00058716
-0.000272822
0.000391229
-0.000118406
0.000117168
-0.000479415
0.000138163
-8.28806e-05
5.85379e-05
2.43428e-05
-5.60853e-05
1.49777e-05
4.11177e-05
-0.000308368
6.79938e-05
-0.000117285
4.86142e-05
-0.000174114
1.05814e-05
-5.57387e-05
4.50323e-05
1.07069e-05
4.16412e-05
4.58227e-05
-8.74639e-05
0.000210465
-0.000182418
-2.80459e-05
7.68532e-06
-1.76509e-05
9.96597e-06
-4.50084e-05
-4.46419e-06
4.9472e-05
-0.000114415
-0.000206056
-9.50256e-05
0.000282237
0.000158776
-0.000441013
2.38152e-05
-6.63347e-06
-1.06887e-05
-4.55406e-08
-1.1238e-05
1.12824e-05
-0.000644372
0.000515601
0.000128771
-0.000431718
0.000268337
0.000163378
2.90308e-06
-4.79117e-05
-8.85697e-05
-5.97583e-06
0.000233398
-2.29335e-05
3.63833e-05
-2.87241e-05
-7.6587e-06
-5.29713e-05
1.24585e-05
-8.53644e-05
-0.00021276
0.000298125
0.000117349
-6.01203e-06
-0.000111325
-2.4556e-06
-4.04477e-05
4.2903e-05
1.23869e-05
3.03314e-05
-6.05562e-06
-0.00065213
0.000295293
0.000356836
-0.000318647
-4.18931e-06
0.000322834
-0.000132127
5.39048e-05
7.82219e-05
-3.0279e-05
-7.00497e-06
6.10659e-05
-0.000148493
0.000369519
-0.00046388
9.43559e-05
6.75318e-05
-0.000377183
0.00030965
-0.000100976
1.24067e-05
-0.000417346
-0.000234784
1.23145e-05
-1.74845e-05
5.16986e-06
-1.27839e-05
4.38136e-05
-3.10297e-05
0.000106598
-4.12311e-05
-6.53728e-05
-0.000709846
0.000313768
0.000396084
-6.64489e-06
-1.9384e-05
2.60289e-05
2.61728e-05
-3.71281e-05
1.09552e-05
0.000318201
-0.000250669
-2.71041e-05
-2.36101e-05
5.07144e-05
2.22874e-05
-3.29539e-05
1.06665e-05
-7.21145e-06
8.17146e-06
-9.59736e-07
-1.74678e-05
1.0122e-05
1.30769e-05
-1.3189e-05
1.12451e-07
4.67921e-05
3.09824e-05
-7.77732e-05
-1.50483e-05
-0.000329082
0.000266474
2.70269e-05
-0.000107797
-4.16953e-05
3.49765e-05
6.71859e-06
-0.000158195
0.000354212
1.18786e-05
4.97452e-05
-4.6955e-05
-2.78978e-06
6.09048e-05
9.53242e-05
2.09914e-05
-0.000116317
3.754e-05
-5.53048e-05
5.03135e-05
-5.67717e-07
0.000131405
-0.000104378
0.000437965
-0.000442208
4.24172e-06
0.000218469
0.000149859
-0.000368301
-0.000143187
7.00827e-05
7.31041e-05
-1.09218e-05
6.75286e-07
0.000529042
0.000555338
2.42818e-05
-0.000152026
9.26203e-05
5.94048e-05
0.000143059
-4.77349e-05
0.000399798
6.18914e-05
-0.000461681
2.30158e-05
3.58618e-05
-0.000222234
-0.00048761
0.00129462
-0.00078722
-0.000507395
0.00012117
0.000191687
-0.000312846
0.000400105
-0.000148068
-0.000252037
-6.03222e-05
3.62984e-05
2.40224e-05
0.000465025
-0.000496329
0.000378491
-0.000273329
-0.000105163
0.00077375
-0.000406098
-4.349e-05
-2.79443e-07
4.73367e-05
7.02937e-05
-0.000117628
0.000243332
-0.000243331
-4.13963e-05
4.67242e-05
-5.32237e-06
7.7108e-06
-4.91033e-05
-1.49697e-06
-4.28278e-05
-8.39535e-05
-3.58992e-05
0.000119853
2.64564e-05
2.6022e-05
-5.2479e-05
-9.02016e-05
-0.000194068
-6.66225e-05
4.59255e-05
2.06977e-05
2.6559e-06
8.81241e-06
-1.14679e-05
-7.18488e-06
7.56888e-07
3.08175e-05
-4.60913e-05
1.52742e-05
0.000197096
-7.59262e-05
-3.93624e-05
-2.62282e-05
1.95834e-05
0.000132552
2.33356e-05
-5.13734e-05
2.80374e-05
3.81629e-05
-2.16729e-05
-4.04422e-05
2.79275e-06
0.000447651
-9.68642e-06
-2.86577e-05
8.97288e-05
-0.000106647
7.35795e-06
3.86643e-05
-2.02676e-05
4.56616e-05
0.000379969
-0.000130722
-0.000249243
1.56186e-06
-4.89999e-05
-0.000134855
3.66537e-05
-4.94382e-05
9.21416e-05
3.92641e-05
-2.55158e-05
4.8851e-05
-1.14034e-05
-3.00954e-05
-1.16006e-05
0.000211945
7.55534e-05
-0.000287498
0.00011691
-3.15535e-05
0.000189485
-0.000167956
-2.15282e-05
0.000361163
6.07277e-05
0.000319243
-3.7292e-05
-8.69031e-07
2.1554e-05
0.000631012
-0.00066234
3.13312e-05
-8.03696e-06
-1.00932e-05
1.81296e-05
-0.000106244
0.000506042
0.000191306
-0.000209021
1.77154e-05
5.36895e-05
-1.42364e-05
-2.51047e-05
5.59224e-05
-6.65977e-05
-0.000104922
-0.000708738
0.000623534
0.000375955
5.04731e-06
-0.000380998
-0.00028686
9.48154e-05
0.000192045
-0.000252649
0.000180168
7.24809e-05
-2.68731e-05
4.04299e-05
-1.35559e-05
-0.000780247
0.00144191
-2.35701e-06
0.000117774
-1.80319e-05
5.69739e-05
-3.8942e-05
-3.45626e-05
7.62039e-05
1.65117e-05
4.22563e-05
-5.87677e-05
7.04803e-05
-2.94027e-05
-4.10812e-05
2.96825e-05
7.69156e-05
0.000115106
-9.14624e-05
-0.000171103
0.000237037
-6.5935e-05
-0.00029995
0.000126354
0.000173595
-1.47609e-05
-9.93697e-06
-5.36483e-05
1.83709e-05
3.52772e-05
-5.11715e-05
2.40677e-05
-0.000101923
4.16169e-06
2.30423e-05
-2.72034e-05
-3.3916e-05
-9.8212e-05
-0.000755222
0.000581689
0.000173537
-2.87985e-06
-2.89127e-05
-9.67286e-05
0.000141263
0.000287993
-0.000170737
-0.000117204
-3.86542e-05
4.7121e-05
-8.46653e-06
0.000389999
-0.000551549
0.000161543
0.000104514
2.32993e-05
-0.000127813
-0.000150276
0.000368755
-5.19325e-05
3.67776e-05
0.000150578
1.96887e-05
-7.38862e-06
-0.000128166
-0.000242621
-7.09491e-05
8.23863e-05
-1.14365e-05
0.000503435
-0.000221198
4.21915e-05
0.000141081
0.000469714
2.97434e-05
6.64005e-06
-1.4405e-05
0.000226349
-4.00808e-05
4.89446e-05
-8.86317e-06
-0.000187746
0.000121149
-2.89741e-05
3.8062e-05
-9.08742e-06
-1.72105e-05
1.7213e-05
-0.000721435
0.000143525
0.000577915
0.00212037
-0.00104038
-0.00107993
2.83418e-05
-4.86093e-05
6.22947e-05
-0.00106641
-0.000105646
0.00117206
-0.000314231
-4.42635e-06
-5.8002e-06
8.82997e-06
-3.02971e-06
-2.51623e-05
7.25045e-05
0.000415177
-0.000171795
-0.000243381
6.79857e-05
-0.000256575
0.000188573
-4.96897e-05
-6.0488e-06
-9.28784e-05
-0.000582744
0.000675603
-1.87597e-05
2.36142e-05
-4.85356e-06
-6.11267e-06
-1.34605e-06
-2.68073e-05
0.000168163
-0.00100571
0.00103416
-2.84456e-05
-1.23654e-05
1.0982e-06
4.03838e-05
-7.56782e-06
4.62899e-05
-0.000143019
-7.18688e-07
-1.74122e-05
1.81312e-05
-0.00012916
-0.000592272
3.10815e-05
-0.000115035
0.00018881
2.49589e-06
6.8467e-05
-1.46254e-05
-5.38412e-05
2.1655e-05
-4.85282e-05
3.46861e-05
1.27566e-05
-4.74424e-05
-8.35414e-05
0.000459495
4.27436e-05
-7.76731e-06
4.4533e-05
-9.84613e-06
1.573e-05
0.00078776
-0.000803483
5.67272e-05
-0.000811947
3.36097e-05
1.64992e-05
-0.000139996
-0.000407647
0.000547647
5.40491e-05
7.47167e-06
-1.29409e-05
-2.41871e-05
-5.46623e-05
1.60081e-05
7.06792e-06
0.000122388
7.17788e-06
-0.000129566
1.0456e-05
1.99367e-05
-3.03917e-05
4.12157e-05
-8.28132e-06
-3.2934e-05
8.06547e-05
-0.000158519
4.32243e-05
-4.67199e-05
3.49665e-06
-0.000483965
-5.64082e-05
0.000540369
-2.80922e-05
3.35078e-05
-5.41598e-06
-6.6421e-05
8.73181e-05
-2.08965e-05
0.000179172
0.000314745
-2.9595e-05
4.76123e-05
-1.80178e-05
3.11934e-07
2.06888e-06
-2.38046e-06
-8.40179e-06
-3.62515e-05
4.46532e-05
1.19532e-05
5.65142e-05
-2.63308e-05
2.98473e-05
-3.51701e-06
3.13762e-05
0.000337256
-0.000368623
0.000865853
-0.000899113
3.3264e-05
-6.97269e-05
-1.31537e-05
1.03471e-05
4.35583e-05
-5.39066e-05
-2.63204e-05
7.49769e-06
1.58904e-05
-2.33877e-05
-0.000234481
0.000500265
-0.000265784
-0.000848728
4.72883e-05
6.82019e-06
-5.41084e-05
8.68513e-06
-4.12076e-05
3.25226e-05
0.000232268
5.25191e-06
-5.33594e-05
0.000241526
-0.000150413
-9.1123e-05
2.30436e-05
2.68793e-05
2.94892e-05
1.17105e-05
-4.11994e-05
-0.000211306
6.78744e-05
4.25232e-05
-0.000110398
-0.000371589
9.82608e-05
1.77265e-05
-0.00108413
0.000583539
0.00153683
5.01452e-05
-3.85457e-05
-1.15982e-05
0.000171516
4.15607e-05
-1.72817e-05
-2.42785e-05
-9.83231e-05
-5.42014e-05
0.000158716
2.87478e-06
-0.000365388
-5.33129e-05
1.32323e-05
-3.73501e-05
2.12319e-05
-5.08274e-05
-0.000106582
6.13731e-06
6.30274e-06
0.000152961
-8.80448e-05
-6.49046e-05
0.000198954
-0.000433434
-0.000791295
0.000307323
-0.000176187
-4.29472e-05
0.000219121
0.000881585
0.000189196
-0.000122395
-6.68023e-05
-0.000195545
-7.73977e-06
-3.98577e-05
4.75966e-05
-2.4163e-06
2.46405e-05
-2.22236e-05
0.000428931
-3.89341e-05
8.74496e-06
9.48223e-06
3.19281e-05
-2.77664e-05
3.82265e-05
1.17489e-05
-4.99779e-05
0.000504492
-0.00026702
-0.000237475
3.52818e-05
4.59591e-06
-3.98766e-05
-5.18516e-05
2.59038e-06
4.92616e-05
0.000120002
-6.03512e-05
-5.96477e-05
2.1958e-05
2.34332e-05
-4.53907e-05
-3.21931e-06
-9.17433e-06
1.23934e-05
3.95909e-05
0.000824335
-0.000863923
-2.22225e-05
3.49233e-05
-1.27004e-05
0.000439937
-6.24099e-05
-0.000377523
-0.00034527
0.00037665
2.20096e-06
-2.28996e-05
2.92017e-05
1.11538e-05
-4.0355e-05
-0.000483633
0.000467216
1.64192e-05
0.000179243
-1.26001e-05
-6.23284e-05
-0.000779329
0.000841648
0.000229926
0.000198996
-2.00636e-05
1.51892e-06
1.85474e-05
9.69116e-05
-0.000372131
0.000275203
-1.14888e-06
-0.000687659
-0.000172255
0.000212477
-4.02217e-05
3.74392e-05
1.27064e-05
-0.000149868
0.000937637
7.18755e-05
-4.95026e-05
-2.23727e-05
-4.43967e-06
-1.56225e-05
-0.000776718
8.99939e-05
0.000686725
-4.47853e-05
2.95434e-05
1.52418e-05
1.80933e-05
0.000429525
-0.000634779
0.000205248
5.79907e-05
1.24876e-05
-5.63726e-05
5.55502e-05
8.23168e-07
-9.14705e-06
0.000131535
-1.57126e-05
7.44564e-06
8.26403e-06
0.00014836
4.71831e-06
-0.000153078
0.000381089
-0.00040144
0.000427111
-0.000543246
0.000116122
-6.26415e-06
-1.03979e-05
1.6662e-05
0.00020656
-0.000113775
-9.27783e-05
3.34984e-05
-1.21159e-05
2.51324e-05
-6.37144e-05
-2.90798e-05
9.27945e-05
3.88108e-06
-9.68119e-06
1.41875e-05
2.60632e-05
-0.000315756
-9.57399e-05
0.000411491
-0.000234071
-6.58783e-05
-0.000218845
-4.28565e-06
3.95678e-05
6.41245e-07
-1.18797e-05
-0.000538532
9.18741e-05
0.000446657
4.49876e-05
-3.9723e-05
-5.26451e-06
-0.000277676
0.000247406
3.02691e-05
-3.74467e-05
-3.52636e-05
7.27108e-05
-6.05159e-05
-4.64712e-05
0.000106987
-7.53555e-05
2.9584e-05
4.57715e-05
0.00052157
-0.000601482
7.99137e-05
2.37584e-05
-1.14442e-05
-3.5421e-05
4.9342e-05
-1.39209e-05
0.00012866
-0.000131015
-5.4616e-05
3.41561e-05
2.0459e-05
8.65517e-05
-9.38552e-05
7.30371e-06
0.000213056
0.00012419
0.000239869
-0.000148205
-4.61749e-05
3.06027e-05
1.55723e-05
1.28367e-05
-3.91035e-05
-2.65714e-05
0.000176844
-0.000272581
7.37442e-05
-0.000188305
0.000114558
0.000159318
-1.09578e-05
0.00028524
-4.37164e-05
1.662e-05
-8.03343e-05
9.8733e-05
-6.90567e-05
-0.000638419
0.000330494
-0.0011102
0.00102039
8.97949e-05
9.00359e-05
-0.000165833
7.57978e-05
0.000168171
0.000271768
0.000807003
-0.000242266
-0.000564736
-0.000199257
-7.18216e-05
0.00027108
-4.7349e-05
1.01688e-05
3.7181e-05
0.000804724
0.000116434
-0.000129029
3.6132e-05
-1.55169e-05
-2.31836e-05
3.87014e-05
0.000365158
3.24641e-05
0.000518166
-0.000933277
0.000415108
-5.16478e-05
-9.3014e-05
-3.16803e-05
-1.87349e-05
5.04154e-05
3.27957e-05
-2.24528e-05
5.49671e-05
-3.30353e-05
-2.19317e-05
-0.00070481
0.000518995
0.000185806
4.12227e-05
1.521e-06
-9.82683e-07
-2.55261e-06
3.53578e-06
-3.29547e-05
-2.1664e-05
5.46199e-05
3.84885e-05
-1.65304e-05
7.16355e-06
-3.52558e-05
0.000141473
-5.57475e-06
4.59241e-06
0.00033003
0.000476974
-5.75466e-05
2.09403e-05
3.6607e-05
-0.000119333
-6.84122e-05
-3.90686e-07
-3.64857e-05
5.97323e-06
-9.19286e-06
2.92632e-05
2.56542e-05
-5.49174e-05
0.000127719
7.88438e-05
-6.53595e-05
7.50422e-05
-9.68214e-06
6.19074e-05
-1.36897e-05
1.9511e-05
-2.06007e-05
1.09004e-06
2.68257e-05
-1.54668e-05
-1.13583e-05
5.9486e-05
4.89047e-05
3.58631e-05
5.35258e-06
-0.000173308
8.28714e-05
9.0439e-05
4.62778e-05
-6.86434e-06
-3.94134e-05
2.27223e-06
4.5016e-05
0.000910165
-0.000105456
-4.70411e-05
4.9728e-06
4.20685e-05
0.000418698
-0.000522325
0.000103628
1.78377e-06
-1.72147e-06
-0.000158793
2.00507e-05
0.000138743
0.000100488
2.81748e-05
3.53529e-05
0.000359887
-0.000395241
-4.76077e-05
-0.000424458
-0.000280358
5.66016e-05
6.34013e-05
7.81814e-05
-0.000174712
9.65348e-05
-7.68272e-05
0.00059499
9.32664e-06
9.35542e-06
-1.86824e-05
0.000623769
-0.000584171
-2.49173e-05
3.91787e-05
-5.72105e-05
9.64924e-06
-0.000185847
0.00151685
0.000369556
-0.00188642
5.81265e-06
-1.38498e-05
-8.66781e-05
-8.66295e-05
2.33359e-05
-1.76826e-05
6.49946e-05
-0.000264251
-0.000475973
9.59911e-05
0.000379979
6.54945e-06
-3.01309e-05
2.35815e-05
9.54888e-06
0.000412348
-0.00035067
-6.1673e-05
2.52618e-07
1.08365e-06
-1.336e-06
3.60595e-06
-3.35326e-06
9.28614e-05
-0.000129056
0.000490556
-7.18591e-05
0.000826349
-0.000634815
-0.000191518
1.9474e-05
3.08399e-05
-0.000171057
0.000262407
-9.13526e-05
2.45839e-06
4.07665e-05
-1.02921e-05
6.85308e-07
9.60728e-06
0.000347187
-0.000707618
0.000360413
6.59795e-05
-7.78078e-05
-3.13683e-05
0.000109176
-8.70617e-06
4.23244e-06
4.47413e-06
0.000159378
-0.000244742
-1.66594e-05
-4.67916e-05
6.34521e-05
-0.000140834
1.00625e-05
0.000130773
4.00814e-05
-5.67631e-05
1.66817e-05
4.0915e-05
-4.94459e-06
3.25091e-05
2.24578e-05
7.47633e-06
-4.04309e-05
-5.79609e-05
0.000269667
2.61563e-05
-0.000130335
8.08297e-05
5.9873e-05
0.000135985
-4.59469e-05
-7.71728e-07
-0.000149646
-1.79035e-05
0.000704559
0.00103232
-0.000434394
-0.000597917
-0.000716594
0.000654262
-0.000167515
0.000235112
0.000447221
-2.22311e-05
-0.000424991
1.35622e-05
4.1844e-05
-5.54078e-05
-0.000202051
0.000631575
8.0852e-05
-3.84799e-05
7.28774e-06
3.11927e-05
1.92363e-05
7.9494e-05
0.000601359
-0.000619269
2.10228e-05
-5.09707e-05
2.99483e-05
-1.72157e-05
2.00857e-05
2.03287e-05
-5.51897e-06
-1.48093e-05
4.55578e-05
-0.000180422
0.000134863
-5.21628e-05
-0.000200486
2.41373e-05
-9.05585e-05
9.40228e-05
7.65753e-06
-2.24894e-07
1.97359e-05
6.52903e-05
0.000761064
3.02788e-06
-8.87655e-05
8.5741e-05
0.000133689
9.36818e-06
-3.55668e-06
-8.3121e-05
-1.06291e-05
-4.13034e-05
-3.82741e-05
-3.11726e-06
-3.84179e-05
0.000172106
-0.00010614
2.8333e-05
5.79042e-05
-4.43419e-05
-0.00111136
5.14776e-05
-2.98225e-05
0.000381856
-0.000600944
0.000219087
-0.000113236
-0.000264031
0.000594061
-4.87173e-05
1.32478e-05
3.54694e-05
-0.000697903
0.00036026
0.000337642
-3.38165e-07
-1.84215e-05
2.2393e-06
-6.28947e-05
4.8296e-05
1.67382e-06
-1.1966e-05
-0.000331764
0.000127108
0.000204657
9.70115e-06
3.37591e-06
0.000635175
-0.000287996
-0.000243239
-0.000101456
9.78995e-05
0.000461975
-0.00053156
6.95785e-05
-2.71986e-05
-1.91924e-05
0.000404909
-0.00066894
-0.000105742
0.000183925
-3.19002e-05
-1.57071e-05
-5.35074e-05
3.43067e-05
-2.19178e-05
1.89533e-05
-1.623e-05
-2.7233e-06
1.47394e-05
1.20877e-05
-4.69162e-07
-0.000113638
2.62087e-05
8.74304e-05
-0.000402535
0.000149359
0.000253175
-5.69702e-05
4.03117e-05
0.000551076
-0.000283794
4.52794e-05
-6.70116e-06
-3.85776e-05
-0.000181481
-2.34443e-06
2.34375e-06
-0.00040122
0.000268814
-2.21835e-05
4.133e-05
-1.91449e-05
-2.74851e-06
4.03693e-07
-6.77682e-05
6.65098e-05
1.25808e-06
-9.60588e-05
-0.000297999
0.000394058
-2.22877e-05
4.79822e-05
0.000896398
-0.00117567
0.000279263
0.000776794
-0.000853627
-1.70877e-05
-7.43098e-05
0.000135895
-6.15855e-05
-1.91236e-05
2.01817e-05
-1.05621e-06
0.000306173
-0.000489433
-2.20307e-05
-2.18909e-05
4.39211e-05
-3.50405e-05
3.96364e-05
0.000202547
5.27783e-05
-5.3505e-05
7.27492e-07
5.35463e-05
7.96516e-06
2.25084e-05
-3.87526e-06
-1.86332e-05
0.000141778
-7.97495e-05
-6.20283e-05
9.24195e-05
-0.000143255
5.08355e-05
-2.07503e-05
4.89504e-05
-2.82007e-05
4.35809e-05
-4.92301e-05
5.64932e-06
0.000108214
0.000306964
0.000591307
-0.000164208
4.2805e-05
9.76832e-06
-1.70388e-05
-2.66042e-05
4.36432e-05
-0.000292232
0.000110778
0.000181454
1.61749e-05
2.7785e-06
-0.000120769
6.44917e-06
-5.47981e-06
-9.69173e-07
-3.19448e-05
-1.47742e-05
0.000541766
0.000438543
-0.000980279
-0.000215965
-4.01891e-05
0.000256155
0.000363354
0.000127485
2.61889e-05
-8.74721e-05
6.12835e-05
1.70269e-05
6.61471e-06
1.46072e-05
-2.12218e-05
-2.07981e-06
2.0791e-06
1.12451e-05
7.53071e-05
-1.38231e-05
-3.35252e-05
9.92246e-06
-3.30777e-06
4.60848e-05
4.77687e-05
-9.38531e-05
-7.93412e-05
0.000267238
-0.000187897
1.41097e-05
-1.10909e-05
-3.01859e-06
-8.87504e-07
-0.000129338
0.00013023
-0.000169693
0.000427851
-0.00105464
0.000626776
7.43287e-05
-4.81396e-05
-0.000360212
9.62836e-05
0.000263947
4.75852e-05
-4.58906e-05
-7.28855e-07
-0.000262054
0.000110163
0.000151891
2.45898e-05
-2.04612e-05
-4.12853e-06
-4.88276e-05
-4.82096e-06
0.00102964
2.67685e-06
-0.000447212
0.000316493
-0.000486432
0.000377649
-0.000266872
9.12126e-06
-3.79083e-05
2.8787e-05
2.69944e-05
-2.0445e-05
-7.82282e-05
6.65687e-05
1.16604e-05
-3.23891e-05
4.40065e-05
-1.16172e-05
-2.2608e-06
2.962e-05
-2.7359e-05
-0.000186999
-0.000216004
-0.000481565
-0.000162806
-5.9692e-05
2.01271e-05
3.95651e-05
-0.000125207
5.42482e-05
-0.000270213
-5.82862e-07
-1.11115e-05
1.16941e-05
-2.06385e-05
2.07951e-05
-0.000323769
0.000664453
-0.000340668
0.000119359
6.94514e-05
-3.62298e-05
5.37755e-06
-5.34254e-06
-3.53631e-08
0.000222171
-0.000348843
0.000378886
4.0898e-05
-0.000419785
6.46196e-05
-3.65879e-07
5.24397e-05
5.40438e-06
-2.55715e-05
2.01674e-05
0.000124186
-3.17662e-05
-1.53654e-05
5.54465e-05
1.67041e-05
4.62589e-05
-6.29628e-05
-1.92002e-05
1.84818e-05
0.000440183
-0.000153118
-0.000287067
1.29571e-05
-5.27158e-06
-0.000123663
-7.34586e-06
-3.01187e-05
4.18102e-05
-1.16915e-05
-2.50743e-05
-6.17778e-06
-0.000103858
6.20214e-05
4.18373e-05
-8.7642e-05
2.50216e-05
6.26223e-05
-5.13632e-06
1.44742e-05
2.27161e-05
4.09694e-05
-8.48577e-06
-3.24832e-05
-1.53678e-05
1.13548e-05
4.01343e-06
-0.000216747
-0.000281468
0.000498209
5.74391e-05
-8.65611e-06
-4.87825e-05
0.000455723
-0.000296945
-1.70399e-05
-2.06237e-05
3.76635e-05
-0.000466358
0.000504371
-3.80048e-05
-9.80097e-05
-0.000419757
0.000517766
-1.11103e-05
4.4305e-05
-3.31953e-05
5.12489e-06
-1.05368e-05
5.41225e-06
-0.000262272
0.000217941
4.43772e-05
0.000965399
-6.0999e-05
-0.000904393
-5.33878e-05
1.79668e-05
-0.000275996
0.000235807
2.60192e-05
8.28876e-06
0.000405356
-2.47444e-05
-0.000380612
-2.92427e-05
-9.23694e-06
4.04473e-05
0.000560909
-1.1567e-05
-2.1153e-05
3.27204e-05
-1.07807e-05
-4.58675e-06
-0.000487593
0.00138399
-1.68177e-05
-4.18792e-05
3.34774e-05
-1.86778e-05
-7.74042e-05
-0.000210427
0.000184172
2.6254e-05
9.01306e-05
-5.38431e-05
-3.62536e-05
0.000133965
0.000278385
1.13043e-05
1.25112e-05
1.44588e-05
0.000432761
3.01138e-05
-3.25696e-05
1.62452e-05
-2.13518e-06
-9.48099e-06
-4.68049e-05
-4.68086e-06
-2.50399e-06
-1.10664e-05
-5.33947e-07
1.16009e-05
1.51932e-06
0.000259313
-0.000260842
6.02252e-05
0.00057823
-0.000638448
1.96749e-05
-2.80127e-05
8.49788e-06
-3.90516e-06
-5.24757e-05
-3.8965e-06
-1.6726e-05
-2.0978e-05
3.79356e-06
-0.000266065
-0.000167238
-0.000289719
0.00049168
-2.66566e-05
4.09744e-05
-4.55628e-09
-0.00027072
-3.0615e-05
1.50985e-05
4.85616e-05
7.40579e-05
-8.88613e-05
9.18936e-05
2.03036e-05
-1.09772e-05
5.70369e-06
7.45597e-07
-0.000555999
-0.000100081
0.000656074
-0.00021275
-0.000263224
-0.000150344
7.60346e-05
0.000113716
-8.30677e-05
-0.000102022
0.00018509
-8.73201e-06
-5.07803e-05
-3.44013e-05
-5.87958e-06
4.02812e-05
-3.5205e-05
-0.000240791
1.33346e-05
3.05205e-05
-4.38524e-05
-2.67277e-05
7.35204e-05
0.000384366
-0.000919367
0.000534968
0.000175072
-5.5713e-05
-9.97052e-06
2.7592e-06
0.000454817
-0.000177396
-0.000277409
0.000137295
0.000317505
-5.30496e-05
-9.11683e-05
0.000144218
0.000567313
0.000299612
-0.000638222
0.000338607
-1.28461e-05
-2.5699e-05
-1.68818e-05
-3.91958e-05
-0.000712476
-0.000335848
0.00104832
5.04798e-05
-2.94566e-05
1.1583e-05
-8.92671e-06
9.12969e-05
-0.000193737
0.00010244
3.9924e-05
-3.71868e-05
-2.73699e-06
1.16199e-05
-6.49479e-06
-2.24324e-05
-2.37426e-05
3.69647e-05
2.95932e-06
0.000173163
0.00051064
-2.8247e-05
2.03934e-05
7.85354e-06
1.22202e-05
-4.66213e-05
-0.000398541
-7.96331e-05
3.98191e-06
3.46496e-05
-3.86313e-05
-5.97958e-05
-9.13595e-05
4.30014e-05
8.33479e-06
-5.13368e-05
-0.000202898
-6.79768e-06
0.000209697
5.29309e-05
-2.98178e-05
-2.31169e-05
3.80199e-05
0.000201991
-0.000128248
5.41348e-05
-3.94555e-05
-1.4679e-05
-4.47501e-05
3.36399e-05
2.67479e-05
6.33721e-05
8.0927e-06
-0.000446327
0.000727252
-0.000280928
9.74354e-06
-0.000265468
5.50399e-05
3.27236e-05
-1.42144e-05
-1.85055e-05
-6.74118e-05
0.000291446
-0.000224035
1.93181e-05
3.76558e-05
0.000441534
-0.000159937
-0.000281605
-0.000341715
0.000354162
-1.24474e-05
-0.000329313
0.000261901
-0.00012024
1.12557e-05
0.000108984
3.79075e-05
-1.35547e-05
-2.43529e-05
-2.81929e-05
3.73143e-05
-1.25917e-06
-2.81661e-08
1.28737e-06
2.68282e-05
1.35713e-05
-7.26641e-05
5.90925e-05
-4.36458e-05
4.12172e-05
1.02103e-05
3.77914e-05
1.19534e-05
-4.97448e-05
4.64032e-05
-3.59719e-06
-4.04516e-05
2.76057e-05
2.19905e-05
-1.0686e-05
9.24927e-05
-7.59137e-05
-1.65769e-05
3.27583e-05
-5.14213e-05
1.86638e-05
3.62685e-05
-7.06658e-06
2.02694e-05
-4.88357e-05
4.94737e-05
0.000408783
-0.00045825
-0.000149932
-0.000183221
0.000333151
-2.70072e-05
-3.42251e-05
6.12327e-05
3.23057e-05
2.36914e-05
-5.5997e-05
3.66935e-05
5.4601e-05
1.69479e-06
-1.00247e-05
0.000201714
5.70762e-06
1.04674e-05
-4.96736e-05
5.84683e-06
4.38282e-05
5.31552e-05
4.284e-06
2.75892e-05
-3.6982e-05
9.39298e-06
-6.02102e-05
5.0055e-05
1.01552e-05
2.29014e-05
-1.54036e-05
-9.69437e-06
-1.85525e-05
-2.43599e-05
-3.59635e-05
2.0063e-05
-4.93444e-06
0.000128751
-0.000208093
3.53884e-05
4.74693e-07
-0.000365158
4.17391e-05
0.000323414
-0.000473836
0.000155738
0.00031811
7.68082e-05
1.81533e-05
-9.49588e-05
-0.000117283
-0.000659437
-3.08678e-05
2.74081e-05
3.45933e-06
-8.1273e-05
0.000124219
-0.000206407
8.21888e-05
-9.82366e-08
-1.82123e-05
-4.93965e-05
5.19872e-05
-0.000297801
0.00028778
-4.55573e-05
-4.87235e-06
5.04311e-05
-2.02011e-05
-0.00080737
0.000701126
0.000229295
5.87085e-05
3.36517e-05
-4.05398e-05
6.88884e-06
-4.00055e-05
3.63125e-06
3.6374e-05
0.000638739
-0.000872516
6.51456e-05
-0.00033517
1.56473e-05
3.84876e-05
-1.72163e-05
-3.38416e-06
-8.05631e-06
-8.92005e-06
1.69765e-05
-7.88789e-05