/*--------------------------------*- C++ -*----------------------------------*\
| =========                 |                                                 |
| \\      /  F ield         | OpenFOAM: The Open Source CFD Toolbox           |
|  \\    /   O peration     | Version:  v2012                                 |
|   \\  /    A nd           | Website:  www.openfoam.com                      |
|    \\/     M anipulation  |                                                 |
\*---------------------------------------------------------------------------*/
FoamFile
{
    version     2.0;
    format      ascii;
    class       volVectorField;
    location    "300";
    object      ddtCorrDdt0(U);
}
// * * * * * * * * * * * * * * * * * * * * * * * * * * * * * * * * * * * * * //

dimensions      [0 1 -2 0 0 0 0];


internalField   nonuniform List<vector> 
13851
(
(-0.00315073 0.000102006 -7.11604e-22)
(-0.000183772 -9.35915e-05 0)
(-0.000175563 -9.48353e-05 0)
(0.00723499 0.000995375 0)
(-1.90372e-05 3.92437e-06 -3.23306e-22)
(-0.00022851 -7.03542e-05 -3.08428e-21)
(9.64208e-05 -0.000316907 -8.8789e-21)
(-2.54465e-05 -2.53805e-06 0)
(0.00302631 -0.00449486 -4.45267e-21)
(-2.10463e-05 3.06349e-05 -2.02916e-21)
(-0.000278946 -0.000287133 0)
(-3.09179e-05 6.09901e-05 -1.00791e-21)
(-4.48652e-05 0.000131488 -5.78667e-22)
(0.00884528 -0.000725799 2.04615e-21)
(-0.000468561 -0.000440575 2.8326e-21)
(0.00183433 -0.00122512 0)
(0.00331867 0.000494826 0)
(-7.27719e-05 -7.70336e-05 1.80629e-23)
(-0.00845521 0.00111075 0)
(-0.0028683 0.000133021 1.9295e-21)
(-0.000627433 -0.000246454 2.58538e-21)
(-0.000240848 -4.04706e-05 2.3652e-21)
(0.00733058 -0.00216179 2.57622e-21)
(3.56229e-07 -4.27004e-07 0)
(-0.0217916 -0.014926 2.22949e-21)
(0.000610394 -0.00121447 -5.75731e-21)
(0.00473524 -0.0133415 -3.97938e-21)
(-0.00185347 -0.00901084 2.63395e-21)
(-0.0038756 -0.00132342 1.31328e-21)
(-4.70577e-05 -5.12571e-05 0)
(-0.00488054 0.00261633 -4.92684e-21)
(8.29531e-05 -0.000310054 2.8811e-21)
(-0.00344819 -0.00104052 -3.30685e-22)
(0.00595365 0.00531818 9.45925e-23)
(-0.000228154 -0.000103914 -8.03231e-22)
(-0.0034364 -0.00196229 0)
(2.053e-07 -6.52797e-07 0)
(0.0159764 0.0096608 -3.31311e-22)
(-0.00830277 -0.0035576 1.00157e-20)
(-0.000109621 0.000108827 -3.56665e-21)
(-0.00237351 0.00257095 3.38347e-21)
(-0.00465807 -0.00110977 -1.30546e-21)
(-0.00183043 0.000215655 0)
(-0.00117976 0.00229428 0)
(-0.00667867 -0.00102219 0)
(-7.63216e-05 5.14526e-05 1.62904e-21)
(9.30323e-06 -8.72986e-06 -3.57475e-21)
(0.00209678 -0.00259653 -1.42735e-23)
(-0.000182015 -7.87961e-05 -3.52041e-21)
(-4.34454e-05 0.000127857 0)
(-0.00557929 0.000787743 -7.00863e-21)
(-2.9456e-05 0.000159198 -9.62122e-22)
(0.00189126 -0.0012689 0)
(7.14118e-05 -0.000603802 2.91299e-21)
(0.0038076 -0.00131277 -5.83379e-21)
(-0.000109078 0.000112846 3.21495e-21)
(-0.00363427 -0.000787303 0)
(-0.00198963 0.00222339 -4.63481e-21)
(0.0123035 -0.000815316 0)
(0.00484234 0.000984498 1.02301e-21)
(-2.89511e-05 6.90992e-05 2.87368e-21)
(0.00343566 -0.0119158 6.17658e-21)
(-8.45968e-06 0.00013208 0)
(-0.000188358 -7.90271e-05 -2.37104e-21)
(-0.000410912 0.000838027 -1.81461e-23)
(-0.000361072 0.00085349 2.20162e-23)
(0.00493551 0.00071664 6.80109e-22)
(-0.00010012 0.000512104 -1.71704e-21)
(-0.000125904 9.25274e-06 2.37897e-21)
(0.00488527 -0.00431435 4.30917e-22)
(0.000295446 0.00373395 -3.82358e-21)
(-0.000824053 -0.000172472 -1.60467e-23)
(-6.66548e-05 0.000103659 1.10157e-21)
(0.00576069 0.000957705 0)
(-5.9754e-05 -0.000620222 2.87464e-21)
(-0.000194785 2.93986e-07 0)
(0.00321893 0.000767339 -1.29821e-21)
(-1.83621e-05 -2.86626e-05 -2.23919e-21)
(-0.0143234 -0.0118362 2.02208e-21)
(-4.92705e-05 2.19336e-05 -4.98237e-21)
(-0.000127686 1.71921e-07 0)
(-0.00447375 -0.00645599 -2.90206e-21)
(-0.000241765 -0.00010216 0)
(0.00913073 -0.00027185 -3.01045e-21)
(0.00574695 0.00109774 -4.99532e-22)
(-0.00328898 0.00382995 0)
(-0.00024549 -4.43769e-05 -2.61546e-21)
(-0.00491098 -0.00053503 -4.37903e-25)
(-3.13205e-05 2.09483e-05 -8.11802e-23)
(-0.00508798 0.00192615 0)
(-2.95602e-05 0.000167391 -4.80958e-22)
(7.38534e-05 -0.000321548 1.09918e-20)
(-0.00588409 6.53594e-05 9.41374e-21)
(-0.00337402 0.00305363 4.78386e-21)
(-0.00666105 0.00329258 6.54783e-21)
(-0.00147692 0.00138003 -2.67951e-21)
(-7.36542e-05 7.75627e-05 -4.64368e-21)
(0.0022609 -0.00173646 0)
(-0.000799895 0.00013437 3.31132e-22)
(0.000392559 0.000654566 2.55053e-21)
(0.00244096 -0.00180233 0)
(-0.000145116 0.000392046 1.08143e-21)
(-0.000181985 0.000409459 5.61973e-22)
(-7.17139e-05 0.000131535 0)
(-7.9326e-05 1.43681e-05 0)
(-0.000635774 8.58883e-05 1.56596e-21)
(-7.83273e-05 2.23197e-05 3.06711e-21)
(-0.000488278 0.00433544 4.03512e-21)
(6.08546e-05 -0.000312223 -6.02049e-21)
(-7.0355e-05 -7.66776e-05 1.35586e-21)
(-0.000316983 1.02072e-05 8.60387e-22)
(-7.84113e-05 4.48954e-05 0)
(0.00277994 0.00302536 0)
(5.51896e-05 0.000240053 0)
(-0.00268021 -0.00349303 1.64311e-21)
(6.37862e-05 -0.000580224 -7.26084e-21)
(-4.04934e-05 -8.2909e-06 2.82021e-21)
(-2.30245e-05 -3.79612e-06 3.36176e-21)
(0.00639764 0.00105124 -6.25574e-23)
(0.00603673 -0.00532738 -1.15245e-23)
(-0.00190832 0.000237747 2.14041e-21)
(-5.66257e-05 -7.1382e-05 -4.25574e-22)
(-0.000124102 4.82479e-05 1.62155e-21)
(0.00631613 0.0025724 4.00604e-22)
(-0.00178852 -0.00220279 2.72997e-23)
(-0.000116279 0.00060805 0)
(-7.35612e-05 7.53363e-05 6.06234e-21)
(-0.000379698 -0.000128699 0)
(0.00314968 0.00524413 2.68194e-21)
(-0.000732562 -0.000485447 -4.36928e-22)
(-0.000244047 -3.32778e-05 -3.22941e-22)
(-0.000247821 -5.98352e-05 0)
(0.00939727 0.0115303 2.60259e-21)
(0.0067491 0.00448721 1.4231e-21)
(-0.000249701 -0.000327169 0)
(-0.00838035 0.00218534 3.08767e-21)
(-9.51637e-05 0.00049596 -1.33163e-21)
(-0.00253742 0.00388667 6.17357e-22)
(-0.000127586 0.000336137 -8.30833e-22)
(-0.000653076 -0.000614959 3.16814e-21)
(-0.0044718 -0.00528406 2.63244e-21)
(-0.000105604 0.000204689 0)
(-3.1553e-05 2.1635e-05 0)
(-0.000245093 0.000617288 5.59801e-22)
(0.00037704 0.0184044 2.93227e-22)
(-0.000184883 5.09702e-05 0)
(-1.68897e-05 -2.54942e-05 5.43633e-22)
(-0.00409608 0.00246745 -2.48519e-21)
(-0.00175629 -0.00196695 -2.76728e-21)
(-0.000386701 -0.000130709 0)
(0.00247712 -0.00207387 0)
(0.00276793 0.00242956 -4.28594e-22)
(0.000130569 0.000268154 -2.40473e-21)
(-0.00558445 3.36996e-06 -3.34018e-21)
(-5.5173e-05 0.000193859 0)
(-2.14512e-05 6.03404e-05 0)
(-2.45955e-05 6.8739e-05 3.00597e-21)
(-0.00777626 -0.00352556 -9.5976e-21)
(-0.000588757 -0.000540683 0)
(-3.34125e-05 -0.000223627 -3.51203e-21)
(2.44904e-07 1.04268e-06 -4.88954e-21)
(-0.0036705 -0.00149251 0)
(-0.000635481 4.92033e-05 0)
(0.00198171 -0.00281522 -5.7043e-21)
(0.00876241 -0.000780119 -1.94392e-21)
(-0.00117634 -0.0054311 1.07897e-21)
(-0.000947222 -0.00595651 0)
(-0.0057869 0.00097902 9.69145e-21)
(-0.000305651 4.17356e-06 -3.97283e-21)
(0.012142 -0.00581488 0)
(-2.5729e-05 8.16036e-05 1.83874e-21)
(-3.94354e-05 -8.82325e-06 2.28307e-21)
(-0.000636989 0.000375944 0)
(-9.60484e-06 5.0011e-06 0)
(-0.00637427 0.00387772 -5.9858e-21)
(-0.0157629 -0.00800997 -3.23541e-21)
(0.00251522 -0.00439493 -1.16889e-21)
(-3.8788e-05 -1.5652e-05 0)
(-1.3934e-05 -0.000634205 0)
(0.00237846 -0.00393273 0)
(-0.00135516 -0.00165684 -1.10536e-21)
(-0.0015823 0.00210834 1.08296e-21)
(-0.000292977 -1.14558e-05 -1.62448e-21)
(-0.000687924 -0.000511551 0)
(0.00212681 0.000256874 -8.78296e-22)
(-0.00198426 -0.00192775 -3.73844e-23)
(-0.00365478 -0.00146913 -1.50223e-21)
(-0.000110413 0.000288367 7.33559e-22)
(-5.53986e-05 0.000172817 -1.09923e-21)
(-6.52539e-05 -1.95116e-05 -1.51783e-21)
(-0.000667705 0.0199943 3.91555e-21)
(-0.00059823 -0.000501051 0)
(0.00881553 -0.000538052 -1.0725e-21)
(-0.000231564 -7.1339e-05 3.22143e-21)
(-0.000181211 4.61752e-05 -1.89357e-21)
(0.00201069 -0.00148473 0)
(-0.0034034 -0.00165001 0)
(-5.7987e-05 -6.27315e-05 -1.64445e-21)
(-0.00010796 -9.21189e-05 -2.77084e-21)
(-0.000131334 0.000514522 0)
(-0.00545056 -0.00323084 1.20542e-21)
(-0.000552203 0.00190456 -1.64457e-21)
(-0.00209217 0.000744867 0)
(-0.000437023 -0.000463857 -5.38469e-21)
(0.00169832 -0.0010257 6.36135e-22)
(-0.000903736 0.00171323 0)
(-4.3477e-05 0.000273518 0)
(-0.000440461 -0.000849399 -4.0436e-21)
(0.00472075 -0.00449594 -1.7404e-21)
(-0.000216477 -7.31312e-05 0)
(0.0017605 -0.00119766 -7.63957e-23)
(-0.000121892 5.25691e-05 1.66726e-21)
(-0.00582322 -0.00434323 -3.43521e-22)
(-7.26965e-07 1.3443e-05 1.54327e-22)
(-0.000209 -8.17939e-05 -1.88959e-22)
(-0.000217129 -9.66266e-06 2.59879e-21)
(-4.12722e-05 0.000114403 9.43656e-22)
(-0.00243827 0.00300173 0)
(-8.68162e-05 -7.07124e-05 -2.90065e-21)
(-6.3874e-05 0.000747297 1.76567e-21)
(-3.73005e-05 -1.72517e-05 -1.75838e-21)
(-0.0024626 0.000394506 0)
(0.00927042 -0.000108105 3.02108e-21)
(-0.00767715 0.0030296 3.95305e-21)
(-0.000129835 0.00027353 0)
(-0.000421245 -0.000889994 3.21222e-21)
(1.28407e-07 -1.92992e-06 0)
(-0.000247691 0.000598991 -5.20675e-22)
(-4.10706e-05 4.64393e-07 0)
(-0.000219376 -8.29952e-05 0)
(0.00623162 0.00593221 1.41294e-23)
(-0.000113538 0.00028398 1.33302e-21)
(-0.000213748 -7.41776e-05 0)
(-3.11001e-06 0.000150254 -1.77048e-22)
(-0.00214697 0.00106147 1.0905e-23)
(-4.55334e-05 -5.41583e-05 2.73589e-21)
(0.00797285 -0.00033201 0)
(-0.00183678 0.000316901 -3.79856e-21)
(0.000114643 0.000548193 0)
(2.08981e-07 4.10388e-07 5.67055e-21)
(-0.000596873 -0.0077102 0)
(0.0064313 0.00112226 -3.94274e-21)
(-0.00755266 -0.000840751 0)
(0.00178171 -0.00120934 0)
(-0.000395818 -0.000108022 0)
(-0.000221877 0.000649353 1.4354e-21)
(-0.00254667 0.00236966 2.17717e-21)
(9.18617e-06 -0.000650109 0)
(-0.00160879 0.00118524 0)
(-0.000332115 -2.53478e-05 1.86941e-21)
(-0.00153329 -0.000719474 0)
(-0.00188562 0.000279282 -5.57726e-21)
(-2.76847e-05 2.19337e-06 -4.86311e-24)
(-0.00022289 -0.000141888 0)
(0.00222231 -0.00154243 -3.1011e-22)
(-0.00342482 -0.00172231 0)
(-0.00874875 -0.00102817 2.1252e-21)
(-6.33659e-05 -1.63222e-05 1.76933e-21)
(-0.000107061 0.000616466 0)
(-3.3742e-05 1.86892e-05 -4.43883e-21)
(-0.00631913 -0.00128201 -5.15868e-21)
(-0.00320614 -0.00184423 -1.97083e-22)
(-0.000233356 -0.000145349 0)
(-0.000683146 1.83861e-05 -7.40048e-21)
(-0.00202686 0.000262147 5.73867e-21)
(-6.45059e-05 7.48226e-05 5.09455e-21)
(-0.000155356 0.000401231 -1.26522e-21)
(0.00123236 -0.00277261 0)
(0.000822353 0.000633389 -1.31502e-21)
(-2.73052e-05 9.66925e-05 0)
(-3.88339e-05 0.000109537 1.17267e-22)
(-0.000125808 0.000280425 -8.75243e-22)
(0.00566815 -0.0059556 0)
(0.00634323 -0.000327693 0)
(-0.000737286 -0.000291985 3.73403e-21)
(-5.87342e-05 -7.24613e-05 2.0356e-21)
(-0.000602075 -0.00147763 2.60445e-22)
(-0.00455976 -0.00122024 5.12762e-21)
(-0.00256803 -0.00239803 -4.31525e-21)
(-0.000682614 -1.83335e-05 6.13166e-21)
(0.00615276 -0.00513687 0)
(-0.000247584 0.000186828 -1.45125e-21)
(-0.00025778 -0.000101778 0)
(-0.000367522 -0.000411424 -9.1486e-21)
(0.00584536 0.00728372 0)
(-7.8156e-05 -1.37643e-05 1.78607e-21)
(-2.39151e-05 6.42777e-05 1.59414e-21)
(-0.00289704 -0.00229451 -9.06629e-22)
(-0.000339768 -0.000196202 3.09087e-21)
(-4.49478e-05 -5.8484e-05 5.95891e-21)
(-7.60179e-07 1.33994e-05 2.56629e-21)
(-4.21201e-05 -4.60036e-07 0)
(-2.33991e-05 -2.81264e-07 4.47947e-23)
(-0.000405452 -0.000206446 -1.21059e-20)
(-2.5704e-05 6.36284e-05 -4.56564e-21)
(0.0033905 -0.00481648 2.16499e-21)
(-0.000671799 -0.000248995 0)
(-9.98973e-05 8.22981e-05 2.47852e-21)
(-0.00335739 -0.00188069 0)
(0.00685193 0.0021963 0)
(-4.32901e-05 0.000168917 0)
(-0.00273865 0.000466589 -1.55671e-21)
(-0.00231312 0.000500986 7.14745e-22)
(-0.000110215 0.000204866 0)
(-4.0184e-05 0.000175552 0)
(-0.000710064 -0.000209398 0)
(0.00947243 0.000310127 -1.96275e-22)
(0.00638086 0.00157822 1.44109e-22)
(-0.000928083 0.000348895 4.08079e-21)
(-2.06032e-05 4.21599e-06 1.3396e-21)
(0.0114533 -0.00698079 0)
(-2.79485e-05 7.56151e-05 0)
(-0.000968015 0.000505255 3.94011e-21)
(-0.00252619 0.000728131 0)
(0.000493068 0.00517986 6.82405e-21)
(-3.26141e-05 -0.000215079 2.64435e-21)
(0.00550914 0.00767954 -6.69882e-23)
(-0.000473564 0.0125524 0)
(0.00267317 0.00397671 -2.12527e-21)
(0.00315442 0.00134891 0)
(-0.000106781 0.000416141 1.11445e-21)
(-0.00854736 0.00262448 9.64018e-23)
(0.00530729 0.00348778 7.91396e-23)
(-0.000814145 -0.0105287 -2.76312e-21)
(-0.000111028 -8.99808e-05 2.96934e-21)
(-0.00139052 0.00146259 -2.51719e-21)
(-0.0036987 -0.00010368 -5.10641e-24)
(-0.000111908 0.000746695 2.28707e-21)
(-0.000114377 0.000747999 -1.94742e-21)
(-4.60007e-05 0.000273936 -7.35226e-22)
(-0.000749492 0.000454349 -4.7119e-21)
(-0.000233402 0.000188355 0)
(-0.00500678 -0.000640638 7.70353e-21)
(-0.000158454 0.00043403 -1.17479e-21)
(-2.2509e-05 4.0418e-06 -4.14873e-21)
(6.56165e-06 -9.15615e-06 3.8069e-21)
(-0.000243941 -7.62898e-05 -3.36888e-21)
(0.00245337 0.00361765 2.9747e-21)
(-7.06071e-05 0.000778093 -1.54305e-21)
(-7.7243e-05 -1.66709e-05 -3.84453e-21)
(-0.00735529 0.00285156 -7.13037e-21)
(-0.00022278 0.000211837 1.40565e-21)
(-0.000248791 -6.06954e-05 -1.12933e-21)
(-2.76143e-05 -0.000236531 3.81472e-21)
(0.00956969 0.000317158 -1.24431e-22)
(-0.000431578 -0.00105028 0)
(0.00201243 -0.00131161 0)
(-0.000208724 -6.27065e-06 1.01746e-21)
(-0.000208133 -7.53006e-05 4.33415e-21)
(-0.00407287 -0.00411869 0)
(-5.99853e-05 0.000179011 3.46897e-21)
(-0.00549834 -0.00107285 -1.79356e-21)
(-0.000249307 -0.000107707 0)
(-0.000706441 -0.000168843 0)
(-0.000226907 0.000217019 0)
(-3.32748e-05 1.95947e-05 3.00438e-21)
(-9.95366e-05 7.70569e-05 -2.49859e-21)
(-0.00061944 -0.00255699 0)
(0.000375975 0.00111792 8.80341e-23)
(-0.00171975 0.000226162 -6.1584e-21)
(0.00392361 0.0139138 4.36564e-22)
(-0.00370471 -0.00400191 1.35288e-21)
(-0.00018927 4.73454e-05 0)
(-0.00194339 0.000587298 2.07835e-21)
(-0.00761162 0.000798179 -1.25408e-21)
(-2.53369e-05 -3.04069e-05 -2.06726e-22)
(-0.000371903 0.00681648 -5.68268e-21)
(-0.00185711 -0.000250238 1.32934e-21)
(-0.000996469 0.000265904 -2.34313e-21)
(-0.000237734 -7.57122e-05 0)
(0.000804911 -0.000954976 0)
(0.0102268 -0.00111449 0)
(-0.00300534 -0.00563583 1.6861e-22)
(-0.00110589 -0.00179246 4.89086e-24)
(-0.00398639 -0.000635268 1.01061e-21)
(-0.000145608 -9.03594e-05 -2.2952e-21)
(-0.0178003 -0.00771406 4.01567e-21)
(-0.00278867 8.20297e-05 0)
(-0.00031752 -6.14746e-05 5.3809e-21)
(-0.00144239 -0.00098078 9.3509e-21)
(-0.000338002 -2.83607e-05 -2.316e-21)
(-0.00110625 -0.00035914 -3.6251e-21)
(-0.000354653 -0.000390478 5.56448e-21)
(0.000228898 -0.000791198 4.09555e-21)
(-0.00216692 0.000595043 0)
(-0.000906246 0.00261066 0)
(-2.37719e-05 6.26174e-05 0)
(-0.000239858 -8.50295e-05 2.03667e-21)
(-0.000362817 -0.000199379 2.59347e-22)
(-3.81422e-05 -0.000641468 0)
(-8.07512e-05 6.70517e-05 0)
(-0.000760447 -0.000327261 -3.93617e-21)
(0.00202014 0.00935812 4.6281e-23)
(-6.64352e-05 0.000100584 2.79757e-21)
(-0.000492377 -0.00081518 0)
(0.00400175 0.0025021 1.381e-21)
(-0.000185875 -8.11576e-05 -2.42589e-21)
(-0.00396272 0.00485411 -6.37792e-22)
(7.28576e-05 -0.000951148 -5.24525e-22)
(0.00629136 0.000456758 0)
(-0.000220838 -7.10348e-05 3.26468e-21)
(0.000536764 -0.00117372 0)
(0.000826917 0.00197174 9.2186e-22)
(-0.00268664 -0.00241667 8.71193e-22)
(-0.000563756 0.000120167 1.48595e-21)
(-0.00890169 -0.000744044 8.12237e-24)
(0.00638407 0.000791386 4.84196e-21)
(-0.00172365 -0.00641331 0)
(-6.36116e-05 7.55054e-05 1.93489e-21)
(-0.000217529 -0.0024008 0)
(-0.000310288 -7.30593e-06 -5.07702e-21)
(0.000758418 -0.0010294 0)
(-6.40884e-05 -7.37088e-05 -5.83492e-21)
(-0.000306262 0.000505287 1.09418e-22)
(-0.0039367 0.0102827 -1.75461e-21)
(-0.0141267 -0.0179511 -1.89739e-21)
(-0.000203803 -7.63741e-05 -4.16156e-21)
(-0.00219385 0.000407252 0)
(-0.00273937 -0.0135324 -6.11973e-21)
(0.00647166 7.75047e-05 0)
(-7.53125e-06 -1.62123e-05 2.99755e-21)
(-0.00101962 0.000984317 -2.70039e-21)
(-0.00267992 0.00309645 3.48408e-22)
(0.00039757 -0.0034649 3.19067e-22)
(-0.000339956 -3.15007e-05 -2.35025e-21)
(0.00899268 0.000394527 -2.01055e-21)
(-4.14959e-05 6.3438e-05 -2.31252e-21)
(-1.14624e-05 4.1293e-06 1.43463e-21)
(0.00383246 -0.00099389 6.90814e-21)
(-0.00588748 -0.0134296 4.51526e-21)
(-2.1962e-05 2.75626e-05 1.17126e-21)
(-0.000183491 -8.99762e-05 1.01491e-21)
(-0.000542872 -0.000816916 -1.02627e-21)
(-4.13159e-05 1.36559e-05 2.29737e-21)
(-0.00367681 0.0107415 0)
(-0.000824628 0.000439183 1.07048e-21)
(-0.00177007 -0.000234228 0)
(-0.000140798 -0.000263403 1.89199e-21)
(-0.000142475 -9.1503e-05 0)
(-1.79574e-05 0.000158543 0)
(-0.00253458 -0.00438994 0)
(-9.65118e-05 8.93162e-05 0)
(-1.6937e-05 0.000148277 0)
(-0.0119394 0.00292805 1.88525e-21)
(0.00067686 0.010082 0)
(-0.000238292 -2.68787e-05 0)
(0.00677324 -0.00285844 3.14854e-21)
(-6.5785e-06 0.000138143 2.01733e-22)
(-2.51196e-05 5.9157e-05 1.63017e-21)
(-0.000192414 -7.92792e-05 7.10564e-21)
(-0.00177837 0.000188858 6.56002e-21)
(0.000162043 -0.000907745 -5.06145e-21)
(-8.4164e-05 7.05765e-05 0)
(-0.000143473 -8.50851e-05 3.50203e-21)
(-0.00183053 7.91865e-05 1.1653e-21)
(-0.00013632 -9.62222e-05 -3.97236e-21)
(0.00239832 0.00892626 0)
(-2.99852e-05 6.05219e-05 1.5098e-21)
(-5.78282e-05 -0.000422473 4.11612e-21)
(-0.00713701 -0.00114468 2.52641e-21)
(-0.000314477 0.000228182 0)
(-2.49024e-06 -3.183e-06 -9.49389e-22)
(-2.15497e-05 9.59237e-05 1.8656e-21)
(-0.000146777 -0.000249509 -9.14871e-22)
(-5.89134e-05 -7.45354e-05 0)
(-0.00502261 -0.00277749 6.08239e-22)
(-0.0126917 0.00203261 -2.01832e-21)
(-0.000408843 -0.000115355 6.23614e-22)
(-3.67723e-05 0.000993939 0)
(-0.000194711 -7.7762e-05 -3.71802e-21)
(-3.65785e-05 4.52248e-05 2.00867e-21)
(0.00827902 0.00232636 -8.72561e-22)
(0.00978229 -0.00259122 3.31393e-21)
(-0.00019668 0.000309539 0)
(-7.87708e-05 0.00012539 0)
(0.00613581 0.00301823 1.70804e-21)
(-0.000138844 0.000329868 -1.70796e-21)
(0.0158725 -0.00797994 -1.95446e-21)
(-6.89992e-05 0.000128843 2.13234e-21)
(-0.00025065 -4.82341e-05 0)
(-0.00107416 -0.00215532 0)
(-0.00017574 -0.000646158 0)
(0.00479269 0.00407701 1.0477e-21)
(-0.00147691 -0.0142597 5.79125e-21)
(-0.0120499 -0.0177097 1.97258e-21)
(-0.000161879 0.000157939 0)
(0.0033508 0.00195447 3.46127e-23)
(-6.86712e-05 8.57981e-05 -1.78985e-21)
(-0.00356566 -0.00147816 0)
(3.41353e-05 -0.000937963 1.80406e-21)
(-0.00338718 -0.00190405 0)
(-0.000315848 -1.64644e-05 4.09462e-21)
(-0.000201233 -8.53945e-06 2.00345e-21)
(-0.00032001 0.000205429 0)
(-0.000707465 0.000373281 9.62376e-22)
(-1.75178e-05 4.86031e-06 0)
(0.00269653 -0.00164267 0)
(0.00813432 0.00233842 0)
(0.00146068 0.0101514 2.71618e-22)
(-0.00381031 -0.000779981 -2.40841e-22)
(-0.0131105 0.00246752 1.86647e-21)
(-0.00123771 -0.00259942 -1.06491e-21)
(-0.00416739 -0.00205003 -3.8734e-21)
(-0.0001443 0.000258781 0)
(-2.7806e-06 5.47615e-05 2.58129e-21)
(0.000630364 0.0042286 -2.98234e-22)
(-2.01626e-05 3.39325e-05 1.57349e-21)
(-7.7823e-05 6.76699e-05 6.64608e-24)
(-0.0001689 0.000262864 -8.17597e-22)
(-0.00522638 0.00444212 3.50047e-21)
(-0.000159524 -0.000111905 -5.3048e-21)
(-9.21093e-05 0.000216492 5.88879e-24)
(-0.000943479 -1.93827e-05 3.13381e-23)
(-0.000286876 0.000187636 0)
(-6.83046e-06 3.46776e-05 -1.49804e-22)
(-0.0107437 -0.00700192 5.22878e-21)
(-6.8429e-05 7.51984e-05 3.1695e-21)
(0.00478451 0.00530352 -1.12642e-21)
(-0.00436864 -0.00357333 -1.83559e-21)
(-5.10759e-05 2.97791e-05 0)
(-0.000106567 -0.000144181 -5.00295e-21)
(-0.005268 0.000333613 -1.32308e-21)
(-0.000201613 0.00259807 -7.28887e-22)
(-4.68039e-05 -5.69197e-05 3.40661e-22)
(0.00777363 0.0103012 0)
(0.00384786 0.00522513 5.88803e-22)
(-7.85202e-06 -4.84418e-05 0)
(0.00455851 -0.00512325 3.02516e-22)
(-0.00741059 0.000238003 -2.12824e-22)
(-0.00210129 0.000488606 0)
(-0.000158058 0.000163774 -2.13187e-21)
(-0.011903 0.00314255 -7.73627e-21)
(0.00075398 0.000619662 1.93204e-21)
(-8.88667e-06 -4.92333e-05 -2.50747e-21)
(0.00616156 0.00832296 6.37965e-21)
(-0.000124125 2.89431e-05 2.13645e-21)
(-7.08865e-05 7.88491e-05 -1.56153e-21)
(-0.00754793 -0.0023317 4.33367e-22)
(-0.000800605 -0.000556162 4.26511e-21)
(-0.000333864 5.79586e-05 0)
(0.000173248 -0.000884063 4.2664e-21)
(-1.65775e-05 3.64859e-05 1.9736e-21)
(0.000137248 -0.00127735 0)
(0.00348037 0.00561689 -7.40608e-23)
(-0.00917102 -0.000516438 6.88714e-21)
(-2.41234e-05 -4.09132e-05 5.78549e-22)
(0.00346024 -0.000477741 0)
(-8.13938e-05 7.12011e-05 0)
(-0.000127126 1.92316e-05 -2.65637e-21)
(-0.000598491 0.00012277 1.99748e-22)
(3.06392e-05 -0.000462594 0)
(-6.30238e-06 -1.9366e-05 1.60238e-21)
(-0.000194083 8.754e-06 1.34372e-21)
(0.00341592 -0.00633621 0)
(-0.00119133 0.00232177 -1.54725e-21)
(0.00378034 -0.00530716 0)
(-0.00015088 -0.000106231 -4.28562e-21)
(-3.53824e-05 1.73993e-05 -1.16462e-23)
(0.00415344 -0.00673819 -7.85533e-22)
(-7.2765e-06 9.39011e-05 0)
(0.000602639 -0.00250201 0)
(-0.00014409 -0.000356805 5.51855e-21)
(-0.000109423 -0.000601852 -6.16459e-21)
(-0.000377665 -7.56303e-05 1.09904e-21)
(-0.010356 -0.000120687 0)
(-0.000490436 0.000202014 0)
(-0.000229939 -7.72029e-05 -3.33319e-21)
(-0.00226741 0.000403651 0)
(-4.1327e-05 -0.000189582 1.25833e-21)
(-0.000397708 0.000570887 0)
(-0.00523461 -0.000971051 3.89429e-21)
(0.00375342 -0.00187115 1.67412e-22)
(-0.000119563 7.602e-05 2.56615e-21)
(-6.80821e-05 8.44263e-05 -2.05133e-21)
(-0.000197793 0.000410073 0)
(0.00279912 -0.00599945 0)
(0.00191881 0.000391584 -9.39737e-21)
(0.000160589 -0.00123368 0)
(-0.00450763 -0.00328123 6.41778e-22)
(4.50261e-05 -0.000476075 0)
(-0.000319827 -0.000408824 0)
(0.00688773 0.00573194 7.51938e-22)
(-0.00945086 -0.0118468 6.18591e-21)
(-0.00144152 0.000231427 -1.69287e-21)
(0.00556981 0.0046834 0)
(-0.00332337 -0.00658251 -1.03995e-21)
(-0.0034867 -0.00283819 -3.49484e-21)
(-0.000136666 -9.00581e-05 1.57239e-23)
(0.0110964 0.000709439 0)
(0.000946304 0.0004074 0)
(-3.22525e-05 7.64106e-05 -1.87454e-21)
(-0.00892172 -0.000136062 -4.69484e-21)
(0.000577844 0.0114821 1.90138e-21)
(-0.000303849 -6.31919e-06 3.41389e-21)
(-0.000694405 -0.00058166 -3.28241e-21)
(-9.89756e-05 0.00012712 1.49906e-23)
(-0.000461603 0.000606764 6.90456e-22)
(-0.000353257 -0.000168138 0)
(0.00908572 0.00549874 -1.84723e-21)
(-9.73063e-05 9.23566e-05 2.35819e-21)
(-5.09235e-06 5.83706e-06 0)
(-8.69395e-05 0.000275864 0)
(-0.000267759 0.000158442 8.64756e-22)
(-2.89822e-05 6.0286e-05 0)
(-0.00545782 0.00401192 -5.97077e-21)
(-6.67161e-06 7.66384e-06 -2.01345e-21)
(-0.00362712 -0.00597495 0)
(-0.000151713 0.000179384 -5.90883e-23)
(0.000791226 -0.00108948 -1.52123e-21)
(-6.98579e-05 0.000126245 2.41682e-21)
(-7.22216e-06 3.25074e-05 1.69026e-21)
(-0.000391953 -0.000102493 0)
(0.00327809 -0.000650519 3.16501e-21)
(-0.000497566 0.000157779 -5.97471e-21)
(-0.0081004 0.00220099 8.22571e-22)
(-0.000248407 -5.29656e-05 5.57728e-22)
(-4.28127e-05 1.65589e-05 2.44348e-21)
(-3.60932e-05 -4.12733e-05 3.09183e-21)
(-0.0005968 0.000430378 -2.40751e-22)
(-0.000142769 -8.6004e-05 5.69965e-22)
(0.000844746 0.00100913 5.65767e-21)
(-0.000182477 -0.000111104 -2.80471e-21)
(-0.000185477 0.000306545 0)
(0.0112701 0.001341 0)
(-6.48876e-06 9.56294e-05 -1.41387e-21)
(-0.0111698 -0.000715948 0)
(2.80477e-08 2.49538e-06 -2.576e-21)
(0.00131667 -0.0010364 8.54237e-21)
(-0.00244306 9.11156e-05 0)
(-0.00562685 -0.004321 0)
(-4.68849e-05 0.000303686 -1.12143e-21)
(0.00627242 0.0061842 1.67697e-21)
(-0.00090095 4.91724e-05 -3.49159e-21)
(0.00132671 -0.00118876 -1.36554e-21)
(0.00209549 0.0105454 0)
(-2.9421e-05 -4.5293e-05 -1.23876e-21)
(-0.0109619 -0.00747368 2.14335e-21)
(-0.000235867 0.000199851 0)
(-0.000328733 -5.18363e-05 -1.16473e-21)
(-0.00454783 -0.00086507 1.9307e-21)
(0.0200962 0.0163376 -6.06115e-22)
(-2.78908e-05 -3.28283e-05 -2.35745e-21)
(0.000795227 0.000832523 -5.31325e-21)
(-5.31706e-05 -6.20846e-05 -1.71485e-21)
(-0.00335907 -0.00289461 7.12706e-22)
(-0.00825419 0.000305776 -2.27718e-21)
(-0.000134089 -2.07907e-05 1.08043e-22)
(-0.000111611 0.000514077 1.75704e-21)
(-0.00288343 0.00526677 4.27783e-21)
(4.98129e-07 -1.3915e-06 2.72139e-21)
(5.32412e-07 5.42856e-06 1.96918e-21)
(0.000676227 -0.00119128 7.22159e-21)
(-0.0109911 -0.000494052 1.48628e-21)
(-0.0103709 0.00331224 -5.14159e-21)
(-3.6751e-05 0.000171675 -4.29306e-22)
(-0.00226817 0.00100598 3.54952e-22)
(-0.0001303 -9.29466e-05 2.02607e-21)
(-9.94627e-06 3.06804e-05 0)
(0.0094286 0.0033396 1.13313e-21)
(-0.00236456 0.00078094 0)
(-0.000272523 0.000923662 1.20303e-21)
(-6.03701e-06 -1.3968e-05 0)
(0.0010579 -0.0029027 4.60404e-21)
(-0.00035857 0.000338621 0)
(0.000462556 -0.00107493 1.32024e-21)
(-4.33049e-05 0.000245443 2.97852e-21)
(-0.000175327 5.55717e-05 1.30944e-23)
(-0.000379513 -0.000175382 0)
(-8.95279e-05 0.000272557 0)
(0.00162592 -0.00272903 -1.99701e-21)
(-0.000802567 -0.000223618 3.2031e-21)
(-0.000791684 -0.000130279 -1.54857e-23)
(-0.00126978 0.000197889 2.51026e-21)
(-0.000441003 0.00139457 -4.00635e-21)
(-0.00809591 0.0025183 6.23904e-23)
(0.00473577 -0.0116899 -1.03885e-22)
(0.00831668 0.00779434 0)
(0.00228203 -0.00218791 0)
(0.00909963 -0.000788372 1.67265e-21)
(-0.000427777 5.3558e-05 -3.41855e-21)
(-0.00817203 -0.00173668 0)
(-0.00229755 0.000608248 0)
(-7.55619e-05 -8.15241e-05 0)
(-0.000300026 -0.000381461 -2.72704e-21)
(-0.00685181 0.00259415 -5.10879e-21)
(-0.000245792 -6.72888e-05 -3.16736e-21)
(-4.76739e-05 1.68998e-05 -1.63766e-22)
(-4.57867e-05 1.40394e-05 2.50811e-21)
(0.00130958 -0.00121458 3.69201e-21)
(-0.00441273 -0.000520428 3.33797e-21)
(-7.45384e-05 -0.000427347 -4.3275e-21)
(-0.00165942 0.000307958 2.03702e-21)
(-4.36535e-05 1.99267e-05 2.41942e-21)
(-0.0113634 0.00255361 1.01139e-21)
(-0.000878771 0.000701902 0)
(-0.00281672 0.000519525 7.03461e-21)
(0.000879243 0.000594254 -2.68895e-21)
(-0.000223747 -6.67291e-05 -3.41272e-21)
(-0.000174654 -0.000100616 -2.77658e-21)
(-0.0031003 0.00081107 -2.52216e-21)
(-0.000542796 0.000958717 -4.37223e-21)
(-0.000412682 4.5205e-05 4.09766e-21)
(-0.00482049 -0.0144361 -9.98131e-22)
(-0.00013507 -9.30502e-05 0)
(-0.00692417 0.00294034 0)
(0.00136875 -0.00115461 -2.19913e-21)
(-0.00429485 -0.00557747 -1.82995e-21)
(-0.000273338 -1.85769e-05 1.05436e-21)
(-0.00643563 0.0040343 0)
(-4.22385e-05 6.11085e-05 -1.6322e-21)
(-2.81865e-07 5.43577e-06 -1.57651e-22)
(-4.34691e-05 0.000270431 -2.17121e-21)
(-1.16124e-05 3.14843e-05 2.88524e-22)
(-0.00532644 -0.001005 0)
(-2.32292e-05 -1.48427e-07 0)
(0.00831693 0.00265601 0)
(0.00500191 -0.00599069 0)
(0.00103426 0.000511508 0)
(-0.00921968 0.000648259 0)
(-0.000816376 0.000147088 0)
(-0.00506203 -0.00563266 0)
(0.00190267 -0.00102238 2.95398e-21)
(-5.85518e-05 0.000300187 9.68832e-22)
(-1.22245e-06 0.000110213 2.44412e-21)
(-3.87227e-05 9.4559e-05 -1.23476e-22)
(-2.13605e-05 -3.28766e-05 0)
(-3.63966e-05 -4.31546e-05 -3.94792e-21)
(-9.24653e-06 7.12929e-06 1.43874e-21)
(-0.000559806 0.000578941 0)
(0.00152898 0.00344888 -3.38474e-21)
(-0.000373938 0.000359014 0)
(-0.00080874 -0.00688265 -5.98485e-21)
(-0.000177887 -1.17208e-05 5.05542e-22)
(0.00424494 -0.00431516 -9.61715e-22)
(-4.7872e-07 -2.52102e-06 9.55908e-22)
(0.00781516 0.00131447 -3.81647e-23)
(-0.000258737 -0.000101405 -7.42578e-22)
(-6.12082e-07 -4.24638e-06 2.70679e-22)
(-2.87022e-06 0.000152863 1.40396e-21)
(-0.00435658 -0.00494862 5.14149e-21)
(-0.000231626 -6.80092e-05 2.3349e-21)
(-0.00928585 -0.0147322 2.19776e-21)
(0.00368766 0.0109338 1.92799e-22)
(-0.000604148 -0.000599379 0)
(-0.0012707 -0.000265865 -1.43464e-21)
(-3.7152e-06 -5.60182e-05 -2.20635e-21)
(0.00560946 0.00536321 -1.57374e-21)
(-0.000190302 0.00011859 0)
(-0.000167072 -0.000109352 5.5767e-21)
(0.00981071 0.00235161 0)
(-1.40616e-06 0.000109533 -1.21538e-21)
(-0.000100622 0.000208178 6.27151e-22)
(-4.43743e-05 -4.42616e-05 0)
(-4.44989e-05 -0.000947383 4.16265e-21)
(-0.00276577 -0.000655981 6.49022e-21)
(-0.000245125 -5.4095e-05 -3.55166e-21)
(-0.000289904 -1.34832e-05 -4.33064e-21)
(-0.00223792 0.00369055 0)
(-0.00903386 -0.000933908 -6.94958e-21)
(-9.79914e-05 0.000295091 1.40582e-21)
(-0.000235262 9.91346e-05 0)
(-0.004529 -0.00131458 -2.58251e-24)
(-2.04356e-05 -3.21452e-05 0)
(-0.00394667 -0.00173498 -2.41348e-21)
(-1.57017e-06 1.13242e-05 1.43826e-21)
(-0.000134337 -0.000101984 0)
(-0.00980601 -0.0049967 -2.53554e-21)
(-0.000586922 -0.00207985 8.88502e-21)
(-0.00280591 -0.00307362 0)
(-0.000360245 -0.000721627 -3.96352e-21)
(-0.000537888 0.000164723 8.29442e-22)
(-4.1524e-07 3.66977e-05 1.25819e-21)
(-1.26374e-07 -2.26493e-06 2.05644e-21)
(-0.000378093 0.000651953 0)
(-0.000137709 -9.17033e-05 -1.82208e-21)
(-1.22998e-06 2.31768e-05 2.23947e-21)
(-2.00508e-05 -0.00048217 0)
(0.00205935 0.00254683 -3.39654e-21)
(-2.70785e-05 -7.74936e-06 4.26792e-21)
(0.000522254 -0.00161838 2.24292e-21)
(-0.00551786 0.00380941 3.13309e-22)
(-0.0109169 -0.00867833 2.10384e-21)
(-0.000243067 -0.000708563 2.53165e-21)
(-0.00307619 -0.00509938 1.43866e-21)
(-0.000127351 0.00034846 -1.79447e-21)
(-1.76199e-06 0.000118971 0)
(-0.00147478 -0.00120536 1.18164e-21)
(-4.19956e-05 2.62421e-05 0)
(-0.000241541 -9.16823e-05 -4.4988e-22)
(0.00320647 -0.0132891 -1.06733e-21)
(-0.00411372 -0.00449911 5.80608e-21)
(-0.0106751 -0.00928988 1.54224e-21)
(-0.00561904 -0.000937987 0)
(-0.000135585 -4.31943e-05 0)
(-0.000131434 -2.13243e-05 -1.08421e-22)
(-0.000639849 0.000344941 -2.19578e-21)
(-0.000167611 7.41728e-05 5.05809e-22)
(-7.27727e-05 -4.48023e-05 0)
(0.00553298 -0.00236406 2.45084e-21)
(-0.00683641 -0.00197378 1.8237e-21)
(-4.55275e-05 -0.00128591 0)
(0.00137923 -0.000978996 -9.46009e-21)
(-0.000711763 -0.00213582 -5.92949e-21)
(-1.6793e-05 3.85752e-05 -3.55807e-22)
(-4.98012e-05 -4.94114e-05 0)
(-0.0110827 -0.00821898 6.88939e-22)
(-0.00170986 -9.80582e-05 5.27413e-21)
(-0.000143559 -0.000108834 5.1036e-21)
(2.38216e-07 7.70737e-06 4.68945e-22)
(-0.00232089 -0.00357452 -2.10185e-21)
(0.00417909 -0.000709192 5.48349e-23)
(-0.00145455 1.20601e-05 0)
(-5.05712e-05 0.000187927 0)
(-1.03376e-05 4.53342e-05 -2.77928e-21)
(-0.00266832 -0.000487976 -5.06375e-21)
(-4.07389e-05 0.000241178 -2.44632e-21)
(-0.000358402 -4.67644e-05 5.86891e-22)
(-3.9602e-05 1.41364e-05 0)
(-0.00376282 0.00463834 0)
(-2.88335e-05 1.26217e-06 3.42964e-21)