/*--------------------------------*- C++ -*----------------------------------*\
| =========                 |                                                 |
| \\      /  F ield         | OpenFOAM: The Open Source CFD Toolbox           |
|  \\    /   O peration     | Version:  v2012                                 |
|   \\  /    A nd           | Website:  www.openfoam.com                      |
|    \\/     M anipulation  |                                                 |
\*---------------------------------------------------------------------------*/
FoamFile
{
    version     2.0;
    format      ascii;
    class       volScalarField;
    location    "300";
    object      k;
}
// * * * * * * * * * * * * * * * * * * * * * * * * * * * * * * * * * * * * * //

dimensions      [0 2 -2 0 0 0 0];


internalField   nonuniform List<scalar> 
13851
(
0.000201874
0.000153898
0.000153697
0.0197926
0.000148183
0.000156373
0.000154553
0.000146892
0.0515939
0.000147992
0.000177904
0.000148193
0.000148511
0.0284758
0.000168071
0.000205324
0.0175165
0.000147842
0.000236007
0.000201832
0.000171115
0.000155223
0.0343387
0.000149695
0.0250031
0.000186163
0.000107023
0.0126326
0.0476546
0.000145954
0.0454903
0.000154532
0.000201451
0.0694218
0.000170157
0.0470675
0.000149782
0.0221613
0.0664576
0.000148338
0.0692253
0.049857
0.0062851
0.00022354
0.0530417
0.000147036
0.000144541
0.000203634
0.000151821
0.000148477
0.0252158
0.000148729
0.00020524
0.0001636
0.0268
0.000148344
0.000201884
0.0667266
0.00010206
0.029054
0.000148254
0.000194519
0.000148336
0.000152091
0.000183873
0.000184561
0.0235179
0.00016706
0.000148512
0.028695
0.0407615
0.000176355
0.00014802
0.0257687
0.000165003
0.000152036
0.0229119
0.0001451
0.0172204
0.000147256
0.00014857
0.00024336
0.000169564
0.0303587
0.0302772
0.044382
0.000155476
0.0209804
0.000147912
0.0453815
0.000148842
0.000154701
0.00959046
0.0400965
0.059786
0.000203504
0.000147235
0.000205918
0.0260428
0.000197383
0.000207067
0.000162399
0.00016344
0.000148284
0.000146987
0.000174898
0.00014699
0.0431207
0.00015467
0.000147685
0.0001594
0.000147041
0.000205167
0.000179816
0.00020122
0.000162745
0.00014585
0.000146397
0.0172341
0.0321759
0.000193492
0.000146758
0.000148455
0.0479058
0.000228878
0.000173606
0.000147229
0.000172833
0.0641137
0.000174916
0.00015514
0.00016153
0.00643269
0.0682321
0.000178595
0.059633
0.000166552
0.042938
0.000160226
0.000174822
0.000235237
0.000149955
0.000147932
0.000172532
0.0264371
0.000151609
0.000145035
0.0406517
0.0414043
0.0001736
0.000206654
0.000203734
0.00018109
0.000225902
0.000149038
0.000148195
0.000148369
0.0624991
0.000172345
0.000153165
0.000149519
0.0474839
0.000174229
0.000203644
0.0290822
0.0559102
0.0570973
0.0298323
0.000159073
0.0709107
0.000148379
0.000145866
0.000179443
0.000148649
0.0632528
0.000119974
0.000208523
0.000145769
0.000165045
0.000207752
0.00022521
0.000223276
0.000158429
0.00017464
0.00729758
0.0421587
0.000201444
0.00015715
0.000148841
0.000146436
0.0100608
0.000172297
0.0234582
0.000156602
0.000151349
0.000205605
0.000200651
0.000149005
0.000148921
0.000168145
0.000234687
0.0636032
0.0670346
0.000168094
0.000322752
0.0597407
0.000151681
0.000174759
0.0528326
0.000155452
0.000204999
0.000148399
0.000240217
0.000149456
0.000170746
0.000153126
0.000148392
0.000223614
0.000149056
0.000513776
0.000145743
0.000201767
0.0260386
0.061298
0.000156782
0.000175123
0.000149699
0.000170733
0.00014767
0.000170428
0.0329993
0.000156736
0.000155408
0.000148496
0.0650099
0.00014592
0.0181755
0.0660656
0.000193643
0.00014959
0.000344478
0.0308892
0.0534628
0.000204889
0.000164438
0.000176577
0.000216451
0.000165319
0.000202668
0.000160991
0.0223941
0.000201473
0.000146526
0.000156779
0.000206443
0.046064
0.0242536
0.000146387
0.000174288
0.000147882
0.000213556
0.000226814
0.000157365
0.000174893
0.000202151
0.000147696
0.000162744
0.000198948
0.00541778
0.000148223
0.000148372
0.000156959
0.0610348
0.0120083
0.000174381
0.000146983
0.000227452
0.000226248
0.00019819
0.000174392
0.059676
0.0252625
0.000157693
0.0001654
0.0244486
0.00014693
0.000148362
0.000198864
0.000174745
0.000145945
0.000149433
0.000147606
0.000147519
0.000164483
0.000148309
0.0532664
0.000172475
0.000147808
0.0457804
0.045263
0.000148803
0.000202206
0.0253736
0.000150175
0.00014888
0.000173798
0.0284218
0.0777293
0.000182328
0.000148098
0.0676353
0.000148317
0.000184073
0.0303905
0.00385361
0.00015286
0.0117794
0.000704482
0.0481488
0.000202968
0.000162967
0.0647547
0.0542465
0.0107784
0.000149151
0.0249425
0.00810396
0.000218737
0.000212561
0.000151706
0.000181678
0.000157501
0.0221829
0.000164319
0.000146504
0.000143886
0.000157224
0.0447023
0.000386378
0.00014686
0.0586258
0.000157581
0.000161784
0.000153395
0.0244399
0.000225064
0.000205888
0.000152746
0.000154743
0.044715
0.000148869
0.000228442
0.00015759
0.000173722
0.000158238
0.000147895
0.000147777
0.000199428
0.000200851
0.000201793
0.00151199
0.0456245
0.000151724
0.0640344
0.000220463
0.000145719
0.0054146
0.000191478
0.0306377
0.000156712
0.000187952
0.000142664
0.0143961
0.000197558
0.0247833
0.000150242
8.34372e-05
0.00680874
0.000161611
0.02727
0.00016381
0.0691908
0.000165046
0.000171633
0.000201213
0.000213852
0.000148203
0.000156996
0.000175865
0.000165311
0.000147233
0.000174724
0.0677719
0.000147997
0.000174788
0.012224
0.000153337
0.00126885
0.000174375
0.0806304
0.000156121
0.000184615
0.000321053
0.000228101
0.00017425
0.0206879
0.0259948
0.000336928
0.000147734
0.00019886
0.00016383
0.000187532
0.000146841
0.00737359
0.0716194
0.0191946
0.000154681
0.000201832
0.000165286
0.013115
0.000144586
0.0185285
0.000221203
0.0330391
0.00016172
0.0184583
0.000148088
0.000148549
0.0229216
0.000152743
0.000147988
0.000153927
0.000175301
0.000146129
0.0682134
0.000181993
0.000190992
0.000156781
0.00015028
0.000148794
0.00777691
0.000147774
0.000148726
0.0343631
0.0663552
0.000154621
0.00023852
0.000148389
0.000148297
0.000153875
0.000202191
0.000174208
0.000147334
0.000151012
0.000192554
0.000152307
0.0801913
0.00014815
0.000159362
0.0538405
0.000160816
0.000144307
0.000148522
0.000156638
0.000149527
0.000304874
0.0417064
0.00016467
0.000623936
0.000153992
0.000148008
0.0614135
0.00015305
0.000160178
0.000148112
0.0519122
0.000159578
0.00288824
0.000148286
0.000161879
0.000198558
0.000166712
0.0582676
0.000157552
0.0116811
0.000151964
0.000204256
0.000147696
0.0462664
0.000174225
0.0002006
0.000163645
0.000152426
0.000160851
0.000179966
0.000148278
0.0138041
0.0594062
0.0808933
0.00737909
0.0401842
0.033757
0.000228407
0.000156204
0.000149228
0.00272987
0.000148004
0.0001472
0.000157515
0.06582
0.000153601
0.000149944
0.000175065
0.000173495
0.000148067
0.0787837
0.000147233
0.0658276
0.000283949
0.000147244
0.00015266
0.00022514
0.00616741
0.000145987
0.0524394
0.0148515
0.000145805
0.0568153
0.00023618
0.000201541
0.000151918
0.0326889
0.029919
0.000146009
0.000240876
0.000148472
0.000147249
0.0240319
0.0700426
0.000168056
0.000173613
0.000148017
0.00018136
0.0659226
0.0624266
0.000147049
0.0240953
0.000147299
0.000148531
0.000174488
0.00015952
0.000144539
0.000152039
0.0587431
0.000210958
0.0550918
0.000153026
0.000147861
0.0611018
0.000148998
0.000199781
0.000159137
0.000164991
0.000164169
0.0535285
0.0299146
0.000156447
0.0172754
0.000152365
0.000181263
0.0508149
0.0327618
0.000148445
0.000147733
0.000163829
0.0563484
0.00023968
0.000180862
0.00652593
0.000159712
0.00016422
0.0404666
0.0818333
0.000184535
0.064041
0.00021175
0.0478432
0.000149682
3.05751e-05
0.00364156
0.000148177
0.0109578
0.0860395
0.000159185
0.000174766
0.00014826
0.000526744
0.000177116
0.0513572
0.000147801
0.000148872
0.000154833
0.000172978
0.000148229
0.0627254
0.000148825
0.000210927
0.000151998
0.000188078
0.000148262
0.000148085
0.000168153
0.0243147
0.000173987
0.0576678
0.000161913
0.000146218
0.000146369
0.000179761
0.00015097
0.000190297
0.000154387
0.000159844
4.28958e-05
0.000149011
0.0201741
0.000149613
0.000195159
0.0198255
0.056299
0.000156587
0.0431261
0.00017442
0.000208205
0.0859013
0.0001477
0.0836793
0.000157637
0.000162451
0.00938391
0.000590686
0.000145859
0.000189709
0.000148902
0.0463628
0.0261605
0.000148868
0.000168025
0.0696224
0.000149694
0.000149602
0.000186502
0.0170112
0.0234319
0.000148893
0.000200928
0.000151885
0.000148096
1.17319e-05
0.000201508
0.000196172
0.000144372
0.000198891
0.000164182
0.000182665
0.000149989
0.000151073
0.000175805
0.000154602
0.000201324
0.000176138
0.000176069
0.000180573
0.000423504
0.000236606
0.058314
0.041396
0.000205167
0.0369174
0.000163625
0.0277786
0.000202435
0.000147549
0.000163615
0.00023024
0.000156334
0.000147267
0.000147223
0.000195177
0.0221699
0.000159588
0.0631188
0.00014625
0.0277861
0.000180284
0.024129
0.000189271
0.000156297
0.00015374
0.0282839
0.00019633
0.00016321
0.000144234
0.000149921
0.00241096
0.000195415
0.000211207
0.000162934
0.000270621
0.000148074
0.000149544
0.00015127
0.000148102
0.0509773
0.000147514
8.9365e-05
0.0598923
0.000189894
0.0641693
0.0288465
0.000212857
0.000212094
0.000156379
0.000148995
0.000148299
0.000145151
0.000146343
0.000148667
0.000181714
0.000204081
0.000165052
0.00831492
0.000150966
0.0514115
0.000149946
0.0229435
0.000168057
0.000149861
0.000148616
0.0565483
0.00015662
0.0274304
0.0858524
0.00017362
0.000184109
0.000145642
0.0684338
0.000152746
0.000153698
2.0274e-05
0.000149023
0.00014992
0.000147403
0.000174198
0.0237289
0.000159683
0.000163396
0.000225668
0.0586826
0.00015675
0.000155447
0.0499132
0.000145116
0.0489282
0.000149178
0.000152378
0.0139878
0.000189496
0.000200718
0.000185288
0.000174218
0.000149388
0.000149946
0.000182714
0.000149844
0.00014945
0.000160328
0.000218908
0.000147386
0.000202975
0.000739612
0.0198181
0.000185087
0.0454805
0.000160458
0.000148958
0.000196265
0.000146353
0.000157125
0.0547287
0.045099
0.0832214
0.0509468
0.000149032
0.000148746
0.000170121
0.000150781
0.00014672
0.0279897
0.000214352
0.0288886
0.000195512
0.000189877
0.000148132
0.000146002
0.00278955
0.000191
0.000152956
0.000149603
0.000200785
0.000208665
0.0647982
0.000149
0.000148763
0.0203438
0.000149939
0.000163996
0.000146153
0.067229
0.000147416
0.0223087
0.000148171
0.000190632
0.000169113
0.000169709
0.000163256
0.000148015
0.000153894
0.000147692
8.97598e-05
0.000149948
0.028495
0.000150146
0.0279794
0.0619783
0.00016158
0.000147537
0.0136682
0.0426998
0.000157014
0.000189499
0.000148288
0.0194753
0.00014767
0.000229087
0.000148076
0.000147666
0.0226604
0.000164395
0.000148442
0.0001641
0.0642991
0.000444808
0.0724187
0.000146385
0.0395231
0.00014817
0.000147444
0.000149028
0.000143507
0.000149445
0.0766037
0.0586364
0.000149103
0.000148792
0.00016838
0.000147049
0.0172021
0.000197378
0.0325036
0.0661931
0.000153815
0.000201169
0.000148119
0.000171009
0.000177042
0.000147495
0.000149248
0.000459223
0.0278885
0.000183453
0.00862518
0.000182381
0.000148368
0.000169458
0.000189901
0.0209841
0.00016344
0.00393526
0.000191612
0.000149364
0.0568722
0.0551941
0.0290059
0.00567559
0.0221934
0.000151892
0.000176329
0.000148732
0.000612479
0.000155837
0.000146524
0.0747604
0.000150744
0.000147544
0.000148444
0.000150466
0.0640565
0.000228486
0.000146623
0.000169995
0.0287948
0.000151158
0.00786799
0.000151002
0.000188251
0.0689535
0.000148335
0.000228291
0.000158775
0.000162654
0.000496241
0.000150726
0.000241769
0.000184207
0.0681489
0.000149316
0.0266501
0.000161174
0.0401013
0.0221856
0.0216762
0.000173716
0.000148106
0.000149102
0.000149693
0.000170336
0.000148544
0.0603193
0.000157661
0.000156086
0.000156585
0.00015179
0.00014635
0.00015839
0.000156964
0.000152639
0.000156211
0.0841205
0.000118743
0.000160774
0.000170297
0.0739657
0.000150029
0.047874
0.000145183
0.000160769
0.000149971
0.000147601
0.000167163
0.000147965
0.000146578
0.000163057
0.000148239
0.000216869
0.000150577
0.00968307
0.00122323
0.000217588
0.000229733
0.000148535
0.0606061
0.00020601
0.000149384
0.000156787
0.000149745
0.0514167
0.00015098
0.000162946
0.00453043
0.0100372
0.000179045
0.000148636
0.0540442
0.003083
0.0260979
0.000158674
0.000146144
0.000146914
0.000182406
0.000148091
0.0255362
0.000200278
0.00014915
0.000221159
0.00021987
0.000147273
0.084599
0.0202533
0.000213135
0.000150396
0.0532845
0.000181522
0.000147704
0.0235391
0.000155279
0.000147009
0.000147281
0.00016394
0.000170552
0.0560209
0.0487405
0.000171257
0.0572702
0.00016537
0.000147911
0.000169742
0.000147262
0.00121827
0.000147271
0.00014789
0.000152329
0.000149744
0.0609148
0.022092
0.000238157
0.0291275
0.0853972
0.000156767
0.000148048
0.000150576
0.000242854
0.000147103
0.00014766
0.000168991
0.0198135
0.000212849
0.000145008
0.000165521
0.000163533
0.000201496
0.00736552
0.000145787
0.000144433
0.000152689
0.00914463
0.000160255
0.0658763
0.000151037
0.000148856
0.000147079
0.000147256
0.000153103
0.000212579
0.0480412
0.0553902
0.000156567
0.00014801
0.00142605
0.000149553
0.026638
0.0368636
0.000157921
0.0275139
0.0499186
0.0409425
0.000179518
0.000163229
0.0440635
0.000161606
0.000160177
0.000170486
0.000208156
0.000149684
0.000496574
0.000147938
0.0498422
0.0172165
0.000145216
0.000152056
0.000167475
0.000235086
0.000164436
0.000148685
0.000159418
0.000150964
0.000156448
0.000243115
0.000148861
0.0461429
0.0237485
0.000147976
0.000162337
0.000170213
0.000148224
0.0441099
0.0117331
0.0625807
0.0336888
0.00014787
0.000153392
0.000156101
0.000149065
0.000236022
0.000164853
0.000149635
0.000182555
0.000154242
0.0400686
0.000169263
0.0243172
0.000150832
0.000151185
0.000164166
0.000190753
0.000184091
0.000147687
0.00925342
0.0437131
0.0261939
0.0381043
0.0535497
0.0558024
0.0380966
0.000147678
0.000147854
0.000148233
0.000238999
0.000173709
0.000183745
0.0139692
0.000149099
0.000144862
0.000148011
0.000225032
0.000144953
0.000157449
0.000151882
0.0314768
0.000150537
0.000146408
0.00014826
0.000147745
0.000148849
0.000159914
0.000235961
0.000160276
0.0602874
0.000147877
0.00014728
0.0641074
0.064722
0.0208601
0.0209253
0.000164184
0.0259035
0.000146101
0.000170092
0.000151176
0.00014821
0.000154054
0.0265142
0.000151376
0.000191166
0.00264204
0.000149221
0.000147531
0.000154586
0.000212755
0.000149765
0.0315188
0.000148137
0.000224665
0.00014856
0.000149067
0.000157211
0.000172347
0.000148544
8.21156e-05
0.0417178
0.000212736
0.0683654
0.000148087
0.0248249
6.76677e-05
0.000147976
0.0169338
0.00014904
0.000162029
0.000148849
0.000148954
0.000147216
0.000148086
0.000149468
0.000155278
0.000183418
0.000148835
0.00014834
0.000166116
0.000145686
0.0845938
0.000148562
0.000162634
0.000165323
0.0339337
0.00242329
0.000148739
0.000213287
0.000146103
0.000162404
0.000174229
0.016953
0.000174992
0.000149768
0.000198022
0.000168912
0.000189392
0.000110676
0.000160895
0.000200339
0.000180781
0.000184154
0.000150443
0.000146871
0.0197524
0.0116195
0.000153569
0.000147673
0.00849876
0.000146288
0.000170466
0.000147277
0.000178395
0.0138174
0.000143999
0.0158704
0.000156262
0.000148919
0.000208133
0.000146519
0.00016154
0.035385
0.000168548
0.0218678
0.000147176
0.000149706
0.000162222
0.000149382
0.000149548
0.000159309
0.00016042
0.000183468
0.000179859
0.000148392
0.000165505
0.00014669
0.000148065
0.000149293
0.000147998
0.000569505
0.000147466
0.000151075
0.000232783
0.000146246
0.00014758
0.0627767
0.000149575
0.0119955
0.000151718
0.0621419
0.000224258
0.000164913
0.00179888
0.000178518
0.000287273
0.000149513
0.00020982
0.000156581
0.000146738
0.000147056
0.000151045
0.000161995
0.000147671
0.000171959
0.000146805
0.000151157
0.0069682
0.0250736
0.000203633
0.000153908
0.000163726
0.0362182
0.029304
0.000148948
0.000157139
0.000335401
0.000148844
0.000167722
0.00060908
0.055418
0.000158269
0.000171873
0.000150241
0.000222955
0.000149875
0.000161121
0.0168315
0.000148679
0.000147059
0.0836827
0.000170211
0.000240198
0.069374
0.000195303
0.000149433
0.000146829
0.000149185
0.0321648
0.00296962
0.0494933
0.00017509
0.000148112
0.0418266
0.000148434
0.000203278
0.000154884
0.000152182
0.00017102
0.000148033
0.085692
0.085772
0.000145538
0.000183185
0.000174548
0.00226988
0.000171043
0.000180704
0.000238968
0.00016529
0.000148748
0.000181776
0.000148454
0.000166482
0.000169457
0.0365883
0.000147839
0.00264728
0.000172247
0.000182337
0.000149771
0.0837681
0.000156591
0.000151656
0.000146785
0.000166197
0.000165514
0.000166912
0.000148576
0.00015002
0.000172833
0.00851141
0.000176385
0.000148817
0.000149919
0.000166445
0.000218354
0.000148939
0.000181679
0.0183901
0.00016821
0.0575959
0.000170069
0.0254982
0.000242086
0.000147699
0.0011139
0.000149482
0.000153778
0.000163943
0.000164934
0.000190512
0.000174251
0.000166158
0.00016759
0.000161153
0.000152497
0.000144892
0.000170552
0.000155679
0.000156921
0.00152555
0.000155344
0.000158583
0.000147208
0.0255684
0.000180286
0.000148386
0.000154351
0.000151046
0.0283246
0.000200426
0.000163968
0.0526773
0.000102003
0.000389993
0.00019005
0.000231649
0.000146781
0.00018812
0.000147603
0.000155061
0.019475
0.0437626
0.000249599
0.000573091
0.000148527
0.0247238
0.000146755
0.000189526
0.000153756
0.0219163
0.0771164
0.000156953
0.000147697
0.000242902
0.000162231
0.000147747
0.0382957
0.000148154
0.000151768
0.000155728
0.000148832
0.000160608
0.000151164
0.000148115
0.000162649
0.000258936
0.000169323
0.000176428
0.000147719
0.0297119
0.0443211
0.00014755
0.000207131
0.000153682
0.000156928
0.0532738
0.000147524
0.000150049
0.00015619
0.0458723
0.000147815
0.00014902
0.000168216
0.0244865
0.000147411
0.000159419
0.000161392
0.00100629
0.000171395
0.000167863
0.000219709
0.000148185
0.000173777
0.000145298
0.0273829
0.000159747
0.000148022
0.000158301
0.000187949
0.000148753
0.000148741
0.00020241
0.0485155
0.000149513
0.0287006
0.000149068
0.000145232
0.000181541
0.000147831
0.000147475
0.0838001
0.00014978
0.000169139
0.000207463
0.0539183
0.000756699
0.00014695
0.000152063
0.000156051
0.00014814
0.000148092
0.000148332
0.00944273
0.000149134
0.000193179
0.000198297
0.000147024
0.000145813
0.000160324
0.000198292
0.000217417
0.000167077
0.000177428
0.000152104
0.0531439
0.000177399
0.000162325
0.000170158
0.000172845
0.000188646
0.0257225
0.000169058
0.0300758
0.0262732
0.0233372
0.000154291
0.000147699
0.000166062
0.000159302
0.000146673
0.000149556
0.000179849
0.000149527
0.000149033
0.000147971
0.000144403
0.000152464
0.000148241
0.0220461
0.000147672
0.0397028
0.000148203
0.000174854
0.000149811
0.000198479
0.000174545
0.000148127
0.0598075
0.00015201
0.000149381
0.000169366
0.000146575
0.000158516
0.000147858
0.0485706
0.000152705
0.000169857
0.000171677
0.0572031
0.000157051
0.000177188
0.00157189
0.000170216
0.000148478
0.000150957
0.000177191
0.000180709
0.0249831
0.000146013
0.0325524
0.000148344
0.000170137
0.0822885
0.000164122
0.0189568
0.000154147
0.000162873
0.000153356
0.0856755
0.000160569
0.000148676
0.000169272
0.000200294
0.000151508
0.000147917
0.000148692
0.0653191
0.000149603
0.000156339
0.0660787
0.000154602
0.000147703
0.000172224
0.000153764
0.0453541
0.000144864
0.000147894
0.000146508
0.000154281
0.000149401
0.000148518
0.000182414
0.0617684
0.000147559
0.000148384
0.0434579
0.000149236
0.0162876
0.000153064
0.0812745
0.000146869
0.000152663
0.000146096
0.0312388
0.0680614
0.000158594
0.000169993
0.000155115
0.000147574
0.000148493
0.0489981
0.000148632
0.000189531
0.000146527
0.000171811
0.000149086
0.0574627
0.000146323
0.000173137
0.000147009
0.00022548
0.000311584
0.000146359
0.000166578
0.0864852
0.000183931
0.0276861
0.0164001
0.000206194
0.000151271
0.000164011
0.000190401
0.0083459
0.00014909
0.000168796
0.000156175
0.000147784
0.0280979
0.037601
0.000183951
0.000205339
0.00024308
0.000161739
0.0608414
0.000146605
0.000146285
0.000188701
0.0851726
0.000216915
0.000201772
0.00200545
0.000146121
0.0847934
0.0358199
0.0810417
0.000149185
0.031623
0.0457708
0.000326137
0.000402982
0.0459642
0.000190143
0.000160296
0.000205072
0.000153806
0.000147757
0.00103715
0.000191032
0.000144752
0.0350153
0.000149077
0.000157847
0.000170732
0.000155
0.000170523
0.000160273
0.0122183
0.000172864
0.000154389
0.0175048
0.0718394
0.000201537
0.000149328
0.000153958
0.000183384
0.000169202
0.000146231
0.000172682
0.000168094
0.000199089
0.000147717
0.00021012
0.000152778
0.00016922
0.0384759
0.000142815
0.000150732
0.00018703
0.0336274
0.000148675
0.000150251
0.0791332
0.000227797
0.000153173
0.000154031
0.000148293
0.000175676
0.000155816
0.0495139
0.000190166
0.000149661
0.000149355
0.000167246
0.000158319
7.62713e-05
0.0291147
0.00014688
0.000147836
0.000157145
0.000149123
0.0001532
0.000150489
0.000150372
0.000154102
0.000147296
0.000153361
0.000148766
0.000174418
0.00762844
0.0001497
0.0663927
0.0164732
0.000145303
0.000184717
0.000188558
0.00018045
0.000150127
0.000191032
0.000157529
0.000169496
0.000160514
0.000151271
0.00014924
0.0246431
0.000159553
0.0220704
0.000150097
0.000147999
0.00014774
0.000174269
0.000147486
0.000175035
0.000181609
0.000323178
0.000146976
0.000201571
0.00750832
0.0457543
0.000146054
0.000196238
0.000226829
0.00938659
0.000456659
0.000149739
0.000148972
0.000195339
0.00146592
0.0131067
0.000169241
0.000208852
0.000149423
0.000147005
0.000164699
0.000149138
0.000148589
0.000201032
0.000149711
0.000170403
0.000146793
0.071828
0.0678719
0.0376429
0.0368791
0.0426889
0.00014855
0.000148727
0.0807948
0.000146173
0.000146463
0.000145254
0.000185174
0.0703924
0.0263445
0.000155759
0.000148766
0.00015103
0.000162976
0.0290432
0.000147817
0.017877
0.0733751
0.000149079
0.00014898
0.0355104
0.000188415
0.000152073
0.000147922
0.071454
0.0440931
0.000148046
0.000215197
0.000149613
0.047659
0.000476975
0.000152671
0.0265847
0.0162183
0.0520194
0.000146611
0.000149042
0.000149541
0.000149883
0.0660133
0.000147204
0.000200024
0.000224553
0.0230769
0.000150187
0.000174676
0.000120466
0.000173243
0.0786884
0.0524512
0.000144627
0.000155869
0.000156016
0.000203958
0.0575185
0.000144263
0.0243354
0.000160202
0.000171342
0.00015015
0.000147096
0.000225338
0.000167397
0.0189744
0.000149137
0.000174303
0.000149928
0.000198624
0.000153578
0.0602545
0.0113185
0.000205895
0.00019367
0.000147648
0.000152168
0.000189363
0.000184068
0.0600066
0.0855633
0.000148744
0.0217141
0.000171454
0.0729469
0.000157911
0.000169679
0.000167546
0.000148395
0.0596829
0.000148121
0.000163271
0.0312226
0.0704094
0.00054857
0.0691407
0.000157022
0.00017445
0.000145956
0.0723292
0.000156031
0.0309327
0.000145877
0.0520587
0.000144047
0.000147588
0.000162744
0.000158341
0.000159673
0.000147792
0.0378695
0.000172352
0.000147238
0.000165351
0.0320396
0.000245399
0.000148047
0.0572404
0.000153026
0.000165273
0.000163715
0.0001451
0.000178487
0.000147538
0.0172914
0.000174185
0.000157957
0.000147861
0.000232077
0.000168083
0.000145868
0.0478938
0.00360372
0.000224479
0.000145364
0.000511171
0.000148689
0.000192763
0.000158683
0.00018304
0.00658128
0.0366786
0.000159575
0.0690978
0.000170366
0.000156972
0.00014635
0.0600432
0.000181349
0.000190781
0.000165825
0.000149525
0.0240282
0.00018427
0.000237854
0.000236832
0.0863161
0.0381028
0.00347708
0.0335539
0.000157383
0.000158514
0.000148334
0.000148322
0.000144427
0.000208752
0.000157733
0.000159786
0.0632451
0.00014725
0.000146427
0.000170762
0.000200597
0.000158591
0.000146447
0.0649146
0.000153204
0.000174486
0.000148816
0.0231262
0.00015674
0.0753208
0.000167239
0.000164123
0.000172048
0.000148279
0.0105827
0.000144906
0.000180624
0.000148158
0.000146788
0.0230642
0.045195
0.0457576
0.000147178
0.000180894
0.000171064
0.000148327
0.000147599
0.000148332
0.068958
0.000172866
0.000162664
0.000158607
0.000156603
0.052349
0.000180713
0.000227544
0.000157321
0.000163088
0.000144363
0.000184953
0.000173718
0.000147859
0.0471036
0.0546115
0.061708
0.0471712
0.0419113
0.0846285
0.0824643
0.000150831
0.000147173
0.0657309
0.0382378
0.0264574
0.00014828
0.000168779
0.000148128
0.00014753
0.0131212
0.0720281
0.000181695
0.000147597
0.00011539
0.000190991
0.000173718
0.0371171
0.0015417
0.000193251
0.000146829
0.0599546
0.00645765
0.000228748
0.00016366
0.000170169
0.00014875
0.000146665
0.00016695
0.000171448
0.000153052
0.000169716
0.000158558
0.000153612
0.000234127
0.0351936
0.000158986
0.000171162
0.0450208
0.000221429
0.000148449
0.000196424
0.000234012
0.0270792
0.000168271
0.000148563
0.000160154
0.000156271
0.000158099
0.000145094
0.000158897
0.000162534
0.00017351
0.000203668
0.000149417
0.000150853
0.0377111
0.0515853
0.0694573
0.000133038
0.00019775
0.000143874
0.000148064
0.000160702
0.000145854
0.0865221
0.000148006
0.000149778
0.000145521
0.0468765
0.0189183
0.000149433
0.000181812
0.000157468
0.000161653
0.000160166
0.000159809
0.000169155
0.000165378
0.0211066
0.000156585
0.0400812
0.000166457
0.0686767
0.000159207
0.000146987
0.000146284
0.000191683
0.000202337
0.000146175
0.00016316
0.000159524
0.000176235
0.0343088
0.023987
0.0383447
0.000149777
0.000148881
0.000158088
0.000164054
0.000147859
0.000180105
0.000151893
0.0292392
0.000292495
0.000165916
0.000148201
0.0507502
0.000155337
0.0345907
0.0370058
0.00023577
0.000152753
0.000197601
0.0449531
0.000203287
0.0499814
0.000177367
0.000147669
0.000166636
0.000147193
0.082651
0.00015316
0.00016118
0.000114275
0.0666789
0.000147441
0.000147637
0.0417939
0.000168628
0.0813766
0.000158685
0.000147928
0.000169661
0.000220088
0.000162752
0.0185847
0.000163804
2.60199e-05
0.000154437
0.00014954
0.00014753
0.00021685
0.000150001
0.000184114
0.000148158
0.000147979
0.000212283
0.00015673
0.000148397
0.000147858
0.000163404
6.69167e-05
0.000171526
0.000167263
0.000154654
0.000178217
0.00014813
0.000192617
0.000160891
0.000170574
0.000167937
0.00015932
0.00017583
0.000163468
0.000146996
0.000183489
0.0484761
0.034338
0.000148583
0.000506043
0.0341661
0.000147614
0.000149995
0.000230612
0.0394181
0.000155787
0.0338256
0.000248012
0.000148524
0.0001895
0.000144393
0.000156234
0.000178865
0.0287873
0.000207545
0.000238277
0.000166293
0.0462065
0.0521127
0.000152263
0.0446099
0.000147947
0.00647975
0.0491471
0.000148367
0.000148189
0.0335064
0.000148525
0.000148252
0.000232686
0.0599942
0.000218116
0.000156798
0.0442838
0.000148359
0.0515625
0.0387593
0.000149081
0.000138866
0.00777337
0.043859
0.0360815
0.039751
0.032533
0.000146705
0.000150952
0.000179454
0.000182239
0.000148211
0.000218281
0.000147935
0.0407164
0.000241317
0.000164749
0.000241153
0.0416526
0.000244768
0.000234659
0.00016611
0.0192404
0.00025042
0.000155438
0.000144724
0.0109044
0.000161295
0.000146109
0.0830188
0.000147634
0.0142908
0.000148631
0.0701588
0.000155806
0.000147579
0.00543515
0.000155559
0.000160543
0.0301961
0.0721117
0.000428005
0.000158819
0.000173472
0.000151184
0.000169571
0.000198921
0.000169906
0.000149241
0.000316902
0.000180169
0.000161197
0.0315079
0.000168888
0.000162346
0.000200382
0.000183613
0.000172785
0.000147548
0.000208671
0.000146294
0.00019884
6.22729e-05
0.0401914
0.000146566
0.000166856
0.0254284
0.000151817
0.000178882
0.000162764
0.000169063
0.0717774
0.000180292
0.000151307
0.0265301
0.000146636
0.0498842
0.000148564
0.000151055
0.000198615
0.0467011
0.000160863
0.000192026
0.00022289
0.000162726
0.000148828
0.000179114
0.000171012
0.0632278
0.000154739
0.00436684
0.000202402
0.000162748
0.000159973
0.000179696
0.000165142
0.000168619
0.000180336
0.000162732
0.000153265
0.000148722
0.000712364
0.000147924
0.000158875
0.000144516
0.000195931
0.000159453
0.0001804
0.0421386
0.000150635
0.000218102
0.00014366
0.00014866
0.00014908
0.000149216
0.000157441
0.000147146
0.000189939
0.0250975
0.000180385
0.000172382
0.000155153
0.000148107
0.000162506
0.000148065
0.0386458
0.0393012
0.028428
0.00020471
0.000162965
0.000158262
0.000148991
0.000157725
0.00017145
0.000168659
0.0475389
0.000180374
0.0586102
0.000205747
0.000149248
0.000146304
0.0339799
0.000147571
0.000160658
0.000167205
0.000243966
0.000152059
0.0654654
0.000148943
0.000154938
0.000148139
0.000149921
0.000179033
0.000196064
0.000148823
0.000163953
0.000159541
0.000173095
0.000180138
0.000220641
0.000202761
0.000213228
0.000203022
0.000157052
0.000150721
0.000180018
0.0458985
0.0784877
0.0529246
0.00016308
0.0227279
0.000196071
0.000150584
0.000147538
0.00018281
0.000148719
0.000163934
0.0225856
0.000147471
0.000146644
0.000275166
0.0141927
0.000174581
0.000435225
0.000148518
0.0267995
0.000168434
0.0699642
0.000156875
0.00014812
0.052459
0.000165378
0.000148038
0.000172977
0.000149606
0.000191629
0.000158799
0.000164775
0.0850627
0.000159532
0.0527292
0.000147127
0.0531332
0.000148555
0.000155951
0.000149562
0.000170918
0.000148697
0.000166798
0.0501696
0.000254798
0.000174045
0.000160417
0.000169296
0.000147368
0.000148369
0.000151269
0.00328718
0.000155497
0.0724206
0.0343573
0.00019021
0.000149297
0.000193432
0.000206863
0.000201391
0.000156734
0.0384916
0.000147709
0.000143886
0.00014756
0.00738514
0.000148317
0.000147959
0.0523231
0.000147516
0.000202456
0.000172953
0.00014676
0.0607632
0.000159625
0.0696779
0.000147581
0.00185013
0.000150439
0.000168197
0.0287155
0.000182148
0.000147313
0.000158375
0.043166
0.000163759
0.000194797
0.000161827
0.000155737
0.000188547
0.000157587
0.000149252
0.00706252
0.000159316
0.000159634
0.000204989
0.000147597
0.000146795
0.00014907
0.000162673
0.000148552
0.000154452
0.0581696
0.0152593
0.000172504
0.00950122
0.000182433
0.000165955
0.0683127
0.0502617
0.000149486
0.0162516
0.0527555
0.0356169
0.00107021
0.000160931
0.0405814
0.0552023
0.0461163
0.00111548
0.0791153
0.000163182
0.000170592
0.00015742
0.000156806
0.000149404
0.00024238
0.000149875
0.0185702
0.000176071
0.000201712
0.000144322
0.000186084
0.000164106
0.0001515
0.000149942
0.000148478
0.000175508
0.000152629
0.000149291
0.000170415
0.0564995
0.000153603
0.000193453
0.000146223
0.000175507
0.000170238
0.000148676
0.000155415
0.00014716
0.0703955
0.0631105
0.000206255
0.00464491
0.000160905
0.00018881
0.000148612
0.000170808
0.000148302
0.000149118
0.000149444
0.0584135
0.000146058
0.000174096
0.000242731
0.000156615
0.000161975
0.000147637
0.0678776
0.000208267
0.0409963
0.03346
0.000202681
0.000234384
0.0313586
0.000242669
9.10126e-05
0.0167924
0.000176064
0.000159048