/*--------------------------------*- C++ -*----------------------------------*\
| =========                 |                                                 |
| \\      /  F ield         | OpenFOAM: The Open Source CFD Toolbox           |
|  \\    /   O peration     | Version:  v2012                                 |
|   \\  /    A nd           | Website:  www.openfoam.com                      |
|    \\/     M anipulation  |                                                 |
\*---------------------------------------------------------------------------*/
FoamFile
{
    version     2.0;
    format      ascii;
    class       volScalarField;
    location    "300";
    object      nut;
}
// * * * * * * * * * * * * * * * * * * * * * * * * * * * * * * * * * * * * * //

dimensions      [0 2 -1 0 0 0 0];


internalField   nonuniform List<scalar> 
13851
(
0.000818135
0.00159222
0.0016951
0.00408948
0.00583164
0.00125851
0.00280289
0.00586219
0.0137987
0.00583937
0.00037043
0.00583282
0.00300591
0.00539049
0.00117488
0.0014002
0.00226101
0.00431793
0.000655931
0.000942826
0.00102511
0.000759172
0.00149463
0.00583557
0.00324749
0.00183001
0.000257811
0.00265062
0.0132088
0.00584421
0.00987073
0.00328515
0.00106908
0.0150347
0.00049416
0.0130831
0.0058359
0.00218166
0.0141507
0.00289863
0.0150015
0.0133829
0.000192577
0.000204745
0.0135949
0.00585054
0.0058527
0.00138876
0.00140579
0.0028355
0.00325388
0.00283533
0.00140121
0.00196618
0.00488911
0.00273329
0.000906376
0.0152883
0.000187328
0.00486714
0.00583287
0.000611933
0.00583394
0.00133709
5.32154e-05
4.43729e-05
0.00292985
7.77389e-05
0.0028559
0.00629155
0.00950874
0.000936498
0.00374751
0.00355903
0.0017507
0.00105722
0.00365108
0.00583918
0.00251485
0.00583688
0.0025008
0.000552649
0.000489143
0.00603473
0.00526687
0.00997006
0.000798915
0.00303623
0.00584034
0.00979254
0.00200161
0.00288254
0.000296926
0.00922088
0.0140205
7.45989e-05
0.00584858
0.0013729
0.00352918
0.000214234
0.00132196
0.000159008
0.000136627
0.00322755
0.00585459
0.00071748
0.0058538
0.00997469
0.00294752
0.00465509
0.000458163
0.00585197
0.000453033
0.000487693
0.00110719
0.00206554
0.00583395
0.00585292
0.00344107
0.00675437
0.000108507
0.00586878
0.00239325
0.0122367
0.000571972
5.05348e-05
0.00584866
0.000299195
0.0152265
0.00100892
0.000761661
0.000769439
0.000914776
0.0151051
0.000420582
0.0139392
8.90375e-05
0.00980562
0.000211207
0.00119341
0.000481897
0.00146277
0.0058419
5.91909e-05
0.0038063
0.00123839
0.00583849
0.0093018
0.0115187
0.000287601
0.00126815
0.000436444
0.000488347
0.00069348
0.00192566
0.00426432
0.00583283
0.0138977
0.00119257
0.00260716
0.00583509
0.013178
0.000813924
0.00128302
0.00564785
0.0142098
0.0142705
0.00469663
0.000488023
0.00968676
0.00583308
0.00583333
0.000684655
0.00583238
0.0144363
0.000358959
0.00118213
0.00583393
0.00181374
0.00128027
0.000709427
0.000108733
0.000528122
0.00116884
0.000208252
0.0118078
0.00108665
0.000330597
0.00232799
0.00584705
0.00168077
0.00124293
0.00338644
0.00117454
0.00113011
0.00138718
0.000929727
0.00380753
0.00292109
8.90768e-05
0.00048857
0.0147808
0.0152703
0.00134112
5.77824e-05
0.0142451
0.000919521
0.0015198
0.0139903
0.00116857
0.00140664
0.00325075
0.000517778
0.00583518
0.000540308
0.00095053
0.00300206
0.000934072
0.00320637
3.41855e-05
0.00583331
0.000862989
0.00427801
0.0142003
0.000365017
0.00142732
0.00583578
6.69157e-05
0.00583364
0.000485651
0.00447405
0.000364413
0.00121795
0.00583357
0.0151558
0.00584474
0.000999639
0.0151945
0.000207326
0.00583533
0.000236991
0.00561075
0.0134341
0.0014137
0.00103286
5.03752e-05
0.000924225
0.00175293
8.98063e-05
0.000456362
0.0035658
0.000629695
0.00584047
0.00138944
0.00136202
0.0129865
0.00517045
0.00584572
5.18005e-05
0.00583986
0.00107506
0.000783129
0.00150201
0.000878641
0.000548033
0.00471572
0.000146955
0.00130044
0.00158836
0.00583375
0.00321347
0.000363861
0.0146118
0.00178789
0.00105344
0.00587467
0.000651205
0.000715868
0.00105231
0.000889678
0.014648
0.00329671
0.00123743
0.00138772
0.00234534
0.00585627
0.00583272
0.000957631
0.000368622
0.00584769
0.00583512
0.00583382
0.00583076
0.00115016
0.00583267
0.014053
0.00105729
0.0040922
0.0129749
0.0114252
0.00240569
0.000842793
0.00321524
0.00130871
0.00213928
0.00100329
0.00506482
0.0102794
0.000741638
0.00583101
0.0103212
0.00583301
0.000643658
0.00486732
0.00118766
0.00259288
0.00118658
0.000315206
0.0109991
0.000423012
0.000135429
0.0144677
0.0138573
0.00246538
0.00271497
0.00452986
0.000363303
2.85273e-05
2.93146e-05
0.000756013
0.000726378
0.000381704
0.0035811
0.000115789
0.00582927
0.0058378
0.000802217
0.0104131
2.8857e-05
0.00585535
0.0138658
0.000364763
0.000722161
0.00257827
0.00359371
0.000727622
0.00138241
0.00102604
0.00130957
0.0126683
0.00215488
0.000649032
0.00133289
0.000952545
0.000349019
0.00584093
0.00364949
0.000282081
0.000221121
0.000655954
0.00036373
0.0127172
0.00100733
0.0150592
0.000914372
0.00585683
0.00159046
0.000903132
0.00500008
0.000837257
0.00190261
0.00036477
0.00183164
0.000298541
0.00463084
0.00218994
0.0002376
0.000444328
0.00105049
0.00552456
0.000958047
0.0153101
0.00142665
0.00199748
0.000667364
0.000264887
0.00397068
0.0013551
0.000338575
0.00177596
0.00564938
0.00102745
0.0110958
0.00381877
0.00119519
0.00211523
0.00144589
0.000237486
0.00158879
0.00901706
0.00100196
0.00169428
8.2867e-05
0.000611911
0.000801799
0.0036968
0.00362782
0.000269816
0.00479914
0.000341403
0.000836879
0.00176444
0.00586725
0.000225747
0.0112067
0.00248439
0.00131284
0.000585856
0.00068497
0.00205656
0.0058428
0.0025892
0.000366135
0.00130987
0.00040279
0.00328528
0.00417855
0.00583253
0.00346041
0.000582567
0.0058405
0.00167506
0.0011997
0.00583295
0.0103897
0.000665271
0.00100427
0.00197698
0.00203223
0.00241587
0.0011553
0.00377463
0.00245874
0.00781871
0.0110534
0.000780764
0.000991235
0.00583388
0.00583255
0.00138746
0.000682671
0.00181438
0.00500236
0.00201794
0.000112783
0.00212112
0.00961097
0.00583266
0.00190906
0.0135854
0.000264328
0.0058346
0.00583334
0.00194217
0.00361086
0.000248209
0.00992167
0.00109418
1.53349e-05
0.00146079
0.00583332
0.0149847
0.000623013
0.000227304
0.00347285
0.0133577
0.000240723
0.000381417
0.00299562
0.000736044
0.000300529
0.00155204
0.014608
0.000346767
0.00156822
0.000879521
0.000430132
0.00475149
0.0130349
0.00182266
0.00101665
0.000916408
0.00106297
0.000250152
0.000680441
0.00583156
0.00204989
0.0148105
0.00756395
0.00124726
0.00854784
0.00705137
0.000654443
0.000412286
0.0058346
0.000299194
0.00583894
0.00585113
0.000334632
0.0147664
0.00179458
0.00143257
0.000138488
0.000684087
0.00584142
0.00838672
0.00584667
0.0152704
0.000253031
0.0058378
0.00231633
0.000405755
0.00168026
0.00584725
0.00509515
0.00101939
0.00587358
0.012749
0.000679041
0.000811844
0.00100319
0.008104
0.00488635
0.00587821
0.000659336
0.00282699
0.0056607
0.00654464
0.015286
0.000814651
0.00176497
0.00583928
0.00160588
0.0152973
0.0140879
0.00589537
0.00391509
0.00582122
0.00256267
0.000803624
0.00238761
0.0058428
0.000990717
0.0129884
0.000312543
0.0126174
0.00185612
0.00584029
0.0139996
0.00583423
0.000342597
0.00183635
0.00171122
0.00103674
0.0126308
0.00480914
0.00132678
0.00239152
0.00273645
0.000562731
0.0134266
0.00752613
0.00264699
0.00497849
0.000135196
0.0128361
0.000961178
0.00149302
0.000499656
0.00219692
0.00140785
0.00433015
0.00881594
9.65417e-05
0.0152009
0.00111431
0.012923
0.0021804
5.41317e-05
0.000866671
0.00583325
0.000596723
0.0105356
0.000486034
0.00115098
0.00325406
1.47291e-05
0.000220984
0.00315327
0.00413771
0.00583307
0.000473438
0.000642901
0.00583268
0.0144693
0.00583296
0.00115285
0.000859728
0.00176721
0.00315642
0.00558596
0.000325538
0.00371729
0.000770424
0.0136551
0.000766982
0.005834
0.0058693
0.000677526
0.00205167
0.000485161
0.00173771
0.000249594
9.67144e-05
0.00583417
0.0036143
0.00583555
0.0019331
0.00318333
0.0137917
0.000363936
0.00258662
0.000129764
0.000198045
0.0128018
0.0059064
0.00907754
0.00037917
0.000980866
0.00165412
0.000280005
0.00585973
0.000447971
0.00404647
0.0129186
0.00377459
0.00257523
7.38654e-05
0.0096682
0.00583576
0.00583556
0.00163767
0.00247267
0.00611054
0.00202893
0.000621649
0.00216775
0.00519013
2.7289e-05
0.000596684
0.000243388
0.00583806
0.00119803
0.00016382
0.00174142
0.00134739
0.00118848
0.000227729
0.000466992
0.00136776
0.000953769
0.000974993
0.000114273
0.000127327
0.000665553
0.0103995
0.00411178
0.00139959
0.0088923
0.000288657
0.00714392
0.000832238
0.00471053
0.00135215
0.000662804
0.00076124
0.00583636
0.00583549
0.00179604
0.00368763
0.00190759
0.0149404
0.00583416
0.00703519
7.72169e-05
0.00285809
0.0004248
0.00110435
0.0017788
0.00405488
0.000239032
0.000308664
0.000303831
0.00224128
0.000334598
0.00174427
0.0011332
0.000829423
0.000462203
0.00426382
0.00583539
0.000928321
0.00549411
0.0135115
0.00583055
0.000251286
0.0145906
0.000386351
0.0143124
0.00439833
0.00110505
0.000248847
0.000382668
0.0058338
0.00339296
0.00583816
0.005868
0.00583245
0.000577137
0.000455373
0.000147977
0.00208091
0.00122765
0.013765
0.00583643
0.00480915
0.000503754
0.00583615
0.00583346
0.0140609
0.00121163
0.00652304
0.0101144
0.00107386
0.000830024
0.00587206
0.0151839
0.000852775
0.00181866
4.03575e-05
0.00583383
0.00142808
0.0058933
0.0016237
0.00417189
0.000839341
0.00082345
0.000391839
0.0136402
0.000334016
0.000580598
0.013199
0.00583712
0.013168
0.00583411
0.0023152
0.00219858
0.00118817
0.00116349
0.000326486
0.000780165
0.00583478
0.00583643
0.000585392
0.00216335
0.00583497
0.00198974
0.00030016
0.0058305
0.000178965
0.000188968
0.00510007
0.000341442
0.00865511
0.000204748
0.00583369
0.00028717
0.0058341
0.00132435
0.0091613
0.0126193
0.0102843
0.0130368
0.00246871
0.0027043
0.000132169
0.00127096
0.00585654
0.00119553
0.00105754
0.00608172
0.00168974
0.00123869
0.00457679
0.00584433
0.000416463
0.000793372
0.00196023
0.00583539
0.00111212
0.000397604
0.0150697
0.00196328
0.00583323
0.0029399
0.00145477
0.000957681
0.00583234
0.0148925
0.00585747
0.00396527
0.00583474
0.000206509
0.00106161
0.000115625
0.000860814
0.00379277
0.00158937
0.00583078
0.000314562
0.00141146
0.00741101
0.00257545
0.00597069
0.0149693
0.00084535
0.0058302
0.00267752
0.00891163
0.00121105
0.0014903
0.00354035
0.00300288
0.00445741
0.00076697
0.0058335
0.00583073
0.00564755
0.00108134
0.0058333
0.00184418
0.0151609
7.95318e-05
0.0114859
0.00584401
0.00997012
0.00583402
0.0058305
0.00207386
0.00583038
0.00583518
0.0108851
0.0101106
0.00316857
0.0058329
0.000784001
0.00585236
0.00354123
0.000294851
0.00696527
0.0145147
0.00185079
0.00135704
0.00583326
0.0010482
8.99445e-05
0.00590315
0.00583432
0.000254835
0.00408967
0.000910243
0.000507123
0.00111086
0.00583388
0.000715841
0.00130116
0.00273843
0.00114859
0.00138691
0.000770844
0.0058349
0.00361065
0.00365757
0.00658431
0.00113473
0.0062035
0.000948083
4.98702e-05
0.00246846
0.000435207
0.000814325
0.00582964
0.0131004
0.00131947
0.00583018
0.00281016
0.0014816
0.0146378
0.000648229
0.00583735
0.000696133
0.00527213
0.00142929
0.000477152
0.00100824
0.00114842
0.0152868
0.00583281
0.000899278
0.000624837
0.000804784
3.11962e-05
0.00151849
0.000550429
0.00172008
0.0153676
0.00416443
0.00600387
0.00105487
0.00956541
0.00280583
0.00378959
0.00115021
0.00378066
0.00226019
0.00583575
0.0019636
0.00583356
0.0148698
0.000551487
0.000424045
0.000428115
0.000957579
0.00584288
0.00242073
0.000799992
0.00242544
0.000733292
0.0131235
0.000475404
0.00115435
0.000320566
0.0103983
0.00135269
0.0110624
0.00583552
0.000410728
0.00133732
0.00410935
0.000342764
0.00583339
0.00583706
0.00013246
0.00357271
0.00030854
0.00205785
0.00050212
0.000694419
0.000791196
0.00057606
0.0037039
0.0139479
0.000754106
0.00583498
0.000714058
0.00150849
0.0115294
0.00111888
0.000143848
0.00122516
0.00153702
0.000246114
0.00301649
0.0131154
0.00122448
0.0070298
0.000569815
0.0058339
0.00589467
0.000725746
0.00407019
0.00345027
0.000316781
0.00583445
0.000913681
0.000312342
0.00589069
0.0119641
0.00324131
0.00108306
0.00181426
0.0129581
0.000671564
0.00583176
0.00380196
0.000596142
0.00588031
0.00584379
0.00176271
0.00190808
0.0143843
0.00879364
0.00157673
0.0143386
0.00151295
0.00519861
6.58897e-05
0.005835
0.000345955
0.0058993
0.00583109
0.0010753
0.00218222
0.0145841
0.00396628
0.000924726
0.00453554
0.00951249
0.000379649
0.00368573
0.0023211
0.000482674
0.00589778
0.00589136
0.000486747
0.00272345
0.000987973
0.00585061
0.000479274
0.000892381
0.00072657
0.000446281
0.00587491
0.00584225
0.002578
0.00126731
0.00202864
0.0153074
0.00120917
0.00583341
0.00588306
0.00584529
0.000940815
0.00110582
0.0127961
0.0141019
0.000342333
0.00583338
0.000273668
0.00363708
0.00439883
0.00759338
0.00031872
0.00510198
0.0134493
0.00859247
0.00161179
0.00124012
0.0116281
0.00113443
0.000310672
0.00011423
0.000197715
0.00210155
6.18318e-05
0.0048765
0.00914369
0.00230105
0.0058356
0.000861956
0.000266149
0.000468699
0.00111184
0.00583286
0.00166949
0.00100699
0.00193154
3.83622e-05
0.00583379
0.00961499
0.00415167
0.00451741
0.0013055
0.00189353
0.00583324
0.0125518
0.000780007
0.0142217
0.00974005
0.00583315
0.000983714
0.000883519
0.00197588
0.000929999
0.00117077
0.00583547
0.00133374
0.000555256
0.00829324
0.0010672
0.00353785
0.00107019
0.00137744
0.000120854
0.000757036
0.000654851
0.00584736
0.000550803
0.0107241
0.00100598
0.00854022
0.0101532
0.0142656
0.00880449
0.00584537
0.0058394
0.00433142
0.000964846
0.00169965
0.00067714
0.00193782
0.00420415
0.00583051
0.00584
0.00097878
0.00583849
0.00157327
0.00106312
0.00775863
0.00122927
0.0058337
0.00583369
0.0041785
0.00583314
0.000265762
0.000931199
0.000329485
0.00916833
0.00583676
0.00584632
0.0152224
0.0150095
0.00311728
0.00542678
0.000138593
0.00668072
0.00583342
0.000191722
0.00141325
0.00583438
0.00256674
0.0052336
0.0023472
0.000755451
0.00038974
0.00360943
0.00444199
0.000520769
0.00108073
0.00583594
0.00762385
0.00445787
0.000944992
0.00583346
0.00325535
0.00122313
7.87269e-05
0.00245147
0.000165098
0.00964807
0.00107643
0.0149454
0.00438823
0.00388026
0.000157064
0.00583487
0.00219918
0.00203041
0.00015645
0.00219566
0.00502922
0.00583098
0.00577221
0.00211744
0.000418824
0.00100001
0.00287893
0.00583402
9.04976e-05
0.00586028
0.00840802
0.00583342
0.0009352
0.00169662
0.00672709
0.000848057
0.00583371
0.00107209
0.00583181
0.00208214
0.000227338
0.00460672
0.00128211
0.00583595
0.00142943
8.34484e-05
0.00115522
0.00021638
0.000279859
0.000462311
0.00139421
0.00107034
0.00114075
0.00586911
0.00505088
0.00210758
0.00111692
0.00583181
0.000539023
0.0058349
0.000939438
0.00583451
0.000225347
0.00167809
0.00584094
0.00254399
0.00123522
0.00583357
0.00127828
0.00582898
0.000165804
0.0104342
0.000848863
0.00553718
0.00583102
0.00583579
0.000147159
0.00583494
0.00583512
0.00190209
0.00109001
0.000967145
0.000232406
0.00279488
0.000468016
0.00586343
0.00583328
0.00583474
0.00583477
0.000280883
0.00589756
0.00100758
0.000903496
0.00583464
0.00583164
0.0132928
0.00583521
0.000642307
0.00232717
0.0141563
0.000823448
0.000128271
0.000349547
0.000400535
5.34821e-05
0.0027968
0.000406173
0.000838816
0.00586727
0.00585017
0.0010025
0.00114365
0.00440816
0.000339817
0.00583259
0.0015277
0.000408935
0.00325659
4.48875e-05
0.00257608
0.00013276
0.0072155
0.00519997
0.00583406
0.00171829
6.79025e-05
0.00341964
0.000576307
0.000130254
0.0140403
0.0017621
0.00132651
0.00154549
0.000344312
0.00583621
0.000279891
0.0031166
0.00237042
0.00586734
0.00838627
0.00056702
0.000920879
0.0140302
0.0016859
0.00167608
0.00583226
0.0028445
0.00678319
0.00104093
0.0083891
0.000422241
0.0044448
0.00918666
0.00583358
0.000380784
0.000471274
0.0028233
0.000952375
0.00583363
0.0123809
0.00959815
0.00587774
0.000867424
0.00157043
0.000478759
0.000615903
0.00160351
0.000926034
0.00167785
0.000644122
0.00146705
0.00583354
0.00151201
8.10209e-05
0.00804169
0.00583321
0.00122841
0.000604521
0.00173399
0.00583596
0.00951463
0.00159674
0.000950439
0.00585589
0.000456186
0.000531167
0.000137481
0.00583382
0.00159996
0.000313433
0.000236889
0.000388841
0.00583366
0.0013744
0.0016118
0.000579339
0.00583406
0.000268795
0.00186637
0.000302296
0.0138004
0.00194564
0.00325328
0.000559402
0.00544842
0.000361905
0.00583497
0.000904891
0.0015348
0.00100637
0.000501076
0.00151206
0.000310971
0.000338324
0.000855095
0.000977208
0.00583786
8.67759e-05
0.00172822
0.000419839
0.000696953
0.000843361
0.000474513
0.00583614
0.00522996
0.000270542
0.00293756
0.00168393
0.000983127
0.00492608
0.000339333
0.00168386
0.013476
0.000256266
0.000306536
0.000624048
0.0010171
0.00583611
3.57186e-05
0.00589272
0.000471588
0.00185302
0.0125262
0.000607663
0.000250303
0.00583345
0.00358419
0.00583603
0.00136064
0.000695345
0.00588972
0.0122764
0.0026833
0.0058304
0.00063934
0.000148574
0.00583492
0.00890239
0.00583587
0.00101036
0.00171951
0.0021402
0.000773586
0.000965874
0.0044387
0.000482087
0.000468242
0.00106071
0.000408079
0.00583527
0.00458777
0.0124624
0.00583049
0.000859566
0.000749141
0.000374091
0.00874784
0.00583057
0.00140696
0.000462285
0.0107215
0.00583404
0.00583381
0.0007331
0.00676685
0.00583017
0.000385353
0.000404593
0.000529922
0.000571662
0.000739734
0.00092831
0.00583527
5.20264e-05
0.00583296
0.00416269
0.000744762
0.00583833
0.00208938
0.00040087
0.00583313
0.00354658
0.000737578
0.0119957
0.00361177
0.00480978
0.0058342
0.00583408
0.000694391
0.00583301
0.00589877
0.0100181
0.005836
0.000970115
0.00129959
0.0118651
0.000509257
0.00589644
0.000772099
0.000425107
0.00583225
0.00385433
0.00583362
0.00291066
0.00583452
0.000940045
0.0011134
0.00586906
0.0058627
0.000878812
0.000987297
0.000865922
0.000156515
0.000414572
0.00114263
0.0140306
0.000240536
0.00209389
0.00133909
0.0002219
0.000487828
0.00107428
0.00188892
0.00805315
0.00564343
0.00439598
0.00175346
0.00401802
0.000611123
0.000234073
0.00587528
0.00378465
9.69456e-05
0.0058353
0.00229455
0.0058333
0.00583918
0.00251356
0.00393626
0.00336271
0.00583032
0.00432837
0.00583241
0.000152535
0.00209425
0.00111772
0.000176241
0.00351317
0.0114573
0.00076316
0.00583501
0.00121363
0.00586173
0.000381953
0.00438926
0.0125593
0.0010297
0.000789541
5.78596e-05
0.00969667
0.000546483
0.000434543
0.000836694
0.000313531
0.00380501
0.0022125
0.000111593
0.000609188
0.00346802
0.0058499
0.00665674
0.0027339
7.29898e-05
0.00724872
0.000539248
0.00527929
0.000839746
0.00100339
0.000816994
0.0106537
0.000712413
0.00583267
0.000311365
0.000553881
0.00141086
0.00583669
0.00583293
0.0141822
0.00583558
0.000588937
0.0147614
0.000639467
0.00485543
0.00031448
0.000919585
0.00856394
0.00583086
0.00520232
0.00583285
0.00053746
0.00247489
0.00358383
0.00115256
0.0149894
0.00570601
0.00583387
0.0081717
0.00444469
0.00279167
0.00320789
0.0108637
0.00585733
0.000841827
0.00583233
0.00804601
0.0148026
0.00043827
0.000113738
0.000451456
0.00459067
0.00583357
0.0124756
0.0058325
0.00137468
0.00587439
0.00193373
0.00583429
0.00908038
0.00583372
0.00144915
0.00585884
0.000199493
0.000266466
0.0058572
0.000283495
0.0101338
0.00109437
0.00638894
0.00468837
0.000240108
0.000949626
0.000946359
0.000605958
0.00197368
0.00493084
0.00188668
0.000413658
0.00376966
0.00697208
0.00645257
0.000963125
0.00075453
0.000568691
0.000518855
0.0143687
0.00587476
0.00585496
0.000383298
0.0094632
0.00059667
0.00037574
0.000923379
0.00583419
0.00941128
0.00930359
0.007521
0.00583424
0.00586056
0.00914472
0.000260692
8.02825e-05
0.0121882
0.00121717
0.000796591
0.000411542
0.000577485
0.00428804
0.000485165
0.000916674
0.00583717
0.00725098
0.00583436
0.000556924
0.00106412
0.000514182
0.000102453
0.000295395
0.00199866
0.00158153
0.000504584
0.00390218
0.0152828
0.00067244
0.00171427
0.000592032
0.000591319
0.00017265
0.00583169
0.000614976
0.000128947
0.000388042
0.00447183
0.000541955
0.000924863
0.000317751
0.00807764
0.000362845
0.00105456
0.000183897
0.00734883
0.00244297
0.00149341
0.00738977
0.000439453
0.00118504
0.0014174
0.00583329
0.00021695
0.00207555
0.0132844
0.00046059
0.00158789
0.00583465
8.5935e-05
0.000556836
0.000129937
0.00452026
0.00584826
0.00583397
0.000694553
0.00583432
0.0014748
0.00142709
0.00190886
0.000562949
0.00584486
0.000876151
0.00238156
0.00145281
0.00204411
0.00583575
0.00971498
0.00149491
0.00583353
3.85107e-05
0.000215706
0.000258941
0.00132429
0.000952514
0.00127783
8.12774e-05
0.00119
0.00165434
0.00583432
0.00347221
0.00238477
0.00561364
0.00149955
0.00558559
0.00583332
0.000215721
0.00584457
0.00088754
0.00134096
0.000129955
0.00583563
0.000456164
0.00110476
0.0114132
0.00583362
0.0003203
2.76825e-05
0.00133793
0.000150013
0.00148208
0.00214515
0.000240669
0.00076598
0.00359742
0.00102446
0.000789901
0.00583476
0.00587575
0.000327504
0.00583451
0.00265199
0.000331165
0.00583583
6.9059e-05
0.00585771
0.0152675
0.00937677
0.00780782
0.00889606
0.0102984
0.00265395
0.00583382
0.0105347
0.00585331
0.00585867
0.00583536
0.000191729
0.0146595
0.00401174
0.000467369
0.00465166
0.00141841
0.000325593
0.00558152
0.00583092
0.00499533
0.0152469
0.00583431
0.00583387
0.00875956
0.00137205
0.00295183
0.00583569
0.0094913
0.0102551
0.00426449
0.00104811
0.00583557
0.0121108
0.000137542
0.00330601
0.00382129
0.00242615
0.00856283
0.00585355
0.00471754
0.00583539
0.00583616
0.014975
0.00575151
0.0001623
0.00100966
0.00266714
0.00197693
0.000375858
0.000269784
0.000628004
0.00983334
0.0120883
0.00582995
0.00165444
0.00150834
0.00144763
0.0135741
0.00583674
0.00446451
0.00042893
0.00131266
0.00129695
0.00582991
0.000409658
0.000592312
0.00390214
0.00583449
0.000424261
0.00241552
0.00102495
0.00177394
0.0148835
0.00274786
0.000174039
0.0016699
0.00467817
0.000965993
0.000943296
5.3056e-05
0.0144945
0.0105596
0.00583305
0.00578059
7.89898e-05
0.0147118
0.00241946
0.000583717
0.000711441
0.00330011
0.0092217
0.00583339
0.00104634
0.00883522
0.0153448
0.000308674
0.0153257
0.000577195
0.000848097
0.00585713
0.0139677
0.00060586
0.00453131
0.00585784
0.00948444
0.0058404
0.00583392
0.00108677
0.000362136
0.000352771
0.00373198
0.010058
0.0016035
0.00585038
0.000514607
0.00809981
0.00016332
0.0044722
0.0124957
0.00102002
0.00162221
0.00177116
0.00583024
0.000499054
0.00583429
0.00172233
0.000157138
0.00214626
0.00583837
0.000457603
0.000815511
0.00585819
0.00891
0.00116298
0.000766768
0.00587431
0.000330057
0.00583358
0.000251959
0.00167612
0.000168355
0.00141461
0.00937096
0.00022163
0.0152886
0.000354464
0.000550872
0.00584067
0.00991329
0.000155092
0.000426881
0.000105186
0.00583516
0.00504433
0.000360908
0.000508169
0.000949774
0.0110141
0.010241
0.0005664
0.0068379
0.000485881
0.000308721
0.00583361
0.00339597
0.00583743
0.00109511
0.000533463
0.000313088
0.0135131
0.00584212
0.00583131
0.00159512
0.00058259
0.00136981
0.00585048
0.0148849
0.00139486
0.00161348
0.00227687
0.00406564
0.000442413
0.0107542
0.000152323
0.000967826
0.000374595
0.00583369
0.0013362
0.000412155
0.000454628
0.00308077
0.00582916
0.00340478
0.0101777
0.0129462
0.00588325
0.000450281
0.000205383
0.00374021
0.00583172
0.00297692
0.0152356
6.82917e-05
0.000489016
0.002257
0.00180091
0.00911136
0.000263354
0.000662906
0.00224446
0.000980377
0.00584018
0.000177277
0.00039223
0.0055036
0.0119439
0.0124377
0.0149009
0.0108952
0.00890572
0.00838632
0.0101892
0.00103052
0.00589542
0.00928843
0.00777589
0.00387661
0.00289866
0.000964386
0.00481966
0.00572681
0.00396735
0.015125
0.000956543
0.00583398
0.000386306
0.000832773
0.000759589
0.0087301
0.000423324
0.000791914
0.00582921
0.0148675
0.00223982
0.000438443
0.00175749
0.000871487
0.00244308
0.00583654
0.000696108
0.00068948
0.000997759
0.00138177
0.00134217
0.000788953
0.000954457
0.00856126
0.000353466
0.00146876
0.0110936
0.000994772
0.00583363
2.81612e-05
6.812e-05
0.00568704
0.000631862
0.00312416
0.00113047
0.000808365
0.000424863
0.00583072
0.00025147
0.00143973
0.00118459
0.000204818
0.00583485
0.0016566
0.00991423
0.0129772
0.0151633
0.00034725
0.00139371
0.00583753
0.00578764
0.000974264
0.00585428
0.0109214
0.00584315
0.00583601
0.0058396
0.0122046
0.000981416
0.00170972
0.00114118
0.000712752
0.000307545
0.000913674
0.000229906
0.00108214
0.000617936
0.00445116
0.00142478
0.00869373
0.000562474
0.0150026
0.000850583
0.00582926
0.00583926
0.000803498
0.000701564
0.00583146
0.000270188
0.000879361
0.00046115
0.00782214
0.00374047
0.00837707
0.00583601
0.000127932
0.000458623
0.000511902
0.0058377
0.00041995
0.00105084
0.00789163
9.6819e-05
0.000440279
0.00583418
0.0128186
0.000421721
0.00809227
0.00736968
0.000961403
0.000934427
0.000545497
0.00888985
0.000209933
0.0132842
0.000513982
0.0039947
0.000535653
0.00588767
0.00781272
0.000781411
0.00070377
0.000293743
0.0146554
0.00457525
0.00448194
0.00987712
0.000596572
0.00914097
0.000250554
0.00583545
0.000666679
0.000987825
0.000162959
0.00494077
0.000515872
3.33353e-05
0.00112896
0.0058354
0.00472194
0.00034931
0.00139385
0.000162996
0.0043788
0.00343208
0.000304043
0.00195243
0.0032131
0.00583299
0.000562564
0.000102565
0.0014813
0.000719363
0.000538925
0.000543014
0.00321174
0.000213129
0.0009575
0.000853833
8.39519e-05
0.00222231
0.000167436
0.000156546
0.00588351
0.00104656
0.00754414
0.0102046
0.00359676
0.000191828
0.00800314
0.004946
0.00132495
6.94e-05
0.00940014
0.000454568
0.00815799
0.000602936
0.00488447
0.00127418
0.00583615
0.00135591
0.000598914
0.00267181
5.0455e-05
0.000992063
0.000292155
0.0113191
0.0133569
0.00286042
0.0119273
0.00584022
0.00218453
0.0123522
0.00583358
0.00583146
0.00955052
0.00275821
0.00583393
0.000819815
0.0137036
0.0006491
0.00181596
0.0107497
0.00583218
0.0126211
0.0099734
0.00583397
0.000172728
0.00114717
0.00991281
0.00993513
0.0104768
0.00874736
0.00583667
0.00101155
0.000650481
0.00095817
0.00583428
0.000988817
0.00583693
0.0109771
0.000867963
0.000156383
0.000909271
0.0114039
0.000890912
0.000940889
8.86369e-05
0.00249408
0.000463582
0.00186387
0.00583567
0.00325826
0.000352863
0.0058511
0.0106885
0.00553662
0.00401915
0.0026322
0.0152803
0.00210144
0.00584288
0.000260538
0.000430037
0.00026123
0.00802918
0.00948378
0.000165777
0.00184518
0.00184576
0.00106413
0.00165761
0.000753299
0.00145442
0.00583451
7.35694e-05
0.000769316
0.000486771
0.00778131
0.000885616
0.000318343
0.000233118
0.000637856
0.00151772
0.00584304
0.000373336
0.00584024
0.000825575
0.000195554
0.00910133
0.00583261
0.000658227
0.00553788
0.00223164
0.000444685
0.00187087
0.000689122
0.00979047
0.000826896
0.000918073
0.00168439
0.00583183
0.012627
0.00583342
0.00210485
0.000950269
0.0130039
0.000539766
3.21842e-05
0.00012159
0.00157793
0.00290197
5.93241e-05
0.000641071
0.0137554
0.000537048
0.000335057
0.000754316
0.00169088
0.00100975
0.000175657
0.000583779
8.52817e-05
0.000873043
0.000317158
0.00125522
0.00470627
0.000272526
0.00413802
0.000912596
0.00583793
0.00110157
0.000956935
0.000943423
0.0107139
0.00110356
0.000658781
0.00582868
0.00251121
0.00583434
0.00583432
0.00215226
0.00583473
0.00118317
0.00326221
0.00104145
0.000944441
0.00206858
0.00325887
0.000724283
0.00347863
0.00830539
0.00780032
0.00591432
0.00131966
0.000533457
0.00186455
0.0058342
0.000390696
7.47265e-05
0.000518212
0.0114624
0.00112285
0.0119971
0.00137161
0.00583444
0.00583142
0.00996047
0.00481735
0.00126058
8.70949e-05
0.000603855
0.00252024
0.0147773
0.0058337
0.000883569
0.0046042
0.00143209
5.54061e-05
0.00125984
0.00253886
0.0017118
0.00022625
0.000973862
0.00128958
9.97834e-05
8.49261e-05
0.00031072
0.0014958
0.00234293
0.00162534
0.001402
0.0128283
0.0099678
0.0132914
0.00156952
0.00406644
0.00141128
0.00225184
0.00583382
0.00167035
0.00583377
0.00185225
0.00408625
0.00584328
0.00586751
0.00045302
0.00425674
0.00153743
0.000271651
0.00280657
0.00483791
0.000544735
0.0150933
0.000329138
0.00323368
0.0127862
9.39812e-05
0.00405219
0.000175555
0.00583551
0.000198462
0.000825693
0.000103405
0.0107528
0.00028454
0.00905269
0.00583783
0.0107351
0.00283465
0.00115937
0.00174056
0.000531642
0.005833
0.000149354
0.0128812
0.00011084
0.000751018
0.00049488
8.38048e-05
0.00475551
0.00588809
0.00234895
0.00113502
0.00179667
0.0153187
0.00750862
0.00023154
0.00583479
0.000267926
0.000287768
0.000585787
0.00272235
0.00812737
0.00457961
0.00583551
0.00527939
0.00108151
0.00337441
0.0041438
0.0131283
0.00584166
0.000399294
7.91621e-05
0.0058884
0.014676
0.00227162
0.0152059
0.00421979
0.000719551
0.0016911
8.56863e-05
0.00239341
0.000846467
0.00584227
0.00210835
0.00860009
0.00189311
0.000278976
0.00110504
0.000857571
0.000196111
0.000514298
0.00448226
0.000180164
0.000809102
0.00203161
0.0014081
0.00566272
0.00584956
0.00583386
0.00207111
0.00264029
0.000679966
0.00903148
0.000705676
6.41434e-05
0.00130105
0.00168127
0.00203259
0.0146794
0.0109927
0.00161644
0.00178384
0.00579679
0.0090933
0.000383835
0.000793928
0.0085063
0.0125302
0.00260632
0.0003737
0.0102965
0.000182278
9.04174e-05
0.000418057
0.00222174
0.00586324
0.000153046
0.00583625
0.00384784
7.42012e-05
0.000100933
0.00582945
0.00104676
0.000171765
0.00094609
0.00583643
0.00583202
7.03526e-05
0.00246222
0.0036031
0.00176892
0.0130517
0.00156732
0.000226436
0.00583212
5.72888e-05
8.13708e-05
0.00244589
0.000646074
0.00583431
0.0153461
0.0144589
0.000672736
0.000498334
0.000417148
0.00072224
0.00583355
0.00154402
0.00584667
0.00237408
0.00583508
0.0115182
0.00584568
0.00182826
0.00018525
0.000610422
0.0012694
0.00583844
0.0138687
0.00038797
0.00261453
0.0074593
0.000362841
0.000708015
0.0072648
0.000647402
0.000346301
0.00198398
6.68972e-05
0.00022563
0.000415184
0.015099
0.00583632
0.00374225
0.000189054
0.010567
0.00582969
0.00103366
0.0141552
0.00583599
0.00463746
0.00059147
0.00437823
0.00583191
0.0029799
0.000424004
5.5424e-05
0.00207814
0.000515358
0.00586755
0.00319196
0.00917405
0.00943068
0.00589752
0.00165007
0.0046993
0.0016274
0.00583351
0.000343594
5.08045e-05
0.014321
0.00473089
0.000267508
0.000702867
0.00583011
0.00583018
0.00485322
0.00245102
0.000439499
0.000504229
0.000901632
7.92364e-05
0.00606475
0.0022547
0.00583851
0.00583872
0.00726169
0.00169717
9.23823e-05
0.000467206
0.0030353
0.000496134
0.000161232
0.00805349
0.00908056
0.00583415
0.00586903
0.0011383
0.000631967
0.0142993
0.00583579
0.000271831
0.0105018
0.00583702
0.00368679