/*--------------------------------*- C++ -*----------------------------------*\
| =========                 |                                                 |
| \\      /  F ield         | OpenFOAM: The Open Source CFD Toolbox           |
|  \\    /   O peration     | Version:  v2012                                 |
|   \\  /    A nd           | Website:  www.openfoam.com                      |
|    \\/     M anipulation  |                                                 |
\*---------------------------------------------------------------------------*/
FoamFile
{
    version     2.0;
    format      ascii;
    class       volScalarField;
    location    "300";
    object      omega_0;
}
// * * * * * * * * * * * * * * * * * * * * * * * * * * * * * * * * * * * * * //

dimensions      [0 0 -1 0 0 0 0];


internalField   nonuniform List<scalar> 
13851
(
0.142319
0.0273034
0.0271821
4.83975
0.0254102
0.0292543
0.0270742
0.0250575
3.73985
0.0253438
0.0752056
0.0254067
0.0253714
5.28272
0.0399342
0.146635
7.74691
0.0251154
0.359835
0.142564
0.0448565
0.0294107
22.9757
0.0256521
7.69768
0.0712696
0.414038
4.76287
3.608
0.0249741
4.60842
0.0270809
0.139373
4.61693
0.0499548
3.59776
0.0256655
10.1596
4.69607
0.0253227
4.50536
3.72573
19.33
0.730971
3.90219
0.0251321
0.0246964
0.139835
0.0266201
0.0253686
7.74943
0.0254214
0.146475
0.0336868
5.48134
0.0253219
0.141753
4.36429
0.54126
5.9704
0.0254169
0.226981
0.0254264
0.026759
0.259531
0.277758
8.02848
0.0760554
0.0253399
4.56105
4.28661
0.0543699
0.0252887
7.24166
0.0354011
0.0269383
6.27496
0.0248494
6.84037
0.0252285
0.0253521
0.432994
0.0492645
5.03134
5.74949
4.45141
0.0296036
6.91027
0.025326
4.6341
0.0254544
0.027175
24.2878
4.34839
4.26374
0.436849
0.0251745
0.150005
7.3792
0.213818
0.154917
0.048556
0.0528396
0.0253269
0.0251062
0.0527561
0.0251101
4.32289
0.027173
0.0250944
0.0349171
0.0251267
0.18943
0.070986
0.135957
0.0328527
0.0250002
0.0250127
5.00809
4.76425
0.272344
0.0250066
0.0253354
3.9151
0.274789
0.140248
0.0251731
0.0658609
4.21041
0.050396
0.0293414
0.0351182
7.03781
4.51678
0.0766889
4.27765
0.0724367
4.37883
0.0404346
0.0498065
0.402233
0.0258575
0.0253225
0.123038
6.94637
0.0267041
0.0248411
4.37027
3.59472
0.0688995
0.154045
0.181985
0.0762007
0.27417
0.025514
0.0253302
0.0254369
4.49675
0.0459993
0.0265471
0.0256242
3.60346
0.0516806
0.140066
5.14918
3.93571
4.00225
6.35184
0.0343646
6.19328
0.0254375
0.0250056
0.0650604
0.0254868
4.38094
0.33533
0.165838
0.0249864
0.03535
0.162315
0.266764
0.680524
0.0333172
0.0498824
21.2314
3.57058
0.139243
0.033287
0.0254526
0.0250445
5.97731
0.0459483
6.92798
0.0293266
0.0265578
0.14823
0.134936
0.0252651
0.0253589
0.0829118
0.407958
4.30286
4.3897
0.0399939
3.01961
4.1936
0.0269074
0.0488632
3.7772
0.0286711
0.145718
0.0253197
0.42572
0.025613
0.0509365
0.0277062
0.025351
0.239383
0.0253423
3.8703
0.0249846
0.143024
6.08838
4.31618
0.0329198
0.0494741
0.0256519
0.105942
0.0253136
0.0502044
6.97825
0.0328056
0.0286487
0.0254554
4.28927
0.024966
18.187
4.34787
0.186184
0.0256353
1.45364
5.50589
3.98027
0.144919
0.0364437
0.169441
0.214884
0.035449
0.405524
0.037054
6.2803
0.149257
0.0250881
0.0290431
0.151589
3.54721
4.69066
0.0250417
0.147773
0.0253229
0.198576
0.27145
0.0294183
0.0523419
0.153113
0.02525
0.0496272
0.118835
3.40729
0.0254078
0.0253503
0.0330276
4.17811
6.71598
0.050112
0.0250197
0.266323
0.271982
0.122359
0.0515615
4.07498
7.66312
0.0299258
0.0366762
10.4243
0.0250893
0.0254362
0.125855
0.0657815
0.0249577
0.0256093
0.0253018
0.0253001
0.0361693
0.0254273
3.7913
0.0471477
0.0252198
3.52852
3.9619
0.0254422
0.144713
7.89154
0.0259786
0.0254632
0.0493615
5.61243
7.00488
0.07102
0.0253983
6.12697
0.0254271
0.0774101
6.24376
3.24125
0.026446
9.92614
2.23556
4.37754
0.180417
0.0510908
4.4752
3.91474
4.36819
0.0254244
5.5064
22.3089
0.917264
0.817417
0.0269251
0.0707191
0.0335437
6.1946
0.0574938
0.0251324
0.0246474
0.0309227
4.29281
3.27755
0.0250814
4.22769
0.0338515
0.03542
0.0266711
6.80287
0.264428
0.148945
0.0274397
0.0281283
3.52987
0.0254615
0.285687
0.0298068
0.0492906
0.0344013
0.0253205
0.0252165
0.182534
0.234931
0.149195
4.16044
3.58783
0.026782
4.25204
0.240958
0.0248803
3.40143
0.0976663
6.12745
0.0303226
0.0755208
0.220379
7.8634
0.17461
5.35179
0.025804
0.353001
15.3241
0.0336422
4.93613
0.0363778
4.51921
0.0362176
0.0427835
0.15033
0.316519
0.0253297
0.0294932
0.0708695
0.0355461
0.025156
0.050477
5.28719
0.0252834
0.0491075
5.77904
0.0272152
5.34781
0.0471591
7.41357
0.0292162
0.067141
2.36329
0.280627
0.0520083
5.59599
7.16676
1.24845
0.0252547
0.178291
0.0366529
0.0744998
0.0250272
20.4697
5.44464
7.72409
0.0280659
0.153012
0.241149
6.37677
0.0247459
7.15653
0.359239
23.5622
0.0382584
5.61972
0.0253131
0.0254691
6.62364
0.262204
0.0253382
0.0273503
0.0500511
0.0250523
5.50201
0.0709011
0.0958843
0.0286973
0.0258176
0.0254405
6.73639
0.0252205
0.025422
4.01784
5.32946
0.0289147
0.241069
0.0254357
0.0254257
0.0275634
0.151566
0.0466235
0.0251647
0.0260145
0.255788
0.0264296
8.04946
0.0254001
0.0303154
3.96384
0.0403478
0.0247331
0.025461
0.0286386
0.025384
1.23059
4.12059
0.0367379
7.73371
0.0275984
0.0253728
4.09857
0.245433
0.0399386
0.0252932
3.88645
0.0390082
7.39025
0.0253299
0.035365
0.180596
0.037406
3.98872
0.269075
7.44647
0.0270367
0.186864
0.0252433
3.54959
0.0471068
0.134693
0.0364108
0.0272109
0.0403852
0.0655197
0.0254268
6.73378
4.0113
8.43154
5.91643
4.12264
4.78696
0.283052
0.0317499
0.0255763
9.13366
0.0253478
0.0251575
0.0341136
4.45682
0.0270758
0.02586
0.104058
0.0526952
0.0253478
7.61243
0.0251824
4.31052
1.123
0.0252226
0.0264721
0.369262
3.66678
0.0249668
10.2902
14.5737
0.0248239
4.4568
0.347869
0.142738
0.0270096
4.00503
6.12358
0.0248391
0.365143
0.0253354
0.0251823
3.65149
4.58207
0.0426433
0.0458503
0.0253484
0.060492
4.30909
4.43078
0.0249432
6.15375
0.0251636
0.0253478
0.0525327
0.030265
0.0247379
0.0269577
4.52313
0.293197
4.36655
0.0267575
0.0253173
4.2139
0.0255387
0.179719
0.0303385
0.0355068
0.0363652
4.17172
6.22062
0.0291221
7.22405
0.0262557
0.0712645
3.78501
4.35306
0.0253401
0.0252484
0.0541749
4.39002
0.249567
0.0594041
13.0478
0.0303902
0.0352607
9.06891
7.67241
0.189092
4.2128
0.190009
3.7024
0.0256229
0.560695
4.21408
0.0254021
18.3611
6.56439
0.0343547
0.049846
0.0253098
6.83723
0.0899225
16.2865
0.0252225
0.0255221
0.0299404
0.0520121
0.0254134
4.33458
0.0255144
0.182931
0.0271058
0.0760807
0.0253216
0.0253461
0.0531239
6.54024
0.0520671
4.22279
0.035364
0.0250631
0.024938
0.0656823
0.0260131
0.112111
0.0275107
0.0391883
0.439594
0.0255412
5.58176
0.0256382
0.100955
6.22829
4.03027
0.0327023
16.6741
0.100545
0.320272
6.41326
0.0250068
7.48433
0.0338317
0.0346949
5.67316
2.10361
0.0248918
0.109199
0.025239
3.58901
6.9307
0.0254148
0.083486
5.66092
0.0256512
0.0256362
0.0719548
6.87982
3.83478
0.0254697
0.150769
0.0262384
0.025341
0.427644
0.152965
0.19824
0.0247294
0.119192
0.0527048
0.0625938
0.0258877
0.0264009
0.0844894
0.0297535
0.129341
0.0541222
0.0542749
0.154437
3.33852
0.355418
4.80489
10.0664
0.146616
4.1519
0.0452519
3.74656
0.146526
0.025092
0.034606
0.296948
0.0302157
0.0252327
0.0252289
0.101242
6.01192
0.0304944
4.2246
0.0250678
3.9497
0.174881
8.44225
0.109088
0.0293605
0.0271724
6.97516
0.196564
0.0434823
0.239486
0.0256787
7.19031
0.101893
0.186364
0.0360197
0.585442
0.0253093
0.025627
0.0266227
0.0253366
3.7733
0.0253002
0.354456
4.10593
0.112148
4.48291
6.55853
0.192604
0.344296
0.0323079
0.0255399
0.025338
0.0248625
0.0249392
0.0254897
0.0716247
0.180777
0.0568855
3.9928
0.0262957
3.73572
0.0256913
4.77094
0.0461974
0.0256781
0.0254764
4.02282
0.0294406
4.13563
6.5386
0.0475992
0.0722903
0.0248026
4.50657
0.0276014
0.0271137
0.498902
0.0255446
0.0258638
0.025012
0.0472278
5.68784
0.0326872
0.0362974
0.395041
4.30184
0.0328581
0.0301037
3.78186
0.0248609
3.71592
0.0255699
0.0264366
6.35405
0.084852
0.134548
0.105521
0.0523799
0.025603
0.0256915
0.0769241
0.0256676
0.0256128
0.0309776
0.378941
0.0252785
0.295666
3.92777
3.88546
0.104047
5.25485
0.0416358
0.025534
0.171907
0.0250857
0.0295291
4.76628
3.57406
7.51631
3.90824
0.0254778
0.0253878
0.0799426
0.0262449
0.0250523
23.413
0.202635
4.75005
0.102278
0.0865297
0.0253328
0.0249818
6.68694
0.0965376
0.0267275
0.0256373
0.134099
0.217353
4.29981
0.025503
0.0255027
6.92001
0.0258647
0.0363858
0.0250591
4.51368
0.0251671
5.62634
0.0253946
0.166582
0.042277
0.0803421
0.036226
0.025289
0.0273788
0.0253298
0.28467
0.0258765
3.8448
0.0257402
4.68619
4.14073
0.0344384
0.0253057
5.10486
4.19869
0.029608
0.0845068
0.0253384
6.48553
0.0251076
0.298695
0.0253837
0.0253255
4.0117
0.0365457
0.0254474
0.0340804
4.24082
5.43894
5.66165
0.0250488
3.96442
0.0253975
0.0252884
0.0255106
0.0246136
0.025611
5.83625
4.89944
0.0253548
0.0255092
0.0428798
0.0251264
4.85769
0.176678
4.66694
4.55975
0.0273447
0.129303
0.0253922
0.044926
0.13867
0.0249859
0.025581
1.80031
6.81915
0.0707914
17.0091
0.0653946
0.0254322
0.0451697
0.0858572
7.66184
0.03494
2.83079
0.0989385
0.0255984
14.12
12.7172
4.40523
4.99539
3.57558
0.0269819
0.164216
0.0254236
1.41103
0.0296749
0.0251343
5.67749
0.026193
0.0253069
0.0253366
0.0260523
4.3756
0.287882
0.0251182
0.0460482
5.46236
0.0263186
16.4912
0.0264505
0.0817865
4.51052
0.0254311
0.227629
0.0329969
0.0358966
6.09598
0.0261757
0.419082
0.0662632
4.43421
0.0252877
4.43873
0.0333748
4.19261
7.90631
5.72
0.0475063
0.0253049
0.0254851
0.025651
0.0409329
0.0254638
4.0564
0.0322856
0.0314945
0.0325844
0.026917
0.0250476
0.0293444
0.0307241
0.0264764
0.030369
5.96909
0.249538
0.0325538
0.0575191
5.76003
0.0259086
4.32765
0.0248792
0.0372323
0.0258855
0.0251541
0.0511674
0.0253652
0.0251116
0.0513242
0.0253348
0.35425
0.0258604
19.2815
1.75923
0.223319
0.311618
0.0252191
4.34476
0.165858
0.0256015
0.0306234
0.0257773
4.45976
0.0264293
0.0502461
3.69705
6.53033
0.0949171
0.0253072
4.12142
2.51472
3.68112
0.0329155
0.0250508
0.0249233
0.0711912
0.0253079
7.40189
0.183881
0.0255637
0.241904
0.365277
0.0250009
6.13282
6.2489
0.196718
0.0258405
4.11269
0.0712017
0.0253275
6.19128
0.0299602
0.0250001
0.025203
0.0341863
0.0413232
3.89558
4.9927
0.0429522
3.9953
0.0359319
0.0253018
0.097034
0.0252378
3.51252
0.0249641
0.0253624
0.0272124
0.0256304
4.12098
5.57
0.257568
6.42224
7.28249
0.0328311
0.0252842
0.0258662
0.428699
0.0249422
0.0250638
0.0486936
7.27195
0.215264
0.0247852
0.0441667
0.0364628
0.144774
16.5056
0.0248152
0.0247221
0.0263904
7.2152
0.0309342
4.3032
0.0263896
0.0255179
0.0250005
0.0251923
0.0276695
0.192206
3.75456
3.9289
0.0326463
0.0253729
5.20784
0.0253835
6.05548
4.85513
0.0344685
5.39217
3.71195
4.76499
0.0561177
0.0346918
3.78976
0.0335139
0.0379945
0.082563
0.327149
0.0256395
5.35815
0.0253028
4.6389
7.48172
0.0248846
0.0271158
0.0521626
0.418338
0.036292
0.0254909
0.0305546
0.0264378
0.0284259
1.30728
0.025517
4.24892
5.72027
0.0253033
0.0336822
0.0411025
0.0254103
3.51444
15.0441
4.39984
3.45872
0.02535
0.0278004
0.0297355
0.0255186
0.253866
0.0366099
0.0256423
0.0643838
0.029118
4.83062
0.0423669
6.87549
0.0263366
0.0263516
0.0570602
0.0975698
0.0770358
0.0252571
16.8023
4.07645
26.041
4.46148
4.69855
3.91276
4.32733
0.0252642
0.02532
0.0251316
0.247984
0.04614
0.0768762
7.20887
0.0252378
0.0248456
0.0253443
0.229841
0.0248272
0.0293818
0.0268732
4.05731
0.026163
0.0250969
0.0254144
0.0252257
0.0255178
0.0387112
0.253482
0.0381474
5.51435
0.0253355
0.025192
4.21117
4.31228
6.69183
3.85609
0.0545903
3.87732
0.0250454
0.0698394
0.0263565
0.0254029
0.0269697
5.06627
0.0260241
0.0989681
6.77008
0.0253182
0.0251439
0.0297785
0.196849
0.0256626
4.0473
0.0251155
0.237782
0.0254669
0.0253558
0.0296764
0.111011
0.0253803
0.496077
4.32384
0.197527
4.57403
0.0253156
6.39696
0.431543
0.0253605
7.70191
0.0255132
0.047886
0.0254569
0.0251522
0.0252472
0.0253403
0.0256085
0.0306902
0.0695369
0.0253619
0.0254268
0.0692486
0.0248599
8.28107
0.0254674
0.0348993
0.0356536
5.04487
2.85453
0.0254965
0.198904
0.0250527
0.0325837
0.0796268
3.67998
0.0497623
0.0256631
0.114976
0.0866425
0.0860164
0.511148
0.0402237
0.160048
0.05945
0.0700216
0.0261286
0.0250244
3.90983
5.51319
0.0277044
0.0253221
15.7686
0.0250712
0.0446493
0.0252424
0.0938396
8.23961
0.0246534
6.23828
0.0290791
0.0255279
0.162605
0.0251363
0.0458282
3.39124
0.0428464
3.94864
0.0252402
0.025653
0.048529
0.0256013
0.025629
0.030393
0.0324688
0.0702283
0.0980557
0.0253455
0.0441195
0.0250177
0.0253829
0.0255869
0.0253649
2.02529
0.0250046
0.0264887
0.240029
0.0250651
0.0253068
4.26774
0.0256333
18.6737
0.0261664
4.39088
0.25446
0.0588093
5.13536
0.0735106
2.14673
0.0254876
0.221618
0.0301625
0.0250096
0.0251371
0.0264677
0.0337367
0.025219
0.0613156
0.0251697
0.0263266
17.0412
7.69936
4.53765
0.0269215
0.0540589
5.01973
5.63695
0.0255308
0.0290886
2.13757
0.0252906
0.0445204
4.67271
3.94809
0.0297296
0.0445882
0.0259589
0.389186
0.0256801
0.0404392
5.40173
0.0254115
0.0250641
8.41297
0.0481414
0.26084
4.66959
0.102018
0.0256502
0.0251754
0.0253895
4.74136
2.86412
5.43185
0.0632828
0.0253328
4.553
0.0254448
0.186959
0.0301183
0.0261919
0.0452832
0.0253757
6.38643
7.29535
0.0247609
0.0711032
0.0472756
4.73862
0.0487814
0.0588247
0.25811
0.0357276
0.23077
0.0617972
0.0254483
0.0373341
0.0946027
4.09866
0.0253443
2.14476
0.0516757
0.0620649
0.0256635
7.16355
0.0288609
0.0268128
0.0250662
0.0439289
0.0424501
0.0636474
0.025468
0.0258665
0.06469
25.304
0.0682784
0.0255101
0.0258606
0.0371923
0.247337
0.0255293
0.101654
9.85175
0.0542594
4.17474
0.040797
7.83754
0.41117
0.0252639
3.0804
0.0256183
0.0281352
0.0346768
0.0368657
0.109639
0.0475167
0.0487425
0.0510071
0.0341504
0.0273071
0.0248193
0.095105
0.0282214
0.032357
2.18348
0.0292979
0.0338878
0.0252235
4.88869
0.0937653
0.0253455
0.0275177
0.0264932
5.75087
0.179631
0.0346558
3.9095
0.397803
1.2706
0.0996103
0.228132
0.0251504
0.35297
0.0250483
0.0303001
10.5108
3.49392
0.410448
2.28463
0.0254613
6.89986
0.0251463
0.083935
0.0283835
3.72076
5.75116
0.0284044
0.0253322
0.379658
0.0484026
0.0253212
4.30146
0.0253868
0.0268928
0.0282067
0.0254513
0.0338796
0.0265623
0.0253275
0.0387759
0.552922
0.0422327
0.0683706
0.0253149
6.47628
3.55664
0.0253067
0.235996
0.0283264
0.0328836
5.25393
0.0253018
0.0259121
0.0313941
4.27854
0.0253367
0.0255441
0.0429314
3.61747
0.0252841
0.0361203
0.0384684
1.89476
0.0510462
0.042713
0.236561
0.0253948
0.136174
0.0249099
6.57909
0.0332316
0.0253535
0.0294115
0.107912
0.0255014
0.0252655
0.149626
4.02008
0.0253704
5.96771
0.0255506
0.0248937
0.0693321
0.0253439
0.0250009
6.70954
0.0256649
0.0426504
0.159684
4.54455
1.48401
0.0249218
0.02721
0.0316109
0.0254002
0.025307
0.0254272
3.24399
0.0255606
0.205411
0.120637
0.0250507
0.0248713
0.033064
0.12071
0.233691
0.0633191
0.0691128
0.0269946
3.78861
0.0893983
0.0324414
0.042143
0.0750604
0.10052
17.7556
0.0394758
3.73454
4.6563
5.30893
0.0274643
0.0251927
0.0415085
0.0387001
0.0249645
0.0253719
0.154646
0.0256246
0.0254684
0.0253665
0.02473
0.0263663
0.0251751
6.55592
0.0253283
9.17233
0.0254102
0.101327
0.0256683
0.123225
0.0905504
0.0253095
4.87805
0.027192
0.0256009
0.0414389
0.0250054
0.0346344
0.0251146
3.8675
0.0273213
0.0449332
0.116973
4.84683
0.0317509
0.21669
1.87607
0.0581027
0.0252163
0.0259748
0.12751
0.0696563
7.20337
0.0249599
4.89091
0.0253162
0.100598
8.41344
0.0397051
3.58999
0.0284014
0.0349879
0.0280156
7.10086
0.0343624
0.0254902
0.0555946
0.151039
0.0264685
0.0253425
0.0254918
4.6053
0.0256363
0.0308972
4.37971
0.0292595
0.0252564
0.0645023
0.0281111
4.76816
0.0248443
0.0252979
0.0251177
0.0293591
0.0254756
0.0252381
0.0654729
4.12107
0.0252401
0.025435
5.31886
0.0252531
5.83418
0.026413
6.75031
0.0250743
0.0275213
0.0250493
3.88238
4.59773
0.0339773
0.0813324
0.0304265
0.0251925
0.0254549
3.92771
0.0254835
0.0834335
0.0249434
0.0431552
0.0255534
5.51185
0.0250822
0.0458809
0.0250919
0.589683
1.1687
0.0249879
0.0504098
6.94067
0.0694451
4.00656
3.49745
0.279544
0.0266138
0.0366591
0.101122
4.22551
0.0251831
0.0393747
0.0316714
0.0252069
4.02992
5.82978
0.0708564
0.163432
0.389663
0.0371054
4.23553
0.024955
0.0249849
0.110138
7.67581
0.241588
0.17985
2.17022
0.0250457
7.25093
3.85019
9.1698
0.0255707
5.39556
5.00504
1.25204
4.17276
3.77161
0.0862855
0.0335122
0.187337
0.0288727
0.0252211
2.14441
0.0955292
0.0247984
4.82965
0.0255516
0.0329346
0.0443442
0.0300892
1.66158
0.0392377
6.11306
0.045136
0.0294228
4.48779
4.70032
0.146328
0.0256063
0.0290558
0.0776993
0.0670955
0.0250753
0.0520656
0.0712172
0.160934
0.0252331
0.207049
0.0275081
0.0559876
4.16432
0.213625
0.0262923
0.152948
4.57549
0.0254121
0.0259678
8.40057
0.382775
0.0274318
0.0276363
0.0254219
0.0853838
0.0280225
3.72747
0.109902
0.0257427
0.025598
0.0760563
0.0329963
0.588012
6.44094
0.0251152
0.0253406
0.0309227
0.0255596
0.0271854
0.0260722
0.0258389
0.0290633
0.0252011
0.0280272
0.0254345
0.0480156
3.72879
0.0256523
5.53747
11.0191
0.0249082
0.282828
0.151724
0.0984194
0.025945
0.0948386
0.0298547
0.0905253
0.0323513
0.0263439
0.0255796
7.09659
0.030108
3.93136
0.0259302
0.0253299
0.025327
0.0807469
0.0252348
0.0522408
0.0620944
1.82395
0.0251859
0.28033
6.80584
4.00911
0.0250365
0.157972
1.12282
7.02235
3.0284
0.0257746
0.0254719
0.184108
1.91269
3.64163
0.0425606
0.227769
0.0256091
0.0250189
0.0454135
0.0255614
0.0253922
0.18469
0.0256537
0.102099
0.0250597
4.70454
5.35383
4.82054
4.14576
4.14549
0.0253838
0.025494
6.69726
0.0249727
0.0249993
0.024892
0.140144
4.64507
6.56642
0.0310521
0.0251596
0.0262787
0.0422096
5.20435
0.0253506
3.57838
4.81236
0.0255522
0.025537
4.05397
0.0794118
0.0261304
0.0253477
5.70514
4.29978
0.0251385
0.205274
0.0256382
3.93543
3.46598
0.0262512
6.7447
6.68505
5.52455
0.0250465
0.0251835
0.0256265
0.0256817
4.40087
0.0251634
0.276037
0.222873
8.65188
0.0257543
0.0654498
0.356801
0.0527604
6.63326
4.33917
0.0248076
0.0283725
0.0285513
0.140867
4.23864
0.0247164
5.45084
0.0361591
0.0440941
0.0259554
0.0252313
0.326366
0.0437672
4.86256
0.0255612
0.0616147
0.0256796
0.12515
0.0270947
4.04877
4.12307
0.312308
0.0956173
0.0252276
0.0270689
0.0886331
0.25763
4.14113
6.77933
0.0255001
3.75633
0.10528
4.95738
0.0289498
0.0476107
0.0425398
0.0252487
5.59193
0.025392
0.0350661
3.5338
4.58838
1.77682
4.51092
0.0316072
0.0511955
0.0249194
4.72903
0.0305293
6.8272
0.0249029
4.85962
0.0246639
0.0252983
0.0346561
0.0353557
0.036656
0.0252248
3.76528
0.0446527
0.0251673
0.0415615
3.95552
0.692292
0.0253142
4.58128
0.0275108
0.0359928
0.0340596
0.0248875
0.0696374
0.025288
10.042
0.093356
0.0291778
0.0253257
0.41149
0.0423798
0.0248998
5.14672
3.12096
0.258548
0.0247458
1.54452
0.0254885
0.164931
0.0300146
0.137704
4.66104
3.91421
0.0389463
4.51903
0.056127
0.0318242
0.0250571
5.22606
0.131545
0.112669
0.0680386
0.0256248
3.70536
0.096857
0.424528
0.243833
6.53277
3.72071
6.14287
4.9067
0.0324484
0.035625
0.0254274
0.0252368
0.0247415
0.1774
0.0325228
0.0373554
4.68057
0.0252048
0.0251104
0.0423715
0.150839
0.0305074
0.0250316
4.36079
0.0272418
0.0474555
0.0254404
5.68824
0.0323666
5.79531
0.0639917
0.0366015
0.0589826
0.0254176
7.92007
0.351542
0.0759993
0.0252883
0.0251817
6.77358
4.44049
3.53458
0.0250165
0.07749
0.830858
0.0251959
0.0253096
0.0252986
4.52562
0.116309
0.0384743
0.0294867
0.0286645
4.70615
0.100886
0.264155
0.0287412
0.0350521
0.0247188
0.145569
0.0614874
0.0252972
3.89125
4.39108
4.14102
4.03647
4.70602
8.08739
6.63398
0.026343
0.024964
5.95177
4.91747
6.82645
0.0253146
0.0423046
0.0253353
0.0252347
3.30609
4.70735
0.0659689
0.0252995
0.299297
0.0974686
0.052069
4.25191
3.62984
0.243889
0.0251886
4.03288
2.88329
0.402
0.0341159
0.0447935
0.0254293
0.0251288
0.0418742
0.0489838
0.0275901
0.04174
0.0304989
0.0282149
0.245374
4.11088
0.0355319
0.04344
4.05848
0.222585
0.0254471
0.519213
1.05451
4.76152
0.0444023
0.0252927
0.0322577
0.0299928
0.0339435
0.0248843
0.037329
0.0334218
0.0467923
0.272926
0.0256078
0.026145
3.80389
3.97544
4.58017
0.383094
0.113122
0.0246465
0.0253419
0.0331896
0.0249141
6.76113
0.0253298
0.0256645
0.0249197
3.84108
19.2792
0.0256508
0.0643934
0.0314589
0.0399401
0.0329359
0.0397343
0.04208
0.0406749
4.74169
0.0289257
4.61048
0.0427665
4.57705
0.0323801
0.0252154
0.0250518
0.0976708
0.150752
0.0250666
0.0444226
0.0325596
0.0644461
4.07149
6.41117
4.57665
0.0256642
1.16772
0.0332979
0.0405559
0.0253283
0.075536
0.0269035
3.70495
2.19304
0.0443463
0.0254022
3.95939
0.0307259
4.27453
5.02141
0.245278
0.0274618
0.13664
4.6155
0.974138
3.76295
0.0652141
0.0251468
0.0436115
0.0250003
8.87989
0.0278337
0.0348054
0.276127
4.54907
0.0251142
0.0252126
4.23119
0.045179
8.02335
0.0368678
0.0253498
0.0458503
0.222772
0.0490321
3.76158
0.0396892
0.785705
0.0281518
0.0256263
0.0251928
0.311927
0.0258926
0.147085
0.0253301
0.0252136
0.293692
0.0287145
0.0252581
0.0253486
0.0387462
0.653818
0.0436991
0.0420441
0.0297271
0.065663
0.025293
0.175671
0.0333565
0.0454093
0.0795596
0.0300163
0.0988546
0.0509261
0.0249844
0.0691963
6.4274
3.36492
0.0252409
2.64162
4.26911
0.0252279
0.0258911
0.927996
4.19371
0.0313651
4.14637
0.411164
0.0251196
0.0857649
0.0247412
0.0288211
0.0657018
10.7749
0.589667
0.240174
0.298642
3.97126
3.90167
0.0261947
3.74056
0.0253324
2.96558
3.9789
0.0254332
0.025412
3.50825
0.0253783
0.025412
0.283807
4.37932
0.234832
0.0286843
4.11976
0.0254381
4.0858
3.88647
0.025554
0.807993
6.78708
4.42443
3.63166
3.79443
3.71907
0.025135
0.0264214
0.0656195
0.0669205
0.0254035
0.22065
0.0253447
3.70949
0.277537
0.0557114
0.265129
3.65278
0.274274
0.249489
0.0682185
7.71444
0.54043
0.0279234
0.0247999
3.34663
0.0391493
0.0249713
6.90656
0.025247
3.5556
0.0254019
4.56561
0.028047
0.0252579
20.7082
0.0309637
0.0399668
3.76068
6.66581
2.57269
0.0300214
0.0455041
0.0265413
0.0406042
0.131157
0.04148
0.025579
1.75505
0.0647026
0.0367503
4.04912
0.0427972
0.0417504
0.230018
0.078462
0.0456614
0.0252519
0.222288
0.0250493
0.129021
0.317233
4.41633
0.0251288
0.0421013
4.5918
0.0261835
0.070438
0.0330385
0.0449268
5.95941
0.0638232
0.0266539
15.7533
0.025144
3.94405
0.0254678
0.0260141
0.126526
3.59148
0.0358711
0.433071
0.66151
0.0333756
0.0253494
0.185794
0.0486516
4.59652
0.0299079
13.0486
0.148304
0.033203
0.0322953
0.118524
0.0406891
0.0838716
0.0633714
0.0429986
0.0273551
0.0251604
2.61333
0.0252819
0.0317286
0.0247547
0.110422
0.0320412
0.0624739
3.93339
0.0262383
0.242181
0.0246471
0.0254093
0.0255522
0.0255756
0.028916
0.0252189
0.0870857
7.69353
0.0615197
0.0473831
0.0276784
0.0252423
0.224367
0.0252825
4.51661
5.03843
4.8068
0.147057
0.0384804
0.029569
0.0255375
0.033497
0.109387
0.0467996
4.1475
0.0606353
4.88588
0.149911
0.0255806
0.0250889
3.41143
0.0252058
0.0323655
0.0748295
0.38794
0.0261894
4.29977
0.0255314
0.0289513
0.0253368
0.0258551
0.189491
0.107835
0.0253997
0.0342871
0.0392135
0.0477548
0.0591012
0.573059
0.404036
0.302196
0.13574
0.0284351
0.0260908
0.0581776
3.57809
6.49661
3.98241
0.0339337
5.58902
0.105954
0.0258238
0.0252901
0.0631331
0.0254928
0.0341001
5.5275
0.0252378
0.0249925
0.607445
3.33263
0.0477459
1.59941
0.0253768
5.53921
0.0462346
4.63485
0.0331291
0.0252843
4.10328
0.0655404
0.0253049
0.0825044
0.0256372
0.178038
0.032076
0.0613476
7.05769
0.0379469
5.33449
0.0252023
4.94924
0.0253843
0.0291461
0.0256647
0.0506857
0.0254924
0.0630763
3.89506
1.12518
0.0525323
0.0355999
0.0873189
0.025121
0.0251981
0.0260132
2.89714
0.0280652
4.72741
4.57609
0.158311
0.0255875
0.1624
0.251939
0.15417
0.0282636
4.73625
0.0252382
0.024657
0.0252255
6.83025
0.0252453
0.0252846
3.98596
0.0252525
0.180528
0.114233
0.0249236
4.1412
0.0302075
4.53203
0.0251328
2.57189
0.0259607
0.0817402
9.03316
0.0685147
0.025215
0.029569
4.68404
0.0339899
0.16718
0.0337164
0.0295025
0.160185
0.0325254
0.0252515
23.0413
0.0324516
0.0303838
0.145556
0.02524
0.0250951
0.0255525
0.0327207
0.025382
0.0290899
5.42992
12.8213
0.11693
7.30264
0.0625252
0.0358746
4.65284
4.57224
0.0256736
9.10987
9.101
3.91692
2.79393
0.034048
4.66432
4.08244
17.3812
2.99364
6.30101
0.0482793
0.0943974
0.0331159
0.0284818
0.0254814
1.58815
0.0256801
4.826
0.142645
0.378836
0.0247573
0.0757172
0.0518177
0.0267892
0.0256907
0.0254591
0.141199
0.0264359
0.0253252
0.0416134
4.32891
0.027159
0.174944
0.0250719
0.144567
0.0937221
0.025411
0.0299054
0.0252233
4.58673
4.36574
0.169689
9.30942
0.0371676
0.0915446
0.0254754
0.0425956
0.0253652
0.0254818
0.0256112
4.82806
0.0249856
0.0463266
0.829688
0.0310985
0.0334538
0.0252871
4.89438
0.218624
13.3742
4.4857
0.186886
0.330813
4.31653
0.374657
0.259251
8.46455
0.143601
0.0382419
3.64405
4.86
0.0253516
5.1204
0.170597
5.40394
0.0247811
0.0648424
5.04468
0.0256642
4.68712
0.0286112
6.57747
0.0254237
0.0253683
0.0740829
0.25362
0.029125
0.0692651
0.0249773
0.0252854
3.67892
5.65638
6.67352
0.0550334
0.0252311
0.0256709
0.0254819
0.0405822
1.22461
4.38127
4.43775
3.39683
0.0352275
0.025238
0.0252787
5.83979
6.26402
0.325163
0.0297087
0.0279141
0.0930767
4.82096
6.04859
0.0246425
0.0252352
4.92375
0.0261379
0.286819
0.0314013
0.0253139
0.0361888
0.0523627
4.59216
4.52516
0.02557
0.0249904
0.0278632
0.19699
5.09708
0.0256534
0.146076
4.32326
0.0246563
3.21289
4.16001
11.7715
0.0254458
5.39842
4.79813
0.043726
0.357675
0.0272704
0.347761
0.373413
0.0283701
0.0252116
6.33822
1.23776
0.0250185
0.147228
0.156066
0.0325792
0.278914
4.47478
5.32555
4.91391
0.0304694
0.0267641
0.026089
4.29667
4.93538
4.68508
5.9426
4.59208
0.0249021
0.0458552
0.0253912
0.0254545
0.0280081
0.0252526
0.0253748
0.0252421
4.35971
12.4089
6.83231
0.064658
0.202331
0.0402338
0.0250919
0.0252839
4.42436
0.0254858
5.86851
3.91947
0.0255392
0.0250906
3.61489
0.0257328
0.606945
0.0288654
0.0249648
0.024895
4.37984
0.0248623
4.35115
4.21622
0.024717
0.0493824
0.025122
0.0259717
0.0250102
0.12811
4.15682
0.0252573
4.76779
0.523441
0.0271862
0.0250768
0.0258632
0.0266738
0.0256019
0.580542
5.27454
5.7601
0.0419308
6.46698
0.0256635
0.0286709
0.0252298
0.193849
0.0265813
4.86338
0.0251151
3.9663
0.295305
5.6562
0.159683
0.0251101
0.0474621
0.0251426
4.21015
0.0250862
0.0317049
0.0295459
0.0285525
0.0253526
0.0256348
0.0365213
4.81796
0.0254375
0.025964
0.0269695
0.0376397
0.177824
0.0255513
5.10395
3.88226
0.0269286
4.71019
4.60748
3.65113
6.33948
0.0246811
0.0262432
3.92069
4.17821
0.154199
4.04398
4.36963
0.0362957
0.0524673
0.0333788
4.28286
0.0253425
0.0252549
5.58943
0.13312
4.83053
0.0276865
0.0248692
0.0253568
5.0063
0.074337
0.026738
0.255847
0.0250118
0.0641443
0.0333101
0.0335781
0.0250755
0.0255521
0.0251894
0.0276959
1.44251
5.13663
0.0247289
0.0251142
4.42494
0.0252965
0.071297
0.0292224
0.0287813
0.0400382
0.0256809
4.2165
0.0325497
0.0284608
20.2992
0.0893359
0.0264284
0.0347875
0.0253064
0.0256734
6.84968
0.325664
3.50035
0.0254303
0.0255063
0.0671844
0.0305321
0.025334
0.0409067
4.31741
0.029012
0.0452815
0.0285128
0.12525
0.0254534
0.0248515
4.70093
5.33632
5.2356
0.0252383
0.162198
0.0247296
0.0253218
0.071931
4.4615
0.0715497
0.0313218
0.165227
0.0258765
0.0324824
0.0595689
0.837034
0.0254634
0.0248138
0.0257803
0.0268714
0.0297268
0.025237
1.3205
10.0117
0.0252684
0.0359901
0.0256418
0.0247936
3.71603
5.91625
5.66166
0.0801489
0.0256133
0.0596155
4.74037
0.109211
0.103032
0.0380984
0.0334135
5.03436
0.233772
0.840179
0.0249828
0.0342377
0.0253759
0.0335778
6.9942
0.0247994
0.0454032
0.0286426
0.0334148
0.0262482
0.0249669
0.0251372
4.1638
0.0488499
0.0334094
0.0711142
0.039076
6.19922
0.0349967
0.537974
0.0251844
4.80054
4.83755
6.94545
0.0256528
0.0347619
0.0254137
0.0252093
5.70294
0.0492202
4.76717
0.0252807
0.0506686
0.141709
4.41883
0.0314889
0.0247912
6.83196
0.0256802
0.0256788
0.0257816
0.0253422
6.02185
0.0250382
0.0251189
0.0406501
0.0306196
0.16103
0.145906
0.0373104
4.29408
0.0250819
0.190525
0.0249441
4.65254
0.0378112
0.519052
0.154977
2.83147
0.112868
4.63754
0.0261825
6.36842
0.0364548
4.88761
0.216657
0.0313336
0.240112
0.025392
7.07007
0.0262167
0.0418088
0.0304777
7.09965
0.148834
4.29603
0.0347456
0.025293
4.83548
0.257883
0.0591098
0.160654
8.32601
4.88097
0.0437805
0.296758
0.0453789
0.025121
0.0540257
0.281944
0.0773472
26.0292
0.133622
0.0249902
0.0251148
0.153883
0.0254158
5.51216
0.0806119
0.0254097
3.85238
1.47375
3.50282
0.121606
0.0251749
0.0325489
0.0289904
4.36067
3.76699
0.0289307
5.1708
0.0250782
0.0354959
1.11915
0.0252907
0.0441367
0.0252021
0.0293683
0.0256352
0.183171
1.05675
0.0338319
0.0328789
0.0248977
0.154585
0.0251009
0.0250572
0.0371345
0.0251927
0.234185
4.82252
3.53878
4.20587
0.0249975
4.95678
0.0255526
0.0417701
0.144648
0.0251904
7.7957
0.0780973
0.0252834
0.0247793
0.045452
0.0421776
0.20147
0.248448
0.0290265
0.0270832
3.95096
0.0659034
0.295172
0.936165
13.5367
4.0808
4.78801
1.35349
0.0254096
0.0254536
0.0524292
0.0254451
0.0566952
0.0397702
6.32596
5.04412
6.55281
0.0248395
0.0249679
0.133187
0.305197
4.38069
1.4017
3.74224
0.060806
0.0367908
1.2797
0.278667
0.0293013
4.72142
0.0372665
0.0334714
4.36591
0.0441075
0.025095
4.71638
0.994315
0.0275496
0.153557
0.0264455
3.96328
5.66427
5.68132
0.0253005
0.024872
0.142694
0.0253063
0.0251055
0.0253143
0.0249277
0.0253241
0.0253352
4.70306
0.0311103
0.0521145
4.21049
0.0251628
0.0253491
0.0346736
0.0287415
0.0292938
0.0253615
0.0738246
0.0340496
0.0296911
0.0958965
4.29402
0.025378
0.0453559
0.0253955
0.0253344
0.0247154
0.0254132
4.33032
0.0251024
0.025304
0.0254315
0.0489074
4.14884
4.25797
4.91356
1.77293
0.0479612
4.25124
6.46277
0.0252364
0.047599
5.87417
0.233721
0.0254509
0.0309553
0.0462917
0.0426755
0.0253821
0.0433467
0.0640256
0.0499182
0.0248019
0.0593028
4.25723
0.0247294
2.02787
4.73979
0.0476224
0.731418
0.0392935
0.0254196
0.0286136
0.0252887
0.258882
4.79278
0.0248404
0.0487607
0.0252482
0.0252739
0.0254375
0.0256811
0.041941
0.0255304
0.138747
0.158365
0.0289869
0.0277036
0.0490572
0.0253567
0.0499723
0.0355354
0.0255578
0.0254368
0.0254897
4.89742
0.0252889
0.281406
0.0443956
0.0256379
0.0252929
0.0249054
4.56186
0.0285227
0.0477869
0.0579789
5.01201
0.0316682
4.04291
2.19145
0.0484117
0.0252551
0.243617
0.0422076
4.95154
0.079071
4.70224
0.0247698
0.0555339
0.0546183
4.28149
0.0252791
0.0474872
5.14684
0.0250886
7.8977
10.4089
3.97577
0.0252503
0.0249514
4.74336
0.0253581
4.40999
0.17535
4.23424
4.41692
0.0251409
0.204838
0.240756