/*--------------------------------*- C++ -*----------------------------------*\
| =========                 |                                                 |
| \\      /  F ield         | OpenFOAM: The Open Source CFD Toolbox           |
|  \\    /   O peration     | Version:  v2012                                 |
|   \\  /    A nd           | Website:  www.openfoam.com                      |
|    \\/     M anipulation  |                                                 |
\*---------------------------------------------------------------------------*/
FoamFile
{
    version     2.0;
    format      ascii;
    class       volScalarField;
    location    "300";
    object      omega;
}
// * * * * * * * * * * * * * * * * * * * * * * * * * * * * * * * * * * * * * //

dimensions      [0 0 -1 0 0 0 0];


internalField   nonuniform List<scalar> 
13851
(
0.142344
0.0273033
0.027182
4.83988
0.0254102
0.0292542
0.0270743
0.0250575
3.73905
0.0253438
0.0752079
0.0254067
0.0253714
5.2826
0.0399332
0.146639
7.74719
0.0251154
0.359804
0.142583
0.0448554
0.0294106
22.9747
0.0256521
7.69922
0.0712668
0.415121
4.76588
3.60779
0.0249742
4.6086
0.0270809
0.139406
4.61744
0.0499547
3.59758
0.0256655
10.158
4.69642
0.0253227
4.50563
3.72543
19.33
0.731553
3.90159
0.0251321
0.0246964
0.139805
0.0266201
0.0253685
7.74944
0.0254214
0.146473
0.0336867
5.48157
0.025322
0.141796
4.36455
0.544819
5.96942
0.0254169
0.22713
0.0254264
0.026759
0.259707
0.278047
8.02699
0.0758431
0.0253399
4.56088
4.28674
0.0543687
0.0252886
7.24037
0.0354007
0.0269384
6.27538
0.0248494
6.84747
0.0252285
0.0253521
0.432877
0.0492639
5.03067
5.7486
4.45153
0.0296036
6.91003
0.025326
4.63429
0.0254544
0.027175
24.29
4.34844
4.2642
0.436861
0.0251745
0.149988
7.37928
0.213866
0.154896
0.0486584
0.0528518
0.0253269
0.0251062
0.0527555
0.0251101
4.32301
0.0271731
0.0250944
0.0349147
0.0251267
0.189501
0.0709895
0.135958
0.0328526
0.0250002
0.0250127
5.00836
4.76372
0.272389
0.0250066
0.0253354
3.91492
0.274713
0.140317
0.0251731
0.0658715
4.21068
0.0503943
0.0293414
0.035118
7.03198
4.51715
0.076688
4.27809
0.0724229
4.37892
0.0404291
0.0498046
0.402231
0.0258576
0.0253225
0.122896
6.94561
0.0267041
0.0248411
4.3703
3.59453
0.0689095
0.154019
0.182047
0.0762066
0.274025
0.025514
0.0253302
0.0254369
4.49707
0.0459978
0.0265471
0.0256242
3.60327
0.0516802
0.140034
5.14924
3.93461
4.00108
6.35186
0.0343643
6.19362
0.0254375
0.0250056
0.06506
0.0254868
4.38151
0.334229
0.165798
0.0249864
0.0353497
0.162273
0.266685
0.680934
0.0333173
0.0498806
21.2297
3.57039
0.139276
0.0332894
0.0254525
0.0250445
5.98581
0.0459468
6.92711
0.0293264
0.0265578
0.148218
0.134959
0.0252651
0.0253589
0.0827494
0.407898
4.30311
4.38987
0.0399928
3.01843
4.19378
0.0269074
0.0488609
3.77636
0.0286709
0.145737
0.0253197
0.425714
0.025613
0.0509369
0.0277062
0.025351
0.239397
0.0253423
3.86962
0.0249846
0.143035
6.08662
4.31668
0.0329196
0.0494717
0.0256519
0.106077
0.0253136
0.0502047
6.97628
0.0328056
0.0286485
0.0254554
4.28945
0.024966
18.182
4.348
0.186156
0.0256353
1.45355
5.50536
3.97965
0.144931
0.0364433
0.169246
0.214914
0.0354488
0.405609
0.0370545
6.28024
0.149243
0.0250881
0.0290429
0.151571
3.54705
4.6908
0.0250417
0.147779
0.0253229
0.198645
0.271306
0.0294181
0.0523413
0.153101
0.02525
0.0496423
0.118807
3.41092
0.0254079
0.0253503
0.0330278
4.17709
6.71645
0.0501108
0.0250197
0.266243
0.271813
0.122362
0.0515607
4.07401
7.66293
0.0299256
0.0366754
10.4243
0.0250893
0.0254362
0.125867
0.0657804
0.0249577
0.0256093
0.0253018
0.0253001
0.0361687
0.0254273
3.79041
0.0471466
0.0252198
3.52839
3.96167
0.0254422
0.144715
7.89165
0.0259787
0.0254631
0.0493607
5.6116
7.00423
0.0710191
0.0253983
6.12711
0.0254271
0.0774088
6.24379
3.24471
0.0264459
9.92715
2.23499
4.37754
0.180451
0.0510119
4.47582
3.91466
4.3719
0.0254244
5.50624
22.3064
0.918666
0.816903
0.0269251
0.0707184
0.0335438
6.19444
0.0575644
0.0251324
0.0246474
0.0309226
4.29289
3.27616
0.0250814
4.22809
0.0338508
0.0354197
0.026671
6.80075
0.264343
0.148934
0.0274398
0.0281282
3.52966
0.0254615
0.285504
0.0298065
0.0492897
0.0344059
0.0253205
0.0252165
0.18256
0.235001
0.149173
4.1569
3.58762
0.0267821
4.25217
0.241108
0.0248802
3.40441
0.097669
6.12744
0.0303224
0.0755202
0.220401
7.8597
0.174627
5.3518
0.025804
0.351167
15.3237
0.0336419
4.93613
0.0363775
4.5193
0.0362169
0.0427834
0.150281
0.316487
0.0253297
0.029493
0.0708657
0.0355458
0.025156
0.0504755
5.28777
0.0252834
0.0491053
5.77906
0.0272151
5.34285
0.0471579
7.4128
0.0292161
0.0671386
2.36363
0.280472
0.0520073
5.59615
7.16541
1.24873
0.0252547
0.178277
0.0366527
0.0744988
0.0250272
20.4686
5.44488
7.72607
0.0280658
0.152987
0.241304
6.37713
0.0247459
7.15609
0.359032
23.5606
0.0382563
5.61848
0.0253131
0.0254691
6.62395
0.262189
0.0253382
0.0273502
0.0500487
0.0250523
5.50211
0.0709004
0.0958923
0.0286971
0.0258175
0.0254405
6.7315
0.0252205
0.025422
4.0181
5.33002
0.0289147
0.240629
0.0254357
0.0254258
0.0275633
0.151557
0.0466228
0.0251647
0.0260144
0.255846
0.0264295
8.05004
0.0254001
0.0303152
3.96313
0.0403469
0.0247331
0.025461
0.0286384
0.0253839
1.2283
4.1208
0.0367374
7.73381
0.0275983
0.0253728
4.09841
0.24566
0.0399301
0.0252932
3.88632
0.0390035
7.57238
0.0253298
0.0353649
0.180615
0.0374053
3.98875
0.269335
7.44863
0.0270368
0.186889
0.0252433
3.54943
0.0471055
0.134716
0.0364105
0.027211
0.0403691
0.0655194
0.0254268
6.73406
4.0111
8.4324
5.91625
4.12287
4.78729
0.282873
0.03175
0.0255763
9.1241
0.0253478
0.0251575
0.0341136
4.45742
0.0270757
0.0258601
0.103998
0.0526953
0.0253478
7.61086
0.0251824
4.31081
1.12219
0.0252226
0.0264721
0.369238
3.6705
0.0249669
10.292
14.569
0.0248239
4.45645
0.347814
0.142754
0.0270097
4.00514
6.12297
0.0248391
0.365331
0.0253354
0.0251823
3.65256
4.58215
0.0426436
0.0458495
0.0253485
0.0604889
4.30942
4.43122
0.0249432
6.15448
0.0251636
0.0253479
0.0525319
0.030265
0.0247379
0.0269578
4.52275
0.29315
4.36633
0.0267574
0.0253173
4.21277
0.0255387
0.179671
0.0303383
0.0355063
0.0363648
4.17099
6.22036
0.0291219
7.22359
0.0262557
0.0712665
3.78465
4.35307
0.0253401
0.0252484
0.0539311
4.38983
0.249361
0.0594012
13.0608
0.0303902
0.03526
9.06786
7.67073
0.189025
4.21297
0.190028
3.70219
0.0256228
0.564828
4.20178
0.0254021
18.3633
6.56556
0.0343545
0.0498442
0.0253098
6.83697
0.0899029
16.2869
0.0252225
0.0255221
0.0299407
0.0520124
0.0254134
4.33506
0.0255144
0.182961
0.0271059
0.0760795
0.0253216
0.0253461
0.0531285
6.54097
0.052067
4.22318
0.0353639
0.0250631
0.024938
0.0656819
0.026013
0.112134
0.0275106
0.0391872
0.44353
0.0255412
5.58176
0.0256382
0.100956
6.22791
4.02916
0.0326466
16.6727
0.100514
0.320287
6.41461
0.0250068
7.48302
0.0338313
0.0346946
5.67304
2.10955
0.0248918
0.109214
0.025239
3.58883
6.93069
0.0254148
0.0832393
5.66067
0.0256512
0.0256362
0.0719528
6.87968
3.83467
0.0254696
0.150719
0.0262384
0.025341
0.429915
0.152897
0.198234
0.0247294
0.119163
0.0527109
0.0625923
0.0258877
0.026401
0.0844652
0.0297535
0.129315
0.0541209
0.0542734
0.15445
3.3261
0.355502
4.80484
10.0677
0.146591
4.15161
0.04524
3.74747
0.146538
0.025092
0.0346055
0.296888
0.0302156
0.0252327
0.0252289
0.101246
6.01196
0.0304943
4.2247
0.0250678
3.94958
0.174975
8.44237
0.109101
0.0293604
0.0271723
6.97526
0.19652
0.0434791
0.239573
0.0256786
7.20554
0.101895
0.186381
0.0360196
0.585502
0.0253093
0.025627
0.0266227
0.0253366
3.77289
0.0253002
0.35563
4.10485
0.112176
4.48346
6.55852
0.192623
0.344411
0.0322966
0.0255399
0.025338
0.0248625
0.0249392
0.0254897
0.0716253
0.180898
0.0568888
3.99582
0.0262957
3.73495
0.0256913
4.77079
0.0461982
0.0256781
0.0254764
4.02168
0.0294404
4.13581
6.53987
0.0475975
0.0722897
0.0248026
4.507
0.0276015
0.0271136
0.502361
0.0255446
0.0258638
0.025012
0.0472261
5.68781
0.0326871
0.0362972
0.394858
4.30218
0.0328605
0.030104
3.7816
0.0248609
3.7157
0.0255699
0.0264365
6.3622
0.08484
0.134553
0.105501
0.0523792
0.025603
0.0256915
0.0769274
0.0256676
0.0256128
0.0309775
0.379029
0.0252785
0.2956
3.91395
3.88585
0.104035
5.25476
0.0416242
0.025534
0.171842
0.0250857
0.0295289
4.76625
3.57382
7.51482
3.90793
0.0254778
0.0253879
0.0798826
0.026245
0.0250523
23.412
0.20269
4.75007
0.102279
0.086519
0.0253328
0.0249818
6.69819
0.096549
0.0267275
0.0256373
0.134098
0.217436
4.2999
0.025503
0.0255027
6.91991
0.0258646
0.0363854
0.0250591
4.51429
0.0251671
5.62602
0.0253946
0.166575
0.0422762
0.0803464
0.0362258
0.025289
0.0273787
0.0253298
0.285348
0.0258765
3.84496
0.0257402
4.68613
4.14037
0.0344382
0.0253057
5.10482
4.19869
0.0296078
0.0844946
0.0253384
6.48553
0.0251076
0.298691
0.0253837
0.0253255
4.01243
0.0365453
0.0254474
0.0340803
4.2411
5.43921
5.6615
0.0250488
3.96415
0.0253976
0.0252884
0.0255106
0.0246136
0.025611
5.8363
4.89986
0.0253548
0.0255092
0.0428798
0.0251264
4.85766
0.176648
4.66653
4.56041
0.0273446
0.129272
0.0253922
0.044925
0.138707
0.0249859
0.025581
1.80204
6.81926
0.070791
17.0081
0.0653906
0.0254322
0.0451695
0.0858439
7.66283
0.0349394
2.83742
0.0989475
0.0255984
14.1203
12.7164
4.4053
5.00171
3.57682
0.026982
0.164013
0.0254236
1.40733
0.0296748
0.0251343
5.67739
0.0261931
0.0253069
0.0253367
0.0260523
4.37611
0.287745
0.0251182
0.0460482
5.4617
0.0263186
16.4895
0.0264505
0.0817797
4.51065
0.0254311
0.227229
0.0329969
0.0358964
6.09584
0.0261758
0.418853
0.0662616
4.43457
0.0252876
4.43881
0.0333745
4.19233
7.90695
5.71993
0.0475044
0.0253049
0.0254852
0.025651
0.040933
0.0254638
4.05651
0.0322857
0.0314946
0.0325846
0.0269171
0.0250476
0.0293444
0.0307239
0.0264763
0.0303689
5.97073
0.249773
0.0325535
0.0575229
5.75986
0.0259086
4.32762
0.0248792
0.0372345
0.0258855
0.0251541
0.0511676
0.0253652
0.0251116
0.0511517
0.0253348
0.35437
0.0258604
19.2844
1.76152
0.223261
0.311755
0.0252191
4.34518
0.165858
0.0256015
0.0306233
0.0257773
4.45961
0.0264293
0.0502043
3.69783
6.5303
0.094933
0.0253071
4.12067
2.51781
3.68215
0.0329151
0.0250508
0.0249233
0.0711903
0.0253079
7.40121
0.183853
0.0255637
0.242053
0.365312
0.0250009
6.13438
6.24847
0.196789
0.0258405
4.11205
0.0712019
0.0253275
6.19129
0.0299603
0.0250001
0.025203
0.034186
0.041323
3.89459
4.99304
0.0429511
3.99414
0.0359313
0.0253018
0.097086
0.0252378
3.52146
0.0249641
0.0253624
0.0272125
0.0256304
4.12017
5.56997
0.257544
6.42206
7.28059
0.0328311
0.0252842
0.0258661
0.428552
0.0249422
0.0250638
0.0486942
7.27517
0.21544
0.0247852
0.0441661
0.0364625
0.144751
16.5042
0.0248152
0.0247221
0.0263904
7.21578
0.0309341
4.30356
0.0263897
0.0255179
0.0250005
0.0251923
0.0276695
0.192237
3.75435
3.92786
0.0326438
0.0253729
5.21087
0.0253835
6.05571
4.85469
0.0344675
5.3928
3.71162
4.76492
0.0561158
0.0346913
3.78939
0.0335135
0.0379937
0.0824869
0.327131
0.0256395
5.35912
0.0253028
4.63866
7.48201
0.0248846
0.0271159
0.0521621
0.418311
0.0362915
0.0254909
0.0305544
0.0264378
0.0284258
1.30753
0.025517
4.24872
5.72023
0.0253033
0.0336817
0.0411022
0.0254103
3.51421
15.0423
4.40036
3.45879
0.02535
0.0278004
0.0297354
0.0255186
0.253788
0.0366093
0.0256423
0.0643781
0.029118
4.83148
0.042366
6.87345
0.0263366
0.0263516
0.0572194
0.097558
0.0770349
0.0252571
16.7999
4.07617
26.0381
4.46175
4.69829
3.91169
4.32695
0.0252641
0.02532
0.0251316
0.247707
0.046139
0.0768751
7.20872
0.0252378
0.0248456
0.0253443
0.229911
0.0248272
0.0293816
0.0268732
4.05701
0.0261631
0.0250969
0.0254144
0.0252257
0.0255178
0.0387121
0.253395
0.0381461
5.51412
0.0253355
0.025192
4.21139
4.31206
6.69176
3.85593
0.0545674
3.87735
0.0250454
0.0698332
0.0263565
0.0254029
0.0269696
5.06615
0.0260241
0.0989614
6.77899
0.0253182
0.0251439
0.0297785
0.196862
0.0256626
4.04705
0.0251155
0.237743
0.0254669
0.0253558
0.0296762
0.110919
0.0253803
0.497374
4.32395
0.197631
4.57435
0.0253156
6.39774
0.430829
0.0253605
7.70006
0.0255132
0.047932
0.0254569
0.0251522
0.0252472
0.0253403
0.0256085
0.0306926
0.0695352
0.0253619
0.0254268
0.0691471
0.0248599
8.2798
0.0254674
0.034899
0.0356532
5.04433
2.85746
0.0254965
0.198946
0.0250527
0.0325836
0.0795998
3.68005
0.0497601
0.0256631
0.114954
0.08671
0.0860087
0.511489
0.0402256
0.160162
0.0594465
0.0700183
0.0261287
0.0250244
3.91068
5.51322
0.0277043
0.0253221
15.767
0.0250712
0.0446483
0.0252424
0.093858
8.234
0.0246534
6.23838
0.0290789
0.0255279
0.162553
0.0251363
0.0458804
3.39127
0.0428458
3.94926
0.0252402
0.025653
0.0485811
0.0256013
0.025629
0.0303928
0.0324686
0.0702274
0.0980622
0.0253455
0.0441178
0.0250177
0.0253829
0.0255869
0.0253649
2.02755
0.0250046
0.0264888
0.239558
0.0250651
0.0253068
4.26698
0.0256333
18.6756
0.0261664
4.3897
0.254406
0.0588219
5.14631
0.0735119
2.14725
0.0254876
0.221719
0.0301623
0.0250096
0.0251371
0.0264678
0.0337363
0.025219
0.0613159
0.0251697
0.0263266
17.0399
7.69935
4.53653
0.0269215
0.0538933
5.0195
5.63541
0.0255308
0.0290885
2.13849
0.0252905
0.0445199
4.6761
3.94708
0.0297295
0.0445866
0.025959
0.389249
0.0256801
0.0404457
5.40059
0.0254114
0.0250641
8.41182
0.0481419
0.260835
4.67006
0.10202
0.0256502
0.0251754
0.0253894
4.74183
2.85286
5.43121
0.0632839
0.0253328
4.55298
0.0254448
0.187042
0.0301123
0.0261919
0.0452821
0.0253757
6.38783
7.29361
0.0247609
0.0711023
0.0472746
4.74119
0.048782
0.0588221
0.258055
0.0357271
0.230932
0.061793
0.0254484
0.0373333
0.0945768
4.09873
0.0253443
2.15505
0.0516768
0.0620628
0.0256635
7.16154
0.0288607
0.0268129
0.0250662
0.0439285
0.0424497
0.0636465
0.025468
0.0258666
0.0646957
25.3065
0.0682789
0.0255101
0.0258606
0.0371915
0.247404
0.0255293
0.101637
9.85343
0.054259
4.17348
0.0407969
7.83768
0.410956
0.0252639
3.07789
0.0256183
0.0281351
0.0346762
0.0368651
0.109653
0.0475148
0.0487427
0.0510097
0.0341503
0.0273071
0.0248193
0.0951286
0.0282213
0.032357
2.18889
0.0292978
0.0338832
0.0252235
4.88884
0.093739
0.0253455
0.0275176
0.0264932
5.74992
0.179597
0.0346553
3.90897
0.398034
1.27226
0.0995937
0.227755
0.0251504
0.353339
0.0250483
0.0302986
10.5099
3.49369
0.410751
2.28959
0.0254613
6.89802
0.0251463
0.0839217
0.0283836
3.72111
5.75118
0.0284045
0.0253322
0.379926
0.0484657
0.0253212
4.30174
0.0253868
0.0268929
0.0282066
0.0254513
0.0338794
0.0265623
0.0253275
0.0387758
0.552996
0.0422317
0.0683701
0.0253149
6.47632
3.55638
0.0253067
0.236291
0.0283265
0.0328837
5.25428
0.0253018
0.0259121
0.0313943
4.27853
0.0253367
0.0255441
0.0429314
3.61859
0.0252841
0.0361201
0.0384695
1.89895
0.0510468
0.0427126
0.236676
0.0253948
0.135796
0.0249099
6.57817
0.0332314
0.0253535
0.0294115
0.107906
0.0255014
0.0252655
0.149593
4.01994
0.0253704
5.96713
0.0255506
0.0248937
0.0693313
0.0253439
0.0250009
6.71065
0.0256649
0.0426496
0.159637
4.54426
1.48589
0.0249218
0.02721
0.031611
0.0254002
0.025307
0.0254272
3.24419
0.0255606
0.2055
0.120621
0.0250507
0.0248713
0.0330638
0.120695
0.233585
0.0632289
0.0691143
0.0269946
3.78771
0.0894152
0.0324415
0.0421417
0.0750884
0.100533
17.7554
0.0394756
3.73466
4.65554
5.30875
0.0274642
0.0251927
0.0415088
0.0386885
0.0249645
0.0253719
0.154666
0.0256246
0.0254684
0.0253665
0.02473
0.0263663
0.0251751
6.55604
0.0253283
9.17268
0.0254102
0.101274
0.0256683
0.123226
0.090533
0.0253095
4.87829
0.0271921
0.0256009
0.0414377
0.0250054
0.0346344
0.0251146
3.8673
0.0273213
0.0449329
0.117208
4.847
0.0317509
0.216662
1.87869
0.0581025
0.0252163
0.0259748
0.127543
0.0696574
7.20386
0.0249599
4.89014
0.0253163
0.100602
8.41378
0.0397045
3.59078
0.0284014
0.0349875
0.0280157
7.09922
0.0343622
0.0254902
0.0555867
0.151091
0.0264685
0.0253425
0.0254918
4.6057
0.0256363
0.0308974
4.37979
0.0292596
0.0252563
0.0645072
0.0281111
4.76898
0.0248444
0.0252979
0.0251177
0.0293599
0.0254756
0.0252381
0.0654687
4.12082
0.02524
0.025435
5.3181
0.0252531
5.83435
0.026413
6.74822
0.0250743
0.0275214
0.0250493
3.88252
4.59792
0.0339838
0.0813306
0.030427
0.0251925
0.0254549
3.92752
0.0254835
0.0834213
0.0249434
0.0431549
0.0255534
5.51151
0.0250822
0.0458792
0.0250919
0.589629
1.16932
0.0249879
0.0504102
6.94047
0.0694411
4.00623
3.49804
0.279634
0.0266139
0.0366588
0.101106
4.2286
0.0251831
0.0393744
0.0316715
0.0252069
4.03006
5.8273
0.0708552
0.163411
0.389776
0.0371052
4.2343
0.024955
0.0249849
0.110152
7.67404
0.241684
0.179906
2.17186
0.0250457
7.24893
3.85012
9.17129
0.0255707
5.3959
5.00516
1.25105
4.17288
3.7712
0.0862718
0.033512
0.187433
0.0288733
0.0252211
2.13773
0.0955279
0.0247984
4.82905
0.0255516
0.0329361
0.044343
0.0300893
1.6644
0.0392435
6.11326
0.0451347
0.0294221
4.4859
4.70068
0.146291
0.0256063
0.0290559
0.0777003
0.0670562
0.0250753
0.0520672
0.071216
0.160941
0.0252331
0.207073
0.0275081
0.0559861
4.16421
0.213795
0.0262923
0.152994
4.57589
0.0254121
0.0259678
8.40185
0.382763
0.0274317
0.0276362
0.0254219
0.0853884
0.0280224
3.72721
0.109931
0.0257427
0.025598
0.0759236
0.0329965
0.586988
6.44093
0.0251152
0.0253406
0.0309226
0.0255596
0.0271853
0.0260723
0.0258388
0.0290634
0.025201
0.0280273
0.0254344
0.0480136
3.73192
0.0256523
5.5374
11.0195
0.0249082
0.283145
0.151701
0.0984009
0.025945
0.0948425
0.0298545
0.0905831
0.032351
0.0263439
0.0255796
7.09725
0.0301081
3.93156
0.0259303
0.0253299
0.025327
0.0807494
0.0252347
0.0522399
0.0620894
1.82444
0.0251859
0.279647
6.79633
4.0089
0.0250365
0.157916
1.12209
7.01576
3.04412
0.0257746
0.025472
0.184146
1.91378
3.64336
0.0425599
0.227696
0.0256091
0.0250189
0.0454132
0.0255614
0.0253922
0.184635
0.0256537
0.102196
0.0250597
4.70463
5.35435
4.82118
4.14556
4.14521
0.0253838
0.025494
6.69838
0.0249727
0.0249993
0.024892
0.140207
4.64567
6.56686
0.0310522
0.0251596
0.0262787
0.0422096
5.20346
0.0253506
3.57874
4.81247
0.0255522
0.025537
4.0539
0.0794018
0.0261304
0.0253478
5.70491
4.29963
0.0251385
0.205319
0.0256381
3.93526
3.46786
0.0262512
6.74575
6.6848
5.52377
0.0250466
0.0251835
0.0256265
0.0256817
4.40083
0.0251634
0.276014
0.222405
8.65232
0.0257543
0.0654503
0.356801
0.0527613
6.63444
4.33899
0.0248076
0.0283724
0.0285511
0.140891
4.23738
0.0247164
5.45085
0.0361597
0.0440925
0.0259554
0.0252313
0.326236
0.0437674
4.86256
0.0255612
0.0616153
0.0256795
0.125163
0.0270946
4.04841
4.11903
0.312286
0.095619
0.0252276
0.027069
0.0886327
0.257726
4.13995
6.78008
0.0255001
3.75638
0.105178
4.9584
0.0289499
0.0476117
0.04254
0.0252487
5.59143
0.025392
0.0350656
3.53388
4.58849
1.77718
4.51144
0.0316069
0.0511944
0.0249194
4.72918
0.0305293
6.82643
0.0249029
4.86032
0.0246639
0.0252983
0.0346557
0.0353564
0.0366561
0.0252248
3.76513
0.0446512
0.0251673
0.0415609
3.9556
0.692442
0.0253142
4.58081
0.0275108
0.0359921
0.0340593
0.0248875
0.0696418
0.025288
10.0396
0.0933251
0.0291777
0.0253257
0.411459
0.0423795
0.0248998
5.14697
3.0987
0.258467
0.0247458
1.54874
0.0254885
0.164995
0.0300145
0.137656
4.65235
3.91407
0.0389686
4.51955
0.0561265
0.0318238
0.0250571
5.22676
0.131531
0.112697
0.0680447
0.0256248
3.70624
0.0968783
0.42449
0.243481
6.53385
3.7206
6.13892
4.90704
0.032438
0.0356249
0.0254274
0.0252368
0.0247415
0.177485
0.0325224
0.0373913
4.68028
0.0252048
0.0251104
0.0423704
0.150846
0.0305071
0.0250316
4.36111
0.0272417
0.047454
0.0254404
5.68821
0.0323667
5.79522
0.063968
0.0366012
0.0589828
0.0254176
7.92004
0.351581
0.0760051
0.0252883
0.0251817
6.77406
4.44061
3.53444
0.0250165
0.0774949
0.832903
0.0251958
0.0253096
0.0252987
4.52612
0.116198
0.0384738
0.0294867
0.0286644
4.70601
0.100886
0.26407
0.0287412
0.0350517
0.0247188
0.145543
0.0614879
0.0252971
3.8911
4.39081
4.14123
4.03641
4.7061
8.08648
6.63513
0.026343
0.024964
5.95147
4.91749
6.82489
0.0253146
0.0423037
0.0253353
0.0252347
3.30729
4.70743
0.0659683
0.0252995
0.298701
0.0974642
0.0520696
4.25163
3.64188
0.24403
0.0251886
4.0326
2.88311
0.401869
0.0341155
0.0447933
0.0254293
0.0251288
0.0418747
0.0489843
0.0275901
0.0417386
0.0304987
0.028215
0.245299
4.1108
0.0355322
0.0434384
4.05827
0.222592
0.0254471
0.519322
1.05461
4.76156
0.044402
0.0252927
0.0322574
0.0299927
0.0339435
0.0248843
0.037329
0.0334214
0.0467903
0.272953
0.0256078
0.026145
3.80374
3.97509
4.58063
0.38312
0.113107
0.0246465
0.0253419
0.0331894
0.0249141
6.76095
0.0253298
0.0256645
0.0249197
3.84089
19.2765
0.0256508
0.0643905
0.0314588
0.0399408
0.0329357
0.0397114
0.042079
0.0406749
4.74181
0.0289256
4.61036
0.0427671
4.57767
0.0323799
0.0252154
0.0250518
0.0976722
0.150725
0.0250666
0.0444336
0.0325594
0.0644478
4.07143
6.41284
4.57734
0.0256642
1.16375
0.0333072
0.0405556
0.0253283
0.0755409
0.0269036
3.70509
2.19349
0.0443478
0.0254022
3.9591
0.0307255
4.27454
5.02135
0.245236
0.0274618
0.136655
4.61583
0.968341
3.76246
0.0652175
0.0251468
0.0436121
0.0250003
8.88009
0.0278338
0.0348053
0.275681
4.54979
0.0251142
0.0252126
4.23139
0.0451796
8.02343
0.0368557
0.0253499
0.0458509
0.222801
0.0490201
3.7615
0.0396893
0.780551
0.0281516
0.0256263
0.0251928
0.311875
0.0258926
0.147036
0.0253301
0.0252136
0.293588
0.0287144
0.0252581
0.0253486
0.0387455
0.652434
0.0436977
0.0420439
0.0297272
0.0656649
0.0252929
0.175629
0.0333563
0.0454087
0.0796142
0.0300163
0.0989153
0.0509471
0.0249844
0.0691943
6.42566
3.36494
0.0252409
2.638
4.26909
0.0252279
0.0258911
0.928031
4.19336
0.0313673
4.14632
0.411341
0.0251196
0.0857557
0.0247412
0.0288209
0.0657041
10.7745
0.589301
0.240183
0.298628
3.97122
3.90157
0.0261947
3.74016
0.0253324
2.9662
3.9788
0.0254332
0.025412
3.50833
0.0253783
0.025412
0.283827
4.37798
0.234743
0.0286842
4.11955
0.0254381
4.08542
3.88627
0.025554
0.803955
6.7761
4.42448
3.63171
3.79419
3.71918
0.025135
0.0264214
0.0656199
0.0669192
0.0254035
0.220749
0.0253447
3.70921
0.278027
0.0557189
0.265216
3.6525
0.274739
0.249401
0.0680585
7.71443
0.540185
0.0279233
0.0247999
3.3467
0.0391493
0.0249713
6.90445
0.0252469
3.55567
0.0254018
4.566
0.0280469
0.0252579
20.8613
0.0309643
0.0399672
3.7608
6.66711
2.58181
0.0300212
0.0455036
0.0265414
0.0406034
0.131165
0.0414788
0.025579
1.75598
0.0647016
0.0367497
4.04918
0.0427969
0.0417494
0.230054
0.0784628
0.0456596
0.0252519
0.222269
0.0250493
0.129033
0.318443
4.41599
0.0251288
0.0421011
4.59173
0.0261834
0.070441
0.0330383
0.0449276
5.95931
0.0638219
0.0266539
15.7506
0.025144
3.94382
0.0254678
0.026014
0.126547
3.5913
0.0358714
0.434036
0.66194
0.0333752
0.0253494
0.186015
0.0486527
4.59657
0.0299082
13.0331
0.148304
0.0332027
0.032295
0.118478
0.0406891
0.0840257
0.0633703
0.0430033
0.027355
0.0251603
2.61393
0.0252818
0.0317284
0.0247547
0.110417
0.032041
0.0624726
3.93309
0.0262383
0.242168
0.0246471
0.0254093
0.0255522
0.0255756
0.0289159
0.0252189
0.087076
7.69341
0.0615174
0.047382
0.0276783
0.0252423
0.224368
0.0252825
4.5171
5.03841
4.80663
0.147005
0.0384805
0.0295688
0.0255375
0.0334971
0.109314
0.0467993
4.14739
0.0606323
4.88537
0.149881
0.0255806
0.0250889
3.41148
0.0252058
0.0323652
0.0747463
0.388174
0.0261894
4.29998
0.0255314
0.0289512
0.0253368
0.0258551
0.189818
0.10781
0.0253998
0.0342867
0.0392506
0.0477537
0.0590971
0.573578
0.404149
0.302088
0.135728
0.0284351
0.0260907
0.0581739
3.5779
6.49773
3.98187
0.0339333
5.58916
0.105941
0.0258238
0.0252901
0.0631307
0.0254928
0.0340999
5.52722
0.0252378
0.0249925
0.607403
3.33416
0.0477441
1.60215
0.0253768
5.53948
0.0462338
4.63545
0.0331449
0.0252843
4.10277
0.0656836
0.0253049
0.0824764
0.0256372
0.178067
0.0320758
0.0615604
7.0558
0.0379415
5.33449
0.0252023
4.94949
0.0253843
0.029146
0.0256647
0.0506869
0.0254924
0.0630748
3.8948
1.12334
0.0525325
0.0355992
0.087458
0.025121
0.0251981
0.0260131
2.89615
0.028065
4.72758
4.57572
0.158238
0.0255874
0.162383
0.25188
0.15413
0.0282637
4.73605
0.0252382
0.024657
0.0252255
6.82851
0.0252453
0.0252846
3.98551
0.0252525
0.180574
0.11416
0.0249236
4.1403
0.0302075
4.53236
0.0251328
2.57122
0.0259607
0.0817262
9.03842
0.0685138
0.025215
0.0295689
4.68472
0.0339896
0.167088
0.0337161
0.0295024
0.160264
0.0325257
0.0252515
23.0397
0.0324514
0.0303838
0.145579
0.02524
0.0250951
0.0255525
0.0327208
0.0253819
0.02909
5.42986
12.8205
0.116821
7.30271
0.0625225
0.0358746
4.65363
4.57226
0.0256735
9.11045
9.10082
3.91683
2.78822
0.0340478
4.6651
4.08155
17.3863
2.98495
6.30194
0.0482793
0.0944138
0.0331163
0.0284818
0.0254814
1.5837
0.0256801
4.82613
0.142628
0.37896
0.0247573
0.0757149
0.0518132
0.0267892
0.0256907
0.0254591
0.141138
0.0264358
0.0253252
0.0416128
4.32891
0.0271589
0.174928
0.0250719
0.144513
0.0937661
0.0254109
0.0299054
0.0252233
4.58719
4.36481
0.169644
9.32088
0.0371702
0.0915393
0.0254754
0.0425943
0.0253652
0.0254819
0.0256112
4.82813
0.0249856
0.0463261
0.830282
0.0310985
0.0334534
0.0252871
4.8943
0.218657
13.381
4.48568
0.186956
0.331044
4.31652
0.374835
0.259905
8.46398
0.143595
0.0383117
3.65285
4.86042
0.0253516
5.12085
0.170675
5.40426
0.0247811
0.0648408
5.04499
0.0256642
4.68716
0.028611
6.57748
0.0254237
0.0253683
0.0740859
0.253605
0.0291249
0.0692681
0.0249773
0.0252854
3.67901
5.65599
6.66996
0.0550316
0.0252311
0.0256708
0.0254819
0.0405821
1.22483
4.38021
4.43707
3.41414
0.0352274
0.025238
0.0252787
5.83903
6.26736
0.325042
0.0297077
0.0279141
0.0931636
4.82038
6.05099
0.0246425
0.0252351
4.92392
0.0261379
0.286799
0.0314014
0.0253139
0.0361881
0.0523704
4.59171
4.52524
0.02557
0.0249904
0.0278631
0.19729
5.09813
0.0256534
0.146017
4.32329
0.0246563
3.21447
4.15943
11.7732
0.0254458
5.39799
4.79815
0.0437258
0.357277
0.0272704
0.348223
0.373564
0.0283699
0.0252116
6.34189
1.24011
0.0250185
0.147251
0.1561
0.0325789
0.278842
4.47484
5.32603
4.91476
0.0304693
0.0267641
0.026089
4.29704
4.93538
4.68511
5.94175
4.59171
0.0249021
0.0458534
0.0253912
0.0254545
0.0280082
0.0252526
0.0253748
0.0252421
4.35843
12.4262
6.83313
0.0646373
0.202342
0.0401867
0.0250919
0.0252839
4.42393
0.0254858
5.86846
3.91902
0.0255392
0.0250906
3.61449
0.0257329
0.606396
0.0288652
0.0249648
0.024895
4.37958
0.0248623
4.35117
4.21595
0.024717
0.0493817
0.025122
0.0259717
0.0250102
0.128161
4.15724
0.0252573
4.76807
0.523151
0.0271862
0.0250768
0.0258632
0.0266738
0.0256019
0.580527
5.27454
5.76046
0.0419303
6.4638
0.0256635
0.0286708
0.0252298
0.193881
0.0265814
4.86393
0.0251151
3.96646
0.295017
5.65663
0.159639
0.0251101
0.047462
0.0251426
4.20991
0.0250862
0.0317048
0.0295458
0.0285524
0.0253526
0.0256348
0.036521
4.81841
0.0254374
0.025964
0.0269694
0.0376399
0.177797
0.0255513
5.10437
3.88204
0.0269285
4.71045
4.60745
3.65169
6.34032
0.0246811
0.0262433
3.92048
4.17689
0.15424
4.04378
4.36829
0.0362958
0.0524675
0.0333784
4.28302
0.0253425
0.0252549
5.58912
0.133099
4.83035
0.0276864
0.0248692
0.0253568
5.00655
0.074335
0.026738
0.255875
0.0250118
0.0641384
0.0333098
0.0335778
0.0250755
0.0255521
0.0251894
0.0276957
1.44265
5.14334
0.0247289
0.0251142
4.42545
0.0252965
0.0713304
0.0292248
0.0287813
0.0400377
0.0256809
4.21657
0.0325494
0.0284599
20.2992
0.0893379
0.0264285
0.0347876
0.0253064
0.0256734
6.84635
0.326091
3.5004
0.0254303
0.0255063
0.0671844
0.0305322
0.025334
0.0409058
4.31724
0.029012
0.0452819
0.0285129
0.12527
0.0254534
0.0248515
4.7007
5.33585
5.23525
0.0252383
0.162219
0.0247296
0.0253218
0.0719291
4.46059
0.0715492
0.0313217
0.165175
0.0258765
0.0324821
0.0596025
0.836234
0.0254634
0.0248138
0.0257803
0.0268714
0.0297268
0.025237
1.31995
10.0154
0.0252684
0.0359902
0.0256418
0.0247936
3.71557
5.91613
5.65951
0.0801388
0.0256133
0.0596112
4.74067
0.10923
0.103036
0.0380972
0.0334136
5.03485
0.233799
0.841678
0.0249828
0.0342373
0.0253759
0.0335777
6.99215
0.0247994
0.0454028
0.028643
0.0334146
0.0262482
0.0249669
0.0251372
4.16249
0.0488491
0.033409
0.0711132
0.0390757
6.19674
0.0349967
0.538154
0.0251844
4.79981
4.83729
6.94624
0.0256528
0.0347615
0.0254137
0.0252093
5.70284
0.0492195
4.76687
0.0252807
0.0506825
0.141731
4.41863
0.031489
0.0247911
6.83279
0.0256802
0.0256788
0.0257817
0.0253422
6.01937
0.0250382
0.0251189
0.0406499
0.0306197
0.161019
0.145959
0.0372965
4.29399
0.0250819
0.190525
0.0249441
4.65243
0.0378113
0.520606
0.155073
2.83005
0.112875
4.63712
0.0261825
6.36974
0.0364548
4.8874
0.216681
0.0313348
0.240067
0.025392
7.06736
0.0262166
0.0418091
0.0304778
7.09892
0.148787
4.29595
0.0347454
0.025293
4.83592
0.257942
0.0591082
0.160715
8.32539
4.88058
0.0437803
0.296695
0.0453785
0.025121
0.0540246
0.282026
0.0773823
26.026
0.133692
0.0249902
0.0251148
0.153847
0.0254158
5.51126
0.0805818
0.0254097
3.85219
1.47451
3.50383
0.121577
0.0251749
0.032549
0.0289904
4.36099
3.76677
0.0289308
5.17056
0.0250782
0.0354957
1.12025
0.0252907
0.0441369
0.0252021
0.0293682
0.0256352
0.183327
1.06076
0.033832
0.032879
0.0248977
0.154628
0.0251009
0.0250572
0.0371189
0.0251926
0.234121
4.82302
3.54278
4.20615
0.0249975
4.95711
0.0255526
0.0417776
0.144576
0.0251904
7.79387
0.0780916
0.0252834
0.0247793
0.0454518
0.0421775
0.201333
0.248327
0.0290265
0.0270833
3.95093
0.0659015
0.295277
0.936085
13.5281
4.08118
4.78799
1.35284
0.0254096
0.0254536
0.0524297
0.0254452
0.0566963
0.0397698
6.32584
5.04367
6.55253
0.0248395
0.0249679
0.133162
0.304091
4.38057
1.40353
3.74202
0.0609962
0.0367906
1.27915
0.278454
0.0293012
4.7223
0.0372663
0.0334712
4.36621
0.044106
0.025095
4.71664
0.994891
0.0275496
0.153487
0.0264455
3.98008
5.66416
5.67842
0.0253005
0.024872
0.142702
0.0253063
0.0251055
0.0253143
0.0249277
0.0253241
0.0253352
4.70249
0.0311103
0.052127
4.21062
0.0251628
0.0253491
0.0346734
0.0287415
0.0292936
0.0253615
0.0738188
0.0340496
0.0296911
0.0959143
4.29391
0.025378
0.0453556
0.0253955
0.0253344
0.0247154
0.0254132
4.33067
0.0251025
0.025304
0.0254315
0.0489075
4.14903
4.2582
4.91269
1.7682
0.0479609
4.25132
6.46407
0.0252364
0.0475992
5.87361
0.233384
0.0254509
0.0309551
0.0462896
0.0426236
0.0253821
0.0433466
0.0640221
0.049925
0.0248019
0.0593025
4.23575
0.0247294
2.02599
4.74032
0.0476287
0.731432
0.0392931
0.0254196
0.0286135
0.0252887
0.25883
4.79232
0.0248404
0.0487728
0.0252482
0.0252739
0.0254375
0.0256811
0.041937
0.0255304
0.138759
0.158437
0.0289868
0.0277037
0.049058
0.0253567
0.0499737
0.0355349
0.0255579
0.0254368
0.0254897
4.89773
0.0252889
0.281583
0.0443944
0.0256379
0.0252929
0.0249054
4.56179
0.0285227
0.0478033
0.0579768
5.01174
0.0316682
4.04307
2.19177
0.0484963
0.0252551
0.243741
0.0422076
4.95137
0.0790481
4.70233
0.0247698
0.0555335
0.0546191
4.28184
0.025279
0.047486
5.14667
0.0250886
7.89596
10.4117
3.97703
0.0252502
0.0249514
4.74357
0.0253581
4.41032
0.175348
4.23428
4.4167