/*--------------------------------*- C++ -*----------------------------------*\
| =========                 |                                                 |
| \\      /  F ield         | OpenFOAM: The Open Source CFD Toolbox           |
|  \\    /   O peration     | Version:  v2012                                 |
|   \\  /    A nd           | Website:  www.openfoam.com                      |
|    \\/     M anipulation  |                                                 |
\*---------------------------------------------------------------------------*/
FoamFile
{
    version     2.0;
    format      ascii;
    class       volScalarField;
    location    "300";
    object      p;
}
// * * * * * * * * * * * * * * * * * * * * * * * * * * * * * * * * * * * * * //

dimensions      [0 2 -2 0 0 0 0];


internalField   nonuniform List<scalar> 
13851
(
-0.124155
-0.0547236
-0.0534864
-0.410679
0.00464514
-0.0651002
-0.0419458
-0.00686399
-0.096192
0.0311958
-0.157108
0.0130216
0.0412053
-0.108964
-0.0851009
-0.0708474
-0.375989
-0.0215473
-0.199201
-0.125218
-0.0983906
-0.022206
-0.397304
0.00676616
-0.310047
-0.0700713
-0.0925033
-0.178125
-0.0683133
-0.0102734
-0.39558
-0.0421128
-0.115456
-0.131385
-0.119162
-0.0668859
0.00683499
-0.354165
-0.321207
0.0118124
-0.174598
-0.0694853
-0.398036
-0.193448
-0.0760363
-0.000502873
-0.0129268
-0.079976
-0.0285706
0.041741
-0.270549
0.0490667
-0.071503
-0.0578323
-0.0907511
0.0129284
-0.117052
-0.179203
-0.0802897
-0.146452
0.013054
-0.0932878
0.0272578
-0.0288819
0.0419122
0.0478881
-0.147653
0.275338
-0.00332205
-0.409309
-0.38463
-0.108546
0.026353
-0.144103
-0.0650215
-0.00270858
-0.378002
-0.01279
-0.309944
0.0104091
-0.00450855
-0.284803
-0.115518
-0.112314
-0.142966
-0.390751
-0.0255159
-0.0667865
0.0298829
-0.394753
0.0500861
-0.0433195
-0.301019
-0.392771
-0.28603
-0.157034
0.00588802
-0.0756299
-0.218207
-0.235109
-0.0764463
0.188349
0.183771
0.0309993
-0.00449244
-0.114703
-0.0038606
-0.385901
-0.0433659
-0.0208096
-0.0127991
-0.00124132
-0.213892
-0.152541
-0.103368
-0.057278
-0.00572457
-0.00718907
-0.410923
-0.409295
-0.158868
-0.0163359
0.0021579
-0.137847
-0.170451
0.315861
0.00521084
-0.127088
-0.142885
-0.0965067
-0.0186886
-0.0830777
-0.350202
-0.12699
-0.162
-0.293703
0.267253
-0.389365
0.1602
-0.092144
-0.280038
0.0461004
0.0305795
0.198275
-0.274501
0.0115284
-0.0127326
-0.39417
-0.0809961
-0.132298
-0.0777763
-0.212042
-0.15686
-0.18704
0.0495672
0.0389939
0.0114741
-0.326282
-0.0903418
-0.0454348
0.00696784
-0.066904
-0.112174
-0.0811403
-0.107451
-0.0891614
-0.0915554
-0.273026
-0.0129397
-0.213866
0.0135798
-0.0058528
-0.132115
0.00564769
-0.282155
-0.110353
-0.085703
-0.00645826
-0.0631063
-0.0848768
-0.167281
-0.188543
-0.0179228
-0.0946054
-0.382381
-0.081188
-0.1143
0.125428
0.0450323
-0.00703582
-0.270905
-0.0911093
-0.10798
-0.0667234
0.00979566
-0.0736017
-0.112516
-0.0314088
-0.0257916
0.259392
-0.28175
-0.239401
-0.185379
-0.0834792
-0.178839
-0.238514
0.0837268
-0.0841364
-0.0990595
-0.0594333
-0.0690913
0.0027265
-0.286437
0.0133687
-0.122945
-0.00641063
0.0404055
-0.136723
-0.0301938
0.362052
-0.00662602
-0.129652
-0.112583
-0.286658
0.114488
-0.0838944
0.0130185
0.203418
0.0143448
-0.119356
-0.409503
0.120702
-0.0592729
0.0267348
-0.182033
-0.010931
-0.386719
-0.191307
-0.225032
0.00708611
-0.328572
-0.13908
-0.0748269
-0.0696953
-0.0887562
0.216067
-0.135824
-0.0627124
-0.15172
-0.0330929
-0.0767118
-0.156008
-0.00357718
-0.0648212
-0.0747382
-0.0639577
-0.0579821
-0.0067919
0.329959
0.0286572
-0.116701
-0.175902
-0.0665246
-0.111992
-0.159415
0.0191646
0.191051
-0.0822303
-0.162833
0.0222339
0.0406493
0.119485
-0.104713
-0.4101
-0.101666
-0.017111
-0.165246
-0.181502
-0.105621
-0.11017
-0.107695
-0.193685
-0.0699194
-0.0800223
-0.364518
-0.00679455
0.0107224
-0.107538
-0.141595
-0.0120046
0.0126145
0.014872
0.00244844
-0.0852558
0.0109935
-0.0977307
-0.100231
0.00548811
-0.0699226
-0.135153
0.0475494
-0.128467
-0.243651
0.047333
0.0487575
-0.102355
-0.118233
-0.368316
-0.132592
0.00448353
-0.207995
0.0135416
-0.139095
-0.246196
-0.155441
-0.0442657
-0.35016
-0.332096
-0.380928
-0.215313
0.214369
-0.29489
-0.140441
-0.17967
-0.02696
-0.392536
-0.0657977
0.317502
0.298178
0.0847368
-0.136191
0.0678602
-0.0660743
0.204594
-0.00122116
-0.0128882
-0.0535465
-0.38475
0.355341
-0.00700872
-0.281999
0.0784326
-0.0839789
-0.0455399
-0.116121
-0.162478
-0.0726605
-0.00407961
-0.0566099
-0.060545
0.0450214
-0.185749
-0.0684263
-0.103892
0.0831956
0.0294795
0.00462838
-0.232741
-0.243917
-0.152144
-0.341037
-0.0601845
0.0104051
-0.189117
-0.121186
-0.0171023
-0.152678
-0.122911
-0.221038
-0.0515856
-0.0654112
-0.0806951
-0.340586
-0.230303
-0.0683766
-0.0294152
-0.111782
-0.399786
-0.0844158
-0.0777676
-0.0918359
-0.199408
-0.0790922
-0.0594347
-0.16337
-0.268468
0.03883
-0.0675337
-0.14678
-0.0646279
0.00228325
-0.101405
-0.122913
0.0254965
-0.0856292
-0.409112
-0.0497595
-0.329928
-0.0699084
-0.366389
-0.062376
-0.0695953
-0.135815
-0.17497
-0.1159
-0.0582604
-0.139562
-0.316166
0.0200552
-0.22818
-0.0931653
-0.066403
-0.014662
-0.392457
-0.144665
-0.327753
-0.056237
-0.163495
-0.0987513
-0.409602
-0.015608
-0.39193
-0.279845
-0.401831
-0.0378087
-0.21951
0.0342104
0.00544654
-0.0893066
-0.101543
0.0319672
-0.054858
-0.0871683
-0.00381319
-0.145574
-0.136135
-0.123227
-0.0590596
-0.0301856
0.0506288
-0.335018
0.00676658
0.0497045
-0.0682457
-0.125956
-0.0152681
-0.0823816
0.0271467
0.0102703
-0.0520941
-0.154962
-0.0663135
0.0028242
-0.03952
-0.155102
-0.0472614
-0.370757
0.0120834
-0.0581899
-0.0731893
0.0707816
-0.0121567
0.01501
-0.0585889
-0.0338633
-0.294496
-0.068952
-0.0899955
-0.0933125
-0.0538063
0.0166023
-0.124651
-0.0817897
0.13041
0.0240055
-0.139125
0.151765
-0.318217
0.0316651
-0.0858007
-0.23547
-0.071138
-0.140796
-0.0974913
-0.32747
0.043121
-0.216768
0.0178168
-0.068531
-0.0704352
-0.110971
-0.0915486
-0.00437558
0.0648223
-0.132534
0.00490244
-0.408982
-0.126758
-0.371853
-0.407313
-0.0683715
-0.349478
-0.180356
0.104088
0.0201002
-0.34148
0.0312793
0.00246314
0.108035
-0.273055
-0.0526001
0.0507832
-0.0931831
-0.125042
0.0338086
-0.315522
0.00723859
-0.135826
-0.287493
0.00998153
-0.0475329
-0.281053
-0.159032
-0.0113563
-0.362913
-0.373568
-0.0207611
-0.360171
-0.194674
-0.133742
0.0448093
-0.0710516
-0.172635
-0.021141
-0.236192
-0.000681186
0.0068256
-0.0656492
-0.20011
-0.106642
-0.0651734
0.0321171
-0.0748808
-0.140556
-0.311991
-0.0235496
-0.370863
0.0030025
-0.00186143
-0.117098
-0.0544775
-0.015806
0.000355217
-0.35698
-0.261999
-0.358367
-0.0506367
0.028276
-0.102427
0.0200346
-0.229299
-0.062144
-0.0669814
-0.0900784
-0.0729791
-0.196262
-0.0654978
-0.39915
-0.0433919
-0.144372
-0.0706949
-0.0919101
0.00622222
0.0186763
0.175691
-0.353303
-0.0731714
-0.0738083
-0.364902
-0.0543309
-0.077109
-0.407233
-0.320569
-0.123109
-0.133542
-0.101863
-0.0639273
-0.0253902
-0.0788955
-0.21437
0.0172802
-0.302974
-0.263174
-0.0181717
-0.0941247
0.0166044
0.0797206
-0.148891
-0.390557
0.00759705
0.00599213
0.107463
-0.123764
0.0116605
-0.276813
0.00590181
-0.102778
0.0501562
-0.0672393
0.030113
0.0345178
-0.0874272
-0.368781
-0.117968
-0.291624
-0.0864343
-0.00363728
-0.0191722
-0.135319
-0.0384258
-0.185119
-0.0566844
0.131419
-0.0775884
0.0207684
-0.0550933
0.012979
-0.067215
-0.398815
-0.0850547
0.133828
-0.38296
-0.081322
-0.253923
-0.261888
-0.025299
-0.324909
0.072896
-0.0871364
-0.40627
-0.264661
-0.0172831
-0.182846
-0.0308783
-0.0634868
-0.297752
-0.00692175
0.270735
-0.161027
0.0170259
0.0170044
-0.0693661
-0.0548218
-0.0739851
0.0486037
-0.168432
-0.0456113
0.0355837
-0.0749368
-0.16797
-0.234149
-0.0147586
-0.0834679
0.0913562
-0.0679484
0.064692
0.0112611
-0.140729
0.103972
-0.0812899
-0.106001
-0.109303
-0.108323
-0.269171
-0.200638
-0.107867
-0.35865
-0.0785429
-0.110661
-0.0151336
-0.0672138
-0.13258
-0.0182658
-0.076038
-0.19709
-0.0409401
0.0100532
0.00896802
-0.0691296
-0.0671622
-0.0595577
-0.195132
-0.00322914
-0.0758387
-0.0444514
-0.248976
-0.182947
-0.0646254
-0.0540249
-0.251023
-0.234998
-0.014615
-0.100419
-0.0291468
-0.353509
-0.0683094
-0.104737
-0.0911406
-0.300557
0.0333894
0.0133896
0.080457
0.0361641
-0.0720174
0.00278619
-0.0748198
-0.101455
-0.187065
-0.305188
-0.216681
-0.106007
-0.2642
0.131353
0.0244184
0.0393775
-0.0117378
-0.0185874
0.0057321
-0.141873
-0.204985
0.0923734
-0.177088
-0.00523434
-0.0986696
0.0218486
-0.409747
-0.107713
0.0220066
0.025972
-0.0862302
-0.0659436
-0.0927703
-0.260174
-0.0909553
-0.116302
-0.0204325
-0.134476
0.0337529
-0.0536414
-0.0769002
0.0243115
0.0473253
-0.0228589
-0.0727232
-0.0732254
-0.076983
-0.0918785
-0.285708
-0.31356
0.128697
0.0298276
-0.0683552
-0.0115102
-0.0666704
0.00720879
-0.0478195
-0.29659
-0.090808
-0.104727
-0.190776
-0.118919
0.023061
0.0213375
-0.148376
-0.0268963
0.0229744
-0.0580898
-0.27818
0.00375986
-0.2421
-0.319552
-0.0857538
-0.188493
-0.40366
0.167667
0.0245289
-0.229933
-0.00254712
-0.0682434
-0.104046
-0.060382
-0.314842
-0.0682312
-0.0110678
-0.00702865
0.00526317
0.0150093
-0.00957833
-0.392403
-0.115262
-0.0816495
-0.06666
-0.0920337
0.0375478
-0.00984746
-0.362573
-0.125286
-0.0496528
0.0231911
-0.101654
-0.229903
-0.196934
0.0496212
0.0087051
-0.0732098
0.0638596
-0.0908522
-0.00364109
-0.267138
-0.00315794
-0.397337
0.0273243
-0.21588
-0.0958758
0.0268385
-0.0931107
0.0270992
-0.0545868
0.00460291
-0.0729423
0.0604665
-0.058564
-0.0311665
-0.119451
-0.119005
-0.0868672
0.00334502
-0.408011
-0.0715113
-0.0678337
-0.0890554
0.0394309
-0.0601533
-0.0189775
-0.199854
0.0188613
0.00432519
-0.092822
-0.0907662
0.0149973
-0.0588984
-0.163921
-0.0394867
-0.16258
-0.00599862
-0.109537
0.0225205
0.00377443
0.0480941
-0.0129335
0.0184527
-0.184815
-0.107159
-0.030574
0.00594479
-0.108146
-0.00171004
-0.407629
-0.234635
-0.109258
-0.299103
-0.0543331
-0.0822183
0.0172818
-0.0983527
-0.0328383
-0.0247946
0.00738622
-0.323327
-0.295749
-0.11409
-0.377726
-0.0964555
0.026876
-0.112598
-0.0883806
-0.356385
-0.0832847
-0.0875153
-0.127644
0.0123305
-0.398974
-0.397834
-0.0722383
-0.27123
-0.0629681
0.0404788
0.196643
0.0502844
-0.128483
-0.0395535
-0.0011086
-0.166535
-0.0013303
0.00332178
0.00496009
-7.48021e-06
-0.269817
-0.191402
-0.000416903
-0.114613
-0.114733
-0.0199294
-0.384118
0.0634558
-0.0970878
-0.213411
0.0118089
-0.0727982
-0.051394
-0.0900443
-0.0124482
-0.00406697
-0.27487
-0.0682038
-0.16475
-0.0322719
-0.062897
-0.0832264
-0.134022
-0.327742
-0.0620389
-0.0881296
0.030663
-0.0103028
0.0178895
-0.058777
0.0255619
-0.143103
-0.0137058
0.0910564
0.127036
0.0384522
-0.00579509
-0.0482744
-0.0469942
-0.0475686
-0.0261623
-0.248578
-0.071104
-0.0800079
-0.108005
-0.170472
0.0500321
-0.379267
-0.0110863
-0.0175277
0.0621746
-0.00824201
-0.071858
0.0170728
-0.000888352
0.207176
0.0400026
-0.273046
-0.0365222
-0.308134
-0.169056
-0.150273
-0.232303
-0.0275508
-0.308037
-0.141095
0.0130171
-0.044577
0.0492491
-0.378249
0.0669079
0.181829
-0.151595
-0.40933
-0.161937
-0.0218942
-0.0735053
-0.149724
-0.0613895
-0.0479922
-0.00421889
-0.0232955
-0.130286
0.0325578
-0.170509
-0.233335
0.020205
-0.123286
-0.277804
-0.0222088
-0.24524
-0.394983
-0.1129
-0.0319996
-0.0723513
-0.138901
0.00798934
-0.0809295
0.0268846
-0.0199193
0.0103001
-0.0638608
-0.0608851
-0.0997438
-0.395812
-0.0718647
-0.0942676
-0.070426
0.0297785
0.292878
0.00944027
-0.345994
-0.0240457
0.00522732
0.0104127
-0.0275055
-0.110935
-0.0611075
-0.0879635
-0.201241
-0.341201
0.107225
0.0238945
-0.0356275
-0.280736
-0.0238247
-0.0102612
-0.111798
-0.29976
-0.0645604
-0.0121593
-0.0798726
-0.0939995
-0.142599
-0.393954
-0.0207552
-0.0156591
-0.0444242
-0.326672
-0.0566961
-0.14536
0.0141161
0.00884179
-0.020423
0.00877856
-0.00930802
-0.1092
-0.0637509
-0.091127
0.134076
0.0176981
-0.332028
-0.0341978
-0.222014
-0.173972
0.114514
-0.369967
-0.0714925
-0.402331
-0.071341
-0.0812941
-0.110343
-0.0824925
0.0405829
-0.00555222
-0.253714
-0.0234807
-0.106752
0.0307411
-0.0970122
-0.329371
-0.0107425
0.0480253
-0.0773593
-0.286281
-0.0865082
0.00747198
-0.0636704
0.0751208
-0.0563783
-0.0315884
0.0232697
-0.0723165
-0.071171
0.0311593
-0.0793252
-0.0615913
0.0167613
-0.0573587
-0.0662636
-0.301792
-0.0602563
0.0148038
-0.0201591
-0.0505338
0.0464558
-0.0838517
-0.0869395
0.0230387
-0.0845447
0.100487
-0.120218
-0.0960125
-0.116218
0.0741993
-0.016044
0.195158
-0.134854
-0.135834
0.0207052
-0.0657916
-0.147207
-0.391993
-0.350418
-0.0981583
-0.0933847
-0.130848
0.0217042
0.0275531
-0.0268305
-0.0744347
-0.0672261
-0.139473
-0.404778
-0.0314761
-0.0100819
0.0321526
-0.0657391
-0.013161
-0.0649454
0.00745124
-0.0728661
0.0484547
-0.00205007
0.0216156
0.0112564
0.00609527
0.0844066
-0.0853416
0.0363116
-0.148437
0.0260579
0.00836508
-0.138309
-0.120026
-0.0688582
-0.0788278
0.146381
-0.0708808
-0.00432536
-0.0614721
-0.0144008
0.0267318
-0.0476261
-0.394296
-0.0432445
-0.133887
-0.356627
-0.0324298
-0.00787138
0.0996908
-0.108164
0.0119392
-0.0764956
-0.0264415
-0.074655
0.0261119
-0.0297908
-0.0690694
0.101598
0.0421744
-0.0938351
-0.390238
-0.0659518
-0.125504
0.03444
-0.358108
-0.127996
0.0237893
-0.337231
0.04662
0.199451
0.0464393
-0.0289447
0.00390762
0.0350257
-0.00382171
0.117233
-0.107039
-0.0229144
0.0276291
0.246882
-0.0183689
-0.35705
0.0262703
-0.0890477
-0.0665672
-0.152638
-0.175497
0.0227105
-0.111505
-0.00381799
-0.0559808
-0.128477
-0.0776236
-0.0895563
0.0113051
-0.0813613
0.192134
-0.0979645
-0.17595
0.0524282
-0.201032
-0.0761759
-0.0997271
0.0465361
-0.0154559
-0.0852808
-0.409327
-0.0390293
0.00838381
-0.38927
-0.00319458
-0.102744
0.0091829
-0.159035
-0.345729
-0.015675
-0.408833
-0.0647051
0.00864273
-0.083604
-0.000997711
0.196664
-0.0600174
-0.106557
-0.0828631
0.00374979
0.0122525
0.209595
0.0203115
0.0232875
-0.0618959
-0.0806666
-0.110545
-0.169446
0.0308243
-0.0794841
-0.0139827
0.0166718
0.0204087
0.0238055
-0.335457
-0.023816
0.0655337
-0.0836985
-0.00349322
0.00717282
-0.108086
0.0231689
-0.29711
-0.0446938
-0.0993336
-0.151363
0.152955
-0.347148
-0.157016
-0.07149
-0.0315879
-0.231319
-0.0526628
-0.015529
0.000472896
0.066751
-0.0833198
0.0107806
-0.121667
0.00155519
-0.0187309
-0.392561
-0.27646
-0.235728
-0.0471544
0.202529
-0.202573
-0.408099
0.0204922
-0.0632966
-0.177505
-0.0289811
-0.107111
-0.348252
-0.0850204
-0.0615459
-0.0823323
0.00372621
-0.281395
0.0215629
0.0462161
-0.200701
0.0326273
-0.007508
-0.355777
-0.119104
-0.0891928
-0.127347
-0.0711651
0.0456962
0.00201316
-0.0302184
-0.371095
-0.211551
-0.150305
-0.142708
0.0366164
-0.239674
0.0263625
-0.223613
0.116749
-0.0422789
-0.102958
0.0189041
-0.25132
-0.336098
-0.0202065
-0.121935
-0.0683724
-0.354302
-0.120423
-0.0716292
-0.0864697
-0.0684464
-0.0694166
-0.0771604
0.0260201
-0.0717644
0.287853
-0.0709435
0.0152612
-0.0861536
-0.124475
-0.0688265
0.0126587
-0.35096
-0.0631679
0.0335714
-0.00832923
-0.0923761
-0.0891353
0.0476236
0.00512228
0.00715791
-0.126282
-0.306331
-0.150343
0.0236312
0.0623308
-0.0695224
-0.201296
0.0198161
-0.179511
-0.377509
-0.0844235
-0.0856832
-0.0595024
-0.223569
-0.274216
0.0215967
-0.330487
0.00654663
-0.0175732
-0.0721465
-0.0884335
-0.175209
-0.0751084
-0.0599008
-0.0831529
-0.0846305
0.0104173
-0.0130518
0.102992
-0.0599549
0.0675086
-0.174249
-0.0361106
-0.00276429
0.0091892
-0.0675974
-0.17189
0.031471
-0.0560288
0.0790271
-0.121059
-0.226936
-0.0713742
-0.0726258
-0.162396
-0.319383
-0.150905
-0.0717481
0.00195689
0.351342
-0.0105516
0.115542
-0.364606
-0.0620585
-0.25225
-0.327902
0.0252923
-0.119641
0.0015194
-0.0851253
0.019777
-0.0694108
-0.183405
-0.0464679
0.0037283
-0.251414
0.195834
0.0187394
-0.373064
0.0301911
0.0354833
-0.0601922
0.0478206
-0.0802745
0.0806875
0.0370726
-0.0592092
-0.295552
-0.0936805
-0.148677
0.019248
-0.226878
-0.0598875
0.00385704
-0.0918512
0.0227724
0.104817
-0.134152
0.0040348
0.0390314
0.0709051
-0.238747
0.0182846
0.00877631
-0.108764
-0.0625124
0.00340549
0.0366557
-0.0225165
-0.16557
-0.123487
-0.108872
-0.119205
0.029592
0.217618
-0.00913568
-0.151383
-0.0725563
0.0314465
-0.0535184
-0.188099
0.00819081
-0.0286635
-0.145641
-0.0649921
-0.0335682
-0.136045
0.0123575
-0.00992387
-0.132326
0.0142055
-0.0239146
-0.261812
0.0182818
-0.1002
-0.0823923
-0.375156
-0.163545
-0.0235744
0.0899478
0.0987381
0.00961483
0.0322308
0.0214342
-0.0670879
0.0164519
-0.0664391
-0.0959293
-0.0078114
-0.0186355
-0.0815429
-0.0975073
-0.0889101
0.0191283
-0.152393
0.00238089
-0.0956468
-0.15179
-0.0541111
-0.0817516
-0.115532
-0.171111
-0.406781
-0.0609089
-0.0597145
-0.121918
-0.407654
-0.055472
0.000360985
-0.102434
0.165305
-0.0196199
-0.034065
-0.0915162
0.0125834
-0.013288
0.0180909
-0.0151013
-0.0457175
-0.0249153
-0.383159
0.00368641
-0.347628
0.0100824
-0.0954581
-0.0250687
-0.104137
-0.110684
0.0314383
-0.106584
0.0885341
0.0181347
-0.0871096
-0.0141158
0.0452074
-0.022309
-0.0639436
-0.012322
-0.10955
0.307132
-0.105899
-0.000260861
-0.0655436
-0.177697
-0.106245
-0.026805
-0.039736
-0.0756202
-0.141286
-0.326337
-0.0125052
-0.409994
0.00716006
0.171267
-0.373138
-0.086329
-0.0650761
-0.0179838
-0.0882028
0.0129144
-0.333032
-0.0752636
0.00594948
-0.0983478
-0.177755
-0.0257688
0.0263684
0.00789577
-0.31846
0.0179126
0.00292387
-0.124616
0.028117
0.0207919
-0.120558
-0.0204932
-0.110777
-0.0103339
0.0291981
-0.0008535
0.109203
-0.0305488
-0.0261951
-0.0947061
-0.121521
0.0170881
0.027461
-0.148726
-0.0314655
-0.409474
-0.0383192
-0.354765
-0.00801514
0.0314864
-0.0040567
-0.0661078
-0.12192
0.00171938
0.0143671
0.11899
0.00543932
0.0265649
-0.0646046
0.00595563
-0.082583
-0.0110243
-0.0614493
0.0206474
-0.150333
-0.00271455
-0.0770618
-0.00522632
-0.233718
-0.301867
-0.0135464
-0.0661524
-0.299343
-0.0978944
-0.0738537
-0.0670121
-0.254631
0.0782063
-0.0934401
-0.154169
-0.163204
-0.0296248
-0.0616173
0.0965197
0.00013735
-0.0603615
-0.410137
-0.10942
-0.142642
-0.261105
-0.0596634
-0.0986971
-0.0194834
-0.0129895
-0.190199
-0.339971
-0.202145
-0.222
-0.142177
-0.00440526
-0.346563
-0.0813621
-0.375269
0.00869854
-0.33598
-0.401887
-0.306278
-0.117715
-0.111909
-0.0865507
-0.0797655
-0.209867
0.105017
0.00934016
-0.325958
-0.117633
-0.0133918
-0.147889
0.0168196
0.00840159
-0.0955854
0.0879121
-0.249543
0.078459
-0.408761
-0.071856
0.112013
-0.126731
-0.23194
-0.147452
0.058943
0.100012
-0.146334
-0.0528667
-0.00292455
-0.124476
0.0446641
-0.212732
0.0147481
-0.198156
0.00745368
-0.0956857
-0.0728191
-0.0684787
0.0762368
-0.197395
-0.372849
0.0334688
0.00612721
-0.376629
-0.28148
-0.0374867
-0.0531909
0.0167804
-0.137012
-0.0553915
-0.0684791
-0.177847
0.0469516
0.00776737
0.233118
-0.0221705
-0.134553
-0.279063
-0.00180705
0.0185218
-0.0500958
0.0120851
-0.0481571
0.00262673
-0.031699
0.0963379
0.00983925
0.0162735
0.0471926
-0.0778404
-0.168194
0.0115814
-0.148262
-0.370403
-0.00940128
0.0760037
-0.2066
-0.17241
0.0408601
-0.114256
-0.0700774
0.165878
-0.0784367
-0.0248608
0.00769705
-0.334847
-0.0497416
-0.0827068
0.0435328
0.032867
0.0145146
-0.124487
0.0155015
-0.109981
-0.0838067
-0.161747
0.00487827
-0.134964
-0.34142
-0.150293
-0.00465861
-0.222416
0.158688
-0.340083
-0.288691
0.0636838
0.00135758
-0.233156
-0.1376
-0.0872769
-0.0981903
-0.0902076
0.00649634
-0.017856
-0.0461345
0.015666
0.0477803
-0.231774
0.013839
0.191125
-0.00928746
-0.202399
-0.137649
-0.120548
-0.0712174
-0.152072
0.0445009
0.0206263
-0.254232
-0.0130968
-0.0134912
-0.0101506
-0.18783
-0.138641
-0.330288
0.0885331
-0.029887
-0.0163008
-0.0212424
-0.109621
0.00496759
-0.0676928
-0.20308
0.0198973
0.0241165
-0.0911328
-0.0822977
-0.0410865
0.024964
-0.166913
-0.20688
-0.0238494
-0.118732
0.0138228
-0.141022
-0.241852
-0.0376943
-0.407745
-0.404516
-0.158154
-0.00903759
-0.0297894
0.0183789
0.0229722
-0.121966
0.00358097
-0.230036
-0.0737348
-0.308587
-0.0319114
-0.141548
-0.15608
-0.126366
-0.245358
-0.36693
-0.01067
-0.0614521
-0.0626064
-0.0673803
-0.0838583
-0.01463
-0.0698478
-0.0179314
-0.0830738
0.042455
0.00203979
-0.266651
-0.106626
-0.407739
0.0148812
-0.138641
-0.0296378
-0.109465
-0.0528959
-0.11973
-0.127468
-0.242065
-0.0709236
0.0142152
0.00755277
-0.113198
0.0162136
-0.099809
-0.273007
0.00775678
-0.0711697
0.141614
-0.292285
-0.0476343
-0.116224
-0.108575
-0.0210612
-0.157441
0.0183294
-0.085939
-0.0577777
-0.193135
-0.330381
-0.145657
-0.00500359
-0.107666
-0.016129
-0.212098
0.00149906
-0.257533
-0.0166589
-0.111062
-0.01573
0.013375
-0.0855543
0.0937108
0.0345015
0.00862534
-0.0828853
-0.0726686
0.00420807
-0.0902536
-0.0705351
-0.248826
0.0337957
-0.36779
-0.0174964
-0.0713695
-0.0642474
-0.0088565
-0.151438
0.0137611
-0.365698
-0.0913142
-0.0520431
0.0271793
-0.285402
-0.105508
-0.0171946
-0.130227
-0.217323
-0.156845
-0.0197457
-0.160014
0.0231306
-0.22449
-0.0628183
-0.171669
-0.256131
-0.0886024
0.159775
-0.141428
-0.110707
0.016051
-0.00479284
-0.126658
-0.154116
-0.181876
0.242178
0.00805669
-0.0636198
-0.183362
-0.286497
-0.0812289
-0.27378
-0.0812948
-0.351468
-0.347584
0.0140191
0.0935051
0.0223032
-0.0212133
-0.0145082
-0.115922
-0.00860621
0.0728811
-0.346535
0.00985304
-0.00152657
-0.0702416
-0.17321
-0.0722927
-0.00639653
-0.245013
-0.0468554
-0.0720959
0.0191694
-0.390879
0.0720983
-0.180075
0.0268451
-0.0927532
-0.124867
0.0225323
-0.412078
-0.152691
-0.158045
0.0140303
5.57022e-05
-0.0915452
-0.390633
-0.0654425
-0.0200407
-0.160774
-0.145055
-0.0250956
0.0076049
-0.00319836
-0.137125
0.114375
-0.0625101
-0.0494908
-0.0594879
-0.10074
-0.173247
-0.15997
-0.0513995
-0.0874284
-0.0153
-0.185404
-0.135655
0.0282984
-0.0625756
-0.363808
-0.16613
-0.0644437
-0.403392
-0.364317
-0.248291
0.0761697
-0.0234982
-0.188568
-0.255831
-0.260214
0.0160616
-0.0998213
0.0371028
0.0160556
-0.0639586
-0.195397
-0.110409
0.0147993
-0.107526
-0.130729
-0.119904
-0.117837
-0.305779
-0.094553
0.000289802
-0.123647
-0.0667904
-0.284782
-0.0663667
-0.106674
0.0482493
0.000320912
-0.106339
-0.118371
-0.0147969
-0.0798661
-0.070902
0.0173888
-0.0705647
-0.0933248
0.0434034
-0.077758
-0.154062
-0.0738294
0.0269394
0.307096
-0.125768
-0.0652164
-0.110494
-0.0221544
-0.0793047
-0.0478703
0.0409683
-0.00909754
0.145541
-0.0727905
-0.0825016
-0.248453
0.00799115
-0.0216166
-0.0848309
-0.0691582
-0.245136
-0.158447
-0.0789331
-0.0152188
0.0347411
-0.0828144
-0.0155661
-0.303968
0.0330343
0.0166265
-0.010913
-0.0612438
-0.36999
0.046428
-0.0971572
-0.0460365
0.00389507
-0.0807149
0.149684
-0.0936349
-0.0990673
-0.409829
-0.0645365
-0.216503
-0.0996773
-0.260778
-0.0740996
0.00111798
-0.00494736
-0.12006
-0.150538
-0.00328179
-0.00212756
-0.0768058
-0.145601
-0.074036
-0.406672
-0.106972
0.0158032
-0.226734
0.00681753
-0.0752232
0.0264237
-0.158457
0.00519469
-0.0577434
-0.131951
-0.0861077
0.0251624
-0.0673555
0.11012
-0.101708
-0.228468
-0.0694498
-0.00161481
-0.174242
-0.101516
-0.21424
-0.112704
-0.146771
-0.0128732
-0.0994586
-0.0216291
-0.364187
0.0117344
-0.0795402
-0.106003
-0.288527
-0.0120525
0.00960667
-0.371291
-0.111907
-0.365409
0.158033
0.0243675
-0.114436
-0.126568
0.160068
-0.0739502
-0.0773908
-0.200747
-0.0493629
0.0173006
0.00628517
-0.271616
0.0585381
-0.17232
0.037961
-0.008698
-0.264827
-0.0597622
-0.0195802
0.0137773
-0.0819238
-0.18694
-0.0770176
-0.10687
0.0833155
-0.145185
0.0204298
-0.224401
-0.0839102
-0.109055
0.19926
-0.0502279
-0.116928
0.129294
-0.0209614
-0.103661
-0.406605
-0.0583446
-0.0270737
-0.334929
-0.0974732
0.0147355
0.0640192
-0.121865
-0.127566
0.12288
-0.088713
-0.261841
-0.0289645
-0.0948828
-0.0141601
-0.0645771
-0.141915
-0.358945
-0.0907119
-0.0649324
-0.145308
-0.0628333
-0.141747
-0.0421755
-0.105381
0.0305212
-0.0645438
-0.159394
0.0209037
0.00510461
-0.0612009
0.045792
0.0248309
-0.122223
-0.0920561
-0.172552
-0.0578146
-0.158405
0.00513871
-0.0695154
-0.0986067
0.00859197
-0.106031
-0.342429
-0.256693
-0.0713157
-0.0940847
-0.0643376
0.000780445
0.0737574
-0.137662
-0.109231
0.0259816
-0.0708293
0.0273957
-0.0895102
-0.110943
0.116588
-0.0947942
-0.0855976
-0.107817
-0.0813925
0.232796
-0.383404
-0.295067
-0.0572995
-0.0130109
-0.0682836
0.00253347
-0.0125061
-0.349825
0.0187026
-0.0712097
0.0472401
-0.162834
-0.055468
0.0193829
-0.360735
0.114318
0.077951
-0.0604718
-0.244739
-0.314007
-0.0602192
-0.0631064
0.0474295
-0.0695746
-0.136444
-0.0767494
0.0233416
-0.196558
-0.125779
-0.0448
-0.0719091
-0.103809
-0.00114135
-0.242816
-0.147694
-0.0779491
0.0185315
-0.238535
-0.0052804
-0.127809
-0.0736485
-0.164983
-0.000459578
-0.106526
-0.410646
-0.0452406
-0.153425
-0.0611996
-0.112337
-0.189335
-0.118775
0.0765097
-0.389389
7.91985e-05
-0.066039
0.0145759
-0.0403331
-0.119294
-0.0650256
-0.054844
0.285633
-0.210406
-0.0691544
-0.0244495
0.0471574
-0.118478
-0.333964
0.10968
-0.340014
-0.14105
-0.0651486
-0.0799879
-0.146378
-0.0957885
0.17554
-0.115406
0.00179199
-0.0430462
-0.0297785
-0.344594
0.0260319
-0.0739532
-0.0119476
-0.0985139
-0.0777769
-0.108823
-0.118847
0.0746113
-0.189915
-0.0132145
0.0459011
0.015239
0.0234726
-0.053825
0.00729759
-0.093929
-0.198703
-0.102168
-0.105409
-0.05425
-0.00921225
-0.0677751
0.0196932
-0.102129
-0.131018
-0.39665
-0.0851103
-0.074326
-0.0593058
0.0191387
0.0619363
0.160832
-0.111507
-0.204942
-0.095799
-0.375432
-0.079817
0.00900037
-0.00241122
-0.0592676
0.00920255
-0.0776285
0.218545
-0.256036
-0.044501
-0.132285
0.0243602
-0.0349955
0.0374603
0.0423946
0.0559287
-0.0865802
-0.0124341
-0.0658957
0.170908
-0.0991094
-0.0868182
-0.194814
-0.170386
-0.270505
-0.0736334
-0.0455173
-0.0226009
-0.0813025
-0.0627261
-0.234261
-0.0725349
-0.0739071
-0.202068
-0.0788585
-0.0380892
0.012651
-0.0701503
0.0184442
-0.0618638
-0.401121
0.0158355
-0.0163795
-0.301116
-0.0619498
-0.0742948
-0.32788
0.0441914
-0.0927781
-0.111009
-0.254387
0.133332
0.0160499
-0.0707741
0.251308
0.031908
-0.0992261
0.0201671
-0.216662
-0.0709334
0.245279
-0.338687
0.115201
-0.139927
0.0074805
-0.387083
0.0409537
-0.0604742
-0.00501341
-0.12141
0.00836856
0.0386512
-0.066388
-0.256402
-0.120819
-0.0432271
0.148738
-0.00821267
-0.00472003
-0.0425709
-0.105758
-0.0586166
-0.178696
-0.119264
-0.214546
0.01968
-0.225687
-0.255025
-0.172802
-0.0463404
-0.205664
0.0163096
-0.0147971
0.0142041
-0.331842
-0.0198382
0.0270284
-0.0705578
0.0178898
-0.218815
0.0691137
-0.022769
-0.105769
-0.0513618
-0.167693
-0.0118298
-0.138874
-0.0183803
0.215464
-0.408635
-0.119962
0.0116996
-0.0560405
-0.10862
-0.0622513
-0.228138
-0.0840621
-0.0456696
-0.207619
0.000476558
-0.0315295
-0.374152
-0.0740173
-0.0557086
-0.0679706
0.0177265
-0.00405702
0.0077332
-0.0553787
0.0388752
0.0254875
-0.142421
-0.414959
0.129684
-0.408464
-0.070985
-0.0558553
-0.291478
-0.383717
0.0531719
-0.368344
-0.356001
-0.0838698
-0.334233
-0.0826148
-0.110445
-0.0785857
-0.401723
-0.333631
-0.221535
0.0802389
0.0897827
0.057364
-0.0529673
0.00154947
-0.290011
0.0182594
-0.409257
0.042343
-0.16631
-0.0115189
-0.102912
0.0811902
0.0836745
0.0230001
0.00530599
0.0767764
-0.0468555
-0.0328538
-0.065804
-0.343845
-0.0536023
-0.229863
-0.00308212
0.0904819
0.117767
0.0397594
0.00432053
0.00713135
-0.157562
-0.104433
-0.150633
-0.364654
-0.0277491
-0.136769
0.0254941
-0.072761
0.00192932
-0.0126456
0.0205912
-0.0999103
-0.0100946
-0.0642546
-0.272859
-0.010443
-0.0790544
0.0206078
-0.335134
-0.233609
-0.398793
-0.106519
-0.22692
-0.211689
-0.0805924
-0.242847
-0.0718191
-0.392595
0.0565477
0.168369
-0.315601
-0.228923
0.026982
-0.406953
-0.207548
-0.138635
-0.0110973
-0.103448
-0.321357
0.0142509
-0.410625
0.10325
-0.269288
0.0066994
0.0453826
-0.157489
0.00739679
-0.055209
-0.149403
-0.0170267
-0.0246346
-0.0664745
-0.160825
-0.408962
-0.069984
-0.0308068
0.0566611
0.0146178
-0.0154286
-0.0885957
-0.102861
-0.119567
-0.300343
-0.082988
0.00234336
0.00315892
-0.132613
-0.405154
-0.268527
0.110778
-0.0120205
0.136742
-0.410478
-0.404213
-0.0154783
0.0129426
-0.325528
-0.0274852
-0.145796
0.0744335
0.0178971
-0.0325133
0.0996369
-0.151142
-0.316253
0.00783024
-0.0171876
-0.0414572
-0.0651094
-0.296342
0.0201277
-0.217395
-0.250822
-0.0150904
-0.0632576
-0.0717139
-0.407668
0.0258231
-0.408938
-0.301637
-0.0396408
-0.0399967
-0.0463271
0.333087
-0.241251
-0.0610927
0.0112752
-0.405768
-0.244157
-0.0106796
-0.136569
-0.211237
-0.0792434
-0.192896
-0.289688
-0.135237
-0.255104
-0.0601565
0.0792545
-0.0438867
-0.14972
-0.274099
-0.267471
-0.406259
-0.177196
-0.0155302
-0.0835528
0.00623109
0.00938706
0.0296721
0.00959632
0.0232837
-0.01265
-0.0846912
-0.348135
-0.355626
0.00714872
-0.19357
0.178609
-0.00379682
0.00299597
-0.146388
0.0203529
-0.0589057
-0.0710713
0.0227364
-0.0146889
-0.0782852
0.0071603
-0.255886
-0.0578047
-0.00734614
-0.0160554
-0.18778
-0.0123593
-0.341592
-0.156211
-0.0142958
-0.114372
-0.0114074
-0.0422799
-0.0251926
-0.177542
-0.0922592
0.00934232
-0.168029
-0.089942
0.0171846
-0.0166578
0.0349788
-0.0304444
0.0196031
-0.296302
-0.251728
-0.412226
-0.0650513
-0.410104
0.0204306
-0.0618256
-0.0304377
-0.217541
0.0502758
-0.108231
-0.00139457
-0.0602958
-0.132274
-0.382399
-0.0809383
-0.00161294
-0.114671
-0.0046348
-0.178212
-0.0117691
-0.0139424
-0.0518935
-0.0623233
0.000744935
0.0103046
0.0666696
-0.15803
0.048446
-0.0213874
-0.0516813
0.00727345
-0.095504
0.0190645
-0.405903
-0.0651679
-0.0447105
-0.119639
-0.409988
-0.0664066
-0.221708
-0.0134274
0.0175317
-0.0769775
-0.090351
-0.221538
-0.066258
-0.0868311
-0.0366714
-0.122526
-0.076077
-0.0570038
0.0219673
0.00273657
-0.152841
-0.145776
-0.409191
-0.0570558
-0.0113176
0.021252
-0.408551
-0.103888
-0.0127875
-0.238759
-0.0193755
-0.0818671
-0.0832312
-0.0847344
-0.0278954
0.0160172
0.00471623
-0.0567001
-0.184004
-0.256858
-0.0140627
-0.0131623
-0.262876
0.00685453
0.00955518
0.109813
0.102157
-0.0651298
0.015836
-0.0635456
-0.0770955
0.103199
-0.369787
-0.1167
0.0263006
-0.0552542
0.0326024
0.00622545
-0.408039
0.310936
-0.0670913
-0.0281522
0.0183916
-0.146762
0.0906794
0.0220895
-0.0719435
-0.362699
-0.0119942
-0.103444
0.0290072
-0.115201
0.0254544
-0.0211106
-0.41056
-0.145683
-0.13987
0.017294
-0.138059
-0.019335
0.0215681
-0.068286
-0.104133
-0.11281
-0.0681826
-0.147246
-0.0410726
-0.0742851
0.232269
0.199229
-0.0216289
-0.01227
0.0567642
-0.0126238