/*--------------------------------*- C++ -*----------------------------------*\
| =========                 |                                                 |
| \\      /  F ield         | OpenFOAM: The Open Source CFD Toolbox           |
|  \\    /   O peration     | Version:  v2012                                 |
|   \\  /    A nd           | Website:  www.openfoam.com                      |
|    \\/     M anipulation  |                                                 |
\*---------------------------------------------------------------------------*/
FoamFile
{
    version     2.0;
    format      ascii;
    class       surfaceScalarField;
    location    "300";
    object      phi_0;
}
// * * * * * * * * * * * * * * * * * * * * * * * * * * * * * * * * * * * * * //

dimensions      [0 3 -1 0 0 0 0];
oriented        oriented;


internalField   nonuniform List<scalar> 
20580
(
-0.13235
0.00913362
0.123217
0.127103
-0.249345
0.122241
0.259041
-0.131937
0.00635289
0.00262563
-0.00897852
0.584009
-0.619939
0.03593
0.263334
-0.188109
-0.0752255
-0.300221
0.0466821
0.576383
-0.579203
0.0028202
-0.0154766
0.0126648
0.00281189
0.422841
-0.246658
-0.176183
0.143604
0.0108311
-0.154435
-0.518687
0.313174
0.205513
-0.207862
0.284807
-0.0769454
0.0035528
-0.000911552
-0.00264125
0.190351
-0.0341904
-0.156161
-0.115213
0.0996954
0.0155175
0.00866504
0.00568169
-0.0143467
-0.170797
0.356781
-0.185984
0.0983763
-0.10964
0.0112641
-0.117447
-0.0149038
0.0626601
-0.193071
0.13041
0.233891
-0.2028
-0.0310915
0.0247227
-0.038505
0.0137823
-0.58481
0.591847
-0.00703633
0.0809419
-0.09672
0.0157781
-0.00179215
0.116227
-0.114435
-0.0175571
-0.0656439
0.083201
-0.0936077
0.0759322
0.0176755
-0.00781884
0.0262535
-0.0184347
0.485204
-0.324924
-0.16028
0.00614024
-0.00351983
-0.00262041
-0.224972
-0.075249
-0.113853
0.127887
-0.0140337
0.0257833
-0.0191158
-0.00666753
-0.15556
0.150444
0.00511545
-0.0182194
-0.00736608
0.0255855
-0.615202
0.0303914
0.00941993
-0.0686139
0.059194
0.00240384
-0.000736408
-0.00166743
-0.131394
-0.16069
0.292084
-0.00573536
-0.00472871
0.0104641
-0.0288881
0.0210692
0.0154673
-0.0154673
0.0959941
-0.00305622
-0.0929379
0.0244244
-0.0320107
0.00758627
0.450871
-0.279035
-0.171836
-0.536128
-0.0696886
-0.129735
0.0484829
0.0812518
-0.0524
-0.212199
0.264599
-0.298422
0.0905608
0.012617
-0.0128282
0.000211267
0.143877
-0.283793
0.139916
-0.100601
-0.0146123
-0.0489208
-0.126123
0.175044
0.00599457
-0.000981745
-0.00501282
0.102326
-0.23372
0.00930271
-0.123156
-0.00928649
0.00355113
-0.0236662
0.0920387
-0.0683725
0.0025095
-0.00212232
-0.000387182
-0.355091
-0.163596
0.0714797
-0.0890368
-0.218059
-0.196712
0.414771
-0.195663
0.143263
-0.0432233
0.0911152
-0.0478918
-0.0821618
0.0389385
0.00304667
-0.000537172
-0.0937854
0.065206
0.354186
-0.249548
-0.104639
0.00464402
0.00351852
-0.00816254
0.00867492
-0.000235947
-0.00843897
0.166143
-0.185837
0.0196935
-0.031714
-0.222227
0.253941
-0.00232752
0.000205201
0.179846
-0.0184399
-0.161406
0.220781
-0.215913
-0.00486825
0.0171008
-0.00843578
0.343386
-0.527117
0.183731
0.0969894
-0.0160475
0.449283
-0.215706
-0.233577
0.246512
0.107674
-0.105255
0.120122
-0.014868
-0.0223044
-0.133255
-0.00145054
0.00302029
-0.00156974
-0.00149132
-0.000836197
0.00548127
-0.0077043
0.00222302
0.0648631
0.169028
0.0127672
-0.00181279
-0.0109544
0.229346
0.146959
-0.376305
0.00354383
0.00259641
0.267056
-0.123179
-0.304951
0.0799792
0.0147258
-0.0147258
0.00925926
-0.00377799
-0.00356668
0.00379308
-0.000226396
0.0261761
0.0710602
-0.0972363
0.148753
-0.352766
0.204013
-0.089242
0.108127
-0.0188846
0.00819917
-0.00904667
0.000847501
0.0178498
0.0968543
-0.114704
-0.111121
0.0218786
0.122965
-0.0482151
-0.0747502
0.0843184
-0.120063
0.0357449
-0.16967
-0.0788157
0.248486
-0.469431
0.130751
0.33868
0.132391
-0.172875
0.0404844
-0.163863
-0.305568
0.00813835
0.000536565
-0.075655
-0.229296
-0.338129
0.167332
-0.00856525
0.152296
-0.143731
0.338285
0.112586
-0.103634
0.11726
-0.0136265
0.0170372
0.112391
-0.129428
-0.11831
0.110631
0.00767897
0.163221
-0.212142
0.169589
-0.398907
0.229318
0.466171
0.110211
-0.00338113
0.00973402
0.00768961
-0.00304559
0.0728156
-0.102349
0.0295329
0.158498
-0.419086
0.260589
-0.275328
0.289101
-0.0137728
0.00383195
-0.00140888
-0.00242307
0.0839622
-0.113444
0.0294815
0.0263012
-0.0661002
0.0397991
0.34303
-0.194277
0.0552866
0.0949778
-0.150264
0.00938504
0.00377035
-0.0131554
0.147502
0.0170896
-0.164592
-0.19936
-0.0034398
-0.135003
0.187137
-0.0521343
-0.0760059
0.0854258
0.0161285
0.00965484
-0.00238486
0.145989
-0.000930689
-0.00377639
0.00470708
-0.0478046
-0.00604305
-0.00166125
-0.0107861
0.123956
-0.11317
-0.164749
0.0242887
0.14046
-0.109545
0.00429029
0.251067
-0.231235
-0.0198325
-0.0672423
0.296588
-0.078173
0.00102306
0.07715
-0.00419126
-0.0642904
0.0684816
-0.0368764
0.229832
-0.192955
0.515744
-0.172358
0.00573943
0.0179045
-0.0155267
-0.0023778
-0.0665223
0.121809
-0.0573706
-0.0537499
-0.113089
0.0094554
-0.106404
0.123442
0.104011
-0.0980521
-0.00595913
-0.215811
-0.020497
0.236308
0.129143
0.188026
-0.317168
0.310519
0.213385
-0.523904
0.00277027
-0.00036643
-0.187138
0.0909187
0.096219
-0.0498585
0.209708
-0.159849
-0.416313
-0.164198
0.580511
0.0278238
-0.0224904
-0.00533338
0.160316
-0.0279257
-0.0430966
-0.0866381
0.0015902
0.00196261
-0.0262487
0.00498255
0.0212661
-0.0184656
-0.00778311
0.0122068
0.000410209
0.157046
-0.165612
0.0488087
-0.0446955
-0.00411317
0.535025
-0.327449
-0.207576
0.438816
-0.269227
0.157445
-0.143214
-0.0142309
0.550017
-0.11035
-0.439667
-0.00181581
-0.00175087
-0.0718359
-0.0203016
0.0921375
0.090964
-0.105307
0.0143433
0.257011
0.181805
0.184346
-0.166254
-0.0180925
0.110174
-0.0192096
0.102513
-0.0185506
0.12217
0.00715726
-0.174328
0.167171
0.184063
-0.0365608
-0.0159691
0.0159691
0.00559666
0.0123079
0.0942087
0.0336783
-0.0712242
-0.059889
0.131113
0.229496
0.00533006
-0.234826
-0.134005
-0.242117
0.376122
-0.0764107
0.0722194
-0.130956
-0.0561814
-0.00154161
0.000630056
0.13212
0.131215
-0.225915
0.189039
-0.0969306
0.115286
-0.0183558
0.119023
-0.0248148
0.202353
0.103523
-0.305876
0.127461
-0.314074
0.186613
-0.0123146
-0.0706049
0.0829194
0.114195
-0.114445
0.00025009
0.00200635
-0.00158305
-0.000423301
0.0104043
-0.00507775
-0.00532654
0.01634
0.174011
-0.00403262
-0.0507249
0.0547576
0.00258068
-0.000574333
0.194205
-0.211273
0.0170683
0.120393
-0.135817
0.0154233
0.0158356
-0.00606855
-0.00976704
0.203843
-0.0106371
-0.193206
-0.102452
0.105583
-0.00313117
-0.24492
-0.0304078
0.00465026
-0.646367
0.396675
0.249692
-0.1352
0.160805
-0.0256053
-0.213347
0.183237
0.0301092
-0.247343
-0.0510794
-0.00718308
0.0851815
-0.0779984
-0.175944
-0.139179
0.315123
-0.00178004
0.0241143
-0.20184
0.458851
0.1217
-0.109705
-0.0119952
-0.00200398
0.000553439
-0.00264377
0.00416412
-0.00152035
0.033062
-0.138513
0.105451
0.1412
-0.0208064
0.66847
-0.366412
-0.302058
-0.0285165
-0.0496565
0.170917
-0.455383
0.284467
0.0152446
0.00289826
-0.00475047
0.00185221
0.0855117
-0.156736
-0.0349578
0.238801
-0.480387
0.221942
0.00330603
0.00709826
0.227647
0.257557
0.0706298
-0.0459071
0.0076998
-0.00351158
-0.00418822
-0.103711
0.12156
0.143118
-0.559431
-0.0395422
0.0880719
-0.0485298
0.00174353
-0.000943362
-0.000800173
-0.00769203
0.0321165
-0.00275679
0.179488
-0.178659
-0.00082927
0.0635389
-0.0601731
-0.00336581
0.0826861
-0.0898692
0.0284342
0.155912
0.100088
-0.0290282
0.152871
-0.158525
0.00565382
0.000674197
-0.00628866
0.00561446
-0.106327
0.116621
-0.0102943
-0.3096
0.646244
-0.336644
0.0585281
0.154914
-0.213442
0.011196
0.0261837
0.00164008
-0.00987224
-0.00396913
0.0138414
-0.347914
0.21391
0.0502927
0.185346
0.155204
-0.34055
0.0997562
-0.0951845
-0.00457169
0.111677
-0.102833
-0.00884329
-0.0991696
0.157698
0.145701
0.0146151
-0.129431
0.0231042
-0.094685
0.3024
-0.207715
0.0551197
0.0678456
-0.129524
0.0413045
0.0882199
0.101457
-0.0787405
-0.0227163
0.458451
-0.189957
-0.268494
-0.293322
0.0459788
0.118574
-0.0155119
0.0223652
-0.00685329
0.0131274
-0.00012241
-0.013005
0.15402
-0.0171229
-0.136897
0.388463
-0.229965
0.0928232
0.00968957
-0.0983024
0.104788
-0.00648583
-0.0938071
0.118583
-0.0247754
0.158841
-0.01314
-0.0199834
0.00447154
0.00657493
-0.00685628
0.000281355
0.147501
-0.195751
0.04825
-0.101758
-0.0603976
0.162155
-0.0778708
0.0863506
-0.00847971
0.184286
0.167092
-0.351378
0.226272
0.29639
-0.522662
-0.112359
0.0185517
-0.0218367
0.143498
-0.121662
-0.460518
0.230028
0.23049
0.492275
0.131343
-0.623618
0.404712
-0.233795
-0.564204
0.570884
-0.00667997
-0.0175278
-0.154559
0.172087
0.536791
-0.0117882
-0.00368848
-0.0898783
0.152538
0.152654
-0.288604
0.13595
0.00796429
0.00340066
0.00043129
0.0572953
0.214389
-0.271684
0.00425354
0.0101387
0.000238421
-0.0103771
0.0697428
0.181324
-0.183182
0.240477
-0.214583
0.124705
0.00136135
-0.000726517
-0.000634835
0.0112235
0.00158097
-0.0128044
0.159331
-0.0267958
-0.132535
0.461674
0.122335
0.0488376
-2.8893e-05
0.179934
0.144077
-0.150415
0.00633802
0.010434
-0.000295302
0.0938058
-0.0843837
-0.00942211
-0.254956
0.205097
-0.0919077
0.0140368
-0.00701339
0.0906258
-0.0836124
0.00532668
-0.00715076
0.00182409
0.110327
-0.00162367
-0.108704
0.0448533
-0.110005
0.0651519
0.000362799
-0.00129349
0.00619794
-0.00269525
-0.00350269
-0.0326105
-0.0609973
0.315755
-0.188295
-0.00513391
0.014622
-0.00948804
-0.00797898
0.00797898
0.00368188
-0.0309254
0.0272435
-0.0372238
0.0409057
0.144225
0.049979
0.161512
-0.0288947
-0.132618
0.0203883
-0.155638
0.13525
0.00540282
0.00736434
0.0535998
-0.111689
0.0580889
-0.215994
-0.301029
0.517023
-0.105668
-0.43046
-0.0483204
0.180001
-0.131681
-0.00271824
0.00804492
0.0268777
0.371172
-0.186886
0.0011493
0.0495271
0.113661
-0.163188
-0.1811
0.0460969
-0.0465081
0.256216
0.00103256
0.000328795
0.0978001
-0.0049769
0.0146857
-0.00884206
-0.204505
0.18455
-0.219507
-0.0304609
0.0255002
0.00496064
0.24591
-0.0164146
0.00570885
-0.062669
0.21017
-0.126037
-0.0885458
0.139198
-0.0896712
0.332305
0.289967
-0.137313
0.119109
-0.133887
0.0147777
-0.0218257
0.11868
-0.113131
0.120053
-0.00692265
-0.0830193
-0.0213139
-0.00914696
0.191131
0.0387009
0.00262206
-0.106191
0.0923812
0.01381
-0.193586
0.431584
-0.237999
0.0925976
0.00120821
-0.106499
0.12514
-0.0186407
0.00836304
-0.000163874
0.16899
-0.21731
-0.135428
0.00744244
-0.0897928
0.0661266
-0.0854378
0.0796116
0.00582618
0.112718
-0.123467
0.0107485
0.012055
-0.00954645
-0.00250853
0.289089
-0.236874
-0.0522146
0.0199066
-0.0917426
0.00181814
0.0136492
0.0182888
-0.183682
0.165393
0.00699923
-0.00632503
-0.0289786
-0.152604
0.181583
-0.00998939
0.00418913
0.00580026
0.0822627
-0.184021
-0.0314472
-0.129909
0.118381
-0.115377
-0.00300373
0.0592123
-0.0923061
0.0330938
0.306894
-0.177751
0.236865
-0.154678
-0.0821864
0.0928195
-0.114656
0.0135919
-0.293873
-0.0251169
0.31899
-0.00624538
0.160265
-0.0360847
0.00112345
0.0349613
-0.208911
0.177197
-0.0744901
-0.0613266
-0.0107599
0.012194
-0.00143404
0.102658
-0.254667
0.152009
-0.0460827
0.11231
-0.0662276
-0.155724
0.15057
0.00515352
-0.00331284
0.0145363
0.188546
-0.199183
0.129225
-0.131017
-0.0658495
0.0618169
-0.0017671
0.163691
-0.15667
-0.00702123
-0.0157045
0.00583222
0.000252211
-0.0882268
0.0486846
-0.279993
0.185308
0.117231
0.00187799
0.155021
-0.180419
0.0253982
-0.122948
-0.0124798
0.417725
-0.206741
-0.210984
-0.0161829
0.0161829
-0.00855621
0.032179
-0.0236228
-0.0799903
0.0876261
-0.00763571
-0.0547292
0.239279
-0.0110501
0.0855197
-0.0787721
-0.00674762
0.0119968
0.00113056
0.483673
-0.213466
-0.270207
-0.0156943
0.0105603
-0.108856
0.103166
0.0056903
-0.00953018
-0.00723564
0.0167658
0.167504
-0.0146334
-0.0174867
-0.0697947
0.0872814
-0.0392679
-0.238046
0.277314
0.567843
-0.0178264
0.000275946
0.00571862
0.0886409
-0.0103293
-0.0783116
0.145975
0.276866
-0.207742
-0.041603
-0.135552
0.0610621
-0.156474
0.460041
-0.303566
-0.038689
0.0301328
0.0355213
0.125991
-0.123357
0.0168574
-0.222944
0.219251
0.00369286
0.0138274
0.275261
-0.329828
0.250289
0.0795396
-0.0783865
-0.00705124
-0.0802357
-0.208368
-0.0303339
-0.299494
0.0189163
-0.0652441
0.0463278
-0.0363731
0.000288374
-0.16971
-0.0296497
0.0210051
-0.0908487
0.0698437
0.216358
-0.434417
0.51534
-0.21895
0.272888
-0.17023
0.00349085
0.125789
-0.144357
0.0185679
-0.326337
0.0285235
0.297813
-0.315837
0.214775
0.101062
-0.0340073
0.106823
-0.120649
0.297325
-0.176676
-0.0228086
0.0192604
0.00354824
-0.170383
-0.379393
0.549776
-0.152811
-0.0584898
0.211301
-0.0143517
-0.017659
0.00572335
-0.0955074
0.089784
0.430111
-0.607801
0.17769
0.498268
-0.19966
-0.298608
-0.196783
-0.0261613
0.320067
-0.124315
-0.195752
0.0869283
-0.0994774
0.0125492
-0.0603433
0.0514815
0.00886179
0.192039
-0.012551
-0.00960136
-0.0358078
0.0454092
0.218159
0.26588
-0.485839
0.219959
-0.00722525
0.0133417
-0.00611645
-0.0687877
-0.157538
0.0824442
0.0750935
-0.299401
0.273395
0.0260053
0.00478906
-0.12477
0.113984
0.0694079
-0.0178654
-0.0515425
-0.237323
0.0676526
-0.171009
0.00347308
0.167536
-0.0211681
-0.196169
0.169835
0.0263342
-0.00960743
0.00691218
0.0883584
-0.00283868
-0.0901635
0.0101732
-0.234189
0.0835994
0.15059
-0.00276212
-0.16065
-0.148752
0.309402
0.00376311
-0.136368
-0.0193553
0.0390728
0.0799506
0.179402
-0.0243804
0.211939
-0.109172
0.114895
0.128551
-0.446196
-0.173743
-0.0139517
0.0132304
0.000721301
0.00402527
-0.0112505
-0.00598613
-0.0168225
-0.00901759
-0.000710432
0.00972802
-0.041427
0.00713383
-0.0152312
0.00809735
0.00195501
0.148536
-0.026332
-0.122204
0.57719
-0.305525
-0.271665
0.0449099
-0.0909927
0.147431
-0.394089
-0.374778
0.0809052
0.0170225
-0.13736
0.120337
0.00271532
-0.000372753
-0.00234257
-0.0591857
-0.186541
0.245726
0.20604
-0.227849
0.021809
-0.140036
0.0982729
0.0417635
-0.147993
0.0100413
0.137952
0.395912
-0.181104
-0.214808
-0.0253281
-0.0203343
0.0456624
0.460166
-0.287451
-0.172715
0.0148857
-0.0104583
-0.00442746
0.087488
-0.00055974
0.165334
0.283949
-0.299802
0.206534
0.0932683
0.101007
-0.106636
0.00562898
0.0170731
-0.232871
0.0627347
-0.0734549
0.0107202
-0.0370604
0.0819703
-0.143762
0.357479
-0.213717
-0.00539917
0.0048063
0.00059287
-0.00947039
0.107847
0.107914
-0.103426
-0.00448779
-0.049971
-0.184218
-0.013957
-0.0512871
-0.00433192
-0.000392926
0.00472485
-0.338274
0.194512
-0.0081517
-0.0825483
0.0907
0.369015
-0.179162
-0.189853
0.107399
-0.0588745
0.0701121
-0.0112376
-0.00759383
-0.00239556
0.193262
-0.171368
-0.021894
0.143589
-0.0177996
0.231401
-0.405301
0.1739
0.118536
-0.12042
0.00188428
0.0139591
-0.00457406
0.00401865
-0.00286422
-0.00115443
-0.257604
0.396672
-0.139069
-0.016951
0.0097753
0.00717573
-0.351454
0.119467
-0.00918351
0.164874
-0.160203
-0.00467084
0.335629
0.148044
-0.0776714
-0.138241
0.00413785
-0.00406333
-7.45227e-05
0.117509
-0.0582972
-0.00126132
0.204791
-0.263977
-0.173725
0.328929
-0.0149517
0.0218045
-0.00685275
0.144663
0.40653
-0.551193
-0.116574
-0.0025278
0.119102
-0.179056
0.244632
-0.0655761
0.181639
-0.165594
-0.0160446
0.190023
-0.0358149
-0.154208
-0.0275595
0.0357227
-0.0081632
0.00691844
-0.000343509
0.0886673
-0.227822
0.139154
0.0157161
-0.013898
0.0884092
0.180306
-0.268716
0.00014139
0.129045
-0.129186
-0.0201639
-0.00872414
0.00668416
-0.00766591
0.283502
-0.315727
0.0322254
0.14175
-0.00679426
0.0911127
-0.00436703
0.000303701
0.0121684
-0.0877799
0.0756115
-0.0172541
0.13579
0.0907011
-0.0212932
0.185774
-0.0209
-0.0758688
0.158132
-0.00212041
0.00501867
0.0386559
-0.00580554
-0.0328504
-0.0569228
0.123156
-0.0662327
0.0113495
0.00353627
-0.0818915
0.0935
-0.0116085
0.00557475
0.0240818
-0.0296566
0.310536
-0.210073
-0.100464
0.0799809
0.0120578
0.0763505
-0.0938373
0.515994
-0.24483
-0.271164
0.0134333
0.0012925
0.0284964
-0.0108961
-0.0176003
0.164204
0.0193139
0.310058
-0.132435
-0.177623
-0.0470861
0.0374848
-0.111191
0.126355
-0.0151648
-0.024475
0.0403311
-0.0158561
-0.263137
0.182901
0.603277
-0.0569293
-0.546348
-0.0954057
0.130081
-0.0346748
-0.130908
-0.0170854
-0.503
0.332618
0.000899511
0.503236
0.100042
-0.0973007
0.0154092
0.223821
-0.214411
-0.00941045
0.00951936
-0.132467
-0.253555
0.174739
0.209812
0.186101
-0.13406
-0.00351066
0.137571
-0.00747584
-0.00947519
0.173274
-0.149272
-0.0240017
0.000387735
0.0161284
-0.28742
0.483396
-0.195976
-0.419694
0.0161008
0.403593
0.0044745
-0.147689
-0.147523
-0.168314
-0.0992182
0.12592
-0.0267017
-0.264957
0.176168
0.0887885
-0.113273
-0.0442649
0.0883236
-0.0083427
0.325279
-0.557957
0.232678
-0.0111329
0.0132188
-0.00208592
0.310925
0.357545
-0.107883
0.0987433
0.00914006
0.0120055
0.00371069
-0.0188348
-0.00610002
0.0249349
0.0185012
0.0248218
-0.0492968
-0.0517508
-0.0882857
0.0949215
-0.114627
0.0197058
0.0224279
0.0060685
0.229128
-0.379352
0.150224
-0.0381789
0.0128508
0.134049
-0.152627
0.170916
-0.000491713
-0.00852588
0.00680617
0.0842308
-0.0910369
-0.351382
0.157797
-0.125544
0.0263261
-0.106201
0.308554
-0.0207694
0.0263441
-0.0148865
0.00314252
0.011744
0.0184494
0.191506
-0.209955
0.0528914
-0.0266037
-0.009087
0.0356907
0.618641
-0.333113
-0.285529
0.384512
0.234129
0.128263
-0.0120354
-0.0126248
0.00149184
-0.0548827
0.0683348
-0.0134521
-0.219031
0.035849
0.122383
-0.110507
-0.0118761
0.160754
-0.281403
0.318572
-0.381953
0.0633812
0.064619
-0.0836114
0.0189924
0.00700588
0.13818
-0.0942412
-0.043939
0.164252
0.312096
-0.476348
-0.0645472
-0.0649773
0.0916296
0.0396683
-0.131298
0.0238492
-0.136023
0.112174
-0.266078
0.0860003
0.180078
-0.197496
-0.0284195
-0.128392
0.0172014
-0.177031
0.0816255
-0.126749
0.0836521
0.0121921
0.153951
-0.125644
-0.0601922
-0.120365
0.0634426
-0.0928212
0.0749558
-0.0324258
-0.0772146
0.0282472
-0.0415232
0.013276
-0.00887124
0.0716059
-0.0755223
0.0181517
0.00391361
0.00110162
-0.00501523
-0.0246007
-0.103198
0.127798
0.0102277
-0.0691022
-0.00179093
0.152613
0.188858
-0.341471
0.104935
-0.180804
-0.120528
0.0881023
-0.0131562
0.184036
-0.17088
0.2211
-0.436806
-0.451963
0.245175
0.206788
0.114232
-0.100677
-0.0135554
0.00167857
0.0103764
-0.206263
0.0534513
-0.00599765
0.00248607
0.188848
-0.476268
0.013479
-0.0683617
-0.0379891
0.0980961
-0.060107
0.011401
-0.000967005
-0.0878588
-0.0376856
-0.0201399
0.208685
0.101587
0.157454
0.000808116
0.0105929
0.077803
0.0603771
-0.143726
0.119125
0.00986884
-0.315738
0.329565
-0.0873272
0.10204
-0.0147131
0.00634881
-0.061218
-0.0360827
0.184558
-0.02748
-0.157078
0.111961
-0.109073
-0.00288857
-0.25096
0.211692
-0.335442
-0.0293866
-0.181886
0.339602
-0.0210302
0.0268177
-0.00819963
-0.0186181
-0.412414
-0.151791
0.0847958
-0.0201768
0.00741346
-0.122581
0.0347222
0.00316232
-0.00173914
-0.00142319
-0.00379625
-0.00525042
-0.0962488
0.0350309
-0.0148245
0.109746
0.166929
-0.148428
0.136636
-0.2374
-0.0559218
0.0243979
0.337609
-0.362007
-0.000592745
-0.419101
0.392886
0.147729
-0.130797
-0.0169318
-0.0243555
-0.0879269
0.112282
0.104598
-0.0129688
-0.0113506
0.0872827
-0.243882
0.011293
0.232589
0.00404742
0.486972
0.110043
0.00718775
-0.00456211
0.00921188
-0.143587
0.134375
0.0436186
0.443354
0.232879
0.246364
-0.479242
-0.0162489
0.0241947
-0.00794575
0.0304485
-0.218557
0.024508
0.0319935
-0.0565015
0.0250747
-0.00264682
0.115207
0.0936501
-0.124672
0.0310217
-0.233905
-0.147851
0.381755
0.00239399
-0.0215098
0.00339067
0.157985
-0.161376
0.0580871
-0.244628
0.00471219
0.342687
0.181275
-0.523962
0.0217195
-0.252954
-0.154167
-0.184581
0.338748
-0.0182756
0.146831
-0.128556
-0.0070175
0.00797249
-0.000954984
0.0277609
-0.193499
0.165738
-0.174768
0.175024
-0.000256346
-0.116163
0.00730691
0.00442341
-0.000404768
-0.173978
0.114089
0.0151872
0.136919
-0.152106
0.0290153
-0.00657685
-0.0224385
-0.356627
0.381025
0.0216493
-0.328738
-0.192404
0.521142
0.0469418
0.250383
-0.0791306
-0.0130583
0.0921889
-0.0746393
0.117108
-0.0424691
-0.0174399
-0.10087
0.118793
-0.0138738
-0.104919
0.0166037
-0.539432
0.31493
0.224503
0.377329
0.219686
0.119597
-0.119455
0.235507
0.0750297
-0.119229
-0.420203
0.199441
-0.223199
0.0237583
0.116249
-0.00527852
-0.11097
-0.398736
0.434588
-0.0358523
0.0945551
-0.109137
0.0145821
0.0249832
-0.0594786
0.0506687
0.00880998
0.00108456
0.117709
-0.0021728
-0.000461547
0.00263435
-0.00403567
0.127992
0.479324
0.121157
-0.119053
-0.00210385
-0.517558
0.238043
0.279515
0.138889
0.0979757
-0.0159403
0.0441875
0.0277354
-0.00223519
0.000477039
-0.0326273
0.0260505
-0.180632
0.303396
-0.122764
-0.192424
0.210874
0.119347
-0.0785241
-0.0408232
0.223798
-0.209363
-0.0144352
-0.188962
-0.192175
0.381136
-0.0135496
-0.0249554
0.0953017
0.00445452
0.000808523
0.0065772
-0.00738572
-0.0157611
-0.116871
0.0422318
-0.346716
0.305205
0.0415107
0.00699198
-0.331916
0.10271
-0.0556987
-0.0470113
-0.0806856
-0.042671
0.251733
0.49029
0.136335
-0.626625
0.0284696
0.0821611
0.106833
-0.000158153
-0.106675
-0.00180852
-0.253336
0.0375251
-0.628576
0.362728
0.265848
-0.00797559
0.000958092
-0.252717
-0.0133616
-0.0170403
-0.159678
0.176718
0.359668
-0.516142
0.00164268
0.000988739
-0.00263142
-0.477753
0.168153
-0.0179893
0.00409129
-0.282325
-0.12182
0.404145
0.0114761
-0.115187
0.180187
-0.155344
-0.0248427
0.132584
-0.0704817
-0.0621024
0.00979049
-0.313332
0.0911053
-0.263419
0.152904
0.110515
0.597297
-0.347155
-0.250142
-0.0188432
-0.0649902
0.0838334
0.0726047
-0.240171
0.167566
-0.017596
0.0136269
-0.0497443
0.255888
-0.206143
-0.084271
0.0283058
0.0559652
-0.00549796
-0.0104025
0.0159005
0.0163768
-0.175562
0.159185
-0.159091
0.411628
-0.252538
-0.0006276
-0.00811083
0.00873843
-0.042046
-0.0115164
0.0535623
0.22642
-0.137752
0.0972593
0.0198492
0.043408
-0.280808
-0.0134621
0.000614239
0.0128479
0.325629
-0.173016
-0.0639381
-0.05659
0.473534
-0.224028
-0.249506
0.427241
0.170056
0.061987
-0.037479
0.0113639
0.289375
0.208893
-0.182217
0.0560938
-0.00449814
-0.0042259
0.00872404
-0.0537481
0.0655331
-0.011785
-0.0369624
0.0103587
-0.130071
-0.217844
-0.00193169
0.0058453
0.115018
0.343433
-0.606613
0.207877
-0.228576
0.208079
-0.404515
0.298848
0.286796
-0.550505
0.26371
0.0332795
-0.0111202
-0.0221592
0.0452645
-0.0131385
-0.032126
-0.277053
0.101109
-0.434955
0.534996
0.145286
0.0479757
0.0706802
0.267605
-0.00774589
0.00711829
-0.00231002
-0.00153963
0.00222318
-0.00186038
-0.179399
-0.0840197
-0.0854441
0.249722
0.266272
-0.0289008
-0.16417
0.0697769
-0.107766
-0.141867
0.370995
0.186136
-0.514874
-0.105343
0.0935147
0.0118285
-0.00586592
-0.0090206
0.123362
-0.0297122
-0.0102874
0.152786
-0.0213601
-0.131426
-0.409741
0.213029
0.158737
-0.0084874
-0.15025
0.118536
-0.021277
0.0141269
-0.0149286
0.00080168
0.15514
-0.172668
0.0637833
0.00910894
-0.0728922
-0.11857
0.0378848
0.0618661
0.430409
0.0113296
0.00848089
-0.0198105
-0.00380641
0.015136
0.00146103
0.00887136
-0.0103324
-0.0696045
-0.0548648
0.066805
-0.0119402
-0.0957247
0.179324
0.0583969
0.00514202
-0.0215805
0.0884042
-0.0668237
-0.191714
0.178558
-0.583147
0.367153
-0.0345185
0.0318476
0.00267089
-0.234365
0.223539
0.0108257
-0.476113
0.317023
0.036648
0.246854
-0.219035
-0.0153301
0.00126993
-0.107523
0.225699
-0.382283
0.156584
0.00701541
0.151722
-0.000811514
-0.00119247
-0.125721
-0.116808
0.24253
0.00233149
0.0136376
0.0775916
-0.220536
0.142944
0.00389043
0.10533
-0.10922
-0.000628833
0.00529865
-0.00466982
-0.289616
0.0785748
-0.0664063
-0.221099
0.11379
0.107309
0.177394
-0.161017
-0.0645723
0.0108243
-0.0203436
-0.102655
-0.002283
0.104938
0.153074
0.00769175
-0.0121899
-0.159809
0.320695
-0.160885
0.00169691
-0.0131891
0.0114922
-0.020845
-0.162837
0.00244045
-0.00156709
-0.000873358
-0.0145635
0.0135642
0.000999284
0.0113624
-0.00966545
0.000808791
0.129956
-0.130765
-0.144934
-0.155281
0.300215
0.118934
-0.299566
-0.324398
0.657666
-0.333268
-0.173558
0.419222
-0.109214
-0.310008
-0.00583708
-0.162751
-0.0115766
0.0209753
-0.153218
0.132242
-0.0552502
-0.118728
0.119289
-0.215014
-0.367341
0.23727
0.00199764
-0.188728
0.18673
-0.175616
0.168142
0.00747362
-0.149334
-0.150468
-0.125641
0.190504
0.0131063
0.0056381
-0.0187444
-0.0147633
-0.0679549
0.0827183
0.0237501
0.167674
-0.191424
-0.139526
-0.00319129
0.142717
-0.0257908
-0.00872774
0.227759
-0.00473096
-0.0024198
-0.559572
0.202946
0.141721
0.00129579
-0.143017
-0.135483
0.208087
-0.18971
0.354765
-0.165054
0.110868
-0.140812
0.0299443
-0.15861
0.42449
-0.147527
0.373226
-0.05994
0.104793
-0.0931309
0.281156
0.102427
0.013822
-0.300998
0.153475
-0.0134333
0.0011345
0.0122988
-0.0834424
0.0963386
-0.0128961
0.0110422
-0.0951747
0.0841326
0.0806177
-0.0887694
0.133857
-0.327769
0.193912
0.000298107
-0.114733
0.107026
0.00770744
0.528018
0.00841968
-0.0214574
-0.206392
0.00129757
-0.00602854
0.209823
-0.20744
-0.00238306
-0.0649436
0.0665465
0.0260511
-0.0112786
0.000518663
-0.126172
0.089578
0.0365937
0.123371
0.190969
-0.31434
-0.0352515
-0.0217578
0.0883043
0.0152473
-0.109355
-0.111744
0.322946
0.16045
-0.258887
0.387389
-0.128502
0.0628065
0.0965241
0.255326
-0.305303
0.0499774
0.000477277
-0.0048092
0.000656965
0.278425
0.298765
-0.0460277
-0.0601636
-0.105731
0.0267051
0.0790257
-0.304327
0.15016
-0.00766148
0.0207678
-0.0108261
-0.00716321
0.106574
-0.0112722
-0.215824
0.16608
0.00845956
0.0272631
0.152203
-0.161929
0.478
-0.31607
0.00605421
-0.00524568
-0.130045
0.145232
0.376605
-0.260624
-0.11598
0.424492
-0.179743
-0.24475
-0.189594
0.171154
-0.163769
0.139338
0.024431
0.0122492
-0.0183178
0.000999373
0.00254446
0.0204473
0.133746
-0.154194
0.0214196
-0.00464487
-0.0167747
0.0673065
-0.214489
0.147182
0.16387
0.159443
-0.323313
-0.0858908
0.0409397
0.0449511
-0.23595
-0.216013
-0.0122771
-0.0803514
0.0926285
-0.399471
0.5919
-0.245561
-0.346339
0.128908
0.0803736
-0.209282
-0.0802311
0.0030558
-0.0161359
0.0130801
-0.0111507
-0.00231134
-0.0784167
0.0914755
-0.0130588
0.000100549
-0.00665365
0.0065531
-0.00645268
0.0236013
-0.0171486
0.121734
0.0268019
-0.0905588
-0.208842
-0.149813
-0.151185
0.0174673
0.137785
0.4987
0.0361603
-0.534861
0.14646
-0.137248
0.0178589
-0.0322155
-0.0506121
-0.113852
0.543963
-0.106208
0.143295
-0.0370869
-0.0053954
-0.100004
0.110364
-0.0103605
-0.00609597
-0.00937138
0.123574
-0.0996341
0.435264
-0.166547
0.0930199
-0.089603
-0.0034169
0.0192568
0.180184
-0.00457186
-0.00858352
0.0263022
-0.300408
-0.328169
0.140966
0.235639
0.441443
-0.27322
-0.168223
0.219844
-0.0366061
0.0961605
-0.0922778
-0.00388273
-0.00669492
0.0307767
0.00510486
-0.0213538
0.0569377
0.109992
0.313264
-0.471873
0.0166941
0.0853462
0.228439
0.0916282
0.0146068
-0.0844014
0.0023376
-0.00273053
0.131282
-0.114259
0.00147328
0.00830202
0.0066538
-0.00605248
0.00387967
0.0181128
0.112859
-0.130971
-0.0239127
0.179053
-0.0076694
0.00573771
0.187759
-0.164009
0.0774096
0.0892614
-0.166671
0.088454
0.0308933
-0.0200721
0.335544
-0.143005
-0.192539
0.0508376
0.0146955
0.325231
-0.161361
-0.0336616
-0.0123906
0.0460522
0.0028564
-0.375024
-0.184548
0.17385
0.148298
-0.0374295
0.106517
-0.00550956
0.180938
-0.141152
-0.0397858
-0.344418
0.551469
-0.207051
0.0280396
-0.207096
-0.174272
0.2128
-0.0385283
-0.118
-0.11674
0.23474
0.015567
0.0499673
-0.0655343
0.279092
-0.458493
0.1794
0.00860262
-0.0506486
0.00914847
-0.00768744
0.178291
0.146941
-0.180821
0.156908
-0.0280165
-0.135752
-0.487842
0.243012
0.0280872
-0.000351791
-0.00630041
0.000484041
0.0148547
0.0033941
-0.0182488
0.208609
0.244254
-0.452863
0.0253721
-0.208925
0.183553
0.017749
0.173971
-0.19172
-0.221721
-0.023303
0.245024
-0.0982934
0.0194991
0.0787943
0.0263786
0.380763
-0.598503
0.217741
-0.0144852
0.114169
-0.0996833
-0.132271
-0.0447603
-0.0674879
0.0178112
0.0496767
0.151286
0.000221043
0.0385029
-0.212775
-0.222678
0.0543152
0.168363
0.0893447
0.118494
-0.0145377
-0.103957
0.117282
-0.233428
0.36713
-0.133702
0.00616619
-0.00229275
0.00140132
0.000891427
-0.0342392
0.0247091
-0.00356172
0.0106956
-0.0448804
0.0112188
0.00295398
0.00135905
0.0010814
0.366072
-0.191761
-0.174311
-0.337684
0.163959
0.182485
0.117181
-0.299665
-0.0152613
-0.0725186
-0.106741
-0.0376162
-0.114894
-0.0141932
0.0135782
0.000614948
-0.318732
0.158922
0.185395
0.337211
-0.522607
0.378832
-0.0147245
-0.075987
0.301725
0.214019
0.133342
-0.210448
0.0771059
0.0976983
0.0934326
0.0687007
-0.054755
-0.0139458
-0.10959
0.214827
-0.105237
-0.334904
-0.182654
-0.447828
0.257871
-0.141049
0.329346
-0.188298
0.185782
-0.620737
0.12311
-0.11202
-0.0110898
-0.0791588
-0.0191346
-0.0439719
0.121382
-0.0486208
0.0102132
0.0384076
-0.200986
0.346221
-0.145234
0.153992
0.00350082
-0.0194572
0.0139592
-0.00999845
0.000451995
0.0697518
-0.00172867
-0.0680231
0.0628057
0.0424804
-0.105286
0.0543777
0.0336581
0.426383
-0.126351
0.113192
0.013159
0.0203553
-0.243033
-0.424894
0.14257
-0.185616
0.197505
-0.0118889
0.00379587
0.11176
-0.282921
0.171161
0.113821
0.00467365
-0.0768244
0.0645473
0.297466
-0.193943
-0.303696
0.113986
-0.158216
0.125984
0.0322319
-8.83134e-05
0.366413
0.206065
-0.572478
0.0278342
0.0408665
-0.124724
0.307209
0.0751885
-0.0904497
0.463204
-0.230325
-0.0990874
-0.177966
0.0717412
-0.0627332
-0.0290245
0.0917578
0.057114
0.227693
0.0171654
-0.0828093
0.00410958
0.00402878
-0.0914026
-0.0249283
0.00792945
0.0169989
-0.343783
0.105737
0.00100248
0.0131244
-0.0842183
0.0626378
-0.394456
0.299711
0.0947448
-0.00525602
-0.084347
0.024189
-0.104536
0.0766269
0.0279091
-0.223246
-0.193255
-0.11419
0.307445
0.430618
-0.441763
0.011145
0.308224
0.253386
-0.0456333
-0.207752
-0.137635
0.140952
-0.00331663
-0.111513
-0.0151939
0.126707
-0.185147
0.308519
-0.21564
0.431998
-0.10253
0.0319249
-0.242393
0.420335
-0.177941
-0.0370786
0.0277838
0.00929477
-0.181606
0.0202329
0.000794649
-0.00160953
0.000814876
0.0702203
-0.102831
0.249955
-0.473754
0.223798
0.0142961
0.244733
-0.532675
0.287942
0.188786
-0.0255647
0.11174
-0.12848
0.0167402
0.084178
-0.0144262
0.131222
-0.130413
0.336052
-0.593516
0.257464
0.113649
-0.025429
-0.0867764
0.0380504
0.0487261
0.108569
-0.104679
0.0245726
-0.103232
0.0786597
0.134117
-0.09979
-0.0343273
0.105616
-0.129971
-0.0789078
-0.0415124
0.128656
-0.00311318
-0.125542
0.0809295
-0.190519
0.225742
0.191983
0.0657549
-0.00376788
0.00408316
-0.0404221
0.213481
-0.173059
-0.42605