/*--------------------------------*- C++ -*----------------------------------*\
| =========                 |                                                 |
| \\      /  F ield         | OpenFOAM: The Open Source CFD Toolbox           |
|  \\    /   O peration     | Version:  v2012                                 |
|   \\  /    A nd           | Website:  www.openfoam.com                      |
|    \\/     M anipulation  |                                                 |
\*---------------------------------------------------------------------------*/
FoamFile
{
    version     2.0;
    format      ascii;
    class       volVectorField;
    location    "300";
    object      U;
}
// * * * * * * * * * * * * * * * * * * * * * * * * * * * * * * * * * * * * * //

dimensions      [0 1 -1 0 0 0 0];


internalField   nonuniform List<vector> 
13851
(
(1.13996 0.0468596 -7.93073e-21)
(1.07291 -0.0243196 0)
(1.07133 -0.0232988 0)
(-0.187072 -0.0156451 0)
(1.00205 -0.000463001 1.73555e-22)
(1.0828 -0.0385921 -1.89525e-20)
(1.06004 0.0122674 -2.69159e-20)
(1.01346 -0.000761975 0)
(0.260928 0.0352854 -3.81342e-20)
(0.99115 -0.00813876 1.02097e-20)
(1.16318 -0.101073 0)
(1.00128 -0.00854846 1.68046e-21)
(0.980732 -0.020048 3.70659e-21)
(0.062431 0.0126798 3.13585e-20)
(1.10397 0.00879216 1.93873e-20)
(1.09286 0.0615842 0)
(-0.31124 -0.00213981 0)
(1.03596 -0.0197848 1.07201e-22)
(1.20284 0.0357935 0)
(1.14107 0.045273 2.20586e-20)
(1.11583 0.00295926 2.10235e-20)
(1.03941 -0.0923161 6.57435e-21)
(0.533416 -0.259924 8.18825e-20)
(1.00007 -0.000210253 0)
(1.15827 -0.00666066 3.30523e-20)
(1.09136 0.045923 -2.74628e-20)
(1.11827 0.0740796 -2.50735e-20)
(1.1259 0.07377 4.03222e-20)
(0.401848 0.0404759 5.47728e-21)
(1.02101 -0.0124793 0)
(-0.0900336 -0.0112284 -1.40536e-19)
(1.06023 0.0115751 8.60649e-21)
(1.13303 0.0486401 -3.43147e-21)
(0.338894 0.0547146 1.03053e-21)
(1.13125 -0.0852174 -9.85444e-21)
(0.43592 0.0420191 0)
(1.00004 -0.000188978 0)
(1.17093 -0.144704 -1.23177e-20)
(-0.0119259 0.0213823 1.61513e-19)
(1.00673 -0.0389512 5.426e-21)
(0.178449 0.0491797 4.91274e-20)
(0.439063 0.0441866 -5.44187e-21)
(-0.234655 -0.00319632 0)
(1.09557 -0.477109 0)
(0.452125 0.048699 0)
(1.01486 -0.0230976 7.48126e-23)
(1.01998 3.25987e-05 -3.99985e-21)
(1.10189 0.0603874 -4.75031e-23)
(1.04644 -0.0577417 -1.10632e-20)
(0.980398 -0.0190923 0)
(-0.240984 0.00598766 -1.37313e-19)
(0.973511 -0.0133656 7.39358e-21)
(1.09368 0.0611695 0)
(1.07781 0.022383 1.20142e-20)
(0.115027 0.0101264 -4.19934e-20)
(1.00568 -0.0392425 -5.01394e-21)
(1.13456 0.0492961 0)
(0.147339 0.0437046 -6.54592e-20)
(1.10875 0.0759412 0)
(-0.0403089 0.0126857 1.80151e-20)
(1.00117 -0.00806353 -4.73205e-21)
(1.11258 0.0723364 4.17613e-20)
(0.995485 -0.00309106 0)
(1.04687 -0.0599996 -7.65985e-21)
(0.874737 -0.446774 1.29712e-22)
(0.856108 -0.466804 -1.57406e-22)
(-0.0615881 0.00910937 1.19471e-20)
(0.69319 -0.123481 7.90951e-20)
(1.02074 -0.0402947 6.86093e-22)
(-0.158443 -0.0128352 1.23457e-19)
(-0.158599 -0.00504719 -1.59883e-19)
(1.12563 0.00648985 4.46672e-22)
(0.993837 -0.0269637 -4.004e-21)
(-0.0442453 0.0105519 0)
(1.08484 0.0196344 1.40528e-20)
(1.02109 -0.0749183 0)
(-0.286864 -0.00495412 -8.08209e-20)
(1.0219 -0.00635259 -2.71713e-21)
(1.22218 -0.00947223 2.93611e-20)
(1.00501 -0.0182093 6.4386e-21)
(1.02198 -0.040917 0)
(1.27048 -0.090857 -9.91103e-20)
(1.1276 -0.086939 0)
(0.0543172 0.0127041 -5.17694e-20)
(-0.0263462 0.0128715 -8.73779e-21)
(-0.113094 -0.00862873 0)
(1.04269 -0.0935216 -7.26995e-21)
(0.213284 0.00945103 -1.77531e-23)
(0.991832 -0.0123023 3.66983e-22)
(-0.0869316 -0.0100286 0)
(0.972258 -0.0125819 3.83465e-21)
(1.06151 0.0113363 3.48116e-20)
(-0.229436 -0.00225241 1.67069e-19)
(-0.145181 -0.00795634 1.5564e-19)
(-0.0534979 0.0231945 1.19237e-19)
(1.08079 -0.437811 -6.69016e-20)
(1.0099 -0.0246941 3.05369e-21)
(1.09777 0.0617246 0)
(-0.174522 0.00782969 7.27164e-21)
(1.21708 -0.196791 6.86774e-20)
(1.09869 0.062551 0)
(0.81012 -0.117355 -3.35197e-20)
(0.810401 -0.15028 -1.79107e-20)
(0.989733 -0.0287486 0)
(1.01849 -0.0228318 0)
(1.13111 -0.0081203 1.59499e-20)
(1.01776 -0.0225562 1.21708e-21)
(-0.139548 -0.00695908 1.70356e-19)
(1.06162 0.0105199 -1.91576e-20)
(1.03501 -0.019215 2.63112e-21)
(1.02707 -0.131255 1.37969e-21)
(1.01565 -0.0235384 0)
(1.21439 -0.0164077 0)
(1.16254 -0.0460449 0)
(1.12313 0.0533383 1.43628e-20)
(1.07711 0.0211365 -2.95905e-20)
(1.01467 -0.00831663 1.71753e-21)
(1.01419 -0.000894147 2.41679e-21)
(-0.202653 -0.0132749 -1.62639e-20)
(-0.123158 -0.0168154 4.07646e-20)
(1.11118 -0.363234 5.93412e-20)
(1.02921 -0.0162762 -6.52783e-22)
(1.0158 -0.0409194 -2.72416e-22)
(0.0764194 0.0264455 7.66265e-21)
(1.18 0.0465336 -1.14528e-22)
(0.614353 -0.204162 0)
(1.01042 -0.0243809 -3.80451e-21)
(1.13089 -0.152208 0)
(0.200945 0.0455063 4.8527e-20)
(1.11508 0.014097 -3.51223e-21)
(1.03602 -0.0943062 -7.07377e-22)
(1.09939 -0.0661479 0)
(1.29822 -0.166053 9.84425e-20)
(0.322953 0.0525128 3.601e-20)
(1.16759 -0.0981335 0)
(-0.0654743 0.0236952 5.08992e-20)
(0.706335 -0.115921 5.83833e-20)
(-0.127899 -0.00771141 2.18991e-20)
(0.847963 -0.0891933 2.24646e-20)
(1.11089 0.0172246 2.39559e-20)
(1.26695 -0.0946999 8.95312e-20)
(0.974949 -0.0450947 0)
(0.991135 -0.0124097 0)
(0.742798 -0.309547 -1.95234e-20)
(1.12445 0.0269693 4.21759e-21)
(1.0075 -0.0731949 0)
(1.02166 -0.00592432 6.51329e-22)
(-0.136713 -0.00845817 -7.84334e-20)
(0.256879 0.0276013 -1.40767e-20)
(1.13606 -0.154504 0)
(1.1 0.0622154 0)
(1.21335 -0.0196804 -7.15245e-21)
(1.16658 -0.0450694 -3.4578e-20)
(1.19269 0.0341919 -6.45346e-20)
(0.972476 -0.0233078 0)
(0.983664 -0.00931976 0)
(1.00129 -0.00674065 -4.22592e-21)
(-0.0473531 0.0174452 -1.61508e-19)
(1.10888 0.0138814 0)
(1.06308 0.00152598 -1.24703e-20)
(1.00014 -0.000488347 4.08093e-21)
(0.41543 0.0405219 0)
(1.12839 -0.00730634 0)
(1.10302 0.0599832 -3.20958e-20)
(0.0656197 0.0109986 -2.93424e-20)
(0.349458 0.0462293 7.2745e-21)
(0.361099 0.0474918 0)
(-0.22495 0.00792691 1.8832e-19)
(1.02782 -0.126351 -7.42135e-21)
(0.68384 0.0665153 0)
(1.00087 -0.00742207 -3.16268e-21)
(1.01459 -0.00790671 1.32093e-21)
(1.14596 -0.0114811 0)
(1.00107 -0.000424453 0)
(-0.0260653 0.0283206 -1.09118e-19)
(1.12798 0.0671511 -4.37835e-20)
(1.10806 0.0632351 -7.10371e-21)
(1.01519 -0.00786084 0)
(1.08305 0.0211337 0)
(1.10703 0.0623725 0)
(1.1763 0.045866 -1.6851e-20)
(1.10249 -0.458905 2.94843e-20)
(1.03336 -0.119313 -3.14365e-21)
(1.11312 0.0143397 0)
(-0.24833 -0.00409644 -5.26071e-20)
(0.265459 0.0277091 3.24501e-22)
(1.13202 0.0501559 -1.58128e-20)
(0.889085 -0.0670235 -1.51183e-20)
(0.976938 -0.0240663 7.66362e-21)
(1.0193 -0.0170038 -9.5502e-22)
(1.21839 0.021968 6.22031e-20)
(1.10963 0.012746 0)
(0.0430924 0.00779914 -1.63874e-20)
(1.08424 -0.0364879 1.95625e-20)
(1.00932 -0.0710953 2.47261e-21)
(1.09571 0.0614816 0)
(1.13045 0.0495082 0)
(1.04654 -0.0112449 -4.44857e-21)
(1.04185 -0.0282259 -7.12078e-21)
(0.709159 -0.158947 0)
(1.26672 -0.107375 4.54339e-20)
(0.0106086 0.0331985 -4.22002e-20)
(0.129942 0.0467116 0)
(1.1024 0.00963196 -3.64871e-20)
(0.940061 -0.712414 -5.52868e-20)
(-0.0196503 0.0309607 0)
(0.937403 -0.0216341 0)
(1.10359 0.0239089 -2.64132e-20)
(0.255455 0.0364993 -1.80333e-20)
(1.07713 -0.046281 0)
(1.09108 0.0613839 -3.3481e-22)
(1.01514 -0.0400726 -6.81529e-22)
(1.27055 -0.10319 -1.36411e-20)
(1.00011 -0.0021112 -2.68346e-22)
(1.13485 -0.0779353 -2.31262e-21)
(1.02475 -0.0826916 2.56632e-21)
(0.981669 -0.0179869 -5.78201e-21)
(1.14919 0.0563177 0)
(1.04589 -0.0198595 -7.86741e-21)
(0.152435 -0.536395 -1.05228e-19)
(1.01521 -0.00743583 -1.11115e-21)
(1.14467 0.0438528 0)
(0.0349998 0.00981639 5.24873e-20)
(-0.0486795 0.0247101 6.79114e-20)
(0.901054 -0.0764662 0)
(1.10336 0.0248441 2.09439e-20)
(1.00003 -0.00106059 0)
(0.74579 -0.288234 1.90639e-20)
(1.00166 -0.0135443 0)
(1.13151 -0.0792808 0)
(-0.0383408 -0.0378906 -3.98827e-20)
(0.894762 -0.0677096 -2.52561e-20)
(1.07696 -0.0441393 0)
(0.996264 -0.00104304 8.21473e-22)
(0.116975 0.0450993 2.1843e-22)
(1.0217 -0.0122764 2.93845e-21)
(0.888522 -0.425049 0)
(0.109691 0.0432402 -6.39809e-20)
(1.20949 -0.191698 0)
(1.0001 -0.000467179 -4.73574e-21)
(1.29618 -0.329468 0)
(-0.0157162 0.0125415 -6.67084e-20)
(0.483054 0.0517776 0)
(1.09187 0.0610084 0)
(1.10661 -0.0144005 0)
(0.706537 -0.341159 -4.74061e-20)
(1.14942 0.0542102 2.69976e-20)
(1.08265 0.0223169 0)
(1.0836 -0.41994 0)
(1.04636 -0.133205 8.10159e-21)
(0.154832 0.00795514 0)
(1.16717 0.0291591 -7.94501e-20)
(1.01045 -0.000813044 -7.90483e-24)
(1.08295 -0.0153603 0)
(1.09674 0.0623294 -1.52257e-21)
(0.403513 0.0386351 0)
(0.290832 0.0129309 6.93123e-21)
(1.01882 -0.0162856 1.17546e-21)
(0.590233 -0.199687 0)
(0.992705 -0.0131396 1.92025e-20)
(1.13413 0.0574461 -5.98646e-20)
(1.18385 0.0417399 -3.27657e-21)
(1.08478 -0.0147852 0)
(1.12857 -0.0040975 -7.13773e-20)
(1.17026 0.0291928 8.17265e-20)
(0.999624 -0.0251315 -1.25697e-20)
(0.805328 -0.127081 3.92263e-20)
(1.10401 0.0561608 0)
(1.16366 0.0738451 -1.56734e-20)
(0.997787 -0.00865125 0)
(0.981568 -0.0169914 -7.31952e-22)
(0.895534 -0.0749328 1.69227e-20)
(0.347484 0.0487059 0)
(-0.253471 -0.00633091 0)
(1.11913 0.00763983 3.18378e-20)
(1.03024 -0.0167924 3.40982e-21)
(1.17505 0.0489798 3.883e-21)
(1.18826 0.0381375 9.38498e-20)
(1.12473 0.049036 -3.88278e-20)
(1.12659 -0.00335335 5.90586e-20)
(0.318368 0.0448971 0)
(-0.139507 0.00810181 -2.66032e-20)
(1.08811 -0.0229091 0)
(1.09878 0.0065483 -5.90813e-20)
(1.11747 -0.164523 0)
(1.02057 -0.0219629 1.24365e-21)
(1.00142 -0.00638576 -2.15529e-21)
(1.12652 0.0494574 -8.6303e-21)
(1.14819 -0.116664 4.55848e-20)
(1.02309 -0.0124668 7.04701e-21)
(1.00013 -0.0020774 -4.09309e-21)
(1.00143 -0.0139359 0)
(1.00428 -0.000647286 -1.25168e-23)
(1.10345 -0.00589297 -8.77662e-20)
(1.00147 -0.00682486 6.33637e-21)
(0.272506 0.037274 1.90602e-20)
(1.11764 0.00420775 0)
(1.01175 -0.0329795 -1.47537e-21)
(0.41088 0.0377568 0)
(0.0646191 0.0245475 0)
(0.974706 -0.0187459 0)
(1.14359 0.0456281 -1.79426e-20)
(-0.209898 0.00646144 1.63853e-20)
(0.973821 -0.0474841 0)
(0.973321 -0.0180683 0)
(1.11998 0.00383589 0)
(0.0277395 0.0101088 -3.89769e-21)
(0.212334 -0.0135743 -6.84977e-20)
(1.14664 0.000561771 4.75684e-20)
(1.00227 -0.000610205 -6.90603e-22)
(0.720136 0.0683877 0)
(1.00098 -0.00790006 0)
(1.15242 0.000361504 4.76859e-20)
(-0.193633 0.00878647 0)
(1.16507 0.0738265 7.93482e-20)
(1.06185 0.00115308 9.24656e-21)
(1.22505 -0.199774 -1.50274e-21)
(1.325 -0.180054 0)
(-0.112566 -0.00577616 -1.31286e-19)
(1.21604 -0.0275093 0)
(0.780228 -0.0958586 -3.97544e-20)
(-0.0221763 0.0258208 6.81873e-22)
(0.116125 0.0340109 2.51966e-22)
(1.1473 0.0716931 -4.33896e-20)
(1.0432 -0.0290188 7.63086e-21)
(-0.256014 -0.00417383 -9.27197e-20)
(0.117424 0.0033627 6.9801e-23)
(0.460045 -0.45119 -1.17479e-19)
(0.495206 -0.457268 9.99614e-20)
(0.935798 -0.0228445 1.02664e-20)
(1.14946 -0.00685334 -5.72729e-20)
(0.947306 -0.118333 0)
(0.221949 0.0102132 2.97202e-20)
(0.785141 -0.142782 3.80567e-20)
(1.00819 -0.0019415 -5.21638e-22)
(1.02005 -3.11598e-05 4.25961e-21)
(1.07043 -0.0820041 -1.92164e-20)
(-0.139168 -0.00821799 1.79894e-19)
(0.206006 -0.543238 9.82169e-20)
(1.02058 -0.0211523 -2.83898e-21)
(-0.0634708 0.0231837 -1.23517e-19)
(0.936457 -0.115606 -1.59653e-20)
(1.10017 -0.0691402 -9.47747e-21)
(1.06334 0.0024041 1.35459e-20)
(0.0180911 0.00798781 -2.40558e-21)
(1.17189 0.0486618 0)
(1.09467 0.0619452 0)
(1.02245 -0.0804371 6.56165e-22)
(1.07437 -0.0432933 2.32982e-20)
(0.482814 0.0432036 0)
(0.976833 -0.0257174 -2.39569e-20)
(1.19212 0.0374467 -3.32421e-20)
(1.08665 -0.0216855 0)
(1.12125 0.00253712 0)
(0.930568 -0.117922 0)
(0.992046 -0.013134 -1.31236e-20)
(1.01253 -0.0325656 1.44781e-21)
(1.22947 -0.0881251 0)
(1.22515 -0.192789 2.44763e-21)
(1.16365 0.0324767 -8.50608e-20)
(1.3492 -0.182018 5.91634e-23)
(0.492871 0.0445387 4.90525e-21)
(1.00874 -0.074661 0)
(0.094481 0.0423371 3.43612e-20)
(1.13824 0.0602016 -1.59046e-20)
(1.02819 -0.00854455 -3.24281e-22)
(1.14588 0.0758615 -6.69648e-20)
(1.13861 0.0323599 1.4457e-20)
(-0.160745 0.0102487 -5.26792e-20)
(1.06841 -0.0794838 0)
(1.08699 0.0491488 0)
(1.1005 0.0743835 0)
(1.24849 -0.0972538 8.67318e-20)
(1.22559 -0.098867 1.12494e-22)
(0.212825 0.0102883 4.12052e-21)
(1.04675 -0.0399418 -6.58165e-21)
(1.1318 0.0675716 5.29712e-20)
(-0.330095 -0.00282714 0)
(1.10186 -0.0260384 4.03675e-20)
(0.17583 0.0115857 4.59183e-20)
(1.10887 -0.0280154 -1.91855e-20)
(0.134161 0.044452 -6.28513e-20)
(1.09787 0.00548234 3.57296e-20)
(1.08025 0.0341224 1.68705e-20)
(1.17334 0.0240052 0)
(1.24887 -0.170871 0)
(0.983723 -0.0102344 0)
(1.08545 -0.0280486 1.22125e-20)
(1.1525 -0.119618 3.99027e-21)
(1.08453 0.020867 0)
(1.01312 -0.0252625 0)
(1.11895 0.00948769 -3.35713e-20)
(0.59255 0.0696234 1.21663e-21)
(0.994633 -0.0269022 -9.61047e-21)
(1.105 0.0227719 0)
(-0.212833 -0.0131981 1.99485e-19)
(1.06745 -0.0406922 -1.18425e-20)
(1.24997 -0.484503 -7.35296e-20)
(1.09038 0.0322745 -2.59305e-21)
(0.271234 -0.014892 0)
(1.07961 -0.047743 2.00142e-20)
(1.09085 0.0448425 0)
(0.915689 -0.685551 6.55178e-20)
(1.18339 0.0438853 1.42067e-20)
(1.13167 -0.0133116 1.54505e-20)
(0.271171 0.00984688 2.67418e-23)
(-0.0358737 0.00949049 8.23071e-20)
(1.26171 -0.323758 0)
(0.998847 -0.0252013 -5.19226e-21)
(1.22562 -0.0845586 0)
(1.11036 -0.0346848 -4.29189e-20)
(1.08784 0.048312 0)
(1.02774 -0.018017 -8.2569e-21)
(-0.239169 -0.00203435 4.65044e-22)
(0.547807 0.0705269 -2.33343e-20)
(1.20971 -0.0553098 -1.60922e-19)
(1.07397 -0.0412734 -2.22159e-20)
(1.17309 0.0261826 0)
(1.11718 0.0703366 -5.04623e-20)
(-0.239068 -0.00895083 0)
(1.02477 -0.00329092 4.1424e-21)
(-0.290986 -0.00161023 -1.04468e-19)
(1.25884 -0.157608 1.13881e-20)
(0.28895 -0.176832 1.29845e-21)
(1.0507 -0.136042 -1.02179e-20)
(1.13637 0.0533617 -8.84726e-20)
(0.987504 -0.0174106 1.19628e-20)
(1.00125 -0.000364651 -8.95299e-22)
(0.10474 0.00825536 4.97577e-20)
(1.12003 0.0694856 4.25256e-20)
(0.990467 -0.00869734 -5.89966e-21)
(1.07277 -0.025826 5.10477e-21)
(1.10671 0.0228499 -7.17227e-21)
(1.01289 -0.00889835 9.81032e-22)
(0.619317 0.0732629 0)
(1.14946 -0.00423792 1.23184e-20)
(1.13895 0.0310719 0)
(1.07749 -0.000698835 8.81692e-21)
(1.04744 -0.0387596 0)
(0.971947 -0.00736424 0)
(1.2957 -0.110645 0)
(1.01058 -0.0322092 0)
(0.973012 -0.0063186 0)
(0.847557 0.0702957 8.17326e-21)
(0.625915 0.0681131 0)
(1.03284 -0.0918017 0)
(1.10186 0.0722846 1.68195e-20)
(0.995688 -0.00254003 -9.17769e-22)
(1.00158 -0.00646265 -2.04083e-21)
(1.06976 -0.0416162 3.54729e-20)
(1.16623 0.0325736 9.07056e-20)
(1.08702 0.0339363 -2.34462e-20)
(1.01299 -0.026738 0)
(1.05672 -0.0312682 1.28956e-20)
(1.11293 -0.352185 3.04389e-20)
(1.06463 -0.0182817 -1.6671e-20)
(0.313567 -0.0216328 0)
(1.00145 -0.00798586 -2.29948e-21)
(1.0774 0.0108373 1.838e-20)
(0.457998 0.050042 1.13569e-20)
(0.938129 -0.16155 0)
(1.01925 -0.00066994 -1.02609e-21)
(1.00044 -0.00686619 -3.63172e-21)
(1.07711 -0.00169042 -4.4986e-21)
(1.04944 -0.0101797 0)
(1.24195 -0.375874 3.47965e-20)
(0.766867 0.0672441 -9.05016e-21)
(1.1076 -0.0128383 4.80052e-21)
(0.320137 -1.12445 0)
(1.07144 -0.0401968 -1.85966e-20)
(1.00027 -0.010896 -4.33236e-21)
(0.234178 0.0427685 -2.32464e-20)
(1.1018 0.0739811 1.71547e-20)
(0.877236 -0.1239 0)
(0.995813 -0.0308235 0)
(0.104152 0.0314675 3.46593e-20)
(0.857382 -0.0946011 4.19423e-20)
(1.1755 -0.642901 -1.58844e-20)
(0.989096 -0.0278938 -9.72382e-21)
(1.10213 -0.0607877 0)
(1.22982 -0.0957047 0)
(1.09097 0.0185991 0)
(0.148729 0.0388245 2.15798e-20)
(1.11841 0.0711075 4.70885e-20)
(1.27077 -0.0679016 1.53205e-19)
(0.976414 -0.0714715 0)
(1.21709 -0.0237885 5.80159e-22)
(1.00077 -0.0264228 4.04384e-21)
(0.390476 0.0389779 0)
(1.09093 0.0315159 9.34861e-21)
(1.1292 0.0500424 0)
(1.10878 -0.0327609 3.46153e-20)
(1.02299 -0.0772413 1.38115e-21)
(0.944638 -0.15915 0)
(1.14632 -0.00821378 1.14435e-20)
(1.00182 -0.00055565 0)
(-0.271675 -0.00401225 0)
(0.206151 0.0397623 0)
(0.353443 -0.0258514 5.54425e-20)
(-0.181808 -0.00184174 -1.46995e-20)
(0.786549 0.0688598 7.96563e-21)
(-0.244193 0.00387447 -3.65499e-20)
(1.18785 0.0409509 -6.98907e-20)
(0.912359 -0.080134 0)
(0.999667 -0.00282643 -7.73339e-21)
(1.22047 -0.48286 -4.44428e-20)
(0.991184 -0.00742066 -7.9297e-21)
(1.01279 -0.0245626 9.37802e-23)
(0.906286 -0.0968641 1.40601e-20)
(-0.00230153 0.0316633 6.66768e-20)
(1.07035 -0.0174659 -2.4515e-20)
(0.970487 -0.0403191 -9.10751e-23)
(1.07399 -0.283295 -6.9793e-22)
(1.13904 -0.0350519 0)
(0.989154 -0.00281574 8.85375e-22)
(0.661495 0.0301491 6.14458e-20)
(1.00856 -0.0236775 -2.63805e-21)
(0.243911 0.0482464 -2.30726e-20)
(1.23216 -0.360071 -1.20672e-19)
(1.00544 -0.0188161 0)
(1.06505 -0.00866853 -1.95053e-20)
(1.26321 -0.131959 -5.13564e-20)
(1.14575 0.0754366 -8.53947e-21)
(1.02245 -0.0127558 3.88768e-22)
(0.948942 -0.0915255 0)
(1.05173 -0.398141 8.08409e-20)
(1.03228 -0.00308037 0)
(-0.0763962 0.00217929 3.15574e-20)
(1.20079 0.0362725 -4.207e-21)
(1.14812 0.0420196 0)
(0.974965 -0.0697102 1.31188e-20)
(0.865097 0.0718519 -3.32138e-20)
(-0.0866785 0.0117565 3.23401e-20)
(1.03301 -0.00329725 -4.52102e-21)
(1.2321 0.000124937 1.04633e-19)
(1.01826 -0.0405441 -5.10766e-23)
(1.00903 -0.0242644 1.30031e-21)
(0.927783 0.0697571 1.82527e-21)
(0.137707 0.0452687 7.72508e-20)
(1.12232 -0.0337664 0)
(1.08584 0.0337706 1.97376e-20)
(0.990538 -0.00615144 -1.04302e-20)
(1.09578 0.0390586 0)
(0.230362 0.0479541 -3.87747e-22)
(-0.0473971 0.0206493 1.11022e-19)
(1.03634 -0.00651702 1.17398e-21)
(-0.292431 0.000775749 0)
(1.0126 -0.0260787 0)
(1.01953 -0.0413002 -7.66095e-22)
(1.13253 -0.0113788 2.089e-21)
(1.07382 0.0154241 0)
(1.02501 -0.00299663 2.23792e-21)
(1.01824 -0.0750499 -2.43029e-22)
(-0.0626551 0.00273863 0)
(1.24402 -0.167516 -4.45343e-20)
(-0.0919689 0.00231772 0)
(1.06822 -0.0179179 -1.86161e-20)
(0.992924 -0.0138623 -1.265e-22)
(0.369425 0.0489165 -7.81951e-21)
(0.999456 -0.0040177 0)
(1.22645 -0.0739833 0)
(1.08122 0.0052289 2.70668e-20)
(1.0867 0.0178837 -3.13557e-20)
(1.10754 -0.0186854 8.55727e-21)
(0.562637 0.0581678 0)
(-0.126095 0.0102223 0)
(1.08338 -0.0322175 -2.02955e-20)
(-0.290974 -0.00257137 0)
(1.06072 -0.000907206 4.40715e-21)
(1.15639 -0.019733 0)
(0.448438 0.0460461 1.66691e-20)
(0.140876 0.0150295 1.24523e-21)
(1.0119 -0.0411662 -1.69387e-21)
(1.00003 -0.0263216 5.0504e-21)
(0.817574 -0.159135 0)
(-0.0828758 0.00384786 0)
(1.09462 0.0693726 -4.38604e-20)
(1.0946 0.0387438 0)
(1.06423 -0.561197 1.45658e-20)
(1.07373 0.0161755 0)
(1.09583 0.00610935 0)
(0.0478998 -0.0499255 -7.92163e-20)
(0.607867 0.02069 8.67699e-20)
(1.0864 -0.341768 -2.97936e-20)
(0.228434 0.0461172 0)
(1.12268 0.0611408 -9.38895e-21)
(0.498776 0.0467351 -1.3712e-20)
(1.04248 -0.0386056 8.72294e-23)
(1.10891 0.0766283 0)
(1.21396 0.0483689 0)
(0.9999 -0.00944517 4.29412e-21)
(-0.317688 0.00183357 -8.34069e-20)
(0.41939 0.0504336 3.78107e-20)
(1.03302 -0.124593 6.60091e-21)
(1.11275 0.0165335 -2.48076e-20)
(1.00236 -0.0362654 2.94809e-22)
(0.465523 -0.841391 -7.98462e-21)
(1.14548 -0.188245 0)
(0.568283 -0.187831 1.60463e-19)
(1.00989 -0.0327324 -2.29532e-21)
(1.00074 -0.00049527 0)
(0.910206 -0.0477552 0)
(1.13776 -0.0377353 1.02631e-20)
(1.00151 -0.00768619 0)
(-0.0314244 0.0289529 -1.14263e-19)
(1.00087 -0.000592677 1.37639e-21)
(1.1235 0.0604054 0)
(0.969704 -0.0681496 4.37858e-22)
(1.08883 0.0488065 -6.95392e-21)
(0.990662 -0.0283819 -1.00681e-20)
(0.988427 -0.00294314 -1.01743e-20)
(1.09419 -0.161688 0)
(-0.291074 -0.00109945 2.05686e-19)
(1.1333 -0.0182933 -6.32968e-20)
(-0.0786434 0.0228822 1.41744e-20)
(1.10248 -0.0638711 4.88102e-21)
(1.0131 -0.00993989 9.04651e-22)
(1.0312 -0.0110454 5.32807e-21)
(1.14865 -0.0131978 -2.9362e-21)
(1.05557 -0.0322555 2.09905e-21)
(1.19049 -0.0302518 9.01256e-20)
(1.07462 -0.0195217 -1.41294e-20)
(0.877184 -0.116162 0)
(1.10483 0.0753301 0)
(0.999337 -0.00374698 4.18216e-21)
(0.296039 0.00839454 0)
(1.00006 -0.00143767 4.24117e-21)
(1.08893 0.0547896 3.73338e-20)
(-0.274481 -0.00231835 0)
(0.415597 0.0497143 0)
(0.88181 -0.0282616 2.66621e-20)
(0.777212 -0.268262 -1.36517e-19)
(1.06278 -0.282586 -3.8033e-20)
(1.22402 -0.245098 -4.10111e-20)
(0.388591 0.0511643 0)
(1.03878 -0.00761633 -2.41843e-21)
(0.567993 0.0268388 2.6462e-20)
(0.941862 -0.120448 0)
(1.10443 -0.0260691 -8.94055e-21)
(-0.169246 -0.00379038 1.03875e-19)
(1.27904 0.0119991 -7.28676e-21)
(1.02865 -0.00902632 -3.78241e-21)
(1.18852 -0.0326803 -8.46778e-20)
(1.04584 -0.0104437 -4.50002e-21)
(0.463133 0.0427495 2.77706e-21)
(-0.26244 0.00448235 -4.04346e-20)
(1.02474 -0.0427104 8.3499e-23)
(0.691467 -0.148554 -8.10891e-20)
(0.611089 0.0749661 4.73513e-20)
(0.999985 -0.00119795 -6.33522e-21)
(0.999977 -0.00161069 -4.70986e-21)
(1.09071 0.0466259 3.44045e-20)
(0.277418 0.00567426 4.37171e-21)
(0.943125 0.0762669 -2.28592e-20)
(0.973533 -0.0166719 3.27947e-21)
(1.17739 0.0199286 5.36558e-21)
(1.06285 -0.018229 8.06849e-21)
(0.987321 -0.00396601 0)
(1.10391 0.0755836 4.42879e-21)
(1.17686 0.022507 0)
(1.21915 -0.178358 3.19475e-20)
(1.0234 -0.00274857 0)
(1.1052 0.055682 2.81133e-20)
(0.906141 -0.208779 0)
(1.0892 0.0430932 6.29481e-21)
(0.957129 -0.0194135 -3.15314e-20)
(1.00797 -0.0684325 5.31084e-22)
(1.13785 -0.188105 0)
(0.914386 -0.0488562 0)
(1.10308 0.0582583 -1.11973e-20)
(1.12326 0.00749281 2.91998e-20)
(1.12606 0.00433418 5.31078e-22)
(1.07492 -0.329072 4.29486e-20)
(1.17215 -0.657175 -5.17433e-20)
(1.20505 0.0326287 -8.18344e-22)
(0.661566 0.0670048 -7.36424e-23)
(1.05329 -0.0992352 0)
(1.10044 0.0613878 0)
(0.093197 0.0176532 2.81655e-20)
(1.02314 -0.177866 -7.36103e-21)
(0.896055 0.0685565 0)
(1.14708 0.0439943 0)
(1.03247 -0.0208689 0)
(1.09469 0.00504327 -1.67442e-20)
(1.20129 0.0297192 -1.02635e-19)
(1.05781 -0.0879369 -1.50431e-20)
(1.00509 -0.0175453 1.01365e-23)
(1.00558 -0.0166146 -2.58685e-21)
(1.09079 0.0546207 1.70181e-20)
(0.205892 0.00775529 1.32964e-20)
(1.07884 0.0106851 -1.93242e-20)
(0.0767282 0.0389812 3.53652e-20)
(1.01291 -0.0103184 8.54026e-22)
(0.910118 0.0757309 4.54016e-21)
(0.999684 -0.372835 0)
(-0.219816 0.00618602 1.55545e-19)
(1.18921 -0.0379055 -4.29882e-20)
(1.08187 -0.0471378 -2.09215e-20)
(1.07192 -0.0216502 -1.34771e-20)
(-0.207435 0.00894821 -5.66365e-20)
(1.22108 -0.172958 -1.15147e-19)
(1.02362 -0.170937 7.07755e-21)
(1.12035 0.0704334 -9.78063e-21)
(1.04614 -0.0366913 0)
(1.24345 -0.440916 0)
(1.08998 0.0551206 -9.74465e-21)
(1.12499 0.0600817 -1.75122e-20)
(1.10764 -0.0445068 9.4e-21)
(1.27602 -0.147108 0)
(0.988237 -0.0178293 7.9666e-21)
(1.00007 -0.00168714 2.74125e-22)
(0.940713 -0.0212217 2.88741e-20)
(0.986684 -0.0047446 -1.75463e-21)
(0.42916 0.0447747 0)
(1.00402 -0.000791985 0)
(1.09896 0.0737406 0)
(0.336287 0.0464747 0)
(1.19289 -0.0394623 0)
(-0.0306317 0.0236126 0)
(-0.160885 0.00912939 0)
(1.12623 0.0604669 0)
(1.23281 -0.240961 9.03897e-20)
(0.884703 -0.035661 -2.164e-20)
(0.998596 -0.000360128 -1.06155e-20)
(0.982801 -0.0162166 7.70706e-22)
(1.02076 -0.00649107 0)
(1.03047 -0.0111049 -6.82016e-21)
(1.00102 -0.000554444 -9.76831e-22)
(1.15452 -0.013483 0)
(1.20749 -0.010503 -5.66271e-20)
(0.902839 -0.22034 0)
(1.15911 0.0726022 -8.03474e-20)
(1.024 -0.0643808 2.6985e-22)
(0.247811 0.0346144 -9.05354e-21)
(0.999979 -0.000155874 -3.2583e-21)
(-0.156479 -0.0194675 -2.16971e-19)
(1.12012 -0.0920747 -8.4187e-21)
(0.99993 -0.000306817 -9.32482e-22)
(0.996996 -0.00123347 -6.29436e-21)
(0.398262 0.0495675 3.01654e-20)
(1.08374 -0.0403894 1.43602e-20)
(0.942151 0.0769005 1.26534e-20)
(0.436906 0.0488762 4.93772e-21)
(1.10934 0.0163237 0)
(1.13294 0.0204577 -1.43933e-20)
(1.03182 -0.00223552 -3.75548e-21)
(0.304644 0.051546 -3.80811e-20)
(0.985353 -0.0822907 0)
(1.07145 -0.0187281 2.57715e-20)
(1.10487 0.0756737 0)
(0.998631 -0.00084804 5.07252e-21)
(0.973847 -0.043318 -4.45844e-21)
(1.03619 -0.0120976 0)
(1.09305 0.030213 2.25195e-20)
(0.181141 0.00910956 2.86899e-20)
(1.09355 -0.0602107 -2.6565e-20)
(1.1086 -0.0392786 -3.72781e-20)
(1.26187 -0.164659 0)
(-0.0786066 0.0185376 -1.13549e-19)
(0.886386 -0.0579513 -2.97161e-20)
(0.987453 -0.10595 0)
(0.481494 0.0471579 -1.37829e-22)
(1.02033 -0.00628812 0)
(0.470392 0.0459953 -1.00254e-20)
(1.00039 -0.00122334 -1.22619e-21)
(1.06518 -0.0167328 0)
(1.23186 -0.00249368 -3.1974e-20)
(1.11094 0.0438197 6.36942e-20)
(1.12418 0.0521759 0)
(1.19236 -0.098707 -7.56609e-20)
(1.1341 -0.0159478 8.79443e-21)
(0.999514 -0.000959738 -4.75929e-21)
(0.999989 -0.000162682 -6.87239e-21)
(1.16009 -0.0188285 0)
(1.04404 -0.0384907 -4.81247e-21)
(0.999635 -0.000774506 -8.51929e-21)
(1.07758 0.0146388 0)
(1.25043 -0.20333 -9.9146e-20)
(1.0048 -0.00571058 -1.82725e-21)
(1.21152 -0.259405 7.34587e-20)
(1.27564 -0.473967 5.66394e-20)
(0.991699 0.0784434 1.03918e-20)
(1.19075 -0.0940217 4.8202e-20)
(-0.0511416 -0.0175468 7.96104e-20)
(0.838517 -0.092153 4.91059e-20)
(0.998455 -0.000692613 0)
(1.224 -0.110538 2.94889e-20)
(1.01234 -0.0107536 0)
(1.08609 -0.0261023 -2.73541e-21)
(0.707851 0.0704364 -1.34706e-20)
(0.504652 0.0439562 1.99462e-20)
(0.557865 0.0261872 1.94397e-20)
(0.522317 0.0514333 0)
(1.02852 -0.0430451 0)
(1.02462 -0.0418662 -8.37915e-23)
(0.978559 -0.280027 1.82505e-21)
(1.00437 -0.0658021 -4.50238e-22)
(1.02267 -0.0194828 0)
(0.561875 -0.287492 8.19864e-20)
(1.13308 0.0585775 2.13516e-20)
(0.164974 0.0134502 0)
(1.08828 0.0552844 -4.12019e-20)
(1.11229 0.0441806 -4.27199e-20)
(0.985298 -0.00661929 2.25702e-21)
(1.02082 -0.0129798 0)
(1.29808 -0.332891 4.88725e-20)
(1.14079 0.029664 5.84692e-20)
(1.06724 -0.0165796 2.22009e-20)
(0.999803 -0.000171522 -1.89331e-21)
(1.1216 0.0533136 -1.84976e-20)
(1.22828 -0.0381126 -6.26782e-22)
(0.0877295 0.0398864 0)
(0.972619 -0.0213606 0)
(1.00092 -0.00342235 2.8687e-21)
(0.162867 0.00694932 -2.25062e-20)
(0.958244 -0.0180148 2.58968e-20)
(1.10821 -0.0233864 4.67043e-21)
(1.0125 -0.00840472 0)
(0.0172695 0.0334871 0)
(1.00988 -0.00045766 1.18602e-21)
(-0.265938 -0.0052875 0)
(0.994858 -0.00625843 1.05387e-20)
(1.20127 -0.195588 6.16238e-20)
(1.1135 -0.00292103 -2.33698e-20)
(0.954938 -0.283862 3.83397e-21)
(1.10958 -0.0427731 5.52128e-21)
(0.993171 -0.0259821 0)
(1.0725 -0.0286183 0)
(1.00339 -0.00411146 -7.31185e-23)
(1.09478 0.0724519 -8.00028e-21)
(0.96136 -0.0271584 0)
(0.310996 0.016726 -5.98155e-21)
(1.04831 -0.0358219 -3.3491e-21)
(0.977973 0.0723791 -2.02236e-20)
(0.271372 0.0440394 0)
(1.10336 -0.0490923 -1.8778e-20)
(1.00399 -0.0029394 -7.42689e-22)
(-0.186286 -0.0174281 -5.03143e-20)
(0.76319 0.0686919 -4.75913e-21)
(1.08575 -0.0321182 4.30981e-20)
(1.10939 0.044351 -4.24961e-20)
(0.982826 -0.0152695 0)
(0.242834 0.00849051 0)
(1.03338 -0.0215413 2.59262e-21)
(1.20308 0.0271607 0)
(0.999262 -0.0103271 4.99552e-21)
(1.00367 -0.0042874 9.33927e-22)
(0.982253 0.0808708 1.81809e-20)
(1.10832 -0.0169137 0)
(1.0005 -0.00738934 0)
(1.07905 0.0225044 7.71651e-21)
(0.145029 0.0433883 0)
(0.721587 -0.794989 9.14836e-21)
(0.562652 0.0739197 -4.88757e-20)
(1.01796 -0.0162777 -1.14647e-21)
(0.110185 0.02002 -6.12683e-21)
(0.99756 -0.00916315 6.59549e-21)
(1.00459 -0.00539052 1.37593e-21)
(0.973945 -0.0242108 -8.9635e-21)
(1.02003 -0.000116514 0)
(0.999878 -0.00220917 -3.70979e-21)
(0.508964 0.0705158 4.15569e-20)
(0.677482 0.0682336 0)
(1.04644 -0.0209143 0)
(1.0009 -0.000811888 -2.42349e-21)
(1.1236 -0.0309204 2.44928e-20)
(1.01621 -0.0234199 2.65465e-22)
(-0.154458 -0.0220124 -4.43644e-20)
(1.22827 -0.106789 -8.59438e-21)
(0.0740917 0.0141347 -4.59901e-21)
(-0.0102396 0.0257824 -5.35998e-20)
(1.07208 -0.0297261 0)
(1.10409 0.0577935 0)
(0.999927 -0.0100068 4.58653e-21)
(1.11593 0.000527547 -2.26321e-20)
(0.99442 -0.355083 1.59136e-21)
(1.03807 -0.00699229 9.58041e-21)
(1.00034 -0.0012022 3.45773e-22)
(1.30394 -0.311505 0)
(-0.251686 0.00531962 -4.34724e-20)
(1.13085 0.0207215 0)
(-0.333516 -0.0051298 6.35538e-20)
(1.11545 0.0300308 0)
(0.995803 -0.00339464 0)
(1.12735 -0.0426578 -3.05675e-20)
(1.10876 0.0451124 3.97037e-20)
(-0.30696 0.000197353 -1.25315e-20)
(1.10131 -0.00695064 0)
(1.09912 0.0801328 -1.43949e-21)
(1.14306 0.0298331 -7.97716e-20)
(1.00021 -0.00232023 5.45849e-21)
(0.354784 -0.119554 0)
(0.255234 -0.0845768 0)
(0.212616 0.0137366 1.21988e-20)
(1.25201 0.0159699 8.52016e-21)
(0.939764 0.0688837 -1.19677e-20)
(0.979377 -0.0723191 3.43261e-21)
(0.727505 -0.354623 5.13125e-20)
(0.97239 -0.00458637 -8.62238e-21)
(1.1564 0.0694523 -5.79449e-20)
(1.05674 -0.0845969 1.36377e-20)
(1.00801 -0.00154239 4.32764e-22)
(0.515478 0.0725841 -5.91333e-20)
(1.02022 -0.0635036 -4.01843e-22)
(1.00391 -0.00269938 0)
(1.01318 -0.0412095 1.80886e-21)
(1.01879 -0.0617586 1.39449e-23)
(-0.0129655 0.0309031 0)
(1.19658 0.0335178 3.67195e-20)
(1.0122 -0.0150324 1.28213e-22)
(1.12927 -0.0399901 0)
(0.0404782 0.0115112 6.71203e-20)
(1.0381 -0.0582239 0)
(-0.347928 -0.00306474 9.32513e-20)
(0.957692 -0.0441614 0)
(1.11653 0.0393617 2.45502e-20)
(0.101486 0.0424358 0)
(1.0013 -0.00706881 0)
(1.09102 0.0703512 1.96825e-21)
(1.06671 -0.0997842 5.8377e-21)
(1.10643 -0.0501141 0)
(0.676128 -0.822652 0)
(1.02264 -0.0628394 0)
(1.26489 -0.0782155 5.66961e-20)
(1.08952 0.0444762 -1.64577e-20)
(0.186458 0.0484177 0)
(1.04743 -0.00483539 9.6304e-21)
(0.264198 0.013619 -2.05591e-21)
(1.10061 -0.0284411 -7.82185e-21)
(0.0419923 0.0193276 3.22979e-20)
(-0.293856 0.00309183 -1.81108e-19)
(0.24161 0.00947086 2.00408e-20)
(1.10708 0.0189384 0)
(0.990189 -0.0243818 0)
(1.02788 -0.0442361 0)
(0.999968 -0.00115692 0)
(1.07956 0.0330275 1.51155e-20)
(0.996985 -0.00311117 6.65707e-21)
(0.161336 0.0407744 2.62013e-20)
(1.02942 -0.116339 3.12846e-21)
(0.925515 -0.0885321 0)
(0.889293 -0.0545623 5.05073e-20)
(0.981442 -0.0709334 0)
(1.01753 -0.0157024 0)
(1.06754 0.0174593 0)
(1.06371 -0.0856059 -7.86032e-21)
(1.06494 -0.00988773 0)
(1.0435 -0.0970859 2.51899e-21)
(0.311986 0.0491624 0)
(1.09143 0.0712998 0)
(1.09776 -0.019971 -1.5168e-20)
(1.11418 -0.151071 0)
(0.545332 0.071955 2.91358e-20)
(0.971149 -0.0428365 1.53356e-20)
(-0.124207 -0.00475275 -3.60371e-20)
(1.01971 -0.00627336 2.59596e-21)
(1.03063 -0.140482 0)
(0.959578 -0.0258619 1.50436e-20)
(1.02362 -0.0285477 2.92131e-21)