/*--------------------------------*- C++ -*----------------------------------*\
| =========                 |                                                 |
| \\      /  F ield         | OpenFOAM: The Open Source CFD Toolbox           |
|  \\    /   O peration     | Version:  v2012                                 |
|   \\  /    A nd           | Website:  www.openfoam.com                      |
|    \\/     M anipulation  |                                                 |
\*---------------------------------------------------------------------------*/
FoamFile
{
    version     2.0;
    format      ascii;
    class       volVectorField;
    location    "300";
    object      U_0;
}
// * * * * * * * * * * * * * * * * * * * * * * * * * * * * * * * * * * * * * //

dimensions      [0 1 -1 0 0 0 0];


internalField   nonuniform List<vector> 
13851
(
(1.14 0.0468579 -7.93234e-21)
(1.07292 -0.0243182 0)
(1.07133 -0.0232974 0)
(-0.187176 -0.0156615 0)
(1.00205 -0.000463057 1.73521e-22)
(1.08281 -0.0385911 -1.8954e-20)
(1.06003 0.012272 -2.69219e-20)
(1.01346 -0.000761938 0)
(0.260882 0.0353505 -3.81476e-20)
(0.99115 -0.00813921 1.02111e-20)
(1.16318 -0.101069 0)
(1.00128 -0.00854935 1.68057e-21)
(0.980733 -0.0200499 3.70691e-21)
(0.0623023 0.0126924 3.13888e-20)
(1.10398 0.00879848 1.9389e-20)
(1.09283 0.0616018 0)
(-0.311288 -0.00214715 0)
(1.03596 -0.0197837 1.0723e-22)
(1.20296 0.0357746 0)
(1.14111 0.045271 2.20627e-20)
(1.11584 0.00296277 2.10251e-20)
(1.03941 -0.0923155 6.5754e-21)
(0.533323 -0.259899 8.18633e-20)
(1.00007 -0.000210247 0)
(1.15858 -0.00643992 3.3037e-20)
(1.09135 0.0459405 -2.7463e-20)
(1.1182 0.0742748 -2.50697e-20)
(1.12592 0.0739042 4.03266e-20)
(0.401905 0.0404947 5.47388e-21)
(1.02101 -0.0124785 0)
(-0.0899623 -0.0112641 -1.40521e-19)
(1.06023 0.0115795 8.60846e-21)
(1.13308 0.0486547 -3.43222e-21)
(0.33881 0.0546364 1.02892e-21)
(1.13126 -0.0852159 -9.85485e-21)
(0.43597 0.0420467 0)
(1.00004 -0.000188969 0)
(1.1707 -0.144846 -1.23176e-20)
(-0.0118071 0.0214359 1.61452e-19)
(1.00673 -0.0389528 5.4258e-21)
(0.178483 0.0491439 4.91278e-20)
(0.439132 0.0442024 -5.43848e-21)
(-0.234629 -0.00319933 0)
(1.09558 -0.47714 0)
(0.452222 0.0487143 0)
(1.01486 -0.0230984 7.51374e-23)
(1.01998 3.27246e-05 -4.00184e-21)
(1.10186 0.0604252 -4.72718e-23)
(1.04645 -0.0577406 -1.10646e-20)
(0.980398 -0.0190941 0)
(-0.240902 0.00597626 -1.37297e-19)
(0.973511 -0.0133679 7.39422e-21)
(1.09365 0.0611878 0)
(1.07781 0.0223917 1.2016e-20)
(0.114971 0.0101454 -4.20019e-20)
(1.00568 -0.0392441 -5.01378e-21)
(1.13461 0.049307 0)
(0.147368 0.0436737 -6.54581e-20)
(1.10857 0.0759558 0)
(-0.040378 0.0126715 1.80212e-20)
(1.00117 -0.00806453 -4.73236e-21)
(1.11253 0.0725098 4.17594e-20)
(0.995486 -0.00309297 0)
(1.04687 -0.0599985 -7.66081e-21)
(0.874743 -0.446786 1.29718e-22)
(0.856113 -0.466816 -1.57414e-22)
(-0.0616585 0.00909908 1.19509e-20)
(0.693191 -0.123488 7.90976e-20)
(1.02074 -0.0402948 6.86634e-22)
(-0.158516 -0.012774 1.23481e-19)
(-0.158601 -0.00510098 -1.59886e-19)
(1.12564 0.00649227 4.46651e-22)
(0.993838 -0.0269652 -4.00424e-21)
(-0.0443276 0.0105381 0)
(1.08484 0.0196434 1.40545e-20)
(1.02109 -0.0749183 0)
(-0.28691 -0.00496554 -8.08312e-20)
(1.0219 -0.00635218 -2.71816e-21)
(1.22239 -0.00929421 2.93488e-20)
(1.00501 -0.0182096 6.43859e-21)
(1.02198 -0.040917 0)
(1.27055 -0.0907658 -9.91228e-20)
(1.1276 -0.0869375 0)
(0.0541911 0.0127054 -5.17991e-20)
(-0.0264283 0.0128556 -8.74146e-21)
(-0.113045 -0.00868283 0)
(1.0427 -0.0935209 -7.27111e-21)
(0.213354 0.00945874 -1.77475e-23)
(0.991832 -0.0123026 3.67026e-22)
(-0.0868575 -0.010054 0)
(0.972258 -0.0125843 3.83499e-21)
(1.06151 0.011341 3.48189e-20)
(-0.229351 -0.00225328 1.67027e-19)
(-0.145131 -0.00799922 1.55629e-19)
(-0.0534002 0.0231474 1.19212e-19)
(1.08081 -0.43783 -6.6915e-20)
(1.0099 -0.0246952 3.05318e-21)
(1.09773 0.0617499 0)
(-0.174511 0.00782761 7.27272e-21)
(1.21707 -0.1968 6.86794e-20)
(1.09865 0.0625773 0)
(0.810122 -0.11736 -3.35207e-20)
(0.810404 -0.150286 -1.79112e-20)
(0.989734 -0.0287505 0)
(1.01849 -0.022832 0)
(1.13112 -0.00812159 1.59508e-20)
(1.01776 -0.0225565 1.21783e-21)
(-0.139539 -0.00702139 1.7036e-19)
(1.06162 0.0105244 -1.91616e-20)
(1.03501 -0.0192139 2.63171e-21)
(1.02707 -0.131255 1.38015e-21)
(1.01565 -0.0235391 0)
(1.21435 -0.0164505 0)
(1.16253 -0.0460483 0)
(1.12317 0.0533883 1.43658e-20)
(1.07711 0.0211449 -2.95948e-20)
(1.01467 -0.00831652 1.71845e-21)
(1.01419 -0.000894092 2.41808e-21)
(-0.202745 -0.0132917 -1.62671e-20)
(-0.123247 -0.0167399 4.07748e-20)
(1.11121 -0.363238 5.93532e-20)
(1.02921 -0.0162751 -6.5296e-22)
(1.0158 -0.0409201 -2.72111e-22)
(0.0763294 0.026408 7.66632e-21)
(1.18002 0.0465656 -1.14855e-22)
(0.614355 -0.20417 0)
(1.01042 -0.024382 -3.80382e-21)
(1.1309 -0.152207 0)
(0.200901 0.0454305 4.85468e-20)
(1.11509 0.0141039 -3.51253e-21)
(1.03602 -0.0943057 -7.07517e-22)
(1.0994 -0.0661471 0)
(1.29808 -0.166223 9.84429e-20)
(0.322857 0.0524466 3.60385e-20)
(1.1676 -0.0981288 0)
(-0.0653523 0.0236648 5.08835e-20)
(0.706336 -0.115928 5.83852e-20)
(-0.127861 -0.00776658 2.18982e-20)
(0.847965 -0.0891982 2.24654e-20)
(1.1109 0.0172334 2.3958e-20)
(1.26702 -0.0946254 8.95424e-20)
(0.974951 -0.0450977 0)
(0.991135 -0.01241 0)
(0.742802 -0.309556 -1.95242e-20)
(1.12445 0.0267055 4.21554e-21)
(1.0075 -0.0731957 0)
(1.02166 -0.00592395 6.51583e-22)
(-0.136653 -0.0084922 -7.8427e-20)
(0.256904 0.0276301 -1.40708e-20)
(1.13606 -0.154502 0)
(1.09996 0.0622457 0)
(1.21331 -0.0197147 -7.15184e-21)
(1.16658 -0.0450732 -3.45782e-20)
(1.19277 0.0341901 -6.45429e-20)
(0.972477 -0.0233106 0)
(0.983665 -0.00932063 0)
(1.00129 -0.00674165 -4.22611e-21)
(-0.0472419 0.0174979 -1.61454e-19)
(1.10889 0.0138892 0)
(1.06308 0.0015292 -1.24724e-20)
(1.00014 -0.000488362 4.08073e-21)
(0.415483 0.0405429 0)
(1.1284 -0.0073071 0)
(1.10299 0.0600242 -3.20928e-20)
(0.0654919 0.0110108 -2.93703e-20)
(0.349473 0.0463084 7.27435e-21)
(0.361111 0.0475786 0)
(-0.224866 0.0079128 1.88297e-19)
(1.02782 -0.126351 -7.42349e-21)
(0.683664 0.0665968 0)
(1.00087 -0.00742325 -3.16291e-21)
(1.01459 -0.00790658 1.32167e-21)
(1.14597 -0.0114865 0)
(1.00107 -0.000424526 0)
(-0.0259716 0.028265 -1.09095e-19)
(1.12821 0.0672627 -4.38133e-20)
(1.10803 0.0632992 -7.1033e-21)
(1.01519 -0.00786061 0)
(1.08305 0.0211428 0)
(1.10699 0.0624299 0)
(1.17633 0.0458902 -1.68523e-20)
(1.10251 -0.458935 2.94903e-20)
(1.03336 -0.119313 -3.14447e-21)
(1.11313 0.014347 0)
(-0.24836 -0.00410022 -5.26133e-20)
(0.265487 0.0277374 3.25052e-22)
(1.13208 0.0501765 -1.58168e-20)
(0.889087 -0.0670277 -1.51189e-20)
(0.976939 -0.0240688 7.66418e-21)
(1.0193 -0.0170035 -9.55463e-22)
(1.2184 0.0216944 6.21787e-20)
(1.10963 0.0127531 0)
(0.0429627 0.00780963 -1.64054e-20)
(1.08424 -0.0364869 1.95641e-20)
(1.00932 -0.071096 2.47228e-21)
(1.09568 0.0615031 0)
(1.13049 0.0495315 0)
(1.04654 -0.011244 -4.44946e-21)
(1.04185 -0.0282246 -7.12196e-21)
(0.709161 -0.158954 0)
(1.2668 -0.10733 4.54411e-20)
(0.0106171 0.0331699 -4.22068e-20)
(0.129972 0.0467016 0)
(1.1024 0.00963862 -3.64904e-20)
(0.940053 -0.712421 -5.53234e-20)
(-0.0196368 0.030935 0)
(0.937404 -0.021638 0)
(1.1036 0.0239211 -2.64157e-20)
(0.255385 0.0365641 -1.80436e-20)
(1.07713 -0.0462799 0)
(1.09105 0.0614011 -3.34725e-22)
(1.01514 -0.0400734 -6.8125e-22)
(1.27064 -0.10313 -1.36434e-20)
(1.00011 -0.00211139 -2.68369e-22)
(1.13485 -0.0779341 -2.31271e-21)
(1.02476 -0.0826915 2.56722e-21)
(0.981669 -0.0179885 -5.78254e-21)
(1.14923 0.0562749 0)
(1.04589 -0.0198585 -7.86882e-21)
(0.152436 -0.536406 -1.05232e-19)
(1.01521 -0.00743559 -1.11174e-21)
(1.14471 0.0438471 0)
(0.0348665 0.00980969 5.25205e-20)
(-0.0485673 0.0246672 6.78943e-20)
(0.901056 -0.0764701 0)
(1.10337 0.0248569 2.09459e-20)
(1.00003 -0.00106056 0)
(0.745793 -0.288243 1.90646e-20)
(1.00166 -0.0135443 0)
(1.13152 -0.0792796 0)
(-0.038429 -0.0379795 -3.98933e-20)
(0.894763 -0.0677137 -2.5257e-20)
(1.07697 -0.0441382 0)
(0.996264 -0.00104522 8.21644e-22)
(0.117005 0.0450848 2.18313e-22)
(1.0217 -0.0122756 2.93952e-21)
(0.888396 -0.425046 0)
(0.109716 0.0432362 -6.39834e-20)
(1.20949 -0.191706 0)
(1.0001 -0.000467186 -4.73551e-21)
(1.29619 -0.329358 0)
(-0.0158083 0.0125251 -6.67373e-20)
(0.483164 0.0517903 0)
(1.09185 0.0610257 0)
(1.10662 -0.014399 0)
(0.70654 -0.341169 -4.74081e-20)
(1.14945 0.0541763 2.7002e-20)
(1.08265 0.0223262 0)
(1.08362 -0.419957 0)
(1.04636 -0.133205 8.10286e-21)
(0.154854 0.00796565 0)
(1.1672 0.0291549 -7.9456e-20)
(1.01045 -0.000813076 -7.91303e-24)
(1.08295 -0.0153582 0)
(1.09671 0.0623518 -1.52224e-21)
(0.403563 0.0386595 0)
(0.290957 0.0129456 6.92367e-21)
(1.01883 -0.0162854 1.176e-21)
(0.590235 -0.199696 0)
(0.992706 -0.0131399 1.92046e-20)
(1.13422 0.0574634 -5.98863e-20)
(1.1839 0.0417661 -3.27688e-21)
(1.08479 -0.0147831 0)
(1.12858 -0.00409782 -7.13818e-20)
(1.17029 0.0291888 8.17325e-20)
(0.999625 -0.0251326 -1.25703e-20)
(0.805331 -0.127086 3.92275e-20)
(1.10399 0.056201 0)
(1.16365 0.073841 -1.56721e-20)
(0.997787 -0.00865266 0)
(0.981569 -0.016993 -7.32021e-22)
(0.895536 -0.0749369 1.69233e-20)
(0.3474 0.048791 0)
(-0.253563 -0.00632685 0)
(1.11914 0.00764399 3.18404e-20)
(1.03024 -0.0167913 3.41069e-21)
(1.17506 0.0490017 3.88324e-21)
(1.18832 0.038154 9.38614e-20)
(1.12477 0.0490702 -3.88354e-20)
(1.1266 -0.00335313 5.90623e-20)
(0.318277 0.0449705 0)
(-0.139503 0.00809917 -2.66069e-20)
(1.08812 -0.0229076 0)
(1.09879 0.00655421 -5.90867e-20)
(1.11739 -0.164624 0)
(1.02057 -0.0219627 1.24416e-21)
(1.00142 -0.00638669 -2.15538e-21)
(1.12656 0.0494901 -8.63228e-21)
(1.14819 -0.116661 4.5587e-20)
(1.02309 -0.0124659 7.04941e-21)
(1.00013 -0.00207759 -4.09339e-21)
(1.00144 -0.0139359 0)
(1.00428 -0.000647282 -1.25098e-23)
(1.10345 -0.00589002 -8.77731e-20)
(1.00147 -0.00682578 6.33665e-21)
(0.272455 0.0373436 1.90675e-20)
(1.11765 0.0042113 0)
(1.01175 -0.0329807 -1.47504e-21)
(0.410929 0.0377834 0)
(0.0645213 0.0245155 0)
(0.974706 -0.0187483 0)
(1.14363 0.0456213 -1.79459e-20)
(-0.209864 0.00645405 1.63865e-20)
(0.973823 -0.047487 0)
(0.973322 -0.0180708 0)
(1.11999 0.00383885 0)
(0.0276025 0.0101031 -3.90021e-21)
(0.212243 -0.0136008 -6.8525e-20)
(1.14666 0.000556654 4.75708e-20)
(1.00227 -0.000610266 -6.90459e-22)
(0.719969 0.068487 0)
(1.00098 -0.00790115 0)
(1.15243 0.000354116 4.76884e-20)
(-0.193595 0.00877575 0)
(1.16507 0.0737577 7.93426e-20)
(1.06185 0.00115618 9.24818e-21)
(1.22497 -0.199878 -1.50232e-21)
(1.325 -0.180236 0)
(-0.112603 -0.00583441 -1.31302e-19)
(1.216 -0.0275278 0)
(0.780229 -0.0958646 -3.97557e-20)
(-0.0220519 0.0257842 6.8064e-22)
(0.11605 0.0339603 2.50952e-22)
(1.14731 0.0718429 -4.33952e-20)
(1.0432 -0.0290175 7.63212e-21)
(-0.255993 -0.00419445 -9.27163e-20)
(0.117477 0.00336419 6.98913e-23)
(0.460046 -0.4512 -1.17484e-19)
(0.495207 -0.457279 9.99659e-20)
(0.935799 -0.0228485 1.0267e-20)
(1.14947 -0.00685997 -5.72752e-20)
(0.947309 -0.118336 0)
(0.222021 0.0102224 2.96973e-20)
(0.785143 -0.142788 3.80578e-20)
(1.00819 -0.00194156 -5.22644e-22)
(1.02005 -3.10277e-05 4.26173e-21)
(1.07044 -0.082003 -1.92182e-20)
(-0.139202 -0.00827089 1.79915e-19)
(0.206007 -0.543249 9.82202e-20)
(1.02058 -0.0211521 -2.8401e-21)
(-0.0633632 0.0231431 -1.23486e-19)
(0.93646 -0.115609 -1.59655e-20)
(1.10018 -0.0691393 -9.47805e-21)
(1.06334 0.0024075 1.35483e-20)
(0.0179519 0.00798135 -2.40701e-21)
(1.1719 0.0486775 0)
(1.09464 0.0619641 0)
(1.02245 -0.080437 6.56493e-22)
(1.07437 -0.0432922 2.33003e-20)
(0.482872 0.0432622 0)
(0.976834 -0.02572 -2.39587e-20)
(1.1922 0.0374606 -3.32462e-20)
(1.08665 -0.021684 0)
(1.12126 0.00253951 0)
(0.930571 -0.117925 0)
(0.992047 -0.0131343 -1.31251e-20)
(1.01253 -0.0325667 1.44748e-21)
(1.22948 -0.0880885 0)
(1.22514 -0.192805 2.44767e-21)
(1.16367 0.0324734 -8.50677e-20)
(1.34914 -0.182221 5.24516e-23)
(0.492924 0.0445955 4.90159e-21)
(1.00874 -0.0746617 0)
(0.0945083 0.0423293 3.43624e-20)
(1.13835 0.0601886 -1.59105e-20)
(1.02819 -0.00854411 -3.24384e-22)
(1.14589 0.0757685 -6.69615e-20)
(1.13863 0.0323634 1.44589e-20)
(-0.160731 0.0102446 -5.26868e-20)
(1.06841 -0.0794827 0)
(1.08697 0.0491626 0)
(1.10035 0.0744018 0)
(1.24852 -0.0971766 8.6769e-20)
(1.22561 -0.0988415 1.12497e-22)
(0.212882 0.0102975 4.11764e-21)
(1.04675 -0.0399405 -6.58262e-21)
(1.13205 0.0676783 5.30056e-20)
(-0.330055 -0.00282803 0)
(1.10186 -0.0260375 4.03703e-20)
(0.17585 0.0116 4.58987e-20)
(1.10888 -0.028015 -1.91867e-20)
(0.134176 0.0444574 -6.28547e-20)
(1.09788 0.00548794 3.57329e-20)
(1.08025 0.0341338 1.68726e-20)
(1.17338 0.0239962 0)
(1.24889 -0.170909 0)
(0.983723 -0.0102353 0)
(1.08545 -0.0280474 1.22136e-20)
(1.15251 -0.119615 3.99045e-21)
(1.08453 0.0208762 0)
(1.01312 -0.0252635 0)
(1.11896 0.00949234 -3.35741e-20)
(0.592524 0.0694868 1.21766e-21)
(0.994634 -0.0269036 -9.61106e-21)
(1.105 0.0227836 0)
(-0.212888 -0.0132347 1.99514e-19)
(1.06745 -0.040691 -1.18437e-20)
(1.25003 -0.484571 -7.35466e-20)
(1.09038 0.0322882 -2.59328e-21)
(0.271144 -0.0149027 0)
(1.07962 -0.047742 2.00158e-20)
(1.09084 0.0448595 0)
(0.915693 -0.685567 6.55478e-20)
(1.18343 0.0439199 1.42079e-20)
(1.13168 -0.0133134 1.54513e-20)
(0.271299 0.00985754 2.67132e-23)
(-0.0359651 0.00947903 8.23427e-20)
(1.26174 -0.323666 0)
(0.998848 -0.0252024 -5.19252e-21)
(1.22563 -0.0845242 0)
(1.11037 -0.0346847 -4.29214e-20)
(1.08783 0.0483269 0)
(1.02774 -0.018016 -8.25919e-21)
(-0.239163 -0.00204147 4.63505e-22)
(0.547865 0.0703803 -2.3337e-20)
(1.20991 -0.0550546 -1.60971e-19)
(1.07397 -0.0412723 -2.22179e-20)
(1.17313 0.0261764 0)
(1.11722 0.0705321 -5.04726e-20)
(-0.239162 -0.00895282 0)
(1.02477 -0.00329069 4.14401e-21)
(-0.29097 -0.00162411 -1.04466e-19)
(1.25887 -0.157653 1.13888e-20)
(0.288943 -0.176783 1.29223e-21)
(1.0507 -0.136041 -1.02195e-20)
(1.13624 0.0533503 -8.85095e-20)
(0.987504 -0.0174115 1.1964e-20)
(1.00125 -0.000364711 -8.95178e-22)
(0.104683 0.00826979 4.97679e-20)
(1.12012 0.069679 4.25404e-20)
(0.990468 -0.00869774 -5.90042e-21)
(1.07278 -0.0258247 5.1053e-21)
(1.10672 0.0228616 -7.17294e-21)
(1.01289 -0.00889855 9.81697e-22)
(0.61937 0.0731101 0)
(1.14947 -0.00424434 1.23191e-20)
(1.13898 0.0310752 0)
(1.07749 -0.000695046 8.81802e-21)
(1.04744 -0.0387582 0)
(0.971948 -0.00736653 0)
(1.29573 -0.110585 0)
(1.01058 -0.0322105 0)
(0.973012 -0.00632074 0)
(0.84773 0.0702534 8.16856e-21)
(0.625908 0.0679666 0)
(1.03285 -0.0918013 0)
(1.10176 0.0723279 1.68143e-20)
(0.995688 -0.00254204 -9.17942e-22)
(1.00158 -0.0064635 -2.04089e-21)
(1.06976 -0.041615 3.54763e-20)
(1.16626 0.0325709 9.0713e-20)
(1.08701 0.0339494 -2.34485e-20)
(1.01299 -0.0267391 0)
(1.05672 -0.031267 1.28972e-20)
(1.11296 -0.352186 3.04449e-20)
(1.06463 -0.0182804 -1.66731e-20)
(0.313535 -0.0217639 0)
(1.00145 -0.00798674 -2.29961e-21)
(1.0774 0.0108434 1.83825e-20)
(0.458102 0.0500593 1.135e-20)
(0.938133 -0.161553 0)
(1.01925 -0.000669894 -1.02657e-21)
(1.00044 -0.00686758 -3.63205e-21)
(1.07712 -0.00168683 -4.49912e-21)
(1.04944 -0.0101786 0)
(1.24202 -0.375837 3.48022e-20)
(0.767052 0.0672141 -9.04613e-21)
(1.10761 -0.0128366 4.80086e-21)
(0.320138 -1.12447 0)
(1.07144 -0.0401957 -1.85984e-20)
(1.00027 -0.0108967 -4.33274e-21)
(0.23406 0.0427334 -2.32664e-20)
(1.10165 0.074021 1.71479e-20)
(0.877239 -0.123905 0)
(0.995815 -0.0308253 0)
(0.104065 0.0314236 3.4677e-20)
(0.857384 -0.0946059 4.19436e-20)
(1.17539 -0.642887 -1.59028e-20)
(0.989097 -0.0278957 -9.72447e-21)
(1.10213 -0.060787 0)
(1.22984 -0.0956741 0)
(1.09097 0.0186084 0)
(0.148661 0.0387654 2.15918e-20)
(1.11844 0.0713139 4.70981e-20)
(1.27094 -0.067649 1.5325e-19)
(0.976417 -0.0714738 0)
(1.21704 -0.0238157 5.80089e-22)
(1.00077 -0.0264241 4.04399e-21)
(0.390528 0.0389989 0)
(1.09093 0.0315295 9.34943e-21)
(1.12925 0.0500693 0)
(1.10879 -0.0327607 3.46173e-20)
(1.02299 -0.0772412 1.38176e-21)
(0.944643 -0.159153 0)
(1.14633 -0.00821922 1.1444e-20)
(1.00182 -0.000555721 0)
(-0.271716 -0.00398862 0)
(0.206035 0.0397272 0)
(0.353423 -0.0259997 5.5459e-20)
(-0.181753 -0.00182945 -1.46995e-20)
(0.786739 0.068824 7.96152e-21)
(-0.244176 0.00391185 -3.65497e-20)
(1.18791 0.0409796 -6.98989e-20)
(0.912361 -0.0801378 0)
(0.999667 -0.00282722 -7.73459e-21)
(1.22045 -0.482925 -4.44525e-20)
(0.991184 -0.00742116 -7.93079e-21)
(1.01279 -0.0245636 9.37925e-23)
(0.906289 -0.0968679 1.40605e-20)
(-0.00222425 0.0315993 6.66666e-20)
(1.07036 -0.0174643 -2.45179e-20)
(0.970489 -0.0403222 -9.10517e-23)
(1.07401 -0.283295 -6.98263e-22)
(1.13905 -0.0350546 0)
(0.989154 -0.00281624 8.85515e-22)
(0.661648 0.0302562 6.1403e-20)
(1.00856 -0.0236786 -2.63778e-21)
(0.243844 0.0481692 -2.30854e-20)
(1.23222 -0.360022 -1.20698e-19)
(1.00544 -0.0188165 0)
(1.06505 -0.00866645 -1.95081e-20)
(1.26328 -0.131966 -5.13635e-20)
(1.14575 0.0754048 -8.53899e-21)
(1.02245 -0.0127549 3.88902e-22)
(0.948828 -0.0916756 0)
(1.05168 -0.398217 8.08581e-20)
(1.03228 -0.00307968 0)
(-0.0764633 0.0022516 3.15638e-20)
(1.2009 0.0362664 -4.20754e-21)
(1.14815 0.0420126 0)
(0.974968 -0.0697125 1.3119e-20)
(0.865269 0.071807 -3.31946e-20)
(-0.0866892 0.0117477 3.23453e-20)
(1.03301 -0.00329654 -4.52248e-21)
(1.23201 7.0294e-06 1.04612e-19)
(1.01827 -0.0405446 -5.06535e-23)
(1.00904 -0.0242655 1.30017e-21)
(0.927892 0.0697881 1.82461e-21)
(0.137718 0.045277 7.72565e-20)
(1.12233 -0.0337672 0)
(1.08583 0.0337834 1.97395e-20)
(0.990538 -0.00615197 -1.04318e-20)
(1.09578 0.039077 0)
(0.230313 0.0478728 -3.86693e-22)
(-0.0472649 0.0206586 1.10981e-19)
(1.03634 -0.00651643 1.1743e-21)
(-0.292481 0.000782115 0)
(1.0126 -0.0260797 0)
(1.01953 -0.0413005 -7.66699e-22)
(1.13254 -0.0113806 2.08911e-21)
(1.07382 0.0154307 0)
(1.02501 -0.00299635 2.2388e-21)
(1.01824 -0.07505 -2.42686e-22)
(-0.0627062 0.00282889 0)
(1.24404 -0.16755 -4.45355e-20)
(-0.092025 0.00239302 0)
(1.06822 -0.0179164 -1.86184e-20)
(0.992925 -0.0138626 -1.26526e-22)
(0.369363 0.0490132 -7.82354e-21)
(0.999456 -0.00401905 0)
(1.22644 -0.0739471 0)
(1.08122 0.00523403 2.707e-20)
(1.0867 0.0178924 -3.13593e-20)
(1.10754 -0.0186843 8.55785e-21)
(0.562787 0.0581702 0)
(-0.126088 0.0102195 0)
(1.08338 -0.0322164 -2.02972e-20)
(-0.290941 -0.00257665 0)
(1.06072 -0.000904479 4.40792e-21)
(1.15639 -0.0197412 0)
(0.448515 0.04606 1.66588e-20)
(0.14082 0.0150566 1.24552e-21)
(1.0119 -0.0411673 -1.69351e-21)
(1.00003 -0.0263228 5.05062e-21)
(0.817577 -0.159141 0)
(-0.0829184 0.00393363 0)
(1.09459 0.0693668 -4.38458e-20)
(1.09459 0.0387615 0)
(1.06417 -0.561153 1.45598e-20)
(1.07373 0.0161824 0)
(1.09584 0.00611521 0)
(0.0478013 -0.0500122 -7.92487e-20)
(0.608001 0.0208656 8.67256e-20)
(1.08642 -0.341772 -2.97996e-20)
(0.228355 0.0460488 0)
(1.12273 0.0612352 -9.39151e-21)
(0.498827 0.046775 -1.37037e-20)
(1.04248 -0.0386043 8.72449e-23)
(1.10875 0.076621 0)
(1.21395 0.0483579 0)
(0.9999 -0.00944628 4.29454e-21)
(-0.317559 0.0018357 -8.33858e-20)
(0.419386 0.0502672 3.78065e-20)
(1.03303 -0.124593 6.60275e-21)
(1.11276 0.0165419 -2.48098e-20)
(1.00236 -0.0362673 2.94837e-22)
(0.465531 -0.841398 -7.98673e-21)
(1.14549 -0.188242 0)
(0.568145 -0.187913 1.60536e-19)
(1.00989 -0.0327337 -2.2951e-21)
(1.00074 -0.000495354 0)
(0.910207 -0.0477592 0)
(1.13777 -0.0377376 1.02634e-20)
(1.00151 -0.00768707 0)
(-0.0313439 0.0288951 -1.14246e-19)
(1.00087 -0.000592788 1.37625e-21)
(1.12355 0.060491 0)
(0.969706 -0.0681522 4.37868e-22)
(1.08882 0.0488223 -6.95387e-21)
(0.990663 -0.0283837 -1.00688e-20)
(0.988427 -0.00294361 -1.01759e-20)
(1.09419 -0.161686 0)
(-0.291121 -0.00109054 2.05713e-19)
(1.13331 -0.0182956 -6.32998e-20)
(-0.0785253 0.0228513 1.41707e-20)
(1.10249 -0.0638703 4.8813e-21)
(1.0131 -0.00994013 9.05325e-22)
(1.0312 -0.0110448 5.32956e-21)
(1.14866 -0.0132041 -2.9363e-21)
(1.05557 -0.0322543 2.09931e-21)
(1.19048 -0.0302661 9.01228e-20)
(1.07463 -0.0195201 -1.41309e-20)
(0.877186 -0.116166 0)
(1.10467 0.0753125 0)
(0.999337 -0.00374836 4.18278e-21)
(0.296199 0.00840485 0)
(1.00006 -0.0014377 4.2415e-21)
(1.08891 0.0548046 3.73292e-20)
(-0.274446 -0.00231901 0)
(0.415677 0.0497779 0)
(0.881811 -0.028266 2.66634e-20)
(0.777116 -0.268354 -1.36582e-19)
(1.06279 -0.282586 -3.80408e-20)
(1.224 -0.24508 -4.10115e-20)
(0.388565 0.051011 0)
(1.03878 -0.00761568 -2.41911e-21)
(0.568149 0.026952 2.64449e-20)
(0.941865 -0.120451 0)
(1.10443 -0.0260684 -8.94115e-21)
(-0.169182 -0.00377634 1.03871e-19)
(1.27875 0.0117675 -7.28332e-21)
(1.02865 -0.00902585 -3.78357e-21)
(1.18851 -0.0326921 -8.46752e-20)
(1.04584 -0.0104428 -4.50096e-21)
(0.463182 0.0427903 2.77531e-21)
(-0.26232 0.00447823 -4.04244e-20)
(1.02474 -0.0427102 8.35281e-23)
(0.691469 -0.148561 -8.10916e-20)
(0.611129 0.0748936 4.73418e-20)
(0.999985 -0.00119794 -6.33602e-21)
(0.999977 -0.00161077 -4.71047e-21)
(1.0907 0.0466431 3.44048e-20)
(0.277575 0.00568136 4.36572e-21)
(0.943276 0.0762203 -2.2845e-20)
(0.973533 -0.0166744 3.27977e-21)
(1.17743 0.0199136 5.3659e-21)
(1.06285 -0.0182277 8.06955e-21)
(0.987321 -0.00396646 0)
(1.10377 0.0755366 4.42486e-21)
(1.1769 0.0224953 0)
(1.21916 -0.178371 3.19487e-20)
(1.0234 -0.00274837 0)
(1.10518 0.0557241 2.81131e-20)
(0.906146 -0.208784 0)
(1.0892 0.0431088 6.29513e-21)
(0.957129 -0.0194171 -3.15338e-20)
(1.00797 -0.0684333 5.31127e-22)
(1.13785 -0.188102 0)
(0.914387 -0.0488602 0)
(1.10305 0.058298 -1.11967e-20)
(1.12327 0.00749597 2.92021e-20)
(1.12607 0.004336 5.31039e-22)
(1.07494 -0.329075 4.29573e-20)
(1.17214 -0.657197 -5.17723e-20)
(1.20517 0.0325897 -8.19223e-22)
(0.661496 0.0671716 -7.21838e-23)
(1.05316 -0.0993498 0)
(1.1004 0.0614197 0)
(0.0930664 0.0176658 2.81894e-20)
(1.02314 -0.177866 -7.36388e-21)
(0.896174 0.068579 0)
(1.14711 0.0439856 0)
(1.03247 -0.0208677 0)
(1.0947 0.00504876 -1.67457e-20)
(1.20139 0.0296793 -1.02649e-19)
(1.05782 -0.0879359 -1.50447e-20)
(1.00509 -0.0175455 1.01109e-23)
(1.00558 -0.0166148 -2.58676e-21)
(1.09077 0.0546382 1.70162e-20)
(0.205955 0.00776282 1.32867e-20)
(1.07885 0.0106912 -1.93268e-20)
(0.0767514 0.0389772 3.5367e-20)
(1.01291 -0.0103186 8.54681e-22)
(0.910283 0.0756957 4.53793e-21)
(0.999696 -0.372846 0)
(-0.219775 0.0061784 1.5555e-19)
(1.1892 -0.0379139 -4.29873e-20)
(1.08188 -0.0471368 -2.09232e-20)
(1.07193 -0.0216487 -1.34786e-20)
(-0.207389 0.00893635 -5.66393e-20)
(1.22109 -0.172972 -1.15151e-19)
(1.02362 -0.170937 7.08077e-21)
(1.12042 0.0706411 -9.78438e-21)
(1.04614 -0.03669 0)
(1.24355 -0.440965 0)
(1.08996 0.0551373 -9.74345e-21)
(1.12506 0.0601613 -1.75172e-20)
(1.10765 -0.0445065 9.40051e-21)
(1.27612 -0.147169 0)
(0.988238 -0.0178302 7.96735e-21)
(1.00007 -0.00168721 2.74149e-22)
(0.940713 -0.0212256 2.8876e-20)
(0.986684 -0.00474506 -1.75487e-21)
(0.429238 0.0447894 0)
(1.00402 -0.000791984 0)
(1.09884 0.0737023 0)
(0.336213 0.0465605 0)
(1.19287 -0.0394694 0)
(-0.0304983 0.023605 0)
(-0.160874 0.00912709 0)
(1.12631 0.0605472 0)
(1.23278 -0.240945 9.03924e-20)
(0.884704 -0.0356654 -2.16409e-20)
(0.998596 -0.000361717 -1.0618e-20)
(0.982802 -0.016218 7.70779e-22)
(1.02076 -0.0064906 0)
(1.03047 -0.0111042 -6.82207e-21)
(1.00102 -0.000554547 -9.76727e-22)
(1.15453 -0.0134914 0)
(1.20747 -0.0105523 -5.66229e-20)
(0.902844 -0.220346 0)
(1.15912 0.0727083 -8.03461e-20)
(1.024 -0.0643806 2.69991e-22)
(0.247748 0.0346767 -9.0578e-21)
(0.999979 -0.000155842 -3.25891e-21)
(-0.156591 -0.0194882 -2.17027e-19)
(1.12012 -0.0920732 -8.41913e-21)
(0.99993 -0.00030676 -9.32657e-22)
(0.996997 -0.00123568 -6.29564e-21)
(0.398323 0.0496402 3.01583e-20)
(1.08374 -0.0403884 1.43613e-20)
(0.942283 0.0771164 1.26495e-20)
(0.436857 0.0487167 4.93802e-21)
(1.10935 0.0163323 0)
(1.13296 0.0204614 -1.43947e-20)
(1.03182 -0.00223472 -3.75678e-21)
(0.304564 0.0514673 -3.81084e-20)
(0.985356 -0.0822924 0)
(1.07145 -0.0187266 2.57745e-20)
(1.10472 0.075642 0)
(0.998631 -0.000849618 5.07361e-21)
(0.973849 -0.043321 -4.45865e-21)
(1.03619 -0.0120969 0)
(1.09305 0.0302267 2.25215e-20)
(0.181181 0.00911914 2.86732e-20)
(1.09355 -0.0602099 -2.65668e-20)
(1.10861 -0.0392785 -3.72802e-20)
(1.2619 -0.164712 0)
(-0.0784766 0.0185528 -1.13509e-19)
(0.886388 -0.0579556 -2.97173e-20)
(0.987456 -0.105952 0)
(0.481561 0.0471762 -1.37787e-22)
(1.02033 -0.00628766 0)
(0.470449 0.0460195 -1.00196e-20)
(1.00039 -0.0012235 -1.22613e-21)
(1.06518 -0.0167314 0)
(1.232 -0.00241274 -3.1955e-20)
(1.11094 0.0438496 6.37005e-20)
(1.12422 0.0522198 0)
(1.19236 -0.0986966 -7.56628e-20)
(1.13411 -0.0159502 8.79482e-21)
(0.999514 -0.000960266 -4.76025e-21)
(0.999989 -0.000162654 -6.87364e-21)
(1.16009 -0.0188379 0)
(1.04405 -0.0384894 -4.81321e-21)
(0.999635 -0.000774838 -8.52106e-21)
(1.07758 0.0146458 0)
(1.2504 -0.203365 -9.91448e-20)
(1.0048 -0.00571047 -1.8267e-21)
(1.21152 -0.259381 7.3465e-20)
(1.27571 -0.474025 5.66548e-20)
(0.991856 0.0785731 1.03858e-20)
(1.19075 -0.0940115 4.82031e-20)
(-0.0510992 -0.0174712 7.96057e-20)
(0.838519 -0.0921581 4.91075e-20)
(0.998455 -0.000694328 0)
(1.22402 -0.110521 2.94903e-20)
(1.01234 -0.010754 0)
(1.08609 -0.026101 -2.73564e-21)
(0.707803 0.0706264 -1.34805e-20)
(0.504711 0.0440203 1.99286e-20)
(0.558017 0.026326 1.94276e-20)
(0.522399 0.0514461 0)
(1.02853 -0.0430445 0)
(1.02462 -0.0418659 -8.38208e-23)
(0.978568 -0.280032 1.82257e-21)
(1.00438 -0.0658032 -4.50132e-22)
(1.02267 -0.0194822 0)
(0.561803 -0.287454 8.19677e-20)
(1.13318 0.0586046 2.13592e-20)
(0.164974 0.0134689 0)
(1.08826 0.0552986 -4.11968e-20)
(1.1123 0.0442113 -4.27242e-20)
(0.985299 -0.00661985 2.25733e-21)
(1.02082 -0.0129791 0)
(1.29824 -0.332772 4.88811e-20)
(1.14081 0.0296653 5.84758e-20)
(1.06724 -0.016578 2.22036e-20)
(0.999802 -0.000171633 -1.89376e-21)
(1.12164 0.0533649 -1.85018e-20)
(1.22822 -0.0381012 -6.27415e-22)
(0.0877497 0.0398866 0)
(0.97262 -0.0213633 0)
(1.00092 -0.003423 2.8687e-21)
(0.162905 0.00695643 -2.24933e-20)
(0.958245 -0.0180183 2.58987e-20)
(1.10822 -0.0233858 4.67074e-21)
(1.0125 -0.00840492 0)
(0.0173256 0.0334198 0)
(1.00988 -0.000457678 1.18702e-21)
(-0.265905 -0.00529628 0)
(0.994858 -0.00625977 1.05403e-20)
(1.20127 -0.195592 6.16265e-20)
(1.11351 -0.00291847 -2.33714e-20)
(0.954946 -0.283868 3.83335e-21)
(1.10958 -0.0427729 5.52158e-21)
(0.993172 -0.0259835 0)
(1.07251 -0.0286171 0)
(1.00339 -0.00411152 -7.31354e-23)
(1.09469 0.0724178 -7.9974e-21)
(0.961361 -0.0271618 0)
(0.311111 0.0167459 -5.97506e-21)
(1.04831 -0.0358205 -3.34959e-21)
(0.977905 0.0722834 -2.02447e-20)
(0.27124 0.0440343 0)
(1.10337 -0.0490918 -1.87791e-20)
(1.00399 -0.00293936 -7.42397e-22)
(-0.186308 -0.0174857 -5.0317e-20)
(0.763397 0.0686598 -4.75623e-21)
(1.08575 -0.0321171 4.31016e-20)
(1.1094 0.0443809 -4.24997e-20)
(0.982826 -0.0152708 0)
(0.24294 0.00849713 0)
(1.03339 -0.0215401 2.59319e-21)
(1.20317 0.0271047 0)
(0.999262 -0.010328 4.99604e-21)
(1.00367 -0.00428741 9.33701e-22)
(0.982393 0.081087 1.81768e-20)
(1.10832 -0.0169125 0)
(1.0005 -0.00739068 0)
(1.07905 0.0225134 7.71757e-21)
(0.145047 0.0433359 0)
(0.721578 -0.79501 9.14718e-21)
(0.562701 0.0738596 -4.8866e-20)
(1.01796 -0.0162776 -1.14699e-21)
(0.110055 0.0200348 -6.1321e-21)
(0.99756 -0.00916439 6.59631e-21)
(1.00459 -0.00539042 1.37552e-21)
(0.973946 -0.0242136 -8.96414e-21)
(1.02003 -0.000116364 0)
(0.999878 -0.00220949 -3.7103e-21)
(0.508921 0.0705699 4.15538e-20)
(0.677392 0.0683496 0)
(1.04644 -0.0209132 0)
(1.0009 -0.000812031 -2.42325e-21)
(1.12361 -0.0309214 2.4494e-20)
(1.01621 -0.0234204 2.6577e-22)
(-0.154476 -0.0220843 -4.43687e-20)
(1.22829 -0.106767 -8.59485e-21)
(0.0739634 0.0141461 -4.6032e-21)
(-0.0101108 0.0257546 -5.3581e-20)
(1.07208 -0.0297249 0)
(1.10407 0.0578357 0)
(0.999928 -0.0100077 4.58698e-21)
(1.11594 0.000530417 -2.26337e-20)
(0.994432 -0.355092 1.59215e-21)
(1.03807 -0.00699164 9.58289e-21)
(1.00034 -0.00120234 3.45761e-22)
(1.30392 -0.311381 0)
(-0.25157 0.00531291 -4.34625e-20)
(1.13086 0.0207262 0)
(-0.333564 -0.00513688 6.3561e-20)
(1.11546 0.0300461 0)
(0.995803 -0.0033966 0)
(1.12735 -0.0426588 -3.05687e-20)
(1.10877 0.0451435 3.97071e-20)
(-0.306967 0.000215471 -1.25323e-20)
(1.10131 -0.00694773 0)
(1.09917 0.080301 -1.43886e-21)
(1.14308 0.0298336 -7.97807e-20)
(1.00021 -0.0023205 5.4589e-21)
(0.354696 -0.119609 0)
(0.255139 -0.0846158 0)
(0.212657 0.0137493 1.21915e-20)
(1.25199 0.0157333 8.51383e-21)
(0.939869 0.0689401 -1.19622e-20)
(0.979379 -0.0723212 3.43263e-21)
(0.727509 -0.354633 5.13147e-20)
(0.97239 -0.00458856 -8.62335e-21)
(1.15656 0.0692966 -5.79797e-20)
(1.05674 -0.0845959 1.36392e-20)
(1.00801 -0.00154244 4.3355e-22)
(0.515514 0.0725696 -5.91208e-20)
(1.02022 -0.0635037 -4.03001e-22)
(1.00391 -0.00269936 0)
(1.01318 -0.0412105 1.80848e-21)
(1.0188 -0.0617588 1.52391e-23)
(-0.0129026 0.0308411 0)
(1.19667 0.033508 3.67244e-20)
(1.0122 -0.015033 1.28546e-22)
(1.12927 -0.0399913 0)
(0.0403394 0.0115108 6.71585e-20)
(1.0381 -0.058223 0)
(-0.347969 -0.00307223 9.32599e-20)
(0.957693 -0.0441648 0)
(1.11654 0.0393858 2.45532e-20)
(0.101483 0.042443 0)
(1.0013 -0.00706981 0)
(1.09098 0.0703366 1.96758e-21)
(1.06672 -0.0997832 5.83828e-21)
(1.10643 -0.0501137 0)
(0.676115 -0.822664 0)
(1.02265 -0.0628393 0)
(1.26492 -0.0781053 5.67002e-20)
(1.08951 0.0444922 -1.64581e-20)
(0.186484 0.0483616 0)
(1.04743 -0.00483401 9.63252e-21)
(0.264282 0.0136322 -2.05414e-21)
(1.10061 -0.0284403 -7.82239e-21)
(0.0418848 0.0193026 3.2316e-20)
(-0.293757 0.00310461 -1.81073e-19)
(0.241702 0.00947954 2.00232e-20)
(1.10709 0.0189482 0)
(0.99019 -0.0243833 0)
(1.02788 -0.0442355 0)
(0.999968 -0.0011569 0)
(1.07955 0.0330386 1.51176e-20)
(0.996986 -0.00311333 6.6583e-21)
(0.161282 0.040709 2.6213e-20)
(1.02942 -0.116339 3.12927e-21)
(0.925517 -0.0885355 0)
(0.889294 -0.0545666 5.05093e-20)
(0.981444 -0.0709356 0)
(1.01753 -0.0157023 0)
(1.06754 0.0174656 0)
(1.06372 -0.0856048 -7.86111e-21)
(1.06494 -0.00988578 0)
(1.04351 -0.0970853 2.51936e-21)
(0.31189 0.0490707 0)
(1.09137 0.0712716 0)
(1.09776 -0.0199695 -1.51691e-20)
(1.11418 -0.151069 0)
(0.545342 0.0719618 2.91296e-20)
(0.97115 -0.0428396 1.53364e-20)
(-0.124261 -0.00480056 -3.60429e-20)
(1.01971 -0.00627287 2.59702e-21)
(1.03064 -0.140483 0)
(0.959579 -0.0258654 1.50446e-20)
(1.02362 -0.0285473 2.92233e-21)
(1.0787 -0.165184 3.43806e-20)