/*--------------------------------*- C++ -*----------------------------------*\
| =========                 |                                                 |
| \\      /  F ield         | OpenFOAM: The Open Source CFD Toolbox           |
|  \\    /   O peration     | Version:  v2012                                 |
|   \\  /    A nd           | Website:  www.openfoam.com                      |
|    \\/     M anipulation  |                                                 |
\*---------------------------------------------------------------------------*/
FoamFile
{
    version     2.0;
    format      ascii;
    class       volScalarField;
    location    "400";
    object      ddt0(k);
}
// * * * * * * * * * * * * * * * * * * * * * * * * * * * * * * * * * * * * * //

dimensions      [0 2 -3 0 0 0 0];


internalField   nonuniform List<scalar> 
37809
(
1.31556e-07
-9.40729e-05
-1.54885e-10
-2.2416e-08
-0.000294632
-1.52879e-07
-3.58492e-08
-2.42394e-07
2.10868e-05
4.44525e-06
-9.80388e-09
-1.19021e-08
1.64273e-09
-3.31225e-09
-1.81057e-05
1.54498e-08
-2.28824e-10
3.55655e-05
1.3922e-08
-7.10577e-08
-1.5965e-08
-4.06259e-08
0.000465877
1.40206e-09
-1.73109e-08
0.000874409
1.75005e-05
-2.67728e-09
-9.53942e-11
-1.33374e-08
7.30483e-08
-0.000142363
1.46405e-09
-4.81663e-07
2.17286e-09
-2.60894e-10
-5.66488e-09
-1.56301e-05
-3.08527e-08
-4.03457e-08
-0.000138116
4.74312e-05
-2.03186e-05
3.47276e-05
-1.18008e-08
-5.37442e-09
-4.58889e-07
-0.00131022
2.48311e-05
-1.6772e-09
-1.21676e-08
3.35569e-09
-1.5284e-09
1.61527e-08
0.000138617
-1.193e-09
8.51396e-09
-5.00778e-09
-4.61563e-08
4.20874e-05
-8.02063e-06
-5.20771e-10
-2.88312e-09
3.56604e-08
6.70466e-08
-1.94111e-08
-0.0012568
1.47363e-08
9.44678e-09
0.00159378
7.25323e-09
-7.44654e-05
-1.21192e-08
1.16401e-10
-3.06303e-09
-3.59551e-09
-3.58782e-08
2.18428e-07
4.93423e-08
5.06617e-07
-8.36941e-09
-7.56161e-11
-0.000268741
-2.05018e-08
1.15669e-08
-5.16462e-05
9.40007e-09
-0.0014458
-1.34133e-07
6.22946e-09
1.68138e-05
-3.2299e-05
-8.28815e-08
9.25164e-06
1.00062e-08
-4.52454e-05
-1.2037e-08
-1.14469e-08
-0.000157615
2.74797e-09
0.000258468
-1.11527e-08
3.06742e-08
1.72903e-05
-0.000182036
-1.24053e-11
-2.0305e-07
2.39219e-06
-8.4919e-07
-1.15998e-08
-7.97456e-08
-2.02854e-08
-1.67123e-07
1.24973e-08
9.04459e-09
-3.15905e-08
-2.93085e-09
-4.95495e-09
-6.66217e-06
2.85372e-05
7.51545e-13
-2.2417e-09
-1.60755e-08
-0.000274825
2.8469e-05
-4.37227e-09
-3.99358e-07
3.03539e-09
3.8004e-09
1.10908e-08
-7.71788e-06
-8.50573e-07
-1.32371e-05
-1.22747e-09
8.17321e-07
4.04007e-09
-1.22032e-08
-5.41907e-10
-8.90884e-05
0.000643157
2.21436e-09
-0.00143542
-7.38056e-05
-0.00013332
-1.26437e-08
-0.000339544
-2.24575e-08
3.17998e-09
-0.000203555
1.34365e-09
-0.000137458
1.11863e-08
-6.20585e-08
-3.33182e-07
1.48341e-07
1.80897e-09
-0.0011199
-5.19144e-06
1.56225e-08
-5.48241e-05
7.75128e-09
-1.55914e-06
6.52383e-08
-7.73845e-06
2.72124e-10
-3.42699e-09
2.5936e-09
2.25895e-05
-2.28386e-09
1.26527e-07
1.18297e-05
-3.63871e-09
4.15567e-05
-1.41333e-08
9.40383e-09
1.43605e-08
-0.000165676
5.24432e-09
-6.60545e-05
5.446e-09
-7.76965e-06
-1.1552e-08
-1.43009e-09
-4.73609e-09
-2.96139e-09
4.24664e-07
-1.222e-08
-2.16915e-08
0.000189495
2.70849e-05
-1.41923e-08
-1.22425e-08
-9.08396e-09
-1.9459e-05
-7.50999e-08
1.18484e-07
-2.91578e-09
-1.73704e-10
-1.21286e-09
6.92313e-09
5.56784e-05
-1.35572e-08
-2.46199e-05
4.07943e-08
4.12822e-05
-3.30661e-09
-1.53447e-08
6.86716e-08
2.70812e-09
-3.4774e-07
7.09905e-08
-9.29631e-05
-9.17853e-10
-4.2739e-09
-6.97547e-09
0.00176816
4.07041e-08
8.43501e-09
-1.02945e-09
-7.32221e-07
5.83783e-05
-9.13981e-08
-2.5417e-09
-8.29766e-09
-8.5135e-09
-0.000138392
-2.25832e-05
-4.01044e-07
-1.42632e-09
-5.496e-05
-5.3169e-09
-4.00854e-08
3.09844e-07
-3.22395e-10
1.70901e-05
-0.0013592
-1.99959e-09
-0.000149256
-3.42308e-11
-2.82044e-08
-0.000953595
-3.82151e-09
-1.97583e-05
-0.000288083
-1.05919e-08
3.91509e-09
-7.2693e-12
-2.35301e-09
1.27145e-07
-2.56737e-09
-5.89572e-11
1.59621e-09
4.46402e-09
-0.000203586
-7.60998e-09
-9.40511e-09
1.24542e-10
5.55959e-11
1.14441e-07
0.000121367
-6.51385e-08
-8.8527e-09
5.29435e-05
-1.61179e-09
-2.18183e-05
7.29667e-09
-4.90026e-07
-1.67749e-08
-3.22949e-09
-2.87238e-06
-1.32982e-05
-6.51444e-09
-0.000251648
0.000182724
1.62987e-09
-1.48549e-08
-2.19477e-07
5.46976e-10
-3.39099e-05
2.91574e-09
-1.27301e-08
0.000251658
2.19913e-05
1.19051e-09
-7.65247e-07
4.03985e-09
-1.28925e-08
1.35155e-09
-9.02777e-09
0.00140962
5.58714e-09
-3.60031e-08
-3.50469e-05
-1.32485e-09
8.74945e-10
-2.15347e-08
-6.97834e-07
-4.34167e-06
-6.74725e-09
-1.11719e-06
-3.37952e-08
-0.000119506
-3.11237e-09
8.13503e-07
3.89816e-06
-2.05827e-08
-2.45748e-10
9.24907e-09
-0.000125981
-3.74588e-09
-5.31966e-07
-0.000231116
-9.78698e-05
-9.60115e-09
3.56105e-12
-3.17741e-05
5.06055e-09
1.31975e-08
1.23732e-06
0.000246681
6.33117e-08
-1.01194e-07
-5.44395e-09
9.38912e-09
0.0055412
6.8289e-09
5.99025e-06
-4.36448e-09
-2.44189e-10
-3.98753e-07
-2.05819e-09
-3.48124e-09
-1.30791e-08
2.39172e-06
1.59336e-09
-1.63084e-09
-8.27122e-08
1.22258e-08
1.48562e-09
1.51873e-08
-6.21405e-10
5.69816e-10
3.94041e-07
0.00132617
-2.22002e-08
-5.4147e-07
2.84487e-06
2.82477e-10
4.81863e-05
-2.25756e-08
-3.98836e-08
-6.53287e-08
-1.07983e-08
1.54371e-08
0.000178483
0.000480886
-2.84511e-09
-7.87016e-07
-2.62526e-09
0.000453365
-0.000291921
1.06641e-08
-7.58768e-05
0.000159426
0.000196765
-0.000137142
2.27242e-08
1.61479e-08
-2.4046e-08
4.17578e-10
-6.60512e-10
-3.63736e-08
-1.65405e-07
5.33971e-05
-8.15801e-09
3.26928e-09
-1.87498e-07
-2.10936e-09
-0.000147067
9.46003e-08
-1.34294e-08
8.4831e-09
2.98594e-05
-1.67608e-08
-2.72383e-07
-1.56458e-08
0.000448709
6.76682e-09
-1.05198e-06
2.16634e-09
2.95788e-09
7.80342e-05
-1.51009e-10
9.8622e-10
1.38872e-08
-1.48092e-07
0.00011218
4.28791e-07
-2.50257e-08
-1.70914e-10
-3.82322e-05
-3.34636e-07
2.06073e-09
-1.03763e-08
-6.96002e-10
-3.38815e-08
-3.88307e-09
-0.000146821
-0.00125238
3.9023e-05
-3.83425e-09
-2.44262e-08
-9.35355e-09
-4.91605e-09
-4.30949e-09
-4.5587e-05
-2.05544e-07
9.04065e-06
1.10559e-11
6.70265e-10
-9.72123e-05
-7.70461e-09
2.3104e-06
1.33202e-07
1.64941e-09
9.73478e-05
-6.65202e-09
7.64699e-11
1.32603e-08
-9.25408e-07
2.15197e-09
-1.45504e-08
-2.16289e-08
1.31861e-08
-7.9762e-05
-5.36337e-09
5.67912e-06
-0.000255769
-9.10143e-09
-2.08491e-09
1.00131e-08
-8.79413e-07
1.39636e-09
-8.95376e-08
4.9981e-09
-3.42114e-09
0.000118458
1.2081e-07
-7.38214e-08
-5.87744e-07
-2.60564e-08
3.2846e-09
1.27204e-08
-7.04332e-11
-1.16092e-08
1.26829e-09
-5.48409e-09
5.43942e-10
-3.86488e-05
-1.45271e-08
-1.70903e-09
1.19601e-08
2.15294e-08
-0.000341013
-3.97074e-05
-7.87157e-05
8.86897e-09
9.81715e-09
-0.000126395
5.93605e-09
-2.31875e-08
2.22075e-09
3.0541e-10
1.84749e-09
-1.53906e-07
-5.09924e-09
-2.68262e-09
2.94606e-05
-4.14924e-08
-4.48027e-10
-2.98748e-10
-1.86093e-09
-2.54141e-08
-2.24026e-09
2.98556e-05
5.39941e-09
-3.56072e-08
-4.85764e-07
-0.000728676
-1.298e-08
0.000112028
-8.35507e-08
-3.3281e-07
-1.10132e-08
1.24576e-08
8.14054e-05
-2.31942e-09
-2.68335e-08
-7.76523e-09
-1.35827e-08
-2.03539e-09
3.90512e-06
-7.04804e-05
0.000964271
1.59068e-08
5.34177e-09
-4.20445e-08
0.000108646
1.03764e-08
1.14175e-08
-4.17599e-09
-4.58819e-09
-2.7169e-05
5.78723e-09
7.50888e-09
0.00113557
-8.99257e-06
1.21496e-08
-1.65189e-07
1.39579e-08
1.29307e-06
4.80301e-07
1.30864e-10
1.00604e-05
7.36811e-09
1.9207e-08
-5.01177e-07
0.000227982
1.91274e-08
-3.85073e-08
4.33315e-06
3.59605e-10
9.55382e-08
-2.41048e-08
2.94002e-12
6.77229e-10
1.19989e-08
0.00148285
5.44931e-09
1.80293e-09
-4.02003e-09
1.9252e-08
0.000561827
-6.17798e-07
1.5498e-06
-6.52876e-09
-3.86251e-09
8.76747e-05
-7.73147e-07
1.44841e-12
-2.40208e-08
-7.86462e-08
5.91971e-10
-3.21273e-08
-1.83961e-05
-2.48942e-08
4.53154e-09
-1.38054e-07
1.28908e-06
6.5284e-09
1.08351e-06
3.02014e-05
-1.67405e-07
6.6463e-10
3.93019e-05
-1.39543e-08
4.76068e-08
1.43825e-10
-0.00063885
4.04067e-07
1.51903e-11
-3.14283e-05
-6.18325e-10
-5.00628e-09
8.90983e-09
1.74167e-09
-2.67837e-05
8.20487e-05
1.52688e-09
-3.3316e-09
1.25062e-08
6.83098e-09
1.34875e-07
-7.93452e-07
3.34864e-05
0.00011668
-0.000154831
-1.31966e-05
3.59725e-05
-0.000147014
-3.36695e-09
1.72558e-09
9.07824e-10
7.37345e-05
-7.8326e-09
1.955e-09
1.81282e-09
-0.000869092
-3.88821e-05
-1.07082e-09
-1.22223e-08
2.38357e-11
-0.000155628
-7.82212e-09
-1.71063e-08
-9.46403e-09
-3.86143e-07
-2.28276e-08
-1.45468e-08
6.06876e-08
-1.15163e-09
7.60186e-05
-1.32675e-08
-6.81761e-07
-1.19744e-08
1.33663e-08
-5.04152e-09
-7.03494e-05
-1.49764e-07
2.58908e-07
1.05422e-10
0.000129099
-0.000138317
3.79035e-10
-1.83882e-05
-7.23321e-07
-5.3233e-07
1.71582e-09
-4.33184e-09
-1.92899e-09
0.000215852
0.000358929
-9.52827e-08
-2.63759e-05
-1.24941e-09
-9.87242e-10
-3.49255e-08
-2.07851e-08
5.36987e-09
-1.063e-05
6.63072e-09
-8.03877e-07
-3.28883e-07
-4.7712e-05
-0.000142011
1.07993e-06
-4.95942e-07
-4.29437e-10
1.23294e-09
-4.57117e-09
-1.09186e-08
6.97504e-09
-0.000113223
-3.83526e-09
2.65496e-05
4.60547e-07
-6.78712e-06
-2.25428e-08
-0.000896398
-1.10555e-08
7.90776e-06
9.78451e-09
1.50216e-09
-1.95485e-09
1.24565e-09
-2.44091e-08
-5.97388e-06
-9.17652e-05
3.28761e-05
1.09304e-06
-1.58264e-05
-5.82328e-05
-8.96074e-09
5.09565e-09
7.6441e-05
-3.53631e-09
0.00016876
2.59705e-07
-1.04943e-09
-1.31249e-08
-1.61458e-07
-0.000140096
1.06412e-08
-8.91898e-11
-0.000124311
7.72594e-05
-2.18909e-05
-1.1106e-08
1.26915e-05
1.7237e-08
6.35482e-06
-8.11548e-09
-1.96777e-08
-5.84095e-09
-0.000133889
9.48778e-09
-1.15423e-08
-1.14773e-08
9.03011e-09
2.89549e-07
-0.000110241
-9.23063e-06
0.000134451
1.84467e-09
9.07317e-05
-2.02728e-08
1.43491e-07
-0.00024262
-1.65768e-08
4.44041e-05
2.37008e-10
1.18182e-08
0.000613306
-0.000171882
1.05079e-07
-0.00076902
-0.000384082
-6.77425e-09
-3.89127e-05
-7.76059e-07
-1.7578e-09
0.000585742
-6.31615e-09
-3.25997e-08
1.05992e-08
8.93279e-09
-8.12242e-09
1.2283e-08
1.7725e-09
-2.97031e-08
6.9159e-09
5.42246e-09
-1.14323e-08
-3.07442e-07
6.22165e-09
-1.02969e-08
-7.20209e-09
-1.22332e-08
-2.54674e-09
-2.96239e-06
-3.16937e-06
-6.0026e-09
7.31361e-09
8.85079e-09
-2.88108e-05
-1.16597e-11
1.30206e-08
6.66166e-09
-5.42154e-07
-1.55787e-10
1.63596e-08
6.91674e-09
-3.69018e-08
1.04761e-08
-2.43385e-09
-3.55195e-09
-5.94305e-05
-0.000179453
4.58823e-05
4.54074e-09
-2.56307e-10
5.71191e-10
9.4475e-09
-7.42396e-10
2.11407e-09
-1.28351e-08
-4.63296e-05
-1.83852e-09
0.00159821
2.64073e-09
6.93457e-09
-1.331e-07
0.000254376
-5.01923e-08
-6.3259e-05
0.000421856
-2.60804e-08
-5.24659e-09
5.65468e-10
-1.90434e-06
2.97025e-07
-7.25293e-09
-4.79828e-09
-0.000358905
8.09477e-05
4.22035e-08
1.69235e-08
3.24291e-07
-2.92486e-05
-1.46534e-08
0.000318466
-1.26385e-08
0.000142574
-0.000130053
-3.33565e-07
-1.19674e-08
2.75211e-10
0.000733013
8.04882e-09
-4.37465e-07
-2.38623e-08
-1.9513e-09
1.74116e-08
1.07325e-09
-4.1827e-05
-4.10909e-09
1.45301e-08
-3.98134e-09
7.38673e-09
9.18598e-07
2.31412e-09
3.73864e-09
-4.6909e-05
-2.43704e-07
1.73613e-09
8.49507e-09
-0.000113889
-4.90912e-09
-2.09959e-08
-9.48704e-07
-1.35029e-08
1.57644e-08
3.45537e-09
-1.56138e-06
-7.08621e-06
-9.89348e-05
-4.86133e-05
-2.60971e-07
1.86612e-08
3.24983e-08
1.7712e-08
4.85093e-09
-0.00108135
1.36065e-05
4.89813e-07
9.51404e-10
1.59666e-08
4.50755e-08
1.66218e-08
0.00063908
-1.84048e-05
1.59422e-08
1.16264e-09
2.10644e-08
1.66616e-08
6.95005e-09
4.12454e-05
-1.32676e-08
9.28914e-06
0.000481716
3.38413e-09
3.12199e-09
-1.02151e-08
-2.47339e-09
-9.74245e-09
-0.000197593
-6.94106e-08
-6.09008e-08
-3.52484e-06
-4.86597e-08
1.05646e-08
-4.77689e-09
-3.26788e-09
6.17766e-09
3.43366e-09
9.06914e-10
0.000160601
-3.09357e-08
1.47904e-09
-1.27661e-08
1.44515e-09
-1.25899e-08
-3.72861e-09
-2.08609e-07
1.72543e-08
1.8418e-08
8.83439e-07
-0.000120935
-1.94621e-09
-3.3079e-07
2.26024e-09
6.09963e-09
-2.79024e-10
-3.25983e-09
-0.000129166
1.38454e-08
2.79014e-05
-1.17085e-08
1.26215e-09
-0.000136514
-0.000941806
6.75794e-11
5.3907e-09
-8.63422e-06
6.711e-06
-1.77646e-10
2.61738e-05
-8.41761e-09
1.21561e-09
5.45464e-07
-2.43157e-09
1.88083e-05
9.78572e-09
-2.57524e-09
-1.176e-09
-1.34625e-09
1.56909e-09
1.815e-08
0.000156154
-1.57408e-07
-2.24728e-08
-0.0130531
4.14365e-08
0.00160865
-6.14472e-09
5.56211e-11
-9.66722e-08
-0.000316078
-2.1209e-08
-6.54181e-08
-2.50932e-08
-0.000142329
1.09961e-05
1.6128e-08
-1.08379e-08
4.62225e-10
-2.75019e-05
4.70375e-11
6.10394e-08
8.38911e-09
5.26104e-09
1.26623e-08
0.00103366
1.56778e-08
5.89169e-08
9.77228e-09
-1.25408e-08
-4.78619e-09
6.26508e-07
-1.08304e-07
-8.48563e-09
-2.49242e-09
-2.85353e-07
-9.28871e-05
5.17552e-06
2.0433e-09
1.95878e-09
3.20602e-08
-0.000356346
0.000745265
-9.90599e-09
1.94334e-09
-8.41911e-11
-2.98013e-10
8.19786e-07
-7.53319e-08
-1.03336e-08
-3.07718e-07
5.73556e-09
1.35864e-09
-3.84048e-10
-4.21091e-07
1.37261e-09
1.40876e-09
-1.06981e-08
-3.44345e-07
-0.00111076
-1.50873e-08
4.12451e-09
-3.83929e-09
-4.68391e-09
-1.88276e-08
7.47916e-09
-1.80687e-07
2.81461e-06
-5.09425e-09
-0.000120359
7.19634e-09
-0.000109469
4.52038e-07
-2.9703e-08
-2.40965e-08
7.38213e-10
-4.14135e-09
-5.42179e-05
3.25877e-10
-1.57937e-06
1.63904e-08
1.42085e-09
4.34687e-07
1.37342e-10
-5.72446e-10
-0.000171194
-1.57628e-07
-3.02312e-10
-2.2782e-08
1.77354e-05
6.10395e-08
9.14854e-06
7.11101e-09
-3.22496e-08
-6.365e-07
-0.000136729
-1.92707e-09
-2.64231e-09
7.38033e-09
-0.00011149
-0.00040253
9.40103e-08
-0.000113125
9.37585e-13
-6.39871e-09
1.50334e-08
-0.000325037
-0.000740746
1.23046e-09
9.80882e-09
1.6646e-09
-2.25744e-08
6.6337e-09
1.20717e-09
6.90834e-10
8.30325e-09
4.78819e-05
1.92383e-09
-3.77386e-09
3.83497e-07
1.60761e-09
2.43499e-12
-1.75737e-09
-0.000916069
-1.42333e-08
8.48367e-09
1.2655e-08
-1.19029e-07
-5.04846e-07
3.55338e-09
6.95369e-06
-7.31516e-08
-3.53653e-08
-0.00066544
6.81317e-09
6.80608e-09
3.77695e-07
3.03272e-07
1.38284e-08
-0.000769409
-3.81208e-07
4.47244e-07
1.39407e-08
-3.22067e-09
1.03391e-08
5.22227e-08
2.87976e-07
8.40899e-09
0.000147388
-3.3061e-08
-2.47758e-08
-2.71951e-08
3.92289e-10
3.83373e-13
-3.69291e-09
1.16082e-09
-1.06102e-09
5.53841e-09
-1.54893e-05
1.04348e-08
-2.27734e-09
7.25392e-09
5.95371e-09
-1.47656e-08
-8.23351e-05
-2.98155e-09
-7.33082e-07
-2.76149e-08
-8.8598e-09
-1.09543e-07
-1.61348e-07
-9.41766e-09
-8.90871e-05
6.52206e-05
-1.81123e-09
1.76453e-09
-1.99336e-08
-1.70965e-07
-1.04262e-08
-5.04473e-07
-3.49905e-09
-1.12207e-08
-0.000133896
-7.56959e-09
-2.59366e-05
-7.99856e-07
1.95325e-07
6.43711e-09
7.57512e-09
-3.35662e-10
-3.81288e-09
-1.85848e-09
-6.52278e-10
-1.84041e-09
-2.01571e-10
-5.18351e-06
2.41712e-09
1.07677e-05
2.00535e-09
-1.00859e-08
-2.37022e-05
2.33918e-12
1.16646e-09
2.9743e-07
-0.000152993
-9.55344e-07
-1.99331e-11
0.00052207
-3.37184e-11
3.90228e-09
-1.51287e-10
0.00178708
2.98706e-05
1.67297e-07
-2.67283e-05
0.000999844
-1.86281e-08
-1.7078e-06
3.44302e-10
5.19572e-09
0.00091451
-6.18077e-05
-7.1736e-07
-3.75527e-08
-9.33898e-09
5.87658e-05
3.41864e-07
-8.48638e-07
-3.09274e-09
5.37726e-07
-1.42322e-08
1.81621e-08
-2.13429e-08
1.28847e-09
7.44325e-05
1.41988e-08
-7.7925e-08
-9.63148e-05
-1.8295e-05
-4.4215e-09
4.76322e-09
0.000688392
-7.18782e-11
-3.86855e-07
-2.28262e-08
3.64231e-08
-7.87038e-09
-1.50259e-07
0.000104682
-1.40433e-09
-1.24362e-08
-1.40664e-09
-3.04784e-07
-0.000141831
-1.52336e-10
-1.34118e-05
-1.11815e-08
2.23071e-06
1.78284e-05
2.82454e-07
3.85923e-10
-6.46071e-10
-7.58648e-08
-9.11417e-07
-1.97169e-09
8.83054e-05
-4.90079e-09
-3.04864e-05
-2.053e-09
-1.91914e-09
-1.05829e-08
-7.56024e-08
3.71255e-08
1.406e-08
6.05335e-09
2.82234e-09
-3.87731e-05
-3.37557e-08
-3.53715e-09
-1.51769e-08
0.00121139
9.9316e-05
-9.7497e-10
-6.55872e-05
0.000127307
-5.05565e-09
1.46272e-07
7.35349e-09
4.87098e-08
-1.75894e-09
-4.4154e-08
1.23331e-08
-6.84939e-05
-6.87965e-10
-2.28838e-09
2.21928e-08
-9.34273e-07
-2.3139e-08
3.69833e-05
-1.89797e-09
8.87425e-10
-1.02596e-05
-3.52914e-09
-2.16424e-06
-1.25741e-09
-7.51536e-10
-0.000132078
1.28549e-05
2.68924e-07
4.22643e-10
-2.29784e-09
-4.52488e-07
-7.59196e-10
1.86342e-09
0.000931737
0.000133395
-9.44319e-08
-4.93053e-07
3.75993e-09
2.52827e-09
-8.86134e-07
-1.33074e-05
-0.000157546
-1.53838e-07
-2.54363e-08
5.05026e-11
-0.00406217
-8.78682e-07
-1.37949e-07
-4.51286e-05
1.30359e-08
-5.87326e-07
3.07407e-07
5.87857e-10
-3.56912e-09
3.06326e-07
-2.99488e-11
-4.26432e-05
-5.68574e-07
2.19672e-05
-2.05699e-09
-1.74249e-09
5.87281e-07
-1.21926e-09
0.000503503
-3.72042e-05
-0.00100313
-4.77324e-07
-2.09088e-10
-4.18558e-10
-9.80883e-05
7.97995e-09
-1.35433e-09
-1.77604e-08
1.24574e-08
-0.000101988
1.75143e-05
-3.93305e-10
-1.71174e-09
-1.18047e-08
-1.42912e-09
8.69621e-05
-1.05217e-06
4.69159e-07
8.05436e-05
3.13156e-09
2.44442e-09
9.57716e-05
1.62624e-09
6.77912e-08
-6.42399e-09
-6.70858e-06
0.000144439
-1.1917e-08
-8.50422e-05
-0.000125281
-1.6809e-09
-3.11896e-08
1.90733e-07
3.65324e-09
-1.5342e-10
-1.6869e-08
-2.39648e-09
2.48387e-08
-0.00111974
5.93539e-05
1.2028e-09
-1.48995e-08
6.41937e-06
-1.0115e-05
4.57291e-05
3.79108e-07
8.64944e-09
-1.01223e-05
-4.72446e-09
9.76759e-08
-4.58793e-06
3.29813e-07
-1.26341e-09
-9.02542e-09
-4.04601e-09
3.59188e-09
-7.84809e-09
1.13373e-08
1.09316e-08
1.00479e-08
-9.92313e-09
-0.000137289
-9.28848e-10
-2.60283e-09
0.00153167
4.44338e-07
-1.49285e-07
-2.29049e-05
7.68849e-05
7.20541e-05
3.28045e-10
-4.33978e-09
-0.000143029
-9.30082e-09
-3.79263e-07
1.54953e-08
-1.20549e-09
-6.11585e-11
1.98284e-09
8.96187e-10
-1.1104e-08
-0.00065686
-2.31082e-10
8.34449e-09
1.05013e-08
-1.53091e-08
1.61321e-05
-8.18768e-08
2.27528e-08
-1.05755e-05
-3.56755e-08
1.66992e-09
-8.34464e-06
0.000150501
2.93261e-08
0.000141517
4.9447e-09
-1.47601e-08
4.59488e-05
-7.15005e-07
0.000418721
1.39284e-08
-9.82625e-10
-4.16906e-05
-4.13106e-07
-3.72679e-10
9.22467e-10
-7.36842e-08
0.000117128
1.01728e-09
2.30463e-09
-3.53868e-10
2.235e-09
-4.05906e-09
0.000183765
-5.45937e-07
1.39931e-09
-5.26624e-09
-3.3552e-08
-7.89371e-10
5.36975e-09
-4.16995e-10
-3.30132e-09
-1.02941e-08
-5.91825e-08
-1.07074e-08
-6.30188e-09
-2.23362e-08
-2.93825e-10
-7.75251e-05
5.85844e-09
3.01028e-06
-9.50216e-08
-3.98249e-05
-3.19747e-07
-2.60783e-09
-2.4266e-10
-7.91847e-09
-7.19188e-08
-1.10618e-09
2.39041e-09
-8.79403e-05
5.07247e-06
1.04047e-05
1.36888e-09
-6.12581e-07
-6.62223e-08
-6.17155e-09
0.000961765
-9.62188e-10
-1.36858e-07
2.83114e-09
5.02581e-07
-0.000126328
-1.47588e-09
1.76219e-08
4.27245e-05
-0.00012534
-1.08183e-08
-3.40916e-07
5.35495e-05
0.000121953
-0.000119259
-0.000371624
6.37935e-10
3.04085e-05
0.000111196
0.000192178
-2.75981e-11
-5.84966e-07
-7.96654e-09
-1.44452e-09
-2.2897e-05
-1.45988e-10
-3.69158e-07
3.68111e-05
1.22516e-09
3.21348e-05
-2.88052e-08
-0.00142109
-3.11425e-08
-1.99197e-08
1.41346e-08
3.99955e-10
-4.02861e-09
-1.38602e-08
4.44625e-10
0.000244493
1.18808e-09
-0.00025476
0.000106892
-1.27995e-08
-0.00144441
-7.33222e-09
-2.95887e-09
-2.02631e-05
1.3673e-09
-0.000298113
-5.11096e-06
-2.93509e-05
-2.14914e-05
0.000307706
-1.24654e-08
6.74684e-07
-2.14704e-08
-4.08679e-05
-1.17828e-09
9.82432e-11
-7.01964e-08
-1.66941e-10
2.12791e-09
4.44883e-06
-5.40198e-09
1.46862e-06
-9.34701e-09
1.98683e-08
-0.000143679
-3.76995e-09
3.9305e-09
-1.50818e-08
1.06548e-05
1.14981e-08
-4.99552e-07
-1.13357e-11
1.81163e-05
2.22451e-09
-9.31466e-05
-1.46778e-08
-2.07577e-05
-3.57682e-07
1.65366e-07
-3.69926e-06
1.60305e-08
-6.21126e-07
-1.03583e-09
1.36145e-05
-1.93621e-08
-2.14152e-09
-5.50513e-07
1.78047e-09
1.29664e-11
-2.27746e-05
-1.46691e-09
-0.000149577
-3.3354e-09
-3.26656e-10
9.07666e-10
-7.34538e-09
3.48176e-06
-7.62388e-09
2.54889e-06
-9.13212e-10
-2.99309e-09
1.99113e-09
-1.77422e-08
-2.56131e-07
-4.60958e-09
-1.76466e-07
-7.39897e-09
-1.78822e-10
2.7566e-11
1.29336e-09
1.08943e-08
0.0001441
7.30464e-10
-1.68349e-09
-0.00137935
-2.76484e-10
7.13689e-09
5.36884e-09
-9.42762e-11
0.000119082
3.87023e-09
1.52655e-08
1.66825e-09
-9.00072e-11
5.76978e-11
0.00124996
-1.38737e-08
7.15483e-05
-5.59226e-05
-6.3373e-09
-2.31847e-05
-2.32342e-08
-2.64862e-10
0.000268097
-4.20378e-05
3.64544e-09
5.42832e-10
-8.21937e-09
3.45022e-09
-1.50259e-09
1.09637e-09
-7.28637e-09
4.01655e-12
-5.81966e-09
1.37299e-05
3.0923e-10
2.5987e-07
-9.5408e-09
1.79068e-06
-9.1727e-07
1.39288e-08
9.82828e-05
8.36656e-10
-3.22113e-05
3.27572e-07
2.9554e-07
-1.15665e-08
-1.78833e-07
1.92559e-08
0.000470956
-2.77328e-07
2.62964e-09
3.58213e-09
-1.59176e-09
1.44339e-06
-1.68282e-07
-1.10402e-07
-1.28552e-07
-2.34429e-10
1.22003e-08
-1.05218e-05
-1.21329e-08
-7.67872e-05
-4.7406e-09
-1.34782e-06
-1.1502e-08
-7.65226e-09
-1.62049e-08
-1.81037e-08
5.95272e-10
4.9867e-09
1.92856e-10
2.39803e-09
3.50514e-09
-9.01086e-07
6.07224e-10
-5.57389e-08
6.48987e-10
-1.93194e-08
4.47512e-05
-2.7416e-08
1.20071e-08
-6.80404e-05
8.54208e-09
-3.69613e-07
3.61068e-09
9.44303e-09
0.000971431
2.01295e-06
3.67295e-09
-6.70453e-05
-1.38026e-09
0.00019854
3.21275e-10
-4.26762e-09
-0.000832148
-3.08895e-07
-7.94533e-09
-1.57908e-08
-1.72256e-08
-8.74569e-07
1.79395e-09
5.50316e-05
-5.81603e-09
2.9791e-07
-9.31304e-05
-1.38233e-07
-2.19677e-09
-3.96098e-09
0.000356984
2.62139e-09
1.03674e-08
-0.000148211
-6.36057e-09
-3.23736e-07
-0.000108858
-1.63485e-07
-3.04075e-09
3.76499e-09
0.000534037
9.26951e-07
0.00080316
-6.51374e-08
0.00027729
-1.72487e-08
-3.4157e-07
-1.51453e-07
-2.41212e-05
-4.51962e-09
7.3147e-05
2.21241e-08
-1.73358e-06
4.41815e-09
-1.2792e-09
-6.52097e-09
-5.07125e-09
2.30357e-07
2.2225e-05
-1.14046e-08
6.5259e-05
4.47328e-05
-2.64684e-08
1.56208e-08
-0.000317872
-5.64448e-09
2.2484e-08
1.06679e-08
-2.09142e-09
-6.83518e-05
-1.22228e-09
2.57022e-08
3.65769e-09
-2.25381e-10
-1.55023e-09
-4.73411e-05
-0.000173996
-1.38039e-08
-1.31618e-08
7.73528e-05
2.42273e-09
0.000288547
2.23611e-06
1.94486e-06
-1.09814e-08
-4.65125e-05
-5.20513e-07
-2.1224e-09
-5.79498e-09
1.11684e-08
-5.04483e-09
-1.15922e-09
1.78063e-08
4.15012e-09
1.85539e-08
-1.21633e-08
-7.47159e-09
2.00972e-08
-1.55377e-08
-0.000187612
-1.00924e-08
-1.87643e-07
-0.000128535
-1.28682e-07
-2.52183e-08
-1.36424e-09
2.41729e-06
0.000158574
-4.01145e-09
-5.0742e-09
-9.07535e-09
-4.49223e-09
-2.93575e-07
3.65231e-10
-4.80886e-06
6.62763e-08
6.84849e-09
-1.65135e-07
8.05987e-07
-6.88198e-08
-1.14278e-08
-0.000134357
2.31053e-08
-3.18147e-05
0.000716113
9.70605e-09
4.59592e-07
8.39604e-11
-3.904e-07
-6.03635e-09
-1.29453e-05
-3.2171e-09
-2.1947e-08
0.000134531
1.88527e-08
1.21787e-09
0.000172713
1.23861e-08
0.000242522
1.70227e-08
-1.01138e-08
0.000719854
2.41754e-09
-1.34755e-09
8.50592e-05
-1.16265e-06
-2.77551e-09
0.000398764
0.000142645
-1.09365e-09
2.2601e-05
-7.92211e-09
5.77166e-10
3.24496e-09
-7.19848e-05
0.000332054
0.000908768
1.82242e-09
5.42593e-10
-1.56508e-05
2.89857e-10
-1.19165e-08
-3.66919e-06
9.32583e-05
-5.82103e-10
-2.84253e-10
0.000138571
0.000206644
9.06386e-10
-7.1569e-07
3.88269e-05
0.000916554
0.000813946
1.55369e-09
2.03772e-09
-2.10594e-10
9.52696e-07
6.81435e-10
2.31257e-07
-4.36117e-08
2.18033e-09
-3.6905e-08
-1.74301e-10
3.10233e-08
4.30048e-09
-0.000508267
-1.91498e-08
-2.29108e-08
-2.01686e-05
-1.54381e-08
3.85295e-08
-7.32503e-08
-3.32818e-09
2.5751e-08
1.03427e-08
7.2703e-07
-2.86282e-09
-0.000181435
1.70369e-08
-0.00010739
6.59461e-09
1.17947e-08
2.86665e-06
-1.48456e-08
2.06275e-09
-1.52321e-08
-1.68339e-07
6.88076e-09
-1.52417e-08
-3.88094e-06
-3.7075e-10
-1.29453e-08
1.41557e-12
-1.13078e-09
-7.22769e-05
1.94594e-11
4.6842e-07
-2.44935e-08
0.000311168
-6.69539e-07
9.43342e-08
-5.05553e-09
-8.82577e-08
1.41096e-08
5.98487e-10
-4.57973e-07
-9.80888e-10
2.66735e-09
-0.000717392
-9.43729e-05
-1.02435e-06
-1.75465e-07
-2.51119e-08
-1.40476e-08
5.19393e-07
1.51294e-06
-9.42364e-09
1.92923e-05
-8.26641e-09
-2.0009e-08
6.01423e-10
-3.39314e-09
-4.60005e-10
-6.32086e-08
2.20622e-08
0.00012118
0.000741199
1.5406e-08
2.20577e-09
-4.52784e-05
4.8279e-12
-2.07532e-08
2.07137e-10
-2.01992e-08
0.00033532
-0.00140972
3.1081e-07
2.93926e-06
5.08082e-05
-0.000124769
1.72066e-09
4.73843e-06
-2.93565e-09
0.000148818
-2.59504e-05
1.90405e-09
7.86468e-09
0.00111694
-3.94779e-12
-2.12663e-10
2.45692e-09
1.98217e-08
1.36049e-05
3.30566e-12
5.24995e-09
4.43813e-07
3.23419e-09
-2.21422e-05
-5.16707e-08
-1.58158e-09
9.83758e-05
4.896e-06
0.000209632
-8.55157e-07
3.93559e-09
-0.000127809
5.0539e-09
3.53619e-08
-2.52837e-10
3.12404e-10
3.59344e-07
-1.05407e-08
0.000479214
1.71962e-07
-5.7926e-07
1.21689e-10
-2.64413e-08
0.000151377
-1.77222e-09
-7.30326e-08
8.25648e-09
-6.58322e-05
-1.58703e-09
2.87768e-08
-8.35205e-09
-0.000146418
-1.75944e-10
-1.43163e-08
-5.68367e-08
-1.45136e-09
2.13454e-09
-8.50836e-08
1.99699e-07
-8.27549e-07
-3.22588e-10
9.43486e-10
5.68679e-09
1.51635e-08
-1.90172e-07
3.82149e-09
-1.59257e-08
-6.35953e-07
-1.03707e-08
0.000218127
-4.83797e-05
0.000729737
4.30328e-05
9.68789e-07
1.78678e-10
7.44764e-08
-3.24688e-09
-2.42529e-08
1.02285e-08
-0.000125504
3.32917e-09
8.58151e-09
-8.79696e-10
-3.39591e-10
3.67423e-09
-5.30252e-09
-7.56462e-09
-3.1313e-09
-4.16261e-07
9.5719e-05
-0.000187134
0.000883755
1.07321e-09
-0.000101146
-4.6713e-10
-0.000123605
-6.05482e-10
-2.544e-08
9.96846e-09
-1.40202e-09
-3.30537e-09
2.00052e-11
-0.000152294
1.35988e-09
-2.77746e-08
-2.54741e-08
3.54862e-08
-9.01828e-09
-1.59159e-08
-6.90703e-07
0.000807143
5.37997e-10
1.22656e-08
7.35664e-10
-8.91096e-05
-4.11615e-06
-5.33219e-10
-1.89625e-09
4.25318e-07
-8.02335e-09
-2.67565e-09
6.22052e-07
7.49275e-05
-1.60663e-09
-7.9573e-09
-2.44234e-08
3.12889e-09
0.000176214
-3.58223e-05
-1.28151e-05
1.92931e-08
2.36987e-09
-8.33201e-07
-0.000128901
1.67255e-10
1.07306e-09
-3.01392e-09
-1.49558e-10
-4.62961e-08
4.49844e-12
3.17825e-05
3.98376e-10
-5.29067e-09
1.00095e-08
8.19874e-09
3.55423e-09
2.6396e-08
0.0001396
0.000249857
-2.4281e-08
5.04792e-09
4.23054e-05
-1.13459e-05
4.66484e-07
-4.79302e-09
-0.00013236
1.4193e-08
1.18396e-09
-1.20201e-07
-1.11429e-08
-1.01954e-08
-0.00446517
2.15529e-09
0.000179706
-6.11137e-05
4.17007e-05
2.2709e-08
1.56669e-08
5.18732e-09
1.56718e-09
-1.68382e-10
-4.39442e-08
-2.16897e-06
3.72375e-09
-1.39764e-11
2.82431e-08
4.64691e-09
0.000105587
0.00258902
-0.000133759
-5.17248e-09
1.87592e-09
6.26081e-09
1.63096e-08
4.85669e-09
4.17099e-08
1.07266e-09
-1.75127e-09
-0.000142154
-2.24173e-05
-1.64471e-10
7.25006e-06
2.24103e-06
1.29733e-09
4.5615e-06
-2.48553e-08
-8.15289e-09
0.00114945
1.1603e-07
-2.27068e-08
-4.78664e-08
0.00039514
-5.25343e-09
-5.47386e-09
-9.71695e-12
1.66456e-05
1.8011e-05
-1.62961e-08
-7.66024e-09
-0.000156114
-1.85944e-07
1.36263e-08
-5.50491e-08
-0.000133758
-2.85646e-05
-7.97508e-09
9.7883e-09
-1.49098e-07
-0.00194059
0.000581353
5.52342e-05
-3.75667e-11
-2.74915e-11
-0.000265996
-1.20784e-09
3.61252e-09
1.11327e-08
-1.23893e-09
2.68544e-07
-1.99537e-11
-3.52477e-10
-9.9624e-09
8.59166e-10
-0.00097508
-5.74835e-05
9.6213e-09
-1.86942e-10
4.86571e-05
-1.15424e-08
1.36764e-08
2.14312e-09
1.54637e-08
-1.91674e-06
0.000768334
-6.84004e-06
-1.07069e-08
-2.41203e-10
-3.35128e-10
0.000270252
-2.02903e-07
6.46683e-05
-1.39991e-06
1.47174e-08
-7.65528e-09
-0.00123678
-1.37659e-05
2.55748e-07
3.97144e-07
1.19787e-08
2.83966e-09
2.75249e-06
-4.5677e-06
-5.61955e-09
-9.92913e-09
4.56285e-05
0.000388559
1.94835e-10
-0.000297015
-1.09234e-08
-8.45029e-10
1.95603e-09
-0.000212106
-6.16976e-09
5.53564e-08
0.000506569
1.31392e-09
-3.35003e-07
-3.47701e-06
-7.65922e-06
4.17149e-07
6.83062e-10
-8.46178e-05
1.31743e-07
-4.1197e-09
-9.00119e-05
5.37386e-12
2.28109e-09
1.95581e-07
2.16682e-09
9.17299e-10
1.37162e-08
2.24621e-07
-2.12535e-09
-1.20384e-08
2.73728e-07
-2.81862e-07
2.41261e-10
2.36873e-09
-7.67106e-10
-2.28767e-05
-0.000134031
-1.3854e-08
-1.03808e-08
-8.49725e-05
-4.40958e-08
7.59541e-10
-0.00010449
1.46629e-08
7.16141e-09
1.08641e-08
7.3546e-09
-8.50918e-11
-1.75723e-07
-1.38658e-09
-3.65617e-10
-1.7258e-07
-1.34925e-06
-1.39491e-06
-3.15578e-09
-0.000285524
6.40437e-09
-3.50245e-09
6.07494e-05
-5.87717e-10
-1.03684e-06
-5.73651e-08
-1.67841e-09
-8.95635e-05
-2.27943e-07
-1.81254e-09
4.30636e-07
-1.46119e-08
-5.18015e-09
0.000140417
-7.53187e-09
-1.26091e-07
-1.39799e-06
-9.00812e-05
-5.30077e-09
-8.49735e-09
2.67986e-10
-2.5767e-10
-0.000742701
-1.06486e-08
5.19369e-05
-7.7317e-05
-7.22655e-09
-2.545e-08
0.00018811
2.22853e-09
0.000145744
-1.49801e-05
-1.35736e-05
-3.3561e-07
-9.98001e-10
1.56501e-06
4.33663e-08
-1.80962e-08
6.5801e-07
-7.36757e-09
2.0919e-05
-1.07694e-08
-1.75436e-06
3.3886e-09
0.00011776
4.15382e-11
-5.3735e-05
1.63573e-11
-6.91171e-09
-8.67502e-09
-0.000137775
-9.75068e-09
6.40639e-10
3.22149e-07
4.72326e-09
1.31026e-08
-1.17328e-08
7.9097e-09
2.03091e-05
-2.48164e-08
-6.04393e-07
-5.52086e-09
7.32757e-09
-7.94638e-07
4.31315e-09
-0.000104177
-2.31181e-09
1.04071e-06
2.60324e-05
6.83596e-10
0.000142178
2.69075e-09
1.31781e-08
-6.05747e-09
-1.13013e-09
-0.000134529
1.00256e-08
-4.24234e-09
0.000141421
-4.383e-05
-8.30177e-05
-9.77226e-05
-0.00013297
-1.00639e-06
1.03636e-08
-1.27192e-09
1.47257e-06
4.04449e-06
-4.0027e-08
-0.00120709
8.97704e-08
0.0708227
-4.53904e-09
-2.48129e-08
-1.12994e-07
0.000136699
1.09207e-08
-1.08343e-08
-2.41742e-05
8.27627e-09
0.0001015
-0.000136052
2.46257e-10
-0.000398258
9.56034e-05
-3.65996e-05
-0.000369105
-2.52727e-08
-6.53728e-05
3.61029e-07
-4.92998e-10
-1.676e-08
-1.01395e-09
-0.000782495
1.629e-08
0.000150989
-5.45332e-10
-9.23328e-05
-0.000389033
6.95499e-09
-1.80825e-07
7.99946e-05
-8.60643e-10
4.70381e-11
-1.54599e-09
1.75362e-08
1.80168e-08
-3.89034e-10
2.96385e-09
1.2457e-09
6.16133e-09
-1.92662e-08
-2.46653e-05
-5.17488e-07
1.09431e-08
6.88194e-10
4.47727e-08
0.000381917
0.00573083
-4.59023e-08
0.000228459
-1.42696e-07
1.75722e-06
1.04715e-09
-3.19801e-09
-9.74842e-10
-1.17485e-08
-1.60197e-09
-5.26541e-09
-1.40117e-10
2.9591e-10
1.15472e-07
1.2319e-07
5.97584e-12
-0.000138078
-5.80831e-08
-1.62584e-09
-0.000117738
8.91719e-09
0.000120698
-2.21374e-08
-1.74199e-08
-4.72885e-10
4.85086e-07
1.30784e-08
1.38161e-05
1.9828e-10
0.000804465
-3.49069e-07
-7.68282e-10
-6.4723e-09
2.88958e-09
-5.38144e-09
0.000139494
7.13414e-05