/*--------------------------------*- C++ -*----------------------------------*\
| =========                 |                                                 |
| \\      /  F ield         | OpenFOAM: The Open Source CFD Toolbox           |
|  \\    /   O peration     | Version:  v2012                                 |
|   \\  /    A nd           | Website:  www.openfoam.com                      |
|    \\/     M anipulation  |                                                 |
\*---------------------------------------------------------------------------*/
FoamFile
{
    version     2.0;
    format      ascii;
    class       volScalarField;
    location    "400";
    object      k_0;
}
// * * * * * * * * * * * * * * * * * * * * * * * * * * * * * * * * * * * * * //

dimensions      [0 2 -2 0 0 0 0];


internalField   nonuniform List<scalar> 
37809
(
0.00017753
0.0189491
0.000149666
0.000154827
0.0668894
0.000181481
0.000182631
0.000513279
0.00654883
0.00798534
0.000178555
0.000148079
0.00015326
0.000153306
0.0167575
0.000154035
0.000148387
0.0360187
0.000148776
0.000176559
0.000165781
0.000165661
0.0541824
0.000147566
0.000165546
0.0170668
0.00263704
0.000149231
0.000149604
0.00052979
0.000199412
0.0220397
0.000147596
0.000270075
0.000148934
0.000148437
0.000145865
0.00644878
0.000182045
0.000186375
0.0680092
0.0154841
0.0231084
0.0118215
0.000147748
0.000160085
0.000200476
0.044618
0.00142291
0.000166501
0.000149428
0.000147819
0.000146898
0.000149788
0.0232039
0.000146924
0.000159215
0.000155994
0.000181188
0.000152051
0.0232811
0.000151814
0.000153121
0.00018565
0.000199369
0.000165698
0.0304209
0.000148982
0.000153788
0.00804457
0.00015319
0.00776241
0.000148274
0.000153213
0.000149206
0.000145656
0.000186241
0.000183425
0.000177209
0.00021612
0.000147327
0.000149643
0.0403345
0.000162649
0.000147565
0.0190287
0.000150996
0.000249985
0.000182933
0.000158771
0.00510759
0.0146691
0.000168926
0.0845817
0.000151165
0.0506909
0.000148318
0.00014959
0.0191835
0.000147056
0.00539792
0.000149614
0.000185105
0.0340227
0.00674755
0.000149414
0.000543885
0.00436469
0.00018921
0.000148062
0.000176274
0.000162443
0.000174938
0.000152037
0.000158979
0.000181475
0.000148974
0.000148285
0.000247954
0.0237173
0.000149858
0.00014961
0.000166926
0.0660856
0.0128959
0.000148946
0.000199768
0.000148201
0.000158345
0.000154396
0.000255519
0.000211562
0.0188957
0.000147251
0.000226744
0.000149016
0.000149425
0.000151931
0.0105481
0.00405929
0.000148871
0.0122127
0.00808839
0.0673653
0.000148281
0.0278904
0.000154179
0.000151639
0.0418125
0.000150956
0.0178822
0.000154393
0.000171814
0.000242427
0.000194689
0.000151428
0.00554196
0.000247323
0.000149881
0.00781678
0.000158328
0.000217165
0.000609084
0.026196
0.000150778
0.000144347
0.000147668
0.0426252
0.000182201
0.000192876
0.000152899
0.000146659
0.0308531
0.000152262
0.000154147
0.000154696
0.00673177
0.000158728
0.0611217
0.000171023
0.0241479
0.000149807
0.00014692
0.000149438
0.000144629
0.000217999
0.000149857
0.000160313
0.000267179
0.00708804
0.000166465
0.000148324
0.000148666
0.0128955
0.000202327
0.000288158
0.000148081
0.000143563
0.000146787
0.00015333
0.00580142
0.000179591
0.0205481
0.000171008
0.0221075
0.000144671
0.000152566
0.000167361
0.000147705
0.000192484
0.000167381
0.0193089
0.000146591
0.000148254
0.000147672
0.000269083
0.000165727
0.000147176
0.000146575
0.000209743
0.0820876
0.000395291
0.000149332
0.000149807
0.000147347
0.0434816
0.0559827
0.000198924
0.000156644
0.00253417
0.000149353
0.000179786
0.000211915
0.000151578
0.000133087
0.000305223
0.000146462
0.046268
0.000150715
0.000188953
0.0503544
0.00014669
0.000291802
0.0088447
0.00014776
0.000148044
0.000149713
0.00014404
0.00019306
0.00014468
0.000148563
0.000147645
0.000148171
0.0688527
0.00014834
0.000148305
0.000143519
0.000148224
0.000349022
0.0331488
0.000236641
0.000148692
0.00764831
0.000149672
0.0179898
0.00017012
0.000201651
0.000166066
0.000148134
0.000274329
0.0191424
0.000147682
0.0655215
0.000293496
0.000147679
0.000187952
0.000254464
0.000148534
6.16941e-05
0.000148189
0.000149102
0.0140074
0.00957261
0.000147486
0.000204063
0.000148031
0.000148234
0.000148258
0.000148285
0.0149185
0.000147874
0.000171027
0.00710857
0.000146887
0.000148166
0.000159989
0.000210564
0.00646705
0.000148319
0.000978327
0.00017048
0.0171898
0.000145706
0.000239278
0.00643198
0.000162774
0.000149621
0.000153196
0.0655028
0.000146696
0.000198928
0.0700816
0.0162503
0.000167499
0.000149809
0.0539413
0.000151821
0.00014884
0.0010326
0.00710367
0.000183463
0.000400844
0.000163785
0.000153083
0.00776204
0.00016551
0.00661618
0.000148151
0.000149624
0.000224904
0.000146498
0.000146706
0.000149088
0.0041674
0.000145049
0.000147216
0.000174858
0.0001488
0.000147959
0.000180636
0.000147554
0.000153229
0.000532649
0.00735018
0.000157504
0.000225372
0.000934433
0.000148561
0.019386
0.000154276
0.000384323
0.000183044
0.000148056
0.000148941
0.0115987
0.00860166
0.000144721
0.000209851
0.000148063
0.0548557
0.00988439
0.000155332
0.0223758
0.0209718
0.0758302
0.0417377
0.00016225
0.000154213
0.000154938
0.000147463
0.000153329
0.000168586
0.000182298
0.00603583
0.00017738
0.000145799
0.000187657
0.000144739
0.0184466
0.000545901
0.000148237
0.000151754
0.0218295
0.000167637
0.000516124
0.000168323
0.00652276
0.000160526
0.00100046
0.000145292
0.000148212
0.0222115
0.000149662
0.000148812
0.000154456
0.000183948
0.0241334
0.000254648
0.000159635
0.000149665
0.0564365
0.000191904
0.000145254
0.000148441
0.000148897
0.000172294
0.000146727
0.0455653
0.0502136
0.0343712
0.000166101
0.000160161
0.000175333
0.000149406
0.000145656
0.000122564
0.000264361
0.00701554
0.00014978
0.000147892
0.0630955
0.000181279
0.000193999
0.000236772
0.000148223
0.057226
0.000149827
0.000158574
0.000156736
0.000683932
0.000147299
0.000170139
0.000154717
0.000151927
0.0590786
0.000149315
0.019175
0.065483
0.000173611
0.000146534
0.000150575
0.000214381
0.000173422
0.000176278
0.000147815
0.000147503
0.0366527
0.000225544
0.000174315
0.000215992
0.000168674
0.000145783
0.000152036
0.000148209
0.00014845
0.000147506
0.000145879
0.000147957
0.0193816
0.000147707
0.000149414
0.000155152
0.000199721
0.0048554
0.0216609
0.0181062
0.000154758
0.000159864
0.0326815
0.000147927
0.000161434
0.000147269
0.000148558
0.000147645
0.000181188
0.000146875
0.000169311
0.0191947
0.000169825
0.000148229
0.000147426
0.000148025
0.000158953
0.000144768
0.0108963
0.00014788
0.000171793
0.000227313
0.0696492
0.000149253
0.0240616
0.000174571
0.000190303
0.000149626
0.000180363
0.0379
0.000144006
0.000169142
0.000173641
0.00016817
0.000178429
0.000236437
0.05732
0.0382653
0.000154291
0.000159164
0.000181719
0.0194788
0.00014881
0.000148851
0.000145583
0.000146853
0.0583873
0.000159069
0.00015356
0.000248082
0.00357634
0.000149811
0.00165955
0.000154349
0.00330629
0.000211635
0.000148534
0.00901275
0.000153883
0.000151798
0.000236171
0.0524925
0.000163071
0.000208177
0.00756134
0.000150737
0.000232768
0.000167512
0.000149808
0.000145128
0.000147546
0.0167071
0.000147923
0.000148225
0.000185924
0.000151782
0.0537804
0.00021763
0.00208781
0.000149171
0.000148337
0.0100575
0.000203029
0.00014985
0.000157472
0.000174951
0.000148528
0.00018894
0.0318426
0.00015948
0.000148149
0.000185844
0.000265484
0.00016048
0.000177763
0.018634
0.000195259
0.000145104
0.0131409
0.000162394
0.000182773
0.000148754
0.0733629
0.000237527
0.000149815
0.0119659
0.000148168
0.000149363
0.000147193
0.000148212
0.0395721
0.0178762
0.000145156
0.000144268
0.000154753
0.000159969
0.000165939
0.0002164
0.0138382
0.0251329
0.0487405
0.00885142
0.0142208
0.047019
0.000148328
0.000147725
0.000153649
0.0145436
0.00014988
0.000148194
0.000145211
0.0486617
0.0162337
0.000147297
0.000148541
0.000149825
0.020981
0.000165854
0.000329856
0.000149867
0.000192866
0.000153858
0.000176421
0.000183106
0.000146819
0.0171168
0.000149244
0.000206399
0.000148523
0.000149924
0.000148883
0.0730699
0.000541685
0.000520727
0.000148562
0.0576773
0.040388
0.000150779
0.0129208
0.000203649
0.000198524
0.000147763
0.000148124
0.000148042
0.000694828
0.0857542
0.000176227
0.0399752
0.00014922
0.000148134
0.000169954
0.000163572
0.000147242
0.0361559
0.000155115
0.000203863
0.000178504
0.00734851
0.0196396
0.000632089
0.000248146
0.000148161
0.000145142
0.000156278
0.000148657
0.000158799
0.065091
0.000148125
0.0062496
0.000214986
0.0391793
0.000154859
0.051705
0.000166736
0.000595701
0.000154193
0.000148251
0.000158015
0.000148373
0.000154948
0.000194934
0.000306017
0.0297253
0.000239083
0.0138201
0.0728547
0.000165748
0.000147831
0.0146026
0.00014436
0.0028565
0.0270875
0.000150157
0.000156843
0.000233978
0.04221
0.000150481
0.00014972
0.0390308
0.00741872
0.038838
0.000148249
0.0396995
0.000148408
0.000174895
0.000166239
0.000151205
0.000169738
0.0253323
0.000148856
0.000148584
0.000148229
0.000147318
0.000221323
0.0576102
0.0671332
0.0290479
0.000147947
0.0206305
0.000162831
0.0001946
0.000711134
0.000155236
0.0168915
0.000150692
0.000151229
0.0529495
0.000227808
0.000199834
0.0384288
0.0126769
0.000168637
0.0136098
0.000210741
0.000149223
0.0533486
0.000157319
0.000169161
0.000156299
0.000156231
0.000166359
0.000152159
0.000158831
0.000208294
0.000157908
0.00015825
0.00015819
0.000189482
0.000155367
0.000148031
0.000149096
0.000148224
0.000149341
0.000249101
0.000308233
0.00014989
0.000147753
0.000165432
0.0289235
0.000149377
0.000154602
0.000165863
0.000227041
0.00014966
0.000149185
0.00015546
0.000186484
0.000152545
0.00014779
0.000146785
0.0183325
0.0598681
0.000119998
0.000159479
0.000149619
0.000147965
0.00015779
0.000148201
0.000147643
0.000156746
0.0720481
0.000181058
0.0320169
0.000147837
0.000155054
0.000168905
0.0530822
0.000169519
0.00868536
0.00137887
0.000645342
0.000145768
0.00014801
0.0429148
0.000182274
0.000166578
0.000178146
0.0685134
0.0169997
0.000183427
0.000149744
0.000214564
0.0310751
0.000156808
0.0879749
0.000173811
0.000518857
0.0175258
0.000200563
0.000175073
0.000150757
0.0204928
0.000147731
0.000515647
0.000157559
0.000146551
0.000148638
0.000145097
0.0157959
0.000146725
0.000188054
0.000148104
0.000160017
0.000232793
0.000159429
0.000147827
0.0516456
0.000175437
0.000147847
0.000148816
0.0826822
0.000180164
0.000162594
0.000207446
0.000156596
0.000154017
0.000146053
0.000217594
0.0644181
0.0632292
0.0519537
0.000181223
0.000188144
0.000165937
0.000205889
0.00015158
0.0589094
0.0338915
0.000213673
0.000147621
0.000154081
0.000180328
0.000149274
0.0274564
0.0160929
0.000205036
0.000148223
0.000167704
0.000148327
0.000164314
0.0173609
0.000148192
0.000153315
0.0787243
0.000148066
0.000161582
0.000165422
0.000143914
0.000163061
0.0615887
0.000173943
0.000172052
0.00532013
0.000186035
0.000150582
0.000153021
0.000146773
0.000159115
0.000146056
0.000148221
0.0325843
0.000170792
0.000153264
0.000151179
0.000145042
0.000151321
0.000145399
0.000178087
0.000182319
0.000151663
0.000239535
0.0194049
0.000146432
0.000185891
0.00014762
0.000158245
0.00014962
0.000149359
0.0348913
0.000155376
0.0073268
0.000148582
0.000150361
0.000226452
0.0606887
0.000148558
0.000158717
0.00924534
0.0266041
0.000149664
0.0275202
0.000161303
0.000164426
0.000214841
0.000153177
0.00596966
0.000156085
0.000148017
0.000147833
0.000146742
0.000150392
0.000151635
0.017578
0.000171764
0.000161762
0.00085975
0.000171457
0.0288486
0.000162966
0.000149067
0.000176029
0.0676072
0.000160058
0.000173222
0.000158807
0.0211908
0.000207904
0.000153306
0.000163322
0.000150758
0.0312596
0.000148531
0.000181712
0.000147082
0.000158835
0.00015254
0.0305965
0.000154056
0.000171649
0.000157914
0.000169001
0.00014572
0.000220277
0.000205739
0.000163499
0.000143929
0.00018847
0.0243001
0.000246946
0.000145235
0.000153375
0.000625552
0.00545913
0.00500044
0.000148579
0.000173861
0.000149653
0.000167136
0.000245801
0.000248692
0.000157777
0.000205841
0.000158963
0.000147957
0.000149519
0.00020081
0.000147951
0.000147779
0.000151218
0.000205032
0.000223282
0.000163282
0.000146541
0.000145518
0.000145678
0.000161923
0.000148862
0.00019473
0.0274894
0.000145799
0.0244974
0.000150044
0.0181627
0.00053487
0.000170558
0.00015475
0.000162501
0.000148311
0.0582914
0.000145968
0.00022082
0.00015393
0.000148385
0.000181329
0.000164961
0.000147225
0.0166603
0.000181094
0.000158445
0.000153099
0.0383855
0.000184382
0.0197787
0.000149916
0.000165771
0.000230605
0.0219954
0.00014659
0.000158779
0.000147237
0.0155451
0.0110924
0.000425635
0.0641279
0.000149853
0.000162865
0.000151096
0.0679108
0.000264233
0.000150981
0.000188225
0.000147934
0.000161518
0.000147219
0.000147977
0.000147624
0.000154742
0.014387
0.000147937
0.00016347
0.000217219
0.000147981
0.000149818
0.000161343
0.047926
0.000157039
0.000188298
0.000147889
0.000554005
0.000534947
0.000148056
0.00019666
0.000162668
0.000171983
0.0596315
0.000159942
0.000148824
0.00022888
0.000176958
0.000150953
0.000221009
0.000197929
0.000211944
0.000154807
0.000144243
0.000208826
0.00018336
0.0002196
0.000147295
0.0240482
0.000171705
0.000190743
0.000165598
0.000145997
0.000149861
0.000146796
0.000148105
0.000149256
0.000151956
0.0211239
0.000158592
0.000149361
0.000156174
0.000156262
0.000147727
0.0612649
0.000156438
0.000205591
0.000165639
0.000151206
0.000578194
0.000196081
0.000174225
0.0291189
0.0602902
0.000146366
0.000169126
0.000184553
0.000193515
0.000186313
0.000379592
0.000144341
0.000148445
0.0223598
0.000149087
0.0204863
0.000215076
0.000196411
0.000156323
0.000156297
0.000147243
0.000146725
0.000147998
0.000148155
0.000148752
0.000148122
0.0163579
0.000148056
0.0316899
0.000154051
0.000173702
0.0370475
0.000149829
0.000148245
0.000214488
0.0482869
0.000208278
0.000149646
0.0760074
0.000149611
0.000148047
0.000150658
0.000290264
0.00074499
0.000215105
0.0123789
0.021628
0.000161605
0.000172208
0.00014594
0.000148874
0.0417257
0.0725369
0.000206467
0.000169306
0.000151253
0.0163835
0.000171817
0.00254864
0.000146833
0.000217222
0.000151167
0.000151823
0.000160142
0.000175588
0.00739902
0.000154296
0.000190026
0.0581288
0.00708475
0.00014832
0.000155241
0.013438
0.000151812
0.000609238
0.000155027
0.000166121
0.000166106
0.000181533
0.0228955
0.000146318
0.000148096
0.000163427
0.000189309
0.0180985
0.000149547
0.0125405
0.000151273
0.005385
0.0357937
0.000201354
0.000148103
0.00014733
0.000205105
0.0272207
0.000144205
0.0763539
0.000151187
0.032357
0.000158548
0.00015606
0.000148437
0.000173867
0.000180788
0.000155021
0.000156738
0.00014707
0.0373313
0.000168816
0.000145293
0.000165004
0.0351782
0.0319857
0.000158622
0.0739139
0.0482791
0.000169122
0.000182008
0.000158587
0.000212659
0.000147184
0.000197293
0.000150648
0.024189
0.000148986
0.000148972
0.000426648
0.000232701
0.000153392
0.0012063
0.000144207
0.000148296
0.0227068
0.000146727
0.000264989
0.00016265
0.000148163
0.0250145
0.000201854
0.000200508
0.000148166
0.000158275
0.00017963
0.000149017
0.000153296
0.0294154
0.0447794
0.000162047
0.000197226
0.000148201
0.000155416
0.00020544
0.0351291
0.0493548
0.000182019
0.000164643
0.000150736
0.000280913
0.000179646
0.000180705
0.0559065
0.000147907
0.000201487
0.000202194
0.000145947
0.000149079
0.000202168
0.00014976
0.0194209
0.000229716
0.000556232
0.000148162
0.000149021
0.0513161
0.000149219
0.0727306
0.0213759
0.00555399
0.000171901
0.000147348
0.000151639
0.0457206
0.000158307
0.000147201
0.000161453
0.000150637
0.0327156
0.0156547
0.000154548
0.000149009
0.000148571
0.00014632
0.0349213
0.000249869
0.000256463
0.0781533
0.000147793
0.000147682
0.00906234
0.000147525
0.000185225
0.000160843
0.0189107
0.0227188
0.000166631
0.0472161
0.0196382
0.00014668
0.000168066
0.000195791
0.000155512
0.000149658
0.000162898
0.000154425
0.000185217
0.000263191
0.017871
0.000147482
0.000147685
0.0592268
0.0301107
0.0182269
0.000229366
0.000157288
0.0447914
0.000145233
0.0001898
0.0398618
0.000176329
0.000150546
0.000175949
0.000145642
0.000148233
0.000147104
0.000147565
0.000150489
0.000158812
0.000168038
0.0814668
0.000148147
0.000143954
0.0347321
0.000222617
0.000182041
0.0364989
0.0275128
0.0754575
0.000148121
0.000149493
0.0215918
0.000168277
0.000192279
0.000150925
0.00014814
0.000148535
0.000145312
0.00015079
0.000174479
0.00397217
0.00014866
0.000151649
0.000157898
0.000151032
0.0603776
0.000175364
0.00017239
0.0104139
0.00016901
0.000147933
0.00987855
0.0233462
0.000170916
0.0864785
0.000153433
0.000165995
0.0133742
0.000205606
0.0608153
0.000155188
0.000148085
0.013363
0.00017196
0.000149557
0.000148295
0.000173641
0.0228682
0.000147075
0.000145173
0.000149518
0.000145169
0.000147555
0.042638
0.000229391
0.000149777
0.00015995
0.00016831
0.000148078
0.000155371
0.000149522
0.000144289
0.000148532
0.00017166
0.000156574
0.000148999
0.000157462
0.00014956
0.0149561
0.000151489
0.00671074
0.00020299
0.00380553
0.000190955
0.000143974
0.000149557
0.000147095
0.000179737
0.000146554
0.00014521
0.039729
0.0171946
0.000170218
0.000145439
0.000200503
0.000229245
0.000148988
0.0167312
0.000152985
0.000552965
0.000147802
0.000220965
0.0169658
0.000149911
0.000148718
0.0395444
0.0283455
0.000169195
0.000472534
0.000296636
0.0178892
0.0214185
0.0680331
0.000148383
0.048242
0.0218454
0.0788254
0.000149707
0.000257461
0.000147783
0.000143905
0.0603524
0.000149657
0.000192025
0.0380472
0.000145483
0.015684
0.000170496
0.0344921
0.00016648
0.00015132
0.000164712
0.000146701
0.000148723
0.000166051
0.000158777
0.0438697
0.000145818
0.0246671
0.0283634
0.000169585
0.0328412
0.000169796
0.000148103
0.0118708
0.000148013
0.0695911
0.00764337
0.0304061
0.0302115
0.000588464
0.000174099
0.000182629
0.000154279
0.0390189
0.000149214
0.000148548
0.000175669
0.000148983
0.000164015
0.0091282
0.000149357
0.000260482
0.000154241
0.000150629
0.0447535
0.000153082
0.000148031
0.000169335
0.000350686
0.000156483
0.000196965
0.000149438
0.0398608
0.00014779
0.0374463
0.000147673
0.0079043
0.000191374
0.000200627
0.00648094
0.000151066
0.000183555
0.00014925
0.000295528
0.000151021
0.000146686
0.000210479
0.000147804
0.000149783
0.0399408
0.000147536
0.0474603
0.000148112
0.000146216
0.000148269
0.000168976
0.000228514
0.000147379
0.000236935
0.000148072
0.000146847
0.000153406
0.000167175
0.000187147
0.000186542
0.000423288
0.000156316
0.000149557
0.000149799
0.000148164
0.000156374
0.041656
0.000147039
0.000149872
0.0449306
0.000149447
0.000156406
0.000147886
0.000149014
0.0402801
0.000146099
0.000152573
0.00014759
0.000147512
0.000149013
0.0257194
0.00015124
0.00878787
0.0787461
0.000171891
0.0115163
0.000164142
0.000149523
0.00106677
0.0208877
0.000146515
0.000147536
0.000172069
0.000180152
0.000149247
0.000168185
0.000150422
0.000149858
0.000146895
0.00983995
0.000148559
0.000210644
0.000156407
0.000270016
0.00384949
0.000149962
0.0492661
0.000148126
0.0161541
0.000182726
0.000201078
0.000170387
0.000196706
0.000150703
0.0555056
0.000187958
0.000146144
0.000147285
0.000149525
0.000238737
0.000186201
0.000209782
0.000208328
0.000149619
0.000147577
0.0472393
0.000148511
0.0180562
0.000164267
0.000671443
0.000165692
0.000154137
0.00015691
0.00016435
0.000148531
0.000149899
0.000147385
0.000148268
0.000147798
0.000262831
0.000160176
0.000166779
0.000232239
0.00015097
0.0426697
0.000165768
0.000152412
0.0786761
0.000153704
0.00017992
0.000172216
0.000154736
0.0252997
0.00022545
0.000148053
0.0735257
0.000146244
0.0807352
0.000148522
0.000148745
0.0636987
0.000190393
0.000148304
0.000157045
0.000155203
0.000199766
0.000161892
0.0740942
0.000148874
0.000220168
0.0104115
0.000180035
0.000148374
0.000164678
0.0858489
0.000157999
0.000151017
0.0453507
0.000150472
0.00145234
0.021841
0.000182304
0.000148405
0.000147088
0.0520425
0.000244205
0.000290967
0.000172231
0.000692148
0.000167306
0.000242929
0.000181344
0.0175182
0.000164306
0.0390976
0.000175371
0.00026366
0.000148043
0.000146105
0.000187512
0.000163927
0.000260624
0.00579652
0.00017087
0.0413367
0.0203645
0.000166019
0.000152409
0.000365439
0.000147745
0.000184761
0.000150919
0.000146592
0.00680077
0.000146074
0.000178409
0.000148051
0.000149622
0.000148066
0.0196896
0.0616423
0.000201591
0.000147401
0.0409532
0.000161912
0.0823405
0.000249226
0.00564756
0.000148492
0.0148991
0.000185663
0.000147504
0.000174655
0.000150858
0.000145264
0.000149239
0.000151643
0.000148212
0.000151427
0.000148517
0.000147365
0.000150693
0.000168673
0.0631568
0.000148479
0.000188518
0.0251108
0.000175734
0.000158946
0.00014623
0.000247562
0.0361181
0.000158216
0.000145405
0.000197992
0.000148348
0.000189512
0.000148187
0.000252313
0.000183847
0.000147432
0.000547864
0.000196726
0.000172824
0.000156748
0.0212495
0.000168866
0.0240596
0.0515648
0.000150631
0.000337684
0.000146895
0.000192583
0.000147809
0.0669737
0.000147268
0.000163942
0.022113
0.000151454
0.000148067
0.0748817
0.000152166
0.0459902
0.00015118
0.000177119
0.0241047
0.00015685
0.000146828
0.0310155
0.000198358
0.000157759
0.0544146
0.0172348
0.000148062
0.000178698
0.000169174
0.000150404
0.000148203
0.000177295
0.0868536
0.0102352
0.000150361
0.00015078
0.0377092
0.00014856
0.000168061
0.029468
0.0352455
0.000146723
0.000149563
0.0502229
0.0451003
0.000147445
0.000217767
0.0125127
0.0129144
0.0445833
0.000147642
0.000150385
0.0001495
0.000106989
0.000153323
0.000428094
0.00016216
0.000148289
0.000166135
0.000146774
0.000188119
0.000148034
0.022089
0.000165125
0.000153475
0.0108701
0.000167873
0.00016584
0.000281311
0.000147262
0.000175894
0.000152766
0.000248161
0.000176006
0.061994
0.00016486
0.0159941
0.000151523
0.00015035
0.000239545
0.000174092
0.000145257
0.000178146
0.000175869
0.000147693
0.000171477
0.00581467
0.000149522
0.000147389
0.000149856
0.000149214
0.0762218
0.000148554
0.000220877
0.00018106
0.0817891
0.000212813
0.000275037
0.000158556
0.000206017
0.00015399
0.000147732
0.000195611
0.000149869
0.000165269
0.0193582
0.0625104
0.000211788
0.000186049
0.000157525
0.000148161
0.000219638
0.000240316
0.000156595
0.0360774
0.000158823
0.000186309
0.000147755
0.000146811
0.000149522
0.000185677
0.000187912
0.0371921
0.0508567
0.000153839
0.000148896
0.0634704
0.000149813
0.000183992
0.000146512
0.000346609
0.0458034
0.0403215
0.000171888
0.0152545
0.00585098
0.0187702
0.000145373
0.00889015
0.000147543
0.020396
0.000457678
0.000145264
0.000154042
0.0319314
0.000149756
0.000148708
0.000145212
0.000162963
0.00025729
0.000149818
0.000153664
0.00017892
0.000147965
0.00590814
0.000165246
0.000146722
0.0266216
0.0096493
0.00329763
0.000232405
0.000147257
0.0291514
0.000157079
0.000184935
0.000149404
0.000144825
0.0645916
0.000165196
0.0679183
0.000195103
0.000349449
0.00014856
0.000166895
0.0202231
0.000155951
0.000555133
0.000153928
0.0506951
0.000149093
0.000178337
0.000162419
0.0202898
0.000146814
0.000156518
0.000171815
0.000147365
0.000147653
0.000166797
0.000197247
0.000209435
0.000148099
0.000148059
0.000149775
0.000150749
0.000198355
0.000146094
0.000168271
0.000214017
0.00015035
0.0170724
0.0713467
0.0326286
0.0223742
0.000460448
0.00014855
0.000164888
0.000146216
0.000159344
0.000157623
0.017721
0.000147893
0.000163404
0.000149913
0.000148105
0.000147789
0.000148376
0.000174575
0.000149106
0.000193881
0.00866243
0.0382025
0.0354074
0.000148268
0.0179419
0.00014985
0.0178164
0.000174653
0.000157654
0.000154104
0.000146798
0.0001462
0.000149816
0.05684
0.000161197
0.000165256
0.000183443
0.000184948
0.000147763
0.000162243
0.000212899
0.0179982
0.000163034
0.000154663
0.000148069
0.0839366
0.000279246
0.000149893
0.000146382
0.000218198
0.000147018
0.000156158
0.000247681
0.0800717
0.000149066
0.00014701
0.000158873
0.000148002
0.0770795
0.0440354
0.0793239
0.000149265
0.00014533
0.000215148
0.0282903
0.000148562
0.000148769
0.000176258
0.000148304
0.000165786
0.000149846
0.0180018
0.000148523
0.000146449
0.000157923
0.000147088
0.000163052
0.000163022
0.0448236
0.0887262
0.000160329
0.000148151
0.015495
0.00866249
0.000216557
0.000146573
0.0221346
0.0001547
0.00014806
0.000508918
0.000162092
0.000167129
0.0532924
0.000153333
0.020603
0.0493824
0.015515
0.000165724
0.000153605
0.000153432
0.000154697
0.000148333
0.000184409
0.0181073
0.000147736
0.000148531
0.000178681
0.000148171
0.0227664
0.0195397
0.0417972
0.00014704
0.000148823
0.000151878
0.000153793
0.000147061
0.00018801
0.000148064
0.000147353
0.0428976
0.0505026
0.000162798
0.000253028
0.000234663
0.00016088
0.000238648
0.000158323
0.000166206
0.0328809
0.000200617
0.000156811
0.000170912
0.0860538
0.000146452
0.000147097
0.00014975
0.0143622
0.00036702
0.000167261
0.000148334
0.0482174
0.000208548
0.000165399
0.000186067
0.0208687
0.014647
0.000147657
0.000147172
0.000180875
0.00175246
0.0531148
0.0763515
0.000148558
0.000146874
0.0683125
0.000149232
0.0001482
0.000150274
0.000146081
0.000200472
0.000149637
0.000149559
0.000148386
0.000148392
0.0623147
0.00104701
0.000147156
0.000154582
0.0434332
0.000148574
0.000152037
0.000145015
0.00015383
0.00356477
0.00259063
0.00865732
0.000167188
0.000149621
0.000147645
0.000700378
0.000207515
0.00558982
0.000216152
0.00014788
0.000147619
0.0574423
0.000252487
0.000199674
0.000220855
0.000159105
0.000147808
0.000227249
0.0129888
0.00014865
0.000147748
0.0272856
0.0365847
0.000146882
0.0668688
0.000148393
0.000148149
0.000147894
0.0648268
0.000163908
0.000212736
0.042535
0.000148052
0.000230867
0.00460428
0.0118724
0.000213539
0.000147822
0.0426546
0.000591546
0.000155789
0.0204659
0.000149723
0.000153418
0.000196277
0.000145051
0.000147454
0.000149523
0.000211839
0.000155629
0.000160596
0.000172154
0.000188966
0.00014852
0.000157032
0.00014816
0.0228588
0.0400031
0.000161779
0.000176219
0.0569911
0.000197671
0.000145894
0.0622704
0.000147923
0.000147475
0.000159257
0.000152926
0.000149502
0.000394205
0.000151489
0.000154713
0.000182414
0.000214742
0.000216165
0.000144263
0.0664933
0.000158487
0.000147695
0.0491446
0.000149016
0.000211876
0.000175926
0.000154798
0.0405369
0.000364855
0.0001487
0.000208925
0.000151058
0.00014537
0.0327374
0.000198147
0.00016329
0.0228692
0.0434302
0.000147122
0.000147636
0.000148535
0.000149627
0.0696341
0.000166056
0.0463558
0.0814198
0.000165019
0.000168298
0.0576021
0.000161566
0.0183405
0.0147428
0.000306845
0.000190497
0.000148925
0.000236998
0.000161794
0.000529931
0.000220597
0.000162884
0.0415201
0.000148649
0.00027981
0.000148184
0.0436233
0.00014638
0.0471583
0.000149853
0.00016051
0.000149189
0.0246617
0.000148389
0.000147794
0.000203163
0.000148034
0.000149482
0.000156976
0.000154984
0.0181269
0.000167666
0.0393783
0.00014706
0.000152884
0.000207246
0.000147767
0.0189826
0.000148358
0.000232814
0.00686853
0.000145926
0.0207454
0.000148046
0.000155479
0.000148617
0.000149886
0.02069
0.000158276
0.000147688
0.0156959
0.0496336
0.03844
0.0218562
0.0298634
0.000210747
0.000158192
0.000147714
0.000221952
0.000250413
0.000168128
0.0126775
0.000177895
0.0195929
0.000146528
0.000154902
0.000183221
0.0479201
0.000151183
0.000148494
0.0520539
0.000220487
0.000310772
0.0274924
0.000153696
0.0722034
0.0462939
0.0472339
0.0718876
0.000158792
0.0599235
0.000226983
0.000148979
0.000167023
0.000148953
0.0306264
0.00015357
0.0427381
0.000149305
0.0235484
0.000106412
0.000152761
0.000192914
0.00985134
0.000152432
0.000148601
0.000147083
0.000149235
0.000164751
0.000149011
0.000147641
0.000180347
0.000161198
0.000167656
0.0267045
0.000201284
0.000154519
0.000155618
0.000162761
0.054177
0.000149788
0.000514591
0.0576093
0.000180536
0.00324528
0.00016176
0.000190786
0.000149247
0.000156953
0.000149016
0.000145539
0.000149607
0.000148205
0.000215694
0.000215498
0.000149816
0.0212825
0.000172144
0.000144042
0.0202175
0.000147109
0.040621
0.000158016
0.000151447
0.00014934
0.000263226
0.000155507
0.0323737
0.000148532
0.0218677
0.000191309
0.000147227
0.000149192
0.000159767
0.000145606
0.0451408
0.00707679
0.000151673
0.000159179
0.000166941
0.000188823
0.000148169
0.000180128
0.00020105
0.000146034
0.0112299
0.000147247
0.000159546
0.0544065
0.000148195
0.000149505
0.000147855
0.000179145
0.000166618
0.0197525
0.000151684
0.000119117
0.000152801
0.000147102
0.0498312
0.018719
0.0411714
0.0148326
0.000171362
0.000182446
0.0179294
0.000167469
0.000148183
0.000147726
0.0167284
0.0758095
0.0405325
0.000147972
0.00014972
0.00016009
0.000147121
0.0609066
0.000151264
0.00470868
0.000156992
0.000156853
0.000148181
0.0316142
0.0603639
0.000160099
0.00981038
0.0103863
0.00014691
0.000162668
0.0158901
0.000149127
0.0375331
0.000184714
0.000148859
0.000154738
0.000147471
0.0697067
0.0660926
0.000417264
0.000159919
0.000180258
0.0347675
0.000183793
0.000145285
0.0516658
0.000150433
0.000148107
0.00208812
0.000162264
0.000159164
0.0049615
0.000149156
0.000153411
0.000148561
0.000147556
0.0506142
0.0226757
0.000148204
0.000159225
0.000208255
0.000242556
0.0420736
0.0240079
0.000211632
0.016147
0.000148182
0.0167791
0.000154986
0.000148183
0.000203134
0.000145972
0.000208288
0.000198907
0.000167691
0.000145088
0.046709
0.000165631
0.000160329
0.000152175
0.000397628
0.000165559
0.000148558
0.0436665
0.000153665
0.000154778
0.000180262
0.0227924
0.000148134
0.000149165
0.000149914
0.000158709
0.000151641
0.000287936
0.0119223
0.000165215
0.000148806
0.000185646
0.000162757
0.000155004
0.000337606
0.0120546
0.0266423
0.000147932
0.0214479
0.000273373
0.000158241
0.0001478
0.000146449
0.000148821
0.0319322
0.000149102
0.000143947
0.000146473
0.000166766
0.0262032
0.000170375
0.000149817
0.000196194
0.00010398
0.00712908
0.000145842
0.000231635
0.000151445
0.000145067
0.00015012
0.000169822
0.000171239
0.0215336
0.000237223
0.000146649
0.0178324
0.000149851
0.000149854
0.00435282
0.000205332
0.000148825
0.0427549
0.000157406
0.000272759
0.0608657
0.000188824
0.000150511
0.000148186
0.0177675
0.000146176
0.000152067
0.000159471
0.000147201
0.00172885
0.000157939
0.000150536
0.00382711
0.079395
0.000184264
0.000206032
0.000225259
0.000148173
0.050299
0.000152445
0.00014989
0.000184327
0.000159816
0.000172767
0.000202454
0.0784777
0.000169547
0.000148783
0.0204137
0.000171003
0.0508644
0.00014935
0.000180482
0.000148344
0.000147548
0.0680743
0.000163869
0.0584687
0.000144414
0.000151893
0.00019667
0.0601096