/*--------------------------------*- C++ -*----------------------------------*\
| =========                 |                                                 |
| \\      /  F ield         | OpenFOAM: The Open Source CFD Toolbox           |
|  \\    /   O peration     | Version:  v2012                                 |
|   \\  /    A nd           | Website:  www.openfoam.com                      |
|    \\/     M anipulation  |                                                 |
\*---------------------------------------------------------------------------*/
FoamFile
{
    version     2.0;
    format      ascii;
    class       volScalarField;
    location    "400";
    object      omega;
}
// * * * * * * * * * * * * * * * * * * * * * * * * * * * * * * * * * * * * * //

dimensions      [0 0 -1 0 0 0 0];


internalField   nonuniform List<scalar> 
37809
(
0.150458
7.07029
0.0256466
0.0283267
4.55927
0.0616003
0.250921
3.97401
38.2343
6.57837
0.0838646
0.0253056
0.02825
0.0282916
11.3162
0.0286149
0.0254433
3.38662
0.0253963
0.163098
0.0667984
0.0660219
4.27144
0.025306
0.0618103
6.76728
3.00303
0.0255686
0.0256371
3.92844
0.130988
9.18378
0.0253111
1.86545
0.0251707
0.0254514
0.0248406
4.6801
0.0669609
0.122552
6.51503
9.6171
7.66519
9.27432
0.0252371
0.0309635
0.128168
5.20666
1.95402
0.0536901
0.0254051
0.0253236
0.0251913
0.0257343
9.01067
0.0251965
0.0360972
0.0282359
0.0647149
0.968646
7.67509
0.0270109
0.0281724
0.080179
0.130604
0.0623238
9.61086
0.0254516
0.0268254
3.25614
0.0276584
36.1164
0.0253314
0.028235
0.0255635
0.0248521
0.12031
0.189852
0.144885
0.239018
0.0252312
0.0256433
4.68034
0.0340379
0.0251417
10.3698
0.0264271
2.06173
0.0663022
0.0366289
4.61387
9.0462
0.0899232
9.5472
0.0265298
4.75291
0.0253387
0.0254407
8.93445
0.0251246
6.26315
0.0254455
0.0783168
3.46262
3.4969
0.0256076
4.12822
5.53965
0.224116
0.0253042
0.159197
0.0337769
0.152078
0.0271372
0.0357177
0.0657884
0.0254936
0.0253398
0.355218
7.39659
0.0256776
0.0256109
0.0407888
4.46059
8.5678
0.025485
0.125631
0.0252947
0.0356991
0.0270767
0.387661
0.183999
9.55538
0.0252459
0.287619
0.025304
0.0254066
0.0271118
22.4806
5.23862
0.0251558
4.69416
39.7961
6.3294
0.0253315
9.66476
0.0275707
0.0268764
4.6834
0.025438
9.50317
0.0270625
0.0438397
0.365128
0.13348
0.0254547
4.11302
0.352886
0.0257703
28.4203
0.0357343
0.213813
5.5915
7.70453
0.0263061
0.0247188
0.0253086
14.909
0.0690337
0.125473
0.378161
0.0251337
5.47069
0.0267621
0.0269954
0.0295729
3.4897
0.0365797
4.35851
0.0865922
7.31362
0.0256334
0.0251947
0.0256496
0.0247085
0.224196
0.0256402
0.0322167
2.2908
20.0997
0.0537086
0.0253388
0.0254083
7.23527
0.239257
1.86333
0.0253224
0.0246155
0.025175
0.0277728
34.1344
0.0889902
8.87351
0.0869525
7.46798
0.0247147
0.0269313
0.0744267
0.0253111
0.0943314
0.0747628
7.20729
0.0251453
0.0253362
0.0252799
1.47173
0.0659204
0.0251193
0.0251423
0.174596
9.86066
2.81606
0.0256141
0.0256518
0.0252357
3.61257
4.35758
0.122032
0.0327226
4.93011
0.0256201
0.216867
0.194247
0.0268312
0.397119
1.59981
0.0251155
3.63305
0.0262662
0.137839
5.07444
0.02514
1.60605
3.7304
0.0252363
0.0253648
0.0256539
0.0247148
0.127087
0.0247068
0.0254673
0.0253191
0.0253995
4.5064
0.0253329
0.0253272
0.024611
0.0254027
3.34517
5.23855
0.338242
0.0254146
27.9864
0.0256248
10.3796
0.082473
0.133972
0.0395319
0.0253284
1.64347
9.5988
0.0252796
4.62064
1.71895
0.025325
0.139936
1.60015
0.0254621
0.856534
0.0253969
0.0253409
14.2985
12.2981
0.0252926
0.143626
0.0253613
0.025325
0.0254185
0.0253232
3.68625
0.0253464
0.0445422
36.1868
0.0251905
0.0252891
0.0319012
0.179044
6.99899
0.0253282
29.9408
0.043556
12.4477
0.0248592
0.312599
8.74733
0.0342371
0.0256394
0.0277094
6.18122
0.0251431
0.11971
4.60713
9.71163
0.0613949
0.0256696
4.36456
0.0270293
0.0254098
25.4417
36.8154
0.0787886
2.8838
0.0502158
0.0276174
8.32459
0.0654617
9.58668
0.0253271
0.0256397
0.255481
0.0251212
0.0248588
0.0253416
6.04943
0.0248579
0.0252392
0.0483639
0.0253984
0.0253711
0.0801652
0.0252631
0.028278
5.03251
3.18184
0.030732
0.258052
27.2699
0.0254668
10.3346
0.0276136
2.70625
0.262548
0.025305
0.0254464
16.3061
6.11702
0.0247127
0.174889
0.0253217
4.34948
3.92003
0.0298007
8.19547
7.23763
12.4645
3.6437
0.0484061
0.0289364
0.0281042
0.0252794
0.0283126
0.0871254
0.0635865
33.245
0.0751868
0.0249653
0.0796349
0.0247062
9.2784
5.74545
0.025324
0.0270003
7.78427
0.0411797
4.01479
0.0473072
6.02861
0.0395899
25.3065
0.0248843
0.025402
8.47538
0.0256459
0.0254435
0.029328
0.0690635
8.01908
1.24115
0.032177
0.0256463
4.5051
0.0922523
0.0248806
0.0253608
0.0252411
0.109505
0.0251488
3.62756
5.25192
4.84847
0.0690827
0.0327537
0.0775602
0.0256403
0.0248399
0.713128
1.36188
11.138
0.0256648
0.0253617
5.5267
0.0662573
0.393558
0.300973
0.0254126
4.14623
0.0256674
0.0366089
0.0328764
19.2165
0.0251563
0.0826145
0.0282804
0.027044
5.09538
0.0256076
8.97545
4.7096
0.0590549
0.0251279
0.026179
0.560152
0.0553039
0.0516437
0.0253358
0.0250619
4.74526
0.298314
0.0482969
0.207147
0.0415166
0.0249624
0.0271331
0.0253995
0.0253617
0.0252967
0.0248452
0.025373
8.91924
0.0252566
0.0256428
0.0296406
0.223173
3.57338
8.82329
7.67133
0.0273013
0.0371795
4.36704
0.0253518
0.0338072
0.0251529
0.0254663
0.0251999
0.060243
0.0251446
0.0568355
8.48268
0.0408376
0.025404
0.025272
0.0253222
0.0315493
0.0247107
12.2893
0.0253461
0.0458978
0.266677
6.07809
0.025372
7.83395
0.0480585
0.0853389
0.025447
0.0801656
4.51167
0.024708
0.0420306
0.0589099
0.0469941
0.154798
0.339938
4.88782
9.78722
0.0289737
0.0348275
0.0657595
10.781
0.0253964
0.0254073
0.0248354
0.0251414
4.46179
0.0348593
0.0267509
1.23702
7.19664
0.0258004
17.3642
0.0292325
5.39577
0.211782
0.0254623
8.7324
0.0269077
0.0268611
0.337529
3.88771
0.0522215
0.170894
8.55274
0.0262788
0.319483
0.0619335
0.0256697
0.024849
0.0251418
3.75114
0.025349
0.0254128
0.116954
0.0268449
4.39914
0.215335
6.24929
0.025557
0.0253474
25.5377
0.137755
0.0256763
0.0305653
0.0494773
0.0254612
0.138542
4.99107
0.0321333
0.0253943
0.192341
1.62926
0.0395497
0.151822
9.55574
0.108915
0.0248486
10.0273
0.0330716
0.0827412
0.0254266
6.08039
0.305171
0.0256706
10.84
0.0253361
0.0256199
0.0251184
0.025401
4.14116
11.7008
0.0248642
0.0247093
0.0292528
0.0388351
0.0671851
0.209053
8.36345
8.78152
3.64883
13.6211
7.61007
3.62019
0.0253466
0.0253323
0.0279208
10.9025
0.0256746
0.0253973
0.0248722
5.00778
11.0472
0.0252524
0.0253799
0.025672
7.7846
0.0476043
2.7159
0.0256619
0.0946907
0.0273701
0.0825399
0.077571
0.02518
7.77161
0.025373
0.156779
0.0253765
0.0258473
0.0254659
4.76831
3.63586
4.03188
0.0254671
4.21897
3.69416
0.0263064
7.85024
0.141497
0.118102
0.0253387
0.0253237
0.025322
2.04615
7.35309
0.0507125
4.14075
0.0255748
0.0253337
0.0429326
0.0375549
0.0251403
4.53557
0.0294207
0.141591
0.196086
38.6941
8.26101
3.25511
0.348441
0.0253364
0.0248569
0.0284256
0.0254062
0.0368
5.84274
0.0253249
34.7018
0.231526
4.32893
0.0283575
5.07379
0.0471154
8.16072
0.0270117
0.0254172
0.0352765
0.0253523
0.0281414
0.396796
1.04406
16.881
0.312326
5.85876
4.75458
0.0460877
0.0253383
10.0176
0.0247173
4.21147
6.22034
0.0253426
0.0305558
0.289503
3.64508
0.026128
0.0256554
4.61739
37.2679
4.2124
0.0253156
21.5393
0.0253204
0.335975
0.0464877
0.0260674
0.0807897
5.48822
0.025404
0.0253896
0.0253121
0.0251356
0.239305
3.99446
4.37628
6.45732
0.0253685
9.52829
0.0364641
0.133793
2.54232
0.0280264
9.4893
0.0262566
0.0265592
4.41571
1.05769
0.133495
6.04061
4.11073
0.0591625
10.5734
0.179619
0.0255665
4.42816
0.0339471
0.041701
0.0320572
0.0318434
0.0468434
0.0272289
0.0372664
0.171636
0.0348863
0.0293924
0.029881
0.0823084
0.0276802
0.0253035
0.0255302
0.0253125
0.0256128
0.352478
2.46287
0.0256854
0.0251503
0.0506119
4.42019
0.0256019
0.0290911
0.063828
0.267313
0.0256455
0.02555
0.0277037
0.0794549
0.027225
0.0252286
0.0251635
11.4255
4.01773
1.20891
0.0352656
0.0256391
0.0253735
0.0343196
0.0253979
0.0253042
0.0304575
5.26409
0.0661445
3.9512
0.0253487
0.0293241
0.0873559
3.95252
0.0801632
27.882
1.88622
9.29792
0.0248376
0.0253816
4.19128
0.170372
0.0469914
0.0783028
4.78537
8.19314
0.265009
0.0257226
0.206612
4.28144
0.0304644
7.70303
0.079125
2.32987
12.6259
0.297551
0.0774124
0.0262876
4.06474
0.0251509
3.81406
0.0306257
0.0251317
0.0253822
0.0248523
11.8037
0.0248626
0.116343
0.0253226
0.0390287
0.310055
0.0352969
0.0253262
4.49036
0.159621
0.0253526
0.0253924
10.1416
0.0635392
0.0340445
0.161141
0.028836
0.0288041
0.0249657
0.215484
4.23769
4.16767
4.53233
0.161928
0.116203
0.0644497
0.347117
0.0268445
5.31116
12.0731
0.223659
0.0252971
0.0287364
0.222179
0.0255732
4.23638
5.13849
0.217092
0.0254027
0.0776012
0.0253
0.0519742
7.62262
0.0253076
0.331032
7.51017
0.0253658
0.0400986
0.0457592
0.0246826
0.0397068
4.10078
0.0479036
0.0439671
8.05687
0.0777349
0.026176
0.0280768
0.0251627
0.0375735
0.0249678
0.0254025
5.57822
0.0442461
0.0283115
0.0262026
0.024853
0.026254
0.0247631
0.190108
0.250595
0.0268024
0.312324
7.79837
0.0251096
0.190454
0.025303
0.0293666
0.0256392
0.025615
4.12042
0.0304234
26.5281
0.0253879
0.0260703
1.09005
5.26678
0.0254665
0.0342216
4.71939
10.049
0.0256462
14.5928
0.0319721
0.0525702
0.231367
0.0281692
35.5428
0.0316628
0.0253196
0.025234
0.025167
0.0260822
0.0267875
9.4723
0.117208
0.0342837
2.66073
0.102541
3.90157
0.0397015
0.0255518
0.0505088
4.64668
0.0335721
0.046649
0.031596
9.97594
0.357033
0.028105
0.039925
0.0262971
4.43892
0.0254617
0.241507
0.025105
0.0344677
0.0275294
8.78541
0.0288212
0.104687
0.0345033
0.0767729
0.0248397
0.243156
0.157995
0.0399861
0.0246859
0.0792232
5.23979
0.724815
0.0249135
0.0283465
6.76035
3.37517
5.36131
0.0253897
0.0560002
0.0256446
0.0547263
0.338899
1.24708
0.029543
0.156333
0.0375133
0.0253312
0.025623
0.130655
0.0253287
0.0253123
0.0262351
0.152227
1.80644
0.0398997
0.0250653
0.0247737
0.024837
0.0331847
0.0254007
0.106726
6.31142
0.0248436
8.00235
0.025413
12.3262
4.90278
0.0441398
0.027974
0.0495972
0.0253436
4.66856
0.0250212
0.231106
0.0286061
0.0253542
0.234742
0.0492944
0.0252447
5.64975
0.060302
0.0296836
0.0269741
4.48739
0.0802706
8.51009
0.025378
0.0660561
0.70881
7.25817
0.0251389
0.0299715
0.0251315
10.6128
3.96087
3.69538
4.20997
0.0256768
0.0394626
0.026466
4.66466
1.16924
0.0264408
0.118812
0.0253273
0.0339843
0.0251331
0.0253311
0.0251992
0.0273054
9.17687
0.0253296
0.0461354
0.218718
0.0253332
0.0256713
0.044842
5.01622
0.0306664
0.11865
0.0252196
3.88696
3.72358
0.0253654
0.322314
0.0495828
0.0460444
5.09803
0.0373396
0.0253879
0.299485
0.178455
0.0263805
1.33865
0.117354
0.213362
0.0297869
0.0247093
0.239507
0.0851285
0.284606
0.0251359
8.24433
0.0458997
0.400896
0.0362155
0.0249235
0.0256783
0.0251331
0.0253951
0.0255806
0.0270992
7.99502
0.0350575
0.0256159
0.0318139
0.031964
0.0252565
4.35022
0.0322576
0.151886
0.0362719
0.0262461
4.30872
0.112215
0.0793818
5.08313
4.59941
0.0250984
0.0608793
0.130924
0.101585
0.119808
2.90362
0.0247089
0.0253617
6.47612
0.0255301
5.02061
0.202195
0.124883
0.032037
0.0319592
0.0252482
0.0251506
0.0253195
0.0253353
0.0254267
0.0253393
11.565
0.0253597
5.2756
0.0257797
0.063918
4.23865
0.0256731
0.0254078
0.206284
22.2287
0.165356
0.0256439
7.59285
0.0256384
0.0253623
0.0262384
1.47973
1.57909
0.258554
10.1561
4.02181
0.0329124
0.121927
0.0250208
0.0253984
9.15264
5.39705
0.156924
0.0401744
0.0262594
15.5321
0.118224
7.06342
0.0251738
0.228813
0.0261881
0.0269204
0.0336596
0.156319
37.8573
0.0288366
0.388888
4.03898
28.9779
0.0253442
0.0295287
6.33352
0.0270151
6.47136
0.028101
0.0659112
0.0465283
0.0622295
8.37642
0.0250977
0.0253064
0.0461348
0.0821714
8.50119
0.025628
5.90001
0.0262539
9.43603
4.70587
0.161602
0.0253966
0.0252587
0.155243
6.32297
0.0247409
4.98426
0.0262736
4.20719
0.0298099
0.0316351
0.0253595
0.0473297
0.0704406
0.0299333
0.0313353
0.0251307
4.84352
0.0413366
0.0247553
0.0419595
8.87952
5.38338
0.0298178
5.50801
4.67907
0.0601265
0.247074
0.0341478
0.193861
0.0252345
0.119626
0.0262146
7.39678
0.0255385
0.0254933
3.29895
0.288353
0.0271551
2.24531
0.0247422
0.0254181
6.46642
0.0251531
1.42623
0.0501279
0.0253354
6.05779
0.347939
0.156111
0.0253896
0.0358752
0.152104
0.0255434
0.028345
7.27961
4.64296
0.0473411
0.112252
0.0254045
0.0296473
0.150636
4.6088
3.66187
0.0614521
0.0357433
0.0262802
1.90869
0.151482
0.0601648
4.51027
0.0252224
0.131179
0.155704
0.0249211
0.0255192
0.155476
0.0256618
8.67368
0.277252
7.53105
0.0252909
0.0255425
4.74086
0.0255747
12.7533
8.07103
4.21009
0.119297
0.0252626
0.0268718
3.79118
0.0337656
0.0252383
0.0326959
0.0262057
4.49371
12.2941
0.0296564
0.0255404
0.0253861
0.0250975
4.8725
0.795358
0.394341
5.14569
0.0253213
0.0253073
21.9947
0.0252939
0.0832168
0.0315655
9.64528
9.22582
0.0526611
4.72829
7.63911
0.0251552
0.0402673
0.122354
0.0296646
0.0256453
0.0335927
0.0295352
0.0781503
1.13602
11.4395
0.0252861
0.0252507
4.2364
5.43904
7.42358
0.302258
0.033815
4.1436
0.0247677
0.233187
4.30843
0.171969
0.0254021
0.0847808
0.0247832
0.0254109
0.025171
0.0251404
0.0261288
0.0355041
0.0469457
9.64124
0.0253338
0.024686
3.98067
0.283874
0.0613947
4.31304
6.78432
6.71246
0.0253996
0.0256704
10.0272
0.0477107
0.0924952
0.0263631
0.0252859
0.0254626
0.0249232
0.0263171
0.0800243
5.53205
0.0254882
0.0259506
0.0339799
0.025928
4.40318
0.0499557
0.111081
7.03783
0.0911941
0.0253666
4.71032
8.42563
0.0999065
6.41397
0.0278365
0.0436415
11.5415
0.152246
9.96457
0.0301745
0.025365
11.2743
0.119415
0.0256295
0.0254249
0.0469632
8.75805
0.0252051
0.0248795
0.0256236
0.0248809
0.0250674
4.59188
0.278417
0.025278
0.0308595
0.0823781
0.0253614
0.0295468
0.0256241
0.0247173
0.0253785
0.0435266
0.030355
0.0254971
0.0306969
0.0256302
9.92323
0.0267694
7.61027
0.560302
4.324
0.0887425
0.0246897
0.0256299
0.0251716
0.216762
0.0251382
0.0248906
3.527
11.3977
0.312604
0.024947
0.126539
0.591479
0.0254945
3.9195
0.028018
6.8479
0.0253426
0.26178
13.5514
0.0258415
0.025399
4.46637
5.06814
0.0782538
3.88115
0.877928
12.1761
9.90751
6.35622
0.0253544
4.70083
8.96398
5.28571
0.0256533
1.37118
0.0252858
0.0246503
4.33248
0.0256451
0.0910855
3.37405
0.0249545
11.0305
0.0951983
5.08027
0.0372058
0.0261119
0.053576
0.0251396
0.0254213
0.0551005
0.0371065
4.59297
0.0249957
6.13071
6.35247
0.0566166
5.08031
0.0469078
0.0253263
9.24353
0.0253801
4.63989
8.16128
4.28787
5.23706
4.71613
0.0795658
0.186249
0.0279426
5.19996
0.025574
0.0254647
0.102299
0.0255381
0.051483
9.29742
0.0256196
1.32315
0.0282463
0.0261778
3.62119
0.0280777
0.0253787
0.0435452
3.2824
0.0281428
0.111319
0.0256111
4.24792
0.0253163
3.59742
0.0252515
28.4071
0.0888251
0.528596
7.75761
0.0264451
0.191394
0.0255798
0.835045
0.0260012
0.0249632
0.179223
0.0253453
0.0256653
4.15505
0.025082
3.62882
0.0252826
0.0250675
0.0254124
0.045103
0.31774
0.0252436
0.332958
0.0253591
0.0251767
0.0283796
0.0404004
0.0752257
0.144067
4.84273
0.0321285
0.02563
0.0256679
0.0253893
0.0281136
4.35207
0.0251354
0.0258292
5.28293
0.025612
0.0321579
0.0253428
0.0255431
4.39928
0.0249772
0.0273229
0.025297
0.0252538
0.025543
8.3897
0.0262065
26.4893
6.57385
0.0556774
10.3393
0.0349478
0.0256245
3.3237
7.93682
0.025065
0.0252871
0.0557153
0.064439
0.0255727
0.0843986
0.0256576
0.0256775
0.0251511
8.19411
0.0254663
0.187258
0.0302576
1.73587
6.006
0.0258556
4.12345
0.025399
11.247
0.257391
0.151841
0.060123
0.114951
0.0261862
10.0506
0.0778298
0.0250247
0.02515
0.0256859
0.315436
0.0751847
0.178683
0.261569
0.0256389
0.0251482
4.14187
0.0253725
11.1533
0.0454878
24.3577
0.0665047
0.0281933
0.0304868
0.0404127
0.0254615
0.0257449
0.0252693
0.0254188
0.0253234
1.37243
0.0376707
0.07286
0.317801
0.0259973
4.28033
0.0668738
0.027164
6.54112
0.0268032
0.217547
0.12237
0.0291017
4.1081
0.691747
0.0253826
5.53371
0.0250848
5.46991
0.0254605
0.025425
5.27083
0.0867129
0.0253402
0.0306151
0.0280236
0.512576
0.0407739
4.81076
0.0254637
0.232129
24.9649
0.0575705
0.0253362
0.0449788
7.31785
0.0350645
0.0264307
3.66344
0.0256636
14.4912
6.10861
0.0623082
0.025344
0.0251287
9.43645
0.333058
1.35569
0.0447574
5.15317
0.0407524
0.713323
0.0615584
5.79549
0.0454835
19.6347
0.154578
1.37909
0.0253648
0.0250618
0.122019
0.0440083
1.32954
33.2472
0.0575751
24.7251
10.0345
0.0364301
0.0272067
1.59081
0.0250905
0.076913
0.0263737
0.0249563
38.2032
0.0250559
0.0653548
0.0253627
0.0256395
0.0253265
9.93853
4.10001
0.531138
0.0252116
4.2652
0.0413098
8.89869
0.336168
6.72644
0.0253701
11.0176
0.164911
0.0250723
0.0614587
0.0263394
0.0247814
0.0255778
0.0268023
0.0254045
0.02665
0.0253741
0.0252422
0.0262059
0.0425972
4.17951
0.0253678
0.082478
5.4527
0.160023
0.0316223
0.0250824
0.339977
4.92582
0.0296533
0.0248022
0.123236
0.0253327
0.0836746
0.0252939
0.368953
0.0805508
0.0251032
4.49105
0.463017
0.0456706
0.030524
9.72699
0.0899011
6.80952
7.37938
0.026209
2.86029
0.025198
0.0931659
0.0250978
4.36592
0.0252417
0.0347338
8.74082
0.0266597
0.0253556
4.89288
0.0269794
3.50826
0.0265072
0.079935
4.15722
0.0330488
0.0251808
5.61936
0.487229
0.0293001
4.19328
10.328
0.0253578
0.365569
0.0568447
0.0260988
0.0254004
0.673399
8.35436
7.24785
0.0260725
0.0263065
9.18204
0.0254665
0.0476797
9.3134
4.83231
0.0251676
0.0256306
4.08887
3.4606
0.0252807
0.21643
12.4095
3.73318
7.44919
0.0253007
0.0260846
0.0256205
0.375765
0.0283718
4.25176
0.0479435
0.0254219
0.0662009
0.0251779
0.114664
0.0253618
5.84676
0.0547927
0.0271667
10.3722
0.0472648
0.0665262
2.06495
0.0252409
0.16543
0.0273922
0.34813
0.084387
4.11796
0.0540082
10.1526
0.0267749
0.0259422
0.31224
0.0728684
0.0249159
0.0846733
0.136115
0.0251414
0.0594721
9.8614
0.0256242
0.0252121
0.0256773
0.025574
5.83383
0.0254656
0.260979
0.228998
7.02334
0.190826
1.53293
0.0330982
0.242025
0.0288537
0.0253368
0.105478
0.0258251
0.0608217
5.72437
4.54584
0.184574
0.0747857
0.0304886
0.0253041
0.232876
0.315813
0.0304271
3.41697
0.0334295
0.130434
0.0253407
0.025132
0.0256239
0.076436
0.114685
4.68817
7.42135
0.0284169
0.0253907
4.78423
0.0256706
0.135319
0.025015
3.24049
30.6439
5.22671
0.118674
12.4898
34.9013
11.275
0.0249347
23.7418
0.0250724
7.38474
1.73904
0.0249183
0.0290596
4.16304
0.0256616
0.0254956
0.0248893
0.0515017
0.965195
0.0256713
0.0268386
0.202633
0.0253689
31.6201
0.0625849
0.0251628
6.70369
28.3926
3.73846
0.291733
0.0251464
4.93338
0.0318171
0.0959288
0.0252966
0.024826
4.24869
0.0551704
7.19006
0.131713
3.01459
0.0254667
0.0471594
8.08337
0.0315656
3.84734
0.0269117
5.13306
0.0255548
0.0646133
0.039078
8.04065
0.0251841
0.0288139
0.043543
0.0252603
0.0253051
0.0729115
0.142234
0.172607
0.0253415
0.0253583
0.025689
0.0262587
0.484821
0.0249743
0.0421717
0.196583
0.0256527
10.3939
5.23145
4.29043
8.40811
4.21453
0.0254649
0.060268
0.0249065
0.0316643
0.0339103
12.2616
0.025357
0.0492344
0.0258462
0.0253405
0.0253235
0.0253389
0.0615748
0.025527
0.0988186
22.8462
4.62254
7.36186
0.0254205
8.33998
0.0258167
12.1241
0.0607715
0.0304353
0.0290729
0.0251759
0.0249033
0.0256708
3.91601
0.0395926
0.036509
0.167817
0.0959716
0.0252811
0.0330803
0.190909
3.97279
0.027132
0.0271735
0.0253594
9.93809
1.61236
0.0258334
0.0250996
0.225141
0.0251802
0.0318441
1.14893
5.34472
0.0255505
0.025176
0.0311807
0.0253754
5.06014
3.94137
5.31416
0.0255616
0.0248916
0.202583
4.67719
0.025467
0.0251664
0.0846081
0.02543
0.0645258
0.0256756
11.4039
0.0254603
0.0249012
0.0348487
0.0251083
0.0517563
0.0477997
4.18139
8.23634
0.032753
0.0253939
10.0635
10.5597
0.218372
0.0248562
9.09261
0.0295924
0.0253477
3.98214
0.0387371
0.0725683
13.4922
0.0283738
7.87631
4.82705
10.9915
0.0666184
0.0281975
0.0278264
0.0298436
0.0254347
0.127992
10.1331
0.0253195
0.0254618
0.0649744
0.0253977
8.34429
9.27039
3.62084
0.0251551
0.0253679
0.0270369
0.0285643
0.0251215
0.323456
0.025353
0.0252578
3.69685
4.21671
0.0508013
0.373453
0.318042
0.0389331
0.783953
0.0312159
0.0481027
4.16554
0.137235
0.0300564
0.108672
7.8265
0.0249048
0.0252093
0.0256603
16.338
1.20437
0.0474635
0.0253446
3.65573
0.171844
0.0644044
0.0775664
9.89456
8.39292
0.0252769
0.0251011
0.0593743
4.0052
4.30808
4.99493
0.0254666
0.0251943
4.52533
0.0255702
0.0254002
0.0259128
0.0250585
0.155831
0.0256425
0.0256299
0.0253505
0.0253546
5.3258
2.40491
0.0251027
0.0297707
4.25676
0.0253879
0.0269301
0.0248751
0.0283956
7.12751
2.76203
6.29379
0.0473869
0.0256397
0.0252042
1.4888
0.165875
13.6223
0.206336
0.0252082
0.0252708
5.44475
0.936299
0.150426
0.9073
0.0379388
0.0253203
0.639222
5.77205
0.0252999
0.0252782
6.46497
4.45192
0.0251965
4.59907
0.0253522
0.0253351
0.0253597
4.27602
0.0439143
0.194323
9.45225
0.0253863
1.06352
6.55694
4.96608
0.204836
0.0253512
3.50283
4.55143
0.028119
9.39245
0.0256563
0.0284016
0.136972
0.0248808
0.0252815
0.0256262
0.235622
0.0279876
0.0423371
0.121555
0.0817773
0.0254601
0.0334545
0.0253354
7.85862
3.66815
0.0326115
0.0834375
7.2239
0.473689
0.0250087
4.44624
0.0252153
0.0251095
0.0381731
0.0279292
0.0256211
3.36995
0.0259811
0.029907
0.0629343
0.198806
0.206787
0.0247171
4.53016
0.0360507
0.0252898
4.69337
0.0255433
0.185118
0.163885
0.0299578
3.52155
2.62686
0.0254129
0.198781
0.0259301
0.0247881
5.45206
0.123981
0.0529589
8.0054
3.84952
0.0252132
0.0252696
0.0254624
0.0256404
6.05216
0.055047
4.16238
6.46759
0.0453137
0.0411192
4.28783
0.0405816
8.4067
4.94574
2.44432
0.0855635
0.0255282
0.367674
0.0465508
4.04509
0.907468
0.0504653
4.28731
0.0254047
1.7133
0.0253968
4.1932
0.0250858
4.60406
0.0256767
0.0313513
0.0254355
5.80228
0.0253527
0.0253462
0.161785
0.025364
0.0256168
0.0290334
0.0293096
9.6943
0.0402207
18.1627
0.0251583
0.0279003
0.160627
0.0253256
7.6365
0.0253514
0.343119
27.2226
0.0250119
7.69924
0.0253563
0.0305709
0.0252921
0.0258366
7.68333
0.0347402
0.0252865
10.4537
4.41787
3.55332
6.0724
4.63266
0.179111
0.0344335
0.025114
0.936029
0.342045
0.0393391
4.78393
0.131451
9.78052
0.0248499
0.0281811
0.0679977
4.08305
0.0265428
0.0253708
4.25984
0.872625
1.0274
5.04115
0.0279862
6.30253
4.18706
4.29828
6.32929
0.0315127
4.86771
0.27896
0.0255374
0.0473186
0.0255326
5.96474
0.0283827
4.33252
0.0255891
5.32139
1.20912
0.0277797
0.0994022
26.2509
0.02635
0.025474
0.0252198
0.0255669
0.0606836
0.0255426
0.0251973
0.0644169
0.0398644
0.0379045
6.4519
0.131437
0.028935
0.0298016
0.0505442
4.15805
0.803162
3.84265
4.35671
0.0584831
6.66945
0.027013
0.364677
0.0255793
0.029019
0.0255423
0.0247906
0.0256375
0.025399
0.20949
0.208521
0.0256709
7.51566
0.0450916
0.0246588
11.0541
0.0251038
4.37757
0.0311214
0.0262841
0.0255949
1.37016
0.0306423
5.18985
0.025462
4.09262
0.0889369
0.0252443
0.0255646
0.0356816
0.0248179
4.17064
38.0319
0.0259683
0.0380179
0.0376461
0.0841388
0.0253894
0.11247
0.130823
0.02496
10.5531
0.0252479
0.0314199
4.28716
0.0253091
0.0256753
0.0253387
0.055537
0.057852
9.69083
0.0269005
0.316487
0.0278102
0.0252233
4.11891
10.1324
4.07263
13.9842
0.113515
0.0657383
7.40894
0.0382762
0.0253388
0.0253161
11.2469
6.67226
4.42582
0.0253729
0.0256554
0.0360364
0.0252017
4.62395
0.0262921
7.20029
0.0333799
0.0330034
0.0253984
4.43488
4.62693
0.0374186
22.0463
27.9839
0.0251522
0.0502021
11.8854
0.0255342
4.46279
0.0791746
0.0255177
0.0278675
0.0250615
4.54366
13.1622
1.08425
0.0400881
0.220672
4.35652
0.138146
0.0247869
4.31214
0.0261084
0.0250002
26.6738
0.0330425
0.0335783
5.68304
0.0255651
0.0270995
0.0254667
0.025299
3.6996
8.34802
0.0253989
0.0379365
0.262493
1.28681
3.35305
7.73669
0.183921
9.30137
0.0253966
9.31088
0.0282104
0.0253382
0.137764
0.0249539
0.261448
0.145162
0.0398197
0.0248577
4.16733
0.052692
0.0414734
0.0272219
3.14481
0.056245
0.0254661
3.40296
0.0285413
0.0291459
0.0621503
4.14382
0.0253014
0.0255454
0.0258484
0.0311207
0.0268759
1.61014
4.9165
0.0420519
0.0253392
0.165867
0.0394515
0.0279567
1.76495
5.18202
4.80227
0.0253636
8.9391
1.29919
0.0306506
0.0252846
0.0250969
0.0254106
5.40426
0.0255266
0.0246575
0.0251012
0.0540392
4.30105
0.0466522
0.0256712
0.115184
0.295111
37.9197
0.0249988
0.279098
0.0267249
0.0248042
0.0257439
0.0546683
0.111373
8.09378
0.319097
0.0251503
7.09722
0.0256763
0.0256769
9.18407
0.234109
0.025512
5.20285
0.0341479
1.48792
7.29255
0.0840261
0.0261372
0.025394
8.58042
0.0250732
0.0260821
0.031616
0.0252416
12.8406
0.0324058
0.0257169
7.37923
5.70549
0.0778272
0.241039
0.300447
0.0253372
4.33526
0.0263555
0.0254797
0.14066
0.0357306
0.0946222
0.134734
5.17645
0.0566069
0.025415
7.33607
0.109414
4.03758
0.0253951
0.348677
0.025345
0.0251467
12.6261
0.0378927
5.32995
0.024717
0.0270763
0.11225
5.08163
3.64651
0.0260444
5.08665
0.0250669
0.0263029
0.0277665
0.031046
0.0253837
4.97075
0.0275725
0.033944
0.0252469
8.53477
0.0268433
26.1674
1.00666
0.025071
0.186128
0.0653892
4.66563
0.0255182
0.0253066
0.0253979
6.3809
0.0252077
0.0737744
0.0252505
0.0392857
0.0251226
6.94199
0.0310885
0.0465424
9.72648
0.0248333
0.0811676
4.14616
0.31716
0.20058
0.025737
6.13947
0.0253173
0.0255439
0.0252808
0.0267494
0.0494412
5.65999
0.0247574
0.0297131
4.79742
6.12054
0.0253301
0.029632
5.34897
0.0254143
0.0284119
0.318275
0.0253287
0.0335293
0.0252921
0.0248601
0.0251596
8.61436
0.0429442
0.0251605
0.026506
0.0254728
0.0322661
0.0255385
0.031369
0.0253041
4.40328
0.203062
0.0254943
4.65069
0.0275423
11.1665
0.0283548
0.1025
8.77082
0.0246732
0.0454088
0.0253304
0.0256767
0.0253144
0.122172
3.6224
0.0249209
6.03043
0.218013
4.14356
0.0260468
0.0248661
0.0294115
0.0799218
0.0256458
5.63789
0.0252162
5.18543
0.0253103
0.0256393
0.0248239
8.86362
9.45832
5.79218
12.5
0.025602
0.925187
6.35169
4.17919
4.32652
0.0251422
0.044649
0.0299205
6.19524
0.0625966
0.958866
0.048175
6.65649
0.0255122
0.185381
0.20505
3.34978
5.00782
0.25779
0.0300947
0.104645
0.0329314
5.51956
0.339903
0.0255373
0.0451063
0.0580279
9.3861
0.0278472
4.11726
0.0250698
2.3194
0.0261443
0.0250252
0.0331767
6.5305
0.0250543
3.7801
0.0396661
0.0254863
0.0847177
0.0249997
0.0584697
6.30607
3.74989
5.482
0.0624434
0.0330039
8.97269
7.50114
0.0256768
4.16924
9.49105
0.319036
0.102231
0.0252212
0.0267592
0.0251111
0.031316
4.11451
0.0251092
0.0262699
0.0268071
0.0248262
0.223486
0.0633431
8.93864
0.0255584
0.0253339
0.0256704
0.024703
0.025455
0.218415
0.131153
6.8107
0.0247761
0.0843765
0.104648
0.0252027
0.0253991
0.0250306
4.12426
0.0473228
0.0301963
0.0252788
0.0248016
3.6731
0.0256457
0.0261015
0.0290735
8.02318
6.5915
0.0836615
0.0253349
0.0268559
0.0256612
0.0248414
0.0252006
7.77164
7.80409
4.44635
0.0251823
5.32756
0.0256167
0.991109
0.0254088
0.0277291
0.600407
0.0628148
8.72111
13.3544
2.48279
0.111494
0.0521042
4.07398
0.0520398
10.359
3.79319
0.160399
13.2645
0.0250955
10.3669
0.0250824
0.0391179
1.20816
0.381063
29.0317
0.261126
0.0350444
0.0265746
35.1964
14.9101
0.153261
9.03247
0.0264199
0.0254472
3.3811
0.0320334
4.01941
3.82067
0.026452
0.0255204
5.9558
0.0917312
0.269101
7.93147
0.0254454
0.123081
37.8213
0.0403278
0.0251769
0.0360671
6.62803
6.56019
0.0252156
0.981662
0.0252842
0.0254642
8.82968
0.0887437
0.0249931
0.0251804
0.0815089
7.93765
0.0362689
0.025327
0.140093
0.024935
0.0255661
1.666
0.0267045
0.0408363
9.78308
0.02511
0.0312479
0.0254405
5.68796
4.08692
0.103754
0.0255628
0.0342605
0.0944369
0.0256301
0.0255733
0.040597
0.0297875
3.51249
0.0250685
4.57442
0.0268631
11.1507
0.0804379
0.02535
8.36871
1.42324
0.0254036
0.0254611
0.18001
0.0572784
4.64351
0.0305163
0.0252063
0.0279967
0.063223
3.49431
3.70455
4.73711
0.694848
0.149949
4.41918
0.0254616
0.033006
0.059365
4.68889
0.0277537
0.205842
0.0254664
5.05095
0.0614754
0.0250313
0.0251352
4.31845
0.0255203
0.0268825
5.69762
0.0376429
0.0252201
0.0255345
7.23632
0.156672
4.49425
0.0417039
0.0247666
6.68042
1.31092
0.0270314
0.0339759
0.0249285
0.0252245
4.07993
5.02154
0.283455
0.368861
0.0247525
0.0247093
0.0467827
29.4794
0.025224
4.19437
0.0253351
0.02669
0.052013
0.243835
0.0252995
4.71939
2.18263
0.190822
26.6161
0.0697497
5.66785
0.0338383
0.0253365
0.686362
0.0249387
0.0324384
1.38743
0.0249305
0.0254327
0.0249524
0.0867049
0.0276429
5.66085
0.0253395
0.0555421
0.0251725
0.0256157
3.50845
0.0310803
4.15589
0.0253613
0.042416
9.22937
5.34269
0.0254081
12.6681
7.97676
0.0246996
4.24751
0.0274436
10.9285
0.165161
0.0297023
4.10633
10.4201
0.31751
0.160579
0.0262192
0.0406319
0.0411878
0.151787
0.0690499
0.0796304
0.0270704
0.0252203
0.0341336
0.0891638
0.0259417
0.0255166
0.0284053
0.148398
4.09745
5.5505
3.99762
5.56359
0.0408016
10.5654
18.1882
29.155
8.55467
0.171417
0.0333573
0.20604
0.0291184
0.0253614
0.0547311
5.62412
0.0267354
0.0252853
3.99468
0.110767
6.54939
0.0261991
0.0255513
0.223546
0.0256295
0.0260253
0.0252242
5.78479
0.0475013
0.035452
8.10174
0.0249171
0.296268
5.80715
9.39818
0.0247829
0.0251453
0.187212
0.259676
0.0247328
0.545614
0.0472899
0.557523
0.0253946
0.0250385
3.47777
5.51328
0.0635082
5.98537
0.0256821
14.3025
0.0399071
0.0250898
0.0251805
0.0779693
3.44526
4.83714
5.28716
0.180678
0.0285282
0.0562544
8.45879
6.34329
0.0249041
0.0256
10.2426
0.0253096
4.22173
0.0579563
3.83612
0.0788938
0.0256717
0.0599804
7.77841
0.0265801
0.0321721
0.0468519
0.0256301
0.770857
5.61724
6.01688
0.152838
4.24309
0.0254288
0.0252881
4.3794
0.025654
4.70513
0.0255975
6.52364
0.0309223
0.0258195
1.27999
0.134149
0.0252235
3.56939
0.0256394
0.0256075
0.0252352
0.0253439
0.0251698
4.96283
0.122645
0.0373706
0.0249854
0.188685
0.926868
5.92719
0.0279024
0.0430328
8.46306
0.0374725
8.1995
4.8058
0.0253986
0.179204
0.0891984
3.78333
0.297363
7.40937
5.49518
0.0350012
4.42188
0.0248097
1.20641
0.0262258
0.027969
0.0480432
0.293786
0.0529942
5.49062
0.0338172
0.0254644
0.20195
0.0336074
0.0854187
5.30025
0.024779
0.0246509
0.0252786
0.0287797
0.0281381
5.29475
0.0252264
4.1332
17.4633
3.98812
0.0255735
0.0487634
0.0289726
0.025414
0.0250464
0.0251245
1.76625
24.593
0.0256771
0.0251149
0.0250934
0.0253361
0.0650529
0.0250587
1.18216
0.0325036
3.35728
0.0542189
0.034791
4.3325
0.0632088
0.0254666
0.226021
0.0253166
3.48055
0.025336
7.4604
0.127473
0.0256248
0.0255646
0.0249424
0.0251637
0.264471
0.0253368
19.6457
0.0403469
4.15529
0.0313176
3.41751
0.0254098
1.15332
0.295876
0.0251358
0.0251426
2.41355
0.729669
0.0253998
7.34185
0.0569054
32.5799
0.0262792
0.0253929
0.111546
5.77442
0.144897
0.025201
0.0249811
0.0463938
4.12191
0.0247514
0.0253406
0.0253493
0.0811588
0.0255171
11.2542
4.11584
0.0633641
0.0254458
0.0255817
0.115181