/*--------------------------------*- C++ -*----------------------------------*\
| =========                 |                                                 |
| \\      /  F ield         | OpenFOAM: The Open Source CFD Toolbox           |
|  \\    /   O peration     | Version:  v2012                                 |
|   \\  /    A nd           | Website:  www.openfoam.com                      |
|    \\/     M anipulation  |                                                 |
\*---------------------------------------------------------------------------*/
FoamFile
{
    version     2.0;
    format      ascii;
    class       surfaceScalarField;
    location    "400";
    object      phi_0;
}
// * * * * * * * * * * * * * * * * * * * * * * * * * * * * * * * * * * * * * //

dimensions      [0 3 -1 0 0 0 0];
oriented        oriented;


internalField   nonuniform List<scalar> 
56134
(
-0.0528453
0.0525244
0.000320908
-0.00674718
0.00286103
0.00388615
-0.428296
0.257163
0.171133
-0.161747
0.144149
0.0175975
-0.00136898
-0.0106008
0.0119698
0.0416257
-0.105762
0.0641367
-0.0275607
-0.00956972
0.0371304
0.011922
-0.00771996
-0.00420207
-0.0014369
0.0014369
0.00457431
-0.00714857
0.0331892
-0.0897247
0.0565355
-0.22059
0.176653
0.0439371
0.01145
-0.10357
0.0921195
-0.0834293
0.0948793
0.0093814
-0.00942513
4.37256e-05
0.117473
-0.0300411
-0.0874322
-0.24496
-0.0869874
0.331947
0.00256047
-0.0109925
0.00843207
0.205957
-0.136207
-0.0697506
-0.0446976
0.0407341
0.00396353
-0.0434412
0.00972185
0.0337194
0.00230672
-0.0457479
0.0105762
0.0145837
-0.0251599
-0.399604
0.2486
0.151004
0.0686278
-0.0044108
-0.064217
0.0457414
0.0101195
-0.0558609
0.0305967
-0.0505325
0.0199358
-0.0792616
0.154478
-0.0752163
-0.1897
0.37837
-0.188669
0.0137301
-0.010298
-0.00343215
0.0914738
-0.0682632
-0.0232105
-0.00622953
0.00685597
-0.244403
-0.1552
0.00732681
0.0210218
-0.0283486
0.202094
0.0275521
-0.229646
0.129014
-0.373974
-0.304586
0.198068
0.106518
-0.0659735
0.0577012
0.00827224
0.0646358
0.0288663
-0.0935021
0.0577516
0.0248444
-0.082596
0.00343195
-0.00270148
-0.00073047
-0.0109241
0.00919867
0.00172541
-0.0011359
0.00151334
0.00757426
-0.00924056
0.0016663
0.26617
-0.165939
-0.100231
0.122462
0.0131701
-0.135632
0.0226513
-0.0726343
0.049983
0.0130087
-0.0417722
0.0287635
0.0550573
-0.0244606
0.0586036
0.0282092
-0.0868128
0.145771
-0.24353
0.097758
-0.147884
0.282197
-0.134313
-0.122899
-0.184784
0.307683
0.151995
-0.182893
0.0308983
0.0075276
-0.00427936
-0.00324824
0.179492
-0.302391
-0.0933351
0.0862464
0.00708873
0.0393478
0.113787
-0.153135
-0.0663232
-0.032199
0.0985222
0.0709945
-0.0499936
-0.0210009
-0.0029255
-0.00469845
0.00762395
0.0306894
-0.127343
0.0966541
0.0013635
-0.104933
0.0505432
-0.0852738
0.0347306
0.021309
0.0701648
0.0563
0.0123278
0.0622172
-0.0460945
-0.0161227
-0.214832
0.126379
0.0884528
0.070115
-0.194168
0.124053
0.05232
-0.0513931
-0.000926932
0.157853
-0.119426
-0.0384261
0.00802542
-0.00802542
0.144018
0.0430744
-0.187092
0.025384
-0.108813
-0.156911
0.0776499
-0.249263
0.278589
-0.0293259
0.0855573
-0.0278057
-0.0739912
0.0634827
0.0105085
-0.051688
-0.00115726
0.0502518
0.0236935
-0.0739453
-0.109305
-0.124205
0.23351
-0.403713
0.214013
0.0440184
-0.0307001
-0.0133183
0.0762008
-0.122848
0.0466472
-0.258193
0.18949
0.0687027
-0.00158413
0.000448227
0.0664948
0.0881135
-0.154608
0.0230862
-0.0654989
0.0424127
0.0180393
-0.0951728
0.0771336
-0.0721365
-0.00441558
0.0765521
-0.0554162
-0.0105573
-0.00910818
0.0109656
-0.00185738
-0.0212474
0.0435093
-0.0222619
-0.0145814
-0.0114325
0.0260138
-0.063714
0.130209
0.0361617
-0.0171629
-0.0189989
0.142272
0.0515653
-0.193837
0.214549
-0.0687771
0.00161351
-0.00168763
7.41172e-05
0.247138
-0.374073
0.126935
0.031679
-0.0622375
0.0305584
0.167039
0.0475098
0.095312
-0.0447688
0.00907445
-0.00651397
0.0675767
-0.0454059
-0.0221709
0.335552
-0.071011
-0.264541
0.003651
0.0100791
-0.00595202
0.00401371
-0.0182818
-0.0465394
0.0648212
-0.135794
-0.0847957
-0.00540173
-0.0392959
-0.0462154
0.122416
0.00698303
0.0228503
-0.0298333
0.0774232
0.0367307
-0.114154
-0.0801229
-0.0132122
0.0970682
-0.0324324
-0.130772
0.00181989
0.128952
-0.217485
0.149159
0.0683257
0.0421919
0.0182614
-0.0604534
0.0013404
-0.000711803
-0.000628593
0.213058
0.116859
-0.329917
-0.112153
0.196456
-0.084303
-0.0280618
0.106325
-0.078263
-0.00930474
0.00793576
0.00717027
-0.00925712
-0.181479
0.0507068
0.0471615
0.027557
-0.0747185
-0.264322
0.170179
0.0941431
-0.062996
0.0939738
-0.0309778
0.198504
-0.130119
-0.0683855
0.0767198
-0.0344688
-0.042251
-0.0149026
0.0678279
-0.0529252
-0.000445506
0.000306802
0.000138704
0.327745
-0.179736
-0.148009
-0.0466886
-0.0218176
0.0685062
-0.0609556
0.308094
-0.146599
-0.0969305
-0.0815108
0.1122
0.00591308
-0.00701014
0.00109706
-0.0183832
0.0669118
-0.0485286
0.241343
-0.039249
-0.0139876
0.047808
-0.0338204
0.00591308
0.00296951
0.000462437
-0.0359626
0.17998
0.0406891
0.0215281
0.137106
-0.0559789
-0.0811273
0.0301608
0.0902386
-0.120399
0.0318208
0.0121975
-0.33794
0.284967
0.0529728
0.00228402
-0.00233633
5.23146e-05
0.137272
0.0612323
0.117487
-0.0910416
-0.0264458
0.0368322
0.0260462
-0.0628784
-0.0886774
0.0468369
0.0418405
0.0152288
-0.353168
-0.0520295
0.0380419
0.0627057
-0.0205138
0.0151764
0.136818
0.00065464
-0.00713217
0.00647753
-0.0863608
0.0233648
-0.0753906
0.0365018
0.0388888
0.0206641
-0.0241131
0.00344903
-0.00134578
0.00188599
-0.000540212
-0.134691
0.0171432
0.117548
0.155495
0.178477
-0.333972
0.15343
0.111052
-0.264482
-0.0038632
-0.00278376
0.00664696
-0.031607
0.0989307
-0.0673237
-0.098303
0.0495055
0.0487975
-0.0416231
0.0625386
-0.0209156
-0.317371
0.101189
0.216182
0.00046899
0.00127022
-0.00173921
0.0614371
-0.174701
0.113264
0.197694
-0.127579
0.119408
-0.0814688
-0.0379394
0.0167841
0.0507927
0.0218373
-0.0174802
0.013699
0.00378125
0.0679139
-0.0558235
-0.0120904
0.00114818
0.000192217
0.22885
-0.0892713
-0.139579
-0.326928
0.142144
0.153194
-0.059326
-0.0938684
-0.364257
0.182043
0.182215
0.035502
-0.0751766
0.0396745
0.106901
0.121949
-0.0885456
0.12501
-0.0364645
-0.0747251
0.0563419
0.00882611
-0.0118417
0.0030156
0.0877691
-0.0291655
0.185346
0.178223
-0.0495628
-0.12866
0.00451081
-0.00936528
0.00485447
-0.0421604
-0.0316469
0.0738073
-0.0201824
0.00308571
0.0170967
-0.115
0.208307
-0.0933072
0.183124
0.129727
-0.312851
-0.188644
0.342064
-0.15342
0.141632
0.0162205
0.00530551
-0.00530551
0.0921647
-0.0589755
0.00938609
0.0108087
0.0571052
-0.000179222
-0.000266283
-0.160814
-0.203444
0.159865
-0.0984276
-0.0386668
-0.00993021
0.048597
0.188578
-0.300133
0.111554
-0.0550927
0.0822973
-0.0272046
0.0122997
-0.0509665
-0.00276502
-0.00398216
0.108067
-0.328401
0.220334
-0.107066
-0.110419
0.0724281
0.112907
-0.185336
0.0737716
-0.0441934
-0.0295782
0.0241996
0.0239869
-0.0481865
0.26428
-0.14248
-0.1218
0.291912
-0.183845
0.0789973
-0.0561213
-0.022876
0.016003
-0.0305844
0.00149113
-0.00351356
0.00202244
0.110807
-0.177493
0.0666859
-0.112283
0.200551
-0.0882678
-0.239874
0.130569
-0.00318935
-0.00318181
0.00637116
-0.00224857
0.0033866
-0.00113803
-0.0280323
0.0751938
-0.0452993
-0.0341913
0.0794906
-0.0286444
0.0603234
0.0550162
0.107035
-0.162051
-0.0151677
-0.0143687
0.0295364
0.0267457
0.0438714
-0.0706171
0.0604741
0.0567383
-0.117212
0.0178057
-0.0594288
0.0557019
-0.0326157
-0.176661
0.362214
-0.185553
0.00719367
-0.00358324
-0.00361042
-0.0101439
-0.124547
-0.0946995
0.0572042
0.0374953
0.0390695
-0.0272705
-0.011799
-0.205788
-0.111583
-0.0782663
0.0389494
0.0393169
0.0610021
-0.0438115
-0.0171906
0.0967927
0.169378
0.22486
0.0368096
-0.26167
-0.36275
0.103473
0.259277
0.102766
-0.315481
0.212715
-0.0680264
-0.0302767
-0.358505
0.196202
0.162303
0.228413
-0.339799
-0.389452
0.145049
0.0496957
-0.236478
0.186782
0.00299367
0.00519621
-0.00818989
-0.171273
0.091651
0.0796224
0.0767548
-0.185803
0.109049
-0.127002
0.147377
0.112215
-0.259592
0.00930953
-0.032022
0.0227125
0.00085655
-0.00337324
0.00251669
0.0668356
-0.0300035
0.155024
0.0231992
0.00654473
-0.00123922
-0.207354
0.0952014
-0.00911949
0.00619399
-0.0485094
-0.0220493
0.0705587
0.0709788
-0.0483274
-0.123097
0.0950355
-0.107904
0.211021
-0.103118
-0.0157815
-0.0044009
-0.000305767
0.000126545
0.200752
-0.128324
0.00904801
-0.0172894
0.00824136
-0.0720312
0.0324322
0.039599
-0.232343
-0.157109
-0.0381549
-0.0430844
0.0812393
-0.0242658
0.0315926
-0.219941
-0.0321766
0.252117
0.0486983
0.0222962
-0.234911
0.244958
-0.0100472
-0.231559
0.138431
0.0931281
0.000195734
4.60263e-05
-0.00024176
0.00856299
-0.00139272
-0.338693
0.274746
0.0639471
-0.0467616
-0.0154683
0.0622299
0.00129793
0.223562
0.161177
-0.19714
0.242923
-0.347328
0.104405
-0.0945186
0.0492542
-0.00410528
-0.0451489
-0.0912614
0.267842
-0.176581
-0.0590121
-0.0330352
0.0920473
0.00871677
-0.00871677
0.299756
-0.120264
-0.150985
-0.113337
-0.146831
0.0582854
0.075343
-0.049816
-0.0255269
-0.00573909
0.00675794
-0.00101885
0.180318
-0.088667
0.030615
-0.0020293
-0.0285857
0.07261
-0.131622
-0.0071646
0.000935064
-0.261436
0.0121729
0.0360985
-0.0630515
0.0269531
0.00621901
-0.0016447
0.0846596
0.0525831
-0.137243
-0.358041
0.0185736
0.339468
-0.18151
0.0620839
-0.00185733
-0.00084415
-0.373981
0.168193
0.0642499
0.0153928
-0.0796426
-0.00648968
0.00948335
0.00493481
-0.00491085
-2.39593e-05
-0.0442887
-0.0317208
0.0760095
-0.102814
0.315872
0.00234599
-0.00428983
0.00194385
-0.0968386
0.0998635
-0.00302489
0.141151
0.0648058
-0.0342763
-0.00316571
0.037442
0.000195734
0.07385
0.0038446
-0.0776946
-0.00027827
0.00176939
0.0806425
-0.0321687
-0.0484738
-0.0756681
-0.105842
0.0334641
-0.0649944
0.0315303
0.0513943
-0.0222076
-0.0291867
0.00833742
-0.00774322
-0.0005942
-0.147654
-0.035904
0.183558
-0.267537
-0.0517544
0.319292
0.0699595
-0.0524624
-0.0174971
-0.333909
0.157248
-0.28007
-0.0741421
-0.157417
-0.00283978
0.0845854
-0.295596
0.211011
0.232078
0.0956665
0.0971543
0.00086615
-0.0980204
0.222538
-0.0813863
0.162022
-0.335982
0.173959
-0.107208
0.0727632
0.0344444
0.353098
-0.349671
-0.00342668
0.0753663
0.0329469
-0.108313
0.0259121
-0.00524799
0.00527731
0.118633
0.011037
-0.12967
0.0585284
0.0114311
-0.00150157
-0.0327747
0.100026
-0.319966
0.00182981
-0.00192328
9.34651e-05
0.135335
0.00177162
-0.00305945
-0.000454113
-0.00217627
0.0240944
-0.0219181
-0.216253
0.0804589
-0.149228
-0.0656041
-0.00145282
1.59201e-05
-0.0700886
0.00785112
-0.176462
0.0181008
0.0608964
-0.212797
0.0977969
-0.00317978
-0.0170231
0.0202029
0.0155962
-0.00535225
0.0873124
-0.0819601
0.00329715
-0.000966842
-0.0023303
-0.00231095
0.00385987
-0.0320171
0.0254674
0.00654966
-0.00573434
0.00254499
0.0363239
-0.0636089
0.0272851
0.130205
-0.116986
-0.0132187
-0.147168
0.0625373
0.0846306
0.130826
0.153309
-0.284136
0.10075
-0.0408852
0.0196378
-0.0531445
0.0947702
-0.00377833
0.00377833
0.049436
-0.0977011
0.0482651
0.28127
-0.262824
-0.0184459
-0.0314343
-0.0665552
0.0979895
-0.356492
0.00196394
-0.00201317
4.92379e-05
0.0306505
-0.0238041
-0.0068464
0.198003
-0.0368255
-0.0666778
1.55045e-05
-0.000321272
0.0797674
0.0304221
-0.110189
-0.00459538
0.00725347
-0.00265808
-0.118627
0.107621
0.0110058
-0.0145896
-0.055499
0.0582051
0.0292236
-0.0874287
0.0361701
-0.00555504
0.137024
-0.287913
0.150889
0.0645218
-0.299433
0.00468132
-0.0089927
0.00431138
0.108356
-0.375894
-0.219428
0.0532721
0.166156
-0.0310309
0.109991
-0.0789601
0.0789266
-0.0608874
0.0048142
-0.00229964
-0.00251456
0.0101039
-0.00344341
-0.00666045
0.0429067
-0.134819
0.0919122
-0.00930414
-0.348737
0.00327961
-0.000933626
0.032265
-0.0873576
0.306309
-0.169284
0.096563
0.0917926
-0.188356
0.328421
-0.012981
-0.31544
-0.0416696
-0.0118484
0.053518
-0.25435
-0.119631
0.00445529
0.00273837
-0.0242003
0.037209
-0.00112354
0.00159253
0.0348634
0.0165309
-0.0853173
0.128224
0.0334168
-0.0867765
0.0533597
-0.0944963
0.149512
-0.0784554
0.215302
-0.136846
0.071703
-0.0230047
0.0063786
0.00372527
0.00778308
-0.00838852
0.000605441
-0.311383
-0.0513672
-0.389079
0.15103
0.238048
-0.000438913
-0.000755978
0.00119489
-0.0982409
0.0666339
0.0584477
-0.0307185
-0.0277292
0.0582932
-0.0221947
-0.0754767
0.3184
-0.0136674
0.0178802
-0.00421287
0.198969
-0.115238
-0.08373
0.0250802
0.0480253
-0.0731055
0.0306508
0.0535257
-0.0841765
-0.00714107
-0.0344643
0.0416053
0.108072
0.103185
-0.211256
-0.0629822
0.0144729
-0.0461971
-0.115549
0.0430142
0.0851071
-0.128121
-0.00157485
0.00113594
0.0615622
-0.162479
0.100917
0.000665467
-0.000765748
0.000100281
0.0205503
-0.0115023
0.13375
-0.0584251
-0.0753245
-0.163763
-0.170146
0.0994893
0.0403907
-0.13988
0.00833955
-0.0561881
0.0478486
-0.06787
0.10476
-0.0368904
-0.0172053
-0.0797079
0.0969132
-0.127966
0.271224
-0.143258
0.142365
-0.252836
0.110471
0.00293
-0.00207345
0.0213524
-0.0755951
0.0542427
0.0273069
-0.101917
0.0746104
-0.037034
-0.0337779
0.070812
0.0182149
-0.116202
0.0979873
0.25913
0.02214
0.120437
-0.105867
0.253244
-0.0975117
-0.0745134
0.172025
-0.0900931
-0.171491
-0.133095
-0.299502
-0.0895771
-0.00952595
0.000787118
0.00873884
0.249082
-0.130525
-0.118557
-0.047719
0.158526
-0.103459
0.0981067
0.0280779
-0.0702383
-0.0656158
0.0260303
0.0395855
0.00196646
-0.000258121
-0.00170834
-0.00475728
0.00658746
-0.00183018
-0.205171
0.145041
0.0601302
-0.0592178
0.0923887
-0.0331709
0.00189808
0.00122468
-0.00312276
-0.064809
0.228997
-0.164188
-0.0462545
-0.0755676
0.121822
0.231763
-0.123692
0.287242
-0.319418
-0.252169
0.175386
0.0767826
-0.112783
0.0786639
0.0341191
0.111094
-0.228913
0.117819
-0.106313
0.0563097
0.0500037
0.00946298
-0.0108369
-0.0674454
-0.0493344
0.11678
0.176764
-0.282632
-0.147582
0.278408
0.112898
0.103576
-0.216474
0.0444885
-0.140501
0.0960122
-0.16029
-0.0055
0.00860635
-0.00310635
-0.238221
0.14696
-0.102686
0.0696505
0.070632
-0.0525594
-0.0180726
-0.0102467
0.0278668
-0.0176201
-0.221558
0.156479
0.065079
0.00221199
0.00260221
-0.0116388
0.108793
-0.0298616
0.0858731
-0.0560115
0.0309874
0.136051
-0.0819588
-0.0252489
0.00176749
0.000200926
-0.00196842
0.288116
-0.185349
0.0901186
-0.0719038
0.0544114
0.0793382
-0.104633
-0.0139943
0.0374513
0.015073
0.0689408
-0.0475884
-0.0013528
-0.000222056
-0.00786778
0.0485569
0.0265032
0.103702
0.0717902
-0.112097
0.0403071
0.030745
0.00860244
-0.00862855
2.61066e-05
-0.141227
0.236351
-0.0951244
0.0813108
-0.243376
0.164921
-0.122302
0.233396
0.00106295
-0.00331152
0.103717
-0.0319272
0.085028
-0.197372
0.112344
0.0811143
-0.05044
-0.0306744
-0.00332814
-0.00129623
0.00462437
0.0947647
-0.175446
0.0806811
0.00556827
-0.00556827
-0.120236
0.0892051
0.00300584
-0.0043909
0.0837026
-0.0472277
-0.0364749
-0.218139
-0.033967
0.252106
0.00709219
0.192095
-0.107067
-0.0583996
-0.0757783
0.134178
0.0437536
0.023082
-0.013839
0.0185967
-0.0047577
0.0411134
-0.0586858
0.0175723
-0.0899039
0.0636683
0.0262355
0.00674482
0.0937123
0.0422449
-0.135957
0.0695772
-0.0258236
0.0224446
-0.0667333
-0.320999
-0.017303
0.338302
-0.112295
0.27945
-0.167155
-0.143718
-0.114475
0.0121282
0.037126
-0.208213
0.143404
-0.244268
-0.00651663
0.250784
-0.0541397
0.0856597
-0.03152
-0.126064
0.0676643
-0.0216225
0.0184427
-0.0643434
0.0273094
-0.00429488
0.00096674
-0.188569
0.042999
0.14557
-0.146582
-0.0157847
0.162366
0.00581373
-0.000878802
-0.00493493
-0.0474687
0.0742488
-0.0267801
0.0803612
-0.40136
-0.104269
0.144619
-0.0403503
0.09282
-0.065513
0.0226141
0.264628
-0.0426935
-0.052006
-0.00143939
0.00792177
-0.00648237
-0.0903304
-0.241141
0.290836
0.049816
-0.0680978
-0.0120528
-0.0129015
0.0249543
0.0846566
-0.0264515
-0.0214207
0.0588721
-0.000325409
0.000235688
8.97212e-05
0.064698
0.0134569
-0.0781549
-0.283411
0.171115
-0.000720517
-0.00743879
0.00815931
0.0594264
-0.150115
0.0906887
-0.0467993
-0.0451256
0.0919249
-0.0779847
-0.141443
-0.0246211
0.0143744
0.040965
0.0173282
0.390855
-0.213459
-0.177396
-0.00997296
0.000864784
-0.157159
-0.0238681
0.181027
0.168597
0.186698
0.077582
0.200661
0.0786583
-0.279319
-0.00644213
0.00352961
0.00291252
0.00254107
-0.000322374
-0.0022187
-0.131067
0.27509
-0.144023
-0.139946
0.295441
-0.0153959
-0.0880631
0.0775374
-0.0784317
0.000894251
-0.00941587
0.0336154
-0.0436351
-0.023904
0.0675391
0.00839646
-0.0486916
-0.011595
0.0602866
-0.00860198
0.00501874
0.00765172
-0.0031409
0.00479332
-0.00877639
0.00398308
0.0650198
-0.211601
-0.370741
0.138398
0.151705
-0.0297331
-0.121971
-0.0057232
0.00640433
-0.000681132
0.0866856
-0.0093674
0.210028
0.175241
-0.0399807
0.0170568
0.0229238
-0.00976781
0.000241856
-0.335366
0.197478
0.137887
-0.0225939
0.160126
-0.137532
0.373639
-0.174376
-0.199263
0.000492464
0.00112105
-0.0225595
0.0999295
-0.07737
0.0263681
-0.00962133
-0.0167467
0.0744151
0.126136
0.0614022
0.0185989
-0.0800011
-0.162167
0.106188
-0.0537559
0.0871727
-0.0229448
0.0967949
0.130451
-0.319095
-0.00598156
0.00025836
-0.0831276
0.077779
-0.0562654
-0.0215136
0.0762156
0.10129
-0.177506
-0.0518181
0.146583
-0.106166
-0.0753134
-0.0085223
0.00220008
0.00632222
0.00627831
0.00564372
0.00912842
-0.00557665
-0.00355177
0.0885581
-0.306697
0.00693515
-0.0206025
0.00258805
0.00249811
-0.00508615
0.110855
-0.00679072
-0.00257455
0.0195053
-0.0662669
-0.00210404
0.0663539
-0.206884
-0.163858
-0.074315
-0.11702
0.191335
-0.0998992
-0.0431487
-0.0288825
0.0284476
-0.0179778
-0.0104698
0.108527
-0.104386
-0.00414098
-0.00242906
-0.00401307
-0.124567
-0.182622
0.307189
0.145458
-0.234585
0.0891267
-0.0340471
0.106657
-0.0419996
-0.0710325
0.113032
-0.124699
-0.110736
0.235436
-0.00277483
0.0076555
-0.00488067
-0.14514
0.119872
0.0252683
0.0249293
-0.072398
-0.0283556
0.0204542
0.00790143
0.00466013
-0.00466013
0.000747566
0.00153645
7.92892e-05
-0.00118953
0.00111024
-0.0430538
0.0625439
-0.0194901
0.0634379
-0.220596
-0.0752157
-0.208195
0.125602
-0.0862546
-0.113095
-0.0543375
0.167433
0.0327677
-0.0887671
0.0559994
0.000535952
-0.00129193
-0.221969
0.00882611
0.0529779
-0.0736357
0.0206578
-0.00747595
0.00470112
0.0424071
0.101742
0.026791
0.0122785
-0.103878
0.0690926
0.0347851
0.0234261
-0.0265918
0.171011
0.0266822
-0.319744
0.0564175
0.0234803
-0.0798978
0.141616
0.0518091
-0.193425
-0.120712
-0.026456
0.0401654
0.0182823
0.0748133
-0.0446327
-0.0301806
0.000865189
0.000953645
-0.00181883
0.0730418
-0.052793
-0.0202488
0.00100213
-0.00643344
0.00543131
-0.00747063
-0.00105167
0.105668
-0.0248611
-0.0808065
0.139876
-0.00629899
0.000317428
0.306242
-0.127765
-0.0722522
0.0525995
0.0196528
-0.00979013
0.00509168
0.340597
-0.352476
0.0118789
-0.151018
0.135271
0.0157475
0.060496
-0.019531
-0.00314629
0.0404131
0.107469
-0.147882
-0.223213
-0.205082
-0.044303
0.017915
0.026388
-0.00658188
0.00658188
-0.0042198
0.00731419
-0.00309439
-0.24484
0.0590369
-0.00738001
0.0082452
-0.075202
0.177018
-0.101816
-0.0408201
0.0616608
-0.0208407
0.115905
-0.0868423
-0.0290628
-0.100591
0.18053
-0.079939
0.042729
-0.0657016
0.0229726
-0.00205374
0.00385422
-0.00180047
0.148652
0.0876996
0.117542
-0.181728
0.0641857
-0.15551
-0.0893306
-0.267281
0.160674
0.106608
0.0672345
-0.0317324
0.0121346
-0.0135767
0.00144211
0.00559188
-0.0046169
-0.000974974
-0.00153937
-0.00576062
0.00729999
0.315361
-0.154421
-0.16094
0.000265093
0.00227598
0.0843655
-0.126365
-0.0391719
-0.0475159
-0.0203358
0.0678517
-0.185864
0.130524
0.0553396
-0.00421009
-0.00671399
0.127649
0.000105184
-0.127755
-0.0928947
-0.0369836
0.129878
-0.0342484
0.0126259
0.0413368
0.0397775
-0.00330747
-0.0649558
-0.017932
0.0455831
-0.0276511
-0.0576471
0.0138356
-0.00406859
0.0744668
-0.0703982
-0.00965169
0.00980796
-0.000156266
0.0192217
0.0762031
0.0664165
-0.14262
-0.0240266
-0.0102218
-0.0339448
-0.0441465
0.0780913
0.0790673
-0.113114
0.0911976
0.00843635
-0.099634
-0.0521233
-0.0311049
0.0832281
0.0120274
0.118198
-0.081467
-0.0504074
0.0754876
-0.060672
-0.0292319
0.0242018
0.0604405
-0.0846423
0.207774
-0.0911913
-0.116582
-0.0207078
-0.0998726
0.12058
-0.0863795
0.0565179
0.175101
-0.109411
-0.0656903
-0.0898274
-0.126426
0.186363
-0.0933914
-0.092972
-0.242722
0.0872128
0.0717703
0.0827076
0.0196519
0.0173079
-0.0329661
0.0156582
-0.204759
0.0895205
-0.226123
0.109484
0.116639
-0.0172745
-0.051375
0.0686496
0.00433798
-0.0072618
0.00292382
0.354544
-0.0189915
-0.115582
0.100186
0.0572721
-0.000681458
-0.0565907
0.0181696
0.319809
-0.371563
0.0758838
0.0930691
-0.168953
0.136494
0.0386069
0.0505083
-0.0867649
0.0362566
-0.152009
0.0723994
0.0796094
0.125223
-0.220715
0.0954922
-0.0707093
0.229967
-0.159257
0.0019985
-3.20443e-05
0.00352286
-0.00771703
0.00419417
0.0126625
-0.0626561
0.0791729
0.0245445
-0.00563706
0.325446
-0.0901467
-0.209355
0.0503004
0.0463006
-0.096601
-0.0450639
0.221828
0.294863
-0.141433
-0.113955
-0.0370632
-0.00134227
0.000696815
0.000645451
-0.0291248
-0.0691161
0.0018004
0.0284273
-0.0302277
0.190137
0.140319
-0.330456
-0.105622
-0.0395178
-0.0191581
-0.0252864
0.0444445
-0.0170303
0.00319127
-0.0202532
0.00713217
0.000893259
-0.0284598
0.0553495
-0.0268897
0.0251371
0.00551335
-0.327309
0.155818
-0.28212
0.191974
0.00258349
-0.00688432
0.00430083
-0.0602676
0.0642251
-0.00395754
0.100284
-0.0311916
-0.029791
0.079227
0.00837947
-0.0174432
0.00906377
-0.0056815
-0.000617487
-0.0370152
0.00945458
-0.0671492
-0.115744
0.0266657
-0.068148
0.0414823
0.00706044
-0.00272246
-0.0804855
0.12839
-0.0479046
-0.0175804
-0.00519781
0.0227783
0.099157
-0.0307549
-0.068402
-0.0236164
-0.0511088
0.00554835
-0.00536216
-0.000186195
0.0113956
0.0511492
-0.0625449
-0.0341791
-0.0525973
0.117505
-0.0318058
0.0465606
-0.0147548
-0.0538065
-0.172317
-0.00255324
0.00263253
0.0422694
-0.146538
-0.34982
0.186057
0.0812321
-0.181781
0.100549
-0.247682
0.172466
-0.00927218
0.0102384
-0.000966209
-0.154393
-0.125678
0.0957782
-0.0680848
-0.0276934
0.0912875
-0.00334936
0.0808868
-0.0387558
0.0697239
-0.0309682
0.102572
-0.0233996
0.102629
-0.250513
0.00395379
-0.00182762
-0.00212617
0.0296167
-0.0226336
0.332858
-0.195025
-0.137833
0.234021
-0.0853688
-0.00740444
0.0190255
-0.0116211
-0.0982174
0.0690926
-0.0381884
-0.0476126
-0.0182953
0.0659079
-0.17948
0.0943254
0.0851541
0.115503
0.00749765
-0.123
-0.255003
0.193933
0.0610701
-0.024393
-0.0509976
-0.00445193
0.00307966
0.00137227
0.00480841
0.00088328
-0.00569169
0.00233523
0.00161856
-0.0542928
-0.00597472
0.0663416
0.0294366
0.0528613
0.0614123
-0.0500167
0.039005
0.0820286
-0.121034
0.0133268
-0.0325448
0.019218
-0.0030169
-0.000846297
0.0784
-0.0254221
-0.185835
-0.062794
0.248629
-0.0905339
0.117037
-0.00876074
0.0217567
-0.0129959
-0.0968187
0.172702
0.0241116
0.0228302
-0.0469418
0.00545542
-0.00445329
0.0207552
0.056666
-0.0774212
-0.278695
0.120726
0.157969
0.0539369
-0.0416372
-0.180491
0.105289
0.0802258
-0.062641
-0.0175848
-0.139761
-0.102961
0.0217185
-0.0255026
-0.00716507
0.0326677
0.140013
0.0899806
-0.229993
0.101088
-0.0767991
-0.0242887
-0.10371
0.0811503
-0.234609
-0.084128
0.318737
-0.0689336
0.105102
-0.0361682
0.00878414
-0.00526128
-0.0291235
-0.0727938
0.0960243
0.0214632
-0.0061549
0.000415811
0.0932028
-0.0426945
0.139902
0.10036
0.00812491
-0.108485
-0.23622
0.16551
0.072315
-0.0395473
-0.1897
-0.0653028
0.12904
0.123592
-0.252631
-0.00377107
-0.00167695
0.00544802
-0.126897
0.0351674
0.0917301
0.0637057
0.0401461
-0.103852
-0.0631848
0.15453
-0.0913451
0.22808
-0.143494
-0.155439
0.0922546
-0.158427
-0.122492
0.280918
-0.00547773
-0.0228779
-0.0111853
-0.0097048
0.0208901
-0.125042
-0.0128634
0.137905
0.00999023
-0.00216928
-0.00189091
0.00406019
0.148774
0.21344
-0.0166131
0.0664292
0.274172
-0.149508
-0.124664
0.0884976
0.119276
-0.337674
0.332037
-0.0920729
-0.0495356
0.141609
0.00357933
-0.00168125
-0.0514901
-0.0427145
0.0942045
-0.00521174
-0.00662997
0.175047
-0.0575047
0.122231
0.00369457
-0.125925
-0.0347223
-0.0337006
0.0684229
0.0104627
-0.029675
0.0192123
0.262708
-0.296675
0.1219
-0.0966018
-0.0252979
0.00512717
-0.00437683
-0.000750337
-0.00192096
0.00239776
-0.0004768
-0.346978
0.00342166
-0.00233102
-0.00109065
-0.0145924
-0.0928572
0.10745
0.0712719
0.00895383
-0.0233839
0.101724
0.00869049
-0.00869049
0.0483384
-0.100462
-0.107355
0.210931
-0.0559896
0.181212
0.16296
0.179104
0.00456068
0.11767
0.032056
-0.157098
-0.00284938
0.000538429
0.0215565
0.0139602
-0.0355167
0.0658987
0.0441766
-0.110075
-0.0582003
0.0629791
-0.00477876
0.055141
-0.048653
-0.00648795
-0.0292274
0.105969
-0.123542
0.0175737
0.312825
-0.18625
-0.126576
0.109393
-0.0164272
0.00582641
0.130573
-0.114121
-0.016452
-0.103742
0.0746185
0.14063
-0.0516169
-0.0890136
6.39957e-05
0.00548435
0.0629255
-0.0473714
-0.0155541
0.132524
-0.045255
-0.0872691
0.0370351
0.0663419
-0.12611
0.0597679
-0.00780093
0.00346874
0.00433219
0.00387968
0.258828
-0.0196153
0.0108546
-0.195302
0.206884
-0.0115826
0.00980235
-0.0767327
-0.0404061
0.117139
-0.0384919
0.0556346
-0.0171426
0.0247489
0.0907536
0.0558041
-0.000663159
-0.0210215
0.0713219
0.0682081
-0.0567278
-0.0114803
-0.0484824
0.223906
-0.175424
-0.0288404
-0.0313623
0.0602027
-0.0531598
0.0611701
-0.0080103
0.0776979
0.0274039
-0.276726
0.0421163
0.0282949
0.0580879
-0.0863829
-0.00475822
0.00689338
-0.00213517
-0.0130728
-0.0475058
0.0605785
-0.221266
0.364613
-0.143346
0.0966526
0.002108
-0.0269299
-0.0386859
0.0567805
0.0101313
-0.114709
-0.0560679
0.170777
0.0393979
-0.107268
0.230217
-0.407412
0.177194
-0.0199627
-0.0575066
0.0774693
-0.0414124
0.063208
-0.0217956
0.0171569
-0.00874557
-0.0084113
-0.118368
0.0976605
0.0428179
-0.0686327
0.0258147
0.00284199
-0.0520873
0.0492454
0.183406
0.0459929
-0.229399
-0.201449
-0.136854
0.338303
-0.0418477
0.0694047
-0.0266259
0.210032
-0.266711
0.0685573
0.198154
-0.131465
0.198249
-0.0667838
-0.0242561
0.067074
0.024249
0.0431827
-0.0674318
0.106323
-0.0286251
-0.124279
0.251746
-0.127467
0.111747
-0.270174
0.166819
0.081036
-0.120916
0.0398801
0.142508
0.0915124
-0.0260247
0.0907226
-0.00325303
-0.0065371
-0.103403
-0.00438804
0.00419103
0.132423
-0.204855
0.0724318
0.00718279
-0.00652815
-0.00767747
-0.0164357
-0.0583965
-0.068501
0.15305
-0.0905129
0.0363239
-0.0493985
0.0130747
0.182182
-0.197966
-0.00195225
0.00252324
-0.000570988
0.029331
-0.225561
0.19623
-0.0310217
0.0675236
-0.120711
0.0301774
0.00459457
0.137021
-0.0200343
0.00602405
0.0140103
0.0605468
-0.0778214
-0.226529
-0.0259618
0.252491
-0.0312007
-0.0238886
0.0550893
-0.0497736
-0.0630094
-0.0988239
-0.0476246
0.146449
0.0683987
-0.164818
0.0964198
-0.00472876
-0.00293277
0.00766153
0.0214026
-0.0921792
0.0707766
0.00789007
-0.00958059
-0.082647
0.21507
0.0157624
0.029833
-0.0455954
-0.00207108
0.056544
-0.054473
-0.00112341
-0.00056422
-0.168551
-0.181269
0.0876914
0.0379342
-0.125626
-0.241831
0.13181
0.110021
-0.0030756
0.000906322
-0.0316168
0.0230473
-0.0137725
-0.00927478
-0.000534624
0.00534304
0.270427
0.0622381
-0.332665
-0.0904669
-0.0330755
-0.149996
0.117605
0.0323912
-0.00804775
-0.0436174
0.0679866
-0.0243692
-0.121489
0.0536979
0.0677913
0.0970325
-0.053127
-0.0439055
-0.20013
0.0240809
0.17605
0.116846
-0.0509472
-0.111287
-0.130544
-0.15385
0.199843
-0.135357
-0.116812
-0.13898
-0.0661911
0.00272078
-0.00793252
-0.226756
0.0587322
0.0259176
-0.0846498
0.0638316
-0.037166
0.0811465
-0.234996
-0.0941228
0.36455
-0.0238306
0.0614927
-0.0376621
-0.0131897
0.0547852
0.0289477
0.222636
-0.0515601
-0.171075
0.00140846
0.0015804
-0.00253801
0.000957608
0.178211
0.0747271
-0.252938
-0.0413324
0.0617934
-0.020461
-0.031387
-0.0241452
0.0555323
-0.112894
0.0102085
0.0316691
-0.016361
-0.015308
-0.0883058
0.029088
0.209567
-0.0670586
-0.0710416
0.024353
-0.0324188
0.0172511
-0.0481208
-0.101875
0.0301542
-0.0767059
0.0486736
0.0411685
0.0425341
0.0827417
0.0272492
-0.305981
0.166035
0.0718729
-0.0511177
-0.0845708
0.0377715
-0.0175439
0.0709343
-0.0533903
-0.135471
0.00253136
0.00499624
-0.0777267
-0.0302849
0.0137979
0.016487
0.15289
-0.0912349
-0.0616552
-0.142027
0.229943
-0.0879154
0.227864
-0.361304
0.13344
0.125123
0.109587
-0.23471
0.345835
-0.175862
-0.169973
0.194019
0.13099
-0.325009
-0.0397619
-0.0728798
0.112642
-0.000355774
3.03648e-05
0.0966859
-0.0227578
-0.0739282
-0.0692063
0.140977
0.0693421
-0.100447
0.0942722
-0.00364626
-0.090626
0.169706
0.0793754
-0.011721
-0.00575922
-0.0809216
0.0356223
-0.082963
0.0322244
0.0507386
0.0936723
0.0592178
0.199862
-0.119766
-0.0800954
-0.0138589
0.0118174
0.00204153
0.0612298
-0.0477729
0.0911296
-0.0714191
-0.0197105
-0.00108714
0.00194566
-0.000858511
-0.0256075
0.0113879
0.0142196
0.244883
0.10973
-0.354613
0.0505012
-0.0545698
0.0209529
0.058893
-0.0798459
0.0557617
-0.0817863
0.0314176
0.00645894
0.00110173
-0.00756067
-0.143114
-0.145809
0.288922
0.0776364
-0.175148
-0.00316499
0.00111125
-0.0563759
-0.132193
0.00305571
-0.00836015
0.00530444
-0.0767762
0.0536475
0.0231287
0.0425689
-0.0661105
0.0235416
0.0144431
0.0798291
0.0837852
0.0623147
-0.288843
-0.0585565
-0.195794
0.100982
-0.208337
0.190086
-0.213955
-0.179234
0.111494
0.0677398
-0.211076
0.0992838
0.0088445
-0.0085934
-0.000251102
0.125945
0.097281
-0.223226
-0.00847444
0.00522141
0.336622
-0.337295
0.000673123
0.0699461
-0.105381
0.0354348
-0.00273617
-0.0047016
0.00743778
0.290103
-0.162807
-0.115888
-0.0414022
-0.00640209
-0.00544555
0.0118476
-0.0705051
0.0228925
0.148993
0.18495
-0.333943
0.000647964
-0.0261506
0.330856
-0.181863
0.21502
0.117807
0.012511
-0.130318
0.0391064
0.0213034
-0.0604099
-0.038035
0.0566445
-0.0186095
0.0571612
-0.0747052
-0.00951969
0.0096345
-0.000114805
-0.0158418
-0.0291959
0.0450377
0.134153
-0.0531174
-0.0200511
-0.00687691
0.026928
-0.19967
0.229001
0.131831
0.077736
0.0164326
-0.0549245
0.00172582
-0.00178771
6.18986e-05
0.0541947
0.0235843
0.0584812
-0.125927
0.0683969
-0.00255602
0.00723734
0.00764372
0.0272156
-0.0348593
-0.00128904
-0.335457
0.0992374
-0.0626937
0.0338533
-0.0867871
-0.07
0.156787
-0.136803
0.100474
0.0363296
0.0208093
0.109763
0.0269049
-0.0375357
0.0106308
0.00581373
0.0833052
0.0341681
-0.00897439
-0.0213105
0.0145347
-0.00240005
0.000898072
-0.00791198
0.00701391
0.0142033
0.167978
0.124635
-0.0798834
-0.0447516
-0.0041142
0.0498556
-0.0627355
0.12321
-0.0454311
0.03829
-0.0566488
-0.0919806
0.148629
0.047758
-0.0596623
0.0119043