/*--------------------------------*- C++ -*----------------------------------*\
| =========                 |                                                 |
| \\      /  F ield         | OpenFOAM: The Open Source CFD Toolbox           |
|  \\    /   O peration     | Version:  v2012                                 |
|   \\  /    A nd           | Website:  www.openfoam.com                      |
|    \\/     M anipulation  |                                                 |
\*---------------------------------------------------------------------------*/
FoamFile
{
    version     2.0;
    format      ascii;
    class       volScalarField;
    location    "400";
    object      ddt0(k);
}
// * * * * * * * * * * * * * * * * * * * * * * * * * * * * * * * * * * * * * //

dimensions      [0 2 -3 0 0 0 0];


internalField   nonuniform List<scalar> 
37809
(
4.92237e-09
-3.74381e-08
-1.49262e-08
-0.000723066
2.35562e-08
-2.44958e-09
-3.19938e-10
0.000665527
1.52221e-09
-1.30387e-08
-8.33124e-07
-4.76003e-08
5.32722e-08
2.49547e-07
1.44176e-08
-9.65703e-09
4.39387e-09
-0.0015951
-4.7767e-08
-9.39803e-09
-9.46773e-09
0.000769965
-0.000550937
1.70154e-06
-0.000164984
-1.12508e-09
-2.47914e-08
0.000164995
-2.12746e-08
-2.06597e-09
1.12596e-06
-0.000300008
-7.44443e-10
-1.44527e-05
-2.99319e-08
-5.17757e-10
4.07756e-07
-0.000822287
0.0113345
2.0854e-08
-1.43783e-09
4.96569e-06
-1.07326e-08
-6.38734e-09
-9.44502e-10
-3.84798e-08
-4.7294e-09
2.63086e-08
-6.76233e-09
1.63793e-07
9.04786e-05
0.000257009
-7.30556e-06
-7.70975e-06
-2.67927e-08
2.91308e-08
-4.26948e-07
-1.5198e-08
2.82055e-08
8.90808e-05
-3.90371e-08
-1.7148e-08
-0.000564521
-4.41573e-09
4.95009e-07
1.66765e-08
-3.25008e-08
-0.000114976
-4.18699e-08
-2.08633e-06
3.14505e-08
2.86999e-09
-9.54666e-05
1.17457e-06
-1.57129e-10
8.84739e-05
1.92575e-07
1.42513e-09
-9.81998e-09
1.98688e-09
-2.70507e-09
-0.00171436
-3.55837e-09
-4.29363e-06
1.12514e-05
-0.000109376
3.73944e-08
0.000103125
-4.76398e-08
3.93832e-07
-9.27934e-10
-1.48665e-05
-1.50506e-08
2.53391e-10
-2.04945e-08
-3.23503e-10
-0.000306788
-1.76535e-09
-1.0958e-09
-0.000151652
-4.52121e-09
-3.64136e-07
3.28201e-09
4.50101e-07
1.01813e-05
2.66824e-08
0.000797109
3.71952e-09
-0.00023207
0.00196401
8.94819e-09
1.16673e-06
-0.00165008
2.18092e-08
-6.43582e-05
-0.00177308
2.13566e-08
3.51081e-09
-2.47086e-05
-4.78698e-09
0.000134014
4.28866e-07
0.000696113
-8.29198e-10
-5.36628e-09
-0.00019059
-3.98162e-10
-2.93368e-09
-5.13988e-09
-3.84098e-09
-1.48868e-08
1.80385e-08
4.02828e-08
-1.21577e-09
-4.05084e-10
3.65795e-09
6.39872e-09
-0.00048602
-0.000120046
-1.32953e-08
-5.67982e-08
6.86506e-06
2.93609e-07
-5.21941e-09
-3.19424e-09
2.15277e-09
-5.60572e-08
1.53344e-08
-4.43049e-09
-5.71738e-10
3.60362e-05
-5.38212e-09
5.92483e-10
5.18993e-07
-5.27862e-09
1.00088e-06
-4.68126e-10
0.00411785
-1.62819e-09
3.05948e-09
-6.04076e-10
8.09941e-05
-0.000272227
-7.62563e-09
-4.42638e-09
-1.03578e-07
-2.10747e-10
-0.00674201
-1.5372e-09
-0.000855909
-2.63887e-09
2.8204e-07
-4.08218e-08
-5.00798e-09
2.9907e-07
-8.04693e-09
1.37568e-09
2.49908e-08
-4.31773e-07
3.22712e-09
-1.61506e-08
3.88001e-06
1.82502e-08
-2.95615e-08
-8.78914e-10
3.71032e-09
-0.000117693
-4.27623e-08
-0.000130342
-3.48385e-07
0.00344032
2.23659e-07
-1.03212e-08
1.34732e-06
-7.43687e-10
-5.15938e-09
-5.54426e-09
4.89018e-07
5.00863e-08
2.16144e-05
0.00396146
-2.04849e-09
-1.63205e-08
5.00353e-07
-4.32027e-08
2.03963e-08
3.52799e-09
2.00123e-05
7.68781e-09
-0.00117715
0.000182723
1.74251e-06
4.3482e-05
2.92778e-07
4.53519e-09
-1.85531e-09
-3.00892e-05
9.69174e-07
3.47284e-09
-0.00012914
2.20533e-07
-1.94833e-08
-4.33579e-08
1.28086e-09
3.26637e-09
1.03587e-06
1.19876e-09
-0.000144706
-8.72334e-10
2.65227e-06
-9.48368e-09
-1.23477e-08
-1.1123e-09
-1.92481e-08
4.57983e-07
9.09258e-07
1.0992e-05
2.32304e-10
-1.3841e-07
-1.81952e-09
2.00662e-07
-2.50902e-09
1.04926e-05
-0.000344064
-2.16873e-08
-1.50485e-08
1.06949e-06
8.10132e-06
-0.00046587
-3.21234e-08
4.48393e-09
4.85163e-10
-1.92906e-08
6.59063e-05
-5.43466e-09
-5.56653e-10
1.7779e-07
-4.02538e-09
-2.94694e-07
-2.53051e-08
6.61512e-08
2.45628e-08
-2.78106e-07
4.57926e-08
-0.00185661
7.1563e-09
-0.000506114
1.79529e-06
1.36724e-09
-8.2324e-08
1.28556e-08
4.71372e-09
5.44022e-08
-1.03374e-06
2.36594e-08
-0.00178632
2.11271e-08
-1.01234e-08
-6.29525e-10
-0.000119706
1.42519e-06
9.54133e-10
4.84648e-07
0.00698576
-1.35376e-06
-3.7452e-09
3.39453e-05
-1.96839e-08
4.86442e-09
5.90381e-05
-2.25605e-09
2.75367e-09
5.32017e-06
-0.000126496
-1.22766e-08
5.11553e-09
-0.00134457
4.0441e-09
4.2883e-09
-1.64714e-06
0.000246839
1.85513e-08
-1.02297e-08
-2.11006e-08
-7.2536e-09
5.04361e-08
4.43667e-09
4.44109e-09
3.22668e-08
-1.33081e-06
2.20124e-07
5.87696e-09
-3.80915e-09
-7.02677e-07
3.59142e-07
2.20721e-09
-5.36413e-06
5.6732e-09
0.015469
-3.15815e-07
2.22084e-07
1.28559e-05
-0.00159462
1.34899e-05
-0.000149937
2.06458e-09
6.63503e-09
-0.000216493
-4.67861e-09
1.41122e-08
1.21062e-07
1.62525e-07
-0.000279515
-3.54265e-09
-8.24309e-10
9.02732e-10
-3.80467e-09
-6.80583e-07
-0.000208423
1.48105e-08
-0.000486187
1.88909e-09
-0.000100125
-1.92763e-07
-3.52729e-09
-5.01039e-09
-0.000464496
-0.000375419
5.41101e-09
-1.54705e-08
6.78614e-07
-3.85592e-08
-5.79674e-09
-0.000128278
1.81928e-08
-5.56113e-08
-6.25798e-09
-0.000355583
-0.00116677
-9.35899e-08
-4.82104e-09
-0.00106263
-2.63086e-08
-4.63685e-09
1.96609e-08
-9.29354e-08
6.43987e-09
2.93485e-07
-1.69204e-07
2.35966e-09
1.67834e-06
1.89397e-10
-7.46624e-09
-5.14547e-10
-2.07424e-07
7.48732e-10
-7.29289e-08
3.94925e-09
2.94476e-07
-0.000117402
-2.2498e-08
-2.07253e-09
0.00688507
1.06726e-06
-1.64016e-06
4.55726e-08
-5.49081e-10
-2.89932e-05
4.43757e-05
-0.00026354
-4.35364e-09
1.23935e-06
0.000592464
5.96512e-08
4.07038e-06
-1.29535e-08
-3.42009e-09
-1.66136e-08
-0.000105893
-3.58021e-11
-2.20104e-08
1.97638e-09
-4.36688e-08
-0.000165727
1.10707e-07
-0.000111716
0.000164687
-2.39279e-09
-4.9244e-08
-1.25101e-05
-7.43938e-09
1.02607e-07
3.34559e-08
8.94354e-07
5.03393e-06
-8.43204e-09
4.47228e-10
3.43281e-07
-5.90962e-08
-6.21293e-07
3.40661e-08
6.84405e-08
-9.11839e-09
0.000203665
-0.00218304
-6.14763e-07
-2.30895e-08
-8.8032e-10
-4.72867e-09
3.58359e-08
-1.59735e-09
-0.000253607
-6.84543e-06
-1.15268e-06
-7.68574e-08
1.87212e-07
4.10363e-07
-0.000132938
-2.68829e-07
0.00232885
-2.43831e-07
-3.04323e-08
2.25613e-08
-1.71452e-09
5.49841e-09
3.32171e-09
1.66592e-08
-7.0782e-09
5.83238e-09
2.43716e-07
6.39538e-10
8.38499e-08
-0.00335582
1.50917e-08
2.93998e-08
-1.372e-09
2.73798e-10
2.41987e-07
-3.0361e-09
-7.54749e-08
1.13043e-07
1.22787e-08
-3.4781e-06
1.65711e-08
7.32282e-09
2.8616e-05
2.77459e-09
4.43381e-08
-1.86981e-07
-1.24609e-06
-1.51537e-06
5.39604e-09
-0.000238884
-8.05676e-07
1.27185e-05
6.81843e-10
-4.39615e-09
0.00619158
-8.79353e-06
2.36794e-08
-1.28767e-08
-0.00165901
-0.00134042
2.39251e-09
1.11679e-05
-4.62282e-10
-8.26719e-05
-3.78107e-08
-1.7843e-09
8.95427e-07
-4.86366e-09
-1.30544e-09
-0.00139054
0.00176176
7.62556e-09
5.54602e-09
5.23446e-09
4.64332e-09
-0.000317397
-0.00201224
-1.18481e-09
0.000842093
-1.62769e-05
9.10264e-09
-8.70634e-11
-1.055e-09
8.34198e-07
-6.76995e-05
-0.000283179
0.00176802
7.34261e-08
5.33967e-05
-3.32391e-09
-2.25004e-09
1.11684e-05
2.19717e-09
1.70354e-07
-0.000464748
0.00721364
5.39227e-07
9.68839e-07
-7.41363e-10
1.98307e-07
0.013474
-3.37414e-06
-5.13362e-09
9.51934e-05
1.38837e-07
-1.57758e-09
-1.3246e-06
-7.80028e-11
3.56828e-07
-1.32866e-08
-4.38386e-06
-4.87172e-09
8.16533e-08
1.24472e-07
-9.85284e-05
-6.75071e-10
3.07857e-08
2.67575e-09
-2.78926e-08
-7.86759e-05
-0.000231118
8.64437e-05
-4.6641e-07
7.42912e-08
5.45316e-08
-9.38172e-07
-1.00668e-07
5.79866e-05
-5.59069e-07
3.8519e-10
1.0488e-07
-9.52238e-08
-3.89113e-08
-7.8752e-06
1.78002e-07
3.29701e-07
-2.57281e-05
-0.00113925
3.17278e-09
-3.83342e-09
-0.000370098
1.90894e-09
1.4707e-09
-8.17751e-10
-2.26015e-09
6.1382e-08
-7.5365e-06
0.000741922
0.00574415
0.000769981
3.42292e-09
-2.33356e-09
-0.00235139
-1.0068e-08
-1.58434e-08
-6.05702e-08
-0.00282793
3.59826e-09
4.09713e-09
3.16395e-07
2.1138e-08
-6.0435e-06
-8.49613e-05
1.98881e-08
-4.73142e-08
-1.18848e-06
-3.23295e-06
2.40099e-09
1.9448e-09
1.4621e-06
6.38106e-10
-0.000379009
1.76276e-06
-2.88842e-08
-1.16806e-07
-7.89979e-09
-0.00125488
-5.19874e-08
-1.0336e-06
1.63532e-08
3.18193e-08
-2.02129e-08
2.23444e-06
-1.98543e-08
-5.39711e-09
1.1941e-08
-3.84124e-06
-5.93886e-07
1.49763e-08
-7.09784e-09
-1.76908e-06
4.00676e-08
-0.00131992
1.3531e-07
-2.54076e-05
1.8573e-09
0.0001709
-6.99274e-07
0.010417
2.4185e-07
-3.20151e-07
-0.000100506
2.71113e-09
1.5743e-08
2.73613e-06
-1.0175e-08
3.58104e-09
-1.01619e-08
0.00110921
-1.01081e-07
3.55526e-08
5.02931e-06
-0.0156549
4.51305e-08
-2.76699e-07
1.15468e-05
-5.24836e-11
1.23464e-08
-0.00119395
-4.11875e-08
1.19105e-06
-7.79697e-09
-3.20612e-10
-9.28676e-09
-3.98517e-07
-9.74512e-07
-4.43988e-07
4.60913e-07
2.81162e-07
3.61141e-07
-1.81718e-08
7.03454e-07
1.24493e-06
7.58283e-08
-5.75646e-09
-1.92739e-10
-0.000427096
1.18867e-08
1.00681e-07
3.80438e-09
-2.50135e-09
3.71579e-09
-5.27057e-09
-0.00124739
3.56539e-09
7.23121e-10
1.28134e-09
3.57178e-08
0.000325166
1.00507e-07
2.56907e-05
3.52729e-09
2.11435e-09
-4.98998e-08
2.86241e-09
3.20614e-08
0.000339199
6.9075e-09
-0.00028169
-3.13219e-07
0.00018509
1.61345e-06
2.62331e-09
-1.72618e-09
-2.85372e-10
5.48303e-08
-0.000652912
0.00291623
-1.05736e-08
1.20675e-07
-1.95609e-09
-0.000951595
-1.86776e-08
-8.57493e-09
3.31165e-09
0.000230696
-2.90318e-07
-7.32433e-09
-7.07358e-07
0.00112769
1.40935e-06
-1.46872e-08
0.000786961
2.22612e-10
2.30401e-06
-1.28323e-08
7.61052e-09
3.87383e-09
-1.24502e-05
-1.50885e-09
-2.38458e-07
-4.42841e-10
-0.0192368
-0.000471511
0.00483971
-1.46511e-09
-1.0772e-09
-1.20111e-08
-5.47011e-10
4.14961e-09
-5.9557e-07
4.57599e-07
-3.85058e-09
1.44757e-09
-8.6612e-09
-2.77816e-05
-0.000439405
-1.32597e-06
3.41689e-06
-3.49166e-07
-1.44725e-08
-1.44876e-09
2.46336e-09
1.5009e-07
1.29726e-06
-4.09206e-09
1.30545e-05
-2.33102e-08
0.00020767
-8.13142e-09
-0.00100084
1.96575e-06
9.17782e-08
-2.93558e-09
-1.99588e-05
-1.7477e-09
8.84448e-09
-0.000260759
1.91867e-08
2.13569e-08
-1.98242e-09
0.00937305
1.40367e-08
6.26026e-08
-0.00177287
2.89278e-06
-4.74191e-07
-1.5539e-09
4.22295e-07
1.75181e-08
1.24094e-09
-1.14853e-08
-2.28474e-09
4.04116e-08
2.07343e-09
0.00476513
-0.0156405
-0.0178841
-1.08276e-08
1.01451e-08
-0.00012021
5.51534e-09
-4.83442e-09
3.28407e-09
3.8919e-09
-2.13494e-07
-1.36088e-06
-0.000912284
-1.05554e-10
1.14547e-10
-0.000417904
-1.31903e-08
1.81447e-09
-3.5566e-07
-7.33489e-07
8.843e-07
0.000274641
-3.51577e-07
-0.000420102
-0.000132066
1.45678e-08
-5.78684e-05
6.36633e-09
1.11759e-06
-1.38528e-06
2.88312e-09
1.14526e-07
0.00699058
4.84887e-08
2.8195e-09
-0.000307576
-1.03472e-08
-6.5563e-08
-0.000131693
0.00173329
6.68195e-08
9.7486e-05
0.00368759
2.71838e-08
1.03706e-06
1.23405e-09
-1.2212e-06
-0.000665727
-7.55688e-10
-1.88908e-09
-5.13804e-06
-4.84529e-10
1.6117e-06
0.0142663
0.00131343
7.68124e-09
0.000796924
-1.84155e-07
3.4954e-09
-1.46079e-09
1.46894e-09
-1.44294e-09
-2.68312e-09
5.01174e-07
0.00805037
3.42199e-09
1.86109e-09
1.03196e-06
-1.70734e-08
-8.44599e-07
4.6988e-07
-1.02973e-08
-5.95683e-06
-1.38939e-09
-1.7e-08
-8.22469e-09
-1.98656e-09
8.26154e-07
3.19793e-09
4.3179e-07
2.31936e-09
2.38826e-07
2.60351e-07
-1.03337e-09
1.92132e-09
1.31235e-06
4.05555e-09
-0.000141786
-6.70196e-08
-3.75914e-08
1.08784e-08
3.42559e-09
-3.09672e-09
-1.6881e-09
-0.000409402
1.45802e-07
-8.13422e-09
4.53642e-05
1.31472e-09
-1.53102e-09
-2.4102e-08
8.13717e-08
-1.65883e-09
1.14168e-06
0.000407331
-6.23595e-08
-1.44201e-06
-0.000327097
-3.77318e-08
-3.40448e-10
9.09541e-09
-4.23977e-08
-0.00161422
6.33946e-09
-1.98047e-09
-3.64464e-09
-1.99451e-07
-4.34371e-08
1.68286e-08
3.08806e-05
1.35142e-08
1.57774e-06
-0.00101426
0.000208744
2.86731e-07
0.00375407
9.03012e-07
3.04217e-10
-2.03862e-06
2.35113e-08
0.00157497
1.50094e-08
-0.000386606
-1.24086e-06
1.93993e-08
-1.55222e-09
-2.95237e-05
0.00141896
5.20167e-09
2.30133e-08
-1.8181e-09
8.15387e-09
-4.46458e-08
-0.00162599
4.40881e-09
6.99544e-09
-0.000694506
-1.25833e-09
1.07219e-06
7.76634e-07
2.70662e-07
-6.29655e-08
4.28729e-09
-1.2456e-09
-3.28126e-05
-0.000185685
-5.88615e-08
6.27747e-08
-6.9496e-08
-1.77317e-09
3.68744e-07
1.6645e-07
0.00104558
1.22508e-08
1.37439e-07
-9.84349e-06
3.27603e-06
1.51734e-09
-5.9635e-07
-3.19588e-07
-4.94761e-07
-4.48122e-08
-6.9784e-08
1.69538e-07
-0.000165778
2.36959e-09
3.92624e-09
-4.7888e-09
-1.20382e-09
-6.24195e-07
-7.85493e-09
3.45856e-06
3.46935e-07
-1.00935e-08
0.0029745
-7.70192e-09
3.3773e-05
2.24946e-11
0.000935624
9.33792e-10
-1.01311e-05
1.51636e-05
-1.63816e-07
-5.54308e-07
0.00105512
-7.97233e-08
-2.51056e-08
-5.76977e-08
9.26992e-09
3.63706e-06
7.14323e-10
1.96102e-10
1.30045e-06
-1.05223e-08
0.00204192
-3.01882e-08
0.0056532
-3.12713e-08
-3.57712e-08
-2.99906e-10
-1.52007e-08
-7.78875e-07
-2.21777e-08
6.67344e-08
4.42131e-09
6.47364e-07
0.000584765
8.76093e-07
-0.000297218
2.53388e-06
-4.76747e-09
-0.000243803
-0.000938935
-0.0011268
-3.64535e-08
-0.000490364
-0.00112635
0.0042927
1.90536e-10
-8.33654e-10
3.70906e-10
-1.31395e-08
4.53703e-10
-0.000228519
0.00273646
4.49861e-09
-1.63529e-06
-2.16032e-08
1.73729e-09
-9.25691e-10
-3.76933e-05
4.44919e-08
-3.46292e-09
-5.5983e-08
-1.58383e-05
3.00078e-09
0.00420324
3.46445e-05
0.00435366
3.42457e-09
0.00268861
-3.59475e-06
0.00161931
-3.06209e-09
-0.00118135
-2.65496e-08
2.94814e-05
8.60335e-09
-3.08377e-09
-1.44179e-09
0.00102049
1.32941e-09
-3.17595e-08
-2.25024e-06
-1.59622e-08
-1.05885e-08
-1.3922e-08
1.5332e-08
2.13127e-08
-1.58526e-08
-5.36775e-10
2.07501e-07
-1.3728e-06
3.91199e-07
-7.36692e-07
2.06015e-08
6.78419e-07
-0.00105102
4.19129e-07
-0.000159154
-5.71641e-09
1.05492e-09
-2.16755e-08
0.0105089
-6.6253e-09
-4.2073e-09
-2.16111e-08
-4.69077e-07
-3.97697e-06
-2.30173e-08
-6.14027e-08
-6.3818e-08
0.00199386
1.62244e-08
-3.19549e-08
-0.000139585
3.95486e-10
0.000222948
4.90746e-07
-1.06162e-07
-1.29348e-08
1.03494e-09
-1.36697e-07
8.04812e-07
-8.00493e-08
-6.52496e-08
-7.76283e-09
-0.000324931
1.5956e-07
-0.000482231
0.000396724
3.85779e-09
0.000259158
-7.09447e-10
-6.49221e-08
8.87125e-08
-2.45198e-08
-1.28026e-08
-0.00119767
-1.80604e-09
-0.00157979
-1.61949e-08
-7.13576e-09
1.50772e-09
-1.14243e-06
-0.000417311
4.35738e-09
-6.46048e-07
-7.01795e-09
3.80171e-08
-0.000644226
-0.000153141
-2.48339e-08
1.02207e-05
1.03442e-08
-1.53349e-08
2.55373e-08
-4.66855e-09
-3.51967e-09
-4.6297e-08
-0.000223765
-1.53894e-09
0.000187217
-6.0151e-08
-6.97695e-09
-4.05627e-06
2.91806e-08
1.22425e-06
-3.83277e-08
1.66062e-08
-1.38997e-08
-3.24662e-09
-1.75476e-08
1.23433e-07
-7.14932e-07
-8.42971e-06
2.14986e-08
-8.03096e-09
6.73128e-07
-4.56835e-07
-1.21097e-05
-2.22839e-06
9.79959e-10
-1.8487e-09
-2.11031e-09
-1.92068e-06
-0.000971965
2.29998e-07
-5.46754e-07
0.00486347
0.000145974
2.40922e-06
-3.97617e-09
-0.000199517
-2.24641e-05
-5.77553e-09
1.09176e-09
-2.16527e-09
-5.99007e-09
-1.06345e-09
2.40013e-09
-3.51092e-07
3.56058e-06
-0.00035221
-0.000567086
-2.97971e-07
3.88213e-07
4.01814e-07
1.34408e-07
-1.27786e-08
-2.65365e-09
-5.10008e-08
-3.96603e-09
-3.60653e-08
3.78181e-07
3.01625e-08
-2.25787e-09
2.89769e-09
3.45837e-09
5.44756e-08
-1.13552e-09
-5.67416e-09
2.74725e-09
6.0349e-08
1.29554e-09
1.19626e-07
-4.30948e-07
2.06328e-09
1.79653e-08
-2.10681e-08
1.93241e-09
3.94951e-09
-2.46923e-08
-2.98155e-08
4.01343e-09
-0.000179124
1.32236e-09
2.76186e-05
-6.76423e-06
1.24862e-08
-7.39377e-09
-1.42268e-09
-9.27517e-10
-0.000892076
-0.000799862
1.64e-05
1.47579e-08
-5.46758e-08
-1.01271e-08
-1.27372e-09
-0.000378084
-9.99594e-07
-7.37448e-09
-3.04647e-08
-8.95072e-10
-1.15574e-05
-4.51509e-09
1.19735e-08
1.96316e-09
-1.73331e-07
8.98402e-09
-1.10204e-08
1.66357e-08
-3.6554e-09
-2.82338e-08
4.06023e-09
-1.24655e-10
4.59467e-09
5.13181e-09
-2.03144e-08
-2.13411e-09
-7.44763e-05
3.50504e-07
1.44119e-08
-1.01352e-10
1.11272e-06
-6.64635e-07
3.41953e-07
-3.21337e-08
1.5807e-08
0.00122632
-7.10998e-09
-2.96335e-08
3.77682e-09
-4.14133e-09
-0.000413235
8.0502e-07
4.1896e-09
3.50022e-09
-2.02173e-08
-8.52829e-08
-9.44876e-08
-7.64199e-07
-1.97635e-08
0.00032002
-0.000259289
3.65591e-09
3.46893e-10
5.50398e-08
0.00060276
-0.000711993
2.08249e-08
3.04295e-09
-5.37742e-08
4.14968e-07
2.10173e-07
4.04063e-09
-0.000144638
1.00201e-08
-0.00010188
-1.34437e-09
-1.5072e-09
1.48935e-09
3.05754e-09
2.74302e-09
1.947e-08
-2.01281e-09
-0.00131562
-2.46802e-08
3.46581e-09
3.08083e-09
1.41453e-09
-2.12731e-08
5.49824e-10
-0.000186762
4.82122e-09
2.6397e-09
0.000889903
-3.47703e-07
1.61036e-07
-1.04665e-06
-7.14116e-07
-7.71491e-08
3.21141e-09
1.22522e-07
2.96248e-07
2.23023e-07
-1.50305e-06
6.74889e-06
4.63894e-09
0.000978469
-8.56451e-08
9.03945e-10
2.29399e-08
2.64802e-07
-0.00289424
0.000860503
7.08631e-10
2.31416e-07
-2.08449e-08
1.54714e-08
1.25337e-06
3.59033e-07
3.76256e-09
1.51376e-08
-2.9349e-09
1.06932e-08
2.13756e-08
2.92867e-10
1.18953e-07
-4.01537e-10
8.51283e-09
-2.26824e-06
0.000110242
3.73921e-09
1.39792e-06
1.93511e-08
2.46037e-09
5.80078e-09
-1.45791e-08
2.2618e-08
-5.07187e-08
-2.12342e-06
-3.91487e-08
-1.51943e-08
-0.000289163
1.47639e-09
0.000677787
3.26292e-09
-1.93621e-09
5.93339e-08
3.45959e-07
-1.50651e-08
-4.36147e-05
3.48632e-08
3.53172e-09
2.09822e-09
1.41851e-09
-8.66163e-08
-1.37271e-08
1.81012e-09
0.00106156
7.20742e-09
-0.000344563
3.75908e-09
5.74289e-07
-2.00775e-06
-3.34994e-05
1.10977e-09
6.6967e-07
-0.00154894
-3.8819e-08
-5.29181e-09
-1.01083e-11
-3.8485e-07
-1.03454e-08
-3.74136e-06
6.35202e-07
3.16896e-09
3.30238e-07
2.30741e-07
2.28073e-08
1.8941e-09
-2.24166e-08
-3.82848e-09
-0.00307967
-0.00185519
-0.00026565
4.5543e-07
-4.05373e-05
1.50666e-08
-2.91137e-07
3.71988e-08
1.10028e-09
-3.07402e-09
1.85757e-07
0.000144482
7.41908e-09
-6.85481e-08
-6.75923e-10
-2.08952e-10
1.23745e-09
5.22504e-09
-1.12867e-09
7.69381e-07
1.92757e-06
1.63567e-09
-2.3352e-08
-1.06773e-09
5.15318e-07
-4.91119e-05
1.2068e-08
3.21558e-09
2.57648e-09
-0.000253129
1.09339e-10
-2.71311e-08
-3.65497e-09
-6.65662e-08
3.28553e-07
-0.000883152
1.02492e-08
9.31818e-07
-3.86248e-09
-3.24615e-09
-7.90096e-09
-1.48587e-06
2.66143e-08
2.47039e-05
-0.000450077
1.88984e-08
3.08913e-09
-2.00276e-07
1.18586e-06
1.84944e-08
9.88662e-07
-1.85179e-09
-2.11641e-08
6.53359e-08
6.03226e-10
1.04206e-06
1.75321e-09
9.37032e-07
-1.19473e-08
-0.000279972
1.6454e-09
-7.87176e-08
-3.99507e-07
-2.50732e-09
5.42177e-08
4.10575e-05
-8.62513e-09
2.89618e-09
1.92144e-06
3.83603e-09
-2.63929e-07
-4.86309e-08
2.34249e-08
-0.000136669
-0.000507319
-0.0015887
-0.000177963
-7.72635e-07
5.46307e-07
4.96285e-05
1.35999e-05
-2.05002e-09
5.29193e-09
-1.95797e-09
-0.000742042
-0.00161592
-0.000470063
-0.00183545
-4.19504e-09
-1.17033e-08
4.21816e-09
1.80927e-09
-7.90728e-08
-3.66198e-07
-0.00041041
-0.000107817
-3.9145e-09
-9.94361e-08
3.40287e-08
-0.000269162
4.42686e-09
-1.32435e-08
2.19019e-08
1.67419e-09
3.96734e-09
3.42956e-09
-2.16738e-09
-1.50612e-07
2.77503e-08
-2.22487e-08
-8.6596e-09
5.60516e-09
-1.2263e-08
-3.37692e-09
1.19802e-06
4.79555e-09
-1.93284e-08
-0.000992931
5.40401e-08
-1.8785e-09
-1.55026e-09
-4.87786e-08
0.00991881
0.00210558
-1.76833e-09
-6.10453e-05
-2.15127e-09
3.16276e-06
-1.29822e-08
2.2448e-08
-4.38452e-09
-2.89969e-09
5.49459e-09
-3.95042e-09
-8.19124e-07
-0.000156753
-0.000375802
2.69717e-06
4.90424e-07
-1.24868e-08
-2.1016e-05
9.60337e-09
3.77003e-10
-2.28066e-07
-0.00192155
-4.01244e-07
3.89089e-10
1.06522e-08
-0.000321791
-2.02194e-07
-1.4402e-09
-0.000594587
-1.27195e-08
3.5553e-09
2.91516e-09
-7.07071e-10
-9.27562e-09
3.04355e-06
9.24955e-08
5.58217e-06
1.08882e-07
7.25201e-07
1.33816e-09
-7.08857e-08
-4.04364e-07
-1.34501e-09
3.22037e-09
-0.000453002
-2.53536e-09
-2.61705e-09
6.28461e-09
-0.0004434
-2.23088e-07
-7.26971e-08
2.00213e-09
-1.71321e-07
1.35366e-08
-1.55353e-08
-9.46557e-06
-3.46751e-09
-0.00104366
-5.24052e-07
2.93608e-09
-3.13962e-07
1.05901e-06
3.6514e-07
2.80609e-09
0.00407984
-9.35105e-09
-0.00020402
1.24729e-07
-1.35289e-08
-0.000850124
-1.25254e-08
3.35021e-08
-0.000289172
-6.81893e-08
1.88885e-08
6.69678e-08
1.40703e-06
-4.73184e-10
-1.86936e-05
9.34263e-09
-3.21142e-05
-4.30495e-09
2.62603e-09
-4.50594e-09
-1.34693e-08
-8.4081e-08
3.15749e-07
-7.47843e-07
-3.74108e-09
2.24216e-09
-4.18728e-09
2.19483e-08
-1.18311e-06
4.75831e-06
-7.01203e-08
0.00164269
-2.68078e-09
-0.00140672
6.0878e-07
7.11919e-09
1.69823e-09
8.72578e-09
8.81885e-08
7.30326e-09
-7.16701e-09
1.15303e-06
-9.2731e-08
9.89345e-07
-6.12421e-09
-1.3149e-08
-0.000134591
-0.00171899
0.000141803
-2.48105e-07
0.000819306
-2.43528e-08
-5.31283e-07
-0.000133115
9.55669e-09
-0.00148016
-1.99803e-08
-4.98243e-10
-0.000245641
-7.79656e-09
3.01108e-10
-0.000551184
1.33026e-09
3.67369e-09
-8.46838e-07
-0.000294358
-1.27118e-08
2.10638e-07
-1.03358e-07
3.59326e-07
3.06272e-07
1.08802e-08
5.79976e-07
-0.000128251
8.37308e-08
2.61663e-08
-5.00082e-09
-1.72316e-08
-2.35473e-09
-3.37906e-09
-0.000163311
3.81437e-05
1.13384e-08
-9.07349e-08
8.19453e-09
1.17078e-08
-5.35322e-08
-9.114e-09
-0.000424874
-9.38467e-08
-7.64762e-09
-1.14939e-06
3.08396e-09
1.8899e-05
-0.000492667
-0.000308666
2.33376e-08
9.68695e-09
5.73793e-07
7.11826e-06
0.00465411
-3.26172e-05
-0.00129495
-1.37754e-06
3.46831e-09
9.37382e-08
2.9344e-09
-3.87477e-07
-4.93404e-09
1.40407e-06
-3.39936e-07
-0.00345454
1.78711e-08
-3.30809e-09
1.20639e-09
-9.60922e-05
2.1191e-08
0.000223826
-3.47639e-07
-1.18701e-09
-9.50795e-08
8.27037e-09
3.08023e-06
-6.73723e-08
-1.56183e-08
1.33628e-08
7.04571e-08
-4.42948e-07
-2.31964e-06
1.69812e-06
2.47378e-07
-7.62545e-08
1.5803e-09
-1.18454e-08
8.96158e-08
-0.00147094
-8.22993e-05
-1.12996e-08
-4.20324e-07
-5.84165e-08
-2.24102e-09
9.49535e-07
-1.4973e-08
-3.97559e-08
1.94229e-09
2.80449e-09
5.44884e-09
-5.3907e-08
-1.43756e-06
-0.000906838
-1.52667e-07
6.2877e-07
-1.6383e-09
-1.17089e-08
-4.99591e-09
3.48284e-09
-6.45915e-09
1.53871e-08
-3.75505e-08
-7.681e-07
1.56878e-08
-3.17788e-09
-7.12615e-09
-9.66913e-07
-2.73547e-09
-1.365e-07
-0.000952688
-1.05379e-06
9.28268e-09
4.3383e-09
-5.04255e-08
-2.27294e-09
-1.19951e-08
2.02518e-08
1.94799e-07
4.29463e-09
-1.47688e-08
-6.79282e-08
-2.11855e-09
2.68435e-07
0.00175876
-3.85124e-09
-7.93828e-09
-6.77767e-08
7.80414e-09
-1.06592e-09
1.88355e-08
-9.8259e-06
4.79006e-09
-6.84077e-09
-0.0013288
1.25936e-10
-5.34933e-08
-0.000119952
-1.99076e-08
-4.0789e-06
-6.11885e-09
-2.13554e-10
-0.000143552
-7.41531e-08
-0.000151024
0.000977153
-0.000204333
2.70246e-09
5.6272e-07
-5.60852e-09
1.43464e-06
-5.56926e-09
2.09805e-06
-9.72172e-09
-5.63165e-07
-0.000210499
-6.98041e-05
5.13969e-08
7.01437e-09
7.26848e-09
-1.83792e-09
-1.59036e-07
-5.94672e-08
-6.79938e-09
-2.7801e-06
5.15751e-07
0.000262395
4.97278e-09
1.22844e-09
0.00390919
-2.47599e-07
1.09753e-10
-1.42429e-08
-6.02465e-06
-6.1547e-09
-1.81478e-09
0.000431498
-1.3808e-08
7.38266e-09
-2.5807e-09
-1.13034e-09
-3.0984e-08
-0.000157027
0.0136926
-2.04069e-08
-1.99603e-07
-9.28932e-10
1.48913e-05
-8.31941e-09
-0.000178897
2.78553e-09
2.36915e-06
-4.09302e-07
3.12203e-09
-4.35961e-08
0.00014493
5.89417e-06
6.46892e-09
9.48004e-07
-2.28924e-09
8.27479e-08
8.69426e-05
3.08006e-07
4.17772e-07
7.15741e-09
1.6085e-05
-1.47299e-09
8.21281e-06
1.10964e-06
-1.11496e-08
3.71149e-06
8.43737e-09
1.73579e-09
-4.27465e-09
2.1298e-06
0.0015204
-8.73559e-09
-1.88262e-08
-2.85121e-08
3.22273e-06
-4.17145e-09
2.41531e-08
-1.38793e-09
8.06029e-08
-7.48274e-08
1.16146e-08
-4.3074e-08
2.1471e-05
-8.28317e-09
-9.02449e-10
-7.0845e-07
4.09283e-08
1.1046e-08
-1.02465e-10
-1.45707e-07
-2.34529e-10
-2.15417e-09
1.17488e-10
-1.8855e-08
-0.000129373
-1.48944e-08
1.34353e-06
8.0186e-08
-2.21926e-09
-1.34905e-08
-1.72586e-09
-4.15094e-09
-0.0181946
-5.73672e-07
-2.65536e-06
-4.73219e-07
-6.79924e-07
-1.46869e-08
-2.81663e-09
1.88198e-09
-1.39894e-08
-0.000783647
0.000534913
-0.000272538
0.00451961
1.39904e-08
-0.000955942
-3.83611e-05
7.31183e-09
1.59136e-08
2.49026e-05
4.88775e-06
0.00473248
0.00966753
-5.02918e-09
4.84983e-09
6.68898e-09
7.11374e-06
0.000871365
5.78816e-08
0.000105343
2.07624e-09
5.13248e-06
5.55155e-09
-1.31826e-08
1.69543e-09
8.05037e-07
8.40016e-09
-6.68806e-06
-3.0278e-07
-6.95363e-08
1.68013e-09
-7.06065e-09
8.31735e-07
0.000889403
-4.83911e-07
0.00153135
1.25827e-08
-2.49091e-09
9.49478e-09
1.76108e-09
8.5909e-08
-8.5431e-06
-1.25507e-08
2.78701e-06
-3.6391e-09
2.92808e-07
1.19077e-05
6.63736e-06
1.45588e-08
-3.32192e-09
-1.87455e-06
1.1044e-08
-0.00011882
1.09688e-08
1.5035e-08
-2.33174e-09
-1.47671e-09
0.000125466
2.34942e-09
0.000732382
1.9312e-09
-5.71826e-09
7.15738e-09
0.000990151
1.33849e-08
0.000660692
3.88684e-08
-5.47377e-08
8.06784e-07
3.3749e-08
-7.56772e-09
-3.42932e-09
-2.75307e-09
4.00543e-08
-0.000134885
-4.40002e-07
-1.50069e-09
1.94037e-09
2.56882e-08
2.86478e-09
-9.01568e-09
4.68306e-08
-4.37413e-07
-1.95399e-08
-3.14995e-08
2.82447e-09
-1.45244e-09
-2.46729e-09
-2.36503e-08
-2.28628e-08
1.78975e-08
-1.85836e-07
-2.90189e-09
6.25315e-09
1.18629e-05
7.82668e-10
-2.06537e-08
-6.31288e-07
0.000213164
-1.06056e-06
-6.25856e-09
-4.34293e-07
-1.02153e-07
-7.29944e-09
4.59667e-09
-9.68818e-06
1.98512e-07
-8.24072e-08
-2.43703e-08
-2.20522e-07
9.30803e-09
-2.45477e-07
-1.2892e-08
-4.40708e-07
1.74974e-08
-5.78688e-08
-0.000512252
-6.32303e-10
3.1517e-05
-5.08238e-09
7.06979e-09
-7.48992e-08
-1.32745e-08
1.7798e-08
-0.00170705
-0.00012094
0.000170499
-4.63938e-09
6.7678e-08
2.93649e-09
-0.000197251
1.462e-06
-2.98586e-08
-1.28658e-06
-5.15854e-09
6.50664e-08
2.01077e-08
8.37405e-11
1.00832e-07
-3.59075e-08
7.73254e-08
2.84018e-06
-3.70332e-08
-1.44545e-09
-0.00441627
-4.01369e-09
-2.80497e-09
-1.01386e-06
-4.72578e-09
1.03658e-06
-6.83038e-06
0.00155008
-1.27026e-09
-2.38619e-08
9.20864e-10
7.42285e-10
9.198e-07
2.51246e-09
-2.23563e-09
3.91278e-09
-2.88835e-09
1.5842e-07
1.53361e-06
-6.03579e-09
1.74971e-08
9.33745e-08
-2.67563e-06
1.12387e-10
-0.000337916
1.00672e-07
-9.05635e-09
2.43302e-09
2.34328e-08
-5.44491e-09
-9.78289e-09
1.20863e-08
-0.000148667
-1.02464e-09
-5.91121e-10
-1.07773e-08
8.89774e-08
1.78898e-07
3.53509e-07
1.10816e-08
-3.27503e-09
-2.03154e-08
1.3418e-09
-2.95324e-07
1.34303e-10
7.4358e-09
-8.25177e-09
-3.21204e-06
-5.25028e-08
-5.02185e-09
7.84069e-09
-4.09588e-07
-8.45286e-07
4.52673e-07
-1.19604e-07
1.62354e-06
-5.50211e-08
1.40629e-08
1.73579e-09
-2.56401e-09
1.5072e-09
5.65116e-08
2.84629e-05
-1.01759e-09
-1.96509e-09
2.32527e-05
4.76291e-07
-3.01763e-09
-6.31158e-08
0.000651353
-7.19923e-08
-8.45089e-09
5.25632e-08
6.17015e-09
-9.83302e-05
5.50011e-07
1.28348e-07
-0.000127236
2.04413e-09
-2.33521e-08
5.99244e-09
-1.5121e-07
-1.02392e-06
-6.33363e-09
5.39665e-08
-0.00044367
-7.35767e-08
-1.77038e-09
8.30808e-05
1.28305e-08
1.94216e-08
-1.55629e-08
-2.33238e-09
-9.0722e-09
-1.83942e-06
5.5766e-07
-8.09165e-07
0.000265548
-0.000165113
2.81217e-07
0.0016078
-5.74372e-09
1.15896e-08
-3.51325e-08
6.67552e-09
-8.86079e-09
-0.000103046
1.09974e-09
-2.07415e-08
0.000258461
-2.98621e-05
-0.000345938
-5.70207e-08
1.42772e-09
-3.01292e-09
-1.33137e-06
-5.56157e-09
0.000286186
-4.55897e-08
-9.67676e-09
-0.00102264
8.25887e-09
-5.64383e-07
-1.69925e-05
5.74611e-06
-1.27183e-08
2.38206e-05
-4.38656e-07
-7.19252e-09
-2.33924e-08
-0.00094962
-5.56131e-09
8.7593e-09
4.89559e-05
6.11015e-08
-8.64527e-09
0.00964629
-3.40456e-09
-0.000430237
2.07054e-06
-4.54565e-09
1.84494e-06
7.18674e-10
-6.13299e-09
-1.41111e-07
-3.1305e-09
-1.98948e-05
-1.30049e-06
-3.18695e-10
2.83434e-09
-9.24033e-09
0.00129428
-2.2318e-08
-3.30171e-09
-0.0096545
-2.87738e-09
-2.37239e-08
-0.00137064
1.9723e-07
3.38838e-08
6.87552e-10
-0.000128016
2.67322e-06
2.89892e-07
-1.4373e-08
9.69613e-07
3.39822e-07
2.10565e-08
2.10832e-05
0.000508736
1.5314e-06
-1.16558e-08
-1.87735e-08
-6.70247e-07
-3.28215e-08
-0.00290843
-4.13109e-09
-1.82651e-07
0.000128961
1.4725e-06
-3.23138e-06
3.29229e-09
-0.000478096
-9.952e-09
-5.52488e-07
7.51252e-06
6.11298e-08
1.42479e-08
-5.10042e-08
9.87711e-06
6.43286e-09
0.00288512
3.27769e-09
-3.26453e-09
6.02609e-09
-1.40229e-09
2.243e-08
-2.32781e-10
-0.000250061
-1.43547e-08
0.0026377
2.01517e-09
-2.51973e-08
4.09124e-08
5.08461e-09
0.00115814
-5.82967e-09
8.86001e-10
0.00765219
3.3245e-07
0.000602818
-8.97974e-09
-0.00025494
0.000416862
0.00434645
8.40911e-09
-4.68683e-10
-2.08983e-05
2.93839e-08
-2.72521e-09
-6.85289e-09
-0.00168286
-1.30896e-09
2.51537e-09
-5.75097e-07
-3.83698e-08
-8.67208e-09
-5.03363e-09
0.000290081
-6.82977e-09
1.01784e-08
8.84944e-09
-7.07444e-09
0.00393038
1.36507e-08
7.08524e-08
1.58832e-06
1.9945e-08
1.37473e-09
-2.44483e-09
-1.37239e-09
2.54264e-09
-8.5098e-11
-0.00159749
1.04866e-06
-0.0103709
1.79725e-09
1.05678e-09
1.48144e-09
2.77588e-06
1.13078e-06
-1.33975e-09
3.42808e-07
5.40921e-09
-1.59849e-08
-6.04683e-06
-1.26964e-08
-1.86521e-08
-1.56961e-08
-7.26485e-09
-3.17112e-09
0.00267569
1.23966e-07
-2.22142e-07
-7.65875e-09
-5.70808e-07
0.00295065
4.59679e-08
-6.56005e-08
9.7562e-07
-2.92313e-08
3.33743e-08
8.35884e-08
3.51037e-08
-3.92953e-06
3.89841e-08
5.44395e-09
2.08256e-07
-0.000187291
2.14756e-05
-7.07007e-06
-3.75047e-08
0.000444997
-5.49602e-08
-2.26732e-09
-2.76632e-08
0.000976131
-0.0102241
-2.65069e-07
-0.000367305
-5.64857e-09
9.63896e-07
4.31721e-05
-0.00122115
-0.000647579
-4.29404e-09
-0.000226899
6.09582e-07
1.28048e-08
-2.51676e-07
6.03175e-08
-2.11166e-07
9.21099e-09
-1.9926e-08
2.70525e-07
-1.15425e-09
-9.27226e-08
1.09067e-06
0.000537942
1.61732e-09
2.48656e-07
-7.32634e-09
1.07428e-06
-2.86748e-06
-4.23957e-09
6.45102e-06
4.94623e-07
-0.000253002
5.59337e-08
-2.80029e-08
-1.45638e-05
-8.10139e-09
-0.000693832
8.76336e-08
-2.73733e-08
3.28316e-09
-2.10317e-07
2.24974e-08
4.6397e-05
1.51741e-09
-7.64394e-05
6.79901e-09
9.50127e-09
-4.18537e-06
5.70447e-07
5.363e-09
1.03767e-09
-0.00110277
-6.60049e-07
-2.57491e-05
-5.04884e-09
-0.000121504
7.44343e-09
-2.41217e-08
1.35297e-08
3.22409e-09
-1.74544e-08
-0.000222472
-2.75866e-06
-0.00101643