/*--------------------------------*- C++ -*----------------------------------*\
| =========                 |                                                 |
| \\      /  F ield         | OpenFOAM: The Open Source CFD Toolbox           |
|  \\    /   O peration     | Version:  v2012                                 |
|   \\  /    A nd           | Website:  www.openfoam.com                      |
|    \\/     M anipulation  |                                                 |
\*---------------------------------------------------------------------------*/
FoamFile
{
    version     2.0;
    format      ascii;
    class       volVectorField;
    location    "400";
    object      ddt0(U);
}
// * * * * * * * * * * * * * * * * * * * * * * * * * * * * * * * * * * * * * //

dimensions      [0 1 -2 0 0 0 0];


internalField   nonuniform List<vector> 
37809
(
(-2.36851e-06 -1.13416e-05 0)
(-0.000160501 0.000115095 4.06543e-21)
(-0.000149012 0.000279468 2.0411e-21)
(0.000194024 -0.0028539 5.88774e-21)
(-0.000115393 5.78741e-05 0)
(-1.36644e-06 -1.78498e-07 -2.247e-22)
(-2.50507e-07 1.33204e-06 9.17804e-23)
(0.0205491 -0.0177271 -3.64919e-21)
(-4.41465e-05 -3.56914e-06 1.64817e-21)
(-0.00091627 0.000156786 3.21094e-21)
(0.00149221 -0.00151916 0)
(-0.000177942 -0.000385659 0)
(-0.000301295 5.71064e-05 -6.60205e-23)
(-0.00060367 0.000513294 1.54209e-22)
(6.21362e-06 1.47548e-05 1.25626e-21)
(-0.000130059 0.000115481 -1.18357e-21)
(-5.08962e-06 -8.60579e-07 9.12039e-23)
(0.00772472 0.00151012 3.72011e-21)
(-0.000151945 -0.000400191 0)
(-3.91783e-05 2.89279e-05 0)
(-0.000133735 0.000112035 1.45794e-21)
(0.00544215 -0.0130499 -5.54816e-21)
(0.0264119 0.0321881 9.92725e-23)
(0.00263681 0.00326458 -3.08719e-24)
(0.00817055 0.000238092 -2.12165e-21)
(-1.75997e-05 -1.65786e-06 -2.51606e-23)
(-0.000314859 -9.05545e-05 -3.52569e-21)
(0.000574412 -0.0143757 0)
(-0.00049447 0.000376924 0)
(-3.04433e-06 1.00708e-06 9.88198e-23)
(-0.00316822 -0.000824295 -3.00971e-21)
(0.00719927 6.80998e-05 5.51671e-21)
(-4.19792e-06 1.68317e-05 -1.44557e-21)
(0.00917431 0.0190614 0)
(-0.000354718 -0.000130541 8.81066e-22)
(-3.17072e-06 1.55599e-05 0)
(-0.000920176 0.000882847 0)
(0.00126636 0.00239022 6.20674e-21)
(-0.0436396 -0.116664 0)
(1.43978e-05 7.70143e-05 0)
(-8.18548e-06 3.04962e-05 1.96874e-23)
(-0.00756261 -0.0302924 -1.65749e-21)
(-0.000126448 0.000138202 2.55547e-21)
(-0.0011013 7.98925e-05 -1.36275e-21)
(-1.87219e-05 5.16967e-06 -3.26847e-21)
(-0.000405285 -0.000240797 3.68748e-21)
(-9.02647e-05 5.62451e-05 0)
(0.000142903 0.000129682 -6.5345e-22)
(-0.000106535 -2.11069e-05 0)
(-0.00217631 0.00618784 3.20635e-21)
(-0.000734189 -0.0157584 7.4061e-21)
(0.0565797 0.0673013 5.82728e-21)
(0.00867061 0.022175 2.19684e-21)
(0.00809092 0.0178917 0)
(-0.000334465 -0.000122264 -3.8455e-21)
(2.4843e-05 0.000119434 -1.28405e-22)
(0.001275 -0.00173356 -5.20434e-21)
(-0.000225534 0.000198508 1.71481e-21)
(0.00147495 -0.00390403 0)
(0.00110738 -0.00978659 -4.85655e-21)
(-0.00039066 -0.00026477 -3.45627e-21)
(-0.000649757 0.000249893 -1.9287e-23)
(-0.00122115 -0.0030266 -6.27135e-21)
(-0.00106432 0.000135465 1.37527e-21)
(-0.00136758 0.000571144 1.03081e-21)
(6.09545e-06 2.33931e-05 7.51824e-22)
(-0.000157843 0.000169644 0)
(0.00858915 -0.000384818 0)
(-0.00102054 -0.000555081 1.26308e-21)
(0.00157437 -0.00808308 3.09153e-21)
(7.58049e-06 0.000137687 -1.12701e-22)
(-1.36677e-05 -1.89558e-06 -5.30669e-23)
(0.0638868 0.0576131 -3.96217e-21)
(-0.00176961 0.00209702 0)
(-7.25853e-06 9.34567e-07 -5.63031e-24)
(-0.0316511 -0.0178853 -3.95076e-22)
(-0.00218204 0.00584359 5.65013e-21)
(3.37861e-07 -4.6569e-06 0)
(-0.000112657 0.000129233 1.22748e-21)
(-6.70555e-06 2.50087e-06 -1.26986e-21)
(-0.0010879 0.000200086 -2.8287e-21)
(0.00786323 0.001446 0)
(-2.13825e-05 7.19959e-05 0)
(0.00643122 0.0233007 0)
(0.0088661 -0.029042 9.53319e-21)
(0.0086524 -0.000301352 3.85674e-21)
(-0.000301389 -3.32313e-05 -5.38373e-22)
(-0.000379295 -0.014387 -4.66595e-21)
(-0.00103033 -0.000640713 -1.94382e-21)
(-0.000954451 0.00085341 -1.67088e-21)
(-1.8465e-05 -1.16932e-06 0)
(0.000513973 -0.0078979 3.33724e-22)
(-0.000223058 0.000411715 0)
(-6.66935e-06 7.41757e-07 0)
(-0.000626661 0.000234397 0)
(3.5483e-09 2.7925e-06 1.52631e-22)
(0.00397869 -0.00340228 0)
(7.23607e-07 3.7737e-06 0)
(-1.16214e-05 -2.82809e-06 0)
(0.00824631 0.000245862 0)
(-2.21451e-05 -1.10697e-06 -6.69263e-23)
(0.0011674 -0.00190066 8.8778e-21)
(-2.33678e-08 -1.0899e-05 1.01058e-22)
(-0.00129536 0.000436683 -2.04901e-21)
(0.00783402 -0.0265781 5.78496e-22)
(-0.000198925 7.5639e-05 0)
(0.00545204 -0.0126484 5.09638e-21)
(1.9736e-07 -1.05529e-06 0)
(0.0328545 0.00372953 3.3274e-21)
(0.0304424 -0.0216892 6.51124e-22)
(6.50251e-05 2.35263e-05 9.41225e-23)
(-0.00179555 0.00196171 0)
(0.00823946 0.0033863 -3.95693e-21)
(-3.72832e-06 8.4689e-05 0)
(0.00400529 -0.00432744 2.70419e-21)
(0.00843478 0.00339814 -3.46515e-21)
(-1.08485e-05 3.98823e-05 2.12336e-21)
(-1.55278e-05 -1.69317e-05 0)
(0.0385201 -0.0166165 0)
(-2.33559e-05 9.05689e-05 -6.89073e-22)
(-0.0443348 -0.0181101 -1.0533e-21)
(-0.00189461 0.00649514 0)
(0.00829768 -0.0173251 8.06164e-21)
(-1.92883e-05 5.59631e-06 2.63221e-21)
(-0.000137797 -1.2751e-05 -2.1369e-22)
(-0.0268772 -0.00313168 1.22811e-24)
(2.28515e-07 5.20623e-06 1.43104e-22)
(3.43661e-06 -8.20889e-05 -1.23129e-21)
(2.04556e-06 3.76631e-06 0)
(2.00654e-06 5.59301e-06 0)
(-0.000160419 0.000261354 2.02982e-21)
(-1.45241e-06 2.69327e-05 -5.2259e-22)
(-0.000279284 3.30846e-05 -3.97325e-23)
(-0.000128794 7.19566e-06 2.19801e-22)
(2.30596e-07 4.81783e-06 2.81529e-22)
(-2.41768e-05 1.463e-08 2.35799e-22)
(-0.00133747 -2.94666e-05 -3.77429e-21)
(-0.0296118 -0.000594305 0)
(0.00836189 0.000302828 0)
(-9.10738e-05 0.000202126 0)
(-0.000159989 -0.000446077 0)
(-0.00487799 -0.0312174 -4.19105e-21)
(-0.000669419 0.000577963 3.69289e-22)
(-3.09181e-05 8.89499e-05 -5.24064e-21)
(1.94122e-06 5.19252e-06 -1.93061e-22)
(-2.22265e-05 -2.32282e-06 -3.55859e-23)
(-0.00013603 -0.00046252 0)
(0.000136422 5.88208e-05 0)
(1.9968e-06 5.30107e-06 -4.90057e-22)
(-4.36579e-08 4.77088e-06 -2.82981e-22)
(-0.00547933 0.000994774 7.85856e-24)
(-3.3082e-05 8.9892e-05 2.36954e-21)
(-1.30409e-05 3.23022e-06 -1.61617e-21)
(-0.00085069 -0.0024671 0)
(2.3281e-06 4.34048e-06 8.46828e-23)
(-0.00292191 -0.00107334 1.75339e-21)
(-2.61096e-08 4.43238e-06 2.74972e-22)
(-0.0465244 0.0546999 -8.26073e-21)
(-1.15199e-05 -1.07123e-07 -3.14873e-24)
(2.66164e-06 -7.19588e-07 0)
(-4.84767e-06 2.52623e-05 0)
(0.00115398 -0.024791 -5.58131e-21)
(0.00739276 6.6118e-05 -1.70347e-22)
(-7.80866e-05 0.000109739 -1.02682e-21)
(2.26092e-06 5.4126e-06 2.12364e-22)
(-0.000153882 0.0011577 -2.75576e-21)
(-4.31306e-06 2.5415e-05 0)
(-0.0631516 -0.0130401 9.58345e-22)
(1.38708e-05 -7.94561e-05 -1.17638e-21)
(0.0192556 0.0234303 -1.09993e-23)
(-1.47296e-06 -3.24177e-07 2.10753e-22)
(-0.00279204 0.00685769 -3.22742e-21)
(-6.63778e-05 -0.000106055 -7.0841e-22)
(-2.58848e-05 9.19884e-05 -7.60174e-22)
(-0.000749306 0.000532417 -1.08447e-21)
(-0.000124032 -2.42558e-05 -2.84235e-23)
(-4.44953e-05 -3.88786e-06 -2.06047e-21)
(-2.62138e-05 1.83981e-05 5.86711e-22)
(-0.00113709 -0.00325344 0)
(-2.38406e-05 1.4546e-06 5.37055e-23)
(-0.000428902 0.000446172 1.93468e-22)
(-0.00969946 -0.0321737 3.34328e-21)
(-0.000156231 4.48406e-05 2.1849e-22)
(-0.000495221 0.000387419 1.78338e-22)
(-3.32961e-05 3.55216e-06 1.8723e-21)
(-1.03459e-05 -5.0336e-06 1.83653e-22)
(0.00526091 -0.0030895 5.96231e-21)
(-5.51158e-05 -0.00011987 2.97856e-22)
(0.00823064 0.00036584 8.11816e-22)
(0.00119478 0.000969244 -1.06424e-20)
(0.0133567 0.137021 -8.62645e-22)
(-0.000995579 -0.000160799 -6.11317e-21)
(-3.92542e-05 3.14481e-05 0)
(-0.0112263 0.0128248 -5.73007e-21)
(-2.59015e-06 2.70934e-08 -8.53057e-23)
(-2.38082e-05 7.11747e-05 0)
(-2.55655e-05 7.15076e-05 0)
(-0.000851041 -0.00231048 -7.55e-21)
(-0.000344105 -4.44325e-05 -5.9902e-22)
(-0.00185707 -0.0159658 3.1402e-21)
(0.00596913 0.141665 1.2349e-21)
(-0.00104642 0.000252072 0)
(3.72845e-05 -6.27515e-05 8.89782e-22)
(-0.00125072 0.00089169 -1.25059e-21)
(-0.000417787 -0.000294369 1.65763e-21)
(-2.93345e-06 3.66041e-05 -5.46749e-22)
(3.00936e-06 -5.92263e-07 -4.28097e-23)
(0.00135868 -0.00775644 5.06529e-21)
(-8.52132e-06 -9.0078e-06 -3.98618e-22)
(0.00703905 0.00308963 0)
(0.0275198 0.0175633 -1.05043e-22)
(-0.0141135 0.0139811 -1.54195e-21)
(0.0133381 -0.000857925 4.60413e-21)
(-0.00282132 0.00650029 -2.40107e-21)
(-5.31574e-06 -6.33852e-07 -1.93293e-22)
(-1.13347e-05 2.78953e-07 0)
(0.0401839 -0.0198212 -4.60221e-22)
(-0.0021041 0.000517344 -7.64994e-22)
(-1.35618e-06 -1.0463e-05 -9.70853e-23)
(0.0147852 0.0110966 0)
(-0.000636739 0.000641333 0)
(4.90391e-05 -6.8593e-05 -1.75703e-21)
(-0.000410548 -0.000325101 3.08351e-21)
(-2.39197e-05 -3.47345e-07 5.72461e-24)
(-7.28366e-06 -6.98209e-07 0)
(-0.00220281 0.000607442 1.60337e-21)
(-2.31292e-05 3.7352e-06 -3.57302e-22)
(0.00306392 -0.00486425 -7.13406e-21)
(-9.3478e-07 3.90003e-06 -7.0611e-23)
(-0.00540392 0.00285036 0)
(-8.69843e-05 0.000128125 -2.28401e-21)
(5.97775e-05 -6.13153e-05 -9.16631e-22)
(5.42188e-09 -1.13886e-07 0)
(2.96047e-05 -6.69044e-05 0)
(-0.00120658 0.000748319 -9.57119e-22)
(-0.00694773 0.00322976 2.0728e-21)
(0.00311286 -0.00596878 -5.84271e-22)
(-2.37995e-05 -1.70749e-07 -1.61892e-23)
(0.000348557 -0.00025195 -9.6887e-22)
(-4.93474e-06 -3.37134e-06 1.00058e-22)
(-0.000950553 -8.15946e-05 -7.39875e-21)
(-9.64025e-06 3.40105e-07 -2.03219e-24)
(0.0032883 -0.0258505 -4.79234e-21)
(0.0040619 -0.00324154 -4.12074e-21)
(-0.000635536 0.000516112 4.77648e-21)
(-0.000159034 0.000270109 -2.42056e-21)
(-0.00163248 0.00186775 6.31638e-21)
(0.00298503 -0.023107 -4.08114e-21)
(0.00414526 -0.00290671 -1.97207e-21)
(-0.000402524 0.000589364 1.62645e-21)
(-3.13606e-05 -3.98472e-06 8.49087e-22)
(-2.32548e-05 4.28487e-06 2.79794e-22)
(-0.000595426 0.000259628 2.27426e-23)
(0.00191779 -0.0267159 -5.14322e-21)
(-2.85662e-05 -2.09625e-06 2.04474e-22)
(-3.35864e-05 1.97558e-06 -9.97841e-22)
(-0.00253688 0.000616497 0)
(-2.60178e-05 2.11209e-05 -8.3787e-22)
(-0.00188216 -0.000282016 7.41654e-22)
(-0.000333812 -9.30577e-05 3.88084e-21)
(0.000232587 0.000460469 0)
(-3.0729e-05 1.49899e-05 1.70653e-22)
(-0.00185395 -0.00057183 0)
(-2.12942e-05 0.000143405 -3.80061e-22)
(0.007755 0.00151518 1.79628e-21)
(-7.84185e-05 2.72551e-05 -6.7641e-22)
(0.00254847 -0.00573563 1.39347e-21)
(-0.0145952 0.0144298 1.79676e-21)
(2.66506e-08 -5.42295e-06 3.6111e-23)
(0.000262261 -0.000146449 -2.29526e-23)
(2.88402e-05 1.46246e-05 0)
(-4.38748e-05 -6.28214e-07 -1.78564e-21)
(0.000200451 0.000387057 -3.41327e-22)
(0.00640019 -0.000185189 7.34442e-22)
(-0.0016139 -0.000201293 -1.36244e-21)
(0.0079383 0.00158791 1.86673e-21)
(0.00014739 0.000105862 0)
(-0.000132501 0.000123633 2.7101e-21)
(1.76196e-07 -5.74831e-07 1.99076e-22)
(0.00847835 -0.000456232 7.19494e-21)
(-0.0116937 0.0139633 3.1623e-21)
(-2.17754e-05 -1.93768e-08 0)
(-0.00241713 -0.000651113 1.29433e-22)
(-0.050856 -0.0595017 -2.98527e-21)
(0.00297382 -0.0204113 0)
(-2.61999e-05 1.93072e-05 -9.56917e-23)
(0.00294204 -0.0062063 1.99619e-21)
(-0.000575203 0.000243693 2.26134e-23)
(-1.45867e-05 -1.3137e-05 0)
(0.0228654 0.0220865 -9.00835e-23)
(3.13472e-05 -8.68996e-05 1.73542e-23)
(-2.90336e-05 -2.01627e-06 0)
(-0.0213598 0.00430392 -3.9857e-22)
(0.00774651 0.000611905 -2.61326e-21)
(-0.000891494 0.000197757 -7.35565e-22)
(-1.48237e-05 -1.45275e-05 0)
(0.00452142 -0.00297499 3.31721e-21)
(-2.97514e-05 -3.58156e-06 1.10451e-21)
(-2.92317e-05 -3.27229e-06 1.05755e-21)
(0.00981928 0.00178969 -1.52149e-22)
(0.0300928 0.0206754 2.02307e-23)
(-0.000167047 5.80938e-05 0)
(-0.000128172 0.000127432 -2.6869e-21)
(-0.000473106 0.000386224 -2.56028e-21)
(-8.04537e-05 0.000105976 9.97147e-22)
(0.000196212 0.000305387 -5.06222e-22)
(-3.02212e-05 -3.42306e-06 -1.58382e-21)
(-1.39826e-05 -1.41634e-06 1.09326e-22)
(-1.2389e-05 8.90272e-05 4.8317e-22)
(0.00659441 -0.00329466 0)
(-0.000123282 0.00105909 0)
(-8.05792e-05 2.64355e-05 -2.5369e-22)
(-2.30341e-05 7.27538e-05 -9.79239e-22)
(-0.00413726 0.0156689 0)
(-0.00085546 0.000858812 0)
(-1.5315e-05 -1.20794e-05 0)
(0.016849 0.0160195 0)
(-1.1727e-05 -6.17093e-06 1.00052e-22)
(-0.121056 -0.153731 -5.02796e-21)
(-0.00508686 0.0142528 0)
(-0.000107364 0.00114784 0)
(-0.0238673 0.00524328 4.16104e-22)
(0.00815413 0.00333922 -1.10467e-21)
(-0.00560109 0.00262779 0)
(0.00356385 -0.00436034 -2.67721e-24)
(1.32107e-06 -9.79868e-06 0)
(-0.000103894 0.000481912 0)
(0.00268179 -0.00500461 -1.7996e-21)
(-1.98246e-05 3.66679e-05 -5.44451e-22)
(0.00013779 3.9793e-05 0)
(-0.00253769 -0.00106298 0)
(-0.00272664 -0.00109714 2.7989e-21)
(-0.00366027 0.00287715 -6.16101e-21)
(4.78064e-06 -6.77226e-06 0)
(-2.03579e-05 3.09137e-06 0)
(-0.000142959 2.37289e-05 0)
(-2.48948e-05 8.74227e-05 6.34538e-22)
(0.00447348 0.00794861 -3.30556e-21)
(0.00710208 -0.00121463 -1.31965e-21)
(-8.76116e-05 4.60247e-05 3.93555e-22)
(0.0024401 -0.00595182 1.41074e-21)
(-1.55255e-05 -1.18383e-05 1.80109e-22)
(0.00809171 0.000448821 -6.30948e-21)
(0.000392632 0.000135346 -9.18389e-22)
(0.000138622 -9.62995e-05 -3.44301e-22)
(-9.39416e-05 1.33821e-05 0)
(0.00435709 -0.00267752 0)
(0.00427228 0.00280425 0)
(-9.52224e-05 0.000472574 0)
(-0.000226371 0.000208616 -4.95228e-22)
(-0.00214976 -0.00101356 -1.64196e-21)
(-0.000160653 -0.000130038 0)
(-0.00010302 -1.544e-05 0)
(0.00837372 -0.000531314 -1.03523e-20)
(-7.64931e-05 0.000510691 -9.19301e-21)
(1.88436e-06 -0.000159095 0)
(-1.35158e-05 1.01969e-05 -7.76738e-24)
(0.00689066 0.000336878 0)
(-0.0289262 0.0367282 0)
(-0.000692267 0.000371407 0)
(9.41492e-06 -2.60014e-06 -5.03993e-22)
(0.0209108 0.0258511 0)
(-0.000561342 -1.0159e-05 -4.09585e-21)
(1.1272e-05 -1.62097e-06 4.70661e-22)
(0.000205096 -3.4528e-05 -4.70597e-22)
(-0.00022516 0.00113767 2.66648e-21)
(-0.000274423 0.000430357 0)
(-0.000648125 -0.00207039 1.87337e-23)
(0.000264725 0.00127206 2.93049e-21)
(-1.15096e-05 -6.32729e-06 3.57413e-22)
(-0.00302042 -0.00489937 -1.05509e-21)
(-8.83657e-06 -4.85993e-06 -3.64185e-22)
(-7.45144e-05 0.000109092 2.01683e-21)
(-3.22768e-07 4.25049e-06 -3.469e-22)
(0.00057671 0.00128348 -3.07448e-21)
(-0.000336094 0.000384026 0)
(-0.000618593 0.000457309 -3.54987e-22)
(-2.88019e-05 -3.18671e-06 -1.05688e-21)
(-0.00124611 0.00639715 0)
(0.00539443 -0.00288388 2.81691e-21)
(-0.000327949 -3.56308e-05 0)
(-3.44946e-06 1.55322e-07 0)
(-0.0502085 -0.0600092 2.52648e-21)
(-0.00168571 0.00180337 -7.70014e-21)
(0.00976186 0.00256079 3.47923e-22)
(0.000234739 6.50711e-05 0)
(-1.41461e-05 2.33258e-06 0)
(0.040325 0.013558 0)
(0.0100009 -0.0241184 0)
(0.00728271 -0.000469195 4.11448e-23)
(-1.01064e-05 -1.20314e-05 -5.31601e-23)
(-0.00226309 -0.0046556 0)
(0.0228929 -0.0177306 0)
(-0.00212997 -0.000614783 -4.51931e-24)
(0.000990096 -0.0155562 3.89222e-23)
(0.00010886 -0.000136598 0)
(-1.06424e-05 -1.28262e-05 -7.69106e-23)
(0.000100907 -0.000165633 -1.21495e-22)
(0.00794586 0.000513556 8.57073e-21)
(-3.02265e-05 -1.91296e-05 1.90032e-23)
(6.26625e-05 -0.000167287 -4.59142e-22)
(-2.65755e-05 -1.33292e-05 -5.32721e-23)
(0.000364056 -0.000251429 1.17161e-21)
(0.00322304 -0.0046114 2.45806e-21)
(-0.000592315 5.08644e-06 -4.53362e-22)
(0.00765777 -0.0006243 0)
(-0.0497058 0.00364118 1.97536e-21)
(-3.09678e-06 6.61323e-07 -1.01304e-22)
(-0.000427455 -0.000393871 2.42084e-21)
(0.0271885 -0.0141327 2.68897e-22)
(-8.43349e-05 0.00010642 1.00726e-21)
(-0.000688451 -0.000137522 0)
(-0.00155729 8.95053e-05 2.85762e-21)
(-0.00686455 0.00374093 0)
(-0.00582303 -0.0258672 -5.44205e-21)
(1.41787e-05 -4.19799e-06 -1.84876e-22)
(-2.96803e-05 -1.93418e-05 4.00491e-23)
(-0.000834422 0.000601334 8.912e-22)
(-0.000361694 0.000811193 -1.04982e-21)
(0.010173 0.0153471 1.15657e-22)
(-5.53661e-05 0.000144052 -1.31298e-22)
(0.000203802 0.000185615 0)
(-8.24907e-05 0.00012645 0)
(-0.0282487 -0.0201036 0)
(0.0186026 0.0524774 1.9249e-22)
(0.00236085 0.00187803 2.27171e-23)
(-0.00031047 -3.63545e-05 0)
(3.25705e-06 -8.53803e-06 2.78514e-22)
(-1.94754e-05 3.84135e-05 -1.24108e-21)
(-8.42152e-05 0.000155591 2.8456e-23)
(3.80749e-06 -7.97438e-06 0)
(0.0074085 -0.0003839 7.01845e-22)
(0.00864835 0.014007 3.66821e-21)
(0.00698011 -0.000367418 0)
(0.000419043 -0.000436905 9.07027e-22)
(-2.39013e-05 0.00090337 -3.81245e-22)
(-0.000718785 0.00167305 -2.68089e-23)
(0.00758839 0.000687012 0)
(-0.00152773 6.17068e-05 3.48655e-22)
(0.0264737 -0.0253897 -1.57011e-22)
(-0.00153884 -0.000160962 -3.35573e-22)
(0.00020759 0.00332543 0)
(0.000114303 9.10302e-05 -1.52846e-22)
(-7.142e-06 -1.3927e-07 7.1448e-23)
(-1.22404e-05 -5.85294e-06 -9.58897e-23)
(1.10696e-06 -6.73169e-06 0)
(-0.000127877 4.58425e-05 -5.5171e-24)
(0.000141274 -0.000124588 0)
(-1.44083e-05 -9.38367e-06 0)
(-0.000535339 0.000539677 1.71939e-22)
(-8.75639e-06 5.07312e-05 0)
(-0.00043285 -1.54467e-05 6.62417e-22)
(0.00742963 0.0511524 4.70597e-21)
(-5.57234e-05 1.6507e-05 6.51612e-22)
(-4.95484e-06 7.66947e-05 -1.02012e-21)
(-3.22849e-05 -4.25215e-06 3.14276e-22)
(1.88043e-07 1.17088e-06 7.42468e-23)
(-0.00041385 0.000623283 -5.91357e-23)
(-2.72474e-05 1.49177e-05 9.74975e-23)
(0.000379654 -0.00041972 -3.09427e-21)
(-0.000562204 0.000292286 0)
(-8.77915e-05 4.18782e-05 -5.30241e-22)
(0.00976163 0.0153499 2.92175e-21)
(0.000226044 -6.1958e-05 7.12328e-22)
(-0.000238787 -0.000103725 0)
(-0.0336496 0.00840821 0)
(-1.29731e-05 -7.10544e-07 6.71918e-23)
(0.000273389 4.74717e-05 0)
(0.000372597 0.00131612 5.10886e-21)
(0.00644844 0.0040153 0)
(0.00780854 -0.00299565 1.18704e-21)
(-1.40195e-05 -7.88253e-06 -9.8783e-23)
(-0.00335419 0.00241193 5.45985e-21)
(0.00142509 -0.00177821 1.36594e-21)
(0.00187022 -0.00719236 -2.85785e-21)
(-8.10377e-06 4.90974e-05 0)
(-8.64937e-05 5.79183e-05 0)
(0.00601755 -0.083309 0)
(-0.00211431 -0.0196173 0)
(9.81548e-05 0.000100941 0)
(-5.25729e-05 0.000185261 2.14238e-23)
(0.0184425 0.0576968 0)
(0.00424658 -0.00309262 3.79927e-21)
(-2.56009e-05 -1.21706e-05 4.01132e-23)
(-0.0277011 -0.00698831 0)
(4.72649e-07 -4.20928e-07 -2.94571e-22)
(0.00689974 0.000847673 3.44082e-21)
(-0.000957474 -0.000454052 -1.27313e-21)
(-3.20046e-05 -5.76073e-06 0)
(-0.00206044 0.000295787 4.91887e-21)
(-3.05343e-05 9.0989e-05 4.70636e-21)
(-3.1936e-05 -3.76937e-06 -2.81508e-22)
(0.00416763 -0.00290372 -3.72165e-21)
(-0.0610637 0.0223877 0)
(-8.75993e-06 -8.51861e-06 4.23114e-22)
(-4.3358e-05 -1.08941e-06 1.26238e-21)
(-1.40061e-05 -5.99059e-06 1.73039e-22)
(5.25971e-07 -1.04072e-05 0)
(0.00684776 0.000919332 4.42764e-21)
(0.00686926 0.00311049 0)
(-4.92567e-07 -7.02165e-06 0)
(0.00892238 -0.00514405 -3.23586e-21)
(-0.00605783 -0.0222307 0)
(-1.9872e-05 1.00682e-05 3.85119e-22)
(-7.31025e-06 -5.19008e-06 0)
(-7.16868e-07 -6.44281e-06 0)
(-0.00238626 -0.00167124 0)
(0.00351051 -0.00496658 -4.47606e-21)
(0.0326079 0.00628792 -9.76964e-22)
(-0.0607905 0.0249638 4.45459e-21)
(0.000255808 0.000186547 0)
(0.00106735 -0.00902356 -6.90078e-22)
(-2.72574e-05 1.66377e-05 9.30472e-22)
(-9.31175e-06 3.34555e-07 0)
(-0.027223 -0.00926707 -5.12477e-21)
(-2.61537e-05 -1.30232e-05 9.4432e-24)
(-0.00241352 0.000737227 3.52519e-21)
(-0.0455787 0.00614145 2.77839e-21)
(-0.0552626 -0.0625061 1.10627e-21)
(-0.00278206 -0.000453786 -2.47472e-22)
(-0.00215031 0.000377106 -4.27949e-21)
(-5.53484e-07 -6.9356e-06 6.16042e-23)
(-0.000597167 0.00065036 0)
(-0.120345 -0.144146 0)
(0.0089158 0.0107622 0)
(-2.25626e-05 9.12797e-05 -7.19066e-22)
(-0.0496972 -0.0148225 0)
(-0.000575592 0.000416106 4.16538e-21)
(-3.15223e-05 -6.66162e-06 1.42652e-22)
(0.00616876 -0.00375408 9.67175e-22)
(-2.13025e-05 2.97347e-06 -1.94473e-21)
(-0.000547452 0.00170712 -2.47096e-22)
(-9.02333e-05 0.000207659 0)
(0.00690494 0.0059424 0)
(-2.88909e-05 9.01941e-05 -1.48336e-21)
(-0.00228725 -0.000623748 -3.68418e-23)
(-0.00209419 0.00185906 6.83984e-22)
(0.00779992 0.00057423 -3.49279e-21)
(-7.61966e-07 -6.40729e-06 6.04756e-23)
(-0.000190119 8.71504e-05 0)
(-2.25078e-05 -4.94744e-06 -4.96051e-23)
(-0.000429325 0.000539586 1.03813e-21)
(0.00345659 -0.00494481 4.56933e-21)
(-0.0489121 -0.000318621 -1.37649e-21)
(0.00275758 -0.006826 0)
(-0.000660369 0.0119077 9.12719e-22)
(0.000236735 0.000531846 0)
(-3.16655e-05 0.000178258 6.53482e-22)
(0.00536935 -0.00314309 6.03577e-22)
(-0.00022197 0.00141809 2.73684e-21)
(0.00290891 -0.0065509 0)
(0.000455331 0.0118481 7.46243e-22)
(-2.49898e-05 6.35383e-06 0)
(-0.000643946 -0.000386768 7.91568e-22)
(-0.000277477 0.00148275 0)
(-0.000926964 -0.000418938 -6.37975e-22)
(0.00997493 0.0118872 0)
(1.31626e-06 0.000985587 0)
(-0.00360418 -0.00255631 0)
(-0.00312537 -0.0346155 -3.03073e-21)
(0.00555868 -0.0016871 1.06284e-20)
(-2.34468e-05 -9.05727e-06 -7.56323e-23)
(2.08088e-06 5.77882e-06 5.30308e-22)
(0.00681533 0.000248078 -5.03049e-21)
(-4.50814e-05 1.16274e-06 0)
(-1.26666e-05 -4.09845e-06 -1.36921e-22)
(-6.11923e-07 4.27408e-06 0)
(1.45049e-06 4.97699e-06 1.22835e-22)
(-2.29723e-05 0.000195547 0)
(0.00595345 0.000763325 0)
(0.00885453 -0.0169282 -5.48521e-21)
(-0.071878 -0.0204057 -6.739e-21)
(0.0046246 -0.0119293 0)
(-3.17632e-05 -3.49212e-06 2.96341e-22)
(-3.31281e-05 -7.04705e-05 1.66929e-21)
(-0.0256123 0.0268744 -1.14274e-21)
(-0.000108927 0.000133651 -3.89609e-21)
(-0.00025496 5.57364e-05 3.3183e-21)
(-0.00116644 -0.000952831 -2.18615e-21)
(-0.0208795 0.0305955 1.29089e-22)
(-1.47175e-05 -2.04689e-05 -2.73207e-22)
(-3.07532e-05 -3.66597e-06 1.11902e-21)
(0.000423312 0.000596756 0)
(2.97111e-05 8.55747e-05 -1.89546e-22)
(0.0184118 0.0170047 -7.22262e-22)
(0.00781198 0.00053563 0)
(-1.51925e-05 7.13417e-05 -2.52346e-22)
(-0.000442457 -0.000358338 -8.75015e-22)
(0.00733313 0.000394047 0)
(0.00778106 0.00651707 8.64936e-22)
(-2.22851e-05 -3.61638e-06 3.10432e-23)
(6.63894e-06 -1.44776e-06 0)
(-0.00215652 0.00242971 2.3868e-21)
(9.00115e-07 -7.48706e-06 0)
(0.0125115 0.0285613 -1.02282e-21)
(-0.0166961 0.015286 -9.68394e-21)
(-0.000414195 0.000550398 -8.65267e-22)
(0.000331416 -0.000203566 0)
(1.00245e-05 -5.76756e-06 0)
(0.00264755 0.00220463 0)
(0.00040342 -0.000273249 6.15615e-22)
(0.00229505 -0.00125419 1.9732e-21)
(-0.000267801 -9.10364e-05 0)
(-9.71797e-05 0.000128031 0)
(-0.000529764 0.000251552 0)
(-0.00588323 -0.023657 0)
(-0.00054785 0.00026531 -2.59226e-21)
(-0.000108112 2.15459e-05 0)
(-6.33377e-05 2.0796e-05 -3.17931e-23)
(0.00873885 0.00808913 -3.77579e-21)
(0.00249363 0.00209412 4.07368e-21)
(-8.76645e-05 0.000514904 1.0646e-23)
(-8.65994e-05 0.000102068 -1.04329e-21)
(0.00101398 -0.00783287 -1.66476e-21)
(0.000181531 0.000234901 5.10867e-22)
(0.00343642 -0.003011 -3.59948e-21)
(-0.00204206 0.00176135 -5.76735e-22)
(0.0406859 0.00995527 0)
(-8.69376e-06 -8.71817e-07 -1.96748e-22)
(0.000866044 -0.0132779 0)
(0.0090665 0.0155543 0)
(-0.123103 -0.123556 0)
(-0.00292068 0.0010213 -1.73636e-21)
(-0.000105034 -0.00238463 1.79777e-21)
(0.00676999 0.000954771 0)
(-1.72388e-07 3.43455e-07 -1.2554e-22)
(0.000146455 7.1065e-05 -3.06511e-22)
(0.00113646 -0.0141385 0)
(-0.00231161 -0.00208904 -2.05933e-21)
(-1.57095e-05 -1.8556e-05 -7.06311e-23)
(-0.000880249 0.000571694 2.6601e-23)
(0.0441956 -0.0133442 -3.38164e-22)
(0.000277349 -0.000188424 2.09484e-21)
(1.62218e-05 0.000110013 -1.01423e-21)
(0.00590065 0.000659021 1.18866e-23)
(0.102791 0.0689484 0)
(-0.00194265 -0.000452233 0)
(-7.80113e-05 -0.00221696 0)
(0.0061323 0.000522135 -3.55789e-21)
(-3.13992e-05 1.42233e-05 0)
(-0.00127528 0.000191492 -1.45924e-21)
(0.00565222 -0.00170227 -1.04953e-20)
(-0.000140739 -0.000133657 2.29633e-22)
(-0.00909396 0.0123221 0)
(2.20959e-05 -2.89566e-06 -2.08588e-25)
(-5.14104e-05 8.57443e-06 -1.28478e-21)
(2.393e-05 -4.71369e-06 0)
(0.00154919 0.00282255 0)
(0.00217742 -0.000967205 1.7674e-21)
(-0.00124138 -0.00350176 0)
(-0.00455311 0.00831155 0)
(-0.000766734 -0.00440348 -4.19929e-22)
(-0.000662528 -0.00225261 4.82082e-21)
(-0.000268545 -6.33051e-06 -7.42756e-22)
(-0.00626717 0.00908767 0)
(-0.00608365 -0.00221066 8.94529e-22)
(-0.000518233 -0.000177592 2.06856e-21)
(-2.43789e-05 9.54455e-05 -3.3892e-21)
(4.97677e-07 5.11424e-06 -1.58036e-25)
(0.0127781 0.0304079 -2.68964e-21)
(-6.10447e-05 1.91162e-05 0)
(-0.00179745 0.00162465 -2.51545e-21)
(-3.33726e-06 -3.24927e-05 1.08263e-21)
(-2.95604e-05 5.75343e-08 -3.37538e-22)
(-1.57161e-05 -1.80101e-05 6.10888e-23)
(-0.000102896 -3.39977e-06 -3.01223e-23)
(0.00727476 0.00320923 3.92143e-21)
(-1.4317e-05 -2.06323e-05 -1.05601e-22)
(1.08324e-06 2.86197e-06 3.18961e-22)
(-8.88023e-07 -7.08425e-06 -4.70716e-22)
(0.000197065 0.000204284 1.53695e-21)
(0.0191273 -0.0310101 0)
(-0.00184639 0.00173507 2.79828e-21)
(-0.00465927 -0.00146493 -1.56346e-21)
(-1.58249e-05 -1.77987e-05 0)
(-5.66441e-06 4.28554e-07 -2.30234e-22)
(0.00172039 -0.00372777 0)
(-2.2684e-05 -6.23466e-06 0)
(-0.000126828 0.000125732 1.0106e-22)
(-0.0532347 0.00936745 -5.29696e-21)
(-1.35849e-05 -6.66707e-06 -1.07025e-22)
(0.0065401 0.00127453 0)
(0.00126726 0.00271904 -3.08618e-21)
(-0.0508762 0.0200592 -3.89223e-21)
(0.00227911 0.00377291 0)
(-1.34245e-05 1.58936e-06 0)
(-2.32404e-05 2.94176e-06 -9.49384e-23)
(-3.10622e-05 1.37677e-05 -1.16712e-21)
(-0.000454444 -0.000214205 -1.43063e-21)
(0.0374951 0.073068 0)
(0.0254151 0.110758 -6.22271e-22)
(-0.000130345 0.000134456 0)
(-0.000675347 -6.78906e-05 6.50408e-22)
(-8.68077e-07 -5.17086e-06 -6.6093e-23)
(0.00647683 0.000965805 -7.30801e-21)
(-0.000280492 -9.74918e-06 -9.7115e-22)
(-4.12395e-05 2.13389e-05 0)
(-1.35833e-05 3.69772e-07 0)
(0.0244232 0.031586 0)
(0.00123191 0.00259233 -1.64721e-21)
(-9.09841e-05 0.000101698 1.12103e-21)
(0.00289487 0.0013327 -1.1494e-21)
(-0.0211857 0.0794151 -1.90469e-20)
(-0.00211886 0.00232633 0)
(-0.000150241 0.000270055 0)
(0.00453716 -0.0115647 0)
(4.47135e-06 -9.06524e-06 -2.33184e-23)
(-0.0183793 0.0144147 0)
(-4.62703e-05 0.000208053 -8.83698e-22)
(-1.39612e-05 -6.75893e-06 1.04121e-22)
(-8.8157e-06 -2.83625e-05 -1.44876e-23)
(0.0271324 -0.016508 -3.00854e-22)
(-5.7811e-07 -6.42028e-06 -6.38765e-23)
(-0.00124968 0.000126582 0)
(-5.52102e-07 -6.70844e-06 0)
(0.113541 0.0603603 4.15916e-22)
(0.0290422 0.085088 -3.78871e-22)
(-0.0671582 -0.0254704 7.38853e-21)
(-2.57849e-06 2.11125e-08 5.35508e-23)
(-8.0373e-05 1.85931e-05 2.99595e-22)
(1.84136e-05 -5.45256e-05 7.87267e-22)
(-5.3471e-05 1.06813e-05 -2.3564e-21)
(-2.83575e-05 -2.89015e-06 0)
(-0.000895056 0.013396 -1.22364e-21)
(-0.0013891 0.000234927 1.45004e-23)
(-2.27143e-05 -1.00349e-06 0)
(2.27198e-06 -7.12235e-06 0)
(1.39469e-05 -6.09098e-06 0)
(0.00026041 -0.0351695 0)
(0.0057228 0.00202524 0)
(0.0079947 0.000353169 -6.80683e-22)
(0.0147527 0.00302027 2.47884e-22)
(-0.00234634 -0.00185031 -2.82079e-23)
(-0.000227456 7.42877e-05 3.22556e-21)
(-1.6465e-07 -1.34309e-06 0)
(-2.50881e-05 -1.16765e-05 0)
(4.69836e-05 0.000763905 0)
(-0.00288369 -0.00107919 -4.38117e-21)
(-8.73057e-05 4.63235e-05 -9.18219e-22)
(-0.00458644 0.00106934 7.52222e-21)
(-0.000513058 5.03057e-05 0)
(0.01148 -0.00326786 4.87358e-21)
(-4.1073e-05 1.92877e-05 0)
(0.00646693 0.00253899 8.31348e-21)
(-0.00384536 -0.0205216 0)
(8.40152e-05 0.000249578 7.42345e-24)
(-1.00958e-05 -1.38541e-05 -8.80145e-23)
(0.0057379 0.000892087 -3.46735e-21)
(-3.17747e-05 -7.64199e-08 7.94084e-23)
(-0.000208736 -4.15299e-05 4.29104e-23)
(-0.00196345 -0.0302654 0)
(0.000138026 4.01583e-05 -5.19024e-22)
(-0.000259419 0.00058064 0)
(-9.65374e-06 -1.48198e-05 1.5636e-22)
(-0.0284129 -0.107253 0)
(-4.83749e-05 1.05797e-05 4.26015e-22)
(0.000722683 0.000730163 -4.54416e-24)
(0.00600462 0.00289082 0)
(0.00248974 -0.0162749 -6.41407e-21)
(-0.00214163 0.0136414 -1.32347e-21)
(-3.15922e-05 -1.0084e-07 -7.23664e-23)
(-0.00131727 0.000127442 -5.46851e-22)
(-1.89774e-05 4.43341e-05 -1.13785e-22)
(-2.20064e-05 9.2749e-08 0)
(-6.49442e-05 0.000291443 1.01904e-23)
(-9.58386e-06 1.5576e-05 -1.94612e-21)
(0.000209418 0.000264658 5.4121e-22)
(-3.20588e-05 -1.97056e-06 -7.05749e-22)
(-0.0538998 0.0466814 1.09369e-20)
(0.104553 0.057383 -6.23667e-22)
(0.113072 0.0572631 7.22791e-22)
(-5.80735e-05 0.000289075 -2.96147e-21)
(-0.000179745 3.75656e-05 0)
(0.00760434 -0.000751104 -6.94387e-21)
(-0.000206101 -7.48096e-05 0)
(-2.63434e-05 9.08604e-05 0)
(4.43109e-06 -3.43012e-06 -1.52629e-22)
(-2.79168e-05 -2.6983e-06 5.19191e-22)
(-0.00123877 0.000303864 -4.15543e-22)
(0.00836035 0.00127288 0)
(0.00508926 -0.00191618 0)
(-1.213e-07 -7.39194e-06 -6.05402e-23)
(1.20036e-07 -7.37512e-06 5.84927e-23)
(0.00452144 -0.00257926 -3.62126e-21)
(1.02129e-05 -5.05155e-05 0)
(-0.000178771 -8.11704e-05 0)
(0.0013003 0.00105566 8.69844e-21)
(-0.000868636 -0.00463029 0)
(-0.00206782 0.000186608 7.28837e-21)
(-0.00953037 0.0859262 0)
(0.0012957 0.00364588 1.39249e-21)
(0.0353738 0.00284424 0)
(0.000755256 -0.0298036 5.62789e-21)
(-5.00394e-05 1.04803e-05 0)
(0.00401839 -0.00450693 5.53089e-21)
(-0.000173107 2.65796e-05 -1.93759e-23)
(-0.00955828 0.0129484 -3.19321e-21)
(0.0070751 -0.000666134 0)
(-2.44393e-05 -1.13981e-05 9.17187e-24)
(-0.000788406 -0.000247674 0)
(-0.0536199 -0.0625043 -5.83074e-21)
(-1.54037e-05 0.000158495 0)
(-2.50118e-05 -1.22294e-05 0)
(0.00650908 0.00130071 -1.26314e-21)
(-0.000110608 0.000139158 2.55689e-21)
(-0.00053845 -0.000585727 -5.57634e-21)
(0.00857697 7.28196e-05 -3.25542e-21)
(-0.0599168 -0.00689558 8.17618e-21)
(0.000808645 0.000597129 -3.36405e-22)
(-0.0359717 0.00400864 1.40849e-21)
(-0.00783829 0.155697 3.30583e-22)
(-1.11823e-05 6.73231e-05 1.49428e-21)
(-0.00608491 0.00623457 1.37935e-21)
(-1.24753e-05 -2.24203e-05 2.53146e-22)
(0.00678054 -0.00152989 -4.88715e-22)
(0.0103819 0.0679174 -3.57187e-22)
(-7.35891e-06 6.38941e-07 0)
(-2.34417e-05 2.44356e-06 1.0652e-22)
(0.0183742 -0.0055299 2.16523e-21)
(2.4777e-06 -9.48659e-06 -2.79311e-22)
(-0.00763475 0.0243922 -8.09994e-21)
(-0.0852606 -0.139537 -4.42594e-21)
(-0.0481749 0.0427487 0)
(-7.34298e-05 2.51293e-05 3.70284e-22)
(-0.0456122 0.0463603 -5.82789e-21)
(0.000304803 0.000125954 0)
(-2.597e-07 -1.13942e-06 0)
(-3.18133e-05 -1.78696e-06 0)
(-1.27623e-05 -2.22579e-05 -3.5374e-22)
(-2.36747e-05 6.00744e-07 9.94343e-23)
(-7.75458e-05 1.66784e-05 -1.71695e-22)
(-0.00409042 0.000122078 -3.68897e-21)