/*--------------------------------*- C++ -*----------------------------------*\
| =========                 |                                                 |
| \\      /  F ield         | OpenFOAM: The Open Source CFD Toolbox           |
|  \\    /   O peration     | Version:  v2012                                 |
|   \\  /    A nd           | Website:  www.openfoam.com                      |
|    \\/     M anipulation  |                                                 |
\*---------------------------------------------------------------------------*/
FoamFile
{
    version     2.0;
    format      ascii;
    class       volScalarField;
    location    "400";
    object      p;
}
// * * * * * * * * * * * * * * * * * * * * * * * * * * * * * * * * * * * * * //

dimensions      [0 2 -2 0 0 0 0];


internalField   nonuniform List<scalar> 
37809
(
0.00083235
-0.0612364
-0.0464669
-0.0722782
0.000959225
0.000691787
0.000597487
-0.0817222
-0.0206041
-0.0325894
0.000373125
-0.0232677
0.000889575
-0.00548923
-0.0159491
-0.033753
0.000120201
-0.0699988
-0.0228185
-0.0195439
-0.0335324
-0.0848208
-0.00430792
0.000117113
-0.0699501
-0.00222539
-0.0295823
-0.0887546
-0.04065
0.000525334
0.00252244
-0.0713392
-0.0160337
0.00655261
-0.0290542
-0.0159765
-0.0740895
-0.0731642
-0.0200369
0.00103452
6.8718e-05
-0.00739467
-0.035527
-0.0308398
-0.0146582
-0.0273675
-0.0280332
-0.013189
-0.026274
-0.026445
-0.0888093
0.00389912
0.00760561
0.00648374
-0.0290637
0.000951047
-0.0622644
-0.0393058
-0.066874
-0.0863437
-0.0268956
-0.0362598
-0.0722707
-0.0315256
0.00153772
-0.015584
-0.0609751
-0.071462
-0.0255299
-0.00981637
0.000974369
-0.00180802
0.00454621
-0.0793672
0.000155744
0.000846329
-0.0269387
0.00065826
-0.0345734
-0.0150994
-0.0319472
-0.0718982
-0.0242589
0.00799191
0.00108848
-0.0711426
-0.000294604
-0.0890285
-0.0249361
-0.0737416
-0.0022498
-0.0855379
-0.0506655
0.00016602
-0.0362621
0.000855913
-0.075419
0.000860016
1.16766e-05
-0.0703266
-0.00302662
-0.0628997
0.000827729
0.00140159
0.00133604
-0.00840641
-0.0850434
0.00063949
-0.0503909
-0.00750961
-4.089e-06
-0.0788444
-0.0712856
0.00103268
-0.0810846
-0.0732669
-0.0147623
-0.00145844
-0.00682098
-0.0294823
0.0104958
0.00295844
-0.0891176
-0.0146684
0.00104743
0.00187358
0.000728896
-0.0201899
0.000810087
0.000841354
-0.0449003
-0.0154032
0.0008425
0.0010363
0.000722572
-0.00399983
-0.0289545
0.00225658
-0.0681181
-0.0428096
-0.0226523
-0.0081228
-0.00514163
-0.0278013
0.000845082
-0.0048826
-0.022266
-0.0143559
0.000817779
0.000721342
-0.0729168
-0.0277604
-0.0149633
-0.0679687
0.000819408
0.00236648
0.000716211
0.02385
3.54464e-05
0.000651722
-0.0171099
-0.0950824
-0.0709628
-0.0317808
0.000827752
-0.0450471
-0.0172651
0.0130771
-0.0198037
-0.00617268
0.000693494
-0.0246845
-0.00559267
-0.0293935
-0.00478534
0.0010414
-0.0208141
-0.00296916
-0.0157069
-0.00393579
0.00121025
-0.00735007
0.00100711
0.00122034
-0.0160823
0.000876279
-0.0786974
-0.00536415
-0.0676214
-0.0505961
-0.00728338
-0.0679228
-0.0197685
-0.00872144
0.000448373
-0.0238888
-0.0238401
-0.0677464
-0.000144416
-0.0892962
-0.00543636
-0.0326181
-0.00427974
0.00153974
-0.0267762
-0.0150076
0.000676714
-0.084726
0.000858091
-0.0705522
0.00119433
-0.0058043
-0.0581925
-0.0250257
0.000103144
3.75607e-05
-0.00837021
-0.0730492
0.000834162
-0.00721661
-0.0704937
-0.00408225
-0.0263317
-0.00358728
-4.80617e-06
-0.0732702
-0.00391216
-0.0785721
0.000716674
-0.0745966
-0.0342509
-0.00389067
0.00069335
-0.00447612
0.00142379
-0.0178043
-0.0834779
-0.00354045
-0.00205629
0.000884137
-0.0678385
7.15893e-05
0.00180045
-0.0746534
-0.0397964
-0.04548
-0.0788937
0.00211249
-0.0757954
-0.0462086
-0.0142009
-0.00389992
-0.0370294
-0.096056
-0.00772184
-0.0158881
-0.0265886
-0.0166614
0.00123597
-0.0296351
0.00121178
-0.00302023
0.00124312
-0.0121017
-0.0713092
-0.0107387
-0.0766565
-0.00454836
0.000655951
-0.00242697
-0.000170432
-0.0179182
0.00119269
-0.00474748
-0.0269942
-0.0715292
-0.0135567
-0.0343932
0.000730226
-0.0717646
-0.00748897
-0.0134161
0.00186462
-0.0152551
-0.00823318
-0.0164964
-0.0809848
-0.0369871
-0.00123053
-0.00594915
-0.0193355
-0.00769731
0.00696956
-0.0681569
-0.0332214
-0.00123785
-0.0729271
-0.0140353
-0.0138136
-0.00134731
0.00116745
0.00103236
-0.0345854
-0.0411842
-0.0314498
-0.0111555
-0.0140108
-0.00176001
-0.0132662
-0.00621869
-0.00613485
-0.0104905
-0.0242724
0.00937159
-0.0738285
-0.00172485
0.00724438
0.000875325
-0.0227003
0.00879768
-0.00585465
0.00724061
-0.0702038
-0.0745477
-0.0747704
0.000837651
-0.0615578
-0.0775738
-0.0178862
-0.0147229
-0.0217917
-0.021429
-0.0742872
0.000838027
-0.014457
0.00105871
-0.0281785
-0.0348124
-0.073393
-0.0112206
-0.0761313
-0.001781
-0.0685697
-0.0571624
0.00103025
-0.00900622
-0.0747576
-0.0712446
-0.0614412
-0.0399402
0.00205149
-0.00568936
-0.0262197
-0.0720358
-0.0644443
-0.00450474
7.52462e-05
-0.0710873
0.00154552
0.00124087
0.000857792
-0.00122637
-0.0320501
0.000867368
0.00103649
-0.0446429
0.00118755
-0.0670656
-0.0467039
0.00089871
0.00267825
0.00089387
-0.0315958
0.000714401
-0.0475809
0.00119044
0.00123672
-0.0138376
0.00275883
-0.0783481
-0.0309833
0.000187665
-0.0158397
-0.0784962
-0.000770531
0.00104526
-0.015109
0.00517856
-0.000585544
-0.0725612
2.07033e-05
0.0025211
-0.0827361
-0.0239425
0.00274094
0.00103538
1.46978e-05
0.00104032
-0.067842
-0.00646015
0.00104989
-0.00634862
-0.0159048
-0.0799052
-0.00485807
-0.0730878
0.01486
0.000519174
-0.0256606
-0.00545068
-0.0316249
-0.00405838
-0.0287551
-0.0179875
-0.00757733
0.000897453
-0.00636586
-0.00443518
-0.0458229
-0.028708
0.00100505
0.00105208
-0.0339841
0.000324224
0.0018604
-0.0474685
-0.0309294
0.000824308
-0.0180931
0.00103453
0.000826129
-0.072183
0.00564928
-0.00450936
-0.0162171
-0.0069242
-0.00331877
-0.0682399
0.00122657
-0.00984405
0.00123889
0.00266494
0.00107432
0.00043292
0.000878897
0.000839388
0.000967706
0.00103521
-0.00102675
-0.00586417
-0.0217353
6.46556e-05
0.019023
-0.0136776
-0.0136664
-0.00804256
0.000554637
-0.0061557
-0.0162153
-0.0164808
-0.066067
-0.0111219
0.00596026
0.00104325
-0.000319327
0.00760095
-0.000963379
0.00105225
-0.046589
0.00262122
-0.00542643
-0.00102092
-0.0736049
0.000428877
-0.0840352
-0.0215037
-0.027887
-0.0179363
0.000554455
0.00107578
-0.043886
0.00153861
-0.0723966
-0.00612602
-0.000182169
0.00072048
-0.0681426
-0.0264142
-0.0078433
-0.0724298
-0.028224
-0.00805245
-0.0730602
0.0108883
0.000866059
-0.017906
-0.000949753
0.00079234
-0.0695256
-0.0734676
0.000747174
-0.0665166
0.000497354
0.000890723
0.000888797
0.000742301
0.00224442
-0.0766621
-0.0465476
0.00973177
0.00106083
-0.0863178
-0.0163924
5.00449e-05
-0.000715596
-0.00620204
-0.0273094
0.00735674
-0.0166826
0.00197979
-0.0727233
0.000737573
-0.0702985
-0.0210386
0.00497131
-0.0298892
0.0120341
-0.0671572
-0.00769639
-0.0066466
-0.0143006
-0.0035917
-0.04332
0.00282127
-0.0283702
-0.0236192
-0.0302202
-0.068587
0.000733428
-0.00864929
-0.00507595
-0.0449761
-0.0767529
0.0073844
-0.0814272
0.00631417
-0.00940776
-0.0114902
0.00205064
-0.0427395
-0.081718
0.00602021
-0.0114357
0.000800679
-0.0419893
-0.0267828
0.00530771
-0.00663588
-0.0172486
-0.00827329
-0.0694555
-0.00543418
0.000817453
-0.0711065
-0.0188461
-0.0014336
0.000718111
0.000832982
-0.0113238
-0.0670812
-0.0881606
0.00652378
-0.0840461
-0.0147087
-0.021803
0.00299704
-0.0348835
-0.0329424
-0.0231156
0.00241857
-0.0013384
-0.0142245
6.47284e-05
0.00105165
0.00772876
-0.0683105
0.00102511
-0.0261583
-0.0038255
0.00283762
-0.00501039
0.000869354
-0.079101
0.000718108
-0.0101583
-0.00253601
-0.0455013
-0.00213343
0.000907958
-0.0731308
-0.0156867
0.00085834
-0.000264488
0.00100917
-0.0376744
-0.00768235
-0.0377039
-0.0275999
-0.0118316
0.00442707
-0.046693
-0.0641998
-0.0312767
-0.0101349
-0.0117866
-0.0726309
-0.0303741
0.00385679
-0.000111224
-0.08817
-0.0272866
-0.0217298
-0.0259865
-0.0159155
-0.0687777
0.000661397
-0.0141889
0.00275593
-0.0188021
-0.00141497
-0.0366494
-0.00760335
-0.00236576
-0.0131005
-0.0667266
0.0280851
-0.0249563
-0.0162315
-0.0665583
-0.0108329
-0.0307304
-0.0693066
-0.00561947
-0.0115154
0.00091057
-0.0216806
0.000915812
-0.0425952
0.000787987
-0.0153693
0.00537563
0.00105388
-0.0673007
-0.0311188
0.00668634
-0.0156761
0.000419591
-0.0305659
0.000731026
-0.00616131
-0.0119149
-0.0314772
-0.0189602
-0.00914953
-0.00140447
-0.0265401
-0.0706034
-0.00114961
0.000715229
0.000649686
-0.0121353
-0.0961537
-0.0312657
-0.0717795
-0.00147547
0.000216304
-0.0662872
-0.00520547
0.0010276
0.0168555
0.000885318
-0.0716327
-0.0425892
0.0177173
8.31727e-05
-0.00079834
-0.00365597
-0.010806
0.000351435
-0.00609465
-0.00634164
-0.0351622
-0.00431424
0.000753115
-0.0700451
-0.0312576
-0.0192167
-0.000805564
0.00171767
0.00218346
-0.0314366
-0.0499135
0.0268171
-0.0788912
-0.0459885
-0.0827536
0.00083256
-0.00170989
-0.0469632
0.000883444
-0.01901
-0.00635316
0.00075142
0.00122305
0.000728279
0.0305681
-0.00115086
0.00348216
0.000435798
-0.00966062
-0.00463803
-0.0216613
-0.0136303
0.00735725
0.00147542
-0.00327275
0.000712816
0.000906756
-0.00915041
-0.0714851
-0.00346826
0.0016132
0.00123206
-0.0333266
0.000707375
-0.00597261
-0.00769498
-0.071107
-0.0272752
-0.0731941
-0.0333234
-0.0632335
-0.0189464
-0.0705887
-0.00792635
4.29627e-05
3.54719e-05
-0.0673617
-0.00847508
0.000746759
-0.0965272
0.00101215
-0.0624833
7.56805e-05
-0.0168839
-0.0147222
0.00129737
-0.0738812
0.00249205
0.00786843
-0.00849525
0.00135324
0.000994863
-0.0134886
-0.052721
-0.0155617
-0.0115375
-0.0151053
0.023266
0.0239333
0.0236299
-0.0530751
-0.00825289
-0.0740693
0.00078241
-0.028942
0.000862061
-0.013646
0.0012191
-0.00271985
-0.0731809
0.000727654
0.000723877
-0.074427
-0.00482097
0.000749267
-0.0502024
-0.0135312
-0.0720422
0.0299795
-0.0392298
-0.0521811
-0.0967042
-0.0145376
-0.0808874
-0.00814065
-0.0103734
0.00219018
-0.00573995
-0.00344336
-0.0165663
-0.0119281
-0.00589492
-0.0714718
-0.0354793
-0.0244129
-0.06931
0.0126512
0.00128263
0.00741884
-0.00561081
-0.0138607
0.00507055
-0.0012089
-0.00528505
0.00140027
0.000146074
-0.00356054
0.00230695
0.00081994
-0.00335274
-0.020428
0.0104911
-0.010885
0.00890542
-0.0576708
0.000608079
-0.00827611
-0.00120941
-0.00345527
-0.00951574
-0.0215607
-0.0197828
-0.0194252
0.000650473
-0.0168333
-0.0315747
0.000505246
0.00170188
-0.00351998
0.00217194
-0.00344264
-0.0316881
-4.15286e-05
-0.0157015
-0.0717392
-3.6308e-06
3.6789e-05
-0.0149502
-0.025204
-0.0249692
8.51853e-05
-0.000735209
-0.0151807
-0.00116428
-0.0693956
-0.0240857
-0.0437233
0.000913179
-0.0610364
-0.0197254
-0.0082551
-0.074706
-0.00741173
-0.0194196
-0.0600246
-0.0141928
1.67162e-05
-0.00639937
-0.0228759
1.84736e-05
-0.0707251
0.00158287
-0.0162889
-0.00250821
-0.0710158
-0.0444013
0.000983403
-0.0111496
-0.0238142
-0.0382299
-6.20417e-05
0.000447857
-0.0270948
-0.0474946
-0.0237892
-0.0618494
-0.0747892
-0.0150082
-0.0737051
-0.0704961
-0.0977489
-0.0734942
-0.0260454
0.00234115
-0.00477492
-0.00809505
-0.0143678
-0.00522783
-0.0157526
-0.0753555
-0.00559928
0.000792142
-0.00382446
0.0011586
-0.00527919
-0.00141198
-0.00842741
-0.0156616
0.00106854
0.000838917
-0.00451117
-0.0051312
0.000862497
-0.0737356
-0.00333303
-0.070456
0.00222199
-0.024187
-0.0514474
-0.00115905
-0.00324929
-0.0810012
-0.0794302
-0.0166735
-0.0267195
-0.0238452
-0.00373363
7.72362e-05
-0.0207039
-0.0610228
-4.10587e-05
-0.00372795
0.0179262
0.00299054
-0.0140677
-0.0601929
-0.0385676
-0.0544021
0.000862733
-0.0227654
-0.0682351
-0.0690718
-0.000110844
0.000653592
-0.0282293
0.00071141
0.00125625
-0.0193151
-0.00140513
5.77975e-05
-0.0347701
0.0117024
-0.020242
-0.0869468
-0.000520275
-0.0712363
0.000708334
-0.0842396
-2.33849e-05
-0.0650444
0.00124975
-0.0631791
-0.013397
-0.0069748
-0.0465433
-0.0633714
-0.0100272
9.61338e-05
-0.00047051
-0.0710687
-0.0353422
0.0042346
-0.0455273
0.00224232
0.0010752
-0.0458378
0.00085856
-0.0388766
-0.0321293
-0.0402836
-0.0246359
-0.0010031
-0.00640842
-0.00379669
-0.0189128
-0.0725503
0.0029187
-0.0300118
-0.0740397
-0.0727002
-0.0704202
-0.0451737
-0.0700361
-0.0721988
-0.0135796
-0.0141976
0.000602629
-0.0114835
-0.0318621
0.000722493
-0.0698789
-0.00615114
0.000801248
-0.000700065
-0.0399143
-0.0185799
0.000637011
-0.00334622
-0.0183636
-0.00422726
-0.0249987
0.00218702
0.000186825
0.0221428
-0.0718315
0.0142442
0.000177359
-0.00658382
0.00354641
-0.00617402
0.000644879
-0.0720218
-0.043904
1.40144e-05
-0.0296466
0.000640411
0.000844527
-0.0631864
-0.0108558
-0.0249664
0.000832547
-0.0386063
-0.0357635
-0.0318817
-0.000102775
-0.00308921
-0.0384541
0.000447756
-0.0178056
-0.0112818
0.00523163
-0.0362693
-0.00317449
-0.0202529
-0.0725691
-0.00279729
-0.0769976
-0.0266104
-0.00668323
-0.0395314
-0.0281033
6.89651e-05
-0.0277145
-0.0408534
-0.0631769
0.00271104
-0.0336834
-0.0244318
-0.0534856
0.0271266
-0.0137176
-0.0249309
0.00212182
0.000725249
-0.0613363
-0.00248195
-0.0457651
-0.044409
-0.0214924
0.00290297
0.00544203
-0.0639524
-0.0220287
-0.00692146
-0.0728291
-0.067693
-0.0699192
-0.00441201
-0.0181882
0.00118756
-0.0214874
-0.0216009
4.76746e-05
-0.0432534
-0.0340734
-0.0697029
0.00073056
-0.0735272
0.00102785
-0.0201143
0.000126127
0.00191427
-0.0693024
-0.00141821
0.006107
-0.0187234
-0.0266931
-0.0717165
-0.0891637
0.00105933
0.00207826
0.000902964
0.0010221
0.000977937
-0.0281099
-0.00907743
-0.0163772
-0.0736153
-0.0222104
0.00114135
-0.0507231
0.000917534
0.00377729
-0.00785661
-0.0794303
-0.0017323
-0.0133818
-0.0156161
7.09664e-05
-0.037956
-0.0084085
-0.0345249
0.0191956
-0.00284331
0.00091457
0.00579506
-0.0479324
0.00193132
0.00152606
0.000627974
3.51126e-05
-0.021788
-0.000529319
0.00212585
0.00292781
-0.0148251
0.00652863
-0.00939275
0.00131275
-0.0286248
-0.0743329
0.0224015
0.000660042
-0.0143383
-0.0159119
0.000652826
0.000618392
-0.012806
-0.0621427
-0.00966565
-0.0688674
-0.0390204
-0.0292421
-0.0717517
0.00192019
-0.066617
-0.0435592
0.000754063
-0.0500707
-0.00300195
-0.0243846
0.00189824
-0.063184
0.000758275
-0.0150382
-0.0198157
0.00124208
-0.000418191
-0.0301942
-0.0014121
-0.011216
0.000716672
-0.00813027
0.00124726
-0.0016697
-0.0652412
-0.040615
-0.0150529
-0.000868136
-0.0325856
0.00106613
-0.000989801
-0.0760914
0.00061686
0.0235433
0.00880895
0.000922148
0.000847335
0.000724787
-0.0212803
-0.00324979
0.00230393
-0.0860888
-0.0142438
-0.0500345
-0.0226372
0.00070986
-0.0690615
0.00194221
0.000844208
0.00105145
0.000726229
0.000877909
0.000993926
-0.0161929
-0.00164107
-0.0475152
-0.000133785
-0.036601
-0.0286929
-0.000413075
0.00105148
0.000311998
-0.011376
0.000849202
-0.00115924
-0.0383516
0.000503223
-0.0776225
0.00106439
-0.0156212
-0.00637234
-0.00785181
-0.013642
0.00304721
0.00105506
-0.0115254
0.00565596
-9.56547e-05
0.00104961
0.000207211
-0.0280642
-0.0749051
0.00223626
-0.00138111
0.000706173
-0.0383843
-0.0202327
-0.0429583
-0.0417074
-0.0359343
0.000490165
-0.0745049
-0.0147646
-0.00825591
-0.0110275
-0.0665823
-0.0919313
0.00100565
-0.0165441
-0.022822
-0.0223382
-0.0203734
0.000209591
-0.0698186
0.000901061
-0.0904216
-0.00390155
2.52215e-05
-0.0212558
-0.00586468
0.000694278
-0.000183325
4.23608e-05
-0.0712509
-0.00618094
0.00124982
0.000701458
0.000811412
-0.0439753
-0.00706348
0.000402814
0.000833214
-0.00718377
0.000982051
-0.0619665
-0.00452556
0.00883682
-0.0319814
-0.00223501
-0.00113983
-0.0225455
-0.0231152
-0.0280553
-0.0108948
0.00216802
-0.00131414
-0.0773909
-0.0206721
-0.00681561
-0.0145173
-0.0659224
0.00230579
-0.00436394
0.000684678
-0.016738
-0.0435482
-0.0135852
0.00159164
-0.0220802
0.000713509
-0.00800713
-0.000311797
-0.0170231
0.000975197
-0.002256
0.000871154
0.000671459
3.98071e-05
0.0208662
0.00157307
0.000678305
-0.078211
0.00097654
0.000690066
-0.00109631
-0.047024
5.99158e-05
-0.0601684
-0.00949214
-0.0243475
-0.0461906
-0.0759872
0.000671299
-0.0782344
-0.00102886
-0.00967064
-0.0111396
0.00110807
-0.0444109
-0.072133
-0.0130817
-0.00415727
0.0006825
0.000824515
-0.0135957
-0.00153754
0.000679842
-0.0636
-0.0621159
-0.0721811
-0.0057036
-0.0210237
-0.00924022
-0.0718958
0.000664721
0.00208674
-0.0704201
-0.00583452
-0.0153779
-0.0113393
-0.0613092
-0.0223349
0.00470949
-0.0682481
-0.00417904
-0.00409586
0.00156331
0.000999718
0.000132445
-0.0433842
0.000811388
0.00187546
-0.0379871
-0.0703497
-0.0706846
-0.0810241
-0.0140026
-0.0416123
-0.0194339
-0.0156142
-0.000405406
-0.0289412
-0.000905202
-0.0172825
-0.0236166
0.000166477
0.000208238
-0.00147839
0.00948271
0.000138597
-0.0197032
0.00476279
-0.0154341
-0.0428583
-0.00400099
-0.0768276
-0.00239137
-0.0163481
-0.00836039
0.000158377
-0.0700432
-0.00424194
7.93674e-05
-0.00916595
-0.0514323
-0.0229117
-0.0734628
-0.0114957
-0.0771802
-0.000362832
-0.0189748
-0.00687118
-0.00587578
-0.0276663
-0.0729937
-0.0740628
0.00100612
-0.00528522
-0.0564726
-0.0706153
-0.0133722
-0.0183581
-0.000458513
-0.0401922
0.00120888
-0.00645213
-0.0708457
-0.00649191
-0.077671
-0.0528068
-0.0743911
-0.030578
-0.0230167
0.0024197
-0.036855
-0.0113139
-0.0578938
-0.00657791
0.000808258
-0.00773211
-0.00134122
-0.0046683
-0.0600994
0.000992045
-0.0774139
0.00213349
0.000187973
-0.0756379
-0.0427073
0.0017645
-0.0766245
7.16627e-05
0.000597925
-0.0619277
0.000607163
-0.0725098
-0.0696144
-0.0712014
-0.0727672
-0.0179845
-0.0526739
-0.0151246
-0.010605
-0.0212322
-0.00429881
-0.0710907
-0.0713048
-0.0222942
-0.0437306
-0.00812433
-0.070208
-0.01631
-0.00332672
-0.000108525
-0.0149189
0.000317923
0.000266699
-0.0222134
-0.0674891
0.000956564
-0.0428923
-0.00640376
-0.00512572
-0.0524215
-0.00305166
-0.0708015
-0.0163459
-0.035008
-0.0730101
-0.0119217
0.000741269
-0.0144394
-0.0254891
-0.0201599
-0.00811666
0.000739426
-0.0102472
-0.0156374
0.00156768
-0.0313727
0.000986716
-0.022416
0.000758939
-0.00512628
-0.0180698
0.000773988
-0.0774696
-0.0724008
-0.0123655
-0.0200259
-0.0434295
0.00251463
-0.0114655
-0.0134382
-0.0113845
-0.072178
-0.0602055
-0.00217766
0.000989046
-0.0709533
0.00143493
8.42113e-05
-0.070509
-0.0448687
0.000101571
0.000862179
-0.0155109
0.000807508
0.00146157
-0.00516955
-0.00815172
-0.0289167
-0.000786749
0.000647385
-0.00180973
-0.00434493
-0.0142699
-0.00506928
-0.0744941
0.000852013
-0.0187331
0.000844634
-0.0697253
0.00148778
-0.0235317
-0.00927829
0.00132714
-0.0160804
-0.0328795
0.00959409
0.000450898
-0.010478
-0.0550766
0.000110345
-0.0194219
-0.0710761
-0.0743827
-0.000980192
-0.0136306
-0.0353387
-0.0869048
-0.0665992
-0.0224534
-0.0727416
-0.0163187
-0.0280497
-0.0681811
-0.0443511
-0.0351876
-0.0709046
-0.0724117
0.000114159
0.0200483
-0.0174204
-0.00962124
-0.0365144
0.000835747
0.00102154
-0.0416451
-0.00139158
-0.0778474
0.000585435
0.000900979
-0.0612279
-0.00158632
-0.0290856
-0.00833582
0.01061
-0.0449098
-0.00550961
0.000825881
-0.0743944
0.00188482
-0.00222171
-0.0205666
0.000889275
-0.0283541
-0.000908775
0.000882815
-0.0163416
-0.00199206
-0.070041
0.000898641
-0.0224063
-0.0695279
-0.000742634
-0.0824286
0.00120786
0.00081437
-0.0322805
-0.0613113
-0.0723259
0.00100538
-0.0710666
-0.0391417
-0.0142773
0.018785
-0.00723432
0.000604129
-0.0690637
-0.0142211
-0.0145951
-0.0091475
-0.0754973
-0.0344277
-0.00653316
-0.0182474
-0.00409902
-0.00378008
-0.0171759
0.0062551
-0.0740127
-0.00956805
-0.013798
-0.006078
-0.0037086
0.000661961
0.000671354
-0.0775711
-0.0716866
-0.0636381
-0.0439591
0.000906841
-0.0108233
-0.0473098
-0.0349127
-0.0746877
0.000562322
-0.0061203
0.00128223
-0.000911749
0.00047599
-0.0752526
-0.0683696
-0.0143555
-0.0173836
-0.00167341
0.000196488
0.0129075
0.0189814
-0.073191
0.00212672
-0.0193869
-0.00896788
-0.00204323
-0.0611583
0.000590369
-0.0722431
-0.0162383
0.0181265
0.000965104
-0.000468523
0.000823492
-0.0683692
-4.89108e-05
8.92454e-05
-0.0521159
-0.0155523
-0.0657279
-0.00233058
-0.00744767
-0.0221947
-0.0379037
-0.00393867
0.000165823
-0.000718479
0.00229081
0.00275535
-0.00583317
-0.0234014
0.000665072
0.00081933
-0.00463042
-0.074184
-0.0682004
-0.0209335
-0.028999
-0.0456914
-0.000606852
-0.0709759
-0.0438342
-0.00576766
0.0013168
0.000783388
-0.0117729
-0.0466293
-0.0052999
-0.0106626
-0.0475648
-0.0681513
-0.0146174
-0.0523638
-0.0304507
0.000777494
-0.0184673
-0.0348956
-0.016624
0.00256144
-0.0138247
-0.000568514
-0.0155986
-0.0105342
0.000750001
-0.0132293
-0.0911936
-0.0109376
-0.0167112
-0.0149293
-0.0256801
0.000747008
0.00102229
-6.38244e-05
-0.0687755
0.000817179
-0.0333657
-0.0209091
0.000518456
-0.0231904
-0.00448652
-0.000358867
-0.0322614
0.000592713
-0.0170096
-0.0144509
-0.000286785
0.0111248
-0.00183322
-0.0121797
-0.0719958
-0.0172501
-0.00424391
-0.0794827
0.00102209
0.00310759
5.13114e-05
0.000805316
-0.0725976
-0.0209172
-0.0691519
-0.0788153
-0.0867535
0.000842264
0.00150831
-0.000179291
-0.0783461
-0.000185626
-0.010366
0.000933171
-0.00889275
-0.0739786
0.0214417
-0.0256481
-0.00369221
0.000800637
-0.0158539
-0.0123782
-0.0249558
5.91397e-05
0.000944413
-0.0763257
0.00589867
-0.0149537
-0.000577315
0.0235618
-0.0148965
-0.0600108
0.00103898
0.00260296
0.000687976
-0.000501575
-0.0810215
-0.0422589
-0.00379962
-0.0160807
-0.022655
-0.000836007
-0.0683708
-0.0164932
-0.0389809
-0.0090984
-0.0171309
-0.0734354
-0.0235692
-0.0758412
0.000642079
0.00315933
-0.0596507
-0.0185172
-0.0178051
0.000923938
-0.00614315
-0.00208469
0.0023689
0.0005182
-0.00985993
-0.0862323
-0.0035041
-0.0722145
-0.0625479
-0.000102776
-0.00946895
0.00325818
0.00243677
-0.0208384
0.00352371
-0.000851082
0.000281854
-0.0161067
0.00287943
-0.00037781
-0.0334849
-0.0345651
-0.0255063
0.00127837
-0.00954657
-0.062604
0.000518651
-0.0101575
-0.0213539
0.00148839
-0.00169581
-0.00102687
-0.0326313
-0.0146037
-0.0395338
-0.0124981
-0.0103302
0.000740366
0.00146374
-0.00671771
-0.0146209
-0.00465698
-0.0354824
-0.074877
-0.00610672
0.00140698
0.000656555
0.000744035
-0.0412732
0.000682632
-0.00966661
0.0224372
-0.0144413
0.00186187
-0.0620501
-0.0505885
-0.00592188
-0.0256449
0.000831853
-0.0328224
-0.0739553
-0.0867501
-0.0732073
-0.0177605
-0.0126948
-0.071891
-0.0890533
-0.000914624
-0.00300673
-0.0376085
-0.00795622
-0.0181591
-0.0196691
0.000602008
-0.00094226
-0.0113459
0.00407096
-0.0716042
-0.0306402
0.0073042
0.000833114
-0.00586738
0.000838832
-0.0406805
0.000702136
-0.0758417
-0.00314481
0.01364
-0.00478433
-0.0534817
-0.0607969
-0.0263324
0.00626267
-0.0576602
0.00204836
-0.00312033
-0.0112038
0.000707014
-0.01645
-0.0188989
-0.0683587
-0.0048763
-0.0396178
0.00338125
-0.0165068
-0.0740449
0.000714973
0.00224632
-0.0162153
-0.00953302
-0.00826501
-0.0161252
-0.0685321
-0.0300513
0.00103709
-0.00198235
2.97909e-05
0.0170053
0.00103155
-0.0817875
-0.0147085
-0.0239037
-0.0119175
-0.00408969
-0.0162308
-0.0752594
-0.0340563
-0.00402833
-0.0763004
-0.0132982
-0.0257552
-0.0164169
-0.00207461
-0.012709
-0.0750796
-0.00615206
-0.000528075
-0.0155031
0.00103945
-0.0153258
-0.00817562
0.00104852
-0.000786753
-0.0355051
-0.000739861
-0.030972
0.000511074
4.01325e-05
-0.00708229
-0.00702806
-0.00866314
-0.0457613
0.000507562
-0.0355542
0.000670198
0.000658111
0.00103037
-0.059788
-0.0363707
-0.00557533
-0.0129848
-0.0144808
-0.0132726
-0.0310914
0.000123251
0.0116626
-0.00648667
-0.0121126
-0.0432733
0.00103031
-0.0176487
-0.0419029
-0.0404516
-0.0142523
0.00102224
-0.0507477
-0.0429612
-0.020919
-0.0718102
-8.29102e-05
-0.00302101
-0.0435058
-0.0371679
-0.0032717
-0.0263026
-0.0800055
-0.0869387
-0.0178376
-8.74431e-05
-0.000638185
-0.0738677
-0.0728883
-0.0469047
-0.00785353
-0.000119405
0.00105638
-0.0623569
-0.0205989
0.00125319
-0.0180088
-0.009709
-0.00781718
0.00106617
-0.0172826
0.00727375
-0.000372961
-0.000356446
-0.00589297
0.00107215
0.00512754
0.0157607
-0.00477593
-0.00884552
-0.0260419
-0.00137449
-0.00134299
0.00188563
-0.0147938
0.000704735
-0.0195236
-0.0185533
0.000812186
0.00239635
-0.00218893
0.00101638
-0.0689093
0.00255459
0.000528276
-0.0740881
0.00111643
-0.0340411
-0.0107777
2.66439e-05
-0.0181022
-0.0325379
-0.00141105
-0.0706196
-0.0163098
0.000527171
-0.058147
-0.0213947
0.000915615
0.00158383
-0.00593336
-0.000590853
-0.0390213
0.000685296
-0.0502165
0.000726018
0.00085248
-0.0192654
-0.00825324
-0.0254897
-0.00921696
0.00087518
-0.00578239
-0.0459276
-0.015651
-0.0139765
-0.00793751
-0.0254879
0.00104191
0.000808915
-0.015535
0.000677442
-0.0114091
-0.0392025
0.000565786
-0.0102124
0.0223297
0.00167063
-0.00994183
-0.0158411
-0.0649553
-0.0230681
-0.0193725
-0.0218036
-0.0176033
-0.0782032
0.0138781
0.00131152
-0.0743919
-0.0212422
0.00103605
0.00133548
-0.0122625
0.000750679
0.00067695
0.00126598
-0.07468
-0.0119586
-0.0159577
0.00335829
-0.0141769
-0.000224398
-0.0511791
-0.0198747
-0.0587442
-0.0144473
-0.00198804
-0.0531683
-0.00383199
-0.0708034
-0.0662564
-0.00255461
6.04493e-05
0.0013509
0.00106367
-0.00433136
-0.0324314
-0.0784253
0.000597826
-0.0675499
-0.0101371
-0.0772682
-0.075077
-0.00463548
-0.0147382
-0.0168989
-0.00752221
-0.0274079
-0.00110525
-0.00398746
0.0010041
-0.069168
-0.0132744
-0.0609609
0.0168923
-0.0716999
-0.0398546
-0.0764786
0.00194144
-8.75121e-05
0.00103907
0.00232935
-0.0178774
-0.0134532
-0.00880235
-0.070828
-0.00389411
-0.0264748
0.00053304
0.00259059
-0.0110606
-0.0179936
-0.0736067
-0.0115573
0.000821056
-0.0136435
-0.00306779
0.00255207
0.0104183
-0.00663199
0.000610992
-0.0343226
-0.00334244
-0.0419633
-0.0185058
0.00623855
0.000768537
-0.0336077
-0.0014509
-0.00666125
0.000208048
0.000722282
-0.0699392
0.00275769
-0.0183194
-0.0323402
0.00290069
-0.00378614
-0.032232
0.00150389
-0.0932224
-0.0733838
-0.0373113
-0.0385623
-0.0488881
-0.00348747
0.00359031
-0.000318611
-0.0584178
-0.0870569
-0.0726753
0.00974211
0.000874393
-0.0712515
-0.0328378
0.0018947
-0.071801
0.00129243
-0.00860612
-0.0039298
0.0109778
-0.00429736
-0.0255863
0.000575484
-0.0169274
0.00105648
0.000606093
-0.00145966
-0.0159017
-0.0730323
0.000871588
0.00699036
-0.000682458
-0.0260174
0.00105438
0.000592911
-0.00315216
-0.00371254
-0.0150355
0.00118485
0.00110648
-0.0811857
-0.0339494
-0.0717733
0.00308434
-0.026736
-0.013464
0.000641541
0.00178309
0.0109818
0.0005902
0.00085538
-0.0120628
-0.0103868
-0.0202726
-0.0527476
-0.0420611
-0.0232999
-0.00933731
0.00395141
0.000936613
0.00104656
-0.0136451
-0.0261263
-0.00151296
-0.0148539
0.0010644
-0.0716377
0.00128016
-0.0118635
0.000889991
-0.0126538
-0.00098568
-0.00224524
-0.032443
0.00437992
0.00668613
-0.00650709
-0.0117419
-0.0137381
-0.0122663
0.00406031
-0.00412251
-0.0666733
-0.0145269
-0.0382428
0.00231302
-0.0463102
-0.027041
-0.0389505
0.000856393
-0.0165428
-0.0114201
0.00128358
-0.0653979
-0.031892
-0.00330628
-0.00576961
-0.0270652
-0.00400606
0.0027419
-0.0254903
0.0015299
-0.0100101
-0.00381557
-0.0761299
-0.0162675
-0.0188966
-0.0262729
-0.0734548
-0.00106907
0.00598732
-0.0445526
-0.0822231
-0.0252765
-0.000488553
0.00101884
0.0107008
0.00213214
-0.0146045
-0.0743345
-0.0279277
-0.0712367
-0.086322
-0.0725213
-0.0754746
-0.0297258
-0.0738525
-0.0141229
0.000932738
-0.0508031
-0.0260052
-0.0112481
-0.0133805
-0.0311624
-0.00156403
0.000630554
-0.0409512
0.000795646
-0.0877076
-0.00308135
-0.0239293
-9.3701e-05
-0.0707781
0.0125069
-0.016921
0.00835644
0.00186224
-0.00179747
-0.0699303
0.0010288
0.0206053
-0.00714938
-0.0729167
-0.00350134
-0.00350901
-0.00551205
-0.0649457
-0.00251601
-0.0716753
-0.0136313
-0.0804931
0.000788456
-0.00220592
0.000517076
0.00108664
-0.0147271
-0.00694539
0.00879189
-0.0031504
0.00230622
-0.0271808
-0.0736907
0.000426933
-0.0330784
-0.0124943
-0.00566671
-0.0568198
-0.00270988
-0.00829485
-0.072407
0.000796115
-0.0155716
0.000619886
-0.0646109
-0.000512004
-0.0441855
-0.0378823
-0.00398589
0.00118921
-0.0763561
0.000861615
-0.0102692
-0.0176113
-0.026001
-0.0593483
-0.0308338
0.00164414
0.000944209
-0.0400317
-0.071157
-0.0381684
-0.0316755
-0.0384036
-0.010811
-0.0120489
0.00107099
-0.000412935
0.0094838
0.000912683
-0.0372093
-0.0174559
0.000993332
0.0147194
-0.0125168
-0.0210827
-0.0119426
-0.072274
0.00105557
0.000632934
0.000514757
0.000154384
-0.0218955
0.0103674
-0.00111426
0.00993414
-0.00720598
-0.0894772
-0.00537361
0.00104151
-0.0819836
0.0116387
-0.0129152
-0.0743279
-0.0575446
-0.0525206
-0.0329223
-0.00903752
-0.00841717
-0.0625883
-0.0396098
0.000718639
-0.0736325
0.000443076
0.00476951
-0.0237711
0.00323479
0.00138766
-0.0187006
0.0013204
-0.0164436
-0.0698445
-0.0150552
-0.0101388
-0.057319
0.000835858
-0.0338493
-0.0438026
0.00135401
0.00191508
0.00126538
-0.0235571
-0.0178159
0.00108769
0.000664944
-0.0652355
-0.0166768
-0.0317859
0.0142589
0.000759447
-0.0121353
0.000915453
-0.0441801
-0.0162917
0.000895098
0.00072661
0.00091885
-0.0086185
-0.000272924
0.000997274
0.00421339
-0.0651627
-0.0427689
0.00275477
0.00124643
-0.000556337
-0.00857068
0.000451106
0.0018462
-0.00526052
-0.0176274
-0.018863
-0.00381854
-0.0157024
-0.0458365
-0.0750812
0.000724032
0.000650763
-0.0697568
-0.0450601
-0.0226968
-0.0108948
-0.0136422
0.00229632
0.00101872
-0.0130432
0.000818917
-0.0388189
-0.0704341
0.00764413
0.0228792
-0.0173315
-0.01748
-0.0173529
-0.0171823
-0.00319972
0.00322261
-0.00862954
-0.046392
-0.0186909
-0.0149665
0.00131635
0.00267783
0.00119113
0.0010953
-0.0219407
-0.0663736
8.08293e-05
-0.0378426
0.00109939
0.00132011
-0.0273942
-2.04057e-05
-0.0028665
-0.0146309
-0.00137311
0.00269696
-7.05976e-06
-0.0398929
-0.0226516
0.00333126
-0.000358495
-0.0747574
-0.00565486
-0.0112391
-0.000321147
-0.0187685
0.00203284
-0.0337779
-0.010008
6.26139e-05
-0.065107
-0.0129065
0.000143826
-0.0275634
0.0014322
-0.0161236
-0.0233209
-0.00299108
-0.0733035
0.00152379
-0.073977
0.00134047
0.0126537
-0.0132709
0.000754461
-0.044636
0.00801776
-0.0302113
-0.0390395
-0.0732804
-0.0776805
0.000497086
0.0029463
-0.0171422
-0.0774374
0.0010064
-0.0771146
0.00204307
-0.00481413
0.000595292
-0.00910731
-0.0153692
-0.031956
-0.04634
-0.0108182
-0.00455184
-0.0248321
-0.0141464
-0.000648324
-0.00676352
0.0178886
0.0110722
-0.0562375
0.00229848
-0.0236864
0.00066308
-0.0109717
-0.00078218
-0.0948359
-0.0268269
-0.07095
-0.00368975
0.000595534
-0.0467508
0.00129133
0.000932908
-0.0236813
-0.0469268
-0.000238472
-0.0682864
0.00111105
0.00264976
-0.000641088
0.000370992
-0.039632
-0.0133483