/*--------------------------------*- C++ -*----------------------------------*\
| =========                 |                                                 |
| \\      /  F ield         | OpenFOAM: The Open Source CFD Toolbox           |
|  \\    /   O peration     | Version:  v2012                                 |
|   \\  /    A nd           | Website:  www.openfoam.com                      |
|    \\/     M anipulation  |                                                 |
\*---------------------------------------------------------------------------*/
FoamFile
{
    version     2.0;
    format      ascii;
    class       surfaceScalarField;
    location    "400";
    object      phi;
}
// * * * * * * * * * * * * * * * * * * * * * * * * * * * * * * * * * * * * * //

dimensions      [0 3 -1 0 0 0 0];
oriented        oriented;


internalField   nonuniform List<scalar> 
56329
(
-0.298731
0.356192
-0.0574613
-0.0101729
0.0710804
-0.0609075
0.0677336
-0.145823
0.0780897
0.0481012
0.00223145
-0.0503327
0.368013
-0.29222
-0.0757933
0.361134
-0.354253
-0.00688078
-0.413793
0.336784
0.0770093
0.0408341
-0.0154477
-0.0253864
-0.136069
0.207193
-0.0711238
-0.137331
0.0651473
0.0721837
-0.24511
0.305433
-0.0603228
0.185014
-0.111755
-0.073259
0.199175
-0.321419
0.122244
0.0752655
-0.229539
0.154273
0.224939
-0.118688
-0.10625
0.173278
-0.133549
-0.0397289
0.282986
0.110257
-0.393243
-0.00505651
0.029612
-0.0245555
0.0859394
0.0990749
-0.175569
0.240468
-0.0648987
0.133219
0.0400587
0.00636884
-0.030375
0.0240062
-0.236931
-0.0896089
0.32654
0.372885
-0.10603
-0.266855
-0.0115048
-0.00160106
0.0131058
0.281881
0.0801019
-0.361983
0.0370948
-0.129807
0.092712
0.00144638
-0.0203949
0.0189485
-0.148855
0.0750071
0.0738478
0.333928
-0.413583
0.0796548
0.285373
-0.021842
-0.263531
0.000873269
-0.0155693
0.014696
-0.410645
0.310717
0.099928
0.172237
0.00928119
-0.181518
-0.0227899
-0.0875826
0.110373
-0.101778
0.0727591
-0.0158487
-0.0569104
-0.00576939
0.0482234
-0.0424541
0.288013
-0.218265
-0.069748
0.395062
-0.351249
-0.0438125
-0.167031
-0.182961
0.349992
0.147248
-0.0751165
-0.0721319
0.172978
-0.068588
-0.10439
-0.12752
0.0536582
0.073862
0.153936
0.224874
-0.37881
0.182311
-0.087829
-0.0944817
-0.0645383
0.17911
-0.114572
-0.200783
0.0787756
0.122008
-0.0414425
0.143965
-0.102522
-0.0252815
0.0749794
-0.0496979
-0.0226206
0.00517552
0.0174451
-0.157623
0.205056
-0.0474327
0.314529
-0.142293
-0.192185
0.201466
-0.120779
0.097989
0.315058
-0.34105
0.0259919
-0.0512681
0.0687676
-0.0174994
-0.116839
0.162858
-0.0460189
0.0553888
0.00112314
-0.0565119
-0.019581
0.0205801
-0.000999144
0.0890836
0.0932271
-0.0325132
-0.0720715
0.104585
-0.0012893
0.0493905
-0.0628986
-0.0646216
0.1935
-0.26689
0.0733899
0.149441
0.075498
0.0682219
-0.0783948
-2.8309e-05
0.0111479
-0.0111196
0.134687
-0.0342553
-0.100431
-0.146871
0.0580456
0.0888253
0.00384399
0.311214
0.36308
-0.425457
0.0623772
-0.23854
0.0809171
0.0641856
-0.0179724
-0.390815
0.334776
0.0560398
0.224786
-0.343163
0.118378
-0.0799281
0.0546466
-0.268696
0.348711
-0.0800142
-0.171896
0.0674884
0.104408
0.400432
-0.166299
-0.234133
-0.12604
0.0631413
-0.0362579
0.0312014
0.254434
-0.0654229
-0.189011
0.169013
0.145516
-0.0198236
-0.156077
0.175901
0.0902462
0.201786
-0.292032
-0.0211742
0.0403505
0.0943362
0.0715794
0.00117968
0.333253
-0.0513719
-0.0203982
0.0189805
0.0014177
-0.0122764
0.116874
-0.104597
0.00201657
-0.392832
-0.108404
0.0758904
0.273696
-0.407325
0.133628
-0.0346981
0.0206221
0.014076
0.346467
-0.072771
-0.176146
-0.183342
-0.0140655
0.00256072
-0.435141
0.357068
0.0780726
-0.0665147
0.0152466
0.377677
-0.293302
-0.0843749
0.277659
-0.0841587
-0.183996
0.164172
-0.250453
0.149055
0.101398
-0.0275687
0.0339375
-0.434676
0.356256
0.0784207
0.0527867
-0.0102095
-0.0425772
-0.185278
0.111804
0.0734733
-0.353517
0.263685
0.0898317
0.0092336
0.054952
-0.00465205
0.0276404
-0.0229884
0.287849
0.107213
-0.00190647
-0.0139905
0.015897
0.0287665
-0.0334186
-0.149237
0.223158
-0.0739213
-0.290744
0.364318
-0.0735738
-0.11042
-0.0250123
0.135432
0.210692
-0.151044
-0.0596481
-0.176484
-0.0191362
0.195621
-0.20934
0.0856872
0.123653
0.0338974
-0.0377283
0.0038309
-0.160553
0.314489
-0.398769
0.352377
0.0463921
-0.236822
0.36963
-0.132808
-0.0421985
-0.293622
0.33582
0.221469
-0.111828
-0.109642
-0.287969
0.388191
-0.100222
-0.214238
0.352892
-0.138654
-0.088752
0.134193
-0.0454409
0.221607
-0.0721664
0.303158
-0.103983
-0.28988
-0.108889
0.29582
-0.338019
0.333816
-0.274132
-0.059684
-0.135791
0.0615044
0.0742866
-0.328817
0.0919942
-0.0120497
-0.00109914
0.0131488
-0.100937
-0.0464464
0.147383
0.180067
-0.0941278
0.0631955
0.0840529
0.21973
-0.144464
0.223118
-0.161182
-0.0619358
-0.362703
0.148464
-0.34082
0.26459
0.0762298
0.0782737
0.101793
-0.205799
0.140366
0.0654328
0.360192
-0.248803
-0.111389
-0.046134
0.341954
-0.0188933
-0.0326803
0.0515736
0.191234
0.0318832
0.279038
-0.38605
0.107011
-0.0278109
-0.0240838
0.0518947
0.0722229
-0.0196053
0.304978
0.299748
-0.345882
0.040456
0.00446245
-0.0449185
-0.198699
0.360332
-0.161633
0.397481
-0.1614
-0.236081
-0.208288
0.32794
-0.119652
0.0284525
-0.0130172
-0.0154353
0.0145379
-0.0136646
0.172198
-0.0692031
-0.102994
-0.358074
0.109271
0.0545678
-0.103292
0.0487239
-0.316871
0.108583
0.174435
-0.216709
0.0422744
0.0878928
0.133576
-0.218454
-0.0658989
0.284353
0.344035
0.0170992
-0.0103353
0.0740203
-0.0636849
0.294032
-0.0627933
-0.231238
0.140687
0.0700045
0.0809418
0.138788
0.0154841
0.336893
-0.212978
0.0769086
0.196569
0.101986
-0.298556
0.0487353
-0.139083
0.090348
0.306925
0.026891
0.379642
-0.168585
-0.211057
-0.141288
0.0661713
-0.146664
-0.169517
0.316182
0.148889
0.230753
0.304626
-0.16935
-0.135276
-0.311973
0.36899
-0.0570176
0.000673961
-0.0160561
0.0153821
0.261089
0.032943
-0.0127446
0.000694925
0.0798258
-0.00619596
-0.0736299
0.179772
-0.28494
-0.0253172
-0.0408373
0.0661545
-0.260609
0.08504
0.0275065
-0.0867
0.0591934
-0.393937
0.30122
0.0927178
0.269945
-0.196161
-0.073784
0.0514312
0.218514
0.037695
-0.0655059
-0.193145
0.283392
-0.0125717
0.0177472
0.276048
-0.0962767
-0.0581575
-0.0678824
0.123972
-0.311286
0.187314
0.160538
-0.257866
0.0973285
0.17754
-0.0884566
0.0723701
0.314844
0.0826372
-0.0229414
0.00677378
0.0161676
-0.285875
0.365631
-0.0797557
-0.0322754
0.0275169
0.0047585
0.0348764
0.242957
-0.277834
0.015936
-0.0808215
0.0648855
-0.0784024
0.0785453
-0.000142933
0.0646441
0.334389
-0.0514027
0.193437
-0.392136
0.0467198
-0.15714
-0.0597174
0.0722219
-0.0125046
0.0789459
-0.293901
-0.0144645
0.073682
-0.0592176
0.322039
-0.198068
0.0795789
0.0979613
0.316879
-0.304254
-0.0126246
0.0158847
-0.319987
0.304102
0.0137565
-0.0734739
0.264085
-0.350062
0.0859768
-0.03243
0.0322791
0.000150927
-0.290074
0.379264
-0.0891899
0.0404831
0.0106934
-0.0511764
-0.0411471
0.147662
-0.106515
0.119528
0.202511
-0.416638
0.416638
-0.0952009
-0.216085
-0.106352
-0.0823072
-0.0322994
0.114607
0.0199766
-0.0254841
0.00550755
0.284801
0.0320774
0.183896
-0.268302
0.0844062
-0.276485
0.362406
-0.0859212
0.0560643
-0.0813815
0.300185
-0.366461
0.0662756
-0.0151042
-0.168892
-0.0187605
-0.0159375
-0.0553184
0.123864
-0.0685456
-0.129655
0.0409033
0.0727186
-0.063485
-0.200588
0.185484
-0.0237273
0.0307372
-0.00700993
0.0993139
0.0101092
-0.109423
-0.144263
0.282635
-0.138372
0.367039
-0.102953
-0.0369754
-0.0714282
0.0117094
0.0167431
0.249545
0.104359
-0.353903
0.191143
0.113483
-0.12541
0.0544094
0.0710008
0.206805
-0.28998
0.0831749
0.424662
-0.182968
-0.241694
-0.0836841
-0.0492317
-0.241333
0.290565
0.321102
-0.124532
0.155901
0.268761
0.0632902
-0.205147
0.141857
0.00876259
-0.0385179
0.0297553
0.285113
-0.126943
-0.15817
0.0412001
0.00894059
-0.0501407
0.0810436
-0.0651076
-0.364267
0.0955706
-0.211715
0.289226
-0.0775102
0.354879
-0.275139
-0.0797401
0.0980126
-0.249904
0.151891
0.247982
-0.297214
0.0376392
0.109575
-0.147214
0.0525793
-0.124677
0.0720976
-0.0274953
-0.112291
-0.0884924
-0.176727
0.0431779
0.356497
0.0206013
-0.377098
-0.000505156
0.011653
-0.053315
-0.239375
-0.0960861
0.335461
-0.233931
0.333365
-0.0994345
0.130977
-0.091442
-0.0395352
0.161925
-0.0872164
-0.0747088
0.295555
-0.0887505
0.0264899
-0.00651331
-0.110267
0.0732916
-0.274308
0.37066
-0.0963518
-0.30283
-0.172074
0.0659611
0.106112
0.334704
-0.0851594
-0.0286857
0.211204
-0.182518
0.00312505
-0.0139953
0.0108702
-0.0852501
-0.0520809
-0.373075
0.0987667
-0.00903455
0.0418748
-0.0328402
0.123397
0.158169
-0.281566
-0.166023
0.28942
0.216393
-0.133823
-0.0825691
0.297627
-0.262751
0.157827
-0.304491
-0.133502
-0.0432249
-0.107011
-0.0418442
0.0643821
0.107816
-0.199097
0.142396
0.0567015
-0.149112
0.307281
-0.000672854
0.363753
-0.206564
0.0838758
0.122689
-0.170057
0.0806714
0.0893857
0.028689
-0.164299
0.13561
0.0939942
0.191119
0.0582728
0.139218
-0.205973
0.066755
-0.0828192
0.0669705
-0.0890049
0.315419
-0.226415
0.0415902
-0.150653
0.109063
0.37555
-0.297788
-0.0777612
-0.228935
0.182911
0.0460239
0.194495
-0.0552767
-0.124506
0.153195
-0.201959
0.173273
0.0298439
-0.00220351
-0.0126372
0.0531203
-0.0104345
0.0278606
-0.017426
-0.350184
0.0568815
-0.0694944
-0.0447882
0.114283
0.0380324
-0.0320723
-0.00596014
-0.198669
0.284359
-0.0856901
-0.10224
-0.103559
0.0385239
-0.112472
0.0739477
0.107441
-0.0689166
-0.04076
0.0514534
0.307479
0.033112
-0.340591
0.364112
-0.155946
-0.208166
0.0547452
-0.344625
-0.152636
0.230159
-0.0775233
-0.0931582
0.0403681
0.0527902
-0.00268951
0.0159753
-0.0132857
0.1584
-0.255959
0.0975592
0.0489353
-0.00773519
-0.320742
0.231737
-0.0127316
0.0116694
0.00106228
-0.0946875
0.0817734
0.0129141
-0.28561
0.36657
-0.0809608
-0.175332
-0.0758286
0.251161
0.00694409
-0.0306713
0.00243248
0.0127909
-0.0152234
-0.130382
0.0608877
-0.133972
0.0171324
-0.249622
0.324742
-0.0751197
0.223312
0.00442612
-0.227738
-0.136721
0.0952785
0.0115875
-0.0120926
0.114623
-0.100734
-0.0138883
-0.263826
0.255374
0.0084517
0.0469839
0.293408
-0.340392
0.0153834
0.000934464
-0.0163179
0.238333
-0.327824
0.0894905
-0.394151
0.236533
0.157617
-0.273327
0.382195
-0.108868
0.256684
0.0571923
-0.313876
-0.14319
0.0548023
0.0883879
-0.356585
0.083258
-0.273879
0.370098
-0.0962195
0.107975
-0.0534074
0.405986
-0.248137
-0.157848
0.0145014
0.0450609
-0.0595623
0.040946
-0.0940861
0.0531401
0.318052
-0.386592
0.0685399
0.196698
-0.286881
0.0901832
0.371997
-0.0539448
0.105606
-0.17481
0.362322
-0.0625738
-0.0274244
0.088495
-0.0610707
0.2374
-0.245262
0.12753
-0.293553
-0.108427
-0.100913
0.0148671
-0.0141931
-0.0147396
-0.107888
0.122627
0.341248
-0.341248
0.0430137
0.0879635
0.0139619
0.0587568
0.124062
0.0923311
-0.274254
0.370937
-0.0966829
-0.0565623
0.335601
-0.168494
0.085742
0.0827525
0.255563
-0.361491
0.105928
-0.0136987
0.0147893
-0.00109057
0.207936
0.100671
-0.308607
0.306419
-0.109721
0.035829
0.00500505
0.0457898
-0.120487
0.0746975
-0.0179555
0.173831
-0.155876
-0.298813
0.365284
-0.0664707
0.348704
-0.140768
-0.36127
0.0624566
-0.00960659
0.232883
0.0662119
-0.299095
-0.313385
-0.0478845
0.340713
-0.294165
-0.0465486
0.0765334
-0.182651
0.106118
-0.0112364
-0.0211936
-0.1511
0.264378
-0.113279
0.00146145
-0.157845
0.20788
-0.0500348
-0.0151844
0.349113
-0.162818
0.0621305
0.100688
-0.110908
0.138103
-0.0271947
0.175435
-0.111052
-0.258057
0.0871735
0.170883
0.125422
-0.0573825
-0.0680396
0.0092461
-0.0915533
-0.0604703
0.136846
-0.0763756
-0.297993
0.379759
-0.081766
-0.073481
0.306364
0.227744
-0.146802
-0.120514
0.0641167
0.0563976
0.0641351
0.0056854
-0.0698205
0.337302
-0.322544
-0.0147588
-0.257832
0.353808
-0.0959765
-0.158265
0.117118
0.312314
-0.0875284
0.0373884
-0.266142
0.228753
0.0793295
-0.0178886
-0.0614408
-0.101089
0.0863495
-0.367866
0.308595
0.0592713
-0.30658
0.10791
0.316465
0.0208372
-0.0603875
-0.0156027
0.00190399
0.019747
-0.202359
0.182612
0.140931
-0.103292
-0.104319
0.142492
-0.038173
0.0381031
-0.173227
0.135124
-0.223384
0.106315
0.117069
-0.0027638
-0.0112315
0.443429
-0.193803
-0.249626
-0.0926391
-0.0926387
0.260461
0.0707937
-0.253827
0.183033
0.375167
-0.247347
-0.127821
0.2858
-0.354498
0.0686972
0.063577
0.0744388
-0.340903
0.266465
0.198496
0.079674
0.265365
-0.349359
0.083994
-0.169382
-0.0601565
-0.0848796
-0.156201
0.241081
0.274137
-0.0793138
-0.194823
0.0642801
-0.059316
-0.00496406
0.0848004
-0.249628
0.164828
-0.0772618
-0.129303
0.018269
-0.240674
0.222405
-0.248668
-0.165125
-0.116032
0.252561
-0.13653
-0.212838
0.291483
-0.0786447
0.0463652
-0.150684
-0.092634
0.0463215
0.0463125
0.261676
-0.103276
-0.172438
-0.365352
0.0914729
-0.234262
0.277776
-0.0435143
0.320435
-0.200861
-0.119574
-0.335868
0.0814124
0.254456
-0.366377
0.0921236
-0.0666019
0.107548
0.0594174
-0.267088
0.207671
-0.171615
0.120151
0.0514636
0.375495
-0.11013
-0.055173
0.0494036
-0.00224259
-0.242868
-0.0109276
-0.0120138
-0.242068
0.157188
-0.176511
0.111973
-0.30284
0.192454
0.110386
-0.277923
-0.0810672
0.35899
0.23696
0.138207
-0.0811961
-0.0745783
0.155774
0.260378
-0.22299
-0.0376986
0.0286641
-0.268268
0.363913
-0.0956448
0.143805
-0.0642006
-0.079604
0.00117119
0.355325
0.0012688
0.00714982
-0.00841863
-0.100367
0.120175
-0.0198077
0.361165
-0.21324
-0.147925
-0.0579579
0.0720693
-0.0141114
-0.223845
0.0626637
-0.244684
0.262953
-0.00356024
-0.0341384
0.0526904
-0.123334
0.0706437
-0.350852
0.0649774
0.245157
-0.147144
0.308095
0.0673995
-0.291066
0.368812
-0.0777461
-0.00654354
0.0166561
-0.0101126
0.0396231
-0.0506982
0.0110751
-0.0513381
-0.300392
0.35173
-0.0565701
0.0601352
-0.00356507
-0.352854
0.0749304
-0.296729
0.378713
-0.0819843
0.0955121
0.288002
-0.33934
0.337202
-0.124806
-0.212396
-0.0208255
0.0252543
-0.00442873
0.0463514
0.00643522
-0.101951
0.154642
-0.363311
0.10548
-0.000371927
-0.019209
0.082717
-0.0646623
0.364848
0.07296
0.0708446
0.0724449
-0.0782142
-0.047196
0.286552
-0.110987
-0.175565
0.122776
-0.0797621
-0.328972
0.0950411
0.0142641
-0.0502263
0.338228
-0.0817434
0.0672789
-0.176011
-0.0529237
0.0419904
-0.217345
0.175355
-0.202276
0.0512324
0.0257418
-0.202226
-0.0581459
0.08751
-0.0293641
0.174094
0.187071
-0.114289
-0.0557682
0.402993
-0.16874
-0.234253
-0.130927
-0.0924571
-0.154542
0.0536056
-0.0010436
-0.238635
0.239678
-0.0932379
-0.130608
0.114721
-0.0689309
-0.0107772
0.0726507
-0.0618735
-0.0116922
0.00025396
0.0114382
0.294235
-0.344461
-0.150501
-0.0999518
0.281863
-0.374683
0.09282
-0.0968662
0.0904862
0.00637993
0.00452623
-0.0253518
0.180832
0.10572
-0.0239131
0.0270491
-0.00313596
-0.200055
0.103168
0.0968866
0.201139
-0.0760518
-0.125087
0.0288275
-0.187181
0.158353
0.0633359
0.219087
-0.282423
0.105318
-0.0486413
-0.0566766
0.00257676
-0.123588
-0.0764661
-0.0848583
-0.228183
0.313041
-0.202315
-0.0571649
0.25948
0.0511353
0.0541825
0.0106873
-0.111054
-0.160369
-0.126196
-0.0714998
0.141933
-0.0704335
0.149498
-0.0863025
-0.029873
0.0343662
-0.0044932
0.378492
-0.285476
-0.0930165
-0.0915895
-0.266484
-0.00161867
0.0170021
0.232077
-0.0995447
-0.132532
-0.083405
-0.213525
0.29693
0.0722478
-0.0931398
-0.269563
-0.152287
0.181115
-0.00528293
-0.00295615
0.00823908
0.0361538
-0.00225639
0.0691023
-0.108771
0.0396685
0.00215527
-0.029724
-0.246024
0.276836
-0.0308117
-0.0333852
-0.107545
0.140931
-0.380463
0.216097
0.164367
-0.120434
-0.0514624
-0.049709
0.141393
-0.0916844
0.0773406
0.0467378
-0.124078
-0.260485
-0.119979
-0.401273
0.310154
0.0911189
-0.293375
0.0512901
0.282831
-0.334121
-0.0399935
-0.311256
0.146614
-0.105024
-0.0124162
0.000723974
-0.0555665
0.343416
-0.0832393
0.0254175
0.115514
0.206898
-0.207941
-0.0589569
0.274158
-0.336906
0.0627479
0.0320724
0.0219381
-0.298825
0.369596
-0.070771
0.0884479
-0.0314078
-0.0570401
0.12495
-0.043906
0.0194428
-0.116309
-0.0921107
0.276007
0.349892
-0.299704
-0.0501887
0.0489502
-0.000726784
-0.0863076
0.162841
0.168952
-0.262733
0.0937803
-0.298744
0.0644821
0.377125
-0.0606598
0.0368499
-0.112151
0.0753006
0.0754947
-0.135965
-0.0734171
-0.153077
0.113794
0.039283
-0.0412778
0.210753
-0.169475
0.0557085
-0.228732
0.173024
0.076517
0.00281245
0.0327041
0.0819185
0.0673123
0.108122
-0.0182144
-0.128657
-0.205916
0.0856328
0.120283
-0.0402338
0.0366736
-0.0829734
0.0721962
-0.0835273
-0.0849671
0.350333
0.00516857
-0.355501
-0.019081
-0.00131392
0.0835907
-0.0194555
0.221631
-0.0251262
-0.196504
0.125724
-0.0616924
-0.0640315
-0.0241835
0.117818
-0.0936344
0.0101693
-0.00890052
0.377671
-0.00409278
-0.373578
0.0174346
0.122931
-0.164642
0.146686
0.0703906
-0.139461
0.0690703
0.312934
0.00495341
-0.317887
0.0486683
-0.116457
0.0677883
0.172783
-0.060979
-0.303826
-0.0761
0.207046
-0.130946
0.00355666
-0.00883959
-0.142917
0.103958
0.0451807
-0.11983
0.0746495
-0.117815
0.0936311
0.0776711
0.183055
-0.260726
0.127916
-0.0587229
-0.069193
0.00280891
-0.0326819
-0.003962
0.227274
0.0339415
0.0580615
-0.092003
-0.306712
0.379803
-0.0730907
-0.0427402
0.167025
-0.124285
-0.384825
0.0781127
-0.0227235
0.080031
-0.0573075
0.258767
-0.0898151
0.129408
-0.0806723
-0.202428
0.0783552
0.124073
-0.358701
0.234778
0.123923
0.0521964
0.0174555
-0.131977
0.114521
-0.197245
0.145061
0.0521837
0.0156968
-0.0984187
0.082722
0.217834
0.0609903
-0.278824
0.148531
-0.222407
0.0738751
-0.349704
0.056082
0.0597341
0.0287138
-0.223874
0.182596
0.0318244
0.0581488
-0.0899731
-0.0545785
-0.122467
0.177045
-0.361122
0.362035
-0.000913117
-0.0425105
0.355445
0.0414275
0.0939796
-0.135407
-0.0234628
-0.00881262
-0.251787
0.337106
-0.085319
-0.389819
0.128274
0.261545
0.240122
0.124428
-0.36455
-0.135161
-0.0707552
0.000180644
-0.0276605
0.0274799
-0.051149
-0.0399051
-0.00892036
0.0488255
-0.333255
0.380546
-0.136961
-0.243585
-0.0071508
0.0625396
-0.279031
-0.0956519
0.0644087
0.312716
-0.197653
0.0398087
0.054199
-0.351987
0.00845623
0.0053406
-0.0137968
0.0639803
-0.0867038
0.130728
0.0682414
-0.198969
0.296913
0.075972
-0.244303
0.348535
-0.104232
0.341731
-0.0526292
-0.289101
-0.193058
0.270729
-0.0523614
0.270196
-0.0453371
-0.0815644
0.0394764
-0.101291
-0.156766
0.354811
-0.289588
-0.065223
-0.0326703
0.00339748
0.0292728
0.102997
-0.0855413
0.160756
-0.238554
0.0777976
-0.354827
0.110525
0.053391
-0.295713
0.242322
0.0618497
-0.253919
0.192069
-0.0982686
0.165581
-0.0753408
0.0615211
0.0138197
0.0429046
-0.0121016
0.0595838
-0.0275114
-0.0619217
0.0349362
-0.0327809
0.267204
0.106668
-0.373873
0.0585776
0.0663719
0.115424
0.0441829
-0.363475
0.0988881
0.264586
-0.176727
0.122149
0.0310108
-0.141919
0.0544186
-0.395769
0.201967
0.363976
-0.0697415
-0.106929
-0.0359881
-0.280074
0.0889017
0.191172
0.104519
-0.0354167
-0.19755
-0.196387
0.201633
0.0465762
-0.24821
-0.11412
-0.186524
0.300644
0.126119
-0.168859
-0.1535
0.28103
0.219284
-0.116117
0.176005
0.101654
-0.23243
-0.202711
-0.276047
0.364418
-0.0883711
0.0518996
0.0618308
0.0876672
0.0143347
-0.0204873
0.00615256
0.129485
-0.104068
-0.229006
0.336374
-0.107368
-0.395851
0.252193
0.143659
0.0428238
0.094859
-0.137683
0.329809
-0.405141
0.0753314
0.0910955
0.272818
0.0496895
-0.182459
0.132769
-0.0238856
-0.0358847
0.0597703
0.170372
-0.139037
-0.0313346
-0.0597124
0.0408191
-0.0839073
-0.057161
0.141068
0.078882
-0.00949297
-0.0693891
0.245059
-0.0843028
-0.00411344
0.0230417
-0.0189283
0.062349
-0.137985
0.0756359
-0.232417
0.35854
-0.126123
0.374621
-0.0259171
0.00575217
-0.00870832
-0.027457
0.252773
-0.225316
0.301634
-0.188468
-0.113166
0.0111107
0.00940155
-0.0205122
0.294902
-0.376766
0.0818647
0.0818117
0.0131584
-0.0949702
0.291257
0.0833642
0.145233
0.14278
0.176182
-0.261938
0.0857561
-0.383284
0.249467
0.133818
-0.00914023
0.0487633
-0.00378877
0.17762
0.0879071
0.131377
0.246989
-0.274446
-0.0780906
0.254095
-0.299903
0.380617
-0.0807138
-0.347447
0.108072
-0.142088
0.0596308
0.0824569
-0.177687
0.323527
-0.14584
-0.113464
0.303864
-0.102457
-0.201407
-0.00909919
0.0495552
0.0318095
-0.112617
-0.0751196
-0.0693218
-0.0727659
0.182406
0.0509522
-0.233358
-0.0115755
0.013037
0.231102
0.0705322
-0.068094
0.208781
-0.0664406
0.340599
-0.308351
0.154851
-0.228421
-0.167349
0.0174518
0.112034
0.0263693
0.00613055
-0.0324998
0.294189
0.0697867
0.368598
-0.0744089
-0.0236585
0.0306026
0.159378
-0.273498
-0.0757032
0.306805
0.079003
0.000822809
-0.0886424
-0.0369249
0.125567
0.0520979
0.0199714
-0.0231401
0.0839257
-0.0106199
-0.0733059
-0.0407969
0.0305875
0.0228201
0.250022
-0.0738404
0.0140849
-0.0159914
-0.0515667
0.233973
-0.0527585
0.0630817
-0.273297
0.210215
-0.353867
0.118902
0.234966
-0.248246
0.184436
0.0638098
0.0449008
0.0778751
-0.123891
-0.262772
0.0146834
-0.0062272
-0.175194
0.0547595
0.0835764
-0.135279
0.0517026
0.0110553
0.00123289
-0.0122882
0.107632
-0.045213
-0.0624186
-0.245028
-0.138257
0.209448
0.195858
0.132631
-0.209893
-0.15933
-0.0377039
0.197034
0.249727
0.0781995
-0.327927
-0.142765
-0.0116238
0.154389
-0.0199254
0.280303
0.38832
-0.0535448
0.252955
0.0887758
0.235616
-0.224738
-0.0108779
0.375801
-0.0672064
0.0687872
-0.00164635
-0.0671408
0.0181535
-0.236418
0.0290802
-0.131032
-0.308288
0.181344
0.133827
-0.104747
-0.0658664
-0.0288211
-0.183464
-0.251212
-0.000513594
0.253286
0.336804
-0.0870765
0.161633
-0.300755
0.139122
-0.0565351
0.258168
-0.111871
0.0462189
0.0656522
-0.205906
-0.0969339
0.0569171
-0.176609
0.119692
0.333207
0.0444644
0.0383363
-0.107847
0.0695107
0.0385316
-0.136885
0.0983529
0.117274
0.188159
-0.240646
0.319118
-0.0784722
0.114429
-0.261563
0.147135
0.0415049
0.194112
0.311335
-0.149702
-0.0934449
-0.334369
0.272591
0.0617779
-0.296095
0.277812
0.0182832
0.0679824
-0.0158845
-0.269591
0.285476
-0.2573
0.331442
-0.0741421
0.0578402
0.0754667
0.0502573
0.119746
-0.0442789
-0.30301
0.135979
0.092512
0.256023
0.0865904
-0.0708937
0.209927
-0.337222
0.127295
0.0127805
-0.00172519
0.135232
-0.0516551
-0.110151
0.047718
0.0624328
0.0497606
0.290035
-0.339795
-0.0705772
-0.0500582
0.120635
-0.0841807
-0.245197
0.0396278
0.00930757
-0.123537
-0.0566798
0.205341
-0.148662
-0.0207087
-0.0576937
0.27857
0.00574446
-0.284314
-0.357352
0.181206
0.248195
-0.0731332
-0.175062
0.0436777
0.0710429
0.17699
0.0252636
-0.0655536
0.0402899
0.279733
-0.226342
-0.120962
0.167328
-0.116372
0.0139507
-0.0115182
-0.0516276
-0.0585233
-0.277097
0.384077
-0.10698
-0.183762
-0.124526
-0.00882589
-0.102929
0.0328429
-0.000835605
-0.0320073
-0.174269
-0.179248
-0.0519063
0.337707
0.1591
0.0112713
-0.0940263
-0.112075
0.103249
-0.0148592
0.0966709
-0.0515597
0.0389225
-0.137343
-0.124595
0.00986414
0.0443078
-0.0541719
-0.026059
-0.00661125
0.0227009
-0.0225202
-0.0844401
0.0285998
0.0558404
-0.23843
0.0141596
-0.315117
0.109213
0.205904
0.329489
-0.279804
-0.0496849
0.0591473
0.102778
0.160574
0.062584
0.0864482
-0.303762
0.217314
-0.182892
0.0568533
0.126038
0.0475109
-0.00788316
0.0233319
-0.166097
-0.290237
0.101769
0.355275
-0.288681
-0.0665941
0.213603
-0.338794
0.12519
0.298742
-0.212294
0.299338
-0.357118
0.0577801
-0.0751867
0.224241
-0.0503517
-0.245743
0.283655
-0.372479
0.0888232
-0.227407
0.295209
-0.0678022
0.228469
-0.273806
0.344488
0.00326969
-0.347757
0.250975
0.105384
-0.35636
0.0267867
-0.026341
-0.000445709
0.296631
0.0147034
0.00899023
0.0458976
-0.0548878
0.122839
0.214363
0.078868
0.0408776
0.0604788
0.0391453
-0.0996241
0.311233
-0.101306
0.311247
-0.0146152
0.00282051
-0.0182828
0.0154623
0.0140557
0.0239767
-0.105923
-0.0150398
-0.0512371
0.119664
-0.0684269
-0.134034
0.0426322
0.0914017
0.0692001
0.286075
0.0840975
-0.341397
0.0329153
0.0745252
-0.0527966
0.0540251
-0.00122853
-0.0722977
0.335983
-0.161072
0.0233403
-0.145814
0.122473
-0.0267764
-0.137865
0.303553
-0.0249826
-0.0134795
-0.0559551
0.0694346
0.0786909
0.00523484
-0.063269
0.0784427
-0.0151737
-0.294585
0.0671783
-0.0521012
0.129442
0.0834762
-0.0549745
-0.0285017
-0.0120868
0.0134263
-0.00133943
0.316454
0.0338789
-0.00422484
0.36048
-0.0617814
-0.11473
-0.330969
-0.0856683
-0.37472
0.146715
0.228004
0.155267
-0.211947
-0.00246285
0.07125
0.301269
-0.249979
-0.0860701
0.153558
0.200177
0.228263
-0.0314241
-0.196839
-0.019213
0.0177039
0.00150908
0.0867007
-0.371906
0.285205
-0.0552318
0.0516323
0.00359946
-0.195252
-0.194568
-0.0136245
-0.15265
-0.190826
0.343476
-0.0551652
0.0665585
-0.0113933
-0.218818
-0.0564276
0.000456323
0.0559713
-0.111324
0.162334
-0.0510093
-0.364703
0.364703
-0.0487629
-0.0717514
0.0458184
0.0721451
0.118063
-0.049997
-0.0680658
0.356864
-0.0878312
-0.269033
0.347107
-0.260406
0.0329397
-0.0568253
-0.154658
0.13444
0.0301101
-0.16455
0.118757
0.0372845
0.0672346
-0.377379
0.301308
0.0760706
0.12693
-0.0831543
-0.0437761
-0.0752801
-0.269192
0.344472
0.0672055
0.0956526
0.0149608
-0.0609835
0.0460226
-0.138469
0.0648227
0.0736459
-0.0753066
0.290607
0.0404137
-0.33102
-0.0793927
-0.0618951
0.0580728
0.0627866
-0.120859
-0.109966
0.0409058
0.06906
-0.00135862
-0.0152047
0.0165633
0.152656
-0.179432
-0.129694
-0.0725823
-0.018869
0.00291474
0.0159543
0.0348475
-0.00847827
-0.0212652
0.0171518
0.0565297
0.0704007
0.00408556
-0.0194287
0.0153432
-0.027583
0.00412029
-0.0918657
0.171429
-0.0795635
0.3116
0.0913928
-0.0240856
0.36087
0.229086
-0.313944
0.0429171
0.0969567
-0.139874
0.0697735
-0.00186555
0.0125721
-0.0107066
0.0794969
-0.31177
0.232273
-0.364134
0.0730686
-0.0113381
0.1354
0.0631018
-0.11842
-0.100892
-0.139845
0.240737
-0.36505
0.313307
0.0517434
-0.294826
0.173733
0.121093
-0.0570992
0.12749
0.263738
0.068873
-0.332611
-0.139935
0.0550311
0.0849041
-0.0962141
-0.242604
0.338818
0.213782
-0.344921
0.131138
-0.0442495
0.0586336
-0.0143841
-0.0453694
0.00546432
-0.0577257
-0.158984
0.320139
-0.106357
0.310029
-0.230532
0.0502243
0.188514
-0.238739
-0.299453
0.195632
0.10382
-0.42427
0.220882
0.203388
-0.00115343
-0.0201118
0.096837
-0.0112451
-0.085592
0.345956
-0.0903927
-0.077176
-0.0586151
-0.207987
-0.216283
-0.356211
0.280931
-0.00457105
-0.0518566
0.302773
-0.363142
0.0603689
0.0242153
-0.119323
0.0951075
0.192783
-0.114057
-0.0787259
0.119706
-0.0546627
-0.0650436
-0.121882
-0.0533118
-0.0943135
0.137231
0.0944502
0.260429
-0.336608
0.16912
0.167488
0.092525
-0.146218
0.0536933
0.351512
-0.0502928
-0.140707
0.0692074
0.12558
-0.0180306
-0.107549
-0.130415
-0.0720134
-0.0653875
-0.0277707
-0.221881
-0.114727
-0.113562
0.0472565
0.0663057
0.0337584
0.0122442
-0.0460025
0.235055
-0.12874
-0.021671
-0.0952935
-0.379807
0.214818
0.164989
-0.121461
0.0545531
0.0669078
0.287151
-0.0503591
-0.236792
0.280339
-0.233355
0.0400729
-0.0722537
-0.066215
0.0106894
0.0514814
-0.0621708
-0.179217
0.13822
-0.0634033
-0.0748163
-0.0922148
-0.0418191
0.041718
0.0559801
-0.0976981
0.0320256
0.231928
-0.0820588
-0.149869
0.117306
-0.0930906
0.03694
0.242793
0.285262
-0.394001
0.108739
0.0581733
0.108699
0.126356
-0.0708237
-0.032468
-0.151385
0.0701889
-0.0848377
-0.15723
0.257343
-0.186549
0.0436576
-0.202987
-0.0503059
0.0609953
0.172641
-0.0943675
-0.0172213
-0.241265
0.258486
-0.0182504
0.0168918
0.0253303
-0.00509069
0.0194254
0.142438
-0.151941
-0.0979623
-0.0498351
-0.245878
0.114561
-0.191353
0.0767925
0.0749146
0.0977266
-0.407378
0.174961
-0.00657936
0.103416
-0.153897
0.0620068
0.0918905
-0.0214172
-0.00616585
0.280133
0.075612
-0.355745
0.0419834
-0.0511236
-0.377924
0.102498
0.275426
0.199411
0.0288518
0.289516
0.0673485
0.0901105
-0.147954
0.0578431
0.00567686
0.0127986
-0.0184754
-0.0378842
0.0329388
0.163891
-0.19683
0.176858
0.0682009
-0.069921
0.1225
0.0292921
-0.00250546
0.0178458
-0.0196939
0.00184802
0.0470004
-0.360385
0.23953
-0.335744
-0.351787
0.0550582
-0.129091
-0.248833
0.020326
-0.312546
-0.173725
0.111944
0.0704526
-0.245785
-0.0452958
-0.137355
0.0125813
-0.0152708
0.0380349
-0.155693
0.117658
0.247792
-0.0426566
0.103135
-0.360228
0.104459
0.255769
-0.177274
0.227499
-0.246823
0.188675
0.0581479
0.0312481
0.280588
-0.216609
-0.0639791
0.0876749
0.144253
-0.010664
-0.13816
0.148824
-0.388833
0.205872
-0.122168
0.0531069
0.0690607
0.0499928
-0.184902
0.134909
0.0787001
-0.038332
0.137274
-0.113933
-0.110649
0.274368
-0.163718
0.0553305
-0.355034
-0.160716
0.193654
-0.0895879
0.0267911
0.0627968
-0.321379
0.0787746
0.0648827
0.1279
0.441629
-0.274155
-0.167473
-0.133016
-0.224335
-0.148679
0.115294
-0.125395
0.26608
-0.22914
0.273859
-0.174472
-0.0993879
0.043766
0.0856416
-0.0440864
-0.0646844
-0.144113
0.0961389
0.0479736
-0.324353
0.0953471
-0.22073
-0.0148317
0.0139054
0.000926367
0.0105912
-0.127128
0.116536
-0.361661
0.161125
0.200536
0.263028
-0.307599
0.0445708
-0.200253
0.288334
-0.0880808
-0.235831
-0.125829
0.392289
-0.325794
-0.0664948
0.343595
-0.401018
0.0574235
-0.0388788
-0.0229592
0.061838
0.0511139
0.066949
0.0105867
-0.0171302
-0.042798
0.00144633
0.0413517
0.016656
0.0638664
-0.0805223
-0.0530652
-0.019791
0.0728562
-0.32023
0.0964668
0.223763
-0.0316596
-0.0609744
-0.173363
0.0987846
-0.385522
0.0993834
0.286139
0.0427221
-0.101424
0.0587023
0.00574037
0.351328
0.0122155
0.10509
-0.226143
-0.0940861
0.0718564
0.0237332
-0.0955897
-0.355133
0.0655448
0.328674
0.129267
-0.204961
0.0756939
0.06308
0.238983
-0.302063
0.271907
0.0751991
0.199764
-0.221404
-0.179869
-0.145629
0.20104
-0.0554112
-0.373496
0.0974494
-0.132466
-0.249136
0.227656
-0.310157
0.0825013
-0.0166678
-0.0840665
-0.042599
0.117606
0.293791
0.106641
-0.0838224
-0.271005
-0.0821767
-0.0610135
0.148541
-0.297703
0.149161
0.355996
-0.0653898
-0.0143184
-0.00122562
0.015544
0.173969
0.26766
-0.124064
0.134655
0.0244649
0.122149
-0.284367
0.334128
-0.35205
0.0924034
0.259646
0.0635324
0.237125
-0.300657
-0.103567
0.218128
0.298335
-0.0698664
0.265119
-0.0267857
0.0186086
0.172165
0.0778577
-0.0585595
0.101282
0.128333
-0.206754
0.0784213
-0.212584
0.276116
0.0162635
0.152901
-0.0627901
-0.250662
-0.101388
0.303705
-0.155164
0.350411
-0.139251
-0.344256
0.0671595
-0.062651
-0.120241
0.314788
-0.0871325
-0.0396654
-0.0544207
-0.347437
0.158585
-0.115585
-0.0430005
-0.0613097
0.122814
0.331629
-0.0580477
-0.273582
-0.361327
0.0987685
0.262559
-0.314629
-0.00372936
0.318358
0.0863732
0.2373
-0.323674
0.340937
-0.266498
0.088628
0.282032
0.0394077
-0.113052
0.0736441
-0.247925
-0.165658
0.00322546
0.0402316
-0.043457
-0.219492
-0.139208
-0.121645
0.178499
-0.231543
0.297755
0.137844
0.0384378
-0.12708
0.200005