/*--------------------------------*- C++ -*----------------------------------*\
| =========                 |                                                 |
| \\      /  F ield         | OpenFOAM: The Open Source CFD Toolbox           |
|  \\    /   O peration     | Version:  v2012                                 |
|   \\  /    A nd           | Website:  www.openfoam.com                      |
|    \\/     M anipulation  |                                                 |
\*---------------------------------------------------------------------------*/
FoamFile
{
    version     2.0;
    format      ascii;
    class       surfaceScalarField;
    location    "400";
    object      phi_0;
}
// * * * * * * * * * * * * * * * * * * * * * * * * * * * * * * * * * * * * * //

dimensions      [0 3 -1 0 0 0 0];
oriented        oriented;


internalField   nonuniform List<scalar> 
56329
(
-0.298731
0.356192
-0.0574613
-0.0101728
0.0710804
-0.0609076
0.067734
-0.145824
0.0780895
0.0481006
0.00223263
-0.0503332
0.368014
-0.292221
-0.0757932
0.361134
-0.354253
-0.00688078
-0.413793
0.336784
0.0770093
0.0408286
-0.0154527
-0.0253759
-0.136069
0.207193
-0.0711238
-0.137332
0.0651476
0.0721843
-0.245105
0.30543
-0.0603248
0.185014
-0.111756
-0.0732588
0.199176
-0.32142
0.122244
0.075265
-0.229539
0.154274
0.224939
-0.118688
-0.10625
0.173278
-0.133549
-0.0397288
0.282986
0.110257
-0.393243
-0.00505577
0.0296096
-0.0245539
0.0859398
0.0990747
-0.175569
0.240468
-0.0648987
0.133219
0.0400586
0.00636196
-0.0303711
0.0240092
-0.236931
-0.0895162
0.326447
0.372873
-0.106019
-0.266854
-0.011503
-0.00160086
0.0131038
0.281881
0.0801019
-0.361983
0.037095
-0.129807
0.0927121
0.00145084
-0.0203971
0.0189462
-0.148855
0.075007
0.0738483
0.333928
-0.413583
0.0796548
0.285378
-0.0218407
-0.263537
0.000873272
-0.0155676
0.0146944
-0.410645
0.310717
0.099928
0.172197
0.00932476
-0.181522
-0.0227901
-0.0875828
0.110373
-0.101778
0.0727592
-0.0158482
-0.056911
-0.0057684
0.0482222
-0.0424538
0.28813
-0.218214
-0.0699156
0.395062
-0.351249
-0.0438124
-0.167031
-0.182961
0.349992
0.147259
-0.075097
-0.0721616
0.172978
-0.0685879
-0.10439
-0.127521
0.0536586
0.0738626
0.153936
0.224874
-0.37881
0.182311
-0.0878291
-0.0944821
-0.0645382
0.17911
-0.114572
-0.200783
0.0787753
0.122008
-0.0414426
0.143965
-0.102522
-0.0252768
0.0749784
-0.0497016
-0.0226233
0.00518081
0.0174425
-0.157435
0.20494
-0.0475054
0.314513
-0.142316
-0.192152
0.201477
-0.120779
0.0979891
0.315058
-0.34105
0.0259922
-0.051267
0.0687671
-0.0175
-0.11684
0.162858
-0.0460188
0.0553869
0.00112528
-0.0565122
-0.0195793
0.0205813
-0.001002
0.0890841
0.0932272
-0.032513
-0.072072
0.104585
-0.00129052
0.0493911
-0.0628993
-0.0646219
0.193503
-0.266892
0.0733896
0.149441
0.075498
0.0682221
-0.0783949
-2.81628e-05
0.011146
-0.0111178
0.134688
-0.0342559
-0.100432
-0.146873
0.0580547
0.0888188
0.00384363
0.311214
0.36308
-0.425457
0.0623772
-0.238398
0.0809626
0.064187
-0.0179737
-0.390815
0.334776
0.0560398
0.224792
-0.343248
0.118457
-0.0799277
0.0546509
-0.268696
0.348711
-0.0800142
-0.171897
0.0674883
0.104408
0.400432
-0.166299
-0.234133
-0.126041
0.0631416
-0.0362551
0.0311994
0.254434
-0.0654227
-0.189011
0.169043
0.145469
-0.0198876
-0.156034
0.175921
0.0902465
0.201786
-0.292033
-0.0211724
0.0403515
0.0943365
0.0715799
0.00117927
0.333253
-0.0513719
-0.0203989
0.0189792
0.0014197
-0.0122769
0.116874
-0.104597
0.00201657
-0.392832
-0.108404
0.0758909
0.273696
-0.407325
0.133628
-0.0346968
0.0206203
0.0140765
0.346467
-0.072771
-0.176146
-0.183342
-0.0140633
0.00256033
-0.435141
0.357068
0.0780726
-0.0665144
0.0152474
0.377677
-0.293302
-0.0843749
0.277661
-0.0841586
-0.184017
0.16413
-0.250453
0.149055
0.101398
-0.027571
0.033933
-0.434676
0.356256
0.0784207
0.0527681
-0.0102042
-0.0425638
-0.185242
0.111751
0.0734909
-0.353517
0.263685
0.0898316
0.00923475
0.0549523
-0.00465067
0.0276375
-0.0229868
0.287849
0.107212
-0.00190782
-0.0139888
0.0158966
0.0287648
-0.0334155
-0.149237
0.223158
-0.0739213
-0.290744
0.364318
-0.0735739
-0.11037
-0.0250276
0.135398
0.210692
-0.151044
-0.059648
-0.176522
-0.0191723
0.195694
-0.209341
0.0856796
0.123662
0.0338898
-0.0377267
0.00383693
-0.160553
0.314489
-0.398769
0.352377
0.0463922
-0.236868
0.369706
-0.132838
-0.0421984
-0.293622
0.33582
0.221469
-0.111828
-0.109642
-0.287969
0.388191
-0.100222
-0.214238
0.352892
-0.138654
-0.0887523
0.134193
-0.0454407
0.221607
-0.0721663
0.303158
-0.103983
-0.289881
-0.108889
0.29582
-0.338019
0.333816
-0.274132
-0.059684
-0.135792
0.061505
0.0742873
-0.328887
0.0920195
-0.0120477
-0.00109894
0.0131466
-0.100937
-0.0464462
0.147383
0.180067
-0.0941276
0.0632282
0.0840304
0.21973
-0.144465
0.223118
-0.161182
-0.0619356
-0.362703
0.148464
-0.34082
0.26459
0.0762298
0.0782742
0.101793
-0.205799
0.140366
0.0654328
0.360192
-0.248803
-0.111389
-0.046134
0.341954
-0.0188934
-0.0326821
0.0515755
0.191234
0.0318831
0.279039
-0.38605
0.107011
-0.0278123
-0.024083
0.0518952
0.0722229
-0.0196078
0.304986
0.299748
-0.345882
0.0405175
0.00442243
-0.0449399
-0.198699
0.360332
-0.161633
0.397481
-0.1614
-0.236081
-0.208288
0.32794
-0.119652
0.0284533
-0.0130229
-0.0154303
0.0145363
-0.013663
0.172198
-0.069203
-0.102995
-0.358074
0.109271
0.0545686
-0.103292
0.0487233
-0.316871
0.108583
0.174494
-0.216813
0.0423193
0.0878929
0.133576
-0.218453
-0.0658331
0.284286
0.344035
0.0170992
-0.0103294
0.0740185
-0.063689
0.294032
-0.0627935
-0.231238
0.140688
0.0700044
0.0809413
0.138789
0.015484
0.336893
-0.212978
0.0769086
0.196569
0.101986
-0.298556
0.0487394
-0.139086
0.0903465
0.306925
0.026891
0.379643
-0.168585
-0.211058
-0.141302
0.0662049
-0.146665
-0.169517
0.316182
0.148889
0.230754
0.304626
-0.16935
-0.135276
-0.311973
0.36899
-0.0570177
0.000674816
-0.0160554
0.0153806
0.261089
0.0329433
-0.0127425
0.000694827
0.0798247
-0.00619529
-0.0736294
0.179995
-0.284816
-0.0253174
-0.0408376
0.0661549
-0.260609
0.08504
0.0274954
-0.0867021
0.0592067
-0.393937
0.30122
0.0927178
0.269945
-0.196161
-0.0737839
0.0514311
0.218514
0.0376944
-0.0655066
-0.193146
0.283392
-0.0125692
0.01775
0.275954
-0.095959
-0.0581577
-0.0678831
0.123972
-0.311286
0.187314
0.160541
-0.257869
0.097328
0.177541
-0.0884567
0.0723701
0.314844
0.0826372
-0.0229413
0.0067756
0.0161657
-0.285875
0.365631
-0.0797557
-0.0322724
0.027515
0.00475738
0.034814
0.242938
-0.277752
0.0159237
-0.0808235
0.0648999
-0.0783944
0.078538
-0.000143618
0.064649
0.334389
-0.0514027
0.193437
-0.392136
0.0467346
-0.157105
-0.0597186
0.072223
-0.0125044
0.078946
-0.293866
-0.0144641
0.0736821
-0.0592181
0.322039
-0.198067
0.0795794
0.0979614
0.316879
-0.304254
-0.0126246
0.0158847
-0.319987
0.304102
0.0137564
-0.073475
0.264086
-0.350062
0.0859769
-0.0324283
0.032279
0.000149314
-0.290074
0.379264
-0.0891898
0.0404854
0.0106925
-0.0511779
-0.0411469
0.147662
-0.106515
0.119529
0.202511
-0.416638
0.416638
-0.095201
-0.216085
-0.106351
-0.0823138
-0.0322985
0.114612
0.0199742
-0.0254831
0.00550889
0.284802
0.0320774
0.183895
-0.268302
0.0844065
-0.276485
0.362406
-0.0859212
0.0560646
-0.081382
0.300185
-0.366461
0.0662757
-0.0151566
-0.168861
-0.018759
-0.0159378
-0.0553182
0.123864
-0.0685462
-0.129655
0.0409031
0.07272
-0.0634852
-0.200609
0.185452
-0.0237255
0.0307361
-0.00701066
0.0993146
0.0101087
-0.109423
-0.144263
0.282635
-0.138372
0.367039
-0.102953
-0.0369753
-0.0714287
0.0117169
0.0167364
0.249545
0.104359
-0.353903
0.191143
0.113483
-0.125412
0.0544098
0.0710025
0.206805
-0.28998
0.0831748
0.424668
-0.182971
-0.241697
-0.0836843
-0.0492305
-0.241333
0.290564
0.321102
-0.124532
0.155905
0.268763
0.0632899
-0.205147
0.141857
0.00876162
-0.0385152
0.0297536
0.285113
-0.126943
-0.15817
0.0411973
0.00894243
-0.0501397
0.0810454
-0.0651217
-0.364267
0.0955707
-0.211715
0.289225
-0.0775103
0.354879
-0.275139
-0.07974
0.0980126
-0.249904
0.151891
0.247982
-0.297213
0.0376382
0.10957
-0.147208
0.0525801
-0.124678
0.0720983
-0.0274935
-0.112291
-0.0884924
-0.176727
0.0431778
0.356497
0.0206013
-0.377098
-0.000505277
0.0116513
-0.0533281
-0.239375
-0.0960861
0.335461
-0.233934
0.333372
-0.0994373
0.131052
-0.0914491
-0.039603
0.161924
-0.087233
-0.0746906
0.295555
-0.0887504
0.0264894
-0.0065152
-0.110267
0.073292
-0.274308
0.37066
-0.0963518
-0.302764
-0.172074
0.0659612
0.106112
0.334704
-0.0851594
-0.0287023
0.21124
-0.182538
0.00312448
-0.0139931
0.0108686
-0.0852505
-0.0520814
-0.373075
0.0987667
-0.00903567
0.0418741
-0.0328384
0.123397
0.158169
-0.281566
-0.166023
0.28942
0.216377
-0.133813
-0.0825637
0.297531
-0.262717
0.157827
-0.304492
-0.133502
-0.0432248
-0.107011
-0.0418441
0.064382
0.107816
-0.199097
0.142396
0.056701
-0.149112
0.307281
-0.000672857
0.363753
-0.206564
0.0838757
0.122689
-0.170049
0.080671
0.0893782
0.0286869
-0.164298
0.135611
0.0939942
0.191119
0.0582727
0.139238
-0.205974
0.0667356
-0.0828194
0.0669712
-0.089005
0.31542
-0.226415
0.0415602
-0.150624
0.109064
0.37555
-0.297788
-0.0777612
-0.229246
0.182936
0.0463103
0.194499
-0.0552606
-0.124508
0.153195
-0.202004
0.173301
0.0298415
-0.00220402
-0.0126365
0.0531219
-0.0104358
0.0278603
-0.0174246
-0.350184
0.0568815
-0.069494
-0.0447887
0.114283
0.038031
-0.0320726
-0.00595841
-0.198669
0.284359
-0.08569
-0.10224
-0.103559
0.0385256
-0.112474
0.0739483
0.107443
-0.0689175
-0.0407616
0.0514541
0.307479
0.033112
-0.340591
0.364112
-0.155946
-0.208166
0.0547452
-0.344626
-0.152636
0.230159
-0.0775232
-0.0931538
0.0403619
0.0527919
-0.00268972
0.0159738
-0.0132841
0.1584
-0.255959
0.0975592
0.0489347
-0.00773741
-0.320742
0.231737
-0.0127295
0.0116674
0.00106206
-0.0946873
0.0817733
0.012914
-0.285609
0.36657
-0.080961
-0.175333
-0.0758286
0.251161
0.00694479
-0.0306703
0.0024316
0.0127905
-0.0152221
-0.130382
0.0608881
-0.133972
0.0171322
-0.249625
0.324747
-0.0751227
0.223312
0.0044264
-0.227739
-0.136721
0.0952786
0.0115856
-0.0120909
0.114623
-0.100735
-0.013888
-0.263826
0.255374
0.00845144
0.0469838
0.293408
-0.340392
0.0153819
0.000934396
-0.0163163
0.238331
-0.327914
0.0895829
-0.394152
0.236535
0.157617
-0.273327
0.382195
-0.108868
0.256692
0.0571119
-0.313804
-0.143191
0.0548025
0.0883883
-0.356585
0.083258
-0.273878
0.370098
-0.0962194
0.107975
-0.0534068
0.405987
-0.248137
-0.15785
0.0145024
0.0450604
-0.0595629
0.040945
-0.0940857
0.0531407
0.318052
-0.386592
0.0685399
0.196694
-0.28689
0.0901957
0.371997
-0.0539449
0.105607
-0.17481
0.362322
-0.0625738
-0.0274233
0.0884942
-0.0610709
0.237402
-0.245264
0.12753
-0.293553
-0.108421
-0.10092
0.0148664
-0.0141916
-0.0147397
-0.107888
0.122628
0.341248
-0.341248
0.0430985
0.0879536
0.0139628
0.0587572
0.12405
0.0923271
-0.274253
0.370936
-0.0966826
-0.0565623
0.335601
-0.168441
0.0857268
0.0827138
0.255503
-0.361482
0.105979
-0.013697
0.0147877
-0.00109072
0.207936
0.100671
-0.308607
0.306426
-0.109732
0.0358157
0.00501294
0.045791
-0.120489
0.0746982
-0.0179859
0.173848
-0.155862
-0.298812
0.365283
-0.0664709
0.348704
-0.140768
-0.361269
0.062457
-0.00960499
0.232883
0.066212
-0.299095
-0.313385
-0.0478849
0.340713
-0.294165
-0.0465486
0.0765336
-0.182651
0.106117
-0.0112349
-0.0211934
-0.1511
0.264379
-0.113279
0.00146101
-0.157912
0.207961
-0.050049
-0.0151844
0.349113
-0.162819
0.062131
0.100688
-0.110872
0.138079
-0.0272064
0.175435
-0.111053
-0.258058
0.0871742
0.170884
0.125424
-0.057383
-0.0680406
0.00924328
-0.0915571
-0.0604989
0.136855
-0.0763562
-0.297993
0.379759
-0.081766
-0.0734811
0.306364
0.227745
-0.146804
-0.120514
0.0641163
0.0563982
0.0641362
0.00567681
-0.069813
0.337302
-0.322544
-0.0147585
-0.257832
0.353808
-0.095976
-0.158265
0.117118
0.312371
-0.0875793
0.0372115
-0.266033
0.228821
0.0793275
-0.0178872
-0.0614403
-0.101089
0.0863497
-0.367866
0.308595
0.0592713
-0.30658
0.10791
0.316466
0.0208368
-0.0603875
-0.015601
0.00190398
0.0197092
-0.202331
0.182621
0.140924
-0.103286
-0.104319
0.142492
-0.0381724
0.0381014
-0.173226
0.135125
-0.223385
0.106314
0.117071
-0.00276329
-0.0112298
0.443434
-0.193805
-0.24963
-0.0926025
-0.0926397
0.260463
0.0707864
-0.253824
0.183037
0.375167
-0.247346
-0.127821
0.2858
-0.354498
0.0686972
0.063577
0.0744388
-0.340903
0.266465
0.198497
0.0796742
0.265365
-0.349359
0.0839941
-0.169384
-0.0601559
-0.0848795
-0.156201
0.241081
0.274138
-0.079314
-0.194823
0.0642873
-0.0592912
-0.00499606
0.0848004
-0.249628
0.164828
-0.0772617
-0.129303
0.018269
-0.240674
0.222405
-0.248668
-0.165125
-0.116031
0.252562
-0.136531
-0.212838
0.291483
-0.0786447
0.0463647
-0.150684
-0.0926343
0.0463215
0.0463128
0.261676
-0.103276
-0.172443
-0.365351
0.0914729
-0.234262
0.277777
-0.0435146
0.320516
-0.200927
-0.119589
-0.335868
0.0814124
0.254456
-0.366377
0.0921233
-0.0666024
0.107547
0.0594047
-0.267072
0.207667
-0.171606
0.120142
0.0514642
0.375495
-0.11013
-0.055174
0.0494056
-0.00223866
-0.242867
-0.010929
-0.0120123
-0.242068
0.157188
-0.176512
0.111973
-0.302922
0.192349
0.110573
-0.277881
-0.0811136
0.358994
0.23696
0.138207
-0.0811964
-0.0745781
0.155774
0.260259
-0.223048
-0.0376981
0.0286624
-0.268269
0.363913
-0.0956449
0.143834
-0.0642109
-0.0796227
0.00117119
0.355325
0.00126879
0.00714862
-0.00841741
-0.100368
0.120175
-0.0198075
0.361165
-0.21324
-0.147925
-0.0579589
0.0720703
-0.0141114
-0.223846
0.0626636
-0.244684
0.262953
-0.00356147
-0.0341366
0.0526981
-0.123398
0.0707
-0.350852
0.0649774
0.245157
-0.147144
0.308095
0.0673995
-0.291066
0.368812
-0.0777462
-0.00654267
0.0166542
-0.0101116
0.0396219
-0.0506956
0.0110736
-0.0513381
-0.300392
0.35173
-0.0565678
0.06013
-0.00356214
-0.352876
0.0749958
-0.296729
0.378713
-0.0819842
0.0955122
0.288002
-0.33934
0.337209
-0.124811
-0.212398
-0.020826
0.0252533
-0.00442729
0.0463342
0.00643391
-0.102043
0.154741
-0.36331
0.105479
-0.000369538
-0.0192098
0.082717
-0.0646623
0.364848
0.0729817
0.070852
0.0724449
-0.0782149
-0.0471974
0.286653
-0.111014
-0.175639
0.122847
-0.0797485
-0.328979
0.0950444
0.0142641
-0.0502263
0.338228
-0.0817436
0.0672795
-0.176061
-0.0531848
0.041962
-0.217321
0.175359
-0.202276
0.0512323
0.0257803
-0.202302
-0.0581463
0.0875103
-0.029364
0.174094
0.187071
-0.114287
-0.0557623
0.402993
-0.16874
-0.234253
-0.130926
-0.0924592
-0.154542
0.0536055
-0.00105939
-0.238616
0.239676
-0.0932378
-0.130608
0.114723
-0.0689317
-0.0107757
0.0726509
-0.0618752
-0.0116903
0.000254007
0.0114363
0.294235
-0.344461
-0.150501
-0.099952
0.281863
-0.374683
0.09282
-0.0968668
0.0904864
0.00638038
0.00452464
-0.0253507
0.180888
0.105765
-0.0239107
0.0270487
-0.00313803
-0.200054
0.103153
0.0969001
0.201138
-0.0760509
-0.125087
0.0288272
-0.187181
0.158354
0.0633407
0.219075
-0.282415
0.105318
-0.0486406
-0.0566774
0.0025787
-0.123577
-0.0764767
-0.0848583
-0.228183
0.313041
-0.202315
-0.057166
0.259481
0.0511345
0.0541834
0.010687
-0.111055
-0.160369
-0.126197
-0.0715035
0.141937
-0.0704338
0.149505
-0.0862769
-0.0298721
0.0343645
-0.00449242
0.378492
-0.285476
-0.0930165
-0.0915895
-0.266484
-0.00161857
0.0170005
0.232077
-0.0995447
-0.132532
-0.083405
-0.213525
0.29693
0.0722478
-0.0931398
-0.269563
-0.152288
0.181115
-0.00528223
-0.00295555
0.00823777
0.0361519
-0.00226211
0.0691302
-0.108845
0.0397148
0.00214951
-0.0297205
-0.246024
0.276836
-0.0308118
-0.0333853
-0.107545
0.140931
-0.38053
0.21609
0.16444
-0.120434
-0.0514623
-0.0497091
0.141394
-0.0916847
0.0773406
0.0467391
-0.12408
-0.260587
-0.119943
-0.401273
0.310154
0.091119
-0.293375
0.0512881
0.282831
-0.334119
-0.0399938
-0.311256
0.146582
-0.105022
-0.0124141
0.000723795
-0.0555663
0.343416
-0.0832393
0.025416
0.115508
0.206875
-0.207934
-0.058957
0.274158
-0.336906
0.0627479
0.032074
0.0219374
-0.298825
0.369596
-0.0707711
0.0884342
-0.0313925
-0.0570417
0.124967
-0.0439216
0.0194424
-0.116309
-0.0921109
0.276006
0.349892
-0.299704
-0.0501887
0.0489495
-0.000727272
-0.086307
0.162841
0.168948
-0.262729
0.0937807
-0.298745
0.0644824
0.377125
-0.0606596
0.0368498
-0.112151
0.0753011
0.0754793
-0.135978
-0.0734175
-0.153077
0.113794
0.039283
-0.0412778
0.210753
-0.169475
0.0556878
-0.228711
0.173024
0.0765161
0.00281136
0.0327038
0.0819188
0.0673122
0.108122
-0.0182211
-0.128652
-0.205916
0.0856323
0.120284
-0.0402335
0.0366721
-0.082974
0.0721983
-0.0834969
-0.0849437
0.350333
0.00516857
-0.355501
-0.019079
-0.00131809
0.0835834
-0.0194472
0.221962
-0.0253608
-0.196601
0.125727
-0.0616929
-0.0640337
-0.0241858
0.117819
-0.0936329
0.010168
-0.00889917
0.377671
-0.00409278
-0.373578
0.0174345
0.122931
-0.164655
0.146669
0.0703939
-0.139464
0.0690699
0.312934
0.00495346
-0.317887
0.0486681
-0.116457
0.0677891
0.172729
-0.0609775
-0.303826
-0.0760999
0.207046
-0.130946
0.00355597
-0.00883819
-0.142714
0.103883
0.0451817
-0.119832
0.0746503
-0.117815
0.0936295
0.0776712
0.183055
-0.260726
0.127917
-0.0587232
-0.0691938
0.00280813
-0.0326802
-0.00396222
0.227274
0.0339326
0.0580718
-0.0920044
-0.306712
0.379803
-0.0730907
-0.0427402
0.167025
-0.124285
-0.384825
0.0781127
-0.0227214
0.0800293
-0.0573079
0.258763
-0.0898154
0.12941
-0.0806704
-0.202434
0.0783466
0.124087
-0.358703
0.23477
0.123933
0.0521968
0.0174555
-0.131977
0.114521
-0.197251
0.145078
0.0521729
0.0156993
-0.0984236
0.0827243
0.217835
0.060991
-0.278826
0.148532
-0.222407
0.073875
-0.349704
0.056082
0.0597404
0.0286938
-0.223874
0.182596
0.0318234
0.0581504
-0.0899738
-0.0545786
-0.122467
0.177046
-0.361122
0.362035
-0.000913117
-0.0425106
0.355445
0.0414276
0.0939797
-0.135407
-0.0234612
-0.00881118
-0.251787
0.337106
-0.0853191
-0.389819
0.128274
0.261545
0.240122
0.124428
-0.36455
-0.135161
-0.0707553
0.000194577
-0.0276611
0.0274665
-0.0511506
-0.0399062
-0.00892108
0.0488273
-0.333255
0.380546
-0.136961
-0.243585
-0.00715242
0.0625393
-0.279031
-0.0956519
0.0644084
0.312717
-0.197728
0.0398165
0.054199
-0.351987
0.00845557
0.00533979
-0.0137954
0.0639811
-0.0867025
0.130798
0.0682455
-0.199044
0.296912
0.0759618
-0.244303
0.348535
-0.104232
0.341731
-0.0526292
-0.289102
-0.193058
0.270729
-0.052362
0.270197
-0.0451727
-0.0813205
0.0394763
-0.101292
-0.156767
0.354811
-0.289588
-0.0652231
-0.0326678
0.00339707
0.0292708
0.102997
-0.0855415
0.160757
-0.238554
0.0777976
-0.354827
0.110525
0.0532767
-0.295609
0.242332
0.0618436
-0.253914
0.192071
-0.0982688
0.165581
-0.075339
0.0615203
0.0138188
0.0429061
-0.0120487
0.0595847
-0.0275107
-0.0619215
0.0349319
-0.0327824
0.267204
0.106668
-0.373873
0.058577
0.0663901
0.115424
0.0441827
-0.363475
0.0988882
0.264586
-0.176728
0.122149
0.031025
-0.141897
0.0544186
-0.395773
0.201969
0.363976
-0.0697415
-0.106818
-0.0358958
-0.279941
0.0886692
0.191272
0.104586
-0.0354559
-0.19755
-0.196387
0.201633
0.0465762
-0.24821
-0.11412
-0.186524
0.300644
0.126119
-0.168859
-0.1535
0.28103
0.219284
-0.11613
0.176007
0.101655
-0.23243
-0.202711
-0.276047
0.364418
-0.0883711
0.0518996
0.061865
0.08764
0.0143339
-0.0204854
0.00615158
0.129477
-0.104061
-0.228983
0.336335
-0.107352
-0.39586
0.252193
0.143666
0.0428237
0.0948592
-0.137683
0.329809
-0.405141
0.0753314
0.0910955
0.272818
0.0496881
-0.182458
0.13277
-0.0238865
-0.0358852
0.0597717
0.170372
-0.139037
-0.0313346
-0.0597141
0.0408207
-0.0839075
-0.0571613
0.141069
0.0788745
-0.00949005
-0.0693844
0.245059
-0.0843028
-0.00411237
0.0230396
-0.0189272
0.0623728
-0.137995
0.075622
-0.232417
0.35854
-0.126123
0.374621
-0.0259172
0.00575149
-0.00870704
-0.027457
0.252773
-0.225316
0.301634
-0.188468
-0.113167
0.0110999
0.00941076
-0.0205106
0.294901
-0.376766
0.0818645
0.0818122
0.0131581
-0.0949703
0.291257
0.0833643
0.145462
0.142668
0.176182
-0.261938
0.0857561
-0.383281
0.249467
0.133815
-0.00913881
0.0487607
-0.00376538
0.177613
0.0878907
0.131393
0.246989
-0.274446
-0.078091
0.254098
-0.299903
0.380617
-0.0807137
-0.347447
0.108072
-0.142088
0.0596306
0.0824572
-0.177687
0.323527
-0.14584
-0.113464
0.303864
-0.102457
-0.201407
-0.00907203
0.0495895
0.0318257
-0.112487
-0.0749925
-0.0693216
-0.0727662
0.182406
0.0509522
-0.233359
-0.011574
0.0130351
0.231102
0.0705326
-0.0680938
0.208781
-0.0664406
0.340599
-0.308351
0.154851
-0.228422
-0.167351
0.0174494
0.112028
0.0263674
0.00613097
-0.0324984
0.294189
0.0697867
0.368598
-0.0744089
-0.0236568
0.0306016
0.159378
-0.273498
-0.0757034
0.306805
0.0790024
0.000822334
-0.0886397
-0.0369296
0.125569
0.0520987
0.0199716
-0.0230909
0.0839234
-0.0106177
-0.0733057
-0.0407805
0.0305763
0.0228167
0.250022
-0.0738404
0.0140833
-0.0159911
-0.0515667
0.233973
-0.0527695
0.06308
-0.273284
0.210204
-0.353867
0.118902
0.234966
-0.248247
0.184437
0.0638106
0.0449847
0.0778623
-0.123891
-0.262772
0.0146819
-0.00622632
-0.175194
0.0547594
0.0835763
-0.13528
0.0517034
0.0110535
0.00123274
-0.0122862
0.107689
-0.0452358
-0.0624531
-0.245027
-0.138255
0.209502
0.196137
0.132631
-0.209893
-0.159345
-0.0376967
0.197041
0.249727
0.0781996
-0.327927
-0.142756
-0.0116251
0.154381
-0.0201454
0.280405
0.38832
-0.0535448
0.252955
0.0887758
0.235589
-0.224704
-0.0108847
0.375801
-0.0672064
0.0687776
-0.00163101
-0.0671466
0.0184149
-0.236629
0.0290334
-0.131077
-0.308288
0.181344
0.133888
-0.104854
-0.0658663
-0.0288209
-0.183464
-0.251212
-0.000513588
0.253286
0.336804
-0.0870765
0.161633
-0.300755
0.139122
-0.056535
0.258168
-0.111874
0.04622
0.0656542
-0.205747
-0.0971754
0.0569172
-0.176609
0.119692
0.333207
0.0444644
0.0383391
-0.107852
0.0695125
0.0385317
-0.136885
0.0983531
0.117275
0.188155
-0.240645
0.319123
-0.0784778
0.114429
-0.261563
0.147135
0.0415078
0.194081
0.311335
-0.149702
-0.0934451
-0.334369
0.272591
0.0617779
-0.296095
0.277812
0.0182831
0.0679833
-0.0158846
-0.269591
0.285476
-0.257296
0.331441
-0.0741446
0.0578402
0.0754689
0.0502577
0.119748
-0.0442793
-0.30301
0.135979
0.092512
0.256023
0.0865958
-0.0708964
0.209927
-0.337222
0.127295
0.0127785
-0.00172498
0.135232
-0.0516558
-0.110151
0.0477177
0.0624334
0.0497606
0.290035
-0.339795
-0.0705776
-0.0500579
0.120636
-0.0841806
-0.245197
0.0396251
0.00930959
-0.123538
-0.0566798
0.205342
-0.148662
-0.0207056
-0.0576889
0.27857
0.00574446
-0.284314
-0.357352
0.181206
0.248195
-0.0731333
-0.175062
0.0436792
0.0710435
0.17699
0.0252645
-0.0655548
0.0402903
0.279627
-0.22635
-0.120962
0.167327
-0.116364
0.0139494
-0.0115178
-0.0516273
-0.0585239
-0.277097
0.384076
-0.10698
-0.183762
-0.124526
-0.00882632
-0.102929
0.0328234
-0.000837765
-0.0319856
-0.174269
-0.179248
-0.0519063
0.337707
0.1591
0.0112713
-0.0940257
-0.112075
0.103249
-0.0148588
0.096671
-0.051561
0.0389245
-0.137343
-0.124595
0.00986377
0.0443093
-0.0541731
-0.0260572
-0.00661063
0.0227051
-0.0225105
-0.0844404
0.0285994
0.0558409
-0.238474
0.013757
-0.315124
0.109221
0.205903
0.329489
-0.279804
-0.049685
0.0591665
0.102757
0.160574
0.0625839
0.0864522
-0.303707
0.217255
-0.182892
0.0568533
0.126038
0.0475107
-0.00788566
0.0233335
-0.16609
-0.290238
0.10177
0.355275
-0.288681
-0.0665941
0.213576
-0.338824
0.125247
0.298666
-0.212214
0.299338
-0.357118
0.0577801
-0.0751867
0.224242
-0.0503517
-0.245743
0.283656
-0.372479
0.0888231
-0.227406
0.295209
-0.0678026
0.228502
-0.273675
0.344488
0.00326969
-0.347758
0.250975
0.105384
-0.35636
0.0267858
-0.0263394
-0.000446404
0.296631
0.0147034
0.00899143
0.0458978
-0.0548892
0.122846
0.214363
0.0788702
0.0408781
0.0604793
0.0391448
-0.0996241
0.311233
-0.101306
0.311247
-0.0146152
0.00282202
-0.0182826
0.0154606
0.0140538
0.0239771
-0.105922
-0.0150401
-0.0512378
0.119666
-0.0684279
-0.134035
0.0426332
0.0914017
0.0692001
0.286075
0.084099
-0.341395
0.0329172
0.0745259
-0.0527899
0.0540198
-0.00122983
-0.0722977
0.335983
-0.161073
0.0232802
-0.145797
0.122516
-0.0268023
-0.137852
0.303553
-0.0249826
-0.0134801
-0.0559536
0.0694337
0.0786907
0.0052327
-0.0632684
0.0784419
-0.0151735
-0.294585
0.0671788
-0.0521025
0.129443
0.0834765
-0.054975
-0.0285015
-0.0120852
0.0134243
-0.00133911
0.316454
0.0338789
-0.00422484
0.36048
-0.0617814
-0.11473
-0.330969
-0.0856683
-0.374726
0.146721
0.228006
0.155267
-0.211947
-0.0024803
0.0712579
0.301267
-0.249979
-0.0860703
0.153559
0.200274
0.228263
-0.0314241
-0.196839
-0.0192146
0.0177026
0.00151203
0.0867007
-0.371906
0.285205
-0.055231
0.0516281
0.00360296
-0.195252
-0.194568
-0.0136233
-0.152706
-0.190732
0.343438
-0.0551635
0.0665581
-0.0113946
-0.218821
-0.0564239
0.000458321
0.0559655
-0.111324
0.162333
-0.0510093
-0.364703
0.364703
-0.0487625
-0.071752
0.045818
0.0721454
0.118073
-0.0500039
-0.0680688
0.356864
-0.0878313
-0.269033
0.347107
-0.260406
0.03294
-0.0568265
-0.154658
0.134255
0.0302175
-0.164473
0.118757
0.0373358
0.0672502
-0.377379
0.301307
0.0760713
0.126931
-0.0831543
-0.0437766
-0.0752801
-0.269192
0.344472
0.0672054
0.0956529
0.0149669
-0.0609817
0.0460148
-0.138469
0.0648226
0.0736465
-0.0753076
0.290607
0.0404137
-0.33102
-0.0793772
-0.0619246
0.0582229
0.0627437
-0.120967
-0.10997
0.0409075
0.0690623
-0.00135879
-0.015203
0.0165618
0.152642
-0.179444
-0.129694
-0.0725822
-0.0188676
0.00291507
0.0159525
0.0348461
-0.0084787
-0.0212632
0.0171508
0.0565295
0.0704014
0.00408504
-0.0194269
0.0153419
-0.0275804
0.00411921
-0.0919039
0.171433
-0.0795295
0.3116
0.0913928
-0.0240856
0.36087
0.229086
-0.313944
0.0429171
0.0969569
-0.139874
0.0697735
-0.00186485
0.0125707
-0.0107059
0.0796271
-0.311774
0.232147
-0.364134
0.0730687
-0.011342
0.135392
0.0631024
-0.118421
-0.100892
-0.139845
0.240737
-0.36505
0.313307
0.0517434
-0.294776
0.173651
0.121125
-0.0570985
0.127492
0.263738
0.068873
-0.332611
-0.139936
0.0550317
0.084904
-0.096185
-0.242595
0.33878
0.213782
-0.344921
0.131138
-0.0443075
0.0586763
-0.0143688
-0.0453711
0.00546494
-0.0577582
-0.159055
0.320139
-0.106357
0.310006
-0.230379
0.0502126
0.188506
-0.238719
-0.29928
0.195612
0.103668
-0.42427
0.220882
0.203388
-0.00115263
-0.0201106
0.0968377
-0.0112455
-0.0855922
0.34593
-0.0904274
-0.0771768
-0.0586155
-0.207987
-0.216283
-0.356211
0.280931
-0.00457237
-0.0518515
0.302773
-0.363142
0.0603689
0.0242156
-0.119323
0.0951075
0.192765
-0.114044
-0.0787213
0.119707
-0.0546625
-0.0650443
-0.121882
-0.0533117
-0.0943137
0.137231
0.0944501
0.260429
-0.336608
0.16912
0.167488
0.0925253
-0.146219
0.0536932
0.351512
-0.0502928
-0.140711
0.0692074
0.125583
-0.0180366
-0.107546
-0.13041
-0.0720235
-0.0653878
-0.027766
-0.221881
-0.114727
-0.113566
0.047258
0.0663078
0.0337565
0.0122457
-0.0460022
0.235057
-0.128743
-0.0216706
-0.0952935
-0.379807
0.214818
0.164989
-0.121461
0.0545529
0.0669084
0.287452
-0.0507675
-0.236684
0.280339
-0.233355
0.0400729
-0.0722536
-0.0662155
0.0106909
0.0514782
-0.0621691
-0.179212
0.13822
-0.0634035
-0.0748167
-0.092215
-0.0418199
0.0417176
0.0559806
-0.0976981
0.0320802
0.231928
-0.0820588
-0.149869
0.117306
-0.0930906
0.0368168
0.24281
0.285262
-0.394001
0.108739
0.0581689
0.108698
0.126359
-0.0708233
-0.0324686
-0.151385
0.0701888
-0.0848376
-0.15723
0.25734
-0.186554
0.0436485
-0.202993
-0.0503022
0.0609932
0.172641
-0.0943673
-0.0172213
-0.241265
0.258486
-0.0182489
0.0168901
0.0253302
-0.00508974
0.0194236
0.142585
-0.151941
-0.0979623
-0.0497424
-0.245867
0.114561
-0.191353
0.0767925
0.0749151
0.0977263
-0.407378
0.174961
-0.00657898
0.103417
-0.153897
0.0620067
0.0918907
-0.0214158
-0.0061646
0.280133
0.075612
-0.355745
0.0419832
-0.051122
-0.377924
0.102498
0.275426
0.199411
0.0288518
0.289516
0.0673486
0.0901155
-0.147948
0.0578321
0.00567613
0.0127975
-0.0184736
-0.0378842
0.0329505
0.163905
-0.196855
0.176858
0.0682009
-0.0699218
0.122502
0.0292906
-0.00250479
0.0178442
-0.0196966
0.00185239
0.047001
-0.360385
0.239524
-0.335709
-0.351787
0.0550581
-0.129091
-0.248833
0.0203258
-0.312546
-0.173725
0.111944
0.0704526
-0.245785
-0.045296
-0.137355
0.0125798
-0.0152695
0.038035
-0.155693
0.117658
0.247788
-0.0426561
0.103135
-0.360228
0.104459
0.255769
-0.177263
0.227476
-0.246824
0.188676
0.0581479
0.0312475
0.280588
-0.216609
-0.0639789
0.0876749
0.144253
-0.0106638
-0.13816
0.148824
-0.388833
0.205872
-0.122168
0.0531068
0.0690614
0.0499918
-0.184901
0.13491
0.0786963
-0.0383343
0.137254
-0.113974
-0.110649
0.274368
-0.163718
0.0553305
-0.355034
-0.160726
0.193676
-0.0895865
0.0267898
0.0627966
-0.321335
0.0787402
0.0648709
0.127894
0.441629
-0.274155
-0.167473
-0.133016
-0.224335
-0.148679
0.115294
-0.125386
0.265969
-0.229152
0.273858
-0.174477
-0.0993811
0.0437705
0.0856393
-0.0441229
-0.064722
-0.14407
0.0960819
0.0479881
-0.324313
0.0953303
-0.22073
-0.01483
0.0139043
0.000925703
0.0105143
-0.127104
0.11659
-0.361661
0.161125
0.200536
0.263028
-0.307599
0.0445708
-0.200254
0.288334
-0.0880808
-0.235831
-0.125829
0.392288
-0.325794
-0.0664948
0.343595
-0.401018
0.0574235
-0.0388792
-0.0229586
0.0618378
0.0511221
0.0669506
0.0105857
-0.0171284
-0.042783
0.0014488
0.0413342
0.0166499
0.0638698
-0.0805197
-0.0530659
-0.0197908
0.0728567
-0.320235
0.0964685
0.223766
-0.0316595
-0.0609749
-0.173363
0.0987848
-0.385522
0.0993834
0.286139
0.0427217
-0.101425
0.0587029
0.00574036
0.351328
0.0122159
0.10509
-0.226148
-0.0940867
0.0718569
0.0237329
-0.0955898
-0.355133
0.0655448
0.328674
0.129267
-0.204961
0.075694
0.0630829
0.23898
-0.302063
0.271908
0.075199
0.199764
-0.221404
-0.179869
-0.145629
0.20104
-0.0554109
-0.373496
0.0974494
-0.132466
-0.249139
0.227656
-0.310157
0.0825013
-0.0166682
-0.0840664
-0.0425995
0.117606
0.293791
0.106641
-0.0838224
-0.271005
-0.0821771
-0.0610137
0.148541
-0.297703
0.149162
0.355996
-0.0653898
-0.0143165
-0.00122621
0.0155428
0.173969
0.26766
-0.124132
0.134646
0.0244309
0.122152
-0.284367
0.334128
-0.35205
0.0924034
0.259646
0.0635324
0.237125
-0.300657
-0.103567
0.218128
0.298195
-0.0696931
0.265206
-0.026875
0.0186097
0.172165
0.0778577
-0.05856
0.101282
0.128333
-0.206754
0.0784212
-0.212584
0.276116
0.0162618
0.152895
-0.0627792
-0.250662
-0.101388
0.303705
-0.155164
0.350411
-0.1393
-0.344256
0.0671595
-0.062651
-0.120241
0.314788
-0.0871325
-0.0396646
-0.0544211
-0.347437
0.158585
-0.115585
-0.0430004
-0.0613104
0.122815
0.331629
-0.0580477
-0.273582
-0.361327
0.098769
0.262558
-0.314629
-0.00372936
0.318358
0.0863732
0.2373
-0.323674
0.340937
-0.266498
0.088628
0.282032
0.0394075
-0.113052
0.0736446
-0.247925
-0.165658
0.00322848
0.040229
-0.0434575
-0.219501
-0.139202
-0.121645
0.178498
-0.231543
0.297755
0.137852
0.0384428