/*--------------------------------*- C++ -*----------------------------------*\
| =========                 |                                                 |
| \\      /  F ield         | OpenFOAM: The Open Source CFD Toolbox           |
|  \\    /   O peration     | Version:  v2012                                 |
|   \\  /    A nd           | Website:  www.openfoam.com                      |
|    \\/     M anipulation  |                                                 |
\*---------------------------------------------------------------------------*/
FoamFile
{
    version     2.0;
    format      ascii;
    class       volVectorField;
    location    "400";
    object      U;
}
// * * * * * * * * * * * * * * * * * * * * * * * * * * * * * * * * * * * * * //

dimensions      [0 1 -1 0 0 0 0];


internalField   nonuniform List<vector> 
37809
(
(1.00862 0.00025476 0)
(1.07671 0.0542687 -8.21166e-21)
(1.06213 0.0206242 -4.54167e-21)
(1.08283 0.0606295 -1.0765e-20)
(1.01185 0.000837521 0)
(1.00072 -1.74216e-05 -1.47184e-22)
(1.00259 -4.55851e-05 8.93788e-23)
(0.70576 0.0949724 1.05202e-20)
(1.03386 0.014884 -3.24922e-21)
(1.05058 0.03792 -4.99967e-21)
(1.01945 0.0149264 0)
(1.04081 0.02902 0)
(1.01344 0.00231159 1.31283e-22)
(1.02235 0.0188497 4.6115e-22)
(1.03051 0.0180967 -2.67698e-21)
(1.04855 0.0168429 2.38091e-21)
(1.00328 7.68693e-05 1.18069e-23)
(0.807394 0.0564882 -6.33889e-21)
(1.04037 0.0290145 0)
(1.02943 0.00708014 0)
(1.04834 0.0171049 -2.92724e-21)
(0.787511 0.0736275 1.1947e-20)
(0.922418 0.121488 1.20933e-21)
(1.0139 0.00152446 2.10395e-24)
(0.41034 0.018672 3.43306e-21)
(1.00359 0.000146912 -1.21606e-22)
(1.0464 0.0275097 6.16862e-21)
(0.557307 0.0361192 0)
(1.0576 0.0348619 0)
(1.00498 -7.86674e-05 1.0306e-22)
(1.01729 0.00301642 6.67664e-22)
(0.497861 0.0299351 -9.02109e-21)
(1.02159 -8.05392e-05 1.88896e-21)
(0.991169 0.0207978 0)
(1.04611 0.0286107 -1.51132e-21)
(1.02152 -0.000176733 0)
(1.08821 0.0525367 0)
(1.08016 0.0625144 -1.17851e-20)
(1.07406 0.0668128 0)
(1.01133 0.000309508 0)
(1.01016 -0.000689644 2.33196e-23)
(1.05316 0.0414201 3.64934e-22)
(1.0503 0.0163121 -5.2524e-21)
(1.04913 0.0390843 2.03124e-21)
(1.01975 0.000572131 4.90628e-21)
(1.0449 0.0302806 -5.98041e-21)
(1.042 0.015258 0)
(1.02916 0.0217729 1.41799e-21)
(1.04135 0.0198029 0)
(1.04199 0.0609416 -3.03637e-21)
(0.539736 0.0321236 -1.3436e-20)
(0.926787 0.1141 -1.49906e-21)
(0.987081 0.0201235 -8.43812e-22)
(0.993243 0.0196317 0)
(1.04602 0.0282019 6.61012e-21)
(1.01208 0.00121307 -8.21306e-23)
(1.07761 0.0661379 9.93704e-21)
(1.05517 0.0230098 -3.50588e-21)
(1.08277 0.0699889 0)
(0.551999 0.0331647 9.10744e-21)
(1.04445 0.0303119 5.54754e-21)
(1.05361 0.0355239 8.42516e-23)
(1.08859 0.0609502 1.14427e-20)
(1.0497 0.0390692 -2.04989e-21)
(1.01541 0.00595766 -1.29736e-22)
(1.03015 0.018119 -1.63133e-21)
(1.07646 0.0537157 0)
(0.393298 0.00951983 0)
(1.04451 0.0372052 -1.7014e-21)
(1.03609 0.0452217 -1.80636e-21)
(1.01215 0.00117029 -6.96872e-23)
(1.00546 0.000251504 -2.38857e-22)
(0.935704 0.111153 9.38534e-22)
(1.09201 0.0595456 0)
(1.00204 -3.28183e-05 -8.25382e-24)
(1.03662 -0.0323268 -5.04037e-23)
(1.0427 0.0603374 -5.57449e-21)
(1.00561 8.84853e-05 0)
(1.04908 0.0152752 -2.50932e-21)
(1.01842 0.000283585 1.62608e-21)
(1.0501 0.0396194 4.222e-21)
(0.840199 0.0570704 0)
(1.03453 0.00363135 0)
(0.985801 0.0165273 0)
(1.04977 0.0228738 -2.24698e-22)
(0.380428 0.0074184 -6.14139e-21)
(1.01512 0.00621732 -3.52801e-23)
(0.542636 0.0325537 8.65403e-21)
(1.04402 0.03726 2.55693e-21)
(1.08787 0.0527259 3.8476e-21)
(1.0022 3.91535e-05 0)
(0.521073 0.0259459 -6.2433e-22)
(1.0667 0.0290872 0)
(1.00169 -1.59326e-05 0)
(1.05354 0.035016 0)
(1.00821 7.61483e-05 8.24248e-23)
(0.710156 0.048295 0)
(1.00808 6.71406e-05 0)
(1.00656 -0.000247872 0)
(0.401551 0.0171858 0)
(1.00699 0.000419484 -4.47156e-22)
(1.07829 0.0661943 -1.69513e-20)
(1.00869 0.000271299 4.92184e-23)
(1.01556 0.00593855 2.8484e-22)
(1.04607 0.0222361 -1.99776e-23)
(1.02318 0.0153817 0)
(0.807409 0.0760015 -1.12588e-20)
(1.00258 1.11943e-06 0)
(0.712255 0.122579 -1.23782e-20)
(1.01458 0.118798 8.81112e-22)
(1.01283 0.00368291 1.1142e-24)
(1.0916 0.0593694 0)
(0.771073 0.0591212 7.09656e-21)
(1.01141 0.0002766 0)
(0.532354 0.0280903 -4.91781e-21)
(0.804614 0.0601134 6.46479e-21)
(1.02912 0.0174713 -4.88647e-21)
(1.00915 0.00196609 0)
(1.0347 0.0876083 0)
(1.04124 0.00422887 1.29983e-21)
(1.03249 -0.0293488 4.18962e-22)
(1.01123 0.0225039 0)
(0.702017 0.0714781 -1.82499e-20)
(1.01979 0.000654769 -3.95876e-21)
(1.01176 1.69175e-05 -1.05141e-22)
(1.02396 -0.0285875 4.10695e-25)
(1.00587 4.44421e-05 8.033e-23)
(1.03562 0.020974 2.28194e-21)
(1.00735 3.08736e-06 0)
(1.00774 4.05855e-05 0)
(1.06046 0.0206323 -4.45846e-21)
(1.02983 0.0177835 1.17104e-21)
(1.01335 0.00229543 7.63177e-23)
(1.01164 4.14691e-05 1.08148e-22)
(1.00578 4.29692e-05 1.57753e-22)
(1.01217 0.00401628 6.08564e-22)
(1.04764 0.0401499 5.21209e-21)
(1.02105 -0.0329271 0)
(0.376595 0.0146081 0)
(1.0577 0.0142811 0)
(1.04032 0.0295955 0)
(1.05402 0.0437424 1.18864e-21)
(1.02212 0.0190013 8.79671e-22)
(1.03938 0.00550625 9.9308e-21)
(1.00788 5.66082e-05 -1.06614e-22)
(1.01156 0.00285303 -3.33065e-22)
(1.03995 0.0296222 0)
(1.03024 0.0217574 0)
(1.00741 1.9999e-05 -2.7762e-22)
(1.00572 3.73253e-05 -1.58566e-22)
(1.08616 0.0608841 1.16288e-23)
(1.03935 0.00577909 -4.49712e-21)
(1.0189 0.000309732 2.23847e-21)
(1.08355 0.0633728 0)
(1.00746 9.61217e-06 4.82723e-23)
(1.01757 0.00327162 -3.90202e-22)
(1.00564 3.61487e-05 1.55295e-22)
(0.485759 -0.0253806 -2.9261e-21)
(1.00645 -0.000234852 -3.94396e-24)
(1.00229 -2.68385e-05 0)
(1.02337 2.70855e-06 0)
(0.549347 0.0396171 9.54636e-21)
(0.48251 0.0279167 2.77973e-22)
(1.04543 0.0121775 2.06365e-21)
(1.00754 3.02027e-05 1.21531e-22)
(1.06159 0.0508811 4.78061e-21)
(1.0236 -8.36255e-05 0)
(1.03271 -0.0490084 -5.89993e-22)
(1.03525 0.0210408 2.19062e-21)
(0.912091 0.131985 -9.45625e-23)
(1.00107 -4.15005e-05 1.38049e-22)
(1.03999 0.0609763 2.9279e-21)
(1.01967 0.0119245 -1.11156e-21)
(1.04117 0.00464634 1.44943e-21)
(1.02189 0.0186935 -1.97163e-21)
(1.01165 2.24935e-05 -1.41327e-23)
(1.03422 0.0151318 4.06632e-21)
(1.01528 0.00735263 3.40449e-22)
(1.03798 0.0408398 0)
(1.01205 0.00391676 1.38352e-22)
(1.01341 -0.000288282 9.35325e-23)
(1.05485 0.0391117 -8.13218e-22)
(1.01211 0.00074062 1.2462e-22)
(1.0135 -0.000381272 8.66579e-23)
(1.02405 0.0052596 -3.50794e-21)
(1.00876 0.00013956 9.49767e-23)
(0.527696 0.0277732 -1.05146e-20)
(1.01954 0.0118894 5.19605e-22)
(0.381959 0.0157447 -1.28689e-21)
(1.06612 0.0610197 1.88174e-20)
(0.851599 0.0386139 9.39022e-22)
(1.0828 0.0566496 1.27441e-20)
(1.02978 0.00716246 0)
(1.02363 0.0562379 1.52214e-21)
(1.00176 -3.09514e-05 -9.27458e-23)
(1.03408 0.00400363 0)
(1.03406 0.0042911 0)
(1.08333 0.0630907 1.45559e-20)
(1.0152 0.0061909 -1.7963e-23)
(0.528501 0.0294649 -5.60733e-21)
(0.851157 0.0186004 -1.34405e-21)
(1.05068 0.0396366 0)
(1.01755 0.00983082 7.62879e-22)
(1.01509 0.00637192 1.85973e-22)
(1.04444 0.0309604 -2.62751e-21)
(1.02948 0.0178183 1.2747e-21)
(1.00248 -3.06725e-05 -3.40629e-23)
(0.536508 0.0291373 -9.38858e-21)
(1.00871 0.000202972 -2.00247e-22)
(0.679952 0.0550125 0)
(1.00126 0.0369375 -2.03831e-22)
(1.02098 0.0535898 2.01324e-22)
(1.07138 0.0963228 -1.0042e-20)
(1.04068 0.0603929 2.28806e-21)
(1.00248 2.58454e-05 -2.4815e-23)
(1.00636 -0.00021781 0)
(1.04039 0.0886395 6.10845e-22)
(1.08715 0.058187 1.60525e-21)
(1.00875 0.000262597 -4.72833e-23)
(0.911143 0.136944 0)
(1.08514 0.0500502 0)
(1.01758 0.00998533 -1.45911e-21)
(1.04404 0.0310142 -4.87086e-21)
(1.0034 0.000132055 5.7192e-23)
(1.00121 2.07928e-05 0)
(1.08735 0.0584004 -3.35852e-21)
(1.01156 0.00346036 -1.05581e-21)
(0.735474 0.0516802 1.29748e-20)
(1.00556 2.22112e-05 -4.09384e-23)
(1.09087 0.0630762 0)
(1.04827 0.0128018 4.66979e-21)
(1.01741 0.00988167 -6.82085e-22)
(1.00014 1.70716e-06 0)
(1.01771 0.00993427 0)
(1.01525 0.00633092 1.19245e-22)
(1.03741 0.0509415 -1.41421e-21)
(0.667025 0.0462256 1.09839e-21)
(1.00419 0.000132818 -1.4819e-22)
(1.01818 0.0119923 -2.12425e-22)
(1.00889 9.27747e-05 5.27868e-23)
(1.08272 0.0562092 1.55165e-20)
(1.00217 -2.65536e-05 -3.83175e-24)
(1.04532 0.0174737 2.62112e-22)
(0.711236 0.0488318 7.25097e-21)
(1.05701 0.0391721 -8.46639e-21)
(1.06107 0.0207986 5.33068e-21)
(1.09174 0.058759 -1.44988e-20)
(1.04196 0.0175929 2.70821e-22)
(0.744329 0.0507947 3.44092e-21)
(1.06291 0.0395145 -3.16272e-21)
(1.02167 0.00515051 -1.72335e-21)
(1.01144 0.00333823 8.2503e-22)
(1.05423 0.0347665 -3.97391e-23)
(0.550302 0.0412287 8.99178e-21)
(1.01192 0.000732579 -8.10839e-22)
(1.02386 0.00531515 1.94729e-21)
(1.04577 0.0460664 0)
(1.02369 0.00310753 1.41728e-21)
(1.01598 -0.00212044 3.34831e-22)
(1.04651 0.0279621 -6.76853e-21)
(1.01316 0.000581587 0)
(1.01516 0.00718249 1.03223e-22)
(1.01634 -0.00209695 0)
(1.02725 0.018686 1.01892e-21)
(0.884358 0.0590141 -3.16164e-21)
(1.02312 0.0122582 2.81409e-21)
(0.974968 0.063889 -2.6255e-21)
(1.01914 0.0535985 -2.64841e-24)
(1.00565 9.54646e-05 1.74312e-23)
(1.01786 0.0113319 8.05477e-24)
(1.01242 0.00343812 0)
(1.03007 0.0125839 3.75077e-21)
(1.01302 0.000544089 -1.69514e-22)
(1.02312 0.0419915 -6.4327e-22)
(1.04612 0.0410413 1.77159e-21)
(0.853277 0.0581035 -3.24408e-21)
(1.02953 0.0218355 0)
(1.04919 0.0169009 -5.49098e-21)
(1.00118 -3.33814e-05 1.50646e-22)
(0.40101 0.010463 -1.15855e-20)
(1.02174 0.0563257 -7.76002e-22)
(1.01832 0.000737939 0)
(1.01674 -0.000437185 1.44354e-22)
(0.92596 0.0316777 1.60456e-21)
(1.04506 0.0502243 0)
(1.02342 0.00307909 1.62467e-22)
(0.680756 0.0487269 -3.7155e-21)
(1.05415 0.0342679 -5.18914e-23)
(1.00908 0.00190069 0)
(0.921293 0.128801 -1.13265e-21)
(1.03491 0.0215355 -9.08345e-24)
(1.01095 0.000535606 0)
(1.01314 -0.0185061 1.80611e-22)
(0.376721 0.0170105 4.10191e-21)
(1.05114 0.0379068 1.15705e-21)
(1.00921 0.0019779 0)
(1.00129 0.0597053 -6.04585e-21)
(1.02116 0.00467688 -2.24682e-21)
(1.02083 0.00456379 -2.14827e-21)
(1.01757 0.0460001 6.65608e-23)
(0.998366 0.0423717 1.60111e-23)
(1.01225 0.000753888 0)
(1.04939 0.0165505 5.444e-21)
(1.05813 0.0346697 4.84956e-21)
(1.04513 0.0125328 -1.98813e-21)
(1.02749 0.022665 1.18081e-21)
(1.02125 0.00483731 3.20739e-21)
(1.00457 0.000174624 5.06039e-22)
(1.02804 0.0181541 -1.16473e-21)
(1.02746 0.0451023 0)
(1.02297 0.0224264 0)
(1.02291 0.0122267 1.22371e-21)
(1.03455 0.00392082 1.75065e-21)
(0.99741 0.0200065 0)
(1.088 0.0520436 0)
(1.00838 0.00142405 0)
(0.994152 0.0516293 0)
(1.00882 0.000154526 5.12335e-23)
(0.973442 0.0094927 -1.76294e-21)
(0.999373 0.0184762 0)
(1.02268 0.0226622 0)
(1.01163 -0.0203137 -1.88542e-22)
(0.756227 0.0592721 2.02255e-21)
(1.08938 0.062708 0)
(0.690081 0.0480439 -1.0064e-23)
(1.00883 0.000283099 0)
(1.07704 0.0284842 0)
(0.802319 0.0567132 3.31528e-21)
(1.02509 0.00229804 8.7598e-22)
(1.0306 0.0218808 0)
(1.04239 0.0426398 0)
(1.04216 0.0429618 -2.78201e-21)
(1.09247 0.0631808 1.2004e-20)
(1.00817 -6.8847e-05 0)
(1.01917 0.000489449 0)
(1.0118 3.2148e-05 0)
(1.03965 0.0044268 -1.19301e-21)
(1.04643 0.0775938 4.29122e-21)
(0.500317 0.0264734 2.20399e-21)
(1.02445 0.0139289 -1.47427e-21)
(0.992881 0.0649715 -2.65783e-21)
(1.00833 0.00137361 4.65355e-22)
(0.360742 0.0137769 9.92362e-21)
(1.0728 0.0573306 1.75482e-21)
(1.01217 0.000135189 -1.83653e-22)
(1.02179 0.0121576 0)
(0.727963 0.0492735 0)
(0.469462 0.0403184 0)
(1.07694 0.0276768 0)
(1.05582 0.0232208 1.01604e-21)
(1.01737 0.00408206 3.27873e-22)
(1.02065 0.0132975 0)
(1.0412 0.0194074 0)
(0.412716 0.0125137 1.67832e-20)
(1.0799 0.0290357 2.35516e-20)
(1.01903 0.0117104 0)
(1.0082 -0.000477946 -8.88268e-24)
(0.51668 0.0331203 0)
(0.953704 -0.0607188 0)
(1.01384 -0.000626105 0)
(1.00849 -4.71621e-05 -2.95377e-22)
(0.922283 0.0955707 0)
(1.04948 0.0323712 6.88127e-21)
(1.00864 -3.88056e-05 2.75334e-22)
(1.01232 0.000175961 -2.5297e-22)
(1.06119 0.0502385 -4.60337e-21)
(1.01316 -8.45994e-05 0)
(1.08261 0.06286 -4.08408e-23)
(1.06278 0.0548634 -5.06425e-21)
(1.0091 0.000112847 1.87061e-22)
(1.02227 0.00237014 2.74282e-22)
(1.00896 0.000108422 -1.90605e-22)
(1.04514 0.0117645 -4.05018e-21)
(1.00559 3.09066e-05 -1.96057e-22)
(1.06345 0.0570975 5.34941e-21)
(1.01322 -0.000167963 0)
(1.0137 -0.00052584 -1.7206e-22)
(1.02076 0.00439511 2.14693e-21)
(1.01137 0.0236264 0)
(0.514577 0.0255829 -4.94849e-21)
(1.04769 0.0272796 0)
(1.00048 -1.04265e-05 0)
(0.918807 0.0357504 -1.35832e-21)
(1.09141 0.0585429 1.76777e-20)
(1.01643 0.0454233 -1.53947e-22)
(1.01243 0.000177514 0)
(1.01756 0.000111648 0)
(0.99053 0.0864273 0)
(1.04951 0.00764982 0)
(0.499658 0.0283429 -6.83725e-23)
(1.00827 0.00103084 -5.43494e-24)
(1.02195 0.00316136 0)
(0.696572 0.0978231 0)
(1.04386 0.0421536 -6.55364e-23)
(1.03408 0.0160032 5.9735e-23)
(1.01231 0.000122382 0)
(1.00817 0.000996684 -3.59043e-25)
(1.01251 0.000122396 -6.1557e-23)
(0.36376 0.0149075 -1.34715e-20)
(1.01438 0.00492731 4.99159e-22)
(1.01241 9.11602e-05 -2.35479e-22)
(1.01284 0.00310579 8.38573e-22)
(1.03319 0.0272072 -1.9213e-21)
(0.727295 0.0508178 -4.50173e-21)
(1.02167 0.0162635 -6.32174e-22)
(0.402989 0.00772872 0)
(1.01077 -0.0345539 -1.50795e-21)
(1.00477 -7.83352e-05 -1.05651e-22)
(1.04356 0.0316478 -3.70714e-21)
(1.0321 0.0753866 -2.40882e-22)
(1.04541 0.0129785 -2.0289e-21)
(1.02128 0.0159807 0)
(1.04755 0.0416898 -3.86102e-21)
(1.03722 0.0516406 0)
(1.04996 0.0432857 1.43478e-21)
(1.0092 2.12934e-05 -1.01196e-22)
(1.01419 0.00477744 9.29552e-22)
(1.02165 0.0188067 1.46859e-21)
(1.06251 0.0452862 1.93173e-21)
(1.03398 0.0935126 -1.44384e-22)
(1.0122 0.00104061 -7.96894e-23)
(1.01251 0.000112432 0)
(1.0479 0.0124357 0)
(1.04102 -0.0265481 0)
(0.928784 0.0295241 2.28103e-22)
(1.06221 0.0667138 -1.29126e-22)
(1.04749 0.0269232 0)
(1.00812 -7.97914e-05 1.74826e-22)
(1.0254 0.00227986 1.99381e-21)
(1.0123 0.000981538 1.70307e-23)
(1.00805 -7.34838e-05 0)
(0.490398 0.0273696 -1.15135e-21)
(0.998397 0.0206991 -1.07058e-21)
(1.02289 0.0429835 0)
(1.03394 0.0290469 -1.41135e-21)
(1.02368 0.0225279 2.53945e-21)
(1.02037 0.0217517 6.57212e-23)
(0.379421 0.0180867 0)
(1.01525 -0.00168968 1.59737e-22)
(1.01789 0.114991 -1.1484e-21)
(1.01552 -0.00170145 -1.50169e-22)
(1.01248 0.00954654 0)
(1.01192 0.000477099 -7.78943e-23)
(1.0012 -8.72178e-06 2.52919e-23)
(1.00889 0.000144927 -4.9102e-23)
(1.00866 -0.000103925 0)
(1.01189 0.000796661 -4.15176e-24)
(1.01238 0.000145776 0)
(1.00916 0.00190207 0)
(1.02262 0.019116 8.40805e-22)
(1.0305 0.000973893 0)
(1.01536 0.00627037 9.65475e-25)
(0.731044 0.0720471 2.07178e-21)
(1.02599 0.0128572 -1.72541e-21)
(1.02841 0.018207 2.49565e-21)
(1.01426 0.00314705 -1.41706e-21)
(1.00241 -3.85783e-05 6.54146e-23)
(1.0229 0.0198364 -4.9132e-22)
(1.02308 0.00323087 -1.67976e-22)
(1.03416 0.028808 4.74546e-21)
(1.08116 0.0523482 0)
(1.0242 0.0136229 1.94863e-21)
(0.996506 0.0220256 -8.16321e-22)
(1.01255 0.000207285 3.82478e-22)
(1.01495 0.0059102 0)
(1.00907 -0.0335192 0)
(1.00843 0.00149975 1.24056e-22)
(1.01265 0.000227693 0)
(1.06264 0.0557541 -8.8124e-21)
(1.01206 0.011851 0)
(1.02621 0.0464994 -7.99545e-22)
(1.00902 0.00182834 -1.29767e-22)
(1.09155 0.0619367 -1.04868e-20)
(1.01978 0.0151158 -3.06984e-23)
(0.536686 0.0295512 5.29757e-21)
(1.03012 0.000861459 0)
(1.04175 0.0148632 0)
(0.979028 0.157625 0)
(1.04123 -0.00337918 0)
(1.01188 0.000445375 0)
(1.05847 0.0105726 -7.2965e-23)
(0.920578 0.0321161 0)
(1.02414 0.0598636 -6.89301e-21)
(1.01257 0.00297374 -7.74613e-22)
(1.03179 0.031071 0)
(1.00084 -3.04647e-05 -2.19897e-22)
(0.346254 0.0156936 -5.44271e-21)
(1.04513 0.0366128 1.76684e-21)
(1.01436 0.00356293 0)
(1.08667 0.058191 -1.0269e-20)
(1.03989 0.00540826 -8.93291e-21)
(1.0142 0.00303825 1.27806e-21)
(1.03246 0.0597345 6.75098e-21)
(0.769664 -0.101624 0)
(1.00885 0.000210799 2.12553e-22)
(1.03023 0.0129412 -2.64069e-21)
(1.00901 0.00180738 2.20592e-22)
(1.0078 -0.000104384 0)
(0.478912 0.0314683 -7.28107e-21)
(1.02041 0.0636055 0)
(1.00619 -3.62087e-05 0)
(1.04691 0.0980139 7.63065e-21)
(1.04412 -0.00627542 0)
(1.01007 -0.000173068 2.57754e-22)
(1.00904 9.95716e-05 0)
(1.00607 -3.28671e-05 0)
(1.01823 0.00359809 0)
(0.6596 0.0459176 7.85158e-21)
(0.718486 0.121959 3.69528e-21)
(0.742387 -0.108156 -5.92418e-22)
(1.01271 0.0001768 0)
(0.543383 0.0312143 1.29597e-21)
(1.02335 0.00326237 -1.59569e-21)
(1.00175 -4.23548e-05 0)
(1.03374 0.0307323 1.26183e-23)
(1.01273 0.00311524 -1.3851e-23)
(1.04633 0.0462657 -4.13576e-21)
(1.01491 -0.0436038 -1.67284e-21)
(0.870798 0.0312108 -6.99828e-22)
(1.01664 -0.000809237 -3.04624e-22)
(1.08692 0.0583564 8.96286e-21)
(1.00601 -3.41271e-05 4.16154e-23)
(1.08496 0.049497 0)
(0.973076 -0.00173285 0)
(1.00269 0.021387 0)
(1.04174 0.00414499 1.3726e-21)
(1.02892 -0.033935 0)
(1.08213 0.0510927 -9.18489e-21)
(1.01423 0.00355601 -7.84191e-22)
(1.02842 0.0450532 -6.60626e-22)
(1.01931 0.000642346 3.06141e-21)
(1.02059 0.0222161 -4.04186e-22)
(1.05829 0.01436 0)
(1.00983 0.0124669 0)
(1.03998 0.00510838 2.8032e-21)
(1.04362 0.042562 8.74423e-25)
(1.04812 0.0503385 -8.44486e-22)
(0.357062 0.0141048 5.48991e-21)
(1.0059 -3.17107e-05 4.05185e-23)
(1.02341 0.0155037 0)
(1.01179 0.00297493 -6.37138e-22)
(1.06171 0.038139 -1.99389e-21)
(0.671064 0.0457143 -8.03282e-21)
(1.02202 -0.0452268 8.5678e-22)
(0.686661 0.049816 0)
(1.00292 0.0253597 -8.30342e-22)
(1.02603 0.0233177 0)
(1.02682 0.0189391 -1.95456e-21)
(1.0206 0.0109923 -1.89735e-22)
(1.05929 0.05204 -4.549e-21)
(0.673678 0.0481948 0)
(1.00316 0.0271653 -6.51849e-22)
(1.01726 0.00285204 0)
(1.01599 0.00562006 -8.79504e-23)
(1.05858 0.0520882 0)
(1.04544 0.0364197 9.08362e-22)
(1.00105 0.0227167 0)
(1.02344 0.0228157 0)
(1.0398 0.0433141 0)
(1.0587 0.0439011 8.37665e-22)
(0.852571 0.0562334 -1.79162e-20)
(1.01215 0.00311382 -1.8369e-21)
(1.00754 3.26975e-05 2.95829e-22)
(0.527092 0.0341363 8.25614e-21)
(1.03106 0.0125593 0)
(1.0078 0.00108152 -4.07903e-22)
(1.00562 2.64839e-05 0)
(1.00789 5.51577e-05 6.69798e-23)
(1.02678 0.0192415 0)
(0.300846 0.011009 0)
(0.714383 0.0743375 1.25598e-20)
(0.81839 -0.0100126 -5.87764e-22)
(0.82279 0.0751214 0)
(1.02227 0.00510052 -5.85347e-22)
(1.03694 0.020316 -3.12465e-21)
(0.973947 -0.0493742 -4.07129e-22)
(1.04938 0.0149192 7.98802e-21)
(1.04903 0.0242857 -6.29279e-21)
(1.0427 0.038204 2.70544e-21)
(0.9704 -0.0444616 4.44852e-23)
(1.00971 0.00230189 -3.0146e-22)
(1.02158 0.00496778 -2.27409e-21)
(1.01432 -0.000713885 0)
(1.01145 0.000339151 -9.38701e-23)
(0.992164 0.0537009 9.08286e-22)
(0.349105 0.0129883 0)
(1.01126 0.000254499 -1.2439e-22)
(1.04399 0.0315707 1.35119e-21)
(1.02146 0.0430251 0)
(1.00906 0.0134013 -8.67992e-22)
(1.01165 0.00285022 3.52561e-22)
(1.00905 -9.17597e-05 0)
(1.09136 0.0612575 -5.35122e-21)
(1.00579 -3.88169e-05 0)
(0.999994 0.0956759 9.21305e-22)
(1.01738 0.0520571 7.76487e-22)
(1.06223 0.0383228 1.66287e-21)
(1.01802 0.0117365 0)
(1.00926 3.84958e-05 0)
(1.0707 0.0626739 0)
(1.03307 0.0276108 -9.91923e-22)
(1.01883 0.0154086 -1.24519e-22)
(1.01503 0.00600578 0)
(1.01219 0.000937916 0)
(1.05472 0.0335154 0)
(1.04827 0.0433427 0)
(1.0548 0.0340128 4.67358e-21)
(1.04229 0.0181203 0)
(1.02361 0.0115806 3.48694e-23)
(1.00623 0.0214498 8.28536e-22)
(1.06135 0.0672665 -6.83769e-21)
(1.07957 0.029605 -9.33687e-23)
(1.0451 0.0133176 2.0831e-21)
(1.03639 0.0447678 9.81132e-22)
(1.02803 0.0224084 -1.20604e-21)
(1.05437 0.0603861 6.56597e-21)
(1.04837 0.049988 7.11812e-22)
(0.995664 0.0875324 0)
(1.00081 3.8716e-08 3.02558e-23)
(0.561711 0.0365127 0)
(1.03326 0.0912947 0)
(0.930188 -0.0387606 0)
(1.0451 0.0476732 1.86224e-21)
(1.03691 0.0383613 -1.81211e-21)
(0.356913 0.0177295 0)
(1.0018 -1.84529e-05 -6.99883e-23)
(1.03007 0.0219163 6.3169e-22)
(1.0325 0.016128 0)
(1.04038 0.0418491 1.94984e-21)
(1.00949 0.00217266 -9.09819e-23)
(1.05425 0.0414117 -3.18794e-23)
(1.02093 0.116484 -4.19291e-22)
(1.01802 0.0116031 6.45296e-22)
(1.02827 0.0191497 2.44313e-21)
(0.289093 0.0089657 6.89347e-23)
(0.699894 0.097974 0)
(1.04459 0.0418295 0)
(1.03699 0.0379742 0)
(0.279455 0.00767045 5.68659e-21)
(1.01805 0.00506175 0)
(1.04913 0.0407463 2.11491e-21)
(0.867205 0.0550353 1.76818e-20)
(1.02046 0.0131111 3.59089e-22)
(1.02625 0.0583182 0)
(1.00939 -2.02522e-06 5.2691e-27)
(1.03473 0.0141501 2.51294e-21)
(1.00954 4.27263e-06 0)
(1.05763 0.0642699 0)
(1.01847 0.015064 -8.14056e-23)
(1.03794 0.0411801 0)
(1.00799 0.0187647 0)
(1.02216 -0.00102807 -1.55845e-22)
(1.08287 0.0632162 -9.26325e-21)
(1.04744 0.0254026 1.36387e-21)
(1.00655 0.0161038 0)
(1.03886 0.0448892 -5.49196e-22)
(1.01559 0.00592512 -1.00352e-22)
(1.0427 0.00444237 6.53379e-21)
(1.00593 5.12068e-05 -3.81362e-25)
(0.994315 0.0927838 1.02378e-21)
(1.02355 0.011355 0)
(1.04939 0.0495251 3.23056e-21)
(1.03357 0.0186761 -2.13764e-21)
(1.0101 0.00045421 9.88661e-22)
(1.00938 0.00209955 7.99057e-23)
(1.04138 0.0188828 5.78483e-23)
(0.691189 0.0560611 -7.04377e-21)
(1.01034 0.0026136 -8.31081e-23)
(1.00585 6.80086e-05 1.71553e-22)
(1.00571 0.000107417 -2.25229e-22)
(1.02841 0.0225482 -3.38245e-21)
(0.604863 0.0777078 0)
(1.04912 0.0499847 -3.59527e-21)
(1.08588 0.060278 2.91363e-21)
(1.00927 0.00203945 0)
(1.00259 3.22987e-05 -5.05523e-23)
(1.08199 0.0702742 0)
(1.01188 0.00297253 0)
(1.01228 0.000878943 5.89796e-23)
(1.00567 -0.0379021 3.80552e-21)
(1.00896 0.000161118 -5.45058e-23)
(0.451503 0.0290865 0)
(1.0578 0.0633552 4.69198e-21)
(0.993511 -0.0369723 3.19045e-21)
(1.01344 0.00105905 0)
(1.00862 0.00156032 0)
(1.0099 0.0018491 -5.0423e-22)
(1.01791 0.00496231 3.26904e-21)
(1.01554 0.0058542 7.07769e-23)
(0.86398 0.0930894 0)
(0.854984 0.0616866 6.52915e-22)
(1.05 0.0166669 0)
(1.02142 0.0161667 6.54627e-22)
(1.00622 -3.02412e-05 -4.28361e-23)
(0.694981 0.0500579 1.22467e-20)
(1.04763 0.0257856 1.75892e-21)
(1.02933 0.00781288 0)
(1.00875 0.00162808 0)
(0.977434 0.0396128 0)
(1.01346 0.0113687 2.44838e-22)
(1.04536 0.0137583 -2.24502e-21)
(1.06444 0.068732 2.0069e-21)
(0.436342 0.00446701 -6.91493e-21)
(1.09129 0.0609023 0)
(1.06152 0.0203163 0)
(0.844442 0.0774213 0)
(1.00892 0.000310089 -1.12281e-23)
(1.01755 0.049883 0)
(1.06177 0.0113051 2.06128e-21)
(1.00904 0.000180004 5.24971e-23)
(1.0335 0.0182961 1.7321e-23)
(1.03491 0.0760552 2.94355e-22)
(1.00626 -3.51151e-05 -4.15336e-23)
(1.01489 -0.00132217 0)
(1.00584 -3.23746e-05 0)
(0.724838 0.0989952 -1.86934e-21)
(0.869494 0.0418405 1.36359e-22)
(0.863636 -0.00465901 6.44395e-22)
(1.00164 -2.95314e-05 5.72811e-23)
(1.02197 0.0117059 -2.10642e-21)
(1.01748 0.00952976 8.70117e-22)
(1.03461 0.0138571 4.63143e-21)
(1.02045 0.00428923 0)
(1.00074 0.0249594 1.12621e-21)
(1.01575 0.0056478 -2.01288e-24)
(1.00682 0.000402568 0)
(1.00588 -4.8627e-05 0)
(1.00935 3.00412e-05 0)
(1.05956 0.0467867 0)
(0.504726 0.0382359 0)
(1.02112 0.0440128 5.0646e-22)
(1.01546 0.0199628 1.24706e-22)
(1.01849 -0.00266557 -2.48632e-24)
(1.04919 0.0230668 -6.18888e-21)
(1.00258 -3.82199e-05 0)
(1.01246 0.00298245 0)
(1.02439 0.022552 0)
(1.0861 0.0602956 8.56455e-21)
(1.04125 0.0154195 1.78526e-21)
(1.08554 0.0608328 -1.44156e-20)
(1.05055 0.0315337 0)
(1.07126 0.0982931 -1.11611e-20)
(1.02894 0.00770891 0)
(0.659017 0.0516419 -1.42826e-20)
(1.04582 0.044923 0)
(1.01317 -0.000935017 1.04875e-23)
(1.00809 0.000962831 -1.16782e-23)
(0.309558 0.0125527 5.6122e-21)
(1.01445 0.00280168 -3.01262e-22)
(1.01307 0.00219611 -1.0956e-22)
(0.529936 0.0349422 0)
(1.01173 6.74798e-05 -2.94704e-22)
(1.07801 0.0429219 0)
(1.00812 0.000949569 2.17846e-23)
(1.07568 0.081689 0)
(1.02719 0.0132408 -1.0116e-21)
(1.01385 0.00118158 -2.14914e-24)
(1.03878 0.063485 0)
(1.03485 0.0175176 6.35703e-22)
(1.00031 0.0229321 1.1416e-21)
(1.0144 0.00266923 2.74546e-22)
(1.01589 0.00565192 7.53923e-23)
(1.01088 0.000241374 -5.59468e-23)
(1.01859 0.000841565 0)
(1.06806 0.0168759 -2.47432e-23)
(1.02088 0.000396931 2.65384e-21)
(1.02787 0.0227624 -1.28444e-21)
(1.02269 0.00501209 1.36362e-21)
(0.523264 -0.0257729 3.85113e-21)
(0.690824 0.120588 2.70974e-21)
(0.717453 0.11156 -3.20172e-21)
(1.06841 0.0163953 7.23413e-21)
(1.02268 0.0145101 0)
(0.414484 0.00967479 1.14687e-20)
(1.01314 0.00213762 0)
(1.04064 0.00472196 0)
(1.00891 -9.40578e-05 -9.65133e-23)
(1.02037 0.00412082 -1.03755e-21)
(1.01468 -0.00130713 -1.96135e-22)
(1.01947 0.0440489 0)
(0.817695 0.0543581 0)
(1.00588 -3.60159e-05 -4.13503e-23)
(1.00581 -3.55537e-05 4.07231e-23)
(0.703196 0.0479768 6.31318e-21)
(1.01746 0.00939493 0)
(1.01302 0.00211971 0)
(1.06563 0.061466 -1.53427e-20)
(1.03713 0.0420154 0)
(1.0864 0.0583497 -1.51831e-20)
(0.399984 0.0172871 0)
(1.05427 0.0646453 -2.07129e-21)
(0.681486 0.123237 0)
(0.540327 0.0389998 -9.28393e-21)
(1.02686 0.0129924 0)
(0.544348 0.0302717 -1.00126e-20)
(1.02246 0.0142398 1.78223e-23)
(1.02445 0.0586804 1.02209e-21)
(1.01779 0.0128768 0)
(1.01238 0.00312637 7.53243e-22)
(1.02106 0.0158606 0)
(0.866719 0.0358453 3.96221e-21)
(1.02719 0.018979 0)
(1.0125 0.00313351 0)
(0.46252 0.0312334 2.06805e-21)
(1.05001 0.0150124 -5.24991e-21)
(1.04284 0.0336303 8.00239e-21)
(0.391335 0.0141086 5.22788e-21)
(0.862252 -0.00195625 1.89807e-21)
(1.01397 0.00129709 -1.71511e-22)
(1.0143 -0.0356234 -6.58088e-22)
(0.851344 -0.0104732 -3.23567e-22)
(1.02845 0.0178837 -3.65285e-21)
(1.01055 0.015688 -7.00546e-22)
(1.01062 0.00281125 1.7678e-22)
(1.02474 0.043721 3.84545e-22)
(0.912703 0.0192829 -4.40133e-22)
(1.0016 -2.57327e-05 0)
(1.00983 0.00184851 5.27019e-22)
(1.02352 0.0347424 -1.58227e-22)
(1.00799 -8.02168e-05 -1.75326e-22)
(1.01014 0.0681393 5.06927e-22)
(1.05186 0.0486099 -1.30085e-21)
(0.703423 -0.110442 0)
(1.02309 0.0119833 -1.50741e-21)
(0.677642 -0.119239 5.82973e-22)
(1.07329 0.0568223 0)
(1.00233 -7.04487e-06 0)
(1.0143 0.0028469 0)
(1.01049 0.00273563 -2.56471e-22)
(1.00956 0.00159364 5.22003e-22)
(1.02172 0.0114738 1.05864e-21)
(1.04198 0.0465999 3.25149e-21)
(0.985519 0.140228 -1.79114e-21)
(1.03375 0.0178311 0)
(1.00221 -2.14777e-05 -3.22967e-23)
(1.03936 0.0452172 0)
(1.04774 0.024609 -2.74015e-21)
(1.01915 0.0150138 2.56415e-23)
(1.01876 0.000364619 0)
(1.01726 0.00987137 2.07706e-22)
(1.02147 0.0366195 3.33983e-22)
(1.00949 0.00152777 -4.79245e-22)
(1.04791 0.025069 2.8898e-21)
(1.0092 0.0014012 -5.16779e-24)
(1.02106 0.000281566 -3.66629e-22)
(1.08614 0.0581855 1.45801e-20)
(1.00242 4.63954e-05 0)
(1.0146 -0.000591142 -2.8918e-25)
(1.02258 0.00513453 0)
(1.04454 0.0474208 -5.50728e-21)
(1.04443 0.0467241 1.87977e-21)
(1.01033 -0.000693992 -1.14077e-23)
(1.0086 0.00153344 4.47403e-23)
(1.03854 0.0448742 5.74583e-21)
(1.00435 0.000221973 -1.41239e-22)
(0.39989 0.0153749 1.36306e-21)
(1.04246 0.0332265 -2.68245e-21)
(1.06061 0.0424597 1.00093e-21)
(1.01027 -0.000146758 -5.41624e-23)
(1.07655 0.0260784 -2.09649e-21)
(1.03528 0.0214904 -3.05988e-21)
(1.01435 0.00298301 0)
(0.981175 0.0650632 -8.6067e-21)
(1.02414 0.0228476 -1.41283e-21)
(1.02827 0.00484278 0)
(1.07398 0.0965722 1.29608e-20)
(1.01977 0.00194919 -7.33273e-23)
(1.00662 -0.000265646 0)
(1.01911 0.0105621 -7.58221e-22)
(1.0431 0.0424287 2.93306e-21)
(1.00646 -0.000234407 0)
(1.08564 0.0600157 7.51299e-21)
(0.971924 0.0442077 -1.82487e-22)
(1.03387 0.0282012 9.32219e-23)
(1.01912 0.0449 0)
(0.451703 0.0381632 -8.64852e-21)
(1.06122 0.0423023 3.1236e-21)
(1.01114 4.89528e-05 -1.15132e-22)
(1.02334 0.0120228 -1.04896e-21)
(1.04113 0.0286104 0)
(0.534153 0.138653 3.39289e-21)
(1.01286 0.00376036 -1.18822e-24)
(1.00059 -2.17234e-05 -2.3325e-23)
(1.04108 0.0156352 2.07315e-21)
(1.06344 0.0563255 4.6897e-21)
(1.04107 0.0283057 0)
(1.07741 0.0427041 0)
(1.08733 0.0625636 0)
(1.02745 0.0131906 6.11241e-21)
(1.08623 0.0610204 0)
(0.706399 0.0509279 -1.25699e-20)
(0.59136 0.0757205 0)
(1.08781 0.0501574 5.63078e-21)
(0.923767 0.0535178 0)
(1.01973 0.00350516 0)
(1.01088 0.00205459 2.89312e-22)
(1.04479 0.0519225 0)
(1.02878 0.0175052 1.2913e-21)
(0.974933 0.107366 -5.96746e-22)
(1.0308 0.0195186 -1.61147e-21)
(0.998804 0.0658087 1.62196e-20)
(1.02559 0.0443834 0)
(1.01321 0.00221778 -5.90162e-24)
(1.01027 0.00213164 0)
(1.044 -0.0135553 9.12814e-23)
(0.963852 0.114126 0)
(1.00388 0.000196856 -3.75284e-22)
(1.02304 0.015067 -1.32126e-21)
(1.02101 0.000221359 0)
(1.01182 6.31153e-05 -1.79133e-22)
(1.01298 0.00189696 0)
(0.870141 0.0878604 -2.98077e-22)
(1.00811 0.000439379 5.81233e-22)
(1.00894 0.000232617 5.21164e-23)
(0.751657 0.0505579 0)
(1.00938 0.00146472 5.78799e-23)
(1.08658 0.0618625 0)
(1.01868 0.00369566 1.95067e-22)
(1.04388 0.0465256 0)
(1.06769 0.0458055 2.45293e-21)
(1.00338 9.16657e-05 -1.58102e-22)
(1.00933 0.00147477 0)
(0.566615 0.0338476 1.05647e-20)
(0.80789 0.0571391 7.65975e-21)
(1.03414 0.0279391 0)
(1.04595 0.042516 0)
(1.04284 0.0359679 -5.20637e-21)
(1.01021 0.00214056 0)
(1.01461 -0.000555696 0)
(1.0417 0.0428084 -4.46461e-21)
(0.959364 0.106499 5.27794e-21)
(1.0127 0.00357956 -1.91297e-25)
(1.02118 0.0160514 0)
(0.970315 0.014247 -1.99066e-21)
(1.03178 0.0142924 1.27403e-22)
(1.01961 0.00191601 0)
(1.07529 0.0690518 0)
(1.05346 0.064918 2.71206e-21)
(1.06971 0.0628981 0)
(1.01314 0.00191935 -6.11494e-23)
(1.04233 0.0377634 -2.55577e-21)
(1.08311 0.0510704 -7.22013e-21)
(0.39727 0.0213609 5.16326e-23)
(1.00134 6.73465e-06 -2.13852e-23)
(1.002 -2.02857e-05 0)
(1.04206 0.0145799 0)
(1.00029 -3.33553e-06 1.28707e-22)
(1.01732 -0.00240938 0)
(1.02805 0.00464244 0)
(1.00819 0.0666012 -6.04166e-22)
(1.01447 -0.000658972 0)
(1.04935 0.015779 0)
(1.03765 -0.0428808 9.82304e-22)
(1.03142 0.00973791 8.40541e-22)
(0.529969 0.0285253 -1.01681e-20)
(1.00883 0.001557 -9.80859e-23)
(1.01057 0.0936246 0)
(1.00584 7.20711e-05 0)
(0.523715 0.0267106 5.59614e-21)
(0.98054 0.0235511 0)
(1.08048 0.0698911 0)
(1.01689 -0.00252872 1.80637e-22)
(0.995623 0.104173 0)
(1.03109 0.028893 0)
(1.00216 2.37675e-05 1.45637e-21)
(1.06318 0.0451545 -1.85012e-21)
(1.0788 0.0259622 8.3083e-21)
(1.03686 0.0427484 -3.72063e-22)
(1.00767 0.000805283 -5.41575e-24)
(1.00897 0.00159392 3.25718e-23)
(1.08595 0.0601717 -8.91341e-21)
(1.05001 0.0159032 0)
(0.909327 0.13336 7.9101e-22)
(1.06225 0.0392641 -1.60203e-21)
(0.86131 -0.00430916 2.19691e-22)
(1.01315 7.29298e-05 -1.23546e-22)
(1.06262 0.0405694 1.03452e-20)
(1.00864 -8.13511e-05 8.58258e-23)