/*--------------------------------*- C++ -*----------------------------------*\
| =========                 |                                                 |
| \\      /  F ield         | OpenFOAM: The Open Source CFD Toolbox           |
|  \\    /   O peration     | Version:  v2012                                 |
|   \\  /    A nd           | Website:  www.openfoam.com                      |
|    \\/     M anipulation  |                                                 |
\*---------------------------------------------------------------------------*/
FoamFile
{
    version     2.0;
    format      ascii;
    class       volScalarField;
    location    "300";
    object      k_0;
}
// * * * * * * * * * * * * * * * * * * * * * * * * * * * * * * * * * * * * * //

dimensions      [0 2 -2 0 0 0 0];


internalField   nonuniform List<scalar> 
37190
(
0.000148041
0.0626588
0.000146665
0.000168089
0.040469
0.000146876
0.000175285
0.000150837
0.000167691
0.000213949
0.000147939
0.000144493
0.000154938
0.000146149
0.0543105
0.00014813
0.000151307
0.000182645
0.0592341
0.000141677
0.000151966
0.000148043
0.0789868
0.00015412
0.000152067
0.00014815
0.000173892
0.000178233
0.000258149
0.0477413
0.0745735
0.000146541
0.000188075
0.000216797
0.000192068
0.000178164
0.000144704
0.000154087
0.000152549
0.000147731
0.000210827
0.036535
0.000151743
0.00019142
0.000148221
0.000203627
0.0358528
0.000239255
0.000146648
0.0421512
0.000149524
0.000148056
0.000163806
0.000161461
0.000148875
0.000149756
0.000212815
0.000144725
0.0372664
0.000144929
0.0357925
0.000178174
0.000143466
0.0692805
0.000151693
0.000151914
0.000146205
0.000195428
0.000170448
0.000143486
0.000148935
0.000148758
0.000158169
0.000147141
0.000148128
0.000148521
0.0732826
0.000168301
0.0460002
0.000158322
0.000148386
0.000157926
0.000147101
0.000180461
0.000898157
0.000151235
0.0530366
0.0455768
0.0550262
0.000146552
0.0712326
0.000190031
0.000151951
0.000147128
0.000147684
0.000152129
0.0440585
0.00014732
0.000167518
0.0873296
0.000151815
0.000180596
0.0751575
0.0856324
0.000148371
0.000149229
0.0608628
0.000148695
0.000146205
0.0650717
0.0719009
0.0581992
0.000153209
0.000145333
0.00014875
0.000148075
0.000168567
0.000152577
0.000147743
0.000150889
0.000147999
0.033409
0.00014816
0.000148734
0.000147837
0.05127
0.000145341
0.000147767
9.99819e-05
0.000168788
0.000147739
0.0625033
0.000156633
0.000152255
0.072902
0.000147218
0.000167337
0.000195834
0.000202067
0.000150526
0.000158737
0.000178577
0.000167324
0.000152238
0.000147681
0.0001485
0.0794724
0.000151099
0.000196517
0.000145632
0.000147596
0.000159278
0.000206731
0.000148043
0.0357806
0.000145438
0.0467372
0.000147934
0.0625758
0.00016717
0.000173942
0.000148357
0.0349667
0.0503887
0.000159196
0.000150722
0.0538117
0.000193043
0.0495062
0.000209551
0.0001472
0.0515071
0.000148372
0.000154427
0.0346065
0.000193876
0.000147929
0.000151588
0.000172629
0.000154973
0.000190667
0.000148463
0.000148425
0.000147161
0.0711489
0.000149013
0.000187786
0.000163348
0.0824424
0.000213538
0.000148736
0.000182113
0.000145662
0.000151309
0.000228268
0.000157047
0.000147664
0.000174559
0.0880319
0.0608752
0.00020247
0.000146579
0.000147613
0.000149067
0.048562
0.000167161
0.000174804
0.000149426
0.000147971
0.0524067
0.000147945
0.0484815
0.000146584
0.000163837
0.0643811
0.0863884
0.000196667
0.000194469
0.000216695
0.000148335
0.0373773
0.000144466
0.000148169
0.000165951
0.0676983
0.000148074
0.0443628
0.000147641
0.00016371
0.0211497
0.000151604
0.000148187
0.000144927
0.0528293
0.000161523
0.000187457
0.000184649
0.030645
0.000143546
0.000148738
0.000171915
0.000149019
0.0477321
0.000148059
0.000147891
0.00477929
0.000147419
0.0404432
0.000188732
0.000186868
0.00014766
0.000179867
0.000148183
0.000157663
0.000156518
0.000148227
0.000181931
0.000148883
0.000166885
0.000147403
0.041936
0.000159861
0.000145569
0.073013
0.000152048
0.000146155
0.000148881
0.000151657
0.0687193
0.000144806
0.071678
0.0678228
0.000216702
0.00016133
0.0176753
0.000146991
0.000146843
0.0417582
0.000164924
0.000158782
0.000262345
0.000148751
0.000189491
0.000210747
0.00015186
0.000157654
0.000148697
0.000148731
0.000174252
0.000148249
0.000149219
0.000192182
0.000165608
0.000172374
0.0173736
0.000148073
0.000147604
0.0703929
0.000170011
0.000144812
0.0444328
0.00011822
0.000151514
0.000204368
0.000147593
0.000145408
0.000146165
0.000148935
0.000257803
0.000154088
0.00014969
0.070761
0.000161396
0.000181098
0.0277478
0.0557333
0.000158077
5.97259e-05
0.00016564
0.000145405
0.000148068
0.000159609
0.000214852
0.000148109
0.083224
0.000205179
0.000179104
0.0880911
0.000147203
0.0889995
0.000163884
0.000169793
0.000147741
0.0156799
0.000206042
0.044815
8.62224e-05
0.000167483
0.000150855
0.0701903
0.000150317
0.000204224
0.00014873
0.000149679
0.0612279
0.000199455
0.000209583
0.000149695
0.000147382
0.000145402
0.000148706
0.0749665
0.000147305
0.000146866
0.000156999
0.00170629
0.000145995
0.0566289
0.000176523
0.000150625
0.000164582
0.0445522
0.000173325
0.0627166
0.000156379
0.000184988
0.000148211
0.000145686
0.00019048
0.000164267
0.000150223
0.000165352
0.000156273
0.000153283
0.000151159
0.000186816
0.000187568
0.000214596
0.000187422
0.0427709
0.0660383
0.000201501
0.0401903
0.000166366
0.000173703
0.0558062
0.000174614
0.000163127
0.000186798
0.000159725
0.000149168
0.000197995
0.000158578
0.000148764
0.00015201
0.000146083
0.000993404
0.000155136
0.00014981
0.0001939
0.000145698
0.0727036
0.000151962
0.000148026
0.000152036
0.00014723
0.000146947
0.0405875
0.000150765
0.000145719
0.000148379
0.000123363
0.0489711
0.000148559
0.000147684
0.000147818
0.000170279
0.000147868
0.000144897
0.000146925
0.0740536
0.000202301
0.0550753
0.000147608
0.000144892
0.000192531
0.0704937
0.000149841
0.000151254
0.000146944
0.000197092
0.000145827
0.000152024
0.00016928
0.000149083
0.0766811
0.000150751
0.000189973
0.000149104
0.000147845
0.000149818
0.000147133
0.0729275
0.000151415
0.000148139
0.0483616
0.0364868
0.000145693
0.082946
0.000148996
0.000168861
0.000204712
0.000148084
0.0424574
0.000147403
0.0793206
0.000145665
0.0001492
0.000156081
0.000145474
0.0666497
0.000166536
0.000145975
0.00893577
0.000195533
0.000147201
0.000207745
0.00136775
0.000148851
0.000147146
0.000169626
0.0713404
0.0871382
0.000208288
0.0127905
0.0837084
0.000164126
0.0742561
0.000149432
0.000146852
0.000145743
0.00014931
0.051927
0.00450843
0.000146732
0.000164918
0.00479219
0.000148175
0.0235317
0.000166078
0.000151883
0.000156748
0.000147824
0.000207474
0.000189503
0.000161491
0.00014811
0.00014682
0.000205286
0.0336882
0.000151895
0.000149366
0.000149441
0.04887
0.000168187
0.0400224
0.00243652
0.000106027
0.0712053
0.00014906
0.0492447
0.000149397
0.0666095
0.000146932
0.000185138
0.0870035
0.000166223
0.000146856
0.000145756
0.0511929
0.000155127
0.000188159
0.000207399
0.00298763
0.000147841
0.000158407
0.000164169
0.000151448
0.000186229
0.000149821
0.000169208
0.000145325
0.0178692
0.000147645
0.000148274
0.0854273
0.000146583
0.000148394
0.000147687
0.000152774
0.00014986
0.00014983
0.000167782
0.000152748
0.0373369
0.000148028
0.000154306
0.000173214
0.000161701
0.000146488
0.000147018
0.000154866
0.000158347
0.0413915
0.000190994
0.000147951
0.00015315
0.000238651
0.0609403
0.00014723
0.000144937
0.0217903
0.0544972
0.0748428
0.041663
0.000149021
0.000166663
0.000148087
0.0360871
0.00126575
0.000157446
0.000151797
0.000119533
0.000185093
0.000147244
0.000195907
0.0401652
0.0557157
0.000148032
0.00017363
0.000171625
0.000149082
0.000152628
0.000147952
0.0742636
0.0427617
0.000147061
0.0719756
0.0415738
0.000149568
0.00016541
0.000147612
0.000189569
0.000161815
0.000148194
0.000310091
0.0565469
0.000162747
0.000621602
0.000147612
0.000150057
0.000157225
0.00015646
0.000155431
0.00018237
0.000147327
0.00016979
0.00014911
0.0529175
0.000173281
0.000147137
0.000181975
0.000145104
0.0679365
0.0145241
0.000147586
0.0609777
0.000144979
0.000148356
0.000154644
0.000147555
0.000178704
0.000158438
0.000147126
0.000173014
0.000146959
0.000180819
0.0375079
0.000147384
0.000147686
0.0587167
0.000149727
0.000144982
0.000195229
0.00016195
0.000158196
0.000179734
0.000151491
0.000147123
0.000151644
0.00157098
0.0370107
0.000204793
0.0372007
0.000143516
0.000211086
0.000149297
0.000152341
0.0686737
0.000205396
0.000169683
0.000147397
0.000206038
0.000152269
0.0017957
0.000196229
0.000159419
0.0311945
0.000149116
0.0160571
0.000177708
0.000152159
0.000158471
0.000167318
0.000167705
0.000160131
0.000143498
0.000188125
0.000147339
0.000191062
0.000166375
0.000146969
0.000179399
0.0379202
0.000148593
0.000147995
0.0878771
0.000148284
0.000147059
0.000187493
0.00831454
0.0376418
0.000161806
0.000144213
0.0370814
0.000188073
0.000560985
0.000151607
0.00016279
0.000181917
0.000151861
0.000207471
0.000148219
0.00703375
0.000148065
0.0010281
0.000149388
0.000162731
0.000206107
0.000144602
0.000174986
0.000144689
0.000147685
0.00162743
0.000148952
0.0215175
0.000148103
0.0172974
0.000147271
0.000148129
0.000182356
0.000146066
0.0699709
0.000147074
0.000158521
0.000148299
0.000149804
0.000204736
0.000172196
0.0327807
0.0741157
0.019984
0.00355523
0.000189789
0.000147891
0.000149652
0.0250577
0.0558919
0.00014768
0.00576823
0.0371936
0.000187728
0.000161448
0.000163743
0.0607891
0.000146806
0.000183134
0.0356723
0.000169722
0.000242308
0.0620335
0.000154224
0.000153712
0.000145498
0.052198
0.0618305
0.000144933
0.000178374
0.0885436
0.000160166
0.0158505
0.000178502
0.0358759
0.000148082
0.000187294
0.000179896
0.000209957
0.000158609
0.00014729
0.0605249
0.000192866
0.000161141
0.000148587
0.000174132
0.000144228
0.000184709
0.000151667
0.00015056
0.000151504
0.000148551
0.000152818
0.000180819
0.000169982
0.000154122
0.000181716
0.000152528
0.077196
0.0111629
0.00014705
0.000152296
0.000148565
0.000148312
0.0729913
0.0728818
0.000178505
0.00014817
0.000151452
0.000147575
0.000150917
0.0410909
0.000148008
0.000157039
0.000164992
0.000148125
0.000147479
0.000146668
0.000149699
0.000161764
0.000148529
0.000163486
0.000163374
0.000149808
0.00014729
0.0834564
0.0749701
0.000152033
0.000144508
0.00014712
0.000164951
0.000164246
0.0872027
0.000187283
0.000151703
0.000148349
0.000179982
0.0569944
0.000150679
0.000148665
0.000145506
0.000148201
0.000164768
0.00014915
0.000148421
0.000176135
0.000147733
0.0411319
0.0380806
0.000152024
0.000155702
0.000158517
0.000647866
0.000172077
0.000204063
0.000180678
0.0646496
0.000152018
0.000147864
0.000162476
0.0131924
0.00017271
0.000148057
8.3241e-05
0.000146018
0.000145532
0.000175405
0.000647863
0.000172765
0.00017143
0.000148151
0.000178518
0.000166791
0.0117148
0.000146239
0.00018995
0.000157628
0.000597465
0.00015435
0.000147808
0.065976
0.000149913
0.0398657
0.033706
0.000148158
0.000149648
0.0110524
0.000147756
0.000146949
0.0427089
0.000145601
0.0505545
0.000148128
0.0650184
0.000172525
0.000203476
0.07336
0.000149147
0.000148324
0.000149222
0.000147443
0.000147489
0.000161
0.000149218
0.000147664
0.000166003
0.0125107
0.000147674
0.000147654
0.000157611
0.000148133
0.000149704
0.000148156
0.0634192
0.000148803
0.000146098
0.000168831
0.000147943
0.000147307
0.0401125
0.000165028
0.00015175
0.000167292
0.00014608
0.00016494
0.000157365
0.000149787
0.000170104
0.0786611
0.000163525
0.000182876
0.00015729
0.000145296
0.0427182
0.000145601
0.019161
0.000147035
0.000158187
0.000148161
0.000148368
0.00019152
0.00017357
0.000148378
0.000147076
0.000195253
0.0706948
0.000157991
0.000151864
0.000148511
0.000178612
0.000145432
0.0859876
0.000147167
0.000151279
0.000149362
0.000179582
0.000147091
0.0681344
0.000150708
0.000152695
0.000151805
0.000147905
0.000182333
0.000258474
0.000149571
0.00015803
0.000155772
0.000421449
0.000148212
0.0868498
0.0454356
0.000177495
0.000148603
0.000150583
0.000147955
0.0756159
0.00014995
0.000148567
0.000147432
0.000169488
0.0432479
0.000149761
0.000148805
0.000152851
0.000156765
0.0142817
0.0391287
0.000153178
0.0411634
0.00015851
0.000148001
0.000195585
0.000152574
0.0653752
0.00014926
0.00018808
0.000151953
0.000149621
0.0757693
0.000146983
0.000178277
0.000178551
0.0852843
0.000148056
0.000182283
0.000155133
0.064911
0.00024357
0.000146787
0.000149226
0.000161336
0.00806429
0.000178932
0.000172674
0.000149767
0.079739
0.000145014
0.000192841
0.000148727
0.000152556
0.000150894
0.000169375
0.00015209
0.000192975
0.0358686
0.000146729
0.000146885
0.000145707
0.074645
0.000149825
0.000152933
0.00016743
0.000208612
0.000159765
0.064105
0.000153838
0.0729314
0.000149361
0.000145051
0.000163093
0.000148142
0.0341159
0.000147138
0.000154547
0.000148191
0.00108794
0.0757348
0.00014852
0.000175855
0.000163492
0.00017985
0.000147402
0.000123817
0.000148773
0.000145112
0.0346124
0.0334288
0.000178028
0.00014962
0.000187975
0.000157277
0.00014918
0.000154479
0.000152958
0.000176957
0.0259694
0.000147391
0.000147894
0.000148676
0.000188311
0.000162315
0.0533661
0.073991
0.0192727
0.000174125
0.000145389
0.0587086
0.000175031
0.000149416
0.000148088
0.000165616
0.000148579
0.000163271
0.000148637
0.000101369
0.000157371
0.000150856
0.000154295
0.0460453
0.0129998
0.000238842
0.0448843
0.0716682
0.000149184
0.0262469
0.000151011
0.0322433
0.00014964
0.000170253
0.0376655
0.0367436
0.00984456
0.000146746
0.000148746
0.0363537
0.0718424
0.000149721
0.000154102
0.00016666
0.000150839
0.000154333
0.000174426
0.0365759
0.000166299
0.000147309
0.000147359
0.000154227
9.94051e-05
0.000148197
0.0371646
0.000157482
0.000178766
0.000192781
0.000146842
0.068533
0.0782159
0.000144277
0.000148132
0.000148674
0.000146942
0.0848545
0.000148477
0.000145488
0.0513294
0.000147586
0.000157872
0.00014804
0.0439768
0.000155421
0.000161135
0.0746987
0.000148365
0.000147925
0.0399186
0.000157943
0.000147349
0.000147601
0.000177725
0.039515
0.000149756
0.000145248
0.000147236
0.000174199
0.00130055
0.000148341
0.0608413
0.000163339
0.000151939
0.000253066
0.000155069
0.000172068
0.000151004
0.000211073
0.000173267
0.0737979
0.000144272
0.000150993
0.000149209
0.000147654
0.000151834
0.000147019
0.000155751
0.000190653
0.000214287
0.000147407
0.000530133
0.000149312
0.000210037
0.000148745
0.058876
0.0396347
0.000164867
0.000146481
0.000147393
0.000147566
0.000145064
0.000153933
0.00014812
0.0367516
0.000233672
0.051342
0.000173446
0.000127818
0.000190182
0.000148043
0.0367563
0.000198848
0.000148064
0.000213878
0.000158183
0.0382372
0.000151649
0.000151856
0.0716803
0.000152446
0.000147727
0.000161961
0.000148562
0.000148163
0.0737889
0.000172828
0.000147369
0.000148065
0.000147591
0.0355426
0.000148698
0.000148123
0.000147903
0.000143548
0.000193963
0.00014562
0.000146325
0.0482356
0.00014812
0.00014794
0.0780397
0.0487904
0.0104505
0.0728715
0.000155939
0.028811
0.000170444
0.000163156
0.0505459
0.000197975
0.000168897
0.000149061
0.00015058
0.000168938
0.0168067
0.0499417
0.000150648
0.000148641
0.000148013
0.000147658
0.000183284
0.000176211
0.000148039
0.000149206
0.000173421
0.000145383
0.000217495
0.000148117
0.000410467
0.00019198
0.000146984
0.000166568
0.000154126
0.000158066
0.000156763
0.000155662
0.000163694
0.0473745
0.00021257
0.000146963
0.0001491
9.62736e-05
0.000151587
0.0742297
0.000147438
0.000149683
0.000148111
0.000205449
0.000146785
0.000164003
0.0357993
0.000149813
0.000178333
0.0597746
0.000154672
0.000147962
0.000144586
0.000155605
0.00014734
0.000147672
0.0440258
0.00302695
0.000150544
0.0233108
0.000226337
0.000174332
0.000189658
0.000151515
0.000147745
0.000221715
0.000170949
0.00018935
0.000169742
0.000148749
0.000146881
0.000120939
0.000145039
0.000147494
0.000193858
0.000147519
0.08776
0.000168394
0.000153986
0.0724099
0.000155147
0.000145663
0.000208416
0.000156121
0.000187255
0.000147875
0.000148389
0.000169748
0.000148142
0.000200358
0.000146301
0.000146916
0.000148135
0.000148447
0.000146056
0.000147491
0.000146984
0.000184397
0.0297293
0.000147014
0.000188842
0.000160382
0.00016081
0.0657118
0.000149562
0.000151553
0.00755591
0.000166335
0.000170177
0.000155314
0.000147372
0.000153103
0.000684527
0.0016698
0.000144965
0.000167772
0.000144115
0.000192162
0.0343162
0.0358476
0.000177842
0.00014801
0.000154183
0.000158348
0.0715556
0.000155986
0.000148166
0.000173029
0.0001754
0.0147007
0.00014803
0.000152744
0.000168311
0.000148183
6.04788e-05
0.0217344
0.000147633
0.000152531
0.000156558
0.000145149
0.0889965
0.000149563
0.000148007
0.000149832
0.0582479
0.0520479
0.000147805
0.00022052
0.000148496
9.86548e-05
0.000153947
0.0689747
0.000147974
0.0588956
0.000151521
0.000147584
0.000148353
0.00020154
0.000146301
0.000163354
0.000244634
0.000143678
0.0106777
0.0572844
0.0738404
0.00017354
0.000158216
0.000143545
0.000149805
0.0364458
0.000172382
0.000148261
0.000206175
0.000146499
0.000147457
0.000189319
0.00015094
0.000145986
0.000150742
0.000147207
0.000103819
0.000148087
0.0605166
0.00019114
0.0459083
0.000147982
0.000215846
0.0768922
0.000150791
0.0437153
0.000148588
0.000151262
0.0681354
0.00014966
0.000146169
0.000159707
0.00015174
0.000148448
0.000154311
0.0731573
0.000149866
0.0459475
0.000157401
0.000146026
0.000156481
0.000154745
0.00014537
0.0404137
0.0001525
0.000170216
0.000152136
0.000147689
0.000149567
0.000199689
0.0797325
0.000179159
0.000144082
0.000165522
0.0768555
0.000148537
0.000185853
0.000162358
0.000146957
0.000487673
0.000163644
0.000148201
0.0452694
0.053333
0.000152228
0.000168249
0.048438
0.000208434
0.00014738
0.000148102
0.000150037
0.000157766
0.000154336
0.000205458
0.000149503
0.000148067
0.00014682
0.000147645
0.000148471
0.000177927
0.000149842
0.0595245
0.075041
0.00583555
0.000186519
0.0600924
0.000153147
0.000205414
0.000147638
0.000147429
0.000146546
0.0162862
0.000147446
0.000210894
0.000163589
0.00016673
0.000152538
0.000194424
0.0447935
0.000153625
0.000148822
0.000144578
0.000147775
0.000169102
0.000148102
0.000147762
0.00224411
0.000147627
0.0620689
0.000146811
0.000150008
0.000167073
0.075157
0.000149015
0.000170703
0.0016576
0.000169797
0.00021567
0.000170246
0.000150552
0.000148665
0.000157157
0.000187203
0.0345321
0.000150576
0.000150536
0.00014814
0.000149105
0.000151002
0.020761
0.000147646
0.00834555
0.0850905
0.000170166
0.000164375
0.000158037
0.000210544
0.000191433
0.000148307
0.000150606
0.000221976
0.000148447
0.000148208
0.000176476
0.000156215
0.000213778
0.000148704
0.000147567
0.000170881
0.000149913
0.000148484
0.048554
0.0315799
0.000208981
0.000147851
0.000147992
0.000146164
0.000148751
0.0619052
0.000148272
0.00014656
0.0579241
0.000146479
0.000196382
0.000225221
0.0411369
0.0623301
0.000201087
0.0549949
0.000198815
0.000218926
0.0614536
0.000143722
0.0622878
0.000170378
0.000147489
0.000159402
0.0650194
0.0001484
0.000147771
0.000147855
0.00014656
0.000145665
0.000221953
0.0002046
0.000154687
0.000206842
0.063546
0.000146627
0.0366176
0.0739382
0.000171271
0.000150141
0.000148276
0.000154093
0.000153775
0.000154972
0.00015839
0.000168703
0.000204589
0.000197727
0.00014753
0.0558183
0.000154909
0.000207268
0.000148446
0.000147336
0.000149855
0.00020307
0.000165903
0.000147605
0.0543999
0.000147921
0.0200811
0.000182044
0.000166423
0.000239956
0.000153011
0.000173033
0.0001474
0.000155426
0.00014684
0.000148722
0.000169729
0.000163067
0.000156144
0.000113124
0.000147663
0.000147413
0.000148668
0.000148767
0.0001487
0.000150367
0.000151596
0.056418
0.000152051
0.000146546
0.000148293
0.000163415
0.00129303
0.000230589
0.013493
0.000165094
0.000150826
0.00014486
0.00015543
0.000147016
0.000144557
0.000148518
0.000157688
0.0723862
0.000205054
0.000166539
0.000161543
0.00152936
0.00482412
0.00014982
0.000147048
8.79395e-05
0.000148672
0.000147424
0.000166375
0.000172492
0.000170374
0.000150576
0.000146206
0.000151211
0.000149139
0.000148218
0.000150752
0.000169081
0.000152236
0.000146902
0.000146931
0.000149601
0.000195903
0.000174744
0.000168894
0.0616382
0.000147051
0.000144189
0.000151269
0.000150582
0.000166282
0.000147429
0.000150089
0.000167983
0.000221934
0.0168571
0.000149112
0.000145987
0.000589988
0.0449016
0.000173783
0.053461
0.000205214
0.000147699
0.000162195
0.0860053
0.000148066
0.000248056
0.00014705
0.0394735
0.000195513
0.000152881
0.000147088
0.000196787
0.060868
0.000172667
0.000196258
0.000198045
0.000173834
0.000158792
0.000165038
0.000127231
0.0504825
0.0706393
0.000160763
0.000146516
0.0601981
0.000198784
0.000172888
0.000167465
0.0616517
0.000149164
0.000146767
0.000148269
0.0389831
0.000183811
0.000297359
0.000154765
0.000186039
0.000148867
0.000148905
0.000151291
0.000144024
0.000429507
0.00015457
0.000147001
0.00017854
0.0597064
0.000149592
0.000159258
0.0293075
0.0756304
0.0659987
0.0456394
0.0576235
0.000209369
0.000146169
0.000182081
0.00433575
0.061238
0.000143995
0.000154413
0.000146771
0.000155621
0.000147289
0.000144153
0.000147889
0.000203389
0.000148042
0.0727827
0.0720812
0.000147646
0.000148704
0.000189388
0.000164254
0.000147065
9.34359e-05
0.000147611
0.000198463
0.000173674
0.000203923
0.000156428
0.000173796
0.000167138
0.000146925
0.00016807
0.000179629
0.0509944
0.000147059
0.0241308
0.000151288
0.000147667
0.000154643
0.000193684
0.000176711
0.0558092
0.000148825
0.000150641
0.000148188
0.000193754
0.000154907
0.000163953
0.000147453
0.00481133
0.00014351
0.00014447
0.0669278
0.0851083
0.000148037
0.0620597
0.0438659
0.0495888
0.0775721
0.0557509
0.0874626
0.000148231
0.000149472
0.000148152
0.000148
0.0465086
0.00016912
0.000171885
0.0550029
0.000148686
0.000149673
0.000186214
0.0624344
0.000168706
0.000150281
0.000156352
0.000147379
0.000148627
0.00019293
0.000149735
0.000207661
0.000148379
0.000173697
0.000152195
0.0182371
0.000214918
0.000145494
0.000148054
0.000148166
0.000204709
0.00018805
0.000150587
0.000148095
0.000179008
0.000148441
0.000153328
0.000156514
0.000204485
0.000162133
0.000174261
0.000145549
0.000147732
0.000151333
0.00016218
0.00018908
0.000189004
0.000149745
0.000150519
0.000169296
0.0346647
0.0668513
0.000145057
0.000158323
0.000144942
0.0580398
0.000152951
0.000149954
0.000154284
0.000192911
0.0480665
0.000155948
0.000162272
0.000146136
0.0624811
0.000174888
0.000147253
6.79019e-05
0.000162354
0.000159569
0.000165731
0.000113477
0.000162154
0.000247255
0.0079292
0.000156201
0.000147048
9.13061e-05
0.000146982
0.000146178
0.00014734
0.00092294
0.000149982
0.000145611
0.000181172
0.000163128
0.000149007
0.00015594
0.000148216
0.000146913
0.0377574
0.000170573
0.000212425
0.000175364
0.000176036
0.000148203
0.0526275
0.000186455
0.000178666
0.0181129
0.000146887
0.000148749
0.000168939
0.000181898
0.000148087
0.0736812
0.000209008
0.000162515
0.0640242
0.044808
0.000145509
0.000211743
0.000186415
0.073894
0.000152794
0.000164739
0.000145992
0.000164305
0.000146659
0.000178193
0.000195758
0.000148061
0.000146163
0.000145463
0.000188545
0.000172923
0.0001731
0.0429391
0.0402779
0.000145416
0.0232458
0.000149205
0.000148667
0.000146644
0.000108202
0.000149399
0.000151729
0.000148148
0.00017768
0.00014903
0.000152147
0.0673911
0.000148074
0.000203387
0.0429778
0.000199882
0.0640476
0.0314086
0.000158631
0.00018981
0.000148218
0.000209363
0.000144985
0.000147544
0.000147616
0.000148114
0.0609325
0.000148889
0.000207703
0.000145625
0.000173528
0.000150707
0.00016254
0.000152887
0.000150089
0.00015602
0.000144455
0.000147775
0.0635435
0.000148873
0.000167514
0.000155916
0.000152115
0.000172866
0.000148627
0.000149978
0.000190352
0.0325318
0.0735385
0.0738798
0.0727428
0.000185049
0.000147545
0.000148338
0.000173167
0.0284769
0.000179043
0.000509365
0.00014792
0.000147311
0.000175715
0.00014602
0.00493504
0.0337065
0.068964
0.000146634
0.000149638
0.000144792
0.000146468
0.0607077
0.000148301
0.000149697
0.00016417
0.0574622
0.000150115
0.000147873
0.000147365
0.0671081
0.000149898
0.000155711
0.0651874
0.000286112
0.000189285
0.051147
0.0197228
0.0443867
0.000148143
0.0464323
0.000149329
0.000147866
0.000178731
0.0656696
0.000202261
0.069278
0.000145528
0.000147587
0.000147273
0.000180793
0.000417803
0.00016276
0.0347373
0.00015738
0.0765164
0.0754459
0.000148177
0.000194487
0.00015542
0.00015513
0.000166151
0.000145813
0.0354207
0.0408434
0.000149681
0.000148129
0.000118046
0.000150071
0.000150531
0.0566138
0.000202499
0.000148473
0.000148143
0.000148823
0.000148151
0.0734472
0.00015806
0.000147666
0.000146147
0.0633677
0.000146834
0.000148774
0.0399855
0.000147334
0.000196224
0.000474065
0.000158126
0.000152788
0.000162515
0.0671275
0.000145048
0.000153244
0.0262551
0.00017887
0.000148709
0.000196159
0.000173742
0.000108733
0.0645824
0.000155074
0.043344
0.000148075
0.000148178
0.000148987
0.000148102
0.000154331
0.000163852
0.000205427
0.000147201
0.000166566
0.000154201
0.000247396
0.0001544
0.000148861
0.000143545
0.0698005
0.046418
0.000166014
0.000146488
0.000166469
0.000147479
0.000158402
0.000147747
0.0740107
0.000178181
0.000146717
0.0774675
0.0598946
0.000147216
0.000148525
0.0389079
0.000167041
0.000146191
0.0592876
0.0727675
0.000146167
0.000147646
0.000519176
0.046051
0.00021363
0.000148193
0.000207091
0.0514347
0.000164972
0.00014557
0.000171847
0.000143557
0.0809216
0.000150538
0.000156198
0.0555339
0.0398234
0.000148864
0.000148639
0.0402098
0.0745656
0.000147452
0.000149684
0.000148838
0.000148222
0.000147442
0.000174633
0.0334908
0.000151911
0.000206679
0.000152121
0.000165039
0.000149529
0.000148638
0.000145053
0.0679096
0.0595397
0.000169783
0.000194148
0.000152439
0.0770866
0.000191
0.000158249
0.000148565
0.000148703
0.000213889
0.0714265
0.00014593
0.000159422
0.000144877
0.000147361
0.0309747
0.000189658
0.000156405
0.000146891
0.000146676
0.0596155
0.000327059
0.000150715
0.000162916
0.000170658
0.0422192
0.000152913
0.000177946
0.0888317
0.000166725
0.000147731
0.000168732
0.000178969
0.000146875
0.000147842
0.0792569
0.000191105
0.0364644
0.000186821
0.000152495
0.0353783
0.000151698
0.000189428
0.000146018
0.000159296
0.00014812
0.000162356
0.00014785
0.0688678
0.000146552
0.000148321
0.00272323
0.000171175
0.000206704
0.00014808
0.000147466
0.0708159
0.000207253
0.000186629
0.000154356
0.000209716
0.000218458
0.000209786
0.000170058
0.0413723
0.0397642
0.0689514
0.00014809
0.000145545
0.000147635
0.000172158
0.000202979
0.000147674
0.000156932
0.0414747
0.0488441
0.000149862
0.0388124
0.000156858
0.000178709
0.000168673
0.000148963
0.000146753
0.000177062
0.000156785
0.000201326
0.000152898
0.000148902
0.0505148
0.0677961
0.000145991
0.000178762
0.000148949
0.000148347
0.000155658
0.0302561
0.000165008
0.000147887
0.000150735
0.00171704
0.064607
0.000169057
0.0805607
0.000165814
0.0627716
0.000149862
0.000148678
0.000147804
0.000148071
0.000204128
0.000181894
0.000148072
0.000166419
0.000156206
0.00486131
0.000204732
0.000147714
0.000148208
0.000150568
0.00015813
0.0459682
0.0425106
0.000156396
0.0585132
0.000193816
0.000147582
0.000167707
0.000146546
0.000147093
0.000157323
0.00015075
0.000156934
0.000166682
0.000145878
0.00014772
0.000151951
0.0843716
0.00014808
0.000150679
0.0811499
0.000210898
0.000181655
0.000147943
0.0755462
0.000148558
0.000217001
0.0689148
0.0785354
0.000155528
0.000161672
0.000151225
0.00015111
0.0202768
0.0598271
0.0400721
0.000158123
0.00014522
0.000171012
0.00015065
0.000148037
0.0490318
0.000162939
0.000164957
0.000146903
0.000154503
0.00015944
0.000245767
0.000147078
0.000168665
0.0101422
0.000148303
0.000151424
0.000173012
0.000151179
0.034654
0.000147555
0.000150138
0.000147376
0.000157319
0.000145251
0.000145135
0.0705204
0.0507692
0.0644233
0.000168336
0.000211907
0.0888882
0.000154365
0.000176061
0.000148675
0.000147716
0.00016431
0.000161947
0.000200707
0.0773621
0.0648239
0.000151543
0.000147256
0.000174936
0.000147643
0.000159452
0.0339811
0.0358333
0.0472938
0.0509083
0.000151509
0.0783574
0.000181144
0.000146709
0.0251608
0.000168813
0.000154604
0.000148097
0.0812493
0.000148944
0.000178323
0.00018075
0.0529332
0.000149119
0.000180447
0.0377796
0.000178863
0.000154251
0.0488199
0.000147069
0.000145129
0.000152625
0.000147696
0.0574983
0.0767799
0.000211739
0.000148869
0.0243093
0.000151052
0.000162584
0.000186286
0.000161203
0.000179407
0.000143921
0.000148739
0.0531204
0.000208778
0.0201701
0.000146887
0.00015247
0.000166752
0.000147392
0.000144824
0.000151157
0.000149539
0.000146352
0.000211885
0.000161143
0.000152871
0.000155101
0.000175377
0.0583037
0.0573161
0.000158219
0.000456518
0.000176937
0.000158011
0.000147679
0.000152803
0.0404018
0.00704694
0.0431109
0.000159122
0.000148632
0.000149943
0.000160068
0.000149833
0.000148086
0.0640411
3.88436e-05
0.000146239
0.0334396
0.0877548
0.000144174
0.000145125
0.000152614
0.000150388
0.00020645
0.000181063
0.000203049
0.000208593
0.000195644
0.0548647
0.000170595
0.000146838
0.000148892
0.0335452
0.00016722
0.000172227
0.000165917
0.0713923
0.000146878
0.000213054
0.000150603
0.000148038
0.000152347
0.000188529
0.000186892
0.000147739
0.000148078
0.0706897
0.000158994
0.000158358
0.0729371
0.0497951
0.000171875
0.000148082
0.000176455
0.000145116
0.000151589
0.00593016
0.0539018
0.000179089
0.000189125
0.000151956
0.000174279
0.000163881
0.000207963
0.0692568
0.000171199
0.000145208
0.065923
0.000152684
0.000150582
0.000147887
0.0001465
0.0497317
0.00017651
0.000145982
0.000208362
0.000213282
0.000171016
0.0452276
0.000195306
0.000147372
0.000159608
0.0365576
0.0326323
0.000173006
0.000173003
0.000151698
0.0086918
0.000147092
0.0326347
0.00014639
0.000147373
0.000218432
0.000168104
0.00015182
0.000147729
0.000147325
0.0374091
0.000186418
0.000147093
0.000148173
0.000187286
0.000150432
0.000284658
0.000146988
0.0469393
0.000194116
0.000151521
0.0581443
0.000147306
0.000158965
0.000148171
0.0647138
0.000177417
0.000172492
0.000150383
0.000185429
0.000147105
0.0753102
0.000148283
0.000146888
0.000158377
0.00801515
0.0607346
0.000164905
0.000168177
0.00014774
0.000158952
0.000157584
0.0389879
0.000149739
0.000145786
0.0416237
0.000174954
0.000150728
0.000146953
0.000242113
0.000152719
0.0136096
0.000185721
0.000145937
0.000150765
0.000141914
0.0658026
0.0345295
0.000186517
0.000147378
0.000148336
0.000154698
0.000184498
0.000148336
0.000175251
0.000161993
0.00019676
0.000172461
0.0629777