/*--------------------------------*- C++ -*----------------------------------*\
| =========                 |                                                 |
| \\      /  F ield         | OpenFOAM: The Open Source CFD Toolbox           |
|  \\    /   O peration     | Version:  v2012                                 |
|   \\  /    A nd           | Website:  www.openfoam.com                      |
|    \\/     M anipulation  |                                                 |
\*---------------------------------------------------------------------------*/
FoamFile
{
    version     2.0;
    format      ascii;
    class       surfaceScalarField;
    location    "300";
    object      phi;
}
// * * * * * * * * * * * * * * * * * * * * * * * * * * * * * * * * * * * * * //

dimensions      [0 3 -1 0 0 0 0];
oriented        oriented;


internalField   nonuniform List<scalar> 
55428
(
0.141714
0.0626455
-0.20436
-0.00124512
0.00225024
-0.00100512
0.273547
-0.169354
-0.104193
-0.00979696
-0.04767
0.057467
-0.00379748
0.00322467
0.000572812
0.118115
-0.236841
0.118726
-0.0401664
0.0903394
-0.050173
-0.0959132
-0.0383034
0.134217
-0.0673146
0.0126356
0.054679
0.0399306
0.0135157
-0.0534462
-0.244663
0.0755026
0.16916
-0.115999
-0.207461
0.32346
0.0744541
-0.125388
0.050934
0.349449
-0.360628
0.0111787
-0.0246034
0.00502591
0.0195775
0.191905
-0.0640006
-0.127905
-0.126184
0.0109636
0.115221
-0.0583007
0.0949425
-0.0366418
0.0169942
-0.0208197
0.00382549
0.062272
-0.0455428
-0.0167292
-0.0928998
-0.0452709
0.138171
-0.0546633
0.196377
0.00687552
0.0206283
-0.0275038
-0.168673
0.140039
0.0286343
-0.0565308
0.117839
-0.0613079
0.0620191
0.129886
0.0545675
-0.102485
0.0479178
-0.0813976
-0.0086928
0.0900904
0.0291464
0.00385006
-0.0329965
0.000984359
0.00100505
-0.00198941
0.0074212
-0.021222
0.0138008
0.077694
-0.254237
0.176543
0.0272486
0.0541908
-0.0814394
0.0629146
-0.012377
-0.0505376
0.0331352
0.0436684
-0.0768037
0.101584
-0.0704501
-0.0311337
-0.329128
0.245798
0.0833301
-0.110419
-0.0582542
-0.163476
0.164216
-0.000740315
-0.0659105
-0.101012
0.166922
0.0606095
-0.0145898
-0.0460197
-6.35118e-05
0.00292307
-0.00285956
0.110076
-0.0469842
-0.0630921
-0.0107531
0.0600512
-0.049298
0.136508
0.108223
-0.244731
-0.0462764
-0.0248841
0.0711605
0.00159942
-0.0024195
0.000820079
-0.0551977
0.0706146
-0.0154169
0.135207
0.138339
-0.00268066
-0.00111682
-0.159773
0.107253
0.0525202
-0.178205
0.056219
0.121986
0.0697462
0.0487214
-0.118468
0.0208315
-0.0681267
0.0472952
-0.130522
-0.142262
0.272784
0.125944
0.0482372
-0.174181
0.0600287
-0.0200981
-0.234571
-0.0945568
0.00653482
-0.00661922
8.43983e-05
-0.0999104
-0.184511
0.284422
0.00695632
-0.000421501
0.0860713
0.0155125
-0.344778
0.0359172
-0.000941321
0.00107483
-0.000133506
0.0755416
0.0435901
-0.119132
-0.0508855
0.112664
-0.0617782
-0.164891
-0.0245425
0.189433
-0.0556875
0.0791991
-0.0235116
-0.0281557
-0.00933768
0.0374934
-0.283551
-0.0612276
0.178321
-0.308843
-0.116326
-0.0261113
0.142437
0.0816408
-0.139002
0.0573617
-0.120619
0.23806
-0.117441
0.0712222
0.0932585
-0.164481
0.0594254
0.0918317
-0.151257
0.00365374
0.00662236
-0.0102761
0.0810428
-0.111996
0.0309532
-0.00246845
0.00353638
-0.00106793
0.075412
-0.13776
0.0623481
-0.354044
0.355191
-0.00114777
0.105647
-0.0657017
-0.0399457
-0.22975
0.109132
0.0123613
0.0302202
-0.0425815
-0.0617062
0.062958
-0.00125178
-0.125741
-0.000443248
-0.0108497
-0.00245305
0.0133028
-0.00116183
0.00214619
0.000794878
-0.0253983
0.28253
-0.204836
-0.00355776
0.0072115
0.0789586
-0.0301693
-0.0487893
0.0591908
-0.229985
0.139565
0.0904201
-0.199531
0.124737
0.0747943
0.0561329
-0.00336572
0.000897274
-0.128944
-0.140375
0.269319
0.0481038
-0.0579008
-0.0186608
0.00157603
0.0170848
-0.104281
0.0572964
0.074755
-0.0351049
-0.0396501
0.00205487
-0.00712057
0.00506571
-0.0189731
0.00950912
0.00946402
-0.062979
0.230468
-0.167489
0.0879692
0.0587036
-0.146673
0.000992713
-0.00352424
0.00253152
-0.197755
0.340203
-0.142448
0.102114
-0.267004
-0.0153061
0.0237322
-0.00842612
-0.0140827
0.0227949
-0.00871212
-0.0179035
-0.00243393
0.0203374
-0.17776
0.0756259
0.102134
-0.27167
0.231175
0.0404941
-0.224147
0.17761
0.0465371
-0.0966524
0.246596
-0.149944
0.00499425
0.0760485
-0.0440109
-0.119465
-0.16602
0.10011
-0.0516663
-0.083577
0.135243
-0.106109
0.214924
-0.108815
0.00857106
0.00105064
-0.0096217
-0.111339
-0.126725
0.238065
-0.175967
-0.271059
0.18507
0.0859884
-0.0236207
0.0214407
0.00217999
-0.222847
-0.0488225
0.159878
-0.275651
0.115773
0.00610607
0.0457197
-0.0518258
0.0133258
0.0340089
-0.0473347
0.297852
-0.137974
-0.00150944
0.000931382
0.000578054
0.0347884
0.102979
-0.137767
-0.0421535
0.0950705
-0.052917
0.00474731
-0.00269245
-0.230612
0.189675
0.0409366
-0.0328297
0.0848383
-0.0520086
0.0200349
-0.0757224
-0.0752704
0.028994
0.073454
0.05116
-0.124614
0.14343
-0.119049
-0.0243812
0.0311066
-0.112504
-0.0141065
-0.0532081
0.0756852
-0.136041
-0.0634906
-0.0984091
0.157835
-0.0166137
0.0130464
0.00356735
0.152305
-0.0983446
-0.0539604
-0.0797618
0.0444275
0.0353343
0.203778
-0.291697
0.0879192
-0.143001
-0.0534279
0.196429
-0.0858772
0.0165174
0.0693599
0.0472127
0.0250324
-0.0722451
0.215436
0.114486
-0.329922
0.00485687
0.00209945
0.169545
-0.296099
0.126554
0.00273008
0.000108654
-0.00283873
-0.093972
-0.150691
0.00450016
-0.00350745
0.099662
-0.0626596
-0.0370024
-0.048916
0.0887139
-0.0397979
0.152842
0.0379746
-0.190817
-0.00824392
0.00672886
0.00151506
-0.00242171
0.0109149
-0.00849322
-0.00104246
-0.0848348
0.0855664
-0.137233
-0.0201831
0.0336135
-0.0134304
-0.0325673
0.0823541
-0.0497868
4.28673e-05
0.0160818
-0.0161247
-0.0744142
0.0324857
0.0419285
-0.053765
-0.176847
0.0111199
-0.0135416
0.00754323
0.145299
-0.0597321
0.127385
-0.0676525
0.00962184
-0.00105078
-0.0779023
0.0100928
0.0678095
-0.218613
0.137368
0.0812454
0.0670381
0.0449219
-0.11196
0.0611377
-0.0854795
0.0243418
-0.109659
-0.0331724
0.142831
-0.0686151
0.0578619
0.22159
-0.304641
0.0830507
0.247332
-0.0257415
-0.239216
0.136097
0.103119
0.0126118
-0.00810672
-0.00450509
-0.108987
0.266593
-0.157606
-0.10772
-0.123655
0.0665053
0.0571502
-0.0182916
0.0251671
0.0688865
-0.0692977
0.000411171
0.222985
0.0811529
-0.304138
-0.0886896
0.0771859
0.0115037
-0.288797
0.181086
0.107711
0.132214
-0.187807
0.0555933
-0.0684673
0.0278153
0.040652
0.133387
-0.0985987
0.188943
-0.110767
-0.0781756
0.11034
-0.0504839
-0.0598562
-0.0184615
0.00261592
0.0158456
-0.0260223
0.0132533
0.012769
-0.0401091
0.0674303
-0.0273212
-0.256349
0.124669
0.13168
0.0909349
-0.233936
-0.38345
0.232267
0.151184
0.0127889
-0.00322657
-0.00956238
0.0364275
-0.0916873
0.0552598
0.0369356
-0.077102
-0.168237
0.108392
0.0598445
-0.196005
0.0898956
-0.0123313
0.00148161
-0.166087
-0.00546886
0.171555
0.0129502
-0.0129073
-0.161256
-0.0950934
-0.0205896
0.0945326
-0.073943
-0.00107842
-0.000431021
0.0185907
-0.00397585
-0.0146149
-0.0495717
-0.0301902
-0.0730795
0.0210711
0.0520085
0.0528552
0.0100593
0.344198
-0.171896
-0.172302
0.00781332
-0.00295645
-0.285663
0.169664
0.112279
-0.194277
-0.0548389
0.0476731
0.00716578
-0.0106858
0.00815986
0.00252593
0.105914
0.100614
-0.206528
-0.0035707
0.00407025
-0.000499555
-0.142928
0.184035
-0.0411076
-0.0226217
0.0951236
-0.0725019
0.00152917
-0.00676309
0.00523392
-0.0385452
-0.0657354
-0.180482
0.00611695
0.174365
0.191571
-0.291481
0.0102772
0.000785852
-0.0110631
-0.101794
0.0808845
0.0209098
0.0489862
0.0336555
-0.0826418
0.0453021
-0.0565642
0.0112621
-0.000734269
-0.00649178
0.00722605
0.230046
0.0295033
-0.259549
0.229267
-0.118133
-0.111134
-0.0884924
0.0734115
0.0150809
-0.280155
0.171168
0.0104677
0.00232128
-0.0881391
0.170142
-0.0820029
-0.100893
0.209646
-0.108753
-0.00488235
0.039103
-0.0342207
0.156623
0.119588
-0.276211
-0.00360341
0.000922747
-0.0519623
0.0792109
-0.0365699
0.0831333
-0.0465634
-0.115132
0.230331
-0.115199
-0.0984476
0.0585221
0.0399256
0.0100914
-0.190574
0.109234
-0.0502182
-0.0590158
0.137648
-0.0801784
-0.05747
-0.332439
0.188019
0.14442
-0.0668513
-0.0218383
-0.117579
-0.143287
0.260866
-0.0935516
0.0607219
0.148391
0.13258
-0.280971
-0.00241564
-0.00118777
-0.0518271
0.124888
-0.0730606
-0.0643188
0.268096
-0.0136724
0.0210936
-0.024927
-0.104516
0.129443
0.131455
-0.258231
0.126777
-0.20092
-0.150198
0.351118
0.0640248
-0.10257
-0.00391269
-0.0067731
-0.330884
0.0963127
0.00856989
-0.0364416
0.0278718
-0.00195213
-0.0142875
0.0162396
0.0281038
0.0247515
0.0432337
0.0475906
-0.0908243
-0.00651834
0.00415919
0.00235915
0.156129
-0.266666
0.110537
0.141232
-0.249485
0.108253
-0.000858522
-0.000133405
0.000991926
0.116362
-0.0507432
-0.0656184
0.0311217
0.112308
-0.00256412
0.0317105
-0.150743
0.0102506
0.140492
-0.040837
0.0688209
-0.0279839
0.00638264
-0.142939
0.118012
-0.10011
0.149661
-0.0495505
-0.045403
-0.129442
0.174845
-0.176854
-0.076898
0.113834
-0.194127
-0.138312
0.153832
-0.180838
0.0270059
0.0482254
-0.0920737
0.0438483
-0.0405318
-0.0143071
0.106307
-0.0498218
-0.0564853
-0.00209844
-0.0044199
-0.105381
-0.105155
0.210536
-0.233618
0.112451
0.121166
0.00869912
0.0850645
-0.123652
0.0385879
-0.234135
-0.096749
-0.000635645
0.0425001
0.0174814
-0.0599814
0.0886776
0.0385808
-0.127258
-0.0687497
0.0621199
0.00662979
0.134025
-0.229817
0.0957916
0.302969
-0.0978611
-0.205108
0.233568
0.149014
0.0592962
-0.0514543
-0.00784194
-0.122901
0.0631693
-0.0687659
0.292716
-0.22395
0.00714594
-0.0107794
0.00363349
-0.0637165
-0.0380779
0.0565598
0.0181952
-0.00691219
0.00617792
-0.00664617
-0.00303695
0.00968311
0.0808133
0.0248341
0.0403617
-0.0342557
-0.044413
0.0791299
-0.034717
0.0801222
0.206339
0.0535416
0.0199203
-0.0734619
0.0585773
-0.0304735
-0.0902842
0.201709
-0.111425
0.00689308
-0.0136887
0.00679557
0.0687753
-0.0151648
-0.0536104
0.0388057
-0.0867022
0.0478965
-0.0142778
-0.00418372
-0.246117
-0.0283843
0.274501
-0.00335947
0.0173982
-0.0140387
-0.0302306
0.0854324
-0.0552018
-0.115234
0.0911679
0.0240665
-0.0996058
0.199489
-0.099883
0.0526619
-0.0367928
-0.0158691
0.067709
-0.0204963
-0.000412967
-0.000445555
0.0382747
0.0135094
-0.0517841
0.0377967
0.00159279
-0.0393895
0.0909414
0.059817
-0.150758
-0.00131521
0.000373894
-0.0551676
0.126671
-0.0715038
-0.0588524
-0.00989729
-0.150052
-0.0740944
-0.0710344
0.196979
-0.00589401
0.00452675
0.00136726
0.0213102
-0.0614193
-0.0216526
-0.0527616
-0.275823
0.207057
-0.13975
0.245231
-0.105481
-0.164739
0.28203
-0.117291
0.320054
-0.160102
-0.159952
-0.00797498
0.0224363
-0.0144613
-0.136
-0.0585912
0.194591
-0.24404
0.0938159
0.150224
-0.104732
0.0576729
0.0470587
-0.0487002
0.0438178
-0.157171
-0.107677
0.264847
-0.00463018
0.0212918
-0.0166616
0.0168689
0.0619741
-0.0788429
-0.15563
0.0597165
-0.0468027
0.102217
-0.055414
-0.00331827
0.00396248
-0.00064421
-0.029558
0.0856897
-0.0561317
-0.00139385
0.058466
-0.10749
0.0490237
0.0896495
-0.0332389
-0.0564105
0.160383
0.0416355
-0.202019
-0.216107
0.341556
-0.125449
-0.03325
-0.0498386
0.0830886
0.0646147
-0.0852043
-0.139492
0.0843245
-0.0521109
-0.0417499
0.100216
-0.0206555
0.0631555
0.11805
0.034255
-0.0602503
0.0897333
-0.029483
-0.0687774
0.0322075
0.0688403
4.62147e-05
-0.0306556
0.0819919
-0.0513364
-0.00392144
0.000603163
-0.0454328
0.0203171
0.0251157
-0.0470843
0.0717242
-0.0246399
-0.0107313
0.0357909
-0.0250597
0.0322301
-0.0815188
0.0492887
0.00865576
-0.0855538
0.0155463
-0.0212237
0.00567743
0.0720437
0.0382963
-0.0784362
0.0558145
-0.0367032
0.0856894
-0.00250581
0.0560474
0.195823
-0.0419909
-0.0767022
0.0628063
0.0138959
0.134366
-0.0855715
-0.0487943
0.0792147
0.0812863
0.00835985
-0.0896461
0.162899
-0.280435
0.117537
-0.0492025
0.0115173
0.0376852
-0.00782707
0.0822812
-0.440984
0.319304
0.12168
-0.0227699
-0.0503096
-0.20163
-0.135322
0.336953
-0.00850356
0.00738489
0.00111867
0.156015
-0.0943326
-0.0616829
0.11437
0.100555
0.114784
-0.0334979
0.013744
-0.259861
-0.140286
0.324181
-0.183895
0.00191857
0.0013061
0.15997
-0.0690282
0.140331
-0.341962
-0.145346
-0.0430593
0.188406
0.0342739
0.0185907
-0.0528646
-0.00673176
8.55883e-05
-0.193273
0.14787
-0.202724
0.103118
0.388017
-0.200197
-0.18782
-0.0492369
0.102237
-0.0530004
-0.111848
-0.159211
0.329319
-0.222787
-0.106532
-0.201588
-0.113312
0.3149
-0.00636977
-0.00213379
0.0273331
-0.0744174
-0.00815065
0.023697
0.150256
-0.249033
0.0987762
0.095184
-0.0745355
0.0517656
-0.0112232
0.00311646
0.129688
0.242911
-0.3726
-0.0612623
0.135592
-0.0743295
0.131961
0.0889025
-0.220863
0.0484052
-0.0458703
-0.00253486
0.207165
-0.362671
0.155506
0.0629988
0.0930167
0.0564764
-0.0797
0.0232235
-0.129972
-0.00584967
0.135822
0.0290445
-0.0204746
-0.286055
0.0851349
-0.0686119
0.0277749
0.121473
0.0424134
-0.163887
-0.212691
0.177742
0.034949
0.102844
-0.162238
0.0593938
-0.121
-0.118216
-0.00236633
0.00105111
0.095566
0.0359082
-0.131474
-0.207851
0.132875
0.0749757
0.00461996
-0.00752901
0.00290905
-0.0368333
0.026102
0.248528
-0.384032
0.135504
-0.00827942
0.0151725
0.14209
-0.1489
0.00681022
0.0537295
-0.106984
0.0532544
0.075024
-0.0557307
-0.0192933
-0.256515
0.159863
0.00340107
-0.0014825
-0.118383
0.265675
-0.147292
0.0159906
-0.025934
0.00994344
-0.189912
-0.0988852
0.383168
-0.212331
-0.170838
0.159407
-0.108497
-0.0509098
-0.273978
0.10924
-7.29051e-05
0.00114773
-0.0964505
0.121463
-0.0250124
0.384381
-0.170618
-0.213763
-0.00685186
-0.0342799
0.0411317
0.0577322
0.0214669
-0.275506
0.291263
-0.0157566
-0.0690785
0.047426
-0.0144475
-0.0342527
-0.054488
-0.121348
0.175836
0.110471
-0.216614
0.106142
-0.106126
0.0568893
-0.00799115
-0.00323204
0.00142843
-0.0200893
0.00262563
0.0551754
-0.057801
-0.0510096
0.0322754
0.0187342
-0.00571179
0.0154714
-0.00975957
-0.0945464
0.0477437
-0.00640426
0.0105223
-0.00411799
-0.102905
-0.056868
0.241342
-0.123226
-0.117018
0.267247
-0.15023
0.0556313
-0.183539
0.127908
-0.0031438
0.0142637
-0.0448429
0.037991
-0.104937
-0.124991
0.229928
0.0817449
0.0346167
-0.002348
0.183632
-0.0713527
0.00659647
-0.0050673
-0.0564808
0.0887109
0.0828405
-0.18927
0.10643
-0.0535866
-0.051145
-0.0493131
-0.163378
-0.00766666
-0.0455493
0.0532159
-0.0839451
0.0669842
0.016961
0.0640652
-0.115602
-0.0922485
0.125636
0.0998066
-0.225443
0.0262914
-0.0733322
0.0470408
-0.00770196
-0.000541951
-0.141714
0.0764968
0.0652172
-0.331399
0.272346
0.0590534
0.163706
-0.108074
0.0167916
-0.0372658
0.0204742
-0.0340946
-0.0779014
0.0024979
-0.00256141
0.0423482
0.00986571
-0.0522139
-0.0138293
0.052104
0.0136742
-0.0273466
0.0194594
-0.149431
-0.00378925
0.00840921
0.0112803
-0.342679
-0.019196
0.0172438
0.0929107
-0.234394
0.141483
-0.0331052
-0.0232291
0.0563343
-0.0167518
0.00349334
0.0132585
0.00262089
-0.0990714
-0.0879102
0.347497
0.000764491
-0.00592358
0.00515909
0.0815844
-0.143619
0.0620346
-0.0843843
0.0714576
0.0129267
-0.0519393
0.0374918
0.0344278
0.0190622
-0.05349
-0.201219
0.100326
0.146618
-0.0871017
-0.0595166
-0.077931
0.0477004
0.10653
-0.0572409
0.0241357
-0.278625
-0.0662344
0.344859
0.0732312
-0.0167547
0.302001
-0.210414
-0.0915868
0.0449679
-0.0365218
-0.00844614
0.229079
-0.114311
-0.114768
-0.299054
0.104927
-0.0110503
-0.00792288
0.0341174
-0.288354
-0.256016
0.193037
0.0971193
0.0918234
0.124351
-0.0619564
-0.0623942
-0.29459
0.0159655
-0.195377
-0.245608
0.0556478
-0.017851
-0.0698005
-0.0543493
0.12415
0.00924516
-0.00922203
-2.31374e-05
0.188979
0.0850907
-0.27407
0.113919
0.0487379
-0.162657
-0.0645697
0.105957
-0.0413874
0.0652663
-0.0176757
-0.124597
0.265994
-0.141397
-0.340016
0.181615
0.158401
0.0340871
0.0902819
-0.124369
-0.0291134
0.0877966
-0.0586832
0.00280378
-0.00175123
-0.00105255
0.0823781
-0.0499758
-0.0324023
-0.181696
0.0156094
-0.0704266
-0.107334
-0.0445982
-0.0211635
0.0657617
-0.011867
-0.0141554
-0.30389
-0.203613
0.259181
-0.0555679
0.0010156
-0.00724372
0.00622812
0.0123118
-0.0147649
-0.0157803
0.0317709
0.00326201
-0.00201365
-0.00124836
0.148344
-0.00625327
0.101211
-0.0647833
-0.146971
0.264065
-0.117093
0.00961979
-0.00037463
-0.0449482
0.0624295
0.0763246
-0.134966
0.0586414
-0.0688077
-0.0729063
-0.0149469
0.0492208
0.0169233
0.0727261
-0.0988885
-0.110149
0.209038
-0.0497229
0.070794
0.000846376
0.0171538
-0.0217839
-0.199139
0.108855
0.0411575
-0.105727
0.0322067
0.0568215
-0.0890283
-0.015407
0.150415
-0.135008
0.0920586
0.0721573
-0.101848
-0.0941563
0.0098806
-0.00325823
0.0384886
-0.027661
-0.0108276
0.227175
-0.116704
-0.0270509
0.0190759
-0.00685601
0.0315492
-0.0246932
-0.40574
0.281897
0.123842
-0.0503112
0.0132243
0.0370869
-0.0795199
-0.169819
0.249339
0.0477373
-0.0809874
-0.143459
0.0659985
0.0774608
-0.140473
0.282247
-0.141773
-0.00726424
0.0585711
-0.0513069
0.0139026
-0.021207
0.00730441
-0.135651
0.0810768
0.0545745
-0.0560423
0.00953285
0.0465094
-0.216944
0.137424
-0.079162
0.14257
-0.0634079
-0.0651161
0.141441
-0.105029
0.051442
-0.0301832
0.111768
0.0461032
0.0418209
-0.0879241
-0.305992
0.208887
0.0971043
-0.0301699
-0.1997
-0.18375
-0.0159164
0.0127726
0.044128
-0.0908903
0.0467623
0.1106
0.11672
-0.227319
0.0695602
-0.0573544
-0.0122057
0.0843924
-0.301765
0.217372
-0.00891533
0.0062271
0.00268822
-0.00591714
0.00404757
0.00186957
0.17744
0.175363
-0.352803
-0.00212736
0.000882239
0.285998
-0.0664692
-0.219529
-0.172387
0.0270406
-0.0984963
0.132583
-0.120935
0.298375
-0.050256
0.0818055
-0.0315494
0.0854539
0.0611644
0.253475
-0.142875
-0.0960532
0.104709
-0.27489
0.0687592
0.206131
-0.0996677
0.0836359
0.0160318
-0.0389181
0.0320621
0.270948
-0.122557
-0.0676801
0.165622
-0.097942
0.0212606
-0.00426641
-0.197466
0.395867
-0.198401
0.0632116
0.0819622
-0.02423
-0.053363
-0.00872245
0.0620854
-0.0746799
0.0464322
0.0282477
0.0426499
-0.0732802
0.0306303
0.145208
-0.0765708
-0.0686372
-0.113399
-0.116586
-0.112746
0.0717444
0.0410013
-0.0175878
0.0599361
-0.00498296
0.00635991
-0.00137695
0.0161716
0.00695218
-0.00614632
-0.00080586
-0.0518291
0.281875
-0.0716283
0.0257016
0.0459267
0.156555
-0.092884
-0.0636713
-0.0491337
0.125409
-0.0762752
-0.0116969
0.0253711
-0.0476531
0.0676491
-0.019996
-0.0598236
0.0733712
-0.0135476
0.252055
-0.0954322
0.0200559
0.0908037
0.00426677
-0.017314
0.0517418
-0.011486
-0.0489611
0.0604471
0.0716379
-0.0918925
0.0202546
0.00451333
-0.00020264
-0.00431069
-0.00457246
0.126046
-0.00599574
0.003769
0.00222674
-0.0428836
0.0527555
-0.00987192
-0.130823
0.0816895
-0.0716079
0.137535
-0.065927
0.0406599
0.0590022
0.0549036
0.0299347
-0.067647
0.12966
-0.0620133
-0.2207
-0.0602028
0.280903
-0.0384987
0.0840628
-0.0455642
-0.174999
-0.130993
0.0325396
0.0771194
-0.0603292
-0.0167902
-0.213641
-0.061249
0.0740031
-0.0313532
-0.000245355
-0.000705851
0.000951206
-0.290356
0.155042
0.135313
0.296599
-0.10762
0.0163158
-0.00487199
-0.0114438
0.0862982
0.0716998
-0.157998
0.241774
-0.168837
-0.0729367
-0.0745714
0.00579407
-0.0018616
-0.0020405
0.0039021
0.00938741
-0.00843707
-0.00095034
-0.0934497
-0.0500096
-0.0992807
-0.208001
0.307282
0.00672134
-0.00616811
-0.000553231
-0.047675
-0.036193
0.0838679
-0.0113273
-0.0503789
0.102946
-0.0984435
-0.0372078
-0.0438906
0.0899938
0.0397107
0.0913201
-0.131031
-0.0454215
0.0717129
0.170475
0.00245726
-0.00431886
-0.162954
0.0748154
-0.0356932
0.0536503
-0.105576
0.00261461
0.102961
-0.0584625
0.0507959
-0.142516
0.253417
-0.1109
0.00330953
0.0286604
-0.03197
0.103281
-0.221933
0.135781
0.0861518
0.0594531
-0.0426176
-0.0168354
-0.153152
0.137745
0.00237206
-0.00455347
0.00218142
-0.215334
0.00836884
0.206965
0.0385655
0.0140964
0.0482664
-0.184266
0.0513824
-0.266716
-0.052948
0.0594549
-0.00650695
0.312861
0.0365887
-0.00600611
0.00244835
0.1913
0.0504735
-0.0762235
0.0471102
-0.161157
-0.137897
-0.211222
0.34091
-0.0476854
-0.0198877
0.0675731
-0.00070903
0.0398181
-0.0391091
-0.030865
0.0408991
-0.0100341
0.00894277
-0.00587188
-0.00307089
-0.00216262
0.00453467
-0.0333256
-0.0409696
-0.041199
0.0821686
-0.0951458
-0.0997657
0.194912
0.165825
-0.0275559
-0.138269
0.00791183
-0.00689623
-0.00732118
-0.189913
0.122233
-0.00438942
0.00204142
0.00648592
-0.0054312
-0.00105471
-0.0388186
-0.0689011
-0.039218
0.0839659
-0.0447479
0.0586898
0.0586476
-0.117337
0.016189
0.00477488
-0.0209639
0.252854
-0.111621
0.0304574
-0.0887581
0.00680325
-8.1913e-05
0.0134075
0.00654191
-0.0617396
0.0222365
-0.00604754
0.155776
-0.041857
0.0590403
-0.123999
0.0649589
-0.272596
0.122054
0.150541
0.0288541
-0.0120625
-0.00179453
-0.000520474
0.00231501
0.0556394
-0.259253
-0.0463371
0.0140078
0.0323292
-0.0111886
0.0203348
-0.00914619
-0.108658
0.0568312
-0.00183655
-0.11439
0.0439398
-0.000903162
0.000657806
0.189628
-0.00508343
-0.184544
-0.0580917
-0.0164797
-0.0291677
0.041529
0.066942
-0.0211358
-0.0458062
0.0627578
-0.232716
0.181717
0.0509994
-0.00124548
0.000296536
0.000948948
0.0751271
-0.0419919
0.0947179
-0.0586696
-0.0360483
-0.311001
0.0932787
0.217723
0.0355531
-0.0844691
-0.309226
0.209945
-0.00997571
0.0552778
-0.0149718
0.103649
0.170094
-0.12599
-0.0441047
0.0890276
-0.158927
0.0698993
0.116992
-0.179046
0.062054
0.140154
-0.0327514
-0.107402
-0.0703775
-0.0292902
-0.0646991
-0.0589532
-0.0983314
0.155483
-0.0571521
0.0748847
-0.0119294
-0.0629553
-0.0737864
0.133302
-0.0595151
-0.0331739
0.0274585
0.00571541
-0.0445497
0.0126365
0.0319131
0.234955
-0.141139
-0.0571907
-0.106319
0.163509
-0.0310258
0.148018
0.221381
0.122817
0.002573
-0.0205626
0.00647987
0.100434
-0.0597029
-0.0407311
-0.166705
0.172822
-0.0733352
-0.0394105
0.127689
-0.21948
0.0917911
-0.147327
0.0713373
0.0759892
0.00205106
-0.00109099
-0.000960077
0.300527
-0.0487028
0.101433
-0.05273
-0.0902979
0.0325242
0.0577737
0.219003
-0.107221
0.120273
-0.226506
0.106233
-0.233303
0.128366
0.151874
0.0139512
-0.0683145
0.0149515
0.14679
-0.177816
-0.0509087
0.120655
-0.0545596
0.113249
-0.0407253
0.283637
-0.0654283
-0.167288
0.0107029
-0.0164147
-0.0165639
-0.00465809
0.399813
-0.19229
-0.207523
-0.161687
-0.0971085
0.258795
0.237094
-0.144184
-0.029519
0.108228
-0.0787088
0.112141
-0.0634198
-0.0118662
-0.00488555
-0.0900337
0.0297835
0.138185
-0.0626436
0.128846
0.0469471
-0.175794
0.0867397
-0.047934
0.00884072
-0.0290238
0.130844
-0.0573897
0.181369
0.138686
-0.304126
0.109558
0.194568
0.237488
-0.10098
-0.0596208
-0.0306771
-0.359715
0.160015
-0.0465598
-0.107291
0.153851
-0.00337775
0.0533582
-0.0499804
0.212927
-0.0494899
-0.163437
0.00243589
0.000965182
-0.00617871
-0.00129581
0.00747452
-0.0911125
0.163823
-0.0640854
-0.0997374
-0.0457172
-0.0479644
0.0936817
0.0631846
-0.0187496
-0.044435
0.0317887
-0.106468
0.0746788
0.030066
-0.0660507
0.0359847
-0.0383607
-0.036078
0.0744387
-0.0151868
0.00707373
0.00811307
0.0892975
-0.146488
-0.170686
0.28891
-0.118224
0.00162731
-0.107203
-0.00560258
0.00360847
0.00199411
-0.0910929
-0.00496032
0.101156
-0.223231
0.122075
-0.0559224
0.0136396
0.0422828
0.105132
0.170989
-0.276121
-0.219776
-0.0843502
0.0711143
0.0192252
-0.0215949
-0.0344474
0.10156
-0.069771
-0.0239661
-0.0645264
0.0181548
-0.18486
-0.0678287
-0.0465613
0.063013
-0.0320872
-0.0189224
0.1502
-0.174743
0.0506205
0.0273428
-0.0779633
-0.0354532
-0.0812985
0.116752
0.0507169
0.0124677
-0.106296
0.157034
-0.0507371
-0.103595
-0.0976237
-0.0212017
0.00589557
-0.109093
0.15733
0.000790135
-0.00101318
0.00393626
-0.125128
-0.113472
0.2386
-0.100559
-0.194235
0.294794
-0.0105425
-0.0340072
0.174986
0.0379409
0.08292
0.12651
-0.20943
0.00363432
-0.00119843
-0.0809814
-0.161773
0.242754
-0.00931001
0.00552076
0.234072
-0.115686
-0.118386
0.0141387
0.00959354
0.0584159
0.0478912
-0.0230625
-0.0507385
0.0738009
0.00347633
0.258161
0.125007
-0.312468
0.15131
-0.166088
0.104282
0.0618056
-0.215553
0.140218
0.0753355
0.228174
-0.0941488
0.0538581
-0.0930762
-0.231723
0.086922
0.144801
-0.302553
0.0856095
0.050924
-0.117618
0.0666937
0.0595692
-0.0416191
-0.0179502
-0.181803
-0.12075
0.075032
-0.21796
-0.0254512
-0.0694225
0.0948737
0.154643
-0.236401
0.0817585
0.218745
-0.114685
0.196476
-0.081791
-0.00143636
0.00019088
-0.15764
0.0194302
0.13821
0.309358
-0.239474
-0.0698844
-0.0316661
-0.0480339
0.160148
-0.165617
-0.201169
0.102281
-0.00717446
0.00099575
-0.0139351
-0.0363762
0.0393889
-0.132289
0.0767574
-0.0573969
-0.0193605
0.253849
0.0555093
-0.121243
0.0626492
0.0585942
-0.122225
0.0867718
0.341986
-0.0463594
-0.295626
-0.0593294
0.071073
-0.0117436
0.0178055
0.000873732
-0.0186792
-0.0344719
-0.0227033
0.0571752
0.0381245
0.056818
-0.0509119
0.108585
0.194724
0.107277
0.000391786
-0.254081
0.1731
0.0129721
0.0319958
0.1454
-0.326634
0.181234
0.128049
-0.0526367
0.169499
-0.0982764
0.154355
-0.354498
0.200143
-0.0780089
0.0280331
0.095594
-0.0410265
-0.327142
0.155246
0.274641
-0.104174
-0.170467
-0.0611635
0.0496775
0.00614926
-0.00897172
0.00282246
0.131868
-0.0502273
0.15503
-0.0785332
-0.186199
0.113516
0.0726826
0.0449125
-0.0148465
-0.193858
0.289964
-0.0961065
0.025137
-0.0203167
-0.00482036
-0.0536928
0.193258
-0.132976
0.0717138
-0.106769
-0.0614675
-0.0553323
-0.0207512
0.0760835
0.105804
2.09918e-05
-0.00237849
0.0023575
-0.0579623
-0.0942313
0.152194
0.0618505
-0.14663
0.0847792
-0.0603559
0.123823
-0.0634672
-0.121445
-0.0971682
-0.0629237
-0.0507301
0.0640068
-0.0132767
0.124221
0.0214407
-0.145662
-0.0662129
0.126963
-0.0607499
0.079232
0.0845908
-0.00983729
-0.0352495
0.0450868
0.0275438
-0.126211
0.0986676
0.00419507
0.0143957
0.00451589
-0.00525684
0.000740948
-0.0566924
0.0735613
0.0708219
0.102025
-0.172847
-0.100212
-0.0554174
-0.187497
0.0923513
0.0122358
0.00904026
-0.021276
0.154883
-0.0767754
-0.0781077
0.127924
0.0027524
-0.130677
-0.109977
-0.105576
-0.0523967
0.00528443
-0.000768544
-0.38714
0.189674
-0.173202
0.0664957
0.106707
-0.0869927
0.157618
-0.0706256
-0.107976
0.0592728
-0.00214814
0.000769083
0.000830339
-0.117235
0.0381647
0.0790701
-0.00144476
0.00251827
-0.00107351
0.0504333
0.351855
-0.117331
-0.234523
-0.0458917
0.0740182
-0.0281265
0.0990208
0.0578672
-0.156888
0.00204314
-0.000502537
-0.00154061
-0.377138
0.15019
0.226949
-0.0613882
0.0407328
0.0606973
0.119367
0.00485445
-0.00894223
-0.0242316
-0.121099
-0.145567
0.10042
-0.0677608
-0.0326588
0.0760715
0.0243625
0.00750832
0.0176287
0.206225
0.0403708
0.0463311
0.0502336
-0.159893
-0.00666522
-0.00852158
-0.0661089
0.0215106
-0.250386
0.140233
0.110154
0.130383
0.0310014
0.0565026
-0.0242272
-0.076555
0.026299
0.0747833
-0.0136455
0.0775851
0.0600356
-0.137621
-0.0107801
-0.00583365
-0.12535
0.273678
-0.148329
-0.0883256
0.0211959
0.0671297
0.111483
-0.309238
0.119108
-0.0558575
-0.0632501
-0.127014
0.088711
0.0424631
-0.0291373
-0.0731102
0.155951
0.077516
-0.0292906
0.000784072
-0.29507
0.0445092
0.250561
-0.112799
-0.118548
0.231347
-0.351429
-0.0161936
0.0149546
0.00123898
-0.216217
-0.170923
0.0688284
0.0555221
-0.0448707
-0.0325941
0.0774648
-0.0711867
0.0156708
0.0555159
-0.0470631
-0.0483278
0.0953909
-0.0206961
-0.0247367
-0.090932
0.13766
-0.0467276
-0.0129961
-0.00756653
-0.38568
0.224569
0.161111
-0.24448
0.11913
0.044683
-0.10179
0.0571069
0.0769943
0.157078
-0.00145856
-0.00150331
0.00296187
0.217762
0.150345
-0.368108
0.0978025
-0.037409
-0.0603935
-0.107816
0.13536
0.0414061
-0.0228155
0.0214391
0.0009972
0.152549
-0.266356
0.113807
-0.0330508
0.0882152
-0.0551644
-0.0782565
0.0137704
0.0644861
-0.0567981
-0.0416495
0.113597
-0.225462
0.111865
-0.0353206
-0.0206018
-0.00954862
-0.148091
0.269641
-0.185249
-0.00845743
0.00974661
-0.00128918
0.00116441
-0.0904313
-0.00754435
0.0979756
-0.175301
-0.230439
-0.0541847
-0.0301996
0.0759817
-0.357532
0.263257
0.0942747
-0.166096
0.0597994
0.121216
-0.0593659
-0.0462988
-0.0491477
0.0954465
0.00185187
0.00605997
0.0885466
-0.228297
-0.278226
0.125988
0.152239
0.157266
-0.0864441
0.0851751
-0.0515195
-0.0505021
-0.0570326
0.107535
-0.00205411
0.00840418
-0.00524668
-0.0031575
0.053662
-0.0251246
-0.0285374
0.0939611
-0.0498331
-0.124207
0.293752
0.00335709
-0.102236
0.0691852
-0.300583
-0.0850969
0.0245314
0.165096
0.0303818
-0.0747948
-0.00425539
0.13218
0.0285951
-0.063067
-0.404712
0.149699
0.255013
-0.0544565
0.0191359
0.0747282
-0.134753
0.0600252
-0.100778
-0.0465481
-0.17044
0.0719434
0.000436638
0.0113603
-0.011797
-0.00155501
0.0412223
0.0293922
0.0116232
-0.00628256
-0.00534067
0.0108693
-0.00372338
-0.0813076
0.00106881
-0.00798099
0.148116
0.0237087
-0.171825
-0.00101047
0.00605187
-0.00504139
-0.0753477
0.146418
-0.0710702
-0.0641223
0.0849598
-0.0208375
-0.00659529
0.00793283
-0.00133753
-0.00272194
0.00126339
-0.0656437
0.0230122
0.0426316
-0.260206
-0.0348641
0.311459
-0.175578
-0.135881
0.00121802
0.0110982
0.0116966
-0.292971
-0.0623561
0.355327
-0.135081
0.0330997
0.101981
0.110629
-0.0597046
0.120613
-0.0492753
0.0861065
-0.125293
0.0391866
-0.0625546
0.0290722
0.0334824
0.00624664
0.0279707
-0.0342173
0.0439764
0.00369669
-0.105339
-0.10284
0.20818
-0.298174
0.123175
-0.0450276
0.131134
0.00783644
0.0544356
0.247042
-0.0590228
-0.00595024
0.0072063
-0.00125606
0.040574
0.0839729
-0.124547
-0.0417001
0.0958376
-0.0541375
-0.0592892
-0.0290364
0.129974
0.111368
0.000171192
0.000314121
-0.000485313
0.00451223
0.0132932
-0.107794
-0.201432
-0.0687736
-0.0939435
0.162717
-0.234824
-0.169887
0.0658044
-0.267393
0.0120496
-0.00254046
-0.202208
0.0982118
0.103996
-0.112027
-0.161951
-0.00852416
0.290486
-0.0413374
-0.249149
0.0435323
-0.140268
-0.0379362
-0.00134536
0.00310804
-0.00176268
-0.0671049
-0.0663012
0.133406
-0.0886644
-0.00320555
0.0918699
-0.00181127
-0.0143823
0.166821
0.088201
-0.00290397
0.00486617
-0.00196221
-0.0467818
-0.0278981
-0.268428
0.139484
0.111102
-0.213119
0.102017
-0.0304191
0.0577311
-0.027312
0.000606301
-0.301001
0.00803044
0.310892
-0.116167
-0.154678
0.202945
0.0445394
-0.101422
0.0568827
-0.0573937
0.0468512
0.344205
-0.18985
0.000239671
0.000754339
-0.00099401
-0.0425786
0.0551753
-0.15056
0.0953849
0.0394489
0.0198473
0.091013
-0.158118
0.0794188
-0.0472121
0.0272853
0.120831
0.0656448
-0.0331591
0.0632468
0.0427103
-0.00811135
0.0123074
-0.00419609
-0.31373
0.205937
0.0464661
-0.176534
0.130068
-0.190996
-0.168719
0.247509
-0.138419
-0.109091
0.0778293
0.193726
-0.110806
-0.0585876
-0.0417764
0.100364
-0.0175196
-0.0587889
0.0763084
-0.0359131
-0.0333846
0.236283
-0.13099