/*--------------------------------*- C++ -*----------------------------------*\
| =========                 |                                                 |
| \\      /  F ield         | OpenFOAM: The Open Source CFD Toolbox           |
|  \\    /   O peration     | Version:  v2012                                 |
|   \\  /    A nd           | Website:  www.openfoam.com                      |
|    \\/     M anipulation  |                                                 |
\*---------------------------------------------------------------------------*/
FoamFile
{
    version     2.0;
    format      ascii;
    class       volScalarField;
    location    "100";
    object      ddt0(k);
}
// * * * * * * * * * * * * * * * * * * * * * * * * * * * * * * * * * * * * * //

dimensions      [0 2 -3 0 0 0 0];


internalField   nonuniform List<scalar> 
53008
(
7.52542e-08
0.000105683
8.40928e-09
7.44876e-07
-0.000543695
0.000433434
4.3526e-08
7.51308e-08
-1.04928e-07
7.44182e-08
-2.47963e-06
1.20256e-07
0.00115114
0.00592718
9.23277e-08
-1.99702e-08
4.99793e-08
-2.07209e-08
-0.00312104
-3.01727e-08
7.79248e-08
-6.27723e-08
1.10798e-08
1.5307e-08
8.66221e-08
1.69719e-06
0.00616361
9.81724e-08
-1.06441e-05
-2.74821e-06
-9.11519e-06
0.00808622
-0.000677456
-1.25528e-07
1.99478e-09
-7.29227e-08
-1.28317e-07
-1.57952e-11
8.63949e-09
-1.23572e-07
-1.27994e-07
-0.00604939
-2.61167e-06
-0.000672061
-3.23126e-08
1.03373e-08
1.91027e-08
-4.62038e-09
-1.22499e-06
-1.56963e-08
9.25072e-09
-1.74742e-08
8.39269e-08
1.97929e-08
-4.21565e-07
-0.00275001
-2.6216e-08
-2.69189e-09
2.34869e-05
-4.83355e-07
-3.1644e-08
-8.28101e-08
0.00165428
0.000260588
-4.92721e-06
-5.71251e-09
-2.57733e-06
1.47711e-08
1.22836e-09
-1.64002e-08
-0.00051537
-4.26247e-09
2.46732e-08
-0.000639651
4.39144e-05
1.11427e-10
-5.46763e-10
0.000429424
-1.78403e-08
-0.000430183
0.000417521
0.00206827
-4.34677e-06
-8.00205e-07
-2.37554e-08
-1.85347e-08
-7.77399e-06
-1.04697e-07
3.17774e-09
-1.03488e-07
-0.000629322
0.00100569
0.00215695
4.50459e-07
-0.00245458
-3.4771e-06
0.00690532
1.42444e-08
0.00485131
0.00199247
-2.85989e-08
-1.26063e-07
5.29656e-07
8.7761e-08
7.75291e-08
0.000407491
0.000194935
-1.66542e-07
-1.82935e-06
-5.37673e-09
-2.57914e-07
5.52841e-05
-4.73389e-10
-0.00223384
0.00844091
6.77994e-09
3.53306e-08
-8.32295e-09
1.0288e-05
-0.000629823
-0.000571774
2.23817e-08
-1.16043e-07
-3.73987e-06
0.000400172
-5.01235e-08
-0.00042309
-4.91971e-06
-2.46549e-07
9.17209e-08
0.00331902
-4.98527e-08
-1.38554e-06
-2.15399e-08
-1.48666e-08
-4.68732e-06
4.09439e-09
0.0010943
7.88848e-08
3.68613e-08
-2.59485e-08
4.01343e-08
-1.75101e-08
1.42821e-05
-2.71284e-07
9.0302e-10
3.33703e-08
2.65788e-09
5.5347e-08
-9.10506e-08
-4.54277e-09
0.00170364
-0.00045927
-1.64311e-07
-4.02484e-10
8.47152e-08
0.00332838
-0.00109034
-2.7139e-08
-1.4531e-05
3.23628e-07
-1.56768e-08
2.82741e-09
0.00100949
7.18218e-08
1.30059e-12
2.87031e-08
-3.46235e-08
-1.64264e-08
3.75546e-08
2.17011e-08
0.0055642
-0.000836295
-3.24217e-08
6.3486e-07
-2.43926e-08
-1.79692e-08
-3.28023e-06
1.29983e-06
-1.11311e-07
-1.16153e-07
7.21845e-08
-0.000671738
6.72274e-08
8.26234e-08
0.000260919
0.00179344
-0.000687728
5.14465e-06
3.04263e-09
4.72978e-05
-1.12996e-07
-5.42599e-06
-0.000564254
-4.18205e-08
-3.55113e-08
3.86174e-08
-6.34905e-09
9.82348e-10
-4.98399e-09
4.88889e-07
-7.10315e-08
7.18365e-08
7.09469e-08
-3.59498e-06
-0.000677806
4.21572e-08
4.50959e-09
1.73011e-07
-1.20043e-08
0.00018071
-1.21983e-07
-1.63945e-05
9.85228e-09
-1.77803e-06
-1.62336e-08
8.31407e-09
1.02388e-08
2.61823e-07
2.14889e-08
-9.10117e-06
-4.58151e-09
-4.28854e-06
-4.429e-09
6.82552e-09
-2.39771e-06
-8.69737e-08
3.12132e-08
-5.50946e-08
-2.51648e-08
-0.000149545
0.00949875
4.12557e-08
0.00890695
3.85951e-07
0.000438763
-3.40055e-09
-1.55987e-08
-3.63189e-05
-1.65165e-08
-4.77985e-08
-1.26155e-07
7.9548e-06
-8.9434e-08
6.5829e-08
-4.902e-10
5.3045e-07
-8.03251e-06
-9.62492e-10
-4.58066e-07
8.09294e-08
7.54027e-08
7.38773e-08
-2.5636e-09
-9.65405e-08
0.00184204
1.2777e-06
5.64276e-08
2.5474e-07
-1.76201e-08
-0.000231417
9.62009e-06
-3.96023e-08
2.10562e-09
-6.08234e-08
0.0043816
-0.00208641
1.72478e-09
0.00158509
-4.5344e-06
4.11543e-08
-2.58094e-08
8.57726e-08
7.57959e-06
-0.000609907
1.26323e-08
-3.49402e-06
0.000400636
-3.66018e-07
-1.46492e-08
1.07058e-08
-9.02355e-12
-3.73741e-07
1.10093e-07
-3.75591e-09
4.6499e-08
1.33122e-07
5.57323e-05
3.29286e-09
7.06173e-08
0.000109252
0.00306025
4.03833e-07
0.0100426
-9.93307e-06
2.14818e-09
7.54989e-09
-3.86762e-06
0.00158496
3.81924e-09
4.05403e-07
7.76942e-05
-0.000357831
-0.000622001
-3.16708e-09
0.000101738
7.43954e-08
5.53506e-08
5.74581e-09
2.44788e-07
-8.49468e-05
1.41387e-06
0.00513831
-0.00065003
-1.03574e-06
1.62236e-07
-8.24576e-13
1.64615e-08
1.18068e-08
1.93951e-08
-3.78881e-06
-0.00595275
-1.13828e-07
-0.000604125
-0.000100639
2.29308e-08
0.00354449
-1.82675e-08
-1.48507e-09
3.75331e-08
0.000945331
-4.80484e-08
-4.34746e-11
-6.5756e-08
8.17309e-09
-8.54053e-09
-2.76354e-06
3.10215e-09
0.00720466
3.53861e-08
-2.82721e-11
-1.42937e-08
3.27161e-07
-8.11353e-08
9.05526e-08
0.0040845
3.42427e-08
0.00054573
-9.259e-06
0.000808437
4.72983e-06
-0.000643151
-6.57833e-10
1.3849e-08
-7.08171e-05
-0.00316074
-5.82588e-08
1.85038e-08
-4.67892e-05
-0.00221423
-1.2199e-08
1.40048e-07
4.16864e-09
-8.21794e-05
3.38838e-07
0.0021195
8.45002e-09
-1.91591e-07
-8.45967e-08
-4.90361e-08
0.00175912
-5.25657e-08
-2.94849e-06
-7.91873e-06
3.42879e-07
3.85094e-08
-3.80469e-07
-3.37038e-06
0.00464318
0.000962521
3.4224e-09
-7.63118e-08
5.2882e-08
-2.108e-08
-0.00254013
1.59258e-08
7.65498e-08
0.00318913
-5.99065e-08
0.0094365
0.000342238
7.50613e-10
-7.43322e-08
-8.53782e-08
-1.06197e-07
-1.37262e-07
3.40283e-08
3.72271e-07
-3.03948e-07
-0.000408675
-1.14835e-07
-1.81888e-08
8.41231e-08
0.000523241
-1.67654e-08
2.02943e-08
5.76694e-09
1.40574e-08
-7.86686e-08
7.08903e-08
7.78272e-09
-3.0429e-06
-4.23459e-09
3.26944e-09
-8.00156e-08
-0.000587397
3.08996e-09
-8.93386e-05
3.37016e-08
-3.49582e-08
8.77796e-09
8.65833e-08
-1.13552e-07
-1.46305e-08
-6.2252e-06
-4.62209e-09
-5.09478e-08
-3.94622e-08
4.28756e-06
1.04638e-08
-9.79292e-06
0.000810714
1.18792e-05
-1.57834e-08
9.54027e-07
-7.55071e-08
3.82133e-05
5.80739e-08
0.00157441
5.09238e-08
3.71871e-09
1.61091e-07
-4.26705e-06
-5.03935e-07
4.14141e-08
3.36095e-07
-0.000149424
4.02875e-07
-6.44162e-09
-1.62105e-05
0.000557911
-1.33065e-07
-0.000587386
-3.1177e-08
3.71806e-08
1.40554e-06
3.58362e-08
2.25029e-08
-6.54659e-10
7.10911e-09
-1.04887e-05
-0.000809784
9.83139e-09
-5.17289e-08
-6.8943e-06
7.7835e-08
-7.46276e-08
4.14829e-05
-2.14936e-08
9.35311e-08
1.63112e-07
-8.89675e-08
8.25494e-08
0.00246011
-4.56957e-06
-1.99914e-06
-1.08168e-07
-8.33972e-08
6.91275e-08
-0.0026791
0.000496087
-3.86468e-06
-6.27812e-08
-5.20431e-08
-1.77838e-06
9.06749e-09
6.29537e-08
-8.84243e-08
-8.25551e-07
-3.29588e-08
-5.68478e-08
-5.84847e-08
-0.000408082
-3.60053e-09
1.36283e-08
-4.27908e-06
-1.91471e-10
0.000180341
-5.46429e-08
-8.95061e-11
2.4376e-08
-2.15459e-09
0.00908131
5.84678e-07
-5.11053e-09
-4.81222e-06
-4.23001e-06
-1.01455e-09
7.78667e-08
-3.70332e-07
0.00105707
8.45896e-08
5.93844e-09
3.36729e-09
6.08751e-07
0.00291959
7.3874e-10
6.92479e-08
7.49044e-09
0.000278623
4.99787e-08
-0.000132879
1.49207e-08
1.8868e-07
4.98223e-08
-4.75171e-05
-1.01451e-06
-8.59793e-08
0.00633075
-6.18955e-11
-2.44861e-06
5.48582e-08
1.92778e-09
0.000481178
7.49686e-08
-3.61099e-08
-3.33859e-07
-4.50704e-08
-2.21492e-08
-4.47609e-08
3.15745e-08
0.000385339
6.67869e-08
-9.29721e-08
0.010027
-4.15478e-08
7.1467e-07
-1.74834e-08
-4.58217e-08
3.3421e-07
-0.000632441
-1.08723e-05
8.65654e-08
-0.00400978
-2.33874e-09
8.7137e-10
-0.00107829
-1.35374e-07
7.02571e-08
-5.95683e-08
3.70047e-08
-0.00281443
-1.08986e-07
4.29343e-07
-5.24369e-08
-7.88632e-08
-1.85119e-06
4.2739e-08
4.21178e-08
-1.18593e-07
-1.04689e-07
0.00521239
-4.28207e-06
2.30621e-08
6.03506e-08
-1.67527e-08
5.1879e-09
-3.39582e-07
1.44414e-07
9.18341e-08
-1.35322e-07
-6.0904e-09
-5.29272e-08
-3.90542e-08
7.17122e-06
0.00035335
1.23322e-09
-2.53491e-08
-5.89606e-06
-6.82372e-08
2.20719e-08
-1.17475e-08
3.94641e-07
3.39107e-08
-0.000149899
8.96164e-08
-0.000605207
2.10714e-07
-3.38518e-08
-0.00273492
0.000379063
-9.87198e-07
1.63435e-08
-7.82767e-07
-3.67589e-06
0.0031314
7.84303e-08
-8.70017e-08
-8.15754e-06
2.94028e-08
8.04358e-08
8.5776e-08
0.000121455
-8.96166e-10
-0.000416095
-2.10348e-08
6.85615e-09
3.64327e-09
6.10438e-08
4.32163e-08
-0.00300277
-0.000967278
7.36171e-09
0.000269512
-6.41653e-08
-5.74763e-11
-1.44484e-08
1.96104e-08
-2.05077e-06
9.22831e-08
-7.7828e-08
2.82493e-07
-0.000440799
2.73763e-05
1.71565e-12
-7.85134e-08
-1.82133e-08
8.40415e-08
-1.15493e-07
0.00036831
0.00012603
0.000354499
0.00439716
-2.24782e-08
2.06524e-08
8.82131e-08
7.93004e-09
-9.95124e-07
-2.37536e-08
1.22615e-08
9.93516e-09
7.74671e-09
-3.55146e-08
-3.60678e-08
4.40085e-08
-0.00364805
8.96329e-08
-6.34918e-09
4.98185e-09
-5.10671e-08
-1.52438e-06
-0.00651153
1.93516e-07
-9.61945e-09
0.0037675
-0.00066296
-7.71236e-05
-0.00124686
-1.21778e-07
-9.79091e-09
0.00102463
-0.000556777
-2.82347e-08
0.00137889
-3.26099e-09
-1.16399e-07
6.03255e-09
-0.000539349
-8.08947e-07
-4.6207e-08
7.33849e-07
8.77541e-08
3.33116e-08
-0.00379096
2.406e-08
-6.23486e-08
-0.00034526
4.78903e-08
-4.11267e-08
8.68585e-08
-6.92744e-08
-4.53456e-07
1.84313e-05
-2.49466e-08
4.32738e-08
5.4846e-08
-5.4018e-05
-7.7156e-07
-1.20032e-07
7.42906e-09
-0.000220176
2.21239e-08
-5.05074e-08
-2.28315e-08
2.51143e-08
5.55218e-08
2.09431e-09
7.56114e-08
1.51861e-08
1.48963e-08
7.63282e-08
2.02777e-06
-2.0013e-08
6.18424e-07
-7.2756e-08
0.000784523
5.63194e-08
4.99946e-05
-2.99724e-09
-0.00658513
-3.79404e-11
-1.23304e-09
-9.67922e-06
3.84265e-08
0.000371102
-3.18799e-08
-3.43502e-08
0.00452181
-2.26025e-06
1.58141e-08
-0.00064462
3.02443e-08
-1.21959e-07
-0.000247223
-5.25355e-08
1.53622e-06
7.81077e-07
-3.97814e-08
-4.35755e-06
-1.05311e-05
-6.05045e-08
2.7509e-06
8.66405e-09
8.56847e-08
5.49042e-10
2.09401e-08
1.49331e-07
2.54516e-08
-1.53802e-08
-2.00756e-10
3.81559e-06
3.36708e-07
2.83536e-08
2.70962e-08
-1.36862e-08
-4.23579e-09
0.0094398
1.26844e-06
-1.90786e-06
-2.96157e-06
-0.000355873
-2.24042e-06
-1.91247e-08
0.000772888
-7.96973e-09
2.92588e-09
0.000387205
0.00012908
-9.82644e-10
-5.69188e-06
0.00839395
9.48665e-08
-7.19419e-08
-4.58452e-05
-2.38382e-06
0.0082711
9.39443e-08
3.10324e-08
-0.000797122
-6.00506e-06
-1.12962e-05
-4.30146e-08
-7.55098e-10
-3.83464e-08
8.13456e-05
6.12384e-08
-3.11247e-05
-1.23175e-06
-9.66244e-08
-2.13552e-07
0.000493044
-0.00714827
-1.1194e-07
-5.79607e-05
3.59199e-08
-5.69027e-08
-0.000603826
-2.76908e-08
-0.000683224
-1.04613e-08
7.05119e-08
0.00132266
3.1221e-08
-1.22844e-06
-9.34592e-08
-1.11455e-08
-4.10434e-08
-1.85724e-06
-6.82524e-06
-6.3531e-09
-2.56647e-08
-0.000686828
-5.67882e-09
-0.00399407
-2.98304e-08
-1.12454e-05
1.3596e-08
-7.10576e-08
-0.000383294
2.57377e-07
3.29252e-06
-0.000756332
-4.31529e-08
0.000131011
1.44407e-07
4.39514e-08
-0.000654186
8.28566e-08
1.76265e-08
7.42244e-06
1.65881e-06
-5.0001e-08
-1.24256e-08
4.79754e-08
-4.7565e-10
8.62457e-09
-2.02084e-06
-0.000377962
-0.00448396
-1.3231e-08
-5.01965e-08
1.99534e-08
-5.10105e-06
3.72343e-10
-0.000426634
4.3468e-05
0.000811352
-6.60278e-07
-5.24749e-08
3.75605e-08
-0.00041382
8.77482e-08
-5.84579e-08
-5.60754e-08
1.46947e-08
-5.56614e-08
4.21576e-08
3.41645e-08
2.68875e-08
1.06372e-08
7.34943e-08
-2.26071e-08
-3.28428e-08
8.49116e-06
2.7337e-07
-2.46567e-08
1.1683e-08
4.80588e-05
-0.000789621
8.49729e-08
1.51055e-05
-1.00793e-07
-4.14151e-08
1.10591e-06
-1.13863e-08
7.91645e-08
1.21506e-08
8.67602e-08
-2.71341e-08
2.57746e-06
-2.14261e-08
-1.07602e-08
-2.80521e-08
3.40706e-09
0.000804963
-5.458e-08
-8.88103e-09
8.63487e-08
6.25808e-09
1.86312e-07
-1.66749e-08
0.0059504
-1.04805e-05
1.63037e-08
-0.00687316
1.43427e-05
7.7737e-07
3.27231e-10
-0.000158644
0.00079339
-4.95079e-08
-6.00147e-08
3.41662e-08
0.00793048
-2.54403e-06
-6.52019e-08
-8.37504e-05
-3.67596e-05
4.77588e-08
3.78506e-08
7.27062e-08
-2.27492e-07
-3.67514e-08
7.04804e-09
-2.24161e-09
-6.29814e-09
2.67642e-08
-8.9438e-05
3.66827e-07
7.58676e-08
-0.000128571
0.00596214
-5.33739e-09
7.20159e-08
-9.61661e-08
9.68187e-08
-0.000153986
-0.00126089
-0.000403121
-1.23776e-06
8.27732e-08
-4.9648e-06
-1.10708e-05
5.58124e-05
8.51175e-08
-4.49766e-07
2.20477e-08
-4.27882e-08
0.000335168
-1.31324e-08
-8.15319e-05
-5.77658e-06
-2.49829e-08
-1.2712e-07
-1.14001e-08
-0.000832718
-3.96598e-08
-6.40915e-07
1.96345e-06
-1.99324e-08
0.00172488
1.95963e-09
-3.28581e-10
0.00155646
-8.15204e-08
4.5881e-09
-9.2852e-05
0.000776269
-1.56877e-08
-3.4157e-06
-8.55284e-09
1.88775e-07
1.01046e-08
2.3161e-08
0.000190847
0.00048725
5.11925e-07
1.54875e-09
8.27313e-08
0.0057348
-9.7653e-08
-5.93677e-09
-3.12907e-10
7.43741e-09
-1.43197e-08
-1.09749e-06
-3.22407e-08
0.000487996
-9.42108e-08
-2.17687e-07
-0.000312588
-1.44016e-08
2.23745e-08
9.63139e-08
-3.2191e-06
4.05633e-07
-0.00104034
-0.00014428
1.21584e-06
0.00792393
1.80751e-08
-9.60122e-09
-2.18041e-07
-2.42767e-08
4.73537e-08
-1.36351e-07
1.87133e-08
-1.31048e-06
8.74623e-08
8.76253e-08
-1.58704e-06
-8.61226e-08
0.000497271
2.22574e-08
1.23655e-08
-1.37259e-08
8.52993e-09
-5.59948e-07
9.79072e-08
-8.84385e-08
-3.76146e-07
5.74465e-07
0.00143479
5.59566e-08
9.19964e-07
7.39901e-07
-1.65389e-09
3.80541e-09
3.45472e-06
3.69848e-08
2.81649e-08
-0.00065217
-1.15774e-05
5.02971e-07
-1.06466e-08
0.000289986
-4.11968e-08
2.52449e-05
6.22186e-08
-3.32373e-08
5.24168e-07
1.79404e-08
1.95594e-06
-7.89099e-05
6.01517e-09
-2.40129e-06
7.26485e-08
3.40089e-07
0.000780639
7.69804e-09
-4.16638e-06
-0.000192439
-1.83833e-08
-5.6167e-05
2.39339e-06
-0.00271328
3.86654e-08
-9.77173e-08
2.96254e-06
-5.26376e-07
-1.64987e-08
-2.13061e-08
-2.6978e-07
-0.00659537
2.23786e-08
-4.23157e-08
-0.001138
-8.49887e-08
-4.76655e-08
-0.00154999
5.4387e-09
9.0351e-08
-0.000741436
-0.000170992
-0.000794368
-5.933e-09
7.59046e-08
8.60322e-09
-1.31887e-08
-7.01607e-09
1.12541e-06
-0.000560204
-1.00353e-07
-3.46384e-06
6.6582e-09
0.00878127
-1.07053e-08
-2.66358e-08
-9.36718e-08
-3.63378e-09
-0.000329311
0.000752612
1.3802e-08
-2.8749e-07
-4.76038e-08
2.39297e-07
2.24272e-09
8.3715e-09
5.08694e-08
8.89745e-09
-3.52166e-06
-3.8183e-08
1.05758e-06
-5.70615e-06
8.44997e-09
-4.31737e-07
7.87556e-08
5.35946e-08
-0.000107136
2.1941e-08
-5.06862e-07
0.00110636
1.06224e-06
2.92733e-09
-0.00425909
-1.05223e-07
-4.44829e-08
1.79988e-09
-0.00214244
1.95516e-09
-0.000321333
-6.5798e-09
-2.90111e-08
0.000276466
1.98404e-07
1.13407e-07
-9.61114e-09
3.08355e-08
0.00917473
5.30269e-09
6.04503e-09
-0.000485113
0.00629414
-3.1732e-07
-0.000711193
-2.54581e-08
-3.53746e-06
6.15736e-08
-6.95467e-08
1.96657e-07
-0.000570068
-0.00302559
-4.44602e-07
1.24917e-08
-0.00333286
4.68229e-08
2.25327e-05
0.00577223
2.31877e-09
0.00855396
-0.000259053
2.33255e-08
0.00554235
-6.08312e-10
2.14461e-09
9.4171e-09
-2.52893e-07
-0.00310909
1.26207e-06
5.41995e-08
0.0118545
6.8765e-08
1.60472e-08
1.52997e-06
2.11935e-08
2.03159e-08
7.1079e-09
5.24885e-07
-5.6475e-08
8.73265e-08
-0.000281435
0.00610235
4.80389e-09
-3.99679e-08
-2.57643e-10
-0.00272642
9.15438e-08
1.48116e-07
-1.03973e-08
1.88881e-08
-2.18319e-08
0.00480862
2.86139e-10
0.000768058
-1.73908e-06
1.72876e-08
-2.9203e-08
7.20437e-08
1.66404e-07
-0.00675873
-6.13566e-09
-8.78444e-09
-1.36397e-07
1.22437e-08
1.24516e-09
-0.000814117
0.00409803
-0.000166028
2.1833e-08
-1.0284e-07
-9.81318e-07
-0.00723327
1.75725e-07
-3.36502e-06
8.45428e-08
0.00105527
-9.77811e-08
1.77684e-07
0.00080227
9.46909e-08
3.44985e-09
-9.62457e-09
4.58675e-09
-0.000221657
1.77353e-08
-8.46321e-07
0.0116129
2.13823e-08
-3.42899e-08
-3.98626e-05
-1.03982e-08
4.2279e-10
-1.33261e-07
3.45149e-08
6.33395e-09
6.72056e-08
6.50201e-09
-2.88554e-08
2.53777e-07
5.4916e-09
-2.41761e-08
0.000136208
3.1203e-08
3.34247e-08
-4.61329e-08
9.33789e-08
-3.37939e-09
-1.03902e-08
-0.000810701
3.59154e-09
1.85888e-07
7.52988e-07
-1.09256e-08
-3.94102e-12
-1.40502e-08
-5.97934e-08
6.5145e-09
1.73618e-06
7.1809e-05
7.95847e-08
9.1428e-08
1.60156e-08
-6.9478e-09
-4.90418e-08
-0.00394213
3.41248e-06
-1.65444e-08
9.29516e-08
0.000748652
-2.84665e-08
-0.00286463
-4.94287e-08
-0.00456982
-1.13123e-08
3.7353e-08
0.000887977
0.000807346
-3.17079e-08
-2.45789e-08
-6.76137e-09
-1.1667e-08
-7.98988e-05
3.03247e-06
0.000784789
8.8663e-08
3.07416e-08
3.25856e-08
-5.53445e-08
0.00396448
3.53173e-08
4.33189e-09
0.000733102
8.81317e-08
-3.53616e-09
1.4724e-09
-6.21658e-09
-2.30426e-08
-1.21612e-07
0.00114761
1.98357e-08
-7.55843e-05
0.00426172
7.45842e-08
4.73839e-09
0.00129946
0.000512692
5.4363e-09
-1.83431e-07
-0.000755981
1.20822e-09
1.41775e-06
-1.30437e-08
-6.6804e-07
-4.59436e-07
8.58092e-06
-5.29954e-08
0.00162371
3.03209e-07
4.4176e-09
2.9983e-08
4.09798e-08
-4.79221e-08
-5.43379e-08
0.0100857
-2.6663e-09
-3.98657e-10
-3.73834e-08
0.000284354
7.5611e-08
-2.81602e-08
-5.08855e-09
-0.000135964
0.00134168
-1.02575e-05
-0.000121478
0.00591268
5.37611e-08
1.19743e-06
1.19554e-08
8.33797e-08
-1.66828e-08
-2.96685e-06
-8.66582e-11
-3.12346e-06
3.3084e-08
7.27993e-08
0.00109868
7.30641e-08
-1.49914e-08
0.000916225
6.43957e-08
8.58799e-10
2.69848e-09
-2.31133e-08
-0.00692995
2.35428e-07
6.04696e-08
2.63572e-08
4.10406e-08
0.000602779
-4.55173e-06
-3.24816e-11
-0.000685141
-1.25434e-07
-1.86566e-08
-0.00662696
-1.28054e-09
-0.000538404
1.06326e-08
-0.000172346
-1.18819e-07
-3.84673e-08
-0.00329537
-2.90398e-08
-5.36299e-08
4.26681e-09
-0.000617795
-0.00295092
6.66752e-09
6.89643e-08
4.07436e-07
0.00328288
-0.000272197
-0.00164189
0.00051481
3.18277e-08
-9.51228e-09
-1.49879e-08
2.25611e-07
5.03826e-08
2.28594e-09
-8.4349e-08
8.02584e-09
1.65614e-08
0.00293791
-1.37083e-07
1.10942e-06
2.47568e-08
1.82946e-07
-4.93057e-09
2.55298e-06
-0.00064338
-5.42478e-08
2.02482e-06
6.52898e-10
-5.44106e-07
1.23934e-08
-0.00027338
-6.4378e-10
9.62621e-06
5.3648e-09
-2.76467e-08
1.08148e-05
0.00597415
1.76119e-09
0.00312319
-5.88351e-08
1.3858e-09
3.16443e-09
-1.25113e-08
0.00283439
1.27122e-06
1.34324e-08
-3.79302e-08
0.0089618
2.05567e-08
-5.48045e-07
4.53866e-10
-0.000649842
1.07468e-08
3.36665e-09
-4.38235e-08
1.05886e-07
1.44629e-08
-3.59195e-06
-5.14683e-08
-1.27542e-07
1.71617e-07
-3.62387e-06
-4.97244e-08
0.00818109
-3.6791e-08
0.000831097
-0.000553723
8.1288e-06
-2.18919e-08
-2.51765e-05
-6.08949e-08
-1.4407e-08
4.53427e-09
-8.86442e-09
2.90912e-06
5.54964e-09
-6.54943e-06
2.71557e-08
3.00419e-05
-5.48388e-10
1.61033e-09
-1.42388e-08
0.00487017
-1.28806e-08
-0.00274295
1.73634e-05
7.76338e-08
0.00636522
-4.42969e-06
-3.42224e-08
0.000788216
6.2008e-09
7.26577e-09
8.71531e-08
-1.36425e-07
-1.2345e-07
3.13485e-07
7.38163e-08
1.13701e-09
2.01261e-06
1.20757e-08
1.52585e-09
-1.39858e-08
1.02164e-08
-6.00338e-09
7.27143e-08
1.27638e-08
-0.000613522
2.75747e-07
-1.13896e-06
8.63962e-08
3.69283e-08
-5.47747e-06
8.811e-08
-1.05504e-07
-9.55724e-09
6.83751e-08
2.68752e-06
-0.00337338
9.30405e-08
1.12825e-05
2.88477e-11
0.00461459
-9.40168e-07
-3.92153e-08
6.61456e-09
-5.01233e-07
3.96396e-08
7.65745e-09
0.000688271
1.89642e-08
2.49751e-08
3.93536e-05
9.67541e-08
-1.21251e-08
-4.94875e-08
-2.64524e-10
-2.44353e-07
4.09893e-08
-5.49454e-06
4.05579e-08
-1.7882e-08
6.44766e-08
-6.4896e-09
3.6959e-08
0.00158518
0.00853089
2.03838e-08
-9.72327e-10
1.49659e-05
-0.000267736
8.52129e-09
1.40651e-09
4.39791e-08
-5.5212e-05
1.25729e-10
-1.26972e-07
-1.0088e-05
-3.06325e-09
-6.01494e-08
-1.20003e-07
-1.20452e-11
9.26109e-08
-3.60505e-05
5.93066e-05
2.85512e-09
-3.39384e-08
1.67679e-08
-8.29419e-09
7.27139e-05
-0.000233796
0.0040025
2.59855e-08
5.28019e-07
-0.00347469
2.57608e-08
-0.00709816
-6.33326e-06
3.48639e-09
8.48625e-08
8.07633e-08
8.49813e-09
8.51063e-09
-1.06195e-05
3.20623e-09
-1.02777e-08
4.00881e-07
-9.25279e-08
-3.31528e-07
1.06967e-06
-0.000447564
-3.39307e-09
-4.88068e-08
0.00380607
-3.1167e-06
-9.11203e-08
-3.57221e-06
1.13652e-07
-5.86671e-08
-4.81116e-06
5.8209e-08
3.5547e-08
-1.38366e-07
-4.86255e-08
2.53613e-06
-1.09901e-10
1.62782e-09
6.44163e-09
6.18391e-08
-0.000759464
-1.81552e-08
-7.65617e-06
-0.000623504
-5.24159e-08
0.0030801
6.98356e-08
5.93088e-11
7.44966e-08
7.67792e-08
-3.86448e-08
-0.000114427
-6.74094e-06
6.89581e-09
4.55115e-07
0.0053988
-2.78489e-06
-2.09188e-08
-1.64849e-08
-5.712e-05
-2.50476e-08
9.26146e-09
-4.64593e-05
-3.52711e-08
-3.84701e-09
1.2327e-07
3.73927e-08
-9.55578e-08
-3.23954e-08
4.86738e-07
8.222e-09
-0.000741455
-0.0816352
-2.48567e-07
-5.57383e-08
1.1077e-06
-4.20073e-06
8.9555e-09
-1.37151e-08
-2.28305e-08
1.22373e-09
7.05037e-08
-3.51456e-08
5.72992e-09
2.49181e-05
-5.13571e-06
1.35881e-08
-3.08848e-09
-9.32993e-09
0.000700818
-0.000124023
-1.44113e-08
-4.53877e-06
-6.37582e-09
9.42449e-07
-5.04231e-10
7.1162e-08
-3.38625e-09
-3.29236e-08
-9.41967e-08
-2.04505e-08
7.34752e-08
-0.00418953
-9.56722e-08
2.72146e-07
2.55519e-08
-1.65059e-08
5.99254e-05
-4.86611e-07
-0.000717088
-5.10913e-06
0.00313407
5.88856e-08
-5.03016e-08
-9.32391e-08
-1.68091e-08
-0.000449839
7.85417e-06
-9.8774e-09
4.3194e-08
-0.000671485
-9.95225e-07
8.92302e-09
3.68914e-08
-0.0071112
2.82862e-08
7.94508e-08
-4.94258e-05
1.02493e-08
1.92143e-06
0.00424379
-3.77763e-09
-7.22108e-07
1.75346e-08
2.50825e-08
0.000334901
-5.98885e-08
-2.65913e-08
2.70928e-06
-2.61417e-06
-4.94736e-08
7.60354e-08
-1.15563e-06
-1.28717e-07
-0.000137441
0.00277587
9.40281e-05
-0.000416119
-1.33462e-09
4.66803e-11
-1.6147e-07
-4.39949e-07
-0.000723408
0.000707618
-0.000216552
-2.63313e-07
7.29523e-09
1.02678e-08
8.90597e-09
-8.22012e-08
-1.87105e-08
-0.00308774
2.71808e-07
-0.000859824
4.64968e-08
6.33825e-08
-2.40405e-08
-3.11861e-05
-4.29976e-08
-1.34429e-07
1.64208e-08
2.01285e-06
8.96854e-08
-0.00129446
0.00455554
-0.000563801
0.00302459
3.35143e-07
8.43412e-08
-0.000142952
4.16834e-08
-4.55476e-07
-1.26045e-07
1.01082e-08
-0.00685031
8.10409e-07
-4.54834e-07
4.56456e-08
2.65028e-08
-7.5241e-09
0.000566798
-0.000246932
1.60875e-08
-3.21961e-08
0.00165072
8.11167e-08
4.63503e-05
-3.22989e-06
-1.38674e-07
2.41348e-08
1.72323e-08
-3.04137e-07
-1.92372e-06
-1.09754e-05
1.08549e-08
3.90871e-08
-1.86994e-07
-1.97131e-08
-3.0473e-07
1.38024e-06
-1.97257e-08
1.77695e-07
7.87637e-08
-1.56927e-09
-2.33527e-08
0.00073634
-2.71162e-07
-7.22275e-08
-2.19897e-06
1.29037e-08
0.000360642
2.11372e-08
-9.47309e-08
1.90216e-08
-0.00683007
2.12403e-10
4.78338e-08
1.00294e-07
2.6617e-08
-3.72521e-08
8.66967e-08
-4.88167e-08
8.45662e-08
-1.01942e-08
1.14142e-07
6.87167e-08
5.07883e-07
0.000865993
5.91131e-08
-7.52008e-05
0.00109849
2.99628e-08
-1.85336e-06
-6.15618e-08
-6.05185e-09
3.5516e-08
-0.000598966
-3.37845e-06
3.21657e-08
0.00121737
0.00719018
0.00173113
-2.12504e-09
-9.57071e-09
-1.37123e-07
-4.03529e-06
-5.47944e-06
0.0070993
3.4193e-08
8.11507e-08
2.88488e-08
7.38808e-08
-5.52417e-06
-3.19637e-06
-5.41748e-06
-1.53059e-05
-2.56392e-08
-2.46726e-08
-6.63914e-09
-1.17646e-07
-1.6352e-06
0.000520494
2.87948e-08
5.989e-08
4.65981e-08
-1.4877e-08
0.00289571
-9.67782e-07
-1.24602e-06
-1.74663e-06
0.0098331
4.74412e-08
-4.4064e-08
0.00186053
-2.5362e-06
-8.96481e-06
-0.00281041
-5.64934e-06
1.43731e-08
4.46447e-08
6.80114e-05
-4.32782e-09
0.00877359
-1.35325e-07
-2.06444e-08
-1.96168e-07
3.04796e-09
3.65081e-09
0.00186454
1.38089e-10
-3.50091e-05
-8.15051e-06
3.93212e-07
1.628e-08
0.00560552
1.85734e-07
8.88388e-09
-0.000117669
-0.00704363
-9.33288e-09
1.90321e-09
-4.92602e-08
-2.75238e-08
-6.52502e-08
-3.84807e-05
-4.76535e-08
-9.93445e-06
1.07712e-08
1.03922e-08
8.02369e-05
-2.1622e-08
9.00983e-08
-2.57969e-10
-0.00648647
-4.57145e-07
1.1166e-08
1.60357e-08
9.5405e-08
-3.17731e-07
0.00072765
-3.76753e-08
-2.58652e-10
-3.06889e-08
2.0279e-09
-1.84342e-08
-6.40697e-08
8.92188e-08
0.000797067
-9.81945e-08
1.18088e-07
1.48446e-08
-1.04387e-08
-0.00674175
-9.15664e-09
8.27419e-06
-3.14729e-06
3.09563e-09
1.8323e-08
7.62206e-08
1.05988e-07
0.000297324
-9.702e-08
-1.41509e-08
0.00109295
8.02601e-08
1.99218e-07
2.20816e-08
4.03735e-09
4.66368e-08
-2.31678e-08
0.00322036
8.18246e-06
8.82863e-11
-5.83785e-08
1.72529e-09
4.98367e-05
-1.83057e-07
5.33641e-08
4.6843e-08
-1.04275e-08
-1.1975e-08
-9.67945e-07
2.46533e-08
6.82191e-08
-1.01571e-08
-0.000230366
0.00994101
2.24094e-08
1.27911e-06
5.2498e-06
1.23453e-07
2.3046e-08
-2.06929e-08
4.87147e-10
-1.23717e-08
2.13505e-08
4.40264e-09
2.71068e-06
-2.40598e-06
-5.05518e-06
-0.00305414
-0.00315108
8.03148e-08
8.6964e-08
-6.85885e-08
0.00214296
-4.80998e-07
7.54256e-08
-7.03896e-10
-4.0409e-06
-5.49417e-08
-4.41482e-06
-3.65635e-06
8.4899e-09
-0.000647553
9.84895e-08
1.93112e-05
1.56568e-08
2.63066e-12
0.00117878
-1.85633e-07
2.73296e-08
-2.22345e-07
-0.000202387
0.0103251
-2.51085e-09
1.47157e-08
1.60898e-05
7.51581e-08
-2.01934e-08
3.92604e-08
1.08185e-08
0.000300013
8.57104e-09
2.12744e-08
0.000540335
0.000132975
-2.75664e-08
-4.00955e-08
4.03384e-08
-5.8843e-08
0.0031602
0.000772954
-1.32444e-05
-1.57172e-06
0.0094452
-0.00272653
-3.91087e-09
0.000355403
0.00316624
-0.00223133
0.0030578
2.65482e-08
3.72762e-08
3.68735e-09
-5.91885e-09
7.44189e-08
-1.35949e-08
-2.29479e-08
0.00422007
7.42201e-08
-4.2298e-08
-4.56629e-08
0.00103352
7.33684e-08
0.000324725
0.00138063
-0.000950415
1.17991e-07
-1.20667e-09
1.5342e-07
2.56698e-06
7.93115e-08
-5.94758e-09
4.58163e-08
0.00010235
0.00956222
-6.79866e-08
-9.14241e-09
-8.79319e-05
1.0097e-08
1.22084e-08
6.89235e-09
0.000509971
2.57894e-08
-3.47588e-08
0.00754547
1.45121e-08
-0.000160748
4.50346e-10
1.18098e-08
7.45636e-08
8.44307e-08
-6.32954e-08
1.79634e-07
-5.49212e-06
2.50473e-08
-2.23291e-10
-6.99031e-05
7.40232e-06
-6.62704e-08
4.88193e-07
2.59423e-09
1.49471e-05
-9.25938e-09
-1.48281e-08
7.71084e-08
-1.58014e-08
-9.77158e-08
-4.28945e-08
1.14326e-07
9.47103e-08
-3.29006e-08
-8.51018e-05
-2.42532e-09
-6.10712e-08
-1.58602e-08
-1.27887e-07
-6.94976e-09
1.46641e-08
0.00173246
4.04802e-08
-2.88162e-08
-8.19444e-05
3.11622e-08
0.000129345
-4.452e-05
4.71649e-09
8.90285e-08
-1.56894e-05
2.02923e-07
-0.000285657
3.1531e-08
6.35003e-08
-4.43324e-08
-2.68247e-09
0.00029719
-2.84925e-08
0.000604285
4.08619e-07
-1.87512e-07
-8.12297e-08
-2.79587e-05
5.73523e-08
-1.15041e-10
-5.5052e-06
1.74279e-08
4.60766e-08
6.06048e-08
0.00331294
0.00453551
-0.00595367
-0.000462161
-2.38685e-07
-1.80629e-08
7.73195e-08
-7.8791e-09
-1.31234e-09
6.5329e-09
-2.82717e-06
2.3732e-08
5.37239e-08
-1.37512e-08
0.00628571
0.000927951
8.68249e-08
-3.37999e-08
4.0535e-07
-0.00757274
-1.73307e-08
2.86651e-09
-0.000126508
-1.88146e-09
-1.04576e-07
-1.73448e-05
-2.491e-08
5.06946e-12
5.32706e-07
1.38834e-05
-7.46387e-10
-8.79301e-08
-6.30576e-08
1.08693e-08
1.23414e-08
1.27432e-07
-0.00061164
-6.00384e-09
3.40964e-08
1.43459e-09
1.11084e-06
-0.000788029
8.443e-08
-1.65842e-10
0.000774106
2.40434e-10
1.20669e-06
-1.35617e-07
1.2944e-08
8.38668e-08
9.7151e-07
4.61515e-09
7.46951e-08
7.89389e-08
5.43715e-09
-2.20397e-08
0.000827428
-5.67336e-09
1.15212e-06
6.2888e-06
4.91886e-08
0.00105989
-0.000618729
1.09928e-09
7.63311e-08
4.2172e-10
1.80454e-09
0.000519615
-7.07633e-08
2.52546e-09
-1.27008e-08
0.000792986
1.85731e-08
0.00643481
1.2018e-09
3.90213e-08
-6.40726e-07
4.82683e-09
1.14537e-08
-2.80173e-08
-2.03926e-06
-1.56577e-07
-0.000216672
4.40298e-09
-0.00140765
-3.81876e-06
4.5638e-08
0.000248039
7.1006e-08
-3.86082e-07
9.1059e-09
-5.47527e-08
7.59188e-08
-1.24026e-08
-0.00282608
-1.43928e-06
-4.7902e-10
4.44346e-08
-2.90696e-08
0.0037668
0.00794583
0.00184971
2.655e-08
-1.17348e-07
-1.73955e-06
-1.04776e-08
0.00343776
5.61214e-09
3.58652e-09
-7.42544e-05
1.80186e-09
-4.87365e-08
3.04433e-09
6.89855e-08
-3.63919e-07
7.59685e-09
1.22651e-09
2.85563e-08
2.29332e-09
0.000454385
3.36312e-06
0.000259898
-0.000706298
1.06089e-08
1.24106e-07
-4.30462e-06
2.70465e-08
6.32862e-06
0.000289534
3.37581e-08
1.39826e-08
-1.0102e-09
3.85227e-08
-5.60201e-05
1.66787e-07
4.07688e-08
1.86571e-09
-0.00107727
-0.00292027
-6.33315e-08
-5.00654e-07
-3.45625e-06
-6.81304e-07
-4.6043e-06
-7.15845e-10
0.0116132
-0.00110468
2.81431e-08
6.27944e-09
-0.00285038
1.28716e-05
2.17319e-07
-0.000435869
-1.01664e-07
1.86978e-07
-5.11987e-10
-0.00517652
-1.81589e-07
-1.6873e-08
-9.83276e-08
0.0012135
6.51739e-08
3.20123e-09
7.40762e-08
-2.01567e-06
2.528e-08
-7.75126e-05
-1.46731e-07
0.00606544
-3.43907e-08
8.37599e-09
2.04264e-07
6.26732e-09
-4.37147e-06
2.39105e-07
0.00157378
-0.00324797
0.000348671
-5.92543e-08
2.20587e-09
-2.92271e-08
4.89613e-08
5.20323e-05
-1.93989e-07
0.0030585
-0.00766841
3.95326e-08
7.50592e-08
1.29916e-06
-6.44266e-11
8.75984e-06
-2.41574e-08
4.3326e-08
0.0021497
-3.30188e-09
-1.41079e-08
3.943e-08
-8.00058e-07
8.86602e-08
2.27464e-08
-0.000434352
-3.7345e-06
2.03387e-07
0.000582545
-2.97902e-06
-0.000242254
-2.53558e-08
0.000339633
0.00615488
0.00223346
3.30169e-09
9.84639e-09
3.86506e-08
1.55727e-07
0.000110661
0.007566
-2.39474e-08
-1.40067e-08
-6.8667e-06
0.00242592
-3.66457e-10
2.28333e-08
7.71074e-08
-2.18689e-08
4.06729e-07
0.000451838
-6.56856e-09
7.32729e-08
-0.000744162
-6.25342e-06
-0.000604914
-1.1341e-07
1.25802e-08
-4.50358e-09
-3.57663e-08
8.64427e-08
0.0116754
-7.70818e-08
-9.61434e-08
-2.49001e-07
0.000640219
1.75287e-08
-1.54943e-08
4.74237e-07
-0.000412398
-1.14898e-07
0.000490441
7.40031e-07
4.76286e-08
-7.98691e-09
1.34685e-07
0.00081119
1.58708e-07
7.74719e-09
7.98954e-09
9.59882e-06
0.00178855
7.28042e-09
2.13477e-08
0.00902676
-2.1031e-07
-5.09209e-08
-5.8751e-10
-4.95715e-08
-3.93762e-07
-1.06314e-09
-0.00239194
0.00057273
7.51543e-07
-3.91671e-08
2.57979e-08
-1.43224e-08
-1.05079e-06
8.84286e-08
-8.25559e-09
-4.57294e-07
-2.12585e-09
9.40855e-07
-0.00868823
0.000357118
0.000393758
1.98309e-08
2.93449e-09
-0.000295177
-3.38812e-08
-9.9314e-05
-8.10474e-05
1.76618e-08
-1.40351e-09
3.21949e-08
-1.34792e-07
-0.000417782
1.92091e-07
0.00935531
1.96387e-08
-1.16665e-08
-9.85793e-07
4.18892e-09
-1.54457e-07
-2.75072e-08
7.36375e-08
1.79183e-07
-1.37276e-07
6.75039e-08
-0.000253063
-4.0842e-08
-1.25357e-07
-0.000477371
1.37579e-06
7.43285e-05