/*--------------------------------*- C++ -*----------------------------------*\
| =========                 |                                                 |
| \\      /  F ield         | OpenFOAM: The Open Source CFD Toolbox           |
|  \\    /   O peration     | Version:  v2012                                 |
|   \\  /    A nd           | Website:  www.openfoam.com                      |
|    \\/     M anipulation  |                                                 |
\*---------------------------------------------------------------------------*/
FoamFile
{
    version     2.0;
    format      ascii;
    class       surfaceScalarField;
    location    "100";
    object      ddtCorrDdt0(phi);
}
// * * * * * * * * * * * * * * * * * * * * * * * * * * * * * * * * * * * * * //

dimensions      [0 3 -2 0 0 0 0];
oriented        oriented;


internalField   nonuniform List<scalar> 
79099
(
-2.63505e-05
-8.4936e-05
0.000111286
-0.000204394
0.000645483
-0.000441092
4.15587e-05
-7.76036e-05
3.60448e-05
0.000201135
-0.000158715
-4.24198e-05
-3.18478e-05
2.07377e-05
1.11102e-05
-0.000263108
0.000134476
0.000128632
0.000103681
-0.000130514
2.68329e-05
8.199e-05
-0.00010834
4.96432e-05
-0.000107142
5.7499e-05
6.27693e-07
-6.30617e-05
6.2434e-05
0.00048824
3.89031e-05
-0.000527144
-6.08692e-05
0.000136297
-7.54274e-05
-0.00158145
0.000809664
0.000771786
-0.00034847
0.00154375
-0.00119528
-4.49258e-07
-6.43761e-05
6.48254e-05
6.63461e-06
-3.97531e-05
3.31184e-05
0.000178386
-0.000101699
-7.6687e-05
3.9038e-05
-3.24034e-05
1.37363e-05
0.000635487
-0.000649228
-0.000211116
5.90664e-05
0.00015205
-0.000108321
0.000139641
-3.13193e-05
-0.000144814
1.73717e-05
0.000127442
-1.95482e-05
-1.20029e-05
3.15511e-05
0.00011723
-1.35487e-05
6.12568e-05
5.84009e-05
-0.000119658
0.00022247
-0.000222463
-7.17189e-09
0.00122183
-0.0015703
-0.000163543
9.10349e-05
7.25077e-05
5.71618e-05
0.00128492
-0.00134209
0.00108373
-0.00110965
2.59214e-05
-0.000580986
0.00129545
-0.000714459
-0.000504335
0.00086376
-0.000359427
0.000145088
-0.000860813
0.000715747
-3.61522e-05
-5.51405e-05
9.12928e-05
-3.14586e-05
1.77241e-05
1.37345e-05
7.91131e-05
1.88119e-05
-9.79249e-05
1.56231e-06
-7.94812e-05
7.7919e-05
6.27603e-07
-6.23174e-07
-4.43441e-09
0.000110218
2.41688e-06
-0.000112635
-3.74067e-05
-4.45165e-05
8.19235e-05
8.5661e-05
-8.40987e-05
-0.000353476
0.000515337
-0.000161863
0.000151383
0.000407878
-0.00055926
-0.000299766
-0.000272154
0.000571918
-8.75455e-05
-0.00012357
5.38297e-05
-5.87447e-05
4.91487e-06
0.000101002
-5.24426e-05
-4.85586e-05
3.91924e-05
0.000108256
-0.000147449
-0.000251886
0.000772283
-0.000520398
3.79819e-05
-4.98177e-05
1.18358e-05
1.10713e-05
-9.48907e-06
-1.58223e-06
8.66983e-05
-0.000103497
1.67981e-05
0.000125522
-2.75471e-06
-0.000122766
2.8673e-05
-4.07859e-05
1.21129e-05
-5.41252e-05
0.000245305
-0.00019118
0.000588102
-0.000574369
-0.000185511
6.31564e-05
0.000122355
1.76346e-05
-3.62293e-05
1.85947e-05
0.000362602
0.00081262
-0.00117522
0.00019777
9.44196e-05
-0.00029219
-9.17241e-05
6.57917e-05
2.59328e-05
-8.02876e-06
9.061e-05
-8.25812e-05
0.000874419
-0.000724782
-0.000149636
-7.75598e-05
0.00128576
-0.0012082
-0.000125257
-6.20963e-05
0.000187353
-3.79241e-05
8.45506e-05
-4.66266e-05
0.00110717
-2.34349e-05
4.38039e-05
5.71978e-05
-1.38765e-05
3.03944e-05
-1.65179e-05
2.34904e-05
3.05053e-05
-5.39958e-05
5.05837e-05
-5.94942e-05
8.91108e-06
-1.38546e-05
-8.3584e-06
2.22131e-05
-2.00917e-05
-7.49303e-05
9.50226e-05
0.000753419
-0.000608331
0.000226894
-4.4229e-06
-2.97782e-05
1.98135e-05
9.96469e-06
-4.71452e-06
2.24815e-06
2.46643e-06
-7.27374e-05
-0.00019037
-3.23091e-05
4.2276e-05
-9.96694e-06
2.71447e-05
2.34396e-05
-2.55449e-05
0.000160021
0.00102052
-0.000765827
-0.000254696
0.000720766
-0.00015847
-0.000562293
0.000233132
-7.28084e-05
-0.000160322
-0.000107019
5.6313e-05
5.07064e-05
6.12122e-05
-3.77218e-05
8.84912e-06
0.000101536
-0.000110385
0.000114518
-6.48749e-05
4.47694e-05
-8.26935e-05
0.000224863
-6.45276e-05
-0.000160335
5.7877e-07
6.86557e-05
-6.92351e-05
-0.000544986
0.000415448
0.000129538
0.000762306
0.000258218
-9.00475e-05
-0.000164604
0.000254651
0.000665793
0.000238812
-0.000904604
0.000703548
-0.00035215
-0.000351399
-0.000751158
-0.000705767
0.00145692
-3.40059e-05
7.55647e-05
-0.000544207
0.000614576
-7.03686e-05
0.000759156
0.000115263
-0.000126444
-8.72732e-05
4.98666e-05
-0.000245935
0.000491791
-0.000245855
-9.61287e-05
-6.74136e-05
-0.000118122
8.34192e-05
3.47026e-05
-0.000361837
0.000436062
-7.42143e-05
0.000316187
-0.000235538
-8.06515e-05
-2.96218e-05
0.000108735
0.000595686
-0.000225898
-0.00036979
-2.28911e-05
9.03649e-06
-0.000217986
0.000102006
0.00011598
-0.00025824
0.000374819
-0.000116578
-4.01818e-06
-6.96326e-07
0.000884787
-0.000218995
0.000704129
0.000931131
-0.00163527
-5.95941e-06
1.81074e-06
4.14865e-06
0.000123758
4.75769e-05
-0.000171335
-3.02773e-05
-3.96764e-06
3.42449e-05
-0.0014093
0.000863791
2.29803e-05
5.71874e-05
-8.01691e-05
-1.04557e-05
-2.13919e-05
-0.000113609
9.35178e-05
-1.91302e-05
6.71837e-05
-4.80536e-05
-0.000157504
3.48546e-05
0.000122649
0.000193894
-0.000219439
3.73033e-05
4.35399e-05
-8.08433e-05
-2.31446e-05
-3.35173e-05
5.66623e-05
-0.00100727
0.000585235
0.000422038
-0.000293341
0.000157699
0.000135642
8.32032e-05
-2.52864e-05
-5.79168e-05
-0.000826772
0.000322436
5.68678e-05
-8.60527e-05
2.91848e-05
0.000109245
0.000123887
6.31895e-05
3.2641e-05
-9.58305e-05
-1.75494e-05
3.23154e-05
-1.4766e-05
-0.000747722
0.00111033
-0.000121372
-1.24502e-06
0.000122617
-0.0007221
-0.000859348
-2.91698e-05
-3.52442e-05
6.44141e-05
-6.72692e-05
7.02461e-05
-2.97685e-06
-5.27361e-05
2.55523e-05
2.71834e-05
-5.24347e-05
6.41793e-05
-1.17446e-05
2.21178e-05
-7.69057e-05
5.4788e-05
0.00150142
-0.000901873
-0.000599538
-0.000204738
-8.86026e-05
1.53331e-05
5.50171e-05
-7.03501e-05
0.000121151
2.60668e-06
1.44363e-05
-2.82473e-05
1.38109e-05
-7.15008e-05
2.55755e-06
6.89431e-05
-3.88771e-05
8.45003e-05
-4.56233e-05
-1.57944e-06
-5.69862e-05
5.85656e-05
-0.000586678
-0.000138102
4.9224e-05
-2.84862e-05
-9.78457e-06
-0.000135029
5.92952e-05
-4.35346e-05
-1.57606e-05
0.000120696
4.82618e-06
-0.00074824
0.00126922
-0.000520975
-0.000484442
2.71263e-05
0.000457314
-4.57987e-05
0.000101674
-5.58753e-05
-0.000192365
-8.72022e-05
0.000279566
-3.49756e-05
-6.30089e-06
4.12766e-05
4.25781e-05
-4.59619e-06
-5.50665e-05
6.13798e-06
4.89285e-05
-0.0001829
-0.000362086
7.52895e-06
8.15816e-05
-8.91105e-05
6.8e-08
-6.80309e-08
3.12204e-05
-8.68205e-05
5.56e-05
7.74124e-05
-9.45385e-05
1.7126e-05
2.44094e-05
1.17776e-05
-3.6187e-05
-5.86456e-05
-1.52812e-05
7.3926e-05
-0.000109396
6.4267e-05
4.51293e-05
0.00141669
-0.00120345
-0.000213247
-0.000158858
0.000494113
-0.000335255
2.73679e-05
4.11087e-05
-6.84767e-05
2.04818e-05
-0.000177988
1.65468e-05
-4.93886e-05
3.28418e-05
-3.04032e-05
-7.66161e-05
0.000297889
0.000405659
-0.000154706
0.000163555
-9.63034e-05
0.000144375
-4.80716e-05
-7.37759e-05
5.46457e-05
-9.14793e-05
9.90084e-05
0.000315534
-0.0006153
1.31278e-05
5.18647e-05
-6.49924e-05
8.96276e-05
-0.000150497
-0.00144984
0.00137228
-0.000887722
0.000679061
0.000208662
0.000272127
-0.000430984
-5.55266e-05
0.000177819
-0.000122292
2.93722e-05
-1.49358e-05
-0.000380345
0.000122105
-6.02197e-05
-1.51272e-05
7.53469e-05
-0.000120141
-5.2348e-05
0.000172489
-1.76302e-05
4.06098e-05
6.68119e-05
-7.83175e-05
1.15056e-05
-0.000134014
0.000115885
1.81282e-05
-6.4083e-05
-4.4991e-05
0.000109074
3.36185e-05
-2.01067e-05
-1.35119e-05
-2.77366e-05
7.37286e-05
-4.5992e-05
5.07754e-06
-7.25746e-05
6.74981e-05
0.000118714
9.37777e-06
-0.000128091
-8.53886e-05
1.70919e-05
6.82967e-05
-9.38825e-05
0.000139471
-4.55883e-05
3.68045e-05
2.83565e-05
-6.51609e-05
0.000423458
0.000312724
-0.000736182
-4.52585e-05
0.000252315
-0.000207056
-0.000175521
0.0001014
7.41207e-05
-3.06328e-05
-3.68996e-05
6.75324e-05
2.69666e-05
-4.84945e-05
2.1528e-05
2.68946e-05
-3.44341e-05
7.53944e-06
0.000250259
6.59153e-05
4.38934e-05
-8.87037e-05
4.48104e-05
-0.00113989
0.00127118
-0.000131283
8.75784e-05
-4.06609e-05
-4.69176e-05
0.000130796
0.000464889
-5.95458e-05
5.39851e-05
5.56074e-06
9.2598e-05
1.88524e-05
-0.000111451
1.40539e-05
-3.36021e-05
-6.55468e-07
-4.03789e-06
4.69303e-06
0.000109918
-5.76291e-05
-5.2289e-05
0.00108164
-6.2376e-05
-0.00101926
-1.97885e-05
-2.14562e-05
4.1245e-05
-0.000567568
0.000668305
-0.000100736
2.50845e-05
-4.48728e-05
-6.43371e-05
0.000108802
-4.44654e-05
-0.000134449
0.000486332
-0.000351883
-9.25722e-05
4.64472e-05
4.6125e-05
3.68526e-06
8.00756e-05
-8.37607e-05
-0.000118722
8.79588e-05
3.0763e-05
-1.77285e-05
-3.50078e-05
-0.000854915
0.00102028
-0.000165368
0.00215197
-0.00138421
-0.000767758
-2.34135e-05
-5.11002e-05
7.45131e-05
-0.00083159
-0.00074212
0.00157371
-0.000162704
0.000222025
-5.93217e-05
6.87164e-05
-0.000430548
0.000147826
-0.000125494
-2.23315e-05
-3.03196e-05
1.27703e-05
-2.71779e-05
-0.000121579
0.000148757
4.75228e-07
3.66999e-05
-3.71752e-05
7.99931e-05
-2.31252e-05
-8.64356e-05
5.02834e-05
-0.00040817
0.000706542
-0.000298372
-7.88003e-05
3.99228e-05
-0.000144115
0.00016172
-1.76051e-05
-1.64634e-07
3.58153e-06
-3.4169e-06
-0.000136101
0.000160657
-2.45561e-05
-5.06229e-05
0.00113226
1.21321e-05
-2.43989e-05
1.22685e-05
-0.000116447
0.000314218
-0.000119072
3.73517e-05
8.17203e-05
-6.41038e-05
8.68587e-05
-2.27549e-05
4.67579e-05
2.07229e-05
-6.74808e-05
7.87677e-05
-7.36899e-05
-3.66152e-05
8.45396e-05
-4.79246e-05
-0.000918663
0.000714283
0.000204381
0.000777537
0.00072388
4.45469e-05
3.55959e-05
-8.01426e-05
9.73302e-06
-1.03886e-05
-0.000184072
7.08952e-05
0.000113177
0.000126889
0.00011062
-0.000237509
0.000361595
-0.00110931
0.000103809
-2.63967e-05
-1.32352e-05
8.89734e-06
4.33784e-06
-4.58211e-05
6.02192e-05
-1.43981e-05
0.00216459
-0.00102883
-0.00113575
-0.000245683
0.000131173
0.000114511
2.91253e-05
-3.0566e-05
1.44066e-06
-0.000619856
-0.000267864
-0.000714263
0.000146696
-5.96504e-05
4.61544e-05
0.000103448
-4.02586e-05
2.97192e-05
-8.61276e-05
5.64085e-05
-0.000705843
0.000297673
-0.000507521
0.000241298
0.000266221
2.49861e-07
-3.72168e-05
3.69674e-05
-0.000295847
0.000719306
-0.000221561
0.000565859
-0.000344299
-5.70179e-05
0.000237733
-0.000180715
-0.00013433
0.00011765
1.66803e-05
-3.18328e-05
1.98299e-05
4.79751e-07
1.47849e-07
0.000149309
-0.000206327
1.34471e-05
-0.000127255
0.000113809
-6.94302e-05
-8.06206e-06
7.7492e-05
1.97499e-05
9.04682e-05
3.15941e-05
6.33667e-05
-9.49609e-05
-9.86547e-05
8.84747e-05
1.01799e-05
-0.000118539
0.000131986
-5.20865e-05
6.52144e-05
0.000170204
0.000181735
-0.000351939
0.0012193
-0.000737553
-0.000481743
-5.14119e-05
1.1704e-05
3.97081e-05
0.00163648
-8.5733e-05
-0.00155074
-0.000128823
0.000167845
-3.90225e-05
-1.12632e-05
-1.8515e-05
8.29608e-05
0.000103671
-0.000186632
0.000446898
0.000177718
-0.000624615
-0.000239602
-0.000119594
-2.02639e-05
0.000139858
-2.23683e-05
-2.90436e-05
0.000140536
-0.000196062
0.000292404
-0.00055258
0.000260179
-0.000312085
0.000266828
3.39161e-05
-2.04796e-05
-1.34364e-05
-0.000617227
0.000412832
-6.92647e-05
4.14207e-05
2.78439e-05
-2.7376e-05
7.1923e-05
-2.34126e-07
-5.72529e-06
-4.6161e-05
9.63356e-07
4.51975e-05
-0.000936011
8.10958e-05
0.00104528
-0.0011371
9.18245e-05
0.00229183
-0.00134763
-0.00094419
0.000611446
-0.000498051
-0.000113396
0.000530186
-0.00053389
3.70499e-06
5.19583e-05
-2.49916e-05
-2.25308e-08
2.25257e-08
3.64797e-05
3.22153e-05
-6.86951e-05
3.62685e-05
-3.60185e-05
8.38476e-05
9.56941e-05
-0.000179542
0.0006284
-0.000181503
0.000208549
-0.000562026
0.000101165
-3.6457e-06
-9.75186e-05
0.0004038
0.000207648
0.000366422
-0.000196218
-7.25318e-06
-0.000106356
-0.00112969
0.000381447
0.00016956
6.8086e-06
-0.000176369
2.22182e-05
3.7077e-05
0.000107267
-7.86348e-05
-2.86318e-05
0.000457236
-0.000229201
-0.000228035
-3.3173e-05
9.99848e-05
1.06655e-06
-4.90112e-07
-5.76446e-07
-0.000100037
5.0739e-05
4.92977e-05
-4.43989e-05
5.06561e-05
-6.25711e-06
5.00785e-05
-3.76477e-05
-1.24306e-05
-0.000163735
4.35941e-05
-1.82717e-05
1.89647e-05
-6.93064e-07
0.000745551
-0.00149671
-5.59023e-05
8.14333e-05
-2.55311e-05
8.23909e-07
2.42633e-07
-3.22859e-05
2.83866e-05
3.89938e-06
9.05948e-06
-4.40351e-05
8.63174e-05
-6.16467e-05
-2.46707e-05
-6.41992e-05
6.37499e-05
0.000716808
0.00144779
-6.62033e-05
-6.43102e-05
-0.000245965
0.000139255
0.000106712
0.00103498
-0.000673378
0.000330675
0.000233602
-0.000564273
-0.00035102
-8.62963e-05
0.000437316
0.000233995
0.000403245
-0.000637249
0.000112802
3.50234e-05
-1.73039e-05
-1.9726e-05
3.70295e-05
8.00068e-05
-0.000112473
3.24659e-05
0.000858023
-0.000310672
-0.000547351
-3.00353e-05
5.19798e-05
-2.19443e-05
-4.3161e-05
-5.92812e-05
0.000102442
0.000221633
-9.4744e-05
-0.000128326
-0.000117356
-9.24752e-05
-6.01176e-06
9.8487e-05
-4.14314e-05
7.30255e-05
-5.37049e-05
-1.30439e-05
6.67488e-05
-8.12026e-05
7.08726e-05
1.03299e-05
1.36364e-05
8.08762e-06
-2.17244e-05
0.000302007
0.000815202
-0.00111721
3.66102e-06
-3.42457e-05
3.0585e-05
-5.72657e-05
-0.000164369
0.000221634
0.000111678
-5.10461e-05
-6.06315e-05
5.80331e-05
-8.64554e-05
2.84224e-05
-0.000846083
0.000226228
-5.17359e-05
-0.000121366
0.000173102
0.000134547
-0.000152214
1.76671e-05
0.000906812
-0.000957435
2.67552e-05
-1.31189e-05
-9.63915e-05
-7.913e-05
0.00020697
-0.00027571
6.87401e-05
-3.24958e-05
-0.000127389
0.000159885
0.001263
0.000318443
0.000138792
2.6089e-05
-2.77099e-05
1.62091e-06
5.91861e-05
-9.2231e-05
3.30448e-05
6.86825e-05
-0.000102873
3.41903e-05
-5.96357e-05
-0.000124437
-0.000305696
0.00017737
-2.83319e-05
5.32007e-05
-2.48688e-05
2.83605e-05
-0.000136682
0.000545517
0.000673781
2.74826e-05
-5.75178e-05
-0.00137013
0.00180131
-0.000431175
0.000250472
-0.000472034
-9.48942e-06
2.3732e-05
-1.42426e-05
-1.29142e-05
7.21003e-05
-5.10165e-05
-4.38105e-05
9.48271e-05
-0.000107705
6.11906e-05
4.65139e-05
7.40306e-05
-9.21355e-05
1.8105e-05
-7.17166e-05
4.44734e-06
4.33609e-05
-0.000206065
2.27056e-05
9.63393e-05
-0.000119045
0.000585722
-0.000293316
-6.08926e-06
0.000107254
0.000195145
-2.5585e-05
0.000125495
-6.42384e-05
-0.00010217
-0.000143794
2.75015e-05
-3.09203e-06
4.59356e-05
-1.72626e-05
-0.000155267
7.95674e-05
7.56999e-05
-0.000108842
4.45047e-05
3.24549e-05
5.38624e-05
-0.000140204
4.6322e-05
-2.63352e-05
2.99963e-05
0.000747511
-0.000401592
-0.000345915
-7.83788e-07
-1.68949e-05
1.76787e-05
0.000162935
-5.49196e-05
-0.000108016
3.1339e-05
4.58858e-05
-7.72254e-05
5.77659e-05
3.78516e-05
2.54586e-05
-6.33102e-05
-5.58377e-05
-2.53648e-05
3.39178e-05
0.000104214
-0.000138132
-1.30408e-05
3.07574e-05
-1.77167e-05
-6.84458e-06
-3.12921e-05
3.81367e-05
-5.68085e-05
-2.81148e-05
8.49234e-05
3.26127e-05
-0.000128916
-2.51171e-05
-6.65474e-05
9.16647e-05
0.00112004
-0.000955855
-0.000164186
5.47383e-05
-5.63177e-05
6.09402e-05
8.15291e-05
-0.000142469
0.000211181
-4.89047e-05
-0.000162276
0.000152735
-0.000503754
5.68176e-06
3.05871e-05
0.00039256
-0.000973544
-5.94831e-06
-0.000495035
0.00050098
-0.00105244
-9.44829e-05
0.00114692
-4.78444e-06
-0.000354037
-0.000248363
0.000602399
-8.29996e-05
8.90793e-05
-6.07965e-06
0.000154843
-7.03908e-05
-8.4456e-05
-8.5207e-06
5.96727e-05
-5.11519e-05
-0.000549416
-0.000296666
-7.47375e-05
6.62168e-05
-3.40063e-06
3.25259e-05
0.000165193
-7.6884e-05
-8.83087e-05
7.04709e-05
-0.000195728
-8.65441e-05
0.000319967
-0.000233424
1.78114e-05
-1.25279e-05
4.61196e-05
-3.35918e-05
0.000126761
-9.76663e-05
-2.90948e-05
-0.00118647
0.000134037
-4.97047e-05
6.50377e-05
-0.000114336
-2.70495e-05
0.000141385
0.000206809
0.00035905
-7.86217e-05
-1.03551e-05
8.89768e-05
-0.00042152
0.000655509
-6.93241e-05
9.14419e-05
-0.000101232
0.000135149
-0.000359091
0.000676023
-0.000316932
-1.72517e-05
7.24457e-05
-5.51939e-05
4.36166e-05
4.28954e-05
-8.65118e-05
-1.90536e-05
1.01176e-05
8.93605e-06
-4.19369e-05
-2.14601e-05
6.3397e-05
-0.00113798
3.31828e-05
0.0011048
6.98938e-05
-3.73559e-05
-3.25379e-05
-2.85639e-05
-7.78069e-05
0.000138747
-0.000226065
0.00113288
0.00010711
-5.35638e-05
-5.35462e-05
-1.99292e-05
-6.54594e-05
6.19864e-05
9.28567e-05
-8.62472e-06
-2.09232e-05
2.95481e-05
2.80323e-05
5.25839e-05
-8.06161e-05
6.83556e-05
5.30956e-05
-0.000121451
5.1453e-05
6.02247e-05
-0.000156945
6.08166e-05
-0.000980381
0.00128239
0.000301277
-0.000181977
-0.000119299
-4.15998e-05
0.000520693
-0.000479097
-4.42854e-05
-6.34192e-05
-4.74614e-05
0.000135086
-1.0426e-05
-0.00012466
0.000103436
-0.000424868
0.000321433
-1.99029e-06
0.00056476
-0.000562771
0.000316979
-0.000756395
0.000439414
4.80119e-05
4.99007e-05
-9.79126e-05
9.01971e-05
-0.000141933
-0.000478029
0.000180322
0.000297709
-3.60728e-05
2.92282e-05
-0.00013433
1.60936e-05
0.000118237
-9.54734e-05
4.44569e-05
0.000516883
-9.35354e-05
-0.000423348
-5.74796e-05
0.000101599
-4.41195e-05
3.06561e-06
-6.95234e-05
6.64577e-05
-4.51123e-05
-2.48499e-05
6.99624e-05
-4.8654e-05
0.000704295
-0.000655638
-1.28081e-06
-3.40029e-05
3.52838e-05
4.64871e-05
-8.96481e-05
0.000127373
0.000520302
-0.000647667
-1.42018e-07
1.10794e-06
-9.65883e-07
-0.000448198
0.000254498
0.0001937
-7.03167e-05
-4.84049e-05
-5.75358e-07
7.50756e-07
-1.75422e-07
-8.18117e-05
0.000165659
0.000124751
-8.55591e-05
-0.00148132
0.00064973
-2.92385e-05
0.000167169
-0.000137931
-3.54425e-05
2.26262e-05
1.28163e-05
0.000166802
-0.000111096
-5.57062e-05
0.000573092
-0.000445712
-7.21155e-05
0.000184818
-0.000112702
7.21341e-05
3.49759e-05
0.000267256
-6.02858e-05
-0.000235716
0.000410207
-0.00017449
-8.69772e-05
-2.6209e-05
0.000113186
4.96195e-05
-8.80901e-05
3.84704e-05
3.39865e-05
-6.83677e-06
-2.71498e-05
0.000116616
-0.000145854
0.00128088
-0.000929941
-0.000350939
0.000187283
-0.000103213
-8.40705e-05
1.27295e-05
-6.4816e-05
-1.69079e-05
0.0001032
-8.6292e-05
-0.000117349
-0.0001823
0.000299653
-2.82771e-05
0.000104179
-7.59018e-05
0.000155083
-0.000162679
7.59627e-06
-6.47019e-05
0.000101182
-6.48734e-05
-3.2612e-06
6.81345e-05
-1.59583e-05
8.46408e-05
5.81525e-06
0.000118265
-0.000124081
0.000325814
2.10453e-05
-0.00034686
8.26341e-05
-9.06629e-05
0.000776697
-0.000842472
6.57758e-05
-5.26521e-07
-4.88554e-08
0.000604929
0.000502237
-1.42225e-05
-5.72783e-05
1.1685e-05
-4.53879e-05
3.37029e-05
-0.000515225
9.25613e-05
0.000422665
7.01088e-05
-2.33509e-05
-5.9985e-05
-7.40286e-05
-0.000198064
0.000248231
-5.01676e-05
6.50088e-05
-0.000193608
0.0001286
-1.21366e-07
4.20435e-05
-4.1922e-05
8.98692e-06
3.46223e-05
-4.36092e-05
-0.000120132
0.000141496
-2.13646e-05
-0.000171003
-0.000152911
0.000323914
-7.043e-05
8.85498e-05
-1.81196e-05
0.000239477
-0.000186154
-5.33235e-05
-0.000126787
0.00176326
3.70022e-05
0.000174179
3.50109e-05
0.000132159
3.93727e-05
-3.88975e-05
-3.45885e-05
4.35754e-05
-6.20327e-05
1.97349e-06
6.00589e-05
-0.00054838
-2.00006e-05
0.000568383
0.000138636
-0.00112932
0.000990687
-2.80239e-05
8.21011e-05
-5.40773e-05
0.00105816
-0.000398991
-0.000659173
0.000108623
-6.51931e-05
-4.34297e-05
-2.39093e-05
1.00329e-05
3.171e-05
-0.000516153
9.4554e-05
-2.05234e-05
6.93688e-05
-3.18728e-05
-3.7496e-05
-3.66137e-05
8.48658e-05
-4.82524e-05
-9.03703e-05
0.000173723
-8.33539e-05
0.000434718
-0.000331282
-7.49007e-05
0.000219162
-0.000144261
-0.000290664
0.000200616
4.11187e-05
-0.000162484
0.000149263
9.02135e-05
-0.000340693
-0.000137334
9.82112e-06
-9.2348e-05
8.25271e-05
1.56287e-05
-7.42739e-05
-0.000242101
0.0001672
-9.59662e-05
8.56162e-06
8.74046e-05
0.000814303
-8.35914e-05
-0.000730709
-0.000626857
6.0005e-05
0.000566853
7.07084e-05
-6.70231e-05
-0.000138031
3.70147e-06
-4.10711e-05
8.76203e-06
7.2895e-05
0.000114388
6.9192e-05
6.75612e-05
9.76319e-05
-7.28765e-05
7.62548e-05
-3.37835e-06
1.59323e-05
-2.18192e-05
2.90588e-05
-7.23953e-06
-9.98735e-05
0.000140993
-1.18249e-05
-0.000115431
-0.000386824
-0.000319019
0.000470853
-0.000472845
-5.05754e-06
2.55005e-05
-2.04429e-05
-0.000100761
5.49626e-05
0.000821139
0.000298904
-6.84475e-05
-3.15894e-05
6.79238e-05
-4.70656e-05
-2.08582e-05
-3.02259e-05
6.76434e-06
2.34616e-05
-2.17126e-05
0.000136837
-0.000115125
-0.000189718
9.33267e-05
0.000105772
2.09886e-05
5.35726e-05
2.96306e-05
-0.00059743
0.000306399
0.000291029
0.00012118
0.000180097
2.0213e-05
-3.32539e-05
-0.000158094
-0.000147602
0.000229701
-0.000400704
-6.5551e-05
0.000391365
-1.90315e-05
-2.33701e-05
4.24015e-05
-0.000379494
0.00040908
-2.95858e-05
0.000727179
-0.000410199
0.000543329
-5.26924e-05
-6.54296e-05
0.000107013
-2.48268e-07
-0.000106765
-8.46715e-07
0.000120261
-0.000119414
1.39986e-05
-6.99008e-05
9.6829e-05
-4.14063e-05
-5.54227e-05
5.43924e-05
-8.24163e-05
-0.000188018
-0.00026018
-5.91982e-05
4.52636e-05
1.39347e-05
-0.000693748
0.000645092
-3.90349e-06
2.89227e-05
-2.50192e-05
-3.61026e-05
-2.09468e-05
5.70494e-05
-2.01592e-05
-3.49073e-05
0.000200002
-0.000175244
-2.47585e-05
-9.6483e-06
-5.49314e-05
6.45791e-05
0.000348192
0.000509832
0.000263703
-3.99325e-06
-0.000259711
8.38829e-05
-3.42635e-05
0.000176742
-0.00029409
-4.07978e-05
8.35469e-05
-4.27491e-05
2.87025e-05
-5.98235e-05
3.11211e-05
2.48826e-05
5.99792e-06
-3.08804e-05
-0.000101543
9.42905e-05
0.000488986
-0.00029427
-0.000194715
-3.15946e-06
-6.97171e-05
2.90726e-06
0.000131874
-0.000134781
-1.64949e-05
0.000133111
-3.49309e-05
-1.96649e-05
5.45962e-05
-8.84015e-07
-1.64928e-05
1.73759e-05
7.39799e-08
-5.84984e-08
-1.54871e-08
0.000159925
-0.000157018
1.47256e-05
-5.07668e-05
3.60411e-05
-0.000108183
-2.42953e-05
0.000132479
-0.000223507
0.000168363
5.51441e-05
-5.27251e-05
0.000242224
-0.000189498
0.000120143
-9.33434e-05
-2.6801e-05
0.000292499
-0.00116952
0.000877021
0.000567692
0.000246612
4.43704e-05
-4.44917e-05
-1.60492e-05
-2.84316e-05
8.30251e-05
-5.33059e-05
-2.0444e-06
5.58741e-05
0.00040311
0.000127076
-3.8949e-05
6.17714e-05
-2.28222e-05
-1.16246e-05
-2.32672e-05
3.48916e-05
-0.000115419
9.85111e-05
2.26076e-05
-7.25976e-05
4.99903e-05
0.000224821
-7.3079e-05
-0.000151742
-0.000169574
4.43268e-05
0.000125247
7.84108e-05
-5.00546e-05
-2.83562e-05
-0.000362174
0.000212247
0.000149927
6.78611e-05
-5.08412e-06
-6.2777e-05
1.02977e-05
7.91014e-05
-8.93994e-05
7.6029e-05
-5.34213e-05
8.98609e-05
-5.25577e-05
-0.000819312
0.000704116
0.000115195
-0.00146907
0.000600294
0.000868768
-7.34393e-05
8.56591e-06
0.000116641
-7.79257e-05
-3.87149e-05
0.000606426
-0.000549997
-5.64298e-05
-0.000217232
0.00042798
-0.000210748
-2.47883e-05
0.000104795
1.53089e-05
0.000469475
-0.000484784
-4.11593e-05
8.19902e-05
-4.08309e-05
4.78124e-05
-1.50058e-05
-3.28066e-05
0.000179733
2.8089e-06
4.74892e-05
-5.02979e-05
-3.13459e-05
7.07079e-05
-3.93621e-05
-0.000534273
1.65156e-05
1.71028e-05
-9.35619e-05
3.33423e-05
-2.69331e-05
3.7864e-05
-1.09308e-05
-6.23144e-06
-5.32627e-05
4.28187e-05
0.000123984
-8.06869e-05
1.17243e-06
7.95145e-05
0.000166839
-0.000131828
-1.16099e-05
-5.23437e-05
6.39535e-05
-6.89496e-05
5.16977e-05
-0.000217277
-0.000144897
-0.000199056
9.09868e-05
0.000108068
-8.31787e-05
4.23809e-05
0.000660177
-0.000651085
-9.1012e-06
-5.35544e-05
-9.39794e-06
6.29519e-05
0.000198312
-7.14762e-05
-0.000126835
2.45458e-05
7.25834e-05
-9.71289e-05
-5.13168e-05
9.93287e-05
0.000118114
-9.54086e-05
-0.000110634
0.000160395
-4.97632e-05
4.97407e-05
-3.31939e-05
2.91374e-05
4.92734e-05
-4.53865e-05
8.09824e-05
0.000284606
-0.000319315
3.47087e-05
-0.000117553
0.000331607
-0.000214053
3.37951e-05
4.62558e-05
-8.0051e-05
-4.45268e-05
3.10954e-05
1.34314e-05
0.000234043
-0.000220689
-1.33543e-05
2.77294e-05
-4.37785e-05
0.000217385
-5.1658e-05
-0.000165727
-5.70421e-05
1.80933e-05
6.11616e-05
-9.82641e-05
3.71034e-05
3.46643e-05
-8.00509e-05
-2.04124e-05
-1.10462e-05
-6.93034e-05
0.000106898
-3.75941e-05
-3.63355e-05
-4.20074e-05
-3.34632e-05
7.54709e-05
3.18196e-06
-9.06296e-05
8.74478e-05
0.000192933
-0.000156506
-3.64269e-05
-6.06953e-05
5.67199e-05
3.97535e-06
0.000246642
-0.000604953
0.00035831
4.2514e-05
4.13008e-05
-8.38148e-05
-0.000562682
0.000584254
-2.15717e-05
5.90625e-05
4.40622e-05
-0.000103124
0.00066948
-0.000486329
-0.000183151
6.8644e-06
2.70518e-05
-0.000760426
-0.000708639
-9.74249e-08
1.65442e-07
-0.000120037
8.23396e-05
3.7698e-05
0.00101234
-0.000619787
-6.53901e-05
-0.000104441
0.000169831
-0.000549155
3.39296e-05
1.98213e-05
-0.000139953
-8.17518e-05
0.000114365
-1.10831e-05
-0.000533125
0.000483674
-0.000203184
-0.00028049
6.59218e-05
-1.38798e-05
-5.2042e-05
-0.00037189
-0.00022554
0.000146476
2.86087e-06
-0.000149336
-4.33797e-05
-0.000410392
6.33847e-05
0.000347007
-6.85744e-05
-1.21125e-05
0.000180085
1.28487e-05
0.000123857
4.2982e-05
4.75999e-05
0.000150712
0.00017775
0.00054302
0.000300958
-0.00143894
2.14657e-05
-6.72868e-05
0.000102387
-0.000134883
-1.38369e-05
-2.00198e-05
3.38567e-05
0.000102051
1.86454e-05
2.38419e-05
-1.17096e-05
-0.000108649
-9.04062e-05
0.000113657
-0.000135525
2.18678e-05
8.57444e-05
-2.45826e-05
-0.000109782
0.000180677
-4.37965e-06
2.19865e-06
2.18102e-06
-0.000278761
8.63966e-05
-4.69029e-05
3.4375e-05
0.000179956
-8.89694e-05
-4.25017e-05
-6.68947e-05
7.2043e-05
-0.000181825
4.61761e-05
-4.74569e-05
0.00109231
0.00105965
-1.51081e-05
0.000121991
-0.000106883
0.000105653
5.77459e-05
-0.000163399
0.000361655
0.000385859
0.000690833
-3.06556e-05
0.000489998
-0.000867879
0.000377881
3.44872e-05
-7.62941e-05
4.18068e-05
-0.000536466
-2.62156e-05
7.47127e-05
3.39101e-05
2.86704e-05
-1.58258e-05
-1.28446e-05
0.000141169
0.000514329
0.00015515
7.99705e-06
-6.25574e-06
-1.74118e-06
9.89235e-05
0.000120191
-0.000219115
-0.000936963
0.00119271
-0.000255745
1.8548e-05
-0.000165263
0.000146715
-3.93081e-05
8.2546e-05
-4.32379e-05
0.000106052
-0.00013323
0.000644562
-0.000156323
-0.00130925
0.000372294
-6.79821e-05
0.000122946
-5.49638e-05
-2.92229e-05
8.63013e-05
-5.70784e-05
0.000503842
-0.000316973
-0.000186869
-0.000162817
0.000154375
8.44115e-06
-0.00090062
0.00113768
-0.00023706
1.76707e-05
-6.20328e-05
4.43621e-05
-7.08341e-06
6.91874e-06
0.000175916
0.000262264
-0.000107279
-0.000154983
-7.77011e-05
9.59318e-05
-1.82306e-05
0.000110077
0.000152184
0.000544446
-0.000796332
4.78851e-05
-7.06142e-05
-0.000162905
0.000233519
0.0011233
-0.00118894
6.56344e-05
0.000768456
-0.00051208
-0.000256378
-0.000138331
5.73652e-05
8.09659e-05
-0.00011587
0.000121686
5.71646e-05
-0.000249697
0.000126212
0.000123486
-0.000591261
4.2884e-05
4.39369e-05
1.16548e-05
-5.55913e-05
-0.000127107
0.000129916
-8.06592e-06
-6.13645e-05
7.38786e-05
-4.19969e-05
-3.18817e-05
0.00131231
-0.00105963
-0.000252683
8.62978e-06
5.82977e-05
-6.6928e-05
-0.000847055
0.000225072
0.000621983
0.000142954
-8.5506e-05
-5.74484e-05
0.000182181
-0.000110139
-3.05058e-06
3.76728e-05
0.000225721
-0.000190156
-3.55648e-05
-2.71595e-05
-0.000135657
-3.96222e-05
0.000147878
3.99571e-05
-1.72231e-05
-2.2734e-05
-0.000338548
-0.000209508
0.000548069
-1.89429e-05
1.78065e-05
1.13641e-06
4.65438e-05
0.000144505
-0.000191049
3.94268e-05
-9.69063e-05
-0.00114937
0.000248748
2.81854e-06
6.31032e-05
4.42388e-05
-2.43238e-05
5.14688e-05
0.000239444
-0.000391
0.000151556
-0.000446479
4.20929e-05
0.000404386
-0.000384803
0.000167569
0.000176734
4.0651e-05
8.51104e-05
3.50313e-05
-6.40557e-05
5.43505e-05
9.70514e-06
-5.99763e-05
7.56047e-05
-0.000593038
0.000254487
2.73421e-05
-0.000135525
-4.42459e-05
7.64612e-05
-0.00065778
0.000270956
0.000178659
-4.23235e-05
-0.000136336
-0.000163583
0.00014114
-4.08196e-05
9.22451e-05
-5.1425e-05
1.19758e-05
-6.55304e-05
3.23403e-05
-8.53444e-06
-2.38058e-05
1.75746e-05
-3.14115e-05
-0.000398897
0.000357294
-0.000642779
0.000637467
5.31623e-06
-0.0002573
0.000186285
7.10154e-05
-3.76688e-05
8.65246e-06
2.90164e-05
-0.000142772
0.00020012
-5.73482e-05
6.52635e-05
-7.43112e-05
9.0478e-06
0.000134081
0.000685217
-0.000819301
2.54805e-05
6.85986e-06
0.000671922
-0.000246071
-0.000425855
0.000129527
-6.75415e-05
0.000228869
-0.000360442
0.000131572
-0.000132221
-0.000117475
5.4382e-05
-9.44555e-05
4.00735e-05
-1.31517e-05
7.10298e-05
-5.78783e-05
-5.70559e-05
-6.41897e-05
5.25798e-05
9.14438e-05
-4.07048e-05
3.70382e-05
5.44055e-05
-9.66446e-05
2.14293e-05
7.52151e-05
-6.07811e-05
0.00012016
-5.93793e-05
2.68529e-05
-9.09359e-05
7.97147e-05
-7.80963e-05
-1.61801e-06
-7.25761e-07
-7.97614e-05
8.04874e-05
3.28334e-05
-1.87795e-05
-2.91321e-05
-5.24417e-05
8.15737e-05
1.41963e-05
2.5761e-05
6.66184e-05
-3.92505e-05
-0.000157595
3.82692e-05
0.000119326
-2.86539e-06
-4.32957e-05
-2.58478e-05
0.000112739
-6.48412e-05
-4.7898e-05
3.12556e-05
9.82708e-05
0.000332883
0.000170959
-4.37887e-06
0.00010643
-0.000105518
0.000214028
-0.000108511
5.86603e-05
0.000166203
-7.63642e-05
0.000130949
-5.45844e-05
-0.000611379
0.000252288
-6.59e-05
7.34767e-06
5.85523e-05
4.0939e-05
-1.01221e-05
3.23316e-05
-2.22095e-05
2.15261e-05
-7.38698e-05
-4.03687e-05
-5.13552e-05
-0.000136324
0.000135477
3.7722e-05
-4.06786e-05
2.95669e-06
2.53215e-05
6.24294e-06
-3.15644e-05
5.81794e-05
-4.71468e-05
-1.10326e-05
-2.52513e-05
3.53659e-05
-1.01146e-05
0.000410967
-0.0001821
2.80661e-05
-0.000109818
3.24761e-05
1.76026e-05
-0.000101458
0.000121877
-2.04187e-05
-7.12669e-05
2.93299e-05
6.68894e-05
-7.70701e-05
1.01806e-05
-7.48801e-06
3.14538e-05
-2.39658e-05
0.000822776
-4.60788e-05
-0.00101928
0.00107644
-7.48535e-05
6.09739e-05
0.000721557
-0.000542469
-0.000179086
-0.00104811
-0.000138355
0.000283688
0.000378337
-0.000662026
-0.000179443
0.000107328
0.00061443
-0.000588337
-2.60886e-05
-0.000145578
0.000476254
2.3109e-05
6.67519e-05
-1.58275e-05
5.62154e-05
-4.03878e-05
7.8963e-05
7.51824e-07
-0.0013436
3.43489e-05
0.00028805
-0.000582324
0.000294274
-8.34244e-05
8.66281e-05
-3.20377e-06
8.17979e-05
-4.0463e-05
-4.13348e-05
-1.06172e-05
0.00032359
-0.000312973
6.33395e-05
-5.13638e-05
-7.33239e-06
5.10353e-05
-4.37029e-05
-8.1072e-05
5.19399e-05
-0.000125838
0.000104125
-1.54943e-05
7.97396e-05
-6.42454e-05
3.94997e-05
-2.43374e-05
-1.51623e-05
2.62472e-05
-8.61265e-06
-4.17554e-05
-4.50037e-05
8.67591e-05
6.04696e-05
-7.13044e-05
1.08348e-05
0.000897307
-0.000961602
6.42944e-05
-6.17402e-06
0.00020731
5.42531e-05
1.96255e-05
0.00027399
0.000273142
0.00114355
6.30054e-06