/*--------------------------------*- C++ -*----------------------------------*\
| =========                 |                                                 |
| \\      /  F ield         | OpenFOAM: The Open Source CFD Toolbox           |
|  \\    /   O peration     | Version:  v2012                                 |
|   \\  /    A nd           | Website:  www.openfoam.com                      |
|    \\/     M anipulation  |                                                 |
\*---------------------------------------------------------------------------*/
FoamFile
{
    version     2.0;
    format      ascii;
    class       volVectorField;
    location    "100";
    object      ddtCorrDdt0(U);
}
// * * * * * * * * * * * * * * * * * * * * * * * * * * * * * * * * * * * * * //

dimensions      [0 1 -2 0 0 0 0];


internalField   nonuniform List<vector> 
53008
(
(-0.00122874 -0.000178445 3.61722e-21)
(0.0123593 0.0116827 -1.29244e-21)
(-0.000604905 0.000451515 -1.85339e-21)
(-0.00510165 6.56512e-05 -2.12148e-21)
(0.00112932 7.89698e-05 -2.7694e-21)
(0.00387487 0.0065356 8.46322e-22)
(-0.00205198 -0.000234762 -8.40108e-22)
(-0.0012237 -0.000202836 -4.00908e-21)
(-0.00164593 0.000661402 -7.39186e-22)
(-0.00051773 0.000303402 -3.39256e-22)
(-0.00247365 -0.0104024 -8.40923e-22)
(-0.00281627 0.000284745 2.36183e-21)
(-0.0396634 0.00277594 5.05629e-22)
(-0.0296408 -0.0353032 -9.57763e-22)
(-0.00047207 0.00036147 0)
(-0.000232606 -7.82197e-05 -3.53538e-21)
(-0.000806941 -0.0012324 2.83052e-21)
(-0.000237492 -7.62665e-05 5.84745e-21)
(0.0155042 0.0190878 0)
(-0.000345576 -0.00175041 -3.18493e-21)
(-0.000750034 -0.000914256 -2.50532e-21)
(-0.00129914 0.00186929 -5.13195e-22)
(-0.000135941 2.86654e-05 -1.67507e-21)
(-0.00201412 -0.000198831 0)
(-0.000699938 -0.000762069 2.30786e-21)
(-0.00613317 0.00135078 1.24516e-21)
(-0.0300774 -0.0356606 0)
(-0.00185708 0.000257429 4.05146e-22)
(-0.0147658 -0.0270839 2.99653e-21)
(-0.0221881 -0.01255 7.683e-21)
(0.0194879 0.0209967 1.72355e-21)
(-0.0193349 0.0071227 0)
(0.0292592 -0.00146307 0)
(-0.000698128 2.44211e-05 -3.39942e-21)
(-9.0073e-05 -3.01751e-06 -2.18735e-21)
(-0.00130254 0.000996579 -1.17197e-21)
(-0.000939141 0.000244835 2.91971e-21)
(-2.137e-07 1.69257e-06 -2.48587e-22)
(-0.00185162 -0.000553434 1.13958e-21)
(-0.000770709 7.57243e-05 0)
(-0.000927293 0.000232742 -2.67297e-21)
(0.0130265 0.00430585 4.38226e-21)
(-0.00116733 -0.010675 3.1717e-21)
(0.00269414 0.0174443 0)
(-0.000343471 -0.00177855 1.65269e-21)
(-0.000311053 -0.000182377 2.39513e-21)
(-0.000136057 -0.000496986 4.5943e-21)
(-0.000185703 -0.00125654 -2.23004e-21)
(-0.0147485 -0.00589002 -2.41951e-21)
(-0.00014445 0.000122484 -7.67325e-22)
(3.30583e-05 -1.66535e-05 0)
(-0.000446904 0.00108285 -1.52467e-21)
(-0.00111222 -0.000609784 5.11397e-21)
(-0.000129963 0.000123239 -1.50866e-21)
(0.000802036 -0.00348081 0)
(0.0141365 0.019053 -4.29974e-22)
(-0.000374405 -0.00171235 0)
(-0.000116382 -8.65073e-06 1.60123e-21)
(0.0221744 -0.0228744 8.94643e-22)
(-0.00149438 -0.0037501 4.51716e-21)
(-0.000642057 -3.16456e-05 3.7908e-21)
(-0.00114057 0.000234712 -3.12648e-21)
(-0.021644 -0.0079732 -3.35167e-21)
(-0.0556529 0.000581826 1.65336e-21)
(-0.00419944 0.00181295 -9.26821e-22)
(-0.000290457 0.000520055 1.52813e-21)
(-0.0214925 -0.0120393 -9.21148e-21)
(-0.000134295 -0.000483517 -1.88648e-21)
(-9.68154e-05 -1.50327e-05 2.79202e-21)
(-0.000333704 -7.64645e-05 2.12693e-21)
(-0.000873738 0.00160034 -2.14999e-21)
(-7.86397e-05 -2.0897e-05 -2.2852e-21)
(-0.000140999 0.000852025 0)
(0.0292006 -0.00165375 0)
(-0.00619436 0.00151469 -3.77888e-22)
(-9.3195e-05 9.18345e-07 0)
(3.05976e-08 1.52267e-05 0)
(0.00304587 0.00709512 1.52063e-21)
(-0.000192996 -8.09702e-05 0)
(-0.000237175 0.00164452 0)
(0.00477529 0.00649394 -6.42162e-22)
(-0.0270686 0.00784711 0)
(0.0107504 -0.0104286 1.35282e-21)
(-0.00502522 0.000845625 -1.75882e-21)
(-0.00130671 0.000132445 2.60513e-21)
(-0.000340401 -7.52201e-05 2.11889e-21)
(-0.00207218 0.00270446 -2.66397e-21)
(-0.00161384 0.000652319 0)
(-0.000295723 0.000521477 -3.28327e-21)
(0.000222877 -0.00272796 -3.34335e-21)
(-0.00172876 0.0020236 5.89492e-22)
(-0.0131766 0.00499769 1.074e-21)
(-0.0277578 0.0071069 0)
(-0.00382736 0.00306868 -2.00841e-21)
(0.0163601 0.0167699 1.32661e-21)
(0.00366836 -0.0121163 5.41907e-21)
(-0.0348829 -0.0266037 -4.4988e-22)
(-0.000593423 0.000445646 1.69451e-21)
(-0.016154 6.87038e-05 1.20855e-21)
(-0.023201 -0.00758049 2.32493e-21)
(-0.000375997 -0.00174321 0)
(-0.000762769 7.26257e-05 1.83389e-21)
(-0.0083791 0.00351627 -2.9796e-23)
(-0.00191208 0.000228159 -3.59857e-22)
(-0.00127456 -0.000205709 0)
(-0.00857618 -0.010254 -4.99575e-22)
(-0.00479032 -0.00826952 1.30292e-21)
(-0.00127555 0.000983911 -2.09449e-21)
(-0.00632604 -0.00808991 2.17371e-21)
(-7.67831e-05 -1.78552e-05 2.55501e-21)
(-0.00408765 -0.00227294 4.91807e-22)
(-0.0114587 0.000260189 0)
(-5.16801e-07 1.28888e-05 0)
(0.0148524 0.0160338 1.21834e-21)
(-0.0368765 -0.0298023 0)
(-1.54128e-05 -9.97527e-06 -3.24219e-21)
(-0.000626637 -0.00131921 3.01408e-21)
(-0.000150452 -6.78061e-05 2.35888e-21)
(0.0192024 0.0243986 0)
(-0.00140681 0.00205388 4.57954e-21)
(0.000800411 0.000317864 -2.32685e-21)
(-0.000139446 0.000851644 -6.79197e-22)
(-0.00073567 3.97124e-05 -2.26731e-21)
(-0.00170835 0.00563827 2.72086e-21)
(0.00506688 0.00696253 1.59923e-21)
(-0.000140224 0.000511617 -1.73554e-21)
(-7.84909e-05 0.00185651 -2.1695e-21)
(-0.0160088 -0.0127486 1.07436e-20)
(-0.00131123 -0.00289007 -3.92427e-21)
(-0.0003901 0.000531726 2.35786e-21)
(0.00934933 0.0119085 0)
(-0.000490254 -0.000142511 1.14087e-21)
(-0.00499029 0.000991694 2.4223e-21)
(-0.000935134 5.30801e-05 -1.10412e-21)
(-0.000146316 -3.01068e-05 1.50073e-21)
(0.0209963 -0.0228993 -4.76067e-22)
(-3.09165e-05 0.000569328 -1.52304e-21)
(-0.0395434 0.00328247 0)
(-0.000411889 4.42678e-05 1.82065e-21)
(-0.000347507 -0.00012833 -2.72918e-21)
(-0.000233445 -3.83718e-05 0)
(-0.000341435 -0.00010889 0)
(-0.00137929 8.48674e-05 -1.78858e-21)
(0.0148553 -0.0287824 7.57537e-22)
(-0.00132616 -0.00296492 2.85043e-21)
(-0.000665399 0.000328577 2.69096e-21)
(-0.000606848 -0.00131342 -3.84893e-21)
(-0.00011674 -2.0521e-05 1.36459e-21)
(8.72923e-05 -0.000394333 -2.09857e-21)
(-0.00065996 2.53329e-05 -1.56208e-21)
(-3.23921e-05 0.000241917 1.13064e-21)
(-0.0215926 -0.00768977 0)
(0.0020528 -4.7415e-05 2.95867e-21)
(-0.00133626 0.00188261 -1.25005e-21)
(-0.000175025 0.00011551 0)
(-0.00109677 -0.000604463 -1.72769e-21)
(-0.019343 -0.0260011 9.70791e-22)
(0.0147343 0.00430288 2.83292e-21)
(-0.000800255 7.84102e-06 -4.05991e-21)
(-0.0013519 -0.00719849 0)
(-0.000129715 0.00072701 -2.17342e-21)
(-0.000141011 0.000109771 -2.21011e-21)
(-0.000190951 0.000121683 -2.73347e-21)
(-0.0124372 0.00542448 -9.88068e-22)
(-0.000846883 -0.000338225 2.41043e-21)
(4.92271e-08 -1.22006e-07 5.47209e-24)
(-0.000299413 0.000318489 0)
(-0.00108945 0.000181183 3.83713e-21)
(-0.000141309 6.95891e-05 0)
(-0.000288049 0.000679668 1.11803e-21)
(-0.001129 0.000152599 -3.03998e-21)
(-0.0381703 -0.0105349 -1.7181e-22)
(0.00946025 0.0121175 -2.88386e-22)
(-0.000202909 0.000260196 0)
(-0.00159205 0.0053111 -2.92917e-21)
(-0.000273217 -5.56277e-05 -2.66835e-21)
(-0.00129343 0.000113802 0)
(0.00354756 -0.011613 -1.49789e-21)
(-0.0020241 0.00265482 1.72533e-21)
(-0.00190419 0.000579971 -1.23273e-21)
(-0.000729911 3.57585e-05 1.93405e-21)
(-0.000832155 -0.000345917 -2.08688e-21)
(0.00248829 0.0176548 -3.98033e-21)
(-0.000535019 0.000262223 4.37175e-21)
(-0.00275362 0.000253967 0)
(-0.0549282 0.000593607 0)
(-0.0194821 -0.00837798 4.84827e-22)
(0.00871644 0.0114618 1.085e-21)
(-0.00070266 -0.00670068 0)
(-0.000115789 -1.96152e-05 0)
(-0.0107559 0.000809203 4.94541e-22)
(-0.000655857 -2.26889e-05 0)
(-0.00282646 0.00252974 6.69346e-22)
(-0.000575904 0.00193568 -6.04352e-21)
(-0.000246364 0.000532902 0)
(0.000135584 -0.00104324 2.39968e-21)
(-0.00114272 0.000101973 -3.77693e-21)
(-0.000149385 1.23344e-05 0)
(-7.26486e-05 0.00025512 0)
(-0.000320782 0.00089182 1.75475e-21)
(-0.000332263 0.00207452 0)
(-0.000543075 -0.00011073 -4.05932e-21)
(-0.00133548 -0.000564729 2.57861e-24)
(-0.000411813 -7.64422e-06 1.23526e-22)
(-0.00560705 -0.0139944 0)
(0.00752063 -0.0065871 -4.4186e-21)
(-0.000746512 -0.0012997 3.11783e-21)
(-8.97808e-05 0.00023563 1.20952e-21)
(-0.000751015 0.00021792 -9.42191e-22)
(-0.000154115 -5.59229e-05 -4.28311e-21)
(-0.00458931 -0.008592 1.25159e-21)
(-0.000761886 7.45087e-05 2.15815e-21)
(-0.0287926 -0.00630067 6.80508e-21)
(-0.000589174 0.000489546 4.06709e-22)
(-0.00622238 -0.00782558 0)
(-4.54336e-05 0.000353732 6.8415e-22)
(-3.96048e-05 0.000529574 1.44011e-21)
(-0.000136277 1.99355e-05 1.56933e-21)
(-8.99521e-05 -0.000124669 2.28138e-21)
(-0.000296251 0.000633342 0)
(0.00297919 -0.0234991 -2.96551e-22)
(-0.000106302 -0.000196146 -2.8508e-21)
(0.00880273 -0.0110606 -7.19339e-21)
(-0.000102288 -0.000207553 -4.87949e-24)
(-0.000874425 -4.71741e-05 -1.82208e-21)
(0.006692 -0.00595791 -2.87015e-21)
(-0.000735632 7.98231e-05 0)
(-0.00161785 -0.000166716 4.39799e-22)
(-0.00139886 0.000263843 2.29047e-21)
(-0.000228892 -4.06996e-05 0)
(-0.034026 -0.00697962 0)
(-0.0384137 -0.0301636 0)
(4.80282e-05 -0.000362993 6.57184e-21)
(-0.0428561 -0.0118978 0)
(-0.00235084 0.00244452 0)
(-0.00865259 -0.0101916 1.90351e-21)
(-0.000100454 -0.00109865 -4.52903e-21)
(-0.000149146 -2.9434e-05 0)
(0.00571117 -0.000205631 0)
(-0.000226627 -0.000117644 2.15225e-21)
(-0.000481149 -0.000146974 -2.11479e-21)
(-0.000691086 2.05777e-05 5.92736e-21)
(-0.00524119 0.0160631 -1.1568e-21)
(-0.00066918 2.08984e-05 0)
(-0.00137291 -0.000671202 0)
(-4.75651e-07 1.64303e-05 -1.11265e-21)
(-0.000460338 -0.00279388 -2.62571e-21)
(0.0037672 -0.0228704 0)
(-5.89825e-05 9.51044e-05 -6.08429e-22)
(-0.00141065 -0.00367209 0)
(-0.000744905 -0.00045925 -2.14852e-21)
(-0.000396228 0.000560192 1.22823e-21)
(-0.000424328 7.1413e-06 -3.4283e-21)
(-0.000315941 0.000872693 0)
(-0.0006431 1.44104e-05 0)
(-0.0205989 -0.00825035 4.71068e-22)
(0.0149209 -0.0280633 2.55621e-21)
(-0.000408313 -0.000429591 -3.3318e-21)
(-0.000107651 -0.000182697 0)
(-0.000455214 -0.00167902 0)
(-0.00636361 0.00275551 0)
(0.020792 -0.0242586 2.65452e-21)
(-0.00108287 0.000178555 -3.30626e-21)
(-4.11207e-05 -8.77373e-06 -4.51367e-21)
(-0.000203636 0.000321756 -6.42822e-24)
(-0.0262522 -0.034397 -4.70847e-22)
(0.00581939 0.00154539 -2.91925e-21)
(-0.000141437 -9.09674e-06 -4.30612e-21)
(-0.0183494 -0.00869158 0)
(0.00931537 -0.011521 3.57518e-21)
(0.000102567 -0.0003072 1.94606e-21)
(-0.000923268 5.50769e-05 2.87897e-21)
(-0.000370037 0.000574638 -4.00763e-21)
(-0.00590618 0.016083 3.38599e-21)
(0.0145154 -0.0073011 0)
(-1.70791e-05 -0.000196045 -4.90021e-21)
(-0.00513403 -0.0138486 -5.48839e-22)
(0.00661271 -0.0152998 -4.24639e-21)
(0.000347925 -0.00345005 -3.43419e-21)
(8.7767e-05 -0.000858769 5.31919e-21)
(-0.000136667 2.29937e-05 0)
(-4.31237e-07 2.37504e-06 0)
(0.000282351 -0.00351618 -2.01886e-21)
(-0.00259742 8.28335e-05 -1.43216e-23)
(-0.000663187 0.000383336 4.62527e-22)
(-0.00189142 -0.000527469 -2.68284e-21)
(-0.00136141 0.000341849 -1.61403e-21)
(0.00211413 -0.00300815 0)
(-0.00266369 9.5751e-05 2.35531e-21)
(-0.000529057 0.000263183 -1.42051e-21)
(-0.00111759 -0.0099525 3.18902e-22)
(-0.0242244 -0.0200112 1.85926e-22)
(0.000681108 -0.000217626 -1.04605e-21)
(-0.0427118 -0.0155024 7.82761e-22)
(-0.00213426 0.00257488 -2.15489e-21)
(-9.319e-05 7.77593e-07 0)
(-0.00263029 -1.96624e-05 -3.38767e-21)
(0.0057994 -0.0123009 9.88233e-22)
(-0.0191433 -0.00859876 0)
(-0.000220651 -0.0012199 -2.2132e-21)
(0.000690073 -0.000326218 0)
(-0.000945395 -0.00674066 0)
(0.0186257 0.00745227 0)
(0.00845322 -0.00720196 4.22705e-21)
(-6.39487e-06 0.000110566 0)
(0.0125174 0.0112597 6.48174e-22)
(-0.000476578 0.00042806 -7.888e-22)
(-0.000400092 -0.000430118 3.5129e-21)
(-9.36694e-06 -1.32185e-05 4.86524e-21)
(-0.000287481 -0.000845815 -4.5685e-21)
(-0.0340633 -0.00752765 -1.31491e-22)
(-0.0261409 -0.00437974 0)
(-0.027826 -0.0346679 -1.66468e-21)
(0.0185169 -0.00660172 7.38364e-22)
(-0.00771541 -0.00440618 3.00662e-21)
(-0.000781166 0.000202822 0)
(7.73598e-09 -6.08095e-08 0)
(-9.44322e-05 0.000387919 -7.71352e-22)
(-2.25777e-05 -0.000193514 -2.47375e-21)
(-0.00240373 -0.000101097 -2.34147e-21)
(0.00534929 -0.0121555 0)
(0.0135509 0.00544833 -4.51386e-21)
(-0.001308 0.00043053 -3.15901e-21)
(0.0182925 -0.00706333 -4.21885e-23)
(-0.000156491 -0.00920282 1.24683e-21)
(-0.000145932 0.000848049 1.39568e-21)
(-0.0199421 -0.0266239 -1.09786e-21)
(-0.000948806 -0.00176233 0)
(-0.000172676 0.000123889 0)
(-0.0011369 0.000147474 -2.13114e-21)
(-0.00969233 0.00716686 0)
(-0.000241871 0.000522931 -1.47966e-21)
(-3.15689e-07 3.08332e-06 0)
(-0.000652072 -7.20122e-06 0)
(-0.000169204 -0.000136123 -2.14723e-21)
(-0.000119034 -0.00016023 2.83289e-21)
(-0.00281561 0.00246123 -6.70416e-22)
(5.8194e-05 -2.23665e-05 3.47335e-21)
(-0.0359041 -0.0265306 4.49945e-22)
(-0.000548586 0.000434949 7.52286e-22)
(-3.54795e-07 2.80526e-06 0)
(-0.000138976 4.62643e-05 -8.25814e-22)
(-0.000177249 0.000773459 0)
(-0.000518262 -0.000111501 -4.59022e-21)
(-0.000476588 0.000358954 -3.35222e-22)
(-0.0255948 -0.0346195 -8.38621e-22)
(-0.00200808 -0.00027464 -2.87956e-21)
(-0.00143711 0.00748375 0)
(0.0194825 -0.0241753 -4.03701e-21)
(-0.0167003 0.0075217 -8.92839e-22)
(-0.000880905 0.00990226 -1.80591e-21)
(0.023397 -0.0053925 -7.52231e-22)
(-0.000105111 -0.0010794 0)
(-8.01352e-05 0.000150262 0)
(0.00410023 0.00108106 1.63673e-21)
(0.0171388 0.0174577 -6.04831e-22)
(-0.000179183 0.000240589 -1.44561e-21)
(-0.000308264 0.000464812 -1.33025e-21)
(-0.00621183 0.00238979 0)
(0.00612067 0.00215776 -5.4903e-21)
(-9.22142e-05 0.000777746 1.39982e-22)
(-0.00134914 0.000366753 -2.26509e-21)
(-0.000502938 -0.000122671 3.43571e-21)
(0.00240008 0.00123748 5.34135e-21)
(0.000163599 0.000361418 -1.20711e-22)
(-0.0389141 -0.00790529 0)
(-3.12783e-05 -0.000169873 2.14859e-21)
(-0.0018042 -0.00232219 3.48842e-22)
(-0.00104832 0.000205632 -1.66103e-21)
(-0.000740448 0.00023143 0)
(-0.0184388 -0.0083354 3.72975e-21)
(0.000144916 -0.00169229 3.28228e-21)
(-0.00193663 0.00248536 0)
(0.00466116 -0.023184 5.28954e-21)
(0.000203214 0.000436582 1.49305e-22)
(-0.000759025 -0.00132891 -8.05932e-22)
(-0.00345903 -0.00232337 5.25399e-22)
(-0.00228473 0.00316939 -1.32327e-21)
(-0.0270097 -0.0350416 0)
(-0.0108377 0.00669404 0)
(-9.34986e-05 -8.24449e-06 2.61142e-21)
(-0.000723934 8.73044e-05 -1.12147e-22)
(-0.00112385 0.000151672 -2.23132e-21)
(-0.000458245 -0.00171203 4.52339e-22)
(0.00634249 0.00154168 9.86822e-21)
(-0.000217655 8.70025e-07 0)
(-0.000740294 -0.000946889 -2.65459e-21)
(-0.0241877 -0.0206634 -3.43574e-22)
(-0.000183064 0.000262505 4.45111e-23)
(-0.0434117 -0.0174709 9.61151e-22)
(0.00668134 -0.0149203 6.35142e-21)
(-8.68127e-05 1.58052e-06 0)
(-0.000725106 9.50582e-05 -1.93229e-21)
(-0.000944641 0.000161851 0)
(-0.000749594 6.61777e-05 8.46272e-22)
(-0.000944233 0.000215407 0)
(-0.000352606 -0.000132929 2.77137e-21)
(-0.0025118 0.00244493 0)
(-0.00176636 0.00147062 -3.3021e-21)
(0.0185778 0.0076307 0)
(-0.00128829 0.000431211 1.69306e-21)
(-0.000918629 -0.00175096 -4.1723e-21)
(-0.000681541 -0.000767744 0)
(-0.00181373 0.00827962 5.54502e-21)
(-0.000142087 6.8059e-05 -1.3612e-21)
(-0.000129206 0.000145772 0)
(-0.00209744 0.00121926 0)
(-0.000889622 -5.03632e-05 2.39757e-21)
(-0.000512573 -0.000119294 4.01468e-21)
(-0.00136052 -0.000560842 2.0876e-21)
(-3.66289e-05 -0.000165132 -3.16988e-24)
(0.0123 0.00259374 2.81691e-21)
(-6.85345e-05 -9.40074e-06 7.25136e-22)
(-0.000243957 -0.00126177 3.67902e-21)
(-0.000681615 1.89319e-05 -1.93357e-21)
(-0.001037 0.00201625 0)
(-8.48302e-05 0.000229307 -1.13095e-21)
(0.00222177 0.00131595 -3.73897e-21)
(-0.000390036 -0.00115059 -2.25995e-21)
(-0.000164134 9.85383e-05 -2.19421e-21)
(-0.000165332 -5.16828e-05 3.82316e-21)
(-0.000372155 0.000581162 -2.12955e-21)
(-0.00187839 0.000547732 4.50377e-21)
(-0.000885972 7.81019e-06 2.43011e-21)
(0.00846393 -0.0217122 -1.0382e-21)
(-2.74454e-05 0.000223636 0)
(3.29684e-05 -0.00172099 2.24958e-21)
(-0.00023783 -0.00176246 0)
(-0.00133718 0.00989981 8.33418e-22)
(-2.49471e-05 -0.000184248 0)
(0.0204038 0.020502 6.53136e-23)
(-0.0198106 1.43222e-05 -6.13953e-22)
(0.0303883 0.00229059 2.80281e-22)
(-0.000140698 5.73855e-05 4.63288e-24)
(-0.0120497 0.00379362 4.25212e-21)
(-0.00117256 0.000229036 -9.46339e-22)
(0.00324107 -0.00252227 3.55574e-21)
(-0.00125557 -0.000188248 -2.26101e-21)
(-0.0174364 -0.00862989 -4.04446e-21)
(-0.00123786 -0.000140718 -1.69856e-21)
(-0.000140536 -7.97016e-06 3.55037e-21)
(-0.00194582 -0.00208894 0)
(-0.00416851 0.00171391 -9.19914e-22)
(-0.00321428 -0.00302989 0)
(-0.000346483 -0.000112652 1.70303e-21)
(-0.000223466 0.000914195 2.24519e-21)
(0.00352875 0.00141233 2.38811e-21)
(0.0296242 0.000979388 -1.55344e-22)
(-0.000660078 0.000347866 -5.75865e-21)
(-0.00202378 0.00469976 1.20016e-21)
(0.00533864 -0.0161777 3.43212e-21)
(-0.00093007 0.000211653 -2.57389e-21)
(0.0232482 -0.00594082 7.4752e-22)
(-0.00140016 8.08922e-05 0)
(-0.000407498 -0.00113453 -4.65627e-21)
(-0.0108526 0.00608282 4.66027e-22)
(-0.000306778 0.000669052 0)
(-0.000183538 -0.000456546 -4.80472e-21)
(-5.88514e-05 -3.11604e-06 0)
(-9.90343e-05 0.000221302 1.69417e-21)
(-0.0130058 -0.0262451 2.94656e-21)
(-0.00200728 0.000600332 4.13361e-21)
(-2.99848e-05 -0.000180745 2.00146e-24)
(5.64529e-05 -0.00170724 -2.26157e-21)
(0.00533877 -0.022578 -5.72263e-21)
(-0.00116914 0.000156114 2.30288e-21)
(-0.00054587 -0.000107579 1.26911e-21)
(0.0031084 -0.00274228 -3.87906e-21)
(-0.000137888 8.74229e-05 4.26122e-22)
(-0.000390656 0.000531789 -1.18053e-21)
(-0.0022042 -0.000888762 2.44923e-21)
(-0.00104668 0.000205374 3.96926e-21)
(-0.00192597 0.000158944 -3.66616e-22)
(-0.0380701 -0.00818432 0)
(-0.0062351 -0.000383899 6.93577e-21)
(-0.0055247 -0.00876088 -3.32716e-21)
(-0.000756445 7.24169e-05 -8.78192e-22)
(-0.000671862 2.98043e-05 3.93498e-21)
(-0.00314209 -0.000268953 3.05311e-21)
(0.0103787 0.0110254 0)
(0.00986058 0.0136313 0)
(0.0155442 0.00804707 -3.55147e-21)
(-0.000952009 0.000132146 0)
(0.000116731 -0.00170515 4.15454e-21)
(0.00750637 -0.00129283 0)
(-0.000162535 -5.54764e-05 6.7066e-25)
(-0.000800869 -0.00110795 3.34058e-21)
(-0.000940025 0.000155857 3.79805e-21)
(-0.00784914 -0.00340536 -1.49225e-21)
(-0.00122906 0.000184588 -3.36206e-21)
(-0.000788449 0.000323724 -1.2656e-21)
(-0.000479635 -3.0729e-05 1.28656e-21)
(0.0278627 0.00171072 0)
(-4.60395e-06 0.000151717 1.63691e-21)
(-0.00030329 0.000460437 0)
(0.0110598 -0.00774013 3.21708e-21)
(-2.23647e-07 5.17359e-06 2.00352e-21)
(0.000277094 0.0132688 2.55334e-21)
(-0.00139953 0.000255066 1.62836e-21)
(-5.15197e-08 3.1809e-06 -2.21766e-21)
(-0.00240287 -1.16889e-05 3.39307e-21)
(-0.000203251 -0.00125078 5.32926e-21)
(-0.04237 -0.0111524 0)
(0.000889451 -0.00298186 5.98313e-21)
(-0.000118341 6.01188e-06 -2.46781e-21)
(-0.00231187 0.0023785 -2.22562e-21)
(0.0116445 -0.0076226 -3.94161e-21)
(-0.00280015 5.11014e-05 0)
(-0.00116035 0.000158847 -1.41021e-21)
(-0.00335071 -0.00230453 -5.00126e-22)
(-0.0124333 0.00409132 1.12888e-22)
(-0.00205864 -0.000718951 -1.14836e-21)
(-8.38881e-05 0.000397004 6.31944e-22)
(-0.0001291 -1.78235e-05 -1.67516e-21)
(0.000640262 -0.0029648 6.39855e-21)
(-0.0253214 -0.019342 0)
(-0.000793319 -0.00163012 0)
(-0.000532937 0.000249101 -1.47091e-21)
(-0.000123368 0.00084239 -4.26859e-23)
(-0.00921628 -0.00529113 -1.92748e-23)
(-0.000231167 0.000780772 -1.8788e-21)
(0.00490905 -0.000319029 0)
(-9.05452e-05 0.000407767 0)
(-0.000939184 0.000541103 3.64552e-21)
(-0.00112364 0.000149922 2.67485e-21)
(0.00558051 0.000205332 0)
(-0.00127006 -0.00556061 0)
(-0.00115434 0.000236128 1.59373e-21)
(-0.0216746 -0.00357382 1.5183e-21)
(8.38369e-08 1.42355e-06 2.10024e-21)
(-0.0216045 -0.0110811 -1.99343e-21)
(9.06734e-05 -0.000400092 2.57257e-21)
(-0.000163226 4.53848e-05 4.56197e-21)
(0.00630858 -0.0155551 4.37707e-21)
(-0.000418527 1.59739e-05 3.76295e-21)
(0.000138102 -0.00105755 0)
(-0.00334219 -0.00205167 -2.19427e-21)
(-0.000761898 -0.00199118 -3.79838e-21)
(-0.000253669 -0.000123628 5.1382e-21)
(-0.000178133 0.000168133 7.71038e-23)
(-0.0025294 0.000927805 0)
(-0.00366327 0.0118427 0)
(-0.00132315 -0.000463556 1.90669e-21)
(-0.00125734 -0.00210338 0)
(-0.0429887 -0.0165025 -4.17706e-22)
(-0.000221554 -0.00173776 1.83242e-21)
(0.00101374 -0.00284959 -5.90127e-21)
(-0.000232852 -0.000114578 1.1922e-24)
(-0.000180504 0.000181447 0)
(-0.000340982 0.00109955 -2.21745e-21)
(0.0214261 0.00436454 0)
(-0.0129057 -0.0242324 0)
(-0.000376538 0.000582577 0)
(0.0189583 0.0187694 -2.53981e-21)
(-0.000973299 3.29712e-05 2.80359e-21)
(-9.61184e-05 -1.32414e-05 0)
(0.0149621 0.00490216 -2.87694e-21)
(-0.000947119 0.000221633 0)
(-0.000462696 2.0575e-05 3.29687e-21)
(-0.000692941 1.41291e-05 1.86216e-21)
(-0.00221171 -9.57721e-05 1.56893e-21)
(0.0104556 0.0104154 1.38532e-21)
(-0.00330933 -0.000501744 0)
(-0.00403429 0.00314414 2.64841e-21)
(0.000155607 -0.00171534 -3.76971e-21)
(-0.00123004 -0.00206145 0)
(0.00774223 -0.0016574 6.84942e-22)
(-0.000206773 0.000801624 8.99735e-22)
(-0.000297292 0.000674196 -1.8277e-21)
(-0.00324412 -0.000597011 3.69294e-21)
(-0.00110473 0.0002446 -1.63069e-21)
(-0.0202771 -0.00487633 4.26925e-21)
(0.00743655 -0.0118913 0)
(-0.00158558 -0.000151318 1.47707e-21)
(-0.00079085 -0.00113835 -3.22542e-21)
(-0.000196486 -8.56715e-05 2.00371e-21)
(-0.000781749 -0.00160202 0)
(-0.00329939 -0.00213691 1.96839e-21)
(-0.00195819 -0.00197506 0)
(-0.000448559 0.000435446 -1.55985e-21)
(-0.000942987 0.000219457 3.21402e-21)
(-0.000110423 -4.13879e-05 0)
(0.00018215 -0.00170241 -4.22831e-21)
(-0.00257528 1.37784e-05 -5.64131e-22)
(-0.00608767 0.0152407 2.59567e-21)
(0.0105688 0.0140402 0)
(-9.01957e-05 3.50828e-05 0)
(-0.000812761 2.31702e-07 4.58535e-21)
(0.0080578 -0.0208428 2.90402e-21)
(-0.000660698 -3.81491e-06 0)
(-9.25884e-05 0.000290033 1.33985e-21)
(-0.00013445 5.99386e-05 -1.78228e-21)
(-0.000919443 0.00211772 0)
(-0.000738426 -0.00135861 7.75295e-22)
(0.00358281 0.00143374 2.50319e-21)
(-0.000384485 0.000544997 2.97665e-22)
(0.0158602 -0.00726188 0)
(-0.00616434 -0.000281803 -2.62324e-21)
(-0.000163579 9.36361e-05 0)
(0.00678475 0.00201177 -8.10265e-21)
(-0.00430315 0.0121905 0)
(-0.00117539 -0.00540093 3.96846e-21)
(-8.04918e-05 0.000181548 0)
(-0.00626624 -0.00340499 -2.60528e-21)
(0.0148224 0.00818878 2.52333e-21)
(-0.0253523 -0.01987 -3.10906e-22)
(-0.00128499 -0.000228175 0)
(-0.00140615 0.000359211 -3.54055e-21)
(-0.00117424 0.00292262 9.74554e-22)
(-0.000560629 0.000434273 7.83769e-22)
(-0.000358922 0.000614108 -2.07973e-21)
(-0.000375009 0.000585687 0)
(0.000195823 0.013597 4.54967e-21)
(-0.000304804 -0.000129615 -2.24266e-21)
(0.0283612 0.00129037 0)
(-0.000141819 8.23523e-05 2.5904e-21)
(-5.76663e-05 -0.00024934 -2.71237e-21)
(-0.000192875 0.000112595 1.33753e-21)
(0.000211885 -0.00226981 -3.1628e-21)
(6.1138e-05 -0.000353815 0)
(0.0167825 0.017455 0)
(-0.00704803 0.000835322 0)
(-8.66796e-05 0.000392643 -9.40842e-22)
(-0.00937797 -0.00486726 0)
(-0.000577786 -1.32594e-05 7.09396e-22)
(-8.18038e-05 -0.000241115 0)
(-0.000130359 -5.83128e-05 2.48661e-21)
(-0.000143592 0.000846992 -1.5534e-21)
(0.00766672 -0.00316804 3.17273e-21)
(-0.000450007 0.000430375 3.5457e-22)
(-0.000287375 -0.00241337 3.38383e-21)
(0.00047439 -0.00291435 -5.8115e-21)
(0.000224959 0.00188863 -4.48933e-21)
(0.000795653 0.000167326 0)
(4.00288e-08 3.18321e-07 0)
(-0.000312481 -0.00242045 2.92299e-21)
(-0.000269503 -8.12664e-05 0)
(-0.000775707 -0.000817705 0)
(9.09586e-05 -0.00275568 3.50063e-21)
(0.0065074 0.00684766 -5.63588e-21)
(-0.00173815 -0.00412627 -2.12264e-21)
(0.0291005 0.0120649 -1.0834e-21)
(-0.0148335 -0.00605444 -4.09141e-21)
(-0.000249055 -0.000117931 -6.37e-21)
(8.2418e-05 -0.000187212 2.12826e-21)
(-0.000372775 0.000572617 2.48543e-21)
(-0.000305623 -0.000172427 2.70936e-25)
(-0.00777638 -0.00409085 -2.84833e-21)
(-6.17838e-05 0.000369257 5.57497e-22)
(-6.98457e-05 0.000152999 0)
(-0.000125697 0.000847245 3.97245e-23)
(-9.40419e-05 -0.000362475 -8.01888e-21)
(-0.000290383 -0.00177904 1.81375e-21)
(-0.000124887 -0.00155451 0)
(-0.000316171 -4.3804e-05 4.01868e-21)
(0.00874403 0.00222973 -2.92521e-21)
(-0.000488914 0.000315638 0)
(-1.38988e-05 0.000374925 -1.83063e-22)
(-0.000102178 -0.000350078 1.85343e-21)
(-0.00013702 0.000486415 -1.51398e-21)
(-0.0165411 -0.00649437 6.57146e-21)
(0.0234417 0.0195543 0)
(-0.000984226 0.000529705 0)
(-0.00172629 -4.277e-05 -5.5154e-21)
(-0.0163152 -0.00280407 0)
(0.0122679 -0.00685825 4.01782e-23)
(0.00411998 0.00113259 0)
(0.0102015 0.0151683 -1.2784e-21)
(-0.000674438 -2.01163e-08 -3.02897e-21)
(-0.000145277 0.000131485 -7.66616e-22)
(-0.013254 0.00438404 -1.29569e-22)
(-0.00193967 0.000489929 0)
(-0.000217055 0.000291174 0)
(0.0249174 0.0118264 0)
(-0.000148008 9.13823e-06 0)
(-0.000666599 -1.32846e-05 -4.18849e-22)
(-0.000132452 -3.54159e-05 0)
(-0.00132123 0.00155888 -3.64991e-23)
(-0.00224185 0.00240179 1.17303e-21)
(-0.000560597 -9.36213e-05 -3.28324e-22)
(0.00122151 -0.00290371 0)
(-0.00040228 0.000117826 1.78627e-21)
(-0.000315191 0.000670268 1.17605e-21)
(0.00913059 0.00278048 5.52264e-21)
(-0.000769079 -0.00144934 4.06092e-22)
(-0.00058724 -1.52011e-05 -4.60204e-21)
(0.0273117 0.0023487 5.62607e-21)
(8.74046e-05 -0.000351132 7.85047e-21)
(-8.96054e-05 -0.00160206 -3.74723e-21)
(-0.00103589 -0.000554585 0)
(-0.000941485 0.000130685 1.41654e-21)
(-0.00173469 0.00144503 2.83463e-21)
(-0.00183368 0.00543709 1.20766e-21)
(-0.000279785 -5.45139e-05 2.16529e-21)
(-0.00031446 -2.96967e-05 -2.8173e-21)
(-0.000415227 -0.000401749 0)
(-0.00850285 0.000660864 -3.38465e-21)
(0.0058359 0.00219321 8.82288e-23)
(-0.000729736 3.46801e-05 -3.30611e-21)
(-0.000131653 -4.9068e-05 5.52923e-21)
(-0.00275405 -0.00557859 1.78392e-21)
(7.69989e-05 -0.000197625 7.32082e-22)
(-0.00308869 -0.000211136 2.16275e-21)
(-6.18767e-05 0.000348963 0)
(-8.73319e-05 -0.000561421 -4.56177e-21)
(-0.000426676 -0.000400692 0)
(-8.95553e-05 -4.80224e-06 2.32819e-21)
(-0.000338746 0.000646448 -1.87448e-21)
(-8.22912e-05 0.000159826 -1.2742e-21)
(-0.000193597 -0.000403954 2.42194e-21)
(-0.000816391 -0.000385526 1.25406e-21)
(0.00401675 0.000662944 1.4062e-21)
(-5.36234e-05 0.0003553 0)
(-0.0114722 0.00263103 9.80506e-22)
(-0.000703103 5.30368e-05 -1.84674e-21)
(-0.0220979 0.00182704 0)
(-0.000348378 -0.000572098 2.95508e-21)
(0.0135815 0.00729355 2.34116e-21)
(-5.59382e-06 0.00010447 0)
(0.0242185 0.0196905 0)
(-4.97631e-08 -4.22433e-07 -1.83795e-21)
(-0.000254734 0.000682498 9.76562e-23)
(0.020906 0.0210508 -1.80542e-21)
(-0.00254977 0.000241778 -3.34484e-21)
(0.00810293 -0.0150362 2.88516e-21)
(-0.0025027 0.000880818 1.93215e-21)
(-0.00183261 0.000561818 0)
(-0.0152203 -0.000273128 6.12012e-22)
(0.00732096 -0.00459809 0)
(-0.000295348 -0.000227182 -2.56877e-21)
(0.0163615 -0.00682085 6.72707e-22)
(-0.0012028 -0.00127877 0)
(-0.000769103 7.75192e-05 -2.38974e-21)
(0.00565259 0.0110894 -1.82489e-22)
(-0.000568553 -8.9781e-05 -7.40563e-22)
(0.00423301 0.000782909 7.84411e-22)
(0.00133486 -0.00279678 0)
(-9.49559e-05 -0.00158027 3.13459e-24)
(0.0108224 -0.00976367 1.6886e-21)
(-0.0123228 -0.027138 -3.22737e-21)
(-0.000201277 0.00031137 0)
(-0.00234068 0.00324432 1.67938e-21)
(-0.000118686 6.69058e-05 0)
(-0.00109178 -0.000558664 -1.71091e-21)
(-5.80059e-05 9.48204e-05 -1.10138e-21)
(-0.000777138 -0.00148238 2.87798e-21)
(-0.00141865 0.00179113 0)
(-9.53449e-05 -0.000553365 0)
(-0.000480466 -0.00166488 0)
(-5.85934e-07 1.49024e-05 -4.64886e-21)
(-0.00104746 -0.00708467 5.743e-22)
(-0.000230676 0.000980943 -2.53079e-21)
(-0.000791382 -0.00141945 -4.36339e-22)
(-0.00113242 0.000148262 2.6424e-21)
(-0.00051012 -0.00168105 0)
(-6.62174e-06 0.000186631 8.28772e-22)
(-0.0379138 -0.0305648 0)
(-0.00105818 -0.00261345 0)
(-0.00289013 0.00233067 -1.46231e-21)
(0.0121765 0.00322789 2.07669e-23)
(0.0276742 0.00283148 -9.20491e-21)
(-0.0173103 -0.00906325 0)
(-0.000571068 -6.66132e-05 1.58161e-21)
(-0.0220386 0.00203138 0)
(-0.000970294 4.64019e-05 2.78995e-21)
(-8.50522e-05 -1.11115e-06 0)
(0.00618617 0.00646342 5.30484e-21)
(0.0134892 0.00779472 -2.85563e-21)
(-9.86899e-07 2.90445e-05 -9.3227e-22)
(-0.00546278 0.00241665 -2.65021e-21)
(-0.0352822 0.0011742 1.70387e-22)
(-0.00379509 -0.000882096 2.54579e-21)
(-0.000566411 -1.31622e-05 3.05685e-21)
(0.00562193 -0.000182143 -2.37236e-21)
(-0.0027576 -0.0101281 0)
(-0.035884 0.00135359 0)
(-0.00146028 6.76645e-05 1.11051e-21)
(-0.000320834 0.000457909 -2.43059e-21)
(-0.0132715 -0.00350899 -2.0554e-21)
(-0.00192009 0.00331229 -2.53077e-21)
(0.027572 0.0049296 0)
(-0.000695885 0.000105422 3.25128e-21)
(-1.03563e-06 2.76154e-05 6.89237e-23)
(-0.000272409 -0.00175689 -1.78521e-21)
(-0.00439125 0.00592857 -7.2094e-22)
(-0.000753395 -0.000287504 2.32598e-21)
(-0.00381167 0.00574843 8.33957e-22)
(-0.0153573 -0.00588632 0)
(-0.000653622 2.17386e-05 2.01964e-21)
(-0.00168847 -0.002518 2.3142e-21)
(-0.0428914 -0.00708479 0)
(0.0172616 0.010024 0)
(-0.00141471 0.000684662 1.15051e-22)
(0.00546607 0.00022616 2.72259e-21)
(-0.000292109 0.000676801 5.77558e-22)
(-0.005215 0.00036833 0)
(0.0215124 0.00465045 -1.73977e-21)
(-6.70901e-05 0.000343996 0)
(-0.00446503 6.86644e-06 3.34592e-21)
(-0.000674156 0.000386267 -5.10059e-22)
(-0.000508227 9.12267e-05 -1.8801e-21)
(-0.0395978 0.00189244 -8.044e-22)
(-0.000335533 0.000668309 -1.35354e-21)
(-0.0164931 -0.00523052 0)
(-0.00219724 0.00104722 0)
(-0.000534211 -0.00166188 3.43226e-21)
(-0.000174511 0.000148794 -2.43107e-21)
(-0.00492486 0.000602002 -1.98842e-21)
(-0.00200018 0.00331364 2.81339e-21)
(-0.000165638 -0.00123861 6.13911e-21)
(-0.000138648 9.9999e-05 -1.24642e-22)
(0.0209918 -0.00540649 6.95974e-22)
(-6.37727e-05 -4.95318e-06 0)
(-0.00557444 0.00134154 3.42864e-21)
(-0.00121753 0.000187038 -1.58728e-21)
(0.0284315 0.00435336 0)
(-0.000298593 -0.000209571 0)
(-0.000578152 -1.19708e-05 -3.89753e-21)
(0.000169829 0.00163257 0)
(-0.00604655 0.00233066 0)
(0.00573048 0.00820644 0)
(0.0119065 -0.00596538 0)
(-0.00305619 -0.000128163 0)