/*--------------------------------*- C++ -*----------------------------------*\
| =========                 |                                                 |
| \\      /  F ield         | OpenFOAM: The Open Source CFD Toolbox           |
|  \\    /   O peration     | Version:  v2012                                 |
|   \\  /    A nd           | Website:  www.openfoam.com                      |
|    \\/     M anipulation  |                                                 |
\*---------------------------------------------------------------------------*/
FoamFile
{
    version     2.0;
    format      ascii;
    class       volScalarField;
    location    "100";
    object      k;
}
// * * * * * * * * * * * * * * * * * * * * * * * * * * * * * * * * * * * * * //

dimensions      [0 2 -2 0 0 0 0];


internalField   nonuniform List<scalar> 
53008
(
0.000159878
0.000618159
0.00015213
0.000209696
0.050404
0.0434046
0.000172547
0.000159664
0.000163161
0.000149732
0.000196972
0.000174216
0.0430526
0.0241061
0.000149294
0.000146591
0.000156603
0.000146654
0.0830127
0.000158517
0.000154536
0.000164442
0.000148002
0.000171858
0.000153301
0.000343954
0.0218223
0.000172483
0.000252293
0.00023522
0.000274377
0.00341361
0.037162
0.000150587
0.000147848
0.000160469
0.000154061
0.000149781
0.000174776
0.00015159
0.000153872
0.0593068
0.000197626
0.0796154
0.000158859
0.000147909
0.00014754
0.000153453
0.000208042
0.000147157
0.00015138
0.000156878
0.0001576
0.000148173
0.000182181
0.0836678
0.000158141
0.000147534
0.00027248
0.000177563
0.000150481
0.000158898
0.081341
0.0282067
0.000194168
0.000147814
0.000232914
0.00014741
0.00014622
0.000147783
0.0614306
0.00014509
0.000149089
0.0402162
0.000347028
0.000148007
0.000149804
0.0453897
0.000146053
0.0547368
0.0431631
0.0402206
0.000212196
0.00020951
0.000165407
0.000147829
0.000173669
0.00016286
0.000147824
0.000175639
0.0546103
0.0773411
0.0403359
0.00018925
0.0571927
0.000203861
0.0568825
0.000151952
0.0430741
0.0783148
0.000158499
0.000151502
0.000198037
0.000172627
0.000160636
0.0790373
0.0587189
0.000160312
0.000195006
0.000145056
0.000205292
0.0317263
0.000149846
0.0635221
0.0505234
0.00015471
0.000155702
0.000145632
0.00029453
0.0526454
0.0509436
0.000149032
0.000151009
0.000805476
0.0448115
0.000148097
0.0483412
0.000216916
0.000171507
0.000148847
0.00126496
0.000148322
0.000209525
0.00015442
0.000145519
0.000262055
0.000148759
0.0429019
0.000147672
0.000147086
0.00014642
0.000147035
0.00016639
0.000269922
0.000172148
0.000151657
0.00015555
0.000147725
0.000146562
0.000150392
0.00014915
0.0808997
0.0481043
0.000164583
0.000146656
0.000157327
0.0557372
0.0751097
0.000152349
0.000289847
0.000180699
0.000147187
0.000146658
0.0786286
0.000153621
0.000149958
0.000147269
0.000158595
0.000147358
0.000151146
0.000161692
0.0475492
0.0693844
0.000147249
0.000554557
0.000147086
0.000165528
0.000202738
0.000172825
0.000165759
0.000150919
0.000153468
0.0800967
0.00014975
0.000174169
0.0301646
0.0828082
0.0710072
0.05452
0.000147759
0.0464924
0.000150041
0.000178513
0.0488758
0.000147873
0.000152626
0.000160684
0.000147765
0.000148749
0.000154893
0.000185596
0.000148815
0.00016057
0.000147636
0.000204659
0.0376677
0.000156526
0.000148596
0.000174095
0.000145644
0.0610695
0.000151486
0.000267732
0.00015224
0.000194598
0.000148098
0.000148652
0.000147976
0.000180146
0.000148233
0.000228506
0.000145179
0.00020969
0.000145172
0.000153447
0.000201098
0.00015118
0.000170231
0.000163379
0.00014642
0.035036
0.0420223
0.000145514
0.0394677
0.000185308
0.0789775
0.000152064
0.000145535
0.0296876
0.000146627
0.000148248
0.000150538
0.000256002
0.000150507
0.000160995
0.00014977
0.000194577
0.000226862
0.000148032
0.000177029
0.000152765
0.000149965
0.000147758
0.000154651
0.000150177
0.0815587
0.000262422
0.000149492
0.000180196
0.000157962
0.000435207
0.000268492
0.000158341
0.000152392
0.000147576
0.0223721
0.0776961
0.000147802
0.0847824
0.00021105
0.000145781
0.000154203
0.000148835
0.000255999
0.0421744
0.000144198
0.000204605
0.0595082
0.000179707
0.0001508
0.000147982
0.000149751
0.000179627
0.000173736
0.000152108
0.000174698
0.00017087
0.0354018
0.000173976
0.000149656
0.000589151
0.0564887
0.00018565
0.0361644
0.000173012
0.000147931
0.000175373
0.00020662
0.0838866
0.000153174
0.000185596
0.0546112
0.0602579
0.0394806
0.000149518
0.000682344
0.000150065
0.000149421
0.000152957
0.000181664
0.0360784
0.000249174
0.0226334
0.0423186
0.000192381
0.00017359
0.000149965
0.000148551
0.00014423
0.00017373
0.00020615
0.0617417
0.000159875
0.0436717
0.000483048
0.000149006
0.0552648
0.000161128
0.000146687
0.000162444
0.0811829
0.000147858
0.000149708
0.000150043
0.000145891
0.000145226
0.000178404
0.000146719
0.0559195
0.000151261
0.000149762
0.000147408
0.000180656
0.000148629
0.000149365
0.0195346
0.000172672
0.0469061
0.000259234
0.0693484
0.000216014
0.0435342
0.000151897
0.00014815
0.022146
0.0784022
0.000147658
0.000147689
0.000440876
0.0775649
0.00014853
0.000171453
0.000149401
0.0189959
0.000182146
0.0474125
0.000144242
0.000170054
0.0001568
0.000151963
0.0836459
0.000158972
0.000171696
0.000228777
0.000182179
0.000156794
0.000178674
0.000181969
0.0203182
0.0798984
0.00014961
0.000151136
0.000164746
0.000158323
0.0758997
0.00014644
0.000154544
0.0570527
0.000147658
0.0414578
0.0580759
0.000147342
0.000151135
0.000154555
0.000151282
0.000154096
0.000147121
0.000185382
0.000165191
0.0617611
0.000159735
0.000160817
0.00015321
0.0496467
0.000147354
0.000148205
0.000166908
0.000153724
0.000148597
0.000160886
0.000144274
0.000215182
0.000146273
0.000153545
0.000150725
0.050794
0.000148632
0.020116
0.000153134
0.000147617
0.000146129
0.000148946
0.000165847
0.000153561
0.000228911
0.000149199
0.000158794
0.00015858
0.000214708
0.000144223
0.000274994
0.063823
0.000281776
0.000147399
0.000206236
0.000159949
0.0340924
0.000170862
0.0853997
0.000170572
0.000147834
0.000188699
0.000193162
0.000179302
0.000147075
0.000181004
0.0289279
0.00027525
0.000151807
0.00026252
0.0612355
0.000153896
0.0459567
0.000166512
0.000153118
0.000208436
0.000151341
0.000147701
0.000151521
0.000148511
0.000243654
0.0571782
0.00014425
0.000158771
0.000227542
0.000165235
0.000148855
0.035355
0.000147809
0.000149028
0.000178741
0.000156716
0.000172106
0.04799
0.000269796
0.000195266
0.000151337
0.000150603
0.000180214
0.0810229
0.00301881
0.000227863
0.000154718
0.000158993
0.000202765
0.000146108
0.000155895
0.000154479
0.000191956
0.000162911
0.000152893
0.000148804
0.0452216
0.000149556
0.00014766
0.000210911
0.000149852
0.0645559
0.000163429
0.000149854
0.000174165
0.00015343
0.0375939
0.00019951
0.000147464
0.000172971
0.000211863
0.000176519
0.000165251
0.00017827
0.0789252
0.000176863
0.000148732
0.000147798
0.000198869
0.0557924
0.00015916
0.000149635
0.000148797
0.0436623
0.000149324
0.0382871
0.000148577
0.000174616
0.000164867
0.0289009
0.000185187
0.000159223
0.0230794
0.000149885
0.00023286
0.000146711
0.000146423
0.0690171
0.000147725
0.000152774
0.000177784
0.000162056
0.000146494
0.000147542
0.000170202
0.0612607
0.000173768
0.000165514
0.0371178
0.000158407
0.000199547
0.0001467
0.00014754
0.000180995
0.0646751
0.000237234
0.000149358
0.0733129
0.000155142
0.000147073
0.0748091
0.000154125
0.000148129
0.000150892
0.000172538
0.0806218
0.000177631
0.000189577
0.000159258
0.000164956
0.000202962
0.000149313
0.00015109
0.000177243
0.000157612
0.0159646
0.000208591
0.000170132
0.000155957
0.000146122
0.000158908
0.000177749
0.000187836
0.000149438
0.000154018
0.000145318
0.000159269
0.000173786
0.000249389
0.00259888
0.000148205
0.00015257
0.000226329
0.000150082
0.00014835
0.000147844
0.000164595
0.000156858
0.0293766
0.000148863
0.0428155
0.000269145
0.000147631
0.075506
0.062642
0.000184793
0.000148195
0.00018832
0.000227417
0.0563655
0.000160675
0.0001622
0.000172283
0.000151404
0.000149573
0.000149285
0.0669355
0.000147691
0.0424492
0.000147799
0.000144798
0.000146636
0.000174829
0.000145599
0.0803072
0.000470554
0.000148706
0.0412576
0.000149717
0.000145034
0.000145241
0.000148944
0.000202421
0.000149427
0.000166755
0.000198176
0.0442877
0.00718072
0.000149831
0.000166754
0.000147158
0.00015433
0.00017431
0.0445215
0.0377476
0.000382301
0.0103105
0.000146462
0.00014418
0.000148884
0.000147829
0.000192343
0.00014809
0.00014816
0.000148841
0.000145867
0.000158871
0.000156506
0.000146872
0.0715548
0.000149313
0.000149273
0.000145875
0.000148077
0.000212486
0.056633
0.000174293
0.000169331
0.0617533
0.0398566
0.0231877
0.0860756
0.000150294
0.000146924
0.0775162
0.0615077
0.000147223
0.000633377
0.000147793
0.000150174
0.000145984
0.0631399
0.000172666
0.000148972
0.000200254
0.00014769
0.000151472
0.0714765
0.000157673
0.000149825
0.0423342
0.000146
0.00015709
0.000156501
0.000154475
0.00016477
0.000455882
0.000147172
0.000146869
0.000149475
0.0407593
0.000202646
0.000150932
0.000145907
0.000303421
0.000144204
0.000177156
0.000148081
0.000147715
0.000149568
0.000147808
0.000148956
0.000148168
0.00014754
0.000153372
0.000205205
0.000148091
0.000203069
0.000150752
0.0439208
0.00014953
0.000431863
0.000149562
0.0541571
0.00014993
0.000148306
0.000278635
0.000176022
0.0677543
0.000170333
0.00016527
0.0487514
0.000201839
0.000147888
0.0417712
0.000160345
0.00015156
0.0874625
0.000149031
0.00020615
0.000200503
0.000156838
0.00021196
0.000243237
0.000147577
0.000184022
0.000148113
0.000157179
0.000148047
0.00015794
0.000164638
0.000147687
0.000157942
0.000149739
0.000292867
0.000181042
0.000157621
0.000161773
0.000158161
0.000149506
0.0404497
0.000192278
0.00017798
0.000215176
0.0435335
0.000215784
0.00014985
0.0455372
0.000155097
0.000147679
0.0431218
0.000688413
0.000149746
0.000275182
0.027589
0.00019049
0.000149539
0.0314017
0.000196532
0.0287603
0.000167071
0.000147721
0.0792782
0.000180459
0.000268208
0.000150843
0.000149719
0.000158585
0.000609501
0.000152367
0.000581762
0.000209433
0.000150313
0.000170488
0.0401788
0.0565366
0.000160859
0.0305958
0.000151281
0.000215748
0.0639908
0.000148068
0.0435284
0.000152245
0.000148727
0.0435525
0.000151698
0.00021196
0.000167503
0.000158093
0.000147557
0.000206194
0.000181857
0.000153324
0.000147804
0.040857
0.000146551
0.0262171
0.000162707
0.000269944
0.000147871
0.000149648
0.0515294
0.000191122
0.000238739
0.0371244
0.000177169
0.0397952
0.00017697
0.000150942
0.0424328
0.000154357
0.000148523
0.000249254
0.000199995
0.000154509
0.000148444
0.000146131
0.000147618
0.000148147
0.000195266
0.0596584
0.0506955
0.000147295
0.00016338
0.00015103
0.000238137
0.000147653
0.0575598
0.0340594
0.0410697
0.000215607
0.000160144
0.00014722
0.0614706
0.000147727
0.000150054
0.000150007
0.000150477
0.000162376
0.000161047
0.000150183
0.000150145
0.000147993
0.000149845
0.000147819
0.000147246
0.000175485
0.000182299
0.000147798
0.000148219
0.035337
0.0793988
0.000156919
0.000382064
0.000175035
0.000165848
0.000209048
0.000146691
0.00014771
0.000148058
0.00014767
0.000150511
0.000171314
0.000147351
0.000145536
0.000147239
0.000147822
0.0427777
0.000165332
0.000145205
0.000154428
0.000148541
0.000174093
0.000145419
0.028219
0.00026125
0.000147849
0.0579641
0.00028064
0.000207761
0.000177011
0.0424824
0.0671254
0.00014808
0.000147625
0.000150152
0.0292189
0.00019954
0.000152138
0.0200125
0.0124087
0.00014613
0.000146813
0.000149927
0.000164134
0.00015598
0.000147935
0.000147553
0.000147654
0.000147176
0.0354586
0.000205227
0.000148697
0.0276842
0.0471801
0.00014921
0.000147601
0.000151265
0.000166511
0.0355687
0.00300352
0.0583215
0.000189797
0.000189179
0.000425607
0.000269417
0.0304461
0.000154479
0.000178611
0.000158194
0.000158398
0.0441213
0.000147527
0.019023
0.000239471
0.000150878
0.000166996
0.000147616
0.0702228
0.000150764
0.000200325
0.000274641
0.000146051
0.0843991
0.000146555
0.000149775
0.086016
0.000154433
0.000146287
0.0348
0.0614786
0.000148488
0.000205429
0.000153697
0.000177548
0.000148239
0.000144198
0.033095
0.0461303
0.000198527
0.000147607
0.000152808
0.0385778
0.000157066
0.000146904
0.000148836
0.000153295
0.000146737
0.000202102
0.000154561
0.0443614
0.000165736
0.000171351
0.0699742
0.000148425
0.000148037
0.000166575
0.000235237
0.000187912
0.0753758
0.0346015
0.000197352
0.0274044
0.000147857
0.000147311
0.000170852
0.000150832
0.000146009
0.000152863
0.000158452
0.000287002
0.000154165
0.000165859
0.000233406
0.000159686
0.0476839
0.000148367
0.000157047
0.000146666
0.000148056
0.000178981
0.000148035
0.000162078
0.000214779
0.000190182
0.0438406
0.00014727
0.000171707
0.000196885
0.000145418
0.000147587
0.000208803
0.000146786
0.000147987
0.0411131
0.00026942
0.000190917
0.000173554
0.0390295
0.00016746
0.0338985
0.00016132
0.000147259
0.000186403
0.000148191
0.000249735
0.0369775
0.00014799
0.000176369
0.000154477
0.000181046
0.0454713
0.000147966
0.00020924
0.000287456
0.000157167
0.00028983
0.000214084
0.00418519
0.000164652
0.000159784
0.000199563
0.000162956
0.000145464
0.000147363
0.00016806
0.0606666
0.000146438
0.000158233
0.0766041
0.000162635
0.000154706
0.0854881
0.000148551
0.000166818
0.0757861
0.0407077
0.0360886
0.000147428
0.000153491
0.000146974
0.000154866
0.00015347
0.000212159
0.0539889
0.000157123
0.000206962
0.000153077
0.0278195
0.000145629
0.000147897
0.000157196
0.000147497
0.0439222
0.0420448
0.000168716
0.000164752
0.000149143
0.000195839
0.000147769
0.000149495
0.000156404
0.0001481
0.000204617
0.000155816
0.000178507
0.000238756
0.000143964
0.000164353
0.000160583
0.000147266
0.037493
0.000150525
0.000179753
0.0891072
0.000207132
0.000146493
0.069093
0.00016095
0.000149163
0.000148705
0.0045769
0.000148967
0.042603
0.000149285
0.000147285
0.0670993
0.000182241
0.000179843
0.000145647
0.000157109
0.0406151
0.000146819
0.00014768
0.0475601
0.0268959
0.000180529
0.0761199
0.000148079
0.000229305
0.000172582
0.000150779
0.000177658
0.0572244
0.0813199
0.000182077
0.000148127
0.0808582
0.000146945
0.0350645
0.0245894
0.000147717
0.0510734
0.0348714
0.000173234
0.0471035
0.000148115
0.000144983
0.000143943
0.000181049
0.0831046
0.000206342
0.000150596
0.0180251
0.000149816
0.000148775
0.000172695
0.00014753
0.000150491
0.000145866
0.000186296
0.000148675
0.000153001
0.0431055
0.01836
0.000171989
0.000148202
0.000149841
0.0836325
0.000197985
0.000189436
0.000145219
0.000169628
0.000168501
0.0519431
0.000148796
0.0403958
0.000189522
0.000150503
0.000148022
0.000149551
0.000189162
0.0624421
0.00014929
0.000159231
0.000152744
0.000149018
0.000148059
0.0755412
0.0655784
0.047025
0.000148405
0.000179711
0.00020361
0.057642
0.00018159
0.000228257
0.000149503
0.0886682
0.000161313
0.000177458
0.042222
0.000149171
0.000148781
0.000153381
0.000147834
0.027292
0.000147572
0.000189031
0.0159839
0.000144238
0.000148042
0.0552203
0.000145189
0.000146586
0.000165836
0.000150439
0.00016154
0.000172677
0.000148476
0.000147263
0.000190483
0.000144851
0.000147279
0.0312328
0.00015504
0.0001472
0.000152306
0.000149077
0.000147376
0.000146957
0.075592
0.00014701
0.000191041
0.000186742
0.000147216
0.000149865
0.000166389
0.000153031
0.000145974
0.000188247
0.0393484
0.000149594
0.000147751
0.000148045
0.000159212
0.000152131
0.0755348
0.000196648
0.000145482
0.000149271
0.0407371
0.000154312
0.0798109
0.000154615
0.0659204
0.000150944
0.000173043
0.0810835
0.0401657
0.000148034
0.000158117
0.000145324
0.000150838
0.00390727
0.000171967
0.0441134
0.00016692
0.000157339
0.000162392
0.000148543
0.05231
0.000215681
0.000148796
0.04235
0.000154137
0.000147359
0.000148182
0.000148617
0.000158354
0.000155055
0.0791788
0.000148465
0.0221711
0.0654751
0.000172274
0.000147017
0.089269
0.0448618
0.000148714
0.000198144
0.07893
0.000148844
0.000208749
0.000161462
0.000167704
0.000178079
0.000310096
0.000150004
0.0442925
0.000196847
0.000145664
0.000147285
0.00014554
0.000157262
0.000202579
0.0378056
0.000145382
0.0001498
0.000148058
0.0420928
0.000160226
0.000149835
0.000149169
0.0589888
0.0884547
0.000243584
0.0439571
0.0576045
0.000150473
0.000207743
0.000148475
0.000166636
0.000147235
0.000216995
0.000149866
0.000164519
0.000155229
0.000149716
0.0769081
0.000147665
0.00016142
0.0799718
0.000179083
0.000148812
0.000147731
0.000147804
0.0563182
0.00019046
0.000178564
0.000154915
0.000167837
0.0413317
0.000211438
0.000149937
0.0413846
0.000157159
0.000154817
0.0588917
0.000148823
0.0581672
0.00014851
0.0445542
0.000150985
0.00014823
0.0807966
0.000163057
0.000150065
0.00014784
0.0408553
0.0807569
0.000174872
0.000173872
0.000187878
0.0645055
0.0450093
0.0854814
0.0465487
0.000151725
0.000146982
0.00016692
0.000164768
0.000149393
0.000147727
0.000162325
0.000147998
0.000148065
0.0548364
0.000155158
0.000209048
0.000158193
0.000190132
0.000148629
0.000201639
0.0422045
0.000148649
0.000210156
0.000147344
0.000208036
0.000148767
0.0710952
0.000168056
0.000174142
0.000146272
0.000147219
0.000297507
0.0340198
0.00014761
0.0548853
0.000150815
0.00014795
0.000148073
0.000161177
0.00355134
0.000198168
0.000148746
0.000156745
0.0423456
0.000148429
0.00016821
0.000147503
0.0429717
0.000148137
0.000144875
0.000156114
0.000169334
0.000154294
0.000227636
0.000148508
0.000156061
0.000175112
0.000228339
0.000148058
0.0519959
0.000147013
0.0808427
0.0595017
0.000295655
0.000148097
0.000433284
0.000159739
0.000148169
0.000147856
0.000147346
0.000184468
0.000147868
0.000224211
0.000172538
0.000194099
0.000146486
0.00014422
0.000145215
0.0629067
0.000160954
0.0812987
0.000250043
0.000147644
0.0567406
0.000209075
0.000149951
0.0452733
0.000148028
0.000167876
0.000156288
0.000155105
0.000150397
0.000195717
0.000176901
0.000146437
0.000220975
0.00014804
0.000148558
0.000150877
0.000148085
0.000150194
0.000152115
0.000148866
0.0802403
0.000190117
0.000206775
0.000148713
0.000150169
0.00022077
0.000165865
0.000158786
0.000145523
0.000148026
0.00017947
0.00535054
0.00014934
0.000231678
0.000148867
0.0635194
0.000192507
0.000147417
0.000145869
0.000203437
0.000166407
0.000152161
0.0622398
0.000148151
0.000152097
0.000413412
0.000172098
0.000146599
0.000162067
0.00014853
0.000171278
0.000149254
0.000220044
0.000149994
0.00015695
0.000152549
0.000169171
0.000150451
0.0869682
0.0291673
0.000148077
0.000150355
0.00022936
0.0315963
0.000148033
0.000150771
0.000176551
0.0335562
0.00014814
0.000156343
0.000191274
0.000148965
0.000150725
0.000174986
0.000149738
0.000149369
0.0564672
0.0100011
0.000150913
0.000147297
0.00015871
0.000145589
0.0171699
0.0366529
0.041314
0.000158137
0.000192054
0.0792911
0.000152051
0.0580209
0.000222235
0.000148781
0.000147631
0.000166997
0.000145754
0.000152294
0.000238052
0.000169103
0.000154175
0.000185036
0.000162748
0.000168434
0.000207034
0.0529614
0.000146488
0.000158528
0.0412774
0.00021622
0.000162436
0.000204425
0.000179187
0.00014837
0.000216233
0.000164437
0.000150402
0.00015392
0.000147467
0.000250667
0.000149858
0.000147929
0.000147901
0.00016447
0.0554081
0.000196291
0.000222207
0.0554273
0.000162671
0.000644972
0.000159609
0.00014888
0.000159318
0.000167215
0.000152891
0.0368811
0.000220678
0.000152984
0.000197009
0.0238017
0.000199428
0.000148389
0.000157157
0.0332851
0.000147832
0.000147929
0.0378993
0.000151687
0.000148986
0.000171411
0.000150193
0.000161793
0.000150643
0.000187544
0.000145616
0.000911714
0.00021551
0.000177366
0.000148784
0.000197464
0.000211863
0.000148626
0.000160723
0.000147841
0.00014886
0.00015217
0.000147572
0.000145846
0.00650113
0.000241452
0.000148407
0.000149109
0.000149155
0.0611395
0.0430139
0.000145165
0.000218126
0.000162428
0.000202948
0.000148899
0.000154477
0.0001476
0.000147206
0.000151198
0.000148331
0.000166083
0.054885
0.0001911
0.000191848
0.0001477
0.0001475
0.0318074
0.000177562
0.0550079
0.000190662
0.0555163
0.000147804
0.000163489
0.000162
0.000168262
0.0600801
0.00018981
0.000145074
0.000145618
0.0385018
0.000202787
0.000145747
0.000173069
0.0588607
0.000146911
0.000148769
0.0533349
0.000152214
0.00020842
0.0562238
0.000153525
0.000190463
0.000153764
0.000174666
0.0408974
0.000166251
0.000147883
0.000172564
0.000197652
0.000147466
0.000166024
0.000189046
0.000150846
0.0413017
0.056603
0.00054639
0.0590566
0.000147714
0.000148989
0.000217576
0.00021695
0.0554402
0.0757942
0.0583338
0.000171976
0.000152794
0.000143876
0.00014858
0.000165802
0.00014768
0.083096
0.00019257
0.0707521
0.000146914
0.00014783
0.000148362
0.000272341
0.000161995
0.000152728
0.000146364
0.000174259
0.000149327
0.0775793
0.0562189
0.0486813
0.0439255
0.000185642
0.000148748
0.0340099
0.000149216
0.000202926
0.000180407
0.000148546
0.0594617
0.000204148
0.000178627
0.000146879
0.000151638
0.000146839
0.0595611
0.0492893
0.000146418
0.000147876
0.0444455
0.000147769
0.0110871
0.000201538
0.000179674
0.000146904
0.000148072
0.000216503
0.00019413
0.000238547
0.000147962
0.000149909
0.000176841
0.000145741
0.000180654
0.00018659
0.000145751
0.000177266
0.000160615
0.000147811
0.000148311
0.061332
0.000172334
0.000160167
0.000201588
0.000175803
0.0813806
0.000146388
0.000165786
0.000148242
0.0603042
0.000147747
0.000174341
0.000148732
0.000148091
0.000161533
0.00014762
0.00015665
0.000152779
0.000145055
0.000170999
0.000149779
0.000185987
0.0797638
0.000172415
0.0186516
0.042926
0.000153719
0.000213165
0.000147954
0.000149308
0.00016837
0.0434215
0.000210918
0.000168007
0.050069
0.0281921
0.085744
0.000149121
0.000146934
0.000152965
0.000224757
0.000218704
0.0267907
0.000148983
0.000153468
0.000151137
0.000150076
0.000219671
0.000201984
0.000219029
0.000416691
0.000147173
0.000147794
0.00014921
0.000150027
0.000185683
0.0795768
0.000147251
0.00017203
0.000146916
0.000147829
0.0553612
0.000203098
0.000205842
0.000199539
0.0191469
0.000146948
0.000151951
0.0570661
0.000197243
0.000227987
0.0545368
0.000219086
0.000146133
0.000156666
0.03804
0.000146595
0.047437
0.000152314
0.000147598
0.000180731
0.000148799
0.000153395
0.0609868
0.000146478
0.0385079
0.000226508
0.000188427
0.000170458
0.0212342
0.000174393
0.000144772
0.0366532
0.0571125
0.000161447
0.000148024
0.000147826
0.000150534
0.000163311
0.000231931
0.000147496
0.000262128
0.000146743
0.000146538
0.000227859
0.000164039
0.000149152
0.000149762
0.0649642
0.000178224
0.000146512
0.000148201
0.000149133
0.000189377
0.0626602
0.000147552
0.000148266
0.000147488
0.000147977
0.000154334
0.000162326
0.000148985
0.0428441
0.000161295
0.000179203
0.000167906
0.000144896
0.0595773
0.000158924
0.000308731
0.000217245
0.000152203
0.000148098
0.000152159
0.000167767
0.0412259
0.000159814
0.000158682
0.0791456
0.000154257
0.000180922
0.000148398
0.000148601
0.000149312
0.00014783
0.0482589
0.000231849
0.000148449
0.000147622
0.000152112
0.0340976
0.000176007
0.000146519
0.000152204
0.000147279
0.000154232
0.000207051
0.000152032
0.000148024
0.000144921
0.039697
0.0169583
0.000146432
0.000199066
0.000172098
0.000178483
0.000146851
0.000148411
0.000164263
0.000150091
0.000146386
0.000153376
0.000265466
0.000200602
0.000181391
0.0473919
0.0808534
0.000147781
0.000149426
0.000169104
0.00227067
0.000179251
0.000149982
0.0001487
0.000258114
0.000190936
0.000215273
0.000208098
0.000146548
0.0381999
0.000148013
0.000272795
0.000148511
0.00014993
0.000348279
0.000176422
0.000162617
0.000168136
0.060159
0.0121999
0.000145422
0.00014879
0.000308802
0.000151429
0.000146111
0.000150385
0.000143858
0.0394649
0.000148225
0.000148419
0.0578128
0.0320242
0.000147222
0.000148205
0.000146821
0.000147571
0.0583287
0.0805355
0.000188361
0.00020359
0.0351076
0.0835916
0.00014728
0.0427132
0.0576954
0.0712585
0.0577693
0.000151957
0.000150149
0.000148736
0.000149342
0.000152218
0.000148503
0.000149911
0.0648079
0.000160371
0.000165205
0.000168972
0.0425863
0.000162616
0.0396505
0.0508065
0.0726016
0.000169048
0.000148078
0.000178901
0.000273215
0.00015219
0.000146947
0.000149348
0.0313843
0.0401091
0.000167804
0.000147103
0.00352575
0.000145977
0.000161853
0.000148687
0.0396074
0.000144428
0.00014727
0.0269608
0.000155077
0.0511619
0.00014836
0.000158966
0.000151441
0.00018907
0.00014776
0.000179317
0.000172533
0.00014802
0.000148853
0.0558134
0.000300459
0.000160103
0.00016458
0.000147764
0.000276894
0.000147131
0.000145281
0.00014999
0.000148051
0.000156342
0.000164844
0.000168702
0.000149183
0.000148085
0.0193817
0.000149625
0.000161779
0.000145344
0.000150771
0.00014839
0.000148449
0.0860908
0.000146855
0.000147508
0.0333949
0.000150467
0.000319939
0.0103941
0.000151219
0.000148734
0.000246699
0.000180874
0.0595358
0.000158011
0.000161799
0.000156194
0.000145565
0.0843923
0.000147891
0.0488829
0.000185322
0.000170563
0.000154552
0.000223647
0.000158333
0.000148864
0.000221514
0.000147722
0.000146883
0.000158117
0.039127
0.0641948
0.059915
0.050396
0.000171298
0.000154224
0.00016028
0.000147639
0.000146595
0.000144049
0.000212584
0.000151189
0.000158372
0.000147262
0.0581756
0.0439057
0.000155998
0.000148074
0.000194542
0.0546953
0.000148451
0.000148303
0.0262513
0.000148019
0.000157625
0.000228886
0.000147821
0.00014997
0.000203055
0.0349243
0.000149769
0.000160875
0.000147928
0.000147977
0.000154166
0.000169921
0.0647644
0.000168018
0.000148879
0.000147582
0.000207253
0.0484611
0.000147588
0.000149875
0.0446088
0.000147965
0.000198596
0.00015219
0.000147364
0.000153535
0.000226877
0.000146836
0.000149578
0.000149
0.000153389
0.000147322
0.0405206
0.000149302
0.000171816
0.000171137
0.000149539
0.0777841
0.0550408
0.000145358
0.000166274
0.000145293
0.000167961
0.0783163
0.000160081
0.000147733
0.000154555
0.0417026
0.000147377
0.0549929
0.000153176
0.000151258
0.000187875
0.000148708
0.000146719
0.000156605
0.000285518
0.000167678
0.0504293
0.00014749
0.0767644
0.000204094
0.00015036
0.046216
0.000180702
0.000181715
0.00015214
0.000147818
0.000147548
0.000158862
0.081327
0.000177893
0.000145381
0.000149563
0.000153771
0.0224176
0.0424539
0.0789299
0.000144411
0.000149883
0.000181933
0.000145597
0.0191901
0.000148151
0.000148629
0.019597
0.000146573
0.000169403
0.000146356
0.000148006
0.000175429
0.000146577
0.00014686
0.000146694
0.000148677
0.0780151
0.000174025
0.0433889
0.0328637
0.000152266
0.000169584
0.000212647
0.000150041
0.000283316
0.041375
0.000165831
0.000148197
0.000148829
0.000167852
0.000279002
0.00017876
0.0001501
0.000146161
0.0856141
0.0832035
0.000147931
0.000178757
0.000227905
0.000188568
0.000213218
0.000149208
0.0176238
0.0754899
0.000146722
0.00014788
0.00186076
0.000320131
0.00018509
0.0539466
0.00015618
0.000174544
0.000149801
0.00452244
0.000164061
0.000157894
0.000164891
0.0829462
0.000147289
0.000149172
0.000154441
0.000187046
0.000146881
0.0591103
0.00018084
0.0553434
0.000147321
0.000148241
0.00018024
0.000147059
0.00021148
0.000189785
0.0636477
0.0027609
0.0621344
0.000163051
0.000147803
0.000146655
0.000149544
0.0317748
0.000188955
0.0571139
0.00548307
0.000148034
0.000149541
0.00019812
0.000148883
0.000260714
0.000147752
0.000159792
0.0620269
0.000148411
0.000161084
0.000150501
0.000190336
0.000164729
0.000149279
0.060574
0.000208504
0.000185118
0.059532
0.000226909
0.050518
0.000148258
0.0741812
0.053657
0.0495738
0.000146102
0.000145997
0.00015127
0.00017721
0.0743697
0.028652
0.000147679
0.000147809
0.00022983
0.0488773
0.000149809
0.000148341
0.000149974
0.000146055
0.000185591
0.0399905
0.000149227
0.000195842
0.0434798
0.000228556
0.065883
0.000180163
0.000148168
0.000144426
0.000146946
0.000152979
0.015416
0.000169019
0.000157247
0.000180331
0.0396249
0.000147541
0.000145306
0.00018587
0.0800847
0.000161899
0.0487881
0.000204828
0.000149522
0.000145499
0.000178568
0.0794791
0.000178006
0.0001491
0.000146989
0.000258672
0.0540009
0.000153013
0.000148371
0.00826657
0.000205099
0.000162993
0.000149774
0.000158782
0.000199205
0.000144305
0.015295
0.0403328
0.000201799
0.000154241
0.000149544
0.000146704
0.000187728
0.000153184
0.000147823
0.000177086
0.000149645
0.000162767
0.0084068
0.0606156
0.0743761
0.000147547
0.000147657
0.0514851
0.000149911
0.0340949
0.000315703
0.00014832
0.000149179
0.000160323
0.000193411
0.0807094
0.000183844
0.00951508
0.000147621
0.000145605
0.000201776
0.000146336
0.000173811
0.000147656
0.00016215
0.000181558
0.000152978
0.00016087
0.000432717
0.000147972
0.000157242
0.0388641
0.000198978
0.0343916
0.000147671
0.000148509
0.000150547
0.000148465
0.000151907
0.000148836
0.000151003
0.000161119
0.0767913
0.000146862
0.000660212
0.000162014
0.000147763
0.000206036
0.000263433
0.0486023
0.000200266
0.000152973
0.0499267
0.000149348
0.000168245
0.000147305
0.00014756
0.00014512
0.000149946
0.00018882
0.0577921
0.000148909
0.000149934
0.0397225
0.000173581
0.0732763
0.000161036
0.000147962
0.000150459
0.00016427
0.000170858
0.000157588
0.000190806
0.000157213
0.000156182
0.000318242
0.000170295
0.000148103
0.0390611
0.000150591
0.000187737
0.0398232
0.000183332
0.0322551
0.0415949
0.000154351
0.0790071
0.000154321
0.000159379
0.000157413
0.000152259
0.000152001
0.0799189
0.00017151
0.0587207
0.000151962
0.000148372
0.000149383
0.000229083
0.00014832
0.000293103
0.000150593
0.000189009
0.000147351
0.00014499
0.000146257
0.0418593
0.000170557
0.0001489
0.00014884
0.000163694
0.000148522
0.00017429
0.000146184
0.000147296
0.000145596
0.0416923
0.000219595
0.000173372
0.000149113
0.000146875
0.000149199
0.00014985
0.000153059
0.000188976
0.000197876
0.000149175
0.000148474
0.000207203
0.00014811
0.0839826
0.000148755
0.000149793
0.0605779
0.000158866
0.000154023
0.000257458
0.000146611
0.000174876
0.0283148
0.000148203
0.000149646
0.000148041
0.000151539
0.000147421
0.000162261
0.000265615
0.0550296
0.000149459
0.000171275
0.000187129
0.000264573
0.000149048
0.000147759
0.000146731
0.000161946
0.000223543
0.000158353
0.000149157
0.0450236
0.000163683
0.000145209
0.0809763
0.0648853
0.000158448
0.000147327
0.000238359
0.000148507
0.000145141
0.0183066
0.035662
0.0275216
0.000148104
0.000147601
0.00016015
0.0147405
0.000147142
0.000161838
0.000156455
0.000181322
0.000163769
0.000177804
0.000144159
0.000162319
0.0411528
0.000165793
0.000147432
0.000147636
0.000164591
0.0296706
0.000165304
0.000386398
0.000147787
0.000149897
0.00017447
0.000154861
0.000148305
0.0327184
0.000191297
0.0116256
0.000155163
0.000146116
0.0786533
0.000146596
0.0430084