/*--------------------------------*- C++ -*----------------------------------*\
| =========                 |                                                 |
| \\      /  F ield         | OpenFOAM: The Open Source CFD Toolbox           |
|  \\    /   O peration     | Version:  v2012                                 |
|   \\  /    A nd           | Website:  www.openfoam.com                      |
|    \\/     M anipulation  |                                                 |
\*---------------------------------------------------------------------------*/
FoamFile
{
    version     2.0;
    format      ascii;
    class       volScalarField;
    location    "100";
    object      k_0;
}
// * * * * * * * * * * * * * * * * * * * * * * * * * * * * * * * * * * * * * //

dimensions      [0 2 -2 0 0 0 0];


internalField   nonuniform List<scalar> 
53008
(
0.000159878
0.000617439
0.00015213
0.000209692
0.0504077
0.0434016
0.000172547
0.000159663
0.000163161
0.000149732
0.000196989
0.000174215
0.0430447
0.0240662
0.000149294
0.000146592
0.000156603
0.000146654
0.0830338
0.000158518
0.000154535
0.000164443
0.000148002
0.000171858
0.0001533
0.00034383
0.0217808
0.000172483
0.000252365
0.000235238
0.000274439
0.00335875
0.0371666
0.000150588
0.000147848
0.000160469
0.000154062
0.000149781
0.000174776
0.000151591
0.000153872
0.0593478
0.000197644
0.07962
0.000158859
0.000147909
0.00014754
0.000153453
0.000208051
0.000147157
0.00015138
0.000156879
0.0001576
0.000148173
0.000182184
0.0836864
0.000158141
0.000147534
0.000272318
0.000177566
0.000150481
0.000158899
0.0813298
0.028205
0.000194202
0.000147814
0.000232931
0.00014741
0.00014622
0.000147783
0.0614341
0.00014509
0.000149089
0.0402205
0.000346794
0.000148007
0.000149804
0.0453868
0.000146054
0.0547397
0.0431602
0.0402065
0.000212226
0.000209516
0.000165407
0.000147829
0.00017372
0.00016286
0.000147824
0.00017564
0.0546146
0.0773343
0.0403212
0.000189247
0.0572091
0.000203885
0.0568358
0.000151952
0.0430411
0.0783014
0.000158499
0.000151503
0.000198033
0.000172626
0.000160635
0.0790346
0.0587176
0.000160313
0.000195019
0.000145056
0.000205293
0.0317238
0.000149846
0.0635371
0.0504664
0.00015471
0.000155702
0.000145632
0.000294458
0.0526496
0.0509475
0.000149032
0.00015101
0.0008055
0.0448088
0.000148097
0.048344
0.000216949
0.000171509
0.000148846
0.00124225
0.000148322
0.000209535
0.00015442
0.000145519
0.000262086
0.000148759
0.0428945
0.000147672
0.000147085
0.00014642
0.000147035
0.00016639
0.000269824
0.000172149
0.000151657
0.00015555
0.000147725
0.000146562
0.000150393
0.00014915
0.0808882
0.0481074
0.000164584
0.000146656
0.000157327
0.0557148
0.0751171
0.000152349
0.000289992
0.000180697
0.000147187
0.000146658
0.0786218
0.000153621
0.000149958
0.000147269
0.000158595
0.000147359
0.000151146
0.000161692
0.0475115
0.06939
0.000147249
0.000554553
0.000147086
0.000165528
0.000202761
0.00017281
0.00016576
0.00015092
0.000153467
0.0801012
0.00014975
0.000174168
0.0301629
0.0827961
0.0710117
0.05452
0.000147759
0.046492
0.000150041
0.000178554
0.0488796
0.000147873
0.000152626
0.000160684
0.000147765
0.000148749
0.000154893
0.000185592
0.000148815
0.00016057
0.000147635
0.000204684
0.0376723
0.000156526
0.000148596
0.000174094
0.000145644
0.0610683
0.000151487
0.000267842
0.00015224
0.00019461
0.000148098
0.000148652
0.000147976
0.000180145
0.000148233
0.000228568
0.000145179
0.000209719
0.000145172
0.000153447
0.000201114
0.000151181
0.000170231
0.000163379
0.00014642
0.035037
0.0419581
0.000145514
0.0394074
0.000185305
0.0789746
0.000152064
0.000145535
0.0296879
0.000146627
0.000148248
0.000150539
0.000255947
0.000150508
0.000160995
0.00014977
0.000194573
0.000226917
0.000148032
0.000177032
0.000152764
0.000149964
0.000147757
0.000154651
0.000150178
0.0815462
0.000262412
0.000149492
0.000180194
0.000157962
0.000435554
0.000268425
0.000158341
0.000152392
0.000147577
0.0223427
0.0777103
0.000147802
0.0847717
0.000211081
0.000145781
0.000154204
0.000148834
0.000255948
0.0421786
0.000144198
0.000204629
0.0595055
0.000179709
0.0001508
0.000147982
0.000149751
0.000179629
0.000173736
0.000152108
0.000174698
0.000170869
0.0354015
0.000173975
0.000149656
0.000588035
0.056468
0.000185648
0.0360964
0.000173075
0.000147931
0.000175372
0.000206646
0.0838759
0.000153174
0.000185593
0.0546106
0.0602603
0.0394848
0.000149518
0.000681645
0.000150064
0.00014942
0.000152957
0.000181663
0.036079
0.000249164
0.0225988
0.042323
0.000192388
0.000173589
0.000149965
0.000148551
0.00014423
0.00017373
0.000206175
0.0617821
0.000159876
0.0436758
0.000483078
0.000149006
0.055241
0.000161128
0.000146687
0.000162443
0.0811765
0.000147859
0.000149708
0.000150044
0.000145891
0.000145226
0.000178428
0.000146719
0.0558708
0.000151261
0.000149762
0.000147408
0.000180654
0.00014863
0.000149364
0.0195072
0.000172672
0.0469024
0.000259296
0.0693429
0.000215983
0.0435385
0.000151897
0.00014815
0.0221465
0.0784236
0.000147658
0.000147689
0.000441301
0.07758
0.00014853
0.000171452
0.000149401
0.0189964
0.000182144
0.0473981
0.000144242
0.000170056
0.0001568
0.000151963
0.083634
0.000158973
0.000171719
0.000228831
0.000182177
0.000156794
0.000178677
0.000181994
0.020287
0.0798919
0.00014961
0.000151137
0.000164746
0.000158323
0.075917
0.00014644
0.000154543
0.0570311
0.000147659
0.041394
0.0580736
0.000147342
0.000151135
0.000154555
0.000151283
0.000154097
0.00014712
0.000185379
0.000165194
0.0617638
0.000159736
0.000160817
0.00015321
0.0496431
0.000147355
0.000148205
0.000166908
0.000153724
0.000148597
0.000160886
0.000144274
0.000215203
0.000146273
0.000153545
0.000150725
0.050798
0.000148632
0.0201166
0.000153134
0.000147618
0.000146129
0.000148945
0.000165848
0.000153562
0.000228952
0.000149199
0.000158794
0.00015858
0.000214679
0.000144223
0.00027506
0.0638176
0.000281691
0.000147399
0.00020623
0.00015995
0.0340922
0.000170861
0.085389
0.000170572
0.000147834
0.000188698
0.000193184
0.000179306
0.000147074
0.000181002
0.028929
0.000275244
0.000151807
0.000262622
0.0612317
0.000153897
0.0459607
0.000166512
0.000153118
0.000208426
0.000151341
0.000147701
0.000151521
0.000148511
0.000243725
0.0571837
0.00014425
0.000158772
0.000227589
0.000165235
0.000148856
0.0353547
0.000147809
0.000149028
0.00017874
0.000156717
0.000172105
0.0479733
0.000269816
0.00019528
0.000151337
0.000150603
0.000180214
0.081041
0.00301541
0.000227889
0.000154719
0.000158993
0.000202777
0.000146108
0.000155894
0.000154479
0.000191961
0.000162912
0.000152893
0.000148804
0.0452243
0.000149556
0.00014766
0.00021094
0.000149852
0.0645546
0.00016343
0.000149854
0.000174164
0.00015343
0.0375324
0.000199506
0.000147464
0.000173004
0.000211892
0.000176519
0.000165251
0.000178273
0.078918
0.000176862
0.000148732
0.000147798
0.000198864
0.0557727
0.00015916
0.000149635
0.000148797
0.0436604
0.000149323
0.038288
0.000148577
0.000174615
0.000164867
0.0289012
0.000185194
0.000159223
0.0230364
0.000149885
0.000232876
0.000146711
0.000146423
0.0690139
0.000147724
0.000152775
0.000177786
0.000162057
0.000146494
0.000147542
0.000170202
0.0612581
0.000173767
0.000165514
0.0370499
0.000158407
0.000199542
0.0001467
0.00014754
0.000180992
0.0646793
0.000237308
0.000149357
0.07334
0.000155142
0.000147073
0.0748164
0.000154126
0.000148128
0.000150893
0.000172538
0.0806409
0.000177631
0.000189574
0.000159258
0.000164957
0.000202975
0.000149313
0.00015109
0.000177243
0.000157613
0.0159293
0.00020862
0.000170132
0.000155956
0.000146122
0.000158908
0.000177751
0.000187835
0.000149438
0.000154019
0.000145318
0.000159269
0.000173786
0.000249341
0.00259644
0.000148205
0.00015257
0.000226368
0.000150083
0.00014835
0.000147844
0.000164592
0.000156858
0.0293776
0.000148863
0.0428196
0.000269113
0.000147631
0.0755246
0.0626394
0.0001848
0.000148194
0.000188325
0.000227442
0.0563444
0.000160675
0.0001622
0.00017234
0.000151404
0.000149572
0.000149284
0.0669347
0.000147691
0.042452
0.000147799
0.000144798
0.000146636
0.000174829
0.000145599
0.0803274
0.000475922
0.000148706
0.0412558
0.000149717
0.000145034
0.000145241
0.000148944
0.000202435
0.000149427
0.000166756
0.000198175
0.0442907
0.00718054
0.000149831
0.000166755
0.000147158
0.000154329
0.000174311
0.044519
0.0377467
0.000379859
0.0102807
0.000146462
0.00014418
0.000148884
0.000147829
0.000192349
0.00014809
0.00014816
0.000148841
0.000145867
0.000158871
0.000156506
0.000146872
0.0715796
0.000149313
0.000149273
0.000145875
0.000148077
0.000212496
0.056677
0.000174292
0.000169331
0.0617278
0.0398611
0.0231882
0.086084
0.000150295
0.000146924
0.0775093
0.0615116
0.000147223
0.000623854
0.000147793
0.000150175
0.000145984
0.0631435
0.00017267
0.000148972
0.000200249
0.000147689
0.000151471
0.0715023
0.000157673
0.000149825
0.0423365
0.000146
0.000157091
0.0001565
0.000154475
0.000164773
0.000455712
0.000147172
0.000146869
0.000149475
0.0407601
0.000202651
0.000150933
0.000145907
0.000305159
0.000144204
0.000177156
0.000148081
0.000147714
0.000149568
0.000147808
0.000148956
0.000148168
0.00014754
0.000153372
0.000205191
0.000148091
0.000203065
0.000150752
0.0439155
0.000149529
0.000431514
0.000149562
0.0542016
0.00014993
0.000148306
0.000278701
0.000176022
0.0677518
0.000170333
0.000165271
0.0487207
0.000201855
0.000147888
0.0417755
0.000160345
0.00015156
0.0874641
0.000149032
0.000206139
0.000200498
0.000156838
0.00021199
0.000243308
0.000147577
0.000184006
0.000148113
0.000157179
0.000148047
0.00015794
0.000164637
0.000147687
0.000157942
0.000149739
0.000292843
0.000181039
0.000157621
0.000161773
0.000158161
0.000149506
0.0403859
0.000192272
0.000177994
0.000215196
0.0435359
0.000215799
0.000149851
0.045532
0.000155097
0.000147679
0.0431192
0.000687541
0.000149746
0.000275216
0.027532
0.000190489
0.000149539
0.031402
0.000196548
0.0287042
0.00016707
0.000147721
0.0792836
0.000180489
0.000268284
0.000150844
0.000149719
0.000158586
0.00061034
0.000152366
0.000581971
0.000209441
0.000150314
0.000170489
0.0401755
0.056585
0.00016086
0.0305962
0.000151281
0.000215749
0.0639948
0.000148068
0.0435329
0.000152245
0.000148727
0.0435435
0.000151698
0.000211968
0.000167503
0.000158093
0.000147557
0.000206206
0.000181911
0.000153324
0.000147804
0.0408616
0.000146551
0.0262394
0.000162707
0.00027002
0.000147871
0.000149649
0.051532
0.00019112
0.000238721
0.0371295
0.000177169
0.0397944
0.000176969
0.000150942
0.0424373
0.000154357
0.000148523
0.000249205
0.000199982
0.000154509
0.000148444
0.000146131
0.000147618
0.000148147
0.00019528
0.0596609
0.050726
0.000147295
0.000163381
0.00015103
0.000238171
0.000147653
0.0575627
0.0340591
0.0410642
0.000215609
0.000160144
0.00014722
0.0614734
0.000147727
0.000150054
0.000150007
0.000150477
0.000162376
0.000161047
0.000150183
0.000150145
0.000147993
0.000149844
0.00014782
0.000147247
0.00017543
0.000182297
0.000147799
0.000148219
0.0353367
0.0794042
0.000156918
0.000381994
0.000175036
0.000165849
0.00020904
0.000146691
0.00014771
0.000148058
0.00014767
0.000150512
0.000171287
0.000147351
0.000145536
0.000147239
0.000147822
0.0427722
0.000165332
0.000145205
0.000154427
0.000148541
0.000174091
0.000145419
0.0281787
0.000261321
0.000147849
0.0580107
0.00028054
0.000207755
0.000177011
0.0424835
0.06712
0.00014808
0.000147625
0.000150152
0.0291651
0.000199557
0.000152138
0.0200131
0.0124127
0.000146129
0.000146813
0.000149926
0.000164136
0.00015598
0.000147935
0.000147553
0.000147654
0.000147176
0.0354592
0.000205225
0.000148696
0.0276864
0.0471397
0.00014921
0.0001476
0.000151266
0.00016651
0.0355698
0.00301484
0.0583242
0.000189805
0.000189178
0.000425565
0.000269491
0.0304458
0.000154478
0.000178614
0.000158194
0.000158398
0.044119
0.000147527
0.0190235
0.00023951
0.000150879
0.000166997
0.000147616
0.0702285
0.000150764
0.000200329
0.000274627
0.000146051
0.0843874
0.000146555
0.000149775
0.0860055
0.000154433
0.000146287
0.0348007
0.0614733
0.000148488
0.000205452
0.000153697
0.000177547
0.000148239
0.000144197
0.0330937
0.046127
0.000198525
0.000147607
0.000152807
0.0385389
0.000157067
0.000146904
0.000148836
0.000153295
0.000146737
0.000202109
0.000154562
0.0443581
0.000165737
0.000171352
0.0699764
0.000148425
0.000148037
0.000166574
0.000235258
0.000187909
0.0753829
0.0346025
0.000197344
0.0273506
0.000147857
0.000147311
0.000170853
0.000150833
0.000146008
0.000152864
0.000158452
0.000287006
0.000154165
0.000165858
0.000233423
0.000159687
0.0476805
0.000148367
0.000157047
0.000146666
0.000148056
0.000178985
0.000148034
0.000162078
0.000214782
0.000190178
0.0438308
0.000147269
0.000171701
0.00019688
0.000145418
0.000147587
0.000208778
0.000146786
0.000147987
0.0411176
0.000269498
0.000190914
0.000173554
0.0390275
0.00016746
0.0338983
0.000161319
0.00014726
0.0001864
0.000148191
0.000249722
0.036978
0.00014799
0.000176384
0.000154476
0.000181044
0.045466
0.000147966
0.000209268
0.000288518
0.000157167
0.00029014
0.00021407
0.00415107
0.000164651
0.000159785
0.000199543
0.000162959
0.000145464
0.000147363
0.000168062
0.0607113
0.000146438
0.000158234
0.0766118
0.000162636
0.000154706
0.0854985
0.000148551
0.000166818
0.0757911
0.0407088
0.036094
0.000147428
0.000153491
0.000146974
0.000154866
0.00015347
0.000212151
0.0539927
0.000157124
0.000206986
0.000153077
0.02776
0.000145629
0.000147897
0.000157196
0.000147497
0.0439244
0.0420397
0.000168716
0.000164754
0.000149143
0.000195838
0.000147769
0.000149495
0.000156404
0.0001481
0.000204641
0.000155816
0.000178503
0.000238795
0.000143964
0.000164356
0.000160582
0.000147265
0.0374937
0.000150525
0.000179756
0.0890997
0.00020712
0.000146493
0.0691219
0.000160951
0.000149163
0.000148705
0.0045908
0.000148967
0.0426051
0.000149285
0.000147285
0.0670975
0.000182239
0.000179843
0.000145647
0.000157109
0.0405531
0.000146819
0.00014768
0.0475634
0.0268532
0.000180531
0.0761247
0.00014808
0.000229329
0.000172581
0.000150779
0.000177657
0.0572283
0.0813404
0.00018208
0.000148127
0.0808808
0.000146944
0.0350643
0.0245502
0.000147717
0.0510156
0.0348732
0.000173234
0.047066
0.000148115
0.000144983
0.000143943
0.000181051
0.0831257
0.000206333
0.000150595
0.017945
0.000149816
0.000148775
0.000172682
0.00014753
0.000150491
0.000145866
0.000186292
0.000148675
0.000153
0.0431074
0.0183186
0.000171989
0.000148203
0.000149841
0.0836509
0.000197984
0.000189435
0.00014522
0.000169628
0.000168501
0.0519106
0.000148796
0.0403906
0.000189536
0.000150503
0.000148022
0.00014955
0.000189161
0.0624879
0.00014929
0.000159231
0.000152745
0.000149018
0.000148059
0.0755467
0.0655508
0.0470261
0.000148405
0.000179712
0.000203616
0.057691
0.000181589
0.000228279
0.000149503
0.088661
0.000161314
0.000177456
0.0422165
0.00014917
0.000148781
0.000153381
0.000147834
0.0272935
0.000147571
0.000189037
0.0159053
0.000144237
0.000148042
0.0552206
0.000145189
0.000146586
0.000165837
0.000150439
0.00016154
0.000172676
0.000148476
0.000147263
0.000190482
0.000144851
0.000147279
0.0312318
0.00015504
0.0001472
0.000152307
0.000149076
0.000147376
0.000146957
0.0755975
0.000147009
0.00019104
0.000186737
0.000147216
0.000149865
0.000166389
0.000153031
0.000145974
0.000188235
0.039348
0.000149594
0.000147751
0.000148045
0.000159212
0.000152131
0.0755614
0.000196625
0.000145482
0.00014927
0.0407321
0.000154312
0.0798302
0.000154615
0.0659515
0.000150944
0.000173042
0.0810775
0.0401602
0.000148034
0.000158117
0.000145324
0.000150838
0.00390781
0.000171951
0.0441081
0.00016692
0.000157339
0.000162391
0.000148543
0.0522831
0.000215683
0.000148796
0.042345
0.000154136
0.000147359
0.000148182
0.000148617
0.000158354
0.000155055
0.0791711
0.000148464
0.0221716
0.0654463
0.000172274
0.000147017
0.0892602
0.0448584
0.000148714
0.000198145
0.0789351
0.000148844
0.000208739
0.000161462
0.000167708
0.000178082
0.000310087
0.000150005
0.0442814
0.000196844
0.000145664
0.000147284
0.000145539
0.000157262
0.000202585
0.0377373
0.000145382
0.0001498
0.000148058
0.0420908
0.000160226
0.000149835
0.000149169
0.0589898
0.0884456
0.000243653
0.0439579
0.0575646
0.000150473
0.000207735
0.000148475
0.000166635
0.000147235
0.000217015
0.000149866
0.000164541
0.000155229
0.000149715
0.0769007
0.000147665
0.00016142
0.0799656
0.000179083
0.000148812
0.000147731
0.000147804
0.0563651
0.000190458
0.000178563
0.000154915
0.000167837
0.0413276
0.000211469
0.000149937
0.0413892
0.00015716
0.000154817
0.0589365
0.000148823
0.0581709
0.00014851
0.0445554
0.000150986
0.00014823
0.0808188
0.000163057
0.000150065
0.00014784
0.0408595
0.0807769
0.000174872
0.000173871
0.000187875
0.0644832
0.0450111
0.0854925
0.0465452
0.000151725
0.000146982
0.00016692
0.000164766
0.000149392
0.000147727
0.000162326
0.000147998
0.000148065
0.0548165
0.000155159
0.00020904
0.000158193
0.00019013
0.000148629
0.000201625
0.0422089
0.000148649
0.000210143
0.000147344
0.00020804
0.000148767
0.0710971
0.000168056
0.000174077
0.000146272
0.000147219
0.000297454
0.0339793
0.00014761
0.0548642
0.000150815
0.00014795
0.000148073
0.000161177
0.00353807
0.00019816
0.000148746
0.000156745
0.042285
0.000148429
0.000168214
0.000147503
0.0429761
0.000148137
0.000144875
0.000156114
0.000169334
0.000154294
0.00022766
0.000148509
0.000156062
0.000175111
0.000228363
0.000148058
0.0519406
0.000147014
0.080837
0.0595055
0.000295599
0.000148097
0.000432758
0.00015974
0.000148169
0.000147856
0.000147346
0.000184453
0.000147868
0.000224256
0.000172537
0.000193925
0.000146486
0.00014422
0.000145215
0.0628738
0.000160954
0.0813173
0.000249944
0.000147644
0.0566976
0.000209105
0.000149951
0.045268
0.000148028
0.000167876
0.000156288
0.000155106
0.000150398
0.000195715
0.000176901
0.000146437
0.000220951
0.00014804
0.000148558
0.000150877
0.000148085
0.000150194
0.000152114
0.000148866
0.0802445
0.000190116
0.000206782
0.000148713
0.000150169
0.000220807
0.000165865
0.000158786
0.000145523
0.000148026
0.000179452
0.00536826
0.000149339
0.000231602
0.000148867
0.0634882
0.000192512
0.000147417
0.000145869
0.00020344
0.000166406
0.000152161
0.0622352
0.000148151
0.000152097
0.000413132
0.000172098
0.000146599
0.000162068
0.00014853
0.00017128
0.000149254
0.000220081
0.000149994
0.00015695
0.000152548
0.000169171
0.000150451
0.0869575
0.0291094
0.000148076
0.000150355
0.000229268
0.0315981
0.000148033
0.000150771
0.000176551
0.0335566
0.00014814
0.000156344
0.00019135
0.000148965
0.000150725
0.000174986
0.000149738
0.000149368
0.0564675
0.0100007
0.000150913
0.000147298
0.00015871
0.000145589
0.0171694
0.0366544
0.0412867
0.000158137
0.000192049
0.0793145
0.000152051
0.0580689
0.000222277
0.000148781
0.000147631
0.000166997
0.000145754
0.000152294
0.000238123
0.000169103
0.000154175
0.000185033
0.000162749
0.000168436
0.000207026
0.0529644
0.000146488
0.000158528
0.0412515
0.000216241
0.000162437
0.00020445
0.000179186
0.000148371
0.000216265
0.000164436
0.000150401
0.000153921
0.000147468
0.00025065
0.000149858
0.000147929
0.000147901
0.00016447
0.0554133
0.000196291
0.00022226
0.0554317
0.000162671
0.000633934
0.000159608
0.00014888
0.000159318
0.000167215
0.000152891
0.0368819
0.000220724
0.000152984
0.000197006
0.0237654
0.000199447
0.000148389
0.000157157
0.0332855
0.000147832
0.000147929
0.0378996
0.000151687
0.000148986
0.00017141
0.000150193
0.000161794
0.000150643
0.000187541
0.000145616
0.000919408
0.000786868
0.000177367
0.000148784
0.000197456
0.000211892
0.000148626
0.000160723
0.000147841
0.00014886
0.00015217
0.000147572
0.000145846
0.00650096
0.000241487
0.000148407
0.000149109
0.000149155
0.0611347
0.0430147
0.000145165
0.000218157
0.000162428
0.000202942
0.000148899
0.000154476
0.0001476
0.000147206
0.000151199
0.000148331
0.000166083
0.0549135
0.000191099
0.000191847
0.0001477
0.0001475
0.031807
0.000177565
0.0550127
0.000190708
0.0554951
0.000147804
0.000163489
0.000162001
0.000168263
0.0600832
0.000189765
0.000145074
0.000145618
0.0385064
0.000202794
0.000145747
0.000173069
0.0589088
0.000146911
0.000148768
0.0533353
0.000152214
0.000208407
0.056195
0.000153525
0.000190479
0.000153764
0.000174666
0.0408952
0.000166252
0.000147883
0.000172539
0.00019767
0.000147467
0.000166024
0.000189054
0.000150847
0.0413026
0.0565842
0.000545768
0.0590594
0.000147714
0.000148989
0.000217577
0.000216953
0.0554453
0.0757894
0.0583353
0.000171978
0.000152793
0.000143876
0.00014858
0.000165802
0.000147681
0.0831169
0.000192568
0.070758
0.000146914
0.000147829
0.000148362
0.000272498
0.000161995
0.000152728
0.000146364
0.000174239
0.000149326
0.0775881
0.0561881
0.0486851
0.0439049
0.00018564
0.000148747
0.0340109
0.000149216
0.000202929
0.000180407
0.000148546
0.0595082
0.000204142
0.00017863
0.000146879
0.000151638
0.000146839
0.0595573
0.049291
0.000146418
0.000147876
0.0444342
0.000147768
0.0110868
0.00020156
0.000179675
0.000146904
0.000148071
0.000216505
0.000194143
0.000238621
0.000147962
0.000149908
0.000176842
0.000145741
0.000180656
0.000186581
0.000145751
0.000177265
0.000160615
0.000147811
0.000148311
0.061327
0.000172336
0.000160167
0.000201603
0.000175803
0.0813782
0.000146388
0.000165786
0.000148242
0.0603504
0.000147747
0.000174341
0.000148732
0.00014809
0.000161533
0.000147619
0.00015665
0.000152778
0.000145055
0.000170998
0.000149779
0.000185983
0.079758
0.000172415
0.0186522
0.0429185
0.000153719
0.000213177
0.000147954
0.000149308
0.000168369
0.0434255
0.00021094
0.000168007
0.0500608
0.0281433
0.0857322
0.000149121
0.000146934
0.000152966
0.00022478
0.000218741
0.0267425
0.000148983
0.000153467
0.000151137
0.000150075
0.000219709
0.000202005
0.000219066
0.000416756
0.000147173
0.000147794
0.00014921
0.000150027
0.000185694
0.0795733
0.000147251
0.00017203
0.000146916
0.000147829
0.0553417
0.000203105
0.00020585
0.000199551
0.0190805
0.000146947
0.000151952
0.0570537
0.00019726
0.000228022
0.0545557
0.000219124
0.000146133
0.000156666
0.0380396
0.000146595
0.0473777
0.000152315
0.000147598
0.000180733
0.000148799
0.000153395
0.0609742
0.000146478
0.0385081
0.000226563
0.000188424
0.000170457
0.0211965
0.000174391
0.000144772
0.036654
0.0571601
0.000161447
0.000148024
0.000147826
0.000150534
0.000163311
0.000232122
0.000147496
0.000262194
0.000146743
0.000146538
0.000227282
0.00016404
0.000149151
0.000149762
0.0650081
0.000178227
0.000146512
0.000148201
0.000149133
0.000189379
0.0626553
0.000147552
0.000148266
0.000147489
0.000147977
0.000154335
0.000162326
0.000148985
0.0428387
0.000161296
0.000179203
0.000167906
0.000144896
0.0596229
0.000158924
0.000308681
0.000217266
0.000152203
0.000148098
0.000152158
0.000167766
0.0412239
0.000159815
0.000158682
0.0791382
0.000154257
0.00018092
0.000148398
0.000148601
0.000149312
0.00014783
0.0482372
0.000231792
0.000148449
0.000147622
0.000152112
0.0340972
0.00017601
0.000146518
0.000152204
0.000147279
0.000154232
0.000207058
0.000152032
0.000148023
0.000144921
0.0396985
0.0168912
0.000146432
0.000199058
0.000172065
0.000178482
0.000146851
0.000148411
0.000164263
0.000150092
0.000146386
0.000153376
0.000265445
0.000200618
0.000181433
0.0474124
0.0808748
0.000147781
0.000149425
0.000169105
0.00225385
0.000179255
0.000149981
0.0001487
0.000258141
0.000190936
0.000215303
0.000208123
0.000146548
0.0382043
0.000148013
0.000272661
0.000148511
0.00014993
0.000341404
0.000176423
0.000162617
0.000168138
0.0601604
0.0121302
0.000145422
0.000148789
0.00030869
0.000151428
0.000146111
0.000150385
0.000143858
0.0394629
0.000148224
0.000148419
0.0578091
0.0320233
0.000147222
0.000148205
0.000146821
0.000147571
0.0583073
0.0805303
0.000188458
0.000203601
0.0350438
0.0836101
0.00014728
0.0427108
0.057674
0.0712735
0.0577487
0.000151957
0.000150149
0.000148736
0.000149342
0.000152217
0.000148503
0.000149911
0.0647794
0.000160371
0.000165206
0.000168972
0.0425793
0.000162615
0.0396483
0.0507971
0.0726081
0.000169047
0.000148078
0.0001789
0.000273196
0.00015219
0.000146947
0.000149348
0.0313836
0.0400444
0.000167805
0.000147103
0.00352635
0.000145977
0.000161853
0.000148687
0.0396039
0.000144428
0.00014727
0.0269096
0.000155077
0.051163
0.00014836
0.000158966
0.00015144
0.000189069
0.00014776
0.000179316
0.000172568
0.00014802
0.000148853
0.0558139
0.000300395
0.000160103
0.000164578
0.000147764
0.000276801
0.000147131
0.000145281
0.00014999
0.000148051
0.000156343
0.000164845
0.000168701
0.000149183
0.000148086
0.0193823
0.000149625
0.000161779
0.000145344
0.000150771
0.00014839
0.000148448
0.0860791
0.000146855
0.000147509
0.0333954
0.000150467
0.000319048
0.0103944
0.000151219
0.000148734
0.000246804
0.000180873
0.0595377
0.000158011
0.000161798
0.000156195
0.000145566
0.0843903
0.000147892
0.0488788
0.00018532
0.000170565
0.000154553
0.000223831
0.000158332
0.000148864
0.000221552
0.000147721
0.000146882
0.000158117
0.0391045
0.0641642
0.0599554
0.0503992
0.000171299
0.000154225
0.000160279
0.000147639
0.000146595
0.000144048
0.000212603
0.000151188
0.000158372
0.000147263
0.0581331
0.0438994
0.000155998
0.000148074
0.000194539
0.0547466
0.000148452
0.000148303
0.0262521
0.000148019
0.000157626
0.000228942
0.000147822
0.00014997
0.000203063
0.0349242
0.000149769
0.000160876
0.000147929
0.000147977
0.000154166
0.00016992
0.0647685
0.000168018
0.000148879
0.000147582
0.000207246
0.0484667
0.000147587
0.000149875
0.0446035
0.000147965
0.000198587
0.000152191
0.000147364
0.000153535
0.000226872
0.000146836
0.000149578
0.000148999
0.000153389
0.000147322
0.040515
0.000149302
0.000171808
0.000171091
0.000149539
0.0777769
0.0550448
0.000145358
0.000166273
0.000145293
0.000167961
0.0783127
0.000160082
0.000147733
0.000154555
0.0416973
0.000147377
0.0549494
0.000153176
0.000151258
0.000187879
0.000148708
0.000146719
0.000156605
0.000285531
0.000167679
0.0504308
0.00014749
0.076774
0.00020411
0.00015036
0.0462143
0.000180702
0.000181718
0.00015214
0.000147818
0.000147548
0.000158862
0.0813462
0.000177904
0.000145381
0.000149562
0.000153771
0.0223924
0.0424
0.0789174
0.000144411
0.000149883
0.000181949
0.000145597
0.0191671
0.000148151
0.000148629
0.0195975
0.000146573
0.000169404
0.000146356
0.000148006
0.000175432
0.000146577
0.00014686
0.000146693
0.000148677
0.078012
0.000174005
0.0433871
0.0328684
0.000152266
0.000169583
0.000212676
0.000150041
0.000283169
0.0413731
0.000165831
0.000148197
0.000148829
0.000167852
0.000279442
0.000178759
0.0001501
0.000146161
0.0856213
0.0832233
0.000147932
0.000178761
0.000227929
0.000188573
0.000213249
0.000149208
0.0175452
0.0754973
0.000146721
0.00014788
0.00187996
0.000320045
0.000185088
0.0539497
0.000156181
0.000174543
0.000149801
0.0045573
0.000164062
0.000157895
0.000164892
0.082938
0.000147288
0.000149172
0.000154441
0.000187061
0.000146881
0.0591108
0.000180841
0.0553024
0.000147321
0.000148241
0.000180238
0.000147059
0.00021151
0.000189783
0.0636369
0.00278276
0.062132
0.000163051
0.000147803
0.000146656
0.000149543
0.0317744
0.000188956
0.0570932
0.00553479
0.000148034
0.000149541
0.000198111
0.000148883
0.000260656
0.000147753
0.000159792
0.0620124
0.000148411
0.000161084
0.000150501
0.000190342
0.000164728
0.000149279
0.060577
0.00020853
0.000185117
0.0595281
0.000226931
0.0505197
0.000148258
0.074179
0.0536154
0.0495585
0.000146102
0.000145997
0.00015127
0.000177209
0.0743691
0.0286006
0.00014768
0.000147809
0.000229877
0.0488607
0.000149809
0.000148341
0.000149974
0.000146055
0.000185588
0.0399874
0.000149227
0.000195841
0.0434843
0.000228599
0.0658871
0.000180164
0.000148168
0.000144426
0.000146946
0.000152979
0.0153369
0.00016902
0.000157248
0.000180333
0.0396206
0.000147541
0.000145307
0.000185867
0.0800875
0.0001619
0.0487848
0.000204823
0.000149521
0.000145499
0.000178567
0.0794736
0.000178005
0.0001491
0.000146989
0.000258608
0.053989
0.000153013
0.000148371
0.00820533
0.0002051
0.000162993
0.000149774
0.000158782
0.000199205
0.000144305
0.0153352
0.0403289
0.000201793
0.000154241
0.000149543
0.000146704
0.000187735
0.000153183
0.000147823
0.000177089
0.000149645
0.000162761
0.0084655
0.0606132
0.0743735
0.000147547
0.000147657
0.0514871
0.000149911
0.0340956
0.000315102
0.00014832
0.000149179
0.000160323
0.000193411
0.0807122
0.000183842
0.00945155
0.000147621
0.000145605
0.000201783
0.000146336
0.000173812
0.000147656
0.00016215
0.000181557
0.000152979
0.000160869
0.000434417
0.000147972
0.000157243
0.0388674
0.000198968
0.0343911
0.00014767
0.000148509
0.000150548
0.000148465
0.000151906
0.000148836
0.000151003
0.000161119
0.0767989
0.000146862
0.000663891
0.000162014
0.000147763
0.000206044
0.00026355
0.0486012
0.000200272
0.000152973
0.0499228
0.000149348
0.000168245
0.000147305
0.000147561
0.00014512
0.000149945
0.000188819
0.0577883
0.000148909
0.000149934
0.0397206
0.00017358
0.0732752
0.000161036
0.000147962
0.000150458
0.000164269
0.000170809
0.000157588
0.000190806
0.000157213
0.000156181
0.000318144
0.000170296
0.000148103
0.0390643
0.000150592
0.000187752
0.03982
0.00018333
0.0322602
0.0415957
0.000154351
0.0790294
0.000154322
0.00015938
0.000157414
0.000152258
0.000152001
0.0799149
0.000171511
0.0587238
0.000151961
0.000148372
0.000149383
0.000229107
0.00014832
0.000293079
0.000150593
0.000189012
0.000147351
0.00014499
0.000146257
0.0418032
0.000170559
0.0001489
0.00014884
0.000163694
0.000148522
0.000174263
0.000146184
0.000147296
0.000145596
0.0416875
0.000219634
0.000173319
0.000149113
0.000146875
0.000149198
0.00014985
0.000153059
0.000188979
0.000197888
0.000149175
0.000148474
0.000207192
0.000148109
0.0840002
0.000148755
0.000149793
0.0605755
0.000158866
0.000154023
0.000257456
0.000146612
0.000174878
0.0283158
0.000148203
0.000149646
0.000148041
0.000151539
0.000147421
0.00016226
0.000265606
0.0550305
0.000149459
0.000171277
0.000187133
0.000264612
0.000149048
0.000147759
0.000146731
0.000161946
0.000223539
0.000158354
0.000149157
0.0449597
0.000163683
0.000145209
0.081002
0.0648709
0.000158448
0.000147327
0.000238367
0.000148507
0.000145141
0.0182879
0.0356615
0.0275227
0.000148104
0.000147601
0.00016015
0.0146635
0.000147142
0.000161839
0.000156455
0.00018132
0.00016377
0.000177803
0.000144159
0.000162319
0.041088
0.000165793
0.000147433
0.000147637
0.00016459
0.0296774
0.000165304
0.000386035
0.000147786
0.000149897
0.000174472
0.000154861
0.000148305
0.0326585
0.000191297
0.0116167
0.000155164
0.000146116
0.0786493
0.000146596
0.043011
0.000173418