/*--------------------------------*- C++ -*----------------------------------*\
| =========                 |                                                 |
| \\      /  F ield         | OpenFOAM: The Open Source CFD Toolbox           |
|  \\    /   O peration     | Version:  v2012                                 |
|   \\  /    A nd           | Website:  www.openfoam.com                      |
|    \\/     M anipulation  |                                                 |
\*---------------------------------------------------------------------------*/
FoamFile
{
    version     2.0;
    format      ascii;
    class       volScalarField;
    location    "100";
    object      nut;
}
// * * * * * * * * * * * * * * * * * * * * * * * * * * * * * * * * * * * * * //

dimensions      [0 2 -1 0 0 0 0];


internalField   nonuniform List<scalar> 
53008
(
0.000916977
0.000415981
0.000893535
0.000144542
0.00790713
0.00998233
0.000219868
0.000941147
0.000274912
0.00146324
0.000772206
0.000171993
0.0110354
0.00512597
0.00175916
0.00587079
0.00160117
0.0058718
0.0104973
0.00174688
0.00173453
0.000137788
0.0058322
0.000228475
0.00174642
0.000222294
0.00467574
0.000715258
0.000548971
0.000659771
0.000697216
0.00102653
0.0080604
0.00161481
0.0058306
0.000287654
0.000764562
0.00583587
0.0002305
0.00141939
0.00078301
0.0100307
0.000750213
0.0153307
0.00190267
0.00468388
0.00590422
0.00230048
0.000875074
0.00583171
0.00594658
0.000363069
0.00122016
0.00583286
0.00115805
0.011006
0.00179952
0.00583094
0.000595751
0.00100068
0.00202331
0.000629626
0.00793592
0.00693537
8.56565e-05
0.00497848
0.000685798
0.00583446
0.00584023
0.00459912
0.00347223
0.00582867
0.00209434
0.00924018
0.000225484
0.00583273
0.00583615
0.0106723
0.00586006
0.00354099
0.00990116
0.00939163
0.000689802
0.000116561
0.000414487
0.00470633
7.10961e-05
0.000321815
0.00427803
0.00139296
0.00417734
0.0145288
0.00938914
0.000581288
0.00757436
0.000789504
0.0103823
0.000857177
0.00458577
0.00741486
0.00173281
0.00145777
0.000650951
0.000670309
0.000925689
0.0122305
0.012418
0.000299563
0.00079851
0.00582862
0.000176391
0.00169955
0.00583617
0.00849081
0.00945613
0.00598149
0.00168506
0.00583879
0.000653968
0.00418003
0.00765652
0.00198234
0.00139561
5.01674e-05
0.010484
0.00426932
0.00396649
0.000926011
0.00108988
0.00218782
0.000551826
0.0028684
0.00012352
0.00116583
0.00584097
0.000623691
0.00583368
0.0110189
0.00389777
0.00560007
0.00586306
0.00585312
0.000415981
0.000567206
0.00117924
0.000885448
0.00170582
0.0058311
0.00589679
0.00198555
0.00583444
0.0079114
0.00739088
0.00012303
0.00583197
0.0011929
0.0110054
0.0157682
0.00150765
0.000355114
0.000426187
0.0058316
0.00583305
0.0144408
0.00151018
0.00583648
0.00584498
0.00076602
0.00583181
0.000952592
0.000655411
0.0100225
0.00904408
0.0058358
3.80827e-05
0.00586771
0.000479444
0.000716661
7.53935e-05
0.000269662
0.00142321
0.00158194
0.0152525
0.00152138
0.000161052
0.00790582
0.0085198
0.00923269
0.0118356
0.00583111
0.00246475
0.0018598
6.78652e-05
0.00467709
0.00486769
0.00276755
0.000742286
0.00583277
0.00583346
0.000500264
0.000412513
0.00218219
0.000977602
0.00406384
0.000729377
0.00895072
0.00160458
0.00583314
0.000427206
0.00584053
0.0125696
0.00141163
0.000471595
0.00077908
0.000821159
0.00499048
0.0058336
0.00583212
0.000337974
0.00336718
0.000652417
0.00584891
0.000714137
0.00584907
0.00132501
0.000814635
0.00121901
0.000282546
0.000376148
0.00586342
0.00884598
0.00913816
0.00587157
0.0074263
0.00053881
0.0123124
0.00269608
0.00584171
0.00719595
0.00587358
0.00298576
0.00172529
0.000583473
0.00176857
0.000998909
0.00583593
0.000210711
0.000695198
0.00583646
0.00109364
0.00179745
0.00156745
0.00354577
0.000474863
0.00201409
0.00819809
0.000597798
0.00299316
0.000350995
0.00172386
0.000162448
0.000594547
0.000716687
0.00595529
0.00583982
0.0046942
0.0139215
0.00583207
0.00889046
0.000689575
0.00588154
0.0011961
0.00216665
0.000588321
0.010468
0.00583474
0.00073321
0.0142108
0.00124911
0.00339194
0.00583219
0.00583579
0.00107514
0.000179492
0.000856061
0.000242476
0.000608017
0.0085306
0.000174817
0.00153989
0.000279808
0.0128113
0.00031715
0.0076474
7.13711e-05
0.00583199
0.000686178
0.000746035
0.00863118
0.00239626
0.000301306
0.0118854
0.0146688
0.00963299
0.0058354
0.000369643
0.00135916
0.00320931
0.00596322
0.00028007
0.00928258
0.000548629
0.00477921
0.0103829
0.000798495
0.000421248
0.00583647
0.00583364
0.0058349
0.000723096
0.000780596
0.0105084
0.000449035
0.0108599
0.000268591
0.00209911
0.0109496
0.00127675
0.00583194
0.000685319
0.0131189
0.00513113
0.00583577
0.00166585
0.00583534
0.00584816
7.48935e-05
0.00588229
0.0102869
0.000999342
0.00583587
0.00583177
0.000406682
0.00264199
0.00176411
0.00411791
0.00024435
0.0111816
0.000628636
0.0149788
0.000570283
0.0106713
0.00272164
0.00583396
0.00531015
0.00957691
0.00583809
0.00493521
0.000201268
0.0132399
0.00281736
0.000569599
0.00279866
0.00395888
0.000386146
0.0116465
0.00583374
0.00104136
0.000752202
0.000950276
0.00877551
0.00205012
7.69997e-05
0.000741744
0.000358542
0.0015812
0.000864286
4.89668e-05
0.00430254
0.0143933
0.00590369
0.00116798
0.000579818
0.00168188
0.0133147
0.00583486
0.00170925
0.0126321
0.00583864
0.00825328
0.0140558
0.00582978
0.0012232
0.000970564
0.00119879
0.000838988
0.00509269
0.000545078
0.000154407
0.0149147
0.000441412
0.00136029
0.0019034
0.0120321
0.00583192
0.00583284
0.000161952
0.00129565
0.00257088
0.000959098
0.00583366
0.000723575
0.00584998
0.00231018
0.00174759
0.00469311
0.00583316
0.00375907
0.00215765
0.00583455
0.00583137
0.00215463
0.000228724
0.00135159
0.00067655
0.00583451
0.00182309
0.00190343
0.000556434
0.0058343
0.00072808
0.0142837
0.000633294
0.00583184
0.000789733
0.000588809
0.00820076
0.000334402
0.00897289
0.000363804
0.00583205
0.000191302
8.51361e-05
0.000910812
0.00576819
0.00045167
0.00607523
0.000655237
0.000982324
3.05395e-05
0.0143462
0.000883137
0.0114658
0.000369731
0.00229812
0.000767892
0.000901656
0.00550983
0.00594154
0.00583297
0.000597158
0.00642322
0.0058342
0.00213106
0.000694033
0.000635374
0.0024288
0.0085581
0.0058353
0.00196709
0.000203578
0.000754718
0.000690224
0.0115928
0.00030655
0.000775495
0.00128668
0.00195173
0.000154121
0.0133791
0.000695703
0.000786579
0.00106331
0.00191973
0.000904565
0.00583125
0.00172225
0.000978777
0.000825863
0.000502271
0.000782955
0.00313322
0.0108645
0.00583535
0.00508268
0.000751699
0.00583617
0.0151386
0.000414301
0.00583615
0.000708865
0.00241592
0.00758067
0.000239439
0.00583097
7.55151e-05
0.000667394
0.000702936
0.000662339
0.000814644
0.0143218
0.000220393
0.00583393
0.00583158
0.000267719
0.0127246
0.00151794
0.00158332
0.0022675
0.010554
0.00180892
0.00871993
0.00583363
0.000463207
0.000568287
0.00701802
0.000879184
0.000629703
0.00239555
0.00583623
0.000685309
0.00590053
0.00583082
0.0149061
0.0038626
0.00288159
0.000802072
0.00150816
0.0058549
0.00583523
0.000202785
0.0146607
0.000295823
0.00129862
0.00843272
0.00172803
0.00026195
0.00587488
0.0058356
0.000423825
0.0153086
0.00065942
0.00172232
0.00954052
0.00109483
0.00585563
0.0157902
0.000818434
0.00289596
0.00182504
0.000710873
0.0115991
0.000707685
0.000575873
0.00192802
0.0011593
0.000846074
0.00173825
0.000978088
0.000769729
0.000680775
0.0017505
0.000702127
0.000321078
0.00164766
0.00586188
0.00152802
0.000823402
0.000192854
0.00153819
0.00077416
0.00583325
0.00226222
0.000181201
0.000619417
0.000648625
0.00583151
0.00142715
0.00065024
0.00144984
0.00583343
0.00583457
0.000116048
0.00159964
0.00618187
0.00219035
0.010651
0.000307007
0.00583439
0.0125203
0.0148531
0.000994468
0.00583378
0.000756869
0.000730553
0.012709
0.000896499
0.000401715
5.79275e-05
0.000930017
0.00163239
0.00174051
0.0153791
0.00491366
0.00988918
0.00583508
0.0058452
0.00583302
0.00156645
0.00587434
0.00968018
0.000161223
0.00583386
0.00985899
0.00236429
0.00584841
0.00584285
0.00212756
0.00081878
0.00164967
0.00158846
0.000238712
0.0047703
0.000854255
0.00583606
0.00147875
0.00588209
0.00166525
0.0014078
0.0103821
0.00905921
0.000484618
0.0012234
0.00585455
0.00584642
0.00205373
0.00479947
0.000753142
0.00484856
0.00583428
0.00231001
0.0058686
0.00171979
0.00207113
0.00584681
0.0124993
0.00176478
0.00583464
0.00586806
0.0046272
0.000976727
0.0084089
0.000504162
0.000281833
0.00654466
0.0096909
0.00553903
0.0116089
0.00173911
0.00583114
0.0144634
0.00270328
0.00583711
0.00045221
0.00583268
0.00162513
0.00582919
0.00356222
7.60789e-05
0.00224213
0.000242939
0.00402819
0.000885175
0.0124344
0.00154116
0.00226119
0.00980593
0.00588477
0.00222357
0.00122041
0.00104626
0.000168119
3.02259e-05
0.00578599
0.0058465
0.00314602
0.00204517
0.000980409
0.00134272
0.00582933
0.000318806
0.00584633
0.00074584
0.00487126
0.00590962
0.00277277
0.00583052
0.00219078
0.00583389
0.0056935
0.00159235
0.000334512
0.00518732
0.000736051
0.00129207
0.010296
0.00310819
0.000354952
0.00583544
0.00799586
0.00583636
0.00317037
0.000712672
0.00067653
0.0137646
0.000147473
0.000270803
0.00521369
0.000792967
0.00490408
0.0102724
0.00126369
0.0014334
0.0110188
0.00208217
0.000335981
0.000276507
0.00196117
0.00068674
0.000598551
0.00583931
4.1469e-05
0.00583199
0.00111931
0.00583613
0.00152311
0.000143185
0.00590842
0.0017359
0.00583597
0.000341753
0.00041445
0.00155879
0.000644723
0.00168278
0.00583523
0.00842046
0.000214908
7.14836e-05
0.00080049
0.0102452
0.00093473
0.00238764
0.010823
0.00112006
0.00583054
0.00988747
0.000419906
0.00583588
0.000223774
0.00608529
0.000144455
0.00240634
0.00762593
0.000817915
0.00619153
0.000652971
0.00470071
0.00819485
4.19568e-05
0.000674118
0.00122855
0.00583579
0.00169048
0.000108614
0.00174844
9.99758e-05
0.000882434
0.00191292
0.0010744
0.0109509
0.00909764
0.000309382
0.00741669
0.000923482
0.00014573
0.0152279
0.00520454
0.00192418
0.00086032
0.0023453
0.0110353
0.000912693
0.000993847
0.000167294
0.0016962
0.00583497
0.000123082
5.06163e-05
0.00237676
0.00583568
0.00977786
0.00585894
0.00129812
0.000517983
0.000697346
0.00476818
0.00234683
0.00349392
0.000608568
0.000577238
0.00862982
0.000702904
0.00964654
0.00029845
0.000997408
0.0103505
0.00165548
0.00583355
0.000622583
0.000198924
0.00260965
0.00298997
0.00588797
0.00583105
0.00583202
0.000764652
0.0145641
0.00910388
0.00583135
0.001642
0.00115075
0.000679967
0.00583109
0.0141734
0.00815987
0.00920368
0.00014977
0.000579422
0.00584527
0.0148687
0.00409104
0.00149036
0.00153484
0.00226262
0.000315493
0.000746164
0.00124598
0.00127726
0.00583213
0.00144627
0.00583563
0.00583607
6.87645e-05
0.000303437
0.00583554
0.00351413
0.00853127
0.00811095
0.00111026
0.000207412
0.00140966
0.000216703
0.000770372
0.00585494
0.00383725
0.00583222
0.00395734
0.00219155
6.35044e-05
0.00583232
0.00583851
0.00583365
0.00583198
0.00982253
0.000277092
0.00584727
0.00161338
0.00583307
0.000498722
0.0058438
0.00291111
0.000518178
0.00480423
0.00928178
0.000631489
0.000820557
0.000707764
0.00977871
0.0148898
0.00448101
0.00583864
0.00129401
0.00643613
0.00076785
0.000930667
0.00340282
0.000870448
0.00588846
0.00584729
0.00146561
0.000122925
0.00092827
0.00583171
0.00583095
0.00536097
0.00523726
0.00907895
0.000133681
0.00223716
0.0014093
0.00916521
0.00583441
0.00411161
0.00133907
0.000754176
0.0090359
0.000498934
0.0142923
0.00107597
0.000152885
0.00018987
0.00065675
0.00674887
0.00164109
0.00111336
0.00148954
0.00194798
0.0102439
0.0052275
0.00366479
0.000687956
0.00364394
0.000160728
0.00502798
0.0157682
0.00131894
0.000181915
0.000651276
0.00585794
0.0090177
0.00584978
0.00583595
0.00889772
0.00103636
0.00583077
0.00885525
0.0140989
0.00289523
0.000889183
0.00125128
0.000341401
0.00331579
0.00584507
0.00877965
0.0109268
0.000199496
0.00372159
0.00178331
0.00395441
0.000461462
0.00582979
0.00583384
0.000607627
0.00587767
0.000919926
0.000543287
0.0103245
0.000173959
0.0010151
0.0144472
0.00264651
0.0030458
0.000709549
0.000659166
0.000551801
0.0158409
0.00871001
0.000420779
0.00613943
0.00508545
0.00583103
0.00106082
0.00377306
0.0058844
0.000926168
0.00148959
0.000215542
0.00164835
0.000619109
0.000543466
0.000559177
0.0123472
0.00583342
0.00600618
0.00587641
0.00583191
0.00107378
0.00335558
0.000417797
0.000937658
0.000276619
0.0110196
0.00562482
8.04421e-05
0.000242921
0.00583276
0.00393207
0.000363802
0.00584693
0.00311771
0.0100767
0.000696209
0.000297238
0.000186275
0.00838171
0.000165404
0.00816642
0.00100249
0.00583651
0.000417824
0.00583272
0.000547823
0.00957423
0.00583152
7.89294e-05
0.00184169
0.000426348
0.0107905
0.00583178
0.000707997
0.000336554
0.000328077
0.000343842
0.000518331
0.000320962
0.000128114
0.000540767
0.000101363
0.000135566
0.00584252
0.00583236
0.000116151
0.00965151
0.00583767
0.00184358
0.0154921
0.000201806
0.00243976
0.0103945
0.00583304
0.000720256
0.00587616
0.00912583
0.00819312
0.00583091
0.00156072
0.00583821
0.00110839
0.00138176
0.000944267
0.00437253
0.000467672
0.000738327
0.00064179
0.00605688
0.00583987
0.00583829
0.000450605
0.0058309
0.0103637
0.00968786
0.000253536
0.000120323
0.00289729
0.000224046
0.00583043
0.00276984
0.00145071
0.00583199
0.000810742
0.00102919
7.06408e-05
0.000640521
0.0058273
0.000115875
0.000922613
0.00584822
0.00872469
0.0012366
0.00081688
0.0103
0.00036424
0.0058316
0.00887215
0.000335002
0.00283768
0.00583335
0.000414562
0.00508094
0.0098851
0.00583483
0.00583347
0.0149303
0.000276092
0.000599531
0.00583949
0.00159151
0.00837388
0.00583526
0.00495518
0.00393054
0.00277473
0.00127824
0.00575155
0.00495658
0.000777187
0.000714987
0.00132062
0.000336805
0.00419114
0.0125443
0.00117116
0.00583412
0.0111882
0.00584416
0.00850236
0.00257921
0.00491754
0.00936117
0.00689965
0.00071927
0.0104086
0.00306074
0.00584779
0.00582739
0.00128816
0.0103941
0.000323246
0.00281422
0.00430852
0.0016545
0.00229047
7.36446e-05
0.00422037
0.001269
0.00583557
0.000421871
0.0030866
0.00181557
0.0100519
0.00194638
0.000221573
0.00387541
0.00583607
0.0114485
0.000239312
0.000204096
0.00584681
0.000149371
0.000301052
0.00527817
0.00583393
0.00908966
4.5602e-05
0.00223459
0.00449522
0.00163396
0.000197623
0.00974294
0.00583488
0.00158052
0.00107967
0.00201367
0.00583594
0.00616725
0.0127066
0.00246981
0.00583346
0.000690025
0.000838489
0.00937288
0.000272436
0.000756515
0.00160705
0.0093234
0.00034262
0.000312816
0.00961708
0.00192372
0.00583371
0.00241231
0.00583161
0.00564879
0.00573904
0.000851853
0.0038617
0.00584805
0.00518949
0.0137267
0.00584589
0.00583167
0.000165112
0.00318797
0.000185448
0.000188581
0.00583284
0.00583368
0.00144428
0.00584587
0.00583278
0.00795526
0.00184376
0.00584449
0.00147226
0.00189253
0.00583041
0.00583114
0.00627335
0.00583797
0.00141186
0.000118745
0.00571299
0.00583615
0.000353837
0.000768394
0.00582928
0.00010969
0.00959177
0.00158915
0.00383846
0.00583269
0.00149372
0.00151414
0.00950872
9.85646e-05
0.00584234
0.00174698
0.00923321
0.000566618
0.00964727
0.00258752
0.00972678
0.00319865
0.000720115
0.0134613
0.00886244
0.00393822
0.00176547
0.00583364
0.00326468
9.94254e-05
7.08688e-05
0.0103536
0.000708346
0.00156891
0.00063506
0.00251634
0.00566833
0.000467742
0.00583399
0.00981175
0.00163967
0.00583036
0.00583146
0.00260088
0.00174904
0.000859354
0.0138094
0.00583354
0.00530105
0.0115151
0.000691844
0.00583846
0.00984792
0.0104975
0.00583362
0.000172496
0.00739261
0.00583411
0.000359055
0.00125357
9.87752e-05
0.00111432
0.000198095
0.0021153
0.0110582
0.000227854
0.00586319
0.00584585
0.00587149
0.00210187
0.000228705
0.00855078
0.0058325
0.00583601
0.00493197
0.00953077
0.000904459
0.00159859
0.00583433
0.0116818
0.00914966
0.000595409
0.00236379
0.0107284
0.00267968
0.000354544
0.00583317
0.000763423
0.00580204
0.000910885
0.0058362
0.000112042
0.00172693
0.00149722
0.0130366
0.00385917
0.000177167
0.0144472
0.000154235
0.0058339
0.00583051
0.00505851
0.0085146
0.000217476
0.000646261
0.00190476
0.000827125
0.0112212
0.000686054
0.0058364
0.00995326
0.000665807
0.00112018
0.00888733
0.00583343
0.0143159
0.00583322
0.00264799
0.00138575
0.00375541
0.00985185
0.00190393
0.0020979
0.00583123
0.010074
0.0113478
0.000708684
0.000298545
0.00053093
0.0070595
0.0107163
0.0102221
0.0110631
0.000860749
0.00583095
0.00017372
0.000132493
0.0016563
0.00583033
0.000372027
0.00583181
0.00583275
0.0125975
0.00071435
0.000821118
0.00084424
0.000204283
0.00253443
0.00022336
0.0103845
0.00321095
0.000725833
0.00582968
0.000200466
0.0023291
0.01532
0.0017725
5.38898e-05
0.00583089
0.00583387
0.000380042
0.00351905
0.00583037
0.0122383
0.00184912
0.00583081
0.00583559
0.00124448
0.000382285
0.000513193
0.00228414
0.0020207
0.00848212
0.00583351
0.000108004
0.00583024
0.0105107
0.00583433
0.00584562
0.000418954
0.000159394
0.00201125
0.000772231
0.00260193
0.000564218
0.00174969
0.000719886
0.0046573
0.0106134
0.00582336
0.0136465
0.0145552
0.000386366
0.00475111
0.000192657
0.000625825
0.0041749
0.00583128
0.00583099
3.56349e-05
0.00583165
0.000767932
0.000190199
4.43731e-05
0.00583047
0.00582846
0.00584191
0.011256
0.000598049
0.0132259
3.30283e-05
0.00394027
0.00986898
0.000687818
0.00151687
0.0107184
0.00583156
0.00192996
0.00129481
0.000795143
0.00159874
0.000681686
0.000213834
0.00583068
0.000339311
0.00583219
0.00588677
0.00336907
0.00583429
0.00236648
0.00218665
0.00224751
0.00595574
0.000225767
0.000876857
0.0023731
0.00130754
0.000674361
0.000630565
0.000411168
0.00583788
0.00314831
7.89784e-05
0.00059995
0.00197874
0.000410612
0.00583416
0.0124557
0.000215757
0.00583452
0.00583598
0.00103068
0.000167332
0.00249969
0.0146255
0.00583342
0.000772496
0.000356644
0.000639365
0.00587589
0.000148645
0.0058323
0.00109344
0.00183979
0.000666454
0.00317831
0.000352591
0.00171517
0.0016452
0.00122061
0.00879202
0.00636148
0.00585849
0.00592589
0.000406314
0.00562951
0.00583188
0.00335946
0.000673206
0.00812506
0.00588109
0.000539106
5.18066e-05
0.00583421
0.00127905
0.00138756
0.00583577
0.00164964
0.0107544
0.000811033
0.00593676
0.00583455
0.00149359
0.00585664
0.000913724
0.00759027
0.00940216
0.000873512
0.000229639
0.00979603
0.000914844
0.00894309
0.000804211
0.00583375
0.00413172
0.000717548
0.00582922
0.0023729
0.000647836
0.000279722
0.000552547
0.000534977
0.000195668
8.12907e-05
0.000352351
0.00359281
0.00584987
0.00194013
0.00941872
0.000929583
0.000374817
0.000743304
0.000630981
0.00274118
0.00079237
0.000594444
0.00123239
0.000892123
0.00583609
0.000545316
0.00583618
0.00583073
0.00583168
0.000612803
0.00686724
0.000170509
0.000843204
0.0104768
0.000284798
9.4247e-05
0.00114375
0.00583385
0.000956381
0.000767089
0.00270958
0.00853263
0.000847046
0.000638343
0.000640038
0.00503165
0.000845375
0.00302614
0.000376918
0.00805805
0.00583625
0.00583229
0.00984371
0.000986918
0.0058343
0.00058537
0.00125594
0.000410646
0.00123119
0.000297392
0.00582896
0.000168395
2.22317e-05
0.00081325
0.00298817
0.000398748
0.000665636
0.00583355
0.000773856
0.00583606
0.00583407
0.00219782
0.00583419
0.00583621
0.000785862
0.000678311
0.00297704
0.00197473
0.0019608
0.0144732
0.0099522
0.00584024
0.000787007
0.000561172
0.000129634
0.00583413
0.00168131
0.00512967
0.00495818
0.00121715
0.00335517
0.000556882
0.00976148
0.000231961
0.00141724
0.00494419
0.00513033
0.00725679
0.000986868
0.00720195
3.43145e-05
0.0124182
0.00423927
0.00163801
0.000345513
0.00024416
0.0146456
3.19362e-05
0.00583163
0.00587416
0.00923861
0.000827203
0.0058292
0.000175061
0.009092
0.00584012
0.00214001
0.0134103
0.000771559
0.000707691
0.00587237
0.00133942
3.29458e-05
0.00141537
0.000702331
0.00970591
0.000196558
0.00583794
6.7398e-05
0.000770812
0.00583634
0.000555484
0.00094002
0.00155598
0.00932973
0.00412978
0.000372128
0.0144619
0.00583185
0.00506577
0.000886055
0.000899295
0.0104431
0.0150524
0.0113726
0.00108415
0.000650949
0.00582696
0.00583342
0.0001738
0.00459441
0.0105384
0.00141937
0.0157849
0.00584446
0.0041089
0.00290318
0.000393525
0.00141761
0.00106436
0.00583485
5.27336e-05
0.00173037
0.0127571
0.00568319
0.00538398
0.00503063
0.000537007
0.00239362
0.0085053
0.0018382
0.000179432
0.000664159
0.00583336
0.00976713
0.000774566
0.000943498
0.0058448
0.000898113
0.00583146
0.0134163
0.0120747
0.00583479
0.00583821
0.0111049
0.00389774
0.000867914
0.000745606
0.00145265
0.00583957
0.00583279
0.000905907
0.000881767
0.000647801
0.0058323
0.00326993
0.000792408
0.00584769
0.00123844
0.000113466
0.00584757
0.000327566
0.000967238
0.00583273
0.00318071
0.0144563
0.00109419
0.000539947
0.000826668
0.000675336
0.00905495
0.00583782
0.000166751
0.00331045
0.00927386
0.00583183
0.00159601
0.00228352
0.00423166
0.00147138
0.00420306
0.00218812
0.00177432
0.00583146
0.000618768
0.00159465
0.000434566
0.014533
0.000204839
0.00334365
0.0113347
0.00214949
0.000981392
0.00339272
0.00583471
0.00179285
0.0108161
0.000758083
0.00180325
0.012633
0.00649237
0.00929223
0.00491213
0.005831
0.000992267
0.0003542
0.000663734
0.00587017
0.00209402
0.00181402
0.00198085
0.00133198
0.000653259
0.00072509
0.000770523
3.5775e-05
0.00583404
0.0058354
0.00583469
0.00184448
0.000105213
0.0145839
0.00584495
0.00068684
0.00584486
0.00583473
0.0126879
0.00107811
0.000119696
0.000880346
0.00433074
0.00584458
0.000951166
0.0101937
0.000823765
0.000320656
0.00724668
0.000648629
0.00583487
0.00159354
0.00926346
0.00585168
0.00910939
0.00110731
0.00584198
0.000749327
0.00583406
0.00137124
0.0138175
0.00583064
0.0100305
0.000775555
0.000515183
0.000229512
0.00452555
0.000500786
0.00584537
0.00937502
0.00871786
0.00139172
0.00583107
0.00510647
0.0012718
0.00041648
3.47335e-05
0.00583565
0.000483835
0.00583557
0.00583386
3.03006e-05
0.00108064
0.00195443
0.00583584
0.00968744
0.000927581
0.0058339
0.0034277
0.00185273
0.00120588
0.0146256
0.00583447
0.00337026
0.00583356
0.00583096
0.00054154
0.00021472
0.0020086
0.0115261
0.00037015
0.000611173
0.00168967
0.00582984
0.00907706
0.000295104
0.000370766
0.000909762
0.0026353
0.00583279
0.00216531
0.000656985
0.00982023
0.000531278
0.00164756
0.0140791
0.00173135
0.000267811
0.00583339
0.00583312
0.00177818
0.00583586
0.00349589
0.000396677
0.0058321
0.00583819
0.00263209
0.00814012
8.61063e-05
0.00589393
0.0017669
0.00564869
0.000582924
0.000868306
0.000798333
0.00360843
0.00582989
0.00876638
0.00387366
0.00583799
0.000523829
7.29294e-05
0.000603534
0.00583873
0.00311387
0.000194038
0.00223699
0.00583802
0.00229556
0.000622901
0.000858808
5.32936e-05
0.00626445
0.0112865
0.00349904
0.00166235
0.000190311
0.000291436
0.00120179
0.00133257
0.00583275
0.000495718
0.000664457
0.000796603
0.000716479
0.00583348
0.00917851
0.00331645
0.000591479
0.00274414
0.00583637
0.000261782
0.000797978
0.000614931
0.000106107
0.011563
0.00286793
0.00583314
0.00230272
0.000361946
0.00240954
0.00585947
0.00240021
0.00582699
0.00925159
0.00583216
0.00583344
0.0132532
0.00825608
0.00583732
0.0029874
0.00584669
0.00583824
0.0129526
0.0138264
3.7442e-05
0.000879943
0.0077238
0.011641
0.00577618
0.00973741
0.0128941
0.00874023
0.0129893
0.000820413
0.00318221
0.00583379
0.00583479
0.00213658
0.00291117
0.00230714
0.0129151
0.00108089
0.000374642
0.0015474
0.0114211
0.000909435
0.00929983
0.0126933
0.0158293
0.0006306
0.00311826
0.000235943
0.000652223
0.00210996
0.00582979
0.00165742
0.00793534
0.00821084
0.000260193
0.00583063
7.81443e-05
0.00583115
0.000191555
0.00583361
0.011109
0.00584629
0.00583543
0.00583715
0.00194691
0.0129997
0.0026292
0.00147858
0.00239909
0.000225408
0.00408752
0.000232794
5.67479e-05
0.00480354
0.00583396
0.0138252
0.000380554
0.000291035
0.000113632
0.00583062
0.000131195
0.00583067
0.00584325
0.00135622
0.00558729
0.000744638
0.000378103
0.000610166
0.00191303
0.00477209
0.00406757
0.00583556
0.00047083
0.00584338
0.00160543
0.00254946
0.00583322
0.00919743
0.00584725
0.00583334
0.00794866
0.00321151
0.00054843
0.00207278
0.00105758
0.00225371
0.000631352
0.00026718
0.0112299
0.000904669
0.00018503
0.00044805
0.00583645
0.00981377
0.00583851
0.0125631
0.000514317
0.000997153
0.00101706
0.000300039
0.00140956
0.00588644
0.000729691
0.00585262
0.00584518
0.000973124
0.00446784
0.01129
0.0102663
0.00360166
0.00109108
0.000597019
0.000925674
0.00495153
0.00585102
0.00582766
0.000861032
0.00103378
0.00139609
0.00583143
0.0104436
0.0116977
0.00136607
0.00494928
0.000166944
0.00884663
0.00301855
0.00330418
0.00556311
0.00583656
0.000648789
3.79786e-05
0.00583607
0.00583649
0.00022557
0.0084808
0.00583587
0.000332862
0.00496086
0.00583298
0.00207407
0.000628214
0.0153238
0.000887802
0.00211113
0.00583034
0.000805663
0.0090855
0.0043195
0.00583623
0.0104486
0.00583899
0.00046547
0.00118775
0.00590013
0.00163949
0.000247305
0.00583543
0.00151856
0.00200628
0.000602574
0.00583245
0.00905186
0.00583486
7.93508e-05
6.35716e-05
0.00293465
0.0143791
0.00201636
0.00582994
0.000796445
0.00582943
0.000915425
0.0150072
0.000239267
0.00583053
0.000515515
0.00942073
0.00584578
0.0102217
0.0023997
0.000966099
0.000759331
0.00583373
0.0058354
0.00036559
0.000683153
0.000155292
0.0128388
0.00589313
0.0125
0.000225964
0.00236139
0.010984
0.000150484
0.00125719
0.000814752
0.00548585
0.00424515
0.00153389
0.0121725
7.71873e-05
0.00583156
0.0028965
0.00245849
0.00466828
0.00890839
0.00743824
0.00584641
0.00197133
4.18726e-05
0.00585541
0.00402018
0.00355188
0.0058332
0.00307944
0.00583184
0.00153633
0.00583079
0.00357705
0.0011247
0.00583348
0.00583498
0.00584662
0.00583327
0.0150723
5.54712e-05
0.0100056
0.00630281
0.000729052
0.000603595
0.000689022
0.00130907
0.000368018
0.00988774
0.000482049
0.0058325
0.0058332
0.00082524
0.000373197
0.000200512
0.00307336
0.00582901
0.0103008
0.0100091
0.00505978
0.00111391
0.000761363
0.000761577
0.000763106
0.00583418
0.0042552
0.01559
0.00584758
0.00583206
0.000537128
0.000354273
0.00024533
0.00214509
0.000801671
0.000519118
0.00583598
0.000985614
0.000179724
0.000802233
0.000144265
0.0129227
0.00558098
0.00591792
0.00176652
0.000101949
0.0058394
0.0118363
0.000761736
0.0105096
0.00583425
0.00583224
0.000264524
0.00583723
0.000697964
0.00145313
0.00757402
0.000647676
0.014795
0.00170054
0.00583199
0.00585948
0.0015269
0.00728971
0.00126973
0.0129013
0.00112429
0.00384876
0.00152115
0.000407382
0.00583388
0.000567854
0.00428125
0.00120708
0.0137957
0.00583323
0.00155011
0.00220799
0.00108039
0.000666954
0.00297666
0.0147274
0.000713545
0.000246234
0.0134531
0.000197588
0.0104405
0.00338703
0.0129068
0.0100426
0.00577111
0.00582907
0.00583124
0.000939436
0.000201759
0.0124435
0.00634006
0.00498071
0.00502986
0.000696097
0.00565761
0.00583599
0.00583334
0.00138334
0.00585596
0.000466169
0.00926733
0.00583473
0.000224714
0.00193339
0.000684453
0.00405822
0.000686685
0.00583405
0.00582976
0.00587147
0.0017744
0.00376167
0.00020259
0.000443639
0.00125421
0.011069
0.00386068
0.00584299
0.00012027
0.00654184
0.000319133
0.0125543
0.000765017
0.00161392
0.00583666
0.000607303
0.0146258
0.000576151
0.00199031
0.0058385
0.000576713
0.0101026
0.00233259
0.00583347
0.00220264
0.000106082
0.00167535
0.00583588
0.00196632
0.000271251
0.00582879
0.000866931
0.0111677
0.000311086
0.00116868
0.0015732
0.00585581
0.000975312
0.00183123
0.00458119
0.00103878
0.00583565
0.000143072
0.00160461
0.0145657
0.013265
0.00590452
0.00505538
0.0103312
0.00233662
0.00798332
0.000275199
0.00583296
0.00583416
0.00126403
0.000228754
0.00686417
0.000235064
0.00251085
0.00575087
0.00585492
0.000818805
0.00583093
0.00136186
0.00583385
0.0008772
0.000271566
0.00107429
0.00106508
0.000355589
0.00461142
0.000613479
0.00962102
0.000474007
0.00814347
0.00547154
0.00291399
0.00138425
0.00583326
0.000829166
0.00228607
0.00101907
0.00136339
0.0154959
0.00583464
0.000455386
0.000195164
0.00489227
0.000241005
9.54029e-05
0.0025948
0.000123138
0.000672949
0.0127489
0.00583496
0.000141935
0.00583513
0.0058347
0.00584381
0.00139884
0.000234448
0.0133154
0.00583423
0.00583636
0.00936473
0.000465654
0.0122823
0.00125025
0.00583189
0.00324901
0.000688131
6.5811e-05
0.00084649
0.000237772
0.000320654
0.00135342
0.000380743
0.00102877
0.00474558
0.00967574
0.00169313
9.80939e-05
0.00918466
0.000227258
0.00609772
0.00252538
0.00105516
0.00978874
0.00110814
0.00205931
0.000682287
0.00210813
0.00232465
0.0142566
0.000937689
0.0144075
0.00243351
0.00309307
0.00583487
0.000772272
0.00294286
0.000214146
0.00123951
0.00120828
0.00568302
0.00582934
0.00583352
0.00823351
0.00107407
0.00209961
0.00583384
0.000183632
0.00583361
5.24439e-05
0.00587324
0.00583029
0.00582898
0.0113268
0.000732149
5.88057e-05
0.00583404
0.00583889
0.00164763
0.00583611
0.000656245
0.00125177
0.000876185
0.00583439
0.00284514
0.00024406
0.00274789
0.0106923
0.00583369
0.00583592
0.014562
0.00174505
0.00244661
0.000175165
0.00585888
0.00115057
0.00546923
0.00583403
0.00583556
0.00487757
0.000831544
0.00590008
0.000746981
0.000628495
0.0137042
0.00583507
0.0010011
0.000746261
0.000473305
0.00310688
0.00583058
0.005869
0.000201785
0.00019042
0.000467005
0.0019156
0.00975003
0.0015905
0.00584068
0.00900269
0.0137451
0.000394753
0.005834
0.000633395
0.00583224
0.0058394
0.00381989
0.00855895
0.00577771
0.00313779
0.00395225
0.000811057
0.00363788
0.00530533
0.000311672
0.0016308
0.000404377
0.000197876
0.000215644
0.00584494
0.000560202
0.00898933
0.000177821
0.00584102
0.00583874
0.000165318
0.000955832
0.000205375
0.000357528
0.00376405
0.00141288
0.00117927
0.0010194
0.00339596
0.00693355
0.000140069
0.000641634
0.000867013
0.0058721
0.0149329
0.00583044
0.0100736
0.0013924
0.000621619
0.000212086
0.0117981
0.0102497
0.00106058
0.00583414
0.00583693
0.00228799
0.000991844
0.00892999
0.00583217
0.00583264
0.00583611
0.0110443
0.00328318
0.00583223
0.000656882
0.00583443
0.00139252
0.000206912
0.00585769
0.000222498
0.00583625
0.00016971
0.00583741
0.000702139
0.00345699
0.00147555
0.0059017
0.000241289
0.00329295
0.00190886
0.00583597
0.000641289
0.00139193
0.00474267
0.00583108
0.00065305
0.00582916
0.0126533
0.00270396
0.000636966
0.00322625
0.000688697
0.0144996
0.00584674
0.00238062
0.00297187
0.000107045
0.00105386
0.0158191
0.000168579
0.0135953
0.00326
0.00023927
0.00472125
0.00187921
0.00363797
0.00583402
0.000703657
0.0016017
0.00902553
0.000457468
0.00583195
0.00341751
0.000954493
0.000411145
0.000315459
0.000664681
0.000930519