/*--------------------------------*- C++ -*----------------------------------*\
| =========                 |                                                 |
| \\      /  F ield         | OpenFOAM: The Open Source CFD Toolbox           |
|  \\    /   O peration     | Version:  v2012                                 |
|   \\  /    A nd           | Website:  www.openfoam.com                      |
|    \\/     M anipulation  |                                                 |
\*---------------------------------------------------------------------------*/
FoamFile
{
    version     2.0;
    format      ascii;
    class       volScalarField;
    location    "100";
    object      omega;
}
// * * * * * * * * * * * * * * * * * * * * * * * * * * * * * * * * * * * * * //

dimensions      [0 0 -1 0 0 0 0];


internalField   nonuniform List<scalar> 
53008
(
0.0325935
1.48603
0.0272648
0.411102
6.3745
4.34814
0.0729179
0.0323586
0.0438406
0.0258028
0.116348
0.0930337
3.90131
4.70274
0.0256183
0.0249696
0.0289195
0.0249759
6.38555
0.0298883
0.0276351
0.0562484
0.0253767
0.0699031
0.026962
1.54729
4.66713
0.0511701
0.459574
0.356518
0.37458
3.3254
4.61044
0.0260363
0.0253573
0.0393273
0.0285661
0.0256656
0.0798097
0.0264975
0.0283966
5.85605
0.117673
5.19319
0.0301295
0.0250987
0.0249889
0.0267863
0.188417
0.025234
0.0254566
0.0331638
0.030055
0.0254031
0.0621585
6.34302
0.029632
0.0253019
0.457372
0.0551305
0.0258499
0.0331137
10.2497
4.06708
0.315536
0.0252603
0.339625
0.0249772
0.0250367
0.0251013
17.692
0.0248924
0.0255283
4.35232
1.53903
0.0253752
0.0256684
4.25304
0.0249235
15.2123
4.3594
4.28261
0.1718
0.440456
0.0439408
0.0251087
0.125531
0.0431734
0.0252606
0.0494677
11.246
5.3233
4.29602
0.103405
7.55083
0.140549
4.79443
0.0271346
9.39298
10.5619
0.0298905
0.0264763
0.140981
0.0511568
0.033364
6.46233
4.68103
0.0389261
0.113085
0.0248869
0.309179
18.6675
0.0256753
7.48127
4.73484
0.0258648
0.0282127
0.0249422
0.450373
10.2763
6.65362
0.025509
0.0263164
16.0558
4.27429
0.0253191
12.1874
0.234247
0.0447701
0.0254605
2.29233
0.0253045
0.442304
0.028091
0.0249134
0.420169
0.0254999
3.89349
0.0252058
0.0251212
0.0249733
0.0251208
0.0464951
0.475881
0.0458174
0.0268977
0.0280957
0.025334
0.0248546
0.0258704
0.0255638
10.2257
5.86857
0.0568196
0.0251469
0.0298366
5.06454
4.76335
0.0267261
0.81621
0.0816873
0.0252395
0.0251426
5.4449
0.0272726
0.0256932
0.0251958
0.0322162
0.025268
0.0265733
0.0357959
4.52916
7.6718
0.025232
14.5619
0.0250199
0.0440273
0.135338
0.119478
0.0514353
0.0262969
0.0271881
5.25138
0.0258139
0.0912215
3.8155
9.7195
7.69085
4.60646
0.0253397
18.8629
0.0258442
0.168943
9.24508
0.0252784
0.0263022
0.0341167
0.0253336
0.0254992
0.0302048
0.0966664
0.0254334
0.0328313
0.0251979
0.156982
4.20835
0.0288016
0.0254744
0.0607524
0.0249368
4.85851
0.0264523
0.567717
0.0273606
0.111327
0.0253327
0.025482
0.0253725
0.0846781
0.0253163
0.266078
0.0248216
0.161877
0.0248196
0.0273292
0.121076
0.0264816
0.0600466
0.0411524
0.0249718
3.96067
4.59855
0.0247829
4.43082
0.0897069
6.41448
0.0261758
0.0249131
4.1256
0.0249638
0.0252864
0.0260187
0.438755
0.0259163
0.0332269
0.0256635
0.180426
0.257743
0.0253634
0.0540258
0.0267605
0.0258995
0.025217
0.029872
0.0257944
9.94849
0.438981
0.0254346
0.085452
0.0295629
2.67905
0.45159
0.0319547
0.0255893
0.0252707
4.76591
5.55791
0.0253429
9.53633
0.168734
0.0247863
0.0279262
0.0254547
0.435136
4.02889
0.0247138
0.155507
4.18755
0.0573145
0.0256701
0.0253733
0.0256609
0.0572046
0.0857267
0.0272354
0.0796696
0.0492715
4.14998
0.0883879
0.0257661
2.10555
4.40928
0.109418
4.38178
0.120011
0.0253655
0.0560251
0.151194
9.71902
0.026678
0.109283
4.59479
4.10789
4.09848
0.0256226
1.84596
0.0259556
0.0254115
0.0256501
0.0971267
3.88668
0.454175
4.7358
4.0758
0.105657
0.0595032
0.0256945
0.0254646
0.0247185
0.0526215
0.148998
5.87544
0.0357223
4.02139
1.79845
0.025501
5.04718
0.0324927
0.0251524
0.0366781
5.68885
0.0252784
0.0256535
0.0258957
0.0250014
0.0248328
0.165646
0.0249424
4.77917
0.0266397
0.0256623
0.0252766
0.0812481
0.0253688
0.0256459
4.74381
0.0730648
4.19496
0.412375
4.62976
0.246645
4.07955
0.0261094
0.0253945
4.1705
6.98996
0.0252922
0.0252411
2.1905
5.58165
0.0253788
0.0503781
0.025455
4.79829
0.089791
4.05846
0.0247255
0.0433869
0.0305346
0.0270672
9.53174
0.0298494
0.106828
0.264951
0.0897246
0.029003
0.0603014
0.230439
4.72239
5.55109
0.0253418
0.0264775
0.0403391
0.0298299
5.63546
0.0250975
0.0276318
4.45747
0.0252898
4.48571
4.13181
0.025274
0.0264751
0.028416
0.0265305
0.0285012
0.0251232
0.0897586
0.0560389
4.14095
0.0354645
0.0321871
0.026906
4.1262
0.0252669
0.0254087
0.0614767
0.027501
0.0253609
0.0332771
0.0247312
0.17132
0.025004
0.0268599
0.0259916
10.1226
0.0254805
5.35133
0.0267296
0.0253006
0.0250592
0.0254882
0.051568
0.0274463
0.261197
0.0255718
0.0297911
0.0298412
0.239584
0.0247199
0.377697
4.46824
0.444936
0.0252749
0.184105
0.034492
4.15723
0.0576224
9.36498
0.0564052
0.0253485
0.155494
0.299174
0.0608414
0.0251231
0.0817515
4.76162
0.420076
0.0269941
1.7593
4.26842
0.0283303
4.00815
0.0471545
0.0267336
0.197598
0.0267123
0.025022
0.025502
0.0254607
0.408023
8.04751
0.0247249
0.0297571
0.258876
0.0404124
0.0254397
4.13118
0.0253301
0.0255172
0.102591
0.0304881
0.0502657
4.13965
0.880103
0.112927
0.0265487
0.025948
0.125366
5.71109
4.33922
0.220245
0.028466
0.0298704
0.123633
0.025056
0.028464
0.0283702
0.10499
0.0387089
0.0278119
0.0253345
4.16233
0.0256293
0.0252394
0.163183
0.0256765
4.26432
0.0412101
0.0256769
0.0534353
0.0267891
4.3942
0.203682
0.0252898
0.115003
0.166795
0.0585721
0.0404465
0.0591593
5.51083
0.0908736
0.0254943
0.0253444
0.201919
4.38462
0.0307306
0.025763
0.0254398
4.13702
0.025609
4.39075
0.025469
0.0595335
0.0406315
4.1181
0.0725845
0.0335851
9.63428
0.0256818
0.339788
0.0248641
0.0251119
4.63013
0.0252118
0.026362
0.0583779
0.0331446
0.0250207
0.0252846
0.0754824
4.17856
0.0696241
0.0371446
4.40164
0.0296887
0.203879
0.0249706
0.0252827
0.0807697
4.22476
0.359762
0.0256353
6.94969
0.0285829
0.0251165
4.73769
0.0285151
0.0252846
0.0260333
0.0501946
5.73893
0.0601243
0.104508
0.0300233
0.0365009
0.124577
0.0256069
0.0265447
0.0590193
0.03168
9.12004
0.15868
0.0590561
0.0284817
0.0249275
0.0305322
0.0583166
0.150381
0.0256769
0.0284554
0.024912
0.0300264
0.0856002
0.402619
4.00675
0.0254145
0.0268484
0.248752
0.0259181
0.025431
0.0253394
0.0591194
0.0290121
4.75205
0.0254645
4.01985
0.876674
0.0253035
5.66491
4.21745
0.0713723
0.0254028
0.0896561
0.218189
4.43509
0.0333614
0.0394969
0.121498
0.0267489
0.0257196
0.0256053
4.35237
0.0250735
4.29249
0.0253294
0.0247721
0.0251389
0.0476728
0.0247856
6.92725
2.91866
0.0254902
4.18477
0.0255984
0.0247988
0.0248579
0.0254808
0.123608
0.0256703
0.0375138
0.196607
9.27619
8.40583
0.0256733
0.037551
0.0250179
0.027549
0.0474081
4.28828
4.16676
0.788872
8.42775
0.0250167
0.0246613
0.025471
0.0250868
0.105774
0.0253309
0.0253947
0.0254531
0.0248555
0.0301028
0.0283841
0.0251201
5.72471
0.025631
0.0255839
0.0248592
0.0253184
0.213412
6.73489
0.0586407
0.058244
9.43567
4.11279
4.18623
6.77816
0.0259311
0.0251965
5.35947
22.753
0.0252218
1.40063
0.0253387
0.0258993
0.0250436
17.7248
0.113482
0.0254907
0.20593
0.0252127
0.0268058
5.74829
0.0295974
0.0256357
4.3172
0.0248098
0.0287218
0.0291951
0.0282768
0.0542396
5.37756
0.0250277
0.0251208
0.0254338
19.9295
0.120601
0.0262901
0.0250298
0.951741
0.0246657
0.0594728
0.025331
0.0249956
0.0254601
0.0253508
0.025489
0.0253978
0.0250083
0.0271219
0.213635
0.0253317
0.166412
0.0262575
4.26583
0.0254255
1.21668
0.02563
6.77315
0.0256889
0.0253319
0.390973
0.0578785
4.54456
0.0760479
0.0496471
9.35065
0.122634
0.025088
4.06635
0.0321501
0.026479
6.87409
0.0255114
0.217363
0.206679
0.0285683
0.170265
0.406377
0.025273
0.266972
0.0253967
0.0297441
0.0253672
0.0298138
0.0568689
0.024996
0.0295687
0.0256579
0.856955
0.081711
0.0295976
0.0358062
0.0297518
0.0256213
4.5901
0.170055
0.159494
0.171034
4.24915
0.230852
0.0256121
4.20744
0.0285847
0.0253285
4.36126
1.63945
0.0256596
1.16281
4.17469
0.201029
0.0255481
4.11775
0.114961
4.18938
0.0420395
0.0252413
9.67414
0.226638
0.377484
0.0263227
0.0256553
0.0298646
5.6116
0.0265952
5.81903
0.19632
0.0258493
0.0438261
3.66899
6.07431
0.0387931
4.12526
0.0266709
0.476454
4.20222
0.02533
22.6219
0.0273352
0.0254359
3.94664
0.0269764
0.211128
0.0628742
0.029724
0.0252883
0.396358
0.240935
0.0267272
0.0253277
4.17852
0.0250132
20.1963
0.0384982
0.387103
0.0250876
0.0255843
14.7483
0.108445
0.363846
4.30188
0.0596643
4.12534
0.0775858
0.026438
4.09958
0.0275502
0.0254602
0.400355
0.233745
0.027079
0.0253601
0.0248186
0.0253158
0.0254023
0.112715
4.09626
5.56856
0.0252591
0.0338338
0.0264945
0.263082
0.0253218
4.06111
4.17401
4.46231
0.473459
0.0345701
0.0251862
4.13424
0.0252169
0.0259127
0.02589
0.02581
0.0420288
0.0345879
0.0259949
0.0259792
0.0253755
0.0258372
0.0253305
0.0252304
0.14129
0.0995852
0.0253273
0.0253151
4.14206
9.78909
0.0295108
1.84206
0.0484613
0.0539033
0.200782
0.0250542
0.0252114
0.0253862
0.0252095
0.0258536
0.111494
0.0252646
0.024927
0.0252395
0.0253467
4.35505
0.0497175
0.024833
0.0276278
0.0254653
0.0577653
0.0248844
9.69357
0.50417
0.025079
6.02343
0.444411
0.191951
0.0597027
4.34438
4.50813
0.0253196
0.0252841
0.0259817
4.19326
0.117586
0.0271623
5.88117
14.2555
0.0248162
0.0251079
0.025879
0.0563821
0.0294141
0.0253673
0.0253051
0.0252443
0.025125
3.90558
0.372513
0.0254302
19.6439
4.54212
0.0255741
0.0251931
0.0265162
0.0414022
3.93638
6.01987
4.08062
0.0834604
0.188721
2.24157
0.37854
4.51129
0.0276422
0.0559551
0.0300183
0.0296652
4.30708
0.0250603
5.19074
0.276914
0.0256491
0.0615662
0.0250716
4.45346
0.02629
0.262482
0.421697
0.0249322
9.35927
0.0250531
0.0256642
9.19792
0.0283034
0.0250887
3.92988
4.36054
0.0253712
0.159095
0.0275321
0.0769016
0.0253191
0.02467
3.76951
4.22174
0.225
0.025174
0.0267697
9.75563
0.0324452
0.0251989
0.0255124
0.0283819
0.0249652
0.119448
0.0296097
4.29672
0.056611
0.0453272
4.5645
0.0253573
0.0252585
0.0414225
0.356871
0.0983863
4.75831
3.97261
0.15013
4.15993
0.0250781
0.0252632
0.0443493
0.0256413
0.0248128
0.0274224
0.0302265
1.33154
0.0274665
0.0412442
0.340655
0.0342554
3.86193
0.025434
0.0261475
0.0249584
0.0253873
0.0577186
0.0252724
0.0393351
0.229059
0.13361
3.97842
0.0251809
0.104512
0.192702
0.0249313
0.0251712
0.22596
0.0251048
0.0252497
4.08003
0.381134
0.137171
0.0833219
4.6565
0.0629163
4.15096
0.033634
0.0252307
0.099446
0.0254069
0.455869
3.86219
0.0253776
0.140859
0.0275773
0.0807559
4.214
0.0253723
0.159191
0.854114
0.0337557
0.842917
0.23705
13.0395
0.0568796
0.0346562
0.343926
0.0513621
0.0248975
0.0252664
0.0738437
6.00342
0.025085
0.0295258
4.85194
0.0464617
0.0272071
6.81482
0.0254671
0.0416442
12.8972
4.46071
4.40475
0.0252838
0.0271821
0.0251745
0.0283955
0.0273817
0.216232
11.9909
0.0324622
0.146862
0.0281213
4.18783
0.024937
0.0253322
0.0326926
0.0252958
4.23806
4.33995
0.0570256
0.0586091
0.0254153
0.18667
0.0253445
0.0254819
0.0287612
0.0253945
0.155139
0.0292814
0.165001
0.272754
0.024705
0.0579694
0.0332307
0.0251813
4.29734
0.0261864
0.0620396
7.68979
0.216435
0.0251205
5.7735
0.0388773
0.0254186
0.0254922
11.0403
0.0251521
4.30981
0.0255852
0.0252482
4.49417
0.101815
0.0684403
0.0249418
0.0292065
4.61022
0.0251606
0.0250635
10.3855
9.69316
0.058661
13.2347
0.02533
0.222976
0.0508552
0.0262736
0.0769234
13.1315
5.84788
0.0621642
0.0253898
5.91383
0.0251439
4.12409
9.5337
0.0250739
4.71827
5.05409
0.0513943
4.52544
0.0252705
0.0247928
0.0247011
0.0594021
6.32338
0.217365
0.0257307
4.18361
0.0258344
0.0254334
0.115862
0.0251673
0.0261736
0.0249961
0.0988286
0.0253029
0.0268349
4.28827
9.4329
0.0719623
0.0253294
0.025675
6.28107
0.197256
0.15837
0.0248374
0.0720804
0.0563245
9.84113
0.0255053
4.44415
0.344467
0.0258172
0.025293
0.0257215
0.15687
6.14508
0.0255858
0.0307109
0.0273508
0.0255209
0.0253701
12.2488
4.92778
19.0399
0.0254403
0.0656067
0.164146
6.14987
0.0988967
0.218754
0.0257019
7.72985
0.038938
0.0777101
4.39031
0.0255682
0.0255036
0.0267376
0.0253504
4.83149
0.0250081
0.0923357
4.13908
0.0246642
0.0253265
4.02285
0.0248362
0.0251363
0.0574071
0.025651
0.0443466
0.079526
0.0254552
0.0252436
0.080824
0.0247784
0.0252502
3.92605
0.0277741
0.0251862
0.0267386
0.0255326
0.0252771
0.0252021
12.0497
0.0251816
0.0824187
0.197528
0.025015
0.0256787
0.0465742
0.027914
0.0250415
0.214582
4.10231
0.0257323
0.0252235
0.0253819
0.0307038
0.0266384
6.90221
0.31419
0.0249014
0.0256128
4.41202
0.0292972
6.99647
0.0271508
5.76492
0.0257255
0.0513885
5.6511
4.53213
0.0252953
0.0296345
0.0249114
0.0256923
39.2985
0.109533
4.26068
0.0416885
0.0293695
0.0366744
0.0253619
9.22847
0.246482
0.0255049
4.31625
0.0274651
0.0252744
0.0254107
0.0253972
0.0298332
0.0290721
5.73369
0.0254502
4.18239
4.95261
0.0502542
0.0251807
7.90192
4.27357
0.0254925
0.245807
10.6769
0.0255126
0.228192
0.0328558
0.075271
0.0552286
1.56539
0.0256898
4.00541
0.191373
0.0248438
0.0251947
0.0247875
0.0287435
0.248601
4.4213
0.0249262
0.0256681
0.0253262
4.41651
0.0329695
0.0258267
0.0255674
5.04965
7.96468
0.409104
18.5961
4.75403
0.0256903
0.221818
0.0254536
0.0412112
0.0250253
0.238224
0.0256787
0.0589694
0.0278981
0.025795
5.49881
0.0252027
0.0443064
5.53544
0.11959
0.0255082
0.0253375
0.0252648
6.61431
0.164339
0.0644293
0.0276843
0.0422078
3.68335
0.171029
0.0256899
4.1579
0.0314383
0.0283963
6.62649
0.0255122
4.06312
0.0254593
16.8257
0.0263075
0.025332
6.80417
0.0330576
0.0257118
0.0253532
4.05552
5.78628
0.0547881
0.0698369
0.0980733
9.1374
4.20009
6.74571
4.20756
0.0269784
0.0252072
0.0604465
0.0568679
0.0256388
0.0253376
0.0400898
0.0253778
0.0253851
4.35295
0.029405
0.19905
0.0313143
0.160175
0.0253989
0.240647
4.0642
0.0252968
0.207891
0.0252747
0.326925
0.0254328
4.64067
0.0384932
0.142086
0.0250857
0.0252352
0.782827
9.66731
0.0253174
4.38379
0.0260147
0.0253738
0.0253742
0.0326159
9.28976
0.150743
0.0254265
0.0285313
4.63874
0.0254443
0.0782943
0.0252997
4.08839
0.0253906
0.0247835
0.0316103
0.0703765
0.0272792
0.218356
0.025353
0.0306768
0.0477396
0.22091
0.0253193
4.75995
0.0250317
5.5979
4.08801
0.765219
0.0253312
2.24899
0.0339716
0.0253338
0.0253558
0.0252695
0.283353
0.025356
0.253938
0.0778692
0.389763
0.0251242
0.0247441
0.0248574
4.87251
0.0351336
5.74583
1.54431
0.0252013
4.75607
0.16152
0.0258811
4.22388
0.0253839
0.0382129
0.0290348
0.0293552
0.0259706
0.12901
0.0907089
0.025115
0.323366
0.0253832
0.0252359
0.0256953
0.0253819
0.0257225
0.0263489
0.0254582
11.2302
0.154061
0.182403
0.0254211
0.0259933
0.208775
0.0412778
0.0348653
0.0249274
0.025265
0.168782
8.9183
0.0256309
0.370822
0.0255164
4.86457
0.173676
0.0252663
0.0249947
0.122963
0.0590305
0.0262405
4.25556
0.025397
0.0272613
1.15917
0.0503528
0.0249492
0.0475322
0.0254668
0.0446117
0.025584
0.205037
0.025523
0.0332821
0.0266923
0.0399835
0.0261523
8.96861
4.20637
0.0252755
0.0253726
0.362834
5.61263
0.0253834
0.0257001
0.05918
4.12996
0.0251893
0.0310078
0.355053
0.025533
0.0262503
0.0484889
0.0256586
0.0256424
4.77387
12.3313
0.0254201
0.0252457
0.0304432
0.0248588
18.7912
4.82893
4.39409
0.0312444
0.164067
6.85812
0.0272349
6.48779
0.250031
0.0255034
0.0252041
0.0415735
0.025004
0.0262917
0.367457
0.057655
0.0292352
0.0895254
0.046738
0.0797866
0.221475
13.8172
0.0250413
0.0296556
4.38248
0.232599
0.0403419
0.142961
0.0669515
0.0253128
0.218925
0.0395989
0.0261307
0.0282694
0.0252682
0.459673
0.0256775
0.0253705
0.0253616
0.039603
7.89023
0.230168
0.253696
5.2905
0.0428031
6.84343
0.0318139
0.0255201
0.0319969
0.0418549
0.0264047
4.32236
0.24659
0.0280889
0.135841
4.7304
0.120701
0.0253292
0.0336537
4.13066
0.0253299
0.0253639
3.85011
0.0268809
0.0255362
0.0497646
0.0260042
0.0392372
0.0262304
0.117788
0.0249814
5.41413
9.69378
0.0581417
0.0253293
0.154288
0.166344
0.0254778
0.0348154
0.0253323
0.0255157
0.0263598
0.0252943
0.0249898
8.27261
0.275243
0.0253496
0.0255527
0.0255631
4.22432
4.32205
0.024856
0.229653
0.0373764
0.344365
0.0255221
0.0275622
0.0250612
0.0250948
0.0264848
0.0253398
0.0422123
5.57824
0.158046
0.0846833
0.0252406
0.0250602
4.38312
0.055231
7.46039
0.400703
4.40453
0.0252446
0.0339428
0.0396381
0.0563878
4.10228
0.385592
0.024877
0.0247896
4.16749
0.159906
0.025003
0.0841846
6.42522
0.0251555
0.0254474
3.97716
0.0273446
0.198274
9.57429
0.0273997
0.398764
0.0275154
0.0546745
4.21366
0.0553161
0.0253314
0.11759
0.117333
0.0252669
0.0422534
0.0810857
0.0261619
4.42688
13.7061
1.46828
4.0836
0.0253289
0.0251522
0.245556
0.241245
5.30881
5.03537
5.12934
0.0458768
0.0278497
0.0246915
0.0254705
0.0566151
0.0250866
6.26239
0.0868437
4.48226
0.0251373
0.0252475
0.0253231
0.692054
0.0331195
0.0273802
0.0250844
0.142699
0.0256319
5.40711
9.89214
9.04189
8.73161
0.0897895
0.0254422
3.99867
0.0255719
0.286591
0.0674161
0.025465
6.04854
0.172181
0.0592956
0.0251299
0.0269036
0.0251805
4.43947
4.08204
0.025094
0.025329
4.00233
0.0252207
12.6446
0.131678
0.0564553
0.0251566
0.0253861
0.23899
0.0991086
0.36824
0.0253694
0.0254971
0.0574169
0.0249229
0.0587362
0.193768
0.024925
0.0767444
0.0332398
0.0253417
0.0253369
4.24258
0.0459462
0.0347604
0.121403
0.0570253
6.8082
0.0250759
0.05747
0.0253182
6.5026
0.0253347
0.0468823
0.0254307
0.0251068
0.0326852
0.0252043
0.0283645
0.0267421
0.0248746
0.0488429
0.0258254
0.0982354
5.48845
0.0755282
5.57824
3.78714
0.0270212
0.217207
0.0252125
0.0255896
0.0386357
4.0145
0.158167
0.0382312
3.96336
4.1577
9.02143
0.0251793
0.0251987
0.0275168
0.345077
0.203498
4.12975
0.0254919
0.0270246
0.0260661
0.0259586
0.206618
0.132683
0.203879
4.38584
0.0252266
0.0253271
0.0255729
0.0257822
0.196244
5.35222
0.0251929
0.0495454
0.025136
0.025336
4.3633
0.122549
0.396326
0.113065
4.42115
0.0251426
0.027063
5.15412
0.116481
0.429189
7.52576
0.205832
0.0250448
0.0289242
4.10646
0.0250518
4.69393
0.027006
0.0252443
0.0675933
0.0255052
0.0273087
4.41373
0.0251221
3.83908
0.258773
0.0999597
0.0654229
4.69208
0.0585525
0.024767
3.90966
6.5512
0.0329361
0.0253854
0.025277
0.0261677
0.0411019
1.19258
0.025275
0.541771
0.0251464
0.0251185
1.12016
0.0360401
0.0255579
0.0256625
6.12095
0.0584447
0.0251139
0.0253114
0.0255595
0.0786288
4.28428
0.0252896
0.0253241
0.0252827
0.0253778
0.0293723
0.0449037
0.0255012
3.71713
0.038818
0.0671161
0.0382085
0.0248542
6.5635
0.0371528
0.832684
0.238793
0.0262432
0.0253906
0.0263785
0.0434117
4.19805
0.0346661
0.0301835
5.5595
0.0274756
0.0967819
0.0254395
0.0254754
0.0256081
0.0253314
13.8045
0.370553
0.0254538
0.0252855
0.026208
4.18883
0.132069
0.0248593
0.0265359
0.025022
0.0292833
0.18319
0.0272077
0.0252754
0.0248582
4.52832
4.37785
0.0250825
0.156457
0.109394
0.065229
0.0251512
0.0253575
0.0506849
0.0256867
0.0250746
0.0267781
0.426177
0.119485
0.215563
7.56522
5.85541
0.0252223
0.0256697
0.0652669
7.79133
0.0572192
0.0259077
0.025494
0.520688
0.105471
0.214852
0.151794
0.0251218
4.16188
0.0252685
0.461209
0.0253709
0.0256888
1.33042
0.0564684
0.0371479
0.0739846
5.20274
4.2539
0.0249304
0.0254369
0.853174
0.0260742
0.0249359
0.025757
0.0246882
4.26574
0.025415
0.0254427
4.36217
3.87887
0.0252208
0.0252808
0.0251118
0.0252766
4.4947
5.53849
0.358841
0.125856
4.54538
6.22138
0.0250129
4.3865
4.47454
7.35529
4.44745
0.0271592
0.0255643
0.0254957
0.0255951
0.0263905
0.025374
0.0256314
4.89518
0.0327559
0.0443849
0.0399508
3.72875
0.0353938
4.26358
4.00261
4.58653
0.0457004
0.0252635
0.0950999
0.418899
0.0264022
0.0252063
0.0256209
3.955
4.45626
0.0550679
0.0252293
45.1185
0.0250341
0.0449963
0.025488
3.56534
0.0247043
0.0252372
4.14297
0.0277421
3.93564
0.0253293
0.0306455
0.0260746
0.147963
0.0251409
0.0979484
0.124151
0.0250941
0.025515
4.03707
0.78953
0.0384547
0.0591137
0.0253427
1.43839
0.0252339
0.024863
0.0259137
0.0253354
0.0301463
0.0435742
0.0450597
0.0255803
0.0253277
4.76493
0.0256401
0.0377014
0.0248732
0.0261233
0.0253356
0.0254488
8.90595
0.0251152
0.0252871
4.20132
0.0256541
0.583372
5.01459
0.026598
0.0254385
0.390747
0.0975335
5.30155
0.0310832
0.0448666
0.0317268
0.0249408
7.3179
0.0253303
3.891
0.0905865
0.0442403
0.0283953
0.401136
0.0304145
0.0252893
0.239998
0.0252403
0.0251288
0.0309396
8.75748
4.90653
5.83608
12.3678
0.044791
0.029253
0.0329708
0.0250715
0.0250546
0.0247181
0.208728
0.0265886
0.0304221
0.0252532
4.79863
3.75335
0.0287526
0.0253274
0.21627
6.18261
0.0253635
0.0253304
4.71881
0.0253606
0.0316976
1.09381
0.0253289
0.0256952
0.247964
4.11804
0.0256636
0.0389799
0.0252971
0.025369
0.0272072
0.0474351
4.2264
0.0419988
0.0254789
0.0253127
0.18961
5.25788
0.0252007
0.0256802
4.26936
0.0253409
0.153878
0.0269181
0.0249764
0.0271863
0.487264
0.0251628
0.0257174
0.0255041
0.0284322
0.0252591
4.47649
0.0255878
0.104839
0.110145
0.0254631
5.40951
27.2972
0.024933
0.0404687
0.024924
0.0419892
5.21857
0.0398308
0.0253379
0.0297115
4.42669
0.0252108
4.71606
0.0266694
0.0266449
0.0888925
0.0254911
0.0251429
0.0325818
0.417942
0.0653205
3.92787
0.0250275
5.45604
0.256965
0.0257414
4.20758
0.131138
0.0611926
0.0272865
0.0252777
0.0251885
0.0303452
5.78549
0.154546
0.0249301
0.0254755
0.0268598
4.80211
4.48485
10.6114
0.0247008
0.0257306
0.243319
0.0248653
4.77346
0.0253046
0.0254798
6.36382
0.0251332
0.0404753
0.0251006
0.0252731
0.0506616
0.0251269
0.025169
0.0250903
0.0254878
5.17607
0.14178
4.33644
5.21413
0.0273886
0.0467774
0.17253
0.0259205
0.769843
4.18447
0.0430477
0.0254089
0.0255141
0.0421886
0.7476
0.103291
0.0255558
0.0250748
7.05531
6.62214
0.0252984
0.0566413
0.218276
0.0915452
0.203316
0.0255748
4.14171
4.76788
0.025091
0.0253565
3.46428
0.903628
0.118192
25.1488
0.0299798
0.0582902
0.0256685
4.58845
0.0516995
0.031296
0.0574427
6.20852
0.0251761
0.0252069
0.0275598
0.20947
0.0251534
4.99397
0.0684251
4.69995
0.025251
0.0254176
0.0946189
0.0251933
0.169384
0.0787617
8.40342
4.26278
4.19968
0.0338106
0.0253436
0.0250287
0.025697
4.35885
0.0772476
4.42699
4.87693
0.0252817
0.0257032
0.157315
0.0255204
0.459121
0.0251016
0.0317071
4.4961
0.0254424
0.0325134
0.0257972
0.0826161
0.0391933
0.02541
4.11302
0.154275
0.119829
4.42516
0.563758
4.83867
0.0253279
5.24961
4.67133
8.58999
0.0250644
0.025037
0.0266595
0.0943434
5.28575
4.17442
0.0250904
0.0252625
0.267612
8.6392
0.0256698
0.0254299
0.0259083
0.0249412
0.0911646
4.31521
0.0255757
0.188335
22.4889
0.261469
16.2345
0.0669066
0.0253971
0.0247739
0.0250271
0.0268466
4.09816
0.0652808
0.0327163
0.0579523
3.57981
0.0251684
0.0248685
0.183545
12.2419
0.0409456
3.88616
0.176452
0.0256902
0.0249285
0.0656448
5.43416
0.0645562
0.0255525
0.0251758
0.448529
5.13279
0.0266124
0.0254345
3.75303
0.405928
0.0334571
0.0256643
0.029835
0.19512
0.0247572
17.6427
3.61155
0.196921
0.028005
0.0256992
0.0250527
0.0773608
0.0269258
0.0252628
0.0540425
0.0256433
0.0507557
5.23914
4.16152
5.21198
0.0249888
0.0250638
4.98345
0.0256392
4.27077
1.14718
0.0254279
0.0255699
0.0321546
0.172612
11.7581
0.114564
3.78958
0.0250099
0.0248688
0.154127
0.0250965
0.0468461
0.0253101
0.0348349
0.0996733
0.0275428
0.0331981
1.2169
0.0252901
0.0315245
4.0395
0.155038
4.22321
0.0250215
0.0253738
0.0261573
0.0254515
0.0271213
0.0254523
0.0264754
0.0325206
4.86325
0.0251708
1.44978
0.0451686
0.025075
0.262954
1.45002
18.7307
0.320027
0.02802
3.91615
0.0255954
0.0683544
0.0252444
0.0252901
0.0248331
0.0258952
0.142722
4.34025
0.0255233
0.0256897
4.24171
0.0579447
5.31845
0.0325871
0.0253713
0.0256651
0.0383798
0.105293
0.0309612
0.152348
0.0337577
0.0288955
0.835846
0.0437627
0.025332
4.03701
0.0260286
0.221143
4.33584
0.112538
5.2897
16.4707
0.0281847
6.92118
0.0281303
0.0300906
0.031358
0.0264189
0.0262735
5.40668
0.0462441
4.07569
0.0262472
0.0253434
0.0256017
0.223057
0.0253289
1.36871
0.0262346
0.0777418
0.0250207
0.0248725
0.0250718
4.48024
0.0438008
0.0254747
0.0255132
0.0502474
0.0254597
0.143429
0.0248898
0.0252639
0.024978
3.68084
0.23203
0.129411
0.025559
0.0251547
0.0255895
0.0256763
0.0280773
0.077817
0.108332
0.0255682
0.0253626
0.272158
0.0252827
6.54379
0.0254993
0.0256675
4.16
0.0301226
0.0269659
1.00011
0.0250238
0.0494085
5.1771
0.0254032
0.0256439
0.0253205
0.0268609
0.0249863
0.0355827
0.42262
4.01553
0.025614
0.0453594
0.086549
0.558991
0.0253537
0.0253421
0.025001
0.0449456
0.528603
0.0340021
0.0255489
4.61779
0.0342344
0.0248616
6.59667
4.60521
0.0345657
0.0252531
0.37632
0.0254631
0.0248555
4.79243
4.16663
4.7634
0.0252813
0.0251821
0.0333271
4.05195
0.0251229
0.040632
0.0287858
0.081716
0.0490623
0.0940307
0.0246639
0.0373598
4.57796
0.0560529
0.0252408
0.0252856
0.0537976
31.0417
0.0525754
1.08075
0.0252287
0.0258734
0.048773
0.0285825
0.0253352
4.28237
0.207554
18.1187
0.0291067
0.0248831
5.26713
0.0251432
4.26943
0.0462877
0.468112
0.413515
3.77631
7.19995
0.0268423
0.0255261
0.0252941
0.0254352
0.214295
7.41032
0.0251237
0.0252559
0.0256749
6.1375
0.0253324
0.0254265
0.133039
0.0255475
0.0844679
0.0984624
0.024865
0.0699689
0.0256812
0.0605045
0.0253317
0.0274608
0.0252084
0.0265416
0.0249868
0.0774832
9.82534
0.0277693
0.0256582
0.0360218
0.0563866
0.025191
0.0253254
0.0320322
0.024872
3.90285
0.0262139
0.0329401
0.0253381
0.192055
4.08814
0.0247693
0.0268443
0.0256682
0.180825
0.0433566
4.80658
0.085912
4.001
0.0254244
6.65571
0.0251024
0.0255978
0.0252098
0.0255217
0.0851175
0.0346843
8.17921
0.0570533
0.025374
0.0256845
0.147863
0.0320997
0.0389901
0.066242
7.67115
6.84605
0.0380134
1.4923
0.0401155
0.372029
4.27669
1.25603
4.74743
0.384581
0.0251983
0.0252686
0.0269901
4.09381
0.031649
0.0257011
0.0764694
0.0247133
0.0249375
0.0561819
0.0252544
0.0254733
0.0263168
0.0268102
0.0270536
0.0252435
0.0314716
4.67033
0.0274621
0.0248811
0.0252914
5.50459
6.36281
0.0247828
4.84259
5.62579
0.0368261
0.0248127
0.205358
6.97923
8.73604
3.94357
0.379597
4.41406
0.0848561
0.0254064
0.0249439
5.07335
0.0285183
0.132325
4.46909
0.038485
0.0282394
0.0270206
0.0262805
0.0564167
0.120099
0.0253634
0.0528386
4.78615
0.025025
0.0249268
4.98237
0.0253358
0.0998852
0.0256948
0.0249835
0.0257047
0.0253638
0.025395
3.70025
0.0270727
0.124881
0.848306
0.0255703
0.0251452
0.0278104
4.5833
0.0249883
0.0249957
6.80069
4.6916
4.38153
0.026222
0.114903
0.0254288
0.122457
4.89746
0.0271159
0.0694109
4.72123
0.0253119
0.175453
8.87076
0.380816
0.0751841
4.33983
0.107055
0.0733458
0.202586
0.0756508
0.0815711
0.0253624
0.659357
0.0349961
4.80987
0.025267
0.0255458
0.0255516
0.0250802
0.0258818
4.8937
0.170632
0.046658
0.0252139
0.423184
0.0255503
0.23552
0.0447496
5.05871
0.025096
0.0254047
0.143406
1.07888
4.30062
0.0255688
0.146991
4.15168
0.119624
0.0271689
0.0254346
0.0798148
0.447916
0.0273359
0.0379237
0.21716
0.0252863
0.0256075
4.11444
0.0769211
0.0251305
0.0259165
0.768888
0.0269864
0.0327116
0.0352962
0.0256724
4.22079
0.0252789
0.0327831
0.0514271
0.106122
0.0248717
0.0251971
7.55741
0.0248692
0.0345052
0.0376676
0.0250426
0.219983
0.0259281
0.0319873
0.257336
4.12759
0.341036
0.0250608
0.231118
0.0352196
4.74719
6.96391
0.473318
4.13992
4.51456
7.44962
0.149373
5.35432
0.131427
0.0443581
3.52172
0.0251632
4.92989
0.0254501
0.024884
0.0256624
0.0839002
8.18519
0.0447681
0.0250234
0.0253848
0.0256516
0.143504
0.0371764
0.0693568
0.025264
0.0253549
0.0251455
0.0259054
0.0450508
7.11573
0.0251874
0.0860732
0.273654
5.39673
0.04475
5.64241
0.144525
0.0253332
4.85258
0.522726
0.0756546
0.192989
0.0255503
4.42801
0.0260429
0.0262346
0.238132
4.45829
3.85312
0.0282972
0.216689
4.50663
3.4799
0.221903
0.0252437
4.97264
0.0249034
0.0549681
0.242297
0.184004
0.027257
0.695734
0.0258342
0.0249774
0.0648906
0.0254081
0.158084
0.0262466
0.0256903
8.06192
0.0252593
0.491677
4.24574
0.0277237
0.372512
0.0254306
5.15046
0.0287286
4.19432
5.61463
0.264142
0.0297633
5.73545
8.38519
0.0421332
0.202833
0.0257481
0.0652592
0.744563
0.0258723
0.0384811
3.87221
0.0265329
4.52074
0.0255249
0.0254053
7.40693
0.0294253
4.33231
0.0838436
0.0281141
0.764829
0.025046
0.0781414
0.0656599
0.0265873
0.154012
4.12111
0.0254622
0.0253977
0.0256191
0.026117
0.200559
3.76495
0.104543
0.0287449
0.0247311
0.025164
0.0372729
0.0254515
0.0282775
0.0247569
0.0612224
0.394275
6.42525
0.165619
0.0399809
0.0248182
0.270183
4.8132
0.107249
0.278297
0.0454415
6.19872
0.0294438
0.0290674
0.0254063
0.0257226
0.0251441
0.0422367
0.0521216
0.0254124
0.0253009
0.153198
0.024956
0.0253701
0.101565
0.0254422
0.0250934
0.0987585
0.0476345
0.0830135
0.0442052
0.0312641
0.282863
4.83965
0.0248171
5.94344
4.13396
1.72157
0.0250997
0.0476929
0.0249997
0.025045
0.0248095
8.3005
0.0267813
0.0549731
0.025228
0.024929
0.0444567
0.0579186
0.0706984
0.0398053
0.111684
6.32362
0.0250767
0.0254548
0.78548
0.0263958
12.81
0.242698
0.0251323
0.0418363
4.94771
0.805615
0.0443797
0.374857
0.0323828
0.0254418
0.025125
0.0761133
0.0253347
0.0252934
0.0932812
0.0250517
4.27801
0.0288963
0.116
5.37654
0.0273458
5.61629
0.0259287
0.0791856
0.0252033
0.0250531
0.02524
0.0259114
8.47433
0.0256072
0.0250487
0.0786108
0.0596328
4.33348
0.0251294
0.0924771
0.0253524
0.0312555
0.689586
0.0369689
0.0857079
6.90912
0.0254501
0.0255001
4.22355
0.0252575
0.0271435
3.77545
0.0261738
0.0250197
0.0760913
0.0247261
0.145375
0.0254903
5.66383
0.025502
0.0251619
0.237395
0.0810998
28.5544
0.422766
0.0254509
0.0253142
0.0806144
0.0254112
0.0256859
0.054862
4.26663
0.0731527
0.0250226
0.0271401
0.149918
0.0248048
4.30861
0.0251409
0.0685483
0.122049
0.14045
0.452951
0.0757406
0.366168
1.62195
0.242062
0.0249353
0.0264168
0.0247951
0.0576958
0.0258088
0.0271792
4.97737
0.0688644
0.0251433
0.201646
0.0572152
0.0252762
0.0577616
0.0606175
0.0838381
0.206956
4.1169
4.14409
4.97904
0.0290988
0.0256253
0.025233
1.41534
0.0250457
0.0513407
0.0248481
0.0259226
0.0255907
0.0256221
7.942
0.369084
0.0254374
0.0252041
0.0432191
28.315
0.0398031
13.0048
0.0254137
0.381086
0.0266312
0.0250111
0.0354166
0.26283
4.7879
0.155196
3.88873
0.119315
0.396299
5.78765
0.0448213
0.0255573
4.07412
0.0250188
0.0251927
4.08949
0.0255559
0.0252815
0.0261771
0.0294237
0.0420144
16.0458
6.16229
7.41568
0.0719404
4.14067
7.50515
4.05244
0.0249688
4.34313
1.666
0.0255686
0.0255975
0.0252442
0.0250442
0.0567071
6.5568
0.0253404
0.0543562
0.0255094
0.115415
0.0418186
0.0250724
0.0253222
0.11874
0.0250345
4.25151
0.0389811
0.141879
0.025827
0.0252279
0.0253337
0.457601