/*--------------------------------*- C++ -*----------------------------------*\
| =========                 |                                                 |
| \\      /  F ield         | OpenFOAM: The Open Source CFD Toolbox           |
|  \\    /   O peration     | Version:  v2012                                 |
|   \\  /    A nd           | Website:  www.openfoam.com                      |
|    \\/     M anipulation  |                                                 |
\*---------------------------------------------------------------------------*/
FoamFile
{
    version     2.0;
    format      ascii;
    class       volScalarField;
    location    "100";
    object      omega_0;
}
// * * * * * * * * * * * * * * * * * * * * * * * * * * * * * * * * * * * * * //

dimensions      [0 0 -1 0 0 0 0];


internalField   nonuniform List<scalar> 
53008
(
0.0325937
1.48497
0.0272648
0.411139
6.37557
4.34857
0.0729153
0.0323587
0.0438406
0.0258027
0.116373
0.0930335
3.90049
4.70232
0.0256182
0.0249696
0.0289196
0.0249759
6.38405
0.0298882
0.0276351
0.0562424
0.0253767
0.0699018
0.0269621
1.54739
4.66664
0.0511702
0.459609
0.356566
0.374515
3.31414
4.61059
0.0260364
0.0253573
0.0393282
0.0285664
0.0256656
0.0798091
0.0264977
0.028397
5.85534
0.117699
5.19206
0.0301294
0.0250987
0.0249889
0.0267862
0.188427
0.025234
0.0254566
0.0331639
0.0300552
0.0254031
0.0621614
6.34144
0.029632
0.0253019
0.456447
0.0551349
0.02585
0.033114
10.2512
4.06682
0.315568
0.0252603
0.339662
0.0249772
0.0250367
0.0251013
17.6924
0.0248924
0.0255282
4.3525
1.53967
0.0253752
0.0256684
4.25342
0.0249235
15.2127
4.35982
4.28244
0.171829
0.44049
0.0439407
0.0251088
0.125959
0.0431739
0.0252606
0.0494675
11.2468
5.32186
4.2959
0.103398
7.55048
0.140579
4.7952
0.0271346
9.39333
10.5634
0.0298904
0.0264765
0.140975
0.051157
0.0333642
6.46292
4.68118
0.0389254
0.113104
0.0248869
0.309264
18.663
0.0256753
7.48087
4.735
0.0258648
0.0282128
0.0249422
0.449698
10.2771
6.65473
0.025509
0.0263165
16.0563
4.27469
0.0253191
12.1879
0.234284
0.0447721
0.0254604
2.26977
0.0253046
0.44232
0.0280911
0.0249134
0.419779
0.0254999
3.89263
0.0252057
0.0251212
0.0249733
0.0251207
0.0464951
0.475034
0.0458195
0.0268977
0.0280958
0.025334
0.0248546
0.0258705
0.0255638
10.2272
5.86955
0.0568257
0.0251469
0.0298367
5.0645
4.76403
0.0267262
0.816399
0.0816813
0.0252395
0.0251426
5.44339
0.0272726
0.0256932
0.0251958
0.0322164
0.0252681
0.0265732
0.035796
4.52985
7.67158
0.025232
14.5624
0.0250199
0.0440273
0.135368
0.119329
0.0514377
0.0262971
0.0271882
5.25016
0.0258138
0.0912195
3.81512
9.72083
7.69064
4.60674
0.0253397
18.8634
0.0258443
0.169324
9.24588
0.0252784
0.0263021
0.0341168
0.0253336
0.0254992
0.0302048
0.0966568
0.0254334
0.0328315
0.0251979
0.157009
4.2082
0.0288016
0.0254744
0.0607501
0.0249368
4.85875
0.0264524
0.568196
0.0273606
0.111345
0.0253327
0.025482
0.0253725
0.0846724
0.0253163
0.266092
0.0248216
0.16191
0.0248196
0.0273293
0.121099
0.0264817
0.0600458
0.0411519
0.0249718
3.96052
4.59853
0.0247828
4.43102
0.089701
6.41499
0.0261757
0.0249131
4.12551
0.0249638
0.0252864
0.0260189
0.438735
0.0259164
0.0332273
0.0256635
0.180408
0.25776
0.0253634
0.0540298
0.0267605
0.0258994
0.0252169
0.029872
0.0257945
9.94988
0.438415
0.0254346
0.0854462
0.0295629
2.686
0.450734
0.0319549
0.0255893
0.0252708
4.76544
5.55772
0.0253429
9.53761
0.168767
0.0247863
0.0279263
0.0254547
0.435139
4.029
0.0247138
0.155536
4.18876
0.0573171
0.02567
0.0253733
0.0256609
0.0572072
0.085727
0.0272355
0.0796673
0.049271
4.14975
0.0883898
0.025766
2.07982
4.41048
0.109408
4.3818
0.120345
0.0253655
0.056026
0.151226
9.72036
0.026678
0.109273
4.59505
4.10831
4.09843
0.0256226
1.84448
0.0259555
0.0254115
0.0256501
0.0971209
3.88652
0.454267
4.73531
4.07593
0.105668
0.0595011
0.0256945
0.0254645
0.0247184
0.0526225
0.149029
5.87474
0.0357229
4.02159
1.79495
0.025501
5.04715
0.032493
0.0251524
0.0366781
5.68717
0.0252784
0.0256535
0.0258958
0.0250014
0.0248328
0.165724
0.0249424
4.77988
0.0266397
0.0256623
0.0252767
0.0812422
0.0253689
0.0256458
4.74325
0.0730633
4.19527
0.412025
4.62876
0.246613
4.07974
0.0261093
0.0253945
4.17053
6.98908
0.0252922
0.0252411
2.19505
5.58141
0.0253789
0.0503777
0.0254551
4.79838
0.0897837
4.05845
0.0247255
0.0433888
0.0305349
0.0270673
9.53301
0.0298491
0.106992
0.264961
0.0897174
0.0290031
0.0603061
0.230842
4.72186
5.54947
0.0253418
0.0264776
0.0403391
0.0298299
5.6351
0.0250975
0.0276318
4.45873
0.0252899
4.4859
4.13293
0.025274
0.0264752
0.0284162
0.0265306
0.0285015
0.0251232
0.0897526
0.0560286
4.14138
0.0354648
0.0321873
0.026906
4.12644
0.0252669
0.0254087
0.0614767
0.0275011
0.025361
0.0332774
0.0247312
0.171344
0.025004
0.0268598
0.0259917
10.1234
0.0254805
5.35142
0.0267296
0.0253006
0.0250592
0.0254881
0.0515705
0.0274463
0.261185
0.0255718
0.0297909
0.029841
0.239563
0.0247199
0.377612
4.46756
0.44398
0.0252749
0.184095
0.0344923
4.15699
0.0576213
9.36619
0.0564042
0.0253485
0.155483
0.299239
0.060847
0.0251231
0.0817454
4.76191
0.419468
0.0269941
1.75865
4.26975
0.0283306
4.00845
0.0471545
0.0267335
0.197586
0.0267122
0.025022
0.025502
0.0254607
0.408051
8.04881
0.0247249
0.0297569
0.258887
0.0404123
0.0254398
4.13098
0.0253301
0.0255171
0.10259
0.0304884
0.050266
4.13976
0.880289
0.112947
0.0265489
0.0259481
0.125366
5.71039
4.33691
0.220266
0.0284662
0.0298702
0.12365
0.025056
0.028464
0.0283704
0.104999
0.0387086
0.0278121
0.0253345
4.16267
0.0256293
0.0252394
0.163214
0.0256765
4.26414
0.0412095
0.0256769
0.053436
0.026789
4.39435
0.203658
0.0252898
0.115116
0.166826
0.0585731
0.0404464
0.0591638
5.50937
0.0908727
0.0254942
0.0253444
0.201895
4.38574
0.0307307
0.0257629
0.0254398
4.13681
0.0256089
4.39101
0.025469
0.0595313
0.0406313
4.11804
0.0725947
0.0335854
9.63227
0.0256818
0.339832
0.024864
0.0251119
4.63173
0.0252118
0.0263619
0.058382
0.0331447
0.0250207
0.0252846
0.0754837
4.1784
0.0696228
0.0371454
4.40168
0.0296886
0.203855
0.0249706
0.0252827
0.0807638
4.22542
0.359779
0.0256352
6.94889
0.028583
0.0251165
4.73833
0.0285155
0.0252846
0.0260334
0.050195
5.73824
0.0601262
0.104501
0.030023
0.0365016
0.124595
0.0256069
0.0265446
0.0590215
0.0316804
9.11577
0.158713
0.0590553
0.0284818
0.0249275
0.0305324
0.0583208
0.150372
0.0256768
0.0284558
0.0249121
0.0300261
0.0856004
0.402633
4.00489
0.0254145
0.0268484
0.248748
0.0259181
0.0254309
0.0253394
0.0591279
0.0290122
4.75234
0.0254644
4.02
0.876038
0.0253036
5.66451
4.21721
0.0713819
0.0254028
0.0896655
0.218208
4.43628
0.0333615
0.0394972
0.122166
0.0267488
0.0257195
0.0256052
4.35207
0.0250735
4.29279
0.0253294
0.0247721
0.0251389
0.0476712
0.0247856
6.92625
2.98254
0.0254902
4.18453
0.0255985
0.0247988
0.0248579
0.0254808
0.123629
0.0256702
0.0375137
0.196591
9.27683
8.40543
0.0256733
0.037551
0.025018
0.0275491
0.0474081
4.28868
4.1665
0.781398
8.42143
0.0250167
0.0246613
0.0254709
0.0250868
0.105785
0.0253309
0.0253947
0.0254531
0.0248555
0.0301026
0.0283839
0.0251201
5.72417
0.0256309
0.0255839
0.0248592
0.0253185
0.213426
6.73402
0.0586387
0.0582438
9.43662
4.11277
4.18628
6.77671
0.0259313
0.0251965
5.35805
22.7529
0.0252218
1.38441
0.0253387
0.0258994
0.0250436
17.7254
0.113506
0.0254907
0.205907
0.0252126
0.0268057
5.74773
0.0295974
0.0256357
4.31753
0.0248098
0.0287217
0.0291952
0.0282769
0.0542443
5.37656
0.0250278
0.0251208
0.0254338
19.9307
0.120611
0.0262903
0.0250298
0.940997
0.0246657
0.0594743
0.025331
0.0249956
0.0254601
0.0253508
0.0254889
0.0253978
0.0250083
0.0271219
0.213567
0.0253317
0.166403
0.0262576
4.26589
0.0254255
1.21499
0.02563
6.7723
0.0256889
0.0253319
0.39084
0.057879
4.54612
0.0760487
0.0496476
9.35114
0.122656
0.025088
4.06645
0.0321505
0.0264791
6.87272
0.0255115
0.217315
0.206658
0.0285681
0.170297
0.406402
0.025273
0.266733
0.0253967
0.0297442
0.0253672
0.0298139
0.056853
0.024996
0.0295687
0.0256579
0.856876
0.0817049
0.0295977
0.0358063
0.0297518
0.0256213
4.59005
0.170075
0.159515
0.171059
4.24949
0.230869
0.0256121
4.20747
0.0285848
0.0253285
4.36169
1.63899
0.0256596
1.15914
4.17473
0.201042
0.0255481
4.11772
0.114985
4.18944
0.0420396
0.0252413
9.67584
0.227701
0.377325
0.0263228
0.0256553
0.0298645
5.61124
0.0265953
5.81882
0.196332
0.0258494
0.043828
3.66872
6.07347
0.0387936
4.12526
0.0266708
0.476529
4.20285
0.02533
22.6111
0.0273353
0.0254358
3.94593
0.0269763
0.211143
0.062875
0.029724
0.0252883
0.396385
0.241532
0.0267272
0.0253277
4.17861
0.0250132
20.2049
0.0384983
0.386889
0.0250876
0.0255844
14.7487
0.10844
0.363708
4.30173
0.0596659
4.12512
0.0775828
0.0264379
4.09973
0.0275502
0.0254602
0.400394
0.23375
0.0270789
0.0253601
0.0248185
0.0253158
0.0254023
0.112736
4.09672
5.56803
0.0252591
0.0338335
0.0264945
0.263072
0.0253218
4.06198
4.17376
4.46266
0.473559
0.0345703
0.0251862
4.13469
0.0252168
0.0259128
0.0258901
0.0258101
0.0420294
0.0345879
0.0259948
0.0259792
0.0253755
0.0258371
0.0253305
0.0252304
0.141024
0.0995791
0.0253273
0.0253151
4.14184
9.79077
0.029511
1.83533
0.0484611
0.0539007
0.200768
0.0250542
0.0252113
0.0253862
0.0252095
0.0258536
0.111154
0.0252646
0.024927
0.0252395
0.0253467
4.35535
0.0497183
0.024833
0.0276278
0.0254653
0.0577635
0.0248844
9.69157
0.504207
0.025079
6.02263
0.443445
0.191944
0.0597037
4.34476
4.50727
0.0253196
0.0252842
0.0259816
4.19334
0.11761
0.0271625
5.88122
14.2509
0.0248162
0.0251079
0.0258789
0.0563834
0.0294143
0.0253673
0.0253051
0.0252443
0.025125
3.9054
0.372578
0.0254301
19.6459
4.54278
0.0255741
0.0251931
0.0265164
0.0414022
3.93623
6.29828
4.08155
0.0834722
0.188731
2.23079
0.378381
4.5109
0.0276423
0.0559587
0.0300184
0.029665
4.30749
0.0250603
5.1908
0.276878
0.0256491
0.0615656
0.0250716
4.45411
0.0262901
0.262498
0.421069
0.0249322
9.36047
0.0250531
0.0256642
9.19907
0.0283036
0.0250887
3.92967
4.35995
0.0253712
0.159125
0.0275322
0.0768979
0.0253191
0.0246699
3.76912
4.2221
0.225001
0.025174
0.0267697
9.75536
0.0324457
0.0251989
0.0255124
0.0283819
0.0249652
0.119461
0.0296099
4.29712
0.0566126
0.0453294
4.5659
0.0253573
0.0252585
0.0414225
0.356916
0.0983795
4.75848
3.97244
0.150108
4.15998
0.0250781
0.0252632
0.0443514
0.0256412
0.0248128
0.0274227
0.0302266
1.32707
0.0274665
0.0412439
0.34051
0.0342557
3.86237
0.025434
0.0261475
0.0249584
0.0253873
0.0577236
0.0252724
0.0393355
0.229067
0.133601
3.97777
0.0251809
0.10453
0.192704
0.0249313
0.0251712
0.225944
0.0251048
0.0252496
4.08009
0.380959
0.137157
0.083322
4.65701
0.0629172
4.15074
0.0336344
0.0252308
0.0994358
0.0254068
0.455974
3.86207
0.0253776
0.140884
0.0275774
0.08075
4.21404
0.0253723
0.159224
0.854839
0.0337558
0.840301
0.236979
13.072
0.0568722
0.0346566
0.343878
0.0513878
0.0248975
0.0252664
0.0738717
6.00263
0.025085
0.0295257
4.85203
0.0464699
0.027207
6.81344
0.0254671
0.0416443
12.8985
4.4611
4.40457
0.0252838
0.0271821
0.0251745
0.0283957
0.0273818
0.216223
11.9916
0.0324626
0.146891
0.0281212
4.18785
0.024937
0.0253322
0.032693
0.0252958
4.23841
4.34003
0.0570252
0.0586109
0.0254153
0.186665
0.0253445
0.025482
0.0287613
0.0253945
0.155168
0.0292815
0.165029
0.272726
0.024705
0.0579825
0.0332309
0.0251813
4.29753
0.0261863
0.0620453
7.68973
0.216425
0.0251205
5.7729
0.0388778
0.0254186
0.0254922
11.0249
0.0251521
4.31016
0.0255852
0.0252482
4.49569
0.10181
0.0684395
0.0249418
0.0292066
4.61017
0.0251606
0.0250635
10.3862
9.69185
0.0586631
13.2359
0.02533
0.222998
0.0508557
0.0262738
0.0769196
13.1322
5.84691
0.0621673
0.0253898
5.91285
0.0251439
4.12392
9.53096
0.0250739
4.71856
5.05454
0.0513951
4.5261
0.0252705
0.0247928
0.0247011
0.0594035
6.32188
0.217334
0.0257307
4.18309
0.0258343
0.0254334
0.115749
0.0251673
0.0261736
0.024996
0.0988187
0.025303
0.0268349
4.28863
9.42976
0.0719653
0.0253294
0.025675
6.2795
0.197246
0.158367
0.0248374
0.0720821
0.0563244
9.84157
0.0255053
4.44426
0.345089
0.0258173
0.025293
0.0257214
0.156861
6.14423
0.0255858
0.030711
0.027351
0.0255209
0.0253701
12.2501
4.92901
19.04
0.0254403
0.0656088
0.164154
6.149
0.0988913
0.218776
0.0257018
7.7298
0.0389386
0.0777063
4.39063
0.0255681
0.0255036
0.0267376
0.0253504
4.83124
0.0250081
0.0923457
4.13822
0.0246642
0.0253265
4.02374
0.0248362
0.0251363
0.0574106
0.025651
0.0443482
0.0795262
0.0254552
0.0252436
0.0808223
0.0247784
0.0252502
3.92571
0.0277741
0.0251861
0.0267387
0.0255325
0.0252771
0.0252021
12.051
0.0251816
0.0824179
0.19753
0.025015
0.0256787
0.0465741
0.0279141
0.0250415
0.214591
4.10216
0.0257322
0.0252235
0.0253819
0.0307039
0.0266385
6.90133
0.314084
0.0249014
0.0256126
4.41211
0.0292973
6.99553
0.0271507
5.76433
0.0257255
0.0513891
5.64939
4.53251
0.0252953
0.0296344
0.0249114
0.0256922
39.3009
0.109555
4.26076
0.0416886
0.0293696
0.0366744
0.0253619
9.22903
0.246385
0.0255049
4.3163
0.0274651
0.0252744
0.0254107
0.0253972
0.0298332
0.0290724
5.73264
0.0254502
4.18243
4.95374
0.0502545
0.0251807
7.90214
4.27396
0.0254925
0.245827
10.6784
0.0255126
0.228127
0.0328561
0.0752904
0.0552323
1.5654
0.0256899
4.00486
0.191369
0.0248438
0.0251947
0.0247875
0.0287433
0.248555
4.42134
0.0249262
0.0256681
0.0253262
4.41696
0.0329697
0.0258268
0.0255674
5.05026
7.96491
0.409128
18.596
4.75516
0.0256902
0.221751
0.0254536
0.0412114
0.0250253
0.238242
0.0256787
0.0590714
0.0278981
0.0257949
5.49779
0.0252026
0.0443075
5.53379
0.11959
0.0255082
0.0253375
0.0252649
6.61342
0.164324
0.0644293
0.0276843
0.0422085
3.68312
0.171061
0.0256899
4.158
0.0314388
0.0283964
6.62559
0.0255122
4.06377
0.0254593
16.8257
0.0263077
0.0253321
6.80306
0.033057
0.0257118
0.0253532
4.05555
5.7855
0.0547891
0.0698353
0.098067
9.13822
4.20045
6.74426
4.20789
0.0269783
0.0252072
0.0604472
0.0568545
0.0256387
0.0253376
0.0400902
0.0253777
0.0253851
4.35397
0.0294054
0.199037
0.0313144
0.16017
0.0253989
0.240605
4.06432
0.0252968
0.207866
0.0252747
0.326989
0.0254327
4.64209
0.0384923
0.1414
0.0250857
0.0252353
0.782759
9.66691
0.0253174
4.38483
0.0260148
0.0253738
0.0253742
0.0326162
9.21905
0.150722
0.0254265
0.0285312
4.6387
0.0254442
0.078295
0.0252997
4.08856
0.0253905
0.0247835
0.0316105
0.0703786
0.0272791
0.218376
0.0253531
0.0306772
0.0477373
0.220929
0.0253193
4.76016
0.0250317
5.59617
4.08869
0.765178
0.0253313
2.2951
0.0339719
0.0253338
0.0253558
0.0252695
0.282945
0.025356
0.253954
0.0778693
0.38917
0.0251242
0.0247441
0.0248574
4.8737
0.0351338
5.74504
1.54122
0.0252013
4.75706
0.161553
0.0258812
4.22395
0.0253839
0.0382119
0.0290349
0.0293556
0.0259707
0.129005
0.0907077
0.025115
0.323535
0.0253832
0.0252359
0.0256952
0.0253819
0.0257225
0.0263489
0.0254582
11.2317
0.154038
0.18241
0.025421
0.0259932
0.208798
0.0412775
0.0348658
0.0249274
0.025265
0.168746
8.91046
0.0256308
0.37047
0.0255164
4.86585
0.173645
0.0252663
0.0249947
0.122972
0.0590306
0.0262405
4.25508
0.025397
0.0272612
1.15972
0.0503528
0.0249492
0.0475364
0.0254668
0.0446136
0.0255839
0.205062
0.025523
0.0332822
0.0266924
0.0399826
0.0261523
8.96965
4.20642
0.0252755
0.0253726
0.362325
5.61319
0.0253833
0.0257001
0.0591804
4.12998
0.0251893
0.0310083
0.355446
0.025533
0.0262504
0.0484887
0.0256586
0.0256423
4.77426
12.3308
0.0254201
0.0252458
0.0304433
0.0248589
18.7905
4.82936
4.39441
0.0312445
0.164051
6.85709
0.0272348
6.48688
0.250055
0.0255034
0.0252041
0.0415737
0.025004
0.0262917
0.367462
0.0576544
0.0292352
0.0895188
0.0467316
0.079777
0.221447
13.8177
0.0250413
0.0296554
4.38277
0.232631
0.0403424
0.142992
0.0669506
0.0253129
0.218945
0.0395987
0.0261307
0.0282697
0.0252682
0.45984
0.0256775
0.0253705
0.0253616
0.0396028
7.89149
0.230178
0.253737
5.29024
0.0428041
6.84135
0.0318142
0.0255201
0.031997
0.0418552
0.0264046
4.32257
0.246627
0.0280889
0.135835
4.72997
0.120729
0.0253292
0.0336538
4.13068
0.0253299
0.0253639
3.85002
0.026881
0.0255362
0.0497643
0.0260041
0.0392378
0.0262304
0.117776
0.0249814
5.34144
9.69499
0.0581451
0.0253294
0.154265
0.166376
0.0254778
0.0348155
0.0253323
0.0255157
0.0263598
0.0252943
0.0249898
8.27217
0.275221
0.0253496
0.0255527
0.0255631
4.22389
4.32243
0.024856
0.229668
0.0373765
0.344415
0.0255221
0.0275623
0.0250612
0.0250948
0.026485
0.0253398
0.0422121
5.57773
0.158055
0.0846822
0.0252405
0.0250602
4.38276
0.0552354
7.46162
0.401617
4.40564
0.0252446
0.0339425
0.0396385
0.0563881
4.10279
0.384896
0.024877
0.0247896
4.16739
0.159914
0.025003
0.0841848
6.42431
0.0251555
0.0254473
3.97795
0.0273446
0.198248
9.57507
0.0273998
0.399285
0.0275155
0.0546751
4.21345
0.0553166
0.0253314
0.117437
0.117359
0.025267
0.0422531
0.0810968
0.0261621
4.42727
13.7069
1.4643
4.08409
0.0253289
0.0251521
0.245567
0.241253
5.30853
5.03395
5.13004
0.0458792
0.0278496
0.0246915
0.0254705
0.0566166
0.0250866
6.26089
0.0868427
4.48294
0.0251373
0.0252474
0.0253231
0.689874
0.0331197
0.0273805
0.0250844
0.14232
0.0256318
5.40731
9.89288
9.0427
8.73189
0.0897844
0.0254421
3.99847
0.0255719
0.286632
0.0674183
0.025465
6.04773
0.17217
0.0593006
0.0251298
0.0269036
0.0251805
4.43913
4.08244
0.0250939
0.025329
4.00181
0.0252207
12.6441
0.131708
0.0564557
0.0251566
0.0253861
0.238995
0.0991278
0.368262
0.0253694
0.0254971
0.0574198
0.0249229
0.0587382
0.193778
0.024925
0.0767406
0.03324
0.0253417
0.0253369
4.2421
0.0459483
0.0347607
0.121424
0.0570261
6.80895
0.0250759
0.0574724
0.0253182
6.50169
0.0253347
0.0468809
0.0254306
0.0251068
0.0326854
0.0252043
0.0283643
0.0267422
0.0248746
0.0488426
0.0258253
0.0982255
5.48678
0.0755285
5.57827
3.78642
0.0270211
0.217224
0.0252125
0.0255896
0.0386345
4.01468
0.158195
0.03823
3.96389
4.15782
9.02248
0.0251792
0.0251987
0.0275171
0.345171
0.203524
4.12985
0.0254918
0.0270246
0.0260661
0.0259585
0.206642
0.132713
0.203903
4.38664
0.0252266
0.0253271
0.0255729
0.0257823
0.196237
5.35053
0.0251929
0.0495458
0.0251359
0.025336
4.36437
0.122561
0.396365
0.113083
4.4205
0.0251425
0.0270631
5.15402
0.116506
0.428787
7.52542
0.205861
0.0250448
0.0289243
4.10628
0.0250518
4.69399
0.0270062
0.0252443
0.0675964
0.0255052
0.0273088
4.41517
0.0251221
3.83902
0.258788
0.0999531
0.065423
4.69155
0.0585505
0.024767
3.90956
6.5503
0.0329365
0.0253854
0.025277
0.0261677
0.0411025
1.19492
0.025275
0.542129
0.0251464
0.0251185
1.11432
0.0360409
0.0255578
0.0256625
6.12011
0.0584496
0.0251139
0.0253114
0.0255594
0.0786313
4.28373
0.0252897
0.0253241
0.0252828
0.0253778
0.0293724
0.0449047
0.0255011
3.71694
0.0388185
0.0671152
0.0382075
0.0248542
6.5626
0.0371523
0.832641
0.238819
0.0262432
0.0253906
0.0263785
0.0434115
4.19783
0.0346665
0.0301835
5.55808
0.0274756
0.0967771
0.0254395
0.0254754
0.0256081
0.0253314
13.805
0.37035
0.0254538
0.0252856
0.0262079
4.18856
0.132067
0.0248592
0.0265359
0.025022
0.0292834
0.183199
0.0272076
0.0252754
0.0248582
4.52871
4.37698
0.0250825
0.156431
0.109303
0.0652282
0.0251512
0.0253575
0.0506852
0.0256867
0.0250746
0.0267781
0.425495
0.119508
0.215777
7.56499
5.85451
0.0252222
0.0256696
0.0652668
7.8612
0.057223
0.0259076
0.025494
0.52087
0.105471
0.214873
0.151824
0.0251218
4.16176
0.0252685
0.460192
0.0253709
0.0256888
1.30227
0.0564714
0.037148
0.0740053
5.20346
4.25209
0.0249304
0.0254369
0.852913
0.0260742
0.0249359
0.0257571
0.0246882
4.26551
0.025415
0.0254427
4.36185
3.87852
0.0252208
0.0252808
0.0251118
0.0252767
4.49606
5.53676
0.360476
0.125872
4.54529
6.21982
0.0250129
4.38694
4.47585
7.3548
4.44875
0.0271592
0.0255643
0.0254957
0.0255951
0.0263905
0.025374
0.0256314
4.89646
0.0327562
0.0443853
0.0399502
3.72811
0.0353941
4.26336
4.00321
4.58718
0.0457001
0.0252635
0.0950971
0.418327
0.0264022
0.0252063
0.0256208
3.95467
4.4564
0.0550681
0.0252294
45.1209
0.0250341
0.0450026
0.025488
3.56436
0.0247042
0.0252373
4.14304
0.027742
3.93627
0.0253293
0.0306456
0.0260746
0.147971
0.0251409
0.0979458
0.1245
0.0250941
0.025515
4.03799
0.789007
0.0384547
0.0591132
0.0253427
1.43799
0.0252339
0.024863
0.0259135
0.0253354
0.0301466
0.0435744
0.0450594
0.0255802
0.0253277
4.76502
0.0256401
0.0377005
0.0248732
0.0261234
0.0253356
0.0254488
8.90693
0.0251152
0.0252872
4.20142
0.025654
0.579642
5.01467
0.026598
0.0254384
0.390659
0.0975289
5.30238
0.0310833
0.0448727
0.0317271
0.0249408
7.31889
0.0253304
3.89152
0.0905798
0.0442424
0.0283955
0.40039
0.0304147
0.0252893
0.240005
0.0252402
0.0251288
0.0309398
8.7577
4.9077
5.8354
12.3683
0.0447931
0.029253
0.032971
0.0250715
0.0250546
0.0247181
0.208746
0.0265886
0.0304223
0.0252533
4.7996
3.75322
0.0287527
0.0253275
0.216277
6.18173
0.0253635
0.0253304
4.71902
0.0253606
0.0316979
1.09477
0.0253289
0.0256952
0.247939
4.11789
0.0256636
0.0389804
0.0252971
0.025369
0.0272072
0.0474347
4.227
0.0419998
0.0254789
0.0253127
0.189598
5.25757
0.0252007
0.0256802
4.26963
0.0253409
0.153853
0.0269184
0.0249764
0.0271863
0.487375
0.0251628
0.0257173
0.025504
0.0284322
0.0252591
4.4767
0.0255879
0.104821
0.10982
0.0254631
5.40812
27.2978
0.024933
0.040469
0.024924
0.0419902
5.21699
0.0398314
0.0253379
0.0297116
4.42704
0.0252108
4.71704
0.0266693
0.0266448
0.0889003
0.0254911
0.0251429
0.032582
0.417591
0.0653223
3.92845
0.0250275
5.45612
0.256993
0.0257414
4.20796
0.131138
0.0611953
0.0272865
0.0252777
0.0251884
0.0303452
5.78464
0.154533
0.0249301
0.0254755
0.0268597
4.80168
4.48524
10.6129
0.0247008
0.0257307
0.243441
0.0248653
4.77292
0.0253046
0.0254798
6.36383
0.0251332
0.0404748
0.0251005
0.0252731
0.0506644
0.0251269
0.025169
0.0250903
0.0254878
5.17453
0.141562
4.33686
5.21432
0.0273886
0.046777
0.17256
0.0259205
0.770547
4.18425
0.0430475
0.0254089
0.0255141
0.0421893
0.740658
0.10329
0.0255558
0.0250748
7.05425
6.62074
0.0252984
0.0566454
0.218296
0.0915535
0.203342
0.0255748
4.14117
4.7682
0.025091
0.0253565
3.48229
0.903672
0.118181
25.1491
0.0299801
0.0582886
0.0256685
4.5989
0.0516851
0.0312961
0.0574371
6.20754
0.0251761
0.0252069
0.0275599
0.209453
0.0251534
4.9945
0.0684273
4.70099
0.025251
0.0254176
0.0946144
0.0251933
0.169416
0.0787602
8.40377
4.27753
4.1995
0.0338105
0.0253436
0.0250287
0.0256969
4.35851
0.0772491
4.42823
4.88702
0.0252817
0.0257031
0.1573
0.0255204
0.459044
0.0251016
0.0317074
4.49763
0.0254424
0.0325137
0.0257973
0.0826235
0.0391931
0.02541
4.11351
0.154306
0.119823
4.4248
0.563893
4.83924
0.0253279
5.25024
4.67229
8.59033
0.0250644
0.025037
0.0266594
0.0943416
5.28628
4.17451
0.0250904
0.0252625
0.267609
8.63953
0.0256698
0.0254299
0.0259082
0.0249412
0.0911578
4.31505
0.0255757
0.188328
22.4946
0.261465
16.2352
0.0669086
0.0253971
0.0247739
0.0250271
0.0268466
4.09737
0.0652808
0.0327167
0.0579537
3.57914
0.0251684
0.0248685
0.183549
12.2434
0.0409462
3.88669
0.176442
0.0256902
0.0249285
0.0656438
5.4325
0.064555
0.0255525
0.0251758
0.448411
5.13263
0.0266124
0.0254345
3.75084
0.405982
0.0334567
0.0256643
0.0298348
0.195098
0.0247572
17.6175
3.61055
0.196898
0.0280051
0.0256992
0.0250527
0.0773705
0.0269258
0.0252628
0.0540466
0.0256433
0.050711
5.24573
4.16142
5.21274
0.0249887
0.0250638
4.98412
0.0256392
4.27093
1.13975
0.0254279
0.0255699
0.032155
0.172617
11.7595
0.114565
3.78776
0.0250099
0.0248688
0.154136
0.0250965
0.0468466
0.0253102
0.0348352
0.0996678
0.0275431
0.0331985
1.22167
0.0252901
0.0315249
4.03948
0.155015
4.22292
0.0250215
0.0253738
0.0261574
0.0254515
0.0271212
0.0254522
0.0264753
0.0325209
4.86328
0.0251708
1.45576
0.0451607
0.025075
0.263056
1.45027
18.7316
0.320059
0.02802
3.91675
0.0255955
0.068356
0.0252444
0.0252901
0.0248331
0.0258951
0.142683
4.33991
0.0255233
0.0256897
4.24147
0.0579428
5.31883
0.0325874
0.0253713
0.0256651
0.0383798
0.104928
0.0309614
0.152373
0.0337578
0.0288955
0.835839
0.0437647
0.025332
4.03699
0.0260288
0.221148
4.33569
0.112532
5.28981
16.4707
0.0281849
6.92021
0.0281305
0.0300903
0.0313583
0.0264189
0.0262735
5.40496
0.0462464
4.07624
0.0262472
0.0253434
0.0256017
0.223077
0.0253289
1.37319
0.0262346
0.0777454
0.0250207
0.0248725
0.0250718
4.48059
0.0438027
0.0254746
0.0255132
0.0502487
0.0254597
0.142926
0.0248898
0.0252639
0.0249779
3.68055
0.232048
0.128853
0.025559
0.0251546
0.0255895
0.0256763
0.0280773
0.0778206
0.10835
0.0255682
0.0253626
0.272301
0.0252826
6.54225
0.0254993
0.0256675
4.15991
0.0301225
0.0269658
0.999673
0.0250238
0.0494107
5.1774
0.0254032
0.0256439
0.0253205
0.0268609
0.0249863
0.0355829
0.422092
4.0164
0.025614
0.0453617
0.0865557
0.559401
0.0253537
0.0253421
0.0250011
0.0449467
0.527515
0.0340027
0.0255488
4.61785
0.0342342
0.0248616
6.59539
4.60685
0.0345662
0.0252532
0.376398
0.0254631
0.0248555
4.7919
4.16638
4.76322
0.0252813
0.0251821
0.0333272
4.05115
0.0251229
0.0406324
0.0287859
0.0817098
0.0490632
0.0940295
0.0246639
0.0373598
4.57792
0.056054
0.0252409
0.0252856
0.0538105
31.0486
0.0525755
1.07995
0.0252287
0.0258733
0.0487749
0.0285827
0.0253352
4.28244
0.207579
18.1347
0.029107
0.0248831
5.26551
0.0251432
4.26975
0.0462879
0.466866
0.413175
3.77634
7.20079
0.0268423
0.0255261
0.0252942
0.0254351
0.214313
7.40986
0.0251237
0.0252559
0.0256749
6.13606
0.0253324
0.0254265
0.133035
0.0255475
0.0844672
0.0984609
0.024865
0.0699693
0.0256812
0.0605051
0.0253317
0.0274607
0.0252085
0.0265417
0.0249868
0.077483
9.82421
0.0277693
0.0256582
0.0360218
0.0563868
0.0251909
0.0253254
0.0320326
0.024872
3.90341
0.0262138
0.0329405
0.0253381
0.192033
4.08861
0.0247693
0.0268442
0.0256682
0.180831
0.0433586
4.80657
0.0859116
4.00183
0.0254244
6.80713
0.0251024
0.0255977
0.0252099
0.0255217
0.0851188
0.034684
8.17968
0.0570515
0.025374
0.0256845
0.147876
0.0321
0.0389905
0.0662428
7.66288
6.84524
0.0380142
1.49275
0.0401162
0.372183
4.27679
1.25715
4.74757
0.384572
0.0251983
0.0252686
0.0269901
4.09323
0.0316492
0.0257011
0.0765066
0.0247133
0.0249375
0.0561895
0.0252544
0.0254734
0.0263168
0.0268102
0.0270535
0.0252435
0.0314718
4.67133
0.0274621
0.0248811
0.0252915
5.50285
6.3619
0.0247828
4.85344
5.62565
0.036826
0.0248128
0.205385
6.978
8.73053
3.94379
0.379526
4.41391
0.0848635
0.0254064
0.0249439
5.07444
0.0285183
0.132973
4.46922
0.038484
0.0282397
0.0270206
0.0262805
0.0564149
0.120122
0.0253634
0.0528387
4.78621
0.025025
0.0249268
4.98234
0.0253358
0.0999054
0.0256948
0.0249835
0.0257047
0.0253638
0.025395
3.69833
0.0270727
0.124876
0.848748
0.0255703
0.0251452
0.0278107
4.58492
0.0249883
0.0249957
6.79985
4.69181
4.38113
0.026222
0.114922
0.0254288
0.122477
4.89739
0.0271162
0.0694172
4.72155
0.0253119
0.175432
8.87175
0.38059
0.0752404
4.34015
0.106997
0.0732976
0.202616
0.0756484
0.0815834
0.0253624
0.657962
0.0349962
4.80999
0.025267
0.0255458
0.0255515
0.0250802
0.0258817
4.89359
0.17064
0.0466547
0.025214
0.422572
0.0255503
0.23553
0.0447482
5.05987
0.025096
0.0254047
0.143397
1.07867
4.30073
0.0255688
0.147004
4.15207
0.119606
0.0271692
0.0254346
0.0798113
0.446879
0.0273362
0.0379235
0.217183
0.0252864
0.0256075
4.11484
0.076918
0.0251305
0.0259166
0.769295
0.0269865
0.0327118
0.0352963
0.0256724
4.23405
0.0252789
0.0327835
0.0514272
0.106139
0.0248717
0.0251971
7.55847
0.0248692
0.0345055
0.0376665
0.0250426
0.220004
0.0259282
0.0319874
0.257357
4.12748
0.341104
0.0250608
0.231057
0.0352199
4.74766
6.96306
0.473651
4.13973
4.52822
7.4492
0.149388
5.35859
0.131433
0.0443598
3.5219
0.0251632
4.93012
0.0254501
0.024884
0.0256623
0.0839133
8.18709
0.0447748
0.0250234
0.0253848
0.0256516
0.143128
0.0371768
0.0693631
0.025264
0.0253549
0.0251455
0.0259053
0.045054
7.11473
0.0251874
0.086087
0.273642
5.39506
0.0447507
5.64192
0.144506
0.0253332
4.85278
0.522646
0.0756546
0.192972
0.0255503
4.42948
0.0260428
0.0262346
0.238115
4.45859
3.85277
0.0282973
0.216728
4.51404
3.48005
0.221923
0.0252438
4.97257
0.0249034
0.0549755
0.242286
0.183982
0.027257
0.695363
0.0258341
0.0249774
0.0648898
0.0254081
0.158116
0.0262466
0.0256903
8.06231
0.0252593
0.492885
4.24543
0.0277239
0.372442
0.0254306
5.14988
0.028729
4.19419
5.61558
0.264138
0.0297633
5.73653
8.38488
0.0421329
0.202818
0.0257481
0.0652596
0.744415
0.0258722
0.0384814
3.87269
0.0265331
4.52046
0.0255249
0.0254053
7.4086
0.0294255
4.33193
0.0838445
0.0281144
0.764693
0.025046
0.0781505
0.0656586
0.0265874
0.154015
4.12169
0.0254622
0.0253977
0.0256191
0.0261169
0.200542
3.76498
0.104552
0.0287449
0.0247311
0.025164
0.0372738
0.0254515
0.0282776
0.0247569
0.0612275
0.395309
6.42464
0.166371
0.0399803
0.0248182
0.270181
4.81375
0.107244
0.278283
0.0454436
6.19725
0.0294439
0.0290675
0.0254063
0.0257225
0.025144
0.0422338
0.0520213
0.0254123
0.0253009
0.153222
0.024956
0.0253701
0.101585
0.0254422
0.0250934
0.0987579
0.047635
0.0830071
0.044205
0.0312643
0.282363
4.84052
0.0248171
5.94469
4.13506
1.72167
0.0250997
0.0476928
0.0249997
0.025045
0.0248095
8.29926
0.0267814
0.0549759
0.025228
0.024929
0.0444634
0.0579193
0.0706945
0.0398053
0.111707
6.32271
0.0250767
0.0254548
0.787317
0.0263959
12.8114
0.242736
0.0251323
0.0418371
4.94835
0.806117
0.0443818
0.374945
0.032383
0.0254418
0.025125
0.0761218
0.0253347
0.0252935
0.0932777
0.0250517
4.2782
0.0288964
0.116018
5.38116
0.0273458
5.61581
0.0259286
0.0792205
0.0252033
0.0250531
0.02524
0.0259115
8.47465
0.0256072
0.0250487
0.0786133
0.0596357
4.33324
0.0251294
0.0924735
0.0253524
0.0312556
0.689892
0.0369689
0.0857064
6.9078
0.0254501
0.0255
4.22446
0.0252574
0.0271435
3.77475
0.0261738
0.0250197
0.0760876
0.0247261
0.145378
0.0254903
5.66251
0.025502
0.0251619
0.237448
0.0811068
28.5554
0.422131
0.025451
0.0253143
0.0806092
0.0254112
0.0256859
0.0548635
4.26623
0.0731628
0.0250226
0.0271401
0.149933
0.0248048
4.30864
0.0251409
0.0685475
0.122077
0.140402
0.452016
0.0757444
0.365703
1.62121
0.242096
0.0249353
0.026417
0.0247951
0.0577009
0.0258089
0.0271794
4.97703
0.068867
0.0251433
0.201657
0.057238
0.0252762
0.0577584
0.0606202
0.0838425
0.20695
4.11729
4.14434
4.9797
0.029099
0.0256253
0.025233
1.42842
0.0250457
0.0513992
0.0248481
0.0259227
0.0255906
0.025622
7.94219
0.369022
0.0254374
0.0252041
0.0432203
28.3155
0.039804
13.0063
0.0254137
0.381322
0.0266312
0.0250111
0.0354169
0.262847
4.78941
0.155221
3.88864
0.119321
0.39669
5.78707
0.044818
0.0255573
4.07463
0.0250188
0.0251927
4.09002
0.0255559
0.0252815
0.0261772
0.0294239
0.0420139
16.0469
6.16076
7.41521
0.071947
4.1408
7.50476
4.05338
0.0249688
4.34455
1.66643
0.0255686
0.0255975
0.0252442
0.0250442
0.0567114
6.55537
0.0253404
0.0543571
0.0255094
0.115402
0.0418193
0.0250724
0.0253222
0.118767
0.0250346
4.25214
0.0389817
0.141901
0.025827
0.0252278