/*--------------------------------*- C++ -*----------------------------------*\
| =========                 |                                                 |
| \\      /  F ield         | OpenFOAM: The Open Source CFD Toolbox           |
|  \\    /   O peration     | Version:  v2012                                 |
|   \\  /    A nd           | Website:  www.openfoam.com                      |
|    \\/     M anipulation  |                                                 |
\*---------------------------------------------------------------------------*/
FoamFile
{
    version     2.0;
    format      ascii;
    class       volScalarField;
    location    "100";
    object      p;
}
// * * * * * * * * * * * * * * * * * * * * * * * * * * * * * * * * * * * * * //

dimensions      [0 2 -2 0 0 0 0];


internalField   nonuniform List<scalar> 
53008
(
-0.0714692
-0.272836
0.0593049
-0.224187
-0.402395
-0.205797
-0.107521
-0.0705104
-0.0018432
0.0372956
-0.103075
-0.095036
-0.0320869
-0.118182
0.0366427
-0.0107197
-0.0533074
-0.0108677
-0.203233
-0.0483737
-0.0473722
0.145265
0.0173572
-0.10326
-0.0429798
-0.284887
-0.1163
-0.114393
-0.13055
-0.143685
-0.0399832
-0.0488094
-0.147123
-0.0129149
0.00981189
0.0628866
0.00526336
0.0122075
-0.128656
-0.0181771
0.00481368
-0.168072
-0.0997911
-0.200072
-0.048835
-0.0163175
-0.0163571
-0.0366165
-0.140531
0.0103442
-0.00436282
0.131431
-0.0612284
0.0215114
-0.0684011
-0.208159
-0.0483201
0.0114943
-0.0907731
-0.0836641
-0.0256307
-0.0425856
-0.377349
-0.0297786
-0.134578
0.0251045
-0.143632
-0.0159385
0.0014122
-0.0142064
-0.395304
-0.00120336
0.0565386
-0.147267
-0.287594
0.00962424
0.0221052
-0.208463
-0.00929971
-0.399999
-0.208305
-0.0294516
-0.0813524
-0.210354
-0.0714316
-0.0143497
0.117419
-0.000560023
0.0250906
-0.0611175
-0.402252
-0.29018
-0.0299531
-0.158914
-0.248804
-0.092109
-0.0928362
0.058831
-0.325937
-0.375203
-0.0487991
-0.0182292
-0.159716
-0.11391
-0.0744123
-0.364112
-0.381365
0.0639448
-0.115265
-0.00129745
-0.244356
-0.369941
0.0219295
-0.250826
-0.100001
-0.00400456
-0.0484576
-0.00296153
-0.0372601
-0.403737
-0.404282
0.0557325
-0.00140227
-0.261154
-0.205613
0.0386392
-0.4007
-0.134682
-0.0771842
0.0382645
-0.0498035
-0.00139709
-0.203923
-0.0422625
-0.00447552
-0.091141
0.0276547
-0.0310472
0.0107123
0.00359926
-0.0085857
0.00415996
-0.0742624
-0.101026
-0.0778931
0.0454302
-0.0476237
0.0124368
-0.013602
-0.0205908
0.0170851
-0.383349
-0.405112
0.142145
0.00641723
-0.0603537
-0.132362
-0.163548
-0.0336529
-0.319574
-0.161526
0.010549
0.00656972
-0.287393
-0.0443738
0.015057
0.0140014
-0.054408
0.012406
0.0773503
-0.0722595
-0.0521623
-0.267812
0.0144685
-0.286445
-0.0112513
-0.0734695
-0.0912347
0.118473
-0.0274096
-0.00184244
-0.0437169
-0.200362
0.0347464
-0.0943445
-0.0297845
-0.372494
-0.276752
-0.390395
0.0123439
-0.378352
-0.00615695
0.0155834
-0.400242
0.0290706
-0.0295588
-0.0715663
0.0205887
0.015685
0.115461
-0.171101
-0.00192249
-0.073071
0.00911702
-0.113627
-0.113931
-0.0519405
0.0157644
-0.131642
-0.00361256
-0.380124
-0.0193747
-0.154926
0.0634892
-0.114874
0.0395977
0.0280186
0.0171043
-0.164173
0.0337476
-0.106028
-0.00838073
-0.0839673
-0.00845528
-0.0406235
-0.0747956
0.00966211
-0.0989817
-0.0463807
-0.00889332
-0.0711325
-0.0934181
-0.0114993
-0.0584931
-0.155989
-0.364325
-0.0318962
-0.00465203
-0.406227
-0.0115072
-0.00121324
-0.0130535
-0.20883
-0.0211892
-0.073985
0.0162985
-0.227391
-0.104938
0.0334388
-0.0826866
-0.0407739
0.0544654
0.0102011
0.113243
-0.0191703
-0.369792
-0.100028
-0.0251913
-0.164861
-0.0494594
-0.297338
-0.0928823
-0.0528947
-0.00368635
0.0239667
-0.122568
-0.155067
0.017194
-0.371696
-0.0842734
-0.0119539
-0.0412079
0.0396985
-0.207004
-0.121524
-0.00632991
-0.112558
-0.118045
-0.0686797
-0.0254632
0.0175067
0.0122293
-0.0695648
-0.099503
0.0505025
-0.126968
-0.113076
-0.398331
-0.101449
0.0342287
-0.345143
-0.0810449
-0.187756
-0.0667317
0.10051
0.00952803
-0.116559
-0.0895588
-0.374322
-0.0364941
-0.189605
-0.390701
-0.179201
-0.114201
0.0193709
-0.275581
0.0480095
-0.0247355
-0.0041155
-0.174265
-0.0695816
-0.155337
-0.118795
-0.128147
-0.124884
-0.129337
0.0121307
0.024024
-0.00630783
-0.112568
-0.0898147
-0.169074
-0.00932176
-0.126507
-0.342321
0.0550791
-0.131352
-0.0622427
0.00664599
-0.0774092
-0.273347
0.0290277
0.0122792
0.00670344
0.000150206
-0.00805601
0.0146462
-0.00449958
-0.0911875
0.0560897
0.012314
0.0128896
-0.160485
-0.00509629
0.0372439
-0.12312
-0.110213
-0.216751
-0.0934507
-0.268202
-0.208245
-0.133365
-0.0314988
0.0299971
-0.405598
-0.231827
0.0261585
0.0213967
-0.286903
-0.157245
0.0484231
-0.114542
-0.0224998
-0.401627
-0.169818
-0.0484814
-0.00591272
-0.0826901
-0.0402113
0.0300812
-0.37205
-0.0401666
0.121873
-0.104153
-0.170872
-0.0526822
-0.105176
0.0973354
-0.121724
-0.279169
0.000825725
0.0119747
-0.0846555
-0.0500152
-0.155629
0.00454566
-0.0474253
-0.0814111
0.0262307
-0.0677422
-0.116795
0.00854491
0.0132636
-0.0340718
0.00343451
-0.00467214
0.00349778
-0.155866
0.0667045
-0.178144
-0.00767746
-0.0614143
-0.0423661
-0.216739
0.0125874
0.0214972
0.0172216
-0.0419012
-0.00464229
-0.0742263
-0.00585491
-0.0584657
-0.000471137
-0.0377273
-0.0226373
-0.401863
0.015348
-0.40241
-0.0387257
0.0223172
0.00305607
0.0417233
-0.0286451
-0.0396408
-0.0990176
0.0170966
-0.0419376
-0.0466133
-0.206447
-0.00613892
-0.0409245
-0.306055
-0.0610347
0.0127646
-0.161875
-0.0464865
-0.401244
-0.109203
-0.370349
-0.107631
0.0170979
-0.204052
-0.132545
-0.100585
0.0040825
-0.160782
-0.405453
-0.0618724
0.0466797
0.0591552
-0.119204
-0.00136931
-0.133488
-0.0755708
-0.0390005
-0.169786
0.0785213
-0.016837
-0.0028555
0.0160895
-0.128285
-0.403881
-0.00609349
-0.0414086
-0.103155
-0.0912406
-0.00259486
-0.400087
0.0282164
0.0409825
-0.151182
-0.0387748
-0.112137
-0.0473558
-0.285537
-0.112104
0.00241008
-0.0221306
-0.141058
-0.170835
-0.274973
-0.0525164
-0.0388057
-0.0407116
-0.0638233
0.00293621
-0.0516219
-0.0338479
-0.127973
-0.0613686
0.0368557
-0.0164833
-0.16105
0.0240496
0.0211327
-0.0766854
0.0167417
-0.20717
-0.0489027
0.0145078
-0.114283
-0.0367281
-0.0609298
-0.239385
0.0113413
0.0709374
-0.076097
-0.119332
-0.0907939
-0.104211
-0.28411
-0.139699
0.0209955
0.0142244
-0.240128
-0.0750496
-0.0570884
0.0331547
0.052384
-0.374043
0.056876
-0.405713
0.0240008
-0.131079
-0.0852248
-0.406625
-0.0891271
-0.0433748
-0.340517
0.014433
-0.144208
-0.0138617
0.00492265
-0.1284
0.0101918
-0.0300039
-0.104785
-0.060135
-0.00428335
0.0209058
-0.0350084
-0.216368
-0.128104
-0.0717296
-0.0672903
-0.0460453
-0.237335
-0.0116616
0.0211393
-0.159529
-0.163205
-0.127927
0.0478903
-0.224394
-0.0467231
0.00133758
-0.161707
-0.00381275
0.0124449
-0.0253254
-0.110185
-0.170739
-0.116434
-0.158933
-0.040403
-0.0709014
-0.0645871
0.0577567
0.0760217
-0.114958
-0.03315
-0.346874
-0.0866876
-0.0970765
-0.0518917
-0.00959268
-0.0564861
-0.103792
-0.19972
0.0416465
-0.00243929
-0.00216852
-0.0398535
-0.103303
-0.205065
-0.273666
0.0110109
-0.0346839
-0.0985914
0.00595923
0.0269038
0.0276976
0.203092
-0.0524222
-0.405421
0.038964
-0.123331
-0.280041
0.0220835
-0.155166
-0.217581
-0.08823
0.029544
-0.121226
-0.0521072
-0.0790692
-0.0747924
-0.0301191
0.249632
0.0566495
0.0525064
0.0471398
-0.205784
-0.0148202
-0.160881
0.0276373
-0.00803722
0.00634191
-0.0543193
-0.0117184
-0.231286
-0.32846
0.0211297
-0.373391
-0.0202522
-0.00844416
-0.00630698
0.0542733
-0.0678077
0.0408902
-0.0575639
-0.237141
-0.402613
-0.399233
0.0121396
-0.0580306
-0.0121871
-0.0471195
-0.0615048
-0.203262
-0.391127
-0.0509488
-0.3447
-0.00437679
-0.00822428
0.0403046
-0.0158773
-0.125791
0.0395274
0.0307049
0.0530936
-0.0116811
-0.0477353
-0.0415155
0.00518542
-0.157
0.0343966
0.0253577
-0.0116323
0.0382812
-0.142431
-0.199921
-0.12938
-0.0886195
-0.336719
-0.118676
-0.406386
-0.242385
-0.00929142
0.0081822
-0.278327
-0.397606
0.0145313
-0.0507453
0.020659
-0.00677244
0.00279683
-0.398614
0.0803404
0.00273266
-0.242313
0.0128242
0.0796186
-0.160372
-0.054374
-0.0208722
-0.165025
-0.0124884
-0.0419368
-0.0570337
-0.0374196
0.0667853
-0.0772295
-0.0113791
0.00545121
-0.024842
-0.379271
-0.0558264
-0.00342575
0.00241656
-0.32491
-0.00824818
-0.117735
0.0391976
-0.0169855
-0.0251986
0.0096787
0.0444386
0.0297237
-0.016126
-0.0433403
-0.237413
0.0394755
-0.157442
0.0100752
-0.292833
-0.0255868
-0.284359
0.0195425
-0.204469
0.0149345
0.037776
-0.0409599
-0.120511
-0.129759
-0.0365368
-0.0252661
-0.323565
-0.0712943
-0.0166414
-0.12365
-0.0667091
-0.0193355
-0.258532
0.00246086
-0.239065
-0.240398
-0.0415631
-0.0801693
-0.127792
0.0236979
0.0922617
0.0146097
-0.0600054
0.033107
-0.0549853
0.12355
-0.0168958
-0.0497912
0.01544
-0.323523
-0.161401
-0.0546668
-0.0736915
-0.050721
0.024069
-0.0948629
-0.219904
0.0046993
-0.0573507
-0.1638
-0.140052
-0.02351
-0.29011
-0.0460719
0.00912018
-0.204221
-0.285854
0.0184784
-0.239417
-0.0453099
-0.191338
-0.0189334
-0.406336
-0.103763
-0.0424664
-0.0985556
0.0213972
-0.394413
0.152169
-0.0578004
0.019046
0.0163025
-0.0471492
-0.237689
-0.0383281
-0.226853
-0.141608
-0.019716
-0.0812107
-0.0536445
-0.172543
0.0183278
-0.40668
0.0784984
-0.228028
-0.163341
0.0388545
-0.379225
0.0505166
0.0187964
-0.0294424
0.0807522
-0.144329
-0.00385772
-0.0509429
0.0210068
-0.206972
0.139072
-0.0359065
0.0287274
-0.129079
-0.00129687
-0.377752
-0.0611053
-0.0583476
-0.0164006
-0.0195155
-0.399865
-0.151911
-0.242534
-0.118422
-0.118689
-0.39086
-0.149811
0.0749133
-0.13061
-0.0472096
0.0241775
-0.203447
-0.242187
-0.0316927
0.0438379
-0.0127402
0.0120394
0.014485
-0.11095
-0.166471
-0.154269
0.0111107
-0.0512679
0.0430364
-0.0575763
0.0121913
-0.138018
-0.399387
-0.249931
-0.23366
-0.0528134
0.012784
-0.167354
0.0129344
0.00770435
0.00852373
-0.0278905
0.0046695
-0.0731056
0.0708799
0.0713692
0.0169537
0.0572637
0.0288435
0.0145953
0.0663615
-0.177226
0.0285002
0.0342407
-0.399378
-0.395304
-0.0590245
-0.269262
-0.0609214
-0.00649338
-0.169441
-0.00226087
0.0107155
0.0169357
0.0122564
-0.0260697
0.245471
0.0131722
-0.0033405
0.013115
0.0166954
-0.251353
-0.0264754
-0.00784938
-0.0478015
0.0159751
-0.12802
-0.0060309
-0.344257
-0.131821
-0.0164574
-0.171284
-0.0633492
-0.159381
-0.120591
-0.174525
-0.267257
0.0384365
0.0252173
0.0705822
-0.0473576
-0.0816341
0.0247595
-0.401336
-0.373566
-0.0126841
0.00421775
0.0577931
0.19895
-0.0457513
0.0143329
0.0117263
0.0220023
0.00285408
-0.0667658
-0.216222
0.0192637
-0.375147
-0.0549819
0.0261281
0.00918326
0.00719917
-0.0970496
-0.068477
-0.36145
-0.137812
-0.0787895
-0.187355
-0.28188
-0.0554861
-0.394648
-0.0479839
-0.0752771
-0.0559844
-0.0454568
-0.200782
-0.0134496
-0.401699
-0.068665
-0.02364
0.0117953
-0.0138888
-0.163911
0.0186988
-0.234104
-0.0640839
-0.00857037
-0.370013
-0.000834134
0.0153158
-0.36759
-0.0351718
0.00413676
-0.0650025
-0.307114
0.0473734
-0.111706
-0.0402978
-0.153118
0.0346472
-0.00815328
-0.0414608
-0.211509
-0.237744
0.00119945
-0.0413266
-0.336942
0.0432494
0.00731597
0.0172905
0.103244
-0.012348
-0.0586301
0.077587
-0.210242
0.0326149
-0.0858599
-0.141804
0.0433397
0.00592002
-0.0967529
-0.142769
-0.157794
-0.166198
-0.0672838
-0.195416
-0.0447402
-0.0167502
0.0106296
-0.0824455
-0.0237462
-0.0125506
-0.0105599
-0.0565968
-0.247737
-0.0468291
-0.0941872
-0.239945
-0.0430342
-0.0884889
0.0262652
-0.00449919
-0.0121875
0.0143805
-0.0835909
0.0199608
-0.0284986
-0.152348
-0.205773
-0.0300685
0.0120642
0.0927034
-0.234488
-0.00148543
0.00149043
-0.234407
0.00397888
0.00593782
-0.121909
-0.0562947
-0.208534
-0.101495
-0.196489
0.00142943
-0.400315
-0.0750348
0.0150909
-0.172573
0.0198004
-0.156544
-0.0704759
0.0129348
0.000200422
-0.0468966
-0.158127
-0.286774
0.0144584
-0.0828089
-0.320387
0.134012
-0.320631
-0.208424
-0.35611
0.12679
-0.0363751
-0.178065
0.204555
-0.00534224
0.0134446
0.0780155
-0.165904
0.00382648
-0.0448545
-0.167593
0.082065
-0.0328463
-0.238852
0.0156645
-0.0970756
-0.392058
-0.17354
-0.119018
0.0111789
-0.0440607
0.0101777
-0.0447649
-0.0395887
-0.16152
-0.400908
0.0411405
-0.0787522
0.102146
-0.0473827
-0.00344252
0.033082
0.0468689
0.0113421
-0.16619
-0.297426
-0.0802861
0.168697
-0.0188296
-0.23172
0.00963766
-0.0231264
-0.0526195
0.0145183
-0.111789
-0.0451154
0.0053085
-0.0680249
-0.00447852
0.209962
-0.0740057
0.0123379
-0.404942
0.0337312
-0.101803
-0.315789
-0.230947
0.00532394
-0.165072
0.0149114
-0.0191926
0.015628
-0.360646
-0.0187525
-0.167637
0.0201694
0.0136365
-0.133005
-0.177454
-0.133309
-0.00317589
-0.0530869
-0.0988656
0.00819123
-0.015242
-0.402196
-0.339017
-0.0666845
-0.39483
0.0391512
-0.0475169
-0.11214
0.0109978
-0.152178
-0.400058
-0.174656
-0.0692444
0.0302076
-0.174476
0.00808822
-0.401676
-0.344026
-0.015136
-0.092295
-0.168898
-0.111207
-0.055283
0.00369456
-0.00836218
-0.00455076
-0.0645714
-0.200232
-0.23686
-0.0300749
-0.0760191
0.0379918
0.0502585
0.0947627
0.00320656
0.0326431
-0.000114541
-0.171058
-0.0159696
-0.0419372
-0.164355
-0.342801
-0.0994896
0.0412769
0.0153104
-0.200774
-0.237074
-0.209253
-0.00768746
-0.0344163
-0.0775757
-0.341438
0.0174298
-0.295845
0.0220862
-0.0281274
0.0320457
0.0326916
-0.205235
-0.177715
0.0203254
-0.0553321
-0.00997073
0.0120821
0.0330424
-0.401399
-0.112284
-0.395959
0.026136
-0.122292
-0.139208
-0.176851
-0.174297
-0.0470068
0.0374957
-0.313386
-0.00242154
-0.152686
-0.248467
0.0409303
0.0275027
-0.0358005
0.0143812
-0.0562565
-0.016272
-0.1219
-0.0753649
-0.00840527
0.0381627
-0.121576
-0.00748114
0.00595015
0.035284
-0.0284689
0.143817
-0.0960896
0.0153632
0.0134283
-0.0537322
-0.00817656
0.0128672
-0.0410325
-0.0454167
0.0127466
-0.0320961
0.0417546
0.0099233
0.00840196
-0.399848
0.010764
-0.0542694
-0.150008
-0.0129364
0.0121596
-0.076053
0.037659
0.00272051
-0.154123
-0.396942
0.0531186
0.0144916
0.0220858
-0.0558692
-0.0312088
-0.223355
-0.169758
-0.00522956
0.0356717
-0.299057
0.0771306
-0.234838
-0.0325067
-0.165148
-0.0265061
-0.111644
-0.269229
-0.24603
0.0323785
-0.0487258
-0.00232412
-0.0260503
-0.3776
0.129361
-0.288314
-0.0978401
-0.0540277
-0.0760519
-0.000935611
-0.322199
-0.210678
0.0253108
-0.30055
-0.0467261
0.00978948
0.0110105
0.0500526
-0.0495934
-0.0265001
-0.314897
0.0265021
-0.404767
-0.113161
-0.112198
0.0109702
-0.334647
-0.213042
0.0278222
-0.228724
-0.397587
0.0212274
-0.237353
-0.0648157
0.139737
-0.077691
-0.250876
-0.0221012
-0.036103
-0.234191
-0.0109196
0.0141199
-0.0115554
-0.0399305
-0.247491
-0.0689996
-0.0015738
0.0167698
0.0385373
-0.196617
-0.0728094
0.0122515
0.0262152
-0.394027
-0.332896
-0.129673
-0.39652
-0.090816
-0.029593
-0.23536
0.0181438
-0.096453
-0.0123247
-0.141379
0.0149282
0.214321
-0.0460263
0.0362046
-0.313492
0.00961175
0.140211
-0.272491
-0.134908
0.0182867
0.00924976
0.0261602
-0.197251
-0.211089
-0.128183
-0.0445079
-0.0968255
-0.0546848
-0.0855011
0.0178262
-0.131396
-0.020499
-0.0440175
-0.20123
0.0113246
-0.156783
0.0181585
-0.399771
-0.00303704
0.0417343
-0.222422
-0.0427342
-0.022186
0.0123293
-0.118169
-0.172999
-0.115233
-0.128703
-0.156249
-0.32862
-0.165683
-0.236343
-0.213902
0.0725106
0.00838577
0.00448252
0.114372
0.0575963
0.00949121
-0.0262091
0.014388
0.0219715
-0.0754283
-0.0113036
-0.160698
-0.0612869
-0.210601
0.0501555
-0.24638
-0.125378
-0.0160389
-0.175583
0.00853341
-0.250308
0.050285
-0.143133
-0.0504463
0.231566
0.00395961
0.0129307
-0.310429
-0.33499
0.0099677
-0.0755457
-0.0251302
0.009929
0.032731
-0.0639776
-0.360919
-0.186927
0.0495414
-0.0419235
-0.100255
0.0266271
0.141835
0.00977064
-0.132057
0.0309395
-0.00802961
0.0881173
-0.0304784
-0.0413374
-0.0507624
-0.000502403
0.0100626
-0.0504603
-0.050025
0.0380582
-0.100471
-0.00912327
-0.264981
-0.157792
-0.307086
0.0396384
-0.321656
-0.0514082
0.0414848
0.0124912
0.0108289
0.109608
0.0143047
-0.113985
-0.094867
-0.0191976
0.00526477
-0.00419911
-0.00608569
-0.105335
-0.064505
-0.177081
0.0619735
0.0101701
-0.0899357
-0.0878133
0.012329
-0.283131
0.0129225
-0.0493483
-0.0562314
-0.0102517
-0.00977146
-0.155082
-0.141847
0.00497631
-0.269426
0.0170686
0.000352922
-0.0258823
0.0303209
-0.0255803
-0.0372161
0.0532385
-0.399505
-0.211451
-0.143072
0.0371785
0.0702014
-0.0794444
-0.0935511
0.0276182
-0.00314257
0.0113191
-0.0255947
-0.364147
0.0421168
-0.2764
0.021033
-0.105718
-0.22024
0.0171897
-0.000291012
-0.052779
0.0201214
-0.0331551
-0.250121
0.0273969
0.0804066
-0.286961
-0.113295
-0.0122321
0.195517
0.0115123
-0.0777949
0.0570254
-0.0784361
-0.0270123
0.131264
-0.0392294
-0.0527192
0.0371839
-0.365012
-0.0462929
0.00511534
-0.00293893
-0.274338
-0.168652
0.01451
-0.0272012
-0.121859
-0.405918
0.000221223
0.0102536
-0.00987291
0.0252256
0.0131333
-0.0616553
0.012174
0.0423184
-0.3923
-0.397376
-0.00369866
0.0146659
-0.0574988
-0.0095998
-0.393503
-0.170041
-0.0354631
-0.0605197
-0.219125
-0.224482
0.080227
-0.191937
-0.119467
0.0273562
0.0122207
-0.0973207
0.00173168
-0.0336374
-0.129227
-0.0852791
0.0881641
-0.157798
0.0783071
0.137684
-0.239231
-0.401008
-0.00157895
-0.0429847
-0.0343019
-0.138246
-0.0284391
-0.0916676
-0.132627
-0.00207117
-0.118827
-0.0851293
0.0361816
-0.0110282
0.0197661
-0.158331
0.0151931
0.00988122
0.014443
-0.086327
-0.407089
-0.223692
-0.123993
-0.142844
0.00346662
-0.275745
-0.0683244
0.0270799
-0.0691469
-0.0981835
-0.0299256
-0.407205
-0.124222
0.101606
-0.158276
-0.123518
-0.089648
0.00295062
0.138682
-0.405509
0.0298007
0.0185669
-0.0732778
0.0320619
0.0198089
-0.113345
0.0705799
-0.0195063
0.0197348
-0.195926
0.00110475
-0.344695
-0.30216
-0.108334
-0.0165655
-0.201898
-0.0750614
0.0281574
-0.0639245
0.0299547
0.025306
-0.0374117
0.0203697
-0.000548441
-0.398936
-0.0572964
0.0391886
0.0106006
0.00986922
-0.251528
-0.175662
-0.00564723
-0.119371
-0.0685097
-0.210315
0.0252083
-0.0464336
-0.0143637
-0.00379885
0.00704286
0.0411471
-0.0926344
-0.154248
-0.21529
-0.0531863
0.0211672
-0.0131112
-0.395296
-0.0846151
-0.402439
0.222246
-0.0784267
0.0210887
-0.0519227
-0.0206619
-0.0723818
-0.168592
0.259675
-0.00250762
-0.0117655
-0.115058
-0.139728
0.00165748
-0.0878177
-0.189021
0.0089268
0.021311
-0.119355
0.0644989
-0.173967
-0.336728
-0.0403749
0.211052
-0.0426468
-0.115623
-0.363587
-0.00935848
0.0325961
0.110861
-0.0985295
0.0197182
-0.0916406
-0.078544
-0.0134342
-0.175026
-0.377186
-0.288197
-0.169486
0.015541
-0.0186304
-0.156758
-0.153252
-0.143469
-0.254209
-0.394675
-0.0814186
0.0997201
-0.00454272
0.0183728
0.0277854
-0.0137744
-0.1973
-0.0529669
-0.162831
0.00737386
0.0212931
0.00278984
-0.309817
-0.0606318
-0.00618144
0.00390588
0.224874
0.0353009
-0.154401
-0.345438
-0.404684
-0.299663
-0.154038
0.0216255
-0.0654076
0.056203
-0.238838
-0.122887
0.0183632
-0.171537
-0.15872
-0.0999772
0.00672123
0.061886
0.00770147
-0.353298
-0.170309
0.00437819
0.0325384
-0.0351972
0.0114527
-0.39835
-0.093755
-0.0619076
0.00895604
0.0224662
-0.155291
-0.0856615
-0.127473
0.0186373
-0.0265508
-0.110051
-0.00614039
-0.0660224
-0.153572
-0.00600355
-0.150306
-0.0746056
0.0209542
0.0406915
-0.261205
-0.0773707
-0.0484537
-0.0704086
-0.11836
-0.367332
0.00329498
0.0402222
0.0342084
-0.192999
0.0156662
-0.0543416
0.0325887
-0.0180252
-0.0601439
0.0127031
-0.0384389
-0.0410402
-0.0025223
-0.111762
0.0357453
-0.1731
-0.267013
-0.0999862
-0.401155
-0.0338564
-0.0406706
-0.142484
-0.00465446
0.0253074
-0.0476827
-0.124452
-0.0680926
-0.0471758
-0.081621
-0.0395948
-0.358332
-0.0188749
0.00820022
-0.00881236
-0.274206
-0.084433
-0.0398652
0.0527248
-0.0433581
-0.031327
0.0472468
-0.082955
-0.0918797
-0.0834226
-0.0394837
0.0124361
0.0279187
0.0200113
-0.0138457
-0.1344
-0.245626
0.0135432
-0.110467
0.00710752
0.0277915
-0.0816379
-0.0563087
-0.203161
-0.06849
-0.0999349
0.0077401
0.0315491
-0.135631
-0.100504
-0.285466
-0.245847
-0.0853495
0.00204322
-0.0529244
-0.397058
-0.00149478
-0.0987403
-0.0161054
0.0216255
-0.121131
0.0212328
-0.0398525
-0.103697
0.00521241
-0.0750558
-0.107916
-0.157049
-0.0897843
-0.121871
-0.12989
-0.00813482
-0.0724574
-0.193962
-0.0658284
0.0105467
0.028544
0.0194634
-0.0449277
0.00710048
0.020145
-0.153691
0.00739409
0.00550859
0.044183
-0.0766733
0.0432389
0.0257385
-0.176582
-0.0986495
0.00528008
0.0333074
0.0337486
-0.0609665
-0.258391
0.0202448
0.0364577
0.0174456
0.0104388
0.0847855
0.0710301
0.0416698
-0.0551537
-0.00293784
-0.133171
-0.0489794
-0.00253212
-0.195016
0.131482
-0.304283
-0.139456
-0.0330208
0.022428
-0.0375933
-0.101644
-0.366822
-0.0353337
-0.0523313
-0.289634
-0.0464872
-0.170852
0.0247086
0.015458
0.0568738
0.0294053
-0.3746
-0.274066
0.0114207
0.0249349
-0.0325405
-0.398511
-0.0126029
-0.0137096
-0.0370163
-0.0131303
0.0872744
-0.141008
0.0770224
0.0248182
-0.00241313
-0.170048
-0.0981478
0.0035472
-0.192371
0.113668
-0.13151
0.00837846
0.0462379
0.0409039
-0.0249708
0.00303395
-0.0372943
-0.0876192
-0.0756444
0.051723
-0.244618
-0.173851
0.0112142
0.0369124
-0.0535704
-0.353739
-0.0756227
0.0547203
0.0117774
-0.155516
-0.144074
-0.119262
-0.0790349
0.00558117
-0.113833
0.0194249
-0.0887673
0.0422559
0.0121372
-0.334206
-0.108479
-0.0759258
0.0720087
-0.3941
-0.0959413
-0.00162552
0.0508766
-0.309123
-0.0344787
-0.00885561
-0.0283902
-0.00462161
-0.365799
0.0144249
0.0248197
-0.354887
-0.0430429
0.0143915
-0.000559387
0.00472411
0.0234205
-0.0866135
-0.261584
0.26812
-0.0611441
-0.0977715
-0.197878
-0.0137488
-0.201505
-0.0850082
-0.251511
-0.085537
0.0755202
-0.0274388
0.0188043
0.0251408
-0.0377995
0.0478853
-0.0236693
-0.114679
-0.0723579
-0.0649767
-0.0556978
-0.0372103
-0.0810894
-0.364487
-0.0807159
-0.162766
-0.106531
0.00337558
-0.157187
-0.0664518
-0.0379033
0.00749951
0.0577909
-0.0435064
-0.0676927
-0.0682208
0.00899537
-0.367162
0.00224753
0.125704
0.0278406
-0.0248915
-0.00842671
0.0146928
-0.0405241
-0.0439476
-0.11936
0.00533581
-0.0580524
-0.0347048
-0.207577
-0.00980381
-0.159703
0.256627
-0.017703
0.0183448
-0.123084
-0.305989
0.0614797
0.208558
0.010305
-0.184434
0.00914654
-0.00636363
0.0515827
0.0380736
-0.0360684
-0.061657
-0.10499
0.0342822
0.0392907
-0.40324
0.0195629
-0.043862
-0.006154
-0.0137314
0.00469557
0.019271
-0.359276
0.00493064
0.0175712
-0.406648
-0.0285531
-0.0524033
-0.403066
0.0393893
0.0229098
-0.110838
-0.170531
-0.396988
-0.0607716
0.122115
0.0862826
-0.000459471
-0.369867
0.0329909
-0.0891698
-0.159206
-0.0853982
-0.0353428
-0.281076
-0.06115
0.00110252
-0.113221
0.00495561
0.00645284
-0.0633551
-0.301011
-0.110735
-0.160487
-0.403514
-0.0807664
0.0841183
-0.0731275
-0.0142163
-0.00106568
-0.00439693
-0.131572
0.0479096
-0.0614135
0.0109191
-0.0924425
-0.0557615
-0.0547228
0.0389335
-0.218222
-0.176896
0.0468353
0.0374084
-0.405204
0.0334733
-0.034498
0.00714891
0.0292772
0.0179803
-0.251455
-0.402713
0.025126
0.0232606
0.032905
0.0240082
-0.0406554
-0.109764
-0.165336
-0.094216
0.0142301
0.0099582
-0.161454
-0.140362
0.0126181
0.0178395
-0.244023
0.00846733
-0.191376
-0.0151716
-0.0157913
-0.0443111
-0.273237
0.00837352
0.0547457
0.0446329
0.103885
0.0129908
-0.277341
0.0190829
0.0840194
0.236317
-0.0250314
-0.28805
-0.385895
-0.000126709
-0.0940181
-0.000301288
-0.0938593
-0.243948
0.118044
0.010152
0.0960408
-0.244476
0.0160776
-0.0760225
-0.0361191
0.0586123
-0.124225
0.0188674
0.00716147
0.117288
-0.03841
0.0108306
-0.118875
-0.00455401
-0.153622
-0.252337
-0.0285005
-0.195806
-0.144269
-0.0676801
0.0620288
0.0285988
0.00973891
-0.0531863
-0.168245
-0.00784537
-0.00113134
-0.0249147
-0.0345949
-0.124507
-0.0555408
-0.388868
-0.00844489
-0.0133398
0.164285
-0.00926034
-0.125059
0.032825
0.015661
-0.400768
0.00588406
-0.0564905
0.00451457
0.0243834
-0.0769391
0.0058016
0.0088896
0.00279965
0.0154339
-0.23985
0.246791
-0.195826
-0.147524
0.0946118
-0.108211
-0.0793289
0.0702554
-0.316011
-0.372767
-0.0840875
0.0172246
0.0113947
-0.0967687
-0.314338
-0.150573
-0.0274438
0.00368797
-0.251173
-0.216712
0.0331318
-0.0780467
-0.0486718
-0.124908
-0.118411
0.0123643
-0.07084
-0.16987
0.00265876
0.017062
-0.178221
-0.307357
-0.191107
-0.395549
-0.0345742
-0.128795
0.0250489
-0.196225
0.0773228
-0.0549843
0.119004
-0.314974
0.0112466
-0.00452194
-0.0466783
-0.137901
0.00866188
-0.393909
-0.124138
-0.0742105
0.014876
0.0145673
-0.167083
0.00551063
-0.0822082
-0.053988
-0.304655
-0.194191
-0.214376
-0.0561152
0.0168249
-0.00524075
0.0603914
-0.396602
-0.0595865
-0.0830938
-0.166001
0.0274473
0.0540459
-0.20289
0.0269108
-0.22342
-0.0134395
-0.0659271
-0.104174
0.0105215
-0.0632002
-0.0286986
-0.0676534
-0.0897432
-0.0227288
-0.170857
-0.080264
-0.191422
-0.343711
-0.254431
-0.402036
0.0390438
-0.14271
-0.075265
-0.296042
0.00339003
0.00232983
0.059584
-0.143207
-0.143074
-0.040802
-0.013163
0.0256395
-0.102211
-0.296328
0.0253911
0.0257418
0.0477364
-0.0078019
-0.15816
-0.346684
0.020144
-0.231304
-0.378673
-0.100984
-0.399276
-0.123575
0.0303935
-0.00407506
-0.0088397
-0.0419243
-0.0694453
-0.0504447
0.0446803
-0.0643942
-0.0362716
0.00276834
-0.00611268
-0.14944
-0.397568
0.0103605
-0.0930797
-0.16048
0.0603217
-0.00274988
-0.132483
-0.263081
-0.132587
0.0121301
0.0104359
-0.22117
-0.135269
-0.0362161
0.0270164
-0.0423566
-0.192851
-0.0509487
0.025347
-0.0432913
-0.237042
-0.00407811
-0.373842
-0.0252378
-0.233718
-0.0398959
0.0637245
-0.00266019
-0.078392
-0.0427329
0.0256469
-0.0819128
0.0197378
0.208696
-0.166877
-0.211209
-0.140079
-0.0164753
-0.014958
-0.402285
-0.0230081
-0.40669
-0.328762
0.0195293
0.0130862
-0.0668272
-0.223058
-0.399429
-0.186546
-0.0416301
-0.0165608
-0.00911429
-0.138628
0.00432917
-0.0635647
0.0218823
-0.0797708
-0.174099
-0.00812246
-0.0736663
-0.185412
0.0315792
-0.0221188
-0.105522
-0.188671
-0.3956
-0.0166775
0.0479155
0.00936265
0.0191198
0.0731647
0.0455206
0.044291
-0.0632087
-0.179452
0.00881672
-0.147827
0.111256
-0.0156988
-0.257377
-0.163107
-0.385835
-0.202185
0.0836005
-0.0935556
0.0190954
0.00743026
0.0152565
0.0207889
-0.00703112
0.0551521
-0.207054
-0.342163
0.0210287
0.0121238
-0.373779
-0.128217
-0.143399
-0.0650292
0.0157616
-0.0288431
-0.0885469
0.232586
-0.0536666
-0.213891
0.13881
-0.0556419
-0.251295
-0.0839027
0.0397691
-0.106526
-0.0140739
-0.134807
-0.343725
-0.183051
-0.145941
-0.396011
-0.037232
-0.22856
-0.0383254
-0.0399616
-0.0362363
-0.0381548
-0.0360804
-0.248766
-0.0915977
-0.164798
-0.0356027
0.0386129
0.0250977
-0.049122
0.0293547
-0.242749
0.0438401
-0.0624872
-0.0139469
-0.00189781
0.00336877
-0.0562324
-0.0806846
0.0410519
0.0270541
0.0776474
0.0261567
0.241919
-0.0123552
0.00947079
0.000942073
-0.0525019
-0.113782
0.170341
0.0137525
0.00868789
0.023334
0.0257209
0.0829952
-0.0630894
-0.0729993
0.0260185
0.0412511
-0.258637
0.0130185
-0.214825
0.0275009
0.0257438
-0.217348
-0.0484282
-0.034684
-0.226037
-0.00536693
-0.0736314
-0.405194
0.0304391
0.0120726
0.0378249
0.0794401
-0.0159007
-0.0808326
-0.0856642
-0.123518
0.0249084
-0.0863357
-0.124595
-0.158625
-0.0211707
0.0101595
-0.0093056
0.107335
-0.248633
0.0257991
0.0555472
-0.0918804
-0.0538178
-0.00565406
-0.208785
-0.111509
0.0376134
0.0147661
-0.150569
0.0115189
-0.0054357
-0.12771
-0.396233
-0.0532109
0.011952
0.00445811
-0.0705366
-0.0624052
0.00291231
0.00361546
-0.0520263
-0.159855
0.047016
-0.148655
-0.00807996
-0.0669407
-0.0963378
0.0204056
0.0190706
0.0255031
0.0724044
-0.375435
0.00713853
-0.289767
0.0146375
0.0465873
-0.0726861
-0.0390067
0.0403685
-0.0516075
-0.197557
-0.369215
-0.0280602
-0.0121841
-0.248127
0.00588616
-0.162239
-0.0626888
-0.0524827
-0.261287
-0.0647749
-0.368504
0.0345207
0.0253123
0.0251917
0.0377414
-0.143929
-0.24699
0.0055339
0.0130686
0.0148285
-0.191765
0.039913
0.014629
-0.156459
0.0199946
-0.0539812
-0.148285
-0.00975232
-0.100332
0.0171834
0.00964719
0.00836366
0.0921992
-0.00991243
-0.022458
-0.0160398
-0.127
-0.341979
-0.0452
0.0186336
-0.0730894
-0.0613707
-0.019756
0.0121292
-0.0338723
-0.00180612
-0.0920731
-0.032395
-0.0278735
-0.0209949
-0.174297
-0.173419
-0.0083474
-0.0362611
-0.0289364
-0.126389
-0.0822672
-0.172418
-0.088312
-0.121955
-0.0254444
-0.350432
-0.0109196
0.0225707
-0.0102616
0.0261242
-0.137142
-0.0530502
-0.333798
-0.125993
0.0156197
-0.0267173
-0.0501488
0.0756442
0.0203448
-0.126665
-0.344974
-0.207984
0.0619302
-0.280958
-0.0407903
-0.272935
-0.28465
-0.14999
-0.148108
-0.184918
0.00837958
0.0174917
0.063101
-0.0629867
-0.0672928
-0.0272039
0.078564
-0.00447738
-0.00302641
0.154529
0.00816259
-0.0119988
-0.0366134
-0.0405732
-0.0350227
0.0217231
-0.0672815
-0.0755273
-0.0423704
-0.0016613
0.0319141
-0.257775
-0.18392
-0.00422274
-0.1721
-0.407416
-0.036128
-0.0030448
-0.086864
-0.258022
-0.349736
-0.117364
-0.0389746
-0.345151
-0.122911
0.0286063
-0.0128254
-0.130574
-0.052035
0.122308
-0.0678532
-0.0500489
0.00594055
-0.0404982
-0.0360909
0.193634
-0.0738915
0.0409509
-0.0616342
-0.18116
0.00220351
-0.0014237
-0.121481
0.0384797
-0.0900751
0.012182
-0.000997116
0.0640873
0.0468007
0.0226654
-0.0384479
-0.0428936
-0.152668
-0.314531
0.0125096
0.00720537
-0.0175863
-0.109134
-0.000734253
-0.00927748
-0.207392
-0.0899481
-0.340291
0.0288703
-0.0713569
0.0145235
-0.0670305
-0.398434
-0.015905
-0.111467
-0.170191
0.0219932
-0.223791
-0.359469
-0.276995
0.131801
-0.162885
0.0980255
0.180436
-0.0874628
-0.144135
-0.0833606
0.017162
-0.262834
-0.0795005
-0.145745
0.00961914
0.0233812
0.0409214
-0.0136439
0.0458316
-0.17507
-0.140323
0.0860075
-0.00524804
-0.083223
0.0232045
-0.242594
0.0999252
-0.130624
-0.0108531
0.0169911
-0.161432
-0.249615
-0.0499254
0.0226342
-0.0516264
-0.17421
-0.194095
-0.0166372
0.0266463
-0.152666
-0.065563
-0.00483991
-0.0559577
-0.0543705
-0.000100674
-0.0265953
-0.172248
-0.14666
0.00374162
0.00106579
-0.212689
-0.0427834
-0.0604942
-0.0696366
0.023378
-0.177839
0.000497551
-0.0280934
-0.0589204
-0.0720474
-0.00502074
-0.00430274
-0.370259
-0.0139556
-0.0452375
-0.0416972
-0.000755155
-0.0535229
0.00165503
-0.0686056
-0.120737
-0.407277
-0.148422
-0.00166937
-0.19265
0.109806
-0.39648
-0.22822
-0.268345
-0.402433
-0.172917
-0.254436
-0.0508735
-0.16458
0.130929
0.0581205
0.0309581
0.0064144
-0.379376
0.0114365
-0.00152206
0.0327066
-0.082534
-0.39608
0.129373
0.00191684
0.0489749
-0.0216047
0.0561633
-0.0381287
-0.110998
0.025786
0.0457279
0.00593326
0.0522083
0.0674767
-0.256983
0.0125825
-0.0826385