/*--------------------------------*- C++ -*----------------------------------*\
| =========                 |                                                 |
| \\      /  F ield         | OpenFOAM: The Open Source CFD Toolbox           |
|  \\    /   O peration     | Version:  v2012                                 |
|   \\  /    A nd           | Website:  www.openfoam.com                      |
|    \\/     M anipulation  |                                                 |
\*---------------------------------------------------------------------------*/
FoamFile
{
    version     2.0;
    format      ascii;
    class       surfaceScalarField;
    location    "100";
    object      phi;
}
// * * * * * * * * * * * * * * * * * * * * * * * * * * * * * * * * * * * * * //

dimensions      [0 3 -1 0 0 0 0];
oriented        oriented;


internalField   nonuniform List<scalar> 
79099
(
0.0422055
0.0570132
-0.0992187
-0.0489747
0.0454953
0.00347941
-0.0965561
0.0907877
0.0057684
-0.0399861
0.0452494
-0.00526331
-9.13508e-05
-0.00092386
0.00101521
0.00153653
-0.00261282
0.00107629
-0.043684
0.0725273
-0.0288433
-0.0541916
0.0963971
-0.0451327
0.0666765
-0.0215438
0.059037
0.0543077
-0.113345
-0.0592647
0.0639735
-0.0047088
0.0336594
-0.055693
0.0220337
0.0192927
-0.0124969
-0.00679578
0.0353107
-0.0340101
-0.00130051
0.0724234
0.0500135
-0.122437
-0.100957
0.187639
-0.0866824
-0.0840791
0.137486
-0.0534068
-0.189336
0.088379
-0.015655
0.016327
-0.00067203
0.067779
-0.122261
0.0544818
0.145795
-0.0687696
-0.0770258
0.0699822
-0.0454187
-0.0245635
0.110381
0.125372
-0.235753
-0.0694654
0.0257814
0.068571
-0.130716
0.0621447
-0.0479101
0.0413832
0.00652695
0.00231633
0.0329943
0.0984592
-0.062118
-0.0363412
-0.0476187
0.00449723
0.0431214
-0.0370604
0.0556883
-0.0186278
-0.0433425
0.0399476
0.00339491
0.00798247
-0.037383
0.0294005
-0.00044762
0.000957245
-0.000509624
0.0563227
0.0803902
-0.136713
0.351664
-0.191517
-0.160147
-0.0719563
0.0211248
0.0508315
-0.0175138
0.0907004
-0.0731866
0.104382
0.191403
-0.295785
-0.072549
0.0238453
0.0487037
0.0441488
0.0643882
-0.108537
-0.100579
0.0830654
-0.0270742
0.0301456
-0.00307136
0.0663002
-0.0598692
-0.00643098
-0.00894349
0.00533973
0.00360376
0.127641
-0.059862
-0.0866117
0.184533
-0.0979212
-0.0695595
0.18257
-0.113011
-0.163933
0.0942306
0.0697026
-0.00295986
-0.0474824
0.0504423
-0.291528
0.182563
0.108965
0.227425
-0.32676
0.0993345
0.0144912
0.0516573
-0.0661485
-0.0456677
-0.050574
0.0962418
-0.250883
0.165419
0.0854639
-0.0876904
0.0556982
0.0319922
0.000908645
-0.0165636
0.0610277
-0.125985
0.0649574
-0.174112
0.313312
-0.139199
-0.0423547
0.0501811
-0.00782638
0.0403627
-0.0860008
0.0456381
0.151395
-0.100376
-0.0510198
0.0205057
-0.0901873
0.0696816
-0.0201181
0.0264476
-0.00632958
-0.000391484
-0.00642757
0.00681905
0.0297703
0.0175764
-0.0473467
0.198747
-0.118323
-0.080424
-0.0570595
0.019999
-0.208976
0.139416
0.18595
-0.314852
0.128902
-0.116336
-0.0532288
0.169565
-0.00310335
0.0138854
-0.010782
0.24578
0.0290662
-0.274846
-0.134667
0.104294
0.030373
-0.00031595
-0.000131671
-0.0439983
-0.0039118
0.320186
-0.214144
-0.106042
-0.0659051
-0.226696
0.292601
0.0025626
-0.00102607
0.0786583
-0.208605
0.129946
-0.00870602
0.00560266
-0.00286652
0.000253704
-0.0236277
0.0119438
0.0116839
0.0527384
-0.051027
-0.00171139
-0.0560704
0.0258935
0.0301769
0.090145
-0.0485088
-0.0416361
-0.196999
0.0806624
-0.027413
-0.0105849
0.037998
-0.068923
0.0237903
0.0692714
0.129476
-0.0398196
0.0869204
-0.0471008
0.00305009
-0.00611845
0.00306837
0.00173081
-0.00306597
0.00133516
-0.0112684
-0.0123594
0.0604264
-0.00533017
-0.0550962
-0.000587351
0.0287988
-0.0282115
0.00832758
0.0443081
-0.0526357
0.0182794
-0.00105193
-0.0172275
-0.0149984
-0.0815577
0.0360572
-0.0397186
0.00366132
-0.0272098
0.0070917
-0.0612331
0.116922
-0.0727728
0.00597808
-0.0539994
0.0480213
0.0517752
0.0466839
0.0974006
-0.0536802
-0.0437204
0.00443902
-0.00284907
-0.00158995
0.000322474
-0.00210622
0.00178374
-0.0143783
-0.057578
-0.0290803
-0.0223818
0.0514621
0.298703
-0.0529226
0.0354274
0.0157823
-0.0512097
0.0181239
-0.0386574
0.0205334
0.20832
-0.274225
0.0293628
-0.0299502
-0.0239774
0.00128631
0.0226911
0.291041
0.00146206
-0.292503
0.0412282
-0.117305
0.076077
0.0975464
0.125659
-0.223206
-0.0435139
-0.00145327
0.00161689
-0.0050074
0.00339051
0.000932621
-0.00102397
-0.0386028
-0.0960643
0.0279725
-0.0944629
0.0664904
0.0424436
-0.0195705
-0.0228732
-0.00236838
-0.000498148
-0.178362
0.110678
0.0676842
-0.00455538
0.00669383
-0.00213845
0.047909
0.00141901
-0.049328
0.0291404
-0.0922761
0.0631357
-0.0495377
-0.075443
0.124981
-0.0314104
0.0393929
-0.0682845
0.166222
-0.0979372
-0.0300918
-0.0259786
-0.0733518
-0.035973
0.109325
0.0766934
-0.213472
0.136778
-0.0455278
0.00317311
-0.156388
0.268954
-0.112566
0.0108376
0.0084551
0.0816
0.0772507
-0.158851
0.10845
-0.191885
0.0834355
0.224237
-0.138558
-0.0856794
0.0946716
-0.186922
0.0922506
-0.0228519
0.064237
-0.041385
0.0186128
0.0191754
-0.0377882
0.0903078
-0.0611674
0.0268468
-0.0983638
0.071517
-0.0614747
0.102703
-0.0638582
0.216513
-0.152655
0.0600654
-0.194135
0.13407
0.0608128
-0.134143
0.0733298
-0.294557
0.224645
0.0699117
0.015773
0.0106746
-0.000358134
-0.000565725
0.0346601
0.0353221
-0.280114
0.0942259
0.185888
-0.0961303
0.0504626
0.0332054
-0.0219252
-0.0112802
-0.00888771
0.0019824
0.00690531
0.0561922
-0.134536
0.0783435
0.050533
-0.0569566
0.00642354
0.0680732
-0.0663354
-0.00173776
-0.151666
-0.139862
0.262847
-0.152559
-0.110288
-0.00137559
0.0031064
0.0522973
-0.121525
0.0692278
0.170387
0.128121
0.0867398
0.0966662
-0.183406
-0.0841892
0.0929485
-0.00875937
-0.0557653
-0.170119
0.225885
-0.0377353
0.116401
-0.078666
0.105395
-0.0570036
-0.0483914
-0.0203312
0.0195763
0.000754912
-0.0284536
0.026168
0.00228561
0.128859
-0.220017
0.091158
0.0116207
0.0308229
-0.0973649
0.191591
-0.094226
0.0232092
0.0669358
-0.0551671
0.0634947
0.0220139
-0.0494269
0.0438885
-0.0762827
0.0323943
0.10384
-0.0758678
0.132461
-0.0801634
-0.00441442
-0.00452907
-0.0702174
-0.0426944
0.112912
-0.0307323
0.0643917
0.00798956
-0.00838104
0.0215719
-0.0251148
0.00354293
-0.00851817
-0.0199354
-0.00331476
0.00175542
0.00155934
-0.235298
0.17144
0.0331105
-0.0149866
0.0857775
0.0349434
-0.120721
0.015314
0.0268633
-0.0421773
0.00313052
-0.00151363
-0.179353
0.0570601
0.122293
0.0250217
0.105741
-0.130763
0.0635263
0.0410811
-0.104607
-0.224014
0.146398
0.0776165
0.299689
-0.155318
-0.144372
-0.082524
0.0728432
0.00968086
0.0331671
-0.072876
0.0397089
0.170769
-0.0626743
-0.108095
0.0310978
-0.0933221
0.0622243
-0.0854243
-0.0751089
0.160533
0.0418764
-0.0541286
0.0122522
-0.00192458
0.0018721
5.24757e-05
0.0638325
-0.126099
0.0622665
0.286742
-0.180438
-0.106304
-0.0524322
0.0717512
-0.0193189
-0.0971454
0.214618
-0.117472
0.00157951
-0.00125704
-0.0546249
0.120206
-0.065581
0.050631
-0.047837
-0.00279405
-0.0722087
-0.0170604
0.0892691
0.0344077
-0.063488
0.105395
0.0727292
-0.178125
0.176259
-0.285829
0.10957
-0.137218
0.247599
-0.0683853
0.0503807
0.0180047
-0.0522557
-0.0816822
0.133938
0.0461294
-0.0530184
0.00688893
0.300555
-0.123235
-0.17732
0.00161602
0.05123
-0.052846
0.120651
0.179904
0.0664051
-0.133665
0.0672597
-0.0597912
0.0618695
-0.00207829
0.127348
-0.0686455
-0.0587028
0.0178938
-0.0649108
0.047017
0.090413
-0.0623849
-0.0280282
0.0500819
0.174156
0.00487962
-0.00545316
0.000573539
-0.0313439
0.0328792
-0.00153533
-0.249116
0.120618
0.128498
0.0182609
0.00902882
-0.0272897
0.0765356
-0.0503295
-0.0262061
0.00275737
0.00168165
-0.0463387
-0.0843343
0.130673
0.198063
-0.12137
0.00169758
0.0036696
-0.00536717
-0.0944265
-0.0933594
0.187786
-0.1673
0.0990151
0.129688
-0.0733657
0.0595226
-0.0290727
-0.0304498
0.122881
-0.0620683
0.0588966
-0.117574
0.0586778
0.315867
-0.194447
-0.121419
0.0447788
0.0136471
-0.0584259
0.0478222
-0.00169278
-0.229552
0.151214
0.078338
0.0878307
-0.047468
0.14996
-0.107898
-0.0420621
0.11967
-0.0569707
-0.0626991
-0.110521
-0.049152
0.159673
-0.0610311
-0.021493
0.0574382
-0.137275
0.0798373
0.0216576
-0.0263608
0.00470317
0.0440041
-0.0253913
0.0667192
-0.147489
0.0807701
-0.0613624
-0.00702291
0.0646137
-0.136562
0.0719485
-0.0237546
-0.0205954
0.0443501
-0.0425609
-0.00296691
-0.101921
0.0177321
0.332389
-0.16469
-0.167699
-0.0677114
-0.0857002
0.153412
-0.0386654
0.0389811
-0.000315722
-0.0205347
0.00867836
0.0118563
-0.193213
0.21965
-0.0264374
0.0234715
-0.00189959
-0.0515977
0.0532137
-0.135455
-0.0881056
-0.119666
0.0463141
0.0775835
0.0464677
-0.124051
0.026568
0.0329545
-0.00148717
0.00180571
-0.000318536
-0.288708
0.188753
0.0999552
0.0525597
-0.0106832
0.00603881
8.11525e-05
-0.00611997
-0.0929426
0.0368561
0.0560865
-0.0924918
-0.0568421
0.149334
0.233147
-0.107774
-0.151148
0.25553
-0.0635461
-0.0293965
-0.0173655
0.0602351
-0.0428696
0.108883
-0.0324839
-0.0763993
-0.0328465
-0.0397025
-0.00735388
-0.0641305
0.0714843
0.00577924
-3.04865e-05
-0.00574876
0.0423179
-0.0596834
0.0475194
-0.117737
0.0520024
-0.0422091
-0.00979323
-0.0127016
0.012157
0.000544595
-0.0755389
0.00876428
0.0667747
-0.0328372
0.00866456
0.0241727
0.0180565
-0.0486967
0.0306402
0.125435
0.194751
-0.0339748
-0.0453902
0.079365
-0.0377874
0.0553749
-0.0175874
-0.0034572
-0.0544796
0.163401
-0.108921
-0.010568
-0.0649709
-0.00161534
-0.00169942
0.00102876
-0.00187619
0.000847425
-0.00155828
-0.000366304
-0.105686
-0.155249
0.260934
-0.0528804
0.00390566
0.0765849
-0.107095
0.03051
0.143901
-0.0771819
0.238302
0.0527385
0.0527131
-0.0646147
0.0119016
0.00487976
-1.42685e-07
-0.0496332
0.0474112
0.00222202
-0.0349678
0.0419439
-0.00697616
0.00115152
-0.001553
0.000401474
-0.0752601
0.0456496
0.0296105
-0.0747676
0.0223353
0.147801
0.150706
-0.257958
0.195876
0.0620821
-0.176062
-0.112646
-0.0428878
-0.0400437
0.0829315
0.0147499
-0.0525373
0.00241329
-0.0294875
-0.0887533
0.0177805
0.0709727
0.00176825
-0.000616729
0.0160557
0.0359466
-0.127858
0.0892548
0.0188129
0.0143925
0.0284202
-0.0850361
0.0566159
-0.213672
-0.0664415
-0.104227
0.0718634
0.0323635
-0.00259505
0.00454048
-0.00194543
-0.0882054
-0.091148
-0.0876153
-0.166289
0.253905
0.152311
-0.0844089
-0.067902
0.266693
-0.14373
-0.122963
-0.108289
0.225202
-0.116913
0.0409948
-0.0256808
-0.343563
0.240176
0.103387
0.000844299
0.0174352
0.113327
-0.0893848
-0.0239424
0.227982
-0.315597
0.249217
-0.150395
-0.0988224
0.0526891
0.0153841
-0.154765
0.136129
0.0186354
0.12291
-0.0504866
-0.0379274
-0.000737991
0.0499026
0.0226248
-0.000792046
-0.00185072
0.00264277
0.0011556
-0.0437165
0.00119045
-0.00123137
4.09238e-05
0.0540353
-0.0498586
-0.0041767
-0.000454753
0.00127921
-0.000824454
0.0892626
-0.135601
-0.122402
0.22674
-0.104339
-0.00320909
0.0040776
-0.000868509
0.0190315
-0.0194544
0.000422889
0.169198
-0.105121
-0.0640771
-0.094728
0.18412
-0.0893923
-0.0430399
0.0192853
-0.007664
-0.0128707
-0.0941332
0.159278
-0.0651444
0.0450235
-0.0523773
0.0742269
0.0661409
-0.140368
0.00291933
-0.00300902
8.96873e-05
0.0820925
-0.0477411
-0.0343514
-0.00255659
-0.00925426
0.0118108
-0.327818
0.178131
0.149687
-0.0631508
0.0971276
-0.0339769
-0.110435
0.0413722
0.0690626
-0.0525785
0.109785
-0.0572069
0.0204155
0.00305603
-0.134967
0.0894023
0.0455646
-0.0194525
0.046701
-0.0272485
0.0489865
-0.00116427
0.0361153
0.0459772
0.121787
-0.0579542
-0.0043224
0.0601186
-0.0557962
0.025869
0.0152164
-0.0410854
0.00401331
-0.00404271
0.00144766
-0.29691
0.296055
0.000854289
-0.0766608
0.127754
-0.051093
-0.0636291
0.10163
-0.0380011
0.12011
-0.0554962
-0.0253502
0.0176862
0.13883
-0.247162
0.108332
0.0824954
0.0632999
-0.011382
-0.00131958
0.0567341
0.112464
0.0268566
-0.0275797
0.000723088
0.00681584
-0.00077703
0.116415
-0.274391
0.157976
0.0254733
-0.102134
0.043635
0.0571877
-0.100823
0.146371
-0.0808732
-0.0654981
-0.0667154
0.100394
-0.0336784
0.190116
-0.0816659
0.0405976
0.035938
-0.0388925
-0.0191111
0.0580036
0.00217016
-0.0011414
-0.0127676
-0.0759856
-0.0626373
0.0910575
-0.0617809
0.130352
0.00136953
-0.00216158
-0.154677
0.0989115
-0.132806
-0.118077
0.0634582
-0.0475157
-0.0159424
0.128621
-0.0622155
-0.0263658
-0.128399
0.0992667
-0.0681689
-0.141516
-0.186302
0.0635218
-0.0384783
-0.0250435
-0.0359992
0.275967
-0.239968
-0.0791762
0.145014
-0.065838
-0.0492148
-0.0676706
0.116885
-0.00195732
0.188143
-0.308474
0.120331
0.00244369
0.000475641
-0.157389
0.0741034
0.0832855
-0.0564822
-0.101957
0.158439
0.125726
0.109783
-0.235509
0.144478
-0.0922094
-0.0522688
-0.0243412
0.0682297
0.0254171
0.0841981
-0.109615
0.00226604
-0.0452742
0.0430082
-0.160355
-0.134201
0.116041
-0.0966093
-0.0194318
0.0438389
-0.0945055
0.0506666
0.0449791
0.00905616
-0.32034
0.144278
-0.017384
-0.0259586
0.00095229
-0.00189569
0.0009434
-0.0408057
-0.000678452
0.0414842
0.0945401
0.0472531
0.00397125
-0.0512244
0.0804903
-0.0759314
-0.00455885
-0.0063668
0.000289427
0.00607737
0.0269949
-0.064254
0.0372591
0.0218766
-0.00146112
0.0754842
-0.0484894
0.0398666
-0.233079
-0.0421987
0.0550172
-0.0128185
-0.0201805
0.0499508
-0.0406548
-0.041958
0.0826128
-0.0972137
0.0802996
-0.0542541
-0.0260455
-0.00349759
0.00234862
0.00114897
-0.0428331
0.00202736
0.094998
-0.0681512
0.0100832
0.0178697
-0.0279529
-0.00767914
0.0077603
0.0931501
-0.00319301
-0.0899571
-0.00178088
0.00132612
0.050112
-0.0729639
-0.054448
-0.102941
0.0570185
-0.0593366
0.00231816
0.120948
-0.084462
-0.0364859
0.114325
-0.190607
0.0762827
0.326828
-0.159559
-0.167269
-0.172514
0.299911
-0.127397
0.051158
-0.0520463
0.00088826
-0.00380621
0.00197608
0.00183013
-0.142209
0.095399
0.0206421
0.0436888
0.00529772
-0.100834
0.0559099
0.0449239
0.0710796
0.0996892
-0.00608309
-0.00028371
0.17191
0.0338216
-0.205732
0.0721818
-0.132159
0.0599767
-0.0583993
0.0142787
0.0441206
-0.0586812
-0.0517537
0.0913833
-0.0396081
0.0121868
-0.0147434
-0.0551481
0.0475159
0.00763223
0.0610377
-0.0619104
0.000872641
0.0625506
0.0838207
0.0736663
-0.0399821
-0.0139593
0.0539414
0.0139889
-0.0146466
0.00065775
0.0437396
0.00625094
-0.0499905
0.043503
-0.0513548
0.00785178
-0.0607685
-0.0468119
0.10758
-0.0816343
-0.0533326
-0.0616384
0.0123924
0.049246
0.240944
-0.115218
0.128785
-0.103663
-0.0251221
0.103874
-0.0602386
-0.0719232
0.0367146
0.0352086
0.0462223
-0.0876328
0.0414105
0.026234
0.0614631
-0.0876971
0.112224
0.0387351
-0.150959
0.000478578
-0.000472003
-6.57449e-06
0.292478
-0.165114
-0.127364
-0.169671
0.0749427
0.0438162
0.0101715
-0.0539877
0.31043
-0.191342
-0.119087
-0.00119379
-3.51548e-05
0.00122894
0.0514644
0.0389487
-0.274639
0.00798848
0.266651
0.0367607
-0.0796485
-0.0796156
-0.0843175
0.027389
-0.00912812
-0.063269
0.0649436
-0.00167462
0.29355
-0.194434
-0.099116
-0.0487155
0.0152023
0.0335131
0.0570135
-0.0131973
0.0298272
-0.0767944
0.0469672
-0.0721845
-0.0286493
-0.0619571
0.0576347
0.00411485
-0.00288187
-0.00123298
0.0661529
-0.0213098
-0.0448431
0.225553
0.0340773
-0.259631
-0.272268
0.0848513
0.187417
-0.0448681
-0.0184009
-0.0123667
0.013543
-0.00117631
-0.0458871
0.0985041
-0.0526171
-0.067408
0.114927
0.148513
-0.0792532
-0.0692595
0.00171205
-0.00574583
0.00403378
0.13148
-0.0878409
-0.0436394
-0.00442271
0.0036823
0.000740403
-0.152094
-0.105864
0.033563
0.037182
-0.070745
0.019869
-0.0834981
0.000187633
-0.00409778
0.00391015
0.0407476
-0.0753092
0.0345616
-0.067824
0.0883296
-0.0480317
0.0396691
0.00836263
0.0389944
-0.313634
-0.01661
-0.0404495
0.170082
-0.110017
-0.147583
0.294062
-0.146479
0.002022
-0.0107589
0.00873688
-0.170635
0.0601135
0.106247
-0.0812252
0.0861909
-0.0639433
-0.0222476
-0.116431
0.0731632
0.0432679
0.100924
-0.180147
0.0792228
0.0994999
-0.192239
0.0927389
0.0413145
-0.0549587
0.0136442
-0.00074405
-0.000143359
0.000887409
0.0788212
-0.0613716
-0.0174496
-0.0333219
0.094701
-0.0613791
-0.00422039
-0.0286168
0.0978013
-0.0539624
0.0560446
0.00889893
-0.183531
0.0891041
0.187185
-0.0876855
0.0719835
-0.0685233
-0.00346019
-0.00301877
-0.000167401
0.00318617
-0.0466884
0.0451272
0.00156118
-0.0862396
-0.0296579
0.115898
0.0240316
-0.0230249
-0.00100675
-0.120032
0.0697636
0.050268
0.258474
-0.0725241
-0.000641941
-0.00824576
-0.0987069
0.0319915
-0.151049
0.0701179
0.0809314
0.0586028
-0.128907
0.0703041
0.0411143
-0.0892723
0.0481581
0.0140732
-8.43807e-05
0.0390483
-0.0784192
0.0393709
0.0672459
-0.00681952
0.123382
-0.0339794
-0.0982556
0.0649337
-0.0583027
-0.0033357
-0.129184
0.0911539
0.0380299
-0.106608
0.0688724
0.0849103
-0.045862
0.0824708
0.00499014
-0.087461
-0.0401547
-0.00613989
0.0462946
-0.0500587
0.0520222
-0.0019635
-0.0403106
0.0582044
0.0350438
0.0937412
0.182699
-0.10404
0.0576476
-0.103535
0.0242338
-0.0557998
0.013601
0.0179251
-0.0974765
0.0795514
-0.00555681
0.102318
-0.245234
0.142917
0.0933619
0.0300199
0.019488
0.0407471
0.0617741
-0.0352061
0.048529
-0.00478942
0.157504
-0.296663
0.139159
0.128895
-0.0727033
0.0465293
-0.0442633
0.109783
0.0425278
-0.114545
-0.103287
0.217832
0.224466
-0.119927
-0.104539
-0.0360203
-0.00648844
0.0425087
0.0675189
0.0542678
-0.0027966
-0.000700991
-0.12107
0.0715323
-0.00154464
0.00180853
-0.000263893
-0.0109903
-0.0441578
-0.169618
0.113136
-0.015589
-0.00976117
0.000293037
-0.00103709
0.0772329
-0.0364853
0.235149
-0.138958
-0.0961909
0.029719
-0.0692701
0.0395511
0.0508629
-0.00735991
-0.000209703
0.0597631
0.0376375
-0.0704413
-0.00958837
0.0800297
-0.0278849
-0.00430397
0.0321888
0.0462463
0.0670809
-0.0455922
-0.0709877
0.11658
-0.13228
0.0460409
0.00121821
-0.00241199
0.193153
-0.0862248
-0.106928
0.00094887
-0.000470292
0.136957
-0.216651
0.0796934
-0.154626
0.246379
-0.0917524
0.166534
0.0963122
-0.042306
-0.0412113
0.0835173
-0.220427
0.107121
0.113306
0.0202008
-0.00116935
-0.0397706
-0.0124432
0.0522138
0.0133368
0.212216
0.00602569
-0.00431364
0.0655
-0.149039
0.0835393
0.193834
0.0328505
-0.226684
-0.0928393
-0.137395
0.230234
-0.0399432
-0.0879144
0.0606526
-0.0601389
-0.000513764
-0.0689186
0.0868437
-0.104297
0.0436313
0.0606656
-0.0559722
0.0111042
-0.00200289
0.00354825
-0.00154537
-0.000259363
0.00284427
-0.0025849
-0.181
-0.11121
0.29221
-0.0563071
-0.0479898
-0.108927
0.203609
-0.0946812
0.146645
-0.0759271
-0.0707175
0.0299434
0.0499639
-0.0799073
0.00297452
-0.00217193
-0.00080259
0.00038327
-0.00507052
0.00468725
-0.00527001
-0.032876
0.038146
-0.0452436
0.00508895
-0.0810759
0.182
-0.269424
0.100672
-0.0357821
0.113366
0.091424
-0.178036
-0.0304286
-0.0448315
-0.153958
0.00755168
0.146407
0.254016
-0.115871
-0.138146
0.107591
0.0409215
-0.201305
0.0974017
0.103903
0.0291536
-0.09667
0.0675163
0.0542822
-0.11798
0.0636977
-0.241633
0.1804
0.061233
-0.0258243
0.0124037
0.0134205
-0.0542089
-0.0634139
0.117623
-0.326109
0.198232
0.127878
-0.116398
-0.0849067
-0.0911499
-0.087212
0.0395146
-0.0526873
0.0131727
-0.0300205
-0.00022771
0.0302482
0.0741263
-0.0405633
-0.07458
0.0382002
0.0363797
-0.0310039
0.0344798
-0.00347581
0.000273494
0.00159824
-0.00187173
0.000357685
-0.00356677
0.0141989
0.00110685
-0.0153057
0.0567249
-0.12544
0.0687152
-0.129892
-0.131588
0.26148
0.00104888
0.00505145
-0.021242
0.0161905
0.215825
-0.128641
-0.087184
-0.0366804
-0.100837
-0.123177
0.144874
-0.0590968
0.126899
-0.276367
0.149469
0.00823555
0.00564983
-0.0307832
-0.0179323
0.121491
0.0264947
-0.147986
0.0579017
-0.00185701
0.0684743
0.0919475
-0.160422
0.0845538
0.0363942
-0.0115617
-0.0142626
0.0656546
-0.115355
0.0497004
0.144125
-0.0786249
-0.00104203
0.000579531
0.000462498
0.100557
-0.222216
0.121659
-0.0425121
0.100769
-0.0582568
0.0442861
-0.0987695
0.0544834
0.0496243
-0.110393
-0.0581602
0.0192677
0.0092832
-0.0298353
0.0205521
-0.186203
0.0888383
-0.0751294
-0.166504
-0.0704344
-0.0770548
-0.0276882
0.0366226
-0.00893438
-0.0370351
0.0625739
-0.0255388
-0.0484554
-0.0641798
0.112635
0.307927
-0.129858
-0.17807
-0.0358717
-0.0129846
0.0488564
-0.136438
-0.132986
-0.0827931
0.0258
0.0569931
0.026568
-0.180526
-0.213741
0.0575025
0.156239
-0.142534
0.0720997
0.214223
0.137441
0.14614
-0.0731722
-0.0729675
0.112748
0.190723
-0.11158
-0.0791428
-0.0630216
0.128576
-0.0655541
0.046987
-0.051371
0.00438402
0.144102
0.044738
-0.18884
-0.00737269
0.0540632
-0.0466905
-0.059316
-0.0607604
0.120076
-0.00474943
0.00494613
-0.000196707
-0.179799
0.0895356
0.0902637
0.0387226
-0.0496328
0.0109102
-0.27538
0.169694
-0.0293106
-0.000709869
0.304504
-0.134117
0.0810609
0.0567497
-0.137811
0.0170044
-0.0343883
0.0350108
0.0429333
-0.0779441
-0.00591849
0.00794049
-0.0147027
0.0560172
0.0372176
-0.0615588
-0.00143289
0.0374901
0.059284
-0.0572826
-0.00200134
-0.202207
0.133811
0.0683955
-0.00179814
0.000253498
-0.114093
0.0781528
0.0359401
0.0622967
-0.0145413
0.0133305
0.00121077
0.126722
-0.00523047
0.0546517
-0.00766478
0.00881758
0.0490841
-0.118179
0.0756672
0.0497122
0.00302623
0.0348411
0.0163169
-0.159042
0.0913307
-0.00757471
0.0334437
-0.0771382
0.234193
-0.157055
-0.0320414
-0.0640889
-0.118471
-0.111081
-0.0492401
0.114895
-0.00297329
0.0443452
-0.0413719
-0.0697673
-0.143974
-0.0726402
-0.063922
-0.117067
0.276242
-0.159175
0.00110315
0.0494299
0.044904
0.0353956
-0.0618271
-0.0535279
0.0463385
0.0590565
-0.120448
0.0478075
0.184631
0.107847
-0.000614572
-0.0307293
-0.0561131
0.0130035
0.0431096
-0.0151308
-0.0284477
0.0435785
0.0414015
0.0221203
-0.000587607
-0.000454421
-0.0481637
0.0471501
0.00101361
-0.0800962
0.139015
-0.0589189
-0.00445086
-0.000298564
-0.0828569
-0.0371747
-0.335234
0.186434
0.148799
0.000606147
0.0479629
-0.00924035
-0.0835462
-0.200684
0.28423
-0.0191394
-0.0261362
0.0452757
0.0268175
-0.0275101
0.00069262
0.0224375
0.0311435
-0.053581
0.0637999
-0.150979
0.0871792
-0.00264469
0.00434227
-0.0126487
-0.0466159
0.0314554
-0.00463795
0.0528266
-0.0955278
0.0427012
-0.114963
-0.0405316
0.155494
-0.0116402
0.00396198
0.00767826
0.0404238
-0.019497
-0.0209268
-0.0368798
0.0432369
-0.00635701
-0.0358869
0.0922142
-0.0563273
0.171221
0.144646
-0.0653519
-0.0452178
0.0284967
0.0167211
0.0604651
-0.132571
0.0721055
-0.0279938
-0.017224
-0.0485911
0.0456313
-0.0767044
-0.0551666
0.0940114
-0.0388448
-0.00729885
0.00783487
-0.000536014
0.0266839
-0.0287745
0.00209061
0.0845033
-0.0145801
-0.0699232
0.00362596
-0.00343833
0.0319393
0.0572263
-0.0208221
-0.0364042
-0.00341672
0.000397949
0.116591
-0.165344
0.0487527
0.0303995
-0.025348
0.0539486
0.0549345
-0.144449
0.0677601
0.0766884
-0.0174515
0.0120833
0.00536823
-0.104055
0.0140107
0.0900444
0.0474251
0.00176944
-0.0491945
-0.0583744
0.0453266
0.0130478
-0.0478838
-0.0725638
-0.113876
-0.0783627
-0.0581484
0.0405043
0.017644
0.0227195
0.0177042
0.141056
-0.0468257
-0.168725
-0.00158537
0.17031
-0.00141459
0.000325494
0.0010891
0.284042
-0.28974
0.00569825
-0.0114885
-0.0262285
0.037717
-0.0395775
0.0857998
-0.0439758
0.00709597
-0.101733
-0.100474
-0.0852393
-0.00599942
-0.0027066
-0.0621104
0.0651186
-0.00300827
-0.00131975
-0.0458139
0.0471337
-0.000927479
0.00120097
-0.0653512
-0.0174419
0.00465786
-0.00427459
0.0441194
-0.0764249
0.0323056
-0.0381997
-0.068408
-0.00104747
-0.000367128
0.0782038
0.0684408
0.139362
0.0565141
0.0304514
0.0313227
-0.0385316
0.0512391
-0.0127075
-0.058898
-0.0652441
-0.138592
0.00959541
0.128997
0.227776
-0.127219
-0.291882
0.107125
0.184758
-0.23324
0.156101
0.0471227
0.0139151
-0.00226998
0.0019712
0.000298777
-0.00193815
0.0277384
-0.0258002
0.289512
-0.17425
-0.115263
-0.0745575
0.000343589
0.0742139
-0.0570385
0.107587
-0.0505488
0.00029345
0.0395983
-0.0398918
-0.185934
-0.105948
0.00312158
0.000410004
-0.00353158
-0.00623646
0.000153372
0.00347024
-0.00412802
0.000657776
0.0219429
0.0352834
-0.0597796
0.0890471
-0.0292675
-0.104072
-0.073652
0.177724
-9.98214e-05
0.164796
-0.096322
-0.142508
0.0580988
-0.0635865
-0.0789212
0.172591
-0.0630583
-0.109532
0.0533338
-0.0731577
0.0198238
-0.0228533
0.0863795
-0.0908251
-0.00223578
0.0930608
-0.113995
0.0864086
0.027586
-0.246219
0.109002
0.12887
-0.0517946
-0.0770755
0.0190159
-0.187741
-0.0893207
0.218179
0.0485085
-0.0305814
-0.0179271
0.0683008
-0.0155878
0.170325
-0.038832
0.132043
-0.0932112
-0.00579287
-0.000443591
-0.00488317
-0.00675707
0.0564363
-0.0884777
0.0235853
-0.0436301
0.0200447
-0.0796912
0.0398715
0.0482188
-0.0624134
0.0141945
0.0500313
0.00698714
0.208321
-0.119529
-0.0887922
-0.0890349
0.149327
-0.248146
0.0988189
-0.0913543
0.183302
0.0803621
0.0710334
0.0107648
-0.0386496
-0.127004
0.253544
-0.12654
-0.100648
-0.122902
0.22355
-0.137345
0.260789
-0.123444
0.163883
-0.252771
0.0888877
0.00429427
-0.000824027
-0.0231732
0.0603908
-0.199903
0.0916146
0.1365
-0.062586
-0.0739142
0.0979615
-0.270476
-0.0377634
0.0752705
-0.037507
0.111745
-0.231133
0.119388
-0.0422609
-0.00577081
-0.000433747
-0.0471849
0.214099
-0.0802876
0.024065
-0.0293653
0.0053003
-0.0430896
0.000256567
-0.00880705
-0.0447323
0.0535394
0.0703621
-0.0405349
-0.000921277
0.00150272
-0.00058144
0.000527408
0.000663039
-0.18704
0.09589
-0.109749
-0.0512169
0.160966
0.0171224
-0.107947
0.0272441
0.00421134
0.0686892
-0.0399225
-0.0287667
0.0923699
-0.114629
0.0222589
-0.00293967
0.00184646
0.0010932
-0.0124952
-0.0342039
0.046699
0.153681
0.0740953
0.0870796
-0.1779
0.0908205
0.100011
0.0288595
0.00979218
-0.0458125
0.00725127
-0.0797399
0.0724886
-0.313011
0.191136
0.121875
-0.225891
0.0517786
-0.0898008
0.165291
-0.07549
-0.0887919
0.180713
-0.0919207
-0.00486058
0.00481159
4.89949e-05
0.0156232
-0.0556093
-0.0852835
-0.059165
-0.0401834
-0.00119661
-0.0191346
0.307401
-0.150643
-0.156758
-0.163756
0.0783315
-0.0229967
-0.077821
0.100818
0.110206
-0.0428016
-0.067404
-0.00475552
-0.000697633
-0.0151566
0.045008
-0.0298514
0.00356192
-0.000440336
-0.0226298
-0.0418825
0.0645124
-0.0386094
0.0610468
-0.0194546
-0.0437349
-0.00111484
0.0448497
0.00606926
-0.00687674
0.000807474
0.0605731
0.0313648
-0.0797883
0.0484235
0.0629579
-0.112198
0.0443845
0.0534168
0.0026242
-0.00197404
-0.000650155
0.0859364
-0.204061
0.118124
-0.000495975
0.0369197
-0.0466406
0.00972091
-0.148519
0.00889662
0.0152556
0.0482026
0.19442
-0.108483
0.00500587
4.82183e-05
-0.00505409
-0.0976255
0.0617387
-0.042337
-0.00949997
0.051837
-0.0431051
1.54609e-05
0.0899645
-0.206905
0.116941
0.0172246
0.00465197
0.100718
0.0952384
-0.195956
-0.29327
0.176203
-0.00275201
0.0199766
-0.0475267
0.105736
-0.0582095
0.268582
-0.193865
-0.0747171
-0.00475565
0.000117922
0.00463773
0.00257001
-0.00161772
-0.153544
0.0996022
0.0539419
-0.0342067
0.0507394
-0.0165326
0.0912069
-0.0657898
0.072283
-0.0664823
-0.0058008
0.0917677
-0.1306
0.258578
-0.173185
-0.085393
-0.000586482
0.00699957
-0.00641309
-0.00179499
0.002619
-0.000824007
-0.0519732
0.0134416
-0.175672
0.154319
0.0213524
0.0936063
0.0563536
-0.00253361
0.0396495
-0.0371159
0.0707003
-0.00305793
-0.0676424
-0.281794
0.175705
0.106089
0.0408104
-0.223762
0.182952
0.0616199
0.017845
-0.0794649
0.102147
0.0794192
-0.181567
0.0659066
-0.0416894
-0.0242172
-0.0854139
0.0301747
0.0552392
0.000767612
-0.0152238
0.0658138
-0.05059
-0.0973067
0.0627375
0.0345691
0.00156782
0.00553799
-0.00710581
-0.131387
-0.00720527
-0.0677818
-0.0676303
0.135412
0.066812
0.0433936
0.0151844
0.0405039
0.0723575
-0.0111637
-0.0611938
-0.00621239
0.00700345
-0.000791061
1.91767e-05
0.0232061
-0.057386
0.0341799
0.0284069
-0.0011628
0.0493578
0.164741
-0.256875
0.0900861
0.166789
-0.0957661
0.0405995
-0.107677
-0.0408421
-0.105242
-0.116974
-0.0727917
-0.028243
0.101035
-0.0428405
0.105798
-0.0442841
0.0251446
-0.133688
0.0711018
-0.0972898
0.0565795
0.0407103
-0.0480376
0.0467179
0.0870282
-0.0184938
-0.0685344
-0.00716614
0.00657081
0.000595323
-0.229084
0.134006
0.0950773
-0.0485405
0.275966
0.188748
-0.0866008
-0.313171
0.196333
0.116838
0.0914979
-0.0484648
-0.043033
0.0729234
-0.154523
0.0815999
-0.0857638
0.0153224
-0.00350596
0.0480547
-0.0445488
0.0525735
0.0114464
-0.0640199
-0.0115927
-0.00585887
-0.222007
0.0793719
0.142635
0.0485043
-0.0180345
-0.0304698
-0.0461003
0.0565048
-0.0104045
0.148462
0.0985814
-0.247043
-0.152714
-0.0229574
0.00771417
-0.0543076
0.0465935
0.18299
-0.0959107
0.0810793
-0.148861
0.000321359
-0.000498016
-0.0113178
0.0638913
-0.0408975
0.0603855
-0.000484009
0.00282875
-0.00234475
-0.0470241
-0.0113502
0.0055475
0.000247533
-0.00579503
0.0954397
-0.0365431
0.220992
-0.125559
-0.0954328
0.0604765
-0.0579697
-0.00250672
-0.122837
0.230728
-0.107891
-0.0462991
-0.00333409
-0.0047538
-1.72139e-06
-0.172075
-0.0753958
0.247471
0.0304255
0.0156168
-0.0460422
0.109855
-0.125441
0.0155861
0.0577168
0.0142667
0.00518355
-0.00422753
-0.000956017
-0.200973
-0.112039
0.049282
0.00194799
0.0130203
-0.048892
-0.0492942
0.0637853
-0.040666
-0.0162906
-0.0512269
0.00136831
0.027184
0.0165901
-0.043774
0.0354845
-0.0384578
-0.0672262
0.0851283
-0.0179021
-0.0352906
-0.0120874
0.047378
-0.00415385
-0.0388251
0.0429789
-0.23836
0.0766868
0.161673
-0.249438
0.122435
0.0268085
0.012566
-0.0393745
0.027608
-0.00354303
0.250742
-0.129772
-0.12097
-0.0633143
0.107699
-0.00735013
0.00113774
0.060276
-0.016361
-0.043915
0.0588525
0.0524566
-0.111309
0.0148257
-0.000626878
0.109183
0.177559
0.0878459
-0.0350193
-0.015866
0.00307922
0.0127868
-0.00146754
0.000546267
-0.00118719
0.000259707
0.0814354
0.212114
0.0694391
-0.0932641
0.204949
-0.111685
-0.124273
0.0414161
0.139418
-0.0552201
0.0139992
-0.0541044
0.0401052
-0.00194282
-0.00499349
0.00693631
0.0693492
0.00135112
-0.00383853
0.0515067
-0.0476682
-0.0609503
0.0871708
-0.0262205
0.0273456
-0.000209724
-0.0271359
-0.215809
0.118664
0.125485
-0.194776
0.0692905
0.0706638
0.00563645
-0.0763002
0.118878
0.00107632
-0.000496788
-0.00418592
0.00530328
-0.00111736
-0.0403554
0.0619312
-0.0215758
-0.0509596
0.0183922
0.0325674
0.169861
-0.0536661
-0.116195
-0.0568254
0.0107251
0.345079
-0.130856
-0.0665301
0.140757
-0.109284
0.0252046
-0.0789777
0.0183529
0.0830431
-0.0757919
0.025864
0.0457167
-0.008797
0.308401
-0.219771
-0.0886296
0.0003375
0.0403549
-0.0406924
0.0982944
-0.0385313
-0.119362
-0.102645
-0.00136968
-0.00305303
0.0408789
-0.101359
0.06048
-0.0753751
0.0347203
0.0128422
-0.0135316
0.000689394
0.0545056
-0.0467915
-0.136918
-0.112136
0.249054
0.00869761
-0.0202593
0.0279389
0.0565644
0.120546
0.0493146
0.140916
0.158774