/*--------------------------------*- C++ -*----------------------------------*\
| =========                 |                                                 |
| \\      /  F ield         | OpenFOAM: The Open Source CFD Toolbox           |
|  \\    /   O peration     | Version:  v2012                                 |
|   \\  /    A nd           | Website:  www.openfoam.com                      |
|    \\/     M anipulation  |                                                 |
\*---------------------------------------------------------------------------*/
FoamFile
{
    version     2.0;
    format      ascii;
    class       surfaceScalarField;
    location    "100";
    object      phi_0;
}
// * * * * * * * * * * * * * * * * * * * * * * * * * * * * * * * * * * * * * //

dimensions      [0 3 -1 0 0 0 0];
oriented        oriented;


internalField   nonuniform List<scalar> 
79099
(
0.0422057
0.0570138
-0.0992195
-0.0489733
0.0454909
0.00348238
-0.0965563
0.0907882
0.00576815
-0.0399874
0.0452505
-0.00526302
-9.11311e-05
-0.000924004
0.00101514
0.0015383
-0.00261371
0.00107542
-0.0436847
0.0725282
-0.0288435
-0.0541921
0.0963978
-0.045133
0.0666772
-0.0215442
0.059037
0.0543081
-0.113345
-0.059268
0.0639732
-0.00470524
0.0336598
-0.055694
0.0220342
0.0193034
-0.0125024
-0.00680099
0.035313
-0.0340206
-0.00129242
0.0724235
0.050014
-0.122437
-0.100957
0.187639
-0.0866826
-0.0840803
0.137487
-0.0534062
-0.189336
0.0883793
-0.0156551
0.0163227
-0.000667635
0.0677804
-0.122261
0.0544808
0.145796
-0.0687705
-0.0770256
0.0699832
-0.0454188
-0.0245644
0.110381
0.125373
-0.235754
-0.0694662
0.0257815
0.0685706
-0.130716
0.0621455
-0.0479116
0.0413847
0.00652695
0.00230806
0.0330049
0.0984603
-0.0621186
-0.0363417
-0.0476191
0.00448855
0.0431305
-0.0370678
0.0556958
-0.018628
-0.0433386
0.0399388
0.00339971
0.00798586
-0.0373888
0.029403
-0.000448598
0.000963074
-0.000514476
0.056323
0.0803906
-0.136714
0.351664
-0.191517
-0.160147
-0.0719568
0.0211246
0.0508322
-0.0175138
0.0907009
-0.0731871
0.104382
0.191403
-0.295785
-0.0725498
0.0238453
0.0487045
0.0441491
0.0643885
-0.108538
-0.10058
0.083066
-0.0270718
0.0301421
-0.00307025
0.0662992
-0.059872
-0.0064272
-0.00894147
0.00534158
0.00359989
0.127642
-0.0598612
-0.0866121
0.184533
-0.0979212
-0.0695601
0.182571
-0.11301
-0.163933
0.0942298
0.0697036
-0.00295817
-0.0474877
0.0504458
-0.291528
0.182563
0.108965
0.227425
-0.32676
0.0993345
0.0144906
0.051658
-0.0661486
-0.0456686
-0.050574
0.0962426
-0.250883
0.16542
0.0854638
-0.08769
0.0556965
0.0319935
0.000904665
-0.0165597
0.0610289
-0.125985
0.0649565
-0.174112
0.313312
-0.139199
-0.0423572
0.0501756
-0.00781841
0.0403614
-0.0860015
0.0456401
0.151396
-0.100376
-0.05102
0.0205057
-0.0901879
0.0696822
-0.020124
0.0264525
-0.00632856
-0.000390965
-0.00643627
0.00682723
0.0297711
0.0175769
-0.047348
0.198748
-0.118324
-0.0804237
-0.057067
0.0199992
-0.208976
0.139416
0.18595
-0.314852
0.128902
-0.116337
-0.053229
0.169566
-0.0031037
0.0138858
-0.0107821
0.24578
0.0290663
-0.274846
-0.134667
0.104295
0.0303723
-0.000321051
-0.000127547
-0.0439998
-0.00391178
0.320186
-0.214144
-0.106042
-0.0659051
-0.226696
0.292601
0.00256308
-0.00102478
0.0786585
-0.208605
0.129946
-0.0087062
0.0056025
-0.00286634
0.000252622
-0.0236347
0.011949
0.0116857
0.0527335
-0.0510259
-0.00170757
-0.0560719
0.025894
0.0301779
0.0901457
-0.0485092
-0.0416365
-0.196999
0.0806626
-0.0274131
-0.0105856
0.0379987
-0.0689237
0.0237907
0.0692711
0.129476
-0.0398212
0.0869209
-0.0470997
0.00305008
-0.00611891
0.00306884
0.00173449
-0.00306878
0.00133429
-0.0112735
-0.0123611
0.060427
-0.00532905
-0.0550979
-0.000591853
0.0287972
-0.0282054
0.00832281
0.0443105
-0.0526333
0.0182845
-0.00104714
-0.0172374
-0.0149981
-0.0815582
0.0360609
-0.0397227
0.00366179
-0.0272149
0.00709092
-0.0612323
0.116922
-0.0727731
0.00597975
-0.0540027
0.048023
0.0517759
0.0466844
0.0974014
-0.0536808
-0.0437206
0.00444146
-0.00285202
-0.00158944
0.000320336
-0.00210463
0.00178429
-0.0143781
-0.0575787
-0.0290843
-0.0223802
0.0514646
0.298703
-0.0529227
0.0354289
0.0157816
-0.0512105
0.0181257
-0.0386599
0.0205342
0.20832
-0.274225
0.0293569
-0.0299487
-0.0239821
0.00127999
0.0227021
0.291041
0.00146205
-0.292503
0.0412274
-0.117306
0.0760781
0.0975466
0.12566
-0.223206
-0.0435043
-0.00145911
0.00161673
-0.00500779
0.00339105
0.000932696
-0.00102383
-0.038602
-0.0960649
0.0279726
-0.0944633
0.0664907
0.0424447
-0.0195707
-0.022874
-0.00236967
-0.000496663
-0.178362
0.110677
0.0676847
-0.00455522
0.00669406
-0.00213884
0.0479158
0.00141507
-0.0493309
0.0291424
-0.0922771
0.0631348
-0.0495383
-0.0754428
0.124981
-0.0314049
0.0393908
-0.0682849
0.166222
-0.0979374
-0.0300925
-0.0259794
-0.0733523
-0.0359733
0.109326
0.0766935
-0.213472
0.136779
-0.0455228
0.00316558
-0.156387
0.268954
-0.112567
0.0108425
0.0084609
0.0816002
0.0772509
-0.158851
0.10845
-0.191886
0.0834356
0.224238
-0.138558
-0.0856796
0.0946719
-0.186923
0.0922507
-0.0228521
0.0642375
-0.0413854
0.0186026
0.0191816
-0.0377842
0.0903092
-0.0611668
0.0268467
-0.0983642
0.0715175
-0.0614756
0.102703
-0.0638583
0.216513
-0.152655
0.0600658
-0.194135
0.134069
0.060813
-0.134143
0.0733301
-0.294557
0.224645
0.0699113
0.015777
0.0106756
-0.00035847
-0.000565535
0.0346602
0.035323
-0.280114
0.0942262
0.185888
-0.0961311
0.0504625
0.0332105
-0.0219338
-0.0112767
-0.00888444
0.00198223
0.00690221
0.0561925
-0.134536
0.0783439
0.0505344
-0.056956
0.00642163
0.0680734
-0.0663354
-0.00173804
-0.151666
-0.139862
0.262847
-0.152559
-0.110288
-0.00137436
0.00310885
0.0522973
-0.121526
0.0692284
0.170387
0.128121
0.0867396
0.0966668
-0.183406
-0.0841897
0.0929492
-0.00875948
-0.0557655
-0.170119
0.225885
-0.0377349
0.116401
-0.0786665
0.105396
-0.057004
-0.0483917
-0.0203408
0.0195844
0.000756372
-0.0284525
0.0261646
0.00228787
0.128859
-0.220017
0.0911585
0.0116206
0.0308241
-0.0973651
0.191591
-0.0942262
0.0232094
0.0669363
-0.0551692
0.063492
0.0220149
-0.049428
0.0438891
-0.0762837
0.0323946
0.103841
-0.0758682
0.132461
-0.0801641
-0.00441657
-0.0045249
-0.0702175
-0.0426948
0.112912
-0.0307329
0.0643927
0.00799936
-0.00839033
0.0215779
-0.0251194
0.00354151
-0.00852001
-0.0199325
-0.0033144
0.00175422
0.00156017
-0.235298
0.17144
0.0331131
-0.0149874
0.0857779
0.0349435
-0.120721
0.0153148
0.0268636
-0.0421784
0.00313064
-0.0015139
-0.179354
0.0570607
0.122293
0.0250226
0.10574
-0.130763
0.0635267
0.0410814
-0.104608
-0.224015
0.146398
0.0776166
0.29969
-0.155318
-0.144372
-0.0825241
0.0728437
0.0096804
0.0331663
-0.072876
0.0397097
0.170769
-0.0626744
-0.108095
0.0310985
-0.093323
0.0622246
-0.0854246
-0.0751091
0.160534
0.0418736
-0.0541308
0.0122572
-0.00192425
0.00187037
5.38805e-05
0.0638337
-0.1261
0.062266
0.286742
-0.180438
-0.106305
-0.0524324
0.0717515
-0.0193191
-0.0971456
0.214618
-0.117472
0.00157782
-0.00125749
-0.0546252
0.120207
-0.0655813
0.0506388
-0.0478456
-0.00279319
-0.0722093
-0.0170601
0.0892694
0.0344068
-0.0634911
0.105396
0.0727288
-0.178125
0.176258
-0.285829
0.109571
-0.137218
0.247599
-0.0683853
0.0503807
0.0180046
-0.0522565
-0.0816819
0.133938
0.0461221
-0.053018
0.00689584
0.300555
-0.123235
-0.17732
0.00161987
0.0512255
-0.0528453
0.120651
0.179904
0.0664056
-0.133666
0.06726
-0.0597903
0.0618662
-0.0020759
0.127349
-0.0686458
-0.0587031
0.0178938
-0.0649114
0.0470176
0.0904138
-0.0623854
-0.0280284
0.050082
0.174156
0.00488538
-0.00546004
0.000574659
-0.0313584
0.0328885
-0.00153012
-0.249116
0.120618
0.128497
0.0182665
0.00903386
-0.0273004
0.0765367
-0.050331
-0.0262057
0.0027569
0.00168457
-0.0463397
-0.0843334
0.130673
0.198063
-0.12137
0.00169776
0.00367042
-0.00536818
-0.0944265
-0.0933596
0.187786
-0.1673
0.0990153
0.129689
-0.073366
0.0595253
-0.0290775
-0.0304478
0.122882
-0.0620686
0.0588976
-0.117576
0.0586779
0.315867
-0.194447
-0.121419
0.0447798
0.013646
-0.0584257
0.0478226
-0.00170045
-0.229552
0.151214
0.0783379
0.0878315
-0.0474701
0.149961
-0.107898
-0.0420626
0.11967
-0.0569712
-0.062699
-0.110522
-0.0491521
0.159674
-0.0610316
-0.0214925
0.0574384
-0.137276
0.0798377
0.0216639
-0.0263656
0.00470178
0.0439988
-0.0253962
0.0667189
-0.14749
0.0807707
-0.0613625
-0.00702284
0.0646149
-0.136563
0.0719477
-0.0237555
-0.0205962
0.0443517
-0.0425634
-0.00295939
-0.101922
0.0177322
0.332389
-0.164691
-0.167699
-0.0677111
-0.0857006
0.153412
-0.03868
0.038988
-0.00030804
-0.020533
0.00867745
0.0118556
-0.193213
0.21965
-0.0264374
0.0234757
-0.00189777
-0.0515929
0.0532127
-0.135455
-0.0881059
-0.119667
0.0463144
0.0775833
0.0464683
-0.124052
0.0265728
0.0329525
-0.00148372
0.00180406
-0.000320337
-0.288708
0.188753
0.099955
0.0525617
-0.0106881
0.00604029
7.73272e-05
-0.00611762
-0.0929422
0.0368545
0.0560878
-0.0924909
-0.0568429
0.149334
0.233147
-0.107774
-0.151148
0.25553
-0.0635471
-0.0293951
-0.0173656
0.0602359
-0.0428703
0.108884
-0.0324838
-0.0763998
-0.0328467
-0.0397031
-0.0073541
-0.0641309
0.071485
0.00577992
-3.10841e-05
-0.00574883
0.0423187
-0.0596843
0.0475197
-0.117737
0.0520012
-0.0422104
-0.00979085
-0.0127098
0.012162
0.000547862
-0.0755386
0.00876419
0.0667744
-0.0328483
0.00866512
0.0241832
0.0180574
-0.0486979
0.0306405
0.125435
0.194751
-0.0339754
-0.0453909
0.0793663
-0.0377905
0.0553737
-0.0175832
-0.00345558
-0.0544788
0.163401
-0.108922
-0.0105679
-0.0649707
-0.00161629
-0.0016981
0.0010268
-0.00187246
0.000845655
-0.00155614
-0.000368109
-0.105686
-0.155249
0.260934
-0.0528762
0.00390288
0.0765854
-0.107095
0.0305098
0.143901
-0.0771824
0.238302
0.0527386
0.0527134
-0.0646147
0.0119013
0.00488607
-6.88444e-07
-0.0496403
0.0474189
0.00222142
-0.0349833
0.041953
-0.00696977
0.00114737
-0.00154961
0.000402239
-0.0752637
0.0456532
0.0296104
-0.0747679
0.0223355
0.147801
0.150706
-0.257958
0.195876
0.0620825
-0.176062
-0.112646
-0.0428883
-0.0400443
0.0829327
0.0147457
-0.0525361
0.00241187
-0.0294837
-0.088754
0.0177806
0.0709734
0.0017655
-0.00061813
0.0160532
0.035948
-0.127858
0.0892556
0.0188206
0.0143899
0.028419
-0.0850361
0.0566171
-0.213673
-0.0664418
-0.104228
0.0718639
0.0323637
-0.00259814
0.00454203
-0.0019439
-0.0882051
-0.0911486
-0.0876153
-0.166289
0.253905
0.152312
-0.0844093
-0.0679023
0.266693
-0.14373
-0.122963
-0.108289
0.225202
-0.116913
0.0409959
-0.0256811
-0.343563
0.240176
0.103387
0.000839243
0.0174453
0.113328
-0.0893853
-0.0239423
0.227982
-0.315597
0.249217
-0.150395
-0.0988225
0.0526891
0.0153844
-0.154765
0.13613
0.0186356
0.12291
-0.050487
-0.0379322
-0.000747783
0.049903
0.0226252
-0.000790381
-0.00185165
0.00264203
0.00114858
-0.043712
0.00118821
-0.00123296
4.47499e-05
0.0540376
-0.049858
-0.00417965
-0.000456333
0.00127646
-0.00082013
0.0892618
-0.135602
-0.122402
0.226741
-0.104339
-0.00320963
0.00407836
-0.000868729
0.0190257
-0.0194523
0.000426587
0.169199
-0.105122
-0.064077
-0.0947277
0.184121
-0.089393
-0.0430414
0.0192859
-0.00766311
-0.0128699
-0.0941326
0.159278
-0.0651451
0.0450237
-0.0523778
0.0742273
0.066141
-0.140368
0.00291988
-0.0030095
8.96171e-05
0.0820924
-0.0477412
-0.0343512
-0.00255865
-0.00925976
0.0118184
-0.327818
0.178132
0.149687
-0.0631504
0.0971288
-0.0339784
-0.110436
0.0413725
0.0690631
-0.0525789
0.109786
-0.0572071
0.0204212
0.0030545
-0.134967
0.0894032
0.0455634
-0.0194534
0.046702
-0.0272486
0.0489804
-0.00115779
0.0361151
0.0459773
0.121787
-0.0579537
-0.0043238
0.0601205
-0.0557967
0.0258692
0.0152172
-0.0410864
0.00400476
-0.00404486
0.00144673
-0.29691
0.296056
0.000854278
-0.0766612
0.127754
-0.0510932
-0.0636295
0.101631
-0.0380013
0.12011
-0.0554954
-0.0253481
0.017685
0.13883
-0.247162
0.108332
0.0824952
0.0633008
-0.0113857
-0.00132415
0.0567339
0.112465
0.0268659
-0.0275919
0.000726026
0.00681413
-0.000773835
0.116415
-0.274391
0.157976
0.0254734
-0.102135
0.0436354
0.0571879
-0.100823
0.146372
-0.0808737
-0.0654984
-0.0667159
0.100394
-0.0336785
0.190116
-0.0816659
0.0405973
0.0359394
-0.0388927
-0.0191117
0.0580044
0.0021662
-0.0011394
-0.0127676
-0.0759864
-0.0626386
0.0910577
-0.0617818
0.130352
0.00137021
-0.00216059
-0.154677
0.0989115
-0.132806
-0.118077
0.0634592
-0.0475163
-0.0159429
0.128621
-0.0622158
-0.026366
-0.128399
0.0992677
-0.0681692
-0.141516
-0.186302
0.0635167
-0.0384756
-0.0250412
-0.0359992
0.275967
-0.239968
-0.0791773
0.145015
-0.0658373
-0.049215
-0.0676709
0.116886
-0.00195771
0.188143
-0.308474
0.120331
0.00244407
0.000475813
-0.157389
0.0741027
0.0832865
-0.0564821
-0.101958
0.15844
0.125726
0.109783
-0.235509
0.144479
-0.0922092
-0.0522694
-0.0243414
0.0682306
0.0254172
0.0841985
-0.109616
0.00225846
-0.0452678
0.0430093
-0.160356
-0.134201
0.116041
-0.0966098
-0.0194308
0.0438375
-0.0945052
0.0506677
0.0449781
0.00905957
-0.32034
0.144278
-0.0173866
-0.025952
0.000952341
-0.00189235
0.000940006
-0.0407986
-0.000677777
0.0414764
0.0945402
0.0472555
0.00397295
-0.0512285
0.0804909
-0.075932
-0.00455881
-0.00636786
0.000289902
0.00607795
0.026995
-0.0642544
0.0372595
0.0218803
-0.00145911
0.0754848
-0.0484898
0.0398666
-0.233079
-0.0421998
0.0550177
-0.0128179
-0.020181
0.0499521
-0.0406542
-0.0419601
0.0826144
-0.0972138
0.0802996
-0.0542544
-0.0260453
-0.00349845
0.00234928
0.00114916
-0.042825
0.00202642
0.0949983
-0.0681516
0.010084
0.0178699
-0.0279539
-0.00768052
0.00775785
0.0931506
-0.00319294
-0.0899577
-0.00177801
0.00132168
0.0501124
-0.0729645
-0.0544473
-0.102942
0.0570209
-0.0593412
0.00232031
0.120948
-0.0844625
-0.0364856
0.114324
-0.190608
0.0762833
0.326828
-0.159559
-0.167269
-0.172514
0.299912
-0.127398
0.0511657
-0.0520465
0.000880797
-0.00380668
0.00197633
0.00183035
-0.142209
0.0953995
0.0206411
0.0436903
0.00529005
-0.100835
0.0559102
0.0449243
0.0710798
0.0996896
-0.00608352
-0.000284337
0.17191
0.0338217
-0.205732
0.0721817
-0.132159
0.0599772
-0.0583998
0.0142784
0.0441214
-0.0586815
-0.0517541
0.0913843
-0.0396085
0.0121934
-0.0147521
-0.0551502
0.0475171
0.00763303
0.061038
-0.0619139
0.000875878
0.0625509
0.0838211
0.0736666
-0.039983
-0.0139593
0.0539422
0.0139882
-0.0146437
0.000655562
0.0437396
0.00624713
-0.0499867
0.0435008
-0.0513496
0.00784882
-0.0607688
-0.0468122
0.107581
-0.0816349
-0.0533316
-0.0616352
0.0123912
0.049244
0.240944
-0.115218
0.128786
-0.103663
-0.0251229
0.103874
-0.0602389
-0.0719267
0.0367152
0.0352115
0.0462227
-0.0876335
0.0414108
0.026234
0.0614636
-0.0876976
0.112224
0.0387353
-0.150959
0.000478891
-0.000476795
-2.0964e-06
0.292478
-0.165113
-0.127364
-0.169671
0.0749433
0.0438153
0.0101679
-0.0539833
0.31043
-0.191342
-0.119087
-0.00119075
-3.68896e-05
0.00122764
0.0514648
0.038949
-0.274639
0.00798848
0.266651
0.0367613
-0.0796496
-0.0796165
-0.084317
0.0273991
-0.00913254
-0.0632688
0.0649424
-0.00167369
0.29355
-0.194434
-0.0991161
-0.0487166
0.0152031
0.0335135
0.0570096
-0.0131943
0.0298277
-0.0767957
0.046968
-0.072185
-0.0286495
-0.0619589
0.0576351
0.00411647
-0.00288465
-0.00123181
0.0661534
-0.0213096
-0.0448438
0.225553
0.0340779
-0.259631
-0.272268
0.0848513
0.187417
-0.0448688
-0.0183999
-0.0123754
0.0135493
-0.00117392
-0.0458883
0.0985048
-0.0526165
-0.0674081
0.114928
0.148513
-0.0792539
-0.0692589
0.00171284
-0.0057446
0.00403176
0.13148
-0.0878416
-0.0436389
-0.00442376
0.00368341
0.000740355
-0.152093
-0.105865
0.0335634
0.037182
-0.0707454
0.0198691
-0.0834986
0.000187595
-0.00409859
0.00391099
0.0407454
-0.0753093
0.0345639
-0.0678245
0.0883303
-0.048037
0.0396748
0.00836217
0.0389944
-0.313634
-0.016614
-0.0404529
0.170082
-0.110016
-0.147583
0.294062
-0.146479
0.00202548
-0.0107595
0.00873402
-0.170635
0.0601136
0.106247
-0.0812247
0.0861922
-0.0639449
-0.0222473
-0.116431
0.0731645
0.043267
0.100924
-0.180147
0.0792231
0.0994999
-0.192239
0.0927392
0.0413153
-0.0549596
0.0136443
-0.000742907
-0.000142311
0.000885218
0.0788217
-0.0613722
-0.0174495
-0.0333235
0.0947022
-0.0613788
-0.00421951
-0.0286288
0.0978011
-0.0539636
0.0560444
0.00889803
-0.183531
0.0891044
0.187186
-0.0876858
0.0719839
-0.0685233
-0.0034606
-0.00301507
-0.000167255
0.00318232
-0.0466894
0.0451349
0.00155449
-0.0862394
-0.0296585
0.115898
0.0240245
-0.0230222
-0.00100229
-0.120032
0.0697641
0.0502683
0.258474
-0.0725241
-0.000642169
-0.00824227
-0.0987075
0.0319916
-0.15105
0.0701181
0.0809317
0.0586031
-0.128908
0.0703044
0.0411149
-0.0892735
0.0481586
0.0140703
-8.2123e-05
0.0390488
-0.0784207
0.0393719
0.0672479
-0.00682088
0.123381
-0.0339783
-0.0982566
0.0649331
-0.0583004
-0.00333476
-0.129184
0.0911545
0.0380293
-0.106608
0.0688729
0.0849119
-0.0458631
0.0824715
0.00499008
-0.0874615
-0.0401602
-0.00613932
0.0462995
-0.0500545
0.0520218
-0.00196734
-0.0403111
0.0582048
0.0350448
0.0937412
0.182699
-0.10404
0.0576471
-0.103535
0.0242333
-0.0558002
0.0136004
0.0179256
-0.097477
0.0795514
-0.00555692
0.102318
-0.245235
0.142917
0.0933625
0.0300189
0.0194881
0.0407479
0.0617767
-0.0352039
0.0485258
-0.00478623
0.157504
-0.296663
0.139159
0.128896
-0.0727036
0.0465238
-0.0442653
0.109784
0.042528
-0.114546
-0.103287
0.217833
0.224466
-0.119927
-0.104539
-0.0360202
-0.00648937
0.0425095
0.0675202
0.0542672
-0.00279731
-0.000701133
-0.12107
0.0715321
-0.00154058
0.00180644
-0.000265862
-0.0109911
-0.044159
-0.169618
0.113136
-0.0155879
-0.00976015
0.000291471
-0.00103438
0.0772334
-0.036488
0.235149
-0.138958
-0.0961912
0.0297215
-0.0692728
0.0395513
0.050858
-0.00735715
-0.000213389
0.0597635
0.0376379
-0.0704421
-0.00958837
0.0800304
-0.0278849
-0.00430478
0.0321896
0.0462462
0.0670814
-0.0455928
-0.0709874
0.11658
-0.132281
0.0460414
0.00121949
-0.00241025
0.193154
-0.0862251
-0.106928
0.000953564
-0.000474673
0.136957
-0.216651
0.0796936
-0.154626
0.246379
-0.0917528
0.166534
0.0963125
-0.0423074
-0.0412101
0.0835175
-0.220427
0.107121
0.113305
0.0201985
-0.0011728
-0.0397724
-0.0124431
0.0522155
0.0133363
0.212217
0.0060245
-0.00431166
0.0655002
-0.14904
0.0835396
0.193834
0.0328509
-0.226685
-0.0928395
-0.137395
0.230234
-0.0399426
-0.087915
0.0606493
-0.0601369
-0.000512435
-0.0689186
0.0868442
-0.104297
0.0436304
0.0606665
-0.0559721
0.0111033
-0.00200265
0.00354838
-0.00154574
-0.000259357
0.00284438
-0.00258502
-0.181
-0.11121
0.29221
-0.0563082
-0.0479887
-0.108927
0.203609
-0.0946814
0.146645
-0.0759269
-0.0707184
0.0299449
0.0499628
-0.0799077
0.00297486
-0.00217356
-0.000801305
0.000382458
-0.0050699
0.00468744
-0.00527195
-0.0328681
0.03814
-0.0452475
0.00508727
-0.0810762
0.182
-0.269424
0.100672
-0.0357827
0.113366
0.091424
-0.178036
-0.0304313
-0.0448323
-0.153958
0.00755126
0.146407
0.254016
-0.11587
-0.138146
0.107592
0.0409208
-0.201305
0.0974022
0.103902
0.0291521
-0.0966695
0.0675174
0.0542833
-0.11798
0.0636968
-0.241633
0.1804
0.0612332
-0.0258218
0.0124023
0.0134195
-0.0542093
-0.0634138
0.117623
-0.326109
0.198231
0.127878
-0.116398
-0.0849063
-0.0911505
-0.0872116
0.0395201
-0.0526921
0.0131719
-0.0300105
-0.000231779
0.0302423
0.0741268
-0.0405633
-0.0745808
0.0382008
0.03638
-0.0310081
0.0344835
-0.00347542
0.000274964
0.00159532
-0.00187028
0.000357853
-0.00356748
0.0141988
0.00110369
-0.0153024
0.0567251
-0.125441
0.0687154
-0.129892
-0.131588
0.26148
0.00104768
0.00505148
-0.0212423
0.0161908
0.215825
-0.128641
-0.0871837
-0.0366768
-0.100837
-0.123177
0.144875
-0.059097
0.126899
-0.276367
0.149469
0.00823559
0.0056502
-0.0307834
-0.0179332
0.121492
0.0264947
-0.147986
0.0579005
-0.00185612
0.0684743
0.0919478
-0.160422
0.0845542
0.0363938
-0.0115602
-0.0142616
0.0656559
-0.115356
0.0496997
0.144125
-0.0786252
-0.00104649
0.000583942
0.000462547
0.100558
-0.222216
0.121659
-0.0425135
0.100769
-0.0582559
0.0442859
-0.09877
0.054484
0.0496246
-0.110393
-0.058161
0.0192683
0.00928395
-0.0298364
0.0205525
-0.186204
0.0888386
-0.0751296
-0.166504
-0.0704341
-0.0770554
-0.0276901
0.0366247
-0.0089346
-0.0370343
0.0625716
-0.0255373
-0.0484557
-0.0641801
0.112636
0.307928
-0.129858
-0.17807
-0.0358733
-0.0129831
0.0488565
-0.136438
-0.132986
-0.0827946
0.0258004
0.0569942
0.0265684
-0.180527
-0.213741
0.0575032
0.156238
-0.142534
0.0721003
0.214223
0.137441
0.14614
-0.0731729
-0.0729672
0.112748
0.190724
-0.11158
-0.0791433
-0.0630217
0.128576
-0.0655547
0.0469857
-0.0513699
0.00438426
0.144102
0.0447376
-0.18884
-0.00737437
0.0540673
-0.0466929
-0.0593163
-0.0607606
0.120077
-0.00474562
0.00494218
-0.000196559
-0.1798
0.0895353
0.0902644
0.038718
-0.0496295
0.0109114
-0.27538
0.169694
-0.0293055
-0.000705065
0.304504
-0.134117
0.0810617
0.0567491
-0.137811
0.0169975
-0.0343841
0.0350113
0.042934
-0.0779452
-0.00591477
0.00794025
-0.0147028
0.0560181
0.0372181
-0.0615596
-0.00143281
0.0374938
0.0592807
-0.0572813
-0.00199943
-0.202207
0.133811
0.0683958
-0.0017956
0.000255024
-0.114094
0.0781527
0.0359411
0.062297
-0.0145385
0.0133301
0.00120843
0.126722
-0.00523039
0.0546505
-0.00766486
0.00881674
0.0490838
-0.11818
0.0756662
0.049711
0.00302254
0.0348391
0.0163266
-0.159042
0.0913312
-0.00757541
0.0334446
-0.0771381
0.234193
-0.157055
-0.0320421
-0.064089
-0.118471
-0.11108
-0.0492394
0.114895
-0.00297406
0.0443461
-0.041372
-0.0697679
-0.143974
-0.0726394
-0.0639232
-0.117067
0.276242
-0.159175
0.00110508
0.0494293
0.0449043
0.0353953
-0.0618283
-0.0535273
0.0463388
0.059057
-0.120448
0.0478087
0.184631
0.107847
-0.000621981
-0.0307364
-0.056113
0.0130027
0.0431104
-0.0151315
-0.0284481
0.0435796
0.041399
0.0221177
-0.000592242
-0.000454247
-0.048167
0.0471559
0.00101107
-0.0800964
0.139016
-0.0589192
-0.00444723
-0.00029839
-0.0828574
-0.037175
-0.335234
0.186434
0.148799
0.00060519
0.0479594
-0.00924139
-0.0835463
-0.200684
0.28423
-0.0191401
-0.026137
0.0452771
0.0268239
-0.0275182
0.000694319
0.0224373
0.0311447
-0.053582
0.0638002
-0.15098
0.0871795
-0.00264541
0.00434317
-0.0126531
-0.0466149
0.0314643
-0.00464045
0.0528271
-0.0955287
0.0427016
-0.114962
-0.0405322
0.155494
-0.0116436
0.00396412
0.00767953
0.0404249
-0.0194981
-0.0209268
-0.0368737
0.0432292
-0.00635544
-0.035887
0.0922146
-0.0563276
0.171221
0.144646
-0.0653531
-0.0452195
0.0284972
0.0167222
0.0604657
-0.132571
0.0721056
-0.0279945
-0.017225
-0.0485948
0.0456367
-0.0767048
-0.0551661
0.0940125
-0.0388464
-0.00730645
0.00784289
-0.000536448
0.0266787
-0.0287711
0.00209236
0.0845042
-0.0145805
-0.0699237
0.00362675
-0.00343915
0.0319389
0.057228
-0.0208229
-0.0364051
-0.00341272
0.000397648
0.116591
-0.165344
0.0487531
0.0304003
-0.0253488
0.0539487
0.0549349
-0.144449
0.0677604
0.0766886
-0.0174604
0.0120905
0.00536995
-0.104055
0.0140103
0.0900448
0.0474308
0.00176793
-0.0491988
-0.0583753
0.0453272
0.0130482
-0.0478851
-0.072563
-0.113876
-0.0783629
-0.0581499
0.0405056
0.0176443
0.0227197
0.0177052
0.141057
-0.0468267
-0.168725
-0.00158525
0.17031
-0.00141229
0.00032691
0.00108538
0.284042
-0.28974
0.00569824
-0.0114888
-0.0262295
0.0377183
-0.0395778
0.0858005
-0.043968
0.00709432
-0.101733
-0.100474
-0.0852396
-0.00599925
-0.00270695
-0.062112
0.0651213
-0.0030093
-0.00131674
-0.0458142
0.0471309
-0.000924855
0.00119982
-0.0653524
-0.0174422
0.00465729
-0.00427483
0.0441198
-0.0764253
0.0323055
-0.0381993
-0.0684085
-0.00104344
-0.000368848
0.0782036
0.0684417
0.139362
0.0565136
0.0304559
0.0313209
-0.0385328
0.0512394
-0.0127066
-0.0588969
-0.065245
-0.138592
0.00959479
0.128997
0.227776
-0.127218
-0.291882
0.107125
0.184758
-0.23324
0.156102
0.0471254
0.0139127
-0.00226562
0.0019669
0.000298726
-0.00193643
0.0277371
-0.0258007
0.289513
-0.17425
-0.115263
-0.0745566
0.000342235
0.0742143
-0.0570389
0.107588
-0.0505488
0.000292568
0.0395936
-0.0398862
-0.185934
-0.105948
0.00311703
0.000411663
-0.00352869
-0.00623735
0.000153828
0.00346868
-0.00412557
0.000656887
0.0219438
0.0352842
-0.05978
0.0890478
-0.0292678
-0.104072
-0.0736525
0.177724
-9.94198e-05
0.164797
-0.0963223
-0.142508
0.0580991
-0.0635868
-0.0789216
0.172591
-0.0630585
-0.109533
0.0533343
-0.0731585
0.0198242
-0.0228534
0.0863802
-0.0908256
-0.00223525
0.0930608
-0.113995
0.0864092
0.0275855
-0.24622
0.109002
0.12887
-0.0517943
-0.0770761
0.0190158
-0.187741
-0.0893212
0.21818
0.0485096
-0.0305817
-0.0179279
0.0683008
-0.0155875
0.170325
-0.0388327
0.132044
-0.0932108
-0.00579309
-0.000444254
-0.00488542
-0.00675823
0.0564364
-0.0884784
0.0235861
-0.0436315
0.0200455
-0.0796916
0.0398704
0.0482193
-0.0624142
0.0141949
0.0500355
0.00698542
0.208322
-0.119529
-0.0887926
-0.0890352
0.149327
-0.248146
0.0988191
-0.0913544
0.183302
0.0803623
0.0710337
0.0107657
-0.0386506
-0.127004
0.253544
-0.12654
-0.100649
-0.122902
0.22355
-0.137346
0.26079
-0.123444
0.163884
-0.252771
0.0888877
0.00429148
-0.000822797
-0.0231734
0.0603915
-0.199904
0.0916145
0.136501
-0.0625868
-0.073914
0.097962
-0.270476
-0.0377639
0.075271
-0.0375071
0.111745
-0.231134
0.119389
-0.0422665
-0.00577049
-0.000426864
-0.0471922
0.214099
-0.080288
0.0240601
-0.0293616
0.00530153
-0.0430826
0.000257527
-0.00880898
-0.0447349
0.0535439
0.0703633
-0.0405356
-0.000925427
0.00150669
-0.000581265
0.000528402
0.000659812
-0.18704
0.0958896
-0.109749
-0.0512173
0.160967
0.0171218
-0.107947
0.0272532
0.00421114
0.0686872
-0.0399185
-0.0287687
0.0923705
-0.114629
0.0222589
-0.00294022
0.00184674
0.00109348
-0.0124951
-0.034206
0.0467011
0.153681
0.0740956
0.0870797
-0.177901
0.0908208
0.100011
0.0288591
0.00979303
-0.0458132
0.00725138
-0.0797404
0.072489
-0.313011
0.191136
0.121875
-0.225891
0.0517786
-0.0898005
0.165291
-0.0754906
-0.0887923
0.180713
-0.0919207
-0.00486662
0.00481808
4.85491e-05
0.0156232
-0.0556107
-0.0852838
-0.0591652
-0.0401852
-0.00119848
-0.0191423
0.307401
-0.150642
-0.156758
-0.163756
0.0783317
-0.0229968
-0.0778214
0.100818
0.110207
-0.0428019
-0.0674046
-0.00476186
-0.000698182
-0.0151554
0.0450093
-0.0298539
0.00355918
-0.000442148
-0.0226324
-0.0418806
0.064513
-0.0386105
0.0610479
-0.0194553
-0.043728
-0.00111362
0.0448417
0.00606893
-0.00687683
0.000807899
0.0605739
0.031367
-0.079789
0.048422
0.0629592
-0.112199
0.0443831
0.0534179
0.0026249
-0.00197593
-0.000648971
0.0859366
-0.204061
0.118125
-0.000496151
0.0369127
-0.0466341
0.00972138
-0.148519
0.00889722
0.015256
0.0482032
0.19442
-0.108483
0.00500277
4.78094e-05
-0.00505058
-0.097626
0.061739
-0.0423384
-0.00949919
0.0518376
-0.0430969
1.439e-05
0.0899647
-0.206906
0.116941
0.0172292
0.00465108
0.100718
0.0952384
-0.195956
-0.29327
0.176203
-0.00275054
0.0199798
-0.047527
0.105737
-0.0582098
0.268582
-0.193865
-0.0747171
-0.00476187
0.000117708
0.00464416
0.0025669
-0.00161456
-0.153544
0.0996017
0.0539425
-0.0342126
0.0507416
-0.016529
0.0912074
-0.0657902
0.0722832
-0.0664825
-0.00580066
0.0917675
-0.1306
0.258578
-0.173185
-0.0853927
-0.000587783
0.00700864
-0.00642086
-0.00179662
0.00261913
-0.000822505
-0.0519735
0.0134407
-0.175672
0.15432
0.0213526
0.0936065
0.0563543
-0.00253315
0.0396543
-0.0371211
0.0707011
-0.00305821
-0.0676428
-0.281794
0.175705
0.106089
0.0408098
-0.223762
0.182952
0.0616204
0.0178445
-0.0794649
0.102147
0.0794195
-0.181567
0.0659039
-0.0416878
-0.0242161
-0.0854143
0.0301745
0.0552398
0.00076646
-0.0152243
0.0658149
-0.0505906
-0.0973079
0.0627372
0.0345707
0.00156487
0.00553799
-0.00710287
-0.131387
-0.00720466
-0.0677822
-0.0676304
0.135413
0.0668126
0.0433939
0.0151889
0.0405069
0.0723595
-0.011165
-0.0611945
-0.00620812
0.00700042
-0.000792301
1.94435e-05
0.0232079
-0.0573863
0.0341783
0.0284144
-0.0011612
0.0493582
0.164741
-0.256875
0.0900862
0.166789
-0.0957673
0.0406012
-0.107676
-0.0408428
-0.105243
-0.116974
-0.072792
-0.0282432
0.101035
-0.0428398
0.105799
-0.0442855
0.0251454
-0.133688
0.0711016
-0.0972905
0.0565799
0.0407107
-0.0480348
0.046718
0.0870288
-0.0184939
-0.0685349
-0.00717137
0.00657367
0.000597694
-0.229084
0.134007
0.095077
-0.0485405
0.275966
0.188748
-0.086601
-0.313171
0.196333
0.116838
0.091499
-0.0484671
-0.0430318
0.0729238
-0.154524
0.0815999
-0.0857646
0.0153225
-0.0035061
0.0480594
-0.0445533
0.0525732
0.0114462
-0.0640194
-0.0115997
-0.0058607
-0.222007
0.0793719
0.142635
0.0485054
-0.0180353
-0.0304701
-0.0461012
0.0565048
-0.0104036
0.148462
0.0985816
-0.247044
-0.152715
-0.0229576
0.00771501
-0.0543068
0.0465918
0.182991
-0.095911
0.0810794
-0.148862
0.000322719
-0.000498883
-0.0113176
0.0638908
-0.0408983
0.0603863
-0.000483046
0.00283007
-0.00234702
-0.0470247
-0.0113506
0.00554777
0.000247952
-0.00579572
0.0954405
-0.0365429
0.220992
-0.125559
-0.0954332
0.0604772
-0.0579697
-0.00250747
-0.122837
0.230728
-0.107891
-0.0463063
-0.00333396
-0.00475944
-2.4201e-06
-0.172076
-0.0753959
0.247471
0.0304259
0.0156174
-0.0460433
0.109855
-0.125442
0.0155868
0.0577168
0.0142671
0.00517931
-0.00422413
-0.000955184
-0.200973
-0.112039
0.0492814
0.00194403
0.0130187
-0.048892
-0.0492947
0.0637853
-0.0406678
-0.0162882
-0.0512296
0.00137158
0.027185
0.0165904
-0.0437754
0.0354847
-0.0384587
-0.0672268
0.0851289
-0.0179022
-0.0352916
-0.0120877
0.0473792
-0.00415466
-0.0388249
0.0429796
-0.23836
0.0766868
0.161673
-0.249439
0.122435
0.0268094
0.0125658
-0.0393752
0.0276042
-0.00354411
0.250742
-0.129772
-0.12097
-0.0633154
0.107699
-0.00734749
0.00113937
0.0602769
-0.0163617
-0.0439152
0.0588513
0.0524574
-0.111309
0.014822
-0.000623222
0.109184
0.177559
0.0878467
-0.0350196
-0.0158684
0.00307993
0.0127885
-0.00147155
0.00054612
-0.00118576
0.000260906
0.0814355
0.212114
0.0694397
-0.0932646
0.204949
-0.111684
-0.124274
0.0414163
0.139419
-0.0552205
0.0140017
-0.0541093
0.0401076
-0.00194324
-0.00499355
0.00693679
0.0693497
0.00135137
-0.00383503
0.0515027
-0.0476676
-0.0609508
0.0871708
-0.02622
0.0273529
-0.000208866
-0.027144
-0.215809
0.118664
0.125485
-0.194776
0.0692904
0.0706645
0.00563622
-0.0763007
0.118878
0.00108023
-0.000496292
-0.00418278
0.0052994
-0.00111661
-0.040356
0.0619319
-0.0215759
-0.0509605
0.0183931
0.0325674
0.169861
-0.0536663
-0.116195
-0.0568254
0.0107242
0.345079
-0.130856
-0.0665302
0.140757
-0.109284
0.0252039
-0.0789778
0.0183491
0.0830437
-0.0757923
0.0258644
0.0457104
-0.00879773
0.308401
-0.219771
-0.0886297
0.000336653
0.0403556
-0.0406923
0.0982953
-0.0385318
-0.119363
-0.102645
-0.00136976
-0.003054
0.0408792
-0.101359
0.0604802
-0.0753765
0.0347222
0.0128427
-0.0135325
0.000689795
0.054505
-0.04679
-0.136918
-0.112136
0.249054
0.0086972
-0.0202574
0.0279394
0.0565648
0.120547