/*--------------------------------*- C++ -*----------------------------------*\
| =========                 |                                                 |
| \\      /  F ield         | OpenFOAM: The Open Source CFD Toolbox           |
|  \\    /   O peration     | Version:  v2012                                 |
|   \\  /    A nd           | Website:  www.openfoam.com                      |
|    \\/     M anipulation  |                                                 |
\*---------------------------------------------------------------------------*/
FoamFile
{
    version     2.0;
    format      ascii;
    class       volVectorField;
    location    "100";
    object      U;
}
// * * * * * * * * * * * * * * * * * * * * * * * * * * * * * * * * * * * * * //

dimensions      [0 1 -1 0 0 0 0];


internalField   nonuniform List<vector> 
53008
(
(1.09715 -0.0445998 -1.19831e-20)
(1.26853 0.00345784 3.13459e-20)
(0.96513 -0.0680171 -9.18507e-21)
(1.18148 -0.34478 2.13254e-20)
(0.01248 -0.0328842 3.67959e-20)
(-0.0997717 0.0169192 -4.47278e-21)
(1.1141 -0.194754 4.66426e-21)
(1.0963 -0.0433859 1.28554e-20)
(1.01672 -0.17377 4.44844e-23)
(0.987947 -0.0518345 -8.80451e-22)
(1.13803 0.0526809 3.03819e-21)
(1.08997 -0.255728 -1.21719e-20)
(0.489987 0.0647783 -1.98134e-21)
(1.02655 0.0906043 3.31752e-21)
(0.988651 -0.0461187 0)
(1.03025 -0.0121732 1.83347e-21)
(1.08105 -0.00780378 -6.26223e-21)
(1.03051 -0.0124955 -3.05882e-21)
(0.484543 0.0602915 0)
(1.07758 0.0110191 6.00891e-21)
(1.07433 -0.01424 5.16314e-21)
(0.852356 -0.197495 -6.46616e-21)
(1.00167 -0.00922705 -2.16349e-21)
(1.11044 -0.192782 0)
(1.06952 -0.0166849 -4.38756e-21)
(1.20344 -0.426607 -1.53788e-20)
(1.04034 0.0923831 0)
(1.13778 -0.0361903 -2.01788e-21)
(1.17147 0.0699259 -1.06013e-20)
(1.17569 0.0521549 -2.8739e-20)
(1.06503 0.098682 -3.97287e-21)
(1.05499 0.115225 0)
(-0.0244255 0.0112229 0)
(1.03763 -0.0523124 2.4834e-21)
(1.0028 -0.0016074 -1.36831e-21)
(0.952634 -0.156257 -5.43219e-21)
(1.01882 -0.0914786 1.11113e-21)
(1.00002 -0.0001068 -2.04002e-22)
(1.13494 -0.184912 -7.58953e-21)
(1.04315 -0.057074 0)
(1.01936 -0.0897447 -6.58604e-22)
(0.800987 0.0591099 -1.60034e-20)
(1.13526 0.0556141 -1.11781e-20)
(0.222213 0.0489497 0)
(1.07815 0.0116359 -3.12647e-21)
(1.03783 -0.0144459 -1.81202e-21)
(1.03715 -0.00541764 -3.30219e-21)
(1.06356 0.00396814 3.19112e-21)
(1.16882 0.0407643 1.02092e-20)
(1.0061 -0.0100214 -5.16718e-22)
(1.01634 2.78083e-05 0)
(0.887161 -0.0614573 -2.24712e-20)
(1.08814 -0.0268837 -1.37823e-20)
(0.99999 -0.00932142 -2.69252e-21)
(1.10211 0.0439709 0)
(0.460869 0.0590779 2.75082e-21)
(1.07736 0.0095803 0)
(1.00411 -0.00750835 1.21145e-21)
(1.13248 0.107535 -3.97994e-21)
(1.11547 0.0263983 -1.43341e-20)
(1.05012 -0.0341531 -4.731e-21)
(1.0653 -0.100227 7.26466e-21)
(0.706532 -0.037768 6.01043e-20)
(0.300987 0.0225359 -5.86067e-21)
(1.08047 -0.404995 6.0882e-21)
(0.998666 -0.0251227 3.01e-21)
(1.17516 0.0516255 3.45561e-20)
(1.03658 -0.0054635 1.34317e-21)
(1.01162 -0.000700023 2.0105e-22)
(1.03562 -0.0173071 -1.44399e-21)
(0.378179 -0.127514 3.27584e-20)
(1.01495 -0.00290451 1.50108e-22)
(0.969093 -0.0145169 0)
(-0.00934882 0.0130248 0)
(1.2014 -0.434645 4.59771e-21)
(1.00271 -0.000275174 0)
(0.999984 -0.000540351 0)
(-0.0917006 0.0178855 -8.24478e-21)
(1.02791 -0.0100226 0)
(0.258387 -0.0950776 0)
(-0.0990102 0.0165251 3.3927e-21)
(0.643348 0.0799391 0)
(1.11879 0.0818073 -4.60744e-21)
(1.15801 -0.377917 1.70187e-20)
(1.09036 -0.126337 -9.75874e-21)
(1.03585 -0.0177544 -1.50473e-21)
(0.837226 -0.351165 -2.28803e-20)
(1.01563 -0.171411 0)
(0.998725 -0.0255452 -6.505e-21)
(1.09411 0.037919 7.43172e-21)
(0.182337 -0.069631 -8.66504e-21)
(0.0919979 0.0437503 -3.69646e-20)
(0.643337 0.0804352 0)
(1.17712 -0.00976959 1.31963e-20)
(0.882331 0.0525471 -2.56075e-20)
(1.1292 0.0685167 -1.84301e-20)
(0.616094 0.0829661 2.93473e-21)
(0.965679 -0.0666024 8.39772e-21)
(1.07444 -0.00887042 -3.47854e-20)
(0.759524 -0.0476557 -4.18437e-20)
(1.07798 0.0102235 0)
(1.04318 -0.0561003 -1.77783e-21)
(1.17903 0.013792 -1.42376e-22)
(1.13756 -0.0346696 1.79217e-21)
(1.10013 -0.043027 0)
(0.117793 0.0100949 1.29146e-20)
(-0.0838827 -0.000876425 -2.83841e-20)
(0.951798 -0.153864 -1.00962e-20)
(1.14734 0.0418163 -8.48752e-21)
(1.01502 -0.00275321 -1.58197e-22)
(1.22076 -0.258725 -5.29421e-21)
(1.08652 -0.287334 0)
(0.999984 -0.000506017 0)
(0.821552 0.0546717 -2.22624e-20)
(0.745989 0.0904772 0)
(1.01493 -5.19004e-05 6.04981e-22)
(1.07624 -0.0034355 -6.04434e-21)
(1.01942 -0.00927136 -3.70284e-22)
(1.06024 0.0993639 0)
(0.146005 -0.0632366 -6.64189e-20)
(0.0231022 -0.0341898 3.15072e-20)
(0.969889 -0.0143046 -4.56695e-21)
(1.02637 -0.063239 2.50281e-22)
(0.790298 -0.995766 -4.23927e-20)
(-0.0903129 0.0178903 -8.15798e-21)
(0.987019 -0.0136805 -7.25742e-21)
(0.162399 -0.0719332 3.30757e-20)
(1.1677 0.0518451 -4.14687e-20)
(1.10817 0.0188033 1.16815e-20)
(0.987059 -0.0373087 7.5205e-21)
(1.06924 0.114993 0)
(1.02477 -0.0370867 -3.59678e-23)
(1.15114 -0.383353 -2.35021e-20)
(1.06768 -0.0535102 2.22941e-21)
(1.02109 -0.00864902 -3.25994e-22)
(1.13314 0.106361 2.03956e-21)
(0.997945 -0.00252352 -5.34065e-21)
(0.49199 0.0636681 0)
(1.01204 -0.0317233 1.2231e-21)
(1.01728 -0.0243319 -5.72361e-22)
(1.02774 -0.0131696 0)
(1.01658 -0.0238102 0)
(1.09204 -0.13656 7.24886e-21)
(1.14519 0.101558 -3.04978e-21)
(1.10893 0.0195998 -8.59246e-21)
(0.979325 -0.0702724 9.41521e-21)
(1.07534 -0.00331953 7.51406e-21)
(1.0032 -0.00685698 1.15351e-21)
(1.03341 0.00190694 1.20371e-21)
(1.04519 -0.0412891 1.63427e-21)
(1.00028 -0.00299204 1.48687e-21)
(0.713876 -0.0405529 0)
(-0.0147922 -0.0300135 -3.90006e-20)
(0.854488 -0.202595 -1.42825e-20)
(1.00917 -0.00957518 0)
(1.08712 -0.0269477 4.68119e-21)
(0.78236 0.073421 -3.10201e-21)
(0.262649 0.0395131 -9.01185e-21)
(1.05897 -0.043818 6.81423e-21)
(1.29567 -0.181826 0)
(1.17626 -0.07513 1.67067e-20)
(1.00588 -0.0098531 -1.50652e-21)
(1.00958 -0.010835 -1.07468e-21)
(0.104779 0.0463474 3.5172e-20)
(1.07052 -0.0307594 -4.94624e-21)
(1 -9.78201e-05 -1.61993e-23)
(1.00734 -0.0226271 0)
(1.07831 -0.0809349 -1.05819e-20)
(1.00485 -0.0104978 0)
(0.947388 -0.0334536 9.39862e-21)
(1.09553 -0.0801084 1.08148e-20)
(0.604546 0.0871057 1.67049e-21)
(0.773021 0.0523072 7.77902e-21)
(1.00534 -0.0159979 0)
(0.841113 -0.983296 4.56889e-20)
(1.03152 -0.014923 1.47633e-21)
(1.09227 -0.125423 0)
(1.12817 0.0675129 5.10504e-21)
(0.837759 -0.343333 1.48262e-20)
(1.03781 -0.19575 2.20855e-21)
(1.02676 -0.0624534 -1.79192e-22)
(1.06974 -0.0300901 4.23516e-21)
(0.226866 0.0498251 2.2643e-20)
(0.990492 -0.053088 1.15939e-20)
(1.0904 -0.251426 0)
(0.310996 0.0256963 0)
(0.68236 -0.0254722 -9.94192e-21)
(0.762395 0.0521077 -3.17043e-20)
(-0.093996 -0.00816262 0)
(1.00318 -0.0067529 0)
(0.966615 -0.242901 -7.07769e-21)
(1.03077 -0.0518493 0)
(0.93327 -0.395769 6.32935e-22)
(0.100591 -0.0532128 8.68884e-20)
(0.995265 -0.0223924 0)
(1.05581 0.00985487 -2.79252e-21)
(1.09562 -0.0676572 1.32535e-20)
(1.00075 -0.0122656 0)
(1.00079 -0.00433336 0)
(0.905913 -0.0417159 2.35612e-20)
(1.18543 -0.0485313 0)
(1.02576 -0.0422122 4.24643e-22)
(1.09959 -0.0291706 1.18123e-22)
(1.01349 -0.0314648 6.92089e-23)
(1.14964 0.0574629 0)
(0.0615506 0.0175542 1.95441e-20)
(1.07983 -0.00557601 -6.64396e-21)
(1.00099 -0.00509755 1.4098e-21)
(1.14916 -0.0888015 5.99915e-21)
(1.02033 -0.00953422 7.90331e-22)
(-0.061926 -0.0013154 -2.56941e-20)
(1.04434 -0.0547804 -2.26429e-21)
(1.18261 0.0487784 -2.54699e-20)
(0.960739 -0.0670834 2.22513e-21)
(1.14684 0.0410113 0)
(0.986152 -0.00412013 3.64197e-21)
(0.997556 -0.0031071 5.1294e-21)
(1.00179 -0.00926049 2.02692e-21)
(1.1766 -0.101793 -1.83848e-20)
(0.991244 -0.0272851 0)
(1.14805 0.0819844 1.08978e-21)
(1.0255 -0.00524154 1.10515e-21)
(1.12147 0.078212 2.43359e-20)
(1.02557 -0.005072 -8.29937e-24)
(1.06618 -0.0435865 3.66698e-21)
(1.1105 0.0696374 8.71803e-21)
(1.01523 -0.0685828 0)
(1.11124 -0.164556 -2.22333e-21)
(1.06514 -0.137265 -5.772e-21)
(1.02808 -0.0130726 0)
(0.180175 0.0251527 0)
(0.829239 0.0983243 0)
(1.03006 0.000228928 -3.2285e-21)
(0.755833 0.0990715 0)
(1.17431 -0.0242066 0)
(0.115844 0.0106733 -5.47426e-20)
(1.05787 0.00332272 5.8977e-21)
(1.02139 -0.0088158 0)
(-0.190344 -0.0159121 0)
(1.03111 -0.0113322 -1.18259e-21)
(1.02448 -0.0364232 1.79122e-22)
(1.03781 -0.0513133 -4.25447e-21)
(1.21419 0.0234224 1.01334e-20)
(1.0459 -0.0417927 0)
(1.10074 -0.0259034 0)
(1.00003 -0.000660893 -1.34809e-21)
(1.22372 -0.160102 2.88146e-20)
(1.14656 0.0819958 0)
(0.992308 -0.00543928 -2.50036e-21)
(1.11435 0.0261832 0)
(1.06669 -0.0245187 3.99091e-21)
(0.970932 -0.0418382 6.10858e-21)
(1.0128 -0.0331909 -2.2414e-21)
(0.90834 -0.0410021 0)
(1.04366 -0.0409761 0)
(0.703806 -0.0318529 -9.30011e-21)
(1.14368 0.100992 -1.04151e-20)
(1.04892 -0.0149188 3.84706e-21)
(1.17689 -0.104028 0)
(1.07836 0.00733696 0)
(1.19711 -0.490476 0)
(1.13522 0.106113 -1.16984e-20)
(1.07675 -0.0806541 9.11361e-21)
(1.01549 -2.88723e-05 7.6454e-22)
(0.999124 -0.0183794 1.55952e-23)
(1.04273 0.0867357 1.64534e-21)
(0.528343 0.0539235 9.25259e-21)
(1.00211 -0.010508 -5.48767e-21)
(0.635938 -0.0215978 0)
(1.12198 0.0796395 -1.22404e-20)
(1.03091 0.00217266 -9.66167e-22)
(1.06657 -0.0531421 -5.99134e-21)
(0.985683 -0.0356624 -1.37322e-20)
(1.21277 0.0241569 -2.93454e-20)
(0.066512 0.0195448 0)
(1.02153 -0.00176674 1.4159e-21)
(1.14853 0.0575743 2.03248e-21)
(0.227367 0.0397884 1.51005e-20)
(1.10207 0.039776 8.73901e-21)
(1.05015 0.00590444 -5.45558e-21)
(1.00166 -0.00942021 0)
(1.00003 -0.000124909 0)
(1.10291 0.0393575 5.22685e-21)
(1.09843 -0.236489 5.52518e-22)
(0.973947 -0.0726834 1.84294e-21)
(1.1329 -0.18719 1.68703e-20)
(1.13522 -0.0541803 8.29422e-21)
(-0.222989 -0.00893484 0)
(1.09917 -0.241153 -1.22681e-20)
(0.991006 -0.0521583 -3.83922e-21)
(1.32331 -0.187746 -5.17624e-21)
(0.400791 0.0650487 -1.37274e-21)
(1.19679 -0.0983174 9.73288e-21)
(0.812631 0.105043 -6.72104e-21)
(0.858479 -0.345621 -1.50596e-20)
(1.00287 -0.000291583 0)
(1.14099 -0.0189622 1.66717e-20)
(1.127 0.0729613 -3.32953e-21)
(0.652953 -0.0258681 0)
(1.06323 0.00235241 3.21516e-21)
(1.19789 -0.100751 0)
(-0.0952237 -0.00898785 0)
(0.0611375 0.0260646 0)
(0.0688962 0.0191573 -1.85464e-20)
(1.00004 -0.00163369 0)
(1.27008 0.00282953 -1.54787e-20)
(0.977289 -0.0498688 -3.24999e-21)
(1.04839 -0.0146335 -3.93172e-21)
(1.01583 -4.91898e-05 -9.10445e-22)
(1.18258 -0.127342 3.91731e-20)
(0.187415 0.0272442 1.4428e-21)
(1.18169 0.0467936 0)
(1.03622 0.088415 5.86738e-21)
(0.0543547 0.0182091 -2.99814e-21)
(1.15356 0.0297572 -1.28872e-20)
(1.14703 -0.0894805 0)
(1 -4.94445e-06 0)
(0.999051 -0.00669735 -1.72134e-21)
(1.02152 -0.00191378 7.13458e-22)
(1.13725 -0.021715 1.10714e-20)
(1.12718 0.0721469 0)
(0.779976 0.0564349 1.65754e-20)
(1.02964 -0.13233 1.74057e-21)
(0.0627581 0.0196508 1.58261e-22)
(1.32053 -0.182593 -1.82877e-20)
(0.970553 -0.0148971 9.29557e-21)
(0.784624 0.0749873 3.49509e-21)
(1.09152 0.00271216 0)
(1.00895 -0.00955791 0)
(1.10052 -0.0780739 8.19625e-21)
(0.14843 0.0488377 0)
(0.995299 -0.0219719 -3.61355e-21)
(1.00003 -0.000158611 0)
(1.01806 -0.0574662 0)
(1.01595 -0.0098719 -2.32751e-23)
(1.02515 -0.00578249 -1.04758e-21)
(0.937333 -0.388479 -1.43961e-21)
(1.01738 0.000119349 -6.96473e-22)
(0.62924 0.084816 -2.83833e-21)
(0.968742 -0.0602217 3.66882e-21)
(1.00003 -0.000157328 0)
(1.0045 -0.0103724 -7.21066e-22)
(1.17551 -0.0735565 0)
(1.02864 -0.0382737 1.30066e-21)
(0.988041 -0.0468008 -9.85126e-22)
(1.06309 0.0861695 2.97668e-21)
(1.11664 -0.193807 1.62454e-20)
(-0.094818 0.0200026 0)
(1.13581 0.104921 1.78419e-20)
(0.0107598 0.0390061 1.78772e-20)
(1.2155 0.000179081 1.83145e-20)
(0.0424987 0.0182747 2.73203e-21)
(1.05734 0.00284609 0)
(0.995349 -0.00670514 0)
(-0.153172 -0.0219213 -2.55569e-20)
(0.618809 0.0617123 6.98508e-21)
(0.997461 -0.0164667 -3.21109e-21)
(1.00178 -0.0256575 -2.1584e-21)
(1.17824 -0.484235 0)
(0.534518 0.0535959 1.76407e-20)
(0.977318 -0.00899428 8.72862e-22)
(1.13676 -0.0543967 1.19302e-20)
(1.04618 -0.0240081 -3.7594e-21)
(-0.103208 -0.0288327 -8.69098e-20)
(1.18251 -0.0860507 9.94485e-22)
(0.42813 0.0650681 0)
(1.02093 -0.00207467 -5.87793e-22)
(1.11246 0.00854626 -1.12863e-21)
(1.06413 -0.0837105 3.4985e-21)
(0.994567 -0.0763165 0)
(0.665436 -0.0204234 -8.08461e-20)
(1.06978 0.0205522 -4.90391e-21)
(0.843436 -0.319666 0)
(1.14604 0.0836609 -1.95854e-20)
(1.1833 -0.0842923 -1.23025e-21)
(1.08068 -0.00506455 1.74811e-21)
(1.13354 0.0102323 -1.95611e-21)
(0.822473 -0.431578 -9.74846e-21)
(1.05671 0.0872847 0)
(0.129723 0.0465972 0)
(1.01085 -0.000296425 1.34517e-22)
(1.01283 -0.0687175 -3.86305e-24)
(1.10662 -0.0871092 9.35727e-21)
(1.07903 0.0080427 -8.84897e-22)
(0.578944 0.0537253 -3.13884e-20)
(1.01216 -0.0123122 0)
(1.07446 -0.0134582 5.45135e-21)
(0.413442 0.0662255 2.46254e-21)
(0.997418 -0.0168442 9.97119e-23)
(0.756033 0.100077 -7.69301e-21)
(0.214238 0.0389262 -2.29068e-20)
(1.00436 -0.00251374 0)
(1.01157 -0.0691271 -1.58608e-21)
(1.05904 -0.0692556 0)
(1.02134 -0.0676564 1.51651e-22)
(1.029 -0.0878556 0)
(1.01752 -0.0248005 5.81209e-22)
(1.17409 -0.0225035 0)
(0.9356 -0.22438 -1.54827e-20)
(0.0711698 0.0277903 0)
(1.02788 -0.131248 -8.75711e-22)
(1.09057 0.00275237 1.02608e-20)
(1.06878 -0.0162446 0)
(-0.0793955 0.0219551 -3.42062e-20)
(1.00478 -0.0106224 -1.163e-21)
(0.999977 -0.0090634 0)
(0.983671 -0.240134 0)
(1.0675 -0.04393 -4.80944e-21)
(1.02808 -0.0380242 -1.08277e-21)
(1.10089 -0.0292124 -6.76679e-21)
(1.02087 -0.00220568 1.44233e-23)
(1.09164 0.0828666 -7.6108e-21)
(1.01352 -0.000609504 -1.7169e-23)
(1.06472 0.00265132 -5.58586e-21)
(1.04751 -0.0419518 2.22792e-21)
(0.132682 -0.060263 0)
(1.00099 -0.00473346 -1.24596e-21)
(-0.0879398 -0.0318839 6.07484e-20)
(1.06548 -0.00293761 3.65592e-21)
(0.99997 -0.0145608 -3.99276e-21)
(1.01174 -0.00749717 6.38628e-22)
(0.983712 -0.0360607 -7.71186e-21)
(1.03983 -0.192723 -7.59598e-21)
(1.06503 -0.0475988 -4.69618e-21)
(1.14057 0.0873618 4.16007e-21)
(1.00024 -0.00278203 0)
(1.0715 0.0186462 -3.51405e-21)
(1.07591 0.0134111 0)
(1.21398 0.000857653 -8.09272e-21)
(1.02125 -0.00194668 0)
(1.06596 0.100031 -5.07015e-23)
(-0.0635374 0.0290994 2.03522e-20)
(1.09288 0.11405 -1.51198e-21)
(1.00463 -0.010507 -1.24204e-23)
(1.18141 0.0243525 -2.33513e-20)
(1.06893 -0.104112 2.33141e-21)
(-0.221843 -0.0104896 -5.81309e-20)
(1.12474 -0.135064 1.23244e-20)
(0.622281 -0.0171731 9.16585e-20)
(1.12325 -0.133019 8.88288e-21)
(1.00209 -0.0102845 4.52396e-21)
(1.19904 -0.195556 0)
(1.08176 -0.397171 6.29609e-21)
(1.13012 0.016198 0)
(1.01676 -0.0242453 4.34095e-22)
(1.1758 -0.0695661 -1.69427e-20)
(-0.0963936 -0.0271653 -3.5932e-20)
(1.09446 0.11326 7.87622e-22)
(0.977958 -0.0709104 -2.09569e-20)
(0.701949 -0.666746 6.34466e-21)
(0.250445 0.0422664 -1.42327e-20)
(1.02563 -0.0875486 3.08359e-22)
(0.057207 0.019941 -2.69282e-21)
(1.09288 -0.138426 0)
(1.06568 -0.00360207 7.52651e-21)
(1.18677 0.0211106 -2.82551e-21)
(0.946153 -0.0359706 0)
(1.03788 -0.00720314 3.60165e-21)
(1.01472 -0.000102344 0)
(1.00108 -0.00567907 1.9811e-21)
(1.16901 0.0701427 -1.04305e-20)
(0.0962738 -0.041139 -5.52668e-20)
(1.02121 -0.00207588 -1.50942e-23)
(1.07095 0.018859 3.53267e-21)
(1.14474 0.0837962 2.12786e-20)
(1.11423 -0.0709724 -1.01456e-20)
(1.02648 -0.0422028 -1.65734e-22)
(-0.215632 -0.0105536 6.28666e-20)
(0.996059 -0.0126464 1.11495e-21)
(0.984429 -0.0383632 -4.08825e-21)
(1.15168 -0.204623 -1.84474e-20)
(1.06276 -0.0843308 -8.20616e-21)
(1.136 -0.0337253 1.7836e-21)
(0.448844 0.0680024 0)
(1.22966 -0.355753 -8.34291e-20)
(1.14507 0.0443179 1.28084e-20)
(1.02241 -0.0680224 -1.57371e-22)
(1.04686 -0.0414384 -4.52868e-21)
(1.13098 -0.259794 -2.15959e-20)
(0.46593 0.0528701 0)
(1.25403 0.0115701 0)
(1.08335 0.0898892 9.51378e-21)
(1.06384 -0.0638831 0)
(1.07033 0.0202137 -6.32568e-21)
(1.09822 0.0717621 0)
(1.01178 -0.00730694 1.68261e-24)
(1.07909 -0.0104836 -7.29365e-21)
(1.0589 -0.0679104 -6.735e-21)
(1.15564 0.0265393 6.64112e-21)
(1.08234 -0.113349 1.09639e-20)
(0.987427 -0.0838909 -3.15121e-21)
(1.03964 -0.0275866 -1.05194e-21)
(-0.0123324 0.0153425 0)
(0.999863 -0.00125278 4.04399e-21)
(1.00197 -0.0251889 0)
(1.11325 0.0808596 -1.07497e-20)
(1.00002 -0.000432058 2.55978e-21)
(0.036824 0.0340211 -1.39151e-20)
(1.06744 -0.137222 -4.41756e-21)
(0.999995 -0.000321999 -2.28446e-21)
(1.1387 -0.0225801 -1.64737e-20)
(1.06367 0.00338024 -7.90447e-21)
(0.777207 0.101463 0)
(1.23694 -0.137814 -6.98631e-20)
(1.0044 -0.00787716 -1.84058e-21)
(0.894297 -0.341989 -1.03026e-20)
(1.11258 0.0818746 1.31512e-20)
(1.14358 -0.0172304 0)
(1.11362 -0.0725078 5.97208e-21)
(1.13254 0.00986259 2.0214e-21)
(0.106301 0.0440185 -4.12897e-21)
(1.14271 -0.196961 8.04361e-21)
(0.999975 -0.00582367 1.13393e-21)
(1.00292 -0.00855444 -1.67906e-21)
(1.23632 -0.141799 -7.42309e-20)
(0.400645 0.0650441 0)
(1.08598 0.0013549 0)
(0.99203 -0.0523325 -3.76054e-21)
(0.973334 -0.0124452 -2.77761e-22)
(-0.212757 0.00191791 1.75451e-22)
(0.968756 -0.0240146 -1.16956e-20)
(-0.119588 -0.0223087 0)
(0.999084 -0.00648328 0)
(1.1505 -0.0679581 -2.2492e-20)
(1.10702 -0.0889912 -1.12172e-20)
(-0.178433 -0.0181872 0)
(1.12226 0.0386678 0)
(1.06601 -0.102014 -3.82478e-21)
(1.20397 -0.0524677 -3.41039e-20)
(1 -0.000254489 2.16352e-21)
(1.1755 0.0508315 7.58708e-21)
(1.03382 0.00205183 -1.47559e-21)
(1.00968 -0.0072829 1.31387e-21)
(0.324801 0.046532 -1.41854e-20)
(1.01269 -0.0326183 2.46831e-21)
(1.05634 0.0101182 0)
(1.13307 0.00741388 8.9727e-21)
(1.08995 0.00944771 8.96742e-21)
(1.02353 -0.0166615 -1.18186e-21)
(1.001 -0.015689 1.26394e-22)
(1.03103 -0.260818 0)
(-0.00309311 0.0321435 0)
(1.13898 -0.152363 -1.20182e-20)
(1.10153 0.00717835 0)
(0.804177 0.10439 3.59045e-21)
(1.07522 0.0132642 -3.22006e-21)
(1.23554 -0.13523 6.88358e-20)
(1.03138 -0.0116315 -2.69156e-23)
(1.00088 -0.0159278 0)
(1.17526 -0.0641945 1.66539e-20)
(0.124257 0.0290105 0)
(1.16773 0.0680333 0)
(0.977624 -0.0381489 0)
(0.685915 0.0618806 2.39501e-20)
(1.07217 -0.0535196 -6.39997e-21)
(1.01143 -0.000600981 0)
(0.254501 0.0392439 9.15733e-21)
(1.02798 -0.0888457 0)
(1.01125 -0.0381796 2.67442e-21)
(1.05021 -0.0402627 -2.36964e-21)
(1.13484 -0.0250397 -7.44452e-21)
(0.484047 0.0534742 -4.99952e-21)
(1.14201 -0.00720373 0)
(1.1773 -0.00833203 -1.7432e-20)
(1.07006 0.0213926 5.63214e-21)
(1.10063 0.00656199 0)
(1.09919 0.0721835 -1.87261e-21)
(0.967842 -0.0214689 5.90335e-21)
(0.948718 -0.0343636 -1.52553e-20)
(1.14061 -0.00700665 -1.71005e-20)
(1.05642 -0.0980125 2.89188e-21)
(1.2432 -0.0745549 -7.81212e-20)
(1.12436 0.0760915 0)
(1.10984 -0.162159 -7.24256e-21)
(1.07936 -0.00983038 7.04195e-21)
(1.02834 -0.0101491 -9.2644e-22)
(1.0853 0.000848609 0)
(1.13223 0.00803558 -7.89838e-21)
(1.19517 -0.195805 0)
(0.983646 -0.0448009 -5.41954e-21)
(1.02662 -0.0885193 -3.84707e-22)
(1.01727 -0.00620105 0)
(1.06952 0.0217059 6.2288e-21)
(1.10255 -0.23361 3.48941e-21)
(1.21152 0.0228698 -2.21176e-20)
(1.25894 0.0114965 0)
(1.00195 -0.00238704 0)
(1.06004 -0.0443377 -7.83871e-21)
(1.13972 0.0859006 -1.19902e-20)
(1.01881 -0.0579018 0)
(0.997581 -0.00703354 3.74227e-21)
(0.996475 -0.0119587 -4.59895e-21)
(0.789533 -0.159096 0)
(1.08047 -0.00413666 -1.78056e-21)
(-0.0965512 -0.0293056 -3.71523e-20)
(0.986395 -0.0369584 9.87615e-22)
(0.065869 0.0195251 0)
(1.22432 -0.358345 3.17096e-20)
(1.00014 -0.0144589 0)
(0.587798 0.0540041 2.58542e-20)
(0.00580165 0.0332462 0)
(1.12124 0.0383059 -1.30084e-20)
(0.995748 -0.00658941 0)
(1.14948 0.0235367 1.13346e-20)
(1.08273 0.0890036 -6.74422e-21)
(0.413553 0.0658859 2.39252e-21)
(1.10061 -0.0419533 0)
(1.04925 -0.140418 5.96699e-21)
(0.696747 -0.267658 2.22444e-20)
(0.968249 -0.0617026 3.74257e-21)
(0.973018 -0.0371395 -1.01762e-20)
(0.978451 -0.0377089 0)
(0.0572741 0.0360952 -2.58085e-20)
(1.036 -0.0149025 1.55784e-21)
(-0.02686 0.0134986 0)
(0.996477 -0.0128336 6.62327e-21)
(1.0246 -0.00328297 9.96292e-22)
(1.0098 -0.0108803 5.15379e-22)
(1.08749 0.0402329 6.13795e-21)
(1.03039 0.000705963 0)
(0.58413 0.0618681 0)
(1.26364 -0.408423 0)
(0.999936 -0.0059791 -1.69545e-21)
(-0.227296 0.00152984 0)
(1.04435 -0.0334051 -7.15503e-22)
(1.02543 -0.0041731 0)
(1.02289 -0.0067037 -7.37811e-22)
(0.971382 -0.0145429 -1.01604e-20)
(1.10284 0.0716376 -8.93887e-21)
(0.984494 -0.0448939 1.21156e-21)
(1.08908 0.0250997 -7.21585e-21)
(1.23376 -0.142458 6.74045e-20)
(0.0807495 -0.0523683 6.57989e-20)
(-0.123686 0.00558747 0)
(1.00001 -4.3838e-05 0)
(1.08953 0.0246953 -6.38398e-21)
(1.03254 -0.0141242 0)
(1.0739 -0.0168633 0)
(1.09429 0.0358611 -7.91874e-21)
(-0.0884141 0.0171764 2.84834e-20)
(-0.229202 -0.00443417 3.92758e-20)
(1.07828 0.113724 5.20816e-21)
(1.28081 -0.0825268 7.79749e-20)
(1.02355 -0.0162766 1.43409e-21)
(1.02468 0.000984991 -7.60085e-22)
(0.985105 -0.0361629 8.57779e-21)
(1.03725 -0.0143272 3.49568e-23)
(1.15427 0.0288383 1.24303e-20)
(0.986255 -0.0058918 2.88501e-21)
(0.994852 -0.00588666 0)
(0.972591 -0.0126644 2.58487e-22)
(1.0304 -0.00459917 4.19098e-21)
(1.07718 0.012827 -3.31948e-21)
(1.07004 0.0116439 0)
(1.0148 -0.0213248 1.28073e-21)
(0.655765 0.0551996 9.53348e-21)
(0.990837 -0.0475404 0)
(0.999474 -0.00184713 -5.2241e-22)
(1.03034 -0.00491555 -9.76013e-22)
(0.987344 -0.0132942 -6.25135e-21)
(1.17106 0.0428808 -2.66928e-20)
(0.843805 0.0615777 0)
(1.14891 -0.0669361 0)
(1.1003 -0.170953 2.57479e-20)
(0.933655 -0.00377329 0)
(0.0597831 0.018237 -6.75403e-23)
(-0.147855 -0.0227991 0)
(0.438328 0.0604558 1.73823e-20)
(1.03402 -0.0520217 1.65241e-21)
(1.0072 -0.00859723 -3.79697e-22)
(0.091947 0.0440674 4.27093e-21)
(0.720631 -0.230429 0)
(1.00556 -0.0169756 0)
(1.0772 0.115445 0)
(1.00068 -0.0120236 0)
(1.03138 -0.0526751 1.74225e-22)
(1.01074 -0.00373876 0)
(0.406059 -0.131933 2.28145e-22)
(0.884893 -0.338746 6.67722e-21)
(1.02149 -0.0458961 -6.30628e-23)
(1.23916 -0.131824 0)
(1.01004 -0.0315139 1.47701e-21)
(0.944899 -0.0366078 1.0399e-20)
(0.658941 0.0549667 -1.80388e-20)
(1.08271 -0.0024256 -9.07258e-22)
(1.04507 -0.0338506 4.87857e-21)
(-0.0355828 0.0135114 -1.89393e-20)
(1.0317 0.00170279 -4.11022e-21)
(1.07071 0.0134516 6.01989e-21)
(1.08391 -0.0279294 0)
(1.0625 -0.0633506 -2.69952e-21)
(0.936296 -0.21947 1.32311e-20)
(0.674571 -0.863594 -4.48374e-21)
(1.03176 -0.015325 -1.19685e-21)
(1.01448 -0.0211429 -9.0109e-22)
(1.04859 -0.0155986 0)
(0.983043 -0.273842 4.90404e-20)
(1.08931 0.0700788 -1.99839e-22)
(1.02833 -0.061694 6.70087e-22)
(1.01126 -0.00412104 7.50024e-22)
(1.29632 -0.20128 -2.76942e-20)
(1.0247 0.000796822 -2.58821e-22)
(1.1428 -0.0117406 -1.03739e-20)
(0.986623 -0.00597651 0)
(1.03794 -0.00337003 3.34222e-21)
(1.0491 -0.015857 0)
(1.00294 -0.00161507 1.4245e-21)
(0.981089 -0.0332573 -7.67862e-21)
(0.995567 -0.00680367 -4.22551e-21)
(1.03696 -0.00798761 -1.73356e-21)
(1.0694 -0.028417 -2.49317e-21)
(1.23915 -0.0699475 -1.814e-20)
(0.986312 -0.00499026 0)
(1.17813 0.0236273 -5.29412e-21)
(1.01484 -0.0649161 -1.19996e-21)
(-0.188162 0.0169062 0)
(1.04931 -0.0112922 -3.30912e-21)
(1.27714 -0.0105543 -5.91755e-20)
(1.00002 -0.00157125 0)
(0.869567 0.058364 0)
(1.00001 -0.000164314 -1.99047e-21)
(0.987552 -0.0241357 3.42328e-22)
(1.06553 0.101077 4.05197e-21)
(1.14422 -0.0221875 1.70889e-20)
(0.299878 0.0448624 -9.52814e-21)
(1.0339 -0.258889 -3.94051e-21)
(1.0373 -0.188296 0)
(1.02788 -0.00390933 -1.83957e-20)
(1.1067 0.0707851 0)
(1.03811 -0.0132705 1.97547e-21)
(0.0581299 0.0185734 -2.64819e-21)
(1.0949 -0.00988571 0)
(1.04434 -0.0558002 2.50729e-21)
(0.391913 0.0585667 3.79526e-21)
(1.0219 -0.0465015 -8.64332e-23)
(1.24055 -0.0680692 -1.02527e-20)
(1.2382 -0.129305 0)
(1.07024 0.0129071 -7.02346e-23)
(1.11737 0.081526 -5.76872e-21)
(1.16883 0.071536 1.15809e-20)
(0.999328 -0.0182207 0)
(0.824697 -0.446149 9.56532e-21)
(1.00195 -0.00665598 0)
(1.08677 -0.0283553 4.56377e-21)
(0.992632 -0.00532269 -4.53629e-21)
(1.08342 -0.00176735 -6.53245e-21)
(0.875117 -0.210361 0)
(1.03782 -0.00367577 0)
(1.07865 0.00658497 0)
(1 -0.000618103 -5.23402e-21)
(1.29856 -0.178872 -8.66414e-21)
(1.17633 -0.0680832 1.91733e-20)
(1.08296 -0.00337279 9.74826e-22)
(1.097 -0.0786345 -9.38944e-21)
(1.07962 0.00646371 0)
(0.999829 -0.00143627 2.04481e-21)
(0.848182 0.0986293 0)
(1.21577 -0.172947 0)
(0.952047 -0.380812 6.90239e-23)
(1.09034 0.0828035 1.01616e-22)
(-0.0280164 0.0143311 3.18594e-20)
(1.17043 0.0468765 0)
(1.04765 -0.0291429 -1.79022e-21)
(-0.179137 0.0183974 0)
(1.07144 -0.0545312 -6.27337e-21)
(1.00336 -0.000550001 0)
(-0.096633 0.0162577 -2.6478e-20)
(1.27824 -0.00824184 6.97745e-20)
(1.00001 -0.00085402 -1.38983e-21)
(1.14905 -0.47282 2.88609e-20)
(0.853196 0.104029 -1.28934e-21)
(1.1721 -0.274482 -2.27201e-20)
(1.04289 -0.0332806 -2.94868e-21)
(-0.175623 -0.0173648 3.53338e-20)
(1.13841 0.0515652 0)
(0.837475 0.103383 0)
(1.12269 -0.0474004 -4.96408e-21)
(1.0019 -0.0265992 -3.81329e-21)
(0.329791 -0.0480723 3.00861e-20)
(0.760952 -0.417105 -2.75029e-20)
(1.08906 0.109898 0)
(1.00602 -0.0669343 4.21778e-21)
(1.00004 -0.000821214 8.40816e-23)
(1.0764 0.0125837 3.26734e-21)
(0.994029 -0.771679 3.69815e-20)
(1.06399 -0.0292538 -4.19071e-21)
(0.984515 -0.785594 -3.90306e-20)
(1.16982 0.0412958 0)
(1.0443 -0.0416405 -2.11297e-21)
(1.11135 0.0117321 -7.41245e-21)
(0.279707 0.039625 0)
(0.832398 0.0572944 0)
(0.999005 -0.154171 1.44749e-22)
(-0.16433 -0.0197358 -4.04728e-20)
(0.946046 -0.0340956 5.07873e-21)
(1.17937 -0.360533 0)
(0.115454 0.0285046 5.58229e-21)
(0.986954 -0.00671684 0)
(0.899832 -0.291586 -5.01781e-20)
(0.974005 -0.0741334 -2.03229e-21)
(1.00579 -0.0451357 -2.40504e-21)
(0.48955 0.064816 3.12479e-21)
(0.943673 -0.0393193 -1.16293e-20)
(1.17195 0.041166 0)
(1.00519 -0.240054 0)
(1.07981 0.00563151 -7.00531e-21)
(1.00089 -0.0153641 -3.97786e-21)
(1.16014 -0.364055 1.95264e-20)
(0.77087 -0.427648 3.05355e-20)
(1.06277 0.00418541 -8.91011e-21)
(0.995648 -0.0126306 -3.41859e-22)
(0.0362227 0.0173994 -2.66988e-21)
(1.01412 -0.000495808 0)
(1.07835 -0.348183 -4.93034e-20)
(1.08229 -0.111177 4.97186e-21)
(1.08984 0.111306 0)
(1.03782 -0.0135514 0)
(1.04358 -0.0338094 3.88125e-21)
(0.227852 -0.0899268 0)
(1.17243 0.00398373 0)
(1.24304 -0.0147573 0)
(0.0455024 0.0159356 0)
(1.14352 -0.0126355 0)
(-0.214965 -0.00473874 0)
(1.16062 -0.131625 0)
(0.949924 -0.0334502 -4.74448e-21)
(0.0431034 0.0181145 0)
(1.07405 -0.0159723 5.03885e-21)
(0.998967 -0.00685727 0)
(1.21035 0.0234051 4.86439e-21)
(1.2307 -0.19806 -1.71624e-20)
(1.05897 0.0149 3.04853e-21)
(0.981919 -0.0189324 8.37679e-21)
(1.03209 0.00190066 2.0398e-21)
(1.00376 -0.00750858 -1.35547e-21)
(1.00195 -0.00655807 1.26194e-21)
(1.14405 0.0446646 0)
(0.0611181 0.0265829 -2.17801e-20)
(0.8715 0.0594345 8.88896e-21)
(1.00526 -0.00937719 0)
(1.08213 0.0224764 0)
(0.981904 -0.0639408 -8.93528e-21)
(1.08958 0.0982747 0)
(1.00361 -0.00742187 0)
(0.132655 0.0281479 0)
(-0.226651 -0.00962913 -4.50839e-21)
(-0.164383 0.0161059 0)
(1.18461 -0.358217 0)
(1.07572 -0.0983967 -2.65219e-21)
(1.00837 -0.0226366 3.09987e-22)
(0.0712328 0.026818 1.03017e-20)
(1.01002 -0.0320464 0)
(1.01709 -0.0581975 -6.84078e-22)
(1.01626 -0.0577069 6.1494e-22)
(1.05243 -0.0286846 2.39135e-21)
(1.01083 -0.167791 -4.75714e-22)
(1.09726 -0.0675917 -1.55592e-20)
(0.954141 -0.0187214 -7.68526e-21)
(0.953606 -0.0137282 0)
(1.0018 -0.00907569 0)
(0.968242 -0.037048 0)
(0.995602 -0.0124309 0)
(1.00533 -0.0163064 0)
(0.888022 -0.369689 0)
(1.18534 -0.126323 -4.72671e-20)
(0.995849 -0.0127832 -6.72755e-22)
(0.990811 -0.0263088 0)
(-0.219605 -0.00977503 8.18073e-21)
(0.33547 -0.0502029 0)
(1.08563 -0.0282196 1.43567e-20)
(1.1604 -0.492625 6.35794e-20)
(1.09384 0.0372022 0)
(1.01425 -0.211138 1.46688e-21)
(1.18653 0.0223449 0)
(1.02199 -0.0191456 -3.65732e-22)
(1.01212 -0.0323272 -3.06848e-22)
(1.00168 -0.00865047 1.7242e-21)
(1.01054 -0.0312869 -3.32955e-23)
(1.05066 -0.033624 0)
(0.705376 -0.259331 1.87523e-20)
(1.0048 -0.011641 -1.64553e-21)
(1.01965 -0.00860795 -4.03718e-22)
(1.00551 -0.0135141 7.56075e-23)
(1.00224 -0.010086 -4.69299e-21)
(-0.157914 0.0173409 0)
(1.03894 -0.186905 0)
(1.02482 -0.00571969 5.99721e-22)
(1.07457 -0.0183469 5.40886e-21)
(1.00106 -0.00550784 -3.86366e-21)
(1.14784 -0.063695 -5.5545e-21)
(1.02287 -0.00784493 0)
(1.17698 -0.0518575 9.63505e-21)
(1.17264 0.0690177 1.32061e-20)
(1.03782 -0.0127158 -3.32679e-21)
(0.818294 0.0565464 8.84639e-21)
(1.09612 0.114357 -8.14248e-22)
(1.17996 0.0275353 0)
(1.14476 -0.0163444 0)
(-0.0528235 0.0141095 3.44725e-20)
(-0.0100527 0.0369427 2.02245e-20)
(0.987225 -0.0127802 0)
(0.998171 -0.0172649 -4.26685e-21)
(0.954496 -0.0178164 8.95694e-21)
(0.834151 0.102039 0)
(1.11769 0.0660366 -8.92386e-21)
(0.999715 -0.0786674 0)
(-0.078004 -0.0325206 0)
(1.21576 -0.35043 0)
(1.03206 0.00219906 0)
(1.01573 -0.0210201 0)
(0.967659 -0.0378963 -9.70698e-21)
(0.79571 -0.154499 0)
(1.07094 -0.0656495 0)
(1.00253 -0.0077492 0)
(1.00399 -0.0075817 0)
(1.00114 -0.0241634 -3.40534e-22)
(1.0183 -0.0253573 -3.16795e-22)
(0.190047 0.026526 0)
(1.17386 -0.345965 -1.90755e-20)
(1.00528 -0.0445536 5.75382e-21)
(1.09089 -0.314245 -4.33862e-20)
(0.619462 0.0876582 0)
(0.999276 -0.00145429 -5.30565e-21)
(1.01334 -0.0309093 0)
(1.01772 -0.0689297 -8.54791e-22)
(1.12082 -0.0512493 0)
(0.178757 0.0259769 0)
(1.3273 -0.254664 -3.62505e-20)
(0.141781 0.0289265 0)
(1.11333 0.0519291 0)
(1.16981 -0.269634 6.82525e-21)
(1.17216 -0.49625 -7.15281e-20)
(1.08601 0.109207 -3.3582e-21)
(-0.263704 -0.005699 9.73712e-21)
(1.0748 -0.0174633 5.67035e-21)
(1.10801 0.0345715 0)
(1.08445 -0.00213121 6.70564e-21)
(1.07471 0.0140862 9.59603e-21)
(-0.0868625 0.016694 0)
(1.03439 -0.0156584 0)
(-0.0930349 -0.0302827 0)
(1.10439 0.101779 -1.208e-20)
(1.04822 0.00889065 -4.075e-21)
(0.989191 -0.240369 -9.71706e-22)
(1.03498 -0.0158639 -1.43091e-21)
(0.181334 0.0340755 2.14325e-20)
(1.00631 -0.0662034 0)
(1.21503 -0.245601 -6.10615e-20)
(1.09755 0.11348 -2.50916e-21)
(1.0271 -0.0107098 -1.87305e-21)
(0.647094 -0.015534 -1.2404e-20)
(1.02014 -0.0182952 3.21773e-24)
(1.00001 -0.000586316 3.38976e-21)
(0.603988 -0.0120496 1.17978e-20)
(1.06017 -0.0660049 -2.76473e-21)
(1.01039 -0.00701872 8.15419e-22)
(0.192667 0.0258378 0)