/*--------------------------------*- C++ -*----------------------------------*\
| =========                 |                                                 |
| \\      /  F ield         | OpenFOAM: The Open Source CFD Toolbox           |
|  \\    /   O peration     | Version:  v2012                                 |
|   \\  /    A nd           | Website:  www.openfoam.com                      |
|    \\/     M anipulation  |                                                 |
\*---------------------------------------------------------------------------*/
FoamFile
{
    version     2.0;
    format      ascii;
    class       volVectorField;
    location    "100";
    object      U_0;
}
// * * * * * * * * * * * * * * * * * * * * * * * * * * * * * * * * * * * * * //

dimensions      [0 1 -1 0 0 0 0];


internalField   nonuniform List<vector> 
53008
(
(1.09716 -0.0445986 -1.19817e-20)
(1.26845 0.0033791 3.13359e-20)
(0.965134 -0.0680202 -9.18632e-21)
(1.18151 -0.34478 2.13276e-20)
(0.0124722 -0.0328849 3.68018e-20)
(-0.0997973 0.016875 -4.47416e-21)
(1.11411 -0.194752 4.66437e-21)
(1.09631 -0.0433845 1.28538e-20)
(1.01673 -0.173775 4.44086e-23)
(0.98795 -0.0518365 -8.80686e-22)
(1.13805 0.0527513 3.03826e-21)
(1.08999 -0.25573 -1.21727e-20)
(0.490255 0.06476 -1.97264e-21)
(1.02675 0.0908433 3.31821e-21)
(0.988654 -0.0461211 0)
(1.03025 -0.0121726 1.8311e-21)
(1.08105 -0.00779545 -6.26079e-21)
(1.03051 -0.012495 -3.0549e-21)
(0.484438 0.0601622 0)
(1.07758 0.0110309 6.00711e-21)
(1.07434 -0.0142339 5.16183e-21)
(0.852364 -0.197508 -6.46631e-21)
(1.00167 -0.00922725 -2.16491e-21)
(1.11046 -0.192781 0)
(1.06952 -0.0166798 -4.38631e-21)
(1.20348 -0.426616 -1.53804e-20)
(1.04054 0.0926244 0)
(1.1378 -0.036192 -2.01777e-21)
(1.17157 0.0701089 -1.06069e-20)
(1.17584 0.0522394 -2.87556e-20)
(1.0649 0.0985406 -3.96332e-21)
(1.05512 0.115178 0)
(-0.0246237 0.0112326 0)
(1.03764 -0.0523125 2.4816e-21)
(1.0028 -0.00160738 -1.37001e-21)
(0.952643 -0.156264 -5.43252e-21)
(1.01883 -0.0914802 1.11239e-21)
(1.00002 -0.000106811 -2.04202e-22)
(1.13495 -0.184909 -7.58965e-21)
(1.04316 -0.0570745 0)
(1.01937 -0.0897463 -6.59765e-22)
(0.800898 0.0590803 -1.60159e-20)
(1.13527 0.0556864 -1.11777e-20)
(0.222195 0.0488315 0)
(1.07816 0.011648 -3.12554e-21)
(1.03783 -0.0144447 -1.81046e-21)
(1.03715 -0.00541428 -3.29905e-21)
(1.06357 0.00397664 3.18971e-21)
(1.16892 0.0408039 1.0213e-20)
(1.0061 -0.0100222 -5.17308e-22)
(1.01634 2.79209e-05 0)
(0.887164 -0.0614646 -2.24726e-20)
(1.08815 -0.0268796 -1.378e-20)
(0.999991 -0.00932226 -2.6939e-21)
(1.10211 0.0439945 0)
(0.460773 0.058949 2.75115e-21)
(1.07736 0.00959188 0)
(1.00411 -0.00750829 1.21271e-21)
(1.13234 0.10769 -3.97633e-21)
(1.11548 0.0264237 -1.43327e-20)
(1.05013 -0.0341529 -4.7289e-21)
(1.06531 -0.100228 7.26365e-21)
(0.706678 -0.0377141 6.01024e-20)
(0.301363 0.0225321 -5.83419e-21)
(1.0805 -0.405007 6.08901e-21)
(0.998668 -0.0251262 3.01124e-21)
(1.17531 0.0517065 3.45759e-20)
(1.03658 -0.00546024 1.34188e-21)
(1.01162 -0.000699921 2.03063e-22)
(1.03562 -0.0173066 -1.44262e-21)
(0.378185 -0.127525 3.27624e-20)
(1.01495 -0.00290437 1.48484e-22)
(0.969093 -0.0145227 0)
(-0.00954662 0.0130358 0)
(1.20145 -0.434655 4.59826e-21)
(1.00271 -0.00027518 0)
(0.999984 -0.000540452 0)
(-0.0917206 0.0178375 -8.24715e-21)
(1.02791 -0.0100221 0)
(0.258389 -0.0950888 0)
(-0.0990419 0.0164812 3.39376e-21)
(0.643532 0.0798866 0)
(1.11872 0.0818781 -4.60507e-21)
(1.15805 -0.377923 1.70205e-20)
(1.09037 -0.126338 -9.75822e-21)
(1.03586 -0.0177539 -1.50338e-21)
(0.83724 -0.351184 -2.28798e-20)
(1.01564 -0.171416 0)
(0.998727 -0.0255488 -6.50767e-21)
(1.09411 0.0379374 7.42975e-21)
(0.182349 -0.0696447 -8.66616e-21)
(0.0920872 0.0437168 -3.69494e-20)
(0.643525 0.0803877 0)
(1.17715 -0.0097904 1.31963e-20)
(0.882221 0.0524337 -2.55988e-20)
(1.12917 0.0685988 -1.8426e-20)
(0.616329 0.0831465 2.93246e-21)
(0.965683 -0.0666054 8.39886e-21)
(1.07455 -0.00887062 -3.47762e-20)
(0.759681 -0.0476043 -4.18423e-20)
(1.07798 0.0102353 0)
(1.04319 -0.0561008 -1.7769e-21)
(1.17908 0.013768 -1.42208e-22)
(1.13758 -0.0346712 1.79208e-21)
(1.10014 -0.0430256 0)
(0.117851 0.0101644 1.29124e-20)
(-0.0838506 -0.000820487 -2.8382e-20)
(0.951806 -0.153871 -1.00968e-20)
(1.14738 0.0418709 -8.48875e-21)
(1.01502 -0.00275309 -1.56381e-22)
(1.22079 -0.258709 -5.29458e-21)
(1.0866 -0.287335 0)
(0.999984 -0.000506102 0)
(0.821452 0.0545633 -2.22552e-20)
(0.746238 0.0906791 0)
(1.01493 -5.1833e-05 6.02701e-22)
(1.07624 -0.00342658 -6.04271e-21)
(1.01943 -0.0092709 -3.68642e-22)
(1.06011 0.0991988 0)
(0.146014 -0.0632505 -6.64277e-20)
(0.0230967 -0.034192 3.15121e-20)
(0.96989 -0.0143103 -4.56777e-21)
(1.02638 -0.0632393 2.49108e-22)
(0.79031 -0.995804 -4.23976e-20)
(-0.0903466 0.0178431 -8.16076e-21)
(0.98702 -0.013684 -7.25933e-21)
(0.162399 -0.0719458 3.30797e-20)
(1.16781 0.0519311 -4.14869e-20)
(1.10818 0.0188229 1.16801e-20)
(0.987062 -0.0373123 7.52239e-21)
(1.06917 0.114914 0)
(1.02477 -0.0370858 -3.52628e-23)
(1.15117 -0.38336 -2.35046e-20)
(1.06769 -0.0535106 2.2289e-21)
(1.0211 -0.00864882 -3.24953e-22)
(1.13299 0.106516 2.03783e-21)
(0.997945 -0.00252737 -5.34266e-21)
(0.492258 0.0636464 0)
(1.01205 -0.0317236 1.22434e-21)
(1.01728 -0.024331 -5.74219e-22)
(1.02774 -0.0131694 0)
(1.01658 -0.0238094 0)
(1.09205 -0.136561 7.24856e-21)
(1.14509 0.101753 -3.04834e-21)
(1.10893 0.0196198 -8.59143e-21)
(0.97933 -0.0702746 9.41685e-21)
(1.07535 -0.00331064 7.51196e-21)
(1.0032 -0.00685684 1.1546e-21)
(1.03341 0.00190961 1.20219e-21)
(1.0452 -0.0412893 1.63341e-21)
(1.00028 -0.00299368 1.48785e-21)
(0.714022 -0.0405008 0)
(-0.0148061 -0.0300133 -3.9007e-20)
(0.854497 -0.202608 -1.42828e-20)
(1.00918 -0.00957596 0)
(1.08713 -0.0269436 4.68043e-21)
(0.782491 0.0735966 -3.10377e-21)
(0.262549 0.0394836 -9.0205e-21)
(1.05897 -0.0438181 6.81219e-21)
(1.29568 -0.181777 0)
(1.17626 -0.0751348 1.67056e-20)
(1.00588 -0.00985384 -1.50823e-21)
(1.00958 -0.0108358 -1.0767e-21)
(0.104863 0.046311 3.51574e-20)
(1.07053 -0.0307571 -4.94502e-21)
(1 -9.7819e-05 -1.61978e-23)
(1.00734 -0.0226292 0)
(1.07832 -0.0809362 -1.05805e-20)
(1.00485 -0.0104983 0)
(0.94739 -0.0334582 9.39976e-21)
(1.09554 -0.0801094 1.08138e-20)
(0.604804 0.0871775 1.66569e-21)
(0.772957 0.0522254 7.776e-21)
(1.00534 -0.0159997 0)
(0.841123 -0.983332 4.56942e-20)
(1.03152 -0.0149227 1.47456e-21)
(1.09227 -0.125424 0)
(1.12815 0.0675916 5.10407e-21)
(0.837773 -0.343351 1.48259e-20)
(1.03783 -0.195754 2.20855e-21)
(1.02677 -0.0624536 -1.78177e-22)
(1.06974 -0.0300877 4.23411e-21)
(0.226849 0.0497055 2.26479e-20)
(0.990495 -0.0530897 1.15968e-20)
(1.09042 -0.251428 0)
(0.311368 0.0256925 0)
(0.682491 -0.0254154 -9.9409e-21)
(0.762337 0.0520304 -3.16921e-20)
(-0.0939916 -0.00811739 0)
(1.00318 -0.00675277 0)
(0.966687 -0.242906 -7.07856e-21)
(1.03077 -0.0518492 0)
(0.933289 -0.395786 6.32607e-22)
(0.100595 -0.0532259 8.69004e-20)
(0.995267 -0.022396 0)
(1.05581 0.00986193 -2.79086e-21)
(1.09563 -0.0676579 1.32522e-20)
(1.00075 -0.0122657 0)
(1.00079 -0.00433508 0)
(0.905915 -0.0417219 2.3563e-20)
(1.18543 -0.0485453 0)
(1.02576 -0.0422114 4.22216e-22)
(1.0996 -0.0291668 1.18134e-22)
(1.01349 -0.0314648 6.92926e-23)
(1.14968 0.0575575 0)
(0.0614989 0.0175987 1.95441e-20)
(1.07983 -0.00556723 -6.64233e-21)
(1.00099 -0.00509915 1.41082e-21)
(1.14916 -0.0888029 5.99882e-21)
(1.02033 -0.00953384 7.87357e-22)
(-0.0618952 -0.00125728 -2.56927e-20)
(1.04435 -0.0547808 -2.2632e-21)
(1.18281 0.0488204 -2.54875e-20)
(0.960743 -0.0670867 2.22541e-21)
(1.14688 0.0410641 0)
(0.986152 -0.00412252 3.64291e-21)
(0.997556 -0.00311069 5.1313e-21)
(1.00179 -0.00926063 2.02825e-21)
(1.1766 -0.101792 -1.83837e-20)
(0.991246 -0.0272894 0)
(1.14803 0.0821435 1.08973e-21)
(1.0255 -0.00524022 1.10316e-21)
(1.12141 0.078287 2.43244e-20)
(1.02557 -0.00507059 -8.30352e-24)
(1.06619 -0.0435862 3.6661e-21)
(1.11045 0.0696779 8.71389e-21)
(1.01524 -0.0685833 0)
(1.11125 -0.164555 -2.22331e-21)
(1.06515 -0.137267 -5.77158e-21)
(1.02808 -0.0130723 0)
(0.180404 0.0252 0)
(0.829499 0.0985288 0)
(1.03006 0.000231385 -3.2238e-21)
(0.756123 0.0991527 0)
(1.17432 -0.0242232 0)
(0.115902 0.0107424 -5.4732e-20)
(1.05787 0.00333016 5.89475e-21)
(1.02139 -0.0088156 0)
(-0.190383 -0.0159108 0)
(1.03111 -0.0113314 -1.18115e-21)
(1.02448 -0.0364222 1.7781e-22)
(1.03781 -0.0513134 -4.2513e-21)
(1.21422 0.0233137 1.01335e-20)
(1.04591 -0.0417928 0)
(1.10075 -0.0258989 0)
(1.00003 -0.000661003 -1.34905e-21)
(1.22372 -0.160083 2.88143e-20)
(1.14653 0.0821507 0)
(0.992308 -0.00543992 -2.50114e-21)
(1.11436 0.026208 0)
(1.0667 -0.0245156 3.98978e-21)
(0.970935 -0.041842 6.10961e-21)
(1.01281 -0.0331909 -2.24372e-21)
(0.908342 -0.041008 0)
(1.04367 -0.0409762 0)
(0.703946 -0.031797 -9.2993e-21)
(1.14358 0.101182 -1.04099e-20)
(1.04893 -0.0149159 3.845e-21)
(1.17689 -0.104027 0)
(1.07836 0.00734832 0)
(1.19715 -0.490495 0)
(1.13508 0.106277 -1.16892e-20)
(1.07676 -0.0806553 9.11241e-21)
(1.01549 -2.88132e-05 7.61359e-22)
(0.999126 -0.0183816 1.55948e-23)
(1.04291 0.0869683 1.64595e-21)
(0.528303 0.0539126 9.2612e-21)
(1.00211 -0.0105079 -5.49128e-21)
(0.636063 -0.0215389 0)
(1.12192 0.0797177 -1.22345e-20)
(1.03091 0.00217474 -9.64756e-22)
(1.06658 -0.0531424 -5.99003e-21)
(0.985686 -0.0356663 -1.37354e-20)
(1.21281 0.0240481 -2.93459e-20)
(0.0664131 0.0195941 0)
(1.02153 -0.00176542 1.41245e-21)
(1.14857 0.0576679 2.03277e-21)
(0.227321 0.0398918 1.51046e-20)
(1.10207 0.0397993 8.73699e-21)
(1.05015 0.00591026 -5.45185e-21)
(1.00166 -0.00942037 0)
(1.00003 -0.000124925 0)
(1.1029 0.0393813 5.22569e-21)
(1.09845 -0.236489 5.52537e-22)
(0.973951 -0.072686 1.84323e-21)
(1.13291 -0.187187 1.68706e-20)
(1.13523 -0.0541826 8.29369e-21)
(-0.223004 -0.00891453 0)
(1.09919 -0.241153 -1.22688e-20)
(0.99101 -0.05216 -3.84019e-21)
(1.32332 -0.187678 -5.17621e-21)
(0.400954 0.0651843 -1.37096e-21)
(1.19679 -0.0983158 9.73223e-21)
(0.81292 0.105149 -6.70631e-21)
(0.858493 -0.345638 -1.50591e-20)
(1.00287 -0.000291588 0)
(1.14101 -0.0189621 1.66712e-20)
(1.12696 0.0730447 -3.32846e-21)
(0.653083 -0.0258098 0)
(1.06323 0.00236066 3.21378e-21)
(1.19789 -0.100749 0)
(-0.0952176 -0.00894234 0)
(0.0610118 0.0260139 0)
(0.0688382 0.019206 -1.85466e-20)
(1.00004 -0.00163444 0)
(1.27 0.00275371 -1.54739e-20)
(0.977292 -0.0498717 -3.25058e-21)
(1.04839 -0.0146306 -3.92954e-21)
(1.01583 -4.91006e-05 -9.07025e-22)
(1.18258 -0.127337 3.91716e-20)
(0.187645 0.0272957 1.43988e-21)
(1.18186 0.0468227 0)
(1.03641 0.0886495 5.86897e-21)
(0.0542288 0.0182537 -2.99953e-21)
(1.15361 0.0297869 -1.28891e-20)
(1.14703 -0.0894818 0)
(1 -4.94403e-06 0)
(0.999052 -0.00669997 -1.72211e-21)
(1.02152 -0.00191247 7.11716e-22)
(1.13727 -0.0217143 1.10709e-20)
(1.12715 0.0722293 0)
(0.779884 0.0563976 1.65883e-20)
(1.02964 -0.132333 1.73977e-21)
(0.0626337 0.0196985 1.5833e-22)
(1.32054 -0.18253 -1.82881e-20)
(0.970554 -0.0149029 9.29726e-21)
(0.784759 0.0751671 3.4971e-21)
(1.09153 0.00272408 0)
(1.00895 -0.00955875 0)
(1.10053 -0.0780749 8.19553e-21)
(0.148496 0.0487896 0)
(0.995301 -0.0219754 -3.61484e-21)
(1.00003 -0.000158631 0)
(1.01806 -0.0574661 0)
(1.01595 -0.00987097 -2.47932e-23)
(1.02515 -0.00578141 -1.04561e-21)
(0.937352 -0.388496 -1.43932e-21)
(1.01738 0.000119501 -6.94041e-22)
(0.629483 0.0849958 -2.83594e-21)
(0.968745 -0.0602246 3.66937e-21)
(1.00003 -0.000157346 0)
(1.0045 -0.0103728 -7.2172e-22)
(1.17551 -0.0735617 0)
(1.02864 -0.038273 1.2979e-21)
(0.988044 -0.0468033 -9.85368e-22)
(1.06326 0.0864036 2.97776e-21)
(1.11666 -0.193805 1.62456e-20)
(-0.0948077 0.019952 0)
(1.13568 0.105085 1.78275e-20)
(0.0108733 0.0389554 1.78713e-20)
(1.2155 0.000112133 1.83126e-20)
(0.0423399 0.0183111 2.73373e-21)
(1.05734 0.00285339 0)
(0.99535 -0.00670616 0)
(-0.153199 -0.0219286 -2.55597e-20)
(0.618693 0.0615943 6.98372e-21)
(0.997462 -0.0164683 -3.21239e-21)
(1.00179 -0.0256607 -2.15944e-21)
(1.17828 -0.484252 0)
(0.534476 0.0535808 1.76569e-20)
(0.977319 -0.00899954 8.73044e-22)
(1.13677 -0.0543992 1.19294e-20)
(1.04618 -0.0240073 -3.75736e-21)
(-0.103224 -0.0288411 -8.6919e-20)
(1.1825 -0.0860531 9.94419e-22)
(0.428393 0.065122 0)
(1.02093 -0.00207353 -5.8628e-22)
(1.11248 0.00856196 -1.12853e-21)
(1.06414 -0.0837119 3.49787e-21)
(0.994572 -0.0763181 0)
(0.665561 -0.0203669 -8.08362e-20)
(1.06978 0.0205636 -4.90184e-21)
(0.843449 -0.319682 0)
(1.14601 0.0838179 -1.95829e-20)
(1.1833 -0.0842952 -1.23017e-21)
(1.08068 -0.00505556 1.74769e-21)
(1.13357 0.010248 -1.95607e-21)
(0.822488 -0.431599 -9.74795e-21)
(1.0569 0.0875217 0)
(0.129797 0.0465522 0)
(1.01085 -0.000296369 1.36397e-22)
(1.01284 -0.0687181 -3.92386e-24)
(1.10663 -0.0871102 9.35656e-21)
(1.07903 0.00805428 -8.84647e-22)
(0.5789 0.0537144 -3.14176e-20)
(1.01217 -0.0123122 0)
(1.07447 -0.0134518 5.44995e-21)
(0.413605 0.0663655 2.4595e-21)
(0.997419 -0.016846 9.97521e-23)
(0.756327 0.100196 -7.67728e-21)
(0.214192 0.039027 -2.29128e-20)
(1.00436 -0.00251375 0)
(1.01158 -0.0691278 -1.58711e-21)
(1.05905 -0.0692567 0)
(1.02134 -0.0676569 1.52086e-22)
(1.02901 -0.087857 0)
(1.01752 -0.0247997 5.83096e-22)
(1.17411 -0.02252 0)
(0.935612 -0.22439 -1.54829e-20)
(0.0710444 0.0277384 0)
(1.02789 -0.131251 -8.75281e-22)
(1.09057 0.00276421 1.02589e-20)
(1.06878 -0.0162394 0)
(-0.0793827 0.0218991 -3.42125e-20)
(1.00478 -0.0106229 -1.16407e-21)
(0.999978 -0.00906439 0)
(0.983685 -0.240142 0)
(1.06751 -0.0439297 -4.80828e-21)
(1.02808 -0.0380234 -1.08035e-21)
(1.1009 -0.0292086 -6.76597e-21)
(1.02087 -0.00220456 1.44215e-23)
(1.09156 0.0828493 -7.60268e-21)
(1.01352 -0.000609441 -1.66512e-23)
(1.06472 0.00265986 -5.58359e-21)
(1.04752 -0.0419519 2.22687e-21)
(0.132689 -0.0602767 0)
(1.00099 -0.00473501 -1.24691e-21)
(-0.0879548 -0.0318928 6.07549e-20)
(1.06548 -0.00292983 3.65457e-21)
(0.999971 -0.0145615 -3.99469e-21)
(1.01174 -0.00749682 6.41394e-22)
(0.983714 -0.0360646 -7.71363e-21)
(1.03984 -0.192726 -7.596e-21)
(1.06504 -0.0475988 -4.69501e-21)
(1.14051 0.0875089 4.15891e-21)
(1.00024 -0.00278354 0)
(1.0715 0.0186578 -3.51266e-21)
(1.07592 0.0134231 0)
(1.21399 0.000790694 -8.09201e-21)
(1.02125 -0.00194544 0)
(1.06582 0.0998928 -5.06366e-23)
(-0.0634034 0.0290996 2.0345e-20)
(1.09268 0.114035 -1.50881e-21)
(1.00463 -0.0105074 -1.24193e-23)
(1.18149 0.0243267 -2.33562e-20)
(1.06894 -0.104113 2.33113e-21)
(-0.221866 -0.0104726 -5.81332e-20)
(1.12474 -0.135063 1.23241e-20)
(0.622399 -0.0171146 9.1646e-20)
(1.12326 -0.133018 8.8826e-21)
(1.0021 -0.0102845 4.52694e-21)
(1.19905 -0.195541 0)
(1.08179 -0.397182 6.29688e-21)
(1.13014 0.0162185 0)
(1.01677 -0.0242445 4.35262e-22)
(1.1758 -0.0695722 -1.69415e-20)
(-0.0964175 -0.0271749 -3.59364e-20)
(1.09426 0.113254 7.8607e-22)
(0.977963 -0.0709127 -2.09604e-20)
(0.701963 -0.666778 6.34361e-21)
(0.250408 0.0423757 -1.42371e-20)
(1.02563 -0.0875501 3.07259e-22)
(0.0570492 0.0199811 -2.69454e-21)
(1.09289 -0.138427 0)
(1.06568 -0.0035944 7.52374e-21)
(1.18684 0.0210692 -2.82593e-21)
(0.946155 -0.0359752 0)
(1.03788 -0.00720006 3.59841e-21)
(1.01472 -0.000102323 0)
(1.00108 -0.00568056 1.98253e-21)
(1.1691 0.07032 -1.04352e-20)
(0.0962872 -0.0411432 -5.52756e-20)
(1.02121 -0.00207466 -1.5094e-23)
(1.07095 0.0188706 3.53128e-21)
(1.14471 0.0839491 2.12756e-20)
(1.11424 -0.0709735 -1.01448e-20)
(1.02649 -0.0422021 -1.64978e-22)
(-0.215654 -0.0105351 6.28693e-20)
(0.99606 -0.012647 1.11536e-21)
(0.984431 -0.0383668 -4.08919e-21)
(1.1517 -0.204617 -1.84479e-20)
(1.06277 -0.0843322 -8.20465e-21)
(1.13601 -0.0337264 1.78351e-21)
(0.449101 0.0680583 0)
(1.2297 -0.35575 -8.34381e-20)
(1.14511 0.044377 1.28098e-20)
(1.02242 -0.0680229 -1.57823e-22)
(1.04687 -0.0414386 -4.52655e-21)
(1.13101 -0.259792 -2.15973e-20)
(0.46586 0.052795 0)
(1.25397 0.0114782 0)
(1.08325 0.0898352 9.50009e-21)
(1.06385 -0.063884 0)
(1.07033 0.0202253 -6.32309e-21)
(1.09817 0.0717711 0)
(1.01178 -0.00730657 1.68401e-24)
(1.07909 -0.0104762 -7.29194e-21)
(1.05891 -0.0679114 -6.73335e-21)
(1.1557 0.0265623 6.64196e-21)
(1.08235 -0.11335 1.0963e-20)
(0.987432 -0.0838931 -3.15187e-21)
(1.03965 -0.0275864 -1.05116e-21)
(-0.0125211 0.0153309 0)
(0.999863 -0.0012538 4.04579e-21)
(1.00197 -0.025192 0)
(1.11317 0.0809123 -1.07425e-20)
(1.00002 -0.000432091 2.56152e-21)
(0.0368227 0.0339312 -1.39189e-20)
(1.06745 -0.137224 -4.41727e-21)
(0.999995 -0.000322019 -2.2863e-21)
(1.13872 -0.02258 -1.64731e-20)
(1.06367 0.00338871 -7.90114e-21)
(0.777494 0.101539 0)
(1.23693 -0.137794 -6.98603e-20)
(1.0044 -0.0078772 -1.84251e-21)
(0.894313 -0.342005 -1.03019e-20)
(1.1125 0.0819265 1.31424e-20)
(1.14359 -0.0172308 0)
(1.11363 -0.0725089 5.97159e-21)
(1.13256 0.00987814 2.02138e-21)
(0.106385 0.0439912 -4.12722e-21)
(1.14272 -0.196956 8.04381e-21)
(0.999976 -0.00582636 1.13452e-21)
(1.00292 -0.00855432 -1.68042e-21)
(1.23631 -0.141779 -7.42285e-20)
(0.400816 0.0651752 0)
(1.08599 0.00136592 0)
(0.992034 -0.0523342 -3.76153e-21)
(0.973335 -0.0124509 -2.77814e-22)
(-0.212695 0.00195374 1.75624e-22)
(0.968757 -0.0240199 -1.16976e-20)
(-0.119621 -0.0223066 0)
(0.999085 -0.00648604 0)
(1.1505 -0.0679618 -2.24906e-20)
(1.10703 -0.0889923 -1.12164e-20)
(-0.178471 -0.0181886 0)
(1.12227 0.0387055 0)
(1.06602 -0.102016 -3.82428e-21)
(1.20411 -0.0524432 -3.40981e-20)
(1 -0.000254498 2.16527e-21)
(1.17564 0.050906 7.5914e-21)
(1.03381 0.00205454 -1.47373e-21)
(1.00968 -0.00728321 1.31723e-21)
(0.324758 0.0466369 -1.41951e-20)
(1.0127 -0.0326184 2.47086e-21)
(1.05633 0.0101254 0)
(1.1331 0.00742771 8.97259e-21)
(1.08995 0.00946118 8.96557e-21)
(1.02353 -0.0166606 -1.17839e-21)
(1.001 -0.0156901 1.2646e-22)
(1.03105 -0.260824 0)
(-0.00306781 0.0320635 0)
(1.13899 -0.15236 -1.2018e-20)
(1.10153 0.00719257 0)
(0.804468 0.104502 3.58284e-21)
(1.07522 0.013276 -3.21899e-21)
(1.23553 -0.135211 6.8833e-20)
(1.03138 -0.0116307 -2.69173e-23)
(1.00088 -0.015929 0)
(1.17526 -0.0642019 1.66527e-20)
(0.124112 0.0289807 0)
(1.16782 0.0681971 0)
(0.977627 -0.0381529 0)
(0.685787 0.0617538 2.3948e-20)
(1.07218 -0.0535198 -6.39872e-21)
(1.01144 -0.000600891 0)
(0.2544 0.0392104 9.16609e-21)
(1.02799 -0.0888472 0)
(1.01125 -0.0381798 2.67662e-21)
(1.05022 -0.0402627 -2.36864e-21)
(1.13486 -0.0250391 -7.44418e-21)
(0.483976 0.0534032 -5.00339e-21)
(1.14204 -0.00720038 0)
(1.17733 -0.00835335 -1.7432e-20)
(1.07006 0.0214042 5.62977e-21)
(1.10064 0.00657593 0)
(1.09914 0.072195 -1.87132e-21)
(0.967843 -0.0214743 5.90435e-21)
(0.94872 -0.0343681 -1.52572e-20)
(1.14063 -0.00700265 -1.71002e-20)
(1.05642 -0.0980141 2.89132e-21)
(1.24333 -0.0745216 -7.81139e-20)
(1.12431 0.0761722 0)
(1.10985 -0.162158 -7.24248e-21)
(1.07936 -0.00982269 7.0403e-21)
(1.02834 -0.0101485 -9.25079e-22)
(1.08531 0.000859442 0)
(1.13225 0.00804999 -7.89825e-21)
(1.19518 -0.195792 0)
(0.983649 -0.0448038 -5.42072e-21)
(1.02662 -0.0885208 -3.83332e-22)
(1.01727 -0.00620077 0)
(1.06952 0.0217174 6.22613e-21)
(1.10256 -0.23361 3.48958e-21)
(1.21156 0.0227667 -2.21179e-20)
(1.25887 0.0114018 0)
(1.00195 -0.00238728 0)
(1.06004 -0.0443377 -7.83642e-21)
(1.13967 0.0860419 -1.19866e-20)
(1.01882 -0.0579018 0)
(0.997582 -0.0070355 3.74374e-21)
(0.996476 -0.0119591 -4.60071e-21)
(0.789539 -0.15911 0)
(1.08048 -0.00412748 -1.78017e-21)
(-0.0965754 -0.0293154 -3.71571e-20)
(0.986397 -0.0369621 9.87855e-22)
(0.065761 0.0195742 0)
(1.22436 -0.358343 3.17128e-20)
(1.00014 -0.0144595 0)
(0.587752 0.05399 2.5878e-20)
(0.00583127 0.0331638 0)
(1.12125 0.0383424 -1.30072e-20)
(0.995749 -0.00659064 0)
(1.14952 0.0235596 1.13358e-20)
(1.08263 0.0889486 -6.73454e-21)
(0.413724 0.0660205 2.38914e-21)
(1.10062 -0.0419517 0)
(1.04926 -0.14042 5.96632e-21)
(0.696755 -0.267678 2.22446e-20)
(0.968252 -0.0617055 3.74313e-21)
(0.97302 -0.0371437 -1.0178e-20)
(0.978453 -0.0377129 0)
(0.0572733 0.0360031 -2.58145e-20)
(1.036 -0.0149016 1.55638e-21)
(-0.0270521 0.0134894 0)
(0.996478 -0.0128342 6.62579e-21)
(1.0246 -0.00328128 9.94389e-22)
(1.00981 -0.010881 5.16366e-22)
(1.08749 0.0402483 6.13612e-21)
(1.03039 0.000708358 0)
(0.584017 0.0617502 0)
(1.26368 -0.408425 0)
(0.999936 -0.00598176 -1.69633e-21)
(-0.227233 0.00156279 0)
(1.04435 -0.0334051 -7.15096e-22)
(1.02543 -0.00417148 0)
(1.02289 -0.00670331 -7.36082e-22)
(0.971383 -0.0145486 -1.01623e-20)
(1.10279 0.0716592 -8.9333e-21)
(0.984497 -0.0448969 1.21183e-21)
(1.08909 0.025116 -7.21406e-21)
(1.23376 -0.142438 6.74023e-20)
(0.0807479 -0.0523811 6.58077e-20)
(-0.123691 0.00558634 0)
(1.00001 -4.384e-05 0)
(1.08953 0.0247117 -6.38244e-21)
(1.03254 -0.0141237 0)
(1.07391 -0.0168578 0)
(1.09429 0.0358797 -7.91674e-21)
(-0.0884575 0.0171301 2.84933e-20)
(-0.22919 -0.00440629 3.92746e-20)
(1.07808 0.113643 5.19488e-21)
(1.28092 -0.0824855 7.79666e-20)
(1.02355 -0.0162758 1.42978e-21)
(1.02468 0.000986259 -7.5856e-22)
(0.985108 -0.0361667 8.57982e-21)
(1.03725 -0.014326 3.49616e-23)
(1.15432 0.0288658 1.24321e-20)
(0.986255 -0.00589429 2.88576e-21)
(0.994852 -0.0058877 0)
(0.972592 -0.0126701 2.58536e-22)
(1.0304 -0.00459672 4.18541e-21)
(1.07718 0.012839 -3.31844e-21)
(1.07004 0.0116544 0)
(1.0148 -0.0213245 1.28355e-21)
(0.655705 0.055184 9.54215e-21)
(0.99084 -0.0475426 0)
(0.999474 -0.00184966 -5.22628e-22)
(1.03034 -0.00491318 -9.74728e-22)
(0.987345 -0.0132974 -6.25302e-21)
(1.17117 0.0429244 -2.67044e-20)
(0.843646 0.0614452 0)
(1.14892 -0.0669396 0)
(1.10031 -0.170952 2.57478e-20)
(0.933765 -0.00375406 0)
(0.0596993 0.0182834 -6.78381e-23)
(-0.147883 -0.0228068 0)
(0.438259 0.0603534 1.73774e-20)
(1.03402 -0.0520217 1.65078e-21)
(1.0072 -0.00859812 -3.80274e-22)
(0.0920369 0.0440382 4.26917e-21)
(0.720644 -0.230434 0)
(1.00556 -0.0169776 0)
(1.07704 0.115366 0)
(1.00068 -0.0120236 0)
(1.03139 -0.052675 1.73997e-22)
(1.01074 -0.00373852 0)
(0.406068 -0.131944 2.28249e-22)
(0.884908 -0.338763 6.67697e-21)
(1.0215 -0.0458955 -6.32596e-23)
(1.23915 -0.131804 0)
(1.01005 -0.0315147 1.47825e-21)
(0.944901 -0.0366124 1.04002e-20)
(0.658879 0.0549474 -1.80551e-20)
(1.08272 -0.0024158 -9.07052e-22)
(1.04507 -0.0338505 4.87595e-21)
(-0.0357679 0.0134948 -1.89556e-20)
(1.0317 0.00170516 -4.10454e-21)
(1.07071 0.0134625 6.0176e-21)
(1.08391 -0.0279256 0)
(1.06251 -0.0633514 -2.69889e-21)
(0.936307 -0.21948 1.32313e-20)
(0.674584 -0.86363 -4.48531e-21)
(1.03177 -0.0153247 -1.19542e-21)
(1.01448 -0.0211427 -9.03066e-22)
(1.0486 -0.0155959 0)
(0.9831 -0.273846 4.90463e-20)
(1.08927 0.0700641 -1.99692e-22)
(1.02834 -0.0616942 6.68358e-22)
(1.01127 -0.00412071 7.54031e-22)
(1.29634 -0.201241 -2.76937e-20)
(1.0247 0.00079816 -2.58297e-22)
(1.14282 -0.0117392 -1.03737e-20)
(0.986623 -0.00597886 0)
(1.03794 -0.00336624 3.33907e-21)
(1.04911 -0.0158542 0)
(1.00294 -0.00161504 1.42631e-21)
(0.981091 -0.0332617 -7.68025e-21)
(0.995567 -0.00680475 -4.227e-21)
(1.03697 -0.00798488 -1.73193e-21)
(1.0694 -0.0284144 -2.49253e-21)
(1.23912 -0.0699519 -1.81377e-20)
(0.986312 -0.00499266 0)
(1.17821 0.0236093 -5.29519e-21)
(1.01485 -0.0649165 -1.20097e-21)
(-0.188012 0.016894 0)
(1.04931 -0.0112883 -3.30725e-21)
(1.27705 -0.0106033 -5.91574e-20)
(1.00002 -0.00157195 0)
(0.869404 0.0582305 0)
(1.00001 -0.000164311 -1.99201e-21)
(0.987554 -0.0241403 3.42419e-22)
(1.06539 0.100936 4.0423e-21)
(1.14424 -0.0221892 1.70883e-20)
(0.299823 0.0449639 -9.5344e-21)
(1.03392 -0.258895 -3.94095e-21)
(1.03732 -0.1883 0)
(1.02799 -0.00390724 -1.83906e-20)
(1.10665 0.0708164 0)
(1.03811 -0.013269 1.97379e-21)
(0.0580186 0.0186194 -2.6491e-21)
(1.09491 -0.00987707 0)
(1.04434 -0.0558007 2.50608e-21)
(0.391875 0.058492 3.7939e-21)
(1.0219 -0.0465009 -8.68722e-23)
(1.24052 -0.0680744 -1.02513e-20)
(1.23819 -0.129286 0)
(1.07024 0.0129178 -7.02446e-23)
(1.1173 0.0815924 -5.76535e-21)
(1.16892 0.0717194 1.15858e-20)
(0.99933 -0.0182228 0)
(0.824713 -0.446171 9.56455e-21)
(1.00195 -0.00665643 0)
(1.08678 -0.0283516 4.563e-21)
(0.992632 -0.00532333 -4.53772e-21)
(1.08342 -0.00175732 -6.53101e-21)
(0.875127 -0.210373 0)
(1.03782 -0.00367203 0)
(1.07865 0.00659623 0)
(1 -0.000618202 -5.23794e-21)
(1.29857 -0.178823 -8.66416e-21)
(1.17633 -0.0680898 1.9172e-20)
(1.08296 -0.0033632 9.74604e-22)
(1.097 -0.0786355 -9.38852e-21)
(1.07962 0.00647508 0)
(0.999829 -0.00143752 2.04572e-21)
(0.848438 0.0988365 0)
(1.21577 -0.17293 0)
(0.952067 -0.380827 6.97602e-23)
(1.09025 0.082782 1.01495e-22)
(-0.0282026 0.014313 3.18869e-20)
(1.17055 0.0469375 0)
(1.04765 -0.0291424 -1.78931e-21)
(-0.178988 0.0183837 0)
(1.07144 -0.0545315 -6.27212e-21)
(1.00337 -0.000549994 0)
(-0.0966743 0.0162139 -2.64875e-20)
(1.27815 -0.00829433 6.9754e-20)
(1.00001 -0.000854214 -1.39068e-21)
(1.14909 -0.472836 2.88642e-20)
(0.853435 0.104022 -1.28505e-21)
(1.17212 -0.274476 -2.27218e-20)
(1.0429 -0.0332805 -2.94691e-21)
(-0.175661 -0.0173637 3.53376e-20)
(1.13843 0.0516337 0)
(0.837719 0.103375 0)
(1.1227 -0.0474009 -4.96371e-21)
(1.0019 -0.0266023 -3.81518e-21)
(0.32988 -0.0480486 3.0089e-20)
(0.760965 -0.417128 -2.75021e-20)
(1.08888 0.109865 0)
(1.00603 -0.066935 4.2196e-21)
(1.00004 -0.000821398 8.41408e-23)
(1.0764 0.0125956 3.26632e-21)
(0.994059 -0.77172 3.69833e-20)
(1.06399 -0.0292519 -4.18948e-21)
(0.984539 -0.785631 -3.90325e-20)
(1.16992 0.0413354 0)
(1.0443 -0.0416406 -2.11186e-21)
(1.11136 0.0117492 -7.41173e-21)
(0.279996 0.0396732 0)
(0.832281 0.0572262 0)
(0.999014 -0.154176 1.44773e-22)
(-0.164367 -0.0197374 -4.04774e-20)
(0.946048 -0.0341002 5.07932e-21)
(1.1794 -0.360536 0)
(0.115309 0.0284728 5.58738e-21)
(0.986955 -0.00671916 0)
(0.899862 -0.291586 -5.01841e-20)
(0.97401 -0.074136 -2.0326e-21)
(1.0058 -0.0451364 -2.40628e-21)
(0.489818 0.0648037 3.11036e-21)
(0.943675 -0.0393238 -1.16306e-20)
(1.17206 0.0412011 0)
(1.0052 -0.240061 0)
(1.07981 0.00564275 -7.00346e-21)
(1.00089 -0.0153651 -3.97993e-21)
(1.16017 -0.36406 1.95284e-20)
(0.770883 -0.42767 3.05347e-20)
(1.06277 0.00419379 -8.90624e-21)
(0.995649 -0.0126312 -3.41983e-22)
(0.0360801 0.0174359 -2.67126e-21)
(1.01412 -0.000495775 0)
(1.07839 -0.348192 -4.93094e-20)
(1.0823 -0.111178 4.97143e-21)
(1.08965 0.111277 0)
(1.03782 -0.01355 0)
(1.04358 -0.0338093 3.87902e-21)
(0.227851 -0.0899378 0)
(1.17247 0.00396787 0)
(1.243 -0.0148127 0)
(0.0454211 0.0159759 0)
(1.14355 -0.0126346 0)
(-0.214955 -0.00470847 0)
(1.16062 -0.131621 0)
(0.949926 -0.0334548 -4.74509e-21)
(0.0429578 0.0181532 0)
(1.07406 -0.0159666 5.03754e-21)
(0.998968 -0.00685981 0)
(1.2104 0.0233024 4.86453e-21)
(1.23071 -0.198038 -1.71629e-20)
(1.05897 0.0149079 3.0468e-21)
(0.98192 -0.0189374 8.37872e-21)
(1.03209 0.00190306 2.03701e-21)
(1.00376 -0.00750845 -1.3568e-21)
(1.00195 -0.00655854 1.26296e-21)
(1.14408 0.044724 0)
(0.0609824 0.0265376 -2.17974e-20)
(0.871477 0.0594812 8.89673e-21)
(1.00526 -0.00937767 0)
(1.08213 0.0224908 0)
(0.981908 -0.0639429 -8.93699e-21)
(1.08944 0.0982437 0)
(1.00361 -0.00742173 0)
(0.132502 0.0281954 0)
(-0.22667 -0.0096111 -4.50854e-21)
(-0.164287 0.0160746 0)
(1.18464 -0.358219 0)
(1.07573 -0.0983982 -2.65189e-21)
(1.00837 -0.0226385 3.1026e-22)
(0.0711026 0.0267689 1.03099e-20)
(1.01003 -0.0320471 0)
(1.0171 -0.0581975 -6.84866e-22)
(1.01627 -0.0577069 6.15639e-22)
(1.05243 -0.0286837 2.39034e-21)
(1.01084 -0.167796 -4.75879e-22)
(1.09726 -0.0675924 -1.55576e-20)
(0.954142 -0.0187266 -7.68633e-21)
(0.953607 -0.0137336 0)
(1.0018 -0.00907586 0)
(0.968244 -0.0370523 0)
(0.995603 -0.0124315 0)
(1.00534 -0.0163082 0)
(0.888038 -0.369707 0)
(1.18534 -0.126317 -4.72653e-20)
(0.99585 -0.0127838 -6.73003e-22)
(0.990813 -0.0263132 0)
(-0.219623 -0.00975562 8.18101e-21)
(0.33556 -0.0501801 0)
(1.08564 -0.0282159 1.43542e-20)
(1.16044 -0.492643 6.35864e-20)
(1.09384 0.0372206 0)
(1.01427 -0.211144 1.46701e-21)
(1.18661 0.0223041 0)
(1.02199 -0.0191444 -3.63642e-22)
(1.01212 -0.0323275 -3.07159e-22)
(1.00169 -0.00865079 1.72534e-21)
(1.01054 -0.0312876 -3.32913e-23)
(1.05067 -0.0336237 0)
(0.705384 -0.259351 1.87526e-20)
(1.0048 -0.0116417 -1.64696e-21)
(1.01965 -0.00860762 -4.02002e-22)
(1.00551 -0.0135154 7.56991e-23)
(1.00224 -0.0100859 -4.69615e-21)
(-0.157814 0.0173079 0)
(1.03895 -0.186909 0)
(1.02482 -0.00571866 5.98612e-22)
(1.07458 -0.0183417 5.4075e-21)
(1.00106 -0.00550936 -3.86644e-21)
(1.14785 -0.0636987 -5.55416e-21)
(1.02287 -0.00784469 0)
(1.17715 -0.0518303 9.63364e-21)
(1.17275 0.0691995 1.32131e-20)
(1.03782 -0.0127142 -3.32396e-21)
(0.818183 0.0564841 8.85239e-21)
(1.09592 0.114358 -8.12637e-22)
(1.18005 0.0275157 0)
(1.14478 -0.0163451 0)
(-0.0529795 0.0140833 3.44964e-20)
(-0.00993502 0.0368947 2.02185e-20)
(0.987226 -0.0127835 0)
(0.998172 -0.0172668 -4.26863e-21)
(0.954497 -0.0178217 8.95818e-21)
(0.834391 0.102023 0)
(1.11765 0.0660913 -8.9209e-21)
(0.99972 -0.0786689 0)
(-0.0780179 -0.0325293 0)
(1.21582 -0.350425 0)
(1.03206 0.00220138 0)
(1.01573 -0.0210195 0)
(0.967661 -0.0379005 -9.70852e-21)
(0.795717 -0.154513 0)
(1.07095 -0.0656504 0)
(1.00253 -0.00774921 0)
(1.00399 -0.00758162 0)
(1.00115 -0.0241666 -3.40697e-22)
(1.0183 -0.0253563 -3.17952e-22)
(0.19029 0.026575 0)
(1.17389 -0.345966 -1.90774e-20)
(1.00528 -0.0445543 5.75666e-21)
(1.09094 -0.314246 -4.33915e-20)
(0.619723 0.0877341 0)
(0.999276 -0.00145718 -5.30778e-21)
(1.01334 -0.0309093 0)
(1.01772 -0.0689302 -8.55791e-22)
(1.12083 -0.0512499 0)
(0.178979 0.026027 0)
(1.32737 -0.25462 -3.62598e-20)
(0.141633 0.028977 0)
(1.11332 0.0519668 0)
(1.16983 -0.269628 6.82575e-21)
(1.1722 -0.496269 -7.15349e-20)
(1.08583 0.109161 -3.35107e-21)
(-0.263704 -0.00568125 9.73703e-21)
(1.0748 -0.0174579 5.66896e-21)
(1.10801 0.0345973 0)
(1.08446 -0.00212118 6.70415e-21)
(1.07471 0.014098 9.59279e-21)
(-0.0869155 0.0166492 0)
(1.03439 -0.0156579 0)
(-0.0930496 -0.0302912 0)
(1.10424 0.101809 -1.20642e-20)
(1.04822 0.00889565 -4.07177e-21)
(0.989205 -0.240377 -9.71535e-22)
(1.03498 -0.0158633 -1.42953e-21)
(0.181212 0.0340386 2.14522e-20)
(1.00631 -0.066204 0)
(1.21505 -0.245585 -6.10653e-20)
(1.09735 0.113488 -2.50445e-21)
(1.0271 -0.0107094 -1.87001e-21)
(0.647211 -0.0154761 -1.24023e-20)
(1.02014 -0.018294 3.15363e-24)
(1.00001 -0.000586404 3.39232e-21)
(0.604101 -0.0119901 1.17958e-20)
(1.06018 -0.0660059 -2.76409e-21)
(1.01039 -0.00701877 8.17973e-22)
(0.192921 0.025883 0)