/*--------------------------------*- C++ -*----------------------------------*\
| =========                 |                                                 |
| \\      /  F ield         | OpenFOAM: The Open Source CFD Toolbox           |
|  \\    /   O peration     | Version:  v2012                                 |
|   \\  /    A nd           | Website:  www.openfoam.com                      |
|    \\/     M anipulation  |                                                 |
\*---------------------------------------------------------------------------*/
FoamFile
{
    version     2.0;
    format      ascii;
    class       volScalarField;
    location    "200";
    object      ddt0(k);
}
// * * * * * * * * * * * * * * * * * * * * * * * * * * * * * * * * * * * * * //

dimensions      [0 2 -3 0 0 0 0];


internalField   nonuniform List<scalar> 
37809
(
-5.44611e-08
0.000153049
7.09714e-10
6.17902e-08
0.00044205
3.39034e-07
3.42521e-08
3.22852e-07
-3.04641e-05
-1.21439e-05
1.63119e-08
3.1284e-08
5.65704e-09
2.74532e-09
0.00011568
-8.03227e-09
5.63681e-12
-0.000266249
-8.87675e-09
-4.88147e-09
2.45941e-08
-6.08032e-09
-0.00210781
-1.86315e-09
7.90862e-10
-0.00163017
-7.93148e-05
2.69036e-09
3.8015e-10
5.6784e-08
1.47732e-07
0.000357581
-2.17225e-09
7.20888e-07
-1.6623e-08
1.32311e-10
1.32593e-08
0.000773967
1.28046e-07
-2.9305e-08
0.000339334
-8.19291e-05
-0.000136662
-8.09344e-05
8.42738e-09
-2.05995e-08
1.33721e-06
0.00271984
-3.24808e-05
4.54585e-08
1.17541e-08
1.09539e-09
5.30876e-09
-1.12398e-08
-0.000353071
4.66887e-09
6.61213e-09
-2.89371e-08
1.49788e-07
-4.78805e-06
-7.66765e-05
4.62642e-09
5.11771e-09
-1.60974e-08
1.67751e-07
4.12818e-09
-0.00120761
-9.51037e-09
-3.36104e-08
-0.00408838
2.4558e-08
0.000191153
2.74692e-08
2.35911e-09
3.11522e-09
1.36659e-08
-3.22624e-08
-2.41155e-07
-1.13458e-07
-1.13791e-06
2.48844e-08
3.32014e-10
-0.000781962
4.88751e-09
-1.70314e-08
-6.91551e-05
-3.67324e-08
-0.0003628
3.46103e-07
-4.68828e-09
0.0005617
7.31393e-05
-3.30209e-08
-0.000354746
-3.73358e-08
-0.00139681
2.60686e-08
7.2472e-09
0.000338303
-4.85326e-09
-0.00104652
6.09309e-09
-7.76379e-09
-0.000208987
-0.000341728
4.20109e-11
-1.77063e-07
-6.45451e-06
-1.20857e-06
3.13936e-08
2.66437e-09
3.80535e-09
-1.94345e-07
-3.68528e-08
5.03989e-09
1.28502e-07
-1.74159e-08
1.6669e-08
5.52762e-06
5.35696e-05
-1.14795e-12
4.04405e-08
9.82148e-09
0.00043446
-6.82314e-05
-1.34727e-08
1.18995e-06
-3.23101e-08
-6.3876e-09
-2.75381e-08
-6.2618e-06
2.49372e-06
-0.000147061
7.66178e-09
-2.10615e-06
-6.99699e-09
1.21597e-08
5.56532e-09
0.000216739
-0.000562668
-1.63594e-08
0.00324813
0.000111858
0.000317018
2.70522e-08
-0.00209791
2.52173e-08
-1.5677e-08
-0.000969153
4.16266e-09
0.000324334
-2.68138e-08
8.97501e-08
-1.76764e-06
-3.69569e-07
3.52484e-09
0.00199069
5.84913e-06
-8.60065e-09
0.000162276
-6.4789e-09
3.7901e-06
7.8098e-08
1.71205e-05
5.49021e-10
5.5864e-09
1.97737e-09
8.57722e-06
5.06256e-08
-3.19269e-07
-3.78564e-05
4.54466e-09
-2.01358e-06
6.30686e-08
-3.3524e-08
-2.4662e-08
-0.000373567
-5.31223e-09
-0.000658934
4.98824e-08
0.00011695
4.94351e-08
5.20621e-09
-2.87563e-09
-3.98434e-09
-3.16031e-07
4.93424e-08
8.49391e-09
-7.42305e-05
-5.19828e-05
3.83779e-08
2.64053e-08
1.10744e-09
5.08209e-05
-1.76936e-08
3.03438e-06
1.69067e-08
-5.84493e-09
4.07374e-09
2.6079e-08
-0.000142883
6.22077e-09
0.000133938
3.80178e-08
-0.000253534
-2.91211e-09
6.3573e-08
3.63691e-08
2.2941e-09
9.13445e-07
2.92303e-08
0.000144507
3.07751e-09
1.53141e-08
2.58539e-08
-0.00081878
4.99459e-08
-2.74888e-08
3.17957e-09
2.1561e-06
-0.00050664
2.8331e-07
-1.64893e-08
4.93068e-08
2.52346e-08
0.000182671
-7.19628e-05
1.17735e-06
5.30394e-09
-0.000529396
-2.03611e-09
-1.01357e-07
-2.08973e-07
3.51346e-09
-5.57192e-05
-0.000127334
3.63096e-09
0.00020768
4.89534e-10
-2.30799e-08
0.0015131
5.54191e-09
-4.51476e-06
-0.000369029
4.09024e-09
-7.14001e-09
1.57679e-10
4.8881e-09
-3.13724e-07
-6.22447e-09
7.21603e-10
-2.65602e-09
-1.11494e-08
0.000645871
-5.32145e-09
-4.22512e-12
-6.38916e-09
2.42409e-10
6.84811e-07
-0.000212663
-2.31318e-06
3.72769e-10
-3.46122e-05
3.86377e-08
-3.38088e-05
3.18324e-08
1.41409e-06
1.22603e-08
1.42245e-08
2.81451e-06
-0.000160632
2.92379e-08
3.07984e-05
-4.83108e-05
-2.9276e-09
3.89112e-08
1.82017e-07
-3.07908e-09
-5.47444e-06
-7.12431e-09
2.06467e-08
-0.000193719
-5.40932e-05
-9.57681e-10
2.28178e-06
-6.89164e-09
2.81464e-08
-4.54579e-09
-1.36308e-09
-0.00453423
-8.72854e-09
6.53282e-08
0.00012225
4.78173e-09
-2.80093e-08
8.15107e-09
2.01954e-06
7.29794e-06
-9.03719e-09
2.36893e-06
5.51859e-08
0.000316863
1.37421e-08
3.82107e-06
-1.07069e-05
5.27904e-09
9.9868e-10
1.89793e-08
0.000313482
5.9978e-09
1.56796e-06
0.000721345
0.000183972
3.40422e-08
-7.31687e-12
-9.7263e-06
-1.82183e-08
-5.98735e-09
4.22406e-06
-0.000331655
-1.30671e-07
2.89465e-07
3.49436e-09
1.71661e-08
0.00111145
1.29098e-08
-1.63254e-05
1.70935e-08
9.48879e-10
1.77944e-06
3.90177e-09
-1.25962e-08
2.3282e-08
-6.53214e-06
2.30509e-09
8.40199e-09
1.44808e-07
-2.11513e-09
-3.90868e-09
-6.81271e-08
1.35867e-10
-9.52343e-11
-1.02595e-06
-0.00329324
6.36539e-08
1.75657e-06
-5.40711e-06
-2.36643e-09
-3.95821e-05
2.49017e-08
1.84663e-07
2.57558e-08
3.11665e-08
-1.44988e-08
-0.000237896
-0.00129115
-5.08417e-09
2.22699e-06
1.66152e-08
-0.00221864
-0.000437925
1.00035e-08
2.35194e-05
-0.0002853
-0.000129129
0.000210048
3.53466e-08
-1.95088e-08
3.24527e-08
5.26518e-09
1.55199e-09
-6.65254e-09
3.72807e-07
-0.000165325
3.02978e-09
-5.86071e-09
5.27625e-07
-8.41696e-09
0.00033561
-6.79071e-07
2.78084e-08
-2.09439e-08
-0.000243488
1.01912e-08
1.50484e-07
3.92985e-08
-0.00103241
8.84335e-09
2.21572e-06
9.43039e-10
-6.7638e-09
-0.000258835
6.68648e-10
-2.87797e-08
-2.64293e-08
3.85775e-07
-0.000199055
-7.27273e-07
3.5714e-08
7.7639e-10
5.48228e-06
8.61614e-07
1.43923e-09
2.18471e-08
2.32688e-09
4.80049e-08
6.65353e-09
0.000205122
0.00258567
4.88766e-07
9.9163e-09
3.38765e-08
4.00714e-08
-3.37586e-09
1.3777e-08
2.13018e-06
-6.5773e-07
-2.31096e-05
9.3857e-11
-1.94818e-09
0.000213715
5.5731e-08
3.18503e-06
2.74486e-06
-5.24849e-09
-0.00107906
4.76741e-08
7.37825e-10
-5.23055e-09
1.97257e-06
-2.26841e-08
-1.47177e-08
6.35679e-08
-3.90371e-08
0.000158872
-2.55444e-09
0.000380647
-8.21767e-05
4.05597e-09
4.19538e-09
-3.9597e-08
4.53676e-07
-1.74683e-08
1.91283e-07
-6.44085e-09
2.04546e-08
-0.000203366
-1.45506e-06
1.46697e-07
1.33552e-06
3.2889e-08
-5.71217e-09
-3.75785e-08
5.54865e-10
2.22194e-08
-1.41898e-09
1.33547e-08
-1.79321e-09
8.72734e-06
3.43348e-08
-1.79232e-08
5.768e-09
6.47099e-08
-1.07728e-05
-7.63477e-05
8.34496e-05
-3.2952e-08
1.37468e-08
0.000315564
-9.53166e-09
2.11031e-08
-2.2878e-08
-2.5235e-09
-2.63182e-08
3.04807e-07
1.63543e-09
5.13138e-08
-1.36566e-05
3.99723e-08
1.40612e-09
7.33216e-09
1.45822e-08
3.90684e-08
-7.5743e-09
-7.02531e-05
-8.53146e-09
6.71594e-08
1.97495e-06
0.00225225
1.84501e-08
-0.000193605
1.4361e-07
7.53279e-07
5.42959e-09
-6.13213e-08
-0.000107083
4.39771e-09
3.55256e-08
1.83193e-09
4.0214e-08
-1.79639e-07
-1.34752e-06
0.000126985
-0.00207098
-1.82984e-08
2.5724e-08
1.47967e-07
-0.000312442
4.4614e-09
8.7139e-10
1.32789e-08
7.34335e-10
-7.19465e-05
2.76747e-08
-3.60232e-08
-0.000584455
1.76887e-05
-4.69345e-08
4.77491e-07
-2.73061e-08
-2.37516e-06
-1.02166e-06
-4.29517e-11
-2.55219e-05
-3.59206e-08
-3.10313e-08
-2.55166e-06
-0.00121209
-7.2099e-08
6.08185e-07
-1.23787e-05
-1.19263e-09
-2.7576e-06
2.60036e-08
3.24242e-12
5.57443e-09
-2.04171e-08
-0.0049019
-8.1063e-09
-5.63825e-09
-3.09627e-08
-3.23002e-08
-0.00261544
1.26268e-06
-1.8574e-06
-1.16831e-10
1.22479e-08
-0.00022381
2.11758e-06
3.39071e-12
5.7574e-08
1.61554e-07
-3.27594e-09
-3.37581e-08
-4.95137e-05
3.75875e-08
-1.0999e-08
-4.32773e-07
-5.73756e-06
8.59782e-09
1.34003e-06
0.000176594
6.2188e-07
5.53801e-09
-8.52294e-05
-5.97543e-09
-1.28371e-07
-2.70803e-08
0.00200364
3.1517e-06
3.52793e-11
7.13734e-05
4.75669e-09
-3.37156e-09
-2.70928e-08
-3.77634e-09
2.36604e-05
-0.000145116
3.21542e-09
4.33401e-09
2.89653e-09
4.78872e-09
5.12867e-08
2.06515e-06
-7.83545e-05
-0.00172301
0.000185163
3.57598e-05
-8.37189e-05
0.000169797
1.16683e-08
-3.32306e-09
4.14873e-08
-7.21316e-05
4.85504e-08
-4.45057e-09
2.07681e-09
0.00119958
1.59942e-05
7.8113e-09
1.45585e-08
1.07326e-10
0.000356069
5.07376e-08
5.74653e-09
4.93549e-08
9.47871e-07
2.83279e-08
2.93227e-08
-1.25807e-07
4.05928e-09
-4.94689e-05
2.04747e-08
2.03442e-06
1.84844e-08
-4.86812e-08
-1.17954e-08
0.000427402
2.72207e-07
1.16475e-07
-2.76604e-10
-0.00123706
0.000235958
-5.75826e-10
4.75743e-05
2.17858e-06
1.54567e-06
-3.52758e-09
1.87771e-08
1.51809e-08
-6.77481e-05
-0.000713055
1.77406e-07
2.10238e-05
2.80965e-09
7.40402e-09
5.71353e-08
3.73702e-08
-2.70509e-08
-7.14464e-05
2.51288e-08
2.25916e-06
-4.6903e-08
2.5662e-05
0.000340809
-2.55011e-06
1.59074e-07
4.03455e-09
4.24132e-09
-3.03416e-08
9.73739e-09
-4.17467e-09
0.000260646
1.67655e-08
-4.53441e-05
-1.19103e-06
-8.2828e-05
6.12235e-08
0.00135053
5.35699e-08
2.61153e-05
-3.22857e-08
-4.88363e-09
5.30365e-09
-3.08471e-09
3.55346e-08
-6.26554e-06
0.000163989
-5.93346e-05
3.99158e-06
3.44069e-05
0.000394694
5.3784e-08
-6.91185e-09
-6.32386e-05
4.91702e-09
-0.000161798
-9.96886e-05
4.54378e-09
6.55309e-08
3.29499e-06
0.000211461
-4.15771e-08
4.78622e-10
-0.00120558
-0.000176766
-1.05633e-05
5.43082e-09
-1.37459e-05
-3.92222e-08
-2.36931e-05
5.3756e-08
3.42929e-08
3.32604e-08
0.000324665
7.75634e-09
1.36309e-08
6.79002e-09
-3.02581e-08
-3.22981e-07
-0.000283612
0.000232915
-0.000355913
-4.66116e-09
-0.000166254
4.02238e-08
-3.61664e-07
-0.000179087
-3.47077e-09
-7.1792e-05
2.10771e-09
-4.0763e-08
-0.00283483
-0.000451015
7.70258e-08
0.00266383
-0.000360982
4.3533e-08
7.63165e-05
2.11724e-06
1.92007e-09
-0.00278054
-1.64896e-09
4.71757e-08
-1.08537e-08
-1.42829e-08
5.40963e-08
-3.66589e-08
-1.6993e-09
5.85652e-07
-6.93823e-09
-2.58304e-08
-1.90648e-08
6.87817e-07
-3.43187e-08
3.07837e-08
3.79418e-09
9.59401e-09
2.00854e-09
3.28412e-06
-8.76229e-06
4.6696e-08
3.98471e-09
3.80507e-08
4.50999e-05
4.86123e-11
2.7957e-09
-1.34524e-09
1.96486e-06
6.83722e-10
-5.07309e-08
-3.40238e-08
2.00511e-07
1.472e-08
-1.84459e-08
7.66132e-09
-1.35172e-05
0.000400646
-1.50023e-05
2.96413e-08
9.75462e-10
-1.81028e-09
-7.04877e-09
1.86115e-09
3.44085e-09
6.52148e-08
-0.000125879
4.42967e-08
-0.00452779
-5.43463e-09
2.40715e-08
-4.07055e-08
-0.00133575
-1.0258e-08
0.000182629
-0.000537872
-4.08053e-07
1.36097e-08
-1.90207e-09
-9.97381e-05
3.9592e-07
5.70966e-08
-7.25816e-09
0.000552478
-6.37895e-05
1.02204e-07
-1.51373e-08
-3.16769e-07
4.47013e-05
6.71904e-08
-0.000797807
3.33019e-08
-9.89233e-05
0.000298788
1.40807e-07
4.16952e-08
1.691e-09
-0.00334155
1.37267e-09
1.20861e-06
5.89834e-08
4.22092e-09
-4.77019e-08
4.4347e-09
3.03079e-05
-9.95479e-09
-1.20277e-07
1.81971e-08
4.70057e-09
-2.16921e-06
3.19707e-08
-1.50572e-10
7.0638e-05
-2.70217e-07
-3.9849e-09
1.03121e-08
0.000229612
4.73543e-08
5.87973e-09
2.71671e-06
-1.38838e-08
-2.65986e-08
-7.06171e-10
3.60893e-06
0.000206761
0.000384063
8.06754e-05
-9.44348e-07
-1.28348e-07
2.65494e-08
1.92448e-07
-2.06716e-08
0.00223873
-8.40256e-06
-1.14421e-06
7.2e-09
-1.70209e-08
7.02554e-08
-5.07732e-08
-0.00328384
3.82478e-05
-1.99642e-07
-2.62523e-09
1.0682e-07
-3.91425e-08
1.75247e-08
-8.11939e-05
1.357e-08
-3.78659e-05
-0.000918743
-5.44575e-09
3.03714e-08
5.24056e-08
1.90619e-09
5.91906e-08
0.000438521
1.3944e-07
8.5434e-08
5.9733e-06
2.17438e-07
-4.16638e-08
7.22319e-09
7.10688e-09
-3.99414e-09
-9.66317e-10
-1.99761e-09
-0.000360919
5.10687e-08
-1.37526e-09
5.88056e-08
2.86427e-09
5.79399e-08
-6.10312e-09
-2.29601e-07
-4.37042e-08
-4.26195e-08
3.79344e-06
0.000271645
3.32091e-09
-7.6512e-07
2.00688e-09
-2.57961e-08
1.02788e-09
1.62455e-09
0.000305595
-2.03086e-08
-5.2022e-05
1.39095e-08
-1.73755e-08
-1.87123e-05
0.00183618
1.16201e-10
2.20056e-08
1.55099e-05
-9.36932e-06
7.53328e-10
-4.99309e-05
-1.39992e-08
1.49923e-08
-1.06696e-06
7.80213e-09
-2.07539e-05
-1.54236e-08
1.6465e-08
-2.19976e-08
4.16014e-09
-1.82114e-08
-4.1429e-08
-0.000274694
-1.54246e-07
2.40029e-08
0.00614436
3.92038e-09
-0.00455215
5.73458e-08
-3.83117e-10
1.78244e-07
0.000470058
5.95664e-08
1.25469e-07
4.46372e-08
0.000317018
-2.71015e-05
-3.21236e-08
5.81286e-08
-2.52116e-09
2.88901e-05
3.80482e-10
-1.41704e-08
-2.46352e-08
2.27101e-08
-3.53479e-08
-0.00216163
-2.6241e-08
3.1313e-09
-6.32876e-09
3.30345e-08
1.38808e-08
-1.16833e-06
6.88404e-07
5.91244e-08
2.39094e-09
6.34186e-07
0.000137917
1.62347e-07
-4.12845e-09
-1.6292e-09
-1.58662e-07
8.00924e-07
-0.00077713
1.85642e-08
-1.54494e-08
3.93445e-10
4.83711e-08
-6.89159e-06
-1.25476e-06
-2.088e-08
1.10721e-06
-8.2069e-10
5.11657e-09
1.22063e-09
1.26488e-06
5.35046e-09
7.44758e-09
5.72426e-08
1.19145e-06
0.000397781
6.0122e-08
-1.49039e-08
-5.53781e-09
1.39118e-08
-8.72968e-10
1.36543e-08
6.42256e-07
-0.000105211
1.35899e-08
0.00015244
-1.8402e-08
0.000310882
-7.08502e-07
4.93126e-08
3.20014e-08
-1.30872e-09
1.37976e-08
5.22107e-05
-4.05141e-09
3.66699e-06
-1.93165e-08
-3.5487e-09
-2.36699e-07
3.87132e-08
5.16078e-09
0.00162927
3.17792e-07
-2.68574e-08
3.62468e-08
-0.000144053
-1.22602e-07
4.65468e-05
-1.8021e-08
-2.6386e-08
1.13857e-07
0.00033252
4.40786e-09
-2.66774e-08
-2.85007e-08
0.000257753
-0.000217263
4.14187e-07
0.000421678
1.32616e-12
5.6941e-08
-4.50504e-08
0.00051902
-4.59111e-05
-6.32336e-09
-1.03125e-07
5.37916e-09
2.34797e-08
-2.79303e-08
5.54931e-09
-2.34543e-08
-3.3647e-08
-9.22986e-05
3.93004e-09
2.67719e-08
-1.532e-07
3.09177e-09
1.24848e-13
1.27421e-09
0.00134551
6.60865e-08
-1.12123e-07
-4.08268e-08
8.59115e-08
1.15482e-06
-5.46371e-09
-1.64512e-05
-7.39526e-08
6.37084e-08
0.00083603
1.51596e-08
1.57844e-08
-2.29746e-06
1.59558e-07
-4.51225e-08
0.000938678
1.10943e-06
-9.83135e-07
-2.52843e-08
4.5595e-09
-2.53469e-07
-1.35749e-07
-7.37278e-07
-3.01769e-08
-0.000365979
6.03316e-08
2.9532e-07
2.30036e-08
8.34778e-09
1.18949e-12
-5.78143e-10
-3.58243e-09
2.49996e-09
-2.01637e-08
0.000205602
1.4118e-09
1.62486e-09
-1.4104e-08
-1.22935e-08
3.28968e-08
-0.000586922
6.11002e-09
2.17307e-06
2.39431e-08
5.57108e-08
1.57485e-07
6.13398e-07
3.26349e-08
0.000303861
-0.00135874
2.67273e-09
4.28328e-08
-8.21637e-08
6.00408e-07
-3.03973e-08
1.94037e-07
3.34405e-09
2.15292e-08
0.000331094
3.10139e-09
5.30467e-05
2.20716e-06
-3.2739e-07
-1.22717e-08
-1.29995e-08
4.43186e-09
6.71159e-09
1.43945e-08
5.39137e-09
3.04582e-09
-7.17515e-10
8.24061e-05
-3.48009e-09
-0.000126032
3.71183e-09
2.88325e-08
6.59569e-07
-8.79538e-13
-2.61011e-09
-2.05072e-07
0.000109836
2.79971e-06
1.0133e-10
-0.00102403
1.48028e-10
-6.36879e-09
3.12754e-09
-0.000459389
3.41438e-05
-6.07384e-07
6.72838e-05
-0.00403853
-1.56689e-09
7.10088e-07
-3.93739e-09
1.97437e-08
-0.00231259
-8.99624e-05
2.11663e-06
3.32145e-08
5.63275e-08
-0.000204248
1.03473e-07
1.50807e-06
7.58385e-09
-9.9653e-07
5.86548e-08
-4.07826e-08
5.89513e-08
1.8095e-08
-0.00015506
-2.0606e-09
5.36819e-08
-0.000361206
8.38452e-05
1.40576e-08
3.121e-08
-0.00135942
2.31399e-09
7.75662e-07
2.22142e-08
7.80425e-08
5.34666e-08
3.46048e-07
-0.000185873
2.87034e-09
3.14395e-08
2.34917e-08
6.94883e-07
-0.00195808
5.17732e-10
2.90794e-05
5.78849e-08
-6.94048e-06
-0.000142776
-6.28637e-07
-1.55069e-09
6.85629e-09
6.19615e-07
0.000104817
6.45008e-09
1.95146e-06
5.05872e-08
4.82963e-05
-2.65246e-08
6.54909e-09
2.21103e-08
1.42428e-07
-9.05232e-08
-2.2059e-08
2.47286e-08
-2.10508e-08
0.000104355
4.91536e-08
-5.76419e-09
5.51261e-08
-0.00235089
-0.000153818
-2.7524e-08
-8.81017e-05
-0.00192562
4.55508e-08
6.85352e-07
1.79214e-08
4.24697e-07
8.38743e-09
3.76127e-07
-4.38256e-08
-3.88918e-06
8.52699e-10
-1.84234e-08
6.34709e-07
2.17042e-06
3.49562e-08
3.3637e-05
6.3244e-09
-1.78444e-09
2.1332e-05
6.72053e-09
-2.75973e-06
2.98317e-09
5.95328e-09
0.000333436
-2.95689e-05
-5.99894e-07
-1.09577e-09
4.5384e-09
-5.19213e-07
1.09981e-09
-2.47007e-09
-0.00165278
-0.00192863
-3.26103e-08
1.40277e-06
-9.7884e-09
3.68164e-08
2.39969e-06
-6.27548e-05
0.000190358
2.24899e-07
1.75393e-08
2.81788e-09
-0.00280518
-8.2329e-07
3.1051e-07
3.1887e-05
-4.10575e-08
1.92015e-06
-6.05162e-07
7.68118e-09
4.35508e-09
-6.05663e-07
3.10731e-10
2.16837e-05
2.13995e-06
-1.65639e-05
-2.08373e-08
3.05946e-09
-0.00152817
2.72394e-09
-0.000292628
0.000169454
0.00219486
-3.48018e-07
5.49319e-09
3.89404e-09
0.000254548
1.71365e-08
7.35472e-09
-4.03704e-09
-4.44892e-08
0.000297912
1.88081e-05
8.81697e-09
2.98535e-09
1.78348e-08
2.95131e-09
-0.000125982
2.2915e-06
7.32755e-07
3.35076e-05
1.56846e-09
3.39959e-09
-0.000112171
4.70124e-10
-1.37107e-07
-1.75226e-08
8.92933e-05
-0.000350584
4.05589e-08
-0.00129887
0.000314734
4.49501e-09
3.96943e-08
-3.13864e-07
3.41325e-08
6.79176e-10
4.42242e-10
8.54939e-09
1.48377e-08
-0.000153327
-0.000213658
1.77095e-09
3.31722e-08
-0.000863408
0.000120285
-8.13666e-05
-2.45583e-06
-4.86722e-09
-7.09534e-05
2.45989e-09
1.80866e-07
-8.95499e-05
-9.66137e-08
3.69522e-09
4.72067e-08
-5.74787e-09
-9.70258e-09
6.51818e-09
-1.55453e-08
-4.24942e-08
3.34199e-09
4.22612e-08
0.000314447
6.99403e-09
2.3041e-09
-0.00428208
-1.04142e-06
2.12137e-07
-7.93527e-06
-0.00025783
0.00043334
-1.40887e-09
-3.58656e-09
0.000303445
4.11622e-08
9.21369e-07
-4.63277e-08
-2.31574e-08
9.47871e-10
-4.47222e-09
-5.26447e-09
3.21957e-08
0.00024394
4.9742e-10
-2.99612e-08
-2.73452e-09
9.84683e-09
-0.00101091
1.68473e-07
2.63084e-08
2.3904e-05
-5.05747e-08
-4.22868e-09
1.45665e-05
-0.000358369
2.57266e-08
-0.000118858
3.20309e-08
5.36446e-08
-8.68921e-05
2.14945e-06
-0.0016507
-2.21468e-08
7.87939e-10
7.6188e-05
-1.0962e-07
1.26744e-09
-3.49965e-09
1.3812e-07
-0.00033199
-2.21843e-09
-3.12382e-10
1.18469e-09
-3.53706e-10
2.1428e-08
-0.00206896
2.22809e-06
3.31131e-09
-2.02259e-08
2.86942e-08
6.18903e-10
2.87388e-08
1.37075e-09
5.57035e-09
1.95683e-08
8.00242e-08
6.34058e-08
7.89233e-09
6.24532e-08
1.05855e-09
0.000107991
-2.61753e-08
-8.95872e-06
-2.58862e-07
0.00109111
8.12917e-07
2.89555e-09
8.93452e-10
7.75141e-09
-5.84854e-08
3.28681e-09
-1.75083e-09
1.5732e-05
2.94036e-05
-2.55159e-05
-4.52207e-09
1.7642e-06
7.97994e-07
8.23546e-09
-0.00382639
9.93226e-09
1.94569e-07
-5.41499e-09
-1.39551e-06
0.000283363
-2.74852e-09
-4.49173e-08
-0.000192833
0.000325
2.6592e-08
-1.96586e-07
1.87511e-05
-0.000322253
0.000158838
0.00154979
-1.01433e-09
-0.00163683
-0.000219206
-0.000473232
1.97016e-10
-1.32673e-06
3.03178e-08
-4.53286e-09
-0.000825864
6.37788e-10
8.55498e-07
-0.000292873
-4.44569e-09
-2.73284e-05
-1.00038e-08
0.00300334
3.16322e-08
3.57693e-08
4.13994e-08
5.04688e-10
7.66708e-09
2.72345e-08
-9.24706e-10
-0.00227657
-5.46128e-09
0.00183108
-0.00018281
4.84289e-08
0.00305977
-2.64011e-09
1.40959e-08
5.5135e-05
-3.8324e-09
0.000754276
1.03033e-05
4.59771e-05
-4.15225e-05
-7.42539e-05
3.10649e-08
5.51955e-07
6.29923e-08
0.000117655
2.6364e-09
-2.44719e-09
4.6678e-08
1.13763e-12
1.32234e-08
-1.27444e-05
-1.73736e-09
-1.63077e-06
6.11332e-08
-4.43878e-08
0.000194306
9.65012e-09
-9.38211e-09
1.13552e-08
-1.60812e-06
-2.1399e-08
1.39282e-06
4.33681e-11
4.58492e-05
4.74156e-09
6.48061e-05
3.33983e-08
9.32689e-05
8.08838e-07
-2.3054e-07
6.6905e-06
-4.58071e-08
-1.0952e-06
2.43666e-09
-4.5954e-07
3.94923e-08
1.41469e-08
1.48236e-06
-3.83872e-09
7.20652e-11
-3.69431e-06
2.04992e-08
0.000176833
-1.77868e-08
7.35669e-10
-2.02872e-09
5.29136e-09
-3.93698e-06
2.49204e-08
-2.17442e-06
7.05846e-10
7.56541e-09
-4.08594e-09
1.18008e-08
5.52873e-07
6.02553e-08
4.64354e-07
-8.98619e-09
7.13881e-10
8.71075e-11
-2.95497e-09
-2.23299e-08
-0.000282886
-1.5904e-08
-2.88906e-09
0.00307551
8.17771e-10
-1.08441e-08
-6.78606e-09
-1.012e-10
-0.000203468
-3.077e-09
-6.24136e-09
3.89114e-09
-9.53792e-10
-4.39753e-10
-0.00208619
5.84726e-08
-0.000200069
0.000671245
2.08469e-08
6.1719e-05
1.28974e-08
9.20252e-10
-0.000285058
0.000396505
-1.45838e-08
6.97665e-09
1.76177e-08
2.05621e-08
1.39602e-09
-3.02159e-08
-1.16248e-08
5.17943e-13
4.13436e-09
-3.52379e-05
-2.78073e-09
-1.09518e-07
6.12559e-08
5.07356e-06
5.67763e-07
-4.90596e-08
-0.000282115
-2.7797e-09
-3.42846e-06
3.33587e-07
-5.89205e-07
4.61195e-08
6.77424e-07
-4.46093e-08
-0.00172403
6.01231e-07
-9.32759e-09
-2.50894e-08
-1.61148e-08
2.58045e-06
4.56986e-07
7.74159e-07
-1.24628e-07
9.15315e-10
-2.15452e-08
-7.45339e-05
1.7806e-08
0.000252057
4.57438e-08
2.76468e-06
-3.32758e-08
5.92407e-08
6.7809e-08
5.43263e-08
-3.43134e-09
2.66191e-08
4.50347e-09
-7.25832e-09
5.65239e-10
-1.91947e-07
1.83896e-08
-2.27838e-08
-2.98089e-06
4.16799e-08
-0.000197286
-2.8491e-08
1.01358e-08
0.00070095
-3.46306e-08
4.34829e-08
-9.87303e-08
1.58737e-08
-0.00406846
2.22417e-06
-8.99087e-09
-8.10929e-05
2.49087e-09
-0.000489715
-2.98826e-09
7.76393e-09
0.00161379
7.81702e-07
2.13184e-08
6.71553e-08
-1.50584e-09
6.65234e-09
3.28554e-08
9.0556e-05
-9.06535e-09
3.95549e-08
0.000173459
2.34222e-07
-2.05057e-08
5.03958e-08
-0.000685836
-7.14028e-09
-3.86667e-08
0.000252874
-1.38746e-08
6.39634e-07
0.000218765
2.69466e-07
-1.86582e-08
-2.25037e-08
-0.00196053
4.58084e-07
0.000456289
1.13379e-07
1.88702e-05
9.85939e-09
-4.53431e-06
3.41005e-07
5.40015e-05
4.598e-08
-6.76085e-05
3.03848e-08
-5.00386e-07
-7.52306e-09
1.74198e-09
-5.83682e-08
4.62193e-08
1.85744e-07
-3.42491e-05
4.42846e-08
2.88553e-05
-0.000187268
2.05288e-08
-8.20594e-09
7.54497e-05
2.36178e-08
1.9873e-08
-4.00856e-08
1.37273e-08
0.000173843
1.31102e-09
-7.43193e-08
-5.69572e-09
8.837e-10
1.18855e-08
-5.71059e-05
0.000436808
-1.33575e-06
2.08157e-08
-9.37398e-05
2.66575e-08
-0.000791005
2.49659e-06
-6.95201e-06
2.05827e-08
5.7408e-05
-2.15574e-07
2.05224e-08
-4.12293e-09
-4.07289e-08
6.87789e-09
2.69098e-09
-4.31206e-08
-1.03521e-08
-4.37005e-08
1.37527e-08
2.44188e-08
-4.09448e-08
9.40086e-09
0.000479592
2.10323e-08
5.45319e-07
0.000301897
-6.50545e-08
4.30069e-08
2.38451e-09
-6.47766e-06
-0.000346841
-2.70535e-08
1.03766e-08
3.02765e-07
-1.52479e-08
7.28747e-07
-2.64638e-08
-4.74598e-06
-1.35766e-07
2.00924e-09
1.92569e-08
-9.88615e-07
1.23458e-07
6.38227e-08
0.000352739
1.87123e-08
-1.27568e-05
-0.00101866
-3.89269e-08
1.26231e-07
1.15005e-09
9.30672e-07
2.36029e-08
0.000240845
1.36197e-08
1.00223e-08
-0.000294181
-4.32865e-08
-1.60474e-09
-0.000318284
8.03354e-09
-0.000867525
-4.55041e-08
1.72503e-08
-0.00352838
-6.07813e-09
4.51498e-09
-0.000272997
-2.40766e-07
-2.95976e-08
-0.00183681
-0.000246077
8.52909e-10
-4.24924e-05
4.54554e-08
-1.50147e-08
-7.85767e-09
6.08128e-06
-0.000668669
-0.00148246
-1.89121e-08
-2.15922e-09
4.445e-05
-2.32451e-09
4.27351e-08
8.60868e-06
-0.000137456
2.62956e-09
1.03667e-09
-0.000317358
-0.000770322
2.25664e-09
2.05665e-06
-7.80342e-05
-0.00288669
-0.00130879
5.79939e-09
-1.94943e-08
6.71313e-10
-4.18337e-06
-6.91627e-09
4.5674e-07
5.52787e-09
-6.77272e-09
4.12154e-08
1.80655e-09
-1.35111e-07
-6.97899e-09
0.00221926
2.13466e-08
3.22126e-08
5.51827e-05
4.34913e-08
3.8152e-08
9.28114e-07
1.39018e-08
-4.70781e-07
1.57416e-08
-4.56741e-06
4.73538e-08
0.000446183
4.01812e-08
0.00022922
-2.71797e-08
7.2673e-09
1.1814e-06
3.59934e-08
-4.32093e-09
1.69036e-08
6.0483e-08
4.74307e-09
4.18579e-08
8.49546e-06
1.23323e-09
2.21298e-08
9.8609e-13
2.54058e-09
-7.42423e-05
-2.21645e-09
-1.40489e-06
-5.72182e-09
-0.000279741
1.84233e-06
1.1169e-07
5.30812e-08
-9.74722e-08
-2.93257e-08
-1.59214e-09
1.24061e-06
-4.98623e-10
-1.72306e-08
0.00263043
-0.000680818
2.83859e-06
4.72531e-07
5.16009e-08
1.79402e-08
-6.34881e-07
3.05596e-06
6.17157e-08
-0.000231316
5.44725e-08
2.20051e-08
-1.67745e-09
-2.42094e-09
1.4808e-09
2.43425e-07
-1.30039e-07
-0.000211868
-0.00115448
-7.9056e-09
2.72461e-08
-4.83347e-05
8.75879e-12
1.15622e-07
5.1628e-10
6.40064e-07
0.000119703
0.00311537
3.10228e-08
6.02827e-05
-0.000146671
0.00021581
-4.64994e-09
-6.2702e-05
2.11757e-08
-0.000278078
5.677e-06
-4.3029e-09
-2.08438e-08
-0.00433149
3.60472e-11
4.68112e-10
-1.41612e-09
2.02754e-08
1.02898e-06
8.70613e-13
-3.71163e-08
3.13099e-07
-7.53044e-09
2.27156e-05
1.39706e-07
4.51666e-09
-0.000162844
-6.64031e-05
-0.000182412
2.17203e-06
-2.54895e-08
0.00033052
2.65476e-08
-1.26278e-07
1.19232e-10
4.20875e-09
0.00019154
2.67533e-08
-0.000477712
-4.10347e-07
-1.87332e-07
-6.78613e-10
5.4698e-08
-0.000298963
5.59983e-09
1.10691e-07
-3.54937e-08
0.000178394
3.00481e-09
-6.84593e-08
5.44036e-08
0.000348392
1.78337e-09
-1.22643e-08
7.30571e-08
1.00021e-08
3.62618e-09
-4.77202e-08
-4.70136e-07
2.38416e-06
-1.41898e-10
-1.19051e-09
2.43056e-08
-4.7153e-08
-1.01074e-06
-2.43328e-09
7.62884e-09
1.71541e-06
-2.56848e-09
-0.000271861
-0.000114729
-0.00351299
-1.68021e-05
-2.88653e-07
-2.72409e-09
2.28278e-07
1.49053e-08
2.30058e-08
-8.04908e-09
0.000234363
-7.11311e-09
3.47055e-08
-5.87536e-10
-6.42819e-10
-2.79731e-10
-1.31486e-08
-4.35209e-09
3.58058e-09
1.05504e-06
-0.000106476
-0.00103083
-0.00145146
-3.81475e-09
0.000182847
1.03385e-09
0.000327486
-7.74222e-09
4.63335e-08
-2.13803e-08
4.50827e-09
1.52148e-08
4.01011e-11
-5.19296e-05
2.68471e-08
2.52905e-08
-8.43188e-07
-1.28372e-07
3.14782e-08
-3.85214e-09
1.91735e-06
-0.00328002
1.26447e-08
-2.12617e-08
-1.19899e-09
0.000148751
1.3375e-06
6.52017e-10
2.57849e-09
-3.43564e-07
1.35765e-08
6.73399e-09
-1.2932e-07
5.73055e-05
2.85639e-09
1.24973e-08
2.39266e-08
-7.54678e-09
-0.000312717
0.000147671
0.000311787
-3.54234e-08
2.63815e-10
2.21912e-06
0.000287827
-6.77689e-10
2.96564e-09
4.11424e-08
-1.4762e-10
4.78044e-09
3.13674e-12
-0.000157109
-3.2788e-09
1.59854e-08
-6.92627e-09
-2.52538e-08
-1.50463e-10
3.22817e-08
-0.000263331
-0.00052907
2.86773e-08
-1.19637e-08
-8.43632e-05
2.9826e-05
-5.31285e-07
-6.06223e-09
0.000224889
-2.48334e-08
-2.40483e-10
9.56736e-08
5.61055e-08
-1.39654e-08
-0.00147593
-6.95782e-09
-0.000341783
0.000152092
-5.73623e-05
5.11973e-09
-8.57465e-09
3.10344e-08
5.58579e-09
-8.55316e-11
-1.77411e-08
7.68413e-05
-1.40903e-09
5.58704e-10
-6.38481e-08
-1.12499e-08
-0.000192319
-0.000553636
0.000179422
-4.00614e-09
2.74725e-08
-2.34553e-08
-2.73416e-08
-2.38075e-08
1.09338e-07
-1.3184e-09
1.06318e-08
0.000264986
-3.59716e-05
6.18812e-09
-4.2202e-06
-3.20048e-06
2.48776e-08
1.55102e-07
5.25028e-08
5.1726e-08
-0.00436594
4.6764e-08
6.27924e-08
1.30191e-08
-0.000894015
1.59939e-08
1.52751e-08
1.21054e-10
-3.45854e-05
6.23678e-05
4.82937e-08
2.09603e-08
0.000217959
9.12767e-07
1.55217e-08
2.27334e-07
0.000243222
6.97333e-05
2.80082e-08
-2.08554e-08
2.81001e-07
-0.000489339
-0.0024662
0.000100749
6.48151e-10
1.49898e-09
0.000675859
1.31472e-09
-8.40135e-09
9.34302e-09
1.64564e-09
-5.99707e-07
9.63149e-11
1.21127e-09
2.32125e-08
-1.75944e-09
0.00202449
0.000421781
-2.21083e-08
4.26388e-09
-0.000205144
1.77534e-08
3.48217e-09
-1.76097e-09
-7.64921e-09
2.19811e-06
-0.00111476
1.33421e-05
4.87867e-08
9.50624e-10
-2.13214e-08
-0.000235029
9.47671e-07
-0.0216397
3.47976e-06
-3.43536e-08
2.88237e-08
0.00280993
5.45924e-06
-5.6946e-07
7.00295e-07
-5.42033e-10
2.8568e-09
4.38672e-07
7.15705e-06
3.71154e-08
3.30285e-08
-7.16895e-06
-0.0026079
8.37235e-10
0.000371695
2.29834e-08
6.8044e-09
-4.63183e-09
0.000536681
4.67426e-08
4.09901e-07
-0.00219997
-3.79871e-09
1.05329e-06
5.19479e-06
1.32392e-05
-5.87005e-07
-1.88996e-09
-4.14876e-05
-2.45374e-08
-3.0781e-08
0.000278464
3.63509e-11
-3.32063e-09
-4.54795e-07
-2.31599e-09
2.54624e-09
-2.23622e-09
-6.17534e-07
-3.35673e-08
-3.20864e-09
4.50746e-08
6.9419e-07
-2.76807e-09
-3.9087e-09
6.30872e-09
-0.000121805
0.000209816
-8.38563e-09
3.71866e-08
0.000279905
-1.15267e-06
-4.98249e-09
-0.000552941
-3.53937e-08
1.13029e-09
-1.09587e-09
-2.01427e-08
2.78631e-10
3.31803e-07
-2.73039e-08
-1.86673e-09
3.42007e-07
3.34706e-06
3.48957e-06
5.61904e-09
0.000395056
-4.97063e-09
2.19233e-08
-0.00177132
7.33746e-10
2.99405e-06
1.07454e-08
1.42826e-09
1.01828e-05
-2.95667e-07
3.0583e-09
-8.85333e-07
6.8937e-09
6.85861e-09
-0.000359845
3.10518e-07
-1.12635e-07
4.30713e-06
0.000247835
1.54021e-08
3.16934e-08
-6.91305e-10
1.02892e-09
0.00228097
2.65955e-08
-0.000213146
0.000675353
5.26225e-08
3.02438e-08
-0.00146214
2.64663e-08
-0.000248555
3.09557e-05
1.05071e-05
7.45264e-07
1.72444e-09
-1.07261e-06
2.52465e-08
-4.98353e-08
5.80895e-08
-1.49703e-09
-0.000153136
9.56443e-09
1.02489e-06
-7.26597e-09
-0.000195218
4.01159e-10
0.000124052
1.58997e-11
-1.76593e-08
4.32612e-08
0.000339241
2.23147e-08
-1.70281e-09
-6.50907e-07
-7.95831e-09
1.27415e-10
-1.89463e-08
2.10033e-08
1.54004e-05
2.59695e-08
-5.0078e-05
-7.27434e-10
-1.97473e-08
2.35079e-06
-3.43038e-09
0.000196622
8.2345e-09
-1.12294e-06
-4.07685e-05
-4.75232e-09
-0.000284178
-3.34758e-09
-2.01578e-08
3.73052e-08
-1.26003e-09
0.000338904
-2.50589e-09
2.31988e-08
-0.000232716
6.81334e-05
1.6494e-05
0.000162061
0.000319482
2.99864e-06
-1.68004e-09
2.2673e-08
1.50072e-06
-7.83854e-06
5.17026e-08
0.00310746
5.74157e-07
-0.0470777
-8.47748e-09
4.35285e-08
3.12974e-07
-0.000251407
-3.89372e-08
2.02686e-08
-3.67905e-05
-5.46829e-07
-4.12651e-05
0.000328228
4.28551e-08
0.00156177
-0.000278616
4.93454e-05
0.00142902
4.1239e-08
8.73766e-05
-1.42601e-06
4.6398e-10
5.60934e-08
1.81236e-09
0.00273619
-3.00147e-08
-0.0003204
1.39769e-09
0.000141341
4.25314e-05
-2.17762e-08
6.10794e-07
-0.000216399
-3.06645e-08
4.82689e-10
6.72795e-09
-5.00224e-08
6.00062e-09
3.98734e-10
-2.81579e-08
2.9588e-08
2.15222e-08
-3.56025e-09
-0.000111907
1.4975e-06
1.0829e-08
4.21705e-08
6.8454e-08
-0.00179804
-7.99534e-05
3.62037e-08
-0.00163853
2.51207e-07
-4.65116e-06
1.06099e-08
2.0586e-07
2.31392e-09
-1.89671e-08
2.69854e-09
2.88115e-09
5.50236e-10
-4.84899e-10
2.90182e-07
4.04421e-07
8.74932e-12
0.000340992
1.08019e-07
-5.23234e-09
0.000165395
-2.39084e-08
-0.000207292
6.12389e-08
5.79227e-08
1.24209e-09
2.02238e-07
-2.06112e-08
-0.000133174
-6.35732e-10
-0.00373893
8.42788e-07
5.84053e-09
1.75363e-09
3.59891e-08
1.0162e-08
-0.000265078
-0.000149815
-3.09606e-08
1.66262e-09
3.13992e-08
4.97405e-07
8.66457e-10
7.40157e-08
1.43596e-06
3.82361e-10
-8.46082e-05
5.04905e-09
2.80548e-09
-0.00212601
1.48711e-08
-3.94874e-08
-5.35263e-09
2.02389e-07
3.32817e-08
-7.46875e-05
-1.8739e-08
7.68805e-05
-2.24102e-08
6.36046e-09
-0.000227623
-0.000188407
0.000132788
1.55541e-05
-8.42499e-07
2.87771e-07
9.87839e-05
3.65537e-08