/*--------------------------------*- C++ -*----------------------------------*\
| =========                 |                                                 |
| \\      /  F ield         | OpenFOAM: The Open Source CFD Toolbox           |
|  \\    /   O peration     | Version:  v2012                                 |
|   \\  /    A nd           | Website:  www.openfoam.com                      |
|    \\/     M anipulation  |                                                 |
\*---------------------------------------------------------------------------*/
FoamFile
{
    version     2.0;
    format      ascii;
    class       volScalarField;
    location    "200";
    object      k_0;
}
// * * * * * * * * * * * * * * * * * * * * * * * * * * * * * * * * * * * * * //

dimensions      [0 2 -2 0 0 0 0];


internalField   nonuniform List<scalar> 
37809
(
0.000177346
0.0185739
0.000149668
0.000154745
0.0652569
0.00018119
0.000182426
0.000512574
0.00650143
0.00805156
0.000178312
0.000148054
0.000153206
0.000153251
0.0173418
0.000154048
0.000148384
0.035633
0.000148796
0.000176393
0.000165676
0.000165557
0.0517607
0.000147567
0.000165468
0.0189842
0.000430415
0.000149189
0.000149605
0.000528971
0.0002007
0.0222933
0.000147596
0.00026958
0.00014887
0.000148434
0.000145791
0.00843516
0.000182236
0.000186001
0.0684103
0.0158742
0.0226816
0.0119654
0.00014766
0.000159981
0.000201004
0.0390566
0.000276115
0.000166425
0.000149332
0.000147842
0.000146891
0.000149814
0.0234866
0.000146919
0.000159194
0.000155882
0.000181353
0.000159803
0.0231794
0.000151769
0.000153069
0.000185949
0.000200658
0.00016562
0.0279392
0.000149002
0.000153745
0.00583684
0.000153214
0.00785832
0.000148233
0.000153158
0.000149163
0.0001456
0.000185866
0.000183162
0.000177022
0.000215639
0.000147316
0.000149644
0.0316983
0.000162521
0.000147556
0.0185921
0.000150926
0.000274098
0.000182923
0.000158727
0.00684193
0.0147872
0.000168817
0.0838114
0.000151098
0.0429415
0.000148275
0.00014949
0.0190424
0.000147007
0.0052249
0.000149514
0.000185401
0.0336478
0.00171327
0.000149414
0.000543037
0.00439768
0.000188883
0.00014804
0.000176111
0.000162313
0.000174801
0.000151984
0.000158959
0.00018166
0.000148874
0.000148272
0.000255031
0.0247058
0.000149858
0.000149616
0.00016681
0.0647627
0.0130295
0.000148847
0.000200462
0.000148108
0.000158301
0.000154368
0.00025409
0.000212678
0.0184075
0.000147254
0.000226249
0.000148927
0.000149329
0.000151886
0.0106287
0.00365455
0.000148808
0.00918645
0.00786624
0.067739
0.000148235
0.0250669
0.000154048
0.000151577
0.0332763
0.000150752
0.0177296
0.000154367
0.000171528
0.000240677
0.00019438
0.00015122
0.00337693
0.000254409
0.000149908
0.00802966
0.000158282
0.000216654
0.00060853
0.0265914
0.000150733
0.000144285
0.000147689
0.0432931
0.000182405
0.000192578
0.000214268
0.000146629
0.0317798
0.000152231
0.000154103
0.000154671
0.00155688
0.000158682
0.0585426
0.000170903
0.0250306
0.000149773
0.000146914
0.000149365
0.000144551
0.000220034
0.00014982
0.000160171
0.000199414
0.00724964
0.000166388
0.00014828
0.000148572
0.0130418
0.000201624
0.000287429
0.000148086
0.000143503
0.00014678
0.000153354
0.00593502
0.000179334
0.021202
0.000170891
0.0217179
0.000144593
0.000152529
0.000167272
0.000147728
0.000192263
0.000167292
0.0189048
0.000146582
0.000148243
0.000147683
0.000286581
0.000165616
0.000147131
0.000146566
0.000210974
0.0810907
0.000394986
0.000149238
0.000149791
0.000147337
0.0432835
0.056162
0.000199507
0.000156573
0.00247564
0.000149276
0.000179617
0.000213956
0.000151533
0.000189339
0.000296491
0.000146443
0.0461258
0.000150671
0.00018853
0.0432364
0.000146662
0.000502736
0.00286108
0.000147668
0.00014805
0.000149714
0.000143993
0.000192742
0.000144601
0.000148564
0.000147646
0.000148165
0.0690666
0.00014824
0.000148208
0.00014346
0.00014822
0.000348569
0.0339636
0.000235248
0.000148598
0.00796923
0.00014968
0.0178654
0.000170007
0.000202275
0.000165945
0.000148134
0.000273837
0.0186577
0.000147692
0.0628597
0.000420889
0.000147679
0.000187564
0.000253963
0.000148523
2.11802e-05
0.000148186
0.000149016
0.0136581
0.00966357
0.000147487
0.000203381
0.000148038
0.000148191
0.000148249
0.000148188
0.0108169
0.000147887
0.00017096
0.00736243
0.000146881
0.000148069
0.000159846
0.000212039
0.00655616
0.000148219
0.000978977
0.000170399
0.0174674
0.000145653
0.000246849
0.00648269
0.000162644
0.000149623
0.000153222
0.0659072
0.00014667
0.000198498
0.070183
0.0159236
0.000167412
0.000149809
0.0541423
0.00015176
0.000148863
0.0010317
0.00708375
0.000183476
0.000400531
0.000163729
0.000153109
0.0063796
0.000165416
0.00666971
0.000148148
0.000149625
0.000228616
0.00014648
0.000146613
0.000149004
0.00419872
0.000145022
0.000147218
0.000174546
0.000148822
0.000147955
0.000180399
0.000147523
0.000153174
0.000531348
0.00539134
0.000157418
0.000229068
0.000933343
0.000148551
0.0202484
0.000154144
0.000383946
0.000182853
0.000148038
0.000148961
0.0120344
0.00830644
0.000144641
0.000211023
0.000148069
0.0519574
0.00280067
0.000155346
0.0220262
0.0213268
0.0745594
0.0416048
0.000162177
0.000154209
0.000154809
0.000147475
0.000153274
0.00016848
0.000182003
0.0060104
0.000177152
0.000145772
0.000187802
0.000144659
0.018293
0.000544804
0.000148191
0.000151695
0.0214232
0.000167536
0.000515277
0.000168187
0.00619763
0.000160494
0.00100102
0.000145265
0.000148207
0.022176
0.000149664
0.000148714
0.000154426
0.000183956
0.0248959
0.00025431
0.000159502
0.000149666
0.0566308
0.000191714
0.000145227
0.0001484
0.000148797
0.000172168
0.000146702
0.0454245
0.0446435
0.0352967
0.000166004
0.000160029
0.000175142
0.00014933
0.000145594
9.61461e-05
0.000264074
0.00707601
0.000149781
0.000147888
0.0633956
0.000181446
0.000193707
0.000241132
0.000148214
0.0551145
0.000149819
0.000158504
0.00015668
0.000682397
0.000147226
0.000170027
0.000154641
0.000151874
0.0593566
0.000149236
0.0195461
0.062285
0.000173434
0.000146517
0.000150503
0.000213862
0.000173278
0.000176111
0.000147831
0.00014746
0.037481
0.000224223
0.000174148
0.000218497
0.000168588
0.000145756
0.000151983
0.000148205
0.0001484
0.000147506
0.000145807
0.000147953
0.0192871
0.000147671
0.000149321
0.000155166
0.000199091
0.000745172
0.0212617
0.0175857
0.000154712
0.000159843
0.0329004
0.000147941
0.000161298
0.000147196
0.000148547
0.000147562
0.000180717
0.000146823
0.00016919
0.0197659
0.000169551
0.000148225
0.000147438
0.000148036
0.000158822
0.000144688
0.0110217
0.000147891
0.000171736
0.000231122
0.0701995
0.000149163
0.0248314
0.000174255
0.000189502
0.000149526
0.000180124
0.0388075
0.000143958
0.000169056
0.000173466
0.000168036
0.00017824
0.000234677
0.0575801
0.0356803
0.000154289
0.000159154
0.000181891
0.0195548
0.000148833
0.000148875
0.000145521
0.000146801
0.0585551
0.00015906
0.000153504
0.000271064
0.00359748
0.00014974
0.00167333
0.000154318
0.00333444
0.000211565
0.000148531
0.00909346
0.000153826
0.000151798
0.000234678
0.0512195
0.000162976
0.000210273
0.00762418
0.000150689
0.000231645
0.000167423
0.000149808
0.000145097
0.000147534
0.012797
0.000147936
0.000148216
0.000185552
0.000151779
0.0504776
0.000220349
0.00210894
0.000149091
0.00014832
0.0102659
0.00020117
0.00014985
0.000157372
0.000174793
0.000148516
0.000188518
0.031873
0.000159351
0.000148144
0.000185552
0.000265083
0.000160448
0.000177599
0.0196558
0.000196086
0.000145073
0.0133411
0.000162266
0.000182603
0.000148654
0.0739824
0.000241176
0.000149816
0.012056
0.000148159
0.000149284
0.000147151
0.000148209
0.0397761
0.0186853
0.000145128
0.000144205
0.000154767
0.000159935
0.000165827
0.000218675
0.0139999
0.0233904
0.048492
0.00895832
0.0143902
0.0467718
0.000148312
0.000147725
0.000153666
0.0150494
0.000149867
0.00014819
0.000145184
0.0411222
0.0161275
0.000147302
0.000148466
0.000149826
0.0208783
0.000165774
0.00032945
0.000149845
0.000192259
0.00015373
0.000176215
0.000183128
0.000146812
0.0176991
0.000149156
0.000207032
0.000148457
0.000149858
0.000148784
0.0740435
0.000540865
0.000519958
0.000148559
0.0552914
0.0403369
0.000150733
0.0130654
0.000203049
0.000198006
0.000147762
0.000148124
0.000148051
0.000949289
0.0866369
0.000175908
0.0401777
0.000149219
0.000148132
0.000169872
0.000163447
0.000147179
0.0362375
0.000155132
0.000202126
0.000178376
0.00708398
0.0195015
0.000630917
0.000252584
0.000148152
0.000145112
0.000156168
0.000148576
0.00015875
0.0654178
0.000148125
0.00643271
0.000214631
0.0392972
0.000154775
0.0445184
0.000166635
0.000595566
0.000154153
0.000148243
0.000157935
0.000148351
0.000154821
0.000194535
0.000304783
0.0302117
0.000246632
0.0139595
0.0738577
0.000165663
0.000147846
0.0151317
0.000144296
0.00409432
0.0270235
0.000150016
0.000156809
0.000237254
0.0421031
0.000150409
0.000149722
0.0304518
0.00759198
0.0389966
0.000148156
0.04024
0.000148392
0.000234956
0.000166144
0.000151102
0.00016963
0.0252475
0.000148879
0.00014851
0.000148137
0.000147271
0.000223619
0.0561668
0.0681363
0.0292668
0.000147943
0.0214844
0.000162705
0.00019427
0.000593759
0.000155097
0.0173121
0.000150651
0.000151166
0.0492766
0.000271599
0.000201123
0.0400398
0.00425257
0.000168534
0.0136737
0.000212171
0.000149186
0.0496168
0.000157259
0.000169066
0.000156247
0.000156187
0.000166262
0.000152105
0.000158763
0.000210403
0.00015786
0.000158187
0.000158062
0.00018871
0.000155305
0.000148018
0.000149023
0.000148135
0.000149297
0.000254312
0.000306784
0.000149884
0.000147753
0.000165368
0.0291048
0.000149378
0.000154618
0.000165783
0.000230919
0.000149661
0.000149136
0.000155401
0.000186867
0.000152575
0.000147697
0.000146767
0.0179623
0.059876
0.000133327
0.000159467
0.000149621
0.000147961
0.000157758
0.000148196
0.000147664
0.000156714
0.0720853
0.000181223
0.0309095
0.000147837
0.000155072
0.000168796
0.0516866
0.00016941
0.00889878
0.000441591
0.000644577
0.000145697
0.000148006
0.0430708
0.000182051
0.000166475
0.000177906
0.0662257
0.0175704
0.00018321
0.000149767
0.000216748
0.0312701
0.000156767
0.0882017
0.000173643
0.000426415
0.0176025
0.000200097
0.000174885
0.000150715
0.0126784
0.000147732
0.00051707
0.000157459
0.000146536
0.000148607
0.000145067
0.015713
0.000146632
0.000187659
0.000148106
0.000159983
0.000233368
0.000159416
0.00014785
0.0518953
0.000175306
0.000147845
0.000148838
0.0826467
0.000180291
0.000162464
0.000206487
0.000156461
0.000153998
0.000146024
0.000216958
0.0653943
0.0638778
0.0522159
0.000181
0.000187751
0.000165858
0.000205346
0.000151513
0.0536089
0.0344603
0.000213428
0.000147644
0.000154082
0.000180146
0.000149227
0.019558
0.0162418
0.000204072
0.000148219
0.000167612
0.000148309
0.000164256
0.0176571
0.000148107
0.000222157
0.0797961
0.000148068
0.000161554
0.000165344
0.000143858
0.000162993
0.0614595
0.000173797
0.000171752
0.00539648
0.00018641
0.00015051
0.000152966
0.000146757
0.000159064
0.000146028
0.000148217
0.0331043
0.000170719
0.000153208
0.00015115
0.000145014
0.000151293
0.000145311
0.000177968
0.000182137
0.000151642
0.000246453
0.019155
0.000146412
0.00018561
0.000147638
0.000158185
0.000149622
0.000149309
0.0350946
0.000155352
0.00750058
0.000148507
0.000150285
0.000217352
0.0551422
0.000148557
0.00015871
0.00935808
0.0270439
0.000149666
0.0280266
0.000161186
0.000164366
0.000214447
0.000153123
0.00619142
0.000156042
0.000148028
0.000147739
0.000146734
0.000150316
0.00015161
0.0179337
0.000171652
0.000161627
0.000552658
0.000171334
0.0276293
0.000162904
0.000149067
0.000175702
0.065708
0.000159963
0.000173065
0.000158684
0.0212534
0.000226619
0.000153281
0.000163255
0.000150707
0.0314127
0.000148529
0.000181523
0.000147041
0.000158827
0.00015249
0.0290701
0.000154038
0.000171526
0.000157882
0.0001689
0.000145653
0.000221262
0.000207575
0.000163426
0.000143874
0.000187781
0.0239355
0.00024598
0.000145211
0.000153319
0.000624917
0.00124348
0.004589
0.000148532
0.000173718
0.000149653
0.00016705
0.000250289
0.000248408
0.000157652
0.000207444
0.000158897
0.000147973
0.00014952
0.000201583
0.000147968
0.000147804
0.0001512
0.000206533
0.000203019
0.000163209
0.000146502
0.000145431
0.000145614
0.000161787
0.000148883
0.000195504
0.0274334
0.00014573
0.0241989
0.00015001
0.0185394
0.000533672
0.000170491
0.000154619
0.000162415
0.000148296
0.0584848
0.00014594
0.000219146
0.000153929
0.000148364
0.000181129
0.000164901
0.000147227
0.0191944
0.000180648
0.000158357
0.000152983
0.0384831
0.000184482
0.0204096
0.000149882
0.000165658
0.000229845
0.0220132
0.000146576
0.000158681
0.000147183
0.015324
0.0041972
0.000425074
0.0647237
0.000149853
0.000162805
0.000151042
0.0660593
0.000274747
0.000150925
0.000187819
0.000147953
0.000161383
0.000147162
0.000147993
0.000147537
0.000154692
0.014688
0.000147955
0.000163423
0.000219597
0.000147996
0.000149818
0.00016126
0.0405024
0.000157
0.000187892
0.000147843
0.000553133
0.000534727
0.00014806
0.000245298
0.000162598
0.000171923
0.0531885
0.000159921
0.000148845
0.000228056
0.000176779
0.000150892
0.00025483
0.000198425
0.000211833
0.000154778
0.000144182
0.000207704
0.000183191
0.000218056
0.000147244
0.0243615
0.000171653
0.000190526
0.000165439
0.000145959
0.000149861
0.000146746
0.000148099
0.000149255
0.000151895
0.0220527
0.000158572
0.000149318
0.000156128
0.000156213
0.000147686
0.0587778
0.000156366
0.000205872
0.000165478
0.000151196
0.000577152
0.000196959
0.000174051
0.0296753
0.0562287
0.000146346
0.000169019
0.000184246
0.000194184
0.000185935
0.000379076
0.000144274
0.000148397
0.0222507
0.00014901
0.0206514
0.000217201
0.000196955
0.000156275
0.000156251
0.000147245
0.000146702
0.000148011
0.000148148
0.000148724
0.000148102
0.0169402
0.000148059
0.031687
0.000153736
0.000173516
0.037201
0.000149829
0.000148241
0.000216668
0.0486955
0.000207483
0.000149646
0.0770671
0.000149611
0.000148053
0.000150622
0.000281998
0.000182834
0.000213777
0.0124983
0.014767
0.000161473
0.000172132
0.00014591
0.000148892
0.0400381
0.0725606
0.000207065
0.000169045
0.000151241
0.0163174
0.000171666
0.00256652
0.000146819
0.000218121
0.00015113
0.000151796
0.000160046
0.000175435
0.00765602
0.000154312
0.000189814
0.0565373
0.0073657
0.000148305
0.000155256
0.0149036
0.000151765
0.000608755
0.00015489
0.000166042
0.000166014
0.000181327
0.0236761
0.000146303
0.000148066
0.000163381
0.0001886
0.0161872
0.000149548
0.012673
0.000151253
0.00542466
0.0358535
0.000201185
0.000148099
0.000147336
0.000206916
0.0281175
0.000144163
0.0776312
0.000151193
0.0325657
0.000158454
0.000155991
0.000148395
0.00017365
0.000180775
0.000154999
0.000156748
0.000147005
0.0376874
0.000168721
0.000145207
0.000164897
0.0337161
0.0328561
0.000158529
0.0739154
0.0404967
0.000169012
0.000181774
0.00015858
0.000215043
0.000147185
0.000198417
0.000150584
0.0238148
0.000148984
0.000148872
0.000426079
0.000236519
0.000153272
0.000204052
0.000144165
0.000148292
0.0230234
0.000146706
0.00026482
0.000162563
0.000148156
0.0251026
0.000225966
0.00020039
0.000148161
0.000158195
0.000179405
0.000149015
0.000153239
0.0315095
0.0368131
0.000161972
0.000196697
0.000148193
0.000155428
0.00020488
0.0352027
0.0491028
0.00018128
0.000164514
0.000150697
0.000349497
0.000179422
0.000180492
0.0561052
0.000147862
0.000201012
0.00020268
0.00014591
0.000149036
0.000202656
0.000149762
0.0193412
0.000233558
0.000553358
0.000148062
0.000149016
0.0437395
0.000149218
0.0711151
0.0223001
0.00445415
0.000171835
0.000147354
0.000151594
0.0462789
0.000158302
0.000147202
0.000161323
0.000150573
0.0332545
0.0161926
0.000154486
0.000149004
0.000148504
0.000146304
0.0358217
0.000248881
0.000255672
0.0794598
0.000147817
0.000147706
0.00947538
0.000147534
0.000185342
0.000160734
0.0195442
0.0231321
0.00016655
0.0390474
0.0194866
0.000146669
0.000167962
0.000196343
0.000155525
0.00014966
0.000162766
0.000154363
0.000185522
0.000270804
0.0177839
0.000147491
0.000147642
0.0569
0.0310072
0.0186027
0.00022851
0.000157235
0.0449615
0.000145152
0.000189454
0.0399867
0.00017617
0.000150405
0.000175752
0.000145553
0.000148224
0.000147043
0.000147557
0.000150419
0.000158792
0.000167906
0.0816791
0.000148143
0.000143897
0.0339235
0.000221235
0.000181278
0.0366401
0.0275231
0.0775351
0.000148117
0.000149419
0.0215975
0.000168144
0.00019162
0.000150875
0.000148041
0.000148535
0.000145287
0.000150735
0.000174301
0.00331616
0.00014866
0.000151605
0.000157878
0.000150916
0.0574262
0.000175184
0.000172265
0.0105351
0.000168893
0.000147929
0.00999822
0.0237878
0.000170797
0.0877528
0.000153457
0.000165885
0.0136783
0.000205933
0.0587794
0.000155163
0.000148073
0.0134058
0.000171858
0.000149559
0.000148286
0.000173427
0.0229733
0.000147058
0.000145148
0.000149519
0.000145144
0.00014751
0.0345708
0.000233327
0.000149604
0.000159847
0.00016821
0.000148067
0.000155387
0.000149523
0.000144229
0.000148485
0.000171361
0.000156549
0.000148946
0.000157374
0.000149562
0.0145204
0.000151421
0.00676224
0.000202703
0.00516956
0.000190697
0.000143918
0.000149559
0.000147037
0.000179573
0.000146545
0.000145184
0.0393263
0.0182196
0.0002405
0.000145413
0.000199961
0.000228145
0.000148937
0.00967171
0.000152936
0.000552775
0.000147804
0.000220479
0.0170125
0.000149856
0.000148693
0.0396736
0.0285193
0.000169092
0.000472125
0.000295485
0.0180909
0.0211369
0.0698238
0.000148362
0.0403401
0.0226121
0.0795603
0.000149707
0.000257161
0.000147789
0.000143839
0.0577314
0.000149658
0.000191148
0.0376221
0.000145458
0.0161848
0.000170379
0.0284467
0.000166305
0.000151218
0.000164651
0.000146679
0.000148689
0.00016598
0.000158713
0.0358783
0.000145789
0.0275545
0.0291889
0.000169456
0.0269537
0.000169667
0.000148106
0.0120054
0.000148008
0.0689449
0.00773938
0.0306002
0.0302195
0.000598311
0.000173927
0.000182361
0.000154204
0.0394237
0.000149213
0.000148536
0.000175492
0.000148982
0.000163957
0.00922479
0.000149282
0.000260174
0.000154229
0.000150613
0.0445894
0.000153029
0.000148028
0.00016925
0.000350497
0.000156457
0.000196376
0.000149438
0.0407672
0.000147814
0.0371041
0.000147633
0.00821236
0.000190463
0.000200336
0.00657212
0.00015102
0.000183284
0.000149249
0.000292266
0.000150928
0.000146636
0.000212283
0.000147803
0.000149784
0.0401116
0.000147506
0.0472164
0.000148012
0.000146193
0.000148265
0.000168845
0.000251665
0.000147375
0.000237311
0.000148059
0.000146835
0.00015335
0.000167074
0.000186459
0.000186206
0.000422927
0.000156262
0.000149558
0.000149799
0.00014816
0.000156346
0.0423971
0.000146972
0.000149815
0.0400813
0.000149448
0.000156356
0.000147903
0.000149014
0.0411125
0.000146072
0.000152597
0.000147609
0.00014748
0.000149013
0.0244812
0.000151204
0.00888511
0.080606
0.000171726
0.0116371
0.000164006
0.000149524
0.000865563
0.0211744
0.000146475
0.000147554
0.000171904
0.00018028
0.000149211
0.00016807
0.000150318
0.000149858
0.000146845
0.00992422
0.000148547
0.000212679
0.000156388
0.000269302
0.0038857
0.000149898
0.0496313
0.00014812
0.0160291
0.000182499
0.00020141
0.000170253
0.000197646
0.000150682
0.0533028
0.000187231
0.000146111
0.000147216
0.000149435
0.000248776
0.000186289
0.000211994
0.000207339
0.00014962
0.000147564
0.0474203
0.000148444
0.0185644
0.000164209
0.000668651
0.000165588
0.000154132
0.000156861
0.000164251
0.000148518
0.000149924
0.000147392
0.000148258
0.000147821
0.000262449
0.000160155
0.000166682
0.000231039
0.000150881
0.0428483
0.000165663
0.000152442
0.0805286
0.000153655
0.000179757
0.000172105
0.000154755
0.0184247
0.000224878
0.000148049
0.0735373
0.000146227
0.0814728
0.000148508
0.00014871
0.0585727
0.00019012
0.000148282
0.000156998
0.000155063
0.000199529
0.00016186
0.0753293
0.000148776
0.000222786
0.0103127
0.000179478
0.000148274
0.000164612
0.0867753
0.000157951
0.00015095
0.0453889
0.00015037
0.00146235
0.021553
0.000181601
0.000148304
0.000147026
0.0503121
0.00024785
0.000301681
0.000172013
0.000695854
0.000167204
0.000241912
0.000181084
0.0176738
0.000164248
0.0398732
0.000175221
0.000263365
0.000148049
0.000146085
0.000187106
0.000163874
0.000260137
0.00598411
0.000170718
0.0417915
0.020278
0.000165849
0.000152432
0.000364053
0.000147698
0.000185057
0.000150849
0.000146542
0.00688893
0.000146053
0.000178334
0.000148056
0.000149624
0.000148072
0.0192711
0.0617312
0.000201431
0.000147339
0.0418595
0.000161879
0.0816062
0.00025414
0.00568787
0.000148443
0.0148636
0.000185389
0.000147469
0.000174472
0.000150792
0.000145188
0.000149238
0.000151611
0.000148207
0.000151401
0.000148439
0.000147362
0.000150685
0.000168581
0.0631873
0.000148437
0.000188715
0.0249792
0.000175587
0.00015882
0.000146213
0.000256419
0.0366901
0.00015811
0.000145333
0.000199175
0.000148248
0.000189186
0.00014809
0.0002533
0.000183856
0.000147424
0.000546841
0.000196448
0.000172605
0.000156721
0.0215528
0.00016875
0.0240032
0.0536736
0.000150558
0.000337255
0.000146891
0.000191616
0.000147761
0.0679691
0.000147271
0.000163808
0.0226986
0.00015143
0.000148064
0.0759549
0.000152196
0.0455421
0.000151141
0.000176898
0.0161897
0.000156794
0.000146821
0.0310825
0.000198157
0.000157658
0.052287
0.0173407
0.000148047
0.000201578
0.000169055
0.00015033
0.000148199
0.00017614
0.0864538
0.00924391
0.000150284
0.000150731
0.038317
0.000148549
0.00016793
0.0299376
0.0361331
0.000146716
0.000149564
0.0507937
0.0446548
0.000147452
0.000220385
0.0127487
0.00673948
0.0467169
0.000147665
0.000150308
0.000149501
0.000202246
0.000153266
0.000427651
0.000162085
0.000148278
0.000166053
0.000146769
0.000187739
0.000148042
0.0244976
0.00016506
0.000153353
0.010992
0.000167744
0.000165727
0.00028079
0.000147265
0.000175776
0.000152796
0.000253812
0.000175808
0.062025
0.000164799
0.0156948
0.000151455
0.000150382
0.000243733
0.000173916
0.000145232
0.000177911
0.000175697
0.000147692
0.000171319
0.00589603
0.000149523
0.000147331
0.000149856
0.000149213
0.0761802
0.000148541
0.000220437
0.000180864
0.0834086
0.000214774
0.000274582
0.000158538
0.000205084
0.000153956
0.000147729
0.000195011
0.000149823
0.000165192
0.0214113
0.0592992
0.000212407
0.000186116
0.000157413
0.000148082
0.00022172
0.000250022
0.000156575
0.0356698
0.000158807
0.000185953
0.000147751
0.000146758
0.000149523
0.000186019
0.000187528
0.0380136
0.0528844
0.000153852
0.00014891
0.0636
0.000149814
0.000183704
0.000146459
0.000346176
0.0460399
0.0351704
0.000171739
0.0158102
0.00585052
0.0185945
0.000145348
0.00877722
0.000147505
0.0207032
0.00073435
0.000145239
0.000153991
0.0262948
0.000149756
0.000148708
0.000145187
0.000162882
0.000256463
0.000149818
0.000153594
0.000178708
0.000147963
0.00585687
0.000165165
0.000146713
0.0274774
0.009533
0.00448395
0.000236276
0.000147189
0.0293272
0.000157085
0.000184661
0.000149298
0.000144791
0.065581
0.000165131
0.0698563
0.00019492
0.00034911
0.000148556
0.000166785
0.0202837
0.000155883
0.000554113
0.000153877
0.0511043
0.00014909
0.000178277
0.000162367
0.0201757
0.00014681
0.00015638
0.000171506
0.000147374
0.000147674
0.000166698
0.000197015
0.000210365
0.000148081
0.000148054
0.0001498
0.000150695
0.000198176
0.000146066
0.000168175
0.000216173
0.000150243
0.0169008
0.0713925
0.0253111
0.0232706
0.000460052
0.000148537
0.000164816
0.00014616
0.000159203
0.000157593
0.0176069
0.000147894
0.000163351
0.000149867
0.000148086
0.000147812
0.000148275
0.000174389
0.000149065
0.000193293
0.00908806
0.0295249
0.0376309
0.00014826
0.0175869
0.000149811
0.0180905
0.000174476
0.000157532
0.000154055
0.000146791
0.000146145
0.000149817
0.0557653
0.000161171
0.000165129
0.000183152
0.000184669
0.000147764
0.000162114
0.000214832
0.0105993
0.000162374
0.000154647
0.000148064
0.0837429
0.000278967
0.000149853
0.00014636
0.000220278
0.00014698
0.000156088
0.000247266
0.0813968
0.000149062
0.000146969
0.000158732
0.000147999
0.0782004
0.0448298
0.0805745
0.000149268
0.000145303
0.000217229
0.0281687
0.000148557
0.000148622
0.000176056
0.000148301
0.000165703
0.000149846
0.0178729
0.000148509
0.000146379
0.000157878
0.000147045
0.000162955
0.000162972
0.0455949
0.0883672
0.000160192
0.000148148
0.0157742
0.00877069
0.000218434
0.000146479
0.0219578
0.000154672
0.00014806
0.000507899
0.000162047
0.000167039
0.0504069
0.000153275
0.0205122
0.0497524
0.0159615
0.000165622
0.000153619
0.000153454
0.000154636
0.000148329
0.000184102
0.0187223
0.000147757
0.00014853
0.000178631
0.000148167
0.023561
0.0169309
0.0415946
0.000146974
0.000148831
0.000151814
0.000153777
0.000147003
0.000187746
0.000148061
0.000147362
0.043002
0.0506947
0.000162708
0.000253418
0.000252181
0.000160856
0.000237347
0.00015821
0.00016612
0.0275422
0.000201934
0.000156725
0.000170796
0.0862783
0.000146382
0.000147086
0.000149751
0.0145341
0.000156895
0.000167149
0.000148311
0.0480715
0.000210613
0.000165307
0.000186423
0.0207395
0.0147822
0.000147666
0.000147145
0.000180362
0.00132952
0.0504719
0.077623
0.000148557
0.00014687
0.0678708
0.000149197
0.000148196
0.000150305
0.000146061
0.00020036
0.000149637
0.000149561
0.000148351
0.000148371
0.0573172
0.00149361
0.000147126
0.000154522
0.043624
0.000148509
0.000152067
0.000144992
0.000153844
0.00360649
0.00078363
0.0087669
0.000167074
0.000149623
0.000147557
0.000212227
0.000209424
0.00404438
0.000216195
0.000147859
0.000147626
0.0533085
0.000253816
0.000199627
0.000220409
0.000159042
0.000147832
0.000226879
0.0131586
0.00014863
0.000147747
0.0281995
0.0284995
0.000146878
0.0649282
0.000148351
0.000148144
0.000147892
0.064708
0.000163854
0.000215126
0.0405333
0.000148047
0.000230316
0.00466353
0.0120205
0.00021526
0.000147819
0.0421729
0.000590483
0.00015568
0.0209724
0.000149723
0.000153362
0.000196107
0.000145028
0.000147462
0.00014955
0.000210726
0.000155527
0.000160522
0.000172015
0.00018863
0.000148507
0.000156972
0.000148154
0.0224408
0.0398609
0.000161653
0.000176018
0.0576453
0.000197475
0.000145865
0.059488
0.000147899
0.000147468
0.000159194
0.000152869
0.000149502
0.000393679
0.000151396
0.000154653
0.000181873
0.000214644
0.000216215
0.000144205
0.064843
0.000158439
0.000147714
0.0413464
0.000149014
0.00021249
0.000175776
0.000154737
0.0401242
0.000364352
0.000148672
0.00020877
0.000150942
0.000145292
0.0330279
0.000199353
0.000163191
0.0232204
0.0440477
0.000147112
0.000147636
0.00014853
0.000149629
0.0701016
0.000165985
0.0465891
0.0830878
0.000164947
0.00016821
0.0549353
0.000161535
0.0187408
0.0148879
0.000306345
0.000189623
0.000148922
0.000234075
0.000161722
0.000528792
0.000220116
0.000162781
0.0416623
0.00014857
0.000279314
0.000148181
0.0444662
0.000146354
0.0474995
0.000149854
0.000160402
0.000149161
0.0246018
0.000148356
0.00014779
0.000203571
0.000148042
0.000149511
0.000156846
0.000155002
0.0187175
0.000167571
0.040139
0.000146992
0.000152827
0.000207514
0.000147787
0.0186372
0.00014834
0.000230419
0.00708494
0.000145897
0.0209635
0.000148049
0.000155448
0.000148594
0.000149837
0.0206186
0.000158254
0.000147705
0.0161006
0.0498867
0.0380475
0.0215021
0.0298976
0.000210977
0.000158172
0.000147692
0.000221386
0.000258903
0.000167951
0.0113401
0.000177673
0.0167597
0.000146434
0.000154784
0.000183324
0.0487091
0.000151118
0.000148446
0.0522466
0.000220148
0.000303549
0.0274575
0.000153711
0.0737579
0.0466121
0.0474786
0.0735808
0.000158665
0.0601232
0.000227742
0.000148977
0.000166916
0.00014895
0.0323838
0.000153548
0.0433576
0.000149305
0.0232009
0.000106684
0.000152702
0.000193532
0.00996658
0.000152337
0.000148601
0.000147081
0.000149197
0.000164662
0.00014901
0.000147559
0.000180474
0.00016117
0.000167427
0.0263465
0.000201658
0.000154539
0.000155627
0.000162661
0.0522078
8.33233e-05
0.00051358
0.0546539
0.000179985
0.00326962
0.000161176
0.000190495
0.000149246
0.000156823
0.000149011
0.000145454
0.000149608
0.000148201
0.00021811
0.000217975
0.000149816
0.0212507
0.000171996
0.000143972
0.0199484
0.000147072
0.0414507
0.000157926
0.00015139
0.000149341
0.00026274
0.000155474
0.0323799
0.000148528
0.0141494
0.000190673
0.000147229
0.000149118
0.000159751
0.00014553
0.0459052
0.00733422
0.000151624
0.000159126
0.000166755
0.000189135
0.000148162
0.000179888
0.000201495
0.000146006
0.0113949
0.000147249
0.000159404
0.0518692
0.000148112
0.000149417
0.000147874
0.000178626
0.000166541
0.0193001
0.00015162
0.000136007
0.000152743
0.0001471
0.050111
0.0182485
0.0419964
0.0153423
0.000171267
0.000182519
0.0174959
0.000167276
0.000148168
0.000147748
0.0173179
0.077863
0.0412727
0.000147968
0.000149721
0.00016007
0.000147096
0.0610577
0.000151266
0.00474146
0.000156932
0.0001568
0.000148177
0.0317661
0.0561373
0.000160082
0.0101827
0.0108305
0.000146859
0.00016258
0.0157569
0.000149106
0.0384531
0.000184902
0.000148856
0.000154602
0.00014743
0.0701426
0.0639244
2.59985e-05
0.000159833
0.000180051
0.0349029
0.000183505
0.000145211
0.0489668
0.000150358
0.000148034
0.00204524
0.000162136
0.000159132
0.00501995
0.000149154
0.000153285
0.000148551
0.000147565
0.0495799
0.0232309
0.0001482
0.00015917
0.000207268
0.000242174
0.0417559
0.0239167
0.000212645
0.016507
0.000148179
0.0171755
0.000154865
0.00014817
0.000201151
0.000145943
0.000207294
0.000198947
0.000167585
0.00014506
0.0470175
0.000165565
0.000160257
0.000152128
0.000397091
0.00016549
0.000148546
0.0433269
0.000153626
0.000154796
0.000180383
0.0146876
0.000148061
0.000149143
0.000149864
0.00015857
0.000151578
0.00028939
0.0120555
0.000165111
0.000148786
0.000185373
0.000162698
0.000154863
0.000251979
0.0141347
0.0187934
0.000147931
0.0220051
0.000272437
0.000158102
0.000147802
0.000146416
0.000148842
0.0327984
0.000149057
0.000143881
0.00014644
0.000166685
0.0258103
0.000170271
0.000149817
0.000197232
0.000163052
0.00731377
0.000145813
0.000233416
0.000151379
0.000145015
0.00015009
0.000169682
0.000171132
0.02112
0.000239061
0.000146638
0.0174362
0.000149851
0.000149854
0.00438327
0.000204391
0.00014882
0.0373281
0.000157346
0.000272386
0.0628668
0.000189121
0.000150446
0.000148181
0.0173602
0.000146158
0.000152038
0.000159328
0.000147202
0.00174035
0.000157934
0.000150426
0.00387973
0.0794393
0.000184449
0.000205094
0.000223604
0.000148161
0.047252
0.000152351
0.000149795
0.000184035
0.000159801
0.000172624
0.000200319
0.0797861
0.000169418
0.000148768
0.0202067
0.000170884
0.0516792
0.000149257
0.000207837
0.000148316
0.000147532
0.0660222
0.000163742
0.0532515
0.000144348
0.000151828
0.000197148
0.0537362
0.047391