/*--------------------------------*- C++ -*----------------------------------*\
| =========                 |                                                 |
| \\      /  F ield         | OpenFOAM: The Open Source CFD Toolbox           |
|  \\    /   O peration     | Version:  v2012                                 |
|   \\  /    A nd           | Website:  www.openfoam.com                      |
|    \\/     M anipulation  |                                                 |
\*---------------------------------------------------------------------------*/
FoamFile
{
    version     2.0;
    format      ascii;
    class       volScalarField;
    location    "200";
    object      nut;
}
// * * * * * * * * * * * * * * * * * * * * * * * * * * * * * * * * * * * * * //

dimensions      [0 2 -1 0 0 0 0];


internalField   nonuniform List<scalar> 
37809
(
7.06776e-05
0.00261612
0.00583574
0.00126869
0.0128101
0.00150345
3.97304e-05
5.47883e-05
0.000170623
0.00121268
0.000294958
0.00408864
0.000618524
0.000619806
0.00152566
0.000720021
0.00583201
0.0105945
0.00254684
5.10741e-05
9.6736e-05
0.000100211
0.0112773
0.00583129
0.000116297
0.00277707
0.000331495
0.00179922
0.00583548
4.29613e-05
0.000694206
0.00245951
0.00583128
2.63709e-05
0.00468911
0.0058321
0.00587043
0.00168711
0.00080151
0.000255884
0.0103464
0.00162479
0.00292926
0.00127016
0.00439539
0.00170786
0.00137386
0.00713668
0.000325532
0.000230206
0.00324209
0.00583771
0.00583114
0.00186368
0.00254649
0.00583101
0.000336057
0.00172811
0.000839977
0.000144419
0.00299825
0.000816627
0.000610417
0.000634119
0.000724981
0.000119908
0.00294118
0.00240477
0.00257046
0.00187845
0.00109789
0.000172698
0.00332472
0.000651986
0.00186229
0.00585964
0.000283919
9.39445e-05
8.52236e-05
0.000478631
0.00583889
0.0058356
0.00681202
0.00119915
0.00437163
0.00178302
0.00107295
0.000141474
0.00113888
0.000270703
0.00138464
0.00164218
7.07874e-05
0.00809165
0.00102779
0.00814318
0.00315402
0.00326551
0.00203296
0.00585201
0.000841478
0.00306273
0.000651036
0.00975484
0.000755453
0.00583476
4.27853e-05
0.000789753
0.000109314
0.00410779
5.9166e-05
0.00128633
4.93569e-05
0.000846152
0.000382321
0.000849578
0.00198661
0.00350672
0.000708927
0.0033658
0.00583614
0.00228548
0.000799965
0.0113892
0.00149951
0.00208977
0.00125485
0.0029042
0.000284979
0.00251305
0.000658394
0.00115957
0.00185089
0.00583274
0.000506966
0.00588754
0.00347094
0.000825327
0.000488862
0.000721267
0.00494884
0.00207703
0.000200354
0.0105542
0.00325265
0.00262021
0.00141377
0.000931271
0.00689845
0.00593185
0.00180761
0.00274272
0.00165455
0.000661304
0.000394259
0.00594637
0.000927477
0.000720898
0.00177115
0.000284845
0.000286843
0.00102035
2.30778e-05
0.00339642
0.000995779
0.0058382
0.00583515
0.00286371
0.000775645
0.000400101
0.000593983
0.00583449
0.00579167
0.00146175
0.00264485
0.000570241
0.000697266
0.000279694
0.0130641
0.000112621
0.00342439
0.00236807
0.00583126
0.00175748
0.00585169
0.00064374
0.00235139
0.0011583
9.27545e-05
0.000354917
0.000241753
0.00314847
0.00248427
0.00180428
0.000238522
3.16915e-05
0.00467108
0.0058309
0.00583053
0.000866026
0.00017197
0.000297602
0.00238558
0.000117627
0.00281622
0.00585193
0.00134537
9.21364e-05
0.00583609
0.00155188
9.29108e-05
0.00257031
0.00582956
0.00375284
0.0058417
0.000196753
9.87311e-05
0.0053935
0.00582962
0.00121095
0.00815889
5.62899e-05
0.0017111
0.00223353
0.00583863
0.0119252
0.0128552
0.00129946
0.000369721
0.000504753
0.00179861
4.45576e-05
0.000650091
0.000912453
0.000477682
0.000196082
0.00583112
0.0125741
0.00112639
0.000254751
0.0085331
0.0058343
0.000258477
0.00109262
0.00450184
0.00583674
0.00583588
0.00582705
0.000433016
0.00585411
0.00583349
0.0058314
0.00583349
0.0135898
0.00307378
0.00277373
0.0058302
0.00583487
2.09392e-05
0.00641735
0.000567969
0.00243483
0.000286558
0.00222915
0.0017174
0.000104588
0.00138982
0.000774772
0.00430894
3.49591e-05
0.00188274
0.00584215
0.0116444
0.000207261
0.00583138
0.000230824
2.55563e-05
0.00583328
2.1119e-05
0.00583484
0.00338804
0.000963484
0.000775722
0.00583123
0.00142326
0.00583703
0.00350362
0.00583249
0.00289598
0.00302636
0.0058344
0.00105298
0.000130572
0.00583093
0.00325195
0.00113448
0.0011864
0.00093344
0.00282851
7.03723e-06
0.00113492
0.00142436
0.0058601
0.00078929
0.000736207
0.00112258
0.00583564
0.000903665
0.00957078
0.00583386
0.00166501
0.0136511
0.00161536
0.000182247
0.00583605
0.0123555
0.000772137
0.00248164
4.05784e-05
0.000192604
0.000505123
5.61711e-05
0.000182751
0.000949149
0.000811554
9.3642e-05
0.000690378
0.00448068
0.00583566
0.000904409
0.00583125
0.00589951
0.00348619
0.000690577
0.00583454
0.00583285
0.00154419
0.00253826
0.0058317
0.000383664
0.00584005
0.000625537
2.05425e-05
0.00177783
0.000928556
0.000849179
7.00362e-06
0.00583329
0.00195233
0.00156667
5.32628e-05
4.22268e-05
0.00407152
0.00226482
0.000770631
0.00137027
0.00585436
0.00120943
0.00474126
0.0101436
0.000952176
0.000703585
0.00268394
0.00295222
0.00591474
0.0113705
0.000155564
0.000594566
0.00131606
0.00583361
0.000589755
7.24966e-05
0.00147858
0.000181118
0.000343697
0.00583946
0.00113233
0.00585662
0.00189557
1.73341e-05
0.0034044
0.000803478
0.00267966
0.000843633
5.78778e-05
0.000488923
0.00104107
0.000241993
3.9372e-05
0.00583812
0.00583454
0.00257548
0.00583575
0.00216653
0.000544325
0.00132204
0.00306254
4.03485e-05
0.00095889
0.00583577
0.0125235
0.00159323
0.00583743
0.00291752
0.00589748
7.38679e-05
0.00583381
0.0124151
0.00769035
0.00724729
0.000100756
0.000928696
0.000264827
0.00171021
0.00586243
0.000121157
4.08026e-05
0.00063041
0.00583602
0.00583121
0.0113487
0.000746899
4.70953e-05
0.000828437
0.00583246
0.0129211
0.002168
0.000272159
0.000352248
3.53967e-05
0.00546446
0.000126372
0.00110814
0.000858511
0.011544
0.0017736
0.00211614
0.0113037
0.000440731
0.00583114
0.00121653
9.11232e-05
0.000544077
0.00144891
0.00583458
0.00510639
0.00780729
0.000455245
0.00128128
0.00105574
0.000972906
0.00583951
0.00083883
0.00583501
0.00287295
0.00583104
0.00586993
0.00583121
0.00215863
0.00531335
0.00174847
0.000622546
0.000226438
0.000377553
0.00240194
0.0022155
0.00238881
0.000325915
0.00745806
0.00583525
0.000958625
0.00557822
0.00583327
0.00420413
0.00166173
0.00584006
0.00029192
0.00230546
0.00174682
0.00583479
0.00583383
0.00521705
0.000975635
0.00585673
0.000885019
0.00583465
0.000953649
0.000871371
0.00897435
0.00324499
0.00313448
0.00162245
0.0019786
0.00324606
0.000396058
0.0085178
0.00582726
0.0010269
0.000458245
0.000419196
8.02655e-05
0.000605335
0.0116881
0.00366828
0.000659597
0.000422283
0.000893008
0.00178128
0.00255093
0.00248053
0.00586052
0.00583992
0.0131046
0.000432702
0.00251904
0.000228504
0.000498971
0.00162796
5.13845e-05
0.000589733
0.00061587
0.00047205
0.00583342
0.00103194
0.00247213
0.000993391
0.000623024
0.0133347
0.00013246
0.000807022
0.000884017
0.0011423
0.000519617
0.000169943
0.00583599
0.00583972
0.0042877
0.0034701
0.00583574
0.0058325
0.000275154
0.00103606
0.00879619
0.00102379
0.000336318
0.00208945
0.00329542
0.000390997
0.00147279
0.00583611
0.000930671
0.00128805
0.00583325
0.000258964
0.00632162
0.000956465
0.00583385
0.000108644
2.8623e-05
0.000284303
8.50369e-05
0.00218668
0.000970679
0.00583881
0.00130495
0.00163317
0.000440952
0.0025082
0.00923926
0.000821814
0.00583607
0.00111729
0.00443009
0.00177369
0.00540641
0.00583482
0.00955699
0.00158235
0.00583733
0.0058372
0.000673275
0.000241616
9.27499e-05
0.00105008
0.00164674
0.00268971
0.0131298
0.000656388
0.00186082
0.0128057
0.00348975
0.00583149
0.000958853
0.0013861
0.00216923
0.00583494
0.00583769
0.0076877
0.0014609
0.00583312
0.00255415
0.00583613
0.00257157
0.00034202
2.46691e-05
0.00222803
0.0019199
0.00150787
0.000260914
0.000573239
0.00583061
0.00226949
0.00349343
0.00132303
0.00273905
0.00148639
0.00224259
0.0146482
4.9892e-05
5.53854e-05
0.00583342
0.0129521
0.0108734
0.000989912
0.00166582
0.00144194
0.00168562
0.00583149
0.00426745
0.00500631
0.000404804
0.0103718
0.00140818
0.00965399
0.00583461
0.00483411
0.00110045
0.000718822
0.00535137
0.007901
0.000685658
0.00143849
4.36818e-05
0.000186325
0.00229271
8.71727e-05
0.000734381
0.00465031
0.00583843
0.00180846
0.00245262
0.000267686
0.0107413
0.00426003
0.000112529
0.000479935
0.00897843
0.00119147
0.00779971
0.000387681
2.15191e-05
0.00255157
0.00583253
0.000285957
0.00347696
0.00135928
5.20214e-05
0.000295454
0.00161916
0.000795864
0.00238243
0.0149444
0.000364808
0.00583463
0.00150687
0.00583901
0.000864593
0.00429612
0.00592303
0.00074784
0.000846494
0.0114985
0.00124876
0.00583586
0.00663161
0.000170314
0.00920129
0.00290653
0.00184791
0.00274598
0.000666122
0.00036986
0.00211381
0.000111131
0.0045576
0.00254412
0.00251549
0.00349874
0.00500071
0.000629746
0.0137971
0.0149709
0.0044392
0.00583182
0.00223997
0.000717525
0.000407771
0.000256266
0.00152316
0.00179295
0.00106628
0.00102945
0.0110671
0.000258119
0.000628134
0.00666202
0.0012481
0.000268104
0.0012989
0.00118361
0.0019213
0.0111051
0.000328952
0.0010658
0.000399424
0.000409147
0.00036589
0.000831721
0.000254763
0.000809523
0.000308353
0.00218991
0.00167734
0.00193019
0.0022581
0.00435119
0.00194856
0.00315043
0.00178213
0.000714672
2.25448e-05
0.00212911
0.00416101
0.000244576
0.00657312
0.00583462
0.000710973
0.000109342
0.000831107
0.00583574
0.00203056
0.00226635
0.000815491
0.00108101
0.00400763
0.00583285
0.00157825
0.0143383
9.38139e-05
0.000476804
0.00583562
0.00583137
0.000346783
0.00583504
0.00583517
0.000826762
0.0137804
0.00075298
0.00638881
0.00583214
0.000786084
7.67693e-05
0.0132115
0.000113405
0.000321528
0.000339822
1.04982e-05
0.00586728
0.0058313
0.0101709
9.55085e-05
0.000399625
0.000348167
0.0125829
0.00214282
3.82545e-05
0.00185524
0.000649423
0.00728483
0.000860679
0.00897617
0.000216448
0.000194998
0.00142409
0.000141224
0.00026122
0.00107445
0.00328088
0.00393176
6.42215e-05
0.000910822
0.00583097
0.00262197
0.00583773
0.00133503
0.00589939
0.00033804
0.00442718
0.0002652
0.000616675
0.000406702
0.00583741
0.0114793
4.81966e-05
0.0058316
0.00260031
0.0071476
0.000775228
0.00116761
0.00128878
0.00159492
0.000661415
0.00584952
0.00101838
0.014847
0.0146961
0.0114371
9.36492e-05
0.000341312
0.000110381
0.000151905
0.000891613
0.00901246
0.00257777
0.000480819
0.005836
0.000729265
4.76861e-05
0.00219782
0.00468367
0.00315898
0.000316317
0.00583484
8.93758e-05
0.00282906
0.000198158
0.00227536
0.00341489
0.000626763
0.0104725
0.00583726
0.000320486
0.000348789
0.00582934
0.000475464
0.0143777
0.00129642
0.00164831
0.000667277
0.000828919
0.00121754
0.000650622
0.00583261
0.000258078
0.00584916
0.00583482
0.00583078
0.000956756
0.000624806
0.00183724
0.00583538
0.00169527
0.00586965
5.11067e-05
4.02868e-05
0.00100977
0.000796459
0.00239402
0.00583127
0.000112067
0.00583449
0.00208775
0.00583565
0.00179741
0.00844521
0.000501398
0.00027879
0.00268281
0.00129673
0.000203612
0.00885913
0.00583344
0.000518241
0.00197313
0.0025394
0.00583576
0.00161837
0.00220548
0.000155913
0.000486786
0.000625938
9.50201e-05
0.000413207
0.00509979
0.00385532
0.00583056
0.00120385
0.000974809
0.00190004
6.16795e-05
0.000905687
0.000266878
8.93307e-05
0.00598489
0.000435576
0.00583391
0.00156463
0.0134922
0.000835183
0.00126616
0.000951708
0.00217269
0.000620415
0.00070087
0.000472994
0.00107243
0.00705662
0.00583345
4.51692e-05
0.00577696
0.000396499
0.000774106
0.00332332
0.000643729
6.89971e-05
0.000340366
0.000130697
0.00586491
0.000536805
0.00080073
0.000470074
0.00582918
0.00186446
0.00452555
0.000232027
0.00582905
0.000608027
1.86405e-05
0.000629409
0.000877209
0.00276114
0.000516821
0.00583565
0.000256994
0.000755519
3.66567e-05
0.00155212
0.00103972
0.000273433
0.00584124
0.00583537
0.00124331
0.00584161
0.00583878
0.0016441
0.000991324
0.000129589
0.00044521
0.0058455
0.00587195
0.00586395
0.00119158
0.00254207
0.000948129
0.00430068
0.00586715
0.00302349
0.00419116
0.00151787
2.57114e-05
0.00100333
0.0013574
0.000140443
0.00377407
0.0124762
0.00583313
0.000974533
0.000776051
0.00336923
4.70576e-05
0.000248486
0.00583196
0.00333779
0.00161459
0.0019381
0.0016142
0.00845295
0.000545219
0.00238267
0.00429104
0.000100366
0.000145285
0.0029226
0.0058309
0.00179588
0.00537276
0.00141455
0.00140114
2.71538e-05
0.0147239
0.00583613
0.000452252
0.00109958
0.0129364
0.000245534
0.00101541
0.000335187
0.00584131
0.000932438
0.00545448
0.00584206
0.00445806
0.00249649
0.00157327
0.00584089
0.000228641
0.000637607
0.00584172
0.00583601
0.000176831
0.00783274
0.000806279
0.000336975
0.00363889
5.59806e-05
7.36839e-05
0.00583702
0.00070338
0.000150495
0.00100495
0.00894578
0.000307718
0.00269713
0.00054473
4.36227e-05
0.00115701
0.000201542
0.00130112
0.000533471
0.000511737
0.00583626
0.000354426
0.000413438
0.000467249
0.00511964
0.00289368
0.00105837
3.18143e-05
0.00150496
0.00585698
0.00583612
0.00583963
0.00583191
0.0058347
0.000798248
0.0028682
0.000375772
0.00168229
0.000384497
0.000428225
0.00494256
0.0131292
0.000365988
0.00135871
0.00161812
0.0016278
4.24421e-05
0.00100833
0.000222474
0.00583638
0.0110866
0.00583124
0.000221597
0.000204311
0.000944911
0.000272712
4.71345e-05
0.00584018
0.00285782
0.00339925
0.00196221
0.004116
0.00107622
0.000556833
0.000390953
0.000390497
0.00583187
0.00583334
0.00520616
0.00488151
0.00244976
0.00521304
0.00145406
0.0058383
0.00592334
0.00597326
0.000350684
0.00872899
0.00583602
0.00583453
0.000688979
0.00216959
0.00126254
0.00583552
0.00904423
0.00583542
0.00583742
0.0011124
0.000188639
0.000303007
0.000405125
0.0012336
0.00379112
0.00131016
5.66737e-05
0.0058321
0.00250172
0.00437769
0.0135169
0.00132224
0.00184078
0.00159783
0.00104218
5.88372e-05
0.000362313
0.00583247
0.000552459
0.00173172
0.000964981
0.000775066
4.8271e-05
0.000187793
0.000716521
3.3137e-05
0.0137296
0.000250884
0.00341454
0.000717086
0.00230216
0.000821042
4.05127e-05
0.00142964
0.000105192
0.000353325
0.00137435
0.00278848
0.00582962
0.00378187
0.000250946
0.00192105
0.00193573
0.00583533
0.00214674
0.00162323
0.00057134
0.0075057
0.000429202
0.00583152
0.00583298
0.000907403
0.00445949
0.00582768
0.0146849
0.00155529
0.00771455
0.00186864
0.000459755
0.00296019
0.00142143
0.000562091
0.000538633
0.000578988
0.00585078
0.00767133
0.00110435
0.00586726
0.000502272
0.00380546
0.00605141
0.00191902
0.0123354
0.00721805
0.000246757
4.33994e-05
0.000409973
0.000771726
0.00583266
0.000760234
0.00122689
0.00319951
0.00583375
0.00214732
4.9531e-05
0.000840377
0.0015673
0.000256368
0.00582744
0.00583417
0.003506
0.00583291
3.68649e-05
0.000140171
0.00436992
0.00404314
0.000408005
0.000442407
0.0058356
0.000287367
9.6264e-05
0.00583383
0.000621922
0.00431333
0.00630349
0.000151409
0.00176166
0.00583348
0.000682817
0.00136676
0.00755643
0.0132307
0.00213493
0.00132716
0.00109766
0.000192309
9.90851e-05
0.00138172
0.01239
0.00362853
0.00153834
0.000497579
0.00585556
0.00212293
0.00050919
0.00583597
0.00222727
0.000862485
3.50168e-05
0.0030855
0.00583413
0.0087785
0.00583461
0.00551846
0.00283869
0.00111315
5.97345e-05
0.00583279
0.000851498
0.0120539
0.000491018
0.00583247
0.00136434
0.00118079
0.00741799
0.00130082
0.000511346
0.00583413
0.00261967
0.00582971
0.00728882
0.00024931
0.000652738
0.0145558
0.00583724
0.00583609
0.000440766
0.00583262
0.000585778
0.00162255
0.00201595
0.00244616
0.000260606
0.00733996
0.0025284
0.00583077
0.0011383
0.000542579
0.000758882
0.00583574
0.00161935
0.00054673
0.000703333
0.000246346
0.00153748
0.00583273
0.00543226
0.0131756
0.00571372
0.00246348
0.000510211
0.000314589
0.0107699
0.005862
0.000104575
0.00917936
4.58831e-05
0.00592471
0.000223454
0.00587468
0.00583323
0.00584286
0.00454506
0.00123761
0.000360005
0.000492048
0.00710342
0.00462401
0.00583014
0.00851748
0.000465265
0.00185026
0.00844218
0.00398748
0.0103673
0.00583154
0.00161474
0.00219499
0.000452364
0.00189651
0.0011315
0.00325811
0.00583346
0.00582984
0.00105582
0.000233736
0.000653486
0.00583251
0.00309028
0.000384806
0.00239985
0.0121094
0.00130473
6.86466e-05
0.00149523
7.18796e-05
0.00583172
0.00210987
0.00276467
7.49009e-05
0.0116718
0.00101921
0.000450427
0.00116421
0.00135584
0.00587895
0.000525239
0.00583789
0.00119609
5.71477e-05
0.0058354
0.00583248
0.00155046
0.00256965
0.00583477
0.0058345
0.00583518
0.005834
0.00480037
0.00753751
0.000808964
0.0059228
0.001858
8.19781e-05
0.00583848
0.000749143
0.00583524
0.00583623
0.00271784
0.00169308
0.000770554
0.00215245
0.000917734
0.00583535
0.0014325
0.000932944
0.000882021
3.55303e-05
0.00112186
0.00152046
0.00583008
0.0058353
0.00584243
4.00815e-05
0.00582974
0.00583335
0.0112005
0.00165995
0.000684306
0.00582936
0.00158721
0.000183414
0.00230628
0.00261833
0.00066632
4.86857e-05
0.00583219
0.000501417
0.00128394
0.00138318
0.00257807
0.00873859
0.00555243
0.000102862
5.71698e-05
0.000342345
0.00145658
0.00213924
0.00975631
0.00343471
0.00741655
0.00248712
0.014649
0.00583577
3.27153e-05
0.00562504
0.00583641
0.0128144
0.00583573
0.00212063
0.0112599
0.00582937
0.00144768
8.41567e-05
0.00567159
0.00157679
0.00203442
0.00016018
0.00583495
0.00260167
0.000201935
0.000319257
0.00748748
0.00583307
0.00448303
0.00454798
0.000312279
0.00538235
0.000611843
0.00469195
0.00130063
0.00583176
0.0136008
0.000945768
0.00711915
0.00571667
0.000126233
0.000219512
8.78532e-05
0.00118009
0.00745524
0.00583459
0.00583321
0.000147704
0.00583373
0.000167239
0.000984546
0.00171996
4.01744e-05
0.00105317
0.00131463
0.0122289
0.000647838
0.00583281
0.000800621
2.40599e-05
0.00248667
0.00177562
0.00583489
0.00951977
0.00583826
0.010356
0.00502782
0.000285622
0.0019936
3.68859e-05
0.000844479
0.00113215
9.85927e-05
0.00583468
0.000355537
0.00209525
0.00587497
0.00116009
0.00583158
0.00583604
0.00959934
0.00482502
0.0128836
0.00330921
0.00583237
0.00583441
0.000631046
0.000735727
0.00583821
0.000691856
0.00583871
0.0058324
0.000602983
0.000896798
0.00185758
0.000197129
2.06588e-05
0.000390787
0.00583526
0.00583605
0.0058356
0.00247103
0.00958225
0.00584842
0.00143292
0.00762554
0.00583507
0.000365513
0.0058358
0.00583382
0.00921653
0.00584872
0.000889036
0.0058347
0.00584052
0.00583382
0.00293549
0.00173457
0.000326966
0.0123513
0.000440043
0.00112775
0.00149669
0.00583516
0.000286954
0.00257294
0.00584452
0.00583484
0.00042526
0.000736481
0.00185368
7.49722e-05
0.00290748
0.00583614
0.00583941
0.00119797
0.00583329
0.000632379
0.000746062
2.71905e-05
0.000642537
0.00144092
0.0118489
0.00583184
0.00142485
4.19253e-05
0.000498797
0.000288239
0.000863783
0.00128194
0.00528995
0.00189858
0.00583926
0.00554517
0.00172582
0.000784279
0.00105975
0.000829689
0.000281261
0.00583565
0.00421055
0.0113745
0.00276905
0.0016697
0.000291158
2.74244e-05
9.98062e-05
0.00099415
0.000787368
0.000508826
0.00583325
0.00196402
0.00583271
0.00583279
0.00583693
3.82122e-05
0.000322396
8.66032e-05
0.000578552
0.0020665
0.00985641
9.2412e-05
0.00107133
0.0116582
0.00254577
4.34598e-05
5.65971e-05
0.000729131
0.00455434
0.000116805
0.00583278
0.0115667
0.00582961
0.0141937
0.00583313
0.00245069
0.00930053
0.00160341
0.00340219
0.000813265
0.00163029
3.66888e-05
0.000306985
0.0152263
0.00213921
0.000669811
0.000424223
0.0017731
0.00280664
0.000348595
0.0102379
0.000293036
0.00107301
0.0122605
0.00294902
0.000100474
0.00350059
0.00195458
0.00288658
0.00585203
0.00532803
0.000766197
0.000228237
0.00143661
9.26788e-05
0.000867357
0.000206851
0.0014159
0.00305358
0.000336968
0.00200718
4.89548e-05
3.85855e-05
0.00583668
0.00582934
0.000297192
0.00033474
4.46244e-05
9.68024e-05
0.00034934
0.00167357
0.00199326
0.00156754
0.00107355
0.000230588
0.00496967
0.0006871
0.001086
0.00587285
0.000134285
0.00582946
0.000564816
0.00583747
0.00583565
0.00492568
0.00193275
0.0144392
3.70126e-05
0.00584519
0.00969425
0.000290799
0.00883408
0.000753726
0.000840095
0.00280941
0.0013544
0.000145659
0.00494261
0.000430364
0.00111095
0.00586011
0.00583468
0.000995405
0.00583397
0.00103771
0.00268624
0.00583796
0.00129576
0.000796138
0.0129438
0.00292608
0.00113657
0.004556
5.4935e-05
0.000962351
0.00582961
0.000748503
0.00732274
0.00194196
0.005861
0.00079665
0.00282511
0.00151247
0.00300557
0.000682978
0.000511753
0.0046866
4.36083e-05
3.84667e-05
0.00145386
0.000734814
0.00225065
7.44308e-05
0.00350514
0.00730892
0.00115459
2.25216e-05
0.00582954
0.00203876
0.00409588
0.0149657
0.00583439
0.00140894
0.00254962
0.00111629
0.00583956
0.0133083
0.00110673
0.0133035
0.00111224
0.000297503
0.00399949
0.000335516
0.0058308
0.00542946
3.36841e-05
0.00173464
0.0124787
0.00172896
0.00583856
0.000483509
0.000281915
0.00120851
0.00583457
0.000268284
0.00922958
0.00130135
0.00134553
0.00104744
0.00372484
0.00583331
0.000436882
0.00314931
0.00741124
0.00582968
0.00583535
0.0121957
0.0132045
0.00583247
0.00102143
0.00100842
0.00202107
0.00629056
0.00583601
0.00120707
0.0058352
0.000595273
0.000619897
2.54317e-05
0.000157438
0.00583288
0.000101191
0.00582938
0.000358325
0.00583708
0.00417022
0.000158434
0.00157827
0.00106069
0.000402369
9.75827e-05
2.15702e-05
0.00583433
4.88629e-05
0.000988792
0.000726489
0.00023567
0.0144375
0.000155247
0.00151762
0.000918231
0.00186563
0.00079704
0.000268228
0.00582935
0.000286541
7.68204e-05
0.0042694
0.000337483
0.000595941
0.00583521
0.00584466
0.00583614
0.00583458
0.0122168
0.00583323
0.000477656
4.38597e-05
0.0105046
0.00112712
3.8887e-05
0.00055821
0.000281719
0.000607774
0.00583065
0.00186105
0.00139687
0.000117051
0.00372736
0.0116329
0.00115392
0.00120738
0.000994776
0.00345246
0.000612457
0.000773766
0.000736524
0.0105068
0.000544881
0.000225366
0.00583065
0.00584044
0.00583527
0.000863151
0.000343376
0.00801177
0.00715445
0.000736203
0.0028395
0.0132994
0.00583601
0.000194106
0.00585589
2.03296e-05
0.0014909
0.00678091
6.20524e-05
0.00125422
0.000167605
0.00166752
0.00582959
0.000372159
0.00491977
0.00279944
0.000362288
0.00582906
0.000555448
0.00633476
0.00583581
0.00583269
0.00583379
0.000137113
0.000189686
0.00583601
0.00242152
4.3036e-05
0.00583249
0.000187614
0.000105986
0.00583072
0.00406664
0.000337796
0.0011002
0.000800186
0.00509191
0.00584929
0.000560956
0.000413153
0.00590453
0.00583289
0.0148563
0.000176323
0.00967136
0.000453866
2.5757e-05
0.00583341
0.000400218
0.0025459
0.000407977
5.6611e-05
0.0025333
0.00981179
0.00583418
0.000559122
0.000443635
0.00242236
0.00582955
0.00165206
0.00166863
0.00583407
0.00583536
8.90882e-05
0.000411762
0.00122212
0.00550179
0.00583858
0.00197909
0.00117002
3.85401e-05
0.00584917
0.000805449
0.0011003
0.00285812
0.00158873
0.0137242
0.00593223
0.00276311
3.1787e-05
0.00583323
0.000112042
0.00586936
0.0010769
0.000356358
0.00145272
0.00583246
0.000179248
0.00136253
0.00533748
0.00583655
0.00295588
0.000439345
0.00195347
0.00197126
0.000408147
0.0064316
0.00511233
0.00583245
0.00207326
0.0014371
0.00151498
0.000436454
0.00103281
0.000541334
0.00583073
0.00586948
0.00583607
0.0139394
0.000321754
0.00132894
0.000116934
0.000421002
0.00576028
0.00151665
0.00112664
0.00284704
0.00601106
0.00256306
0.0058387
0.0074454
3.80827e-05
0.00136792
0.00583159
0.000624012
0.00583777
0.000366231
4.01542e-05
0.0139302
0.00583409
0.0058384
0.0010946
0.00583244
0.0149034
0.011241
0.0139939
0.00208144
0.00583795
0.00107482
0.0060136
0.0058334
0.00590914
0.000242389
0.00583177
0.000106039
0.00583611
0.00155523
0.00583319
0.00587965
0.000307267
0.00565683
0.000140481
0.000183273
0.0107094
0.00885425
0.000969428
0.00583404
0.00154053
0.000829287
0.000614211
0.00589478
0.00243801
0.000567548
0.00584114
6.73806e-05
0.00043794
9.62718e-05
0.0037193
0.000619729
0.00256621
0.0101797
0.00142742
9.79496e-05
0.000800913
0.000995906
0.000484645
0.00583183
0.000219611
0.00183532
0.00583534
0.00583346
0.000553509
0.00583396
0.0027921
0.001861
0.0114597
0.00584386
0.00316946
0.000831584
0.000692331
0.0058527
4.55035e-05
0.00584003
0.00583416
0.0115343
0.0119668
0.000130746
0.000678376
0.000751487
0.000317896
0.000132152
0.000931505
0.000334177
0.00662374
0.000709851
0.000960318
6.28442e-05
0.0097534
0.0058789
0.00583479
0.00583589
0.000783889
0.000347041
0.000408167
0.00333372
0.0129849
0.00100876
0.000102397
0.000859873
0.00211665
0.00176575
0.00584175
0.00536682
0.00171295
0.000368541
0.0106145
0.0139617
0.00583344
0.00582958
0.0122588
0.00185724
0.00583451
0.00192973
0.00582917
0.000449326
0.00583549
0.00583539
0.0030947
0.00324681
0.00889839
0.000560827
0.00555809
0.000524607
0.0100923
0.00260663
0.00111785
0.00582921
0.000770086
0.000502705
0.000388034
0.00138957
0.000401229
0.00583557
0.00430263
0.000218774
0.000928809
0.00031366
0.0010492
0.00362524
0.00584166
0.00857315
0.000212812
0.000439924
2.81953e-05
0.000256162
0.00583804
0.000145215
0.0022517
0.00316889
0.00559881
0.004347
0.0062997
0.00582936
0.0130276
0.0030376
0.00462426
0.0058318
0.0129373
0.000339241
0.000756126
0.00428927
0.00583185
4.47072e-05
0.000707238
0.00239834
0.000604019
0.00583089
0.0120905
4.20494e-05
0.0019256
0.0022542
0.00583571
0.000614371
0.000457153
0.00582933
0.00583267
0.00199988
0.000419469
0.00198173
0.000197102
5.63418e-05
0.00154417
0.00583317
0.000327916
0.00441372
0.0028331
0.0108434
0.00157147
0.000249919
0.00692266
4.05454e-05
0.00583307
0.0123572
0.00354943
0.00460617
0.000289384
0.000681273
0.0058351
4.056e-05
0.00261094
0.000487922
0.0017132
0.00107792
0.00105066
0.0058353
0.0128257
0.000286719
0.00584051
0.00878231
0.00583382
0.00115133
4.88255e-05
0.000486037
0.0114415
4.22866e-05
0.00258875
0.000484491
0.00247206
0.00586279
0.00593932
0.000787936
0.00012998
0.002857
0.0113457
0.0058349
0.00584238
0.00583339
0.00583564
0.00991837
0.000203913
0.0110355
0.0111533
0.000352267
0.000985594
0.012205
0.000295856
0.00222379
0.00300573
2.47963e-05
0.00197091
0.00583368
0.000567936
0.000149895
5.57579e-05
3.02806e-05
0.000160713
0.0095839
0.00245885
3.16955e-05
0.00583467
0.010432
0.00583462
0.0102073
0.00583617
0.00165232
0.00269654
0.00418071
0.00313828
0.00583093
0.000495909
0.00583654
0.00202067
0.00167349
0.000673273
0.00191271
0.00101008
0.00218294
0.0058439
0.000738041
0.00129618
0.00583514
0.00240272
0.00343511
0.000488586
0.000254507
0.0058336
0.00275328
0.00583869
0.000520051
0.00315953
0.00145614
0.00261656
0.000351573
0.00584093
0.00153975
0.0112148
0.0107575
0.00351038
0.00641666
0.00118323
0.00037489
0.00444319
2.70249e-05
0.000735424
0.00148176
0.00245728
0.000112734
0.00175226
0.00589446
0.00128853
0.00107095
0.0116975
0.00101743
0.00283239
0.012214
3.15565e-05
0.000298264
0.00538948
0.00100709
0.0105554
0.0109463
0.0102133
0.0109138
0.000961989
0.012292
0.000563555
0.00583372
0.000395908
0.00583378
0.00544901
0.00066356
0.00982623
0.00583469
0.00433783
9.61602e-05
0.000772946
0.00100042
0.000371401
0.00246121
0.00583344
0.00583199
0.00201346
0.000106609
0.0058338
0.0046908
0.000737462
0.000307703
0.00176061
0.00404501
0.00153319
0.000734216
0.000727493
0.000132457
0.0125847
9.86617e-05
5.62476e-05
0.0121988
0.00176441
0.000488129
0.00599159
4.17205e-05
0.00583467
0.00160706
0.00583398
0.00586886
0.00583553
0.00583497
0.000726372
0.000737312
0.00583601
0.00274341
0.00129767
0.00583986
0.00182102
0.00563728
0.00933515
0.000824496
0.0018048
0.00583477
3.80076e-05
0.000465055
0.00615093
0.00583339
0.00357542
0.00189015
0.00583214
0.00195251
0.000403193
0.00586525
0.010808
0.000180092
0.00317024
0.000242093
0.00152789
0.00103336
0.0058357
0.000188602
0.00148866
0.00585011
0.00105913
0.00583209
0.001227
0.0120631
0.00331855
0.00172792
0.00583556
0.00176505
0.000192712
0.00197726
0.000880773
0.000510291
0.000706521
0.00583195
0.0120169
0.00176093
0.0102341
0.0010811
6.17307e-05
0.00105283
0.00232503
0.00163634
0.00460929
0.00583574
0.0015319
0.0117582
0.00917717
0.00583181
0.00583583
0.000402443
0.0058372
0.0131975
0.00155951
0.00065491
0.00034558
0.000355208
0.00583419
0.00714185
0.0114282
0.000351372
0.000448885
0.000377762
0.00583971
0.000143452
0.00132498
0.00220876
0.00856208
0.000616505
0.00583349
0.00133123
0.00526302
0.0147327
0.00482834
2.18801e-05
0.000206643
4.64374e-05
0.00796852
0.000164789
0.00585974
0.00998105
0.00113328
0.00592315
7.56401e-05
0.00165869
0.0005548
0.000877899
0.00583432
0.0016316
0.00583332
0.0058327
0.0135681
0.00273154
0.00583499
0.000296326
0.000285737
2.74675e-05
0.012702
0.00305472
0.00115925
0.00174551
0.00583465
0.00181596
0.00143518
0.00447204
0.00147267
0.00584904
0.000310774
0.00045794
0.00115819
0.00583614
0.0110991
0.000215927
0.000194155
0.000849526
3.79377e-05
0.000165576
0.00583329
0.013022
0.000633781
0.000705332
0.000870135
0.00369124
0.00352702
0.0021271
0.00138076
0.00109403
0.000855163
0.000180454
0.00244566
0.000493553
0.0029717
0.000140116
0.000418512
0.00151436
0.000166339
0.00264707
0.0040441
0.00583243
0.00247507
0.000115114
0.00111268
0.00549644
0.00583463
0.00254215
0.00601777
0.00204095
0.00583638
0.00583457
0.000236138
0.00596837
0.00068366
0.00583602
0.00079561
0.000604227
0.000162272
0.00583331
0.000869178
0.000951748
0.00584734
0.00209278
0.000358597
6.24722e-05
0.00255005
0.000576778
0.00583068
0.00242856
0.00583617
0.00583614
0.00047506
0.000296807
0.00583341
0.0072169
0.000332667
3.91439e-05
0.00867302
0.00106053
0.00128057
0.00583536
0.00195418
0.00582958
0.00313749
0.00111739
0.00583172
0.000134892
0.000577019
0.00274659
0.000522763
0.0133174
0.000618119
0.000295656
0.000463944
0.00460551
0.0101492
0.00264948
0.00311875
0.000177343
0.000469657
0.000124417
0.0015012
0.0144237
0.00032186
0.00280086
0.00271
6.13914e-05
0.0125324
0.00292089
0.000376997
0.00323438
0.00429233
0.00518555
0.00070192
0.00848116
0.00584123
0.000845192
0.00125077
0.00918093
0.0128481
0.00305056
0.0129451
0.00585324
0.00108403
0.00199234
0.000970863
0.00583161
0.00700127
0.000786904
0.00055867
0.00583172
0.00262492
0.000874887
0.000341768
3.00519e-05
0.00585358
4.63489e-05
0.000562131
0.00686369
0.00583347
0.00582992
0.00258452
0.011097
0.00590069
0.000203134
0.00583282
0.000225037
0.00584761
0.0018547
0.0012723
0.000195095
0.00193615
0.00586944
0.000117663
0.0113361
0.000738694
0.000724471
0.00213967
0.00371051
0.00523249
0.00583397
0.00338416
0.00252834
0.000906795
0.0140762
0.00584618
0.00220832
0.00104596
0.00423234
0.00407384
0.000471824
0.00106648
0.0024434
0.000605821