/*--------------------------------*- C++ -*----------------------------------*\
| =========                 |                                                 |
| \\      /  F ield         | OpenFOAM: The Open Source CFD Toolbox           |
|  \\    /   O peration     | Version:  v2012                                 |
|   \\  /    A nd           | Website:  www.openfoam.com                      |
|    \\/     M anipulation  |                                                 |
\*---------------------------------------------------------------------------*/
FoamFile
{
    version     2.0;
    format      ascii;
    class       surfaceScalarField;
    location    "200";
    object      phi;
}
// * * * * * * * * * * * * * * * * * * * * * * * * * * * * * * * * * * * * * //

dimensions      [0 3 -1 0 0 0 0];
oriented        oriented;


internalField   nonuniform List<scalar> 
56134
(
-0.0530094
0.0526439
0.000365475
-0.00838112
0.00354317
0.00483795
-0.428299
0.257204
0.171095
-0.161862
0.144122
0.0177401
-0.00098346
-0.0116948
0.0126782
0.0418767
-0.105699
0.0638224
-0.0276555
-0.00958863
0.0372442
0.0120055
-0.00778521
-0.0042203
-0.000965767
0.000965767
0.0045685
-0.00714452
0.0333013
-0.0897983
0.056497
-0.220634
0.1767
0.0439339
0.0114641
-0.103629
0.0921647
-0.0834655
0.0949296
0.0095948
-0.00965269
5.78928e-05
0.117583
-0.0301532
-0.0874296
-0.244987
-0.0869654
0.331953
0.0026892
-0.0123487
0.00965952
0.206
-0.136105
-0.069895
-0.044816
0.0408456
0.00397031
-0.0434372
0.00968011
0.0337571
0.00236066
-0.0457979
0.0110233
0.0155525
-0.0265757
-0.399608
0.248566
0.151042
0.0687504
-0.00442288
-0.0643276
0.0459802
0.00964648
-0.0556267
0.030255
-0.0503958
0.0201408
-0.0792544
0.154521
-0.0752667
-0.18972
0.378374
-0.188654
0.013821
-0.0103605
-0.00346049
0.0918054
-0.0679387
-0.0238667
-0.00577476
0.00641202
-0.244366
-0.155242
0.00736896
0.021102
-0.028471
0.201652
0.0278697
-0.229522
0.128992
-0.373979
-0.304345
0.197702
0.106643
-0.0661971
0.0579524
0.00824468
0.0641865
0.0292617
-0.0934481
0.0576751
0.0249136
-0.0825888
0.00379404
-0.00282592
-0.000968125
-0.0113311
0.00954967
0.00178145
-0.000974801
0.00126984
0.00772331
-0.00940828
0.00168498
0.266204
-0.166006
-0.100197
0.122056
0.0135793
-0.135635
0.0227143
-0.0723289
0.0496145
0.0144313
-0.0437654
0.0293342
0.0544671
-0.0242122
0.0585904
0.028318
-0.0869084
0.145922
-0.243426
0.0975041
-0.147928
0.282231
-0.134303
-0.122929
-0.184734
0.307663
0.152118
-0.182907
0.0307892
0.00790408
-0.00451988
-0.00338421
0.179447
-0.302376
-0.0934624
0.0863315
0.00713095
0.0396746
0.113482
-0.153157
-0.0659024
-0.0326441
0.0985465
0.0717394
-0.0507489
-0.0209904
-0.00284354
-0.00453282
0.00737637
0.0306923
-0.127398
0.0967056
0.00135313
-0.104982
0.0502376
-0.0853158
0.0350782
0.0219293
0.0698761
0.0563996
0.0123508
0.0628104
-0.0465088
-0.0163016
-0.214855
0.126257
0.0885976
0.0704362
-0.194106
0.123669
0.0533063
-0.0515296
-0.0017767
0.158012
-0.119442
-0.0385703
0.0077619
-0.0077619
0.14407
0.0430679
-0.187138
0.0254045
-0.10887
-0.156956
0.0777019
-0.248949
0.278467
-0.0295183
0.085568
-0.0278928
-0.0741832
0.0635624
0.0106208
-0.0517924
-0.00121693
0.0505816
0.023796
-0.0743776
-0.109289
-0.124236
0.233525
-0.403717
0.213997
0.0462973
-0.0319518
-0.0143456
0.0758571
-0.122818
0.0469606
-0.258209
0.18936
0.0688497
-0.00137255
0.000397753
0.0665801
0.088115
-0.154695
0.0227617
-0.0652998
0.042538
0.0184142
-0.095185
0.0767708
-0.0722112
-0.00442389
0.0766351
-0.0556366
-0.0105605
-0.00896667
0.0108181
-0.00185144
-0.0212393
0.0435755
-0.0223362
-0.0150106
-0.011533
0.0265436
-0.0637009
0.130281
0.0383599
-0.0184878
-0.0198721
0.142328
0.0515577
-0.193885
0.214462
-0.0685401
0.00248751
-0.00256954
8.20257e-05
0.247067
-0.373981
0.126914
0.0320953
-0.0623539
0.0302586
0.167146
0.047316
0.095422
-0.0451844
0.0102254
-0.00753617
0.0685182
-0.0459433
-0.0225748
0.335557
-0.0710155
-0.264542
0.00368288
0.0101381
-0.00593779
0.00400476
-0.0184284
-0.0465422
0.0649705
-0.135837
-0.0847971
-0.00541105
-0.0394049
-0.0464802
0.122337
0.00703856
0.022807
-0.0298456
0.0774247
0.0368007
-0.114225
-0.0801893
-0.0132731
0.0970356
-0.0328491
-0.130782
0.00176893
0.129013
-0.217533
0.149157
0.0683765
0.0410935
0.01918
-0.0602735
0.0012152
-0.000709317
-0.000505881
0.213058
0.116859
-0.329917
-0.112016
0.196473
-0.0844573
-0.0283226
0.106521
-0.0781985
-0.00972091
0.00873745
0.00724746
-0.00937704
-0.181548
0.050766
0.0467275
0.0276843
-0.0744118
-0.264407
0.170146
0.0942615
-0.0630585
0.0940711
-0.0310126
0.198243
-0.130211
-0.0680326
0.0775866
-0.0350477
-0.0425389
-0.0148123
0.0673073
-0.0524949
-0.000280688
0.000137248
0.000143441
0.327745
-0.179706
-0.148039
-0.0470718
-0.0219317
0.0690035
-0.0609486
0.308016
-0.146697
-0.0967291
-0.0815534
0.112246
0.00538063
-0.00633501
0.000954372
-0.0180704
0.0667933
-0.0487229
0.241186
-0.039534
-0.0154287
0.0494325
-0.0340038
0.00538063
0.00307424
0.000719798
-0.035957
0.180027
0.0410962
0.0217143
0.137239
-0.0562175
-0.0810212
0.0301915
0.0902751
-0.120467
0.0330585
0.0132388
-0.337738
0.284784
0.0529545
0.0033102
-0.00336019
4.99881e-05
0.137378
0.060865
0.117487
-0.090759
-0.0267284
0.0372318
0.0260253
-0.0632571
-0.0889259
0.0469672
0.0419587
0.0152134
-0.352951
-0.0531879
0.0377592
0.0625885
-0.021495
0.0152966
0.136822
0.000606251
-0.00693375
0.0063275
-0.0864464
0.0233879
-0.0748011
0.0358875
0.0389136
0.0207693
-0.0242329
0.00346362
-0.00135711
0.00185035
-0.000493239
-0.134755
0.0171582
0.117596
0.155223
0.178518
-0.333741
0.153398
0.111102
-0.2645
-0.00394514
-0.00291243
0.00685757
-0.0321229
0.0992335
-0.0671106
-0.0985545
0.0496344
0.0489201
-0.0401376
0.0617685
-0.021631
-0.317345
0.101112
0.216233
0.000503044
0.00141821
-0.00192125
0.0616108
-0.174776
0.113165
0.197704
-0.127268
0.119514
-0.081499
-0.0380149
0.0173535
0.0511646
0.0218599
-0.0187397
0.0149135
0.00382621
0.0680151
-0.0559503
-0.0120648
0.00111595
9.92509e-05
0.228861
-0.0894218
-0.139439
-0.326903
0.142169
0.153253
-0.0593472
-0.0939055
-0.363899
0.182033
0.181866
0.036393
-0.0755336
0.0391406
0.106764
0.122097
-0.0888669
0.125085
-0.0362178
-0.0744948
0.0564244
0.00907098
-0.0121888
0.00311786
0.0878727
-0.0292822
0.185396
0.178295
-0.0496053
-0.12869
0.00452466
-0.00937242
0.00484776
-0.0422924
-0.0315046
0.073797
-0.020151
0.00310454
0.0170465
-0.114998
0.208343
-0.0933452
0.182799
0.129706
-0.312505
-0.188596
0.342036
-0.15344
0.14168
0.0163321
0.00481434
-0.00481434
0.0922508
-0.0589496
0.00963465
0.0107756
0.0572395
-6.30685e-05
-0.00021762
-0.160488
-0.203411
0.159972
-0.0983609
-0.0387573
-0.00993317
0.0486905
0.188564
-0.300157
0.111593
-0.0551298
0.0820709
-0.0269412
0.0123026
-0.0510599
-0.00334656
-0.00503456
0.108091
-0.328373
0.220281
-0.107058
-0.110476
0.0724403
0.112919
-0.185359
0.0735618
-0.0442817
-0.0292801
0.0242643
0.0239528
-0.0482171
0.264282
-0.142351
-0.121931
0.291899
-0.183807
0.0784303
-0.0556123
-0.022818
0.0161496
-0.0311602
0.00153444
-0.00352226
0.00198781
0.110893
-0.177569
0.0666752
-0.112158
0.200572
-0.0884142
-0.23989
0.130601
-0.0037228
-0.00374475
0.00746755
-0.00206226
0.0030407
-0.000978441
-0.0281769
0.0749044
-0.0453496
-0.0341841
0.0795337
-0.028319
0.0604143
0.0550399
0.107071
-0.162111
-0.0151518
-0.0144519
0.0296037
0.0275635
0.0432829
-0.0708463
0.0605096
0.0567533
-0.117263
0.0184047
-0.0585423
0.0555286
-0.0327669
-0.17659
0.36218
-0.18559
0.00831788
-0.00419893
-0.00411896
-0.0101575
-0.124597
-0.0947031
0.0571474
0.0375557
0.0413081
-0.0282576
-0.0130505
-0.205832
-0.111512
-0.0790409
0.0395165
0.0395245
0.0622613
-0.0445316
-0.0177297
0.0967443
0.169459
0.224848
0.0368464
-0.261695
-0.362741
0.103453
0.259288
0.102765
-0.315281
0.212516
-0.0681908
-0.0303637
-0.358146
0.196174
0.161971
0.228421
-0.339807
-0.389458
0.145092
0.0497729
-0.236524
0.186751
0.0026597
0.00564435
-0.00830405
-0.171301
0.0916069
0.0796942
0.0767133
-0.185831
0.109117
-0.127001
0.147419
0.112189
-0.259608
0.00934831
-0.0321632
0.0228149
0.00100506
-0.003786
0.00278094
0.0672946
-0.0300628
0.155064
0.0232313
0.005993
-0.00117867
-0.207349
0.095333
-0.00885219
0.00600865
-0.0485559
-0.0221409
0.0706968
0.0706409
-0.0479266
-0.123267
0.094944
-0.107894
0.211049
-0.103155
-0.0157338
-0.00441724
-0.00015697
9.39019e-05
0.200781
-0.128341
0.00922185
-0.0184008
0.00917893
-0.0726291
0.0323703
0.0402588
-0.232303
-0.157155
-0.0382691
-0.0429996
0.0812687
-0.0243558
0.0317248
-0.219941
-0.0321918
0.252133
0.0494405
0.0222989
-0.234973
0.244977
-0.0100042
-0.231463
0.138553
0.0929095
0.000418974
-0.000242887
-0.000176087
0.00866286
-0.00141541
-0.338701
0.274719
0.0639819
-0.0464668
-0.0155231
0.0619899
0.00126484
0.223583
0.161231
-0.197188
0.242985
-0.347339
0.104355
-0.0945878
0.0498123
-0.00349109
-0.0463212
-0.091203
0.267844
-0.176641
-0.0593593
-0.0326838
0.0920431
0.00884042
-0.00884042
0.299739
-0.120292
-0.150951
-0.113456
-0.146936
0.058069
0.074789
-0.0492966
-0.0254924
-0.00579098
0.00681971
-0.00102873
0.180353
-0.0887461
0.0307609
-0.00203015
-0.0287307
0.0723111
-0.13167
-0.00667218
0.000897417
-0.261328
0.0123793
0.0353261
-0.062257
0.0269309
0.00621112
-0.00164262
0.0843419
0.0528735
-0.137215
-0.358008
0.0185284
0.33948
-0.181655
0.0622137
-0.00213283
-0.000693084
-0.373946
0.168114
0.0640123
0.0153334
-0.0793457
-0.00705794
0.00971764
0.00632585
-0.00627061
-5.5249e-05
-0.0443012
-0.031826
0.0761272
-0.102814
0.315872
0.00201297
-0.00388783
0.00187486
-0.0968968
0.0999146
-0.00301779
0.141053
0.0649474
-0.0342222
-0.00317082
0.0373931
0.000418974
0.073854
0.00407898
-0.0779329
-0.000232574
0.00176702
0.0807759
-0.0322401
-0.0485357
-0.0758254
-0.10583
0.0335234
-0.0653612
0.0318378
0.0514477
-0.0221867
-0.0292609
0.00833934
-0.00774386
-0.000595483
-0.147654
-0.035945
0.183599
-0.267504
-0.0517908
0.319295
0.0697549
-0.0516622
-0.0180927
-0.333878
0.157288
-0.279796
-0.0739678
-0.157495
-0.00283195
0.0846529
-0.295481
0.210828
0.232049
0.0956968
0.096841
0.00115207
-0.097993
0.222581
-0.0815285
0.162079
-0.33599
0.173911
-0.107336
0.0728034
0.0345326
0.353065
-0.349637
-0.00342779
0.0753994
0.0329702
-0.10837
0.0260375
-0.00526815
0.00611894
0.118577
0.0112002
-0.129777
0.0578458
0.0119092
-0.00149336
-0.0327289
0.100042
-0.319983
0.00182288
-0.00194277
0.000119894
0.135311
0.00192783
-0.00301472
-0.000507538
-0.00213227
0.0241452
-0.0220129
-0.216297
0.0804606
-0.14937
-0.0654853
-0.000963317
-2.4498e-06
-0.0698971
0.00754321
-0.176113
0.0180269
0.0604033
-0.212832
0.0978338
-0.00323197
-0.0180821
0.021314
0.016318
-0.00545185
0.0874351
-0.0819832
0.00272986
-0.000817923
-0.00191193
-0.00183107
0.00312318
-0.0328295
0.0259213
0.00690822
-0.0067742
0.0030514
0.0364005
-0.0636867
0.0272862
0.130255
-0.117098
-0.0131577
-0.147101
0.0623345
0.0847661
0.130879
0.153278
-0.284157
0.100804
-0.0409534
0.0197141
-0.0528119
0.0946886
-0.00307825
0.00307825
0.0495408
-0.0977727
0.0482319
0.281084
-0.262758
-0.0183259
-0.0309644
-0.0667646
0.097729
-0.356134
0.00292367
-0.00296909
4.5422e-05
0.0307959
-0.0239207
-0.0068752
0.198053
-0.0368219
-0.0667054
0.000102181
-0.000259152
0.0796203
0.0307146
-0.110335
-0.00462327
0.00731703
-0.00269376
-0.118802
0.107685
0.0111168
-0.0142839
-0.0556132
0.0582405
0.029285
-0.0875255
0.0363501
-0.00558924
0.136853
-0.287748
0.150895
0.0644851
-0.299458
0.00464732
-0.00897024
0.00432292
0.10839
-0.375894
-0.219529
0.0533536
0.166176
-0.0310981
0.11009
-0.0789916
0.0790062
-0.0605921
0.00527691
-0.00253251
-0.0027444
0.0100728
-0.00338872
-0.00668408
0.0431332
-0.13495
0.0918164
-0.00926342
-0.348745
0.00291759
-0.000904613
0.0320018
-0.0871316
0.306149
-0.169296
0.0966136
0.091792
-0.188406
0.328277
-0.0129613
-0.315316
-0.0417569
-0.0118912
0.0536481
-0.254377
-0.11957
0.00505235
0.00326554
-0.0246184
0.0390497
-0.00132487
0.00182791
0.0349397
0.016508
-0.0852125
0.128346
0.0335395
-0.0868513
0.0533118
-0.0945324
0.149572
-0.078669
0.21526
-0.136591
0.0725107
-0.0230702
0.00639649
0.00367631
0.00779694
-0.00839988
0.00060294
-0.311388
-0.0513527
-0.389093
0.151072
0.238021
-0.000287614
-0.0011621
0.00144972
-0.0985028
0.0663799
0.0586293
-0.0308466
-0.0277827
0.0576028
-0.0222767
-0.0754259
0.31841
-0.0147067
0.0192336
-0.00452694
0.198989
-0.115115
-0.0838737
0.0251299
0.0480414
-0.0731712
0.030666
0.0535743
-0.0842403
-0.00719168
-0.0346233
0.041815
0.107935
0.103299
-0.211234
-0.0630999
0.014544
-0.0463725
-0.11549
0.0430983
0.0851108
-0.128209
-0.00118334
0.000895723
0.0615922
-0.16254
0.100948
0.0012589
-0.00137923
0.000120327
0.0219489
-0.012727
0.133873
-0.0584082
-0.0754649
-0.163798
-0.17008
0.0994877
0.0404768
-0.139965
0.00847661
-0.0563934
0.0479168
-0.0678375
0.104891
-0.0370531
-0.0176308
-0.0794184
0.0970492
-0.12792
0.271237
-0.143317
0.142459
-0.252755
0.110296
0.00333708
-0.00233202
0.0212532
-0.075899
0.0546458
0.0277348
-0.102016
0.0742807
-0.0362803
-0.0338776
0.0701578
0.0186082
-0.116366
0.0977577
0.259066
0.0220178
0.120523
-0.105844
0.253263
-0.097557
-0.0745158
0.172073
-0.0901343
-0.171526
-0.132819
-0.299478
-0.0896153
-0.00922193
0.000759273
0.00846265
0.249127
-0.130542
-0.118585
-0.0477022
0.158596
-0.103582
0.0981306
0.0279589
-0.0702513
-0.0661976
0.0269052
0.0392924
0.00165442
-0.0002109
-0.00144352
-0.00592554
0.00809249
-0.00216695
-0.205131
0.144702
0.0604286
-0.0592378
0.0924943
-0.0332565
0.00241815
0.00157615
-0.00399429
-0.064756
0.228996
-0.16424
-0.0465127
-0.0754185
0.121931
0.231747
-0.123811
0.287244
-0.319436
-0.252225
0.175324
0.0769007
-0.112662
0.078356
0.0343063
0.110997
-0.228898
0.117901
-0.106398
0.0562675
0.0501302
0.00984022
-0.0112658
-0.0677431
-0.0490003
0.116743
0.176802
-0.282646
-0.147551
0.27843
0.112899
0.103607
-0.216507
0.0447094
-0.140636
0.0959261
-0.159959
-0.00557827
0.00873961
-0.00316134
-0.238211
0.147008
-0.102528
0.0698445
0.0703708
-0.0517311
-0.0186397
-0.0103294
0.0283478
-0.0180184
-0.221463
0.156562
0.0649009
0.00244128
0.00283563
-0.0119242
0.108765
-0.0299394
0.0857655
-0.0558261
0.0311781
0.135968
-0.0820047
-0.0253313
0.00202624
0.000289667
-0.00231591
0.287943
-0.185178
0.0903217
-0.0717135
0.0545333
0.0793398
-0.104686
-0.0141158
0.0374853
0.0151586
0.0692139
-0.0479607
-0.00108587
-9.74712e-05
-0.00796102
0.0490572
0.0264492
0.103806
0.0717712
-0.112181
0.0404097
0.0311332
0.00882446
-0.00883375
9.28947e-06
-0.141131
0.236402
-0.0952708
0.0814506
-0.24329
0.164621
-0.1224
0.233397
0.000842215
-0.00290447
0.103803
-0.0320314
0.0852918
-0.197294
0.112003
0.0808217
-0.0504187
-0.030403
-0.00331955
-0.00129599
0.00461553
0.0948816
-0.175519
0.0806378
0.0056054
-0.0056054
-0.120339
0.0892413
0.00300051
-0.00438096
0.0842371
-0.0474745
-0.0367626
-0.21815
-0.033966
0.252116
0.00709848
0.192024
-0.106732
-0.0583157
-0.0759071
0.134223
0.0441993
0.0230953
-0.0146431
0.0199466
-0.00530349
0.0411035
-0.058731
0.0176274
-0.0898541
0.0630524
0.0268016
0.00674217
0.0937439
0.0422692
-0.136013
0.0700658
-0.0258665
0.0225374
-0.0668386
-0.320997
-0.0173059
0.338303
-0.112392
0.279358
-0.166966
-0.143585
-0.114624
0.0116473
0.0381651
-0.208202
0.143446
-0.244325
-0.00645855
0.250784
-0.054093
0.0856806
-0.0315876
-0.126095
0.0677788
-0.022696
0.019464
-0.0636454
0.0273651
-0.00428516
0.000965614
-0.188639
0.0430196
0.145619
-0.146652
-0.0157477
0.1624
0.00616606
-0.000927513
-0.00523855
-0.0475641
0.0741407
-0.0265766
0.0803639
-0.401361
-0.104186
0.144717
-0.0405308
0.0929125
-0.0651777
0.0225961
0.264648
-0.0426324
-0.0520707
-0.00138791
0.00761231
-0.0062244
-0.0902401
-0.241107
0.29088
0.0498118
-0.0682402
-0.0120023
-0.0129123
0.0249145
0.0847584
-0.0265179
-0.0215359
0.0590212
-0.00089796
0.000716775
0.000181185
0.0641678
0.0139015
-0.0780693
-0.283324
0.170933
-0.00071761
-0.00764198
0.00835959
0.0597954
-0.150177
0.0903815
-0.0468116
-0.0452824
0.092094
-0.0780771
-0.141452
-0.0250255
0.0146961
0.0402328
0.01737
0.390857
-0.213469
-0.177388
-0.00983054
0.000863868
-0.157214
-0.0238414
0.181055
0.168663
0.186567
0.0777152
0.200641
0.0787029
-0.279344
-0.00623362
0.00335039
0.00288323
0.00263747
-0.000318704
-0.00231877
-0.130883
0.274931
-0.144048
-0.140005
0.295228
-0.0155016
-0.0880809
0.0776164
-0.0785291
0.000912733
-0.00937144
0.0336357
-0.042966
-0.0239903
0.0669563
0.00854129
-0.0488547
-0.0117753
0.0606299
-0.00977965
0.00558072
0.00767041
-0.00314576
0.00561185
-0.0100749
0.00446306
0.0649953
-0.211647
-0.370748
0.138445
0.151737
-0.0296373
-0.1221
-0.0052681
0.00586698
-0.000598876
0.0868314
-0.00940758
0.210049
0.175266
-0.0421466
0.0186217
0.0235248
-0.00945695
0.00023502
-0.335369
0.19745
0.137919
-0.0226079
0.160177
-0.13757
0.37364
-0.174358
-0.199281
0.000760374
0.00172714
-0.0226701
0.100055
-0.0773848
0.0264926
-0.0096796
-0.016813
0.074564
0.126008
0.0611738
0.0186543
-0.0798281
-0.162239
0.106022
-0.0537054
0.0872449
-0.0232002
0.0970542
0.130477
-0.319073
-0.00544919
0.000181089
-0.0829099
0.0772866
-0.0558391
-0.0214475
0.0762323
0.101324
-0.177557
-0.0517536
0.146635
-0.106169
-0.0753787
-0.00852864
0.00209385
0.00643479
0.0063272
0.00567831
0.0091987
-0.00563186
-0.00356683
0.0885601
-0.30671
0.00739443
-0.0221011
0.00304506
0.00302222
-0.00606728
0.110902
-0.00678514
-0.00258729
0.0195117
-0.0659785
-0.00211383
0.0661262
-0.206841
-0.163907
-0.0743564
-0.117015
0.191372
-0.0999325
-0.0433294
-0.0292996
0.0284444
-0.0177065
-0.010738
0.108214
-0.104368
-0.00384589
-0.00240134
-0.00383228
-0.124621
-0.182578
0.307199
0.145456
-0.234619
0.0891639
-0.0344123
0.106723
-0.0421983
-0.0709345
0.113133
-0.124577
-0.110867
0.235444
-0.00265331
0.00731497
-0.00466165
-0.145299
0.119929
0.0253704
0.0246727
-0.0722369
-0.0283405
0.0204857
0.00785481
0.0041307
-0.0041307
0.00107876
0.00223144
0.000116222
-0.00124005
0.00112383
-0.0420882
0.0625378
-0.0204496
0.063417
-0.220631
-0.0753132
-0.208011
0.12573
-0.0860556
-0.113123
-0.0543643
0.167488
0.0327978
-0.088858
0.0560602
0.00038237
-0.00154447
-0.22201
0.00907098
0.0532989
-0.0740916
0.0207927
-0.00710296
0.00444965
0.0422854
0.101837
0.0276643
0.0136438
-0.103939
0.0690367
0.0349025
0.0233821
-0.026553
0.170717
0.0269877
-0.319751
0.056477
0.0234647
-0.0799417
0.141595
0.0518721
-0.193467
-0.120785
-0.0263154
0.0402467
0.0183826
0.075013
-0.0448935
-0.0301195
0.000841589
0.00102303
-0.00186462
0.0724927
-0.0520542
-0.0204385
0.000994519
-0.00645806
0.00546354
-0.00757056
-0.000958072
0.1058
-0.0249748
-0.0808248
0.139924
-0.0057592
0.000310007
0.306005
-0.127487
-0.0724758
0.0530687
0.0194071
-0.00945218
0.00491936
0.340442
-0.35231
0.0118677
-0.151182
0.135317
0.0158648
0.0598148
-0.019582
-0.00372914
0.0404973
0.107466
-0.147964
-0.223243
-0.205056
-0.04646
0.0191549
0.0273052
-0.00688425
0.00688425
-0.00400311
0.00701899
-0.00301588
-0.244922
0.0590909
-0.00754797
0.00838956
-0.0753576
0.177075
-0.101717
-0.0396254
0.0610236
-0.0213983
0.116066
-0.0868754
-0.0291904
-0.100417
0.180516
-0.080099
0.0427707
-0.0658222
0.0230515
-0.00279391
0.00511029
-0.00231638
0.148562
0.0878397
0.117576
-0.181782
0.064206
-0.155532
-0.0893896
-0.267287
0.160545
0.106742
0.0674901
-0.0310972
0.0131037
-0.0148316
0.00172783
0.00545628
-0.00465916
-0.000797119
-0.00161471
-0.00584902
0.00746373
0.315367
-0.154478
-0.160889
0.000246578
0.0023909
0.0842999
-0.126498
-0.0392914
-0.0474776
-0.0201409
0.0676185
-0.185936
0.130346
0.0555903
-0.00436156
-0.00696955
0.12771
9.42823e-05
-0.127804
-0.0928939
-0.0370687
0.129963
-0.036069
0.013373
0.0410317
0.03979
-0.00264581
-0.0652929
-0.0183195
0.0460681
-0.0277486
-0.0591515
0.01462
-0.00397546
0.0744882
-0.0705128
-0.00947497
0.00961967
-0.000144698
0.0191768
0.0761968
0.0664661
-0.142663
-0.0252215
-0.0108475
-0.0339839
-0.0441693
0.0781532
0.0787828
-0.113195
0.0912711
0.00844371
-0.0997148
-0.0521789
-0.0311223
0.0833012
0.0121266
0.118277
-0.0814761
-0.0504248
0.0755547
-0.0601188
-0.0297353
0.0242249
0.0604979
-0.0847228
0.207593
-0.0908444
-0.116749
-0.0211013
-0.0996365
0.120738
-0.0862706
0.0563312
0.175037
-0.10911
-0.0659266
-0.08983
-0.126467
0.186429
-0.0934214
-0.0930078
-0.242796
0.0872645
0.0717636
0.0827576
0.0205004
0.0173008
-0.0329193
0.0156184
-0.204776
0.089661
-0.22606
0.10932
0.11674
-0.0173742
-0.0513916
0.0687658
0.00422638
-0.00714338
0.002917
0.354546
-0.0189891
-0.115694
0.100193
0.0573832
-0.000692459
-0.0566907
0.0187085
0.319776
-0.371566
0.0760376
0.0929911
-0.169029
0.136158
0.0388785
0.0500906
-0.0866433
0.0365527
-0.152106
0.0725547
0.0795511
0.125344
-0.220766
0.0954219
-0.0707731
0.229981
-0.159208
0.00168964
-3.52151e-05
0.00339826
-0.00807893
0.00468067
0.0125177
-0.0632666
0.0791663
0.0246363
-0.00567993
0.325456
-0.0900912
-0.209387
0.0503702
0.0463292
-0.0966993
-0.0450339
0.221836
0.294875
-0.141477
-0.113984
-0.0371981
-0.00180897
0.000875972
0.000932997
-0.0295315
-0.0689714
0.00265157
0.0284891
-0.0311407
0.190194
0.14026
-0.330454
-0.105648
-0.0396512
-0.019175
-0.0253595
0.0445345
-0.0182427
0.0035996
-0.0203292
0.00693375
0.00082815
-0.0292385
0.0552725
-0.026034
0.0252521
0.00554374
-0.327023
0.155497
-0.2821
0.192009
0.0024534
-0.00649491
0.00404151
-0.0604426
0.0643332
-0.00389063
0.100363
-0.0313267
-0.0297434
0.0792842
0.00935682
-0.0186356
0.0092788
-0.00513889
-0.000620308
-0.0371312
0.00947564
-0.0670473
-0.11586
0.0276207
-0.0684784
0.0408577
0.00696178
-0.00273539
-0.0803981
0.128453
-0.048055
-0.0174622
-0.00542025
0.0228825
0.0992949
-0.0308919
-0.0684029
-0.023325
-0.0511698
0.00496738
-0.00481581
-0.000151573
0.0115787
0.05112
-0.0626987
-0.0343094
-0.0525419
0.117552
-0.0329772
0.0479307
-0.0149534
-0.0536861
-0.172374
-0.00257089
0.00268711
0.0424424
-0.146629
-0.349788
0.18599
0.0814005
-0.181842
0.100442
-0.247626
0.172312
-0.00898122
0.00991587
-0.000934644
-0.154438
-0.125358
0.0958492
-0.0681214
-0.0277278
0.0913279
-0.003374
0.0809904
-0.038963
0.0703763
-0.0314133
0.102659
-0.0234926
0.102611
-0.250539
0.00361937
-0.00162643
-0.00199293
0.0296336
-0.022595
0.332863
-0.19498
-0.137883
0.234073
-0.0855107
-0.00743414
0.0195584
-0.0121242
-0.0984416
0.0689101
-0.0384758
-0.0476152
-0.018031
0.0656462
-0.179488
0.09458
0.0849084
0.115564
0.00755201
-0.123116
-0.254988
0.193824
0.0611641
-0.0239496
-0.0508514
-0.00427872
0.00311031
0.00116841
0.00466607
0.00114464
-0.00581071
0.00223283
0.00138654
-0.0543669
-0.0060757
0.0663881
0.0294611
0.0529603
0.0615696
-0.049991
0.0390465
0.0820545
-0.121101
0.0146347
-0.0342646
0.01963
-0.003147
-0.000798136
0.0789015
-0.0256026
-0.185827
-0.0628293
0.248656
-0.0906713
0.117121
-0.00884284
0.0218114
-0.0129685
-0.0967743
0.172812
0.0250491
0.023553
-0.0486022
0.00547497
-0.00448045
0.0206877
0.0567035
-0.0773911
-0.278718
0.12077
0.157948
0.0540417
-0.0417391
-0.18056
0.105202
0.0803664
-0.0627293
-0.0176371
-0.13978
-0.103016
0.0221432
-0.0252052
-0.00744834
0.0326536
0.139999
0.0900175
-0.230016
0.101224
-0.0768438
-0.0243805
-0.103836
0.0811661
-0.234525
-0.0839613
0.318487
-0.0688811
0.105178
-0.0362972
0.00930302
-0.00590476
-0.0295233
-0.0724922
0.0957656
0.0217218
-0.006212
0.000421027
0.0931998
-0.0431092
0.139985
0.100419
0.00812065
-0.10854
-0.236234
0.165461
0.0723909
-0.0395931
-0.189573
-0.065415
0.129085
0.123563
-0.252649
-0.00395638
-0.00183144
0.00578782
-0.126997
0.0355698
0.0914271
0.0637355
0.0401722
-0.103908
-0.0630172
0.154524
-0.0915066
0.228017
-0.143364
-0.155403
0.0923859
-0.15808
-0.122623
0.280703
-0.00542752
-0.022913
-0.0112662
-0.00966837
0.0209346
-0.125043
-0.0129515
0.137994
0.0102357
-0.00296824
-0.00243238
0.00540062
0.148811
0.21337
-0.0167689
0.0665807
0.274187
-0.149552
-0.124635
0.0887227
0.118871
-0.33771
0.33203
-0.0921269
-0.0495276
0.141655
0.00450562
-0.00208747
-0.0515742
-0.0427149
0.0942891
-0.00536771
-0.00682114
0.1751
-0.0575244
0.122273
0.00371247
-0.125986
-0.034376
-0.034038
0.0684139
0.0116475
-0.0314569
0.0198094
0.262718
-0.296684
0.122059
-0.0966652
-0.025394
0.00516952
-0.00441066
-0.000758856
-0.00189893
0.00244837
-0.000549444
-0.346974
0.00347814
-0.00241734
-0.0010608
-0.0150375
-0.0925724
0.10761
0.0713769
0.00898951
-0.02351
0.101772
0.00901761
-0.00901761
0.0483692
-0.100548
-0.107359
0.210966
-0.0559024
0.181246
0.162983
0.179053
0.00454508
0.117728
0.0321525
-0.157195
-0.00226167
0.000430593
0.021533
0.0140306
-0.0355636
0.0657645
0.0443806
-0.110145
-0.0580981
0.0627415
-0.00464347
0.055274
-0.0487648
-0.00650917
-0.02922
0.106031
-0.123706
0.0176751
0.312829
-0.18632
-0.126509
0.109366
-0.0175159
0.00582109
0.130574
-0.114255
-0.0163189
-0.103829
0.0743056
0.140754
-0.0518218
-0.0889318
1.14582e-05
0.00495593
0.0635793
-0.0469909
-0.0165884
0.132638
-0.0453486
-0.0872893
0.0371501
0.0663648
-0.126163
0.0597979
-0.00762069
0.00343256
0.00418812
0.00388123
0.258837
-0.0196786
0.0108358
-0.195174
0.206915
-0.0117415
0.00987828
-0.0767452
-0.0404781
0.117223
-0.0388349
0.0558624
-0.0170275
0.024722
0.0908419
0.055935
-0.000661003
-0.0210259
0.0713961
0.0683631
-0.0568265
-0.0115366
-0.0487391
0.223891
-0.175152
-0.0294131
-0.0313186
0.0607318
-0.0535549
0.0610075
-0.00745264
0.0776646
0.0275137
-0.276511
0.0419861
0.0283944
0.0578773
-0.0862717
-0.00592321
0.00843603
-0.00251283
-0.0132804
-0.047453
0.0607334
-0.221135
0.364468
-0.143332
0.0967056
0.00211682
-0.0270313
-0.0391663
0.0568752
0.00991806
-0.114717
-0.0561084
0.170825
0.0395314
-0.107369
0.230196
-0.407411
0.177216
-0.0200774
-0.0575059
0.0775833
-0.0406013
0.0632142
-0.0226129
0.0171255
-0.00869103
-0.00843451
-0.118481
0.0973802
0.0421729
-0.0682013
0.0260284
0.00286964
-0.0521425
0.0492729
0.183425
0.0460028
-0.229428
-0.201485
-0.13682
0.338305
-0.0414073
0.0690916
-0.026635
0.21006
-0.266747
0.0685802
0.198167
-0.13141
0.198357
-0.0669472
-0.0245355
0.0667084
0.024206
0.0429362
-0.0671422
0.106418
-0.0287537
-0.124405
0.251748
-0.127344
0.111875
-0.269955
0.166521
0.0807311
-0.120851
0.0401202
0.142414
0.0916585
-0.02639
0.0905578
-0.00311656
-0.00633561
-0.103132
-0.0037288
0.00359419
0.132028
-0.204725
0.0726963
0.00690789
-0.00630164
-0.00770952
-0.0165234
-0.0586538
-0.0683432
0.153039
-0.0907042
0.0363224
-0.0494481
0.0131257
0.182254
-0.198002
-0.00162339
0.0021824
-0.000559008
0.0291946
-0.225443
0.196249
-0.0311548
0.0670423
-0.1208
0.0301284
0.00454059
0.137054
-0.0200881
0.00609405
0.0139941
0.0605609
-0.0779351
-0.226555
-0.025931
0.252486
-0.0312359
-0.0240376
0.0552735
-0.0499298
-0.0627324
-0.0984319
-0.0479273
0.146359
0.0686021
-0.164869
0.0962666
-0.00454501
-0.00276501
0.00731001
0.0217132
-0.0924671
0.0707539
0.00818579
-0.00992445
-0.0828788
0.214907
0.0158233
0.0298056
-0.0456288
-0.00194005
0.0566108
-0.0546708
-0.00180777
-0.000761767
-0.16858
-0.181208
0.0873079
0.0382372
-0.125545
-0.241833
0.13194
0.109893
-0.0042142
0.00124596
-0.0322463
0.0231623
-0.0138514
-0.00931092
-0.000775815
0.00544189
0.270426
0.06224
-0.332665
-0.0904986
-0.0332078
-0.150097
0.117626
0.032471
-0.00815903
-0.0433088
0.0678638
-0.024555
-0.121544
0.0537218
0.0678223
0.0970918
-0.0531412
-0.0439506
-0.200152
0.0240777
0.176074
0.116931
-0.0511663
-0.111162
-0.130671
-0.153867
0.19987
-0.135283
-0.116942
-0.138669
-0.0664618
0.00282503
-0.00819274
-0.226787
0.0587554
0.026001
-0.0847564
0.0640766
-0.036456
0.0811596
-0.235027
-0.0941249
0.36455
-0.0238111
0.0615306
-0.0377194
-0.0144822
0.0549192
0.0289704
0.222734
-0.0517073
-0.171026
0.00141348
0.00152662
-0.00247988
0.000953263
0.178197
0.0747641
-0.252961
-0.0402428
0.0612268
-0.020984
-0.0314067
-0.0242008
0.0556075
-0.113097
0.0105692
0.0337319
-0.0179247
-0.0158072
-0.0883912
0.0291534
0.209612
-0.0671977
-0.0715459
0.0244741
-0.0324885
0.0173368
-0.0482214
-0.101875
0.030253
-0.0764336
0.0482567
0.0413413
0.0428958
0.0827727
0.0273169
-0.305776
0.165771
0.0718203
-0.0511326
-0.0847003
0.0378886
-0.0173825
0.0709511
-0.0535686
-0.135347
0.00269508
0.005209
-0.0775276
-0.0302552
0.0137535
0.0165017
0.15269
-0.0913759
-0.061314
-0.142096
0.229846
-0.0877508
0.227863
-0.361304
0.133441
0.125216
0.109493
-0.234709
0.345845
-0.175916
-0.169929
0.193979
0.131037
-0.325016
-0.0398042
-0.0729045
0.112709
-0.000504175
-0.000393785
0.0968033
-0.0228224
-0.0739809
-0.0692569
0.141021
0.0694086
-0.100531
0.0943463
-0.00364577
-0.0907005
0.169727
0.0794001
-0.0127455
-0.00599425
-0.0809759
0.0356263
-0.0824688
0.0320161
0.0504527
0.0938144
0.0588756
0.199949
-0.119705
-0.0802438
-0.0138151
0.0117758
0.0020393
0.0613188
-0.0474174
0.0912723
-0.0714304
-0.0198419
-0.00140507
0.00272258
-0.00131751
-0.0273879
0.012408
0.0149799
0.244789
0.109787
-0.354576
0.0506143
-0.0545898
0.0211131
0.0588134
-0.0799266
0.055256
-0.081646
0.031475
0.00649196
0.00113465
-0.00762661
-0.142836
-0.145861
0.288697
0.0776393
-0.175196
-0.0042994
0.00150549
-0.0563991
-0.13224
0.0030741
-0.00835069
0.00527659
-0.0761179
0.0530433
0.0230746
0.0424011
-0.0663462
0.023945
0.0144482
0.0798981
0.0838568
0.0622835
-0.288839
-0.0586329
-0.195744
0.101011
-0.20837
0.190143
-0.213984
-0.17928
0.111562
0.0677175
-0.211103
0.0993239
0.00909886
-0.00885002
-0.000248843
0.125938
0.097312
-0.22325
-0.00814968
0.00503311
0.336377
-0.337039
0.000662297
0.069919
-0.105459
0.0355395
-0.002684
-0.0044913
0.00717529
0.290103
-0.162787
-0.115931
-0.0409149
-0.00651135
-0.0056037
0.0121151
-0.0702126
0.0225974
0.148983
0.184961
-0.333944
0.000972891
-0.0261781
0.330858
-0.181874
0.215043
0.117864
0.012502
-0.130366
0.0388901
0.0215063
-0.0603964
-0.0374382
0.05578
-0.0183417
0.0573765
-0.074759
-0.00943645
0.00954238
-0.00010593
-0.0158825
-0.030299
0.0461815
0.134172
-0.0534408
-0.0201273
-0.00683098
0.0269582
-0.199681
0.228876
0.13173
0.0778816
0.0164205
-0.0552554
0.00209256
-0.00212372
3.1159e-05
0.0538345
0.0234521
0.05815
-0.125893
0.0685386
-0.00256362
0.00721093
0.00770582
0.0272007
-0.0349065
-0.00128466
-0.335418
0.0991839
-0.0632
0.0337869
-0.0866456
-0.0701516
0.156797
-0.136896
0.100473
0.0364239
0.0206967
0.109878
0.0269998
-0.0376397
0.0106399
0.00616606
0.0833052
0.0342777
-0.00892959
-0.0213256
0.0158899
-0.00278616
0.000893664
-0.0080489
0.00715524
0.0142462
0.168008
0.124706
-0.0798296
-0.0448761
-0.00363227
0.0496125
-0.0627581
0.123268
-0.0456354
0.0384437
-0.056898
-0.0917772