/*--------------------------------*- C++ -*----------------------------------*\
| =========                 |                                                 |
| \\      /  F ield         | OpenFOAM: The Open Source CFD Toolbox           |
|  \\    /   O peration     | Version:  v2012                                 |
|   \\  /    A nd           | Website:  www.openfoam.com                      |
|    \\/     M anipulation  |                                                 |
\*---------------------------------------------------------------------------*/
FoamFile
{
    version     2.0;
    format      ascii;
    class       surfaceScalarField;
    location    "200";
    object      phi_0;
}
// * * * * * * * * * * * * * * * * * * * * * * * * * * * * * * * * * * * * * //

dimensions      [0 3 -1 0 0 0 0];
oriented        oriented;


internalField   nonuniform List<scalar> 
56134
(
-0.053009
0.0526434
0.000365644
-0.008378
0.00354161
0.00483639
-0.428299
0.257204
0.171096
-0.161862
0.144122
0.0177401
-0.000984552
-0.011695
0.0126795
0.0418751
-0.105699
0.0638235
-0.027655
-0.00958885
0.0372439
0.0120051
-0.0077849
-0.00422023
-0.000964498
0.000964498
0.00456868
-0.00714485
0.0333009
-0.089798
0.0564971
-0.220634
0.1767
0.043934
0.0114637
-0.103629
0.0921648
-0.0834659
0.0949296
0.00959271
-0.00965065
5.79419e-05
0.117583
-0.0301532
-0.0874294
-0.244988
-0.0869652
0.331953
0.00268766
-0.0123448
0.0096571
0.206
-0.136105
-0.0698947
-0.0448158
0.0408452
0.00397052
-0.0434375
0.00968047
0.0337571
0.0023603
-0.0457978
0.0110189
0.0155527
-0.0265716
-0.399608
0.248566
0.151042
0.0687498
-0.00442255
-0.0643273
0.0459789
0.0096472
-0.0556261
0.0302606
-0.0503967
0.0201361
-0.0792549
0.154521
-0.0752663
-0.18972
0.378374
-0.188654
0.0138206
-0.0103603
-0.00346035
0.0918023
-0.0679369
-0.0238653
-0.00577371
0.00641067
-0.244366
-0.155242
0.00736861
0.021102
-0.0284706
0.201652
0.0278693
-0.229522
0.128992
-0.373979
-0.304345
0.197702
0.106643
-0.0662013
0.0579534
0.00824787
0.0641862
0.0292609
-0.0934471
0.0576756
0.0249131
-0.0825887
0.0037938
-0.0028261
-0.000967704
-0.0113311
0.00954956
0.00178151
-0.000977689
0.00127294
0.00772387
-0.00940898
0.00168511
0.266203
-0.166006
-0.100197
0.122056
0.0135785
-0.135635
0.0227116
-0.0723279
0.0496163
0.0144314
-0.0437673
0.0293359
0.0544677
-0.0242071
0.0585901
0.0283178
-0.0869079
0.145922
-0.243426
0.0975041
-0.147928
0.282231
-0.134303
-0.122929
-0.184734
0.307663
0.152118
-0.182907
0.0307893
0.00790564
-0.00452062
-0.00338502
0.179447
-0.302376
-0.0934622
0.0863311
0.00713106
0.0396741
0.113482
-0.153156
-0.0659022
-0.0326432
0.0985454
0.0717411
-0.0507477
-0.0209934
-0.00284409
-0.00453333
0.00737742
0.0306927
-0.127398
0.0967053
0.00135349
-0.104982
0.0502367
-0.0853146
0.0350779
0.0219279
0.0698744
0.0563993
0.0123505
0.0628063
-0.046505
-0.0163014
-0.214855
0.126257
0.0885973
0.0704356
-0.194105
0.12367
0.0533035
-0.0515257
-0.00177781
0.158012
-0.119441
-0.0385701
0.00776009
-0.00776009
0.14407
0.0430683
-0.187138
0.0254041
-0.10887
-0.156956
0.0777015
-0.248949
0.278467
-0.0295182
0.0855679
-0.0278923
-0.0741824
0.0635617
0.0106208
-0.0517919
-0.00121715
0.0505802
0.023798
-0.0743783
-0.109289
-0.124236
0.233525
-0.403717
0.213997
0.0462926
-0.0319517
-0.0143409
0.0758572
-0.122817
0.0469601
-0.258209
0.18936
0.0688495
-0.00137605
0.000398357
0.0665803
0.0881146
-0.154695
0.0227623
-0.0652992
0.0425369
0.0184125
-0.0951839
0.0767713
-0.0722108
-0.00442418
0.0766349
-0.0556369
-0.0105644
-0.00896615
0.0108174
-0.00185127
-0.0212396
0.0435754
-0.0223358
-0.015008
-0.0115328
0.0265407
-0.0637005
0.130281
0.0383554
-0.0184827
-0.0198727
0.142327
0.0515581
-0.193885
0.214462
-0.0685401
0.00249002
-0.00257193
8.19047e-05
0.247067
-0.373981
0.126914
0.0320955
-0.0623529
0.0302574
0.167146
0.047316
0.0954206
-0.0451839
0.0102216
-0.00753397
0.0685132
-0.0459446
-0.0225686
0.335557
-0.0710155
-0.264542
0.00368272
0.0101379
-0.00593795
0.00400484
-0.0184281
-0.0465417
0.0649698
-0.135836
-0.0847973
-0.0054113
-0.0394045
-0.0464797
0.122337
0.00703824
0.0228074
-0.0298457
0.0774243
0.0368009
-0.114225
-0.080189
-0.0132732
0.0970345
-0.0328483
-0.130782
0.00176852
0.129013
-0.217533
0.149157
0.0683762
0.0410916
0.0191782
-0.0602697
0.00121146
-0.000707529
-0.000503927
0.213058
0.116859
-0.329917
-0.112016
0.196473
-0.084457
-0.0283226
0.106521
-0.0781982
-0.00972252
0.00873797
0.00724803
-0.00937779
-0.181548
0.0507663
0.0467295
0.0276813
-0.0744108
-0.264407
0.170145
0.0942616
-0.0630581
0.0940709
-0.0310128
0.198244
-0.13021
-0.0680331
0.0775866
-0.0350504
-0.0425362
-0.014809
0.0673066
-0.0524976
-0.000278288
0.000134447
0.000143842
0.327745
-0.179706
-0.148039
-0.0470703
-0.021934
0.0690043
-0.0609486
0.308016
-0.146697
-0.096729
-0.0815532
0.112246
0.00538064
-0.00633517
0.000954536
-0.0180697
0.0667924
-0.0487227
0.241186
-0.0395336
-0.0154298
0.0494345
-0.0340047
0.00538064
0.00307438
0.000719416
-0.0359573
0.180027
0.0410921
0.0217143
0.137238
-0.0562173
-0.081021
0.0301919
0.0902747
-0.120467
0.0330586
0.013234
-0.337738
0.284783
0.0529545
0.00331183
-0.00336168
4.98449e-05
0.137378
0.0608656
0.117487
-0.0907596
-0.0267274
0.0372307
0.0260274
-0.0632581
-0.0889263
0.046968
0.0419583
0.0152134
-0.352951
-0.0531877
0.0377579
0.0625847
-0.0214931
0.0152965
0.136821
0.000606122
-0.00693211
0.00632599
-0.0864463
0.0233881
-0.074803
0.0358857
0.0389173
0.020769
-0.0242326
0.0034636
-0.00135696
0.00185001
-0.000493053
-0.134754
0.0171578
0.117596
0.155223
0.178518
-0.333741
0.153398
0.111102
-0.2645
-0.00394514
-0.00291281
0.00685795
-0.0321224
0.0992322
-0.0671098
-0.0985548
0.0496351
0.0489197
-0.0401383
0.0617646
-0.0216263
-0.317345
0.101112
0.216233
0.000501462
0.00141725
-0.00191871
0.0616106
-0.174775
0.113165
0.197704
-0.127269
0.119514
-0.0814986
-0.038015
0.0173479
0.0511653
0.0218601
-0.0187396
0.0149113
0.00382828
0.0680145
-0.0559499
-0.0120646
0.0011137
9.77558e-05
0.228861
-0.0894216
-0.139439
-0.326903
0.142169
0.153253
-0.0593476
-0.0939051
-0.363899
0.182032
0.181866
0.0363914
-0.07553
0.0391387
0.106764
0.122096
-0.0888664
0.125084
-0.0362177
-0.0744963
0.0564266
0.00907146
-0.0121894
0.00311796
0.0878721
-0.0292821
0.185396
0.178295
-0.0496056
-0.128689
0.00452435
-0.00937175
0.0048474
-0.0422913
-0.0315051
0.0737965
-0.0201513
0.00310444
0.0170469
-0.114998
0.208343
-0.093345
0.182799
0.129706
-0.312505
-0.188596
0.342036
-0.15344
0.14168
0.0163319
0.00481816
-0.00481816
0.0922505
-0.0589496
0.00963271
0.0107754
0.0572391
-6.04453e-05
-0.000217843
-0.160488
-0.20341
0.159971
-0.0983607
-0.0387568
-0.00993345
0.0486903
0.188564
-0.300157
0.111593
-0.0551277
0.082071
-0.0269433
0.0123029
-0.0510597
-0.00334519
-0.00503281
0.108091
-0.328372
0.220281
-0.107058
-0.110475
0.0724403
0.112919
-0.185359
0.0735609
-0.0442805
-0.0292803
0.024264
0.0239532
-0.0482172
0.264282
-0.142351
-0.121931
0.291899
-0.183807
0.0784298
-0.0556148
-0.022815
0.0161493
-0.0311572
0.00153419
-0.00352223
0.00198804
0.110894
-0.177569
0.0666748
-0.112158
0.200572
-0.0884139
-0.23989
0.130601
-0.00372479
-0.00374438
0.00746917
-0.00206158
0.00304084
-0.00097926
-0.028174
0.0749035
-0.0453493
-0.0341845
0.0795338
-0.0283192
0.0604147
0.0550403
0.107071
-0.162111
-0.0151521
-0.0144515
0.0296036
0.027562
0.0432813
-0.0708432
0.0605092
0.0567537
-0.117263
0.0184002
-0.0585385
0.0555281
-0.0327658
-0.17659
0.36218
-0.18559
0.00832005
-0.00419886
-0.00412118
-0.0101571
-0.124597
-0.0947029
0.0571478
0.0375551
0.041308
-0.028259
-0.0130489
-0.205832
-0.111512
-0.0790426
0.0395143
0.0395283
0.0622569
-0.0445328
-0.0177241
0.0967439
0.169459
0.224848
0.0368464
-0.261694
-0.362741
0.103453
0.259288
0.102765
-0.315281
0.212516
-0.0681914
-0.0303634
-0.358146
0.196174
0.161972
0.228421
-0.339807
-0.389458
0.145092
0.0497732
-0.236524
0.186751
0.00265942
0.00564611
-0.00830553
-0.171301
0.0916063
0.0796945
0.0767128
-0.18583
0.109117
-0.127001
0.147419
0.112189
-0.259608
0.00934834
-0.0321628
0.0228144
0.00100419
-0.00378504
0.00278086
0.0672951
-0.0300645
0.155063
0.0232316
0.00599769
-0.00117953
-0.207349
0.0953327
-0.00885352
0.00600943
-0.0485553
-0.0221409
0.0706962
0.0706402
-0.0479286
-0.123266
0.0949435
-0.107894
0.211049
-0.103155
-0.0157342
-0.00441716
-0.000154217
9.3772e-05
0.200781
-0.128341
0.00922363
-0.0184015
0.00917787
-0.0726306
0.0323731
0.0402574
-0.232303
-0.157155
-0.0382684
-0.0429999
0.0812683
-0.0243557
0.0317243
-0.219941
-0.0321923
0.252133
0.049439
0.0223021
-0.234973
0.244977
-0.010004
-0.231463
0.138553
0.0929095
0.000421683
-0.000245995
-0.000175688
0.00866356
-0.00141553
-0.3387
0.274719
0.0639818
-0.0464656
-0.0155259
0.0619915
0.00126475
0.223583
0.161231
-0.197188
0.242985
-0.347339
0.104354
-0.094588
0.0498054
-0.00348828
-0.0463172
-0.0912029
0.267844
-0.176641
-0.0593585
-0.032684
0.0920425
0.00883847
-0.00883847
0.299739
-0.120292
-0.15095
-0.113457
-0.146935
0.058069
0.0747883
-0.0492993
-0.0254891
-0.00579076
0.00681948
-0.00102872
0.180353
-0.0887463
0.0307605
-0.00202997
-0.0287305
0.0723111
-0.13167
-0.00667092
0.00089721
-0.261328
0.0123793
0.035331
-0.0622577
0.0269267
0.00621138
-0.0016427
0.0843419
0.052873
-0.137215
-0.358008
0.0185284
0.33948
-0.181655
0.0622134
-0.00213263
-0.000693464
-0.373946
0.168114
0.064015
0.0153313
-0.0793462
-0.00705982
0.00971925
0.00632397
-0.00626864
-5.53332e-05
-0.0443008
-0.0318259
0.0761267
-0.102814
0.315872
0.00201364
-0.00388787
0.00187423
-0.0968969
0.0999144
-0.00301752
0.141053
0.0649472
-0.0342227
-0.00317067
0.0373934
0.000421683
0.0738531
0.00407967
-0.0779327
-0.000232853
0.00176704
0.0807755
-0.0322402
-0.0485353
-0.0758252
-0.10583
0.0335242
-0.0653593
0.0318351
0.0514477
-0.0221871
-0.0292606
0.00833979
-0.00774427
-0.000595526
-0.147654
-0.0359448
0.183599
-0.267504
-0.0517907
0.319295
0.0697507
-0.0516618
-0.0180888
-0.333878
0.157288
-0.279796
-0.0739677
-0.157495
-0.00283203
0.0846528
-0.29548
0.210828
0.232048
0.0956968
0.0968418
0.00115098
-0.0979927
0.222581
-0.0815282
0.162079
-0.33599
0.173911
-0.107336
0.0728033
0.0345327
0.353065
-0.349637
-0.00342779
0.0753998
0.0329698
-0.10837
0.0260371
-0.00526817
0.00611983
0.118576
0.0112001
-0.129776
0.0578446
0.0119061
-0.00149357
-0.0327291
0.100043
-0.319983
0.00181986
-0.00193983
0.00011997
0.135311
0.00192778
-0.00301502
-0.000507216
-0.00213263
0.0241451
-0.0220125
-0.216297
0.0804608
-0.149369
-0.0654853
-0.000961896
-2.60148e-06
-0.0698955
0.0075426
-0.176113
0.0180237
0.0604061
-0.212832
0.0978336
-0.00322843
-0.0180814
0.0213098
0.0163123
-0.00545185
0.0874348
-0.081983
0.00273274
-0.000818907
-0.00191383
-0.00183039
0.00312261
-0.0328274
0.0259201
0.0069073
-0.00677601
0.00305122
0.0364001
-0.0636866
0.0272865
0.130255
-0.117098
-0.0131575
-0.1471
0.0623344
0.0847659
0.130879
0.153278
-0.284157
0.100804
-0.0409533
0.0197137
-0.0528131
0.0946882
-0.00307984
0.00307984
0.0495406
-0.0977725
0.0482319
0.281084
-0.262758
-0.0183261
-0.030966
-0.0667626
0.0977286
-0.356134
0.00292576
-0.00297104
4.52736e-05
0.0307955
-0.0239203
-0.00687523
0.198053
-0.0368222
-0.0667051
0.000104759
-0.000258977
0.0796199
0.0307145
-0.110334
-0.00462315
0.00731671
-0.00269356
-0.118801
0.107684
0.0111167
-0.0142834
-0.0556122
0.05824
0.0292851
-0.0875251
0.0363499
-0.00558937
0.136853
-0.287747
0.150894
0.0644848
-0.299458
0.00464847
-0.00897261
0.00432414
0.10839
-0.375894
-0.219529
0.0533538
0.166175
-0.0310983
0.110089
-0.0789912
0.0790049
-0.0605924
0.00527548
-0.00253206
-0.00274342
0.0100731
-0.00338907
-0.00668399
0.043133
-0.134949
0.0918161
-0.00926345
-0.348745
0.00291752
-0.000903881
0.0320037
-0.0871314
0.306149
-0.169296
0.0966132
0.0917923
-0.188406
0.328277
-0.0129613
-0.315316
-0.0417563
-0.0118914
0.0536477
-0.254377
-0.119569
0.00505483
0.00326522
-0.0246201
0.0390515
-0.00132379
0.00182525
0.0349394
0.0165083
-0.0852122
0.128345
0.033539
-0.0868508
0.0533118
-0.094532
0.149572
-0.0786689
0.21526
-0.136591
0.0725123
-0.0230733
0.00639643
0.00367663
0.00779744
-0.00840039
0.000602959
-0.311388
-0.0513527
-0.389093
0.151072
0.238021
-0.00028814
-0.0011618
0.00144994
-0.0985017
0.0663793
0.0586287
-0.0308465
-0.0277822
0.0576031
-0.0222721
-0.0754256
0.31841
-0.0147027
0.0192314
-0.00452872
0.198989
-0.115115
-0.0838734
0.0251295
0.0480416
-0.0731711
0.0306663
0.053574
-0.0842402
-0.00719186
-0.0346229
0.0418148
0.107935
0.103299
-0.211234
-0.0630994
0.0145441
-0.0463724
-0.11549
0.0430985
0.0851104
-0.128209
-0.00118346
0.00089532
0.0615926
-0.16254
0.100948
0.00126168
-0.00138198
0.000120297
0.0219489
-0.0127253
0.133873
-0.0584082
-0.0754647
-0.163798
-0.17008
0.0994873
0.0404771
-0.139964
0.00847666
-0.0563927
0.0479161
-0.0678373
0.10489
-0.0370532
-0.0176293
-0.0794188
0.0970481
-0.12792
0.271237
-0.143317
0.142459
-0.252755
0.110296
0.00333637
-0.00233219
0.0212549
-0.0759004
0.0546455
0.0277333
-0.102015
0.0742813
-0.0362833
-0.0338738
0.0701571
0.0186078
-0.116365
0.0977574
0.259066
0.0220179
0.120523
-0.105843
0.253263
-0.0975566
-0.0745161
0.172073
-0.0901343
-0.171526
-0.132819
-0.299478
-0.0896153
-0.00922279
0.000759503
0.00846329
0.249127
-0.130541
-0.118586
-0.0477017
0.158596
-0.103582
0.0981303
0.0279595
-0.0702508
-0.0661949
0.0268995
0.0392954
0.00165682
-0.000210791
-0.00144602
-0.00592312
0.00808902
-0.0021659
-0.20513
0.144702
0.060428
-0.0592375
0.0924939
-0.0332565
0.00242036
0.00157653
-0.00399689
-0.0647559
0.228996
-0.16424
-0.0465125
-0.0754182
0.121931
0.231746
-0.123811
0.287244
-0.319436
-0.252225
0.175324
0.0769008
-0.112662
0.0783572
0.0343051
0.110996
-0.228898
0.117901
-0.106397
0.0562673
0.0501298
0.00983942
-0.0112646
-0.0677421
-0.0490013
0.116743
0.176803
-0.282646
-0.147551
0.27843
0.112899
0.103607
-0.216507
0.0447093
-0.140635
0.0959259
-0.15996
-0.0055787
0.00874029
-0.00316159
-0.238211
0.147008
-0.102528
0.0698437
0.0703668
-0.0517305
-0.0186363
-0.0103279
0.0283506
-0.0180227
-0.221463
0.156562
0.0649008
0.00244039
0.00283509
-0.0119231
0.108765
-0.029938
0.0857659
-0.055828
0.0311779
0.135968
-0.0820047
-0.0253313
0.00202581
0.000288442
-0.00231425
0.287943
-0.185178
0.090321
-0.0717133
0.0545331
0.0793397
-0.104686
-0.0141156
0.0374848
0.0151586
0.0692157
-0.0479607
-0.0010855
-9.79578e-05
-0.00796137
0.0490534
0.0264491
0.103806
0.0717709
-0.112181
0.0404096
0.0311323
0.0088267
-0.00883602
9.32173e-06
-0.141131
0.236401
-0.0952705
0.0814503
-0.24329
0.164621
-0.1224
0.233397
0.000843049
-0.00290463
0.103802
-0.0320313
0.0852912
-0.197294
0.112003
0.0808213
-0.0504177
-0.0304036
-0.00331959
-0.00129596
0.00461555
0.0948816
-0.175519
0.0806375
0.00560536
-0.00560536
-0.120339
0.089241
0.00300053
-0.00438103
0.0842368
-0.0474726
-0.0367641
-0.21815
-0.0339655
0.252116
0.0070989
0.192023
-0.106732
-0.0583155
-0.075907
0.134223
0.0441977
0.0230975
-0.0146389
0.0199434
-0.00530449
0.0411039
-0.058731
0.0176272
-0.0898501
0.0630517
0.0267984
0.0067425
0.0937443
0.0422688
-0.136013
0.0700662
-0.0258686
0.0225374
-0.0668382
-0.320997
-0.0173059
0.338303
-0.112392
0.279358
-0.166966
-0.143585
-0.114624
0.0116434
0.038162
-0.208202
0.143446
-0.244326
-0.00645834
0.250784
-0.0540933
0.0856805
-0.0315872
-0.126094
0.0677787
-0.0226903
0.0194619
-0.0636451
0.0273619
-0.00428521
0.000965622
-0.188639
0.04302
0.145619
-0.146652
-0.0157479
0.1624
0.00616647
-0.000927658
-0.00523881
-0.0475668
0.0741428
-0.026576
0.0803639
-0.401361
-0.104186
0.144717
-0.0405306
0.0929116
-0.0651783
0.0225956
0.264648
-0.0426327
-0.0520702
-0.00138767
0.00761272
-0.00622506
-0.0902399
-0.241107
0.29088
0.0498113
-0.0682395
-0.0120027
-0.0129122
0.0249149
0.084758
-0.026518
-0.0215359
0.0590207
-0.000901085
0.000719516
0.000181569
0.0641682
0.0138993
-0.0780674
-0.283324
0.170933
-0.000717714
-0.00764239
0.00836011
0.0597945
-0.150176
0.0903819
-0.0468113
-0.0452827
0.092094
-0.0780773
-0.141452
-0.0250272
0.0146993
0.0402374
0.0173657
0.390857
-0.213469
-0.177388
-0.00982994
0.000863793
-0.157213
-0.0238415
0.181055
0.168663
0.186567
0.077715
0.200641
0.0787031
-0.279344
-0.00623299
0.00335022
0.00288277
0.0026345
-0.000318231
-0.00231627
-0.130883
0.274931
-0.144048
-0.140004
0.295228
-0.0155015
-0.0880806
0.077616
-0.0785289
0.000912934
-0.00937181
0.0336358
-0.0429691
-0.0239862
0.0669552
0.00854193
-0.048851
-0.0117753
0.0606263
-0.00978198
0.00558312
0.00766987
-0.00314552
0.00561201
-0.0100772
0.00446518
0.0649955
-0.211647
-0.370748
0.138445
0.151737
-0.0296373
-0.1221
-0.00527177
0.00587108
-0.000599312
0.0868311
-0.00940781
0.210049
0.175266
-0.0421461
0.0186197
0.0235265
-0.00945777
0.000234976
-0.335368
0.19745
0.137919
-0.0226083
0.160177
-0.137569
0.37364
-0.174358
-0.199281
0.000761416
0.00172861
-0.0226699
0.100054
-0.0773845
0.0264922
-0.00967929
-0.0168129
0.0745638
0.126008
0.061176
0.0186523
-0.0798283
-0.162239
0.106021
-0.0537054
0.0872444
-0.0232007
0.0970537
0.130477
-0.319073
-0.00545285
0.000181085
-0.0829099
0.0772868
-0.0558419
-0.0214448
0.0762326
0.101324
-0.177557
-0.0517532
0.146635
-0.106169
-0.075379
-0.00852914
0.00209233
0.00643681
0.00632696
0.00567817
0.00919837
-0.00563158
-0.00356679
0.0885596
-0.30671
0.00739598
-0.0220987
0.00304697
0.00302218
-0.00606915
0.110902
-0.00678463
-0.00258711
0.0195143
-0.0659799
-0.00211163
0.0661266
-0.206841
-0.163907
-0.0743562
-0.117015
0.191372
-0.0999323
-0.0433319
-0.0292987
0.0284435
-0.0177054
-0.010738
0.108214
-0.104367
-0.00384706
-0.00240089
-0.00383211
-0.124621
-0.182578
0.307199
0.145456
-0.234619
0.0891638
-0.0344116
0.106723
-0.0421982
-0.0709343
0.113132
-0.124576
-0.110867
0.235443
-0.00265309
0.00731544
-0.00466235
-0.145298
0.119928
0.0253703
0.024672
-0.0722389
-0.0283408
0.0204856
0.00785516
0.00413203
-0.00413203
0.00107956
0.00223228
0.000116003
-0.00123975
0.00112375
-0.0420865
0.0625339
-0.0204474
0.0634171
-0.220631
-0.0753131
-0.208011
0.12573
-0.0860556
-0.113123
-0.0543647
0.167487
0.032798
-0.0888579
0.0560598
0.00038281
-0.00154461
-0.22201
0.00907146
0.0532973
-0.0740921
0.0207948
-0.00710353
0.00445044
0.0422854
0.101837
0.0276659
0.0136421
-0.103939
0.0690365
0.0349023
0.0233826
-0.0265533
0.170717
0.0269871
-0.319751
0.0564768
0.023465
-0.0799419
0.141595
0.0518719
-0.193467
-0.120785
-0.0263153
0.0402461
0.0183826
0.0750119
-0.0448928
-0.0301191
0.000841295
0.00102335
-0.00186465
0.072489
-0.0520552
-0.0204337
0.000994394
-0.00645763
0.00546324
-0.00757223
-0.000956908
0.105799
-0.0249746
-0.0808245
0.139924
-0.00576311
0.00031026
0.306005
-0.127487
-0.0724775
0.0530676
0.0194099
-0.00945365
0.00492031
0.340442
-0.35231
0.0118678
-0.151182
0.135317
0.0158647
0.0598148
-0.0195774
-0.00372904
0.0404976
0.107466
-0.147964
-0.223243
-0.205056
-0.0464553
0.0191492
0.0273061
-0.00688531
0.00688531
-0.00400331
0.00701873
-0.00301542
-0.244921
0.0590912
-0.00754841
0.00838971
-0.0753575
0.177075
-0.101717
-0.0396259
0.0610199
-0.0213939
0.116065
-0.0868751
-0.0291902
-0.100417
0.180516
-0.0800988
0.0427702
-0.0658217
0.0230515
-0.00279481
0.00511117
-0.00231636
0.148562
0.0878394
0.117575
-0.181782
0.0642063
-0.155532
-0.0893899
-0.267287
0.160545
0.106742
0.0674868
-0.0310954
0.0131055
-0.0148315
0.00172601
0.00545724
-0.00466105
-0.000796185
-0.0016151
-0.00585082
0.00746592
0.315367
-0.154478
-0.160889
0.000245814
0.00238868
0.0842996
-0.126498
-0.0392912
-0.0474793
-0.0201401
0.0676194
-0.185935
0.130345
0.0555901
-0.00436162
-0.00696944
0.12771
9.47059e-05
-0.127804
-0.0928935
-0.0370689
0.129962
-0.0360635
0.0133731
0.0410325
0.0397888
-0.00264624
-0.0652907
-0.0183242
0.0460727
-0.0277486
-0.0591475
0.0146146
-0.00397551
0.0744878
-0.0705123
-0.00947451
0.00961923
-0.000144717
0.0191735
0.0761972
0.0664657
-0.142663
-0.0252155
-0.010848
-0.0339836
-0.0441696
0.0781532
0.0787827
-0.113194
0.0912707
0.00844401
-0.0997148
-0.0521791
-0.031122
0.0833011
0.0121265
0.118277
-0.0814758
-0.0504251
0.0755546
-0.0601177
-0.0297324
0.0242251
0.0604975
-0.0847227
0.207593
-0.090845
-0.116748
-0.0211008
-0.0996365
0.120737
-0.0862708
0.0563329
0.175036
-0.10911
-0.065926
-0.0898302
-0.126467
0.186429
-0.0934217
-0.0930074
-0.242796
0.0872647
0.0717641
0.0827572
0.0204982
0.0173009
-0.0329198
0.0156188
-0.204776
0.0896608
-0.22606
0.10932
0.116739
-0.0173742
-0.0513912
0.0687654
0.00422603
-0.00714273
0.0029167
0.354546
-0.0189891
-0.115694
0.100193
0.0573826
-0.00069214
-0.0566905
0.0187049
0.319776
-0.371566
0.0760376
0.0929908
-0.169028
0.136158
0.0388779
0.0500904
-0.0866421
0.0365517
-0.152105
0.0725545
0.0795509
0.125344
-0.220765
0.0954215
-0.0707732
0.229981
-0.159208
0.00169223
-3.54157e-05
0.0033999
-0.00808188
0.00468198
0.0125205
-0.0632682
0.079166
0.0246362
-0.00567988
0.325456
-0.0900911
-0.209387
0.0503703
0.0463288
-0.0966991
-0.0450336
0.221836
0.294875
-0.141477
-0.113984
-0.037198
-0.00180854
0.000876792
0.00093175
-0.0295311
-0.0689706
0.00265272
0.0284837
-0.0311364
0.190194
0.14026
-0.330454
-0.105647
-0.0396511
-0.0191753
-0.025359
0.0445343
-0.01824
0.00360115
-0.0203292
0.00693211
0.000827977
-0.0292419
0.055275
-0.0260331
0.0252517
0.00554383
-0.327023
0.155497
-0.2821
0.192008
0.00245317
-0.00649553
0.00404236
-0.060442
0.0643325
-0.00389055
0.100363
-0.0313265
-0.0297435
0.0792841
0.00935676
-0.0186366
0.00927985
-0.0051423
-0.000620809
-0.0371308
0.00947575
-0.0670472
-0.11586
0.0276188
-0.0684751
0.0408563
0.00696107
-0.00273503
-0.080398
0.128453
-0.0480548
-0.01746
-0.00542101
0.022881
0.0992942
-0.0308916
-0.0684026
-0.0233249
-0.0511715
0.00496727
-0.0048156
-0.000151665
0.0115783
0.0511195
-0.0626978
-0.034309
-0.0525419
0.117552
-0.0329775
0.0479248
-0.0149473
-0.0536862
-0.172374
-0.0025708
0.0026868
0.0424423
-0.146628
-0.349787
0.18599
0.0814004
-0.181842
0.100442
-0.247625
0.172312
-0.00898174
0.00991649
-0.000934749
-0.154438
-0.125358
0.0958494
-0.0681216
-0.0277278
0.0913277
-0.00337418
0.0809901
-0.0389605
0.0703755
-0.031415
0.102658
-0.0234925
0.102611
-0.250539
0.00361895
-0.00162656
-0.00199239
0.0296337
-0.0225954
0.332863
-0.19498
-0.137883
0.234072
-0.0855105
-0.00743396
0.0195568
-0.0121229
-0.0984406
0.0689095
-0.0384754
-0.0476187
-0.0180294
0.065648
-0.179488
0.0945795
0.0849084
0.115564
0.00755214
-0.123116
-0.254988
0.193824
0.0611639
-0.0239475
-0.0508556
-0.00427975
0.00311204
0.00116771
0.0046674
0.00114543
-0.00581282
0.00223228
0.00138667
-0.0543663
-0.00607568
0.0663884
0.029461
0.0529601
0.0615688
-0.0499904
0.0390468
0.0820541
-0.121101
0.0146353
-0.0342667
0.0196314
-0.00314732
-0.000797823
0.0789016
-0.0256043
-0.185826
-0.0628293
0.248656
-0.0906712
0.11712
-0.00884238
0.0218112
-0.0129688
-0.0967741
0.172812
0.0250504
0.023547
-0.0485974
0.00547459
-0.00448019
0.0206873
0.0567042
-0.0773916
-0.278718
0.12077
0.157948
0.0540415
-0.0417386
-0.180559
0.105202
0.0803661
-0.0627289
-0.0176372
-0.13978
-0.103016
0.0221386
-0.0252042
-0.00744852
0.0326527
0.139998
0.0900176
-0.230016
0.101224
-0.0768435
-0.0243804
-0.103836
0.0811658
-0.234525
-0.0839614
0.318487
-0.068881
0.105178
-0.036297
0.00930579
-0.00590589
-0.029522
-0.0724925
0.0957662
0.0217209
-0.00621179
0.000421027
0.0931984
-0.0431079
0.139985
0.100419
0.00812101
-0.10854
-0.236234
0.16546
0.0723908
-0.0395928
-0.189573
-0.0654148
0.129086
0.123563
-0.252649
-0.00395751
-0.00183156
0.00578907
-0.126996
0.0355691
0.0914269
0.0637359
0.0401718
-0.103908
-0.0630172
0.154524
-0.0915063
0.228017
-0.143364
-0.155403
0.0923856
-0.15808
-0.122623
0.280703
-0.00542788
-0.0229129
-0.0112658
-0.0096687
0.0209345
-0.125042
-0.0129516
0.137994
0.0102313
-0.00296823
-0.00243193
0.00540016
0.148811
0.213369
-0.0167687
0.06658
0.274187
-0.149552
-0.124635
0.088722
0.118871
-0.33771
0.33203
-0.0921265
-0.049528
0.141655
0.00450817
-0.00208782
-0.0515743
-0.0427147
0.0942889
-0.00536793
-0.00682149
0.1751
-0.0575247
0.122273
0.00371285
-0.125986
-0.034377
-0.0340394
0.0684164
0.0116476
-0.0314583
0.0198108
0.262719
-0.296684
0.122059
-0.0966649
-0.0253939
0.00516937
-0.00441057
-0.0007588
-0.00189864
0.00244834
-0.000549696
-0.346974
0.00347809
-0.00241757
-0.00106052
-0.0150365
-0.0925728
0.107609
0.0713764
0.00898967
-0.0235119
0.101772
0.00901744
-0.00901744
0.0483689
-0.100548
-0.107359
0.210966
-0.055902
0.181246
0.162983
0.179053
0.00454471
0.117728
0.0321526
-0.157195
-0.00226106
0.000430667
0.0215333
0.0140303
-0.0355636
0.0657642
0.0443804
-0.110145
-0.0580967
0.0627418
-0.00464512
0.0552738
-0.0487644
-0.00650941
-0.0292149
0.106031
-0.123706
0.017675
0.312829
-0.18632
-0.126509
0.109365
-0.0175172
0.00582219
0.130574
-0.114255
-0.0163189
-0.103828
0.074306
0.140753
-0.0518216
-0.0889315
1.16901e-05
0.00495558
0.0635745
-0.0469868
-0.0165877
0.132638
-0.0453487
-0.0872889
0.0371499
0.0663652
-0.126163
0.0597976
-0.00762009
0.00343219
0.0041879
0.00388176
0.258837
-0.0196784
0.010836
-0.195174
0.206915
-0.0117415
0.00987829
-0.0767448
-0.0404783
0.117223
-0.038833
0.0558586
-0.0170256
0.0247219
0.0908417
0.0559345
-0.000660731
-0.0210256
0.0713959
0.0683628
-0.056826
-0.0115368
-0.0487389
0.22389
-0.175151
-0.0294143
-0.0313163
0.0607305
-0.0535511
0.0610054
-0.00745429
0.0776644
0.0275135
-0.276511
0.0419861
0.0283929
0.0578789
-0.0862718
-0.00592163
0.00843336
-0.00251173
-0.0132801
-0.0474523
0.0607325
-0.221135
0.364467
-0.143332
0.0967057
0.00211685
-0.0270337
-0.0391612
0.0568751
0.00991732
-0.114717
-0.056108
0.170825
0.0395314
-0.107369
0.230196
-0.407411
0.177216
-0.0200773
-0.0575056
0.0775829
-0.0405999
0.0632102
-0.0226104
0.0171258
-0.00869142
-0.00843442
-0.118481
0.0973803
0.042175
-0.0682003
0.0260253
0.00286927
-0.0521423
0.049273
0.183425
0.0460028
-0.229428
-0.201485
-0.13682
0.338305
-0.0414094
0.0690907
-0.026635
0.21006
-0.266747
0.0685802
0.198167
-0.13141
0.198357
-0.066947
-0.0245322
0.0667072
0.0242046
0.0429378
-0.0671425
0.106418
-0.0287535
-0.124405
0.251748
-0.127344
0.111875
-0.269955
0.166521
0.0807312
-0.120851
0.0401197
0.142414
0.0916582
-0.0263878
0.090556
-0.00311682
-0.00633683
-0.103132
-0.00373034
0.00359531
0.132029
-0.204725
0.0726958
0.00690606
-0.00629993
-0.00770947
-0.0165231
-0.0586531
-0.0683429
0.153038
-0.0907039
0.0363227
-0.0494481
0.0131254
0.182254
-0.198002
-0.00162396
0.00218225
-0.000558286
0.0291947
-0.225443
0.196249
-0.031159
0.0670448
-0.120799
0.0301282
0.00454082
0.137054
-0.0200879
0.00609365
0.0139943
0.0605605
-0.0779347
-0.226555
-0.025931
0.252486
-0.0312351
-0.0240417
0.0552768
-0.0499288
-0.0627335
-0.0984325
-0.0479266
0.146359
0.0686019
-0.164868
0.0962665
-0.00454616
-0.00276515
0.00731131
0.0217137
-0.0924666
0.0707529
0.00818477
-0.00992301
-0.0828784
0.214907
0.015823
0.029806
-0.0456289
-0.00193991
0.05661
-0.0546701
-0.00180999
-0.00076194
-0.16858
-0.181208
0.0873084
0.0382365
-0.125545
-0.241832
0.13194
0.109893
-0.00421398
0.00124576
-0.032248
0.0231619
-0.0138511
-0.00931086
-0.000776476
0.00544387
0.270426
0.06224
-0.332665
-0.0904983
-0.0332076
-0.150097
0.117625
0.0324712
-0.0081604
-0.0433094
0.067863
-0.0245536
-0.121544
0.0537222
0.067822
0.0970919
-0.0531415
-0.0439504
-0.200152
0.0240777
0.176074
0.11693
-0.0511661
-0.111161
-0.130671
-0.153867
0.19987
-0.135283
-0.116942
-0.138669
-0.0664613
0.00282504
-0.00819297
-0.226787
0.058755
0.026001
-0.0847559
0.0640733
-0.0364545
0.0811596
-0.235027
-0.0941249
0.36455
-0.0238115
0.0615307
-0.0377192
-0.0144803
0.054919
0.0289703
0.222733
-0.0517073
-0.171026
0.00141347
0.00152696
-0.00248026
0.000953301
0.178197
0.0747642
-0.252961
-0.0402437
0.0612232
-0.0209796
-0.0314069
-0.0242005
0.0556074
-0.113096
0.0105687
0.0337316
-0.0179232
-0.0158084
-0.0883908
0.0291534
0.209611
-0.0671974
-0.0715464
0.0244761
-0.0324884
0.0173363
-0.0482216
-0.101875
0.0302515
-0.0764326
0.0482586
0.0413395
0.0428973
0.0827724
0.0273171
-0.305776
0.165771
0.0718207
-0.0511334
-0.0847002
0.0378889
-0.0173828
0.0709522
-0.0535694
-0.135347
0.00269553
0.00521011
-0.0775273
-0.0302556
0.0137539
0.0165017
0.15269
-0.0913753
-0.0613147
-0.142095
0.229846
-0.0877508
0.227863
-0.361304
0.133441
0.125216
0.109492
-0.234708
0.345845
-0.175916
-0.169929
0.19398
0.131037
-0.325016
-0.0398045
-0.0729041
0.112709
-0.00050463
-0.000396456
0.096803
-0.0228225
-0.0739805
-0.0692565
0.141021
0.0694087
-0.100531
0.0943459
-0.00364548
-0.0907004
0.169727
0.0794003
-0.0127436
-0.00599599
-0.0809759
0.0356266
-0.0824691
0.0320136
0.0504555
0.0938137
0.0588762
0.199948
-0.119705
-0.0802435
-0.0138155
0.0117761
0.00203932
0.0613166
-0.0474173
0.0912717
-0.0714301
-0.0198415
-0.00140581
0.00272599
-0.00132018
-0.0273843
0.012404
0.0149804
0.244788
0.109787
-0.354575
0.050614
-0.0545895
0.0211125
0.0588134
-0.0799259
0.0552567
-0.0816445
0.0314746
0.00649184
0.00113445
-0.00762629
-0.142836
-0.145861
0.288696
0.0776396
-0.175196
-0.00430036
0.00150554
-0.0563995
-0.132239
0.00307388
-0.00835
0.00527613
-0.0761171
0.0530461
0.023071
0.0423995
-0.066345
0.0239455
0.0144479
0.079898
0.0838566
0.0622835
-0.288839
-0.0586331
-0.195744
0.101011
-0.20837
0.190143
-0.213984
-0.17928
0.111562
0.0677178
-0.211103
0.0993238
0.00909714
-0.0088484
-0.000248738
0.125938
0.097312
-0.22325
-0.00815104
0.00503422
0.336377
-0.337039
0.000662299
0.0699189
-0.105458
0.0355393
-0.00268358
-0.00449133
0.00717491
0.290103
-0.162787
-0.115931
-0.0409131
-0.00651149
-0.00560411
0.0121156
-0.0702149
0.0225962
0.148983
0.184961
-0.333944
0.000973197
-0.0261774
0.330858
-0.181874
0.215043
0.117864
0.0125024
-0.130366
0.03889
0.0215053
-0.0603953
-0.0374437
0.0557811
-0.0183373
0.0573772
-0.07476
-0.00943577
0.0095417
-0.00010593
-0.0158766
-0.0302981
0.0461747
0.134171
-0.0534402
-0.0201269
-0.00683134
0.0269583
-0.199681
0.228875
0.13173
0.0778813
0.0164183
-0.0552513
0.00209259
-0.00212291
3.03166e-05
0.0538373
0.0234494
0.0581509
-0.125893
0.0685384
-0.00256426
0.00721273
0.00770544
0.027201
-0.0349065
-0.00128468
-0.335417
0.0991837
-0.0631988
0.0337845
-0.0866455
-0.0701514
0.156797
-0.136896
0.100472
0.036424
0.0206967
0.109877
0.0269993
-0.0376393
0.0106401
0.00616647
0.0833049
0.0342777
-0.00892994
-0.0213257
0.0158895
-0.002784
0.000893403
-0.0080472
0.0071538
0.0142459
0.168008
0.124705
-0.0798294
-0.0448759
-0.00363337
0.0496123
-0.0627584
0.123268
-0.0456349