/*--------------------------------*- C++ -*----------------------------------*\
| =========                 |                                                 |
| \\      /  F ield         | OpenFOAM: The Open Source CFD Toolbox           |
|  \\    /   O peration     | Version:  v2012                                 |
|   \\  /    A nd           | Website:  www.openfoam.com                      |
|    \\/     M anipulation  |                                                 |
\*---------------------------------------------------------------------------*/
FoamFile
{
    version     2.0;
    format      ascii;
    class       volScalarField;
    location    "100";
    object      ddt0(omega);
}
// * * * * * * * * * * * * * * * * * * * * * * * * * * * * * * * * * * * * * //

dimensions      [0 0 -2 0 0 0 0];


internalField   nonuniform List<scalar> 
53008
(
-0.133466
0.00172191
0.0255244
-8.43108e-07
-0.0976366
-1.17884e-07
-2.5758e-06
-2.56101e-07
0.000432113
-1.1216e-06
7.55313e-07
-0.0019525
-1.36473e-05
-0.236512
0.425751
-0.0112041
2.98723e-06
-0.283738
-0.000144476
-1.3341e-07
9.02189e-06
-1.95337
-0.0692751
-0.11907
-9.99645e-07
3.96734e-05
-0.272714
-7.45515e-06
0.612174
-8.95153e-07
-0.000363403
5.8394e-08
0.034775
0.0612245
-1.96348e-06
-2.06184e-06
-2.52856e-06
0.0140814
-0.00028844
-0.017987
-0.185421
5.64954
1.27412e-07
3.67057e-06
-6.5689
-1.79155
0.562702
-0.0538485
0.00547952
-0.15859
4.26703e-05
-0.0882733
2.25409e-06
-0.000408453
0.00302461
0.0136206
-0.0660627
-6.43661e-05
1.46317e-06
-2.87678e-06
6.3903e-07
1.41967e-06
-4.4707e-06
4.36776e-05
1.10348e-06
-11.5409
-0.185464
-4.93182e-05
2.2003e-06
2.16339e-06
-1.81121e-06
9.17636e-08
0.000662798
7.54064e-07
-0.00100937
2.16084e-05
-3.92241e-07
-1.36959e-06
1.13455e-05
3.34482e-06
-5.49481e-07
-4.77592e-06
0.020959
-0.000380318
9.42249e-07
-0.000120858
-0.000831746
-0.00126472
-0.000518244
-1.16896e-06
-8.72935e-07
1.28372e-06
-4.70201e-06
9.91214e-07
-0.00124065
0.0712109
4.56828e-07
-9.93647e-07
-1.29403e-05
2.21952e-06
8.93497e-07
-2.23786e-06
0.0768964
-7.44251e-06
-1.67522e-06
0.537147
0.184978
-0.549501
-9.00874e-06
-0.631881
-0.0501207
-0.171925
0.0996058
2.59682e-06
0.000158415
-1.52846e-06
-0.0208317
-0.000323766
-0.000867126
0.0902304
-7.33061e-07
-3.50038e-05
0.00894321
0.000228706
2.89009e-06
-0.26376
-0.214734
-0.00463663
0.185287
-0.000140341
-4.80833e-07
-8.42386e-07
0.188222
-0.00103327
-0.182915
-1.13474e-06
-3.17484e-06
-0.000112338
-0.165065
-1.077e-06
-0.306792
-0.173656
0.00620654
4.64475e-06
-1.19237e-06
-0.000328664
0.00169704
0.00181715
8.60168e-07
3.11361e-06
0.0723232
3.15734e-06
0.000977194
0.94483
-1.68032
-3.48498e-05
-0.0842767
0.380718
-1.77579e-07
-8.29517e-06
-3.4441e-06
4.28054e-06
7.13654e-08
3.86307e-06
2.8144e-07
-0.47919
0.00601836
-0.27701
-1.66528e-07
-1.04805e-06
0.00129996
0.337861
-5.60347e-06
-0.00542789
-5.59335e-07
-4.4679e-06
1.55078e-06
-1.74269e-06
0.00616877
1.92513e-05
2.37582e-05
0.000383746
4.1459e-06
-1.34527e-07
-0.270597
2.85399e-06
1.4782e-07
0.0655111
0.000209623
0.0696038
-2.74431e-07
2.01567
-0.00146814
0.439218
-0.0664062
1.06755e-06
1.42139
0.00579803
1.08712e-06
0.110242
1.92036e-06
-7.07858
-0.00205792
7.57779e-07
-0.0136659
0.00117302
-3.36529e-07
-2.79301e-05
0.0352024
-0.171564
0.00151418
-0.0014036
-0.05875
-4.1031e-05
-1.058
1.68694e-05
-0.25163
-0.00134347
-0.17536
-0.169993
-0.00104618
1.65917e-05
2.81792e-07
0.0106445
-0.00203656
-0.208193
0.000229671
0.227154
0.000209839
6.79791e-06
-2.86466e-06
1.36323
-2.29524e-06
-0.160538
-3.01913e-06
0.141735
5.61308e-07
-3.35327e-05
0.000807983
-6.5796e-06
0.0253628
-0.00104632
-0.00202913
-0.0884527
2.53924e-06
-0.11081
-1.0446e-06
-1.67035e-07
7.08798e-06
8.3566e-05
0.398316
-0.432295
-0.00128335
-3.23907e-06
1.3834e-06
-4.33031e-07
-0.0633216
-0.00210085
1.15271e-05
0.136807
-0.163928
-0.0013237
2.56987e-06
2.72466e-06
-0.0742964
4.47562e-06
-0.17065
-0.171222
-3.8563e-05
-0.0116206
-0.000799024
1.90236e-05
-3.43527e-06
-0.000968577
-0.00033402
0.00514313
0.000171971
2.88917
1.28604e-06
-4.32705e-06
7.8571e-05
-0.0865588
-0.0159532
0.389202
-0.0134946
8.51561e-07
0.000440638
-0.161418
-3.02306
-0.114447
-0.198383
-0.0393243
0.204826
-0.00111985
3.83531e-06
-2.54204e-06
0.0228488
-4.48675e-06
-0.0751438
-0.184555
-0.169464
1.45262e-06
1.40471e-06
-1.19125e-06
0.155283
0.0271859
-9.83954e-06
3.88617e-05
0.00991081
-0.00955711
0.00887509
2.15321e-07
-3.8784e-06
4.68313e-06
0.000822186
1.89527e-06
-0.000619628
0.0511411
-0.0956222
-1.59714e-05
-0.00141763
4.75095e-07
-0.291732
-4.93426e-08
9.817e-05
-0.918534
1.06148
-9.44046e-07
-0.00591828
4.88993e-06
0.00393387
-0.0811113
-3.18821e-06
0.000231435
-0.335133
-6.05646e-06
-0.209691
-0.000310353
3.25197e-07
6.02091e-06
-0.000340709
0.000243216
-0.237798
-0.0234426
0.136367
-6.02318e-06
-0.000389158
-1.49279e-06
1.83828e-06
0.00324744
1.41345e-06
-1.06875e-06
-0.670329
2.82584
-7.11469e-07
-0.276822
0.0188414
0.239665
0.430104
-0.00199898
0.101081
-5.13369e-07
0.554794
4.2274e-06
-0.00805919
3.96062e-06
0.000687212
0.663193
-0.161725
0.0135941
-0.420444
4.00367e-06
0.00287737
-0.000131065
-2.2514e-06
-0.00101961
1.19875e-07
-0.30337
0.0224448
-2.08375e-06
-1.41649e-06
-3.88498e-06
1.94217e-06
0.0730632
1.01497e-05
1.06209e-06
-0.00643374
0.00702089
0.394501
-0.335528
0.0127289
0.199509
10.8394
3.27992e-07
0.00223112
0.0117367
-0.0484225
7.7553e-07
-3.43093
-5.72852e-06
-1.05254e-05
2.47698e-06
0.0842225
0.0556599
1.93729e-06
-2.9853e-05
4.23552e-06
0.0065525
0.003357
6.79158e-07
-0.00131655
-3.53763e-06
-0.110343
0.00996521
6.92485e-05
1.09107e-06
0.0159834
2.33025e-07
3.74559e-06
1.10235e-06
-1.59459e-06
-0.349751
4.12299e-06
-9.33585e-07
-8.25963e-05
0.000108336
6.15775e-07
-0.860423
0.00574285
1.02773e-06
-1.86851
-0.000321762
0.000145978
0.00449297
6.20697e-07
3.83485e-06
-0.798812
-2.77278e-06
-0.565244
0.0137645
-0.00817489
0.0110587
0.00123757
0.0351572
1.51472
3.38667e-06
0.000198282
-0.000351879
-0.472163
-2.91133e-06
-0.107927
-1.03085
1.89834e-06
2.97833e-07
-1.76339
-0.038007
-0.412168
0.522381
-2.2695e-06
0.362432
-2.89128e-06
-4.89158e-06
-2.32089e-06
5.15291e-08
9.87848e-06
-0.454156
-0.416978
-0.452156
0.0205995
-0.267868
-1.76811e-05
-0.0300468
-0.0170083
-0.382194
-9.94899e-07
-0.186297
-3.20867e-06
-0.673593
1.05859
-0.049295
2.40624e-06
-3.39884
-0.329757
-2.26433e-06
1.30053e-05
5.48636e-07
-0.168293
-3.03342e-06
0.18825
0.845678
-1.85197e-06
-1.25058e-06
0.491592
-1.89937e-06
0.266011
-1.11967e-06
3.81973e-07
2.7313e-05
1.15697e-05
6.72169e-05
-0.195125
0.0013712
-0.000194452
3.67491e-06
-0.329295
0.199924
-0.00138008
-4.72303e-06
-5.33432e-06
-0.0677538
0.000305268
-1.06823e-05
-0.038267
-3.82687
8.1248e-07
0.00481556
0.00290221
1.02699e-05
-9.06422e-07
3.48434e-06
0.422402
-0.270178
1.0583e-06
-0.000404918
0.0169753
-4.02017e-07
-0.166818
-9.02782e-07
-0.000194793
4.30645e-06
-0.000303061
-1.47677e-06
-0.0303047
-0.164115
-8.74002e-07
0.425271
-1.36911e-06
-0.208146
-0.000241967
-5.32042e-06
0.0574564
5.27784e-07
1.41669e-07
2.97502e-06
-0.000266543
0.179239
3.21937e-06
0.149829
0.37009
0.346833
1.04828e-06
2.05534e-06
-1.10795e-05
-3.65238e-06
-4.94688e-06
0.00146798
-0.215824
-0.0196786
-8.27599e-06
0.669586
-5.8819e-07
-0.131756
-4.4348e-06
0.0194324
-9.15539e-07
0.042903
-5.9643e-07
-0.166847
-7.03459e-05
-0.163941
-1.118e-06
5.02036e-06
3.61909e-05
-0.00121724
-0.00010376
-0.185041
1.06228e-06
-2.52071e-08
1.36761e-06
2.58469e-05
-0.0424868
-2.56811e-05
-0.00019504
-1.2089
0.0457335
6.02648e-06
0.31792
0.0101432
-0.249987
0.342785
8.61169e-07
0.0617931
-0.164801
-0.444776
-1.84741e-07
0.0757249
-1.57353e-08
-1.9971e-06
-0.00341378
0.814469
-0.029841
-5.56237
0.0350037
-1.50686e-06
0.000245237
-0.0353559
-0.467308
0.367011
1.98554e-05
-3.303e-06
0.00193557
3.35598e-06
-2.12164e-06
-6.73957e-07
8.33139e-06
-2.59152e-07
0.180618
-3.10433e-07
-0.0240568
-1.03017e-06
0.0064164
-3.29978e-06
-0.424891
-0.166962
0.465677
-0.127831
-3.36072e-06
-5.34868e-06
4.91037e-06
1.793e-05
-2.15585e-05
-3.57719e-06
-0.274752
0.0545849
2.69734e-06
-0.000127472
0.108641
1.61228e-06
-0.0753539
-0.0200144
0.0882609
4.99408e-06
0.00167897
-2.31058e-06
1.03905e-06
0.498431
-3.35402e-06
-3.07081e-06
-2.81013e-06
0.00527084
-1.23477e-05
1.18947e-05
-0.541892
8.77361e-07
-0.000380447
-2.37655e-06
-6.55848e-06
-0.107245
0.00404966
0.895194
3.22562e-06
4.18152e-06
-3.2924e-06
-5.11209e-06
-8.61676e-07
0.00613214
-0.000302057
0.1801
0.188051
-1.65439e-06
-0.27559
0.367496
1.0596e-06
3.25254e-06
0.000532025
-1.18315e-05
-0.0987933
-0.000345014
2.30768e-06
-0.0395299
-0.00436663
0.0363821
0.000155336
-2.74061e-05
3.48493e-06
3.87791e-06
0.190072
5.97288e-06
0.325483
-4.56705e-06
0.269711
-0.000638948
-2.50868e-06
-1.58092e-06
0.00141173
-2.29505e-06
0.00341442
-4.29248e-06
-0.185498
-8.50555e-08
4.78281e-06
-0.0267834
9.37225e-05
-7.00318e-05
4.5299e-06
9.20727e-07
-8.81641e-05
-6.96065e-06
-0.000235456
0.162646
2.94347e-06
-0.0501053
0.000514482
-1.84534e-05
-2.61672e-06
0.723571
-0.161302
0.000112586
0.219368
0.476261
0.000154587
-0.00114775
-6.97582e-06
4.49574e-06
4.29594e-06
0.117135
-9.01151e-05
-7.47178e-06
-0.436107
-0.000552987
-0.58028
-0.240078
-0.377479
2.61946e-06
9.65629e-07
-0.0020199
8.51044e-05
0.0197407
8.44454e-07
7.16556e-06
0.290363
3.06969e-07
0.00507827
-0.000514868
-7.62767e-07
0.574246
-9.38381e-06
-3.89841e-07
-1.11765e-05
0.0166536
-2.17465e-05
-1.33247e-06
0.000230514
-0.181562
0.402721
-0.00131488
-1.0827e-06
-5.98093e-05
0.618258
2.00024e-05
3.99892e-06
0.000233805
-0.00626788
0.594728
-0.0023912
1.82413e-06
0.0305193
-0.248714
-0.00129796
-0.000626417
0.250738
-0.00152714
0.552182
-2.89738
7.18171e-07
-3.1995e-05
-0.217426
-3.1327
1.6823e-07
-0.13649
0.0702885
4.61297e-06
-0.274675
8.94433e-05
0.000928174
-2.65824e-06
-1.71519e-06
8.7697e-07
-0.719059
-0.124551
0.161953
0.437896
0.00164624
0.0748958
0.0988567
-9.35612e-07
0.00493437
0.25553
-0.21824
-0.55421
-3.83852e-06
0.571752
-1.71813e-07
-3.77009e-06
-3.05319e-06
0.707128
2.80093e-05
-2.18337e-06
1.60986e-06
-5.85564e-06
-4.07603e-06
-1.98895e-06
0.000501429
0.0887587
0.000266008
-0.000166793
0.0236167
1.26016
-2.60876e-06
-0.000365074
6.60454e-07
-5.96783e-07
-0.0550515
4.69835e-08
-0.00167768
-6.44574e-06
-0.00138938
-0.000160437
-0.577924
-5.42223e-06
0.0071747
8.41277e-07
0.305831
8.57458e-07
-1.35896
4.07318e-06
-0.0127369
1.05278
-0.000690883
0.204658
-3.36041e-08
-2.65709e-07
-0.0673187
-3.38399e-06
-0.290059
-2.69115e-06
-0.579254
-0.0013101
-0.03275
-1.29373
0.00396464
1.33291e-06
-7.69258e-07
0.000980499
0.00141985
-0.0202065
2.61391
-6.44923e-06
-6.1795e-06
0.868705
-6.90781e-07
-2.42603e-06
4.56099e-06
0.0108714
-0.00143275
-0.136008
0.00489151
-8.8304e-06
0.308996
0.388301
-0.000120463
0.32364
-0.000230332
-0.00478042
1.31577e-06
-2.70202e-06
0.0397726
-3.7007e-05
-5.922e-07
-5.88327e-06
2.11153
0.0592406
-4.32629e-06
-2.9651e-07
1.33956
4.30415e-06
-5.22096e-07
-4.5566e-06
0.236869
2.09372e-06
-0.0386111
-4.42202e-06
1.64697e-06
-0.000969956
-1.58889e-05
0.166002
0.977957
1.39888
-0.389209
0.397437
0.0169084
-4.12065e-06
3.73332e-06
-1.24001e-06
8.13804e-07
1.69755e-06
-0.00664759
0.460112
-2.93027e-06
0.563458
-0.000521632
-4.96959e-07
0.000229747
0.0059023
-2.15147e-05
5.03454e-06
-2.73197e-06
9.17231e-06
-0.341969
0.324714
0.0105896
0.000281385
-2.55619e-06
4.68141e-07
-7.98017e-06
1.28418e-06
0.538229
-1.21387e-06
0.0420478
0.0088581
1.91483e-06
-0.277688
-1.00499e-06
7.19599e-07
-0.00495897
-1.62541e-05
-2.73481e-06
2.23174
-0.351976
-2.84841e-05
0.000978507
-0.022438
0.00488985
-0.000332803
-0.00108453
-1.56217e-07
-0.324819
1.77458e-07
3.49447e-06
-2.93209e-07
0.00523009
-1.49579e-06
-4.27633e-06
-2.08533e-06
4.07516e-06
-0.000159575
-1.80193e-05
-2.07217e-06
-2.94298e-06
-1.12894e-06
5.70586e-06
-5.59695e-06
-2.50594e-06
-2.51802e-06
-2.28595e-07
-0.0676697
-0.00932419
-8.67564e-07
7.77087e-05
2.02202e-06
-9.49134e-07
-0.117338
1.27025e-06
-2.06393e-06
-4.75264
3.54539e-06
-0.418619
-0.0895714
-0.0203651
1.30953
0.000789848
-0.024107
-2.4352e-06
-4.19354e-06
-1.47337e-06
-0.409205
-6.27951e-06
-1.73312
-0.424984
0.0024193
-0.242701
0.000733591
-2.68308e-06
-0.410676
0.00826129
3.46502e-06
0.444699
0.0734237
-0.170904
1.99198e-06
0.000125037
0.154589
2.21503e-06
0.0378888
-0.00561714
0.0805043
0.0798526
-1.88853e-06
-0.00135158
6.46939e-06
0.0453993
1.40635e-06
0.269396
-2.56673e-06
-7.23831e-06
-2.8407e-07
1.20534
-0.0156599
-2.52812e-06
-4.41631e-06
-8.29245e-06
4.18708e-06
2.33894
0.000118654
1.13878e-06
-0.00434409
-1.07159e-06
-3.81669e-07
1.2527e-06
0.000535946
4.72901e-07
0.106374
-0.960909
-0.00140514
-2.23816e-06
-0.000277044
-0.150469
0.410376
0.0856576
-0.145379
0.385296
2.95831e-06
9.36958e-05
-3.9312e-06
-0.275894
2.71402e-05
-0.360088
4.9019e-07
1.41477e-06
-0.355086
-2.76062e-07
0.194015
-0.0751803
-0.451723
-0.0825208
-2.83825e-06
0.00191956
0.0322867
-0.142386
0.222399
-5.1374e-07
1.55125e-06
-1.03856e-05
8.80979e-06
-2.73931e-07
-8.03908e-07
0.0274105
0.00610368
-1.81062
1.18638
0.00215465
-0.0830151
-0.000311753
-0.127243
1.2267e-06
0.0275131
0.114782
-0.00369035
-2.97421
-0.000183607
-0.00013493
-0.832348
-9.37307e-07
-2.2805e-07
2.87232e-05
0.000139805
-5.66121e-08
0.00448749
3.0008
-0.757245
6.49711e-05
1.38692e-06
3.20041e-05
-0.184674
-4.47146e-06
4.67264e-06
1.60573e-06
4.39291e-07
-0.669317
-0.0115602
-0.226233
2.27482e-06
-8.22209e-05
0.00385689
6.97552e-07
9.80484e-07
-1.03848e-05
-2.63792e-06
0.0575823
-0.000203466
1.2776e-07
8.41002e-07
0.221137
-6.22923e-05
-2.80674e-06
-0.000179804
0.379261
0.0827124
0.0900683
0.0408705
-0.00117641
0.108276
0.0284227
-0.00125948
-0.261307
-4.9185e-07
-1.92927e-06
-3.93353e-06
-4.18309e-07
-1.72398e-05
-0.128995
-7.08197e-07
-2.71004e-06
-0.000200685
-9.59223e-07
-0.855143
-0.193993
-3.92272e-05
0.563056
0.00813694
-0.00114125
0.382672
0.0105798
-4.46767
0.00547098
-4.06606e-05
-0.00895361
7.16351e-06
-0.0590968
-0.00106811
0.117956
-1.32752e-06
5.93552e-06
0.686185
-0.000236614
-4.59344e-07
-0.0688189
0.986517
-0.094255
-0.00020231
0.00362213
-0.143321
-12.0459
-0.133702
-4.04675e-06
0.164655
-2.21445e-06
-0.50367
-2.01059e-07
-0.396675
0.00149576
0.168212
-8.3413e-06
1.36035
0.0256479
-0.000762739
-1.59327e-06
-0.878927
6.98901e-06
2.85099e-05
-4.06937e-05
9.38493e-07
-6.10183e-06
0.0656667
-1.32045e-06
2.50808e-06
-0.00191329
-1.93308e-06
-1.35527e-06
0.0241121
3.2589e-05
6.42747e-05
0.00913764
-0.00178231
-0.00110731
0.0154735
-0.281024
0.00307292
0.15274
0.424417
1.67613e-06
-1.76814e-06
-0.000909152
0.0533412
-0.473431
-4.2223e-06
-0.152441
0.0002264
-0.000741427
-1.80424e-06
-9.29401e-06
-0.189602
-2.42711e-05
0.417856
0.362522
-0.6279
-1.01382e-06
7.53279e-06
-7.81837e-07
-1.75015e-06
-0.150915
0.00016112
-8.60098e-07
9.1119e-06
1.94384e-07
-0.134647
-0.00580103
-7.96471e-06
4.45569e-06
-4.76721e-06
1.78081
-0.183574
0.130585
0.94853
0.0846052
-1.47474e-06
0.00126908
-2.21907e-06
2.17919e-06
-0.927465
0.00268813
-0.459076
-1.66388e-06
2.4139e-06
-2.88586e-06
0.00284734
-3.66145e-06
1.55331
3.2933e-05
-0.0066467
-0.00758052
1.75331e-06
0.0210954
-2.13517e-06
0.00334062
-5.8495e-06
-2.7639e-06
6.27226e-06
-0.000319479
0.107855
-0.00761883
2.6698e-07
4.36146e-06
0.0200929
-0.011009
0.00971174
-2.77879e-06
-0.338862
1.8216e-05
-0.0721605
-5.72766e-07
-0.0701758
0.74705
0.370961
-0.086595
0.00235221
-0.00256318
7.28578e-06
2.78472e-08
-2.49136e-05
0.00362119
-0.356729
0.0013958
-0.0309364
1.9204e-06
-1.12838
-2.04755e-06
-0.16982
4.79496e-06
-6.53592e-06
-0.477368
1.26391e-07
3.00327e-05
-0.0486443
0.147384
-8.5961e-06
-2.21121e-06
1.8437e-06
4.39266e-05
-0.061178
0.157578
-3.70882e-07
-0.447964
-0.0010565
2.25545e-07
-0.325392
4.2458e-05
-0.00230228
0.172
0.000801344
6.60805
-0.00141552
-5.92557e-07
1.99447e-06
-0.504751
-0.286311
-9.29975e-06
-0.0119617
6.49048e-06
4.7016e-06
6.40683e-06
-0.41984
3.91866e-06
9.3735e-05
1.76463e-06
2.21754e-06
-7.55876e-08
1.01928e-06
-0.00017865
-6.57921e-06
-0.0695209
-1.95707
-0.00107523
0.000108047
4.60533e-06
3.67481e-05
-0.188317
-1.96121e-05
-0.356649
1.64346e-05
7.36924e-06
-1.62848
-0.0492221
0.000576009
0.965054
-7.07765e-07
-0.000217112
0.115572
-0.000290351
-1.74218
-0.000708348
-0.17309
-3.13687e-06
2.86157e-06
-0.254944
0.00389449
0.0805948
0.00627808
0.337502
-1.74147
8.67094e-05
-4.20956e-05
0.0349396
-0.00252986
0.290131
-4.46662e-07
-1.61036e-06
-0.0152967
-1.22745
-1.81776e-06
1.21355e-06
0.273672
6.18685e-07
0.00197969
0.0207494
-2.74151e-06
3.3699e-06
-0.00106007
-0.0147685
1.04318
-5.66633e-06
0.0259114
-0.0801724
-0.0439095
-1.85092e-06
1.78964e-06
0.000417562
0.0244073
-0.278858
-1.07881
-0.152452
0.468828
-6.72683e-06
-6.46717e-08
1.68056e-06
-3.12456e-07
0.0278157
0.122976
-0.0693948
-1.43562e-06
-0.000178759
-0.000937477
3.45894e-06
0.00264488
6.6409e-06
0.986442
0.000209164
1.90495
-9.15751e-07
-0.0191718
-0.0312152
0.24527
-0.193463
-5.45669e-06
3.2582e-07
-0.0614242
-1.33291e-05
-1.244
9.31833e-07
-0.0254344
2.29541e-06
-0.397701
-0.0016107
4.77868e-06
-2.20164e-05
2.47952e-05
2.50129e-06
0.000320163
-8.35578e-05
-1.10101e-06
-2.06112e-05
-4.54175e-07
-4.78568e-06
3.30985e-06
-6.55906e-07
-0.166357
-0.037241
-0.00890849
0.243569
0.061722
-0.000677657
6.33221e-05
-0.344022
5.48742e-07
0.620932
-2.28586e-07
-0.00028617
-1.15086
0.141532
-1.31452e-06
-0.000744374
0.0680158
-0.196649
-0.0154338
0.0704942
-1.9857e-06
3.75442e-05
5.33714e-06
0.00569322
-4.17527e-07
0.100589
1.26984e-06
2.53981
-1.95917e-06
-0.00882068
-0.000332427
-5.00394e-06
2.64819e-05
0.00228054
-0.483531
-0.276899
-6.97532e-06
8.56907e-07
0.116175
-0.075508
-3.24339
4.30071e-05
-1.25226e-06
0.000482679
0.00606297
2.17997e-06
-6.16919e-06
4.84775e-07
-6.52504e-06
0.916621
-0.00144431
-8.75316e-07
0.000551258
-0.0943741
1.09863e-06
2.79682e-06
0.0553314
-0.137198
-1.05708e-06
-0.000744563
-5.45122e-07
8.86704e-07
-0.338192
-0.035692
-0.000884244
-2.11806e-06
-0.000148156
7.77191e-07
-2.69982e-05
-1.19302e-05
1.93389e-05
-5.03364e-06
-2.07678e-07
-2.89418e-06
0.0676606
-7.95596e-05
-0.187634
0.0215844
-4.8773e-06
0.000675651
0.0467645
0.00372369
-0.953961
-2.68279e-06
0.0204818
-0.331522
0.0013025
-0.00181147
0.180308
-0.444263
3.253
-7.86262e-07
-0.0758352
2.48103e-05
0.370352
0.79745
2.18832e-06
0.00486322
0.552057
-0.220596
0.718893
-0.072249
-3.02004e-06
1.31211e-06
-9.05138e-07
-0.0537526
0.712992
0.00020698
-4.30546e-07
-3.67377e-08
-2.30829e-06
1.29591e-06
-7.41034
0.60841
2.39488e-06
-3.56874e-05
1.24764
3.53519e-06
0.0120208
-1.76516e-05
0.378678
-0.040292
3.68722e-06
-0.00343156
-4.16692e-06
2.62939e-06
-0.118299
0.993303
-0.100028
2.15235e-06
1.94913
-7.80966e-06
8.93068e-06
-4.52327e-06
1.46582e-07
8.73047e-07
-2.1156e-06
-2.42921e-06
0.106999
0.522593
-0.00656308
0.20964
0.315346
-1.26344e-06
0.0967986
-2.02186e-06
-0.336814
1.06536
0.0507365
-0.0549248
-7.45191e-06
-3.15745e-06
-1.86778e-06
-0.245367
-2.72414e-05
-2.23477e-06
0.00169477
1.23561e-06
-3.60336e-06
-0.00276719
-0.232898
-6.65914e-06
3.86717e-06
-0.147076
-0.267781
1.89755e-06
-0.000195368
-0.000343663
-1.17621e-06
0.0840064
-0.201418
1.15775
-0.0295928
-1.78286e-06
-0.360767
-8.25864e-05
0.0787144
-5.69983e-07
-1.58467e-05
2.20649e-06
-7.00865e-06
-8.02318e-07
0.561492
0.0223048
-1.66163e-06
0.263799
0.0541961
-4.48535e-06
2.1744e-05
-0.0270477
0.196377
0.000104245
-5.43174e-07
0.000236441
-1.46161e-05
-1.27316e-06
-1.58819e-05
0.00762035
0.0109911
0.000291591
-0.935979
4.39466e-05
9.80255e-06
0.0649478
-0.373234
-0.0088212
1.48252e-06
-3.65397
2.00622e-05
2.53647e-06
-0.0794277
1.25896e-06
-1.64535e-06
9.07862e-07
1.38622e-05
0.0433843
-0.0172344
0.0482314
-5.7462e-06
-0.0284052
-3.48615e-06
0.325656
-2.6943e-07
-0.230283
-0.105252
-0.000648101
-0.448399
-1.03687e-05
2.67655e-06
-0.0744377
-0.00711901
-0.000320098
3.43686e-06
0.887784
0.0028459
-0.299494
-1.53465e-06
2.49802e-07
0.000872912
-1.64329e-06
0.0387002
0.243931
-3.15226e-07
2.81523e-06
5.31488e-05
-5.46638e-05
-5.67802e-06
-0.0850841
-2.33971e-06
5.17748e-06
0.0849066
4.07891e-07
0.00197126
-5.64412e-07
1.20262e-06
2.63304e-06
-0.492562
0.258589
-0.043195
-8.67792e-06
0.0641688
-0.0652057
-0.0807499
6.24796e-07
-0.0260829
0.000320684
-1.65324e-06
-0.400412
-1.20571e-06
-3.84331e-06
-1.51305e-06
-1.41297e-06
-1.18594
-2.24232e-06
1.31662e-06
-2.76573e-05
9.7129e-07
0.00787566
-0.967292
-0.00058855
-2.59145e-05
-0.00795192
-2.75111e-07
0.0631073
6.52888e-07
-0.0147805
0.45735
0.24185
-0.0882092
6.97246e-05
-0.0396339
0.740945
1.83065e-06
7.75581e-07
0.115024
0.0944492
0.0789312
0.000247189
-0.016437
0.000110922
-7.45889e-05
-0.366444
-0.0326666
-0.000239703
-0.251932
0.302991
-6.05884e-06
1.07163e-06
-0.00593241
0.0538029
6.66103e-05
-2.83131e-06
3.89779e-06
-0.00145789
0.513575
0.855304
0.105866
-0.0817605
-0.114847
0.0789388
1.19625e-06
0.881987
-0.188088
2.01406e-07
-2.03439e-06
-0.149596
2.86383e-06
-0.0657624
3.62836e-06
-0.00033885
4.33258e-05
-8.56412e-06
-3.97191e-06
1.30143
-0.0226324
-4.40805
-1.16393e-05
-0.302492
0.000528107
-1.92527e-06
0.398588
-2.07657e-07
2.61575e-06
0.0897439
-7.45703e-06
0.0340857
2.13511e-06
-3.07244e-06
-0.000884827
-0.105662
5.7902e-06
0.640963
-0.155306
-0.289268
-3.45592e-06
-2.86601e-05
-0.0513849
-3.00291e-05
0.62634
-1.51109e-06
-6.37247e-06
0.226051
-1.11994e-06
1.10799e-06
5.74509e-06
1.00148
-3.80754e-05
0.234703
-3.87126e-05
1.23743e-06
-6.05583e-06
-1.57471e-06
0.0708961
0.000374821
0.235307
0.18136
0.00469082
-3.97887e-06
-1.49102e-06
1.23597e-06
-0.00483351
1.34966e-06
-0.462445
-8.54157e-07
-0.00154374
-1.29612e-05
0.000285164
1.40647e-06
0.0137229
0.0209336
4.58603e-07
0.0068032
0.152881
6.97814e-07
4.46381e-07
-0.0440764
0.0019488
2.65336e-05
0.831805
3.50213e-06
-6.09259e-07
0.205962
0.0109213
-3.26156e-06
-0.358759
-0.000841546
0.661578
-0.0025744
-0.0639902
-0.00056102
0.0864158
-6.58417e-05
1.32134e-06
-0.0641969
-4.47533e-06
-1.18145e-06
1.9142
-1.33832e-05
-2.49193e-06
0.0021539
-0.230478
-0.0548691
-1.07876e-06
0.000477868
3.22111e-07
-1.6243e-06
-0.279787
-1.9815e-06
0.625819
-0.0349232
-2.87463
-0.202792
0.0305973
-0.00253052
0.000250579
0.207844
-1.13921e-06
0.115197
-0.0644355
1.33981e-06
2.14094e-07
0.0963047
0.00232175
-0.239536
-2.12084e-06
1.0915e-06
0.071249
-9.57983e-06
0.0553148
-8.096e-06
0.0436214
-0.189507
-0.00241947
-3.50154e-06
5.51015e-07
-0.0695454
-0.0323793
2.65633e-08
1.98877e-06
3.09313e-05
3.79947e-06
0.566945
-5.05908e-06
0.000259841
8.548e-07
-0.00138935
8.61543e-07
-3.65573
-1.32387
0.00365961
0.0368756
-0.00212667
1.90303e-06
7.42519e-07
1.91528e-06
-5.09674
-3.61161e-06
1.65319e-06
1.53738
1.08974e-06
0.191559
1.62084e-06
-3.22407e-05
-0.129019
-7.97755e-07
0.0929942
-4.20717e-06
-0.000321309
9.12684e-06
2.6587e-06
3.32253e-07
3.99266e-06
5.71201e-06
0.0625462
0.587396
0.142472
2.05088
-6.63312e-07
-0.0571223
4.94599e-07
-1.59912e-06
1.27056e-06
-0.0297154
0.0326934
2.37824e-06
7.74252e-07
-0.108998
-1.29917e-06
2.25698e-06
0.983445
1.15287
0.000101085
-2.20299e-06
0.266332
-0.569233
-1.07318e-06
0.353236
-7.63827e-06
2.19475e-06
-0.000295759
-0.0746565
2.22929e-05
1.00037e-05
-0.092242
0.0233798
0.00543485
-8.88414e-06
0.132629
0.000936643
-0.2881
0.586406
6.6145e-06
-0.000977052
-1.48563e-06
-0.0115884
-0.364036
3.56571e-07
-0.243835
0.0598627
0.00175766
-3.09794e-06
0.00471557
-0.737608
-0.368795
1.13226e-06
0.162085
8.2687e-07
1.13289e-06
-0.0535192
-1.71618e-06
1.36745e-06
-2.84713e-06
-0.00153119
-0.0136112
-8.79081e-06
0.00355031
6.94047e-07
-1.05068e-06
-0.161668
0.00336836
-9.3224e-05
0.00107572
-0.0837803
-3.89308e-06
-0.0021195
-1.86048
1.26648
-1.3682e-05
0.00856982
-2.165e-06
-0.0654831
0.571535
4.89685e-07
-0.0785874
0.000312633
0.0124559
-1.3765e-06
-0.00151275
0.124759
-1.93383e-06
-0.448341
-7.85661e-06
-1.84258e-06
-7.68038e-06
4.09862e-06
0.0352263
-2.16499e-06
1.00265e-06
0.0181674
2.25091
3.796e-07
-0.000520776
6.28973e-06
-6.16029e-06
-0.00120115
0.127828
-4.27388e-06
-0.0026336
-6.72632e-07
0.000653784
0.000190687
-0.00363515
-0.0120146
0.013177
-5.09629e-07
0.0506586
-0.0248217
3.34058e-06
0.677445
-0.318464
-0.143127
-4.01167e-06
-2.66994e-07
1.71317e-07
-3.78321e-06
0.000474566
0.0674058
0.482288
1.96401e-06
6.47736e-07
-0.0578358
0.511093
3.42149e-06
0.0486695
0.00660087
1.04493e-05
-0.021643
-3.58289e-06
-0.071635
0.00415269
-3.99251e-06
-2.56207
0.0728036
-1.30582
0.332687
1.03264e-05
-6.47446e-06
-0.00506355
-1.12561e-06
-0.451829
3.13383e-06
-0.000358949
0.00367117
-0.300405
2.22561e-06
-0.0937185
-0.00671258
0.0716756
-0.203906
3.63269e-06
-0.0348632
-0.361747
0.0934245
3.16898e-07
-2.60815e-06
-5.39269e-07
1.36257e-06
-1.99845e-06
-1.68183e-06
0.00959818
-4.05856e-06
1.93422e-06
-0.614412
2.2262e-05
-0.000326881
0.00110178
-7.52206e-06
-0.0300973
-1.26644e-05
1.16128e-06
0.00366019
-0.163838
-1.36233e-05
-2.17002e-05
-1.08566
0.124678
-1.59991
5.83427e-06
-0.0229557
0.0152565
8.81001e-07
-0.163156
-0.000280378
1.86241
-8.18391e-06
1.41306e-05
0.0536796
-0.0914743
-0.00136583
0.00312757
-0.237311
-0.229814
2.01411e-05
-3.79207e-05
3.58952e-06
0.663591
-0.00114342
0.135776
-2.21716e-06
1.83246
-8.18135e-06
-0.233924
-1.22271e-06
-0.000442345
0.00459617
0.00517518
0.0927299
-2.13364e-06
-0.166389
-0.135453
0.281963
2.78373e-05
0.00269837
2.21464e-05
-0.03495
0.150958
2.24239e-06
3.56951e-07
-0.133106
0.529784
-0.357552
-0.0524327
0.257993
3.7068e-06
0.0375572
0.979892
3.49855e-06
-3.98748e-06
-0.0174545
0.000323266
0.0442185
-1.2741e-07
-3.73099e-06
-3.96603e-06
-1.16403
-0.0478242
-1.54694e-06
1.45374e-06
-3.57433e-06
-7.57005e-05
-0.000884421
-0.0160229
-0.00576252
1.85334e-06
-4.36077e-06
7.34788e-07
-0.993227
-2.502e-05
1.31867e-06
0.00958526
0.670393
-0.000199689
4.41657e-06
-4.10204e-06
2.20068e-06
0.264661
-2.25088e-06
0.00133082
-4.01652e-06
-1.64396e-06
0.0016895
0.0354796
0.0649865
-0.0262349
0.0189683
-0.61867
5.34736e-06
-1.3122e-06
-0.0336672
0.00171609
2.14955e-06
-0.00157723
-0.00103804
-6.08137e-07
1.51722e-06
-0.530787
-0.000103106
1.75019e-06
-1.40985e-05
-0.0453865
-2.4384e-06
9.75971e-06
1.53234e-06
-1.33097e-06
-0.00209333
-5.53255e-06
-2.26079e-06
1.45316
-0.000411709
9.78326e-06
8.21482e-07
0.069695
2.35234e-05
0.00455739
0.0398314
-7.71752e-07
-1.17001e-06
-0.215398
0.271591
5.58379e-06
-0.190108
0.0866042
0.000108427
-0.00299339
0.312707
1.37295
0.917483
-6.36114e-06
-0.0389627
8.71497e-06
0.00559267
3.70301e-06
0.00456253
-1.22496
-0.110519
-0.00112265
-0.0276196
0.0579713
1.9247
-0.000205435
2.38375e-06
-0.216049
1.09879
-8.36362e-06
-6.64859e-06
-0.162372
-6.19274e-08
0.000138767
-0.0754471
-3.52077e-06
7.13868e-05
-7.68692e-06
0.00131541
0.00330618
0.0169707
-0.00120496
1.11876
0.000112821
-3.5863e-06
2.99023e-06
-1.62333e-06
1.41973e-06
0.533377
-2.74382e-05
-0.00121474
1.4611e-06
7.9973e-05
5.11035e-05
0.034037
-0.00322356
-5.57867e-07
4.72163e-05
-1.10656e-06
5.95052e-05
-2.92478e-06
-7.44168e-07
2.65277e-06
2.04673e-06
-0.207833
-1.95889e-06
1.48997e-06
1.66213e-06
0.289037
4.74451e-06
-9.66756e-07
1.62644
0.00920039
1.7078e-06
-1.78676e-05
2.43089e-06
-2.35923e-06
-0.0203108
0.312308
0.0175721
-1.42518e-05
-0.000138808
-4.03039e-06
-0.00226603
-8.12807e-06
-1.75512e-06
1.93209e-07
-4.43967e-06
0.0338563
-2.08441e-06
0.0110772
4.26928e-05
0.212709
1.64731e-06
0.0544005
-3.36327e-06
-2.98605e-06
1.15764
-1.70507e-06
2.69602e-06
-0.000422748
-0.00214731
-3.0453e-06
5.73734e-06
-0.0164113
-0.0015582
0.0493536
8.38361e-07
0.43227
-7.35536e-06
2.58852e-06
-0.00125488
-0.0814032
0.759883
-1.99803e-05
-0.249986
-0.0972633
-8.78325e-06
-6.09194e-05
-0.930913
-0.00262334
1.88941e-06
-0.000404121
1.60712e-06
-0.051357
0.00107018
-9.11944e-06
-0.0236461
-0.0117627
-6.72348e-06
-0.208147
-0.000775833
1.29552e-06
1.90238e-06
-2.76628e-06
-5.15705e-06
3.58066e-07
0.195039
-0.00871542
3.08719e-06
-0.00627547
0.804079
-0.00109702
0.00520239
-1.98029e-06
-3.09468e-06
-0.00485267
0.00010792
-0.117272
1.10993e-06
-2.92793e-05
-0.13639
2.58793e-06
-0.0420938
0.0237936
0.142721
-0.169816
-2.05867e-07
-9.1786e-07
4.69354e-07
-4.97055e-06
3.88313e-05
7.38446e-06
-3.61013e-06
0.002936
3.27554e-06
0.00137928
-4.97065e-05
0.108751
3.56494e-06
2.3314e-07
-2.49308e-06
-0.00105475
-6.72159e-07
8.41986
-0.00156756
2.3913e-05
-0.00165522
-0.218978
0.0249488
0.00127076
0.00100946
14.7909
-5.89897e-06
0.0126071
3.07852e-06
-4.30217e-07
-1.14596
6.05848e-06
-0.0206137
-0.000618778
0.0063599
-6.75712e-05
-9.75762e-06
5.44625e-06
-0.000908187
4.3877e-06
-0.00854824
-1.04442e-06
0.0223101
-0.00800298
4.72264e-06
-0.0106795
-0.00395467
-0.000798078
-0.00034148
-0.318345
1.00264
1.48438e-07
-7.136e-06
-0.0441261
1.33825
4.34493e-07
0.120886
-0.00185265
-0.00135316
5.52747e-06
6.99995e-06
-0.00836841
-0.000825566
-6.49634e-08
-0.173495
-0.161151
-0.00183073
-0.0517221
-0.0021198
0.355258
0.0217522
0.421153
-0.000714347
0.0355596
2.07512e-08
2.54282e-06
0.000453243
0.0930533
-2.3693e-07
6.26285e-05
1.02268e-06
-6.3764e-07
1.2844e-06
-0.000833535
4.92253e-06
0.416597
-0.0159953
-3.68095e-06
1.04108
3.2095e-06
4.86956e-06
0.6285
-0.000685625
-0.00476344
0.0948114
-2.23134e-05
-0.000706362
-6.26964e-07
-0.00135691
-5.93485e-05
0.105509
0.106772
2.78819e-06
-1.02498e-06
-0.00219131
-6.54883e-07
5.69213e-06
-0.00364461
-8.41518e-07
-0.302565
0.00410109
2.36822
-1.50078e-06
0.000193864
-1.59052e-07
1.15964
0.273818
-0.0253102
-0.00267533
-0.0679155
0.148122
-7.20289e-05
-0.00822753
0.377471
-0.000354861
-0.00324374
2.42643e-08
0.60921
0.0389462
0.000186608
-0.0118543
7.20265e-08
-0.00826226
-0.00475636
3.38649e-05
-6.0367e-06
-0.0461273
3.31377e-07
-0.000867499
0.00274659
8.90375e-06
2.14709e-05
-0.00132773
-0.00127008
0.0247126
-1.40847e-05
1.79894e-05
-2.11136e-06
-9.46589e-06
0.000481162
-4.87773e-06
4.49259e-06
8.35123e-06
6.31954e-07
-8.43058e-06
2.27618e-05
6.32556e-06
4.70991e-06
9.00705e-07
-0.00398252
0.043542
-0.178239
-4.67403e-07
-0.0860465
-2.10515e-06
-0.00253314
-3.19186e-06
8.44226e-06
4.57166e-07
-1.22003e-05
8.07104e-07
-2.75721e-05
0.338305
-0.296045
-0.00171109
3.94503e-06
2.11519e-06
0.0457321
-0.00279519
0.0874479
-2.03508e-05
7.51094e-06
-1.59355e-06
0.340657
5.18901e-07
0.0040656
-2.15923e-05
0.00158491
2.31842e-06
-0.00200532
0.040004