/*--------------------------------*- C++ -*----------------------------------*\
| =========                 |                                                 |
| \\      /  F ield         | OpenFOAM: The Open Source CFD Toolbox           |
|  \\    /   O peration     | Version:  v2012                                 |
|   \\  /    A nd           | Website:  www.openfoam.com                      |
|    \\/     M anipulation  |                                                 |
\*---------------------------------------------------------------------------*/
FoamFile
{
    version     2.0;
    format      ascii;
    class       volVectorField;
    location    "100";
    object      ddtCorrDdt0(U);
}
// * * * * * * * * * * * * * * * * * * * * * * * * * * * * * * * * * * * * * //

dimensions      [0 1 -2 0 0 0 0];


internalField   nonuniform List<vector> 
53008
(
(-0.121548 0.0190536 -2.38967e-21)
(-0.018889 0.0244227 0)
(0.0166878 0.00747204 -6.63265e-23)
(-6.70975e-05 -0.000136407 1.55673e-21)
(-0.0695691 -0.0185981 -1.72587e-22)
(-0.000137181 4.25543e-05 -2.17304e-23)
(-0.000295373 4.34772e-05 5.91562e-21)
(-9.68666e-05 -4.08629e-05 6.31746e-22)
(-0.00434537 -0.0105062 -1.50817e-21)
(-9.04754e-05 -6.92723e-05 5.67233e-21)
(-9.32206e-05 -1.73277e-05 -2.57659e-23)
(0.0245561 -0.0210323 -1.98885e-21)
(-0.000388461 5.10416e-05 3.33961e-23)
(-0.0557318 0.206398 0)
(0.0106629 -0.00853132 1.15621e-21)
(0.0979089 -0.0319363 -8.01046e-21)
(-0.000102918 -8.52339e-06 0)
(-0.0823459 0.093588 -6.78324e-22)
(-0.000241249 -0.00208224 -7.95769e-22)
(-0.000188129 0.000152093 2.1847e-21)
(0.00010514 -0.000632212 3.36687e-21)
(0.128815 0.339768 -2.00669e-20)
(-0.301747 0.0930976 2.33081e-21)
(0.016799 0.138426 5.00856e-21)
(-9.12398e-05 -6.75739e-05 -2.2928e-21)
(-0.00479581 0.00346835 2.43406e-21)
(-0.0867961 0.125694 5.12e-22)
(-0.000141049 -0.000298505 -1.8316e-23)
(0.0236085 -0.278472 2.91371e-21)
(-6.51805e-05 -0.000134187 2.79809e-21)
(0.000222509 -0.002393 0)
(-0.000185866 0.000157159 5.25908e-21)
(-0.00201544 0.273428 4.80641e-21)
(-0.0059548 0.0195386 -4.99481e-22)
(-0.000117858 -1.46227e-05 -4.37959e-22)
(-0.000117999 -1.27248e-05 0)
(-0.000144579 3.44114e-06 -1.43252e-21)
(0.0346108 -0.0368148 5.17081e-22)
(-0.00735336 -0.00278293 -1.01595e-21)
(0.0450718 0.00427041 -6.56749e-22)
(-0.00222788 -0.209123 6.65466e-21)
(0.289865 0.168785 0)
(0.000161226 -0.000274524 0)
(-3.22533e-05 -2.36323e-05 0)
(-0.0504802 0.0959424 -1.19018e-20)
(0.143921 0.316295 1.40973e-20)
(0.0250361 0.000932128 -3.53392e-22)
(-0.0726063 -0.0257631 -2.41843e-21)
(0.0289746 -0.0370456 0)
(-0.00130403 0.00402533 0)
(-0.00344978 0.000725225 -2.36123e-21)
(-0.0168148 0.0298846 0)
(-0.000164691 8.32372e-06 -3.19193e-21)
(0.0063429 -0.00111341 -5.69671e-21)
(-0.0136039 0.0160523 -2.98389e-21)
(-0.0149545 0.0213551 7.61883e-22)
(0.153195 0.0178856 2.94069e-21)
(-0.00245723 0.00132952 1.60426e-23)
(-0.000114037 0.000164239 -1.09672e-21)
(-9.61312e-05 -4.62198e-06 -6.10553e-22)
(-0.000217405 6.09067e-05 0)
(-0.000146312 6.88302e-05 9.08169e-22)
(-0.000698723 0.000650349 -3.12195e-23)
(-0.00347368 0.000485533 0)
(-0.000117822 0.000161261 0)
(0.210124 0.15163 -1.64515e-21)
(0.0247712 0.0138397 0)
(-0.00136188 0.00113035 0)
(-0.000237943 -0.000292251 -1.62609e-21)
(-0.00016582 0.000139526 4.22218e-21)
(-0.000221731 -3.53622e-05 0)
(-5.94008e-05 -5.72119e-05 4.4976e-21)
(0.00500999 0.00387474 0)
(-7.6812e-05 -3.84606e-05 3.98827e-21)
(0.0017695 -0.000575662 -6.48031e-22)
(-0.00241081 -0.000307397 -1.46185e-21)
(-9.9547e-05 -4.15963e-05 0)
(-0.000131541 -4.66949e-05 -1.7987e-21)
(-0.0045439 0.0037855 3.58208e-22)
(-0.000230626 -0.000256473 0)
(-8.92905e-05 -6.84796e-05 -2.52876e-21)
(-0.000105724 -6.75811e-05 0)
(-0.0128363 0.0208237 -5.62939e-23)
(0.000275846 -0.00234605 0)
(-9.28482e-05 -4.4957e-05 1.43234e-21)
(0.00211133 0.000570926 1.22381e-21)
(0.00422596 0.0047039 2.97642e-21)
(0.00313742 0.000236073 1.21617e-21)
(0.00409904 0.00727698 0)
(-0.00019152 -5.91353e-05 0)
(-0.000119571 -4.07556e-05 0)
(-0.000208822 6.19841e-05 -2.03915e-21)
(-0.000408235 -1.87591e-05 5.70518e-21)
(-9.05836e-05 -4.06118e-05 0)
(0.00287034 0.000367704 0)
(-0.0363061 -0.1914 -1.33064e-20)
(-0.000120312 -4.3718e-05 -1.81091e-21)
(-0.00012074 -3.82273e-05 0)
(-0.00039232 9.94986e-05 0)
(-0.000162714 0.000135812 -5.98019e-21)
(-0.000219433 6.54283e-05 -1.26591e-22)
(-9.36375e-05 -4.53179e-06 0)
(-0.307634 0.126745 0)
(-0.000168616 -0.000277543 1.77664e-23)
(-0.000222712 -2.48268e-05 3.96255e-21)
(0.0253248 -0.00814096 -2.38525e-21)
(0.068703 -0.0421602 -4.38563e-21)
(-0.334104 -0.435353 -3.28192e-20)
(-0.000680254 -0.000542709 0)
(0.0348787 -0.0656123 -2.22757e-21)
(0.00220714 0.0128237 8.10811e-23)
(0.0309241 0.0111509 1.61261e-21)
(-0.0962223 0.402153 0)
(-2.4896e-05 -7.19182e-05 -7.1246e-22)
(-0.00391541 -0.000565596 0)
(-0.000273407 -0.000281587 0)
(-0.0110921 -0.0548752 0)
(0.00579487 -0.00133655 5.89919e-21)
(0.00465727 0.0045926 -2.00756e-22)
(-0.0423183 -0.175656 1.27065e-20)
(-0.00011622 -4.66045e-05 -4.9989e-24)
(0.000455392 0.00071775 3.60801e-21)
(0.00813404 0.0179202 0)
(-0.00540648 -0.00225608 -2.88447e-21)
(-9.79413e-05 -6.59084e-05 0)
(0.144945 -0.0392903 1.16781e-20)
(-0.0474442 0.525664 7.8606e-21)
(-0.082495 -0.0667695 1.34704e-21)
(0.00134149 0.00264313 0)
(-0.00027289 -0.00208087 7.72755e-22)
(-9.25992e-05 -3.21292e-05 -1.93192e-23)
(-0.000118065 -4.53863e-05 -2.17979e-22)
(-0.0510476 0.348055 0)
(0.0116335 0.0169954 0)
(0.0265459 0.0132482 0)
(-0.000191196 -5.47619e-05 -1.68214e-21)
(-0.000110166 5.9431e-07 -2.07654e-21)
(-0.000840196 -0.00206705 1.32345e-22)
(0.0323709 0.010719 5.55959e-22)
(-9.30037e-05 -3.11327e-05 -1.5896e-23)
(-0.00826611 0.203959 0)
(0.0295596 0.0110055 1.0132e-21)
(-0.0124041 0.0225522 0)
(-0.000179165 -6.32232e-06 0)
(-8.66e-05 -7.7229e-05 -3.28262e-24)
(0.000133527 -0.00237617 9.30281e-22)
(-0.0226372 -0.00418063 5.8847e-21)
(-0.0169047 0.0246883 -7.15588e-22)
(-0.000179199 4.69297e-06 1.62436e-21)
(-0.000158995 -0.000151914 0)
(0.0351836 0.00382661 0)
(-1.12471e-05 -4.35317e-05 1.03538e-21)
(-0.0156803 -0.0157565 1.80954e-21)
(-0.0620589 0.0994398 0)
(0.137664 0.308747 -1.18707e-20)
(-0.000559051 0.00103002 -6.21709e-21)
(-0.156587 0.0299274 0)
(-0.285649 -0.162139 -5.99421e-21)
(-0.000138067 4.28533e-05 0)
(-0.000715996 -0.000561237 1.89184e-21)
(-0.000101439 -0.000125077 0)
(-3.64928e-05 1.54274e-06 1.3206e-21)
(-9.40918e-05 -2.25624e-05 2.92781e-23)
(-0.000161533 -0.000123118 0)
(-9.37325e-05 -2.24439e-05 -8.42941e-23)
(0.0213917 0.146764 0)
(0.0206627 0.0138912 0)
(0.147691 -0.065772 -9.4798e-21)
(-0.000109687 -5.02805e-05 -5.4891e-23)
(-0.000109954 -2.15054e-05 5.71517e-24)
(-0.0191168 0.0109756 3.34631e-22)
(-0.271258 -0.145938 -1.44405e-20)
(-0.000147293 -0.000433489 -3.70734e-21)
(-0.0818833 0.0768752 6.5367e-22)
(-9.02387e-05 -6.60734e-05 0)
(-0.000136377 4.41816e-06 1.70523e-22)
(-0.000173894 6.43124e-06 -4.78149e-21)
(-0.000273457 -0.000274917 -2.09104e-21)
(0.0199375 0.0140425 0)
(-0.00230599 -0.0003332 3.35279e-21)
(-0.00289343 -0.00766054 3.20828e-21)
(-0.00327618 -0.0102334 -5.49863e-21)
(-7.6393e-05 7.48452e-05 -3.1654e-22)
(-0.000138256 3.766e-05 0)
(0.11587 -0.173997 1.18691e-20)
(-2.3765e-05 -5.5626e-05 -6.09396e-22)
(-9.51162e-05 -1.81725e-05 -1.07646e-22)
(0.035858 0.00410773 4.6075e-22)
(0.0451162 0.00387443 0)
(0.0273407 0.00449392 -1.00904e-22)
(-0.000101597 -3.96351e-05 -1.42287e-21)
(0.165242 0.0314827 0)
(0.0140467 0.0128383 0)
(0.0688965 -0.0425807 0)
(-0.0171395 0.0298705 0)
(-9.05351e-05 -3.90963e-05 0)
(0.170594 -0.0713331 -2.8565e-20)
(0.0410295 -0.0146708 0)
(-8.78863e-05 -3.57646e-05 0)
(-0.0886549 -0.484128 4.30494e-21)
(-0.000171692 -0.000187792 1.12599e-21)
(-0.0675573 0.0960665 -2.26542e-20)
(0.023136 -0.0166321 -9.4572e-22)
(-7.35354e-05 -3.01222e-05 -1.59699e-24)
(-0.0711586 -0.0750265 0)
(-0.0219255 -0.00835757 -3.75283e-21)
(-0.000102851 -3.8853e-05 0)
(0.000247908 0.000722906 -4.11737e-21)
(0.10372 -0.0264166 8.29335e-21)
(-0.0109527 -0.221826 -8.01527e-21)
(-0.0209351 0.010477 8.34803e-22)
(0.00442203 0.00054793 0)
(-0.00246035 -0.101091 0)
(0.000567777 0.000793043 3.74131e-21)
(0.148078 -0.0287079 0)
(2.2479e-05 -0.000826053 -7.03568e-21)
(-0.0544249 0.188075 1.03558e-20)
(0.00374509 0.000421648 0)
(0.0293986 0.0113254 -1.5993e-21)
(0.0315648 0.0102743 0)
(0.003562 0.00355923 -1.12579e-22)
(-6.17502e-05 -0.000757378 0)
(-0.000121436 -4.83677e-05 3.81306e-21)
(0.00204372 0.0224406 0)
(0.0104084 -0.00405229 -2.0396e-21)
(0.0344226 0.00580342 8.16997e-22)
(-0.00524783 -0.0030339 -1.78478e-21)
(-0.00224386 -0.00710798 7.25927e-22)
(-0.00495043 -0.00273092 1.85259e-21)
(-0.000503959 -8.90354e-05 -2.16384e-21)
(-0.000114267 7.2268e-05 -3.79596e-22)
(0.163383 -0.0937712 5.55209e-21)
(-0.000147347 -0.000236053 -2.8804e-21)
(-0.0473 0.536407 -1.17439e-20)
(-0.000179909 -9.98777e-06 0)
(-0.00958259 0.0330038 0)
(-0.000221834 -0.000172301 -1.41255e-21)
(0.000321738 0.000810603 -4.36026e-21)
(-0.00389177 0.0334581 9.87552e-22)
(-0.000273244 0.000127821 -1.98337e-23)
(0.0123276 0.00181875 0)
(-0.0209058 -0.0107454 5.31411e-21)
(0.0148682 -0.0036442 4.46534e-21)
(0.0131969 -0.0882829 -2.89671e-20)
(-0.000157524 0.000126563 2.04925e-24)
(-0.0211356 0.295538 2.55437e-21)
(-0.000129785 -4.94309e-05 0)
(-0.000183873 5.32551e-06 -3.30295e-21)
(-0.000504505 -8.14552e-05 0)
(-0.00411413 3.68688e-05 4.15517e-21)
(0.142244 0.209965 -2.98384e-21)
(0.0356834 -0.0497584 -6.98136e-21)
(0.00625122 0.00302129 0)
(-0.000100721 -0.000121007 1.92307e-22)
(-0.000118147 1.97804e-06 -2.40841e-21)
(-0.000101951 -3.921e-05 0)
(0.00342066 -0.106541 -1.45335e-20)
(0.0229506 -0.0181855 2.56807e-21)
(-0.00141005 0.00193656 6.76301e-22)
(-0.0294416 0.0080025 0)
(0.0300176 0.00956735 -6.00305e-22)
(0.00345297 0.000597877 -1.37572e-21)
(-0.000153753 0.000120756 0)
(-0.000161121 7.87523e-06 0)
(0.0164453 -0.0879162 -2.05381e-21)
(-0.000176144 -5.09075e-06 2.97225e-21)
(0.0306745 0.0115178 -8.58707e-22)
(0.0311512 0.0108808 1.03753e-23)
(-0.000479985 0.000931081 3.02652e-21)
(-0.017554 -0.00213485 -2.08622e-21)
(0.0222779 -0.00386124 -2.55313e-21)
(0.000122814 0.000580606 -9.23792e-23)
(-0.000112621 8.40292e-07 2.08082e-21)
(0.00348819 0.0032 8.46969e-23)
(0.00542103 -0.0042026 -1.47444e-20)
(0.0395453 -0.0147614 -2.4612e-21)
(-0.00411993 -0.00089451 0)
(0.15388 0.035802 1.28749e-20)
(-0.000134141 5.12272e-07 -3.03463e-21)
(-3.63058e-05 3.02221e-07 -8.42382e-24)
(-0.00392371 -4.78575e-05 -2.92138e-21)
(0.0124012 -0.0600286 3.94555e-22)
(-0.0674467 -0.0813073 -5.76642e-22)
(0.0225493 -0.00612213 8.50496e-21)
(-0.0568743 -0.0871968 -3.08299e-22)
(-0.000214265 6.12553e-05 1.27271e-22)
(0.00653693 -5.12527e-05 0)
(0.0306005 0.00904645 4.0606e-24)
(-0.187105 0.237328 4.2913e-21)
(-0.0163355 0.0292733 -1.04597e-22)
(-0.0682575 0.226638 -6.49061e-22)
(0.0929559 -0.0493518 6.28834e-21)
(-0.000264422 0.00206691 4.54119e-23)
(0.0225575 -0.00502935 -2.33769e-21)
(-0.000160703 -0.000128725 1.23426e-21)
(-0.000279286 -0.000265831 2.42826e-21)
(0.0160133 0.00766238 -7.97559e-24)
(-8.07652e-05 -0.000126334 -8.25442e-22)
(-0.161953 0.0542312 0)
(-0.0652938 0.247194 8.16417e-22)
(0.0307037 0.0115807 1.09957e-21)
(-6.98032e-05 -0.000105752 5.47735e-22)
(-7.13471e-05 -9.98175e-05 -7.87333e-22)
(-0.000181754 -6.75439e-05 2.34516e-21)
(0.00301623 0.212544 -7.81835e-23)
(0.0401287 0.0133247 4.82015e-22)
(-0.000196483 -0.000287554 0)
(-0.00398491 0.00272889 -3.41645e-21)
(-0.0106341 0.0265423 -1.08246e-21)
(-0.0238914 0.0412503 -5.44644e-22)
(0.0941716 -0.0408393 7.14561e-21)
(-6.17469e-05 -5.18978e-05 -6.43403e-22)
(-0.000138172 2.07062e-05 -1.29324e-22)
(-9.41639e-05 -3.60478e-05 -1.4411e-22)
(-0.00170173 0.0330345 -2.12259e-21)
(-0.000108192 -5.96891e-05 -1.56759e-21)
(-0.0076153 -0.00386864 -1.01449e-21)
(0.027868 0.0051914 2.96662e-22)
(-0.0121704 -0.150237 1.38222e-20)
(0.000548066 -0.00030123 -3.14755e-21)
(0.00414394 0.000738836 0)
(-2.19065e-05 -0.000160463 -1.17295e-24)
(0.0288463 -0.126755 0)
(-0.000123164 5.30787e-05 7.16677e-23)
(0.000831439 -0.000280034 2.70727e-26)
(0.146086 -0.0227629 0)
(-0.184449 0.193038 3.5858e-21)
(-0.000189943 -4.05439e-05 -5.90584e-22)
(0.0694933 -0.0300664 0)
(-0.000502512 -3.77795e-05 0)
(0.00910616 -0.0869846 1.87424e-24)
(-0.0202025 -0.137164 -1.29901e-20)
(-0.000122848 5.3311e-05 0)
(-0.00117398 -0.0106522 -3.18801e-21)
(0.0144266 -0.125811 -6.35009e-21)
(0.000617126 -0.000583087 0)
(0.00255826 0.00240643 5.09901e-21)
(7.33946e-05 -0.00240969 9.49701e-22)
(-0.000123639 -4.61333e-05 1.80135e-21)
(-0.000498786 -5.57759e-05 4.90768e-22)
(0.000181254 -0.00261048 0)
(-0.00549306 -0.00192502 3.36738e-21)
(-0.00477359 0.00245336 1.5463e-21)
(0.0952642 -0.0506093 3.00967e-21)
(0.0240208 -0.00346342 5.47584e-21)
(-0.000305543 0.000214738 8.08003e-23)
(-1.73725e-05 -0.00184726 -4.18176e-22)
(-0.000130249 2.46184e-05 6.95061e-23)
(-0.000100657 0.000121036 -9.21486e-22)
(0.00463265 0.00837007 -1.65845e-22)
(-0.000144753 6.24344e-05 0)
(-0.000111112 -1.61471e-05 3.24357e-21)
(-0.335474 0.274568 2.03307e-20)
(0.117808 0.010574 -7.83011e-21)
(-0.000128876 -5.03606e-05 -2.55006e-21)
(0.00161016 -0.152249 4.21138e-21)
(0.0445565 0.003458 -8.36214e-22)
(0.0112799 0.0437606 1.16186e-22)
(0.170095 0.023571 0)
(0.00971477 -0.00410496 5.00011e-21)
(0.0654281 -0.0447268 3.94223e-21)
(-0.000168771 -1.69677e-06 -3.87451e-22)
(0.0433405 -0.0564206 8.31655e-21)
(-6.07279e-05 -3.14636e-05 0)
(-0.00227515 0.00693878 0)
(-6.30533e-05 -2.73621e-05 3.03992e-22)
(-0.0123506 0.00654162 0)
(0.0487333 -0.256367 0)
(-0.276031 -0.449077 -1.01396e-20)
(0.00246569 0.0306191 0)
(0.0466852 -0.230272 -3.48839e-21)
(-0.00032265 0.000223342 7.67074e-22)
(-0.0113644 0.0169388 6.03795e-21)
(-0.000591259 -0.00226053 -1.77416e-22)
(-0.000285446 4.33888e-05 2.42437e-21)
(0.00186881 -0.000779614 -6.08111e-22)
(-0.000124441 -4.92719e-05 -3.53424e-21)
(-0.00242578 0.000465947 6.68118e-23)
(0.011815 0.000529326 -5.65575e-23)
(-0.000114046 8.74928e-05 7.74934e-22)
(-0.000140303 -2.464e-05 1.75544e-21)
(-0.000174834 5.90218e-05 0)
(-0.000175896 -0.000194503 -2.2503e-21)
(-0.00398005 -0.333287 -1.73626e-21)
(-1.21241e-05 -0.00021252 0)
(-8.27701e-05 -2.85121e-05 -2.8056e-21)
(-0.00213512 0.00616498 -1.75408e-23)
(-0.0909047 -0.502014 0)
(-0.0188343 0.336068 -7.47366e-21)
(-0.00981953 0.417271 2.08992e-21)
(0.0046004 0.0209064 -7.79824e-23)
(0.0225062 0.00235697 0)
(0.070357 -0.00108121 2.75642e-20)
(-0.000116406 5.81809e-05 -8.30085e-23)
(0.158563 0.0233329 6.65534e-21)
(0.00545552 0.0203217 -6.06749e-22)
(0.0798597 -0.0937099 -1.34461e-20)
(-0.000163123 9.36227e-05 0)
(-0.104782 0.0140994 -1.24971e-20)
(-0.000183558 -4.70291e-05 1.05815e-22)
(-0.000222238 -0.000250884 0)
(-9.12714e-05 0.000107877 0)
(-0.0885785 0.407194 4.46486e-22)
(0.000147696 -0.324406 2.01642e-21)
(-8.22272e-05 2.54219e-06 1.54693e-21)
(0.00113694 5.38917e-06 3.70292e-21)
(-9.46328e-05 -4.19237e-05 2.34035e-22)
(0.0349465 -1.8326e-06 4.47923e-21)
(-0.0436004 0.00580682 0)
(-7.16215e-05 -3.3441e-05 0)
(0.00507639 -0.00734178 -2.36872e-22)
(-0.000204535 5.12836e-05 -4.10706e-21)
(-0.0249914 0.255174 1.65626e-20)
(0.00728199 0.0188861 -3.88466e-22)
(-0.00230443 0.00242561 -1.03006e-21)
(-8.46023e-05 -3.00733e-05 -8.69459e-22)
(-0.00972805 -0.0793238 9.98362e-22)
(-0.000139599 -0.000252146 1.9738e-21)
(-0.000289139 0.000193303 5.63777e-21)
(-0.000212105 6.33588e-05 4.01749e-21)
(-0.000140078 -2.24509e-05 -1.7136e-21)
(0.00956785 0.35748 -3.21053e-21)
(-8.15418e-05 9.85726e-05 -9.00435e-22)
(-0.000192793 -3.71376e-05 8.35358e-22)
(0.00332502 -0.00258302 -2.68653e-22)
(0.00084228 -0.000178086 2.18033e-24)
(-0.000170417 -0.000188561 -2.18064e-21)
(0.0699992 0.294355 -4.24363e-21)
(0.0105131 0.010734 -1.21158e-21)
(-8.0889e-05 -2.91637e-05 -4.16293e-21)
(0.10966 0.354265 1.39187e-20)
(0.00580048 -0.00217629 0)
(0.00087998 -0.000388931 0)
(-0.00189666 0.0155417 3.37056e-22)
(-7.03731e-05 -3.29446e-05 2.40618e-21)
(-0.000308825 0.000222896 -6.27627e-21)
(-0.248238 -0.453237 6.11391e-21)
(-0.00369367 0.00265732 0)
(0.0305935 -0.0507151 7.50316e-21)
(0.0866251 0.0653859 -1.02172e-21)
(0.0717521 -0.0348766 -8.16039e-23)
(0.00612134 0.0289383 0)
(-0.0345489 -0.0307504 -1.05365e-21)
(0.00281307 0.278137 0)
(-0.170799 0.179847 1.61312e-20)
(-0.000225748 -0.000249154 -1.89e-22)
(0.000988076 -0.000377959 -1.19587e-25)
(0.00606274 -7.51954e-05 0)
(-0.260667 -0.451298 -7.48854e-21)
(-0.000106241 9.53499e-06 -1.88452e-22)
(-0.0166982 0.0291952 0)
(0.0875993 0.302985 -7.2351e-22)
(-0.000101753 -8.11268e-05 0)
(-0.000193293 -4.0912e-06 2.88257e-21)
(0.114691 0.33175 -1.08496e-21)
(-0.0132104 0.0291131 -1.97019e-23)
(0.126843 -0.148931 -3.7413e-21)
(-0.187914 0.198704 -8.94814e-21)
(-8.17223e-05 1.72918e-06 1.1991e-22)
(-0.222364 -0.388721 5.52543e-21)
(-0.000136004 5.1402e-05 -2.50601e-22)
(-0.00030035 -0.000354557 3.931e-22)
(-0.000290308 5.33196e-05 -7.35295e-21)
(-0.00022891 5.77356e-05 -4.11108e-21)
(-0.000165797 2.26209e-06 0)
(0.0630233 -0.203691 0)
(0.0275821 -0.0640281 -3.21517e-21)
(0.0300881 -0.0792417 0)
(0.0378922 0.0122784 3.01888e-23)
(0.144784 -0.0479571 -1.10967e-20)
(-0.00126405 0.0017048 0)
(0.0673941 -0.0400556 -5.17812e-21)
(-0.0804521 -0.0742469 -1.40162e-21)
(-0.346676 -0.418435 3.8374e-20)
(-0.000193935 -4.196e-05 -1.7744e-21)
(-0.000527118 0.00308794 1.77251e-21)
(-0.000204183 7.60727e-05 5.62875e-22)
(0.0693927 0.0120229 1.1576e-21)
(-0.0840577 -0.302832 4.1754e-21)
(-0.0164203 0.0300006 2.285e-22)
(-9.87074e-05 -7.82935e-05 0)
(-0.13698 0.0433265 -9.89545e-21)
(0.0197659 -0.0657802 0)
(-0.00451925 0.00470257 2.47867e-21)
(-0.000695117 -0.000389599 0)
(-0.000173968 -0.000192006 -2.19384e-21)
(0.031944 0.00992704 0)
(-0.000244215 -6.68435e-05 1.01706e-21)
(-0.00775055 0.0332451 4.6955e-26)
(-0.092688 0.253318 1.15269e-21)
(-8.50702e-05 2.45742e-06 0)
(-0.000129676 3.04544e-05 1.69953e-23)
(0.112766 0.236284 -4.85131e-22)
(-0.000107767 1.16552e-05 0)
(-0.293351 0.131346 0)
(-0.000134308 -4.36156e-05 -4.32425e-21)
(-6.36448e-05 -4.08798e-05 -1.21077e-21)
(-0.000675916 -0.000478468 0)
(-0.000710474 -0.000319251 0)
(-0.00330242 -0.00726078 -8.08749e-23)
(0.0177856 0.000513687 3.50159e-22)
(0.00328921 0.00791704 1.15728e-22)
(0.00111721 0.00263912 2.3879e-21)
(-0.000272591 0.000185968 0)
(0.0200709 -0.126393 0)
(-0.0385345 0.00399597 0)
(0.00544175 -0.00857505 0)
(-0.000129858 -1.49536e-05 -1.39788e-22)
(-0.000345144 -0.000237183 -5.61119e-21)
(-0.169181 0.070398 1.649e-21)
(0.00589306 -0.000559682 -5.41394e-24)
(-4.9516e-05 1.13978e-06 5.28799e-23)
(0.00257025 0.0120339 -5.70801e-23)
(0.127535 0.0556117 8.11098e-21)
(-0.000104555 -5.22189e-05 -1.85791e-22)
(0.0212043 0.0115993 3.76313e-21)
(-0.0362336 0.00966222 0)
(-0.000167555 6.39876e-06 -1.65889e-22)
(-0.000100636 -3.04644e-05 6.71181e-22)
(-9.66791e-05 0.000162766 -2.09855e-21)
(0.142037 0.198069 -1.12636e-21)
(0.00119804 -0.0780661 -3.50857e-21)
(-8.25616e-05 -2.94897e-05 4.36309e-21)
(3.77754e-05 -0.00185344 0)
(-0.0121433 -0.00297352 -7.12356e-22)
(-0.000127767 -5.01436e-05 4.51849e-21)
(0.031289 0.0097431 6.41583e-22)
(-0.000104363 -1.41956e-05 2.5678e-22)
(0.00230707 0.00401682 0)
(-0.000164101 0.000238274 0)
(0.00502844 -0.00489575 0)
(-0.000119266 1.26941e-05 -2.9274e-22)
(0.0141672 -0.0630933 3.72122e-21)
(-0.0102199 -0.252038 -4.13114e-21)
(-0.00018884 -4.27471e-05 2.59237e-21)
(-0.258974 -0.408386 -7.45807e-21)
(-0.000133772 -4.35138e-05 4.48291e-21)
(0.0108121 -0.0808372 0)
(0.00524639 -0.00234486 0)
(-0.000350759 -0.000220788 3.70371e-21)
(-0.00330568 0.0194166 5.87998e-22)
(-6.83823e-05 -3.68477e-05 -1.19732e-21)
(-8.06145e-05 -0.00011387 0)
(-6.60838e-05 -6.62541e-05 -8.39846e-22)
(-8.04408e-05 -0.00262506 2.37094e-21)
(0.018676 0.0757989 5.77002e-21)
(-0.000102619 0.000168642 0)
(0.045234 0.00173465 0)
(-0.0147927 0.000376095 0)
(-0.0552872 0.0101315 3.3387e-21)
(-0.00016868 -0.000257814 0)
(-0.000224169 -0.000147383 0)
(-5.68669e-05 1.55458e-06 -5.49933e-23)
(-7.64676e-05 -0.000113821 2.62006e-22)
(-5.6893e-05 7.30228e-07 8.56172e-22)
(-0.0381329 -0.0306367 -9.02992e-22)
(-0.00155945 -0.211601 0)
(-0.0158713 0.0460728 -3.85668e-22)
(-0.00018847 -0.000190711 2.10586e-23)
(0.0542298 -0.259357 -1.43303e-21)
(-3.82267e-05 -0.000142553 1.38781e-24)
(0.00297905 -0.0801852 0)
(-0.000128571 -2.19838e-05 1.7439e-22)
(0.0778705 0.0681624 0)
(-0.000103345 -1.87532e-05 1.06858e-21)
(0.0143342 0.00667686 8.72182e-23)
(-9.21704e-05 -9.41364e-05 -8.3306e-22)
(0.017471 0.00260021 0)
(-0.000542127 -0.00184384 3.19633e-21)
(0.0322241 0.0108504 0)
(-0.000132055 -4.63278e-05 -1.81617e-21)
(-0.000168418 0.000297941 0)
(-0.00143899 0.000409005 2.06412e-21)
(0.00467528 -0.00755911 4.10002e-22)
(0.00202503 0.000334511 0)
(0.00313215 0.020874 0)
(-7.91214e-05 2.95907e-05 -3.00724e-23)
(-5.85971e-05 -6.39752e-05 -2.53006e-21)
(-0.000259353 -0.000321654 -3.77404e-21)
(-0.000689508 -0.000390633 -2.75184e-23)
(0.00256603 0.0220477 0)
(0.000949982 2.29285e-05 1.74676e-21)
(0.00246345 0.0035705 2.55882e-21)
(-0.303791 -0.424584 -1.5789e-20)
(0.0150098 0.00659576 0)
(-0.000146472 0.000229628 -6.61643e-23)
(0.0242364 0.00142553 -2.53443e-22)
(0.0397803 0.0111422 -1.25334e-21)
(0.0556262 0.233405 -7.75193e-21)
(0.0419069 0.00100809 0)
(-0.000220337 -0.000162813 0)
(-0.0452014 -0.0881574 -3.97165e-22)
(0.0315853 0.00941189 1.81497e-21)
(-0.276572 -0.460222 -5.66691e-21)
(-0.000103447 2.56173e-05 -5.62316e-22)
(-0.0770644 0.395133 4.39723e-21)
(-9.55678e-05 -1.84999e-05 7.04113e-23)
(-0.000118966 -1.6146e-06 -4.65085e-22)
(0.0193054 0.00832307 8.03528e-23)
(0.0103543 0.0307951 -5.60701e-22)
(-0.0144498 0.0293464 0)
(0.0948736 0.341258 0)
(0.10328 -0.0331072 -4.115e-21)
(-0.000141693 -1.96474e-05 8.66752e-22)
(-0.00636147 -0.0106188 2.05853e-21)
(-0.148488 -0.552812 8.32194e-23)
(0.0526836 -0.209616 0)
(0.0425121 0.00152813 0)
(0.000199257 0.000525132 -8.95702e-23)
(-0.000204955 6.77249e-05 -5.79679e-22)
(-0.000363302 0.0114723 1.59858e-21)
(-0.000258703 0.000158701 1.75239e-21)
(-0.000113643 -4.29455e-05 0)
(-0.000193634 -2.0281e-05 0)
(-0.000665921 -0.000294903 0)
(-0.000139547 3.84749e-05 0)
(-0.0268854 0.00416953 1.06423e-22)
(-0.000110172 -4.88997e-05 5.44571e-22)
(0.0119947 -0.0676645 -4.10472e-21)
(-0.000191743 -3.62066e-05 0)
(0.0213853 0.0127215 -2.85946e-21)
(-0.000145761 1.61122e-06 0)
(0.0678086 0.0813609 2.79039e-22)
(-0.0111682 -0.241507 -2.03797e-21)
(-0.00831557 0.0212331 1.89886e-21)
(-0.0320021 0.294262 -1.00098e-21)
(-0.00018879 0.000128674 0)
(0.000722785 -0.00068734 0)
(-6.50157e-05 0.000115367 -2.11217e-21)
(-0.00485341 0.00432324 -2.65792e-21)
(-0.000767462 -0.00112932 0)
(-0.000205661 4.14939e-05 6.52237e-21)
(0.14865 -0.0749249 0)
(-0.0502438 -0.0771726 1.15384e-21)
(-8.01661e-05 1.6721e-06 -2.9132e-21)
(-0.000299371 -0.00204164 -8.25667e-22)
(-0.0364214 0.00489136 2.30988e-22)
(-0.000101848 -5.19827e-05 3.41793e-21)
(0.0928703 -0.0445867 0)
(0.0922332 -0.0343009 7.50024e-21)
(-0.0123982 0.0067947 -7.22853e-23)
(-5.86757e-05 9.77574e-05 4.93469e-22)
(-0.00465072 0.0387092 -3.72026e-21)
(-0.000159558 8.74832e-05 9.76104e-23)
(-0.000176772 -0.000197434 2.1504e-21)
(-0.00565017 0.0208463 -2.13848e-21)
(-0.000135979 3.64906e-05 0)
(-0.000134092 -2.37561e-05 -6.83874e-23)
(-0.000344578 7.95504e-05 -5.85452e-21)
(-0.00247987 0.0160805 -3.30204e-22)
(0.000299226 -0.000611232 1.44807e-21)
(2.68553e-05 -0.000649918 -2.32961e-22)
(0.143945 -0.171825 0)
(-0.000159248 -0.000169355 3.93027e-21)
(4.58712e-05 -0.00191641 0)
(-0.000774814 0.000674352 4.25037e-21)
(0.000371768 0.000358311 -4.32983e-21)
(-0.0271338 0.249962 -7.35304e-21)
(0.0450334 0.0485844 7.583e-21)
(-0.103488 -0.373123 -4.68381e-21)
(-0.000240715 0.000149602 -2.9837e-21)
(-0.000124298 -7.81362e-06 -2.58449e-21)
(-0.000366495 6.37698e-05 -3.77018e-21)
(-0.000287704 -0.000376763 -3.64027e-22)
(-9.98683e-05 3.05195e-06 0)
(0.0599803 -0.043054 -4.41082e-21)
(0.00517628 -0.00286219 0)
(-0.0315068 0.00651895 -1.67748e-21)
(0.0438037 0.00126104 0)
(-9.63219e-05 -1.58716e-05 -3.81756e-23)
(0.146817 -0.0561782 9.99696e-21)
(-0.0122281 0.0287843 -1.2005e-21)
(-0.000201949 -0.000151434 -6.28991e-22)
(-8.70043e-05 0.000103144 0)
(-0.0113769 0.0067082 -3.48653e-22)
(0.000241718 -0.000669633 -3.62266e-21)
(0.0291618 -0.240307 4.02677e-21)
(0.00586802 -0.000645031 6.88812e-21)
(-0.000100802 9.77122e-06 1.38343e-22)
(0.0701466 -0.0443038 3.45133e-22)
(0.0744934 -0.0982047 1.23638e-20)
(0.0129274 0.00708046 0)
(-0.00238398 0.00405974 4.47281e-21)
(-0.000301234 -0.00131687 1.22479e-21)
(-8.65582e-05 0.000106388 0)
(-0.000130435 7.26527e-06 1.55671e-21)
(-0.263791 -0.428132 -1.57076e-20)
(-0.000131264 0.000172382 1.21222e-23)
(0.0145103 0.198528 0)
(-0.000285931 0.000234808 0)
(0.0870869 -0.272291 0)
(0.000158517 0.000593406 1.18958e-21)
(-0.00014222 5.42137e-06 1.35787e-21)
(-0.000136709 -3.43333e-05 -1.19098e-21)
(-0.0056797 0.0362952 2.88203e-21)
(-0.0002242 0.000113398 -7.49254e-21)
(0.0383603 -0.0125195 4.28669e-21)
(-7.17661e-05 -0.000144705 9.98894e-22)
(0.00518266 0.0201258 2.21469e-22)
(-5.89264e-05 -7.11815e-05 -2.7042e-21)
(-0.000152686 0.00020675 5.72485e-23)
(0.000435294 0.02292 7.94931e-22)
(-0.00211819 -0.00408487 2.09921e-21)
(-0.000586056 -0.00182705 -1.61231e-21)
(-7.06713e-05 4.97725e-05 3.24963e-22)
(-7.90254e-05 -3.23732e-05 1.26852e-21)
(-0.00032416 -0.00188984 2.40926e-21)
(-4.03114e-05 1.84331e-06 -1.25716e-23)
(0.0051513 -0.0031129 6.13615e-21)
(0.20465 0.131322 -1.35489e-20)
(-0.000163372 -0.000162294 0)
(-0.11941 -0.188324 2.11807e-21)
(-0.0306057 -0.0350113 2.71434e-21)
(-0.000447033 -7.63128e-06 4.85829e-25)
(-0.000177217 -5.94103e-05 5.53221e-21)
(-0.0513166 0.107058 0)
(0.00912592 0.00394317 0)
(-0.0036937 0.000718395 0)
(-0.0215158 0.091166 3.13919e-21)
(0.04913 0.000475319 -3.37127e-22)
(-0.00185135 0.00443279 6.87436e-21)
(0.0132114 0.0181776 -1.28505e-21)
(-0.000452448 0.000629851 -1.94735e-21)
(1.95911e-05 -0.000148835 0)
(-0.000117461 9.80159e-05 -1.82455e-22)
(-0.0607334 0.0448204 0)
(0.00279192 -0.00244069 1.8596e-22)
(-0.000354548 -0.000488235 -1.62602e-21)
(0.0325971 -0.223868 0)
(0.00427034 0.00647962 -7.55152e-22)
(0.144521 -0.0545369 -3.22665e-21)
(0.0360651 0.00417433 -9.07515e-22)
(0.134286 -0.0812582 2.86816e-21)
(-0.00293158 0.00116705 -2.61737e-21)
(-8.06879e-05 -3.12826e-05 5.33868e-21)
(0.0139556 -0.00364165 3.58852e-24)
(-0.00199933 -0.00101429 0)
(0.0953679 -0.00724721 0)
(-0.00238625 0.00282686 -7.6529e-23)
(-0.000672516 -0.000231129 0)
(0.0300004 0.00157292 4.56886e-22)
(-9.10761e-05 -3.4343e-05 0)
(-0.0216637 0.0490044 1.88798e-21)
(0.0245215 -0.00633033 0)
(-0.000194556 -2.56833e-05 -9.22583e-22)
(0.00386096 0.358736 -9.79456e-20)
(-0.000219257 -0.000626118 7.26523e-22)
(-0.000184283 -1.23858e-05 0)
(-0.00062511 -0.000650621 2.75187e-21)
(0.018801 0.00750817 5.95662e-23)
(-0.000734386 -0.00110461 -1.34889e-21)
(-0.000135618 -4.0754e-05 1.30518e-21)
(-0.00576692 -0.000888324 4.24937e-21)
(0.00662723 0.0194948 1.78608e-22)
(-0.283645 0.15691 0)
(0.0211356 -0.00344372 3.50397e-21)
(-0.000111639 -8.53162e-06 -1.07552e-21)
(-0.000593807 -0.00173949 2.45556e-21)
(0.0298299 -0.0607959 0)
(-0.002426 -0.000180257 0)
(-0.000535688 6.10214e-06 0)
(-0.00575907 -0.000273816 -3.94454e-21)
(-0.000961566 0.00596222 -5.80181e-23)
(0.0768933 -0.239054 0)
(0.0554047 -0.0448931 4.11582e-21)
(-0.000227655 -0.000155458 -2.42772e-21)
(0.0122806 0.00752474 4.56994e-23)
(0.00298388 0.116791 -4.08864e-21)
(0.00552606 -0.00913489 -1.51322e-21)
(0.00810678 -0.00923803 -7.21454e-21)
(-0.0290688 0.0934468 -3.60329e-21)
(0.00565276 0.00105934 0)
(-0.00533959 0.0277328 6.74782e-22)
(-0.119443 0.0946232 2.01801e-20)
(-0.000235194 -0.000343886 5.06732e-21)
(-0.000557516 -0.00131999 0)
(0.00453291 0.00172532 -8.34052e-21)
(0.161626 -0.0266246 1.87331e-21)
(-0.00027926 -0.000399946 0)
(-0.0145942 0.0269222 9.09961e-23)
(-0.0127993 0.0077907 0)
(-0.000112303 -6.39788e-06 -1.34172e-21)
(0.00973448 0.0882975 -3.30084e-20)
(-0.00237469 -0.00455369 -6.64446e-21)
(-0.0340732 -0.0342028 -7.29754e-22)
(-0.000216008 7.87744e-05 -6.24609e-21)
(-8.60594e-05 5.7371e-06 -4.17403e-23)
(-0.000159962 9.23255e-05 0)
(-0.217174 -0.433722 -1.00569e-20)
(0.149083 -0.0173514 -1.66718e-22)
(0.0544833 0.0653842 -1.68212e-20)
(-0.163286 0.224104 5.47892e-21)
(-0.0224085 -0.00675536 0)
(0.0457174 0.00220518 -1.20087e-22)
(-0.0922699 -0.490819 0)
(-0.000101686 -2.699e-05 2.06248e-24)
(-0.0775809 0.0689498 1.35101e-22)
(0.0231615 0.00243741 0)
(0.000237355 0.158611 5.03763e-21)
(-0.21158 -0.42808 0)
(-0.000115945 2.82727e-05 -2.07545e-22)
(0.0809785 -0.243571 -6.75182e-21)
(-0.000183695 6.876e-06 -1.63941e-24)
(-0.000120385 3.30047e-05 0)
(-0.000188556 7.05309e-06 -2.22112e-21)
(-0.0665616 0.236381 3.56772e-21)
(-0.00107802 0.00071875 0)
(-7.93912e-05 1.10241e-05 0)
(-0.000237734 -0.000307631 -7.55516e-22)
(-9.51983e-05 5.10964e-06 1.75347e-22)
(-0.000289438 -0.000220911 2.65951e-21)
(-0.000281319 5.32601e-05 0)
(-0.005837 -0.006625 3.28596e-21)
(0.00716136 0.211471 3.10727e-21)
(0.0076082 0.0101518 1.35436e-22)
(4.17887e-05 0.00317676 0)
(0.0276076 0.108155 0)
(-0.0354663 -0.170958 0)
(-0.000174251 6.20539e-06 -1.46186e-21)
(1.76372e-05 -0.00194884 0)
(-0.000223234 6.48907e-05 1.2028e-21)
(-0.000112262 -2.61332e-05 0)
(0.0817331 -0.00493114 -6.68578e-21)
(-8.92567e-05 -6.117e-05 -2.83227e-21)
(-0.013317 -0.0306008 -2.89776e-21)
(-9.17832e-05 -6.04696e-07 6.34038e-23)
(0.00624814 -0.0149095 -1.93522e-21)
(0.00462019 -0.00318726 -6.05186e-21)
(-0.178508 -0.424066 4.47481e-20)
(-0.000151966 -0.000413238 1.43756e-21)
(-0.0263289 0.041411 -2.11231e-21)
(-7.86377e-05 -3.58262e-05 -4.42784e-21)
(0.177241 0.162407 0)
(-0.000160987 -0.000173667 -2.55279e-21)
(-0.280235 -0.439383 0)
(-0.000130942 6.09609e-06 2.95779e-21)
(-0.0141615 -0.0591554 0)
(0.0426082 0.269894 6.35086e-20)
(0.00035678 0.000527083 -2.95573e-21)
(-0.0442475 0.332417 0)
(-0.000136846 3.82802e-05 7.25995e-22)
(-0.000303199 -0.000384853 -3.49813e-21)
(0.0950825 -0.0433682 0)
(-0.000174878 7.97229e-05 0)
(-0.276923 0.479237 4.27497e-21)