/*--------------------------------*- C++ -*----------------------------------*\
| =========                 |                                                 |
| \\      /  F ield         | OpenFOAM: The Open Source CFD Toolbox           |
|  \\    /   O peration     | Version:  v2012                                 |
|   \\  /    A nd           | Website:  www.openfoam.com                      |
|    \\/     M anipulation  |                                                 |
\*---------------------------------------------------------------------------*/
FoamFile
{
    version     2.0;
    format      ascii;
    class       surfaceScalarField;
    location    "100";
    object      ddtCorrDdt0(phi);
}
// * * * * * * * * * * * * * * * * * * * * * * * * * * * * * * * * * * * * * //

dimensions      [0 3 -2 0 0 0 0];
oriented        oriented;


internalField   nonuniform List<scalar> 
78975
(
-0.0025441
0.0226068
-0.0200627
-5.16904e-05
0.00291431
-0.00286262
0.000534354
-0.000221096
-0.000313257
-3.76594e-05
3.66939e-05
9.64034e-07
0.00972694
0.00636249
-0.0160894
1.12041e-05
3.03995e-05
-4.16036e-05
-3.98558e-05
-3.02833e-05
7.01398e-05
-3.43248e-05
7.23801e-06
2.70864e-05
-0.000214145
-0.00166498
0.00187913
-1.11274e-05
-2.10235e-05
3.21509e-05
-1.49854e-05
-1.28052e-05
2.77905e-05
-0.00213071
0.00211607
1.46387e-05
-0.000159177
0.000117989
4.11873e-05
0.00694768
-0.0028885
-0.00405918
-0.00235427
0.000536269
0.00181806
0.00752648
-0.0163319
0.00880549
-2.54887e-05
3.31285e-05
-7.63978e-06
-0.00366801
0.023061
-0.019393
-0.000192749
-3.99299e-05
0.000232679
-8.29821e-05
5.27197e-05
3.02623e-05
2.1492e-05
0.000113472
-0.000134964
-0.0113037
0.011617
-0.000313341
-0.0228071
-0.00490382
0.027711
-0.00322698
-0.000379685
0.00360672
2.03889e-05
-3.15165e-05
-0.000798415
3.36734e-05
0.000764742
-0.0278066
0.0241386
-7.47551e-05
0.000112559
-3.78038e-05
-0.0186741
0.00524995
0.0134241
-3.65889e-05
0.000164575
-0.000243639
7.90632e-05
-6.13611e-05
-2.1621e-05
-0.00858789
0.0119646
-0.00337673
0.000179315
0.00467089
-0.00485021
-8.61028e-06
3.75734e-05
-2.89631e-05
-3.54034e-05
2.67932e-05
2.61022e-05
-4.62198e-05
2.01176e-05
0.00264748
-0.0112952
0.00864773
0.00218538
-0.000305182
-0.0018802
0.000281781
0.000917488
-0.00119927
-0.0145294
-0.00251943
0.0170488
-0.00260358
-0.00577208
0.00837564
-0.000106212
5.81074e-05
1.15081e-05
3.98839e-06
-1.54964e-05
-0.00329999
0.00246925
0.000830743
-0.0112827
-2.10417e-05
-0.000574225
0.000154485
0.000419741
-0.00690216
0.0166291
-0.00800983
0.0106573
0.000108844
-5.31424e-05
0.000590973
-0.000379872
-0.0002111
0.000501654
0.000830026
-0.00133168
-5.7071e-05
3.59427e-05
2.11283e-05
0.000439101
0.000679921
-0.00111902
-0.00219757
0.00482213
-0.00262456
0.000620431
0.000534045
-0.00115448
-0.00731444
0.00731294
1.53137e-06
0.000865122
-0.000773941
-9.11806e-05
2.50075e-05
2.54388e-05
-5.04466e-05
3.16251e-05
-2.39454e-05
-7.67965e-06
-3.32549e-05
-2.35884e-05
5.68436e-05
-6.03856e-06
4.09543e-05
-3.4916e-05
-2.96257e-05
-0.000162007
0.000191633
0.000424979
0.000165994
4.87318e-05
-2.37244e-05
-0.00695834
0.00435472
-0.000900941
0.000790051
0.00011089
-9.13381e-06
-0.000107261
0.000116395
-9.99704e-05
5.58393e-05
4.41318e-05
2.38832e-05
2.77386e-05
-5.16227e-05
-6.39569e-05
1.23164e-05
5.16406e-05
-1.57254e-05
2.53621e-05
-9.6345e-06
0.00183622
-0.000226157
-0.00161006
-2.11422e-05
3.30118e-07
2.08128e-05
9.2757e-05
4.00036e-05
-0.00013276
0.000228703
-0.00037841
0.000149708
-3.19691e-05
-2.35585e-06
3.65583e-05
-1.00632e-06
-3.55526e-05
-0.000903991
0.000105575
-3.03384e-05
7.37472e-05
-4.34079e-05
-9.63981e-06
3.00286e-05
3.17699e-05
-3.90868e-05
7.31695e-06
-0.000581389
0.00120182
0.000243097
-7.85215e-05
2.56099e-05
2.95291e-06
-2.85628e-05
0.000354954
-4.96516e-05
-0.0003053
0.000396773
-0.000441689
4.49187e-05
-0.000309282
0.000117791
0.000191491
0.00145953
-0.000734132
-0.000725394
-4.80333e-05
-5.13856e-06
5.31719e-05
-3.26045e-05
3.75462e-05
-4.94143e-06
2.28607e-05
-5.85842e-05
3.57236e-05
-7.13496e-05
0.00010506
-3.37106e-05
2.59083e-05
-2.98342e-07
-0.000184051
-0.000125232
-0.0538219
0.0147065
0.0391154
-3.82956e-05
9.5022e-06
2.8794e-05
-3.70455e-05
4.44095e-06
-9.01387e-05
-6.90386e-05
-2.97566e-05
5.36397e-05
2.51377e-05
-5.83924e-05
1.45695e-05
1.70556e-05
0.0158385
-0.0386456
1.78128e-05
-9.25674e-05
-9.62657e-06
-5.43302e-05
0.000652636
-0.00135929
0.00070665
0.00350901
0.0014393
-0.00494832
0.0359276
-0.0225912
-0.0133363
4.26155e-05
9.14599e-05
-0.000134077
0.0219181
-0.010263
-0.0116552
-0.000373059
0.00040982
-3.67617e-05
0.000116324
-0.00103298
0.000916651
-0.0550357
0.0128087
0.0422269
2.09047e-05
-1.99534e-05
-9.51171e-07
0.000599128
-0.00081926
0.000220133
-0.000105721
7.13192e-05
3.44031e-05
0.0197015
-0.0108463
-0.00885525
0.000961154
-0.000522049
0.000409025
-1.225e-05
-0.0309705
-0.0228515
-3.66172e-05
4.04061e-05
-3.7886e-06
-0.000184257
-1.30329e-05
0.00019729
0.000746387
-7.45742e-05
-0.000671812
-0.000835341
0.000503692
0.000331648
-3.12366e-05
3.75963e-05
-6.35968e-06
0.00533777
0.00299362
-0.00833139
-0.0805659
-0.0114515
0.0920174
0.0108971
-0.00464982
-0.00624731
-2.4936e-05
-5.8998e-05
8.39338e-05
-0.0002331
4.03507e-05
-2.97446e-05
1.6153e-05
1.35917e-05
9.28767e-07
0.0278659
-0.0410595
0.0131936
-0.00212523
0.00331647
-0.00119124
-0.000952745
5.18041e-05
-5.264e-05
4.60672e-06
-3.23476e-05
-2.86887e-07
3.26343e-05
0.000376547
-0.000624491
0.000247944
0.00103204
-0.000915712
-1.86676e-05
-1.10772e-05
-0.00544818
0.00543888
9.36005e-06
0.000993178
-0.000924526
-6.86523e-05
-0.00677362
0.00533427
0.00143935
6.12974e-05
-4.67015e-05
-1.4596e-05
3.94994e-05
-1.28828e-05
-2.66167e-05
-0.000183971
-5.96674e-05
0.00511456
-0.00240701
-0.00270755
-0.00272745
0.00267576
-4.99966e-05
-1.1017e-06
5.10982e-05
-3.0413e-05
4.95979e-05
-1.91854e-05
-0.00100524
0.00015955
0.000845691
3.20284e-06
-1.50852e-05
1.18824e-05
-0.00107192
0.00257067
-0.00149875
-0.000706935
-0.00256212
0.00326905
-0.00467546
-0.00660724
0.000147083
-0.000213192
6.61102e-05
-0.0333402
0.0102717
0.0230685
0.0199794
-0.0144376
-0.00554169
3.66334e-05
-2.54294e-05
-8.96636e-05
0.000132279
-2.40255e-05
-2.27331e-05
4.67585e-05
7.39687e-06
4.11125e-06
1.31919e-05
-2.80544e-05
1.48625e-05
-5.57953e-05
2.63728e-05
2.94233e-05
-1.50732e-05
2.82652e-05
-0.00331544
8.84895e-05
-0.000751333
0.00124575
-0.000494412
0.0110502
-0.00601485
-0.00503534
-2.05673e-05
3.8245e-05
-1.76777e-05
-2.88741e-05
3.80916e-05
-9.21794e-06
0.000236597
-0.00234318
0.00210659
0.00917149
-8.60736e-05
7.9018e-05
7.05603e-06
0.0177516
0.0158014
-0.033553
-3.06258e-05
2.09859e-05
-4.52787e-05
1.05486e-05
3.47304e-05
-4.24453e-05
-7.55124e-06
-6.99568e-05
-3.57636e-05
-0.00133534
0.000584007
-4.4716e-05
0.00027342
-0.00086947
0.000124187
0.000745283
0.00157875
-0.00179289
-2.83934e-05
-1.45125e-06
2.98445e-05
-1.69326e-05
4.7332e-05
-0.0129667
-0.0216982
0.0346648
1.54116e-05
5.49313e-06
-1.51017e-05
3.12839e-05
-1.61823e-05
-9.41531e-05
-0.000911086
0.0013467
-0.00106491
2.64324e-05
0.000594961
-0.000621394
-3.49712e-05
1.84705e-05
1.65008e-05
-0.00100963
-0.0064178
0.00742745
-0.00353171
0.00249534
0.00103638
0.00476898
-0.00125997
-0.000862025
0.00136368
2.40077e-05
1.90066e-06
0.0415302
-0.0342024
-0.0073275
-0.000948505
0.00244717
-0.00149866
-2.22227e-06
2.623e-05
0.0931045
-0.0538885
-0.0392161
2.76191e-05
3.33014e-05
-6.09221e-05
-0.000966154
-0.00233384
0.00204304
-0.00192717
-0.000115863
1.99988e-05
-2.83717e-06
-1.71602e-05
0.0126026
-0.00618853
-0.00641402
0.00652524
-0.00202497
-0.00450027
-1.64963e-05
-1.84754e-05
-0.00017016
0.000147474
2.26869e-05
0.021895
-0.0229644
0.0010694
0.00639558
-0.020925
0.00275472
-0.00251813
-0.000379181
0.000176284
0.000202896
-0.0301411
0.00919994
0.0209411
-0.000249561
6.53044e-05
-0.00866168
0.00576091
0.0029008
-0.000239467
7.27076e-05
0.000166761
0.00219555
0.00475212
-0.000339272
0.000122469
0.000216802
4.0972e-05
0.000952206
-0.00109616
0.000171638
0.000285321
-8.2795e-06
-0.000277041
-0.000132562
-0.000106905
-1.01844e-05
-2.81114e-05
8.42643e-05
-0.000834249
0.000749987
-0.000429685
-0.000379885
0.00080957
-7.44102e-05
-0.000751823
0.000826232
-0.000272883
0.000771688
-0.000498806
0.000180677
-0.00253491
-0.00070964
0.000436756
-8.93484e-05
9.97023e-05
-1.03538e-05
-4.17305e-05
1.01761e-05
3.15543e-05
0.0351533
0.00637695
4.45821e-05
-6.32205e-05
1.86394e-05
0.00524744
-0.0858133
-3.73347e-05
5.0234e-05
-1.28971e-05
0.00168234
-0.00107724
-0.000605097
-6.86318e-05
2.70433e-05
4.15889e-05
-0.000183193
0.00183655
-0.00397427
0.00213773
8.92371e-05
-0.000106845
1.76072e-05
0.00331281
-0.00286428
-0.000448528
0.00513697
0.00138827
-0.000705298
-0.000414377
0.00111968
0.0257029
-0.00781463
-0.0178883
1.96946e-05
-4.94516e-05
-0.0221559
0.0683057
-0.0461498
3.60309e-05
5.27091e-07
-2.06373e-05
5.29992e-05
-3.2362e-05
-4.34982e-06
-8.49984e-05
0.000408631
9.74194e-05
-0.000506049
0.029261
-0.0253378
-0.00392321
0.00521753
-0.0151596
0.00994205
0.000402107
-0.000516659
0.000114553
1.96796e-05
-4.37051e-05
-2.92974e-05
3.83368e-06
2.54636e-05
-3.13479e-05
-6.21019e-07
-0.020139
-0.0100021
0.00195413
8.89053e-05
0.000148328
-0.000156478
8.14983e-06
-0.000511504
0.000946063
-0.00043456
-0.00123608
0.000480255
0.000755826
-0.000221481
4.563e-05
-2.59352e-05
-2.86697e-05
-2.84014e-05
-0.00122381
-0.0225353
2.93649e-05
3.19326e-05
0.000926409
-0.00103814
0.000111732
-0.000992003
-3.35249e-05
0.000180609
0.0047295
-0.000345436
-0.00438406
0.001729
-0.00114745
-0.000581548
3.40108e-05
-0.000159735
0.000125724
-2.75446e-05
-4.80306e-06
-5.92428e-05
0.000344566
0.00155156
-0.0012088
-0.000342755
-0.00231015
0.00136165
-0.000203262
0.000802392
-0.0038021
-0.00051577
0.00431786
3.991e-05
-3.94835e-05
-4.26428e-07
1.4832e-05
-1.48318e-05
-0.000156962
0.000565593
-0.0147649
0.00534228
0.00726032
0.00117674
-0.000524109
-0.0104944
0.0053475
0.00514684
-5.85137e-05
3.49255e-05
0.00122311
-0.00171041
0.000487297
-0.000590877
-0.000645205
0.0009931
0.0084449
-0.00943806
0.00135185
-0.00085354
-0.00049831
0.017126
0.0281922
-0.0453182
0.007954
-0.0222026
0.0142486
-3.39868e-05
9.0504e-06
0.00123548
0.000493521
-2.56804e-05
-3.01146e-05
-9.87379e-05
2.87816e-05
0.000110443
0.00042391
5.4651e-05
-3.59963e-05
-1.86547e-05
-0.0326458
-0.000694444
0.048634
-0.0315079
0.000967982
-4.15725e-05
-2.13348e-05
-1.41718e-05
3.55067e-05
1.66906e-05
-3.80256e-05
5.24673e-05
-5.38368e-05
1.36998e-06
0.00548191
-0.00552783
4.61001e-05
0.00223995
-8.90699e-05
-0.00215088
-9.20968e-05
0.000109909
0.000486569
-0.000716007
0.000229439
-0.000840469
-0.00593316
-0.00169461
0.00138192
0.000312687
0.0215504
-0.0192831
-0.00226735
-2.42038e-05
8.47913e-06
-2.70153e-05
-1.82634e-05
-2.35617e-05
2.8174e-05
-4.61254e-06
0.00389851
-0.00206196
-5.64976e-06
-2.24013e-05
2.80511e-05
0.000814589
0.00137079
-0.000678311
0.000704744
-0.0368373
0.00586679
-6.33756e-05
0.000180504
-0.000117128
-0.000256712
8.5949e-06
-4.60881e-05
3.74932e-05
-0.00379466
-0.00475795
0.0085526
1.99379e-06
3.22653e-05
-3.42589e-05
-0.000285279
0.000189163
9.61164e-05
-0.00331962
-0.00534207
-0.00910572
-0.000805964
0.00991166
5.50011e-05
-5.15989e-05
-3.40211e-06
0.0167025
-0.0142921
-0.00241035
5.31887e-05
4.41426e-05
-9.73309e-05
-0.00862202
0.0271782
-0.0185562
-0.0126496
-0.0241877
4.27232e-05
-1.50959e-05
-2.76271e-05
-0.00185722
0.000385457
0.00147176
0.0332494
-0.00834431
-0.0249053
0.000209709
-0.000188051
-2.16563e-05
0.000127668
-5.36444e-05
-7.40246e-05
5.41548e-05
-0.000238126
-3.99275e-05
2.97431e-05
-3.5374e-05
8.85627e-05
-7.23815e-05
-0.000185357
0.000257739
-0.0001501
-0.000685241
-4.87174e-05
0.000157314
-0.000108597
0.0262481
-0.0182941
-0.000349399
0.0012843
-0.000934905
-4.88715e-05
0.00010846
-5.95891e-05
-0.000104354
0.000177548
-2.15473e-05
-1.67117e-05
3.82593e-05
5.15228e-06
3.83057e-05
-4.34582e-05
0.00101072
-0.0028156
0.00180488
3.76124e-05
-4.36511e-05
-3.52422e-05
6.36811e-06
-0.00552663
-0.0326766
0.0382032
-0.000978264
-0.00282384
4.2202e-05
-6.17177e-06
0.00384151
0.0294078
-0.000438901
-0.000730559
0.00116946
-0.00105579
0.00125584
-0.000200038
0.00841878
-0.002666
-0.00575275
0.000319404
-0.000749089
-0.00390716
0.00534646
4.50151e-05
-3.33657e-06
-4.16788e-05
0.0092814
-0.0163913
0.00710993
-2.64082e-06
-1.56324e-05
1.82732e-05
0.00215228
-0.000804826
-0.00134745
1.85186e-05
-2.11595e-05
5.54269e-06
-0.00145861
0.00145307
-0.0123968
-0.00627723
-0.0242534
0.0312277
-0.00697423
0.00163394
0.00431276
-0.00594671
-0.00950762
-0.00955896
0.0190666
-0.000104565
5.83265e-05
4.62416e-05
-0.00465298
0.00245541
0.000555098
-0.000178551
-3.04582e-05
-3.98915e-05
7.035e-05
0.000194285
-0.000101528
-1.75484e-05
-2.23805e-05
6.9892e-05
-6.98927e-05
0.00020051
0.0031123
-1.03576e-05
-3.13729e-05
-8.89914e-06
-3.07743e-05
3.96732e-05
-6.19006e-05
3.0103e-05
3.17978e-05
-3.46544e-05
6.22707e-05
0.0825424
0.00340242
-0.0859448
-3.15526e-05
-3.31045e-05
6.46577e-05
-2.13862e-05
2.28848e-05
-1.49854e-06
0.00071588
0.00143641
0.0679643
-0.0992928
0.0313285
-0.0355224
0.00736535
0.028157
-0.0140594
-0.0561654
0.0702249
-0.000212946
-0.000642559
0.000855506
-0.000695123
0.000278382
0.000416743
-0.00247247
-0.000344603
0.00281709
3.82262e-05
-4.14317e-05
3.20549e-06
-0.00104993
-0.0062645
0.000493668
-0.000706613
-0.00149502
-0.00565809
0.00715312
-4.82612e-05
4.66409e-05
1.62021e-06
-0.00365389
0.000736174
0.00291773
6.1607e-05
-3.42403e-05
-2.73665e-05
-8.99295e-05
-2.16738e-06
-3.45222e-05
-1.7773e-06
3.62992e-05
-0.00877014
-0.0462656
0.0109915
0.0715509
2.45281e-05
-2.38803e-05
-6.47782e-07
-7.76889e-05
0.000325713
-0.000248024
5.32053e-06
-2.88823e-05
-0.000315799
0.0017821
-0.00146631
0.00512478
-0.00364539
-0.00147939
2.36995e-06
1.76291e-05
-8.24206e-05
0.000601712
-0.000519292
-5.75593e-05
2.62625e-05
3.12976e-05
-0.00340931
-0.00461564
0.00802493
0.000728143
1.82452e-05
-0.000209305
0.000171264
3.80416e-05
-2.36199e-05
2.23379e-06
-0.00819976
0.0246589
-0.0164592
-3.46053e-05
5.36948e-05
-1.90902e-05
3.38314e-05
-0.000103631
6.98063e-05
-3.5653e-05
3.2183e-05
-4.10824e-05
-0.0542922
0.0402328
3.42186e-05
1.47159e-06
-3.569e-05
4.23286e-05
-5.20492e-05
9.72054e-06
-0.000487758
-0.000782688
0.00127045
-0.000107922
-0.000177357
5.15091e-05
-5.94984e-05
7.98895e-06
0.0144197
-0.0067014
-0.00771837
6.00777e-05
0.00373429
-0.00379437
-2.35979e-05
2.3137e-05
4.61388e-07
-0.0117069
0.0133655
-0.00165858
0.00014667
0.000814484
-6.77819e-07
0.00018984
-0.000697128
-0.000100964
0.000798093
2.08739e-05
-1.85037e-05
-7.07326e-05
0.0239537
-0.0300872
0.00613356
-0.000128535
0.000615105
0.0136419
-0.00842436
-0.00156488
-0.00289021
0.0044551
0.0155201
0.00118247
-0.00504454
0.00667847
-0.00203043
0.00411072
-0.00208028
-0.00987192
0.001284
-0.00930976
0.000203997
-7.24256e-05
4.20883e-05
0.000330712
-0.00033139
0.00132933
-0.000280556
-0.00104876
0.0312586
-0.00730488
-1.67864e-05
-1.20171e-05
2.88035e-05
0.00048918
0.000862667
0.00855295
0.0058667
-4.41504e-05
2.17694e-05
2.2381e-05
-4.04158e-06
5.11571e-05
-4.71155e-05
-8.98445e-05
0.000269334
-0.00107588
0.000806546
-0.0329736
0.0200069
-0.00997493
0.0111663
-0.00119143
-2.59692e-05
2.08579e-06
2.38835e-05
0.00746048
0.0201216
-0.0275821
5.31214e-05
-2.54247e-05
-2.76966e-05
4.8661e-05
3.34807e-05
-8.21416e-05
-7.03138e-05
6.55014e-05
-4.48679e-05
-2.06334e-05
2.38896e-05
-5.29479e-05
2.90586e-05
0.00744766
-0.0149166
0.00746897
-0.00221933
0.0158612
0.0170385
0.00487965
0.00198694
0.000253011
0.00884835
-0.00351057
0.000130861
1.74675e-05
0.0196339
-0.00411381
0.00470862
0.0172337
0.0186939
-1.03114e-05
6.28178e-05
4.60257e-05
2.14731e-05
-5.97042e-05
3.82327e-05
0.0021286
-0.00163805
-0.000490541
0.0384096
0.0148731
-0.0532827
-0.000357743
-0.000924778
0.00128252
-3.63936e-05
5.15687e-06
0.000297477
-0.00395136
0.0110731
-0.0132925
0.000806385
0.000247727
-0.00105411
-0.000177542
0.000157547
1.99949e-05
6.3387e-05
-1.18787e-05
-0.000464505
-0.000631657
-5.23305e-05
6.49546e-05
-1.26241e-05
0.000973851
0.000708482
0.0335061
-0.00549629
-0.0280098
-4.87725e-06
-2.1092e-05
-4.29822e-05
2.14351e-05
0.0193858
0.00987515
-3.46374e-05
1.78511e-05
-0.0146072
0.0304457
1.32089e-07
-3.64981e-05
3.63655e-05
2.33346e-05
-1.79335e-05
-5.40049e-06
-0.000197209
3.45171e-05
0.000162691
-1.15317e-05
-0.000166011
-0.00041616
-0.00045331
-0.000574226
0.00195836
-0.00094764
-0.000407107
-2.26155e-05
0.000429727
-3.6433e-05
-6.71948e-05
-0.00860224
0.00480758
0.000988851
-0.00010762
-0.000881231
0.000974647
-0.000187499
-0.000787149
2.16479e-05
-3.71408e-05
1.54931e-05
-9.63856e-05
3.57376e-05
6.06487e-05
-0.0294535
-0.00319224
0.0018271
-0.00060399
1.5421e-05
-1.55658e-05
1.4468e-07
-0.000117192
-0.000255865
0.00292307
-0.00343885
2.97576e-05
-3.38107e-05
4.05337e-06
-0.00151352
0.0011968
0.000316726
0.00266182
0.00177847
-0.00444028
5.77549e-05
-4.06174e-05
-1.71376e-05
-2.59277e-05
-4.12923e-06
3.00569e-05
2.13409e-05
2.56366e-05
-4.69779e-05
-0.0237824
0.00351082
0.0202715
0.0178665
-0.000346403
-0.0175201
-7.13152e-07
-0.000173392
6.90384e-05
0.00525835
-0.00354328
-0.00171507
1.36517e-05
2.855e-05
-0.00135258
0.000844835
0.000507746
2.45323e-05
-3.25236e-05
7.9914e-06
0.00119328
-0.000755982
-0.000437296
-2.14931e-05
-6.03474e-05
8.18403e-05
0.00177345
-0.000221889
-4.32425e-05
2.76288e-05
1.56137e-05
0.0177231
-0.0122222
-0.00550099
0.0127091
-0.0198674
0.00715825
2.35022e-05
3.14989e-05
-0.0212966
0.0287571
3.57079e-05
-3.55761e-05
-0.010702
0.0217751
0.000804082
-0.00065741
-3.90339e-05
-5.73513e-05
-0.00356961
0.00374892
-1.28152e-06
2.21557e-05
-1.88413e-05
4.10497e-05
-2.22083e-05
-1.69317e-05
2.66773e-05
-9.74556e-06
0.000217276
-0.000292126
7.48495e-05
-0.00190043
0.00220595
-0.000305513
4.84707e-05
-2.71299e-05
-0.000845583
0.00111086
-0.000265274
-0.000459384
0.000459385
0.00046446
-0.00151777
0.00105331
-5.99414e-05
2.53356e-05
5.84521e-05
-1.51201e-05
-4.33317e-05
3.58835e-06
1.18328e-05
4.34527e-05
-2.09288e-05
-2.25238e-05
3.39139e-06
1.14406e-05
0.00220145
-0.00423187
0.0476279
-0.0437865
0.000395091
0.00113946
-0.00153456
-7.35448e-05
7.83991e-05
-4.85462e-06
-0.0202554
0.00785854
1.0895e-05
3.28885e-05
-4.37835e-05
-0.0165536
0.00585156
3.54977e-05
-1.38496e-05
-0.00402195
0.00245708
3.11428e-05
-6.61042e-06
-0.000455887
0.00012393
0.000331958
-2.35207e-05
3.85125e-05
-1.49918e-05
0.000503289
-0.000480335
-2.29536e-05
-0.000177965
-3.63017e-05
0.000214266
-6.10265e-06
3.47014e-05
2.27646e-05
7.338e-05
-9.61445e-05
-0.000150175
0.000408055
-0.000257878
-0.000675545
0.000593124
0.000430007
-7.50524e-05
-0.000636938
-1.98149e-07
0.000637138
2.29159e-05
-7.63189e-07
-2.21527e-05
8.92237e-06
1.64389e-05
-5.18651e-05
9.34189e-05
-4.15533e-05
-0.000197191
-1.63973e-08
0.000923303
-0.000320202
-0.000603099
-0.000251635
0.000173946
0.000640652
0.00055263
-0.0304784
0.00788725
-0.000345443
5.60655e-05
-7.75583e-05
-0.000562825
0.000526173
3.66518e-05
0.00192627
6.06726e-05
0.0130638
0.0231994
-0.0362632
0.000676094
-0.000891545
0.000215452
-4.93636e-05
-1.92677e-05
-0.0286658
0.00479538
0.0238704
-0.000872326
0.0070052
3.12962e-05
-1.83956e-05
-1.29005e-05
0.0535588
-0.0133625
-0.0401964
1.41501e-05
-2.9252e-05
-2.3264e-05
-1.21391e-05
-0.000108451
-0.000455334
0.000563785
-0.00155266
0.00131521
0.000237447
0.00100167
-0.000732335
-0.0015256
0.012506
-0.0109804
0.0206242
0.00127071
-3.99387e-05
9.16419e-06
0.000831152
0.000527038
-0.00135819
-0.0940963
0.0589437
0.0351525
0.0179426
-0.0104949
-0.000389163
0.00106526
-0.000109336
0.000143347
-3.6086e-05
-0.000588913
0.000716138
-0.000127219
-8.17002e-05
4.52732e-05
-3.54176e-05
3.73233e-05
-1.90586e-06
3.89834e-05
-5.14082e-05
1.24247e-05
-0.000141357
0.000129826
-5.91981e-06
4.25531e-05
-0.000848839
0.000192426
0.000656412
-2.9875e-05
9.30765e-06
0.0118533
0.00586975
-4.50057e-05
-6.59318e-06
-0.000267779
3.67349e-05
-1.06327e-05
0.003063
-0.00505543
0.00199246
0.0558651
-0.00823728
0.000930496
-0.000203288
-0.000727208
0.0295943
-0.0517502
3.56875e-05
3.77845e-05
-7.34719e-05
0.000226517
-1.68069e-05
-1.23597e-05
3.40714e-05
-2.17116e-05
-9.76064e-05
-7.9631e-05
0.000182894
-0.000103263
-3.00269e-05
5.62895e-05
0.00397758
0.00707262
-0.00907585
-0.01959
-2.32445e-05
1.18449e-05
1.13996e-05
-0.000194554
-3.85458e-05
0.000771515
0.000217336
5.48464e-06
1.94127e-05
-2.48968e-05
-0.0172864
-0.00491624
-0.00824121
0.0157677
-0.000123683
-0.000245044
0.000368726
-2.76795e-05
1.53199e-05
0.00533621
-0.00418602
-0.00115018
-1.05481e-05
-3.74874e-05
4.80356e-05
-3.41637e-05
-2.81794e-05
6.23413e-05
0.000138119
0.000792376
2.61061e-05
-4.46771e-05
2.65533e-05
1.81239e-05
4.15856e-05
-8.89171e-05
4.73315e-05
-0.000730395
3.32666e-05
0.000148838
3.06161e-05
-0.000179454
-0.00011107
-0.0180616
0.0120353
0.00602627
3.90876e-05
2.19496e-05
-6.10369e-05
-0.000196062
2.26692e-05
0.00018114
-0.000210766
-5.65264e-05
-7.4884e-05
0.000131411
-0.00710807
0.00369875
-0.00786319
0.0104347
-0.0025715
-0.0173304
0.05574
-5.92355e-05
-2.24606e-05
3.61018e-05
-3.39673e-05
-2.13453e-06
-5.12795e-05
9.14057e-05
-4.01258e-05
-3.99372e-05
8.85984e-05
-2.88901e-05
2.95253e-05
-6.35188e-07
0.000457682
-0.00436484
0.00124354
-0.000364245
-0.000879294
0.000377318
-0.000888824
-0.00128741
0.000723762
0.000563653
3.48724e-05
-1.68973e-05
-1.7975e-05
0.0028335
0.00153044
-0.000140142
-0.0013903
1.78872e-05
-5.36083e-05
3.57212e-05
-3.97878e-05
5.26555e-06
-0.00141546
0.001421
-2.20425e-05
0.000170881
0.0042552
-0.0378507
0.0335955
0.000360267
0.000969063
-3.4877e-05
2.01404e-05
1.47369e-05
0.0142862
0.00534779
0.00657679
-0.00807181
0.000452661
-0.000237728
-0.000214932
-0.000682371
-0.000347542
0.00102991
2.46349e-05
-0.000160636
0.000136001
-5.56907e-06
-3.70418e-05
6.59739e-06
3.04443e-05
-0.0225867
0.0300583
-0.00747157
-4.70359e-05
6.86449e-05
-2.16089e-05
0.00570995
-0.00460831
-0.00110169
5.13917e-05
-0.000100263
0.00597761
0.0144541
-0.0204317
4.02487e-05
1.18953e-05
-5.21433e-05
-3.10826e-05
-1.51372e-05
3.88663e-05
-3.69179e-05
-1.94903e-06
0.00136193
1.87871e-05
-6.67525e-05
4.79654e-05
-0.00122915
-0.001081
2.27922e-05
3.18587e-05
-0.000801597
0.000153345
0.000648253
-2.55952e-05
1.49112e-05
1.06832e-05
4.66196e-05
-7.304e-05
2.64204e-05
3.91835e-05
0.000884121
0.00112387
-0.000112567
-0.0010113
-0.000210915
3.29497e-05
5.17547e-06
-2.46061e-05
1.94305e-05
-2.36906e-05
2.23691e-05
1.32232e-06
-0.000183943
0.000197298
-1.33549e-05
1.04096e-05
-1.32736e-05
2.86397e-06
-9.50587e-05
0.000899141
-0.023312
0.00642346
0.0168885
2.56214e-05
-5.60349e-05
-0.0218255
0.0102493
0.0115762
-0.00190078
-0.00214668
0.00404747
0.000167852
-0.000132383
-3.54687e-05
-4.4226e-05
4.56931e-05
-1.46837e-06
-0.00433657
0.00362967
-3.94424e-05
0.000240601
-0.000201158
0.000394424
-0.00077428
0.000379857
-0.00239337
0.00342483
-0.00103143
0.00125161
-0.00011383
0.000596958
-0.00127933
-0.0034969
0.00137167
-5.40615e-05
-0.00010974
0.000163802
-1.50099e-05
-3.13454e-05
4.63554e-05
-3.07565e-05
4.96239e-05
-1.88676e-05
-0.00339674
0.00331801
7.86939e-05
0.000416163
-0.000903921
-5.83305e-05
0.000116297
-5.79661e-05
0.00820358
-0.0177112
0.000671478
0.000788054
0.0248574
-0.016415
-0.00844235
0.000734001
-0.000808413
0.00641291
0.0184444
-0.000462089
0.000120053
0.000342037
-5.5368e-07
0.000300396
-0.00100569
0.00017611
-0.000434692
0.000258582
0.0234716
-0.0100956
-0.0133759
-6.8454e-05
-0.00014085
-0.000149012
7.65547e-06
0.000687862
-0.000753154
6.52933e-05
2.20453e-05
-2.63937e-05
4.34857e-06
0.00602607
-0.00628707
0.000261008
-0.00210998
0.0011425
0.000967484
-1.30658e-05
0.00602401
-0.05409
0.0480661
-0.000139401
8.97002e-05
4.97009e-05
-1.501e-05
5.26952e-05
-3.76853e-05
-5.80824e-05
-8.45017e-05
0.000142583
0.000389786
-0.000498237
-0.00016819
8.85562e-05
2.36801e-06
-0.00154698
0.000879004
0.000667976
-0.000370916
-0.000430682
-0.0336219
0.0190147
-0.000310858
-0.000836596
-1.07133e-05
-2.45289e-05
0.000162275
-0.000237846
7.55707e-05
0.0117408
-0.00245942
-0.000225116
-0.000153294
6.08054e-05
1.81629e-05
-7.89681e-05
-0.000543471
-0.00100351
0.00206266
-0.00134677
-0.00999813
-0.0102573
-0.00409352
0.00455121
9.08852e-06
0.000147073
0.000305587
0.00115605
-0.021127
0.019971
0.000202614
0.000772033
0.000466636
0.00137162
-0.00183826
0.000845602
-0.00323894
-0.000255976
0.000540026
-0.000284051
0.000731009
0.000799433
-0.00506404
0.00218531
0.00287871
-9.09711e-05
4.59485e-05
4.50229e-05
-0.000222051
0.000108971
0.00011308
0.000104478
2.31896e-05
-0.00865982
0.0266032
-0.0179434
-0.000127316
8.80161e-05
3.92997e-05
-0.00117518
0.000285396
0.000889783
0.000320917
-0.000444599
3.5692e-06
-2.9058e-05
0.00209415
0.000176408
-0.00227051
-6.92502e-06
0.0011308
0.00220993
-5.9621e-05
2.12649e-05
3.83564e-05
2.54929e-05
-2.56802e-06
-2.29248e-05
-4.08735e-05
-7.38778e-06
-0.0312937
0.00120647
0.00105667
-0.00628847
0.00523181
-0.00704172
0.00778651
-0.000744788
0.0131036
-0.00861704
-0.00448656
0.00211111
0.00300345
0.000391339
-0.00123692
0.0464159
0.0466886
5.21513e-06
-0.00675405
0.0245056
-0.000273812
-0.000421311
-0.0284361
0.0295921
-0.026316
-0.00497755
-2.46434e-05
3.94294e-05
-1.47862e-05
-0.0189166
0.00891848
-5.46235e-05
3.39861e-05
1.80797e-05
1.72634e-05
-5.45981e-05
0.00715484
0.0263513
7.08683e-05
-0.000333729
0.000262861
-1.5105e-05
2.21576e-05
-7.05262e-06
-5.40301e-05
-4.594e-05
-3.50854e-05
2.09124e-05
1.41733e-05
-8.84668e-05
6.78657e-05
2.06016e-05
-6.88128e-05
2.89213e-05
0.000831817
-0.00155578
0.000723966
0.00174315
0.00373874
0.000198742
-0.000631441
0.000432687
-0.000187787
-0.000243095
0.000430883
0.0280941
-0.0180945
-0.00999952
0.0115267
-0.0109236
-0.000603103
5.79876e-05
-3.81821e-05
-1.98056e-05
-0.000176192
-1.987e-05
-2.9155e-05
5.42927e-05
-5.13774e-06
3.48171e-05
-2.96792e-05
0.00849181
-0.00483675
-0.00365508
2.04553e-05
9.11949e-06
-2.95749e-05
-0.00760133
0.00219679
0.00540455
-2.19436e-05
3.07246e-05
-8.78097e-06
0.000708263
0.000685732
-0.00139399
0.000662878
-0.000757936
-0.0283608
0.00204477
-6.79393e-05
-1.81339e-05
-0.000101454
-0.00159316
1.22697e-06
0.0091271
-0.0206624
0.0115352
-6.15974e-06
4.52474e-05
-0.0241143
-0.00636413
-3.76567e-05
6.14795e-07
0.0114587
0.00824281
0.0403823
-0.0343582
3.38351e-05
6.41399e-06
0.0350306
-0.00716467
-4.15871e-05
2.46545e-05
-9.52751e-05
-3.20404e-05
0.00426402
-1.58599e-05
-4.60405e-05
0.0606712
-0.0474535
-0.0132176
1.46002e-06
-4.56861e-05
0.00012161
0.00200698
0.000999543
-0.0013104
-0.00124425
0.00113472
0.000109524
0.0115116
0.00185385
-0.00223614
0.00100699
5.03826e-05
-4.29036e-05
-7.47912e-06
-3.48238e-05
5.56798e-05
-2.0856e-05
-0.00204286
0.000970949
0.000972409
0.00112416
-0.00209657
1.19939e-05
-0.00125624
-0.00292632
0.00322382
-1.72671e-05
1.23777e-06
1.60293e-05
3.34774e-05
2.81295e-05
0.00781813
-0.0333611
0.0255429
-3.59634e-05
2.10952e-05
1.48681e-05
-3.85059e-05
-2.62812e-05
6.47871e-05
-2.32179e-05
0.00616408
0.0173076
0.000501225
-9.91175e-05
0.00888669
-0.0132113
0.00432456
0.00018227
0.00109706
-0.00127934
-6.24707e-05
-7.69301e-05
-0.000439096
-0.000848319
-6.37408e-05
0.000751603
-0.000218908
2.43543e-05
-0.00263601
0.0227577
0.00106608
0.00220762
-0.00327371
0.000800989
0.00126167
4.30686e-05
7.3139e-06
-6.74113e-05
-3.13263e-05
0.00580484
0.00268695
0.00014657
-0.000180095
-7.02388e-05
9.05684e-07
6.93337e-05
-0.000109237
0.000175944
-6.67061e-05
0.00427451
-0.00528411
0.0219503
-0.0131605
-0.00878979
7.10073e-06
2.77638e-05
-3.48645e-05
1.72853e-05
1.40109e-05
-0.0141679
0.0290409
2.61897e-05
3.81211e-05
-6.43108e-05
6.72043e-07
-3.202e-05
3.88707e-05
-0.000473998
-0.000374842
3.33553e-05
-1.66647e-05
-0.00214861
-0.00196567
0.00411428
3.08414e-05
-3.56356e-05
4.79387e-06
-2.76129e-05
3.62078e-05
3.86943e-05
-0.00261977
0.00258108
-0.000182243
0.000212858
-0.000189276
-0.000342511
0.000531786
0.0399755
-0.0321574
0.00178248
-0.00332253
0.00154005
0.0570421
0.00362913
-0.0096915
-0.00922513
-0.000463028
0.00154565
-0.00108263
-1.48037e-05
4.25676e-05
-2.42519e-05
8.61954e-06
-5.70854e-05
1.31197e-05
4.39654e-05
-3.9881e-05
2.57092e-05
-2.04875e-05
2.59724e-05
0.00121247
0.00518396
-0.00639644
0.0197991
0.0266172
-0.0464164
-6.30442e-05
1.0714e-05
0.0360195
-0.0166337
-0.000874503
3.94916e-05
-1.99637e-05
-1.95286e-05
-0.000205947
0.0700211
-0.0747126
0.00469149
6.12926e-05
0.000106559
-2.15202e-05
6.81398e-05
4.83407e-05
-5.17995e-05
3.45803e-06
-2.83842e-05
5.05169e-05
-2.21328e-05
-0.00829941
-0.00465053
0.0129499
-0.0146554
-0.000726691
0.000810957
-0.000394179
0.000592917
4.98006e-05
-5.7527e-05
3.2043e-05
2.5484e-05
-6.85987e-05
0.000134969
-6.63708e-05
-1.38839e-05
2.52972e-05
-1.14133e-05
-0.0206792
-0.0148432
-2.64926e-05
4.10365e-05
-1.45439e-05
0.0003771
0.0696439
9.11368e-05
0.00183513
-6.52583e-06
4.08602e-05
-3.43344e-05
-0.00476193
0.00775556
8.6386e-06
2.94527e-05
-2.41212e-05
-3.34059e-05
0.0029315
-0.00558908
0.00265757
-1.98673e-05
-0.000162375
-4.56098e-05
1.77593e-05
2.78513e-05
0.0013488
-0.00427512
0.0563243
-0.0127171
-0.0436071
-0.000143772
-7.82807e-05
-0.00121812
0.00219053
0.00166469
-0.0012696
0.0189564
-0.0127923
0.000125874
9.0054e-05
-0.000215928
0.000546591
-0.00039798
-0.000148608
5.19316e-05
-1.03965e-05
-4.15352e-05
-0.00394339
-0.0171836
6.72511e-05
3.47065e-06
-7.07226e-05
-3.05877e-05
-3.39724e-05
6.45598e-05
3.42376e-05
3.98875e-06
-0.000148154
0.00617423
-5.78818e-06
-4.36176e-05
4.94061e-05
3.14218e-05
2.61548e-06
-3.40369e-05
-3.26631e-05
3.98015e-05
-7.13848e-06
-6.00639e-05
-4.61485e-05
0.000341416
-0.000529203
0.000233582
-0.000160992
-7.25896e-05
-4.0834e-05
-3.04691e-05
-1.51413e-05
-2.22551e-05
-1.8878e-05
4.11345e-05
5.89597e-05
-3.277e-05
-1.59118e-05
-1.91737e-05
-1.83013e-05
3.60611e-05
-1.17679e-05
5.99092e-05
-4.814e-05
3.69904e-05
-0.000228871
0.00019188
-0.00121977
-0.00971708
0.00506729
-2.73412e-05
4.92338e-05
-2.18923e-05
-0.000180279
0.000402337
-0.000222058
-1.93622e-05
2.66453e-05
-7.28312e-06
-2.00245e-05
-1.59389e-05
0.0127412
-0.00385449
-8.55391e-05
-1.73475e-05
0.000102886
3.16538e-05
5.91958e-06
0.00742646
-0.00895208
-4.0421e-06
-1.41528e-05
1.81947e-05
0.00340527
0.00230468
0.00572568
-0.00466898
0.00517136
-0.0154773