/*--------------------------------*- C++ -*----------------------------------*\
| =========                 |                                                 |
| \\      /  F ield         | OpenFOAM: The Open Source CFD Toolbox           |
|  \\    /   O peration     | Version:  v2012                                 |
|   \\  /    A nd           | Website:  www.openfoam.com                      |
|    \\/     M anipulation  |                                                 |
\*---------------------------------------------------------------------------*/
FoamFile
{
    version     2.0;
    format      ascii;
    class       volScalarField;
    location    "100";
    object      k;
}
// * * * * * * * * * * * * * * * * * * * * * * * * * * * * * * * * * * * * * //

dimensions      [0 2 -2 0 0 0 0];


internalField   nonuniform List<scalar> 
53008
(
0.0016786
0.000182705
0.0257013
0.00014388
0.00592638
0.000137177
0.000144061
0.000132399
0.00017111
0.000137535
0.000129767
0.00020867
0.000137809
0.0197099
0.00306316
0.000282834
0.000155512
0.00600319
0.000165856
0.000141147
0.000150695
0.00866674
0.0454481
0.0219789
0.000137435
0.000167225
0.00662093
0.000137372
0.034259
0.000143845
0.000172121
0.000141128
0.024182
0.000558877
0.000132601
0.000132672
0.00015105
0.000360944
0.000178599
0.0294214
0.0233176
0.00919312
0.000132547
0.000138596
0.00412637
0.0114365
0.005441
0.00673678
0.000353873
0.0165626
0.000163631
0.0312853
0.000157038
0.00016779
0.000204778
0.000200907
0.0233025
0.000152987
0.000139646
0.000146839
0.000141778
0.000139023
0.000150752
0.000163654
0.000139696
0.0114982
0.0457619
0.000187569
0.000151483
0.000140474
0.00014205
0.000143167
0.000172874
0.000143012
0.000183469
0.000161057
0.000132334
0.000139433
0.000167186
0.0001458
0.00013747
0.000138406
0.000209192
0.000172545
0.000142481
0.000161446
0.000192905
0.000186531
0.000170077
0.000141633
0.000130642
0.000141591
0.00014791
0.000142511
0.000186536
0.00716461
0.000140368
0.00013062
0.000137809
0.00014037
0.00014185
0.000146754
0.0431552
0.000137301
0.000142024
0.00555414
0.000255394
0.0187303
0.000153797
0.00132789
0.0306917
0.0449873
0.0134362
0.000138656
0.000158292
0.000146022
0.00608818
0.000167297
0.000193029
0.007085
0.000130736
0.000152011
0.0335198
0.0001699
0.000133296
0.0234622
0.0170766
0.000245469
0.0140798
0.000165861
0.000131093
0.000130714
0.00889691
0.000179849
0.0452535
0.000141601
0.000151163
0.000149655
0.0439512
0.00013098
0.0145994
0.0465157
0.000219376
0.000159379
0.000127552
0.000171345
0.000180876
0.000182454
0.000158588
0.000143915
0.0221411
0.000139391
0.000189503
0.0187548
0.0136565
0.000158399
0.0160837
0.0264927
0.000137198
0.000154117
0.000135132
0.000138623
0.000129542
0.000144478
0.000129613
0.0242596
0.00020984
0.023441
0.000130936
0.000136035
0.000179738
0.0265119
0.000148689
0.00501184
0.000137369
0.000134961
0.000158632
0.000145815
0.000209764
0.000160804
0.000179409
0.000171145
0.000135766
0.000137183
0.0183132
0.000138771
0.000129243
0.0229453
0.027448
0.0217746
0.00013623
0.0197316
0.000179294
0.000323058
0.0302062
0.000142582
0.00154201
0.000220093
0.000142606
0.0112324
0.000143639
0.00479986
0.000206589
0.000142894
0.000244711
0.000219934
0.000136208
0.000151578
0.000334657
0.0241302
0.000180856
0.00018838
0.00894269
0.000152372
0.0322829
0.000151332
0.0202686
0.000187466
0.0462364
0.0458783
0.000191505
0.000150988
0.000140254
0.031165
0.000193914
0.0131684
0.00017094
0.00266497
0.000170118
0.000152197
0.000137053
0.00122717
0.000146898
0.0161136
0.000145614
0.00995397
0.000147934
0.000151898
0.000184503
0.000136558
0.000276819
0.000218323
0.000197982
0.00824878
0.000140282
0.0129006
0.000139553
0.00013948
0.000152258
0.000165117
0.0300311
0.000662948
0.000192659
0.000134921
0.00015212
0.000132336
0.00911511
0.000206835
0.000188804
0.0186198
0.0480436
0.000187455
0.000140202
0.000157287
0.0051226
0.000158895
0.0442404
0.0452704
0.000158161
0.000248143
0.000204579
0.000142314
0.000151153
0.000190767
0.000165858
0.000219148
0.000158918
0.0040434
0.000147783
0.000149168
0.00016489
0.00545599
0.00024419
0.00755821
0.00024439
0.000141708
0.000172786
0.0480506
0.0112086
0.0327392
0.00935946
0.000399105
0.0121911
0.00020446
0.000144429
0.000145804
0.0258524
0.000138711
0.016157
0.0101306
0.0438264
0.000134759
0.000134587
0.000144141
0.0200164
0.000211956
0.000137481
0.000165715
0.00022744
0.0292471
0.000318898
0.000143124
0.000134992
0.000133938
0.000184507
0.000143307
0.000180903
0.0237251
0.00746121
0.000146022
0.000188388
0.000128928
0.00025921
0.000130353
0.000139029
0.0312441
0.0298233
0.000140048
0.000274225
0.000152784
0.00612203
0.00728526
0.000137748
0.000171451
0.00647788
0.000151788
0.0122168
0.000170997
0.000140064
0.000152601
0.000172048
0.00016961
0.0123151
0.000425105
0.0106504
0.000137194
0.000175124
0.000130723
0.000136853
0.000206951
0.000138957
0.000135965
0.0383433
0.00430456
0.000139582
0.00716308
0.0250436
0.0157477
0.0228745
0.00019293
0.000245788
0.000150341
0.000830192
0.000135344
0.000206739
0.000135141
0.000174704
0.035839
0.0160095
0.00023181
0.0436633
0.00014754
0.000203285
0.00015008
0.000143752
0.000183197
0.000140015
0.00456257
0.000266989
0.000137031
0.000138471
0.000136705
0.000143741
0.0116393
0.000137095
0.000142733
0.000194448
0.0142197
0.0238912
0.0141632
0.0301641
0.0146699
0.00482038
0.000132515
0.0231855
0.0300282
0.00234013
0.000139281
0.00526515
0.000137421
0.000137381
0.000136207
0.0126434
0.0116826
0.000149845
0.000147898
0.000133828
0.000216961
0.000194107
0.000142939
0.000187843
0.000141752
0.031585
0.0321976
0.00019011
0.000142711
0.00713385
0.00015279
0.000147357
0.000141663
0.000138542
0.0135853
0.000136415
0.000141502
0.00015747
0.000139125
0.000143155
0.0210726
0.00021801
0.000142824
0.00647615
0.000167328
0.000139839
0.000204225
0.000142939
0.000147625
0.0196789
0.000165301
0.000639826
0.0231041
0.000285632
0.000225931
0.000204791
0.0251042
0.0279485
0.000145646
0.000140865
0.000162889
0.0182484
0.000139665
0.0324084
0.0192426
0.000132936
0.00015963
0.00756348
0.0337328
0.0166697
0.0320587
0.000148524
0.0167656
0.000134758
0.00014995
0.000143917
0.000142057
0.000160397
0.0326146
0.00155917
0.00256335
0.000214397
0.0231924
0.000188387
0.000289791
0.000245451
0.019341
0.000141537
0.0144312
0.000141596
0.0110512
0.00589066
0.0290077
0.000133285
0.00475764
0.00187467
0.000167854
0.000152374
0.000143211
0.046014
0.000142816
0.0070418
0.0165254
0.0001483
0.000130656
0.0289245
0.000138015
0.038807
0.000139114
0.000143026
0.000150203
0.000152069
0.000178619
0.00524064
0.000195856
0.000163186
0.000147396
0.000266224
0.0109156
0.000189052
0.000134707
0.000148499
0.0191162
0.000168799
0.000148038
0.0298318
0.00922782
0.000131419
0.000209411
0.000189953
0.00016106
0.000134049
0.000139651
0.0295124
0.00301631
0.0001428
0.000175137
0.00746829
0.00013967
0.0470991
0.000133872
0.000158194
0.000135932
0.000166072
0.000132404
0.000298708
0.024227
0.00014009
0.0174024
0.000139214
0.00287433
0.000166882
0.000148483
0.000512444
0.000142982
0.000134261
0.000134774
0.000170593
0.0195091
0.000139685
0.01846
0.0049899
0.0130079
0.000152587
0.000147659
0.000147188
0.000137899
0.000148698
0.000204933
0.00830537
0.0294474
0.000136566
0.0364477
0.000138334
0.00314318
0.000134642
0.0233114
0.00013394
0.0241648
0.000133364
0.0114114
0.000162532
0.0435713
0.000139321
0.000136764
0.000149026
0.000187643
0.000161075
0.0399408
0.00012896
0.000143213
0.000150883
0.000149951
0.0392357
0.000147307
0.000158032
0.01891
0.0241832
0.000135801
0.0113096
0.000215137
0.0123491
0.0106794
0.000147802
0.00400363
0.0471925
0.0168326
0.000133482
0.0109609
0.000129195
0.000132656
0.0279436
0.00112014
0.0325287
0.0115888
0.000343685
0.000138395
0.0001835
0.0194849
0.0354653
0.0137128
0.000142243
0.000141733
0.000199282
0.000147165
0.000132739
0.000141403
0.000151782
0.00013725
0.0139531
0.000130895
0.000279417
0.000140018
0.000209919
0.000153529
0.030588
0.00915157
0.00801351
0.0124245
0.00013468
0.000152294
0.000139379
0.00016782
0.000157409
0.000141896
0.0239943
0.00394426
0.000138274
0.00016508
0.0119777
0.000143279
0.000345483
0.000277671
0.0208263
0.000139341
0.000186848
0.000136234
0.000143406
0.00727216
0.000134773
0.000131567
0.000145719
0.000204916
0.000145961
0.00015063
0.0308417
0.000142975
0.000174235
0.000150981
0.000145909
0.0312653
0.00020846
0.00739452
0.000147195
0.000161106
0.000146421
0.000149928
0.000150404
0.000234687
0.000163608
0.0165146
0.0149444
0.000129418
0.0237021
0.00844865
0.000147253
0.000136195
0.00017398
0.000145957
0.0192662
0.000162815
0.000131763
0.000306482
0.00149685
0.0247423
0.000155815
0.000156521
0.000136421
0.000153404
0.0157163
0.000134665
0.0240317
0.000137082
0.0459014
0.000185376
0.00015118
0.000138975
0.000186171
0.000144632
0.000217811
0.000138951
0.0400668
0.000143261
0.000135335
0.0374009
0.000161026
0.000162527
0.000135574
0.000142917
0.000162926
0.000147636
0.000166872
0.0260377
0.000143895
0.0493864
0.000205501
0.000138284
0.000144341
0.0195664
0.0155107
0.000156898
0.0237777
0.0130488
0.000155759
0.000181084
0.00015035
0.00012985
0.000135005
0.0294963
0.000155949
0.000151097
0.0427396
0.000169519
0.01265
0.0106264
0.0143466
0.000162781
0.000142889
0.000197237
0.000156305
0.000282549
0.000190595
0.000151495
0.0111237
0.000142209
0.000193375
0.00020603
0.000141444
0.0116712
0.000150647
0.000139661
0.000153937
0.0263177
0.000157129
0.000139012
0.000161523
0.0397483
0.0352596
0.000203435
0.000135928
0.000161687
0.000902738
0.000161077
0.000153198
0.000161337
0.000189109
0.0380209
0.000235302
0.000147818
0.0252159
0.00651338
0.000189198
0.000174621
0.0230667
0.000190226
0.00535736
0.00741725
0.000151199
0.000157792
0.0102295
0.00165628
0.000151532
0.0349132
0.0219944
0.000161841
0.0165838
0.000162237
0.000205713
0.000144863
0.000140488
0.000139263
0.0211061
0.0262785
0.026226
0.0325107
0.000182242
0.0203776
0.0122796
0.000133994
0.00454306
0.0145151
0.00719189
0.0216566
0.000137485
0.0385976
0.000139378
0.000137751
0.000145387
0.0149463
0.00014803
0.000138463
0.000151357
0.000143339
0.000145446
0.000143623
0.000167214
0.022008
0.00019953
0.00016354
0.00553781
0.0178909
0.000152677
0.000173885
0.000141923
0.000132163
0.0213618
0.000137296
0.000255458
0.000147017
0.000193658
0.000166442
0.0237174
0.000148607
0.028536
0.000142981
0.0285543
0.000143025
0.0186518
0.0001543
0.00724825
0.00932047
0.000185309
0.0081403
0.000137171
0.000151337
0.000326341
0.000136721
0.0278226
0.000144125
0.0117186
0.000202717
0.0299588
0.00613724
0.000216414
0.000140705
0.000139601
0.000188622
0.000213908
0.0291923
0.0108484
0.000146719
0.000137511
0.0181606
0.000135179
0.000143359
0.000135755
0.000280026
0.000192967
0.0158187
0.0281054
0.00015056
0.0149596
0.0136518
0.000165008
0.016918
0.000185072
0.000181259
0.000140719
0.000145633
0.0229912
0.000158156
0.000139176
0.0001564
0.0192563
0.000354365
0.000138139
0.00013354
0.00400266
0.000131823
0.000132268
0.000138419
0.0135927
0.000134603
0.000300838
0.000137264
0.000128967
0.000203106
0.000146254
0.016043
0.0198226
0.000755382
0.0282089
0.0399161
0.0249434
0.000138164
0.000135332
0.000139963
0.000134743
0.000143315
0.000218347
0.0355291
0.000142717
0.026941
0.000206027
0.000153305
0.000169693
0.0115603
0.000138471
0.000135068
0.000143661
0.000162229
0.0215163
0.0291703
0.030896
0.000199374
0.000143866
0.000158728
0.000151458
0.000138319
0.0251683
0.000133246
0.012093
0.000216668
0.00014673
0.0239857
0.000136074
0.00015885
0.000206799
0.000146242
0.000145642
0.0120121
0.027046
0.000157591
0.00021332
0.0293921
0.000270864
0.000171327
0.000194089
0.000128601
0.00574548
0.000144855
0.000134143
0.000132564
0.000193384
0.000141838
0.000134425
0.000133011
0.000132332
0.000163721
0.000152162
0.000144878
0.000145613
0.000144619
0.000132006
0.000143257
0.000145487
0.000141686
0.000151277
0.0300864
0.000237382
0.000153609
0.00016538
0.000154745
0.000135099
0.0160839
0.000148547
0.000132625
0.0117429
0.000136475
0.0242219
0.0267378
0.00029378
0.00320249
0.000166861
0.0216474
0.000145301
0.000137501
0.000138627
0.00473516
0.000146767
0.000325918
0.0166803
0.000199655
0.013536
0.000162248
0.000142674
0.0282415
0.000220059
0.000136362
0.00896224
0.00093555
0.0262103
0.000138083
0.000162757
0.030731
0.000132038
0.000859914
0.000209574
0.000535917
0.0292013
0.000142753
0.000270843
0.000146606
0.000821882
0.000148506
0.0159285
0.000138899
0.000151136
0.000133568
0.0185074
0.000241846
0.000142593
0.000134944
0.000156288
0.000134018
0.0169214
0.000164196
0.000138287
0.000240848
0.000138147
0.000140323
0.000130193
0.000168208
0.00015206
0.0133231
0.00134013
0.000179803
0.000142551
0.000160888
0.00367492
0.0326762
0.00854105
0.0274084
0.00846117
0.000129504
0.000156741
0.000140437
0.0235981
0.000167893
0.0160076
0.000129765
0.000137663
0.0265807
0.000129617
0.0126391
0.0038883
0.0243077
0.00826722
0.000138866
0.000207597
0.00236709
0.0422245
0.00598352
0.000138031
0.000150649
0.000151944
0.00013695
0.000153414
0.000136073
0.00180864
0.000226119
0.00984462
0.00191558
0.000199117
0.0321191
0.000171963
0.0192122
0.000137747
0.00672524
0.0189625
0.00021405
0.00244285
0.000162602
0.000161932
0.00862054
0.000127587
0.000136388
0.000148516
0.000157439
0.000129143
0.00717633
0.0118732
0.0339048
0.000167745
0.000131355
0.000148492
0.0415258
0.000137737
0.000133751
0.000146955
0.000129683
0.00532762
0.00410323
0.0153543
0.000132022
0.000162711
0.000208693
0.000152099
0.000137791
0.000146328
0.000157859
0.0209541
0.000156482
0.000136287
0.000131308
0.0242501
0.000161928
0.00015595
0.000162695
0.00523686
0.00790568
0.0138893
0.024763
0.000190194
0.000348355
0.000295418
0.000265008
0.010571
0.000138149
0.000142458
0.000154249
0.000140296
0.000147537
0.0183329
0.000132135
0.000157849
0.000207728
0.000144465
0.033504
0.011697
0.00015791
0.000330755
0.000217136
0.000202828
0.0128591
0.00021861
0.0112014
0.0111766
0.000178167
0.000247667
0.000151098
0.0310991
0.000183451
0.00693294
0.000140054
0.000137325
0.0123074
0.000159723
0.000153392
0.0315143
0.0204067
0.0146108
0.000163454
0.00020293
0.0352045
0.0117442
0.0122313
0.000147725
0.0123562
0.000151543
0.0233342
0.000133492
0.0198174
0.000249637
0.0325553
0.00015123
0.0284172
0.00463943
0.0001789
0.000147816
0.00186977
0.000151653
0.000149654
0.000178151
0.00012901
0.000151004
0.00662239
0.000147586
0.000138247
0.000208367
0.000138401
0.000141886
0.00382563
0.000148469
0.000164829
0.000225865
0.000208539
0.000202464
0.000248552
0.0127049
0.000191051
0.0179256
0.0297189
0.000131479
0.000138884
0.000180108
0.0292328
0.00480829
0.000134423
0.038607
0.000169947
0.000177378
0.000143021
0.000151555
0.0498071
0.000155993
0.0173525
0.0118643
0.0217154
0.000144412
0.00015169
0.000138109
0.000136569
0.0385868
0.000158153
0.000141234
0.000160367
0.000130271
0.0100139
0.000241885
0.00013659
0.000153091
0.000157423
0.0263792
0.0397433
0.00817658
0.00184532
0.00452134
0.000133227
0.000180201
0.000132989
0.000137688
0.0151308
0.000189483
0.0146604
0.000136514
0.000134758
0.00013941
0.00970991
0.000145061
0.0196399
0.000148577
0.000222459
0.000221349
0.000131541
0.00595867
0.000147235
0.000194198
0.000147275
0.000137039
0.00013365
0.00017193
0.0322345
0.0362008
0.000143071
0.000135161
0.0225923
0.00773052
0.000254609
0.000137059
0.0136218
0.000149599
0.0337719
0.000134246
0.00924247
0.0311634
0.00772035
0.0215836
0.000188344
0.000186158
0.000160611
0.000143216
0.000146814
0.000206862
0.0128934
0.000197468
0.000346908
0.000131567
0.0142166
0.00014292
0.0466238
0.000151919
0.000163205
0.0406701
0.000150985
0.000149016
0.00974209
0.00789564
0.000136473
0.000146223
0.000143278
0.00014153
0.0337466
0.022956
0.00014322
0.000915471
0.000183046
0.00013699
0.0106038
0.000141455
0.000177388
0.0306568
0.000182982
0.00467335
0.000177428
0.000150949
0.000149883
0.0432207
0.00043531
0.000146297
0.00314149
0.000151915
0.000135555
0.000149558
0.0276717
0.000139384
0.000178715
0.00013205
0.000143656
0.000129666
0.000148046
0.000163426
0.000147291
0.0315686
0.000625865
0.000187482
0.000144288
0.000132863
0.000150229
0.041793
0.000146539
0.0266497
0.000134903
0.000150998
0.0155495
0.0207742
0.000153151
0.0210534
0.000141148
0.000187293
0.0145471
0.000170919
0.0138176
0.000195993
0.0264337
0.000131507
0.000139124
0.00522676
0.000203261
0.000520937
0.0274359
0.0123665
0.000211599
0.000143405
0.000169189
0.00735496
0.00526671
0.0275078
0.000150959
0.00013477
0.000240682
0.028316
0.000147112
0.000142372
0.0454507
0.00014037
0.0336663
0.00758215
0.000156082
0.000144815
0.000190018
0.0044607
0.00067801
0.000157479
0.00692446
0.0368792
0.0304053
0.000134832
0.000131121
0.000150613
0.00782313
0.00551849
0.0323331
0.0160762
0.0047047
0.000150559
0.000142067
0.000131452
0.00015038
0.0076848
0.01232
0.00680006
0.000141858
0.000163449
0.000239008
0.000149826
0.000200248
0.000163196
0.000436297
0.00017431
0.00108085
0.000133347
0.0355844
0.0286612
0.0143286
0.0175857
0.000138085
0.000142206
0.0227931
0.000153158
0.0290198
0.000140516
0.0267228
0.000146949
0.0179162
0.000189107
0.000136217
0.000155886
0.000149663
0.000129503
0.000160958
0.000153155
0.000135579
0.000146513
0.000138363
0.000147929
0.000144969
0.000133731
0.0373538
0.00735181
0.000233683
0.0223336
0.0235665
0.000197601
0.000166704
0.0275553
0.000142098
0.00580102
0.000137724
0.000163998
0.0336196
0.0325092
0.000147889
0.000178542
0.000405083
0.03359
0.00295165
0.00718079
0.000140295
0.000149676
0.000150967
0.0332302
0.000139841
0.00363966
0.000132824
0.0148933
0.00014027
0.000220067
0.000182104
0.000145092
0.000165056
0.000199641
0.0453139
0.0167836
0.000140795
0.00013126
0.0233296
0.00899915
0.0174723
0.000149092
0.00014496
0.000171242
0.000214961
0.000136658
0.00014763
0.000142975
0.00015396
0.0207785
0.000176764
0.000145054
0.000175592
0.00872148
0.000153731
0.000153505
0.00822478
0.0175079
0.000144361
0.000175269
0.000151917
0.00014049
0.0050993
0.0073832
0.00770404
0.000132713
0.000166413
0.000143385
0.000179249
0.000153015
0.000150603
0.000162816
0.000142097
0.000146201
0.0121297
0.000165942
0.045814
0.00028636
0.000150762
0.000177573
0.00814173
0.000204245
0.0325048
0.000140241
0.000278062
0.00262797
0.000254324
0.000171134
0.0129635
0.0111252
0.00449668
0.000135452
0.00937092
0.000149626
0.00430719
0.000294912
0.000139406
0.0335592
0.000866499
0.00624574
0.00957494
0.0189734
0.00014001
0.000153657
0.000153682
0.022276
0.0210457
0.000156745
0.000139575
0.000133525
0.000141566
0.00013796
0.0133592
0.0207999
0.000137729
0.000162898
0.00526342
0.000144962
0.000226398
0.000146285
0.00371867
0.00710279
0.000148906
0.000215073
0.000145276
0.000137737
0.0390897
0.0205169
0.0223501
0.000139335
0.00040961
0.000151792
0.000151032
0.000146126
0.000151646
0.000128713
0.000145319
0.000145116
0.020032
0.0131047
0.00512357
0.032574
0.030084
0.000139924
0.0248921
0.000146313
0.00778523
0.00229219
0.0195134
0.00813117
0.000139953
0.000145829
0.000145284
0.00577113
0.000156517
0.000134431
0.000202174
0.00013192
0.000140671
0.000202799
0.0225318
0.000163633
0.000159089
0.0490906
0.0225962
0.000146185
0.000163284
0.000171893
0.00014456
0.0234072
0.00443792
0.000308357
0.00765818
0.000144127
0.0301603
0.000160714
0.00875237
0.000134164
0.000146021
0.000131721
0.000137654
0.000135652
0.0237468
0.0271339
0.000147448
0.0263676
0.0297384
0.00013822
0.000150262
0.00825295
0.00317794
0.00015505
0.000145577
0.000172766
0.000153326
0.000153723
0.000138443
0.000225703
0.0268043
0.0270291
0.0162118
0.000164221
0.000160634
0.0088308
0.00532689
0.00022472
0.000131979
0.0138281
0.000150588
0.000148238
0.0338902
0.000137853
0.000147327
0.00013473
0.000188086
0.0158744
0.0102728
0.0237132
0.000141628
0.0104077
0.000141804
0.0224573
0.000134121
0.0312242
0.000199821
0.000196072
0.00664224
0.000153217
0.000137897
0.0186715
0.000219485
0.000169852
0.000146621
0.000368962
0.00021262
0.00264978
0.000150353
0.000144073
0.00016863
0.000140567
0.0108272
0.000445979
0.000149516
0.000137904
0.000155838
0.000156495
0.000141609
0.0226758
0.000148076
0.000150428
0.0235918
0.000151652
0.000198089
0.000137545
0.000140634
0.000137859
0.00697253
0.01113
0.00649514
0.000152776
0.0124696
0.0357018
0.0067645
0.000133364
0.0240567
0.000160385
0.00014046
0.00903917
0.00013237
0.00014687
0.000144976
0.000129476
0.0023567
0.000141424
0.000141412
0.00015168
0.000134723
0.000218393
0.0253577
0.000229806
0.000147059
0.000221028
0.000133535
0.0208887
0.000138056
0.000235111
0.00493317
0.00805577
0.010496
0.000159512
0.0285289
0.0214595
0.000138069
0.000143341
0.00765848
0.00950874
0.00639807
0.00018344
0.000264029
0.000157103
0.000159988
0.0281008
0.0373915
0.000160349
0.00836307
0.0126574
0.000146605
0.000134753
0.00332198
0.000280976
0.000160663
0.000151541
0.000131134
0.000198399
0.00182297
0.0358456
0.0210798
0.0257187
0.0172087
0.00960947
0.000136691
0.00156747
0.0455107
0.000133348
0.000138753
0.00483749
0.000146449
0.00508947
0.000131002
0.000173074
0.000164205
0.000151089
0.000140199
0.00232048
0.000297799
0.00574429
0.000153667
0.0133709
0.000171913
0.00013311
0.000350414
0.00012913
0.000137946
0.0142263
0.000154197
0.00933687
0.000148678
0.000149853
0.00018899
0.0382729
0.00013553
0.00121927
0.0427686
0.00428566
0.000144865
0.000151734
0.0111871
0.000162393
0.00556365
0.00013997
0.000136627
0.0174238
0.000144131
0.000140581
0.000134927
0.0236427
0.000157926
0.0107704
0.00015766
0.000138723
0.000138076
0.000152649
0.0114938
0.000172523
0.0323029
0.0220546
0.00323693
0.000135132
0.000147916
0.0001509
0.000203548
0.000136019
0.0386735
0.000144262
0.000189039
0.000144759
0.000236041
0.000150535
0.00743715
0.00693953
0.000138811
0.000298781
0.00278963
0.000143008
0.000138743
0.00995041
0.00019776
0.000150235
0.0047017
0.000132541
0.00013222
0.0327037
0.000209849
0.000141271
0.00310778
0.000175054
0.0290359
0.000347878
0.00176825
0.000176517
0.0106468
0.000165918
0.00014574
0.00581278
0.000137897
0.000145069
0.00803049
0.00015319
0.000136898
0.000198674
0.0311643
0.00621459
0.000135824
0.000168452
0.000143076
0.000147875
0.0171287
0.00014647
0.00387152
0.00020013
0.00173714
0.0173818
0.000265879
0.000185394
0.000171306
0.0202494
0.00013586
0.00263833
0.00539961
0.000151363
0.000131628
0.00329804
0.000199722
0.0109469
0.000146588
0.000142945
0.0107383
0.00015345
0.0233173
0.000154092
0.00908876
0.045274
0.000187558
0.000145451
0.000131259
0.00825676
0.000287736
0.000152559
0.00015361
0.000148539
0.000132367
0.0250242
0.000155613
0.000171709
0.000136868
0.000195143
0.000143276
0.0019288
0.000114429
0.000193252
0.000279858
0.00018264
0.000147116
0.000144108
0.000137639
0.0143933
0.000138112
0.000143723
0.000608696
0.000131452
0.0232647
0.000128287
0.000147998
0.016334
0.000139651
0.0213827
0.000147296
0.000171696
0.000162744
0.000137786
0.000131202
0.000136903
0.000133005
0.0233253
0.0225862
0.00982851
0.00189612
0.000132073
0.0235129
0.000131327
0.000155581
0.000143227
0.000319149
0.0133566
0.000147397
0.000142952
0.0083274
0.000136426
0.000144029
0.0190589
0.00507209
0.000156811
0.000143243
0.00995206
0.0291559
0.000142995
0.0189242
0.000150535
0.000136412
0.000161118
0.022357
0.000150243
0.000160751
0.00506364
0.0114869
0.000198294
0.000143191
0.0311085
0.000183302
0.0106102
0.00597036
0.000133413
0.000188602
0.000134966
0.000285174
0.0304252
0.000134497
0.0133031
0.00275372
0.000197185
0.000145934
0.000195393
0.0298915
0.0125624
0.000142996
0.000486752
0.000129419
0.000136103
0.0227395
0.000140889
0.000143275
0.000148323
0.000190912
0.029107
0.000150562
0.000202733
0.000144356
0.000142794
0.016558
0.000201608
0.000158239
0.0227409
0.0190641
0.000165471
0.000217227
0.00474075
0.00689553
0.000144762
0.0114824
0.000134325
0.012521
0.0206213
0.000128628
0.000326925
0.000161856
0.00021539
0.000144877
0.000207901
0.0111853
0.000134352
0.0149303
0.000148896
0.000140886
0.000150379
0.000144599
0.0231266
0.000143128
0.000145702
0.0200066
0.01167
0.000137329
0.000169938
0.000160887
0.000147375
0.00017732
0.018734
0.000147521
0.000212533
0.000133277
0.000188919
0.000168318
0.000221522
0.0172148
0.0212443
0.000137417
0.00654268
0.0261722
0.000155363
0.0185846
0.00493777
0.00759549
0.000137888
0.000128605
0.000136885
0.000142238
0.000164414
0.000796628
0.0271739
0.000143855
0.00013216
0.000192921
0.00539988
0.000161405
0.00630769
0.000301346
0.000160433
0.0112505
0.000141261
0.00926773
0.000209313
0.000143434
0.0163873
0.0100386
0.00628552
0.0051024
0.000161909
0.000147684
0.0266598
0.000139912
0.0273854
0.000132315
0.000173038
0.00019899
0.0123567
0.000151058
0.00798307
0.00610532
0.000431322
0.000196577
0.000138807
0.0281684
0.000359603
0.0207273
0.000140208
0.000136918
0.000137443
0.000128292
0.000136084
0.00015061
0.000215548
0.000142816
0.000154112
0.0102874
0.000184011
0.000183159
0.000184027
0.000150396
0.0307258
0.000151315
0.000147435
0.00021091
0.0370418
0.00016265
0.000145723
0.00162174
0.019126
0.0198027
0.000151595
0.0112873
0.000232261
0.000151177
0.0370693
0.00019744
0.0239761
0.000136116
0.000150174
0.00976303
0.0127536
0.000186241
0.000232193
0.0216566
0.0211413
0.000140098
0.000162827
0.000151106
8.16879e-05
0.000176954
0.00160449
0.000145692
0.00626921
0.000150463
0.0120182
0.000139811
0.000173686
0.000214882
0.00019434
0.0247775
0.000140832
0.0161504
0.0269139
0.0310183
0.000164136
0.000203555
0.00014005
0.0107369
0.00175002
0.000135924
0.000134513
0.0172605
0.0320655
0.01683
0.0126325
0.0188527
0.000143315
0.000263384
0.0046308
0.000143793
0.000144261
0.000422829
0.000160301
0.00710955
0.000133518
0.000152333
0.000143204
0.0337091
0.0306183
0.000138422
0.000143314
0.000143857
0.000154833
0.000181916
0.00338666
0.000205528
0.000148542
0.000150104
0.000142952
0.00636413
0.00015207
0.000138789
0.00549019
0.00618736
0.000163119
0.000144582
0.000138427
0.000149112
0.00540617
0.000140821
0.00018111
0.000143013
0.000132485
0.000186979
0.000313438
0.00615407
0.00304052
0.00935237
0.000300783
0.000132312
0.000138237
0.00695392
0.00019846
0.000141574
0.000198629
0.000193777
0.000137556
0.000133196
0.00678409
0.000161138
0.000128093
0.000153043
0.0324113
0.000136408
0.000203707
0.000138825
0.000133691
0.00021761
0.00014781
0.00013513
0.0213789
0.000196204
0.00014378
0.000142893
0.000287249
0.000155419
0.00579052
0.00651452
0.000150548
0.00012757
0.0254743
0.00775054
0.000150314
0.0232611
0.00020162
0.000165858
0.000239749
0.0310238
0.00528349
0.00323272
0.000147344
0.0107885
0.000143482
0.000187442
0.000153911
0.000209533
0.000289446
0.0083061
0.000179129
0.0100733
0.0280033
0.00450329
0.00015572
0.000137849
0.0217642
0.00351833
0.000136096
0.000150299
0.0299315
0.000131876
0.000157574
0.0079355
0.000139275
0.000153349
0.00014415
0.000185027
0.000197374
0.000260508
0.000174841
0.00987896
0.000156809
0.000146389
0.000141764
0.000135127
0.000151261
0.0071437
0.000152137
0.000194714
0.000143665
0.000156266
0.000155806
0.000289565
0.00021479
0.000133678
0.000154391
0.000136417
0.000163833
0.000145248
0.000144866
0.000148047
0.000141622
0.0290363
0.000137357
0.000140805
0.000138596
0.026448
0.000132186
0.000145386
0.0088777
0.0287967
0.000128105
0.000138597
0.00013792
0.000140564
0.00538462
0.0114394
0.000236302
0.000156032
0.000157119
0.000134946
0.000204466
0.000150175
0.000139305
0.000140205
0.000137451
0.00027795
0.000138494
0.000225907
0.000149269
0.0122285
0.000146371
0.00511625
0.000139018
0.00014728
0.00771125
0.000133123
0.00014598
0.00017327
0.000214351
0.000146055
0.000132668
0.0378383
0.000190235
0.000289994
0.000152322
0.00976676
0.00014446
0.000148693
0.000190161
0.000404725
0.00514959
0.000154923
0.00512287
0.0189742
0.000143416
0.000161822
0.0334597
0.000190269
0.000133018
0.00019713
0.000148477
0.000261495
0.000184165
0.000153785
0.00525961
0.0033673
0.000153637
0.00714169
0.000182827
0.000147102
0.000133046
0.000134924
0.000147464
0.000151864
0.000298085
0.000224277
0.000141877
0.000218191
0.00105709
0.000183333
0.000248516
0.00015558
0.000137266
0.000218052
0.000165935
0.0258623
0.0001295
0.00016389
0.0353865
0.000134418
0.00654545
0.00576825
0.00259813
0.0152545
0.000135517
0.000150026
0.000131766
0.000144922
0.000166937
0.000151492
0.000140913
0.000197171
0.000132379
0.000166583
0.000194823
0.0310081
0.000150456
0.000151623
0.000154891
0.000184045
0.000132077
0.0157828
0.000181664
0.000161636
0.000194462
0.00828868
0.0070665
0.000165646
0.000203637
0.0139364
0.00014589
0.000231334
0.000144633
0.000139535
0.0351363
0.000151759
0.0269075
0.00017717
0.00019008
0.000164171
0.00015131
0.000137079
0.000172778
0.000131984
0.000265425
0.000133824
0.00593526
0.0194026
0.000134899
0.000275889
0.000266888
0.000171511
0.000171575
0.0275048
0.0168707
0.000128622
0.000150605
0.00750964
0.0158412
0.000135509
0.0322612
0.00021067
0.000180476
0.000136436
0.000152271
0.000259378
0.0300692
0.000144633
0.00500859
0.0367652
0.000210305
0.0307158
0.000204039
0.00414583
0.0262141
0.0208123
0.000182825
0.00951803
0.000133479
0.000147894
0.000173368
0.0322193
0.000140026
0.000164204
0.000143216
0.000143479
0.00013885
0.000172168
0.000144554
0.000285266
0.00631289
0.000142067
0.0198845
0.000144528
0.00014456
0.000917064
0.000171027
0.000208887
0.0117441
0.000162036
0.000198527
0.000132202
0.000177326
0.000159433
0.0115191
0.000204036
0.000137839
0.00014444
0.000186304
0.000136057
0.000147738
0.0114851
0.000136027
0.0164275
0.000209216
0.0238826
0.000153934
0.000190841
0.00013353
0.00198871
0.00766509
0.000289206
0.000185521
0.00786464
0.0263129
0.000164503
0.0310142
0.00024509
0.000164487
0.000190973
0.000131006
0.028271
0.0107016
0.000168635
0.000233366
0.000144239
0.0051437
0.000195338
0.000164118
0.000143532
0.0441189
0.000148119
0.000175641
0.000203557
0.00014345
0.000135761
0.000180456
0.000258808
0.000295257
0.000153029
0.00015395
0.000147056
0.000146615
0.000174035
0.000153469
0.000149395
0.000136737
0.000128478
0.000149688
0.000135793
0.000151216
0.000134482
0.000158569
0.00868724
0.0105966
0.0389711
0.000139769
0.0321112
0.000145597
0.000187614
0.000141466
0.000136682
0.000140305
0.000150737
0.000136144
0.000169059
0.0112563
0.0107306
0.000197013
0.000131864
0.00014701
0.0106289
0.000254358
0.0206352
0.000154871
0.000143196
0.000141881
0.000733225
0.000136238