/*--------------------------------*- C++ -*----------------------------------*\
| =========                 |                                                 |
| \\      /  F ield         | OpenFOAM: The Open Source CFD Toolbox           |
|  \\    /   O peration     | Version:  v2012                                 |
|   \\  /    A nd           | Website:  www.openfoam.com                      |
|    \\/     M anipulation  |                                                 |
\*---------------------------------------------------------------------------*/
FoamFile
{
    version     2.0;
    format      ascii;
    class       volScalarField;
    location    "100";
    object      k_0;
}
// * * * * * * * * * * * * * * * * * * * * * * * * * * * * * * * * * * * * * //

dimensions      [0 2 -2 0 0 0 0];


internalField   nonuniform List<scalar> 
53008
(
0.00168289
0.000182703
0.0256992
0.00014388
0.00594539
0.000137177
0.000144062
0.000132399
0.0001711
0.000137535
0.000129767
0.000208693
0.00013781
0.0197226
0.00302787
0.000282995
0.000155512
0.00606239
0.000165857
0.000141147
0.000150693
0.00863696
0.0453365
0.022011
0.000137435
0.000167228
0.00668287
0.000137372
0.034175
0.000143845
0.000172123
0.000141128
0.0242323
0.000557867
0.000132601
0.000132672
0.00015105
0.000360921
0.000178606
0.0294233
0.0233987
0.00920323
0.000132547
0.000138595
0.00413288
0.0113953
0.00544199
0.00675391
0.000354092
0.0165627
0.000163631
0.0312423
0.000157037
0.000167795
0.000204696
0.000200722
0.023322
0.00015299
0.000139646
0.000146839
0.000141778
0.000139023
0.000150753
0.000163654
0.000139695
0.0115003
0.0457602
0.000187574
0.000151483
0.000140474
0.00014205
0.000143167
0.000172843
0.000143012
0.000183476
0.000161057
0.000132334
0.000139433
0.00016719
0.0001458
0.00013747
0.000138407
0.000209041
0.000172547
0.000142481
0.000161448
0.00019292
0.000186541
0.000170088
0.000141634
0.000130642
0.000141591
0.000147911
0.000142511
0.000186546
0.00713023
0.000140368
0.00013062
0.00013781
0.00014037
0.00014185
0.000146754
0.0430211
0.000137301
0.000142024
0.00550697
0.000253717
0.0186194
0.000153797
0.00136779
0.0306831
0.0449879
0.0133794
0.000138655
0.000158281
0.000146022
0.00611368
0.000167301
0.000193044
0.00705124
0.000130736
0.000152015
0.0335328
0.000169897
0.000133295
0.0234929
0.0170486
0.000245425
0.01408
0.000165861
0.000131093
0.000130715
0.00881589
0.000179871
0.0452522
0.000141601
0.000151163
0.00014966
0.0439518
0.00013098
0.0146103
0.0465171
0.000219228
0.000159379
0.000127552
0.000171346
0.000180846
0.000182455
0.000158588
0.000143914
0.0221425
0.000139391
0.000189486
0.018757
0.0136249
0.000158401
0.0160861
0.0263829
0.000137198
0.000154117
0.000135133
0.000138623
0.000129542
0.000144478
0.000129613
0.024293
0.000209884
0.0234855
0.000130936
0.000136035
0.000179719
0.0264048
0.000148689
0.0050148
0.000137369
0.000134961
0.000158631
0.000145815
0.000209809
0.000160804
0.000179406
0.000171136
0.000135766
0.000137183
0.0183945
0.000138771
0.000129243
0.0229466
0.02745
0.0217751
0.00013623
0.019842
0.000179314
0.000318856
0.0301601
0.000142582
0.00149583
0.000220118
0.000142606
0.0111679
0.000143639
0.00479783
0.000206612
0.000142894
0.000244676
0.000219926
0.000136208
0.000151581
0.000334398
0.024199
0.000180828
0.000188392
0.00897486
0.000152376
0.0323801
0.00015133
0.0202805
0.000187477
0.0462374
0.04588
0.000191519
0.000150986
0.000140254
0.0311662
0.000193929
0.0131707
0.000170937
0.00264179
0.000170115
0.000152197
0.000137053
0.00118654
0.000146898
0.0160381
0.000145614
0.00993166
0.000147934
0.000151902
0.000184527
0.000136559
0.000276508
0.000218331
0.000198002
0.00829332
0.000140282
0.0129375
0.000139553
0.00013948
0.000152258
0.000165117
0.0300397
0.000671626
0.000192675
0.000134921
0.00015212
0.000132336
0.00914996
0.000206857
0.000188809
0.0186168
0.0480471
0.000187465
0.000140202
0.000157286
0.00512399
0.000158895
0.0442404
0.0452714
0.000158163
0.000248187
0.000204604
0.000142313
0.000151154
0.00019078
0.000165868
0.000219191
0.000158907
0.00404121
0.000147783
0.000149169
0.00016489
0.00547326
0.000244165
0.00750975
0.000244365
0.000141708
0.000172765
0.0480544
0.0112087
0.0327013
0.00942441
0.000401033
0.0121914
0.000204485
0.000144428
0.000145804
0.0258499
0.000138711
0.016138
0.0101963
0.043826
0.000134759
0.000134587
0.000144141
0.0200395
0.000212136
0.000137482
0.000165717
0.000227223
0.0292249
0.00031869
0.000143124
0.000134992
0.000133938
0.000184531
0.000143307
0.000180918
0.0237252
0.0074676
0.000146023
0.000188399
0.000128928
0.000259401
0.000130353
0.000139022
0.0313327
0.0297872
0.000140049
0.000274381
0.000152784
0.00611713
0.00729014
0.000137748
0.000171445
0.00653427
0.000151788
0.0122162
0.000170998
0.000140064
0.000152601
0.00017205
0.000169607
0.0123137
0.000427464
0.0106027
0.000137194
0.000175125
0.000130723
0.000136853
0.000206867
0.000138957
0.000135965
0.0382903
0.00430374
0.000139582
0.00722016
0.0250456
0.0157668
0.0229108
0.000192944
0.000245588
0.000150341
0.000827345
0.000135344
0.000206937
0.000135141
0.000174696
0.0357609
0.0159384
0.000231523
0.0438099
0.00014754
0.000203202
0.000150085
0.000143752
0.000183204
0.000140015
0.00456307
0.000266722
0.000137031
0.000138471
0.000136706
0.000143741
0.011603
0.000137094
0.000142733
0.000194575
0.0141752
0.023788
0.0141955
0.0301723
0.0146716
0.00480726
0.000132515
0.0232078
0.0300384
0.00233758
0.000139281
0.0052717
0.000137421
0.000137382
0.000136207
0.0125874
0.0116408
0.000149845
0.000147902
0.000133827
0.000217006
0.000194053
0.000142939
0.000187849
0.000141752
0.0315865
0.0322102
0.000190117
0.000142711
0.00713109
0.00015279
0.000147357
0.000141663
0.000138542
0.0136261
0.000136415
0.000141502
0.000157474
0.000139118
0.000143155
0.0210859
0.000217865
0.000142824
0.0064635
0.000167331
0.00013983
0.000204228
0.000142939
0.000147625
0.019603
0.000165304
0.000651464
0.0230938
0.000285859
0.000225699
0.000204763
0.0251436
0.0279178
0.000145646
0.000140854
0.000162905
0.0181775
0.000139665
0.0323682
0.0192549
0.000132936
0.00015963
0.00753423
0.0336959
0.0168102
0.0320087
0.000148524
0.0166876
0.000134758
0.000149949
0.000143917
0.000142057
0.000160397
0.0328203
0.00158341
0.00260115
0.000214501
0.0232258
0.000188392
0.000290204
0.000245435
0.0192309
0.000141537
0.0144307
0.000141597
0.0110525
0.0057758
0.0289596
0.000133285
0.00476455
0.0019042
0.00016786
0.000152372
0.000143211
0.0460161
0.000142816
0.00702138
0.0163908
0.0001483
0.000130656
0.0288591
0.000138015
0.0386641
0.000139114
0.000143026
0.0001502
0.000152067
0.000178616
0.00524103
0.000195811
0.000163191
0.000147396
0.000266384
0.0109151
0.000189059
0.000134707
0.000148499
0.0191172
0.000168783
0.000148039
0.0298241
0.00922495
0.000131419
0.000209456
0.000189902
0.00016106
0.000134049
0.00013965
0.0295501
0.00304116
0.0001428
0.000175139
0.00746514
0.00013967
0.0471019
0.000133872
0.000158209
0.000135932
0.000166081
0.000132404
0.000298672
0.0242801
0.00014009
0.0173077
0.000139214
0.00289706
0.000166884
0.000148483
0.000511498
0.000142982
0.000134261
0.000134774
0.000170594
0.0195384
0.000139685
0.0184623
0.00498923
0.0130078
0.000152587
0.000147659
0.000147188
0.0001379
0.000148699
0.000204904
0.00836261
0.0294194
0.000136566
0.0363668
0.000138335
0.00315893
0.000134642
0.0232987
0.00013394
0.0241628
0.000133364
0.011412
0.000162531
0.0435716
0.000139321
0.000136763
0.000149022
0.00018765
0.000161077
0.0399231
0.00012896
0.000143213
0.000150883
0.000149948
0.0392276
0.00014731
0.000158047
0.0187908
0.0241812
0.000135801
0.0113115
0.000215303
0.0123805
0.0106823
0.000147802
0.00399717
0.0471956
0.0167484
0.000133482
0.0108992
0.000129195
0.000132656
0.0279408
0.00111194
0.0324906
0.0115789
0.000343512
0.000138395
0.000183493
0.0193856
0.035661
0.0137161
0.000142242
0.000141734
0.000199298
0.000147165
0.000132739
0.000141403
0.00015178
0.00013725
0.0139517
0.000130895
0.000279128
0.000140018
0.000209961
0.000153529
0.030645
0.00920917
0.00795589
0.0124735
0.00013468
0.000152294
0.000139378
0.000167825
0.000157409
0.000141897
0.0240471
0.00393837
0.000138274
0.00016508
0.0119768
0.000143279
0.00034763
0.000277907
0.0208228
0.000139341
0.000186868
0.000136234
0.000143406
0.00721614
0.000134774
0.000131567
0.000145719
0.000204914
0.000145961
0.000150629
0.030999
0.000142975
0.000174236
0.000150983
0.000145911
0.0312675
0.000208475
0.00725699
0.000147195
0.000161106
0.000146422
0.000149928
0.000150404
0.000234768
0.000163619
0.0165125
0.0149472
0.000129418
0.0237431
0.00839685
0.000147253
0.000136194
0.000173975
0.000145958
0.0192518
0.000162829
0.000131763
0.000307179
0.00149575
0.0247399
0.000155807
0.000156521
0.00013642
0.000153404
0.0156477
0.000134665
0.0240625
0.000137082
0.0458729
0.000185382
0.000151181
0.000138975
0.000186192
0.000144632
0.000217848
0.000138951
0.0400508
0.000143261
0.000135335
0.0373909
0.000161019
0.000162526
0.000135574
0.000142917
0.000162926
0.000147637
0.000166874
0.0262849
0.000143894
0.0493571
0.000205478
0.000138286
0.000144341
0.0195672
0.0155117
0.00015689
0.0237657
0.0130523
0.000155752
0.000181106
0.000150352
0.000129849
0.000135005
0.0294389
0.000155954
0.000151096
0.0428955
0.00016953
0.0128339
0.0106278
0.0144949
0.000162783
0.000142889
0.000197256
0.000156299
0.000282351
0.000190603
0.000151494
0.011126
0.000142209
0.000193357
0.000206056
0.000141444
0.0114564
0.000150647
0.000139661
0.000153937
0.0263156
0.000157128
0.000139012
0.000161508
0.0397336
0.0351048
0.00020346
0.000135928
0.000161687
0.00089823
0.000161077
0.000153199
0.000161321
0.000189249
0.0379548
0.000235375
0.000147818
0.0252132
0.00656543
0.000189204
0.000174625
0.0230575
0.000190239
0.00531196
0.00740432
0.000151199
0.000157792
0.0102289
0.00172727
0.000151532
0.0348773
0.0219902
0.000161841
0.0165806
0.00016223
0.000205687
0.000144863
0.000140488
0.000139263
0.0210334
0.0263216
0.02636
0.0324686
0.000182216
0.0203801
0.0122162
0.000133994
0.00454326
0.0145168
0.00724612
0.0215922
0.000137485
0.0385321
0.000139378
0.000137751
0.000145387
0.0148111
0.000148027
0.000138464
0.000151357
0.00014334
0.000145446
0.000143623
0.000167203
0.0220333
0.00019956
0.000163545
0.00550401
0.0179478
0.000152677
0.000173887
0.000141923
0.000132163
0.0215804
0.000137296
0.000255582
0.000147018
0.000193664
0.000166443
0.023655
0.000148607
0.0285161
0.000142981
0.0286927
0.000143025
0.0185306
0.0001543
0.00727198
0.00912842
0.000185315
0.00804833
0.000137171
0.000151336
0.0003268
0.000136721
0.0277586
0.000144125
0.0117196
0.000202741
0.0299404
0.00612799
0.000216446
0.000140705
0.000139601
0.000188605
0.000213943
0.0291758
0.0108566
0.00014672
0.000137511
0.0180383
0.000135179
0.000143359
0.000135755
0.000279909
0.000192984
0.0157625
0.0280893
0.00015056
0.0149628
0.0136542
0.000165008
0.0168516
0.000185089
0.000181362
0.000140719
0.000145633
0.0232
0.000158157
0.000139176
0.000156401
0.0193569
0.000354444
0.000138139
0.00013354
0.00392045
0.000131823
0.000132268
0.000138419
0.0135916
0.000134603
0.000301366
0.000137264
0.000128967
0.000203101
0.000146255
0.0160412
0.0196918
0.000747726
0.0281493
0.0398739
0.024887
0.000138164
0.000135331
0.000139963
0.000134743
0.000143315
0.000218413
0.0353175
0.000142717
0.026827
0.000206053
0.000153305
0.00016969
0.0115799
0.000138472
0.000135067
0.000143661
0.000162229
0.0216813
0.0292794
0.0308995
0.000199403
0.000143866
0.000158727
0.000151458
0.000138319
0.025053
0.000133246
0.0121067
0.000216791
0.00014673
0.0240198
0.000136074
0.00015885
0.000206837
0.000146243
0.000145642
0.0120186
0.0270036
0.000157591
0.000213353
0.0293631
0.000270901
0.000171329
0.000194106
0.000128601
0.00579948
0.000144855
0.000134143
0.000132564
0.000193361
0.000141839
0.000134425
0.000133011
0.000132332
0.000163725
0.000152163
0.000144878
0.000145613
0.000144619
0.000132005
0.000143257
0.000145487
0.000141687
0.000151277
0.0300408
0.00023739
0.000153609
0.000165379
0.000154745
0.000135099
0.0160267
0.000148547
0.000132625
0.0117413
0.000136475
0.0242506
0.0267842
0.000293948
0.00314125
0.000166827
0.0215939
0.000145301
0.000137502
0.000138627
0.00479116
0.000146768
0.000389863
0.0166758
0.000199663
0.0135334
0.000162218
0.000142674
0.0283863
0.000220051
0.000136361
0.00885921
0.000932808
0.0262208
0.000138083
0.000162749
0.0307036
0.000132038
0.000857787
0.000209608
0.000534486
0.0291385
0.000142753
0.000270946
0.000146606
0.000819685
0.000148506
0.0159275
0.000138899
0.000151136
0.000133568
0.0185641
0.000241864
0.000142593
0.000134944
0.000156289
0.000134017
0.0170633
0.000164188
0.000138287
0.000240966
0.000138147
0.000140323
0.000130192
0.000168196
0.00015206
0.0132468
0.00137876
0.000179824
0.000142551
0.000160906
0.00368937
0.0326355
0.00850788
0.0274177
0.00834993
0.000129504
0.000156735
0.000140437
0.0236551
0.000167892
0.016045
0.000129765
0.000137663
0.0267253
0.000129617
0.0124862
0.00389512
0.0242514
0.00830943
0.000138866
0.00020756
0.00236077
0.0422049
0.00598304
0.000138031
0.000150649
0.000151944
0.000136949
0.000153414
0.000136073
0.00180373
0.000226041
0.00984089
0.00188514
0.000199126
0.0320962
0.000171964
0.0192188
0.000137746
0.00671014
0.0189599
0.000214071
0.00257047
0.000162606
0.000161934
0.00861928
0.000127587
0.000136388
0.000148513
0.000157429
0.000129143
0.00717946
0.0118865
0.0339742
0.000167744
0.000131355
0.000148489
0.0415167
0.000137737
0.000133751
0.000146955
0.000129683
0.00541635
0.00410255
0.0153503
0.000132022
0.000162711
0.00020864
0.000152099
0.000137791
0.00014633
0.00015786
0.0209189
0.00015649
0.000136287
0.000131308
0.0245065
0.000161928
0.00015595
0.000162698
0.00523759
0.00787321
0.0138342
0.0247551
0.000190198
0.00034614
0.000295332
0.000264676
0.0105699
0.000138149
0.000142458
0.000154249
0.000140296
0.000147539
0.0183322
0.000132135
0.000157849
0.000207757
0.000144465
0.0335801
0.0116983
0.000157912
0.00032864
0.000217131
0.000202825
0.0128613
0.000218681
0.0111996
0.011107
0.000178165
0.000247693
0.000151098
0.0310785
0.000183458
0.00686627
0.000140055
0.000137325
0.0121793
0.00015974
0.000153392
0.0314934
0.0202097
0.0144787
0.000163457
0.00020293
0.0351707
0.0117316
0.0122593
0.000147725
0.0123554
0.000151543
0.0233501
0.000133492
0.0199848
0.000249566
0.0325445
0.00015123
0.0283798
0.0046314
0.000178905
0.000147816
0.00192875
0.000151653
0.000149651
0.000178149
0.00012901
0.000151004
0.00659498
0.000147586
0.000138247
0.000208389
0.000138402
0.000141886
0.00381831
0.000148466
0.000164828
0.000225725
0.000208536
0.0002025
0.000248354
0.0127343
0.000190996
0.0179453
0.0297528
0.000131479
0.000138884
0.000180138
0.029245
0.00480909
0.000134424
0.0385987
0.000169942
0.000177404
0.000143021
0.000151555
0.0497767
0.000155992
0.0172553
0.0118666
0.0217361
0.000144412
0.000151691
0.000138109
0.000136569
0.0385799
0.000158142
0.000141234
0.000160368
0.000130271
0.0100142
0.000241869
0.000136591
0.000153091
0.000157423
0.026347
0.0397271
0.00810096
0.00183239
0.00448789
0.000133228
0.00018017
0.000132989
0.000137688
0.0156076
0.000189493
0.0146632
0.000136514
0.000134758
0.00013941
0.00961414
0.000145061
0.0197728
0.000148575
0.000222496
0.000221423
0.00013154
0.00594136
0.000147235
0.000194145
0.000147275
0.000137039
0.00013365
0.000171931
0.0322266
0.0362006
0.000143071
0.000135161
0.0225932
0.00773584
0.000255276
0.000137059
0.0136176
0.000149596
0.0337289
0.000134246
0.00927679
0.0311177
0.00760721
0.0216121
0.000188358
0.000186182
0.00016061
0.000143216
0.000146816
0.00020681
0.01289
0.000197485
0.00034741
0.000131567
0.0142158
0.00014292
0.0466261
0.000151917
0.000163205
0.0408426
0.000150985
0.000149013
0.00977396
0.00781382
0.000136474
0.000146223
0.000143278
0.000141527
0.0337619
0.0229488
0.00014322
0.00092418
0.000183053
0.00013699
0.0106053
0.000141453
0.000177431
0.0306289
0.000182966
0.00467502
0.000177443
0.000150949
0.000149883
0.0432009
0.000441477
0.000146299
0.00314173
0.000151914
0.000135555
0.000149556
0.0276313
0.000139384
0.000178711
0.00013205
0.000143656
0.000129666
0.000148046
0.000163431
0.000147291
0.03155
0.000646507
0.000187517
0.000144281
0.000132863
0.000150225
0.041783
0.00014654
0.0268006
0.000134902
0.000150998
0.0155583
0.0207709
0.000153128
0.0210822
0.000141148
0.000187298
0.0144852
0.00017092
0.0137942
0.000195992
0.0263702
0.000131507
0.000139124
0.00522724
0.000203261
0.000519532
0.027435
0.012369
0.00020906
0.000143399
0.000169198
0.00734699
0.00526462
0.0276194
0.000150958
0.00013477
0.00024071
0.0283077
0.000147113
0.000142371
0.0454217
0.00014037
0.0336657
0.00757828
0.000156082
0.000144815
0.000190022
0.00445236
0.000672901
0.000157479
0.00691846
0.0368463
0.0303866
0.000134832
0.000131121
0.000150595
0.00781821
0.00551882
0.0324325
0.0160263
0.00470386
0.00015056
0.000142067
0.000131452
0.00015038
0.00767787
0.0122686
0.00683233
0.000141858
0.000163453
0.000239028
0.000149825
0.000200259
0.000163195
0.000429211
0.000174307
0.00105382
0.000133347
0.0355724
0.028626
0.0143319
0.017924
0.000138085
0.000142206
0.0227758
0.000153158
0.0290187
0.000140516
0.026684
0.000146949
0.0179861
0.00018912
0.000136217
0.000155886
0.000149661
0.000129503
0.000160944
0.000153159
0.000135579
0.000146514
0.000138363
0.000147929
0.000144968
0.000133731
0.0373311
0.0073709
0.000233754
0.022245
0.0235518
0.000197598
0.000166703
0.0276093
0.000142097
0.00570222
0.000137724
0.000164007
0.0337255
0.0324998
0.000147889
0.000178546
0.000403895
0.0336175
0.00295165
0.00715118
0.000140295
0.000149672
0.000150966
0.0332357
0.000139841
0.00362637
0.000132823
0.0150353
0.00014027
0.000220125
0.000182123
0.000145092
0.000165055
0.000199653
0.0452815
0.0168679
0.000140795
0.00013126
0.023317
0.00903813
0.0174593
0.000149089
0.00014496
0.000171211
0.000215003
0.000136658
0.000147631
0.000142975
0.00015396
0.0207944
0.000176779
0.000145054
0.00017558
0.0087697
0.000153732
0.000153505
0.00821193
0.0175096
0.000144361
0.000175276
0.000151917
0.00014049
0.00514368
0.00740707
0.00770657
0.000132713
0.000166413
0.000143385
0.000179246
0.000153015
0.0001506
0.000162818
0.000142097
0.000146201
0.0121309
0.000165942
0.0458111
0.000285957
0.000150763
0.000177537
0.00813191
0.000204226
0.0325202
0.000140241
0.000277681
0.00263586
0.000254172
0.000171168
0.0129625
0.011122
0.00448666
0.000135452
0.00937153
0.000149624
0.00429293
0.000296165
0.000139406
0.0335627
0.000862875
0.00624625
0.00943766
0.0188828
0.00014001
0.000153657
0.000153683
0.0223412
0.0210512
0.000156733
0.000139575
0.000133525
0.000141566
0.00013796
0.0133456
0.020812
0.000137729
0.000162901
0.00526922
0.000144961
0.000226371
0.000146287
0.00368383
0.00708348
0.000148905
0.000215082
0.000145276
0.000137737
0.0390609
0.0205377
0.0223407
0.000139335
0.000397157
0.000151792
0.000151031
0.000146127
0.000151646
0.000128713
0.000145319
0.000145116
0.0200023
0.0131081
0.00511185
0.0325551
0.0301488
0.000139924
0.0250573
0.000146313
0.00782093
0.00226012
0.0194865
0.00812449
0.000139954
0.000145829
0.000145284
0.00580426
0.000156517
0.000134431
0.0002022
0.00013192
0.000140672
0.000202818
0.0225492
0.000163632
0.000159089
0.0490615
0.0226264
0.000146185
0.000163288
0.000171894
0.00014456
0.023449
0.00446214
0.000302002
0.00761455
0.000144128
0.0302209
0.000160715
0.00873192
0.000134164
0.000146023
0.000131721
0.000137654
0.000135652
0.0237828
0.0270891
0.000147448
0.0265355
0.0297468
0.00013822
0.000150259
0.00821492
0.00316132
0.000155047
0.000145577
0.000172776
0.000153326
0.000153723
0.000138444
0.000225702
0.0268017
0.027031
0.0162237
0.000164222
0.000160633
0.00881354
0.00532576
0.000224808
0.000131979
0.0138109
0.000150585
0.000148238
0.0338474
0.000137853
0.000147327
0.000134729
0.00018809
0.0158013
0.0102809
0.0237079
0.000141628
0.0104302
0.000141805
0.0224834
0.000134121
0.031226
0.000200126
0.000196069
0.00664251
0.000153217
0.000137897
0.0186328
0.000219513
0.000169859
0.000146621
0.000366359
0.000212546
0.0026725
0.000150353
0.000144073
0.000168612
0.000140567
0.0108235
0.000445423
0.000149516
0.000137904
0.000155834
0.000156499
0.000141609
0.0226667
0.000148076
0.000150428
0.023577
0.000151652
0.0001981
0.000137545
0.000140634
0.000137859
0.0070373
0.0111266
0.00648894
0.000152776
0.0124661
0.0356673
0.0068002
0.000133364
0.0240215
0.000160368
0.00014046
0.00904008
0.00013237
0.00014687
0.000144976
0.000129476
0.002467
0.000141424
0.000141412
0.000151683
0.000134722
0.000218466
0.025257
0.000229805
0.000147061
0.000221108
0.000133535
0.0208278
0.000138055
0.000235132
0.00486244
0.00800759
0.010543
0.000159507
0.0284915
0.0214864
0.000138069
0.000143341
0.00758897
0.00947895
0.00639662
0.000183433
0.000264183
0.000157095
0.000159989
0.0281591
0.0373809
0.000160367
0.0083744
0.0126591
0.000146605
0.000134753
0.00332229
0.000280884
0.000160658
0.000151542
0.000131134
0.000198421
0.00181498
0.0357265
0.0213811
0.0256546
0.0171713
0.009584
0.000136691
0.00153338
0.0455041
0.000133348
0.000138753
0.00485481
0.000146449
0.00509879
0.000131002
0.000173075
0.000164206
0.000151091
0.000140199
0.00227972
0.000298276
0.00572185
0.000153667
0.0133672
0.00017189
0.00013311
0.000349359
0.00012913
0.000137946
0.0141584
0.000154197
0.0093356
0.000148678
0.000149853
0.000188993
0.0382423
0.000135529
0.00119508
0.0427504
0.00433286
0.000144865
0.000151737
0.0112251
0.000162392
0.00551879
0.00013997
0.000136627
0.0174221
0.000144131
0.000140581
0.000134927
0.023431
0.000157927
0.01078
0.000157662
0.000138723
0.000138077
0.000152649
0.0114388
0.000172518
0.0322836
0.0220495
0.00323603
0.000135132
0.000147916
0.0001509
0.000203599
0.000136019
0.038597
0.000144262
0.000189051
0.000144761
0.00023601
0.000150535
0.00743586
0.00693252
0.000138811
0.000298768
0.00277626
0.000143008
0.000138743
0.00998018
0.000197769
0.000150232
0.00466163
0.00013254
0.00013222
0.0326646
0.000209643
0.000141271
0.00311848
0.00017506
0.028932
0.000348561
0.00177024
0.00017652
0.0106149
0.000165918
0.00014574
0.00582984
0.000137898
0.000145069
0.00803905
0.00015319
0.000136898
0.000198682
0.0311651
0.00623457
0.000135824
0.000168423
0.000143076
0.000147875
0.0171324
0.00014647
0.00380693
0.000199868
0.0019473
0.0173783
0.000265684
0.000185416
0.000171303
0.0201674
0.00013586
0.00262583
0.0054002
0.000151363
0.000131628
0.00327735
0.000199737
0.0109458
0.000146589
0.000142945
0.0107119
0.00015345
0.023305
0.000154092
0.00907288
0.0452669
0.000187578
0.000145451
0.000131259
0.00823496
0.000287926
0.000152559
0.00015361
0.000148538
0.000132366
0.0248972
0.000155614
0.000171702
0.000136868
0.000195147
0.000143276
0.00202943
0.000101675
0.000193198
0.000279828
0.000182658
0.000147116
0.000144108
0.000137638
0.0143715
0.000138112
0.000143722
0.000599403
0.000131452
0.0232935
0.000128287
0.000148002
0.0162828
0.000139651
0.0213428
0.000147296
0.000171697
0.000162743
0.000137786
0.000131202
0.000136903
0.000133005
0.0233188
0.0224267
0.00975301
0.00184322
0.000132073
0.0238279
0.000131327
0.000155581
0.000143227
0.00032007
0.0133082
0.000147397
0.000142951
0.00832156
0.000136426
0.000144029
0.0189151
0.00507376
0.000156804
0.000143244
0.00995359
0.0292259
0.000142995
0.0188311
0.000150535
0.000136412
0.000161137
0.0223398
0.00015024
0.000160751
0.00506422
0.0114788
0.000198176
0.000143192
0.0310578
0.000183287
0.0106868
0.00589687
0.000133413
0.000188604
0.000134966
0.000285448
0.0304764
0.000134497
0.013301
0.00274753
0.000197195
0.000145934
0.000195284
0.0299706
0.012559
0.000142996
0.000467164
0.000129418
0.000136103
0.0227371
0.000140889
0.000143275
0.000148324
0.000190927
0.0291057
0.000150562
0.000202657
0.000144356
0.000142795
0.0165194
0.000201538
0.000158249
0.022738
0.0190114
0.00016547
0.000217305
0.00498323
0.00675663
0.000144764
0.011478
0.000134326
0.0125056
0.0204658
0.000128628
0.000327892
0.000161842
0.000215435
0.000144877
0.0002079
0.0111946
0.000134352
0.014933
0.000148897
0.000140886
0.000150381
0.000144599
0.0231288
0.000143129
0.000145702
0.0200733
0.011675
0.000137329
0.000169949
0.000160886
0.000147376
0.000177345
0.0187309
0.000147522
0.000212552
0.000133278
0.000188899
0.000168316
0.000221638
0.0172235
0.0211867
0.000137417
0.00652616
0.0261327
0.000155363
0.0185264
0.00499424
0.00763971
0.000137888
0.000128605
0.000136885
0.000142238
0.000164402
0.000793475
0.0270834
0.000143855
0.00013216
0.000192866
0.00533744
0.000161405
0.00628974
0.000301402
0.000160434
0.0112586
0.000141261
0.00930707
0.00020921
0.000143435
0.0163806
0.00997944
0.00628791
0.00510176
0.000161908
0.000147684
0.0266056
0.000139912
0.0274533
0.000132314
0.00017304
0.000198938
0.0123527
0.000151058
0.00802802
0.0061028
0.000430227
0.000196977
0.000138807
0.0281966
0.000360781
0.0207232
0.000140208
0.000136918
0.000137444
0.000128292
0.000136084
0.00015061
0.000215591
0.000142816
0.000154112
0.0102845
0.000184036
0.000183183
0.000184008
0.000150396
0.0307276
0.000151316
0.000147435
0.000210804
0.0370179
0.000162649
0.000145724
0.00169756
0.0191226
0.0196737
0.000151595
0.0112992
0.000232003
0.000151177
0.0370463
0.000197464
0.0239842
0.000136116
0.000150171
0.0097036
0.0127668
0.000186251
0.000232127
0.0216723
0.0211537
0.000140097
0.000162829
0.000151106
8.21686e-05
0.000176978
0.00159989
0.000145692
0.00610955
0.000150463
0.012017
0.000139811
0.000173688
0.000214768
0.000194304
0.0247568
0.000140833
0.0161536
0.0268487
0.0310415
0.000164136
0.000203589
0.000140049
0.0107552
0.00174709
0.000135924
0.000134513
0.0172937
0.0320173
0.0168433
0.0125919
0.0188518
0.000143315
0.000263405
0.00455515
0.000143793
0.000144261
0.000423367
0.000160283
0.00708914
0.000133518
0.000152333
0.000143204
0.0338175
0.0305949
0.000138422
0.000143314
0.000143857
0.000154842
0.00018194
0.00339233
0.000205576
0.000148542
0.000150104
0.000142952
0.00636398
0.000152073
0.000138789
0.00548566
0.00610317
0.000163123
0.000144582
0.000138427
0.000149112
0.00540566
0.000140821
0.000181077
0.000143013
0.000132485
0.000186924
0.000313427
0.00614351
0.00304393
0.00935615
0.000301519
0.000132312
0.000138237
0.00697203
0.000198478
0.000141574
0.000198651
0.000193793
0.000137556
0.000133196
0.00678276
0.000161139
0.000128093
0.000153043
0.0324131
0.000136408
0.000203736
0.000138825
0.000133691
0.000217674
0.00014781
0.00013513
0.0215022
0.000196199
0.00014378
0.000142893
0.000287355
0.000155418
0.00578653
0.00650285
0.000150548
0.00012757
0.0254278
0.00775211
0.000150314
0.0233267
0.000201288
0.000165857
0.000239806
0.0310199
0.00517453
0.00319573
0.000147344
0.0108103
0.000143482
0.000187313
0.000153911
0.000209577
0.000291306
0.00834882
0.000179149
0.0100898
0.0280469
0.00438186
0.000155729
0.000137849
0.0218734
0.0034473
0.000136096
0.000150299
0.0299694
0.000131876
0.000157565
0.00797341
0.000139275
0.000153347
0.000144151
0.000185005
0.000197327
0.000261014
0.000174855
0.00973218
0.000156802
0.00014639
0.000141764
0.000135127
0.000151261
0.00714506
0.00015214
0.000194717
0.000143665
0.000156261
0.000155804
0.000289499
0.000214804
0.000133678
0.000154392
0.000136417
0.000163833
0.000145249
0.000144866
0.000148047
0.000141622
0.0290457
0.000137358
0.000140805
0.000138596
0.0266305
0.000132186
0.000145386
0.00888792
0.0287524
0.000128105
0.000138598
0.00013792
0.000140564
0.00537694
0.0112894
0.000236127
0.000156032
0.00015713
0.000134947
0.000204476
0.000150176
0.000139305
0.000140205
0.000137452
0.000277828
0.000138494
0.000225738
0.000149267
0.0121214
0.000146372
0.00511558
0.000139018
0.00014728
0.00757438
0.000133123
0.00014598
0.000173272
0.000214371
0.000146055
0.000132668
0.0378368
0.000190248
0.00029031
0.000152322
0.00962111
0.000144462
0.000148693
0.000190199
0.000405987
0.00506548
0.000154922
0.00517269
0.0189706
0.000143417
0.000161822
0.0334719
0.0001903
0.000133018
0.000197154
0.000148477
0.000261691
0.000184148
0.000153785
0.00525388
0.00337144
0.000153637
0.00714017
0.000182832
0.000147102
0.000133045
0.000134924
0.000147464
0.000151863
0.000297549
0.000224509
0.000141877
0.000218282
0.00104247
0.00018334
0.000249338
0.00015558
0.000137267
0.000218066
0.000165934
0.0259053
0.0001295
0.000163893
0.0353497
0.000134418
0.00655059
0.00576765
0.0025913
0.0152567
0.000135517
0.000150025
0.000131766
0.000144922
0.000166936
0.000151491
0.000140913
0.000197125
0.000132378
0.000166537
0.000194851
0.0309488
0.000150456
0.000151623
0.000154891
0.000184053
0.000132077
0.0158104
0.000181686
0.000161636
0.000194469
0.00835303
0.00705952
0.000165603
0.000203639
0.0139642
0.000145891
0.000231218
0.000144632
0.000139535
0.0352459
0.000151759
0.0268412
0.00017718
0.00018995
0.000164171
0.00015131
0.000137079
0.000172788
0.000131983
0.000265492
0.000133824
0.00592905
0.0193791
0.000134898
0.000276037
0.000266944
0.000171521
0.000171577
0.0274045
0.0168747
0.000128622
0.000150605
0.00751036
0.0158459
0.000135509
0.0322548
0.000210691
0.000180504
0.000136435
0.000152271
0.000259381
0.0300285
0.000144633
0.00500892
0.0367416
0.000210327
0.0306905
0.000204048
0.00411212
0.0262137
0.020803
0.000182848
0.0095079
0.000133479
0.000147894
0.000173359
0.0322139
0.000140026
0.000164204
0.000143216
0.000143479
0.00013885
0.000172179
0.000144553
0.000283319
0.00633594
0.000142067
0.0197284
0.000144527
0.00014456
0.000905863
0.000171038
0.000208933
0.011681
0.000162035
0.000198522
0.000132202
0.000177343
0.000159434
0.0114633
0.000205664
0.000137839
0.000144441
0.000186321
0.000136057
0.000147738
0.0114876
0.000136027
0.0164418
0.000209258
0.0238569
0.000153934
0.000190849
0.00013353
0.001961
0.00757043
0.00028956
0.000185544
0.00789915
0.0265593
0.000164503
0.0310142
0.000244017
0.000164499
0.000191005
0.000131006
0.0281723
0.010706
0.000168633
0.000233473
0.000144239
0.0051326
0.000195374
0.000164118
0.000143533
0.0440897
0.000148119
0.000175649
0.000203591
0.00014345
0.000135759
0.000180483
0.000258779
0.000295187
0.000153028
0.000153953
0.000147056
0.000146616
0.000174026
0.000153469
0.000149395
0.000136736
0.000128478
0.000149689
0.00013579
0.000151215
0.000134481
0.000158568
0.0086916
0.0105829
0.0389533
0.000139769
0.0321274
0.000145597
0.000187643
0.000141466
0.000136682
0.000140305
0.000150737
0.000136144
0.000169068
0.0112588
0.0107284
0.000197022
0.000131864
0.000147009
0.0106309
0.000254498
0.020636
0.00015487
0.000143196
0.000141881
0.000727463
0.000136238