/*--------------------------------*- C++ -*----------------------------------*\
| =========                 |                                                 |
| \\      /  F ield         | OpenFOAM: The Open Source CFD Toolbox           |
|  \\    /   O peration     | Version:  v2012                                 |
|   \\  /    A nd           | Website:  www.openfoam.com                      |
|    \\/     M anipulation  |                                                 |
\*---------------------------------------------------------------------------*/
FoamFile
{
    version     2.0;
    format      ascii;
    class       volScalarField;
    location    "100";
    object      nut;
}
// * * * * * * * * * * * * * * * * * * * * * * * * * * * * * * * * * * * * * //

dimensions      [0 2 -1 0 0 0 0];


internalField   nonuniform List<scalar> 
53008
(
0.00217718
0.00142401
0.00710053
0.00584183
0.00753202
0.00581075
0.00588968
0.00579571
0.00205701
0.00584553
0.00579998
0.000435876
0.00591884
0.00468548
0.0067861
0.00164268
0.00600935
0.00848528
0.00161642
0.00586696
0.0059135
0.00149163
0.0153581
0.00174061
0.00584304
0.0046435
0.00912307
0.00592124
0.0122646
0.00584057
0.00160407
0.0058672
0.0046148
0.00357831
0.00581098
0.00581332
0.00600977
0.00630261
0.00566148
0.00806675
0.0117135
0.000544199
0.00589811
0.0059006
0.000382967
0.00197883
0.000174003
0.00819277
0.00647037
0.00287947
0.00386569
0.00950647
0.00605149
0.00217981
0.00505121
0.000464611
0.00580653
0.00581899
0.00591202
0.00599228
0.00584278
0.0058259
0.00591024
0.00336013
0.00591257
0.000673896
0.0132291
0.00157831
0.00592188
0.0058563
0.00584033
0.0058264
0.00584684
0.0058282
0.00123169
0.00308381
0.0057955
0.00585127
0.00465603
0.00590733
0.00584286
0.00591004
0.000728708
0.00161928
0.00582559
0.00338502
0.000996343
0.00113662
0.00234989
0.00582824
0.00579266
0.00584047
0.00595851
0.00582551
0.00118357
0.00773349
0.00586897
0.00579268
0.00591896
0.00585439
0.00584488
0.00598735
0.0147466
0.00592252
0.00584049
0.00221341
0.000249635
0.005122
0.0034052
0.0033739
0.00971332
0.0132357
0.00883218
0.00590335
0.00554451
0.00591899
0.0166426
0.00240304
0.0010121
0.00771917
0.00579354
0.00588278
0.00889427
0.00303531
0.00585033
0.00680026
0.0131193
0.000449626
0.00176548
0.00185835
0.00583646
0.00579362
0.00623068
0.00132642
0.0132013
0.00582775
0.00597611
0.00582432
0.0130671
0.00583458
0.00162054
0.0134399
0.004836
0.00606409
0.00577991
0.00163945
0.00180505
0.00138024
0.00605997
0.00586111
0.00481405
0.00591776
0.000962443
0.00419448
0.00235408
0.00405759
0.0113943
0.0059886
0.00581127
0.0036654
0.00586818
0.00589993
0.00579613
0.00587042
0.00579741
0.00246837
0.000538685
0.0069336
0.00579572
0.00581401
0.00226929
0.00588608
0.00550209
0.00960373
0.00584008
0.00587119
0.00606317
0.00591468
0.000590198
0.00343738
0.00149135
0.00203785
0.00586482
0.00581045
0.0123225
0.00590552
0.00578839
0.00515305
0.00710297
0.00484823
0.00581307
0.00325194
0.00134399
0.000481948
0.00922015
0.0058263
0.00350575
0.000355809
0.00582614
0.00844178
0.00585846
0.000505777
0.000427875
0.00582556
0.000444079
0.00474682
0.00581288
0.00589491
0.00300048
0.0121392
0.00198645
0.00107769
0.0183211
0.00586926
0.00978553
0.00589501
0.00476435
0.00112037
0.0134
0.0133856
0.00114826
0.00590286
0.00586667
0.00848602
0.000890007
0.00173832
0.00227093
0.00632671
0.00234279
0.00519014
0.00588612
0.00325095
0.0059106
0.012295
0.00595154
0.00319819
0.00593416
0.0058827
0.00105382
0.00592194
0.0048548
0.00474054
0.000643976
0.0168171
0.0058533
0.0154072
0.00585352
0.00581939
0.00497443
0.00361688
0.0147703
0.00386445
0.000940841
0.00586271
0.00593922
0.00579561
0.0184484
0.000447013
0.00163264
0.00405729
0.0136396
0.00111466
0.00585248
0.00605331
0.0151069
0.00605381
0.0131045
0.0132827
0.00412752
0.00531809
0.000486706
0.00590404
0.0059862
0.0010201
0.00546759
0.000340034
0.00551501
0.000104749
0.00596337
0.00589142
0.0035319
0.0154294
0.000394529
0.00289491
0.000368561
0.00584172
0.00584691
0.0136537
0.000715588
0.00993474
0.0119062
0.0033257
0.00115815
0.000526715
0.00586978
0.0059155
0.00722376
0.00591405
0.0113796
0.0126749
0.0130309
0.00585112
0.0058469
0.00591792
0.00189208
0.000269712
0.005921
0.00481962
0.00473236
0.00964824
0.00328172
0.00582641
0.00587247
0.00586396
0.00112123
0.00584101
0.00565332
0.00582675
0.00823904
0.00591613
0.00105762
0.00581392
0.000420742
0.00579762
0.0058622
0.00911044
0.00406476
0.00582653
0.00319846
0.0045391
0.019299
0.00811204
0.00590055
0.00196522
0.00892189
0.00589811
0.00133614
0.00163935
0.00586225
0.00572721
0.00163649
0.00275211
0.00127749
0.00337272
0.00388024
0.00592299
0.0014513
0.00580259
0.00588633
0.00575101
0.00582493
0.00581307
0.0143589
6.57135e-05
0.00585302
0.00957839
0.00594291
0.00108194
0.00474201
0.000753141
0.000231603
0.00596051
0.00374329
0.00586058
0.00515307
0.00585574
0.00371723
0.012415
0.00450177
0.00472095
0.0134534
0.00596017
0.00506764
0.00582266
0.005883
0.00127278
0.00586147
5.62737e-05
0.00499195
0.00588626
0.00583127
0.0059105
0.00586094
0.0149569
0.005903
0.00582634
0.00542457
0.0103746
0.0134926
0.0117835
0.00816084
0.00189671
0.000213478
0.00581675
0.00540488
0.00810329
0.00115078
0.00582697
6.95034e-05
0.00591999
0.00592224
0.00587211
0.00841076
0.0151128
0.00596018
0.00586812
0.00586158
0.000451773
0.000761448
0.00582571
0.000990064
0.00587309
0.00736683
0.00859449
0.00162551
0.00582649
0.0192009
0.00540917
0.00596003
0.00584155
0.00583325
0.011606
0.00587936
0.00582706
0.00579472
0.00586433
0.00584988
0.00368816
0.00574583
0.00582693
0.0011547
0.00228837
0.00584896
0.000898993
0.00582533
0.00596166
0.00588323
0.00485936
0.0027968
0.00841926
0.00333226
0.00480862
0.000532924
0.00423373
0.00359992
0.00590362
0.00584336
0.0054994
0.00532295
0.00594597
0.00980158
0.00335956
0.00584277
0.0060624
0.00132898
0.00970264
0.0114128
0.00438986
0.00594562
0.00463696
0.00586873
0.0047898
0.00588686
0.00584765
0.00606825
0.0104845
0.00453832
0.00509423
0.00035506
0.00665892
0.00148227
0.00349543
0.000432247
0.00520611
0.00582754
0.00206742
0.00587111
0.00111399
0.00474034
0.00892516
0.00585079
0.000110922
0.00487628
0.00458493
0.0058876
0.00585166
0.0134097
0.00585656
0.00236502
0.00833471
0.00594383
0.00580155
0.0147018
0.00592652
0.013493
0.00584381
0.00582501
0.00589695
0.00589363
0.00142777
8.96271e-05
0.00584532
0.00346505
0.00596133
0.00040739
0.000860562
0.000958176
0.00586381
0.00595961
0.0135388
0.00582915
0.0060019
0.00937322
0.000674698
0.00580502
0.000505358
0.000941971
0.00607512
0.00580496
0.00591414
0.0143593
0.00559672
0.00582702
0.00159789
0.0206051
0.00585476
0.0135602
0.00580278
0.00554774
0.00591842
0.0054769
0.00580872
0.0035107
0.0121825
0.00582696
0.00474449
0.00584645
0.00642775
0.00229582
0.00595959
0.00362591
0.00582535
0.00584097
0.0058488
0.00165731
0.00150213
0.00591462
0.00277165
6.63457e-05
0.00150735
0.00584572
0.00593149
0.00600912
0.00589637
0.00591553
0.000555671
0.0106768
0.00964223
0.00591989
0.0125394
0.00590113
0.00679844
0.00586193
0.0084484
0.00580398
0.00637657
0.00582066
0.00117136
0.00172354
0.0129996
0.00584839
0.00592311
0.00585329
0.00094014
0.00330141
0.0118794
0.00579778
0.00582684
0.00593584
0.00590174
0.00946673
0.00588486
0.00556475
0.00536548
0.00631521
0.0059188
0.000919085
0.000321165
0.0109806
0.000780124
0.00593294
0.0066202
0.0135754
0.00477213
0.00579961
0.00744276
0.00578682
0.00581345
0.00817317
0.000737711
0.00921965
0.00177002
0.0030706
0.00583006
0.00133398
0.0124647
0.0112766
0.00134235
0.00590421
0.00587379
0.000997652
0.00595971
0.00581206
0.00582639
0.00590433
0.00581135
0.0017268
0.00579494
0.00341117
0.00582658
0.000500728
0.00603249
0.00839494
0.0115769
0.00292158
0.0149514
0.00590041
0.00588319
0.00591209
0.00458077
0.00265942
0.00587612
0.00682532
0.00657892
0.00585419
0.00180921
0.00107191
0.00583872
0.00313023
0.00167256
0.00505121
0.00591161
0.000961607
0.00590302
0.00585481
0.00266704
0.00586854
0.0058202
0.00592728
0.000863527
0.00591431
0.00591275
0.00919262
0.00584474
0.00167083
0.00590394
0.00591496
0.00699418
0.000770401
0.00558281
0.00596065
0.00605204
0.00594067
0.00464802
0.00596516
0.000223984
0.00552416
0.00287067
0.00180739
0.00579783
0.00701271
0.00295624
0.00592317
0.00587296
0.00379644
0.00591425
0.0127573
0.00551323
0.00580702
0.00342421
0.00098535
0.00668393
0.00563116
0.00251644
0.0058784
0.00602956
0.0043891
0.00590414
0.00274555
0.00592179
0.0146314
0.00142818
0.00601476
0.00584219
0.000987591
0.00593894
0.000358652
0.00591791
0.0119549
0.00582792
0.00591403
0.00945526
0.00563928
0.00204147
0.00586179
0.00582756
0.0019684
0.0060155
0.00227255
0.0117601
0.00586155
0.017084
0.000517747
0.00591435
0.00592485
0.0048289
0.00266689
0.00558529
0.00775498
0.00106975
0.00562981
0.00124174
0.00592254
0.00583571
0.00588183
0.0091233
0.0057936
0.00408145
0.0132266
0.00254137
0.00932183
0.00101747
0.0103774
0.0037471
0.00582758
0.000655106
0.00569801
0.0028638
0.00158626
0.00590957
0.000908256
0.00582177
0.000756288
0.000490277
0.00582689
0.00918883
0.00386522
0.00581914
0.00334938
0.0073643
0.00266582
0.00584192
0.00559509
0.011914
0.0125913
0.000544744
0.00581306
0.00237827
0.00356191
0.00332811
0.00515528
0.00559145
0.00554535
0.0126314
0.000239116
0.00593389
0.00693432
0.00983889
0.000925913
0.00163288
0.00728958
0.000910156
0.00200814
0.00101096
0.00593081
0.00237399
0.000787259
0.00194581
0.00592318
0.0103924
0.00569009
0.00605215
0.0017542
0.00561025
0.000514152
0.00594202
0.00595462
0.00582703
0.00667496
0.00623152
0.0126008
0.00449326
0.00180446
0.00369396
0.00917177
0.00580397
0.00889303
0.00169445
0.0105373
0.00699595
0.00589371
0.012741
0.00581763
0.0058999
0.00594844
0.00768585
0.00586562
0.00595175
0.00592507
0.00597169
0.00591013
0.0058805
0.0026979
0.0024662
0.000806287
0.00351602
0.00916354
0.00619286
0.00601511
0.00176058
0.00584615
0.00579557
0.00987001
0.0058373
0.00447225
0.00595871
0.000695489
0.00232546
0.0081213
0.00566093
0.00945604
0.0058282
0.0133158
0.00584627
0.00537713
0.00603562
0.0190182
0.00786246
0.00146248
0.00570486
0.00581063
0.00592745
0.00318917
0.0059113
0.0127648
0.00592029
0.00136895
0.000547435
0.00979034
0.00113425
0.000378449
0.00582735
0.00582709
0.00107563
0.00040255
0.00956414
0.000637341
0.00598518
0.00592014
0.00907031
0.00582738
0.0058734
0.00586577
0.0030108
0.000905335
0.00772248
0.0092632
0.00382493
0.00170318
0.00140265
0.00194647
0.00466128
0.00555471
0.00565307
0.0058274
0.00591211
0.0106492
0.0042347
0.0059313
0.00413418
0.00301657
0.00372096
0.00590372
0.0057997
0.00368833
0.00588423
0.00579544
0.00590966
0.00177775
0.00584617
0.00421206
0.00588637
0.00581446
0.000503754
0.0059112
0.00270284
0.00953504
0.000627287
0.0127484
0.0127772
0.00783132
0.0059033
0.00586145
0.0058273
0.00585189
0.00583983
0.00154356
0.0130256
0.00585455
0.0142652
0.000499858
0.005021
0.00270975
0.0139109
0.00591202
0.00590978
0.00591013
0.00607739
0.00721557
0.0136835
0.00839427
0.000816608
0.00591444
0.00604032
0.00382193
0.00589781
0.013842
0.00581932
0.0146681
0.000366851
0.00594192
0.00636941
0.00581413
0.00605244
0.001359
0.00591061
0.00594889
0.000944961
0.0132371
0.00250482
0.000404035
0.00959807
0.00295174
0.00158943
0.000870706
0.00580641
0.0089811
0.00594462
0.00589349
0.00581699
0.000786589
0.00583489
0.00585539
0.00581667
0.00589406
0.00353385
0.00588879
0.00594323
0.0059492
0.00586016
0.00588759
0.00597256
0.00594674
0.00587543
0.00589404
0.00920326
0.000429227
0.00562937
0.00289413
0.0059955
0.00582592
0.00781472
0.00595779
0.00581084
0.00191345
0.00584706
0.00284683
0.0059954
0.00185267
0.00324386
0.00577183
0.012304
0.00594304
0.00589324
0.00583469
0.00793902
0.00595391
0.000762274
0.00173416
0.00109683
0.00158945
0.00580208
0.00585474
0.00855201
0.000871028
0.00584474
0.00562476
0.00211336
0.00637588
0.00585143
0.0055983
0.00984078
0.00581056
0.00410216
0.00139358
0.00373677
0.00906435
0.00588772
0.00288488
0.00589329
0.00399916
0.00595761
0.00267607
0.0059145
0.00401596
0.00580163
0.00659527
0.000270521
0.00585334
0.00586594
0.00373975
0.00589231
0.00313796
0.00556406
0.00589758
0.00448687
0.00583392
0.00582929
0.00584685
0.00243127
0.00590923
0.0097585
0.00307643
0.00131536
0.00585331
0.00547883
0.00629998
0.00484658
0.0168101
0.00683604
0.0053318
0.00582737
0.00567431
0.00591914
0.00687976
0.00221241
0.0129807
0.00580091
0.00583012
0.00879273
0.00579828
0.0096103
0.0065099
0.00855388
0.0169675
0.0059144
0.00593708
0.00702446
0.0117992
0.000105498
0.00583285
0.00600892
0.00363601
0.00590557
0.00520676
0.0058128
0.00591636
0.00212044
0.000835488
0.00264395
0.00111589
0.010252
0.00158998
0.0127432
0.00583152
0.0170969
0.00404166
0.000368624
0.00277605
0.00318405
0.0030212
0.00116601
0.00578017
0.00583424
0.00587197
0.00556291
0.00578552
0.0194341
0.000887131
0.009866
0.00215195
0.00579978
0.00585986
0.0124169
0.0058971
0.00588624
0.005954
0.00579802
0.00671904
0.00670084
0.00163671
0.0058109
0.00196155
0.000511283
0.00590944
0.00583156
0.0059058
0.00312677
0.0103222
0.00579928
0.00583238
0.0058017
0.0108965
0.00224586
0.006045
0.00308289
0.000165448
0.015938
0.00909387
0.0075775
0.000850501
0.00326161
0.00160963
0.00243984
0.000862205
0.00593184
0.00585198
0.00603278
0.005829
0.00587127
0.00361861
0.00579516
0.00315338
0.000462439
0.00585686
0.00971571
0.00131962
0.0039019
0.000376635
0.000904031
0.000520823
0.00115864
0.000442446
0.000687621
0.0132625
0.00145529
0.00541296
0.00535643
0.0100618
0.00137975
0.00494381
0.00595353
0.00590268
0.00664927
0.00548739
0.00599368
0.0101485
0.00880575
0.0110446
0.00302845
0.00103174
0.0105219
0.000939595
0.0148167
0.00595742
0.00125242
0.0059834
0.00397578
0.00579988
0.00670912
0.00459777
0.00625592
0.00393235
0.00352882
0.0114113
0.00146653
0.00599343
0.00341363
0.00552207
0.00586301
0.00127305
0.00579827
0.00412846
0.0140224
0.00595941
0.00585433
0.000442169
0.00583679
0.00583792
0.00988052
0.00585847
0.00277766
0.00528612
0.000445878
0.00554393
0.00486662
0.0110748
0.000875942
0.00158316
0.0145325
0.00580262
0.00584059
0.00560592
0.00634796
5.07059e-05
0.0058548
0.0118891
0.00208849
0.00560624
0.00586636
0.00369771
0.0170516
0.0026153
0.00473027
0.00100462
0.00332913
0.00585533
0.00482078
0.0058341
0.0058345
0.011884
0.00554101
0.00585165
0.00341332
0.00579586
0.000763871
0.000390291
0.00592134
0.00501571
0.00300532
0.00327437
0.0118951
0.00576513
0.000845807
0.00749087
0.00581975
0.00254337
0.00581698
0.00584072
0.00686276
0.000832157
0.00244063
0.00583351
0.00584957
0.0059566
0.0115042
0.0059666
0.00396063
0.00584001
0.0015396
0.00151549
0.00580409
0.01548
0.00591851
0.000797603
0.00595829
0.00584133
0.00588678
0.0016159
0.00671472
0.00972137
0.00582548
0.00585506
0.00824813
0.0208699
0.00119106
0.00584262
0.00138234
0.00587439
0.00989218
0.00584174
0.0140054
0.00425025
0.00503563
0.0020985
0.000871019
0.00112732
0.00607122
0.00582737
0.00589819
0.000529262
0.00105375
0.00106913
0.00180388
0.00580249
0.00232029
0.0058916
0.0134813
0.00588979
0.00241825
0.0126293
0.00593505
0.00586703
0.0147089
0.00558536
0.00592033
0.00593834
0.00583988
0.00586837
0.0103575
0.00690324
0.00593234
0.0017569
0.00130601
0.00581039
0.00103477
0.00586618
0.00568278
0.00976641
0.0015211
0.000153147
0.00139406
0.00593357
0.00597215
0.0162856
0.00114604
0.00590421
0.00672458
0.00589002
0.00586252
0.00588472
0.0132575
0.00591678
0.00156237
0.00581968
0.00585795
0.00580005
0.00599105
0.00361708
0.00595214
0.0101746
0.000565903
0.00559587
0.00584426
0.00590199
0.00584434
0.0124294
0.00590646
0.00880259
0.00591073
0.0049996
0.00210824
0.00394307
0.00582912
0.00517767
0.00584938
0.00154322
0.0094322
0.00165171
0.00186653
0.000676965
0.01278
0.00581934
0.00591306
6.15889e-05
0.000962081
0.0037496
0.00765757
0.000994798
0.000453952
0.00584997
0.00444624
0.0163432
0.0122728
0.0131603
0.00593336
0.00582092
0.000290481
0.00516999
0.00591611
0.00587958
0.0144879
0.00582384
0.0086499
0.0205924
0.00604261
0.00591517
0.000884219
0.0115822
0.000411249
0.0026563
0.0154849
0.0104895
0.00990058
0.00582284
0.00583407
0.00583357
0.0144598
0.000174229
0.0093819
0.00789637
5.13923e-05
0.00591791
0.0058215
0.00580125
0.00597911
0.0143475
0.00438905
0.0150196
0.00583649
0.0033259
0.00457996
0.00593372
0.000984979
0.00607141
0.000595578
0.00175139
0.00134915
0.00582115
0.00955599
0.00926232
0.00139207
0.00771487
0.00592497
0.00582185
0.00805272
0.0032302
0.00459485
0.00582577
0.00867711
0.00591834
0.00297222
0.000983068
0.00592129
0.00230011
0.00590218
0.00582785
0.00553601
0.00582229
0.00589017
0.00590554
0.00590121
0.00595814
0.00587749
0.0058033
0.0112765
0.00888367
0.000259375
0.0129376
0.00849109
0.000617384
0.00237059
0.00685564
0.00584987
0.00403701
0.00592479
0.00552656
0.0101831
0.00660008
0.00593168
0.0013285
0.00420785
0.0101382
0.00645601
0.014882
0.00583944
0.00584791
0.00591829
0.00889718
0.00581892
0.00623989
0.00584059
0.00257223
0.00583935
0.00166482
0.00556104
0.00590483
0.00238665
0.00104186
0.0164211
0.00307443
0.00598777
0.00580005
0.00833458
0.0187318
0.00328584
0.00582878
0.00586819
0.0058459
0.000400628
0.0058824
0.00593845
0.0058249
0.00343866
0.00796569
0.00143246
0.00587129
0.00320364
0.0170974
0.00465187
0.00419599
0.0177548
0.0035374
0.00592251
0.00153623
0.00599916
0.0058256
0.00655818
0.00894928
0.0210074
0.0058122
0.00231797
0.00585513
0.00152896
0.00331853
0.00590553
0.0037053
0.00584782
0.0059373
0.0149993
0.00238707
0.0131838
0.00417914
0.00591099
0.00587779
0.0175443
0.00112473
0.0142416
0.00591884
0.00424342
0.00335039
0.00250346
0.00575145
0.00148605
0.000781351
0.000396252
0.0058873
0.000610325
0.00590223
0.0016936
0.000511374
0.00583718
0.00903094
0.00062138
7.40929e-05
0.00527337
0.0123737
0.00591417
0.00466957
0.0053741
0.00375729
0.00870016
0.00561483
0.0058177
0.00587771
0.00587294
0.00585018
0.00165269
0.00878921
0.00584086
0.00441994
0.000253941
0.00587795
0.000896865
0.00591095
0.00719041
0.00865275
0.00594519
0.000351504
0.00590672
0.00583781
0.0110591
0.00764219
0.00799507
0.00583598
0.000589334
0.00589752
0.00590797
0.00593335
0.0059208
0.00580822
0.00595292
0.0059461
0.00966527
0.00119437
0.0134139
0.00586021
0.0143537
0.00582723
0.0117998
0.00594023
0.00848124
0.00104646
0.00955413
0.00985377
0.00597864
0.0059748
0.00595265
0.00711862
0.00257751
0.00589638
0.000832541
0.00580497
0.00588561
0.00147258
0.00679525
0.00270168
0.00603404
0.0170939
0.00682354
0.00594176
0.00310346
0.00161427
0.00585851
0.00852854
0.00618748
0.000653826
0.00912294
0.00591867
0.00817214
0.00320901
0.0182814
0.00581731
0.00591683
0.00580693
0.00592145
0.00581048
0.00237508
0.00772945
0.005924
0.0122569
0.00566933
0.00590715
0.00590653
0.00984433
0.0059055
0.00564786
0.00588966
0.00394988
0.00313733
0.00476086
0.00591285
0.00087374
0.00765434
0.00695947
0.00300644
0.00398525
0.00606775
0.0183478
0.000161194
0.00115
0.00581868
0.00217882
0.00590588
0.00596847
0.00993178
0.00584842
0.00592131
0.00580489
0.00155689
0.00442742
0.0213408
0.00666465
0.00593309
0.0172581
0.0058715
0.00510785
0.00581726
0.00688961
0.000551269
0.00063937
0.000220042
0.00346807
0.00583999
0.0132281
0.00163067
0.00540281
0.00595617
0.000537971
0.00592118
0.00420678
0.00594725
0.00589411
0.00262184
0.0058777
0.0271141
0.00366773
0.00594152
0.00584335
0.0056234
0.00583023
0.00593278
0.00818535
0.00598904
0.00517837
0.00846911
0.00592085
0.00117669
0.00581216
0.00582703
0.00584317
0.00798496
0.0087067
0.00805304
0.00357052
0.0156026
0.0102038
0.0148494
0.00587402
0.00805502
0.00555422
0.00587523
0.000627386
0.00580855
0.00594775
0.00586774
0.0057984
0.00377756
0.00586962
0.00585035
0.00588458
0.00580595
0.000404169
0.00870363
0.00463478
0.00589372
0.0011184
0.00579955
0.00669964
0.0058369
0.000441745
0.00261211
0.00302471
0.0127823
0.00567864
0.00914584
0.00506489
0.00585168
0.00589685
0.00543364
0.0190117
0.000228293
0.00117129
0.00153557
0.00564358
0.0036386
0.00599872
0.00994275
0.00546302
0.00871393
0.00110062
0.00596107
0.00580684
0.00712206
0.00142695
0.00564832
0.0058824
0.00582889
0.000735201
0.000841299
0.0136469
0.00935202
0.0127596
0.00849068
0.0191255
0.00592355
0.00468912
0.012955
0.0057994
0.00583917
0.00643693
0.0059544
0.0110912
0.00582603
0.00136504
0.00395884
0.00590033
0.00591453
0.00282622
0.00421359
0.000706064
0.00337127
0.00133867
0.00583828
0.00581842
0.000372035
0.00578565
0.00584023
0.0103096
0.0033532
0.0165925
0.005999
0.00593796
0.000910226
0.0108586
0.00591541
0.00454353
0.0119962
0.0078947
0.00594025
0.00588589
0.013532
0.00228643
0.00226855
0.00583001
0.00592169
0.00334171
0.00593177
0.00582611
0.00590884
0.00986309
0.00416695
0.00856167
0.00385609
0.00582259
0.00592563
0.00600803
0.00775659
0.00267024
0.00591065
0.00634234
0.00697939
0.00586901
0.00594094
0.00593653
0.000958086
0.00582904
0.0142455
0.00589696
0.000967981
0.00588908
0.00463213
0.00600684
0.0200415
0.0132737
0.00581646
0.00171511
0.0056062
0.00582774
0.00581589
0.0165577
0.00124878
0.00585527
0.00189858
0.00585793
0.00579561
0.0053535
0.00459761
0.00589765
0.00146035
0.00158261
0.0124568
0.00353273
0.00632235
0.00148124
0.0203177
0.00239958
0.00593214
0.0162296
0.00590008
0.00587082
0.000480304
0.00328381
0.00584016
0.00114178
0.00679235
0.0170572
0.00581348
0.0058298
0.00582592
0.00593083
0.013384
0.00590201
0.0036676
0.000469031
0.00189884
0.00224383
0.00105611
0.00116356
0.00233176
0.0121102
0.00581346
0.0053913
0.000167276
0.00590737
0.00586059
0.00707118
0.000976309
0.000999341
0.00590399
0.00584297
0.0203854
0.00328702
0.00844894
0.00329906
0.0203826
0.0129345
0.00116244
0.00590934
0.00580141
0.00839678
0.00181624
0.00602123
0.00599953
0.005841
0.00585408
0.0137705
0.00419386
0.0019566
0.00588559
0.00069702
0.00583517
0.00102979
0.00068136
0.000832779
0.00145036
0.00121768
0.00592151
0.00593343
0.00583172
0.0021027
0.00590084
0.00586134
0.000578836
0.00580499
0.00515655
0.00578402
0.00586968
0.00798831
0.0058285
0.0103847
0.00595314
0.00163352
0.00605713
0.00583802
0.00580069
0.00592117
0.00587168
0.00676777
0.0128554
0.00675642
0.0017595
0.00579501
0.0104967
0.00580352
0.00603018
0.00593028
0.00342479
0.00983405
0.00598108
0.00582705
0.00849793
0.00583224
0.00589573
0.00917207
0.000145021
0.00566062
0.00587109
0.00066867
0.00815743
0.00592524
0.00500398
0.005926
0.00587653
0.00548182
0.00787195
0.00590616
0.00607521
0.000146627
0.0214289
0.0053511
0.00598827
0.00553469
0.00150271
0.0100589
0.00496725
0.00588283
0.000971595
0.00582443
0.00172026
0.00829781
0.00580619
0.00155543
0.00140556
0.00127219
0.0059316
0.00541448
0.00878459
0.000988168
0.00584432
0.00352805
0.00578949
0.0058306
0.00834037
0.00585796
0.0058375
0.00599705
0.000966676
0.00845872
0.00428182
0.00520354
0.00593797
0.00592882
0.00819536
0.00523125
0.00545473
0.00832923
0.013599
0.00242801
0.00552615
0.00425295
0.00640256
0.00588871
0.0213512
0.00585857
0.0148347
0.0121511
0.00578904
0.00387159
0.00444622
0.000515023
0.00594375
0.00043997
0.000620852
0.00585976
0.00260317
0.00601561
0.00585754
0.00592365
0.00591207
0.00501223
0.00586844
0.00593108
0.00742595
0.000873852
0.00583713
0.00233285
0.006061
0.00594205
0.003993
0.00403513
0.00598822
0.000369683
0.00588921
0.00584551
0.00301625
0.00554461
0.0121345
0.0123673
0.00581239
0.0164056
0.0085178
0.00605035
0.00500049
0.00734089
0.0119093
0.00589716
0.00578422
0.0059219
0.00588364
0.00318876
0.00434114
0.0120064
0.00589166
0.00581239
0.000510178
0.00462019
0.00604969
0.0159929
0.00173107
0.003472
0.0213074
0.00589857
0.0184072
0.00501847
0.00590922
0.0030956
0.0133777
0.00119701
6.04672e-05
0.00607253
0.00594562
0.00827275
0.00582582
0.00743611
0.00582174
0.00154993
0.000640268
0.00112601
0.00593236
0.0170371
0.0192036
0.0040822
0.000464378
0.00590513
0.0144616
0.0043714
0.00517549
0.00582076
0.00583987
0.00581258
0.00578367
0.00590013
0.00594324
0.000535356
0.00589671
0.00404445
0.000604874
0.00111965
0.00114686
0.0014152
0.00432339
0.00868
0.00591019
0.00592667
0.00576899
0.0111699
0.00243287
0.00586773
0.00078634
0.00425027
0.00598104
0.00571182
0.0212602
0.0043315
0.00593013
0.0112372
0.000852432
0.00374769
0.00591701
0.00586802
0.013241
0.0151622
0.00111719
0.00222641
0.0066791
0.00665772
0.00588881
0.00410972
0.00601308
0.000261522
0.0040554
0.00561211
0.00592764
0.00585813
0.003988
0.00124279
0.00582624
0.0015463
0.00580653
0.000745075
0.00870272
0.00584692
0.00311147
0.0105891
0.0151327
0.00232224
0.000647847
0.00588886
0.0207408
0.00618732
0.00582954
0.00580691
0.0120792
0.00464345
0.00220157
0.0149193
0.00426681
0.00588265
0.00121555
0.00715108
0.00589282
0.00596959
0.00349972
0.00555285
0.0176039
0.00580143
0.00588333
0.00590382
0.00996457
0.00993497
0.00583958
0.00583858
0.00591683
0.00568946
0.00120812
0.00722492
0.00102695
0.00594003
0.00475157
0.00582671
0.00122135
0.00586153
0.00582351
0.0181261
0.00508571
0.00284452
0.00591211
0.0059088
0.00599384
7.73172e-05
0.00584731
0.00212822
0.00589983
0.00580981
0.00528444
0.0015759
0.00839454
0.00664271
0.0164437
0.00253312
0.00585741
0.0058355
0.00839775
0.00100795
0.00584348
0.000669419
0.000937845
0.00581275
0.00587132
0.000275324
0.00326612
0.00578216
0.00320457
0.00943223
0.00590673
0.000805211
0.00592367
0.00588051
0.00555534
0.00593741
0.0058662
0.00350311
0.000685386
0.00591302
0.00582597
0.00140525
0.0056449
0.0187761
0.0194719
0.00594443
0.00578052
0.0131107
0.000259746
0.00528452
0.0117164
0.000524793
0.00269893
0.00531172
0.0153351
0.0054849
0.00144127
0.00598004
0.020666
0.00591944
0.00500554
0.00569678
0.000534593
0.000610738
0.0127793
0.00134021
0.0209545
0.0142426
0.00512179
0.00579329
0.0058376
0.0107888
0.0065773
0.00591723
0.00441162
0.00800224
0.00579665
0.00556571
0.0166905
0.00592715
0.00570024
0.00590292
0.00138265
0.000729655
0.000901965
0.00155817
0.00507973
0.0055827
0.0059394
0.00585167
0.00586521
0.006005
0.000287399
0.00586265
0.000696147
0.00589879
0.00560299
0.00562318
0.00154174
0.000337914
0.00580262
0.00566812
0.00583257
0.00382365
0.00590371
0.00594452
0.00596286
0.00584372
0.00672143
0.00584373
0.00586285
0.00592076
0.0121928
0.00585695
0.00587859
0.00055804
0.00756604
0.00578208
0.00591105
0.00584591
0.00584427
0.0122968
0.00804987
0.00240458
0.00281629
0.00556944
0.00586536
0.000521937
0.00592846
0.00591912
0.00582235
0.00589045
0.000975844
0.00583843
0.00222916
0.00581862
0.00884819
0.00589962
0.000176173
0.00592389
0.00598236
0.00406394
0.00581785
0.00593886
0.00157523
0.000362128
0.00588943
0.00586645
0.00883121
0.00100605
0.00144203
0.00590253
0.00705116
0.00589506
0.00597839
0.00561766
0.00183098
0.00725336
0.0029299
0.00894305
0.00298917
0.00598786
0.00571928
0.0143811
0.000935006
0.00586733
0.000876973
0.00594007
0.000446081
0.00153151
0.00346558
0.0119646
0.00716804
0.00349213
0.000241004
0.00151986
0.00592055
0.00584553
0.00586189
0.00595497
0.005915
0.00070255
0.00432146
0.00585374
0.00441288
0.00240628
0.00125109
0.000970077
0.00603035
0.00589017
0.000332321
0.00297412
0.0128787
0.00578922
0.00424938
0.0104434
0.00589892
0.0107535
0.00020084
0.00736671
0.00257524
0.00587225
0.0058801
0.00580673
0.0059013
0.00222843
0.0059092
0.00595585
0.000693031
0.0058238
0.00576444
0.00562482
0.00536158
0.00592687
0.00601581
0.00603233
0.00141312
0.00579515
0.00216245
0.00113312
0.00352656
0.000704069
0.0108565
0.0134038
0.00577426
0.00570684
0.00127214
0.00591376
0.00229605
0.00587029
0.00582736
0.0105808
0.00558718
0.0108315
0.00497857
0.00494231
0.00213481
0.00377233
0.00589772
0.00167946
0.00585212
0.0022109
0.00588405
0.0190543
0.00965202
0.00588009
0.00238674
0.0023669
0.00185156
0.00145838
0.00492361
0.00295631
0.00578834
0.0059245
0.00920642
0.00235437
0.00587127
0.00654077
0.000399868
0.00411027
0.00592094
0.00494432
0.000292535
0.00877795
0.00594176
7.85931e-05
0.0111304
0.000415443
0.00992773
0.000472104
0.00752937
0.00704541
0.00922784
0.00558889
0.0208859
0.00579976
0.00595943
0.00395813
0.00659666
0.00581882
0.00351201
0.00583442
0.00593666
0.00582266
0.00182523
0.00591371
0.00102664
0.0172411
0.00588004
0.00932982
0.00586837
0.00591357
0.0023859
0.00205812
0.00151762
0.00790297
0.00237177
0.000624063
0.0057952
0.0013903
0.00369918
0.00864398
0.000949148
0.00584053
0.00590086
0.00124691
0.00581184
0.00593718
0.0215016
0.00581252
0.013004
0.000523683
0.00279581
0.0047472
0.00169796
0.00579961
0.00115634
0.00946036
0.00437897
0.00109271
0.0167034
0.0119042
0.00204875
0.00778538
0.000423801
0.00549272
0.00100333
0.00579633
0.0125126
0.0169116
0.00276043
0.00129919
0.00589768
0.0135181
0.00104225
0.00256438
0.00599729
0.0167284
0.00599468
0.00151692
0.000692484
0.00592017
0.00589982
0.00411663
0.000262274
0.00159829
0.00316901
0.00568576
0.00591405
0.00597609
0.00369999
0.00363065
0.00595419
0.00591689
0.00578455
0.00601756
0.00590049
0.0059138
0.00590119
0.00605461
0.0223087
0.0270694
0.0117122
0.00581777
0.00971951
0.00595189
0.00105772
0.00590175
0.00591648
0.00582305
0.00592286
0.00583056
0.00444664
0.00083114
0.000770655
0.00063031
0.00585014
0.00593419
0.0169762
0.00630974
0.00426457
0.00312224
0.00592533
0.0058361
0.00237305
0.00583233
0.000325425
0.00588308
0.00137371
0.00591084
0.000636385
0.0205702
0.0049681
0.00551731
0.000434578
0.00590089
0.0059765
0.00675378
0.00812459
0.00605206
0.00592287
0.00584287
0.0059039
0.00872145
0.00110385
0.0147852
0.00583115
0.0112285
0.00592812
0.00594192
0.00598228
0.00104085
0.00551545
0.00107776
0.00797205
0.00238634
0.00107952
0.0214557
0.00582733
0.00564702
0.0157934
0.00589859
0.00600537
0.00314362
0.00581328
0.00584623
0.00600695
0.00658247
0.0055534
0.00588327
0.000506871
0.00591546
0.00127915
0.00593471
0.00127868
0.00586451
0.00120356
0.000546291
0.00230274
0.0163015
0.00600461
0.00591569
0.00590335
0.0058511
0.00585951
0.00582435
0.0166009
0.00585673
0.0108713
0.00571113
0.00557436
0.00587634
0.00284443
0.00580242
0.00285888
0.000403231
0.00361235
0.00588945
0.00616019
0.00512893
0.00192752
0.00580012
0.00591872
0.00352248
0.00385987
0.00247899
0.00142799
0.00535579
0.00583308
0.0195832
0.00598063
0.00702953
0.00151556
0.00818417
0.00097586
0.0043907
0.00585157
0.0131847
0.00261526
0.0161964
0.00157444
0.00109892
0.0030812
0.00583631
0.00587389
0.010017
0.00578059
0.00556138
0.0058694
0.00317293
0.00596905
0.00589331
0.0021959