/*--------------------------------*- C++ -*----------------------------------*\
| =========                 |                                                 |
| \\      /  F ield         | OpenFOAM: The Open Source CFD Toolbox           |
|  \\    /   O peration     | Version:  v2012                                 |
|   \\  /    A nd           | Website:  www.openfoam.com                      |
|    \\/     M anipulation  |                                                 |
\*---------------------------------------------------------------------------*/
FoamFile
{
    version     2.0;
    format      ascii;
    class       volScalarField;
    location    "100";
    object      omega_0;
}
// * * * * * * * * * * * * * * * * * * * * * * * * * * * * * * * * * * * * * //

dimensions      [0 0 -1 0 0 0 0];


internalField   nonuniform List<scalar> 
53008
(
0.77194
0.0632173
3.61946
0.0246293
0.787489
0.0236074
0.02446
0.0228443
0.0360561
0.0235283
0.0223736
0.137372
0.0232832
4.20821
0.448457
0.151648
0.0258783
0.709408
0.0356852
0.0240579
0.0254832
5.82343
2.95973
12.628
0.0235212
0.0360125
0.727583
0.0231999
2.78917
0.0246287
0.0431408
0.0240538
4.87552
0.155772
0.022819
0.0228221
0.0251342
0.057172
0.0315483
3.64736
1.99192
16.8554
0.0224728
0.0234884
10.8192
5.79153
31.2657
0.822649
0.0546515
5.75305
0.0326578
3.29155
0.0259502
0.0343721
0.0405199
0.275205
2.82658
0.0262914
0.0236207
0.0245046
0.0242655
0.023863
0.025507
0.0326928
0.0236269
13.3014
3.46044
0.080409
0.0255802
0.0239868
0.0243222
0.0245721
0.0295626
0.0245379
0.0643829
0.0307157
0.0228338
0.0238295
0.0359073
0.0246812
0.0235279
0.0234189
0.277654
0.0436629
0.0244578
0.0300855
0.0985472
0.0729235
0.0374448
0.0243012
0.022553
0.0242431
0.0248234
0.0244633
0.0730892
0.925989
0.023917
0.0225492
0.0232827
0.0239769
0.0242691
0.0245107
2.92597
0.0231828
0.0243171
2.5057
0.359273
3.66073
0.0266509
0.397874
3.1601
3.40011
1.52061
0.0234876
0.0285482
0.0246701
0.365962
0.033928
0.0985697
0.917273
0.0225659
0.0258402
3.76864
0.039183
0.0227843
2.81598
1.3031
0.209498
7.97379
0.0357192
0.0224611
0.0225618
1.42665
0.0491908
3.4292
0.0242977
0.0252945
0.0256956
3.36463
0.022449
9.01065
3.4622
0.0453211
0.0262825
0.0220681
0.0420165
0.0426773
0.0627494
0.0261697
0.0245541
4.59878
0.0235547
0.0713031
4.46488
5.81259
0.0285671
1.41213
4.42129
0.023609
0.0267877
0.023028
0.0234957
0.0223497
0.0246111
0.022357
9.83144
0.188729
2.85567
0.0225919
0.0233978
0.056874
4.50187
0.0250807
0.521901
0.0235217
0.022987
0.0261631
0.0246531
0.189555
0.0305384
0.0523738
0.0361003
0.0231492
0.0236098
1.48802
0.0234985
0.0223279
4.45233
3.86429
4.49078
0.0234352
4.57356
0.0475336
0.533586
3.27656
0.0244722
0.430155
0.19802
0.0244769
1.32984
0.0245182
9.53793
0.131592
0.0245288
0.212197
0.0463253
0.0234322
0.0257136
0.111292
1.98896
0.058864
0.0780954
0.488508
0.0259613
3.30615
0.0256712
4.25593
0.0754505
3.45165
3.42858
0.0917583
0.0255787
0.0239069
3.67243
0.0910135
7.5768
0.040396
0.419638
0.0394479
0.0258889
0.023284
0.368167
0.0248533
1.31169
0.0244666
3.11143
0.0249292
0.0258214
0.0627624
0.0230598
0.0568477
0.0460618
0.106689
0.491101
0.0239663
0.838063
0.0238409
0.0239682
0.0259021
0.0340562
2.03053
0.174462
0.0946798
0.0230134
0.0256128
0.0228339
0.494517
0.131254
0.08503
4.5883
3.52347
0.0755893
0.023956
0.0259835
0.339589
0.0262471
3.37713
3.40938
0.0284083
0.046738
0.133715
0.0241044
0.0252503
0.0888625
0.030337
0.193195
0.0288145
38.5812
0.0247818
0.0253197
0.0338203
0.354195
0.213314
2.60824
0.218209
0.024258
0.0295487
3.52032
15.6844
3.2962
0.787448
0.120275
10.525
0.132179
0.0246054
0.0246478
3.57865
0.0234545
1.42033
0.800515
3.3644
0.0230313
0.0230185
0.0243566
10.5781
0.259088
0.0232193
0.0343831
0.0479935
3.03141
0.097107
0.0245646
0.0229873
0.0228409
0.0629517
0.0245346
0.0320036
4.07141
0.906248
0.024682
0.0781204
0.0221758
0.40135
0.0224839
0.0237156
3.28344
4.71082
0.0240363
0.0785758
0.0260684
0.317192
0.898643
0.0233449
0.0363998
0.728347
0.0257352
9.14481
0.0416149
0.0238926
0.0260079
0.0428074
0.0388619
9.6417
0.126206
2.74384
0.0231629
0.0482669
0.0225284
0.0232493
0.0359632
0.0238556
0.0233896
2.67491
42.5436
0.0238479
0.749722
4.2139
14.5535
3.12929
0.0877271
0.315302
0.0252229
0.218051
0.0230939
0.0401742
0.0230784
0.0469937
2.88229
3.55741
0.04901
3.24838
0.0247543
0.040095
0.025776
0.0244352
0.0637624
0.0238873
42.1926
0.0533317
0.0232798
0.0237463
0.0231293
0.0245253
0.777692
0.0232246
0.0244979
0.0358891
1.3706
1.76799
1.20422
3.69612
7.73304
18.7161
0.0227816
2.8801
3.7056
2.03382
0.0239028
45.2463
0.0232131
0.0231976
0.0231956
1.50266
0.772651
0.0251411
0.0252039
0.0228313
0.199959
0.0852315
0.0245358
0.0708759
0.0241358
4.01612
3.74624
0.091308
0.0244935
0.371426
0.025978
0.0247242
0.0242508
0.0237504
1.17291
0.0232024
0.0242836
0.0271753
0.0237232
0.0244715
5.44445
0.0379034
0.024511
5.62109
0.0339
0.0239073
0.180154
0.0245374
0.0247623
3.35042
0.034017
0.232595
2.7441
0.0819597
0.0469096
0.108361
4.83923
5.04649
0.0246706
0.0241055
0.0296218
3.43155
0.0234889
3.30717
5.52866
0.0227522
0.0263312
5.70305
3.47692
1.46343
4.45463
0.0249804
3.61315
0.022962
0.0253443
0.0244472
0.024293
0.0264322
3.11381
0.346395
0.506269
0.251197
2.82726
0.0834721
0.0831057
0.214792
3.71777
0.0242876
6.98159
0.0241175
9.92501
1.23556
3.25044
0.0227807
42.9149
0.386696
0.0366101
0.0258805
0.0244736
3.43254
0.0243856
2.97621
1.97696
0.0249503
0.0225209
1.96411
0.0232878
2.87432
0.0238053
0.0245538
0.0254711
0.0258022
0.0510946
38.3467
0.0334973
0.0315563
0.0247253
0.412499
12.6829
0.0735991
0.0229727
0.0249176
1.41242
0.0289556
0.0246652
3.18293
13.7027
0.0226388
0.181667
0.0771276
0.0265114
0.0230922
0.023613
2.05244
0.540787
0.0245065
0.0483569
0.362334
0.0238559
3.47447
0.0230704
0.0285164
0.0229676
0.0303243
0.0227939
0.0852916
1.98978
0.0240416
3.66499
0.0238117
0.448599
0.0335128
0.0249151
0.140941
0.0245449
0.0229861
0.0230431
0.0409289
12.9865
0.0236169
6.65925
40.2686
8.6273
0.0259126
0.024894
0.0244941
0.0233872
0.025137
0.10853
0.779364
3.05413
0.0230691
2.90217
0.023442
0.463245
0.0229688
2.75913
0.0230773
3.78934
0.0229122
9.7432
0.0324225
3.35286
0.0238221
0.0230898
0.02546
0.0702365
0.029846
3.36344
0.022243
0.0245781
0.025419
0.0254077
3.70111
0.0250318
0.0284001
3.5327
3.82904
0.022944
12.3031
0.247594
1.12631
13.687
0.0249121
0.604351
3.47743
3.53035
0.0230157
1.47218
0.0223257
0.0228189
3.41896
1.5127
3.45909
6.58469
0.11169
0.0237382
0.059171
1.56348
3.1482
10.213
0.0240916
0.0241298
0.144457
0.0246933
0.0228386
0.0242695
0.0257068
0.0236175
8.07913
0.0225878
0.0820652
0.0240308
0.189092
0.0254503
3.64647
0.791641
2.73973
0.831864
0.0228256
0.0258863
0.0235752
0.0366357
0.0285755
0.024148
2.87153
0.599162
0.0236197
0.0348711
11.1734
0.0245394
0.110895
0.145049
4.12242
0.0235707
0.0683119
0.0230787
0.0244937
2.72333
0.0229654
0.0226052
0.0245844
0.185488
0.0246794
0.0254754
3.08743
0.0244622
0.0468391
0.025573
0.0246679
3.96885
0.0963957
1.31853
0.0246945
0.02662
0.0246473
0.0253437
0.0252138
0.256399
0.0296189
5.75166
8.26719
0.0223218
2.84374
2.85544
0.0248605
0.0231901
0.0458234
0.024679
1.51089
0.029534
0.0226903
0.0897724
1.5191
3.70152
0.0276691
0.0281579
0.0232071
0.0254419
3.57946
0.0228085
8.7508
0.0231488
3.1354
0.0717633
0.025135
0.0237882
0.0668177
0.0243532
0.189085
0.0234797
3.35276
0.0245818
0.0228837
3.6808
0.0285537
0.0324255
0.0231284
0.0245243
0.032871
0.0245426
0.0334701
2.21302
0.0245489
2.89113
0.11054
0.0233813
0.024362
4.04703
5.81713
0.0280906
3.06463
12.1947
0.0276658
0.0507545
0.0253862
0.0222509
0.0229529
3.06483
0.0269182
0.0256854
3.2343
0.0368871
1.36103
10.4456
1.3851
0.0318564
0.0245195
0.103715
0.0274309
0.0897323
0.0938039
0.0256356
12.2453
0.024427
0.0851079
0.13803
0.0242744
1.26641
0.0255705
0.0240004
0.0267344
3.57358
0.0284035
0.0237956
0.0288671
3.32826
2.79762
0.128522
0.0233832
0.0317012
0.24927
0.0306979
0.0262182
0.0288527
0.0341448
3.00606
0.25089
0.0249108
3.63619
0.663698
0.0737383
0.0393254
3.16263
0.0838453
2.66402
7.35611
0.0254938
0.0288776
12.9953
0.872597
0.025583
3.36043
3.86491
0.026741
8.14129
0.0289173
0.110688
0.0243794
0.0235931
0.0238995
3.16692
3.12578
2.08022
4.32122
0.0436551
5.51597
1.33819
0.0230866
0.510824
8.5645
0.684008
3.09942
0.0233274
3.02559
0.0239579
0.023348
0.0244413
1.93983
0.0252367
0.0232643
0.0255451
0.0240031
0.0246096
0.0244236
0.0333949
8.92334
0.132942
0.0319739
0.604184
2.88041
0.0253823
0.0462539
0.0242763
0.0228042
2.16472
0.0235205
0.0571323
0.0246727
0.0841466
0.0331272
2.92436
0.0250641
3.0177
0.0245326
2.14234
0.0244644
3.47804
0.0255648
0.38121
1.17846
0.071597
1.42553
0.0236069
0.0255315
0.102758
0.0231288
2.18167
0.0243443
8.56418
0.126027
3.06026
5.4195
0.18152
0.0241456
0.0239573
0.0694124
0.171808
3.05241
16.5124
0.0245138
0.0232277
1.99628
0.0231973
0.0244082
0.0231436
0.0883158
0.0949294
2.04931
3.03406
0.0255405
8.78125
9.7302
0.0348306
3.62726
0.0333195
0.0320961
0.0241479
0.0246329
2.15873
0.0283892
0.0234647
0.0276271
4.57555
0.0948556
0.0233986
0.0230252
1.07617
0.0224027
0.0228227
0.0234225
7.64439
0.0230241
0.0716845
0.0233189
0.0221804
0.106481
0.024742
5.93447
2.07227
1.19466
2.21543
3.1214
3.18497
0.0234046
0.0230884
0.0240185
0.0230256
0.0245409
0.0735524
2.72461
0.0243771
1.88478
0.138694
0.0261753
0.0389623
0.830996
0.0234221
0.0228549
0.0243076
0.0266938
2.98425
2.12962
3.68054
0.13239
0.0243245
0.026278
0.0258025
0.0234526
1.81461
0.0228971
0.824167
0.242503
0.0246941
2.82672
0.023404
0.0262456
0.0660073
0.0247424
0.0244822
12.6966
2.04562
0.0287362
0.167739
3.06245
0.0822036
0.0422305
0.101593
0.0221482
0.641942
0.0243675
0.0227613
0.0227891
0.0854439
0.0243087
0.0229575
0.0228672
0.0224518
0.0320653
0.0258393
0.024377
0.024476
0.0246783
0.022421
0.0239859
0.024465
0.0241151
0.025666
3.26956
0.190542
0.0263051
0.0344672
0.0258102
0.0231893
2.05894
0.0249332
0.0228237
6.16875
0.0233408
8.51126
3.17319
0.147962
0.978384
0.0289044
1.75955
0.0244489
0.0233321
0.0237591
0.599228
0.0246506
0.439381
8.11967
0.149634
8.51781
0.0279589
0.024369
3.0399
0.112664
0.0233306
1.59037
0.442218
4.11202
0.0235982
0.0290717
3.12179
0.0227239
0.20937
0.067651
0.142872
3.03334
0.0242459
0.0815106
0.0248766
0.205208
0.024927
5.95038
0.0234844
0.0256915
0.0230225
2.79798
0.239951
0.0243609
0.0230046
0.0275732
0.0227445
5.37646
0.0295092
0.0234481
0.0537082
0.0236799
0.024072
0.0222671
0.0340916
0.0257326
1.36456
0.442107
0.0483808
0.0243539
0.0293673
0.584355
4.22116
0.50751
4.0104
1.58433
0.0222235
0.0276223
0.023726
2.88607
0.0371076
1.23564
0.0223698
0.0236124
3.02544
0.0223544
1.31398
0.597808
2.84481
0.487801
0.0234794
0.034953
0.336761
3.57954
38.0664
0.0236644
0.0250709
0.0259632
0.0231899
0.0262254
0.0234091
0.305516
0.0713993
11.7954
0.716456
0.146061
3.13351
0.0433947
1.50851
0.023621
0.393173
4.69099
0.153011
0.900299
0.0309913
0.0303762
7.39872
0.0220732
0.0233772
0.0252922
0.0283006
0.0223217
0.369232
13.3638
3.44167
0.0369993
0.0226482
0.0253403
3.34554
0.0233567
0.0227226
0.0246817
0.0223668
0.797481
0.612427
9.3827
0.0227197
0.032697
0.118023
0.0257384
0.0236284
0.0247771
0.0286885
2.02961
0.0269844
0.0233673
0.0226327
2.22403
0.0319086
0.0257983
0.031027
31.6501
0.495467
1.52671
3.26769
0.0751731
0.0817217
0.182157
0.0944564
12.2623
0.0232893
0.0243435
0.0255685
0.0240686
0.0251287
5.06716
0.0228009
0.028674
0.144971
0.0246659
3.45422
8.86529
0.0282398
0.874292
0.107801
0.106132
11.0959
0.227
16.3209
0.842694
0.0503888
0.0458145
0.0255835
3.0912
0.0639489
1.40156
0.0235246
0.0232649
1.84627
0.0291089
0.0255923
3.10579
2.31076
1.32353
0.0314187
0.173267
3.34681
10.3154
0.826418
0.0247969
9.86473
0.0253272
5.24845
0.0230163
2.95651
0.0542848
3.88792
0.0257284
4.9961
0.40639
0.0536781
0.024663
0.553725
0.0257487
0.0255249
0.0504503
0.0222497
0.0256483
0.471827
0.0247652
0.0236146
0.137718
0.0237119
0.0243041
0.387027
0.0253424
0.0339361
0.042666
0.121972
0.0365273
0.050968
1.14909
0.0787532
11.3217
2.04214
0.0226585
0.0237791
0.0321344
4.23847
44.0184
0.0229595
3.2483
0.0352584
0.0316443
0.0243799
0.0258321
2.92224
0.0278367
3.66556
11.8073
5.36779
0.0246633
0.025755
0.0236727
0.0234071
3.24798
0.0285411
0.0241357
0.0301598
0.0224766
13.1103
0.208931
0.0230675
0.0261803
0.0284386
5.45739
3.3424
1.4174
2.17565
0.603042
0.0228923
0.0565505
0.0228622
0.0235738
2.21131
0.0748232
6.00994
0.0234017
0.0230373
0.0234042
0.844024
0.0243121
4.94498
0.025441
0.0759395
0.0762996
0.0226634
0.384783
0.024877
0.0853063
0.0247177
0.0234603
0.0227034
0.0433688
3.92199
3.72389
0.0245596
0.0230844
2.73894
0.37049
0.178215
0.0234585
9.85645
0.0254661
3.41448
0.0229806
0.660402
4.58594
1.53066
10.2859
0.0720509
0.0516334
0.0264544
0.0245765
0.0248915
0.113133
12.2381
0.132497
0.192523
0.0226742
6.13471
0.0242582
3.45956
0.0257935
0.032706
3.22352
0.0254395
0.0253987
0.662661
1.41263
0.0230517
0.0246236
0.0245344
0.0241172
3.25865
3.32432
0.0241423
0.524121
0.0630308
0.0235767
10.2497
0.0241134
0.0312312
3.13786
0.0584644
27.5484
0.0434272
0.0254399
0.0250969
2.6573
0.381788
0.0247785
0.467246
0.025792
0.0231223
0.0254146
2.09013
0.0235573
0.0511767
0.0226903
0.0245233
0.0223561
0.0247111
0.0317917
0.0247459
3.10317
1.11926
0.0335109
0.0246881
0.0225116
0.0257048
3.3637
0.02481
3.02989
0.0228233
0.0255549
7.38633
5.26886
0.0262695
3.22277
0.0241305
0.0793802
1.54149
0.0413034
5.83574
0.0880632
2.06959
0.0225982
0.0235282
42.0619
0.175264
0.138386
3.5828
12.4289
0.477546
0.0245131
0.0380525
0.449794
0.429152
2.08826
0.0254425
0.0231527
0.229815
5.21245
0.0248664
0.0242146
3.13534
0.0241026
3.69359
0.36806
0.0258302
0.024482
0.0747306
0.385234
1.64165
0.0284848
0.447
3.51635
3.07137
0.0231558
0.0224751
0.0258155
0.540864
31.6756
3.26924
2.03691
39.8427
0.0254413
0.0244039
0.0226593
0.0251509
0.535431
2.80615
0.453217
0.0243054
0.0317758
0.0521921
0.0252499
0.15307
0.0268793
0.725842
0.0447862
0.788183
0.0229073
3.65004
3.0946
10.2914
2.28089
0.0233056
0.0244262
2.83089
0.0264428
5.23122
0.0241197
3.07986
0.0248294
5.41865
0.079322
0.0230047
0.0277745
0.0253572
0.0222214
0.0290726
0.0263056
0.0230178
0.0248095
0.0234466
0.024828
0.024665
0.0230439
3.31365
0.827815
0.238778
1.7246
2.77502
0.0919127
0.0358805
3.15327
0.0242907
1.43279
0.0232454
0.0296764
3.30927
3.919
0.0249321
0.0528469
0.0958073
3.31461
0.457298
0.482038
0.0240255
0.0255945
0.0255084
3.72299
0.0240321
0.58262
0.0227415
5.77288
0.0240215
0.0736548
0.0327486
0.0245718
0.0342596
0.148167
2.76274
5.46101
0.0235138
0.0226309
2.79834
0.480934
5.1259
0.0255782
0.0247027
0.0292893
0.188889
0.0232317
0.0248601
0.0245455
0.0267097
2.60228
0.0431606
0.0247057
0.0469002
0.510747
0.0263975
0.0263339
0.462868
4.9503
0.024375
0.0400456
0.0253231
0.024116
0.779856
0.825246
0.366737
0.0228335
0.0330759
0.0244888
0.0522093
0.0263744
0.0255019
0.0318789
0.0242992
0.0246241
0.808228
0.0327277
3.47628
0.0683751
0.0255054
0.0302063
0.463751
0.181569
2.28881
0.0236939
0.0653891
0.786643
0.0889016
0.0297675
8.72229
14.2414
11.3258
0.0230075
15.3545
0.0253506
2.54073
0.571318
0.0238825
3.716
1.39078
40.4651
1.81086
1.53388
0.0236737
0.0263769
0.0263456
5.06777
2.41415
0.0279149
0.0239915
0.0227171
0.0241047
0.0235822
8.13311
2.36238
0.0235803
0.0317789
20.7186
0.0246619
0.120352
0.0247483
0.514602
0.821144
0.0250464
0.145313
0.024595
0.023594
3.53543
2.67795
2.79616
0.0238751
0.68175
0.0257383
0.0255641
0.024628
0.0256125
0.0221605
0.0244114
0.0244053
2.07184
10.9685
0.382003
3.9643
2.09379
0.0240121
2.1089
0.0246309
0.920236
2.18333
2.04205
0.825554
0.0234089
0.0244073
0.0244066
0.812385
0.0281636
0.022799
0.0844615
0.0227254
0.0239009
0.0604941
2.78956
0.0331053
0.0263652
2.8728
2.82653
0.0246029
0.0315751
0.0427334
0.0246753
2.74403
0.718613
0.463716
0.839657
0.0243513
3.69301
0.0295972
0.478227
0.0230628
0.0246791
0.0226835
0.0232467
0.0233461
9.99451
3.37536
0.0248899
2.14947
4.22343
0.0233988
0.0254398
0.838537
0.5368
0.0274522
0.0247174
0.043738
0.026509
0.0263517
0.0234139
0.118329
3.50177
3.88378
5.39869
0.033122
0.0264733
0.480863
33.049
0.0934034
0.0226819
6.37101
0.0254978
0.0248368
3.41284
0.023571
0.0248809
0.0232097
0.0826919
3.5852
0.481485
3.55772
0.0238709
0.603258
0.0241513
2.995
0.0230557
4.19059
0.362456
0.0879993
30.1892
0.0264281
0.0236125
1.41201
0.0736729
0.03144
0.0246166
0.679808
0.035889
0.631922
0.0252811
0.0244435
0.0344611
0.0239153
0.399059
0.120043
0.0251646
0.0236001
0.027712
0.0268424
0.0238689
2.77086
0.0247245
0.025415
2.78505
0.0256133
0.139257
0.0236651
0.0241347
0.0235932
0.87657
1.27657
0.806838
0.0262489
0.798764
3.49932
0.456088
0.022704
2.98673
0.0288741
0.0239071
14.4104
0.0227889
0.0246933
0.0247073
0.0223296
0.631973
0.0240942
0.0241716
0.025776
0.0232042
0.235929
2.91995
0.0495871
0.0249519
0.0910525
0.023025
3.11746
0.0236522
0.184302
1.88557
2.66166
0.821738
0.0280894
3.1196
3.11452
0.0235948
0.024308
1.40868
0.499514
28.0252
0.0591255
0.131003
0.0278367
0.0292045
3.20982
3.67331
0.0293533
0.961463
11.4981
0.0245938
0.0232059
0.466477
0.189712
0.028444
0.0257618
0.0224972
0.111835
2.1634
2.62087
2.25336
2.01626
2.02753
0.501911
0.0230758
0.328255
3.51426
0.0229934
0.0237624
0.75254
0.0245951
0.459303
0.0224857
0.045003
0.0331332
0.025607
0.0237042
0.812227
0.0708302
8.16519
0.0266166
9.99026
0.0294422
0.0228773
0.939194
0.0223191
0.02362
1.37931
0.0268156
0.562489
0.0247838
0.0252365
0.0718246
3.52539
0.0229112
0.263931
3.56623
0.544815
0.0243871
0.0257795
0.827073
0.0321086
2.44827
0.0240085
0.0230723
5.21251
0.0242982
0.0241294
0.0228348
2.39034
0.0282252
1.25637
0.0280812
0.023825
0.0233016
0.0254074
1.48133
0.0424108
3.98811
3.47613
0.463753
0.0230247
0.0248977
0.025419
0.0745084
0.0233348
2.71796
0.0244638
0.0792939
0.024581
0.0509554
0.0250606
0.370994
0.522662
0.0238652
0.174158
0.496556
0.0245393
0.0238558
0.601254
0.137815
0.0256579
2.47083
0.0226258
0.0228138
3.83563
0.0455691
0.0239538
2.13049
0.0399762
2.32642
0.0985008
0.280116
0.0500425
0.523435
0.0326883
0.0245679
0.358591
0.0233721
0.0247102
16.7067
0.0264438
0.0234408
0.143552
4.25402
0.364712
0.0233636
0.0288917
0.0245586
0.0249332
1.2817
0.0248169
1.05133
0.295975
0.93461
7.74785
0.19016
0.0507382
0.0408793
1.67068
0.0233699
0.488578
32.2801
0.0256227
0.0224598
0.465734
0.147739
10.9557
0.0248287
0.0244644
0.526291
0.0265254
2.75941
0.0267743
0.445612
3.50153
0.0513539
0.0246138
0.0226253
0.983803
0.143287
0.0253368
0.0256037
0.0254302
0.022611
1.8134
0.0272441
0.0365408
0.0232548
0.0873983
0.0245539
1.89807
0.176631
0.0841189
0.182996
0.0476765
0.0248443
0.0242874
0.0236017
6.8792
0.0234055
0.0245204
1.04115
0.0226447
3.00788
0.0221795
0.0252142
2.0456
0.0239601
2.05842
0.0247426
0.0423805
0.026868
0.0236015
0.0226184
0.0231209
0.022652
3.44611
1.75298
1.45374
1.06377
0.0227909
2.24053
0.0226289
0.0258004
0.0241518
0.0933925
1.35799
0.0246438
0.0245324
0.980687
0.0233916
0.0244294
2.07124
34.9671
0.0277014
0.0243981
14.8816
3.23028
0.0241331
3.77941
0.0254026
0.023213
0.0293934
2.84059
0.0254382
0.0264601
34.5347
0.535895
0.0370198
0.023912
3.45696
0.0590923
1.05677
1.198
0.0226783
0.0710626
0.0231724
0.144139
3.66909
0.0231645
8.55431
1.95872
0.1336
0.0246028
0.0360551
3.21656
12.7153
0.0244675
0.136735
0.022354
0.0233428
2.7268
0.0240509
0.0245439
0.0247328
0.0862898
3.44115
0.0255374
0.0389364
0.0243106
0.0240848
2.02148
0.0385164
0.0290101
2.73024
1.40244
0.0323708
0.0393229
1.1275
1.06847
0.0245831
0.537733
0.022928
0.844483
1.69319
0.0222192
0.0849723
0.0304826
0.232458
0.0243748
0.121208
18.0152
0.022928
5.73847
0.0247517
0.0240521
0.0253863
0.0244582
4.61379
0.0243895
0.0245659
2.69406
13.3399
0.0235267
0.037496
0.0265445
0.0248021
0.0350925
4.64186
0.0246353
0.146008
0.0226308
0.0323142
0.037386
0.0399774
1.41878
1.71768
0.0236421
0.398461
3.07281
0.0256784
3.71202
0.674801
0.638752
0.0233821
0.0222338
0.0231149
0.0241752
0.031774
0.183051
2.26
0.0244168
0.0227377
0.371287
1.16528
0.0266798
0.394072
0.174035
0.0301564
0.528158
0.0239483
0.503972
0.0416805
0.024273
5.31102
0.749915
5.25973
38.7997
0.0266624
0.0248392
3.22264
0.0240159
2.93911
0.0227276
0.0449639
0.0951894
10.9759
0.0254633
0.469206
0.31797
0.105174
0.424761
0.0235061
1.94802
0.0846243
4.00426
0.0240876
0.0234455
0.0236459
0.0221817
0.0230646
0.0253414
0.232082
0.0242196
0.0266793
17.0117
0.0585471
0.0568805
0.0605943
0.0254793
3.54004
0.0256025
0.0248765
0.0365345
3.31732
0.0322616
0.0248348
2.06989
4.49911
3.32178
0.0256541
0.531071
0.0535181
0.025493
3.29992
0.121251
4.62469
0.0230042
0.0255917
0.736971
0.841771
0.0709207
0.0745603
2.81028
2.81713
0.0237905
0.0317802
0.0251295
0.307841
0.0348459
0.284979
0.0245784
1.05792
0.0255085
9.67195
0.0239967
0.0453482
0.0369757
0.0879823
2.84647
0.0240866
5.19174
2.54259
2.04787
0.0334084
0.158844
0.0237821
0.517907
0.281821
0.0233164
0.0231643
1.42989
4.42796
7.64675
0.847081
4.41671
0.0243623
0.170595
0.640978
0.0244014
0.024166
0.120939
0.028866
0.403563
0.0230147
0.0258924
0.0242562
3.28427
3.0822
0.0237041
0.024546
0.0243132
0.0272145
0.0523906
0.468856
0.0730984
0.025007
0.0253849
0.0245339
5.21739
0.0259439
0.0238326
0.302823
1.2121
0.0312413
0.0244552
0.0234273
0.0248776
40.0724
0.024083
0.0578027
0.0242402
0.0228037
0.0353715
0.198652
0.732694
0.457906
0.568627
0.12288
0.0225888
0.023689
0.828296
0.138672
0.0242276
0.112299
0.100022
0.0236644
0.0226859
24.644
0.0298576
0.0221531
0.0263977
3.43654
0.0230937
0.0849129
0.0234357
0.0227346
0.0391855
0.0248947
0.0230354
4.63885
0.0879799
0.0243158
0.0245269
0.203928
0.0275325
0.308367
0.33429
0.0253259
0.022069
1.94451
29.837
0.0253842
1.98664
0.3135
0.034869
0.0451564
2.02096
0.954019
2.23675
0.0246393
0.522306
0.0242391
0.0374091
0.0263308
0.18157
0.482194
0.650722
0.047947
0.480914
1.96576
0.866258
0.0268807
0.0236139
2.01877
0.527474
0.023
0.0254508
3.74147
0.0227504
0.0283107
0.475963
0.0234978
0.0269017
0.0244201
0.062697
0.0911992
0.186939
0.0413004
1.9372
0.0280876
0.0246472
0.0242262
0.0230387
0.0251892
24.8528
0.0259503
0.0860872
0.024355
0.0278891
0.0277074
0.18011
0.146036
0.0230375
0.0272382
0.0233888
0.0328883
0.0246029
0.0243697
0.0248282
0.0242349
4.05457
0.0235051
0.0240165
0.0234084
2.16721
0.0225691
0.0247315
14.2743
3.39666
0.0221556
0.0234472
0.0235926
0.0240515
0.438026
1.41902
0.0711578
0.0277488
0.0282118
0.0230074
0.115276
0.0253312
0.0235348
0.0240804
0.0233346
0.209988
0.0237211
0.0699204
0.0256533
1.38059
0.0248103
28.6816
0.0234674
0.024619
1.88966
0.0228818
0.0245805
0.0447531
0.150032
0.0247995
0.0226147
3.73185
0.0838723
0.20076
0.0258063
1.38227
0.0245054
0.0248717
0.0338591
0.221607
0.70483
0.0272643
0.574532
6.34831
0.0239511
0.0282946
2.33292
0.0598509
0.022671
0.119431
0.0249958
0.253471
0.0608349
0.0266546
0.43976
0.469844
0.0265706
29.6345
0.0638069
0.024846
0.0227602
0.0230172
0.0247632
0.0256743
0.266063
0.0519574
0.0242369
0.0490879
0.433812
0.063318
0.181702
0.0257995
0.0233043
0.154923
0.0349172
2.00893
0.0223692
0.0326792
3.38934
0.0227869
0.608967
28.7204
0.351745
5.92466
0.0230775
0.0255142
0.0226919
0.0245576
0.0360923
0.0256366
0.0236596
0.0907261
0.0227306
0.0288891
0.0346367
3.52979
0.0253854
0.0252041
0.0256769
0.0658739
0.022791
7.24051
0.0500287
0.0311021
0.0866573
0.764961
0.527031
0.0286784
0.0356762
8.99025
0.0246696
0.0678194
0.0246381
0.0239448
3.3285
0.0257034
2.48434
0.0339416
0.0384167
0.0337529
0.0257671
0.0232428
0.0388801
0.0225531
0.120113
0.0227435
0.31134
2.01025
0.0229416
0.105156
0.100085
0.0380702
0.0425122
3.35691
5.69986
0.0222209
0.0254207
0.815998
6.71935
0.02308
3.94812
0.14445
0.0360329
0.0230429
0.0259167
0.295732
3.42554
0.0243418
38.7558
3.30423
0.144698
3.09429
0.113785
0.548217
3.72059
2.2525
0.032717
0.455477
0.0230146
0.0248167
0.0437973
3.9796
0.0240643
0.0332153
0.0245468
0.0241683
0.0238465
0.0386869
0.0244438
0.274998
0.366263
0.0241608
2.12422
0.0246282
0.0244455
0.380055
0.0379811
0.0652292
1.4854
0.0318239
0.0942166
0.0228123
0.043711
0.0288754
1.33192
0.193152
0.0236004
0.0244779
0.05011
0.0234104
0.0248835
0.534177
0.0234024
1.26533
0.176286
6.09658
0.0264428
0.0955407
0.023024
1.71198
0.808445
0.0662158
0.0515418
0.471301
2.20946
0.0340709
3.8483
0.575738
0.0299488
0.0596477
0.0226016
2.25525
0.632535
0.0377209
0.0970189
0.0244569
0.38056
0.061955
0.033403
0.0239329
2.63765
0.0247083
0.0405552
0.159732
0.0242307
0.0230109
0.0359149
0.293945
0.181118
0.0264012
0.0270763
0.0248656
0.0245337
0.0446725
0.0264999
0.0250907
0.0231095
0.0222105
0.0248753
0.0230136
0.02557
0.0227889
0.0261897
0.389441
0.391165
3.32861
0.0240244
3.30442
0.0244623
0.0571187
0.0239702
0.0231019
0.0240947
0.0254501
0.0233501
0.0380196
13.5409
13.926
0.0946734
0.0225403
0.0247733
0.625796
0.0403308
4.83817
0.0272398
0.0241667
0.0243109
0.306625
0.0233591
0.205452
0.0250247
0.128102
0.0247999
0.0984136
0.358777
0.0252747
0.0251574
0.132347
0.0242349
0.0250702
0.457852
3.70455
0.0263605
0.0254539
0.0237374
0.024576
2.19461
0.069346
0.821104
0.0233247
2.18974
0.024876
0.0237577
0.0240716
0.126319
0.0294798
0.129249
2.78894
1.87425
0.0798118
0.536373
0.0239381
0.0275898
0.45117
0.025728
0.0248841
0.0292226
0.022599
2.82578
0.0247492
0.0490118
0.0285662
0.024734
1.41473
0.0256762
0.0658085
0.0247767
0.0493541
0.0245515
0.083348
0.137427
6.33583
0.388124
0.0239641
0.0244783
0.0257893
0.0222892
0.0244047
0.0245491
0.579749
0.0241993
2.4032
3.84494
0.0365986
0.0246984
0.164579
0.0230293
0.0274907
0.306233
0.0259652
0.0258413
3.07361
0.0295029
0.841556
0.0227128
0.0247016
1.43194
0.637048
0.268398
6.51827
0.0319742
0.0236374
0.481443
0.0245884
3.29849
0.0628539
3.66903
0.208246
5.57347
0.0242191
3.45068
8.26844
0.389082
0.0457427
0.0551891
5.48387
0.0222572
0.0241637
3.08869
0.0755731
0.0407394
0.0231666
0.775481
0.0245832
0.0248817
0.0680468
13.8221
0.486114
0.578318
0.0240922
0.145227
0.0243959
0.0288528
4.41404
0.0247877
2.95541
0.0840917
0.0243226
1.31198
1.99227
0.142521
0.0699965
0.0254105
0.0260774
0.0238562
0.0223148
0.0585582
0.0244054
0.0251026
0.138184
3.05435
0.0243388
0.0349376
0.0242052
0.0233781
0.033336
3.24999
0.0295148
0.0255357
0.0266794
0.0243681
0.412171
11.4316
0.0241024
0.0333128
0.02447
0.140279
0.443557
0.549857
0.03321
0.0982318
0.0270536
0.024097
2.03939
0.0237053
0.149304
0.0265907
0.198935
5.54126
0.0238706
0.0253675
0.030256
0.544011
0.0418827
3.99202
0.0239011
0.0248956
0.0266964
0.023564
0.134442
0.0679808
0.499819
1.29945
0.103567
0.0470951
2.80118
0.167666
0.0252955
0.0237757
0.0254984
0.0253731
0.0237051
9.73403
1.35403
0.818285
0.473605
0.0255386
2.87898
0.0261253
0.0230078
0.0257169
0.0244791
0.0721045
0.0243704
11.3178
0.0457075
3.37352
10.6599
0.0233247
0.04233
0.0538764
3.38634
0.0244304
3.15417
0.0246106
35.8453
0.024026
0.0244767
0.126639
3.37872
0.0233132
0.0239946
0.0242224
0.100651
2.4717
0.0264493
5.96414
0.0248235
0.0244284
2.6056
3.41208
8.95505
0.0742839
2.19955
0.0241992
0.0283656
0.0666847
0.765626
0.149309
0.0226828
0.0234183
0.0249023
0.0220704
0.649679
3.08135
0.0275237
3.39618
0.0328971
0.375266
1.97906
0.0248118
2.39155
0.024699
14.4454
0.0241036
0.125111
0.0251274
0.142409
0.886397
0.0222564
0.639392
0.0236047
0.0244451
0.0447563
0.0232391
3.02332
0.0416753
0.025152
0.0251306
0.101239
0.0790485
6.481
0.0483926
0.0247488
0.0253267
0.0817639
0.024546
0.0231337
0.0580645
3.34029
0.0251498
0.023561
0.0283862
1.9584
0.115801
0.0276318
0.0378792
0.0238881
0.0226318
0.046251
14.9594
0.0239038
3.5685
0.0252433
0.023022
0.0305415
1.95159
0.0387838
0.172652
0.0300042
2.01171
1.5359
1.06363
0.0227815
0.0245661
0.0303877
0.186009
0.0235081
0.0224574
5.16301
0.129882
0.486925
0.0475999
2.60597
6.88875
1.45186
0.0263452
9.88436
0.0230353
0.0299332
0.0264111
0.023181
6.34192
0.398814
0.531505
0.0578381
0.0322334
0.0235028
0.0255855
0.0248954
0.0916535
0.0263735
0.300908
0.0273693
0.0261308
3.0228
0.0224504
0.0483986
2.28056
0.0241371
0.0246942
13.2138
4.20157
0.0235733
31.0856
2.74601
0.0308765
0.0378033
2.26238
0.0247846
0.0240715
0.634746
0.0400866
0.0821515
0.0272297
3.59595
0.0241709
0.0236543
0.0246919
2.07172
0.0297155
0.0233203
2.64519
0.227492
0.0249836
0.0239323
2.2745
0.0233846
0.0830577
2.55924
0.0236217
3.60721
1.38557
0.0239204
11.0105
5.33846
0.0255335
0.0245768
0.367623
0.176427
0.0239096
0.612596
0.0242361
4.55756
0.0399505
0.0232114
0.216423
0.0273315
2.62751
0.0227063
0.0248848
3.42609
28.9345
3.4361
0.0658731
0.0735274
3.40556
0.0283086
0.0262492
0.022672
0.0246341
2.92104
1.47075
0.0424639
0.0276466
0.0888822
2.67125
2.41867
0.0255018
0.149621
0.0290442
0.686217
0.028423
0.022665
0.025333
0.608776
0.0238916
0.0246342
0.0226623
0.0249023
0.0249409
0.0240398
0.0272454
0.0464745
0.0282
2.2487
0.0431161
0.15141
0.0235278
2.47927
0.0231427
0.0341269
0.301214
2.85605
0.0233115
3.0302
0.0308011
0.373375
0.433564
0.0252936
0.0241329
12.9194
0.534989
0.0351619
0.131222
0.026873
0.0233216
1.18276
0.0241119
0.023578
0.0244434
9.99084
2.67121
0.0320092
0.0246584
0.0238776
0.0252338
0.0251404
0.833508
0.101656
0.056907
0.0249452
0.0245647
0.028139
0.0245507
0.152251
0.0223375
1.31876
0.369186
0.0245274
0.0220739
0.0240676
0.0452608
0.0554431
2.73858
0.0259237
3.8613
0.0240943
13.1866
0.0378394
0.0252273
0.0267513
3.30676
3.34242
0.0891224
3.26042
0.0570244
0.169487
9.22652
4.09348
0.0241766
2.75295
0.0261224
0.0239165
0.0242971
0.0227268
0.0244499
0.134568
0.0413621
1.85659
0.0245487
0.0253918
0.024407
3.10975
0.0247135
0.0361481
3.52024
1.99247
4.17678
0.0348169
0.0247831
0.0244406
5.3966
5.49246
0.313584
0.0289514
0.0261042
1.21625
0.0545192
3.41721
0.0411925
0.0247366
3.49552
0.0299405
0.0242896
0.0233189
0.0295476
1.80257
0.0257021
0.835067
0.0255722
0.0252528
1.95735
1.01885
4.6936
3.63998
0.0316349
0.0255786
0.0825501
0.078602
0.0243262
2.77734
0.0957941
5.404
0.0227206
0.24596
0.025387
0.024649
0.0255725
0.0230796
0.0248886
3.68985
0.431585
3.43124
0.0500277
0.321715
3.37947
0.0244502
3.07448
0.0222928
0.0242422
5.90989
0.101091
0.0376944
0.0232466
0.0251449
0.274464
0.0661
6.96978
2.80225
0.0232851
0.259846
4.36292
0.0256621
0.0221676
0.453878
0.0233741
0.347728
0.0677389
0.0247124
0.0242092
0.024007
0.0717357
0.268687
0.297435
0.0239038
0.458176
0.222337
0.146904
0.0237132
0.110495
0.0240876
0.738055
11.2639
3.04674
0.0256408