/*--------------------------------*- C++ -*----------------------------------*\
| =========                 |                                                 |
| \\      /  F ield         | OpenFOAM: The Open Source CFD Toolbox           |
|  \\    /   O peration     | Version:  v2012                                 |
|   \\  /    A nd           | Website:  www.openfoam.com                      |
|    \\/     M anipulation  |                                                 |
\*---------------------------------------------------------------------------*/
FoamFile
{
    version     2.0;
    format      ascii;
    class       volScalarField;
    location    "100";
    object      omega;
}
// * * * * * * * * * * * * * * * * * * * * * * * * * * * * * * * * * * * * * //

dimensions      [0 0 -1 0 0 0 0];


internalField   nonuniform List<scalar> 
53008
(
0.770995
0.063229
3.61963
0.0246293
0.786824
0.0236074
0.02446
0.0228443
0.036059
0.0235283
0.0223737
0.137359
0.0232831
4.2066
0.451386
0.151574
0.0258783
0.707483
0.0356842
0.0240579
0.0254832
5.81024
2.95924
12.6271
0.0235212
0.0360127
0.725735
0.0231999
2.79331
0.0246287
0.0431383
0.0240538
4.87572
0.156185
0.022819
0.0228221
0.0251341
0.0572691
0.0315463
3.64724
1.99066
16.8929
0.0224728
0.0234884
10.7748
5.77942
31.2695
0.822284
0.0546913
5.75197
0.0326581
3.29095
0.0259502
0.0343694
0.0405403
0.27527
2.82613
0.0262909
0.0236207
0.0245046
0.0242655
0.023863
0.0255069
0.0326931
0.0236269
13.2224
3.45919
0.0804087
0.0255802
0.0239868
0.0243222
0.0245721
0.0295671
0.0245379
0.0643761
0.0307159
0.0228338
0.0238295
0.0359074
0.0246812
0.0235279
0.0234188
0.277781
0.0436603
0.0244578
0.0300847
0.0985417
0.0729149
0.0374413
0.0243012
0.022553
0.0242432
0.0248234
0.0244633
0.0730809
0.92644
0.023917
0.0225492
0.0232826
0.023977
0.0242691
0.0245107
2.92646
0.0231828
0.0243171
2.50931
0.360605
3.65684
0.0266508
0.393577
3.15976
3.39894
1.52128
0.0234876
0.0285493
0.0246701
0.36582
0.0339258
0.0985638
0.917845
0.0225659
0.02584
3.7687
0.0391845
0.0227843
2.81419
1.30164
0.209465
7.97505
0.0357182
0.0224611
0.0225618
1.42792
0.0491838
3.42796
0.0242977
0.0252945
0.0256949
3.36352
0.022449
9.00898
3.46102
0.045363
0.0262825
0.0220681
0.0420143
0.0426888
0.0627618
0.0261697
0.0245541
4.59927
0.0235547
0.0713097
4.4713
5.80121
0.0285668
1.41156
4.42386
0.023609
0.0267876
0.023028
0.0234957
0.0223497
0.0246112
0.022357
9.8282
0.18877
2.85379
0.0225919
0.0233978
0.0568828
4.50418
0.0250807
0.521864
0.0235217
0.022987
0.0261632
0.024653
0.189597
0.0305385
0.0523739
0.0361029
0.0231492
0.0236098
1.48616
0.0234985
0.0223279
4.45277
3.86429
4.49125
0.0234352
4.58732
0.0475237
0.536593
3.27611
0.0244722
0.439851
0.19806
0.0244769
1.33057
0.0245182
9.49006
0.131578
0.0245288
0.212105
0.046333
0.0234322
0.0257134
0.111535
1.9878
0.0588742
0.0780859
0.488108
0.025961
3.29905
0.0256713
4.25422
0.0754414
3.45047
3.42743
0.0917513
0.0255788
0.0239069
3.67251
0.0909997
7.57539
0.0403976
0.421225
0.0394493
0.0258889
0.023284
0.37748
0.0248532
1.31058
0.0244666
3.11238
0.0249292
0.0258212
0.0627679
0.0230597
0.0570196
0.0460545
0.106675
0.4905
0.0239664
0.837309
0.0238409
0.0239682
0.0259022
0.0340568
2.0332
0.171551
0.0946711
0.0230134
0.0256129
0.0228339
0.494086
0.131239
0.0850302
4.58923
3.52236
0.0755803
0.0239561
0.0259835
0.339091
0.0262471
3.37597
3.40822
0.028408
0.0466601
0.13371
0.0241045
0.0252503
0.088856
0.0303347
0.193229
0.0288156
38.6008
0.0247818
0.0253196
0.0338209
0.353611
0.213208
2.61086
0.218119
0.024258
0.0295517
3.51923
15.6635
3.29542
0.786101
0.120006
10.5264
0.132172
0.0246055
0.0246477
3.5788
0.0234545
1.41982
0.799262
3.36325
0.0230313
0.0230185
0.0243566
10.579
0.259266
0.0232192
0.0343833
0.0480606
3.03134
0.097174
0.0245646
0.0229873
0.0228409
0.0629574
0.0245347
0.0319993
4.07176
0.905592
0.0246819
0.0781108
0.0221758
0.399404
0.0224839
0.0237163
3.27729
4.71806
0.0240363
0.0785361
0.0260684
0.31722
0.898079
0.0233449
0.0364014
0.726067
0.0257351
9.14338
0.0416128
0.0238926
0.0260079
0.0428051
0.0388636
9.64009
0.126042
2.74477
0.0231629
0.0482643
0.0225284
0.0232493
0.0359852
0.0238556
0.0233896
2.67034
42.5628
0.0238479
0.747838
4.21403
14.5551
3.13225
0.0877136
0.315991
0.0252229
0.221781
0.023094
0.0401195
0.0230784
0.0469984
2.88676
3.55627
0.0491023
3.24553
0.0247543
0.0401144
0.0257751
0.0244352
0.0637555
0.0238873
42.1905
0.0534839
0.0232798
0.0237463
0.0231292
0.0245253
0.778187
0.0232246
0.0244979
0.0358457
1.37063
1.77068
1.20194
3.69621
7.73439
18.7894
0.0227816
2.88011
3.70568
2.03353
0.0239028
45.223
0.0232131
0.0231975
0.0231956
1.50324
0.773028
0.0251411
0.0252037
0.0228314
0.200003
0.0852542
0.0245358
0.070867
0.0241358
4.01534
3.74631
0.0913085
0.0244936
0.371537
0.025978
0.0247242
0.0242509
0.0237504
1.17054
0.0232024
0.0242836
0.0271748
0.023724
0.0244715
5.43856
0.0379423
0.0245111
5.60854
0.0338978
0.0239083
0.180185
0.0245374
0.0247623
3.34491
0.034017
0.22877
2.7442
0.0819072
0.0469847
0.10837
4.83943
5.05684
0.0246706
0.0241068
0.0296195
3.42824
0.0234889
3.30644
5.52163
0.0227522
0.0263312
5.69118
3.47666
1.46061
4.45817
0.0249804
3.61565
0.022962
0.0253442
0.0244472
0.024293
0.0264322
3.11074
0.343557
0.503187
0.251337
2.82545
0.083472
0.0829055
0.214677
3.71506
0.0242876
6.98032
0.0241175
9.92044
1.24267
3.2501
0.0227807
42.8918
0.384448
0.0366101
0.0258805
0.0244736
3.4314
0.0243856
2.97748
1.98272
0.0249503
0.0225209
1.96741
0.0232878
2.87609
0.0238053
0.0245538
0.0254713
0.0258023
0.051095
38.3454
0.0335065
0.031555
0.0247253
0.410299
12.6843
0.0735898
0.0229726
0.0249176
1.41196
0.0289577
0.0246651
3.18267
13.677
0.0226389
0.181699
0.0771472
0.0265114
0.0230922
0.023613
2.05528
0.538942
0.0245065
0.0483542
0.362449
0.0238559
3.47334
0.0230704
0.0285151
0.0229676
0.0303223
0.0227939
0.0850849
1.98867
0.0240416
3.66791
0.0238117
0.447176
0.0335111
0.024915
0.141329
0.0245449
0.0229861
0.0230431
0.0409271
12.9876
0.0236169
6.66027
40.2711
8.62966
0.0259126
0.024894
0.024494
0.0233871
0.025137
0.10854
0.777893
3.054
0.023069
2.90667
0.023442
0.462338
0.0229688
2.75927
0.0230773
3.78963
0.0229122
9.74206
0.032422
3.35175
0.0238221
0.0230898
0.0254602
0.0702283
0.0298453
3.36218
0.022243
0.0245781
0.025419
0.0254079
3.70082
0.0250316
0.0283988
3.52439
3.82935
0.022944
12.3053
0.247661
1.12463
13.6893
0.0249121
0.604759
3.47631
3.52727
0.0230157
1.47269
0.0223257
0.0228188
3.41894
1.5184
3.45888
6.54725
0.111928
0.0237382
0.0591727
1.56321
3.14504
10.2155
0.0240917
0.0241298
0.14447
0.0246933
0.0228386
0.0242695
0.0257069
0.0236175
8.08036
0.0225878
0.0819123
0.0240308
0.189136
0.0254503
3.64363
0.790502
2.74287
0.830995
0.0228256
0.0258863
0.0235752
0.0366358
0.0285754
0.0241479
2.86967
0.59953
0.0236197
0.0348702
11.1742
0.0245394
0.11037
0.144914
4.12302
0.0235708
0.0683234
0.0230787
0.0244937
2.72668
0.0229654
0.0226052
0.0245844
0.185524
0.0246793
0.0254755
3.08379
0.0244622
0.0468366
0.025573
0.0246678
3.9681
0.0964232
1.32451
0.0246945
0.0266201
0.0246473
0.0253437
0.0252138
0.256446
0.0296168
5.75288
8.26846
0.0223218
2.84187
2.85791
0.0248605
0.0231901
0.045827
0.0246789
1.51021
0.0295316
0.0226903
0.0895047
1.51911
3.70177
0.0276701
0.0281577
0.0232071
0.0254419
3.58076
0.0228086
8.75295
0.0231488
3.13719
0.071759
0.0251349
0.0237881
0.0668273
0.0243532
0.189108
0.0234797
3.3515
0.0245818
0.0228837
3.68062
0.0285543
0.032425
0.0231284
0.0245243
0.0328705
0.0245426
0.0334684
2.21407
0.0245489
2.89081
0.110543
0.0233811
0.024362
4.05194
5.81603
0.0280913
3.06612
12.1979
0.0276668
0.0507469
0.0253861
0.0222509
0.0229529
3.06563
0.0269176
0.0256853
3.23135
0.0368834
1.35704
10.444
1.38249
0.0318564
0.0245195
0.103701
0.0274314
0.0898681
0.0938039
0.0256356
12.2473
0.024427
0.0851424
0.138026
0.0242744
1.27015
0.0255705
0.0240003
0.0267344
3.57369
0.0284034
0.0237955
0.0288687
3.32703
2.80031
0.128513
0.0233832
0.0317008
0.253442
0.030698
0.0262182
0.0288543
0.0341023
3.01003
0.250874
0.0249108
3.6364
0.662004
0.0737295
0.0393211
3.16434
0.083835
2.66783
7.33685
0.0254938
0.0288773
12.9938
0.851205
0.025583
3.3595
3.86539
0.026741
8.13936
0.0289179
0.110694
0.0243794
0.0235931
0.0238995
3.16197
3.12496
2.0813
4.32419
0.0436662
5.51648
1.33885
0.0230866
0.510856
8.56623
0.682521
3.09559
0.0233274
3.02941
0.0239579
0.023348
0.0244413
1.94466
0.0252369
0.0232643
0.0255451
0.0240031
0.0246096
0.0244236
0.0333983
8.92385
0.132944
0.0319728
0.604331
2.88896
0.0253823
0.0462515
0.0242763
0.0228042
2.16431
0.0235205
0.0571206
0.0246727
0.0841372
0.0331261
2.9204
0.0250641
3.01775
0.0245326
2.14438
0.0244644
3.46873
0.0255649
0.381122
1.18544
0.0715924
1.42691
0.0236069
0.0255315
0.102328
0.0231288
2.17964
0.0243443
8.56026
0.126018
3.06004
5.41082
0.181547
0.0241456
0.0239573
0.069419
0.171817
3.05227
16.5301
0.0245137
0.0232277
2.0022
0.0231973
0.0244082
0.0231436
0.088392
0.0949197
2.0484
3.03409
0.0255405
8.78335
9.73284
0.0348298
3.62947
0.033318
0.0320637
0.0241479
0.0246329
2.15897
0.0283889
0.0234647
0.0276271
4.58997
0.0952349
0.0233986
0.0230252
1.08522
0.0224028
0.0228227
0.0234225
7.646
0.0230241
0.0714231
0.0233189
0.0221804
0.106475
0.0247419
5.9356
2.07892
1.2042
2.21273
3.12402
3.18509
0.0234045
0.0230884
0.0240185
0.0230256
0.0245409
0.0735073
2.72763
0.024377
1.88858
0.13869
0.0261753
0.0389639
0.831025
0.023422
0.022855
0.0243076
0.0266939
2.98192
2.13179
3.68061
0.132392
0.0243245
0.026278
0.0258025
0.0234526
1.81826
0.0228971
0.824445
0.242564
0.0246941
2.82484
0.023404
0.0262456
0.0659738
0.0247423
0.0244822
12.7117
2.0432
0.028736
0.167746
3.06229
0.0822381
0.0422282
0.101586
0.0221482
0.639729
0.0243675
0.0227613
0.0227891
0.0854794
0.0243087
0.0229575
0.0228672
0.0224518
0.0320642
0.0258392
0.024377
0.024476
0.0246783
0.022421
0.0239858
0.0244649
0.0241151
0.025666
3.2691
0.190479
0.0263051
0.0344677
0.0258102
0.0231892
2.05816
0.0249332
0.0228237
6.13701
0.0233408
8.50838
3.17264
0.147827
0.987246
0.0289096
1.75937
0.0244489
0.023332
0.0237591
0.596442
0.0246505
0.42756
8.11672
0.14965
8.51616
0.0279637
0.024369
3.03714
0.11272
0.0233307
1.59335
0.442683
4.11085
0.0235982
0.0290726
3.12282
0.0227239
0.209625
0.0676131
0.143417
3.03389
0.0242458
0.0815035
0.0248767
0.205514
0.024927
5.95221
0.0234844
0.0256915
0.0230225
2.80617
0.239845
0.0243609
0.0230046
0.0275732
0.0227445
5.39249
0.02951
0.0234481
0.0536784
0.0236799
0.024072
0.0222671
0.0340952
0.0257326
1.36528
0.435612
0.0483713
0.0243539
0.0293654
0.583323
4.22394
0.50809
4.0094
1.58693
0.0222235
0.0276229
0.023726
2.88419
0.0371078
1.23319
0.0223698
0.0236124
3.02304
0.0223544
1.31516
0.59729
2.84172
0.48724
0.0234793
0.0349662
0.336978
3.57858
38.0679
0.0236644
0.0250709
0.0259631
0.0231899
0.0262254
0.0234091
0.305701
0.07144
11.7831
0.724511
0.146075
3.13294
0.0433925
1.50764
0.023621
0.39336
4.69177
0.152986
0.879976
0.0309901
0.0303753
7.39318
0.0220732
0.0233772
0.0252924
0.0283015
0.0223217
0.369264
13.3838
3.43653
0.0369997
0.0226482
0.0253405
3.34429
0.0233567
0.0227226
0.0246817
0.0223668
0.792913
0.612345
9.38117
0.0227197
0.0326965
0.118049
0.0257384
0.0236284
0.0247771
0.0286885
2.03001
0.026983
0.0233674
0.0226327
2.22549
0.0319082
0.0257982
0.0310257
31.6526
0.496028
1.52733
3.26797
0.0751651
0.0824747
0.182352
0.0944476
12.2605
0.0232893
0.0243435
0.0255684
0.0240686
0.0251286
5.06629
0.0228009
0.028674
0.144969
0.0246659
3.44844
8.86397
0.0282396
0.878184
0.107856
0.106124
11.0985
0.227072
16.2901
0.842722
0.0503885
0.0457545
0.0255836
3.0908
0.0639417
1.40235
0.0235246
0.0232649
1.85094
0.0291073
0.0255923
3.10533
2.31743
1.3229
0.0314174
0.173291
3.34584
10.2344
0.82551
0.0247968
9.86585
0.0253272
5.24502
0.0230163
2.9538
0.0542953
3.88904
0.0257283
5.00538
0.406563
0.0536729
0.0246629
0.547737
0.0257487
0.0255251
0.0504501
0.0222497
0.0256483
0.472273
0.0247652
0.0236146
0.137706
0.0237119
0.0243041
0.387189
0.0253427
0.0339365
0.0427279
0.12196
0.0365199
0.0510727
1.14719
0.0787741
11.3227
2.04499
0.0226586
0.0237791
0.0321283
4.23881
44.0152
0.0229595
3.24727
0.0352599
0.0316393
0.0243798
0.025832
2.92097
0.0278366
3.66839
11.8097
5.36347
0.0246633
0.025755
0.0236727
0.0234071
3.24695
0.0285422
0.0241357
0.0301599
0.0224766
13.1094
0.208892
0.0230675
0.0261803
0.0284386
5.46954
3.34116
1.41828
2.18172
0.60358
0.0228923
0.0565591
0.0228621
0.0235738
2.20477
0.0748415
6.00683
0.0234017
0.0230373
0.0234042
0.84403
0.0243121
4.9556
0.0254412
0.0758946
0.076248
0.0226635
0.384927
0.024877
0.0853289
0.0247176
0.0234602
0.0227034
0.0433667
3.92269
3.72383
0.0245596
0.0230845
2.73908
0.370416
0.178281
0.0234585
9.85415
0.0254663
3.41399
0.0229806
0.659921
4.59103
1.53314
10.2852
0.0720669
0.0516161
0.0264545
0.0245765
0.0248913
0.113157
12.2357
0.132506
0.192312
0.0226742
6.12707
0.0242582
3.45842
0.0257936
0.032706
3.22029
0.0254395
0.025399
0.662327
1.41363
0.0230516
0.0246236
0.0245344
0.0241175
3.25818
3.32539
0.0241423
0.521072
0.0630236
0.0235767
10.2475
0.0241137
0.0312151
3.139
0.0584698
27.593
0.0434177
0.0254399
0.0250969
2.65391
0.379839
0.0247784
0.467165
0.025792
0.0231223
0.0254146
2.08724
0.0235574
0.0511773
0.0226903
0.0245233
0.0223561
0.0247111
0.0317904
0.0247458
3.1027
1.10596
0.0335037
0.0246889
0.0225116
0.025705
3.36243
0.0248099
3.02748
0.0228234
0.0255549
7.37555
5.26853
0.0262734
3.22937
0.0241304
0.0793788
1.54228
0.0413015
5.82393
0.0880584
2.06836
0.0225982
0.0235283
42.0601
0.17529
0.138931
3.58284
12.4312
0.466127
0.0245137
0.0380522
0.45003
0.429137
2.09021
0.0254425
0.0231526
0.22971
5.20412
0.0248664
0.0242146
3.13716
0.0241026
3.69361
0.368202
0.0258302
0.024482
0.0747234
0.385133
1.64866
0.0284847
0.447176
3.51581
3.07107
0.0231557
0.0224751
0.0258184
0.541028
31.6737
3.26199
2.03589
39.8459
0.0254412
0.0244039
0.0226593
0.0251509
0.535619
2.80699
0.452746
0.0243054
0.0317745
0.0521857
0.0252499
0.153088
0.0268794
0.73256
0.0447876
0.801139
0.0229073
3.64991
3.09439
10.293
2.27945
0.0233056
0.0244262
2.83048
0.0264427
5.22278
0.0241197
3.07969
0.0248295
5.4159
0.0793111
0.0230047
0.0277743
0.0253573
0.0222214
0.0290748
0.026305
0.0230178
0.0248094
0.0234466
0.024828
0.0246651
0.0230439
3.31252
0.827565
0.238718
1.72626
2.77544
0.0919081
0.0358809
3.15098
0.0242907
1.43696
0.0232454
0.0296745
3.30151
3.91993
0.0249321
0.0528419
0.0962683
3.31323
0.457194
0.482516
0.0240254
0.0255947
0.0255085
3.72303
0.0240321
0.58329
0.0227415
5.79002
0.0240214
0.0735953
0.0327464
0.0245717
0.0342598
0.148183
2.75949
5.45909
0.0235137
0.0226309
2.79913
0.480422
5.10406
0.0255785
0.0247027
0.0292926
0.188931
0.0232317
0.0248601
0.0245455
0.0267097
2.6085
0.0431508
0.0247057
0.046904
0.510105
0.0263975
0.0263339
0.463243
4.94936
0.024375
0.0400406
0.0253231
0.024116
0.777548
0.825005
0.366729
0.0228335
0.0330749
0.0244888
0.0522091
0.0263743
0.025502
0.0318788
0.0242992
0.0246241
0.808683
0.0327271
3.47501
0.0685212
0.0255054
0.0302108
0.464068
0.181594
2.28238
0.0236939
0.0655279
0.784376
0.0889099
0.029755
8.72351
14.2384
11.348
0.0230074
15.354
0.0253508
2.54322
0.576705
0.0238825
3.71603
1.39447
40.4636
1.81572
1.53337
0.0236737
0.026377
0.0263456
5.06736
2.41901
0.0279163
0.0239915
0.0227171
0.0241047
0.0235823
8.08326
2.36653
0.0235803
0.0317786
20.7269
0.024662
0.120434
0.0247482
0.517171
0.82087
0.0250464
0.14529
0.024595
0.023594
3.53463
2.68469
2.79549
0.0238751
0.695039
0.0257383
0.0255642
0.024628
0.0256125
0.0221605
0.0244114
0.0244052
2.07258
10.9721
0.38196
3.9657
2.0959
0.0240121
2.10953
0.0246309
0.917935
2.19042
2.0424
0.825183
0.0234088
0.0244073
0.0244066
0.810709
0.0281634
0.022799
0.0844733
0.0227254
0.0239009
0.0604753
2.78798
0.0331053
0.0263653
2.87182
2.82472
0.0246029
0.0315738
0.042731
0.0246753
2.74457
0.717242
0.471619
0.839443
0.0243513
3.69062
0.0295967
0.478759
0.0230628
0.024679
0.0226835
0.0232466
0.0233461
9.99834
3.3755
0.0248898
2.15123
4.22377
0.0233988
0.02544
0.838346
0.538132
0.0274529
0.0247174
0.0437396
0.0265089
0.0263517
0.0234138
0.118381
3.50185
3.88379
5.39235
0.0331223
0.0264734
0.481301
33.0465
0.0933438
0.0226819
6.34661
0.0254979
0.0248368
3.4123
0.023571
0.0248809
0.0232097
0.0826921
3.58547
0.481367
3.55805
0.0238708
0.603063
0.0241513
2.99725
0.0230557
4.189
0.361675
0.0879948
30.1862
0.0264281
0.0236126
1.4115
0.0736249
0.0314378
0.0246167
0.685841
0.0359084
0.629884
0.0252811
0.0244435
0.034467
0.0239153
0.39932
0.121595
0.0251646
0.0236001
0.0277123
0.0268421
0.0238689
2.77029
0.0247245
0.0254151
2.78563
0.0256133
0.139271
0.0236651
0.0241347
0.0235932
0.873207
1.27833
0.806545
0.0262489
0.799198
3.49888
0.455541
0.022704
2.98655
0.0288763
0.0239071
14.4077
0.0227889
0.0246933
0.0247073
0.0223296
0.623867
0.0240942
0.0241716
0.0257758
0.0232042
0.235983
2.91346
0.049583
0.0249517
0.0909989
0.023025
3.11788
0.0236522
0.184202
1.88858
2.66332
0.821133
0.0280899
3.11933
3.1196
0.0235948
0.024308
1.40946
0.500151
28.0257
0.0591272
0.130894
0.0278374
0.029204
3.20738
3.67309
0.0293517
0.959735
11.5002
0.0245937
0.0232059
0.466435
0.190081
0.0284444
0.0257617
0.0224973
0.111825
2.16685
2.62665
2.25404
2.01563
2.02677
0.502443
0.0230758
0.334278
3.51299
0.0229934
0.0237624
0.751521
0.0245951
0.458873
0.0224857
0.0450007
0.0331335
0.0256069
0.0237042
0.821056
0.0706759
8.13566
0.0266165
9.98821
0.0294458
0.0228773
0.941885
0.0223191
0.02362
1.3799
0.0268155
0.562717
0.0247838
0.0252365
0.0718186
3.52467
0.0229113
0.268352
3.56518
0.542852
0.024387
0.0257793
0.826717
0.0321084
2.45251
0.0240085
0.0230722
5.21404
0.0242982
0.0241294
0.0228348
2.39709
0.0282249
1.25797
0.028081
0.023825
0.0233016
0.0254074
1.48181
0.0424134
3.98968
3.47736
0.463784
0.0230247
0.0248977
0.025419
0.0744756
0.0233348
2.71479
0.0244638
0.0792835
0.0245809
0.0509573
0.0250606
0.371088
0.522804
0.0238652
0.174205
0.497598
0.0245393
0.0238558
0.600952
0.137829
0.0256581
2.47644
0.0226259
0.0228138
3.83702
0.0456431
0.0239538
2.1281
0.0399705
2.33092
0.0984728
0.279683
0.0500387
0.524014
0.0326878
0.0245679
0.358158
0.0233721
0.0247102
16.7196
0.0264437
0.0234408
0.143566
4.25242
0.364339
0.0233636
0.0288949
0.0245586
0.0249332
1.27979
0.0248169
1.0556
0.295984
0.914843
7.74648
0.190366
0.050721
0.040881
1.67209
0.0233699
0.489368
32.2796
0.0256227
0.0224598
0.466406
0.147755
10.9541
0.0248287
0.0244644
0.526768
0.0265254
2.75979
0.0267743
0.445907
3.50025
0.0513375
0.0246137
0.0226253
0.983324
0.143073
0.0253368
0.0256037
0.0254304
0.022611
1.81723
0.0272441
0.0365425
0.0232548
0.0873889
0.0245539
1.87301
0.167942
0.0841436
0.183246
0.0476621
0.0248443
0.0242874
0.0236017
6.84518
0.0234054
0.0245204
1.05159
0.0226447
3.00921
0.0221795
0.025214
2.04474
0.0239601
2.05906
0.0247426
0.0423783
0.0268681
0.0236016
0.0226184
0.023121
0.022652
3.44653
1.75695
1.45469
1.07764
0.0227909
2.24002
0.0226289
0.0258004
0.0241518
0.0931879
1.3582
0.0246438
0.0245324
0.979933
0.0233916
0.0244294
2.07793
34.9749
0.0277021
0.0243981
14.8834
3.22649
0.0241331
3.78184
0.0254025
0.023213
0.0293914
2.84008
0.0254383
0.0264602
34.5341
0.536045
0.0370567
0.0239119
3.45786
0.0590986
1.05481
1.20194
0.0226784
0.071056
0.0231724
0.144061
3.66665
0.0231645
8.55265
1.95916
0.133612
0.0246028
0.0360871
3.21163
12.7128
0.0244675
0.137967
0.022354
0.0233428
2.72644
0.0240509
0.0245439
0.0247327
0.0862795
3.44106
0.0255374
0.0389605
0.0243106
0.0240848
2.02041
0.0385393
0.0290095
2.73025
1.40188
0.0323708
0.0393089
1.1147
1.077
0.024583
0.537786
0.022928
0.844036
1.69707
0.0222192
0.084442
0.0304847
0.232544
0.0243748
0.121198
18.016
0.0229279
5.73543
0.0247516
0.0240521
0.0253862
0.0244583
4.61403
0.0243895
0.0245659
2.69415
13.3547
0.0235267
0.0374925
0.0265445
0.0248021
0.0350844
4.64273
0.0246353
0.145991
0.0226308
0.0323187
0.0373873
0.0399528
1.41867
1.71777
0.0236421
0.398808
3.07264
0.0256784
3.71655
0.672639
0.637776
0.023382
0.0222338
0.0231149
0.0241752
0.0317772
0.183507
2.2633
0.0244168
0.0227377
0.370886
1.16876
0.0266799
0.394405
0.174081
0.0301564
0.528008
0.0239483
0.503485
0.0417086
0.024273
5.29375
0.750401
5.251
38.802
0.0266625
0.0248391
3.2226
0.0240159
2.93607
0.0227277
0.0449614
0.0952143
10.9739
0.0254633
0.46857
0.317926
0.105659
0.423312
0.0235062
1.9478
0.0822627
4.0049
0.0240876
0.0234454
0.0236459
0.0221818
0.0230646
0.0253414
0.232148
0.0242195
0.0266794
17.0075
0.0585474
0.0568784
0.0606017
0.0254793
3.53983
0.0256024
0.0248765
0.0365593
3.31621
0.0322615
0.0248347
2.06239
4.49995
3.31092
0.0256542
0.530913
0.0536215
0.025493
3.29881
0.121249
4.63747
0.0230041
0.0255918
0.737334
0.841147
0.0709114
0.074581
2.80867
2.81558
0.0237906
0.03178
0.0251295
0.312356
0.0348382
0.285897
0.0245784
1.07017
0.0255084
9.67036
0.0239967
0.0453452
0.0370069
0.0880174
2.8471
0.0240866
5.19061
2.54167
2.04976
0.0334086
0.158863
0.0237822
0.51767
0.28284
0.0233165
0.0231643
1.42895
4.43155
7.64454
0.846719
4.41846
0.0243623
0.170848
0.647567
0.0244014
0.0241659
0.120818
0.0288682
0.403863
0.0230147
0.0258924
0.0242562
3.27642
3.08187
0.023704
0.024546
0.0243132
0.027214
0.0523846
0.468748
0.0730595
0.025007
0.0253848
0.0245339
5.21073
0.0259438
0.0238326
0.302889
1.21662
0.03124
0.0244553
0.0234273
0.0248776
40.0741
0.024083
0.0578117
0.0242402
0.0228037
0.0353829
0.198894
0.733103
0.457723
0.56875
0.11874
0.0225889
0.0236889
0.828069
0.138684
0.0242276
0.112288
0.100015
0.0236644
0.0226859
24.6404
0.0298569
0.0221531
0.0263976
3.43623
0.0230937
0.0849132
0.0234357
0.0227346
0.0391713
0.0248947
0.0230354
4.64875
0.0879771
0.0243158
0.0245269
0.204411
0.0275326
0.308399
0.334559
0.0253259
0.022069
1.94301
29.8389
0.0253842
1.98534
0.314002
0.0348697
0.0451358
2.02305
0.96328
2.24297
0.0246392
0.52204
0.0242391
0.037447
0.0263308
0.181601
0.473928
0.649967
0.0479394
0.480725
1.96616
0.879242
0.0268793
0.0236139
2.0173
0.53492
0.023
0.0254507
3.74039
0.0227504
0.0283117
0.47545
0.0234978
0.0269022
0.02442
0.0627058
0.0912215
0.187054
0.0412922
1.94478
0.0280884
0.0246472
0.0242263
0.0230387
0.0251892
24.8564
0.0259501
0.086079
0.024355
0.0278897
0.0277078
0.180341
0.146014
0.0230375
0.0272385
0.0233888
0.0328887
0.0246029
0.0243697
0.0248282
0.024235
4.05314
0.0235051
0.0240165
0.0234085
2.16915
0.0225692
0.0247315
14.2851
3.39672
0.0221556
0.0234471
0.0235926
0.0240515
0.437888
1.42107
0.0712777
0.0277487
0.0282109
0.0230074
0.115261
0.0253311
0.0235348
0.0240804
0.0233346
0.21022
0.0237211
0.0699949
0.0256536
1.38203
0.0248103
28.6819
0.0234674
0.024619
1.89748
0.0228818
0.0245805
0.0447502
0.150017
0.0247995
0.0226147
3.73174
0.0838618
0.201101
0.0258063
1.38513
0.0245053
0.0248717
0.0338506
0.221043
0.709959
0.0272642
0.572833
6.34766
0.0239511
0.0282942
2.32665
0.0598332
0.022671
0.119429
0.0249958
0.253117
0.0608421
0.0266545
0.439598
0.469765
0.0265705
29.6331
0.0638017
0.024846
0.0227602
0.0230171
0.0247632
0.0256743
0.267336
0.0518983
0.024237
0.0490455
0.439303
0.0633105
0.181739
0.0257995
0.0233043
0.15489
0.034918
2.00814
0.0223692
0.032679
3.38842
0.0227869
0.60868
28.7206
0.352685
5.92351
0.0230774
0.0255142
0.0226919
0.0245576
0.0360925
0.0256367
0.0236596
0.090746
0.0227306
0.0288984
0.0346363
3.53053
0.0253854
0.0252041
0.0256769
0.0658668
0.022791
7.29859
0.0500182
0.0311023
0.0866461
0.763474
0.5272
0.0286871
0.035683
9.09336
0.0246695
0.0679057
0.0246381
0.0239448
3.32076
0.0257034
2.48419
0.0339374
0.0384598
0.0337525
0.025767
0.0232428
0.038874
0.0225532
0.120053
0.0227435
0.311492
2.01021
0.0229416
0.105085
0.100058
0.0380648
0.0425099
3.35479
5.70666
0.0222209
0.0254207
0.815696
6.72842
0.0230801
3.94891
0.144437
0.0360237
0.0230429
0.0259167
0.295679
3.42553
0.0243418
38.7547
3.30314
0.144686
3.09394
0.113771
0.550621
3.72074
2.25538
0.0327122
0.455715
0.0230146
0.0248167
0.0438004
3.9802
0.0240643
0.0332157
0.0245468
0.0241683
0.0238465
0.0386812
0.0244438
0.277864
0.366153
0.0241608
2.13128
0.0246282
0.0244455
0.384368
0.0379765
0.0651968
1.48604
0.0318237
0.0942118
0.0228123
0.0437018
0.028875
1.33262
0.193897
0.0236004
0.0244779
0.0500951
0.0234104
0.0248835
0.534149
0.0234024
1.26327
0.176314
6.11263
0.0264428
0.095542
0.023024
1.71983
0.810232
0.0660443
0.0515237
0.47084
2.21039
0.0340704
3.84822
0.578313
0.0299464
0.0596258
0.0226016
2.25941
0.632795
0.0377221
0.0969389
0.0244569
0.380505
0.0619229
0.0334032
0.0239328
2.63737
0.0247083
0.0405494
0.15975
0.0242307
0.023011
0.0359059
0.29394
0.181287
0.0264012
0.0270764
0.0248656
0.0245337
0.0446758
0.0264999
0.0250908
0.0231095
0.0222105
0.0248752
0.0230138
0.0255701
0.0227889
0.0261897
0.38941
0.391459
3.3274
0.0240244
3.30379
0.0244623
0.0571016
0.0239701
0.0231019
0.0240947
0.02545
0.0233501
0.0380195
13.5432
13.924
0.0946618
0.0225403
0.0247734
0.626104
0.0403119
4.83876
0.0272396
0.0241667
0.0243109
0.30898
0.0233591
0.205481
0.0250246
0.128112
0.0247999
0.0984001
0.359046
0.0252746
0.0251573
0.132331
0.0242349
0.0250702
0.457553
3.703
0.0263605
0.0254539
0.0237374
0.0245759
2.19351
0.0693368
0.820207
0.0233248
2.19134
0.024876
0.0237577
0.0240716
0.126323
0.0294825
0.129256
2.78814
1.87835
0.0798014
0.536316
0.0239381
0.0275909
0.451479
0.0257281
0.0248841
0.0292226
0.0225989
2.82491
0.0247492
0.0490797
0.0285671
0.024734
1.42454
0.0256762
0.0658035
0.0247768
0.0493433
0.0245515
0.0832873
0.137462
6.31052
0.388265
0.023964
0.0244783
0.0257893
0.0222893
0.0244046
0.0245491
0.579589
0.0241993
2.40894
3.84641
0.0365789
0.0246984
0.167422
0.0230293
0.0274906
0.306039
0.0259651
0.0258412
3.07422
0.0295043
0.844251
0.0227128
0.0247016
1.43587
0.650247
0.268711
6.47631
0.0319715
0.0236374
0.481032
0.0245884
3.29883
0.0628487
3.6668
0.208473
5.56149
0.0242192
3.44942
8.27004
0.389271
0.0457402
0.0551738
5.48621
0.0222573
0.0241637
3.0883
0.0751776
0.040725
0.0231666
0.764734
0.0245832
0.0248818
0.0681327
13.8204
0.486056
0.578337
0.0240922
0.145226
0.0243959
0.0288528
4.41218
0.0247877
2.95465
0.0840822
0.0243226
1.31601
1.99119
0.142325
0.0695408
0.0254105
0.0260774
0.0238562
0.0223148
0.0585385
0.0244054
0.0251026
0.138196
3.05414
0.0243388
0.0349292
0.0242052
0.0233781
0.0333347
3.24753
0.0295149
0.0255355
0.0266796
0.0243681
0.41249
11.4348
0.0241024
0.0333112
0.02447
0.138775
0.443776
0.55957
0.0332178
0.0983787
0.0270529
0.024097
2.0416
0.0237053
0.149316
0.0265906
0.198879
5.53361
0.0238706
0.0253675
0.0302608
0.551367
0.0418853
3.99231
0.0239011
0.0248955
0.0266956
0.023564
0.134428
0.0679496
0.500291
1.30665
0.103629
0.0470819
2.79949
0.167975
0.0252954
0.0237757
0.0254984
0.0253731
0.0237051
9.73205
1.35445
0.81729
0.473526
0.0255385
2.87399
0.0261252
0.0230078
0.0257168
0.0244791
0.072097
0.0243704
11.3199
0.045711
3.3703
10.6614
0.0233247
0.0423277
0.0538717
3.38664
0.0244303
3.15442
0.0246106
35.8412
0.024026
0.0244768
0.125545
3.37744
0.0233132
0.0239946
0.0242224
0.100636
2.47708
0.0264493
5.96288
0.0248235
0.0244283
2.612
3.41194
8.90825
0.0742823
2.202
0.0241992
0.0283653
0.0668032
0.755302
0.149271
0.0226828
0.0234183
0.0249023
0.0220704
0.656086
3.08121
0.0275238
3.39618
0.0328927
0.375415
1.97721
0.0248118
2.39835
0.024699
14.4421
0.0241036
0.12512
0.0251273
0.144087
0.879356
0.0222564
0.642289
0.0236047
0.0244451
0.044759
0.0232392
3.02404
0.0416732
0.025152
0.0251306
0.101164
0.0771172
6.50837
0.0483786
0.0247488
0.0253267
0.08126
0.024546
0.0231337
0.0580414
3.34023
0.0251498
0.023561
0.0283867
1.95598
0.116231
0.0276316
0.0378768
0.0238881
0.0226318
0.0462399
14.9613
0.0239038
3.56798
0.0252433
0.023022
0.0305407
1.95035
0.0387828
0.172606
0.0300029
2.01032
1.53656
1.04858
0.0227815
0.024566
0.0303878
0.186642
0.0235081
0.0224574
5.162
0.129817
0.487418
0.0475899
2.61192
6.87384
1.45274
0.0263451
9.8824
0.0230353
0.0299332
0.026411
0.023181
6.36601
0.399038
0.531913
0.0578247
0.0322329
0.0235028
0.0255858
0.0248954
0.0916406
0.0263734
0.300824
0.0273693
0.0261307
3.02267
0.0224505
0.0483838
2.27821
0.0241371
0.0246942
13.2131
4.20923
0.0235733
31.08
2.74545
0.030873
0.0377956
2.26291
0.0247846
0.0240715
0.621099
0.040071
0.0821834
0.0272297
3.59499
0.0241709
0.0236543
0.0246919
2.07305
0.0297155
0.0233203
2.65214
0.227351
0.0249835
0.0239323
2.27285
0.0233846
0.0830593
2.5536
0.0236217
3.60636
1.38663
0.0239204
11.0083
5.333
0.0255356
0.0245768
0.367676
0.176451
0.0239096
0.612943
0.0242361
4.56917
0.0399438
0.0232114
0.216422
0.0273314
2.63189
0.0227063
0.0248848
3.42585
28.9257
3.4355
0.0658679
0.0735184
3.40554
0.0283084
0.0262491
0.022672
0.0246342
2.9184
1.47965
0.0424662
0.0276465
0.0889034
2.67849
2.42354
0.0255018
0.149634
0.0290434
0.68343
0.0284221
0.022665
0.025333
0.608504
0.0238916
0.0246342
0.0226624
0.0249023
0.0249409
0.0240399
0.0272452
0.046472
0.0281998
2.24644
0.043106
0.151504
0.0235278
2.48498
0.0231427
0.0341271
0.30123
2.85684
0.0233115
3.03017
0.0308034
0.373425
0.43387
0.0252935
0.0241329
12.9217
0.535198
0.035155
0.13134
0.0268728
0.0233217
1.17153
0.0241118
0.023578
0.0244434
9.98932
2.67719
0.0320097
0.0246583
0.0238776
0.0252338
0.0251403
0.832739
0.101649
0.0569122
0.0249453
0.0245647
0.0281388
0.0245508
0.15225
0.0223375
1.31809
0.369401
0.0245274
0.0220739
0.0240676
0.0452617
0.0554382
2.73953
0.0259237
3.86147
0.0240943
13.1834
0.037837
0.0252289
0.0267513
3.30557
3.34266
0.0891115
3.26431
0.0570205
0.169432
9.22799
4.09208
0.0241766
2.75289
0.0261225
0.0239165
0.0242971
0.0227268
0.0244499
0.134488
0.0413731
1.8564
0.0245487
0.025392
0.024407
3.10947
0.0247135
0.0361312
3.51897
1.99209
4.17487
0.0348176
0.0247831
0.0244406
5.40728
5.48404
0.314442
0.0289514
0.0261042
1.22508
0.054513
3.41708
0.0411845
0.0247365
3.49528
0.0299406
0.0242896
0.0233188
0.0295516
1.80211
0.0257021
0.83431
0.0255722
0.0252528
1.96275
1.01631
4.69755
3.63696
0.0316355
0.0255786
0.0825407
0.0786514
0.0243262
2.77859
0.0957986
5.4
0.0227207
0.246153
0.0253873
0.024649
0.0255725
0.0230796
0.0248886
3.69456
0.431271
3.43091
0.050024
0.321945
3.37849
0.0244502
3.07501
0.0222928
0.0242422
5.8742
0.100997
0.0376865
0.0232466
0.0251449
0.274206
0.0660916
6.95913
2.80158
0.0232851
0.262194
4.36332
0.0256624
0.0221676
0.452785
0.0233741
0.347347
0.0677296
0.0247125
0.0242092
0.024007
0.0741748
0.269894
0.291328
0.0239038
0.45834
0.222319
0.146867
0.0237132
0.110388
0.0240876
0.746418
11.2654
3.04658
0.0256408
0.0384454