/*--------------------------------*- C++ -*----------------------------------*\
| =========                 |                                                 |
| \\      /  F ield         | OpenFOAM: The Open Source CFD Toolbox           |
|  \\    /   O peration     | Version:  v2012                                 |
|   \\  /    A nd           | Website:  www.openfoam.com                      |
|    \\/     M anipulation  |                                                 |
\*---------------------------------------------------------------------------*/
FoamFile
{
    version     2.0;
    format      ascii;
    class       volScalarField;
    location    "100";
    object      p;
}
// * * * * * * * * * * * * * * * * * * * * * * * * * * * * * * * * * * * * * //

dimensions      [0 2 -2 0 0 0 0];


internalField   nonuniform List<scalar> 
53008
(
0.0187024
-0.003767
-0.128364
-0.0168781
0.00804124
0.00135298
-0.00775689
0.0025299
0.00901589
0.00297709
0.00108897
-0.06369
0.00180193
-0.0703637
-0.0422962
0.00599865
-0.0113582
-0.0347093
-0.0617235
0.000171933
0.00411368
-0.29629
-0.00138863
-0.198203
0.00294089
-0.0173923
-0.0357224
0.00206512
-0.0797652
-0.0167221
-0.0641694
0.000290126
-0.1859
0.00245144
0.00246288
0.00246565
0.00093063
0.00586102
0.00570281
-0.114326
-0.00945971
-0.0199818
1.52814e-05
0.0033655
-0.0604691
-0.283058
-0.121895
0.00786913
0.00648137
-0.0138981
-0.0243713
-0.145186
-0.00156808
-0.00100742
0.00680368
-0.10847
-0.142278
0.00348703
0.00347558
0.00274541
-0.00721015
-0.000299389
0.000560201
-0.0252765
0.0034862
-0.0195838
-0.120393
-0.0898355
-0.0138156
0.000379374
-0.00910545
-0.0140093
0.00375941
-0.0141988
-0.0772282
-0.0299924
0.00251746
0.0017701
-0.0167173
-0.0154204
0.00292199
0.00327823
-0.108271
-0.0652638
-0.013009
-0.00712555
-0.0881084
-0.0786219
-0.00619485
-0.00962114
0.00182156
-0.00682859
-0.00696564
-0.0130848
-0.079291
0.0052165
0.0019052
0.00180144
0.00178645
0.000341359
-0.00707536
0.00267015
-0.00759162
0.00203827
-0.00896428
-0.108412
-0.0783674
-0.161706
-0.0357715
0.0111012
-0.135732
-0.11781
-0.0489664
0.00338178
0.0044231
-0.0127297
0.00164017
-0.00108112
-0.0875776
0.0067644
0.00185291
0.00332248
-0.117526
-0.0300686
0.00211888
-0.0751273
-0.0729826
0.0330246
-0.130747
-0.0607976
0.00102198
0.00183842
-0.0407325
-0.00313491
-0.122382
-0.00956502
0.00243023
0.00387697
-0.11764
0.000992773
-0.0830456
-0.117057
0.00660729
-0.00413343
5.80569e-05
-0.0638346
0.0139249
-0.00418413
-0.0018573
-0.0152382
-0.11941
0.00343589
-0.0194894
-0.183673
-0.27417
-0.0164958
0.00973688
-0.099088
0.0013506
-0.0359963
0.00269455
0.00337664
0.00104895
-0.0167616
0.00105449
-0.194712
-0.102494
-0.0510405
0.00192695
0.00261283
-0.00762916
-0.0877875
-0.0291234
-0.0126019
0.00288454
0.00255644
-0.0018421
-0.0125687
-0.101967
-0.0304894
-0.040543
0.00841677
0.00296089
0.00130481
0.00623176
0.00339629
0.00105257
-0.119514
-0.114422
-0.12265
0.00246495
-0.203516
-0.0020393
-0.0809575
-0.143411
-0.0132573
-0.021691
-0.0851093
-0.0132996
-0.036164
-0.0142025
-0.0594513
-0.0664837
-0.0137262
0.0309207
0.00893366
0.00247907
0.00292151
-0.00577802
-0.00349005
-0.00702615
-0.0789089
-0.0246125
0.00357606
-0.108228
0.00450081
-0.073519
-0.0790327
-0.118637
-0.118056
-0.0865743
0.00436208
0.00189701
-0.116977
-0.0720915
-0.0246583
-0.0315692
-0.0417194
-0.0319543
-0.0214417
0.00312909
-0.0215511
-0.0238316
-0.0720199
0.00137951
-0.119709
-0.0238058
0.00316462
-0.00355219
0.00172373
0.0033507
0.0088125
-0.0760906
-0.0212965
0.000447764
-0.0426115
0.00179355
-0.00283599
-0.0210478
-0.0265653
-0.00561512
0.00754805
-0.084268
0.0026865
0.00170674
0.00250879
-0.0235257
-0.0645619
-0.0906707
-0.145521
-0.115736
-0.079574
0.000420198
-0.0014086
-0.0108831
-0.00453789
-0.120199
-0.118306
-0.0164074
0.00546867
-0.0808357
0.00324417
0.00242443
-0.085745
0.00773528
-0.0830176
0.00469804
-0.0607704
-0.000191136
0.00217017
-0.027023
-0.00990132
0.0317989
-0.111275
0.0297533
-0.00711673
0.00393422
-0.116136
-0.238957
-0.144687
-0.0405729
-0.00035532
-0.131229
-0.0796214
-0.0164845
-0.0122319
-0.128745
0.00331412
0.00903225
-0.041616
-0.119713
0.00278219
0.00277279
-0.000717881
-0.117762
-0.110553
0.0020304
-0.0187242
0.00627722
-0.159836
-1.71969e-05
-0.0140009
0.0025444
0.00219436
-0.00373949
-0.0152276
0.00595615
-0.123214
0.00970355
0.00423403
-0.0795606
6.9416e-05
0.00748784
0.0015427
5.38677e-05
-0.112767
-0.0134001
-0.0032489
0.00780371
-0.0203066
-0.00299203
0.00932815
0.00319029
0.00791567
-0.0464118
0.00424315
-0.0142337
-0.0627738
0.00181033
-0.0205558
-0.0616549
-0.0291581
-0.0126363
-0.00248522
-0.113361
0.00171816
-0.077174
0.0016534
0.00307251
0.00343923
-0.000303902
0.00260689
-0.045264
-0.0682465
0.00171877
-0.0486882
-0.114463
-0.243474
-0.168498
-0.0713374
-0.0722744
-0.00835215
-0.0347874
0.00287548
0.00235045
0.00286659
-0.0125077
-0.0748182
-0.160627
0.00567183
0.067168
-0.00164492
0.00667938
0.00390133
-0.00779068
-0.0761222
0.00180766
-0.130923
0.00344948
0.00312611
0.00139709
0.00258624
-0.0142448
-0.058895
0.00116018
-0.0135934
0.00240645
-0.0488592
-0.0342466
-0.0510958
-0.115717
-0.123599
-0.0629743
0.00233503
-0.152733
-0.113995
-0.0377773
-0.000823715
-0.185005
0.00268272
0.00200343
0.00301587
-0.0431976
-0.058028
0.00266766
0.00442655
0.00217966
-0.0956044
0.00230385
-0.0137953
-0.0593678
-0.000553237
-0.0953343
-0.117615
-0.0924262
-0.0135574
-0.00323617
-0.0129914
-0.0013934
-0.00690817
0.00147202
-0.0481707
0.00301293
-0.00927572
0.00413157
7.79209e-05
-0.0132437
-0.219516
0.00421769
-0.0137833
-0.317717
-0.000493486
4.05273e-05
-0.103011
-0.0137286
-0.00140965
-0.143273
-0.0188774
0.00791349
-0.165609
0.00658962
0.00533322
0.000373448
-0.179388
-0.0103348
-0.0154892
5.07468e-05
0.00732291
-0.149929
0.0014435
-0.143914
-0.228884
0.00208388
-0.00334212
-0.306479
-0.130239
0.00728216
-0.0205433
0.002676
-0.172742
0.00251096
-0.0301465
-0.00761703
-0.00747657
-0.00557673
0.0695435
0.00707035
0.0089351
-0.109166
-0.0667175
-0.0900887
0.00775045
0.0348617
-0.160688
-0.00936292
-0.0133122
-0.000431934
-0.0368221
-0.0597077
-0.143986
0.00209477
-0.176263
0.0080912
-0.0153417
-0.00351485
-0.0132877
-0.11576
-0.00952806
-0.119445
-0.0823708
0.00265799
0.00163167
-0.0135934
0.0014141
-0.00303899
0.00158874
-0.0137206
0.00456418
-0.00355118
-0.039607
-0.121474
0.00337137
-0.0103596
-0.00120691
0.011656
-0.145648
-0.0572959
0.00256571
-0.00970784
0.00772788
0.0041328
0.000629934
-0.136369
-0.0490126
0.00200455
-0.100055
-0.000841466
-0.00597603
0.00283216
0.00347358
-0.014323
0.00930789
-0.0137456
-0.0762211
-0.00489981
0.00172148
-0.116563
0.00281402
0.00649242
0.00155002
0.0079041
0.00241166
0.0135755
9.11505e-05
-0.00333641
-0.172284
0.00167228
0.00750198
-0.000540312
-0.00944126
0.00265071
-0.0137667
0.00272512
0.00281432
-0.0593481
-0.235509
0.00348049
-0.113112
-0.0110623
-0.154966
-0.0132815
-0.0227299
0.000717921
0.00326213
0.00222333
0.00218824
-0.0522477
-0.161317
0.00197848
-0.0666989
0.00332031
0.00783525
0.00256885
-0.165381
0.00282162
-0.128508
0.00263836
-0.0176704
-0.0545598
-0.120104
0.00168421
0.00155291
0.00474185
-0.0579848
-0.00686281
-0.13347
0.000465576
-0.0141147
-0.0134921
0.00443556
-0.122591
0.00437276
0.00636565
-0.157939
-0.128299
0.00151381
-0.121395
-0.109831
-0.038464
-0.113735
-0.0233652
0.00426469
-0.116177
-0.157631
0.00276077
-0.0422139
0.00104262
0.0024493
-0.127381
-0.118705
-0.131299
-0.316968
-0.00750752
0.00138961
-0.0321469
-0.0836464
0.0693514
-0.114994
0.00320697
-0.000413509
-0.0989515
-0.00119916
0.00250433
-0.00896461
-0.00390975
0.00131677
-0.14435
0.00192368
0.0133123
-0.00311338
-0.101283
0.000892634
-0.135732
-0.0566363
-0.123378
-0.043479
0.00165734
0.00448722
0.00345836
-0.0160024
-0.0442967
-0.000547147
-0.0450379
0.00461177
0.00291382
-0.0604039
-0.145405
-0.0151752
0.000562681
0.00743501
-0.13836
0.00344627
-0.00357906
0.00254993
-0.0135407
-0.122281
0.00251938
0.00176095
-0.00681394
-0.103544
0.00421423
0.00422338
0.0185544
-0.0132414
-0.075649
0.000656238
0.00423954
-0.0922612
-0.00642302
-0.0629558
-0.00103133
-0.0108515
-0.00680743
-0.0305571
0.00257669
-0.0715127
0.00735375
-0.1452
-0.114247
0.000902567
-0.0616918
-0.124537
-0.0226549
0.0030082
-0.0126911
0.00422273
0.0129549
0.00726097
0.00214242
0.0073636
-0.0338586
-0.130473
0.00613853
-0.050693
0.00302091
-0.000640275
-0.168082
0.00146388
-0.143482
0.00168623
0.0282711
-0.0849597
0.00112282
0.00164488
-0.00385835
0.00147794
-0.0846049
0.00333159
-0.132752
-0.0143325
0.00151974
-0.120822
0.00715128
-0.0536971
0.00293656
-0.0139813
-0.0591611
0.000319496
0.000258659
-0.0067941
-0.0151066
0.0455144
-0.00181643
0.0018561
-0.000225392
-0.187805
-0.0164559
0.00449167
-0.181157
-0.10912
0.00609589
-0.00279435
0.000863401
0.000104673
0.002371
-0.0935144
0.00403745
-0.0337632
0.0693229
-0.00622364
-0.0191056
-0.0243107
-0.0218241
-0.0226188
-0.0139442
-0.0755452
0.00139505
0.00204564
-0.0927324
-0.00391508
-0.119039
-0.0122627
-0.00149961
-0.0798093
-0.00905085
-0.0545226
-0.0355647
-0.00345511
-0.0376648
-0.127133
-0.0443034
0.00157257
0.00689683
-0.133947
-0.00868799
-0.0814865
0.00262797
-0.0531412
-0.0372081
-0.0292066
-0.0203573
0.00681641
0.00238822
-0.0607964
-0.0665405
-0.0230972
-0.130645
-0.0443819
-0.0567408
0.0055166
-0.182282
-0.0799478
-0.12348
-0.0545332
-0.0122601
-0.0485811
-0.0148522
-0.00649548
-0.00854648
-0.141519
-0.139235
-0.0114384
-0.220249
0.0073309
9.529e-05
0.00142293
0.00125771
-0.000735166
-0.138514
-0.127556
-0.0292763
-0.0265841
0.0140655
-0.112953
-0.0438
0.00282442
-0.0100616
-0.123701
-0.0454829
-0.13254
0.00318247
-0.0515797
-0.00278355
0.00319348
0.00130313
-0.0755185
0.00459351
0.000554724
-0.0135029
0.00142468
-0.0112255
-0.00766413
0.00785718
-0.123126
-0.095454
-0.0121303
-0.00612468
-0.143953
-0.00238624
-0.0755774
-0.00718201
0.00244451
-0.0282686
0.00282936
0.0115443
0.00240466
-0.0504045
0.000163542
-0.122278
-0.0286726
-0.161611
-0.0141354
-0.0102069
-0.0133231
-0.156642
-0.000615113
0.00229176
-0.0522957
-0.0842106
-0.0416142
0.00131278
-0.00856015
-0.00132898
0.00256487
-0.0794497
-0.000255499
-0.0387302
-0.08011
-0.153351
-0.323105
-0.0830635
-0.00560047
-0.00170328
-0.0205586
-0.0831624
-0.153466
-0.173781
0.00127134
0.00269564
-0.0891509
0.00301165
-0.00814807
0.00295371
0.00276747
-0.0840548
-0.0744963
-0.159338
-0.0349996
-0.114138
-0.120103
-0.0595128
-0.170519
0.00654124
0.00247018
-0.00573349
-0.0120434
-0.0285014
-0.0156349
0.0029775
-0.0223679
-0.207831
0.00948848
0.00325962
0.00276491
-0.0542729
5.88627e-05
0.00249742
0.00327485
-0.144035
0.0027883
0.00447742
0.00318257
9.65524e-05
-0.0237724
0.00425683
-0.13927
-0.0886148
-0.10045
-0.0771343
-0.0466309
-0.138361
0.00326408
0.0028623
-0.00283188
0.0027723
-0.015271
0.0186783
-0.057637
-0.00942555
-0.0168306
-0.0807651
-0.0150361
-0.0312076
-0.0564486
0.00187335
0.00150761
-0.000480548
-0.0064726
0.041651
-0.00933739
-0.117709
-0.0951122
-0.000454954
-0.00879688
-0.0346471
0.00333968
-0.0265574
0.00261367
-0.0589242
-0.107945
-0.00115552
-0.076971
0.00259532
-0.00856544
0.0161778
0.00425388
0.000503105
-0.174947
-0.0706268
-0.0479447
-0.0806117
-0.161275
0.00312866
-0.0660632
-0.0870157
6.20735e-05
-0.0426605
0.00202027
0.00151371
0.00235754
-0.00128279
-0.00929556
0.00258187
0.00255253
2.34789e-05
-0.0115438
0.0041923
0.00154249
0.000580696
-0.0191212
7.27865e-05
0.00142233
0.000299097
-4.44361e-05
0.000579572
-0.144575
0.0292744
-0.0158636
-0.0350904
-0.0121473
0.00299939
-0.0772781
-0.00347523
0.00247582
-0.321445
0.00314727
-0.150088
-0.12967
0.0114807
-0.0515791
0.00243777
-0.057519
0.000178655
0.00318218
0.00147914
-0.0409857
0.00226154
0.00247628
-0.220486
-0.100103
-0.0119036
0.00245325
-0.00917366
0.0202857
-0.00911061
0.00313316
-0.0647169
0.0190234
-0.0949536
0.00291718
0.00739283
-0.101194
0.00220812
0.000931802
0.0169794
0.00205505
-0.0962245
-0.00134179
0.00374531
0.0043627
0.000691508
-0.00335054
-0.154918
0.00335278
-0.0334231
0.00277892
-0.145037
-0.0135576
-0.00907996
0.00264595
-0.0218414
0.00148125
-0.228069
0.00756393
0.00333028
0.0112259
0.00200446
-0.00373291
6.02496e-05
0.00837143
-0.0105408
-0.0244246
0.0140743
-0.00232597
-0.00880118
0.00706472
0.00849174
-0.0301021
-0.0409289
-0.0974549
-0.0617975
0.000105963
0.00177385
0.00354748
-0.0373131
-0.0411773
-0.0627082
0.00106985
0.00223995
0.0218977
0.00103256
-0.074158
0.00841567
-0.117834
-0.0222371
0.00334796
0.00515569
-0.000370793
-0.127914
-0.0162266
0.00204714
0.00158937
-0.0361994
0.00112509
-0.0157595
0.00254532
0.000633757
0.0167965
-0.0461934
-0.0431693
-0.0995558
-0.149741
-0.0728826
0.0132448
0.00225221
-0.0271414
-0.137756
-0.0506231
-0.00965446
-0.00856448
-0.00663559
-0.0503522
7.22263e-05
0.00300826
0.0047042
0.00472914
0.0010381
-0.00397126
-0.239331
-0.115413
-0.0401659
0.00207098
0.00467312
-0.128679
0.00322266
0.00146831
-0.00023994
0.00108156
0.00446201
0.00743626
-0.0154154
0.00219871
-0.0582321
0.0128477
-0.0101383
0.00220862
0.00428244
-0.0354106
-0.0455103
0.0041826
0.00299232
0.00200281
-0.01885
-0.0532392
-0.00329308
-0.00797334
-0.125794
-0.0385498
-0.0403215
-0.150362
-0.0508225
0.00905458
-0.0110345
0.0192037
-0.0135232
0.0013017
-0.00871939
-0.00271977
-0.00364247
0.00440655
-0.0131575
0.00244423
-0.0348321
-0.0799903
-0.0186891
-0.118336
-0.0219522
-0.0154402
-0.117178
-0.00791736
-0.0261395
-0.121751
-0.103973
-0.227622
-0.0304158
-0.0417425
0.00582726
-0.0240424
-0.151531
-0.0756031
-0.0205151
0.00128971
0.00301973
-0.0716822
0.00675807
-0.00846382
-0.150418
-0.0540652
-0.0752406
-0.00594036
-0.102306
-0.140741
-0.0195484
-0.0298775
-0.00689096
-0.137419
0.0023359
-0.200315
0.00276552
0.0442575
0.0107287
-0.0708679
-0.0344089
-0.0120998
-0.00181857
-0.0683423
0.00271681
0.0136997
-0.0239215
0.00488053
-0.0429211
0.000484035
-0.0327769
-0.0333304
0.00257496
0.00293652
-0.065416
0.0019273
-0.00903301
-0.00059159
0.00466318
-0.0351245
0.00321191
-0.0192816
0.00677846
0.00302608
-0.0419629
-0.000125653
-0.244924
-0.0117049
0.00208459
0.00163216
0.00666618
-0.130721
-0.139652
0.00259686
-0.130046
0.00730696
0.00659417
-0.00800385
-0.0353069
0.0386828
-0.0487342
-0.171875
-0.11589
-0.212019
-0.0185519
-0.0236934
0.00205879
0.00298707
-0.129912
0.00470366
-0.00267622
-0.0272731
0.00152979
-0.018755
0.0284525
0.00177306
-0.0206539
-0.0354872
-0.0100195
-0.133807
-0.0284537
-0.118834
-0.00495963
0.00259929
-0.00997634
0.00253952
0.00275131
0.00109806
-0.00314052
-0.036419
0.00296936
0.00280748
0.000536155
-0.0253999
0.0024302
-0.209318
0.00457772
0.0196359
0.0188923
0.00209226
-0.0258893
-0.0241474
0.00115904
0.00245942
0.00300951
0.00139479
-0.0720551
-0.069351
-0.116438
-0.0138187
0.00287485
-0.169628
-0.0068573
-0.0206131
0.00303319
-0.0121497
0.00490376
-0.135
0.00271613
-0.036073
-0.0160565
-0.0581374
-0.233405
-0.00316548
0.00576509
-0.00452447
-0.0142144
0.00432073
0.0111111
-0.0148303
-0.0976311
0.00671756
0.00212631
-0.038603
-0.00121461
-0.114817
0.00444981
-0.0430878
0.0680027
-0.0120388
0.00479775
-0.041903
-0.0334306
0.00194684
-0.00635604
-0.015137
0.00241137
-0.11307
-0.171742
0.00294891
0.0211285
-0.0745703
0.00156248
-0.0295487
0.00239033
0.00241202
-0.0964588
-0.0208561
-0.0604205
0.000909589
-0.00751164
0.0026798
0.0110507
0.020858
0.00428736
-0.0022884
0.00456199
0.00292184
0.00489839
-0.0716657
0.00343667
-0.0382771
0.00206414
-0.0144063
0.00103638
0.00269968
-0.0112824
0.00234857
-0.150155
0.0391426
0.00661433
0.00246356
3.14719e-05
0.00492098
-0.128809
0.00429598
0.0300299
8.02217e-05
-0.0236154
-0.0805637
-0.0165372
0.00247099
-0.199194
-0.00280143
-0.0890716
-0.0386119
-0.0603497
-0.271025
-0.036296
-0.0739337
0.00174495
0.00341428
-0.136841
-0.102758
0.0016579
-0.123425
-0.11111
0.0564457
0.00244225
-0.0126677
-0.00280776
-0.0187753
-0.0280209
-0.00713214
0.00295616
-0.0110575
-0.200257
-0.0239107
-0.00100118
0.0208722
-0.00504165
-0.117357
-0.00333005
-0.0027159
-0.00472655
-0.0495178
-0.0107239
-0.117977
-0.0361731
-0.00157701
-0.130905
-0.15221
0.00296703
0.00111258
0.00248927
-0.0423314
-0.1357
-0.102818
-0.0749884
-0.0231226
0.000949747
-0.0119206
0.00208336
0.00257571
-0.0432475
-0.118627
-0.0212792
-0.00905331
-0.0106895
0.010428
0.00354445
-0.10014
-0.00649299
-0.10176
-0.0369165
-0.0385422
0.00263236
-0.121533
-0.157097
-0.110906
-0.020201
0.00282336
-0.0123441
-0.14008
-0.039655
-0.200585
-0.00526
-0.154845
-0.0217397
-0.228176
-0.0780573
0.00156238
-0.0481104
0.00443762
8.46628e-05
0.0063752
0.00350086
0.00250369
0.00428442
0.00332986
-0.0072679
-0.0183514
0.00280344
-0.137487
0.0053013
-0.0658135
-0.0383732
-0.172764
-0.0318324
-0.0394376
-0.121303
-0.00713554
-0.0521533
0.00127206
0.00743359
-0.098245
-0.0743955
-0.0245409
-0.0676753
0.0032249
-0.113712
-0.00140729
-0.0362712
-0.00172723
0.00484371
-0.00315852
-0.116782
-0.00409666
0.00904823
0.00205904
-0.240797
-0.00160417
0.0202058
0.00627835
-0.0102812
-0.0400742
-0.0995774
0.0120466
-0.233624
4.33756e-05
0.00200731
-0.182092
-0.0175972
-0.0114299
0.00461896
-0.0199389
0.00387415
-0.0938984
0.00305486
0.00236371
-0.0137006
-0.0344256
-0.117448
0.000233511
-0.0200283
-0.0201817
-0.0043819
-0.0190766
-0.0205925
-0.00174756
-0.0170859
-0.000720212
0.00549784
0.00225317
-0.00511939
0.0117606
0.00417065
-0.00841149
0.00248673
0.000895934
-0.0133589
-0.0416452
-0.0384926
0.00436114
-0.0218164
-0.00764475
-0.0066808
-0.0578619
0.000801037
-0.122036
0.00219297
0.000810729
0.0038175
-0.000920083
-0.102479
-0.0393286
0.0035348
0.00209276
0.0191928
0.0183728
0.00244814
-0.139228
-0.0125287
-0.0585564
0.00249237
-0.0233978
0.00453998
-0.119367
-0.103744
0.000327243
-0.117847
-0.116912
-0.143036
-0.0662487
-0.0772549
0.0035092
-0.0195018
-0.0168194
-0.20158
-0.114742
0.00626818
-0.00340703
0.00158099
-6.56169e-05
0.0029372
-0.0191562
-0.116839
0.00272731
-0.018104
-0.197329
-0.018158
-0.0088912
0.00426717
-0.0234969
0.000687766
0.00312847
-0.0255582
-0.0110538
0.00259645
-0.131814
-0.121254
-0.130572
0.000324588
-0.0295463
0.00414262
0.00420644
-0.00761896
-0.00924704
6.92721e-05
0.00393824
0.00147676
-0.0652819
-0.115701
-0.0171113
-0.0498101
-0.00238589
-0.00268715
-0.0278129
-0.00618986
0.00243834
-0.120809
-0.0618395
-8.58553e-05
2.21594e-05
0.00243172
0.00393257
0.0119831
-0.0511597
0.00166084
-0.00400796
0.00224668
0.00264811
0.0173775
-0.0874349
-0.0433059
-0.0109333
0.0414941
-0.064637
-0.00493022
-0.00969211
-0.0623744
-0.0189695
0.0425122
0.00995453
-0.028359
-0.00274848
-0.000557804
-0.142339
-0.0061313
-0.0003308
0.00286929
0.00423291
0.00212383
0.00208676
0.0026544
-0.16339
-0.130751
-0.02424
-0.0253144
-0.124929
0.00326255
0.0043089
-0.00440402
0.00735208
0.00600202
-0.00962872
-0.0114296
-0.0404011
-0.0163574
0.00182078
-0.00868481
-0.127569
-0.114525
-0.071464
-0.0230936
-0.00641688
0.000233094
-0.0122916
0.00825483
0.00204317
-0.310428
0.00445956
-0.00087621
-0.135224
0.00291147
-0.0239606
0.00278929
-0.0903753
-0.166015
-0.0224598
-0.139364
0.00349392
-0.0453275
-0.000975193
-0.172739
0.00286145
-0.115424
-0.110719
-0.0345787
-0.139391
-0.0365806
0.00258395
0.00502844
0.019332
0.00838287
-0.0013046
-0.105065
0.00489278
0.0116006
-0.0114054
-0.00643318
0.0101704
0.00229769
0.0021188
-0.00330126
0.00310065
0.00272097
0.00452734
0.00353291
0.00348697
-0.137912
0.00275397
-0.0253624
-0.177663
-0.00881527
-0.0989394
0.00095292
-0.00547129
0.00274602
0.00234282
0.0125125
0.00317864
-0.035633
-0.0602079
-0.130622
-0.0228137
0.00157215
-0.145445
0.00649559
0.00224254
-0.0305088
0.00239094
-0.00705224
-0.0200306
0.000920398
0.000557488
-0.000204328
-0.00366996
0.00272622
0.0028083
-0.105594
-0.132819
0.00998782
0.00434999
0.00735795
0.00276003
-0.135098
0.00228855
0.0277819
-0.0329784
-0.110465
-0.0588339
0.00688161
-0.155473
-0.193503
0.00293662
-0.00184989
-0.0251453
-0.00056794
-0.0103973
-0.0335663
0.00917847
0.00254292
-0.00723911
-0.12328
-0.1219
0.00699196
-0.000444366
-0.123871
0.0023192
0.00281968
0.00575239
-0.0207388
0.00707984
0.00114592
0.00126541
-0.0814752
-0.117214
-0.00218788
-0.0208384
-0.0729323
-0.0742425
0.000166295
0.00160416
-0.0386001
-0.12278
0.00274471
0.00168936
0.00916676
-0.00133472
-0.0223745
0.00125488
-0.0743525
-0.0239421
0.00137887
0.00351836
-0.0472917
0.00471293
-0.056568
-0.03751
-0.0111521
0.0039491
0.00257355
-0.115624
0.00101789
0.00255325
-0.054775
-0.0348945
-0.0488607
0.00267745
0.00323302
-0.0487817
-0.131573
0.00150263
-0.0385953
-0.128009
-0.0346385
0.00107135
0.00287267
-0.0600397
-0.0463334
-0.110805
-0.00235159
0.00171313
-0.156708
0.0015658
-0.00544492
0.00147604
-0.0599984
-0.0146221
0.0116167
-0.014435
-7.47966e-05
0.00280446
-0.00263153
-0.0312206
-0.0276417
-0.0461946
-0.16957
0.00557696
0.0026815
0.00257004
-0.0130094
0.00367913
0.00298577
-0.0543472
-0.00676952
-0.0770251
0.00380139
0.0100667
0.00148511
-0.00299497
-0.0366883
-0.00133923
-0.00192886
0.00177617
-0.014124
-0.00124173
-0.0432485
-0.0989105
0.00497793
-0.122666
0.00145649
0.0024576
-0.0430457
4.88553e-05
0.00275075
-0.0192411
0.00474948
-0.0360385
0.00821813
0.00160395
-0.0727735
-0.00508182
0.00149921
-0.00515623
-0.00904888
0.00324556
-0.020146
-0.19921
-0.0392445
0.00302261
-0.0994614
-0.119293
-0.00750517
0.00268657
0.00370184
-0.0139016
-0.0248075
-0.0717764
-0.0228869
0.00870975
-0.109822
-0.0150564
-0.0201505
-0.0103215
0.00610893
-0.0326393
-0.0393542
0.00266759
0.00104593
-0.130839
0.00173903
6.60745e-05
-0.038362
-0.0995571
-0.0128808
-0.0232534
-0.0133992
-0.00258716
-0.0367189
-0.174017
-0.0355352
-0.0275394
-0.123839
0.00937563
-0.011535
0.00198595
8.35262e-05
0.0129915
0.00138385
0.00167498
0.00455611
0.0014461
-0.0241043
-0.0216931
0.00852317
0.00307664
-0.0470692
-0.015157
0.0647161
-0.0356543
0.00136204
-0.020486
0.00597485
-0.0220812
0.00184211
0.00235993
-0.303056
0.00328937
-0.0140518
-0.105265
0.00202415
-0.155176
0.000474998
0.0044244
-0.077252
-0.00162403
-0.0495534
-0.00699964
-0.060632
-0.0055531
0.0025662
0.00197353
0.00158592
0.00139025
-0.15013
-0.0117556
-0.0442707
-0.0451409
0.00243139
-0.00491469
0.00198605
0.000573029
0.00280008
0.00868573
-0.0447588
0.00195303
-0.0139775
-0.00310042
0.00295709
-0.00566836
-0.0824146
-0.116689
0.00220564
-0.00801097
-0.123027
-0.117193
0.0036898
-0.165519
0.00336928
0.00303172
0.00701611
-0.132194
0.00441584
-0.00528092
-0.130486
-0.0116248
0.00250922
0.000787522
-0.0545689
-0.0219211
-0.0421532
-0.00531134
0.00133731
-0.0495631
0.00298175
0.0102552
-0.13686
0.00283869
-0.0125034
-0.0431499
-0.0984577
-0.00690364
0.00255173
-0.113139
-0.0188214
-0.0134548
-0.0358485
0.00114122
0.00299975
-0.151093
-0.000425676
-0.0151825
0.00266522
-0.0810384
-0.123614
-0.0346748
0.00638331
0.00190366
0.00367628
-0.0710427
0.00639726
0.00666226
-0.16675
-0.00035881
0.00144067
0.00706216
-0.0180988
-0.0649363
0.00380449
-0.0098025
0.00246958
-0.0300791
-0.0181119
0.000575739
0.00508579
0.0071481
-0.10816
0.00174634
-0.0221316
-0.228938
0.00246663
-0.0376784
0.000330521
-0.000535576
0.00109381
-0.00442988
-0.114758
-0.0081383
-0.00536792
0.0459387
-0.241479
0.00280792
-0.00673785
-0.00453649
0.00239643
0.00892511
-0.143667
0.00267365
-0.0506526
6.39231e-05
0.00492024
-0.0289799
0.00688078
-0.0245506
-0.0500201
0.00118977
-0.00857954
-0.152602
-0.00141094
-0.162127
-0.0298851
-0.0331764
0.0032496
0.000686332
0.00162714
-0.000364
0.00769244
0.00084229
-0.0445118
-0.00584579
0.00206055
-0.111957
0.0124504
-0.012243
-0.010435
-0.00130267
-0.0264624
-0.01886
0.00279894
-0.0210997
0.00684477
6.83201e-05
-0.0212594
-0.0545623
-0.329123
-0.0173457
-0.00589914
0.00228464
-0.141676
-0.00292451
-0.0738192
0.00215969
-0.0734001
0.00443927
-0.011652
-0.0138021
-0.0172007
-0.00170219
0.00279427
-0.111068
0.0033873
-0.0378061
0.00790117
-0.144227
-0.00505295
0.00301005
0.00115218
0.000491914
0.00252817
-0.0102601
-0.107657
-1.33576e-05
-0.0276118
-0.0115918
-0.00390074
-0.00375106
-0.0183178
-0.0328262
-0.114749
0.00386135
-0.0228224
0.00411146
-0.138835
-0.0438191
0.00359961
0.043613
-0.145633
-0.150961
-0.0176332
-0.0172119
-5.34155e-05
-0.0127475
-0.138548
-0.0931009
-0.0213844
0.00193403
0.00500018
-0.0573112
-0.0316657
-0.0754117
0.0177829
-0.0770886
-0.0765325
0.00232613
-0.0188065
0.0018665
-0.0184977
0.00897588
0.00305874
-0.00653463
-0.0389077
-0.0341683
-0.0136849
-0.0025027
-0.0666264
0.00458842
0.000252852
-0.177161
-0.00212451
-0.0229728
-0.0939327
0.0079924
-0.0391689
-0.09935
0.00231603
-0.0217695
0.00311813
0.00300747
0.0028472
-0.0203458
-0.0223533
-0.0862307
-0.033129
-0.164785
-0.00517283
-0.0193773
-0.0498898
-0.00512703
0.00190875
0.00315077
0.00645821
-0.0291313
0.00277437
0.00458726
-0.000105018
-0.0929331
-0.155709
0.00209727
-0.0152853
-1.62078e-05
0.00575293
-0.00304535
-0.00653748
0.00857975
-0.0244996
-0.0303702
-0.0139181
-0.33045
0.00262943
-8.79514e-05
-0.0140492
0.000546533
-0.00645285
-0.00422133
0.00329945
0.00268554
-0.01231
-0.00199802
-0.00991953
-0.000129063
0.00243013
0.00696643
-0.0120571
3.5289e-05
0.00551024
-0.0477677
0.00783603
0.00131135
0.00201672
0.00655362
-0.0983271
-0.00603446
-0.0815974
-0.0861301
0.000988624
0.00153625
-0.00626145
-0.00617201
0.000380408
-0.0405321
-0.114913
0.00254864
-0.00400244
0.00317713
0.00160418
0.00735159
0.0024451
0.00271971
-0.199189
-0.0316776
0.00378908
-0.0137819
-0.0199268
0.0045225
-0.00399088
-0.0118018
-0.0116073
5.60838e-05
-0.0665433
-0.111195
-0.0249279
-0.00552613
-0.109655
-0.0319991
0.00501452
0.00693553
-0.0600952
-0.107858
0.00122762
-0.0201271
0.00376938
3.62031e-05
-0.00840605
-0.0997414
0.0540539
-0.0354828
-0.00285826
-0.0210497
-0.0339523
-0.0343618
0.00412469
0.00250329
-0.0194512
-0.0486484
0.00191307
-0.0322483
-0.134527
0.00229319
0.00444832
-0.0236761
0.00327362
0.00580569
0.00373544
-0.0158257
0.00169147
-0.011712
-0.000907158
-0.0498045
0.0047497
-0.00713908
-0.00499525
0.0027341
-0.00137721
-0.105541
0.00279472
-0.045577
-0.00112737
0.00475406
0.00475405
-0.0115203
-0.0284487
0.00279456
0.00585359
0.00297135
-0.0271609
-0.011971
0.00183494
-0.000835386
-0.00621302
-0.106968
0.00298994
0.000389368
0.00316617
-0.0232326
0.00123766
-0.0207286
-0.186772
-0.127751
0.000394863
0.00185131
0.00281376
-0.00169283
-0.0223728
-0.0689689
0.00475016
-0.0406044
0.00612337
0.00265857
-0.0447225
0.00101944
0.00245346
-0.00471483
0.00320921
-0.00354313
0.00194443
0.014405
0.00457243
-0.0125763
0.00431814
-0.0261523
0.00326144
0.00275097
-0.0452679
0.00258315
-0.00451187
-0.0655941
-0.043498
-0.0228636
0.00130649
-0.115987
-0.0789283
-0.01924
-0.0107756
-0.0660547
0.00375655
-0.000650236
0.00675569
0.0112413
-0.0176493
-0.0456149
-0.0361842
-0.0159043
0.000761285
0.00570949
-0.0351799
0.0017719
0.00152697
-0.0923241
-0.0242266
0.0377297
-0.019495
-0.0362695
-0.0206558
-0.00595228
-0.0343726
-0.01419
-0.0807585
-0.0222797
0.00208269
0.00269917
-0.00710214
-0.00991253
0.038572
0.0114197
-0.00505141
0.0114989
-0.0356178
-0.0739658
-0.0216643
0.000573772
0.00315742
-0.0214671
-0.0313314
0.00662399
0.0011849
-0.0185867
-0.139173
0.00152521
-0.0110992
-0.0145245
0.0016499
-0.0201456
0.00278775
0.00498647
0.00200348
-0.0101202
-0.0402192
-0.00353567
0.00144617
0.00222577
0.00215929
0.00262385
0.00591325
-0.0499392
-0.00250429
0.00136951
0.00072175
-0.0780376
0.00241811
-0.020046
-0.0012256
-0.0281896
-0.0524841
-0.0370556
-0.0374957
0.00267018
0.00604886
-0.0188843
0.00424316
0.00500271
-0.0177833
-0.00147265
-0.0887819
-0.0180299
-0.0876167
0.00906991
1.70848e-05
-0.0507003
-0.0357724
0.00300826
-0.000108431
0.001227
0.0193078
0.00161726
-0.0123039
-0.0532119
0.00235909
0.0249966
0.0247616
-0.00227871
-0.0671508
-0.0729814
-0.177042
0.000594029
0.00351918
0.00153572
-0.176962
0.00280084
-0.0815212
-0.0621749
0.00907889
0.0015423
-0.0219641
0.0110931
-0.129399
0.0018753
-0.125294
-0.137662
-0.064176
-0.155938
-0.0421759
-0.0200153
-0.12303
-0.106286
0.00667994
-0.026214
0.00272739
-0.00326892
-0.0204569
-0.0843696
-0.00476945
-0.026683
-0.0149752
0.00304094
-0.000374406
-0.0025274
-0.00357146
-0.0319088
0.00125316
-0.000394594
-0.0830184
-0.0174861
-0.0037437
-0.0329329
-0.00446967
0.0183849
-0.0475658
-0.0454344
-0.0304114
0.00248257
-0.000155917
-0.00766765
-0.0294166
-0.0287992
0.00264319
-0.00682136
0.00963239
0.00251474
-0.0208916
-0.0157132
0.00256662
-0.0649704
-0.0984822
-0.00792923
-0.0172523
-0.0936043
0.00274639
-0.10362
-0.0208501
0.00400767
0.00418335
-0.0238943
-0.00613925
-0.0514961
-0.0752962
-0.115583
0.00754747
0.0024678
0.00194265
-0.0222957
-0.0567734
-0.0296525
0.012562
-0.00650798
-0.0209306
0.00718259
-0.0384039
0.000533789
0.0392816
0.00267292
0.00463461
-0.0995844
0.00377946
1.65588e-05
0.00927446
0.00756971
-0.0088704
-0.0409723
0.00579302
-0.0240743
0.00155846
-0.0207265
-0.0336994
-0.0158337
0.00237224
0.00057163
0.0003697
4.05462e-05
-0.00314942
0.00147996
-0.00164811
-0.00760345
0.000734919
-0.134172
-0.00404458
-0.110991
0.00171474
0.000146101
0.00279074
0.00234773
-0.00496882
0.00331645
0.00299007
-0.0133887
-0.122031
-0.0122708
-0.0540623
0.00119781
0.00442206
-0.0582076
0.00623887
-0.123522
-0.0457082
0.00376446
-0.00925988
-0.0304814
0.00300325
-0.0821644
0.0043697
-0.0979429
-0.0212213
-0.060894
-0.0102717
-0.0297064
-0.0281837
-0.0565336
1.47039e-05
0.00265671
0.00536831
-0.134265
-0.00404242
0.00342927
0.00203023
-0.0105832
-0.0280454
-0.0724523
-0.037277
0.00302103
-0.0541973
-0.022601
0.00245992
0.00124842
-0.0961428
0.00644648
-0.0969455
-0.12546
-0.033017
-0.0792964
-0.0133688
-0.00135865
0.00619509
-0.0351663
-0.00273975
0.00189026
-0.0331428
0.00179777
-0.13441
0.000382288
0.00343771
0.00375869
-0.0206593
-0.118618
-0.00947612
-0.0821263
0.00441372
-0.00136356
-0.0149672
0.0104402
0.0160293
-0.0219322
-0.0259314
0.000487026
-0.00450079
-0.0111687
7.18658e-05
-0.00982606
-0.0135655
-0.0478903
-0.00362866
-0.0892506
-0.0454105
0.00690699
-0.01965
-0.0128507
0.00278568
-0.0432028
-0.111938
-0.036602
0.0042794
-0.133227
0.00548933
-0.0204375
0.00215382
-0.0145074
-0.0492307
-0.0270629
-0.0275332
-0.315264
0.0084668
0.00221837
-0.0186368
0.00265296
-0.128139
-0.0804822
-0.14519
-0.00134439
-0.243888
-0.00480821
-0.122106
-0.113919
-0.0274869
-0.0563787
0.00021239
-0.165151
0.000128286
-0.000994043
-0.148619
0.00368947