/*--------------------------------*- C++ -*----------------------------------*\
| =========                 |                                                 |
| \\      /  F ield         | OpenFOAM: The Open Source CFD Toolbox           |
|  \\    /   O peration     | Version:  v2012                                 |
|   \\  /    A nd           | Website:  www.openfoam.com                      |
|    \\/     M anipulation  |                                                 |
\*---------------------------------------------------------------------------*/
FoamFile
{
    version     2.0;
    format      ascii;
    class       surfaceScalarField;
    location    "100";
    object      phi;
}
// * * * * * * * * * * * * * * * * * * * * * * * * * * * * * * * * * * * * * //

dimensions      [0 3 -1 0 0 0 0];
oriented        oriented;


internalField   nonuniform List<scalar> 
78975
(
0.0805114
-0.203138
0.122626
0.126939
-0.113751
-0.0131888
0.0132914
-0.00922941
-0.00406202
-0.0722281
-0.145127
0.217355
-0.0833765
-0.136876
0.220252
-0.165476
-0.143006
0.308482
0.175336
0.063144
-0.23848
0.359332
-0.182422
-0.176909
-0.207494
0.169049
0.0384447
-0.121031
0.302622
-0.181592
0.224348
0.0681728
-0.292521
-0.079169
0.0332254
0.0459436
0.3881
-0.312584
-0.0755159
0.00084734
0.000138834
-0.000986174
0.135377
-0.240118
0.10474
0.0960557
-0.157021
0.0609653
0.223648
-0.328833
0.105185
0.243348
-0.207816
-0.0355328
0.129548
-0.110592
-0.0189551
0.333155
-0.091373
-0.241782
0.282244
-0.191778
-0.090466
0.00070107
0.00403306
-0.00473413
0.0918075
-0.02989
-0.0619175
-0.00857653
0.000207435
0.0083691
-0.298439
0.177409
0.184091
-0.0879009
-0.0961906
0.200176
0.0431721
0.361477
-0.161059
-0.200417
-0.0196171
0.00745667
0.0121604
0.163954
-0.0799532
-0.0303676
0.110321
0.0830786
0.250076
0.0105057
-0.00642945
-0.00407621
0.31051
-0.241736
-0.0687742
0.10748
-0.336409
0.228929
0.305889
-0.198409
-0.175774
0.321167
-0.145393
0.256936
-0.254406
-0.00252984
-0.198576
-0.0605983
0.259174
0.00351795
0.00626417
-0.00978213
-0.00313475
0.0336232
-0.0304885
0.00129518
-0.00594451
0.00464932
-0.131264
-0.172429
-0.355672
0.168589
0.187083
0.000112741
9.88033e-05
-0.000211545
-0.00457233
0.0052734
-0.00625413
0.00130087
0.00495326
0.134324
-0.2177
0.0110329
0.245903
-0.00348446
0.0119015
-0.178684
0.0847017
0.0939821
0.0177438
-0.0297491
0.0120053
0.350054
-0.20303
-0.147024
0.108461
0.0753359
-0.183797
0.280665
-0.204579
-0.076086
0.0303519
-0.0488786
0.0185267
-0.00898343
0.0278949
-0.0189114
-0.308272
0.137089
0.171183
-0.32064
0.118536
0.202103
-0.337395
0.242017
0.0953779
0.0817774
0.178457
-0.260234
0.164294
-0.293087
0.128792
-0.142114
0.234604
-0.0924899
-0.120177
-0.0585063
-0.224735
-0.0959044
-0.00750068
0.00879586
-0.00823679
0.0178359
-0.00959909
0.0555899
0.0147793
-0.0703692
0.182211
0.0271751
-0.209386
0.125235
-0.249068
0.123833
0.309382
-0.0969064
-0.212476
0.286036
-0.197166
-0.0888699
0.320873
-0.230198
-0.0906756
0.308706
-0.140713
-0.167993
0.0734253
0.00580621
-0.0792315
-0.122053
0.164311
-0.0422576
0.212792
0.146539
-0.194542
-0.088738
0.28328
0.107463
0.0766283
-0.0951159
-0.106466
0.201582
-0.116869
-0.18157
-0.346099
0.245245
0.100854
0.0584224
-0.0280705
0.0239904
-0.103944
-0.340831
0.0943254
0.246506
0.13272
0.0389341
-0.171654
0.0933699
-0.0419229
-0.051447
-0.114274
0.0518509
0.0624234
0.0994161
-0.175267
0.0758505
0.153015
0.0999979
-0.253013
0.324075
-0.272395
-0.0516805
-0.180066
0.286008
-0.105942
0.171053
-0.263859
0.092806
-0.228578
-0.112254
-0.0557196
-0.0585546
0.130436
-0.171931
0.0414951
0.229948
0.0321983
-0.262147
0.281394
0.042681
0.145252
0.242848
0.257015
-0.13178
-0.18817
0.269947
-0.170322
-0.167073
0.00989263
0.0819149
0.251702
0.109775
0.0704647
0.238917
0.0235226
-0.0549772
0.0314546
0.0201097
0.0448106
-0.0649203
-0.00702759
-0.013902
0.0209295
0.0814602
-0.174905
0.0934453
0.156022
-0.220294
0.0642722
-0.00953848
-0.00507505
0.0146135
0.00830039
-0.0191919
0.0108915
0.075047
-0.0843913
0.00934425
-0.253707
-0.0101072
0.263814
-0.120389
0.207237
-0.0868483
0.142978
-0.231851
0.0888733
-0.0721694
0.288938
-0.216768
0.17702
-0.0685587
0.045575
0.047795
-0.0568329
0.187268
0.374339
-0.281979
-0.0923599
0.0766937
-0.22318
0.146486
0.0345367
-0.0358365
0.00129981
0.117494
-0.126137
0.00864294
0.362165
-0.251641
-0.110523
0.0123205
0.0193396
-0.0316601
0.13733
-0.17029
0.0329608
-0.0703866
-0.0155945
0.0859811
0.0100229
-0.00838134
-0.00164154
0.0152947
0.114253
0.28917
-0.241579
-0.0475911
0.101944
0.0397594
0.0616588
-0.101418
0.0524236
0.0953454
-0.147769
-0.0164054
0.00816859
0.258029
-0.105014
0.289332
0.00379848
-0.293131
-0.310769
0.126549
0.18422
0.018017
-0.00971658
0.265635
0.0235353
-0.00128651
0.00104574
0.000240774
0.020159
-0.0102632
-0.00989579
0.201054
0.0221254
-0.223179
-0.348786
0.252102
0.0966832
-0.190735
-0.11139
0.302124
0.0824852
-0.112853
-0.212214
0.0818939
0.13032
0.130927
-0.0039875
0.277945
0.0106049
-0.28855
0.266832
-0.185574
-0.0812578
-0.0102715
0.00256999
0.00770147
-0.306682
0.211002
0.0956801
-0.0616508
-0.0462642
0.107915
0.0203151
-0.00455051
-0.0157646
-0.00616024
0.00158791
0.109729
0.0739129
-0.183642
0.225381
-0.109952
-0.115429
-0.0265267
0.0374745
-0.0109478
-0.289602
0.124126
0.187806
-0.106346
-0.118792
0.324428
-0.205636
-0.263198
-0.0924735
-0.0543162
0.263705
-0.209388
0.231227
-0.247142
0.0159148
0.214698
-0.269014
-0.00621967
-0.00235687
-0.0743084
0.0551462
0.0191622
0.0353333
-0.0146908
-0.0206425
0.039614
-0.278431
0.238817
0.224971
-0.361355
0.136384
-0.0729479
0.134055
-0.0611069
-0.0247457
0.122462
0.0416805
-0.164142
0.0806507
-0.294292
0.213641
0.177235
-0.294104
0.323236
-0.0693485
-0.253888
0.246795
0.0311502
0.251457
-0.10848
-0.0568236
-0.0174847
-0.00279231
-0.119261
0.0741538
-0.115487
0.0413329
-0.158878
-0.0486156
0.324493
-0.212708
-0.111786
0.192388
-0.335394
-0.120954
0.0334548
0.0874988
0.0737379
-0.327445
0.0979814
-0.311921
0.21394
-0.0022738
-0.00799766
0.0104764
-0.00695849
-0.00221832
0.00892294
-0.00670462
0.279336
-0.0691817
-0.210154
-0.0234343
0.00497017
0.0184642
-0.107114
0.164402
-0.0572884
0.0556531
-0.0355434
0.0333091
-0.0155653
-0.329421
0.100844
0.216743
-0.218988
0.00224446
-0.00507887
0.0505501
-0.0454713
-0.0673109
-0.262111
-0.0397387
-0.0760396
0.115778
0.0871057
-0.255991
0.168886
-5.91499e-05
0.000171891
0.0888849
-0.0563061
-0.0325788
-0.299647
0.149365
0.150282
-0.0785892
0.0901458
-0.0115566
-0.312738
0.152442
0.160296
0.0635552
0.21578
0.0837045
0.145731
-0.229436
0.19166
-0.219143
0.0274833
-0.0318919
0.0287572
-0.12978
0.0568316
-0.0968675
0.0529603
0.0439072
-0.0136419
-0.194977
0.208618
-0.145557
0.222251
-0.0114042
-0.00745671
0.0188609
0.0502456
-0.207048
0.156803
0.000791319
5.6021e-05
-0.105805
0.0487507
0.0570538
0.00784391
0.0123151
-0.0184252
0.00816196
-0.00295286
0.0520921
-0.0491393
-0.152816
0.203061
-0.0273673
0.257316
-0.0401997
0.0175782
0.0226216
-0.00910289
-0.0528434
0.0619463
-0.00283084
-0.00919638
0.0120272
-0.0183054
-0.106331
0.124636
0.224654
-0.0892767
0.101253
-0.119559
0.199827
-0.187351
-0.0124765
0.325242
-0.219693
-0.10555
0.23296
-0.0162167
0.0535642
0.142453
-0.196017
0.178744
-0.041414
0.200733
-0.290288
0.0895542
-0.0163341
0.039906
-0.0235719
0.156
0.052567
-0.208567
-0.139475
0.14378
-0.0245214
-0.119258
-0.350465
0.274155
0.07631
0.254693
-0.258254
0.00356022
-0.163003
-0.149735
-0.0377531
-0.0380355
0.0757886
0.00150349
0.211106
-0.212609
0.13562
0.121395
-0.237384
0.0509227
0.186461
-0.301398
0.106856
0.103348
-0.289214
0.185866
0.0371661
0.162661
-0.111041
-0.0170941
0.128135
0.0439174
-0.069033
0.0251156
0.288355
-0.236236
-0.0521188
0.0784422
-0.0635395
-0.0149027
-0.318202
0.19941
0.297989
-0.0401627
-0.257827
0.331024
-0.118232
-0.20446
0.190818
0.0394627
0.0494222
-0.00736383
0.0555685
-0.0482046
0.00489639
-0.0145801
0.00968375
-0.0209919
0.012925
0.00806692
-0.0539537
-0.107257
0.242878
0.172074
0.17798
0.274847
-0.140031
-0.172698
-0.176087
0.0178432
-0.0129795
-0.00486376
-0.011348
0.181665
-0.071936
-0.237695
-0.00647703
0.244172
0.0838706
-0.0536662
-0.0302045
0.388409
-0.249824
-0.138585
0.249697
0.0396351
-0.0687263
0.0657735
0.266929
-0.0857298
-0.181199
-0.0545489
0.04947
0.0852341
-0.205623
-0.00957695
0.00092742
0.00864953
-0.299234
0.29358
0.00565468
-0.316274
0.316274
0.0399418
-0.150983
0.141895
-0.0862963
0.00770714
0.050393
-0.0268704
0.0576147
0.0282851
-0.0858998
0.277082
-0.0986252
0.212235
-0.277085
0.0648501
-0.0145128
-0.00647916
0.0135179
-0.0206217
0.00710374
-0.0145481
0.0279722
-0.0134242
0.243538
-0.208665
-0.0348723
0.00513788
-0.173011
0.167873
-0.000413867
0.0104367
0.0500711
0.0337996
0.209793
0.0214345
0.159767
0.0916902
0.00747047
0.00582095
-0.220196
-0.0725681
0.292764
0.129029
0.0963522
0.0377446
0.205793
0.0122834
0.00555988
-0.101644
0.306479
-0.204835
-0.328921
0.227277
-0.211894
0.306396
-0.0945016
0.00334564
-0.00387038
0.00052474
0.0359416
0.0199651
-0.0559067
0.330346
-0.0786447
-0.0194365
0.117982
-0.0985453
0.271645
-0.0705914
0.00656422
-0.0225199
0.0159557
0.175895
-0.202666
0.0267714
0.206035
0.080001
0.238506
0.0847301
0.108735
-0.275621
0.166886
0.0331648
0.110615
-0.109758
0.259678
-0.14992
0.0405514
-0.239128
-0.00985398
0.00763566
0.120293
-0.177126
-0.207675
0.305883
-0.0982077
-0.0481168
-0.310963
0.160908
0.150055
0.0710214
-0.0632664
-0.00775507
0.117817
-0.302145
0.184328
-0.326788
0.129488
0.1973
-0.0187462
0.007342
0.00541022
0.00304824
-0.00845846
-0.263895
0.290824
-0.026929
0.159458
-0.194417
0.0349595
-0.133835
-0.0748793
0.208715
0.248174
-0.0719172
-0.176256
0.191716
-0.071423
-0.337162
0.238155
0.0990075
-0.0600508
0.189602
-0.129551
0.200359
-0.23332
0.0329606
0.101919
-0.254524
0.152605
0.00987519
-0.0127516
0.00287642
0.11348
-0.030995
0.244433
-0.271801
0.048418
-0.182253
-0.11683
0.0855489
0.0312807
-0.020841
0.138335
0.0105816
-0.0128369
0.00225527
0.187919
-0.182781
-0.0129994
0.0503722
-0.0373728
0.285899
-0.2474
-0.0384988
0.110084
-0.00752788
0.223063
0.0649853
-0.288048
0.250849
-0.351457
0.100608
-0.23071
-0.0485256
0.279236
-0.135477
0.299772
0.324051
-0.0990802
0.074555
-0.0176707
-0.0568844
-0.00157609
-0.00800086
-0.244458
-0.0569394
0.224596
-0.0242373
-0.00438659
-0.00449113
0.00887773
-0.00997155
0.0102167
-0.000245119
0.0117861
0.0141425
-0.0259286
0.0629734
-0.0720763
-0.0273762
0.0721868
-0.271421
0.0227033
0.248717
0.0129021
-0.16659
0.153687
-0.0890193
0.308067
-0.219048
0.0224027
-0.217802
0.195399
-0.31358
0.224561
0.0730074
0.0559663
-0.128974
-0.0130151
-0.00660197
-0.0112317
-0.0117221
0.0229538
0.295747
-0.163809
-0.131938
0.0322121
-0.0459613
0.0137492
0.267036
-0.0357754
-0.231261
0.178287
0.102378
-0.0948824
-0.215886
0.0678983
0.179957
-0.247855
0.0951295
-0.0217043
0.0361851
0.208248
-0.00647162
0.00647162
-0.00458854
0.259282
0.263592
0.0616501
0.108054
0.182492
-0.290546
0.328056
-0.229579
-0.0984768
0.254466
-0.167361
0.117006
-0.199936
0.0829302
0.320913
-0.24517
-0.0757432
0.302246
-0.228705
-0.0735413
0.249393
-0.22699
0.0608231
0.047744
-0.108567
-0.0418042
0.0638414
-0.0220371
-0.178691
0.0828174
0.0958737
-0.0441143
0.0197131
0.0244013
-0.0102832
0.00492808
0.00535516
-0.000622646
0.000220632
0.000402014
-0.347884
0.236083
0.111801
0.0158462
-0.0248297
-0.0248456
-0.0192687
0.0344439
-0.0649072
0.0304633
0.30771
-0.152303
-0.155408
0.0123655
-0.00252412
-0.00984134
-0.318474
0.134912
0.183563
0.106868
0.223478
0.323803
-0.234196
-0.089607
0.0767487
-0.00170167
0.187176
-0.0701701
-0.300563
0.286541
0.0140225
-0.0803357
0.277967
-0.197632
-0.146616
0.255351
-0.0182588
0.0577965
-0.0395376
-0.121602
0.100223
0.0213798
-0.159138
-0.140509
0.0766228
0.000928212
-0.077551
0.27676
-0.177753
-0.0990065
0.00373262
-0.00408938
0.000356764
0.00163407
0.0329026
0.0287284
-0.0651948
0.0364664
0.247605
0.054641
0.261066
-0.122663
-0.138403
-0.112472
-0.0800162
0.192488
-0.20923
0.308542
-0.0993123
0.0970158
-0.190019
0.298073
-0.0914026
-0.0872885
-0.344036
0.239614
0.104422
-0.154407
0.263191
-0.108784
0.104955
-0.287663
0.182708
-0.0941298
-0.232658
0.0253676
0.173529
-0.198896
0.00011182
-0.00450308
0.00439126
-0.227091
0.299706
-0.0726149
0.326587
-0.232134
-0.0944538
-0.00066895
0.00197041
-0.00130146
0.105558
0.0714616
-0.140788
0.270276
-0.0346886
0.0578356
-0.023147
-0.325577
0.16644
0.0578062
0.0131621
0.000695628
-0.0138578
0.0985939
-0.11803
0.207915
0.0804405
-0.0341711
0.0139945
0.0201766
0.214541
-0.0550835
0.173035
0.122711
0.107272
-0.0754667
-0.0318054
0.00372194
0.00678371
0.0105621
-0.00515184
0.105538
-0.200653
0.205501
-0.346288
0.230676
-0.0404766
-0.190199
-0.00500546
0.0181676
0.127762
0.14209
-0.269852
0.0151358
-0.0296838
-0.00508674
0.00519856
0.225324
0.0496845
-0.275008
0.0307357
-0.271043
0.240307
0.00336411
0.0301422
0.00534479
-0.035487
-0.117888
-0.0030652
0.00600946
-0.00681598
0.000806517
0.305785
-0.023734
-0.282051
-0.0305873
0.00719929
0.0233881
-0.351771
0.0766245
0.275147
-0.197447
0.08663
0.110817
0.243235
-0.295034
0.142217
0.152816
-0.139624
0.319996
-0.180372
0.0531123
-0.033032
-0.0200803
0.278946
-0.0710313
-0.0646617
0.220684
0.0559538
-0.0200122
0.0318355
-0.019515
-0.064993
0.0576291
0.176341
0.0381998
0.0197593
-0.0183539
0.0113264
0.103623
0.00702227
-0.0105067
-0.184442
0.289855
-0.105412
0.0153952
-0.0104906
-0.00490469
-0.169238
0.0784353
0.0908032
-0.0219346
0.0334
-0.0114653
0.20652
0.155645
0.00364822
0.00871725
0.218324
0.0606222
-0.192771
0.0890606
0.10371
0.141943
-0.227728
0.0857848
-0.171684
0.197051
-0.0121603
-0.00626488
0.13997
-0.252578
0.112608
0.0275855
-0.0439196
-0.00919485
-0.0884406
0.0976354
0.043118
0.262667
0.330991
-0.107928
0.0650604
-0.021143
0.318377
-0.190614
0.088184
-0.0782913
0.0895484
0.194377
-0.283926
-0.209026
0.296882
-0.0878554
0.107508
0.110204
-0.217712
-0.0896965
0.231639
0.127518
-0.0533639
-0.00625413
0.0471871
-0.277897
-0.138218
0.191865
-0.0536473
0.21524
0.0933025
-0.00450909
0.0755305
-0.0116076
0.000607198
0.0110004
0.0995285
-0.082467
-0.0170615
-0.209574
0.289222
-0.0796474
0.241836
-0.189945
-0.0518907
0.217996
-0.0889673
0.315668
-0.103434
-0.293877
0.292456
0.00142139
-0.0139401
0.00440162
0.012974
-0.0120466
-0.305307
0.200185
0.105122
-0.0320744
0.0581695
-0.026095
-0.0914374
-0.0243398
0.115777
-0.347782
0.251058
0.0967232
0.170913
0.113731
-0.284644
-0.320532
0.102386
0.218146
-0.0664757
0.0379554
0.0285204
0.162399
-0.225421
0.0630226
0.0978822
0.0223221
0.0877617
-0.288173
0.183585
0.104587
-0.0072679
-0.237191
-0.0228471
0.0104699
0.0123772
-0.184468
0.308809
-0.124341
0.165047
0.0358823
-0.200929
0.299429
-0.0905347
-0.208895
0.132708
0.134221
0.360735
-0.253678
-0.107057
0.131378
0.0609588
-0.192337
0.00631787
0.0228105
-0.0291283
-0.157851
-0.106044
-0.0087705
-0.0218168
-0.1896
0.279148
0.268009
-0.049685
0.175579
-0.0700208
0.185646
0.0561901
0.191082
0.119428
-0.12215
-0.203427
0.324679
-0.222369
-0.10231
0.330976
-0.2164
-0.114576
-0.0851673
-0.0172649
0.102432
-0.0108881
0.0107265
0.000161571
-0.216912
-0.10362
-0.00599035
0.00738643
-0.00139608
0.00704001
-0.00704001
-0.00194365
0.0124359
-0.0104922
0.0723531
-0.184825
-0.137101
-0.0668312
0.203932
-0.0678088
-0.226068
-0.222465
0.322226
-0.0997609
-0.0564942
-0.259779
0.0217674
0.0855048
0.214211
0.0103852
0.0245104
-0.0237631
-0.000747306
0.304462
-0.111708
-0.192754
-0.0224564
0.00944129
-0.318419
0.145731
0.172688
0.0503911
0.217618
-0.285653
0.0760791
-0.0186355
-0.0155356
-0.298717
0.114248
-0.0129487
0.00740322
0.00554553
0.329669
-0.210123
-0.119546
0.0112888
-0.0131901
0.00190131
0.134789
-0.112709
-0.0220793
0.00503749
-0.278338
-0.332391
0.0967475
0.235643
0.184563
-0.281564
0.0970018
-0.0129157
0.0895385
0.209228
-0.0765078
-0.0134277
0.0207447
-0.00731707
-0.32721
0.11803
0.20918
0.110257
-0.307423
0.226345
-0.147837
-0.0785088
0.233954
-0.126446
0.0148485
-0.0287183
0.0138698
-0.284662
0.204326
-0.0566597
0.221706
0.00371178
-0.0176137
-0.00547827
0.0963627
0.203067
-0.00748328
0.00663234
0.00085094
0.0356161
0.0203377
0.164893
-0.0545398
-0.110353
0.00421494
-0.00572105
0.00150611
0.228414
-0.0724134
0.269348
-0.235069
-0.0342786
-0.00992208
-0.0162372
-0.285816
0.0998051
0.186011
-0.0764633
0.0940362
-0.0175729
-0.197945
0.295926
0.202763
0.103126
0.0034775
-0.0116893
0.00821182
-0.0343944
-0.0181305
0.052525
-8.69744e-05
0.0302292
-0.0127531
0.00188424
0.0108689
0.204599
-0.0129396
0.286774
-0.104282
-0.126473
0.0746126
0.0518599
0.0307993
-0.122063
0.0912632
0.0226666
0.0304456
-0.00303181
0.00724674
0.193435
0.194974
0.0923172
-0.0404854
-0.0217777
0.0622631
0.282096
-0.0668561
0.331763
-0.246519
-0.0852436
-0.166988
0.26789
-0.100902
0.140648
-0.230344
-0.0186589
-0.270943
0.0132777
-0.00143825
-0.0118394
0.221448
-0.181834
-0.0574956
0.188874
0.202643
0.0881804
0.0230718
-0.251502
0.0757281
-0.0173056
0.0144244
0.00288123
0.00149613
0.212715
-0.048162
0.0496151
-0.0014531
-0.208306
-0.0290779
0.0304756
-0.281093
0.250618
0.264478
-0.162559
0.30473
-0.235537
-0.0691929
-0.0853076
-0.0876062
-0.065695
0.153301
0.0945913
-0.272344
0.0100462
0.0252872
0.227365
0.0419829
0.300612
-0.136194
-0.164418
0.121824
-0.10653
-0.010122
-0.00148559
0.0952508
-0.241674
0.146423
-0.186187
0.0131757
-0.0562643
0.15232
0.00996305
0.00207805
-0.0120411
0.23359
0.07114
-0.10018
-0.03521
0.13539
0.212187
0.0508409
-0.263028
0.269
-0.0958822
-0.173118
-0.0493761
0.00121402
-0.113265
0.326834
-0.245126
-0.0817078
-0.163721
0.258932
-0.0952106
0.0237211
-0.0584098
0.295465
-0.2179
-0.077565
0.129428
-0.0345198
0.0318977
0.00262206
0.0499798
-0.235881
0.185902
-0.0740033
0.0963254
-0.233123
0.0910088
0.103876
-0.28844
0.184564
0.000448669
0.00328395
0.0107286
0.122097
-0.132825
-0.0867712
-0.0824673
0.0989896
0.183106
-0.291563
0.287288
0.00427507
0.183621
-0.250055
0.0664347
-0.104453
-0.0929944
0.28347
-0.295862
0.0123919
0.0370212
-0.0643973
0.225077
-0.150728
-0.0743486
-0.00744005
0.0123364
-0.00840881
0.00458176
0.00382705
-0.343405
0.126315
0.217091
0.0171447
-0.00980981
-0.0368122
0.046622
0.0681687
0.137213
-0.205382
0.124833
0.19897
0.138035
-0.0650277
0.250371
0.0450944
-0.130098
0.0549486
0.0751496
0.0876406
0.143035
0.344738
-0.22853
-0.116208
0.199471
-0.0231303
0.0633477
-0.0289038
0.0112281
-0.00196732
-0.00926079
0.250267
-0.169781
-0.0804859
-0.157052
0.0956458
0.0614057
-0.219203
0.292502
-0.0692421
-0.22326
-0.00729439
-0.0178198
0.0251142
-0.0829987
-0.203766
0.286765
0.00624158
-0.00360704
-0.00263454
0.0144554
0.271444
-0.0119032
0.0228421
-0.0109389
0.0834137
-0.0838241
0.000410425
0.227381
0.0937859
-0.292666
0.207971
0.0846948
-0.124701
-0.188346
0.292977
-0.104631
-0.0177769
-0.036772
-0.323122
0.102926
-0.0109119
0.0200396
-0.00912775
0.18211
-0.291848
0.109738
0.0914647
0.192098
-0.283563
0.0302448
-0.0153963
0.0497274
-0.197806
0.148078
0.0255418
0.109247
-0.235786
0.32039
-0.084604
0.339123
-0.214711
-0.124412
0.0976861
0.0277274
-0.125413
-0.268185
0.345907
-0.0777225
0.106426
0.0691536
-0.0586442
0.0167946
0.0418496
0.0932867
0.173545
0.0471661
-0.0476841
0.000518032
0.10151
-0.0387607
-0.0627496
-0.361936
0.276918
0.0850181
0.173941
-0.261698
0.0877566
0.0198206
0.000494544
0.00456575
0.00755843
-0.0121242
-0.133177
0.209471
-0.0762945
-0.0143536
-0.00993874
0.0242924
0.00661614
-0.000504492
0.180888
0.0693791
-0.0859721
0.138396
-0.156676
0.230339
-0.0736629
-0.376227
0.251128
0.125099
0.320419
-0.241204
-0.0792147
-0.00177955
-0.00951572
0.0112953
0.255477
-0.150522
0.185865
-0.119234
-0.0666309
0.0439338
-0.0117216
0.172524
-0.0731074
0.127157
-0.0862228
-0.0409339
0.00831434
-0.0111452
0.0563356
0.0708212
0.164265
-0.088202
-0.0760631
0.10699
0.0370242
-0.0747773
0.0468231
0.143651
-0.190474
0.252245
-0.12087
-0.131375
-0.0378871
0.0666155
0.222839
-0.0821911
0.00652718
-0.00743189
0.000904707
-0.13926
0.28534
-0.14608
-0.144967
0.0268757
0.118091
-0.0919601
0.0389672
0.0529929
0.0962033
0.234534
-0.10812
-0.126414
0.097515
0.0753752
-0.17289
0.101872
-0.296233
0.194361
-0.0862939
0.182543
-0.0962487
0.0112867
-0.0078092
0.0463677
-0.133974
-0.0982883
0.265429
-0.187147
-0.0782823
-0.0180152
0.00710327
0.0853702
0.00281381
-0.0102869
-0.0433793
0.115019
0.209032
0.0904743
0.0546498
-0.145124
0.16676
-0.153858
0.0877141
0.0765969
-0.122075
-0.0360673
0.158142
0.0986958
0.166733
0.0405332
0.20886
-0.0113646
-0.0110917
-0.0315381
0.0685593
0.0913125
0.00876606
0.00246204
0.268326
-0.173735
-0.0945909
0.0886758
0.0108528
-0.112175
0.177749
-0.0655748
-0.0201157
0.0057621
-0.023781
0.0913311
-0.0675501
-0.0482789
0.0384691
-0.000437442
0.000604922
-0.000167481
0.132416
-0.21936
0.0869443
0.065549
0.0643376
-0.129887
0.0106206
-0.00074543
-0.0258783
0.121973
-0.0960949
0.0721681
-0.191464
0.119296
0.00546358
0.0209008
-0.0263644
-0.00356713
0.0135302
-0.0442328
0.267881
0.00794344
-0.00348013
-0.00446331
0.191189
-0.141462
0.0260435
0.267034
-0.1692
-0.0978343
-0.303413
0.046245
0.257168
0.170791
0.13692
0.0126644
-0.0119688
0.0240396
-0.021397
-0.00264263
-0.0506426
0.0489169
0.00172572
-0.0054523
0.00389844
0.00155386
-0.0334138
-0.1788
0.00220209
-0.00819244
-0.131282
0.0915436
-0.127803
0.283998
-0.203347
-0.0047833
-0.00549994
0.0825393
0.185786
-0.00293563
0.0156001
0.140999
-0.340633
0.199633
-0.0217747
0.0104101
0.295187
-0.191839
-0.196163
-0.0849286
0.285662
0.111023
-0.120218
-0.202745
0.299545
-0.0967996
0.232033
-0.274197
0.0421641
-0.0479575
0.230169
0.369427
-0.222709
-0.146719
0.156466
-0.247203
0.0907368
0.240611
-0.0606538
0.0768873
0.107502
-0.18439
0.000115066
0.00323058
-0.0510336
-0.00248003
0.0535136
0.180626
-0.152576
-0.0280503
0.0200889
-0.233972
0.213883
-0.00303914
0.0350531
-0.0320139
-0.330025
0.227301
0.102724
0.0213725
-0.0953757
0.0588881
-0.247058
0.115054
-0.333911
0.218856
0.0468387
-0.054564
0.00772533
-0.277879
0.0902488
0.187631
0.0468664
0.143367
-0.190233
0.251192
-0.344932
0.0937398
-0.0441556
0.102317
-0.0581619
0.175458
-0.0690322
0.00745001
-0.0103856
-0.0558855
0.178347
-0.0148006
0.0213648
0.0939947
0.0384399
-0.0543798
0.0159399
0.195195
-0.145215
-0.0124152
0.016127
0.285391
0.0071119
0.202891
-0.27506
0.0556873
0.178847
0.0191712
0.0642425
-0.0385376
0.078297
0.300485
-0.108097
0.19161
-0.119442
-0.0102917
0.193825
0.134231
-0.0506335
-0.0247861
0.0754196
-0.0871266
0.261068
0.00415839
0.0112369
0.0592093
-0.0694962
0.00441351
-0.0185897
0.0141762
0.00108552
0.00088489
-0.0618372
0.0440603
-0.277351
0.247114
0.0302367
0.100916
-0.276928
0.176011
0.0540621
-0.115713
0.0416467
0.0222292
-0.0638758
-0.0126333
0.0170468
0.0172896
-0.0136414
0.296681
-0.0344025
-0.262278
-0.0796741
-0.2388
-0.117148
0.0979122
0.0192359
0.181581
-0.270807
0.0892259
0.167325
0.0726382
-0.239964
0.0887075
0.0746594
0.177585
0.0602769
0.0181653
-0.0562368
0.000936688
0.0553001
0.0136094
-0.0208071
0.0071977
0.163716
-0.0662012
-0.00317726
-0.00523155
-0.00134045
0.00786763
0.00276353
0.119061
0.035644
-0.0284447
0.0520976
0.171444
-0.223541
0.241272
-0.200739
-0.251863
-0.0254881
0.247725
-0.0879577
0.0538166
-0.00697794
0.105418
0.0762467
0.101923
-0.304352
0.202429
0.162978
-0.167282
0.00430383
-0.0114524
-0.011982
0.156723
-0.195793
0.0390704
0.160945
-0.354382
0.193437
-0.107858
-0.177958
0.183507
-0.105071
-0.212606
0.273772
-0.0611656
0.100899
0.230125
-0.185154
0.00874017
0.00453752
-0.239423
-0.089498
0.201523
0.058827
-0.26035
-0.242775
0.335148
-0.0923735
-0.174088
-0.136875
-0.0959045
0.0519304
0.0439741
-0.302411
0.0845112
0.00155315
0.00933099
-0.0108841
-0.113488
-0.00366036
0.0275123
-0.0637934
0.0362811
-0.000442826
-0.0501907
-0.0116256
-0.0101491
-0.0213959
-0.0161914
0.0375873
-0.140362
-0.21402
0.207323
0.100744
0.303208
-0.101941
-0.201267
0.20516
0.101319
0.244905
-0.149654
0.171899
-0.135901
-0.0359982
-0.101212
0.0382003
0.0630114
0.252651
-0.112682
0.0472566
0.0178037
-0.041889
-0.150957
-0.0392342
0.190191
-0.0248836
0.154832
0.0465818
-0.201413
-0.0719975
-0.289938
0.282026
-0.190561
-0.189913
0.278603
-0.0886899
0.176965
-0.300226
0.123262
0.00769567
-0.0328491
0.0251535
-0.0280359
-0.0232246
-0.0169751
-0.0571859
0.00615229
-0.27704
0.335496
-0.191259
-0.144237
-0.0580652
-0.130915
0.18898
0.323644
-0.123557
-0.200086
0.0214648
-0.063269
0.34941
-0.248565
-0.100846
0.196193
-0.0413613
-0.0207743
0.0563904
0.00608121
-0.267122
0.26104
-0.00719887
0.0265384
-0.144429
-0.216926
0.149336
0.18616
0.166942
-0.0466463
-0.120296
-0.216971
-0.08544
0.293101
-0.196655
-0.0964458
0.00302475
0.0142648
-0.0360026
0.0674842
-0.0314816
-0.0683188
0.133868
-0.0234383
0.065085
-0.00534981
0.0298602
0.229999
-0.15534
-0.0908865
0.114272
-0.0233858
0.049995
-0.0717411
0.0217461
-0.202383
0.283975
-0.0815916
-0.244622
0.0708878
-0.104088
-0.156461
0.260549
0.301099
-0.0995305
-0.201568
-0.185746
-0.162139
-0.102075
-0.0428926
0.0839239
0.171939
-0.255863
-0.309997
0.0627788
0.247218
0.361668
-0.25514
-0.106528
-0.324251
0.192987
0.13932
0.0413061
0.25828
-0.118857
-0.139423
0.0786884
0.123883
0.169219
-0.132262
0.240083
-0.107821
0.0716772
-0.284284
0.146759
0.222668
-0.0164051
-0.18025
0.199672
-0.295608
0.0959363
0.116099
0.115894
-0.231993
0.0113744
0.0717449
-0.0873394
0.0560864
-0.172068
0.115982
-0.0245322
-0.0875496
0.112082
0.210464
-0.319847
0.109383
0.267734
-0.0861536
-0.0140156
-0.0422213
0.22635
-0.0504434
-0.175906
-0.223889
-0.112521
-0.0111797
-0.00157337
0.166102
0.098038
-0.26414
0.00237268
0.0038689
0.0203572
0.0036824
0.0984124
-0.149776
0.0513633
0.0934964
0.0900101
0.0414221
-0.235422
0.194
-0.0335831
-0.0352927
0.0688757
0.192918
-0.209323
-0.153464
-0.187169
-0.277398
0.0873793
-0.206133
-0.0384897
0.323923
-0.164638
-0.159285
0.146038
0.025271
-0.171309
0.0042435
0.00369994
-0.00636134
0.0473131
-0.0409518
0.00780724
0.00295952
-0.0107668
0.255104
-0.213682
0.153747
0.0989041
-0.00388686
-0.0306329
0.0132552
0.0856669
-0.0989222
0.262098
-0.0959962
0.146689
-0.10936
-0.0373287
-0.115464
0.195975
-0.00126587
0.00243118
-0.00116531
-0.194648
0.298507
-0.103859
0.0344191
0.15677
0.0121974
-0.0163594
0.00416196
0.313519
-0.271016
-0.0425033
0.349763
-0.204074
-0.145689
0.121752
0.0451899
0.29487
-0.243561
-0.0513086
0.0110386
-0.0128182
0.0928676
0.154232
-0.2471
0.119899
0.1101
0.273784
-0.201566
-0.0722176
0.204077
0.145687
0.196078
0.0302716
0.0115805
-0.0135241
0.302492
-0.240379
-0.0621131
0.119209
0.0666555
0.287519
-0.185524
-0.101995
0.0329462
-0.0359853
0.0474614
-0.0754101
0.0279487
0.253835
-0.100088
-0.311069
0.226036
0.0850337
-0.0330089
0.195987
0.0887929
0.212306
0.0118281
0.00834925
-0.0201773
-0.154376
0.188795
0.226509
0.0971345
0.186073
-0.139207
0.291227
-0.201724
-0.0895032
0.277859
-0.243201
-0.0346578
-0.159908
-0.146151
0.306059
-0.0926055
0.169493
0.21415
-0.139577
-0.0745728
0.0869963
0.0129682
-0.0999645
0.209818
-0.0301926
-0.179625
-0.150159
0.0430456
0.143472
0.110363
0.228561
-0.0674448
-0.161116
0.216317
-0.0539182
-0.00347121
-0.00198109
0.24821
-0.224429
-0.0237801
0.00173948
-0.00300535
0.0832098
0.0634794
0.290942
-0.291169
0.000227463
0.171497
-0.124674
-0.0816816
-0.174522
0.256204
0.0323316
-0.0222855
0.126505
-0.112466
-0.014039
0.168219
-0.0900215
-0.078197
0.314743
-0.0903945
-0.206329
0.31528
-0.108951
0.0278933
-0.0317801
-0.0426674
0.257365
-0.178411
0.0268657
0.151545
0.140677
0.0756403
-0.00615813
0.0136081
-0.202956
0.219954
0.0825379
-0.18781
-0.0648042
0.252614
0.0398662
-0.260556
0.22069
0.00804212
-0.0255925
0.0175504
0.00692784
-0.00692784
-0.211926
0.320568
-0.108642
-0.317695
0.224734
0.0929612
-0.193788
0.121144
0.0726435
0.273167
0.047746
-0.0948707
-0.204203
0.35832
-0.154117
0.252349
-0.212483
-0.191323
0.134285
0.0570382
0.00135078
0.0116232
-0.168001
0.0786999
0.0893006
-0.0506889
0.0443275
0.00568813
0.0155011
-0.0211892
0.0962989
0.00347634
-0.0997752
-0.106409
-0.0236891
-0.297225
0.0908964
0.276163
-0.0759878
-0.200175
0.0104549
-0.0083769
-0.0341555
0.0798081
-0.0456526
0.0543382
-0.0802165
0.187153
-0.154291
-0.0328617
0.16538
-0.126446
-2.54638e-06
-0.000434896
0.124339
-0.315074
0.149251
-0.252906
0.103655
-0.191422
0.286728
-0.0953068
-0.208449
0.0752724
0.216575
0.0744422
-0.291017
0.127274
0.133793
0.0222763
-0.0087584
-0.0198828
0.00339548
0.0164873
-0.00566705
0.132172
-0.213935
-0.101217
0.315152
0.283328
-0.0987657
0.014522
-0.0174204
0.00289842
-0.248289
-0.0344036
0.282693
0.310488
-0.221695
-0.0828047
-0.21643
-0.200841
0.140443
0.0252063
-0.165649
-0.0943927
0.00785516
0.00110225
-0.00895741
0.277563
0.0359563
-0.0212322
0.118918
0.0341885
0.0544522
-0.0886407
0.143667
0.0704834
-0.200006
-0.0972195
-0.287818
0.10771
0.180108
0.186855
-0.100144
-0.0867106
-0.0230439
0.0136513
0.00939263
0.300545
-0.249853
-0.0506918
0.267547
-0.118296
-0.14482
0.353734
-0.208914
0.0573515
-0.0657455
0.00839405
0.116016
-0.21291
0.243645
0.0318322
0.155321
-0.00643467
0.00118023
0.00525444
0.191526
0.0566835
-0.0782822
0.0251435
0.0531386
0.00749049
-0.0185934
0.0111029
0.0854408
-0.0956414
0.0102006
-0.0338804
0.190603
-0.129837
0.144495
-0.0146581
0.075115
0.107825
-0.18294
0.010236
0.000345624
0.268183
0.015498
-0.283681
-0.0945772
0.238049
0.173344
0.107642
-0.280986
0.244483
0.033376
0.283054
-0.107018
-0.176036
-0.0107553
0.000521472
0.322805
-0.207751
0.0881963
0.0986585
-0.0735374
0.0303723
0.0431651
-0.128169
-0.0877871
0.215956
-0.0172152
-0.00266751
0.00857056
0.00320534
-0.0117759
0.177101
-0.0716829
-0.00813678
-0.0360954
0.0442322
-0.101739
0.114994
-0.0408581
-0.0550464
-0.00733365
-0.000149629
0.0211744
-0.0587417
0.0375673
-0.00871463
-0.011907
0.0466122
-0.2581
0.211488
-0.126401
0.0468417
0.0795596
-0.22752
-0.0101756
0.148805
-0.185251
0.0364463
-0.0200307
0.00576813
0.0142626
0.0651266
0.0300029
-0.0906485
0.0762835
0.014365
-0.238164
-0.0652486
-0.0922758
0.283161
-0.190885
0.00637318
0.10465
0.0689591
-0.206234
0.137275
-0.293817
0.0223959
-0.0143426
0.0116546
0.0850086
-0.0966632
-0.0427327
-0.135678
-0.170288
0.146993
0.0232948
0.040981
0.0184249
-0.0594058
0.0227869
-0.0173233
0.00243096
-0.00993164
-0.0971243
0.26462
-0.167496
-0.0661106
0.237163
-0.00751938
-0.00247284
0.00999222
0.282361
-0.29661
0.0142491
-0.00154386