/*--------------------------------*- C++ -*----------------------------------*\
| =========                 |                                                 |
| \\      /  F ield         | OpenFOAM: The Open Source CFD Toolbox           |
|  \\    /   O peration     | Version:  v2012                                 |
|   \\  /    A nd           | Website:  www.openfoam.com                      |
|    \\/     M anipulation  |                                                 |
\*---------------------------------------------------------------------------*/
FoamFile
{
    version     2.0;
    format      ascii;
    class       surfaceScalarField;
    location    "100";
    object      phi_0;
}
// * * * * * * * * * * * * * * * * * * * * * * * * * * * * * * * * * * * * * //

dimensions      [0 3 -1 0 0 0 0];
oriented        oriented;


internalField   nonuniform List<scalar> 
78975
(
0.0805293
-0.203291
0.122761
0.12694
-0.11377
-0.0131695
0.0132878
-0.0092279
-0.00405989
-0.0722278
-0.145127
0.217355
-0.0834427
-0.136918
0.220361
-0.165476
-0.143007
0.308482
0.175337
0.0631442
-0.238481
0.359332
-0.182423
-0.17691
-0.207492
0.16906
0.038432
-0.12103
0.302622
-0.181592
0.224348
0.0681729
-0.292521
-0.0791546
0.0332111
0.0459435
0.388101
-0.312585
-0.0755162
0.000801563
0.000157948
-0.000959512
0.135395
-0.240122
0.104728
0.0960045
-0.15691
0.0609059
0.223648
-0.328833
0.105185
0.243375
-0.207971
-0.0354033
0.129549
-0.110592
-0.0189566
0.333155
-0.0913734
-0.241782
0.282244
-0.191779
-0.090465
0.000777391
0.00395449
-0.00473188
0.0919621
-0.0298579
-0.0621042
-0.00855482
0.000209998
0.00834482
-0.298439
0.177409
0.184097
-0.0879011
-0.0961957
0.200364
0.0430104
0.361477
-0.16106
-0.200417
-0.019491
0.007421
0.01207
0.163955
-0.0799543
-0.030366
0.11032
0.083079
0.250076
0.0105639
-0.00651064
-0.0040533
0.310509
-0.241767
-0.0687414
0.10748
-0.33641
0.228929
0.305889
-0.198409
-0.175774
0.321168
-0.145394
0.256918
-0.254329
-0.00258817
-0.198591
-0.0605962
0.259187
0.00351604
0.00625796
-0.009774
-0.00303571
0.0336403
-0.0306046
0.00131299
-0.00590511
0.00459212
-0.131263
-0.172429
-0.355672
0.168589
0.187083
0.000135103
8.1961e-05
-0.000217064
-0.00449629
0.00527368
-0.00625023
0.00129982
0.00495041
0.13437
-0.217813
0.0110869
0.245831
-0.0034852
0.0119019
-0.178688
0.0847043
0.0939835
0.0177403
-0.0297547
0.0120144
0.350054
-0.20303
-0.147024
0.108458
0.0753313
-0.18379
0.28068
-0.204612
-0.0760683
0.0303477
-0.0488823
0.0185345
-0.00893387
0.0278454
-0.0189115
-0.308278
0.137094
0.171184
-0.32064
0.118536
0.202104
-0.337395
0.242017
0.0953779
0.0817776
0.178457
-0.260234
0.164294
-0.293087
0.128793
-0.142114
0.234605
-0.0924912
-0.12018
-0.0585074
-0.224736
-0.0959042
-0.00745325
0.00876624
-0.00823069
0.0178305
-0.00959982
0.05559
0.0147801
-0.07037
0.182212
0.0271748
-0.209387
0.125234
-0.249068
0.123833
0.309383
-0.0969065
-0.212476
0.286036
-0.197166
-0.0888698
0.320861
-0.230196
-0.0906646
0.308706
-0.140713
-0.167993
0.0734246
0.00580594
-0.0792306
-0.122055
0.164314
-0.0422586
0.212793
0.146539
-0.194542
-0.0887379
0.28328
0.107469
0.0766276
-0.0951157
-0.106466
0.201582
-0.116869
-0.18157
-0.346099
0.245246
0.100854
0.0584264
-0.0280787
0.0239888
-0.103943
-0.340832
0.0943253
0.246506
0.132718
0.0389345
-0.171652
0.0933673
-0.0419199
-0.0514473
-0.114272
0.0518501
0.0624221
0.0994063
-0.175262
0.0758554
0.153016
0.0999979
-0.253014
0.324075
-0.272395
-0.0516805
-0.180066
0.286009
-0.105943
0.171053
-0.263859
0.0928062
-0.228578
-0.112254
-0.0557184
-0.0585538
0.130799
-0.172029
0.0412299
0.229949
0.0321983
-0.262147
0.281394
0.042681
0.145253
0.242848
0.257015
-0.131781
-0.18817
0.269948
-0.170322
-0.167073
0.00978649
0.0821756
0.251701
0.109776
0.0704648
0.238918
0.0235183
-0.054968
0.0314497
0.0200861
0.0448007
-0.0648868
-0.00727038
-0.0137496
0.02102
0.0814599
-0.174906
0.0934462
0.155874
-0.220225
0.0643508
-0.00953594
-0.00507782
0.0146138
0.00829959
-0.0191849
0.0108853
0.075415
-0.0844771
0.00906212
-0.253707
-0.0101071
0.263814
-0.120393
0.207242
-0.0868498
0.142979
-0.231852
0.0888731
-0.0723027
0.289011
-0.216708
0.177014
-0.0685552
0.0455722
0.0477951
-0.056623
0.187422
0.374339
-0.281979
-0.0923598
0.076695
-0.223179
0.146484
0.0345316
-0.0358359
0.00130434
0.117499
-0.12614
0.00864068
0.362165
-0.251641
-0.110523
0.0122843
0.0193195
-0.0316037
0.137874
-0.170213
0.032339
-0.0704602
-0.0155629
0.0860231
0.010023
-0.00838092
-0.0016421
0.0152962
0.114253
0.28917
-0.241579
-0.0475912
0.101944
0.039571
0.0619363
-0.101507
0.0524381
0.0953229
-0.147761
-0.0163989
0.00816823
0.25803
-0.105014
0.289333
0.00379848
-0.293131
-0.310771
0.126553
0.184218
0.01801
-0.00971038
0.265635
0.0235354
-0.00124965
0.00100891
0.000240741
0.0201523
-0.0102569
-0.00989531
0.201099
0.0220894
-0.223189
-0.348786
0.252103
0.0966833
-0.190735
-0.11139
0.302125
0.0824864
-0.112852
-0.212249
0.0819103
0.130338
0.130945
-0.00400557
0.277946
0.0106049
-0.28855
0.266832
-0.185574
-0.0812577
-0.0102646
0.0025689
0.00769573
-0.306682
0.211002
0.0956801
-0.0616435
-0.0462816
0.107925
0.02032
-0.00453317
-0.0157868
-0.00612868
0.00163239
0.109728
0.0739143
-0.183642
0.225607
-0.110022
-0.115584
-0.0266619
0.0375726
-0.0109107
-0.289602
0.124126
0.187807
-0.106347
-0.118792
0.324429
-0.205637
-0.263198
-0.0924735
-0.0543163
0.263705
-0.209389
0.231228
-0.247142
0.0159146
0.214698
-0.269014
-0.00619733
-0.00235748
-0.0743033
0.0551378
0.0191655
0.0352586
-0.0146499
-0.0206087
0.0396142
-0.278432
0.238817
0.224971
-0.361356
0.136384
-0.0729496
0.134071
-0.0611211
-0.0248081
0.122462
0.0416799
-0.164142
0.0805315
-0.2944
0.213868
0.177235
-0.294104
0.323236
-0.0693485
-0.253888
0.246795
0.0311503
0.251458
-0.108479
-0.0568146
-0.0174887
-0.002792
-0.119263
0.0741597
-0.115487
0.0413278
-0.158889
-0.0486035
0.324493
-0.212708
-0.111786
0.192388
-0.335394
-0.120865
0.0336005
0.0872647
0.0737378
-0.327445
0.0979815
-0.311922
0.21394
-0.00227316
-0.00799148
0.0104673
-0.00695128
-0.00221849
0.0089189
-0.0067004
0.279336
-0.0691818
-0.210154
-0.0234281
0.00501404
0.018414
-0.10709
0.164385
-0.0572955
0.0556209
-0.0355348
0.0333149
-0.0155746
-0.329422
0.100844
0.216463
-0.218757
0.00229339
-0.00507254
0.0505336
-0.0454611
-0.0673109
-0.262111
-0.0403688
-0.0756748
0.116044
0.0871055
-0.255992
0.168886
-5.24723e-05
0.000187576
0.088871
-0.056293
-0.032578
-0.299647
0.149365
0.150282
-0.0786744
0.0901875
-0.0115131
-0.312782
0.152456
0.160326
0.0635553
0.215781
0.0837057
0.14573
-0.229436
0.191512
-0.218987
0.0274757
-0.0319353
0.0288996
-0.129798
0.0568486
-0.096865
0.0529591
0.0439058
-0.013439
-0.195038
0.208477
-0.145556
0.222251
-0.0113458
-0.00749576
0.0188415
0.0502472
-0.207049
0.156801
0.000775265
2.62986e-05
-0.105802
0.0487499
0.0570523
0.00784362
0.0123086
-0.0184177
0.00816079
-0.0029548
0.0520922
-0.0491374
-0.152815
0.203062
-0.0273672
0.257316
-0.0402003
0.0175838
0.0226165
-0.00910001
-0.0528409
0.0619409
-0.00283033
-0.00919131
0.0120216
-0.0183036
-0.106336
0.124639
0.224653
-0.0892585
0.101258
-0.119562
0.199828
-0.187352
-0.0124764
0.325243
-0.219693
-0.10555
0.232721
-0.0162581
0.0535639
0.142453
-0.196017
0.178708
-0.040834
0.200734
-0.290288
0.0895543
-0.0163455
0.0399133
-0.0235678
0.156001
0.0525668
-0.208567
-0.139474
0.143767
-0.0244946
-0.119273
-0.350466
0.274156
0.0763099
0.254671
-0.258234
0.00356334
-0.163038
-0.149745
-0.0377483
-0.0380327
0.075781
0.00133081
0.211158
-0.212489
0.13562
0.121395
-0.237235
0.050461
0.186774
-0.301398
0.106856
0.103348
-0.289214
0.185866
0.0371661
0.162662
-0.111044
-0.0170948
0.128139
0.0437201
-0.0688612
0.0251411
0.28832
-0.236134
-0.0521859
0.0784395
-0.063536
-0.0149035
-0.318203
0.199411
0.297989
-0.0401627
-0.257827
0.331024
-0.118232
-0.204324
0.190885
0.0394495
0.0494215
-0.00736484
0.0555695
-0.0482047
0.00489985
-0.0145865
0.00968668
-0.0209836
0.0129217
0.00806181
-0.0539522
-0.107258
0.242878
0.172074
0.17798
0.274856
-0.139878
-0.172699
-0.176087
0.017837
-0.0129724
-0.00486451
-0.0113413
0.181665
-0.0719372
-0.237727
-0.0064746
0.244202
0.0838589
-0.0536585
-0.0302005
0.388409
-0.249823
-0.138586
0.249697
0.0396352
-0.068726
0.0657712
0.266919
-0.0857216
-0.181197
-0.0545333
0.0494607
0.0852354
-0.205628
-0.00955104
0.000930724
0.00862032
-0.299235
0.29358
0.00565469
-0.316274
0.316274
0.0399429
-0.150987
0.141996
-0.0863323
0.00765787
0.0503851
-0.0268668
0.0576856
0.0282488
-0.0859345
0.277082
-0.0986254
0.212226
-0.277073
0.0648468
-0.0145088
-0.0064748
0.0135113
-0.0206788
0.00716756
-0.0145572
0.027978
-0.0134208
0.243423
-0.208856
-0.0345671
0.00508437
-0.172861
0.167776
-0.000413636
0.0104367
0.0500627
0.0337962
0.209793
0.0214347
0.159768
0.09169
0.00746971
0.00581807
-0.220197
-0.0725679
0.292764
0.129249
0.0963577
0.0374168
0.206006
0.0122768
0.00556015
-0.101644
0.306479
-0.204835
-0.328921
0.227277
-0.211895
0.306396
-0.0945016
0.00330867
-0.0038331
0.000524437
0.0359265
0.0199657
-0.0558922
0.330347
-0.0786454
-0.0194398
0.117987
-0.0985469
0.271651
-0.0705514
0.00657572
-0.0225293
0.0159536
0.175749
-0.202536
0.0267866
0.206035
0.0800009
0.238506
0.0847302
0.108735
-0.275621
0.166886
0.0331384
0.110629
-0.109758
0.259678
-0.14992
0.0405458
-0.239137
-0.00984937
0.00763087
0.120542
-0.177165
-0.207675
0.305882
-0.098207
-0.048115
-0.310963
0.160908
0.150055
0.0710468
-0.063234
-0.00781282
0.117817
-0.302145
0.184328
-0.326786
0.129487
0.197299
-0.018724
0.0073782
0.00547206
0.00305339
-0.00852545
-0.263895
0.290824
-0.0269289
0.159345
-0.19432
0.0349756
-0.133836
-0.0748796
0.208715
0.248232
-0.072101
-0.176131
0.191801
-0.0712592
-0.337163
0.238155
0.0990077
-0.0600382
0.189599
-0.129561
0.200136
-0.233263
0.0331273
0.101917
-0.254523
0.152605
0.00987435
-0.0127513
0.00287693
0.11348
-0.0309934
0.244433
-0.271801
0.0484182
-0.182254
-0.116829
0.0855501
0.031279
-0.02084
0.138339
0.010582
-0.012838
0.00225601
0.187742
-0.182657
-0.0129972
0.0503637
-0.0373665
0.285899
-0.247401
-0.0384984
0.110085
-0.00752909
0.223063
0.0649854
-0.288048
0.250849
-0.351458
0.100608
-0.230717
-0.0485065
0.279223
-0.135477
0.299772
0.324051
-0.0990803
0.0745932
-0.0174513
-0.0571419
-0.00156905
-0.00798199
-0.244459
-0.0569393
0.22457
-0.0244342
-0.00438362
-0.00448618
0.0088698
-0.00996447
0.0102082
-0.000243768
0.0117291
0.0141606
-0.0258897
0.0629712
-0.0720712
-0.0273498
0.0721505
-0.271421
0.0227034
0.248718
0.0128384
-0.166478
0.15364
-0.0890193
0.308068
-0.219048
0.0223881
-0.217796
0.195408
-0.313581
0.224561
0.0730074
0.0559762
-0.128984
-0.0129318
-0.00655923
-0.0110675
-0.011934
0.0230014
0.295736
-0.163838
-0.131897
0.0322761
-0.0458962
0.0136201
0.267037
-0.0357758
-0.231261
0.178319
0.102362
-0.0948861
-0.215885
0.0678985
0.179957
-0.247856
0.0951282
-0.0217036
0.0361852
0.208248
-0.00647208
0.00647208
-0.00458997
0.259261
0.263592
0.0616503
0.108054
0.182492
-0.290546
0.328056
-0.229579
-0.098477
0.254467
-0.167361
0.116447
-0.199959
0.0835125
0.320913
-0.24517
-0.0757436
0.302247
-0.228705
-0.0735413
0.249388
-0.227
0.060363
0.0484153
-0.108778
-0.0415646
0.0637908
-0.0222261
-0.178595
0.0831955
0.0953999
-0.0441129
0.0197174
0.0243955
-0.0102785
0.00492619
0.00535233
-0.000606424
0.000223493
0.000382931
-0.347884
0.236084
0.111801
0.0158534
-0.0247873
-0.024849
-0.0192639
0.0344539
-0.0648689
0.0304151
0.307711
-0.152303
-0.155408
0.0123902
-0.00252909
-0.0098611
-0.318475
0.134912
0.183563
0.106869
0.223478
0.323803
-0.234196
-0.0896072
0.076802
-0.00138705
0.187102
-0.0706549
-0.300563
0.286541
0.0140225
-0.0803352
0.277965
-0.19763
-0.146616
0.255351
-0.0182568
0.0577844
-0.0395277
-0.121637
0.100247
0.0213897
-0.159138
-0.140509
0.0766233
0.000924156
-0.0775475
0.27676
-0.177753
-0.0990067
0.00375561
-0.00405806
0.000302446
0.00162916
0.0329024
0.0287299
-0.065196
0.0364661
0.247606
0.0546409
0.261122
-0.122831
-0.138291
-0.112471
-0.0800165
0.192488
-0.20923
0.308543
-0.0993127
0.097016
-0.190019
0.298073
-0.0910371
-0.0875583
-0.344036
0.239614
0.104422
-0.154407
0.263192
-0.108785
0.104958
-0.287658
0.1827
-0.0941291
-0.232657
0.0253672
0.173529
-0.198896
1.39881e-05
-0.00445759
0.00444361
-0.227091
0.29968
-0.0725892
0.326587
-0.232134
-0.0944538
-0.000589905
0.00187993
-0.00129002
0.105557
0.0714561
-0.140788
0.270274
-0.0346839
0.0578363
-0.0231524
-0.325577
0.16644
0.0578067
0.0129997
0.000899444
-0.0138992
0.0985947
-0.118035
0.207822
0.0804973
-0.0341606
0.0140142
0.0201464
0.214436
-0.0550913
0.17307
0.122666
0.107286
-0.0754945
-0.0317912
0.00378889
0.00677505
0.010625
-0.00515291
0.105538
-0.200654
0.205498
-0.346286
0.230667
-0.0404747
-0.190192
-0.00521727
0.018217
0.127762
0.14209
-0.269852
0.0151324
-0.0296897
-0.0051449
0.00515888
0.225324
0.0496844
-0.275008
0.0307357
-0.271043
0.240307
0.00336459
0.0301403
0.00535207
-0.0354924
-0.117666
-0.00319955
0.00607723
-0.00689149
0.000814263
0.305785
-0.023734
-0.282051
-0.0306385
0.0070629
0.0235756
-0.351772
0.0766247
0.275147
-0.197448
0.0866298
0.110818
0.243235
-0.295034
0.142218
0.152817
-0.139624
0.319996
-0.180372
0.0530614
-0.0329308
-0.0201306
0.278961
-0.0711382
-0.0647764
0.22065
0.0559404
-0.0200139
0.0317757
-0.0194914
-0.0649939
0.057629
0.176208
0.0382274
0.0197272
-0.0184706
0.0112002
0.103623
0.00702186
-0.0105071
-0.184443
0.289855
-0.105412
0.0153809
-0.0104795
-0.00490137
-0.169501
0.0783334
0.0911672
-0.0219322
0.0334063
-0.0114741
0.20652
0.155645
0.00364621
0.00874398
0.218249
0.0607119
-0.192776
0.089059
0.103717
0.141944
-0.227729
0.0857847
-0.171684
0.197051
-0.0121571
-0.0062606
0.13997
-0.252578
0.112608
0.0275789
-0.0439244
-0.00942268
-0.0884036
0.0978263
0.043118
0.262667
0.330991
-0.107928
0.0649287
-0.0212086
0.318377
-0.190615
0.0882834
-0.0784969
0.0895484
0.194378
-0.283926
-0.209026
0.296882
-0.0878553
0.107509
0.110204
-0.217713
-0.0896964
0.23164
0.127521
-0.0533608
-0.00625023
0.0471739
-0.277891
-0.138215
0.191866
-0.0536502
0.21524
0.093303
-0.00445095
0.0754978
-0.0116143
0.000607928
0.0110063
0.0995219
-0.0824657
-0.0170562
-0.209574
0.289222
-0.0796475
0.241837
-0.189946
-0.0518911
0.218196
-0.0889469
0.315656
-0.10343
-0.293877
0.292456
0.00142139
-0.0139393
0.00440335
0.0129541
-0.0120234
-0.305307
0.200186
0.105122
-0.0320642
0.0581614
-0.0260972
-0.0914555
-0.0243518
0.115807
-0.347782
0.251059
0.0967233
0.170914
0.113731
-0.284644
-0.320532
0.102386
0.218146
-0.0663144
0.0379304
0.028384
0.162277
-0.225418
0.0631409
0.0978822
0.0223233
0.0877612
-0.288209
0.183609
0.1046
-0.00726799
-0.237191
-0.0228379
0.0104642
0.0123737
-0.184469
0.308809
-0.124341
0.165039
0.0358874
-0.200926
0.299429
-0.0905342
-0.208895
0.132696
0.134222
0.360735
-0.253678
-0.107057
0.131258
0.0610413
-0.1923
0.00623141
0.0229454
-0.0291768
-0.157851
-0.106044
-0.00862627
-0.0220122
-0.1896
0.279148
0.268081
-0.049832
0.175574
-0.0700164
0.185646
0.0561905
0.191106
0.119403
-0.12215
-0.203427
0.324679
-0.222369
-0.10231
0.330976
-0.2164
-0.114576
-0.0851687
-0.0172629
0.102432
-0.0108753
0.0107117
0.000163624
-0.216912
-0.10362
-0.00598462
0.0073789
-0.00139428
0.00704314
-0.00704314
-0.0019468
0.0124461
-0.0104993
0.0723535
-0.184825
-0.137101
-0.0668311
0.203933
-0.0678088
-0.226068
-0.222466
0.322226
-0.0997607
-0.0564943
-0.259779
0.0217524
0.0855333
0.213891
0.0106796
0.0245078
-0.0237709
-0.000736901
0.304462
-0.111708
-0.192754
-0.0223197
0.00938791
-0.318419
0.145731
0.172688
0.0505029
0.217578
-0.285654
0.0760792
-0.0186083
-0.0155523
-0.298717
0.114248
-0.0129456
0.00740237
0.00554327
0.329669
-0.210123
-0.119546
0.0112854
-0.0131869
0.00190147
0.13479
-0.112709
-0.0220808
0.00503752
-0.278338
-0.332391
0.096747
0.235644
0.184564
-0.281567
0.0970035
-0.0129111
0.0895345
0.209225
-0.0765073
-0.0134233
0.0207447
-0.00732138
-0.32721
0.11803
0.20918
0.110257
-0.307423
0.226346
-0.147837
-0.0785085
0.233955
-0.126446
0.0148422
-0.0287161
0.0138739
-0.28466
0.204325
-0.0566641
0.221703
0.00391738
-0.017667
-0.00547593
0.0963623
0.203067
-0.00747945
0.00662876
0.00085069
0.035603
0.0203374
0.164804
-0.0546944
-0.110109
0.00421035
-0.005715
0.00150465
0.228414
-0.0724133
0.269542
-0.235101
-0.0344405
-0.00991618
-0.0162847
-0.285817
0.0998053
0.186011
-0.0768324
0.0941315
-0.0172991
-0.197945
0.295926
0.202763
0.103126
0.00347823
-0.0116862
0.00820799
-0.0343839
-0.0181395
0.0525234
-9.37616e-05
0.0302341
-0.0127434
0.00180063
0.0109428
0.20446
-0.012948
0.286775
-0.104282
-0.126478
0.0746091
0.051869
0.031436
-0.122461
0.091025
0.0225451
0.0305163
-0.00302917
0.00723952
0.193435
0.194974
0.0923174
-0.0404815
-0.0217826
0.062264
0.282097
-0.0668564
0.331763
-0.246519
-0.0852436
-0.166988
0.26789
-0.100902
0.140649
-0.230345
-0.0186588
-0.270943
0.0132834
-0.00143956
-0.0118439
0.221448
-0.181834
-0.0575756
0.188834
0.202643
0.0881804
0.0230736
-0.251502
0.0757281
-0.0173266
0.0144586
0.00286792
0.00112013
0.212771
-0.0481684
0.0496165
-0.00144814
-0.208506
-0.0287283
0.0304753
-0.281094
0.250618
0.264476
-0.162559
0.30473
-0.235538
-0.0691928
-0.085307
-0.0876057
-0.0656962
0.153302
0.0945915
-0.272345
0.010019
0.0252396
0.227426
0.0421157
0.300613
-0.136194
-0.164418
0.121826
-0.10653
-0.0101272
-0.00148706
0.0952508
-0.241674
0.146423
-0.18607
0.0132088
-0.0562087
0.152213
0.00996387
0.00207971
-0.0120436
0.233591
0.0711399
-0.100216
-0.0351817
0.135397
0.212187
0.0508411
-0.263028
0.269
-0.095882
-0.173118
-0.049377
0.00120862
-0.113266
0.326834
-0.245126
-0.0817079
-0.163721
0.258932
-0.0952109
0.0237261
-0.05841
0.295464
-0.2179
-0.0775638
0.129429
-0.0343977
0.0318161
0.00258159
0.0499795
-0.235882
0.185902
-0.0740019
0.0963252
-0.233124
0.0910102
0.103876
-0.28844
0.184563
0.000496647
0.00325897
0.010782
0.122026
-0.132808
-0.0866532
-0.0828474
0.09899
0.183107
-0.291563
0.287288
0.00427508
0.183621
-0.250056
0.066435
-0.104453
-0.092995
0.28347
-0.295862
0.0123919
0.0370179
-0.0643678
0.225068
-0.150725
-0.0743426
-0.00744259
0.0123424
-0.00840009
0.00457685
0.00382323
-0.343406
0.126315
0.217091
0.0171257
-0.00982021
-0.0368112
0.0466314
0.0681685
0.137214
-0.205382
0.124833
0.19897
0.138045
-0.0650373
0.250371
0.0450932
-0.130126
0.0552037
0.074922
0.0876381
0.143029
0.344739
-0.22853
-0.116208
0.199375
-0.0231663
0.0633032
-0.0288493
0.011225
-0.00196571
-0.00925932
0.250271
-0.169778
-0.0804928
-0.157052
0.0956469
0.0614048
-0.219203
0.292503
-0.0692421
-0.223261
-0.00714136
-0.0180241
0.0251654
-0.0829983
-0.203767
0.286765
0.00620311
-0.00357598
-0.00262713
0.0144551
0.271444
-0.0119433
0.0227441
-0.0108008
0.0834134
-0.0838242
0.000410778
0.227382
0.0937861
-0.292666
0.207971
0.0846948
-0.12471
-0.188346
0.292978
-0.104632
-0.0177687
-0.0367646
-0.323123
0.102926
-0.0109065
0.0200386
-0.00913213
0.18211
-0.291848
0.109738
0.0914644
0.192098
-0.283563
0.0302445
-0.0154023
0.0497198
-0.197805
0.148085
0.0255432
0.109247
-0.235786
0.32039
-0.0846041
0.339123
-0.214711
-0.124412
0.0976873
0.0277261
-0.125413
-0.268185
0.345907
-0.0777226
0.106426
0.0691475
-0.0584857
0.0167501
0.0417356
0.0932866
0.173545
0.047314
-0.0477528
0.000438857
0.101523
-0.038746
-0.0627769
-0.361937
0.276919
0.0850183
0.173941
-0.261698
0.0877566
0.01985
0.000469951
0.00456603
0.00755681
-0.0121228
-0.13318
0.209477
-0.076297
-0.0143374
-0.00996196
0.0242994
0.00660767
-0.000503722
0.180884
0.0693878
-0.0859484
0.138386
-0.156676
0.23034
-0.073664
-0.376227
0.251128
0.125099
0.320419
-0.241204
-0.0792146
-0.00175676
-0.00953836
0.0112951
0.255475
-0.150516
0.185865
-0.119235
-0.0666305
0.0438778
-0.0116018
0.172519
-0.0731128
0.126988
-0.0861123
-0.0408761
0.00830938
-0.0111397
0.0562911
0.0706973
0.164268
-0.0882029
-0.0760654
0.10699
0.0370222
-0.0747705
0.0468219
0.143654
-0.190476
0.252086
-0.120802
-0.131284
-0.0378866
0.0666165
0.22284
-0.0821911
0.00652251
-0.00742677
0.000904263
-0.13926
0.28534
-0.14608
-0.145008
0.0269182
0.11809
-0.0919458
0.0389595
0.0529863
0.0962034
0.234495
-0.107752
-0.126743
0.0975159
0.0753746
-0.172891
0.101872
-0.296233
0.194361
-0.0862935
0.182543
-0.0962496
0.011284
-0.00780581
0.0463689
-0.133975
-0.0982883
0.265439
-0.187153
-0.0782869
-0.0180126
0.00710618
0.0855975
0.0026859
-0.0102849
-0.0433736
0.115019
0.209032
0.0904732
0.0546514
-0.145125
0.16668
-0.153842
0.0877156
0.0765979
-0.122075
-0.0360675
0.158143
0.0986995
0.16674
0.0405192
0.208869
-0.0112975
-0.0110222
-0.0315105
0.0685284
0.0913124
0.00876505
0.00245997
0.268318
-0.173593
-0.0947246
0.0886744
0.0108475
-0.112178
0.17774
-0.0655624
-0.0201215
0.00578406
-0.0237793
0.0913275
-0.0675482
-0.0482839
0.0384637
-0.000400918
0.000589601
-0.000188683
0.132416
-0.21936
0.086944
0.0655505
0.0643368
-0.129887
0.0106199
-0.000745589
-0.0258202
0.121793
-0.0959732
0.0721689
-0.191465
0.119296
0.00547156
0.0208989
-0.0263704
-0.0035693
0.0135332
-0.0442328
0.267881
0.0079293
-0.00348136
-0.00444794
0.191189
-0.141469
0.0260285
0.267035
-0.1692
-0.0978345
-0.303413
0.046245
0.257168
0.170791
0.13692
0.0128761
-0.0119767
0.0240327
-0.0213546
-0.00267815
-0.050595
0.048865
0.00172995
-0.00554105
0.00395669
0.00158436
-0.0334282
-0.178821
0.00219944
-0.00818405
-0.131596
0.0912272
-0.127803
0.284044
-0.203513
-0.00478144
-0.00549708
0.0827303
0.185587
-0.00275749
0.0156336
0.140999
-0.340633
0.199633
-0.021647
0.0103495
0.295187
-0.19184
-0.196163
-0.0849287
0.285662
0.110974
-0.120397
-0.202746
0.299547
-0.0968014
0.232033
-0.274197
0.0421641
-0.0479571
0.230169
0.369427
-0.222709
-0.146719
0.156466
-0.247203
0.0907367
0.240611
-0.060654
0.0768817
0.107513
-0.184395
0.000103294
0.00320537
-0.051035
-0.00247575
0.0535107
0.180628
-0.152574
-0.0280532
0.0198985
-0.23385
0.213951
-0.0031179
0.0351284
-0.0320105
-0.330026
0.227302
0.102724
0.0213737
-0.0953756
0.0588883
-0.247058
0.115054
-0.333911
0.218857
0.0467812
-0.0545319
0.00775073
-0.277879
0.0902487
0.187631
0.0469179
0.143352
-0.19027
0.251192
-0.344932
0.0937399
-0.0441603
0.102313
-0.0581525
0.175453
-0.0690271
0.00764167
-0.0103992
-0.055885
0.178347
-0.0147999
0.0213757
0.0939947
0.0383769
-0.0542397
0.0158628
0.195195
-0.145215
-0.0122527
0.01617
0.285391
0.00711189
0.202813
-0.275116
0.0554107
0.179084
0.019171
0.0642425
-0.0387747
0.0783456
0.300485
-0.108098
0.191611
-0.119442
-0.0103205
0.193825
0.134232
-0.0510435
-0.0244654
0.0755088
-0.0871266
0.261068
0.00415755
0.0112233
0.0592025
-0.0694874
0.00442196
-0.0185974
0.0141754
0.00100768
0.000872253
-0.0618221
0.0440534
-0.277352
0.247115
0.0302367
0.100917
-0.276928
0.176011
0.0540759
-0.115719
0.04164
0.0222216
-0.0638617
-0.0126334
0.0170554
0.0173094
-0.0136632
0.296681
-0.0344025
-0.262279
-0.0796743
-0.2388
-0.117202
0.0981395
0.0190623
0.181581
-0.270807
0.0892258
0.167326
0.0726384
-0.239964
0.0887077
0.0746174
0.177468
0.0602735
0.018166
-0.0562973
0.00102611
0.0552712
0.0136081
-0.0208145
0.00720638
0.163717
-0.0662006
-0.00317428
-0.0052258
-0.00134002
0.00786253
0.00276501
0.119061
0.0356623
-0.0285994
0.0520904
0.171429
-0.223519
0.241266
-0.200747
-0.251863
-0.0254882
0.247725
-0.0879575
0.0537781
-0.00699691
0.105417
0.0762479
0.101923
-0.304352
0.202428
0.162978
-0.167283
0.00430428
-0.0114816
-0.0119465
0.156574
-0.195704
0.0391296
0.160945
-0.354382
0.193437
-0.107858
-0.177958
0.183605
-0.105272
-0.212607
0.273772
-0.0611651
0.100899
0.230125
-0.185155
0.00874337
0.00454005
-0.239423
-0.0894979
0.201537
0.0588402
-0.260378
-0.242775
0.335149
-0.0923735
-0.174088
-0.136875
-0.0959047
0.0519481
0.0439566
-0.30241
0.0845098
0.00155443
0.00933329
-0.0108877
-0.11376
-0.00344156
0.0275003
-0.063771
0.0362706
-0.000828567
-0.0502149
-0.0115604
-0.0100866
-0.0213927
-0.0162019
0.0375946
-0.140362
-0.21402
0.207323
0.100744
0.303208
-0.101941
-0.201267
0.20516
0.101318
0.244905
-0.149654
0.171891
-0.135936
-0.0359549
-0.101346
0.0380209
0.0633256
0.252652
-0.112682
0.0470136
0.0179151
-0.0418831
-0.150957
-0.0392341
0.190191
-0.0248821
0.154358
0.0470869
-0.201445
-0.071998
-0.289939
0.282026
-0.190562
-0.189914
0.278604
-0.08869
0.176965
-0.300227
0.123262
0.00775154
-0.0328174
0.0250658
-0.0279375
-0.0232197
-0.0169806
-0.0571832
0.00614827
-0.27704
0.335497
-0.191259
-0.144238
-0.0580648
-0.130916
0.188981
0.323644
-0.123557
-0.200086
0.0216033
-0.0631679
0.349411
-0.248565
-0.100846
0.19619
-0.0418322
-0.020775
0.056378
0.00608126
-0.267122
0.261041
-0.00716653
0.026486
-0.144429
-0.216926
0.149336
0.18616
0.166922
-0.0466085
-0.120313
-0.216971
-0.0854389
0.293102
-0.196656
-0.0964459
0.00301562
0.0142938
-0.0363829
0.0675698
-0.0311869
-0.0683178
0.133868
-0.0234301
0.0650702
-0.00536107
0.0298689
0.229871
-0.155253
-0.0908874
0.114272
-0.0233844
0.0499913
-0.0717384
0.0217471
-0.202384
0.283975
-0.0815914
-0.244596
0.0710027
-0.104089
-0.156461
0.26055
0.301099
-0.0995303
-0.201569
-0.185746
-0.162139
-0.102074
-0.0429344
0.083924
0.17194
-0.255864
-0.309997
0.0627788
0.247218
0.361668
-0.25514
-0.106528
-0.32425
0.192987
0.139318
0.0413097
0.258278
-0.118856
-0.139422
0.0786887
0.123883
0.169219
-0.132262
0.240083
-0.107821
0.0716768
-0.284283
0.146759
0.222668
-0.016405
-0.180251
0.199672
-0.295609
0.0959366
0.116099
0.115896
-0.231994
0.0113827
0.0718107
-0.0873735
0.0560865
-0.172068
0.115982
-0.024531
-0.0875524
0.112083
0.210464
-0.319848
0.109383
0.267735
-0.0861534
-0.0141019
-0.0421954
0.22635
-0.0504432
-0.175907
-0.223889
-0.112521
-0.0112304
-0.00151303
0.166102
0.0980381
-0.26414
0.00234973
0.00385337
0.0203186
0.00371409
0.0983772
-0.149671
0.0512937
0.0934615
0.0901438
0.0414134
-0.235417
0.194004
-0.0332781
-0.0356426
0.0689208
0.192918
-0.209323
-0.153464
-0.187169
-0.277399
0.0873793
-0.206049
-0.0385463
0.323923
-0.164638
-0.159285
0.145869
0.0253007
-0.17117
0.00424715
0.00368216
-0.0063664
0.0473169
-0.0409505
0.00780924
0.00296108
-0.0107703
0.2551
-0.213686
0.153748
0.0989042
-0.00383672
-0.030561
0.0131917
0.0856677
-0.0988593
0.262098
-0.0959963
0.14681
-0.10934
-0.0374702
-0.115563
0.196093
-0.00128869
0.00241241
-0.00112372
-0.194648
0.298507
-0.103859
0.0344108
0.156778
0.0122056
-0.016375
0.00416939
0.31352
-0.271016
-0.0425034
0.349767
-0.204048
-0.145719
0.121777
0.0451445
0.294876
-0.24354
-0.051336
0.0110565
-0.0128132
0.0928676
0.154232
-0.2471
0.119821
0.110049
0.273785
-0.201565
-0.0722191
0.204049
0.145717
0.196079
0.0302714
0.0115865
-0.0135333
0.302492
-0.240379
-0.0621134
0.11921
0.0666552
0.287519
-0.185524
-0.101995
0.0329101
-0.036028
0.0474934
-0.0753954
0.027902
0.253835
-0.100088
-0.31107
0.226036
0.0850336
-0.0330094
0.195988
0.0887927
0.212307
0.0118081
0.00840098
-0.0202091
-0.154386
0.188797
0.226509
0.0971347
0.186108
-0.13919
0.291228
-0.201724
-0.0895035
0.277859
-0.243201
-0.0346579
-0.159909
-0.14615
0.306059
-0.0926172
0.169499
0.21415
-0.139578
-0.0745724
0.086639
0.0134094
-0.100048
0.209837
-0.0302983
-0.179539
-0.150148
0.043058
0.143472
0.110363
0.228555
-0.0674473
-0.161108
0.216336
-0.0540586
-0.00351633
-0.00202471
0.248443
-0.224319
-0.0241238
0.00169529
-0.00298398
0.0831635
0.0636466
0.290941
-0.291169
0.000227746
0.171499
-0.124677
-0.0816816
-0.174523
0.256204
0.0322591
-0.02224
0.126508
-0.112466
-0.0140419
0.16809
-0.0895136
-0.0785764
0.314743
-0.0903946
-0.206329
0.31528
-0.108952
0.0278629
-0.0316997
-0.0426674
0.257365
-0.178355
0.0263201
0.152035
0.140551
0.0757849
-0.00599712
0.0136388
-0.202993
0.219954
0.0825381
-0.18779
-0.0648015
0.252592
0.0398024
-0.260558
0.220755
0.00804797
-0.0255943
0.0175463
0.00693522
-0.00693522
-0.211926
0.320568
-0.108642
-0.317695
0.224734
0.0929613
-0.193788
0.121145
0.072643
0.273167
0.0477464
-0.0948708
-0.204203
0.35832
-0.154117
0.252334
-0.212532
-0.191385
0.134348
0.0570371
0.00135882
0.0115953
-0.167965
0.0787
0.0892654
-0.0506921
0.0443257
0.00569544
0.0155002
-0.0211957
0.0962996
0.0034752
-0.0997748
-0.106189
-0.0239363
-0.297225
0.0908966
0.276058
-0.0756634
-0.200395
0.0104577
-0.00837803
-0.0341343
0.0797872
-0.045653
0.054289
-0.0801092
0.187152
-0.154289
-0.0328633
0.165378
-0.126443
1.22146e-05
-0.000413133
0.124339
-0.315074
0.149251
-0.252906
0.103655
-0.191423
0.286731
-0.0953074
-0.208455
0.0752752
0.216575
0.0744422
-0.291017
0.127381
0.133741
0.0223263
-0.00881505
-0.0198578
0.00335708
0.0165007
-0.00566495
0.132173
-0.213935
-0.101217
0.315152
0.283331
-0.0987672
0.0145166
-0.0174182
0.00290161
-0.24829
-0.0344035
0.282693
0.310488
-0.221695
-0.0828048
-0.21643
-0.200841
0.14022
0.0253118
-0.165532
-0.0945501
0.00786262
0.00110388
-0.0089665
0.277563
0.0359563
-0.0212309
0.118918
0.0342099
0.0544725
-0.0886824
0.143667
0.070483
-0.200006
-0.0972198
-0.287817
0.107711
0.180107
0.186857
-0.100145
-0.0867119
-0.0231336
0.0135752
0.0095584
0.300542
-0.249845
-0.0506969
0.267547
-0.118296
-0.14482
0.353734
-0.208914
0.0572297
-0.0655973
0.00836757
0.116016
-0.21291
0.243646
0.031834
0.155318
-0.00643247
0.00117955
0.00525292
0.191336
0.0571067
-0.0783654
0.024902
0.0534634
0.00749618
-0.0186006
0.0111045
0.0854425
-0.0956366
0.0101941
-0.0339466
0.190521
-0.129756
0.144375
-0.0146198
0.0751333
0.107896
-0.183029
0.0102366
0.000345425
0.268183
0.015498
-0.283681
-0.0945773
0.238049
0.173344
0.107642
-0.280986
0.244483
0.0333761
0.283052
-0.107018
-0.176034
-0.0107572
0.000520952
0.322805
-0.207751
0.0881966
0.0986599
-0.0735248
0.030365
0.0431598
-0.128169
-0.0877874
0.215957
-0.0172265
-0.00263132
0.00856688
0.00320488
-0.0117718
0.177101
-0.071684
-0.0081241
-0.0360982
0.0442223
-0.101735
0.114927
-0.0408427
-0.055062
-0.00732949
-0.000149958
0.0211737
-0.0587301
0.0375565
-0.00870459
-0.0119742
0.0462499
-0.257916
0.211666
-0.126403
0.046838
0.0795648
-0.227543
-0.0101837
0.148806
-0.185252
0.0364462
-0.0200378
0.00577619
0.0142616
0.0651261
0.0300021
-0.0909083
0.0762655
0.0146429
-0.238164
-0.0652486
-0.092276
0.283161
-0.190885
0.00618648
0.104788
0.0689645
-0.206233
0.137268
-0.293817
0.0223959
-0.0143424
0.0119171
0.0849355
-0.0968526
-0.0421783
-0.136176
-0.170285
0.14699
0.0232959
0.0409863
0.0184215
-0.0594079
0.0227936
-0.017322
0.00246424
-0.0099175
-0.0967452
0.264536
-0.167791
-0.0661108
0.237164
-0.00752154
-0.00247412
0.00999567
0.282361
-0.29661
0.0142491
-0.00163662
0.00548173
-0.00384511
-0.189773
0.289579