/*--------------------------------*- C++ -*----------------------------------*\
| =========                 |                                                 |
| \\      /  F ield         | OpenFOAM: The Open Source CFD Toolbox           |
|  \\    /   O peration     | Version:  v2012                                 |
|   \\  /    A nd           | Website:  www.openfoam.com                      |
|    \\/     M anipulation  |                                                 |
\*---------------------------------------------------------------------------*/
FoamFile
{
    version     2.0;
    format      ascii;
    class       volVectorField;
    location    "100";
    object      U;
}
// * * * * * * * * * * * * * * * * * * * * * * * * * * * * * * * * * * * * * //

dimensions      [0 1 -1 0 0 0 0];


internalField   nonuniform List<vector> 
53008
(
(1.02699 0.0940838 1.63039e-21)
(1.04517 -0.0364843 0)
(0.410327 -0.0167032 5.4058e-21)
(1.0232 -0.000975551 1.74673e-21)
(0.991092 0.0800531 1.08918e-22)
(1.00695 -0.000568635 1.56573e-24)
(1.01755 -0.00846507 1.93414e-21)
(1.00754 0.000467705 -3.34929e-22)
(1.00019 -0.0171454 3.64882e-22)
(1.00866 -0.000160625 -1.04615e-21)
(1.01166 0.00121442 6.51523e-23)
(1.04683 -0.114688 -4.59564e-21)
(1.01654 0.00324102 1.17478e-22)
(-0.0261708 0.0161513 0)
(0.882443 0.319073 2.54406e-21)
(0.952777 -0.166514 8.73166e-22)
(1.014 -0.000431196 0)
(0.981811 0.243245 7.04981e-21)
(1.07041 -0.0355092 -3.75616e-21)
(1.01057 -0.00375059 -8.97692e-24)
(1.01187 -0.00688721 -4.13373e-22)
(-0.109572 0.0820059 6.48467e-20)
(0.828694 0.183656 5.50662e-23)
(-0.0278088 0.325593 -1.24435e-20)
(1.00854 -0.000175613 4.2085e-22)
(1.03719 -0.0394738 2.19316e-21)
(0.996293 0.226294 -4.9458e-21)
(1.01544 0.00271929 -1.32772e-22)
(0.0560399 -0.269472 8.19986e-21)
(1.02295 -0.00090489 3.08935e-21)
(1.07154 -0.04527 0)
(1.01052 -0.00371218 -6.64046e-23)
(-0.187116 -0.167955 2.60913e-20)
(1.03785 0.00792218 2.19654e-22)
(1.0092 0.00108103 3.32407e-22)
(1.00933 0.00112167 0)
(1.00391 -9.54521e-05 7.65383e-23)
(0.976394 -0.0426125 -8.19356e-23)
(1.01222 0.00761781 2.61379e-22)
(0.351786 -0.0109267 9.45393e-21)
(0.325688 0.295757 1.0285e-21)
(0.235869 0.0510418 0)
(1.01737 0.00191925 0)
(1.01101 0.000601755 0)
(0.00832276 0.00574052 -4.47085e-21)
(-0.12157 0.121703 -4.77099e-20)
(0.283076 -0.00169665 1.71157e-20)
(0.979019 0.0874765 7.18238e-22)
(0.974919 -0.0359379 0)
(0.463012 0.00573712 0)
(1.04033 -0.0370348 -3.04952e-21)
(0.7871 -0.110379 0)
(1.00412 -0.000188301 -2.37753e-22)
(1.01627 -0.0378803 -1.89637e-22)
(1.03007 0.0110209 7.41576e-22)
(1.12147 -0.0572814 -2.2531e-20)
(0.473178 -0.334703 5.07154e-21)
(1.01774 0.00455109 -2.80108e-22)
(1.01103 0.000523553 3.08192e-22)
(1.00327 6.98426e-05 1.81412e-22)
(1.01502 -0.00528464 0)
(1.00888 -0.00214355 1.4097e-23)
(1.0155 -0.0120512 2.60978e-23)
(1.04093 -0.0370633 0)
(1.01103 0.000529272 0)
(0.332161 0.0385156 -1.18022e-21)
(0.56305 -0.0339164 0)
(1.09461 -0.0557499 0)
(1.0267 -0.0191708 -9.78949e-22)
(1.01004 -0.00321558 -6.39603e-23)
(1.01642 -0.00505601 0)
(1.01907 -0.000443807 4.18404e-21)
(1.02118 -0.00397688 0)
(1.01956 -0.00117233 3.58219e-21)
(1.08239 -0.0581744 -4.45721e-21)
(1.04392 -0.034243 -2.46575e-21)
(1.00757 0.0004818 0)
(1.00907 -0.001824 1.42255e-22)
(1.0368 -0.0394701 3.08699e-22)
(1.02484 -0.0098168 0)
(1.00853 -0.000225225 4.52073e-22)
(1.01161 0.00127656 0)
(1.12022 -0.0580189 4.80004e-23)
(1.07247 -0.0455765 0)
(1.01839 -0.00191882 1.08106e-21)
(1.02354 -0.0323056 3.39893e-22)
(1.09279 -0.0698952 2.82103e-20)
(1.08323 -0.063288 8.48316e-21)
(1.02931 -0.0437123 0)
(1.01595 -0.00357667 0)
(1.00948 0.000895609 0)
(1.01456 -0.00502644 -6.16977e-22)
(1.01902 -0.0122846 1.54467e-21)
(1.01845 -0.00183638 0)
(1.08396 -0.0626579 0)
(0.833249 0.0465179 1.5401e-21)
(1.0097 -0.00232065 1.55692e-22)
(1.00954 0.000918627 0)
(1.01665 0.00326323 0)
(1.00995 -0.00316096 9.35055e-23)
(1.01502 -0.00544402 -3.88691e-23)
(1.00315 6.36846e-05 0)
(0.869522 0.169475 0)
(1.01546 0.00276512 1.28788e-22)
(1.01632 -0.00509385 1.64465e-21)
(1.01738 -0.19428 -6.33086e-21)
(1.03021 -0.185587 -5.96656e-21)
(0.319955 -0.132707 3.27187e-20)
(1.04727 -0.0199115 0)
(0.925354 -0.0272367 1.19257e-21)
(0.498191 -0.0334973 -4.76565e-21)
(0.52042 -0.029058 -2.06338e-20)
(0.640859 -0.124661 0)
(1.01113 0.000680062 2.74529e-22)
(1.0131 -0.0134562 0)
(1.02277 -0.0107222 0)
(0.956746 -0.010797 0)
(1.01602 -0.0368633 1.96377e-22)
(1.09221 -0.0706012 -1.8422e-21)
(0.842939 0.052545 -1.47113e-21)
(1.00945 0.000898086 2.45981e-24)
(1.01423 -0.0107331 -3.36766e-22)
(0.903968 -0.0491412 0)
(1.04343 -0.0438125 -5.08466e-21)
(1.01213 0.00169863 0)
(0.460453 -0.306527 8.87208e-21)
(0.847633 -0.00513555 -9.32715e-21)
(0.956453 -0.00418559 -6.13046e-21)
(0.381117 -0.00610089 0)
(1.06958 -0.0355151 3.52003e-21)
(1.01378 0.00180551 1.58821e-22)
(1.00951 0.000924718 2.50557e-22)
(0.691379 -0.284707 0)
(1.03433 -0.0556146 0)
(0.547932 -0.0320418 0)
(1.01583 -0.00346093 -7.92992e-22)
(1.00093 1.64113e-05 3.57759e-22)
(1.01394 0.00271285 -3.10358e-22)
(0.504067 -0.0278248 -7.09775e-21)
(1.01374 0.00179421 1.46188e-22)
(-0.0171143 0.0437143 0)
(0.542057 -0.0303639 -1.24052e-20)
(1.03653 0.00988168 0)
(1.00638 -0.000294458 0)
(1.01209 0.000754462 8.70533e-24)
(1.07134 -0.0442624 4.56193e-21)
(1.00501 0.00578098 -2.34168e-21)
(1.04559 -0.0377014 -2.02825e-22)
(1.00296 -0.000130462 1.36275e-22)
(1.02296 -0.00606077 0)
(0.341071 -0.00809263 0)
(1.01153 0.000670855 -3.99298e-22)
(1.02622 -0.0535306 2.33554e-21)
(0.611488 -0.0666988 0)
(-0.144474 0.118965 2.61079e-20)
(1.03247 -0.0306159 -4.52495e-21)
(1.01 0.130553 0)
(0.560567 -0.149349 2.92533e-21)
(1.007 -0.000600628 0)
(1.04756 -0.0204943 4.23667e-21)
(1.0115 0.00160719 0)
(1.01097 0.000575768 -4.60028e-22)
(1.01147 0.00113441 -7.23808e-23)
(1.02479 -0.00630615 0)
(1.01157 0.00117317 2.13839e-22)
(-0.0356075 0.309537 0)
(1.10477 -0.0997429 0)
(0.456727 -0.295166 -5.58758e-21)
(1.00948 0.000925968 6.59732e-23)
(1.00704 -5.67638e-05 -2.44001e-24)
(1.03805 -0.0375246 1.86481e-22)
(0.569438 -0.143315 6.27545e-21)
(1.0387 -0.00539666 -7.24007e-21)
(1.04876 0.128216 -1.91055e-21)
(1.00841 -0.000236045 0)
(1.01185 0.00177951 -2.13181e-22)
(1.00372 -0.00013505 -4.05214e-22)
(1.02249 -0.0104777 -1.22294e-21)
(1.10493 -0.0984405 0)
(1.04422 -0.0338405 5.69564e-21)
(1.04738 -0.0562007 7.96146e-21)
(1.00062 -0.0188002 1.34861e-21)
(1.01075 0.00111852 2.10091e-22)
(1.00691 -0.000552538 0)
(0.718321 -0.0846962 1.34085e-21)
(1.01121 0.000660296 2.32839e-22)
(1.0109 0.000908553 2.17142e-22)
(0.343702 -0.00886735 -1.20309e-20)
(0.340809 -0.00955969 0)
(0.358402 -0.00931053 5.73099e-21)
(1.00694 -0.000217448 2.19072e-22)
(0.28987 -0.440273 0)
(1.02923 -0.0560875 0)
(1.0307 -0.191433 0)
(0.806502 -0.114961 0)
(1.01865 -0.00186802 0)
(1.05929 -0.229338 -3.1812e-21)
(1.06339 -0.139186 0)
(1.01867 -0.00177378 0)
(0.716699 0.0703575 -3.67737e-21)
(1.02189 -0.00624874 8.21581e-22)
(0.00540042 -0.0035294 -5.12346e-21)
(1.05317 -0.110466 -2.68814e-21)
(1.01884 -0.000946896 1.56877e-23)
(0.949782 -0.0164859 0)
(1.00488 0.0196121 9.78405e-22)
(1.00692 -0.000199894 0)
(1.01436 -0.0107549 3.64463e-22)
(0.995564 -0.174706 3.29567e-22)
(0.320461 0.278802 -1.25373e-21)
(1.03736 -0.0368417 4.37763e-22)
(1.08293 -0.0671819 0)
(0.861979 -0.211443 0)
(1.01423 -0.0108519 -3.83902e-22)
(0.111113 -0.390516 0)
(1.01161 -0.00651666 9.68006e-22)
(-0.0302079 0.0213016 -8.18182e-21)
(1.08324 -0.0652765 0)
(0.540859 -0.0304636 2.01672e-20)
(0.524913 -0.0287144 0)
(1.09121 -0.0678547 -9.9916e-22)
(1.01171 -0.00642834 0)
(1.00963 -0.00224618 -3.19971e-22)
(0.922343 -0.0546572 0)
(1.07176 -0.0819267 -9.14539e-21)
(0.490431 0.0037827 -1.454e-21)
(1.04411 -0.0451604 -3.48708e-21)
(0.877528 0.320153 2.51194e-21)
(1.04456 -0.0443929 3.64085e-21)
(1.03402 -0.020438 -2.33644e-21)
(1.01108 0.00123881 2.1981e-22)
(1.04209 -0.239904 5.65502e-22)
(1.03271 -0.0048934 -4.3789e-21)
(0.840436 -0.0390734 1.25111e-20)
(1.01213 -0.0058304 0)
(1.07612 -0.0805904 0)
(1.03333 -0.00825094 -2.02326e-21)
(1.0144 -0.010873 4.25006e-22)
(1.05047 -0.046721 1.84195e-22)
(1.01593 0.00291862 -1.10707e-22)
(1.0208 -0.0113727 0)
(1.0025 0.0182661 -1.39135e-21)
(1.07356 -0.0909213 2.05314e-20)
(0.856354 -0.216104 -3.25084e-21)
(1.00988 -0.00309147 1.07186e-23)
(1.061 0.0208751 7.71162e-21)
(1.00916 -0.00189961 0)
(1.00963 -0.00109147 -4.20484e-22)
(1.03371 -0.0206531 0)
(1.0418 -0.0387348 6.20582e-21)
(0.527157 0.244934 5.48673e-22)
(0.951169 -0.0376747 1.33588e-21)
(1.088 -0.0730075 0)
(1.01133 0.00156409 -1.95022e-22)
(0.999902 -1.35579e-06 2.36463e-22)
(1.00754 0.000462552 0)
(0.857712 -0.20717 4.16273e-21)
(1.05039 -0.110833 6.34557e-21)
(1.09551 -0.0573612 8.45835e-21)
(0.490098 -0.0190511 0)
(0.553667 -0.0307075 6.49302e-21)
(1.08394 -0.064648 -9.59823e-21)
(1.00982 -0.0030292 0)
(1.00402 -0.000182954 0)
(0.836534 0.107349 -4.10017e-21)
(1.00624 -0.000264989 6.18767e-22)
(0.515574 -0.0290572 1.14279e-20)
(0.521777 -0.028837 -2.37681e-23)
(1.03218 -0.0300882 2.24372e-21)
(1.01369 0.0190564 5.53955e-22)
(1.0749 -0.104697 -1.10548e-20)
(1.01545 0.00155388 2.11075e-22)
(1.00132 3.81666e-05 -3.58497e-22)
(1.09032 -0.0673261 7.49901e-22)
(1.00776 -0.0133997 2.5966e-21)
(1.06214 -0.136808 -7.39467e-21)
(1.01268 -0.013485 0)
(0.375947 0.0355214 7.89871e-21)
(1.00581 -0.000289753 -3.19026e-23)
(1.00098 1.14802e-05 7.88521e-24)
(1.0421 -0.0384874 -4.36829e-21)
(0.83241 0.120261 7.39818e-22)
(0.943696 -0.0202273 1.07664e-21)
(0.99818 -0.194599 2.15747e-20)
(0.937871 -0.0331162 3.53485e-22)
(1.01486 -0.00515465 3.96295e-23)
(1.01749 -0.00564092 0)
(0.549875 -0.0306316 7.62731e-23)
(0.488022 -0.0766924 -1.57143e-20)
(0.751466 -0.100795 7.67097e-21)
(1.02337 0.168679 -5.70321e-21)
(0.929231 -0.153248 -3.70995e-23)
(0.374712 -0.00563882 1.71762e-20)
(1.07293 -0.105306 -9.37611e-21)
(1.02448 -0.0063273 1.10831e-21)
(1.02222 -0.0105144 1.34492e-21)
(0.413348 -0.0170338 6.98138e-22)
(1.01164 0.00119176 4.28499e-22)
(1.0286 0.123711 0)
(1.03725 0.140285 8.62682e-21)
(0.511832 -0.0283389 -1.48175e-20)
(1.01068 0.00123039 -4.32219e-22)
(1.0105 0.00119533 5.95933e-22)
(1.01281 -0.00661056 7.22278e-23)
(-0.0281402 0.143589 4.64703e-22)
(1.10778 -0.124309 3.65208e-21)
(1.01564 0.00286166 0)
(1.03742 -0.0384307 -3.16017e-21)
(1.04053 0.00846482 3.1406e-22)
(0.647475 -0.0885119 4.63126e-21)
(0.963193 -0.153136 -6.44549e-23)
(1.01908 -0.000544742 -5.94794e-22)
(1.01195 0.00180346 1.74762e-22)
(1.01253 0.00176922 3.17433e-22)
(1.05024 -0.0484154 -3.80331e-22)
(1.02168 -0.00322719 -1.41879e-21)
(1.01107 0.00794021 2.73387e-22)
(0.368196 -0.0108208 -1.55008e-20)
(0.853068 0.0282689 -2.5272e-21)
(1.01333 -0.000432504 7.02933e-22)
(1.08369 -0.0666797 0)
(1.01434 0.00149951 1.13115e-23)
(0.902633 -0.147504 0)
(1.01046 0.00112107 -1.15647e-22)
(1.02064 0.00103937 -5.60247e-24)
(0.122551 -0.39259 0)
(0.18564 -0.0932119 -8.77601e-22)
(1.0109 -0.00303905 -8.53405e-23)
(0.974573 -0.0968934 0)
(1.03329 -0.021745 0)
(0.829879 0.0112565 -1.53333e-22)
(0.865133 0.0352263 2.37604e-21)
(1.01148 0.00131229 0)
(1.00029 -0.0218791 7.54919e-22)
(0.873536 -0.290007 1.07116e-20)
(1.01215 -0.0082368 0)
(0.446878 0.00230529 -2.67438e-21)
(1.07043 -0.0439304 4.44765e-21)
(1.00952 -0.0022314 -1.48769e-22)
(1.03343 -0.0213184 4.98001e-22)
(1.06915 -0.0461571 0)
(1.04295 -0.0433107 5.92822e-21)
(0.43642 0.00190967 -6.95148e-22)
(0.927421 -0.167402 1.26471e-22)
(0.964356 -0.19773 1.27842e-20)
(1.01655 0.00307533 3.02511e-22)
(1.08353 -0.0438887 -2.88042e-21)
(1.01059 0.00126671 -1.15292e-22)
(1.01128 0.00123208 6.04935e-22)
(1.02606 -0.00382521 1.39291e-22)
(1.0088 -0.00205684 0)
(1.00697 -4.21995e-05 -5.64587e-22)
(0.712599 0.215955 -4.60389e-21)
(0.312571 0.0105296 -5.43098e-21)
(1.00918 -0.00197202 1.99949e-22)
(0.88315 -0.283318 -4.95902e-21)
(0.330626 -0.00847347 1.321e-20)
(0.0101634 0.394887 -2.42596e-22)
(0.441243 -0.36555 0)
(1.07129 -0.0805836 2.26659e-20)
(1.0227 -0.181029 6.48964e-21)
(1.01228 -0.000672124 -1.57806e-22)
(0.901589 -0.298633 6.40296e-21)
(1.01084 0.00115836 0)
(1.0256 0.00574598 0)
(1.01065 0.00112981 -2.15133e-22)
(1.03712 -0.0407163 0)
(0.0588478 -0.28074 0)
(0.352538 -0.00694579 1.51037e-20)
(1.04533 -0.00331571 0)
(0.509653 -0.0349765 3.65302e-21)
(1.01511 -0.0101127 2.79051e-23)
(1.03101 0.00870956 -1.53828e-21)
(1.01378 0.00241035 4.16064e-22)
(1.01734 -0.00810476 7.92119e-22)
(1.08132 -0.0580418 -3.98089e-21)
(1.00947 -0.00216773 2.81931e-22)
(0.227006 -0.00149918 2.04661e-20)
(1.01921 -0.0105399 -1.42786e-22)
(1.01115 0.00124717 -4.56374e-22)
(1.00827 -0.00141718 -1.1959e-22)
(1.01322 0.00212244 0)
(1.02205 -0.00647667 -1.66167e-21)
(0.864632 0.105286 -1.17448e-20)
(1.0181 0.00278702 0)
(1.01891 -0.001508 -2.32926e-21)
(1.0245 0.00550043 4.20294e-25)
(0.728079 0.00755866 0)
(0.505811 0.22062 2.52394e-21)
(0.782905 0.132095 -4.42052e-21)
(0.931781 -0.0522335 1.20974e-21)
(0.33534 -0.00466403 0)
(-0.0393385 0.0239811 1.34516e-20)
(1.00986 0.00121018 7.76261e-23)
(0.469558 -0.342301 1.26096e-20)
(0.931847 -0.051689 9.4852e-21)
(0.920159 -0.210061 -6.13191e-21)
(1.00926 -0.00235238 0)
(0.350351 0.0059787 2.5295e-20)
(1.01341 0.0021881 -2.09632e-22)
(1.01566 0.0028991 0)
(1.01087 0.00115333 0)
(0.631799 -0.133473 -2.95635e-22)
(0.874962 0.130851 1.39444e-20)
(1.00118 1.92967e-05 -3.60754e-22)
(1.01431 -0.00112027 -7.98291e-22)
(1.01241 0.00176006 -5.14547e-22)
(1.08517 -0.125572 2.06046e-20)
(1.02896 -0.0241995 0)
(1.01889 -0.000860706 0)
(1.06083 -0.0716856 -8.59301e-22)
(1.01131 -0.00452714 -9.05536e-23)
(-0.129443 0.014592 -2.15898e-20)
(0.915707 -0.0509542 5.87784e-21)
(1.09723 -0.0573591 -1.42169e-20)
(1.0189 -0.00158891 -6.95306e-22)
(0.839815 0.108229 -1.04176e-21)
(1.02653 -0.0211899 1.08953e-21)
(1.01485 -0.00979145 2.87838e-22)
(1.01471 -0.00516336 1.22241e-21)
(1.00833 -0.00142413 1.1674e-22)
(0.779917 0.173689 8.65254e-21)
(1.01118 0.00118937 6.19373e-22)
(1.01553 -0.00338917 3.70395e-22)
(1.01421 -0.0020628 6.18775e-22)
(1.02069 0.00102697 1.29515e-23)
(1.02053 -0.00569277 -1.46624e-21)
(-0.200775 0.0203442 -4.55157e-20)
(1.02832 -0.0104471 1.91585e-22)
(1.01911 -0.00140115 -3.53444e-21)
(-0.0345428 0.0436972 -4.76e-20)
(1.01469 -0.0362237 0)
(1.02073 0.000947666 0)
(1.11172 -0.0675749 1.39219e-20)
(1.01877 -0.000782354 2.09585e-21)
(1.01498 -0.0100501 -3.19029e-22)
(0.24074 -0.0563298 -6.87384e-21)
(1.03735 -0.0381929 0)
(0.95012 -0.0296751 -1.50773e-21)
(0.644267 -0.239054 -3.28995e-21)
(0.965801 -0.102555 7.27009e-24)
(1.04439 -0.00708455 0)
(1.00153 -0.0433945 1.73273e-23)
(-0.192339 -0.142178 0)
(0.228339 -0.087367 -2.01536e-21)
(1.0248 -0.00956666 -1.48922e-22)
(1.02099 0.000794297 -2.86006e-24)
(1.01233 -0.0153529 0)
(0.280115 -0.0309279 1.36725e-20)
(1.00702 0.000145576 2.31504e-22)
(0.768241 -0.103291 0)
(-0.201357 0.0181152 9.46415e-21)
(1.01193 0.0016661 0)
(1.00489 -0.000229607 4.40406e-22)
(-0.0717917 0.0943572 2.4529e-22)
(0.861921 -0.0776342 1.52906e-21)
(0.72737 -0.105702 -2.60059e-22)
(0.129952 -0.116438 2.42482e-21)
(1.00152 3.0243e-05 -4.48268e-23)
(0.557087 0.0169022 -9.10671e-21)
(1.01192 0.00178153 3.3885e-22)
(1.04056 -0.0106546 7.50438e-22)
(1.01734 -0.00830179 -2.39284e-21)
(1.0155 -0.00570453 -1.35868e-21)
(1.00695 -0.000338748 0)
(0.576692 -0.0617906 0)
(0.937824 -0.0257025 6.53455e-22)
(0.913366 -0.0259185 0)
(1.10457 -0.123859 2.04099e-22)
(0.471166 -0.300401 -8.42416e-21)
(1.09494 -0.0570145 0)
(0.957706 -0.0948431 5.42877e-22)
(0.949136 -0.00717632 6.38846e-21)
(0.349868 -0.134506 -3.85427e-20)
(1.01567 -0.00349431 -7.99121e-22)
(0.452736 0.00468208 -8.46117e-22)
(1.01114 -0.00433358 8.25181e-24)
(0.49246 0.00360805 1.93492e-21)
(0.871771 0.317583 7.447e-21)
(0.821578 -0.121363 6.85906e-21)
(1.01219 0.00172406 0)
(0.41523 -0.0091348 1.86669e-20)
(0.937688 -0.0169907 0)
(1.03642 -0.0399157 1.82222e-21)
(1.01797 -0.0165706 0)
(1.02069 -0.00582384 -1.47825e-21)
(0.523386 -0.0288637 0)
(1.01768 -0.00649265 4.51532e-22)
(1.09459 -0.0807092 1.08835e-20)
(1.0407 -0.138352 7.34503e-21)
(1.00188 5.08234e-05 0)
(1.01054 0.001237 -2.76621e-23)
(0.514656 0.245134 3.45373e-22)
(1.00754 0.000186543 0)
(0.918057 0.150832 0)
(1.00883 -0.0017511 3.21423e-22)
(1.01869 -0.000537658 -1.08482e-21)
(1.01177 -0.00487291 0)
(1.01796 -0.0161875 0)
(1.04693 -0.0550969 -2.06978e-22)
(0.193831 -0.000990466 -1.66664e-20)
(1.02559 -0.00247883 -7.78473e-23)
(1.0288 -0.0356179 1.00361e-21)
(1.01473 -0.00972246 0)
(0.900149 -0.138488 0)
(0.465526 -0.00806486 0)
(1.05813 -0.0734218 0)
(1.01161 0.00172475 1.55446e-22)
(1.02153 -0.0136502 -2.28712e-21)
(1.02471 0.134319 -4.74102e-22)
(1.0166 -0.00491999 1.02477e-23)
(1.00432 3.25566e-05 -9.41088e-23)
(0.488176 -0.0308918 2.79083e-21)
(0.468059 0.0465178 6.00038e-21)
(1.01 0.00112343 2.23868e-22)
(1.10112 -0.101413 3.20776e-20)
(1.03371 -0.0283348 0)
(1.00798 -0.000389777 -4.808e-23)
(1.00723 0.000439099 -2.22405e-22)
(1.01117 0.000532034 6.35689e-22)
(0.511706 0.295164 -9.18777e-23)
(0.925936 0.00699985 1.85701e-21)
(1.01909 -0.00149278 3.63843e-21)
(1.08266 -0.0440446 0)
(0.877628 0.123546 3.34513e-22)
(1.00925 -0.00203704 -3.5102e-22)
(0.536797 -0.028448 -6.58537e-21)
(1.00715 0.000436644 -8.77328e-23)
(1.01685 -0.0136195 0)
(1.01614 0.00266829 0)
(1.00701 -0.0126608 0)
(1.00913 0.00104867 2.25468e-22)
(0.937337 -0.0146005 -8.5912e-22)
(0.307973 0.245788 -4.36642e-22)
(1.011 -0.00312635 3.74798e-22)
(0.527374 -0.0138767 9.21914e-21)
(1.0089 -0.0017528 -3.40847e-22)
(0.927783 -0.0082024 0)
(1.01456 -0.0352104 0)
(1.02126 -0.0135064 1.41257e-21)
(1.03756 0.00513278 -2.58591e-22)
(1.0188 -0.000693085 -1.06257e-21)
(1.01035 0.00122211 0)
(1.01048 0.00113829 6.14708e-22)
(1.06724 -0.0444594 1.03529e-20)
(-0.0110117 0.390653 -1.33919e-20)
(1.01119 0.000539201 0)
(0.297289 -0.00486362 0)
(0.230756 0.000670897 0)
(0.512176 -0.0134166 -1.79802e-20)
(1.02672 -0.020842 0)
(1.03219 -0.00846947 0)
(1.00491 3.12394e-05 9.78951e-23)
(1.01112 0.00109108 -1.19921e-22)
(1.00161 1.55166e-05 -6.09823e-22)
(1.00099 -0.0403121 1.82827e-22)
(0.880275 -0.255588 0)
(0.682186 -0.106907 4.30797e-21)
(1.01516 0.00271709 3.10587e-22)
(0.0718055 -0.271145 -5.62904e-21)
(1.01116 0.000877117 -6.9737e-24)
(0.928392 0.0012843 0)
(1.01149 0.00168435 -2.11314e-22)
(0.655452 -0.228889 0)
(1.0072 0.000446043 -3.62971e-22)
(0.406266 -0.0148589 -1.30068e-20)
(1.00941 0.0010537 5.71043e-22)
(0.464111 0.00139086 0)
(1.06436 -0.0318462 1.25002e-20)
(0.501876 -0.0275491 0)
(1.00899 -0.00182229 1.36525e-22)
(1.01678 0.00281249 0)
(1.01394 0.000838247 -4.45983e-22)
(1.05959 -0.0709757 1.45511e-21)
(1.02305 -0.0316049 0)
(0.622285 -0.053592 0)
(1.01095 0.000418894 6.14162e-23)
(1.01921 -0.000404856 -2.36184e-21)
(1.02607 -0.017957 -2.22149e-21)
(1.01187 -0.00483263 -8.58139e-24)
(0.835381 -0.0542115 0)
(1.01414 -0.000960074 -3.76773e-22)
(1.01642 -0.0135247 -3.89747e-22)
(0.252241 -0.16289 1.60143e-20)
(0.403974 -0.0149643 0)
(1.01615 0.00262468 -3.2596e-22)
(0.312869 -0.0019686 1.34638e-20)
(1.10355 -0.126392 -8.25499e-21)
(0.774446 0.215355 -3.58501e-21)
(0.272235 -0.00119166 0)
(1.03284 -0.00821494 0)
(0.923534 0.0547761 1.38219e-22)
(0.535419 -0.0295785 -1.95042e-20)
(0.30352 -0.0350082 8.37109e-21)
(1.00705 0.000405213 2.10194e-22)
(0.644684 -0.189327 -3.41086e-21)
(1.01082 0.000869792 -1.40861e-22)
(1.00939 0.00113766 3.68762e-22)
(0.418582 -0.0186904 -5.26316e-21)
(1.1277 -0.0973411 -1.32953e-20)
(0.875658 -0.0797316 0)
(0.256496 -0.210863 0)
(0.984219 -0.182877 -2.39794e-22)
(1.00819 -0.00135749 -5.90389e-23)
(1.03877 -0.057227 3.98271e-21)
(0.838081 0.0406183 5.42176e-21)
(0.568904 -0.0474981 0)
(0.286845 -0.00268295 0)
(1.01546 0.00147442 1.97571e-22)
(1.01124 -0.00444894 -1.1078e-23)
(1.106 -0.0677034 3.46207e-20)
(1.01461 -0.00948852 8.20982e-23)
(1.00915 0.00106728 0)
(1.01523 -0.00330886 0)
(1.0182 -0.016076 0)
(1.00702 -0.000617098 0)
(0.459615 -0.0097649 -2.03689e-21)
(1.0094 0.000902063 -5.93854e-22)
(0.932256 -0.0123125 9.12806e-22)
(1.01082 -0.00302165 0)
(1.10313 -0.101643 -2.4696e-20)
(1.00309 -0.000115995 0)
(-0.0532736 -0.365776 1.68022e-20)
(0.89312 -0.237254 1.53588e-21)
(1.05253 -0.145492 1.89921e-20)
(1.05242 0.0569602 -3.43059e-21)
(1.01482 0.00249428 0)
(1.012 -0.00831744 0)
(1.01124 0.000540505 6.79209e-22)
(1.03677 -0.0398458 -2.16253e-21)
(1.05532 -0.0249575 0)
(1.01142 -0.00464666 1.32551e-22)
(0.438169 -0.294203 0)
(0.930443 0.0597044 -6.31023e-22)
(1.00893 -0.000570811 4.78007e-22)
(1.06926 -0.034438 -3.76072e-21)
(0.473126 -0.00994608 -2.75036e-21)
(1.02144 -0.00277664 3.08506e-21)
(0.94162 -0.149778 0)
(0.948347 -0.156758 -8.1761e-22)
(0.457892 -0.017845 3.07874e-21)
(1.01121 0.000540458 -1.62328e-22)
(1.05483 -0.0466056 -7.25839e-22)
(1.01302 0.00204798 -1.93224e-22)
(1.02112 -0.00610704 1.47965e-21)
(1.06333 -0.144131 -2.06122e-20)
(1.01184 0.00176764 0)
(1.01143 0.0016048 1.27904e-22)
(1.01784 -0.0100157 -1.61034e-21)
(1.11258 -0.0670545 -1.43431e-20)
(1.01306 8.07307e-05 -3.4705e-22)
(1.0118 -0.00665909 2.97526e-23)
(0.411705 -0.222455 0)
(1.02025 -0.00510636 2.68332e-21)
(1.08199 -0.0432297 0)
(1.01556 -0.0122247 -8.1115e-23)
(1.01375 -0.000651139 9.107e-22)
(-0.122175 0.0226155 1.57701e-20)
(1.06321 -0.0930662 8.5704e-22)
(0.868756 0.289056 -8.39969e-21)
(1.01451 -0.00939642 -1.08203e-22)
(1.01184 -0.000301856 -1.51046e-21)
(1.01819 -0.0106797 -1.0323e-21)
(1.04091 -0.0102751 -6.94936e-22)
(1.00106 1.25327e-05 0)
(1.02255 -0.174097 -6.75676e-21)
(1.0094 -0.0133896 0)
(0.482709 -0.0149979 2.18283e-20)
(0.286871 -0.00311948 0)
(1.0119 0.00123263 1.11735e-22)
(0.44734 -0.302877 5.88565e-21)
(1.07071 -0.120672 -1.93637e-20)
(1.0319 -0.0074397 -8.60457e-22)
(1.01093 0.00115439 0)
(1.03731 -0.0408101 -2.54992e-22)
(1.01305 0.000183094 8.60599e-22)
(0.720154 0.0262857 1.41112e-21)
(1.0118 -0.0149532 -1.13533e-21)
(1.00977 0.00107361 -1.48974e-22)
(0.948322 -0.0985884 -3.56615e-23)
(0.92921 -0.202713 5.91305e-21)
(0.41501 -0.0164835 0)
(1.01751 -0.00105888 -1.05564e-21)
(1.06112 -0.0190422 4.50082e-21)
(1.01111 0.00118687 0)
(1.00501 -0.000239343 4.74851e-23)
(0.439012 0.0121034 2.70406e-20)
(1.01544 0.00240244 1.04232e-22)
(-0.0386357 0.201217 0)
(1.01653 0.00302055 0)
(0.276567 -0.113119 0)
(1.08998 -0.0563268 1.0555e-20)
(1.00399 -8.90414e-05 -7.25501e-23)
(1.00872 -0.00162293 9.54495e-23)
(1.05317 -0.0459603 5.71063e-22)
(1.01173 -0.00497413 4.04587e-22)
(1.06585 -0.133599 1.32842e-20)
(1.01174 0.00117781 -5.17531e-22)
(0.608223 -0.0508603 -7.27618e-21)
(1.01953 -0.00043796 -2.56522e-21)
(1.01577 0.00255016 3.60343e-22)
(0.856399 -0.056109 -1.25355e-20)
(1.00808 -0.00305915 -4.26728e-22)
(1.06356 -0.0319183 -6.23592e-21)
(1.01071 0.00110777 -2.20443e-22)
(1.01933 -0.00129092 1.12852e-21)
(1.06841 -0.0305904 1.06014e-20)
(1.00521 3.9909e-05 2.24331e-23)
(1.01316 -0.0344699 -4.06436e-23)
(0.532813 0.338401 1.14181e-21)
(1.02284 -0.00619899 0)
(0.518319 0.174598 -4.00058e-21)
(0.999592 -0.0493042 2.39577e-22)
(1.01677 0.00339182 1.39653e-24)
(1.01258 -0.0063746 4.86645e-23)
(0.620873 -0.0789283 0)
(0.474281 0.00472639 0)
(1.01429 -0.0125276 0)
(0.641832 -0.108277 -2.36332e-20)
(0.257179 -0.0021687 3.88807e-21)
(1.01801 -0.00150301 -1.59431e-21)
(1.03496 -0.0574327 -9.97296e-23)
(1.01515 -0.0114081 4.35983e-23)
(1.01521 0.00161451 0)
(1.01267 0.00184782 3.44217e-22)
(8.27127e-05 -0.320305 0)
(1.01413 -0.00151495 -3.3952e-22)
(1.04449 -0.0125037 -3.49906e-21)
(0.538307 -0.0188612 0)
(1.02848 -0.0430373 -1.61627e-22)
(0.731052 -0.27539 2.68364e-21)
(0.476169 0.00340825 1.6134e-21)
(0.723004 -0.27184 -2.75198e-21)
(1.039 -0.0360876 -3.10142e-21)
(1.01931 -0.001394 4.58161e-21)
(1.07355 -0.0891022 -1.84551e-22)
(1.01445 -0.0162037 0)
(1.0224 -0.130972 0)
(1.09762 -0.0578906 -1.09096e-21)
(1.01814 -0.0157003 0)
(0.298404 -0.000913865 -1.60554e-20)
(1.01731 -0.00130237 0)
(1.06273 -0.033445 2.92308e-22)
(1.07142 -0.109241 0)
(1.01536 -0.00342783 -4.0907e-22)
(1.07666 -0.211099 -1.5843e-20)
(1.04597 -0.00917529 1.77829e-21)
(1.0101 -0.00119908 0)
(1.04899 -0.019275 6.47802e-21)
(0.408218 -0.0168637 -5.532e-21)
(1.05529 -0.024333 -3.89153e-21)
(1.00874 -0.0016875 -9.82656e-23)
(1.01193 0.00179864 -9.54235e-22)
(0.594039 -0.0482978 -4.22982e-21)
(0.957453 0.134931 0)
(1.07584 -0.102574 1.56542e-20)
(1.00698 -2.04016e-05 1.92783e-22)
(1.06308 -0.0305892 9.25172e-21)
(0.897438 -0.305982 0)
(1.04331 -0.0342629 0)
(1.03356 -0.022613 0)
(1.0125 0.00181413 9.31336e-22)
(1.02436 0.00427584 -1.06676e-23)
(0.0792835 -0.278954 0)
(1.01774 -0.169442 5.65286e-21)
(1.03262 -0.00853749 -3.29865e-21)
(0.419253 -0.0174652 -6.22914e-21)
(0.874185 0.2868 9.29941e-21)
(1.05709 -0.0740479 -4.89554e-21)
(1.00204 -0.0371557 1.12654e-21)
(0.63473 -0.100111 2.69993e-20)
(1.08356 -0.0707582 0)
(1.09117 -0.121929 9.28129e-21)
(-0.0161823 -0.00206752 7.17833e-21)
(1.02511 -0.0183217 2.56919e-21)
(1.05921 -0.0239279 0)
(0.432208 0.00298903 4.36147e-21)
(0.779007 -0.248623 -1.15094e-21)
(1.02188 -0.017773 0)
(0.743982 -0.088168 -1.3686e-20)
(0.467179 -0.0205613 0)
(1.01246 -0.000204287 -8.35697e-22)
(0.168124 0.18895 6.15807e-20)
(1.00753 -0.0027547 1.35915e-21)
(0.998687 -0.0462798 -4.62008e-23)
(1.01184 -0.00519489 3.29776e-22)
(1.00687 0.000150464 5.70142e-23)
(1.0092 -0.00232895 0)
(0.209007 -0.0668459 1.42383e-20)
(0.264076 -0.387287 -2.71619e-22)
(0.413262 0.398042 6.96753e-21)
(0.0698468 -0.0979626 -2.88438e-21)
(1.00241 0.00537288 0)
(0.304723 -0.00519981 1.7823e-21)
(0.727404 0.0701292 0)
(1.00717 0.000429104 1.19047e-24)
(1.05401 0.113993 -5.04494e-22)
(0.334204 -0.00456336 0)
(0.874086 0.269521 -1.06848e-20)
(0.209492 -0.0597207 0)
(1.01124 0.00126079 1.14184e-22)
(0.0954552 -0.266969 -8.67536e-21)
(1.00961 -0.00117378 1.40601e-23)
(1.01142 0.00129742 0)
(1.01209 -0.00569068 9.54351e-23)
(1.07342 -0.145351 8.93812e-21)
(1.01415 0.000482103 0)
(1.00847 0.000140857 0)
(1.02632 -0.0188128 -4.26782e-22)
(1.00557 9.39593e-05 -2.04612e-22)
(1.02117 -0.0101045 1.3248e-21)
(1.01714 -0.00794008 0)
(1.00512 -0.0142299 -7.71604e-22)
(-0.0342561 0.153052 -9.37718e-21)
(1.10039 -0.078909 1.48939e-21)
(1.03117 -0.0363739 0)
(1.08207 -0.0480825 0)
(0.616402 0.154055 0)
(1.00689 -0.000373378 -1.58176e-22)
(1.08208 -0.0426846 0)
(1.01518 -0.00556432 3.77854e-22)
(1.00762 0.000473732 0)
(0.416674 0.405605 6.13977e-21)
(1.00828 -0.000289782 4.87245e-22)
(0.979151 0.0122464 8.16645e-22)
(1.00286 4.03333e-05 -3.62066e-23)
(1.04709 -0.0803006 -5.05931e-21)
(1.01319 -0.0334602 4.00855e-23)
(0.173531 -0.0884298 2.5181e-20)
(1.03821 -0.00550716 2.83799e-21)
(0.636215 -0.0838176 1.46428e-20)
(1.01952 -0.00127767 -3.90143e-21)
(0.523215 0.318259 0)
(1.02042 -0.0052279 -1.75669e-21)
(0.230819 -0.153818 0)
(1.0044 -0.000187401 8.34979e-23)
(0.945145 -0.0107798 0)
(1.07308 -0.242616 8.56363e-21)
(1.0893 -0.0565159 -2.60678e-20)
(0.714358 -0.313136 0)
(1.00687 -0.000513577 -5.10356e-23)
(1.02179 -0.0175211 -1.19074e-21)
(0.951774 -0.158593 0)
(1.01329 0.00213082 0)
(0.625998 0.131862 -2.32635e-21)
(1.0125 -0.00620965 -4.56217e-23)
(0.501298 0.00692474 -9.0731e-21)
(1.07503 -0.100987 1.87512e-20)
(0.61449 -0.0691288 -1.78948e-20)
(0.00302422 0.046406 8.64743e-20)
(1.06511 -0.131213 -3.55605e-21)
(1.01274 -0.00362146 5.30042e-22)
(1.00984 -0.00258712 -3.151e-22)
(1.02785 -0.0537413 -4.8369e-21)
(1.06787 -0.12585 4.0093e-21)
(0.604276 -0.065655 -1.89638e-20)
(0.533254 -0.031476 -1.86665e-20)
(1.00441 3.21956e-05 -1.96131e-22)
(1.01339 0.00217858 2.49989e-22)
(0.984075 -0.132733 9.75204e-21)
(1.00851 0.000574839 0)
(1.01728 -0.00759076 -1.05841e-21)
(1.01082 0.0011269 -4.37143e-22)
(1.0134 -0.129569 -1.45591e-22)
(1.08756 -0.0741515 1.41814e-20)
(0.605861 0.316228 -9.01727e-21)
(0.610594 -0.0692326 -2.5949e-21)
(1.04536 -0.00912747 0)
(0.286884 -0.00327772 0)
(0.312569 -0.00184098 1.87687e-20)
(1.06849 -0.0343805 0)
(0.612933 0.0352096 0)
(1.01728 -0.0161175 7.25981e-22)
(1.02358 0.00401004 0)
(1.01283 -0.00359702 -1.15498e-21)
(1.02194 -0.0102795 -2.82923e-21)
(0.420448 0.407065 -4.71523e-21)
(1.03149 -0.0301251 7.65051e-22)
(1.01367 0.00167713 0)
(1.03675 -0.02804 3.58387e-21)
(0.330849 -0.433458 0)
(0.923492 -0.0818258 7.02259e-22)
(1.01138 0.00120093 -3.45805e-22)
(1.00702 0.000398139 -1.9828e-22)
(0.894175 0.346565 -6.37771e-21)
(1.01683 0.00182582 -1.09409e-23)
(1.00758 0.000481173 -3.48158e-22)
(1.01156 0.00124234 0)
(0.458202 -0.0105002 1.60256e-20)
(1.01044 0.00116293 -6.12909e-22)
(1.01963 0.0184202 -5.88083e-22)
(1.01097 0.00118992 -2.1504e-22)
(1.01431 0.00147512 -1.78979e-24)
(1.01256 -0.077733 2.37236e-21)
(1.01317 -6.75294e-05 0)
(0.450499 -0.0106406 0)
(0.959679 -0.107778 -2.22518e-20)
(1.05867 -0.186212 -1.063e-20)
(0.624203 0.143529 0)
(0.10656 -0.272152 1.03645e-20)
(0.888018 -0.130041 -1.30075e-22)
(1.01135 0.00116844 -1.1276e-22)
(1.0109 0.00118287 0)
(1.01065 -0.002969 0)
(1.01073 0.00126571 0)
(1.02162 -0.00291358 -1.52349e-21)
(0.956439 -0.0221672 3.16503e-21)
(0.941328 0.0983502 0)
(1.01748 -0.00636101 0)
(0.511602 0.223624 -3.21075e-22)
(1.07319 -0.108074 6.56382e-21)
(1.02871 -0.0224483 -2.39617e-21)
(1.04419 -0.0437113 0)
(0.84636 -0.0700595 3.23836e-21)
(1.01675 0.00342334 -4.90874e-22)
(1.0156 0.002495 0)
(1.0124 -0.00601493 2.95824e-23)
(1.00814 -0.000433355 0)
(0.591466 -0.155608 -2.37236e-22)
(0.525598 0.306115 -1.53791e-21)
(0.92528 -0.0541396 1.07686e-20)
(1.10021 -0.078014 0)
(1.0125 -0.00617435 -8.84701e-23)
(1.01097 -0.000483681 -1.51642e-21)
(1.04545 -0.0131702 -3.36359e-21)
(1.01102 0.000719646 5.83003e-22)
(0.502417 0.233446 1.93649e-21)
(1.00939 0.00107563 1.80366e-22)
(0.858358 -0.0443766 -4.3562e-21)
(1.10056 -0.126359 -6.76331e-21)
(1.00701 -0.000402664 1.36341e-22)
(0.43193 -0.315463 -1.05255e-21)
(1.00702 -7.92864e-05 0)
(1.01096 -0.00048165 8.24286e-22)
(0.964424 -0.0347649 -9.5453e-22)
(1.01319 -0.00017412 0)
(1.0127 -0.00679938 -4.08653e-23)
(0.563969 -0.0394277 1.66748e-20)
(0.583994 0.157224 0)
(1.05854 -0.023634 0)
(1.065 -0.124696 0)
(0.692729 -0.113002 1.49523e-20)
(1.00946 -0.116057 0)
(1.07358 -0.0431424 0)
(1.09117 -0.0742101 0)
(1.01396 0.00142208 -4.81694e-24)
(0.867233 0.291614 -5.6307e-21)