/*--------------------------------*- C++ -*----------------------------------*\
| =========                 |                                                 |
| \\      /  F ield         | OpenFOAM: The Open Source CFD Toolbox           |
|  \\    /   O peration     | Version:  v2012                                 |
|   \\  /    A nd           | Website:  www.openfoam.com                      |
|    \\/     M anipulation  |                                                 |
\*---------------------------------------------------------------------------*/
FoamFile
{
    version     2.0;
    format      ascii;
    class       volVectorField;
    location    "100";
    object      U_0;
}
// * * * * * * * * * * * * * * * * * * * * * * * * * * * * * * * * * * * * * //

dimensions      [0 1 -1 0 0 0 0];


internalField   nonuniform List<vector> 
53008
(
(1.02781 0.0939584 1.62226e-21)
(1.04529 -0.0366492 0)
(0.410214 -0.0167538 5.40672e-21)
(1.0232 -0.000974626 1.74658e-21)
(0.991562 0.0801806 1.09346e-22)
(1.00695 -0.000568922 1.56216e-24)
(1.01756 -0.00846536 1.93526e-21)
(1.00754 0.000467982 -3.34836e-22)
(1.00022 -0.0170743 3.64262e-22)
(1.00866 -0.000160156 -1.0453e-21)
(1.01167 0.00121454 6.51411e-23)
(1.04666 -0.114546 -4.58618e-21)
(1.01654 0.00324069 1.17453e-22)
(-0.0258107 0.0147927 0)
(0.882372 0.319138 2.53507e-21)
(0.952114 -0.1663 8.78393e-22)
(1.014 -0.000431138 0)
(0.982369 0.242621 7.0805e-21)
(1.07042 -0.0354951 -3.7557e-21)
(1.01057 -0.00375162 -8.58886e-24)
(1.01187 -0.00688294 -4.12796e-22)
(-0.11044 0.0797088 6.4905e-20)
(0.830731 0.183038 2.46485e-23)
(-0.0279224 0.324661 -1.24475e-20)
(1.00854 -0.000175156 4.20509e-22)
(1.03722 -0.0394971 2.19552e-21)
(0.996881 0.225452 -4.96711e-21)
(1.01544 0.00272131 -1.32756e-22)
(0.0558749 -0.267595 8.20402e-21)
(1.02295 -0.00090398 3.08907e-21)
(1.07154 -0.0452538 0)
(1.01053 -0.00371324 -6.54719e-23)
(-0.187103 -0.169811 2.60368e-20)
(1.03789 0.00779015 2.19618e-22)
(1.0092 0.00108113 3.3234e-22)
(1.00933 0.00112176 0)
(1.00391 -9.54752e-05 7.63029e-23)
(0.976159 -0.0423641 -8.21809e-23)
(1.01227 0.0076368 2.60996e-22)
(0.35148 -0.0109555 9.46118e-21)
(0.325702 0.297182 1.03588e-21)
(0.23389 0.0498956 0)
(1.01737 0.0019211 0)
(1.01101 0.000601912 0)
(0.00865994 0.00509144 -4.45968e-21)
(-0.122537 0.119568 -4.77556e-20)
(0.282906 -0.00170297 1.7121e-20)
(0.97951 0.0876525 7.14708e-22)
(0.974722 -0.0356879 0)
(0.463022 0.00570984 0)
(1.04035 -0.0370396 -3.05069e-21)
(0.787214 -0.110582 0)
(1.00412 -0.000188358 -2.38275e-22)
(1.01623 -0.037873 -1.92133e-22)
(1.03016 0.0109125 7.40894e-22)
(1.12157 -0.0574255 -2.25449e-20)
(0.472142 -0.334826 5.04861e-21)
(1.01776 0.00454215 -2.80002e-22)
(1.01103 0.000522443 3.08054e-22)
(1.00327 6.98739e-05 1.81322e-22)
(1.01502 -0.00528505 0)
(1.00888 -0.00214401 1.42521e-23)
(1.01551 -0.0120556 2.60725e-23)
(1.04095 -0.0370666 0)
(1.01104 0.000528182 0)
(0.330732 0.0374822 -1.16272e-21)
(0.562882 -0.0340099 0)
(1.09462 -0.0557575 0)
(1.0267 -0.0191689 -9.79401e-22)
(1.01004 -0.00321653 -6.32195e-23)
(1.01642 -0.00505577 0)
(1.01907 -0.000443419 4.18363e-21)
(1.02115 -0.00400322 0)
(1.01956 -0.00117207 3.58197e-21)
(1.08238 -0.0581706 -4.45654e-21)
(1.04393 -0.0342409 -2.46606e-21)
(1.00757 0.000482082 0)
(1.00907 -0.00182369 1.4195e-22)
(1.03683 -0.0394956 3.09044e-22)
(1.02484 -0.00981506 0)
(1.00853 -0.000224761 4.51694e-22)
(1.01161 0.00127702 0)
(1.12031 -0.0581594 4.83178e-23)
(1.07247 -0.0455607 0)
(1.01839 -0.00191852 1.08107e-21)
(1.02353 -0.0323095 3.40506e-22)
(1.09277 -0.0699272 2.82072e-20)
(1.08321 -0.0632897 8.48147e-21)
(1.02928 -0.0437617 0)
(1.01595 -0.00357627 0)
(1.00948 0.000895886 0)
(1.01456 -0.00502686 -6.17302e-22)
(1.01902 -0.0122845 1.54606e-21)
(1.01845 -0.0018361 0)
(1.08394 -0.0626604 0)
(0.833491 0.0478132 1.54219e-21)
(1.0097 -0.00232035 1.55383e-22)
(1.00954 0.000918887 0)
(1.01665 0.00326256 0)
(1.00996 -0.00316188 9.24572e-23)
(1.01502 -0.00544447 -3.88894e-23)
(1.00316 6.37153e-05 0)
(0.871601 0.168628 0)
(1.01546 0.002767 1.28773e-22)
(1.01632 -0.00509368 1.6452e-21)
(1.01721 -0.194227 -6.31577e-21)
(1.02974 -0.185303 -5.94073e-21)
(0.322216 -0.129769 3.28836e-20)
(1.04728 -0.0199078 0)
(0.925116 -0.0267941 1.19164e-21)
(0.498176 -0.0335842 -4.76623e-21)
(0.52021 -0.0291332 -2.06502e-20)
(0.641504 -0.127349 0)
(1.01113 0.000680546 2.74443e-22)
(1.01313 -0.0134523 0)
(1.02277 -0.0107203 0)
(0.956821 -0.0104256 0)
(1.01598 -0.0368545 1.98962e-22)
(1.09218 -0.0706324 -1.84196e-21)
(0.843222 0.0537341 -1.47311e-21)
(1.00945 0.000898402 2.45934e-24)
(1.01423 -0.010738 -3.35922e-22)
(0.903912 -0.0492621 0)
(1.04347 -0.0437971 -5.08494e-21)
(1.01213 0.00169907 0)
(0.459472 -0.306264 8.79417e-21)
(0.847953 -0.00868712 -9.32796e-21)
(0.957009 -0.00373202 -6.13014e-21)
(0.381107 -0.00611881 0)
(1.06959 -0.035501 3.51959e-21)
(1.01378 0.00180573 1.58792e-22)
(1.00952 0.000925025 2.50512e-22)
(0.691724 -0.287058 0)
(1.03425 -0.0557299 0)
(0.547752 -0.0321312 0)
(1.01583 -0.00346055 -7.93176e-22)
(1.00093 1.64073e-05 3.57436e-22)
(1.01394 0.00272686 -3.10321e-22)
(0.503847 -0.0278971 -7.1034e-21)
(1.01374 0.00179442 1.46161e-22)
(-0.0170596 0.0423336 0)
(0.541857 -0.030438 -1.24155e-20)
(1.03662 0.00972938 0)
(1.00638 -0.000294415 0)
(1.01209 0.000754985 8.70371e-24)
(1.07134 -0.0442463 4.5612e-21)
(1.00516 0.00580977 -2.33744e-21)
(1.0457 -0.0378682 -2.06762e-22)
(1.00297 -0.000130494 1.3654e-22)
(1.02296 -0.00605975 0)
(0.340832 -0.00811847 0)
(1.01153 0.000671146 -3.99177e-22)
(1.02633 -0.0534236 2.33419e-21)
(0.611909 -0.0673724 0)
(-0.145401 0.116884 2.61348e-20)
(1.03247 -0.0306229 -4.52786e-21)
(1.01106 0.130356 0)
(0.562505 -0.148261 2.95539e-21)
(1.007 -0.000600918 0)
(1.04756 -0.0204905 4.23659e-21)
(1.01151 0.00160804 0)
(1.01097 0.000575755 -4.59866e-22)
(1.01147 0.00113456 -7.23684e-23)
(1.02479 -0.00630532 0)
(1.01157 0.00117332 2.13802e-22)
(-0.0357522 0.308548 0)
(1.10463 -0.0998374 0)
(0.455727 -0.294724 -5.527e-21)
(1.00948 0.000926308 6.59619e-23)
(1.00704 -5.66173e-05 -2.4397e-24)
(1.03818 -0.0375984 1.87827e-22)
(0.571277 -0.142336 6.34678e-21)
(1.0387 -0.00539372 -7.23958e-21)
(1.04931 0.127699 -1.92227e-21)
(1.00841 -0.000235598 0)
(1.01186 0.00177948 -2.13154e-22)
(1.00373 -0.000135094 -4.05993e-22)
(1.02249 -0.0104759 -1.22329e-21)
(1.10479 -0.0985359 0)
(1.04423 -0.0338382 5.69634e-21)
(1.0474 -0.0561488 7.95762e-21)
(1.00064 -0.0187309 1.3467e-21)
(1.01075 0.00111801 2.10049e-22)
(1.00692 -0.000552792 0)
(0.717534 -0.083525 1.32799e-21)
(1.01121 0.000660669 2.32766e-22)
(1.0109 0.000908676 2.17104e-22)
(0.343459 -0.0088951 -1.20366e-20)
(0.340504 -0.00958581 0)
(0.358216 -0.00934095 5.73247e-21)
(1.00694 -0.00021718 2.1885e-22)
(0.288752 -0.440499 0)
(1.02913 -0.0561747 0)
(1.03023 -0.191147 0)
(0.806618 -0.115164 0)
(1.01865 -0.00186776 0)
(1.05814 -0.228862 -3.15324e-21)
(1.06311 -0.139088 0)
(1.01867 -0.00177354 0)
(0.717297 0.073634 -3.68602e-21)
(1.02189 -0.00624747 8.21685e-22)
(0.00585375 -0.00418072 -5.1105e-21)
(1.05301 -0.110354 -2.68405e-21)
(1.01884 -0.000946692 1.56866e-23)
(0.950262 -0.0159768 0)
(1.00503 0.0196691 9.77227e-22)
(1.00692 -0.000199631 0)
(1.01436 -0.0107598 3.63487e-22)
(0.994862 -0.174528 3.24203e-22)
(0.320534 0.280312 -1.26434e-21)
(1.03751 -0.0369121 4.41878e-22)
(1.0829 -0.0671857 0)
(0.861996 -0.210762 0)
(1.01423 -0.0108573 -3.83035e-22)
(0.110113 -0.390326 0)
(1.01161 -0.00651107 9.66878e-22)
(-0.029906 0.0199279 -8.14218e-21)
(1.08322 -0.0652794 0)
(0.54066 -0.0305399 2.01834e-20)
(0.524699 -0.0287836 0)
(1.09119 -0.0678789 -9.99042e-22)
(1.01171 -0.00642321 0)
(1.00963 -0.00224585 -3.19321e-22)
(0.922329 -0.0548087 0)
(1.07169 -0.0818995 -9.13911e-21)
(0.490199 0.00374346 -1.4527e-21)
(1.04415 -0.0451398 -3.48682e-21)
(0.877543 0.320206 2.50614e-21)
(1.04459 -0.0443744 3.64065e-21)
(1.03402 -0.0204374 -2.33688e-21)
(1.01108 0.00123832 2.19761e-22)
(1.04098 -0.239273 5.59025e-22)
(1.03271 -0.0048918 -4.37869e-21)
(0.840755 -0.0426989 1.25141e-20)
(1.01213 -0.00583033 0)
(1.07618 -0.0808138 0)
(1.03334 -0.00824977 -2.02325e-21)
(1.0144 -0.0108785 4.23976e-22)
(1.0505 -0.0469473 1.88109e-22)
(1.01593 0.00291776 -1.10687e-22)
(1.02072 -0.0113853 0)
(1.00264 0.0183392 -1.38973e-21)
(1.07346 -0.090897 2.05156e-20)
(0.856265 -0.21551 -3.25103e-21)
(1.00988 -0.00309233 1.07199e-23)
(1.06115 0.0188771 7.71832e-21)
(1.00916 -0.00189927 0)
(1.00963 -0.00109151 -4.21013e-22)
(1.03371 -0.0206525 0)
(1.04183 -0.038735 6.20738e-21)
(0.526189 0.24352 5.54256e-22)
(0.950927 -0.0373384 1.33855e-21)
(1.08796 -0.0730281 0)
(1.01133 0.00156491 -1.94995e-22)
(0.999903 -1.36921e-06 2.36072e-22)
(1.00754 0.000462818 0)
(0.857689 -0.206453 4.16883e-21)
(1.05024 -0.11071 6.33361e-21)
(1.09552 -0.0573743 8.45915e-21)
(0.490297 -0.0191054 0)
(0.553463 -0.0307719 6.49903e-21)
(1.08391 -0.0646521 -9.59633e-21)
(1.00982 -0.00303002 0)
(1.00402 -0.000183007 0)
(0.836422 0.107947 -4.08762e-21)
(1.00624 -0.000264954 6.19212e-22)
(0.515366 -0.0291349 1.14366e-20)
(0.521566 -0.0289104 -2.38614e-23)
(1.03218 -0.0300945 2.24512e-21)
(1.01381 0.0190712 5.52971e-22)
(1.07475 -0.104672 -1.1044e-20)
(1.01545 0.00154994 2.11064e-22)
(1.00132 3.8161e-05 -3.58173e-22)
(1.09029 -0.0673478 7.4981e-22)
(1.00772 -0.0133714 2.59536e-21)
(1.06187 -0.136709 -7.3818e-21)
(1.01271 -0.0134788 0)
(0.374901 0.0352856 7.85966e-21)
(1.00581 -0.000289756 -3.24051e-23)
(1.00098 1.14781e-05 7.88523e-24)
(1.04213 -0.038487 -4.36939e-21)
(0.832326 0.120671 7.37362e-22)
(0.94415 -0.0196757 1.07827e-21)
(0.998029 -0.194559 2.15212e-20)
(0.938253 -0.0325255 3.54601e-22)
(1.01486 -0.00515507 3.96495e-23)
(1.01745 -0.00564073 0)
(0.549668 -0.0306925 7.62151e-23)
(0.489291 -0.0782993 -1.57344e-20)
(0.751576 -0.100994 7.67127e-21)
(1.02383 0.167153 -5.719e-21)
(0.928601 -0.152915 -4.07391e-23)
(0.374714 -0.00565283 1.71761e-20)
(1.07277 -0.105273 -9.36587e-21)
(1.02448 -0.00632643 1.10838e-21)
(1.02222 -0.0105126 1.34534e-21)
(0.413239 -0.0170856 6.9825e-22)
(1.01164 0.00119262 4.28401e-22)
(1.0297 0.123349 0)
(1.03769 0.138618 8.65126e-21)
(0.511624 -0.028417 -1.48286e-20)
(1.01068 0.0012311 -4.32144e-22)
(1.0105 0.00119601 5.95824e-22)
(1.01281 -0.0066101 7.26891e-23)
(-0.0281609 0.142156 4.64126e-22)
(1.10751 -0.1244 3.64973e-21)
(1.01564 0.00286361 0)
(1.03745 -0.0384491 -3.16303e-21)
(1.0406 0.00828549 3.13704e-22)
(0.647637 -0.0887919 4.63364e-21)
(0.962555 -0.15286 -6.87835e-23)
(1.01908 -0.00054439 -5.94737e-22)
(1.01195 0.00180333 1.74741e-22)
(1.01253 0.00176946 3.17395e-22)
(1.05025 -0.048639 -3.8698e-22)
(1.02168 -0.00322678 -1.41879e-21)
(1.01112 0.00796655 2.73048e-22)
(0.368006 -0.0108559 -1.55053e-20)
(0.853147 0.0292846 -2.52882e-21)
(1.01332 -0.00043048 7.02634e-22)
(1.08366 -0.0666848 0)
(1.01434 0.0015006 1.13092e-23)
(0.902435 -0.146647 0)
(1.01046 0.00112072 -1.15628e-22)
(1.02063 0.00104125 -5.62606e-24)
(0.121564 -0.39244 0)
(0.186884 -0.0945245 -8.88093e-22)
(1.0109 -0.00303878 -8.54383e-23)
(0.974102 -0.096691 0)
(1.0333 -0.0217447 0)
(0.829817 0.0118451 -1.53358e-22)
(0.865267 0.0361541 2.37754e-21)
(1.01148 0.00131193 0)
(1.00029 -0.0218071 7.53934e-22)
(0.873438 -0.289165 1.07327e-20)
(1.01215 -0.00823287 0)
(0.446861 0.00228902 -2.67569e-21)
(1.07043 -0.0439141 4.44689e-21)
(1.00952 -0.00223109 -1.48462e-22)
(1.03343 -0.021318 4.98117e-22)
(1.06915 -0.0461394 0)
(1.04299 -0.0432976 5.92856e-21)
(0.436453 0.00189304 -6.95312e-22)
(0.926775 -0.167061 1.2441e-22)
(0.964194 -0.197709 1.27496e-20)
(1.01655 0.00307389 3.02456e-22)
(1.08353 -0.0438762 -2.88017e-21)
(1.01059 0.00126654 -1.15273e-22)
(1.01128 0.00123126 6.04815e-22)
(1.02602 -0.00388195 1.39376e-22)
(1.0088 -0.00205726 0)
(1.00697 -4.20891e-05 -5.6409e-22)
(0.714864 0.214113 -4.6989e-21)
(0.31177 0.0104749 -5.41677e-21)
(1.00918 -0.00197168 1.99515e-22)
(0.883139 -0.282298 -4.96476e-21)
(0.330324 -0.00849678 1.32194e-20)
(0.0100874 0.394594 -2.43023e-22)
(0.440093 -0.365711 0)
(1.07122 -0.0805561 2.26514e-20)
(1.02226 -0.180728 6.46601e-21)
(1.01228 -0.000672113 -1.57849e-22)
(0.901296 -0.298247 6.39078e-21)
(1.01084 0.00115857 0)
(1.02562 0.00569909 0)
(1.01065 0.00112999 -2.15092e-22)
(1.03721 -0.0407602 0)
(0.0585117 -0.279013 0)
(0.354414 -0.00390134 1.51288e-20)
(1.04532 -0.00352302 0)
(0.509332 -0.0334194 3.65902e-21)
(1.01512 -0.0101142 2.80773e-23)
(1.03109 0.00859523 -1.53665e-21)
(1.01379 0.00242566 4.16015e-22)
(1.01735 -0.00810505 7.92571e-22)
(1.08131 -0.0580365 -3.98021e-21)
(1.00947 -0.0021674 2.81328e-22)
(0.227022 -0.00150234 2.04658e-20)
(1.01913 -0.0105437 -1.43111e-22)
(1.01115 0.00124658 -4.56274e-22)
(1.00827 -0.00141701 -1.19295e-22)
(1.01322 0.00212204 0)
(1.02206 -0.00647535 -1.66186e-21)
(0.864659 0.107544 -1.17295e-20)
(1.0181 0.00278845 0)
(1.01891 -0.00150781 -2.32919e-21)
(1.02451 0.00545874 5.53706e-25)
(0.728692 0.0109537 0)
(0.505928 0.218355 2.53848e-21)
(0.782967 0.129284 -4.43351e-21)
(0.93175 -0.0523746 1.21065e-21)
(0.335187 -0.00467996 0)
(-0.0398123 0.0240051 1.33875e-20)
(1.00986 0.00120979 7.76126e-23)
(0.468486 -0.342461 1.25568e-20)
(0.931809 -0.0518261 9.49239e-21)
(0.919618 -0.20943 -6.04865e-21)
(1.00926 -0.00235302 0)
(0.35106 0.00588255 2.53618e-20)
(1.01341 0.00218843 -2.09616e-22)
(1.01566 0.0029008 0)
(1.01087 0.0011526 0)
(0.632357 -0.136225 -2.85385e-22)
(0.874962 0.133049 1.39265e-20)
(1.00118 1.92794e-05 -3.60521e-22)
(1.0143 -0.00112033 -7.97995e-22)
(1.01241 0.00176034 -5.14485e-22)
(1.08493 -0.125573 2.05822e-20)
(1.02925 -0.0242377 0)
(1.0189 -0.000860479 0)
(1.0608 -0.0716361 -8.58704e-22)
(1.01131 -0.00452748 -9.1302e-23)
(-0.129273 0.0128644 -2.15653e-20)
(0.915657 -0.0510816 5.88236e-21)
(1.09725 -0.0573755 -1.42188e-20)
(1.0189 -0.0015887 -6.95294e-22)
(0.839881 0.108769 -1.04834e-21)
(1.02653 -0.0211882 1.09016e-21)
(1.01485 -0.00979276 2.89145e-22)
(1.01471 -0.00516379 1.22304e-21)
(1.00833 -0.00142398 1.16452e-22)
(0.779848 0.171285 8.68117e-21)
(1.01118 0.0011887 6.19254e-22)
(1.01553 -0.00338892 3.70492e-22)
(1.01418 -0.0020454 6.19006e-22)
(1.02068 0.00102816 1.29927e-23)
(1.02053 -0.00569149 -1.46644e-21)
(-0.201247 0.0183693 -4.54906e-20)
(1.02825 -0.01052 1.91762e-22)
(1.01911 -0.00140095 -3.5343e-21)
(-0.0352843 0.0413034 -4.76724e-20)
(1.01466 -0.0362091 0)
(1.02073 0.000950281 0)
(1.11173 -0.06768 1.39255e-20)
(1.01877 -0.000782131 2.0957e-21)
(1.01498 -0.0100516 -3.20495e-22)
(0.242419 -0.0532646 -6.8796e-21)
(1.03738 -0.0382108 0)
(0.949912 -0.0293327 -1.50983e-21)
(0.643682 -0.239499 -3.28225e-21)
(0.965315 -0.10232 7.31101e-24)
(1.04435 -0.00728059 0)
(1.00176 -0.0431858 1.87315e-23)
(-0.192359 -0.144064 0)
(0.22949 -0.08859 -2.07485e-21)
(1.0248 -0.00956498 -1.48945e-22)
(1.02099 0.000796835 -2.87376e-24)
(1.01229 -0.0153525 0)
(0.28188 -0.0278686 1.36876e-20)
(1.00702 0.000145511 2.31463e-22)
(0.768354 -0.103489 0)
(-0.201951 0.0160822 9.46388e-21)
(1.01193 0.00166665 0)
(1.0049 -0.000229579 4.40857e-22)
(-0.0725634 0.0921146 2.52433e-22)
(0.86201 -0.0778313 1.5294e-21)
(0.72651 -0.1047 -2.56051e-22)
(0.131219 -0.117789 2.4515e-21)
(1.00152 3.02313e-05 -4.48094e-23)
(0.558605 0.0195395 -9.11599e-21)
(1.01192 0.00178119 3.38809e-22)
(1.04056 -0.0106522 7.50415e-22)
(1.01734 -0.00830215 -2.39422e-21)
(1.0155 -0.00570492 -1.35933e-21)
(1.00696 -0.000338763 0)
(0.57626 -0.0604139 0)
(0.937636 -0.0252705 6.54064e-22)
(0.91316 -0.0253841 0)
(1.10432 -0.123943 2.03948e-22)
(0.470186 -0.300079 -8.35013e-21)
(1.09495 -0.057026 0)
(0.95725 -0.094573 5.45225e-22)
(0.949678 -0.00667231 6.38811e-21)
(0.352216 -0.131681 -3.87351e-20)
(1.01568 -0.00349402 -7.99327e-22)
(0.452741 0.00466116 -8.46493e-22)
(1.01115 -0.00433409 8.35319e-24)
(0.491992 0.00352711 1.92967e-21)
(0.872346 0.319653 7.41931e-21)
(0.821689 -0.121567 6.85746e-21)
(1.01219 0.00172459 0)
(0.416157 -0.00942788 1.87191e-20)
(0.937553 -0.0165466 0)
(1.03645 -0.0399475 1.82502e-21)
(1.01797 -0.0165679 0)
(1.02069 -0.00582255 -1.47846e-21)
(0.52317 -0.0289306 0)
(1.01768 -0.00649219 4.51683e-22)
(1.09464 -0.0809341 1.08862e-20)
(1.04133 -0.140075 7.33599e-21)
(1.00188 5.08069e-05 0)
(1.01054 0.00123679 -2.76575e-23)
(0.513886 0.243543 3.46444e-22)
(1.00754 0.000186464 0)
(0.920041 0.149952 0)
(1.00883 -0.00175081 3.20691e-22)
(1.01869 -0.000537381 -1.08472e-21)
(1.01178 -0.00486966 0)
(1.01796 -0.0161853 0)
(1.04695 -0.0550477 -2.06685e-22)
(0.193711 -0.000993949 -1.66716e-20)
(1.02557 -0.00253248 -7.78857e-23)
(1.02879 -0.0356358 1.00512e-21)
(1.01473 -0.00972372 0)
(0.90001 -0.137634 0)
(0.465787 -0.00809197 0)
(1.05809 -0.073364 0)
(1.01161 0.00172485 1.55423e-22)
(1.02153 -0.0136486 -2.28847e-21)
(1.02586 0.133849 -4.61186e-22)
(1.01656 -0.00491634 1.02557e-23)
(1.00432 3.25489e-05 -9.4093e-23)
(0.488158 -0.0309733 2.79123e-21)
(0.467196 0.0461486 5.97342e-21)
(1.01 0.00112378 2.23831e-22)
(1.10097 -0.101492 3.20642e-20)
(1.03396 -0.0283994 0)
(1.00798 -0.000389821 -4.81025e-23)
(1.00723 0.000439306 -2.22309e-22)
(1.01117 0.000530932 6.3543e-22)
(0.510738 0.293832 -9.0499e-23)
(0.925926 0.00752756 1.85285e-21)
(1.01909 -0.00149258 3.63831e-21)
(1.08266 -0.044032 0)
(0.877711 0.123569 3.39033e-22)
(1.00925 -0.0020367 -3.50251e-22)
(0.536585 -0.0285137 -6.59166e-21)
(1.00715 0.000436741 -8.7696e-23)
(1.01683 -0.0136468 0)
(1.01614 0.00266667 0)
(1.00698 -0.0126278 0)
(1.00913 0.00104859 2.25423e-22)
(0.93724 -0.0141741 -8.60148e-22)
(0.30804 0.247501 -4.38946e-22)
(1.011 -0.00312606 3.75229e-22)
(0.529139 -0.0111076 9.24715e-21)
(1.0089 -0.0017525 -3.40087e-22)
(0.927708 -0.00765637 0)
(1.01453 -0.0351947 0)
(1.02126 -0.0135049 1.41347e-21)
(1.03758 0.00500151 -2.58549e-22)
(1.0188 -0.000692835 -1.06249e-21)
(1.01035 0.00122288 0)
(1.01048 0.00113874 6.14594e-22)
(1.06725 -0.0444416 1.0351e-20)
(-0.0111374 0.390143 -1.34049e-20)
(1.01119 0.00053806 0)
(0.296982 -0.00487531 0)
(0.230856 0.000668351 0)
(0.51255 -0.0134854 -1.79949e-20)
(1.02672 -0.0208403 0)
(1.03219 -0.00846847 0)
(1.00491 3.12289e-05 9.78787e-23)
(1.01112 0.00109185 -1.19889e-22)
(1.00161 1.55116e-05 -6.09687e-22)
(1.00125 -0.040104 1.8255e-22)
(0.880285 -0.254165 0)
(0.682292 -0.107221 4.30967e-21)
(1.01516 0.00271839 3.10549e-22)
(0.0714332 -0.269398 -5.62496e-21)
(1.01116 0.000878081 -6.97546e-24)
(0.92837 0.00182626 0)
(1.01149 0.0016845 -2.11286e-22)
(0.654926 -0.229353 0)
(1.0072 0.000446172 -3.62818e-22)
(0.406168 -0.0149041 -1.30083e-20)
(1.00941 0.00105434 5.70922e-22)
(0.463993 0.00137327 0)
(1.06436 -0.0318337 1.24988e-20)
(0.501658 -0.0276223 0)
(1.00899 -0.00182198 1.36218e-22)
(1.01679 0.00281048 0)
(1.01395 0.000835508 -4.45569e-22)
(1.05956 -0.0709247 1.45414e-21)
(1.02304 -0.0316072 0)
(0.622263 -0.0537333 0)
(1.01095 0.000418693 6.14052e-23)
(1.01921 -0.000404422 -2.3616e-21)
(1.02607 -0.0179548 -2.22249e-21)
(1.01188 -0.00482997 -8.5755e-24)
(0.835363 -0.0543605 0)
(1.01413 -0.000960253 -3.76614e-22)
(1.0164 -0.0135489 -3.89111e-22)
(0.254293 -0.160028 1.60984e-20)
(0.403872 -0.0150089 0)
(1.01615 0.00262312 -3.25905e-22)
(0.312705 -0.00197825 1.34675e-20)
(1.10328 -0.126469 -8.24857e-21)
(0.774064 0.21379 -3.59993e-21)
(0.271951 -0.00119846 0)
(1.03285 -0.00821384 0)
(0.923839 0.0553741 1.37814e-22)
(0.535205 -0.0296419 -1.95224e-20)
(0.305394 -0.0318907 8.38821e-21)
(1.00705 0.000405041 2.10113e-22)
(0.645241 -0.192033 -3.32381e-21)
(1.01082 0.000869917 -1.40837e-22)
(1.00939 0.00113767 3.6869e-22)
(0.418451 -0.0187467 -5.26425e-21)
(1.12763 -0.0975501 -1.32945e-20)
(0.875755 -0.0799302 0)
(0.25587 -0.213155 0)
(0.983519 -0.182655 -2.367e-22)
(1.00819 -0.00135736 -5.88934e-23)
(1.03881 -0.0571551 3.98038e-21)
(0.839084 0.0443593 5.42862e-21)
(0.568542 -0.0460811 0)
(0.286557 -0.00269326 0)
(1.01546 0.00147086 1.97572e-22)
(1.01124 -0.0044494 -1.11831e-23)
(1.106 -0.0677811 3.46264e-20)
(1.01462 -0.0094896 8.24957e-23)
(1.00915 0.00106757 0)
(1.01523 -0.00330873 0)
(1.0182 -0.016074 0)
(1.00703 -0.000617358 0)
(0.459796 -0.00979321 -2.03726e-21)
(1.0094 0.000902394 -5.93749e-22)
(0.932173 -0.011855 9.13968e-22)
(1.01082 -0.0030214 0)
(1.10298 -0.10173 -2.46857e-20)
(1.00309 -0.000116005 0)
(-0.0537292 -0.36633 1.67837e-20)
(0.893195 -0.235629 1.5393e-21)
(1.05259 -0.145637 1.8982e-20)
(1.05264 0.0549719 -3.43099e-21)
(1.01482 0.00249341 0)
(1.012 -0.0083128 0)
(1.01124 0.000539722 6.78949e-22)
(1.0368 -0.039875 -2.16543e-21)
(1.05533 -0.0249499 0)
(1.01142 -0.00464694 1.3374e-22)
(0.437162 -0.293699 0)
(0.930781 0.0602281 -6.27122e-22)
(1.00893 -0.000570825 4.77559e-22)
(1.06926 -0.0344242 -3.76026e-21)
(0.473372 -0.00997928 -2.75123e-21)
(1.02144 -0.00277629 3.08502e-21)
(0.940991 -0.149476 0)
(0.947723 -0.156527 -8.22502e-22)
(0.457976 -0.017891 3.07895e-21)
(1.01121 0.000539794 -1.62267e-22)
(1.05486 -0.0468676 -7.42552e-22)
(1.01302 0.00204739 -1.93206e-22)
(1.02113 -0.00610571 1.47985e-21)
(1.06337 -0.144273 -2.06006e-20)
(1.01184 0.0017674 0)
(1.01143 0.00160496 1.27884e-22)
(1.01785 -0.0100163 -1.6116e-21)
(1.11259 -0.0671633 -1.43469e-20)
(1.01306 8.48614e-05 -3.46916e-22)
(1.0118 -0.0066547 2.97131e-23)
(0.410728 -0.221296 0)
(1.02026 -0.00510521 2.68365e-21)
(1.08199 -0.0432167 0)
(1.01556 -0.0122293 -7.99071e-23)
(1.01375 -0.000653576 9.10183e-22)
(-0.12199 0.0209283 1.57442e-20)
(1.0629 -0.093396 8.62884e-22)
(0.869461 0.291599 -8.36863e-21)
(1.01451 -0.00939744 -1.08872e-22)
(1.01184 -0.000301804 -1.5106e-21)
(1.0182 -0.0106801 -1.03312e-21)
(1.04091 -0.0102725 -6.94913e-22)
(1.00106 1.2512e-05 0)
(1.02215 -0.173807 -6.73123e-21)
(1.00936 -0.0133703 0)
(0.482921 -0.0150421 2.18346e-20)
(0.286574 -0.00312798 0)
(1.0119 0.00123274 1.11716e-22)
(0.446345 -0.3025 5.82176e-21)
(1.07079 -0.120867 -1.93585e-20)
(1.0319 -0.00743867 -8.6045e-22)
(1.01093 0.00115369 0)
(1.03739 -0.0408552 -2.5571e-22)
(1.01305 0.000187622 8.60256e-22)
(0.719951 0.0279082 1.4089e-21)
(1.01176 -0.014949 -1.13452e-21)
(1.00977 0.00107354 -1.48949e-22)
(0.947847 -0.0982895 -3.58377e-23)
(0.928704 -0.20205 5.83794e-21)
(0.414922 -0.0165314 0)
(1.01753 -0.0010863 -1.0547e-21)
(1.06112 -0.0190332 4.50042e-21)
(1.01111 0.00118615 0)
(1.00501 -0.000239392 4.77425e-23)
(0.44081 0.0150076 2.70802e-20)
(1.01544 0.00240128 1.04214e-22)
(-0.0387336 0.199879 0)
(1.01653 0.00301896 0)
(0.275974 -0.11128 0)
(1.08998 -0.0563308 1.05546e-20)
(1.00399 -8.90779e-05 -7.2327e-23)
(1.00872 -0.0016227 9.52485e-23)
(1.05321 -0.0462058 5.84551e-22)
(1.01174 -0.00497489 4.03222e-22)
(1.06559 -0.133515 1.32617e-20)
(1.01174 0.00117879 -5.17412e-22)
(0.608187 -0.0509965 -7.2783e-21)
(1.01953 -0.000437478 -2.56497e-21)
(1.01577 0.00254876 3.60282e-22)
(0.856395 -0.0562638 -1.25442e-20)
(1.00809 -0.00303147 -4.26489e-22)
(1.06357 -0.031906 -6.23522e-21)
(1.01071 0.00110743 -2.20399e-22)
(1.01933 -0.0012907 1.12846e-21)
(1.06841 -0.0305776 1.06002e-20)
(1.00521 3.98965e-05 2.24289e-23)
(1.01313 -0.034449 -3.82585e-23)
(0.531421 0.33752 1.15661e-21)
(1.02285 -0.00619789 0)
(0.519121 0.175877 -3.96787e-21)
(0.999798 -0.0490666 2.34275e-22)
(1.01677 0.00339188 1.39157e-24)
(1.01259 -0.0063742 4.97399e-23)
(0.621221 -0.0796535 0)
(0.47422 0.00469966 0)
(1.01432 -0.0125324 0)
(0.641979 -0.108895 -2.36491e-20)
(0.256846 -0.00217189 3.89175e-21)
(1.01802 -0.00153297 -1.59298e-21)
(1.03487 -0.057556 -1.01109e-22)
(1.01515 -0.0114124 4.30843e-23)
(1.01521 0.00161551 0)
(1.01267 0.00184715 3.4418e-22)
(0.000490706 -0.320617 0)
(1.01412 -0.0014985 -3.39632e-22)
(1.04449 -0.0125004 -3.49892e-21)
(0.538081 -0.0173472 0)
(1.02845 -0.0430812 -1.62256e-22)
(0.730072 -0.275027 2.71297e-21)
(0.475926 0.00338002 1.61196e-21)
(0.722093 -0.271298 -2.77932e-21)
(1.03902 -0.0360955 -3.1028e-21)
(1.01931 -0.00139378 4.58141e-21)
(1.07345 -0.0890779 -1.84422e-22)
(1.01446 -0.0161968 0)
(1.02176 -0.130925 0)
(1.09764 -0.0579097 -1.0911e-21)
(1.01814 -0.0156987 0)
(0.2982 -0.0009245 -1.60614e-20)
(1.01731 -0.00130214 0)
(1.06288 -0.0337762 3.18035e-22)
(1.07125 -0.109199 0)
(1.01537 -0.00342765 -4.09177e-22)
(1.07664 -0.213544 -1.57716e-20)
(1.04597 -0.00917104 1.77817e-21)
(1.0101 -0.001199 0)
(1.04899 -0.0192706 6.47781e-21)
(0.40809 -0.0169145 -5.53294e-21)
(1.0553 -0.0243255 -3.89129e-21)
(1.00874 -0.00168723 -9.80443e-23)
(1.01197 0.00180478 -9.53499e-22)
(0.593994 -0.0484298 -4.23137e-21)
(0.959374 0.133876 0)
(1.0757 -0.102551 1.56396e-20)
(1.00698 -2.03427e-05 1.92619e-22)
(1.06308 -0.0305774 9.25072e-21)
(0.897238 -0.305566 0)
(1.04333 -0.0342616 0)
(1.03357 -0.0226131 0)
(1.01254 0.00181612 9.3058e-22)
(1.02437 0.00423551 -1.02734e-23)
(0.078758 -0.277344 0)
(1.01736 -0.169139 5.62956e-21)
(1.03262 -0.00853643 -3.29868e-21)
(0.419169 -0.0175162 -6.22984e-21)
(0.874164 0.286017 9.32249e-21)
(1.05705 -0.0739863 -4.89154e-21)
(1.00199 -0.0370935 1.12476e-21)
(0.634927 -0.100744 2.70179e-20)
(1.08352 -0.0707655 0)
(1.09121 -0.122117 9.2783e-21)
(-0.0153184 -0.0027734 7.19061e-21)
(1.02511 -0.0183193 2.57062e-21)
(1.05921 -0.023919 0)
(0.432178 0.00297734 4.36366e-21)
(0.777915 -0.248439 -1.16853e-21)
(1.02188 -0.0177703 0)
(0.74408 -0.0883507 -1.36866e-20)
(0.467265 -0.0206141 0)
(1.01246 -0.000204244 -8.3575e-22)
(0.16806 0.188353 6.17434e-20)
(1.00755 -0.00272384 1.3584e-21)
(0.998917 -0.0460477 -4.46438e-23)
(1.01184 -0.00519542 3.2863e-22)
(1.00687 0.000150425 5.70045e-23)
(1.0092 -0.00232957 0)
(0.210472 -0.0639131 1.42549e-20)
(0.263068 -0.387173 -2.70383e-22)
(0.412891 0.397609 7.01078e-21)
(0.0709495 -0.0994826 -2.8994e-21)
(1.00256 0.00541908 0)
(0.304414 -0.00521467 1.78365e-21)
(0.728027 0.0734515 0)
(1.00717 0.000429287 1.19156e-24)
(1.05453 0.113529 -5.08282e-22)
(0.334047 -0.00457983 0)
(0.874084 0.268456 -1.07091e-20)
(0.210921 -0.0568205 0)
(1.01124 0.0012606 1.14158e-22)
(0.0949025 -0.265328 -8.64928e-21)
(1.00961 -0.00117382 1.40581e-23)
(1.01142 0.0012972 0)
(1.01209 -0.00569073 9.502e-23)
(1.07387 -0.146959 8.92776e-21)
(1.01416 0.00047726 0)
(1.00847 0.000140782 0)
(1.02632 -0.0188107 -4.26991e-22)
(1.00557 9.39248e-05 -2.04574e-22)
(1.02117 -0.010103 1.32528e-21)
(1.01715 -0.00794044 0)
(1.00516 -0.0141849 -7.70229e-22)
(-0.0343043 0.151626 -9.36755e-21)
(1.10034 -0.0789779 1.48919e-21)
(1.03117 -0.0363955 0)
(1.08189 -0.0488155 0)
(0.616657 0.155228 0)
(1.00689 -0.00037342 -1.58412e-22)
(1.08208 -0.0426715 0)
(1.01518 -0.00556476 3.78048e-22)
(1.00762 0.00047391 0)
(0.416119 0.405649 6.14532e-21)
(1.00828 -0.000289369 4.86815e-22)
(0.97924 0.0124537 8.16342e-22)
(1.00286 4.03375e-05 -3.6197e-23)
(1.04705 -0.0801999 -5.05302e-21)
(1.01316 -0.0334388 3.77331e-23)
(0.174736 -0.0855599 2.52024e-20)
(1.03821 -0.00550436 2.8378e-21)
(0.636394 -0.0840986 1.4652e-20)
(1.01952 -0.00127742 -3.90122e-21)
(0.522009 0.317168 0)
(1.02042 -0.00522673 -1.7569e-21)
(0.23271 -0.150855 0)
(1.0044 -0.000187442 8.39869e-23)
(0.945241 -0.0103794 0)
(1.0728 -0.244466 8.5087e-21)
(1.0893 -0.0565194 -2.60668e-20)
(0.714659 -0.315386 0)
(1.00687 -0.000513835 -5.09164e-23)
(1.02179 -0.0175185 -1.19178e-21)
(0.951131 -0.1583 0)
(1.01329 0.00213029 0)
(0.627869 0.128622 -2.33707e-21)
(1.0125 -0.00620928 -4.66299e-23)
(0.500806 0.00681316 -9.04725e-21)
(1.07489 -0.100963 1.87338e-20)
(0.614649 -0.069325 -1.79022e-20)
(0.00246744 0.0439625 8.66147e-20)
(1.06487 -0.13113 -3.55072e-21)
(1.01274 -0.00362152 5.30354e-22)
(1.00984 -0.00258752 -3.15818e-22)
(1.02795 -0.0536446 -4.83427e-21)
(1.06764 -0.125782 4.00378e-21)
(0.604451 -0.0658464 -1.89729e-20)
(0.534045 -0.0318631 -1.87075e-20)
(1.00441 3.21792e-05 -1.96097e-22)
(1.01339 0.0021791 2.4997e-22)
(0.984951 -0.134612 9.74345e-21)
(1.00851 0.000575385 0)
(1.01728 -0.00759093 -1.05893e-21)
(1.01082 0.00112648 -4.37057e-22)
(1.01277 -0.12948 -1.53619e-22)
(1.08752 -0.0741715 1.41776e-20)
(0.605397 0.31736 -8.9829e-21)
(0.610796 -0.0694637 -2.59638e-21)
(1.04536 -0.00912338 0)
(0.286584 -0.00328652 0)
(0.312363 -0.0018541 1.87755e-20)
(1.06849 -0.0343667 0)
(0.614171 0.0376716 0)
(1.01719 -0.0161286 7.25974e-22)
(1.02358 0.00397478 0)
(1.01283 -0.00359711 -1.15569e-21)
(1.02194 -0.0102777 -2.83013e-21)
(0.419889 0.406902 -4.73556e-21)
(1.03149 -0.0301315 7.65554e-22)
(1.01367 0.00167883 0)
(1.03675 -0.0280424 3.58496e-21)
(0.329669 -0.433793 0)
(0.923071 -0.0814042 7.0494e-22)
(1.01138 0.00120151 -3.45722e-22)
(1.00702 0.000398004 -1.98199e-22)
(0.894494 0.347856 -6.34393e-21)
(1.01683 0.00182728 -1.09375e-23)
(1.00758 0.000481433 -3.48066e-22)
(1.01156 0.00124294 0)
(0.458394 -0.0105272 1.6029e-20)
(1.01044 0.00116352 -6.12796e-22)
(1.01974 0.0184017 -5.86821e-22)
(1.01097 0.00119003 -2.14986e-22)
(1.01431 0.00147611 -1.78942e-24)
(1.01259 -0.0775034 2.36479e-21)
(1.01316 -6.31994e-05 0)
(0.450636 -0.0106714 0)
(0.960776 -0.1099 -2.22385e-20)
(1.05831 -0.186085 -1.06029e-20)
(0.626084 0.140345 0)
(0.105877 -0.270622 1.03336e-20)
(0.888141 -0.13023 -1.3009e-22)
(1.01135 0.00116914 -1.12733e-22)
(1.0109 0.0011832 0)
(1.01065 -0.00296885 0)
(1.01073 0.00126649 0)
(1.02162 -0.00291321 -1.52347e-21)
(0.956426 -0.0218699 3.16611e-21)
(0.943433 0.0960397 0)
(1.01749 -0.0063606 0)
(0.511037 0.221832 -3.23264e-22)
(1.07303 -0.10804 6.55683e-21)
(1.02871 -0.0224477 -2.39737e-21)
(1.04423 -0.0436951 0)
(0.846358 -0.0676868 3.24072e-21)
(1.01676 0.00342389 -4.9076e-22)
(1.0156 0.00249368 0)
(1.0124 -0.00601459 3.00223e-23)
(1.00814 -0.000433411 0)
(0.590592 -0.154467 -2.34677e-22)
(0.524422 0.30499 -1.55308e-21)
(0.92526 -0.0542878 1.07762e-20)
(1.10016 -0.078082 0)
(1.0125 -0.00617397 -8.94431e-23)
(1.01097 -0.000483651 -1.51677e-21)
(1.04545 -0.0131666 -3.36344e-21)
(1.01102 0.000720318 5.82816e-22)
(0.502196 0.231432 1.9468e-21)
(1.00939 0.00107624 1.80329e-22)
(0.858378 -0.0419522 -4.35852e-21)
(1.1003 -0.126426 -6.75766e-21)
(1.00701 -0.000402765 1.36776e-22)
(0.430934 -0.315201 -1.05184e-21)
(1.00702 -7.90985e-05 0)
(1.01096 -0.000481623 8.24491e-22)
(0.964354 -0.0345194 -9.54732e-22)
(1.01319 -0.000170319 0)
(1.0127 -0.00679894 -4.03008e-23)
(0.564692 -0.0398988 1.67115e-20)
(0.585601 0.154089 0)
(1.05854 -0.0236254 0)
(1.06478 -0.124618 0)
(0.69282 -0.113318 1.49526e-20)
(1.00889 -0.115972 0)
(1.07358 -0.0431274 0)
(1.09112 -0.0742416 0)
(1.01396 0.00142313 -4.81667e-24)
(0.867116 0.29098 -5.64225e-21)