/*--------------------------------*- C++ -*----------------------------------*\
| =========                 |                                                 |
| \\      /  F ield         | OpenFOAM: The Open Source CFD Toolbox           |
|  \\    /   O peration     | Version:  v2012                                 |
|   \\  /    A nd           | Website:  www.openfoam.com                      |
|    \\/     M anipulation  |                                                 |
\*---------------------------------------------------------------------------*/
FoamFile
{
    version     2.0;
    format      ascii;
    class       volVectorField;
    location    "100";
    object      ddtCorrDdt0(U);
}
// * * * * * * * * * * * * * * * * * * * * * * * * * * * * * * * * * * * * * //

dimensions      [0 1 -2 0 0 0 0];


internalField   nonuniform List<vector> 
37190
(
(-0.00181424 -0.000599337 2.8238e-21)
(-2.93251e-05 2.68896e-06 1.6144e-22)
(-0.000107961 -2.4855e-05 0)
(-0.000115051 -6.28091e-07 0)
(0.0985018 -0.0382925 0)
(-0.000165405 0.000120816 -1.87832e-21)
(-0.00148557 3.7766e-06 8.29339e-22)
(0.0338373 -0.0303288 2.22213e-21)
(-9.42432e-05 3.54828e-05 0)
(0.0210919 -0.00171895 -2.39337e-23)
(-0.0237858 0.000151021 -3.94851e-21)
(-0.0368429 0.168537 7.3719e-21)
(0.0249788 -0.0145475 4.1731e-21)
(-0.000169539 -4.08468e-05 -1.3522e-22)
(0.0145561 0.00259127 -3.55244e-21)
(-0.00662642 -0.00766883 0)
(-0.000108493 -3.57335e-05 -4.80545e-22)
(0.08607 -0.0972126 -3.43111e-21)
(-6.95944e-05 -5.10495e-05 3.76914e-21)
(-0.00013763 -0.000136905 -1.23655e-21)
(-0.000795998 0.000399221 9.60472e-22)
(0.113579 -0.0395473 1.78863e-20)
(-0.00010079 -7.77923e-05 -1.15915e-21)
(0.16295 -0.073745 0)
(0.103111 -0.0386227 0)
(-6.15618e-05 -2.54018e-06 2.8261e-21)
(0.0084753 0.015043 -8.45142e-22)
(-0.000304375 -0.000327933 1.05489e-21)
(-0.0124928 0.00170468 0)
(-4.21099e-05 -6.20241e-06 -3.6125e-22)
(-0.0700358 -0.0774414 5.49732e-22)
(-0.000538403 0.000619162 2.58162e-21)
(0.00274854 -0.00108537 5.29673e-21)
(0.029893 0.0334525 0)
(0.00362714 -0.00107142 0)
(0.00460974 0.223287 1.7326e-21)
(0.0086039 0.0154204 2.30781e-21)
(0.029591 -0.0700864 4.29526e-21)
(-7.04839e-05 -4.5566e-05 -3.51712e-21)
(-6.44017e-05 -0.000919707 0)
(-0.0920838 -0.0243933 0)
(6.19939e-05 -0.000187699 2.52316e-25)
(-0.00758392 0.0182572 2.35001e-22)
(-0.0005093 0.000548312 0)
(0.0100481 0.00814919 -1.31489e-21)
(0.0897927 -0.0484654 5.13672e-21)
(0.0108343 0.00865342 3.62121e-21)
(-0.0522052 0.173138 0)
(-9.33389e-05 -7.21004e-06 8.44847e-23)
(0.00145294 0.000367507 3.74327e-21)
(0.00081414 -0.000967069 -7.34794e-22)
(-6.65241e-05 -7.49231e-05 -1.56781e-23)
(-7.28601e-05 -9.05533e-05 4.9927e-22)
(-0.000544352 -0.000772761 0)
(-0.000280931 -0.000308982 -2.95314e-21)
(0.0487663 0.00442431 0)
(-6.33003e-05 -7.78907e-05 -2.50588e-24)
(-0.000291965 0.000678401 0)
(0.0174096 0.0363704 1.14308e-21)
(-0.0750548 -0.0630103 0)
(0.0307658 -0.0289424 9.83318e-21)
(0.0141864 0.0037644 1.60403e-21)
(-0.00088033 0.000382137 5.08609e-22)
(-6.21021e-05 -1.70003e-06 -2.80062e-21)
(-0.0292541 0.261844 -6.44454e-21)
(0.0360953 0.147223 -7.15204e-21)
(-0.0136491 -0.0822427 0)
(0.0747409 -0.0505034 0)
(-0.0985968 -0.389555 -9.06282e-20)
(-0.0123386 -0.00693918 4.82724e-21)
(-7.18779e-05 -3.73733e-05 0)
(-0.0179197 0.0951048 0)
(0.00415845 0.000261947 0)
(-9.9463e-05 -7.64961e-05 0)
(0.000679607 2.15606e-05 -7.97302e-22)
(0.0154025 -0.0064206 -8.24863e-21)
(0.0442693 -0.0458753 2.19895e-21)
(-0.0264521 0.01832 -2.50966e-21)
(0.00235923 -0.00165962 0)
(-0.0208661 0.025306 0)
(0.0076419 0.00901208 4.33475e-21)
(-0.00010958 -3.06986e-05 -4.75283e-24)
(-0.0104239 -0.00765967 0)
(0.00116767 -0.000711938 -1.22324e-23)
(-0.0190257 -0.000915073 -2.38008e-21)
(0.00851879 -0.00334356 1.94077e-21)
(-0.0175744 0.0129243 4.01681e-21)
(0.097854 -0.040636 -5.32005e-21)
(-0.00160902 -2.8615e-05 0)
(-0.0247198 0.0217463 -2.24704e-22)
(-5.68868e-05 -4.20878e-05 0)
(-0.0243157 0.000920137 0)
(0.00307982 -0.000859929 -6.89047e-21)
(-9.15834e-05 -1.16692e-06 0)
(0.0158871 0.00934284 0)
(0.00261068 0.412808 0)
(-0.000130587 -0.000139724 2.17694e-21)
(0.0584061 0.125307 -6.12203e-21)
(0.0454101 -0.0621563 -1.87308e-20)
(0.000653148 -9.25867e-05 0)
(-0.0632582 0.349521 -7.06909e-21)
(0.0459558 0.00660246 -2.19771e-22)
(-6.52824e-05 -1.2784e-05 -1.52428e-21)
(-5.7148e-05 1.83048e-05 -1.1059e-22)
(-0.0132599 0.000991265 1.83782e-21)
(-7.61558e-05 2.52703e-06 0)
(-0.000368325 0.000291432 -7.79088e-21)
(-0.00797467 0.00229474 -3.54922e-23)
(-0.0217817 -0.256537 1.66255e-20)
(-0.00018917 0.000160009 -6.60855e-22)
(-0.0393334 -0.033424 3.27387e-21)
(-0.000113124 -0.000612522 -2.95527e-21)
(-0.000112097 -2.41953e-05 -2.22679e-22)
(-3.13598e-05 -0.00063733 -6.60862e-21)
(-0.011363 0.0861826 3.27295e-21)
(-0.000112746 1.61679e-06 -2.37976e-22)
(0.00709796 0.00960117 -4.98e-21)
(-0.0126729 0.0123275 3.58784e-21)
(0.00116367 5.12144e-05 5.75437e-22)
(-0.000286965 -1.97265e-05 0)
(0.0568913 0.0543545 0)
(-0.026026 0.0183653 -2.04747e-21)
(-5.57067e-05 -1.82883e-05 1.59324e-21)
(0.000902056 -0.0011638 6.95913e-22)
(0.154914 0.0163485 8.54134e-21)
(-0.000834469 0.000689414 0)
(-0.0256436 0.000895575 2.65958e-21)
(-5.62788e-05 -2.49243e-05 -1.29234e-21)
(-0.0240687 0.000603881 0)
(-0.0509883 0.341135 1.80024e-21)
(0.0125411 0.0144662 7.91744e-22)
(-0.00010421 -6.65747e-06 -7.48153e-23)
(-8.67286e-05 -1.26546e-06 0)
(-0.0223054 0.141449 -7.64188e-21)
(-5.8692e-05 -3.62512e-06 0)
(-0.10587 -0.200989 2.71573e-21)
(0.000527639 -0.00106594 5.36252e-21)
(0.0260359 0.0581255 2.8081e-21)
(0.0328766 0.142992 -1.19519e-21)
(0.109436 -0.0547353 -6.45301e-21)
(0.061851 -0.0812926 1.51514e-22)
(0.0606451 0.0471861 0)
(0.0124159 0.000606593 0)
(0.00529426 0.420251 0)
(-0.000141939 -0.000103244 0)
(-0.00027457 -0.000507425 3.44843e-22)
(-0.000291559 -2.48974e-05 0)
(-0.000379757 -0.000230793 -8.32714e-22)
(-0.000258543 -0.000449046 -1.5007e-22)
(-0.0140384 -0.0061233 -2.72878e-21)
(-0.000357824 0.000312667 5.06629e-21)
(-5.05822e-05 -3.54328e-06 -1.07247e-24)
(-6.00236e-05 3.34577e-05 6.94795e-23)
(-0.000898376 -0.00120783 -9.00165e-23)
(0.0136975 0.0043928 0)
(-0.000103611 -8.19514e-05 0)
(-0.109675 -0.38893 3.46165e-20)
(-2.61671e-05 -2.34983e-06 0)
(-0.016203 0.0206984 0)
(-0.0392446 0.177247 0)
(0.000135035 0.000683456 1.83847e-21)
(0.000739056 -0.000110624 -4.22113e-21)
(-0.00204406 0.00114935 0)
(0.00275007 -0.00155558 0)
(-0.108725 -0.416861 8.80284e-20)
(-0.00030693 -1.53442e-05 6.96859e-22)
(0.0264313 6.14547e-05 3.27511e-21)
(-0.0267609 -0.000878044 -8.27943e-21)
(0.00114817 0.000207776 0)
(0.0286903 -0.0459327 0)
(0.166143 -0.014112 0)
(-9.27111e-05 2.09183e-05 0)
(0.0145521 -0.00181069 -8.36172e-23)
(-2.97467e-05 -4.39001e-06 6.1552e-21)
(0.0237527 -0.00112459 1.4006e-20)
(-0.0186568 0.33523 5.30033e-24)
(-0.00642759 -0.0364793 3.62016e-21)
(-0.00828516 0.0089546 -8.48885e-22)
(-9.52626e-05 -8.54184e-05 9.91105e-22)
(0.0230705 -0.00136667 1.50743e-20)
(-0.000943675 -0.00122738 1.05826e-22)
(0.0367309 0.0219065 -4.03259e-21)
(-0.00848302 0.00733823 4.20147e-21)
(0.0591903 -0.134468 -5.11323e-21)
(-0.000896537 0.000621869 2.02132e-21)
(0.034887 0.0230326 0)
(-0.000267583 0.00029712 0)
(0.0211629 -0.00134641 -6.3137e-21)
(-0.0121438 0.190602 -1.9742e-22)
(-0.00464577 -0.000995556 4.06401e-22)
(-0.000310986 -0.000354909 3.03298e-22)
(0.0265201 -0.0249436 2.67896e-21)
(0.0332781 0.0225106 3.57677e-21)
(-9.24638e-05 -0.000109003 -2.05803e-21)
(-0.000290045 -0.000314466 0)
(-0.00894634 -0.00834777 3.92394e-21)
(-0.0134371 0.00774135 -1.7168e-21)
(-0.225377 0.305717 8.16977e-21)
(0.0585204 -0.109445 0)
(-6.29058e-05 -1.49828e-05 -1.82709e-22)
(-6.82962e-05 1.43444e-06 0)
(0.00372097 -0.00755734 1.03762e-21)
(-0.000194488 0.000246811 -2.75761e-21)
(-0.000107635 -8.34574e-06 -1.28722e-23)
(-0.005992 -0.0555606 -1.45955e-20)
(-0.000642141 0.0836844 3.69529e-21)
(-0.000104296 1.16836e-05 -8.15512e-23)
(-2.55037e-05 -1.61836e-06 0)
(-0.0205288 0.00149189 -7.99155e-21)
(-0.00463991 -0.000648065 0)
(-0.000184087 0.000248714 1.3369e-21)
(-0.000106756 1.0592e-05 -6.364e-23)
(-0.123927 0.49205 0)
(-0.000112624 -0.000338533 -1.98394e-21)
(-0.0217254 0.025378 0)
(-0.000254405 -0.000108729 -1.1135e-21)
(-0.000103657 1.11131e-05 -1.07707e-22)
(-0.000224527 0.000274509 7.76511e-24)
(-0.0388173 0.0652012 7.00056e-21)
(-0.000103536 1.32104e-05 5.87714e-23)
(-0.000296764 -0.000350439 -8.46906e-22)
(-0.000109079 7.5337e-06 -1.83065e-22)
(-0.00282809 0.179572 5.37399e-21)
(-0.0158023 0.000114682 3.98937e-21)
(-0.0880699 -0.373502 7.83624e-20)
(0.0965892 0.0963694 0)
(0.01604 -0.0506966 4.16562e-22)
(-0.0143576 -0.000612717 2.71791e-21)
(-6.81732e-05 -3.79317e-05 5.60337e-22)
(-0.0116152 0.00630406 2.62723e-21)
(-0.000289373 0.00284122 8.82185e-21)
(0.000461113 -0.000932965 -5.47755e-23)
(-5.87973e-05 3.13923e-05 -7.34453e-23)
(-5.50863e-05 -2.17523e-06 3.1601e-21)
(-0.000107069 1.29899e-05 5.0237e-23)
(0.00400334 -0.000769442 -8.0667e-22)
(0.0563416 -0.114819 0)
(-4.22136e-05 4.65387e-05 -4.00909e-23)
(-9.40602e-05 -3.29118e-06 3.65872e-22)
(-0.00181328 -0.00533126 0)
(-0.000321857 -0.000232882 -6.25818e-24)
(0.0261867 -0.00013319 5.79338e-21)
(-0.00057829 -0.000732116 2.19199e-22)
(-8.91276e-05 -1.19171e-05 0)
(-0.0204229 -0.00138221 -2.016e-21)
(0.023311 0.0407631 -3.98407e-21)
(-0.000102601 6.88194e-06 1.25669e-22)
(0.00933687 -0.00285164 6.37476e-22)
(-0.0456156 0.0689581 4.76703e-21)
(-5.62983e-05 -9.17266e-06 -7.03072e-22)
(-0.00028863 2.64572e-05 7.44941e-22)
(0.0043835 -0.00503527 -8.84013e-21)
(-0.00223762 -0.00609123 0)
(-0.000302621 -1.02191e-05 0)
(-0.000299631 -0.000201215 -1.38612e-22)
(-0.000361362 -0.000257507 3.58915e-22)
(-2.48346e-05 2.83795e-05 -2.60961e-21)
(-8.96831e-05 -2.51999e-05 1.83641e-21)
(0.0178153 0.00822469 3.04461e-21)
(-5.76361e-05 -2.82679e-05 6.2757e-23)
(-0.120319 0.505873 -1.03002e-20)
(0.0138823 0.00245038 0)
(0.016195 0.00541486 -2.57467e-21)
(-7.18595e-05 -6.41735e-05 0)
(0.0112677 0.392669 0)
(0.000101266 0.000162454 -1.8938e-21)
(-9.07974e-05 -0.000105467 0)
(0.0161358 0.00732447 -8.92242e-23)
(-9.14471e-05 0.000235896 3.32978e-25)
(0.00417973 0.0463096 4.25802e-21)
(-2.61588e-05 -0.00622535 -4.39949e-23)
(-6.53311e-05 -5.12355e-05 1.76292e-21)
(0.0427135 0.046991 3.31739e-21)
(0.0240233 -0.000667314 -1.07037e-21)
(0.0322863 0.030063 2.15617e-21)
(0.0243859 -0.00104314 -1.95208e-21)
(0.0152865 0.0110164 0)
(-0.000310695 0.000299392 3.09802e-21)
(0.0234343 -0.000780748 -1.48047e-20)
(-8.80498e-05 6.72662e-06 4.9386e-22)
(-6.23269e-05 0.000257575 0)
(-0.0149683 -0.00462544 3.68407e-22)
(-0.00159368 -0.000691919 0)
(-4.59276e-05 5.39028e-05 0)
(0.0459841 -0.0328418 0)
(-0.000108896 1.0179e-05 1.25867e-22)
(-6.12482e-05 8.74933e-06 -2.81516e-21)
(-0.00710195 0.00890841 0)
(0.101851 -0.0548012 6.62783e-21)
(0.000628755 0.00377491 0)
(0.000721936 2.29368e-06 4.59169e-21)
(-0.000103366 -0.000334953 3.1269e-21)
(0.0284613 -0.02301 0)
(-0.0154141 -0.000460707 -3.33476e-21)
(-0.000124984 3.84017e-06 -2.49503e-22)
(-0.0266823 -0.000669281 8.31185e-21)
(-6.96793e-05 -4.37593e-05 -1.04932e-21)
(-7.98758e-05 6.44326e-06 0)
(0.0262675 -0.000263623 -6.85684e-21)
(-5.8076e-05 -4.42988e-06 -2.86278e-24)
(0.0316979 -0.0241247 0)
(0.104736 -0.0391179 3.42183e-21)
(0.00872704 0.378824 3.18823e-20)
(-0.0157935 -0.000804056 0)
(-0.000552044 -0.00176652 1.39449e-21)
(0.00457022 -0.00351942 0)
(-0.0520196 0.184126 -2.48575e-21)
(-5.62924e-05 -0.000103697 8.38859e-24)
(0.0124413 0.00816456 0)
(-0.144524 -0.142208 0)
(-0.0371954 0.25997 1.89234e-21)
(-0.0136265 0.00814109 1.55995e-23)
(-0.0245278 0.00126327 4.17532e-21)
(0.12043 -0.0622887 6.3629e-21)
(-0.00292715 -0.00590328 -1.49158e-22)
(-0.00199451 -0.00665581 1.16626e-22)
(-0.000192834 0.000106725 -1.17652e-23)
(-0.000355083 -0.00185655 0)
(-0.0918961 -0.418014 -1.56168e-20)
(-0.00030312 0.000308477 -2.88223e-21)
(-0.00794337 0.0135185 5.62736e-23)
(-0.0110656 0.013697 0)
(-2.82344e-05 -7.8363e-07 -1.09041e-21)
(0.00329806 0.00250538 0)
(0.116962 0.0781658 0)
(0.0119485 0.0952494 0)
(0.00126486 0.000335979 -2.84389e-21)
(0.0692047 -0.0415193 1.09682e-20)
(0.0259283 5.76162e-05 -1.61006e-20)
(-2.5593e-05 0.000207465 -7.80864e-23)
(0.0116266 0.211599 0)
(-0.137802 0.010426 -1.62665e-20)
(0.131539 -0.0982286 -3.94819e-20)
(-0.0213403 0.0250921 0)
(-7.41861e-05 -0.000102926 -5.64742e-22)
(1.10171e-05 0.000217394 6.11039e-23)
(-9.60417e-05 -0.000100995 -2.88899e-22)
(-8.76377e-05 6.42296e-06 0)
(-9.17427e-05 2.24064e-05 1.68268e-22)
(-2.40403e-05 6.45412e-07 5.53116e-22)
(-0.00329592 0.0513995 -8.3478e-23)
(-0.000104831 -7.8701e-05 0)
(-0.061074 -0.352709 4.22195e-21)
(-7.45154e-05 -0.000113621 0)
(0.100886 -0.0288569 0)
(0.004735 -0.00491021 0)
(-0.0226764 0.001991 0)
(-0.000240307 7.85695e-05 1.06767e-23)
(-0.00451269 0.0698824 0)
(0.0623852 -0.0248652 2.81366e-21)
(0.0179484 0.0675575 -3.03855e-21)
(0.00236753 -0.0173016 -5.95281e-21)
(0.000153464 -0.000490417 0)
(-7.42461e-05 -6.14939e-05 -8.12024e-25)
(-0.0211508 -0.0842101 6.33733e-22)
(0.0976242 -0.0596155 3.99318e-22)
(-5.47765e-05 -5.11723e-05 1.77251e-21)
(-0.000227857 7.93858e-05 -5.2712e-25)
(0.0106598 0.0149276 -6.20374e-23)
(0.169577 -0.0622861 0)
(0.010402 0.0146401 -5.13275e-23)
(-0.0111796 0.00745915 0)
(-0.0129971 -0.419335 1.54585e-21)
(0.0115351 0.00777497 0)
(0.0155928 0.0073969 -3.84963e-21)
(0.0665973 -0.101602 0)
(-9.84233e-05 -7.73566e-05 0)
(0.186864 0.0268399 -2.38082e-20)
(-0.000124593 7.8025e-06 5.46951e-22)
(-0.0220665 0.273989 8.50183e-21)
(-7.7195e-05 -0.000121662 0)
(0.0160955 0.14955 -1.23499e-22)
(0.0257437 -0.0242551 -2.12014e-21)
(0.150342 -0.143734 -1.8689e-20)
(0.00126968 -0.000570645 0)
(-8.05047e-05 3.08466e-05 -1.08064e-23)
(0.0620928 -0.0862043 -4.85237e-21)
(-0.0321515 0.175099 -2.21842e-21)
(-0.0415233 0.318537 -1.32805e-20)
(0.00992457 -0.0110458 7.11386e-23)
(-0.000569516 0.000193884 -7.43422e-22)
(-0.0102499 0.000337495 0)
(-2.94143e-05 -7.32079e-06 9.23703e-22)
(-0.0966628 0.514026 0)
(0.0280801 0.0102054 9.34576e-23)
(-0.0817538 0.0694205 -7.64671e-21)
(-4.63391e-05 -0.000757769 1.40961e-22)
(-0.000188686 0.00015351 1.50686e-23)
(0.000541459 -0.000397351 -8.29687e-24)
(-0.0502147 0.000926707 -7.05432e-21)
(0.00324044 -0.0584649 0)
(-0.037157 0.208002 -6.89229e-22)
(-0.000987246 0.00143954 0)
(-9.24103e-05 -6.70601e-06 -1.43566e-22)
(-0.0131963 0.00546564 0)
(0.0261946 0.0156149 -1.49717e-21)
(0.0457494 0.177386 0)
(-0.00259442 0.0133624 -5.1488e-21)
(-0.00853793 0.000868566 0)
(-0.000108627 6.92891e-05 -2.65028e-22)
(-0.0277024 -0.000179801 3.19645e-21)
(0.0664006 -0.112111 1.74459e-21)
(0.000235161 -0.000298535 2.32574e-24)
(0.0262798 0.000163954 5.20083e-21)
(-0.0223102 0.0250564 -1.60595e-21)
(0.000530534 -0.000441657 9.72919e-24)
(0.0404709 -0.0238748 -9.41686e-21)
(-0.000665829 0.012654 -5.61543e-21)
(0.0161785 0.00674305 2.55812e-21)
(-6.9934e-05 9.22909e-05 5.43542e-21)
(-9.32726e-05 -0.000101347 2.09684e-21)
(0.000111781 -0.000496218 -3.88247e-23)
(-4.60138e-05 0.00093513 6.01887e-22)
(0.0186472 0.000941414 0)
(-0.00180868 -0.00214885 0)
(0.0259344 -0.044401 0)
(0.0101715 0.0211689 0)
(-0.000797244 0.00141548 -6.46561e-24)
(-0.0315199 0.274408 3.60655e-21)
(-0.000183599 0.00011104 0)
(-0.000161702 0.000139814 0)
(0.0185585 0.142227 1.65106e-22)
(-0.112462 -0.23175 -2.83029e-21)
(0.00292759 0.00220861 1.74651e-21)
(-4.51846e-05 -1.41914e-05 0)
(-4.61821e-05 1.34324e-05 6.12696e-24)
(-0.000180613 0.000162993 5.0946e-23)
(-5.00854e-05 2.05875e-06 0)
(0.168214 -0.16903 -1.01818e-20)
(0.0146176 0.00181558 2.64893e-21)
(-4.78177e-05 2.04684e-05 0)
(-0.000137275 0.000164025 0)
(-7.30476e-05 3.78647e-07 0)
(0.0222473 0.0305898 -4.43075e-21)
(-0.0132788 0.00583793 -1.05059e-21)
(-7.02892e-05 -2.33715e-05 0)
(-0.000642874 -0.000683263 0)
(4.53009e-05 0.000817489 -5.82634e-22)
(-0.00062101 -0.000728722 0)
(-0.176502 -0.421553 0)
(-5.89491e-05 -1.52992e-05 9.415e-22)
(-4.98361e-05 -4.88832e-05 0)
(-0.0229713 0.0243981 7.92816e-22)
(0.0158447 -0.0240069 -4.32007e-21)
(-0.0093868 0.0031493 -5.51908e-21)
(-0.0351882 0.0148719 -4.01446e-22)
(-0.131283 -0.0100949 2.16945e-20)
(0.00429432 -0.00792097 1.42669e-21)
(0.00399326 0.000808687 0)
(-0.000433488 2.7902e-05 0)
(0.0227546 -0.000981272 -1.82095e-20)
(0.0999193 -0.0436818 5.94499e-21)
(0.000569177 -0.00152651 -4.79547e-22)
(-0.000363291 1.54604e-05 0)
(-0.0222717 0.00207398 1.42339e-21)
(-0.066165 0.357714 7.72302e-21)
(-2.20761e-05 7.41777e-06 2.54212e-21)
(-2.39032e-05 -1.82748e-06 0)
(-0.000273736 3.28266e-05 -2.19783e-24)
(-0.0255403 0.255257 1.42795e-20)
(-0.000116267 6.67189e-05 1.93364e-22)
(0.00218871 -0.00413067 8.57906e-22)
(0.0498062 -0.0373999 0)
(-6.58195e-05 0.000104751 1.54815e-21)
(0.00258876 -0.00403474 -1.04809e-21)
(-0.00025131 3.62267e-05 -3.20085e-23)
(-0.0341294 -0.00294879 -1.53598e-21)
(0.00105668 -0.000769683 -1.12717e-22)
(-8.60063e-05 2.98933e-05 0)
(0.0342405 -0.0536821 -2.26932e-21)
(-6.06464e-05 -5.03759e-05 0)
(-4.92568e-05 -2.96602e-05 0)
(0.098541 -0.0714179 4.12802e-21)
(-0.000214374 0.0006092 0)
(0.023652 -0.0138723 -2.02385e-21)
(-0.00440532 0.150545 1.30716e-21)
(-7.26457e-05 -1.86133e-05 -2.96561e-24)
(-0.0150251 -0.0033237 0)
(-4.20408e-05 -2.33928e-05 -1.29031e-21)
(0.0177793 0.0113002 9.14462e-21)
(-0.024378 -0.315668 0)
(-6.41867e-05 -1.53261e-05 0)
(-0.000282787 -2.06545e-05 -2.47027e-23)
(0.0964546 -0.0527572 4.00143e-22)
(0.0201815 0.0405805 7.94483e-21)
(-0.00113135 -0.00227247 0)
(0.0173888 -0.0389554 0)
(-0.000269497 -0.000108049 0)
(-0.0694807 0.102944 1.17457e-20)
(-8.66524e-05 2.71044e-05 0)
(0.0134106 -0.0506354 0)
(0.038529 -0.160462 1.41064e-21)
(0.00860487 0.042563 0)
(-6.09352e-05 -0.000116788 1.96305e-21)
(0.000543902 -0.00161475 5.12094e-22)
(0.00349538 -0.00114925 3.35609e-21)
(0.000624359 -0.00292906 0)
(0.0115413 -0.00955415 -6.26388e-23)
(-0.000167377 0.000130135 -2.42818e-21)
(0.0238146 0.146734 -1.97149e-21)
(-0.00163155 0.0966419 7.91277e-22)
(0.014829 0.187041 0)
(-0.0782176 -0.420761 1.38623e-20)
(0.0151937 0.340199 5.0563e-20)
(0.00069304 0.000391999 -8.04107e-21)
(-0.000350575 -0.000262179 9.12552e-22)
(0.000583553 0.000349663 2.32105e-21)
(-7.24455e-05 -1.05088e-05 0)
(-0.000223515 -2.9158e-05 1.75909e-22)
(-0.000146365 0.000211637 -1.42317e-21)
(0.0411901 -0.0405557 5.77767e-22)
(-2.59641e-05 -6.03251e-06 -2.45985e-21)
(-8.52086e-05 2.00175e-05 6.15341e-22)
(0.0359019 -0.0353564 6.40838e-23)
(0.0184115 0.00146343 0)
(0.0141972 0.0118625 -1.03126e-20)
(-0.0242306 0.0174649 -3.68266e-21)
(-6.64467e-05 7.45892e-05 0)
(-4.72026e-05 -3.62778e-06 1.67919e-21)
(-0.0538814 0.325248 2.59627e-20)
(0.000172848 -0.000407292 1.85105e-21)
(-0.0113421 -0.293653 0)
(-0.00213976 -0.00205858 -2.39749e-22)
(-0.00126964 0.00123693 -5.1628e-22)
(-4.1633e-05 -1.06845e-06 0)
(-0.00265999 0.112169 -9.78937e-22)
(0.00854768 -0.00696238 2.33635e-21)
(-0.0923327 -0.436594 -3.95201e-21)
(0.00113378 0.00378357 0)
(-3.44978e-05 -3.23366e-05 0)
(-6.45012e-05 -0.000123609 -2.86711e-21)
(-0.0160361 -0.00541087 -4.70062e-22)
(-0.000262812 8.80562e-06 7.3025e-22)
(-0.000177894 0.000142976 7.43854e-23)
(-0.0286727 -0.0316008 4.63498e-21)
(-0.000109464 9.61381e-06 7.32892e-23)
(0.0074139 -0.00172943 -1.36281e-21)
(0.00259988 -0.373884 6.79183e-22)
(0.114829 -0.0961746 0)
(0.016774 -0.00840682 -7.89219e-22)
(0.000305672 -0.0034967 0)
(-0.0858468 -0.00850695 -6.98844e-22)
(0.00679487 -0.00443513 0)
(-0.0181253 0.284074 -1.99268e-21)
(0.00119173 -0.00291447 -1.26648e-24)
(-0.0245927 0.00105117 5.49827e-21)
(-0.0335318 0.172474 0)
(-0.000171658 0.000126968 -1.13722e-21)
(-8.76155e-05 8.22945e-06 0)
(-0.000155419 -6.37179e-05 0)
(-0.0237468 0.00156364 -3.08344e-21)
(-0.00960966 0.141813 1.01282e-20)
(-0.0123168 0.166214 -1.07181e-20)
(-6.8778e-05 -6.96107e-05 4.23427e-24)
(-0.016417 0.000615277 1.77912e-21)
(-4.67708e-05 -4.94494e-06 1.41673e-22)
(-1.00885e-06 0.000123207 0)
(-0.00280823 -0.256359 0)
(0.00558369 -0.00196751 1.83906e-21)
(-0.0848691 -0.418184 0)
(-0.00687434 0.176572 7.92772e-21)
(0.13913 -0.136379 3.18448e-20)
(-0.00010898 1.01514e-05 -9.01733e-23)
(-0.00013089 0.000184047 -2.59159e-21)
(0.000270241 -0.0590795 -2.89408e-22)
(-0.00941092 0.14202 2.79055e-20)
(0.0701453 -0.0317306 -1.15279e-20)
(-0.00318327 0.0141381 -6.5191e-22)
(-2.29415e-05 1.72784e-06 -1.1429e-22)
(-0.0113016 -0.00502677 -4.6069e-22)
(-0.0172729 0.132597 -3.8809e-22)
(0.0130125 0.00292153 0)
(-9.88438e-05 -6.64082e-06 0)
(-0.029181 0.168648 0)
(-0.220808 -0.350288 2.90103e-20)
(-0.00759814 0.0129436 -3.02835e-21)
(-0.175377 -0.253558 8.78511e-20)
(-7.92853e-05 5.83021e-06 2.80873e-21)
(0.0334923 -0.0392438 0)
(-0.000902983 -0.000240522 8.52239e-23)
(4.22563e-05 0.000144653 7.129e-23)
(-0.000551265 -0.000708848 2.64615e-21)
(-0.00185197 -0.00041862 -3.42528e-21)
(-6.7036e-05 -3.30464e-05 0)
(0.0432834 0.259277 0)
(-0.0199936 -0.0709785 -2.14518e-22)
(-0.00378999 0.20256 2.11196e-20)
(0.0130073 0.122986 1.72642e-21)
(3.66425e-05 -0.000974189 0)
(0.000433495 -0.00218394 1.48931e-22)
(0.109542 -0.139972 -9.4504e-21)
(-7.11677e-05 -5.02488e-05 0)
(-0.18885 -0.342249 1.84646e-20)
(-7.30336e-05 -6.16355e-05 -1.09841e-21)
(-0.0118451 -0.080532 1.11019e-22)
(-0.147942 0.0579266 0)
(-0.0863561 0.00577227 -1.21348e-21)
(-0.0744117 -0.0835452 -5.9418e-21)
(0.000171188 0.00214173 -1.65784e-21)
(-0.000130257 7.90671e-05 1.61305e-21)
(-5.32323e-05 -1.95787e-05 -1.19996e-21)
(-0.00016625 -0.000942467 0)
(-9.12361e-05 -1.13412e-05 0)
(-0.0113364 0.352516 -6.14773e-20)
(-0.0019712 -0.00220909 1.60071e-22)
(-0.00140156 -0.00521174 0)
(-5.37053e-05 0.000113724 -1.80157e-21)
(-0.0111888 -0.00612216 -1.42435e-21)
(-0.0141891 0.257366 -3.2943e-22)
(-4.39427e-05 -2.97802e-06 -9.83939e-22)
(-6.40332e-05 -5.24788e-05 -1.71131e-21)
(-0.026177 -0.000696288 -3.3997e-21)
(-5.2283e-05 -6.55819e-06 1.55894e-21)
(-5.03022e-05 2.82856e-06 0)
(-0.00039432 4.85596e-05 3.55954e-22)
(0.0146363 0.290131 3.82737e-21)
(-0.000123854 7.48212e-05 7.80049e-22)
(0.0027367 -0.383089 -8.68924e-21)
(-8.08385e-05 9.58022e-06 8.6768e-22)
(0.0438614 -0.00699211 0)
(-0.182946 -0.413362 0)
(-0.00581941 0.0155012 0)
(-5.09447e-05 -3.78315e-05 -3.68665e-21)
(0.000182681 -0.000436345 0)
(8.58034e-05 0.000137261 -1.23936e-22)
(0.00498938 0.000223507 0)
(-0.0447905 0.249558 -2.46904e-22)
(-0.000903923 -0.000113147 0)
(-0.0864196 -0.413473 3.78075e-21)
(0.00111528 -0.000475362 0)
(0.123981 0.258764 5.84821e-21)
(-6.9463e-05 -6.09178e-05 2.15236e-21)
(0.0247763 -0.021464 6.49702e-21)
(0.00828445 0.000592366 4.6462e-21)
(0.0420112 -0.00782137 -4.13332e-22)
(-0.115897 -0.459089 2.41879e-22)
(-0.0246739 0.0193968 -1.05759e-21)
(0.0127314 0.03337 8.01903e-21)
(-0.000220748 -0.00126374 -1.84077e-21)
(7.3624e-05 -0.00029695 -1.99237e-21)
(0.0160023 -0.185178 -8.92408e-23)
(-0.00464187 0.000486946 0)
(-0.00164506 -0.00230671 5.57298e-23)
(0.110726 -0.0387055 4.01892e-21)
(-8.98563e-05 2.75756e-05 -6.75212e-22)
(0.0634138 0.00851279 0)
(-5.93235e-05 -2.25658e-05 -4.31499e-22)
(0.000281342 -0.000310389 -2.19855e-24)
(-0.00634831 -0.012719 -7.3539e-21)
(0.0243095 -0.0213872 -9.52566e-22)
(-5.58251e-05 1.34538e-05 5.22907e-23)
(0.0162045 0.0123164 -2.94886e-21)
(-0.0101556 0.0137285 1.94711e-21)
(0.0421768 -0.165776 -1.56797e-21)
(0.103703 0.270676 2.54222e-21)
(0.00574846 0.0098723 0)
(-9.00799e-05 9.99882e-05 0)
(-0.0115754 0.0846995 -1.74769e-21)
(0.237021 0.0948633 1.53376e-20)
(-5.01492e-05 2.74613e-06 9.62675e-22)
(-0.00124954 0.000185651 0)
(-0.0103816 0.0131332 -1.58146e-21)
(-0.0808186 -0.0238093 6.92428e-22)
(-0.00356595 -0.00208398 -2.72292e-22)
(0.0152987 -0.0404865 5.47152e-21)
(3.63764e-05 0.000190372 0)
(0.00489204 -0.00143756 0)
(-0.00199962 -0.000999786 0)
(0.0255627 -0.0477772 -1.25787e-20)
(0.000187144 -0.000330864 -3.49408e-21)
(-8.9449e-05 9.88693e-06 -1.35026e-21)
(-7.24483e-05 0.000131456 -1.4131e-21)
(-2.96925e-05 -3.09788e-06 0)
(0.0368869 -0.025095 1.04785e-20)
(0.00401553 0.000435717 0)
(-8.76273e-05 9.89262e-05 0)
(-8.77505e-05 -5.22385e-07 -1.27442e-21)
(0.013088 -0.00393865 -1.69442e-21)
(-0.0593257 0.215618 -3.98106e-21)
(-0.000176005 -4.42327e-05 -9.19234e-22)
(-0.00197177 0.00148015 -9.30119e-22)
(-0.0204158 0.000974228 8.27569e-21)
(-5.03139e-05 -8.37486e-05 -1.5971e-21)
(-0.00293793 -0.00500373 -7.68038e-23)
(-8.8291e-05 -0.000187495 0)
(-7.05332e-05 -4.05469e-05 0)
(-0.000115602 -0.000311639 6.92761e-22)
(-0.0496331 0.207546 2.87463e-20)
(-0.00728492 -0.0346963 -2.15474e-21)
(-0.0926516 0.0191648 0)
(-7.27271e-05 0.00012602 5.78468e-21)
(-0.00324575 -0.00169444 -4.97865e-21)
(-0.0141668 -0.00739268 5.7526e-23)
(-0.017908 -0.000942918 -3.69105e-21)
(-2.90568e-05 -3.93548e-06 0)
(-8.07283e-05 8.16472e-05 -1.53943e-23)
(0.0106827 0.130482 1.66175e-22)
(-0.000117282 3.14443e-05 -2.87099e-21)
(-0.000160387 -3.36132e-05 0)
(-0.0116401 -0.0430976 5.34337e-22)
(-5.77402e-05 -5.64678e-05 -2.03901e-21)
(-6.06658e-05 -3.3522e-05 2.14332e-23)
(0.00796888 -0.0619591 -1.22914e-21)
(-5.48954e-05 -3.59061e-05 1.86442e-21)
(-0.00230024 -0.00209804 0)
(-8.95428e-05 9.83575e-06 -1.15372e-22)
(-0.000711363 -0.00137566 3.93099e-22)
(0.000724677 -0.000989466 0)
(0.00261353 0.000727285 -8.78125e-22)
(-9.48389e-05 0.00011701 1.39534e-22)
(-0.0133336 -0.00649908 5.38293e-23)
(-9.00861e-05 6.54455e-06 6.72995e-23)
(-0.00703254 0.00514866 -5.67525e-21)
(-0.00991445 0.0605921 0)
(-5.16918e-05 2.41743e-05 0)
(-0.0297069 0.201003 -1.50819e-20)
(0.00128328 -1.42633e-05 -2.9569e-21)
(-8.98272e-05 2.81781e-05 0)
(-0.0247318 -0.00132024 -3.07105e-21)
(0.00610161 0.00934213 -1.92874e-21)
(-0.0488521 -0.242329 -6.99365e-21)
(0.0045995 -0.0153601 0)
(-4.67034e-05 1.32733e-05 -1.848e-21)
(-0.000148165 -4.61503e-05 0)
(7.86133e-05 -0.000191917 0)
(-0.0146819 -0.0412562 -4.78021e-22)
(0.0397502 0.129439 2.19441e-21)
(-0.0196886 0.118151 0)
(-0.00284628 -0.00176801 -3.26069e-22)
(0.0603987 0.192827 -7.13139e-21)
(-0.000156736 0.000171232 -1.91716e-21)
(-0.00359299 0.0154174 0)
(-0.000304647 2.20501e-05 0)
(-5.7421e-05 -0.000107978 7.1434e-24)
(-0.00974919 -0.0366394 0)
(-0.00972341 0.00634889 0)
(-0.0922959 0.0347862 0)
(0.000792024 -0.000556756 -4.5751e-21)
(-0.00164245 4.63169e-05 0)
(-8.99756e-05 1.63607e-05 -3.6224e-24)
(-7.91123e-05 2.44796e-07 -6.2665e-21)
(-0.0104543 -0.0125626 -3.4509e-21)
(0.00222182 -0.0225944 0)
(-0.00265621 -0.00528536 0)
(0.0775089 0.0451945 -2.06531e-20)
(-0.000613331 -0.00079265 -2.74459e-21)
(0.01399 0.00779381 0)
(-0.0253448 -0.000893109 -1.52801e-21)
(0.000770647 0.00248034 4.52462e-23)
(0.0055334 0.0869768 -3.57322e-21)
(0.0339483 0.0426244 -2.86414e-21)
(0.000940801 -0.000687138 1.24674e-22)
(0.00501747 -0.0060613 3.20571e-21)
(-7.61271e-05 -2.3352e-05 2.86235e-23)
(0.0370664 0.0328446 4.57216e-21)
(-0.00100257 -0.00146459 0)
(-0.00301995 0.0560174 0)
(0.0403348 -0.0724603 -1.87197e-20)
(0.00204651 0.352303 -3.20705e-20)
(-0.000109837 -8.17459e-05 -7.59532e-22)
(0.0440326 -0.0346893 1.70009e-21)
(-0.0181507 -0.00798423 -6.09632e-21)
(-7.74179e-05 4.96953e-05 -2.8764e-22)
(-7.64621e-05 -1.05908e-05 8.21045e-24)
(0.0172049 -0.00419674 8.68863e-21)
(-6.25132e-05 -5.785e-05 -1.771e-21)
(0.0160918 0.00417126 1.88551e-21)
(-7.38519e-05 -2.03811e-05 0)
(0.00191783 -0.000424908 2.29264e-21)
(-0.0543296 0.209508 5.36464e-21)
(-8.70248e-05 -0.00019456 -9.79613e-22)
(0.00519621 -0.000451014 0)
(-0.00337887 0.00220883 -3.32497e-22)
(0.00273688 0.0110061 0)
(-0.000117727 6.25779e-05 6.43248e-22)
(-0.0114347 -0.00623637 -1.24371e-22)
(-6.33747e-05 2.59245e-06 -4.68521e-21)
(-6.89618e-05 3.55375e-05 -1.44609e-21)
(-5.0001e-05 0.000147105 -2.06967e-21)
(-0.0130311 -0.0140518 0)
(-0.00015623 -2.56195e-05 0)
(-8.98079e-05 -1.10825e-05 1.47641e-22)
(-8.61556e-05 -0.000169685 2.02686e-21)
(-0.101959 -0.142876 0)
(-7.80628e-05 1.63228e-05 2.61602e-21)
(-0.0229718 0.0242646 1.01449e-21)
(0.00632961 0.0167369 0)
(-0.0472343 0.00384641 5.16652e-21)
(0.00256016 0.00994677 9.08713e-22)
(0.00381728 0.00454932 -3.31304e-23)
(-4.54925e-05 2.43988e-05 6.53037e-21)
(-7.01416e-05 -0.00145292 -2.80176e-21)
(-7.34071e-05 -5.0614e-05 0)
(-0.000288536 1.78784e-05 0)
(-0.000124517 3.00642e-05 2.44383e-22)
(0.00510727 -0.0176071 9.19236e-21)
(-8.38319e-05 -0.000162207 -3.41659e-21)
(1.35047e-05 0.000144013 -3.15517e-21)
(9.8402e-05 -0.000273882 -6.17673e-22)
(-0.0262331 0.0743319 -4.83149e-21)
(-0.00882627 -0.0483001 0)
(-3.16748e-05 -0.000102498 7.58161e-22)
(-0.00031923 0.00101945 0)
(-0.000158164 -7.46926e-05 -7.18965e-23)
(-0.109688 0.524866 2.57442e-21)
(-0.000836493 -0.000101002 0)
(-0.0755937 -0.399921 -2.62113e-21)
(0.000693083 -0.00318791 -1.13334e-23)
(-0.0119085 -0.00671722 0)
(0.00313539 -0.0120975 0)
(-5.71688e-05 -2.54126e-05 0)
(-9.27655e-05 -5.91349e-05 0)
(-7.45011e-05 9.52195e-06 0)
(0.00500814 0.353968 3.0507e-21)
(-9.48643e-05 -6.27628e-05 -1.41791e-21)
(-0.000714418 0.00122356 8.0731e-22)
(0.0048488 -0.0114236 3.1232e-22)
(-0.00504291 -0.0107312 5.12859e-21)
(0.180707 -0.0178242 -3.10676e-20)
(0.00321169 -0.00165753 -1.28361e-21)
(-0.00865164 -0.0237121 -3.19777e-21)
(-0.00148053 -0.00221936 -3.94072e-23)
(-7.47829e-05 -7.5341e-06 1.28346e-21)
(0.0858 -0.0481783 1.12992e-20)
(-0.000817319 -6.52008e-05 0)
(0.169888 -0.152919 1.96532e-20)
(0.0437743 0.0845231 0)
(-5.50254e-05 8.86077e-07 0)
(0.0162258 0.00809485 0)
(-8.16396e-05 3.10122e-05 -2.76779e-23)
(-0.0734645 0.130678 -1.51187e-20)
(-0.000106893 -8.91787e-05 0)
(0.00830453 -0.0760225 8.82667e-21)
(-0.00630134 0.00633484 0)
(-0.0476371 -0.0908792 0)
(0.00655474 0.015013 1.20063e-21)
(0.0022229 -0.00317223 0)
(-7.73197e-05 1.88216e-05 0)
(-2.8926e-05 2.99323e-06 0)
(0.0160041 0.00837653 -1.16967e-21)
(-0.00685793 -0.43442 0)
(-0.0251962 0.000809321 2.84284e-21)
(-0.0017483 0.000979025 7.43105e-22)
(-1.36977e-05 -0.000187777 0)
(-0.000219992 0.000930447 -5.59404e-23)
(-0.0188247 0.0118915 0)
(-3.92585e-05 -0.00019082 0)
(-6.70294e-05 -5.51385e-05 0)
(0.0267071 -0.000299657 0)
(-0.000504053 -0.00118688 1.11818e-22)
(0.0348502 -0.0487801 0)
(-6.21175e-05 7.88784e-06 -3.95755e-22)
(0.00480448 -0.00214594 5.50156e-21)