/*--------------------------------*- C++ -*----------------------------------*\
| =========                 |                                                 |
| \\      /  F ield         | OpenFOAM: The Open Source CFD Toolbox           |
|  \\    /   O peration     | Version:  v2012                                 |
|   \\  /    A nd           | Website:  www.openfoam.com                      |
|    \\/     M anipulation  |                                                 |
\*---------------------------------------------------------------------------*/
FoamFile
{
    version     2.0;
    format      ascii;
    class       volScalarField;
    location    "100";
    object      k;
}
// * * * * * * * * * * * * * * * * * * * * * * * * * * * * * * * * * * * * * //

dimensions      [0 2 -2 0 0 0 0];


internalField   nonuniform List<scalar> 
37190
(
0.000155974
0.00014612
0.000141892
0.000140055
0.000479244
0.000145322
0.000162142
0.000208927
0.00013314
0.0136858
0.00589708
0.0172387
0.000217771
0.000150295
0.0177034
0.00679776
0.000141904
0.000377458
0.000136624
0.00015171
0.000158893
0.00116604
0.000142752
0.0184684
0.000628401
0.000148821
0.0456089
0.000154372
0.0153516
0.000144382
0.00849801
0.000151298
0.000157657
0.000196322
0.000159321
0.00974482
0.0462473
0.00104359
0.000136532
0.000155146
0.00187672
0.000130525
0.00718585
0.000151022
0.0328588
0.000180973
0.0337333
0.0176032
0.000130942
0.00016089
0.000142674
0.000127727
0.000145953
0.000161801
0.000148996
0.000204993
0.000127773
0.000151237
0.00207972
0.00862322
0.000206788
0.022531
0.000159151
0.000148927
0.0239751
0.00611729
0.00997062
0.0236252
0.0250542
0.0266128
0.000136475
0.000280713
0.000159679
0.0001426
0.00014451
0.000265169
0.0296249
0.0310865
0.000157529
0.0351523
0.0339566
0.000140097
0.0307844
0.00014262
0.0120109
0.00017253
0.0108939
0.000939355
0.00016293
0.00496142
0.00013677
0.0147353
0.000158042
0.000144303
0.000181832
0.0146955
0.000151968
0.00460402
0.0032173
0.00014435
0.0147217
0.000202784
0.000146305
0.00012948
0.0133183
0.000145439
0.000149308
0.014501
0.0170977
0.000146978
0.00165098
0.000147863
0.000140022
0.000147859
0.00026105
0.000140105
0.0352582
0.00790033
0.000159617
0.000152528
0.000238757
0.0285917
0.000145639
0.000143279
0.0155264
0.000160047
0.0176743
0.000145779
0.0123322
0.0138257
0.0460178
0.000147661
0.000144701
0.00707985
0.000146289
0.0175
0.000147847
0.00358685
0.00228889
0.000723738
0.0217403
0.000237424
0.000336873
0.0140456
0.000152583
0.000138932
0.000152527
0.000154727
0.000138649
0.0260009
0.000149343
0.000143149
0.000128718
0.000166886
0.0242265
0.000142152
0.025384
0.000146485
0.000177898
0.0172502
0.000151716
0.000157863
0.000152153
0.000157961
0.0226624
0.000152825
0.0134719
0.01415
0.000159787
0.0193703
0.0163353
0.000133045
0.000387643
0.000137864
0.0138137
0.0148291
0.000211802
0.000177891
0.000147717
0.0142239
0.000166939
0.000197065
0.00445176
0.0266792
0.000160049
0.0100334
0.000148991
0.0122904
0.0102221
0.000172694
0.000138339
0.000228206
0.000195767
0.00014752
0.000138119
0.0313223
0.0382884
0.0215491
0.018842
0.000148616
0.000146523
0.00019069
0.000148634
0.000144386
0.00158062
0.00421486
0.000139976
0.000143995
0.0154679
0.000172274
0.000148598
0.000139589
0.0215613
0.000150276
0.0325528
0.000152177
0.000141237
0.000148848
0.00959615
0.000140066
0.000154591
0.000139585
0.00902124
0.0058062
0.0230843
0.00163712
0.000236288
0.0339659
0.000146799
0.0177494
0.0165691
0.000147218
0.000128649
0.00014611
0.000139579
0.000159739
0.0200515
0.000128544
0.000147644
0.000181452
0.000137826
0.0120767
0.000161566
0.000129326
0.0128619
0.0108001
0.000141569
0.000173188
0.00906415
0.000154372
0.00015385
0.000166787
0.000182687
0.000152856
0.000137589
0.000154682
0.000137576
0.000145409
0.000182819
0.000128294
0.0215898
0.0174207
0.000190689
0.000127675
0.0130835
0.000156508
0.000142343
0.0005636
0.000138426
0.000199721
0.000173408
0.000146812
0.00245583
0.0114977
0.000196281
0.0139648
0.000182225
0.000149109
0.0117397
0.000129791
0.000138654
0.000186205
0.000155944
0.000128562
0.0244582
0.000139563
0.000147331
0.000177161
0.000600651
0.000157436
0.000158
0.000150427
0.000200029
0.0332388
0.000131169
0.0122935
0.000136342
0.00015812
0.0169038
0.00014313
0.000202103
0.000240712
0.0114144
0.0326899
0.000153986
0.000180867
0.0299241
0.000142939
0.0330375
0.0399847
0.0259099
0.0386403
0.0203257
0.0066431
0.000182412
0.000185316
0.000145155
0.000147888
0.0206527
0.0001491
0.0418952
0.0418952
0.000143319
0.000166957
0.00144955
0.00458457
0.000160543
0.023416
0.0121005
0.000138515
0.00715843
0.0206785
0.0240407
0.0354712
0.00014595
0.000138711
0.000142307
0.000148937
0.000141058
0.000143914
0.00796358
0.000142292
0.0132308
0.00014578
0.0220622
0.000196017
0.0233805
0.000135859
0.00825224
0.0228105
0.00386753
0.000243788
0.000154006
0.000127647
0.000194338
0.00030071
0.000136938
0.000135692
0.0461223
0.0181048
0.0454554
0.0180748
0.00957968
0.032142
0.0318877
0.0253336
0.000147925
0.0127514
0.000131102
0.022704
0.000145767
0.00575746
0.000225738
0.0218869
0.00014333
0.000129277
0.0216409
0.0152455
0.0132125
0.000287253
0.000148254
0.00604358
0.000142943
0.0185203
0.00114801
0.0109947
0.000139998
0.00013496
0.000136016
0.000203929
0.000238051
0.0139266
0.000150605
0.000130809
0.0286844
0.00128989
0.0169131
0.0413688
0.00637189
0.000133719
0.0160158
0.0257307
0.000133475
0.0137715
0.0330404
0.000135979
0.000227983
0.00371442
0.0305087
0.000137068
0.000147714
0.000153758
0.000149155
0.0124524
0.000172021
0.0190843
0.000176498
0.000150538
0.00900061
0.00014494
0.000133989
0.0056827
0.0123045
0.000166229
0.000144698
0.00012822
0.000134884
0.000149498
0.0230246
0.0148435
0.000128242
0.000139299
0.000137298
0.00192726
0.0298746
0.000146921
0.000161398
0.000148891
0.000161704
0.0108598
0.000148734
0.000146464
0.0276565
0.000206193
0.0182382
0.00590778
0.0200618
0.000191896
0.000159486
0.000154675
0.0119857
0.000848635
0.00017689
0.000153797
0.0245714
0.0147659
0.000137327
0.000144447
0.000136467
0.0198731
0.000130753
0.000185129
0.0243442
0.000147965
0.000185836
0.000136186
0.00392788
0.000180446
0.00014096
0.00100269
0.000146282
0.000145387
0.000677635
0.000151076
0.000214867
0.0055873
0.000146897
0.000185277
0.000144706
0.000374164
0.0132313
0.000146117
0.0001367
0.000286513
0.000199543
0.000172612
0.0192909
0.000152449
0.0290727
0.000140949
0.000235301
0.0278761
0.000196197
0.000134635
0.000176929
0.000156492
0.000150361
0.000293567
0.000146147
0.00302548
0.00885717
0.00895833
0.0217607
0.0221824
0.000146851
0.00014894
0.000146596
0.000159572
0.000153033
0.000148601
0.000870251
0.000138111
0.000140957
0.000217311
0.0148966
0.000338813
0.0104059
0.000147693
0.000144623
0.0141038
0.000154116
0.0129484
0.00017174
0.000162847
0.00014408
0.00893117
0.000174197
0.0103255
0.000157759
0.000147073
0.000134622
0.00018754
0.000153623
0.000146167
0.00237929
0.000139562
0.000220452
0.00942061
0.00828125
0.000367625
0.000154595
0.00843669
0.000170835
0.0197009
0.000199037
0.0218391
0.0150489
0.000145345
0.000138512
0.000134057
0.021358
0.00656957
0.00795062
0.000127756
0.00625596
0.00014465
0.000155925
0.0166013
0.00016307
0.0189428
0.00789338
0.018786
0.00013955
0.000148266
0.000238648
0.00726285
0.0229414
0.0423702
0.000147293
0.0329188
0.00660094
0.000378531
0.000153014
0.0146732
0.0116315
0.0411545
0.0123249
0.000135762
0.000217564
0.000159416
0.000138558
0.000154328
0.000155882
0.0001469
0.0213967
0.0101478
0.00931305
0.00602523
0.00015554
0.000177283
0.0171333
0.000134408
0.0126774
0.000139404
0.00923385
0.0140511
0.00846933
0.0182189
0.000154966
0.000142716
0.000145505
0.000155154
0.000147807
0.0196929
0.000172058
0.000181461
0.000138203
0.0249901
0.0086384
0.000144296
0.000134554
0.019771
0.000155571
0.000149298
0.000154507
0.0263692
0.000142608
0.0114558
0.000135767
0.000158193
0.0109903
0.000168354
0.000137116
0.000154132
0.000138762
0.000161196
0.0263143
0.000158978
0.00870231
0.000148049
0.037004
0.000139513
0.000220677
0.00532861
0.00016899
0.0192935
0.0250631
0.000188586
0.000148138
0.000141357
0.0294813
0.00605413
0.000172389
0.000174782
0.000140995
0.0207627
0.000145933
0.000133815
0.000174963
0.029858
0.000129336
0.000183604
0.0072727
0.028281
0.0349609
0.0357666
0.000142348
0.00413943
0.00902031
0.000149763
0.00015353
0.0415961
0.00171615
0.00017322
0.0176762
0.000156504
0.000159917
0.000157054
0.000670028
0.000154373
0.000146485
0.00013901
0.000142945
0.000283416
0.00599849
0.000142626
0.000138601
0.00034484
0.0164493
0.000150426
0.000152102
0.013313
0.000142268
0.000180332
0.000145631
0.000136277
0.000149757
0.0159287
0.000210218
0.00934957
0.000138729
0.000157046
0.000188082
0.0137234
0.000143368
0.000142592
0.00612219
0.000145251
0.000133891
0.000217213
0.000136879
0.000128226
0.000231298
0.000136811
0.000171803
0.000129077
0.000143004
0.000178375
0.000187292
0.000142413
0.000187005
0.000129066
0.0258692
0.000217597
0.000135116
0.0131002
0.000146272
0.000141016
0.0219263
0.0345416
0.0438855
0.000178687
0.000135809
0.00014988
0.000130782
0.000216005
0.0072844
0.00757564
0.000171272
0.018289
0.000139583
0.0438433
0.000153731
0.000142969
0.000212568
0.000231075
0.00958581
0.0001494
0.000162912
0.000130418
0.000135846
0.000265236
0.00110561
0.000180749
0.0140684
0.000154697
0.032468
0.0214126
0.0163524
0.00488922
0.00449769
0.000142768
0.000173319
0.000136107
0.00447657
0.000144166
0.000212995
0.00312501
0.0271019
0.000141606
0.0246542
0.000177941
0.000139377
0.000151126
0.000278029
0.000134602
0.000487222
0.000132483
0.000155312
0.0299337
0.000145479
0.000161564
0.000156403
0.000170416
0.00013437
0.000185711
0.000153935
0.000137237
0.000155956
0.000193183
0.000133675
0.000129284
0.000145722
0.0257035
0.00013569
0.0307911
0.000188823
0.000201801
0.000167354
0.000169778
0.000135914
0.0001487
0.000134459
0.000148362
0.000131011
0.000244698
0.000145716
0.000148994
0.000141345
0.00680541
0.00022079
0.000142577
0.000149366
0.000134283
0.0206252
0.000158402
0.0211314
0.000203461
0.0305331
0.000250725
0.000141678
0.000147552
0.000149729
0.0271546
0.000147913
0.000153232
0.000252586
0.000215671
0.0154678
0.000156423
0.000211529
0.000172317
0.000157101
0.0232389
0.000158184
0.0223958
0.00183621
0.000149861
0.000192161
0.000129094
0.0289974
0.000141775
0.00138323
0.0290635
0.000539815
0.000184894
0.000159401
0.000135675
0.000143215
0.0340943
0.0117439
0.0211431
0.000151487
0.000153177
0.00014908
0.0125435
0.000153119
0.000136682
0.0134761
0.000167453
0.00022842
0.000149972
0.000160475
0.000174915
0.000142253
0.00014552
0.00128923
0.000153583
0.00464458
0.00477265
0.0237293
0.000191425
0.000173309
0.000161522
0.000160702
0.021248
0.0274381
0.0130247
0.000232919
0.000137205
0.00545904
0.000143432
0.000171695
0.000138341
0.0180866
0.00421267
0.00591668
0.0387085
0.000151492
0.0041629
0.00568396
0.0153196
0.000216276
0.000182158
0.00951345
0.000138332
0.0343704
0.00437678
0.0172618
0.000152454
0.000214998
0.000142959
0.00843514
0.000128363
0.000139078
0.00014711
0.000146386
0.000139076
0.000150111
0.000142875
0.000147445
0.000145543
0.000188176
0.00892968
0.000142347
0.000137164
0.0279081
0.000167033
0.000137436
0.000149736
0.000139435
0.000204777
0.0222335
0.000149335
0.000154416
0.000194519
0.000143173
0.000162673
0.000221776
0.000152002
0.00334591
0.000177519
0.027245
0.0229758
0.00014439
0.000135534
0.000142332
0.0226818
0.0194152
0.000137132
0.000148163
0.00703792
0.000135067
0.0231979
0.000163626
0.00245972
0.000177957
0.00013506
0.0227673
0.000136406
0.0215985
0.023356
0.000183008
0.00017061
0.000174738
0.000187082
0.000152786
0.0151602
0.000132016
0.000163686
0.0159003
0.000169853
0.000191404
0.00137828
0.000231209
0.000131959
0.00013471
0.0234824
0.00016284
0.000131856
0.000159172
0.000160201
0.00508013
0.0453017
0.000147682
0.0315491
0.000175601
0.03393
0.000153603
0.00950803
0.00018402
0.00726535
0.00767687
0.000216424
0.000131956
0.000137153
0.000245844
0.000137015
0.000153732
0.000152158
0.000148144
0.000158115
0.000190089
0.000135214
0.000194397
0.0208261
0.000135887
0.000249422
0.000133591
0.000137836
0.00579427
0.000284479
0.0380272
0.0129975
0.000161233
0.000225271
0.000180011
0.000133381
0.00978711
0.000308457
0.000144156
0.0263707
0.000138422
0.000145589
0.000153546
0.000137583
0.000223529
0.0103333
0.000142293
0.0171309
0.000134295
0.0250707
0.0278585
0.0237446
0.0430019
0.00811866
0.000161033
0.000155187
0.000224932
0.000149752
0.000143343
0.000187616
0.000149326
0.0279356
0.000134161
0.000145262
0.000143812
0.000140143
0.00120415
0.000141844
0.000166435
0.00552649
0.000146717
0.000223589
0.000135678
0.000130721
0.000149567
0.0111178
0.000347101
0.00014216
0.000146974
0.0146019
0.000141739
0.032583
0.000213878
0.000144797
0.00867538
0.00015718
0.000142875
0.000139336
0.00013199
0.00176838
0.000187583
0.000159178
0.000179545
0.000200346
0.0227167
0.000133858
0.00824119
0.000146135
0.000157069
0.000147136
0.000163052
0.000145767
0.0019191
0.00530367
0.000196789
0.000130956
0.000190632
0.000146239
0.0223124
0.000197775
0.000146402
0.000153182
0.000193873
0.000142237
0.0233928
0.000371128
0.000135854
0.000148472
0.000151446
0.000141461
0.000153019
0.000140125
0.000152588
0.000143211
0.000153778
0.000152569
0.000135732
0.000178205
0.0001432
0.00747101
0.000138294
0.000145811
0.00267488
0.000144788
0.000153475
0.000143996
0.00014941
0.000143812
0.000145962
0.00016023
0.000211769
0.00192749
0.000136034
0.00797347
0.0227339
0.00978992
0.00013759
0.0122037
0.000152035
0.0201983
0.00157228
0.0256791
0.000162641
0.0347692
0.0153212
0.000171783
0.000160065
0.000154039
0.0147978
0.000131322
0.000220113
0.0191738
0.00380439
0.000140717
0.000135794
0.000139241
0.000196599
0.0355782
0.0181452
0.0291999
0.0326751
0.000135776
0.0164915
0.00458648
0.00442046
0.000188976
0.000179701
0.000140435
0.000152255
0.03833
0.0205501
0.000154308
0.000142175
0.00018412
0.000136122
0.0146688
0.000153067
0.000142342
0.00017362
0.00018211
0.000133767
0.000202627
0.000196153
0.0185327
0.000133641
0.00649858
0.000135432
0.0291389
0.00111611
0.00034893
0.000143523
0.00543487
0.00014134
0.000141729
0.000189969
0.0344935
0.00013282
0.000153571
0.0104752
0.000162416
0.00015725
0.000130302
0.0151803
0.0159974
0.0221453
0.000222439
0.0207287
0.00980555
0.000162194
0.0234135
0.000150821
0.000142257
0.00609748
0.0259368
0.000329822
0.000136797
0.000206924
0.0199361
0.0239474
0.000190815
0.000241914
0.00149762
0.000168297
0.000154868
0.000169194
0.0030481
0.000141777
0.000199953
0.000147235
0.0302244
0.0291766
0.000127907
0.000142086
0.000165571
0.00209223
0.000135705
0.000143684
0.000147561
0.0209545
0.00070077
0.000190369
0.0438154
0.000147236
0.000137033
0.000166858
0.000142877
0.00754688
0.0118342
0.00018931
0.00548174
0.000147593
0.000177061
0.000136786
0.000136462
0.000141289
0.000140456
0.000162586
0.0133658
0.000145202
0.000158373
0.00455964
0.00017756
0.0110965
0.000351679
0.00013202
0.000141636
0.000187151
0.000133436
0.00367964
0.000132285
0.000137337
0.000134255
0.000197655
0.000133321
0.000153959
0.0262572
0.000202054
0.000495685
0.000147619
0.000153913
0.000138029
0.00014008
0.000136329
0.0176549
0.000170173
0.000153216
0.000276247
0.000157788
0.000144483
0.0071141
0.000243727
0.000136325
0.000155353
0.0425869
0.000167198
0.000196168
0.000144673
0.0383658
0.000136374
0.000144446
0.000182561
0.000141901
0.00112422
0.000190106
0.000129018
0.000135633
0.0240226
0.0133236
0.000140203
0.00014012
0.000151891
0.000134127
0.000128238
0.00013627
0.000163737
0.00486689
0.000321558
0.000142096
0.000132181
0.0001465
0.0251462
0.00671979
0.00014251
0.000162328
0.0012291
0.029651
0.000151258
0.0186007
0.000133479
0.00016838
0.000186029
0.0001958
0.000151889
0.00014303
0.000127779
0.0106224
0.000186727
0.00015346
0.00015172
0.00235374
0.000152093
0.000145698
0.000132004
0.0043232
0.000146422
0.000227403
0.000212479
0.000135612
0.000143555
0.0243315
0.000183042
0.000136034
0.00947535
0.000143789
0.00259834
0.000135597
0.000184392
0.00211192
0.000148726
0.000224141
0.020915
0.0001463
0.000145641
0.000142858
0.000167306
0.000167131
0.00668146
0.000136678
0.000193421
0.000155522
0.000190122
0.000147846
0.000200936
0.000132838
0.00465328
0.000153207
0.00014306
0.0269635
0.000166674
0.000142999
0.000132948
0.000155039
0.0100716
0.000172281
0.000149178
0.000141432
0.000143225
0.000164643
0.0129653
0.000163509
0.0255537
0.000144888
0.000179139
0.000135522
0.0155448
0.000129834
0.00374779
0.000164916
0.000149036
0.0280283
0.0305937
0.000143934
0.000234867
0.00013762
0.0164037
0.0281438
0.000134248
0.00100873
0.000137432
0.00015405
0.00336981
0.000201185
0.00451187
0.0449583
0.000130632
0.0229915
0.000141111
0.000143406
0.0369814
0.0310146
0.00013211
0.00018223
0.000148253
0.000170175
0.000144658
0.00017514
0.000143268
0.000185379
0.000143104
0.000141511
0.000176179
0.000150955
0.000188083
0.000628602
0.00878735
0.000142824
0.000140469
0.000194386
0.000185184
0.000982782
0.000137979
0.0241694
0.000147978
0.000135672
0.0132485
0.000139981
0.0228669
0.000131097
0.000157313
0.0384117
0.000135475
0.000141121
0.000142685
0.000149327
0.000148527
0.021716
0.000150976
0.00615228
0.000248131
0.000156492
0.0118009
0.00773292
0.000140166
0.000147461
0.0106904
0.0145257
0.000154122
0.000150994
0.00843302
0.0152046
0.000142083
0.000167456
0.00013054
0.000143202
0.00115557
0.0305879
0.000182126
0.000123162
0.000149994
0.000151204
0.00683943
0.000278573
0.000129001
0.0195208
0.000211332
0.000178814
0.0123132
0.000137133
0.000211979
0.000142801
0.000148682
0.000136641
0.000168327
0.000169934
0.000183219
0.00015262
0.000153916
0.000177807
0.0205211
0.000145383
0.0128688
0.00474282
0.0130194
0.000132722
0.000135547
0.0117484
0.000141047
0.00708528
0.000146315
0.000185702
0.000883615
0.000144688
0.00791813
0.000141392
0.00075032
0.000186467
0.000220779
0.0199659
0.000145199
0.000146731
0.0129896
0.000145299
0.00961936
0.000200612
0.000233869
0.000200963
0.000147855
0.000258536
0.000153119
0.000159645
0.000169921
0.00742391
0.000137205
0.000137115
0.0273862
0.0131432
0.00019025
0.0320185
0.000152769
0.000137112
0.02766
0.000173792
0.010213
0.00403445
0.0143785
0.000151188
0.000164789
0.000149109
0.0381151
0.000153038
0.00685022
0.000135332
0.000138123
0.000148033
0.0305951
0.00762371
0.00018222
0.000179431
0.000158552
0.000128999
0.000188637
0.000129459
0.0216816
0.0196578
0.0240004
0.00012908
0.000153754
0.0172622
0.000163072
0.0295068
0.000133751
0.000135363
0.000194217
0.00778613
0.000152523
0.0138235
0.027757
0.000154061
0.0142948
0.00020956
0.000164526
0.000143822
0.00420367
0.0069289
0.000134071
0.000179878
0.0270783
0.000138111
0.0176846
0.000193956
0.0215413
0.021947
0.000150259
0.000143144
0.000132615
0.000132509
0.0141602
0.000151812
0.000136807
0.0254589
0.000141151
0.000172143
0.000150741
0.000234432
0.000191331
0.000190342
0.000141726
0.000163152
0.000203398
0.000172836
0.000147726
0.000146741
0.000205583
0.00733664
0.000143212
0.000225969
0.0298978
0.0324433
0.00505275
0.000138829
0.00015886
0.0116778
0.0120074
0.000148394
0.000142991
0.0123466
0.00800519
0.0228131
0.000154387
0.00360271
0.0183548
0.000141687
0.0212844
0.000205973
0.000148714
0.000142459
0.000133867
0.0119637
0.000141069
0.0144479
0.000237607
0.0235274
0.000241341
0.0209898
0.0250226
0.00313431
0.0143906
0.000143786
0.0263437
0.000255298
0.000146062
0.000170281
0.00017265
0.000201063
0.0322059
0.000140033
0.00015105
0.000140853
0.00343828
0.000138467
0.000135175
0.000152037
0.00015587
0.000157789
0.0193682
0.000188165
0.000130611
0.000161637
0.000154876
0.000190635
0.000151312
0.000201069
0.000152913
0.0297837
0.0312751
0.000138383
0.0268202
0.000233606
0.0149247
0.0239108
0.000155379
0.0125583
0.00014344
0.026363
0.0244469
0.000140975
0.000140278
0.000144488
0.000140002
0.000155254
0.000160645
0.000141997
0.00375468
0.000148325
0.0206686
0.000155491
0.0135446
0.000135154
0.000140052
0.00457665
0.000141138
0.0001439
0.00014261
0.000202436
0.000152492
0.000148496
0.000156373
0.000140767
0.000192153
0.00013403
0.000310121
0.000143292
0.000165471
0.0158584
0.000148536
0.000205011
0.000189861
0.000141644
0.0179719
0.000136519
0.0429283
0.0190113
0.00529295
0.000180444
0.000138702
0.00019018
0.000196026
0.000143783
0.000162251
0.000168368
0.000172669
0.000154891
0.00013864
0.010304
0.00927407
0.000144261
0.0260968
0.000394315
0.000135258
0.000138724
0.000132018
0.00018928
0.00874794
0.000221552
0.00014218
0.000138684
0.0065667
0.000168378
0.0293704
0.01758
0.000142531
0.000151145
0.000135773
0.018161
0.022776
0.000135991
0.000162942
0.00786889
0.0137949
0.000161366
0.000158315
0.000132478
0.000147109
0.0389825
0.000171706
0.000143216
0.0322664
0.000138017
0.0101739
0.00771129
0.000178915
0.000248203
0.00523778
0.000145541
0.00475602
0.000166725
0.0259928
0.00551904
0.000135291
0.0321203
0.0362369
0.000513028
0.00250381
0.000159256
0.0270916
0.0218354
0.000162704
0.000135546
0.000952891
0.00411742
0.0101115
0.000184783
0.000149005
0.000185393
0.000142319
0.0335529
0.0402376
0.00024126
0.000156754
0.000148309
0.000142405
0.0136295
0.000137934
0.0198436
0.0105656
0.000178668
0.00014188
0.0145431
0.000142068
0.000177506
0.0261036
0.0102371
0.000150285
0.000146856
0.000143508
0.000144699
0.000207864
0.000141939
0.000171179
0.000211047
0.000144917
0.000130561
0.000203986
0.00082008
0.000137922
0.00013573
0.000144264
0.000152163
0.000157659
0.0242678
0.012697
0.0252875
0.0107337
0.0001467
0.000142337
0.000182278
0.000265388
0.000135865
0.000189684
0.0163452
0.0129198
0.0220228
0.00974122
0.000178382
0.000162235
0.0324537
0.000138045
0.00669147
0.000211691
0.000132761
0.00651451
0.000150921
0.000189502
0.0113368
0.000279652
0.000161082
0.0111607
0.000142996
0.000141672
0.000129967
0.000158314
0.00014207
0.000147117
0.000140961
0.0239239
0.000163314
0.000142213
0.000162003
0.000153238
0.00467616
0.0203513
0.0219674
0.000142871
0.00013554
0.0354108
0.000193773
0.00529169
0.000143211
0.000153456
0.000143692
0.000148391
0.0146804
0.000156688
0.000138394
0.000143537
0.000201656
0.00013857
0.000169099
0.000136077
0.000136501
0.000151005
0.000196045
0.000178311
0.000166091
0.000136156
0.000142069
0.000248102
0.0138801
0.0453854
0.00014706
0.000618936
0.000215776
0.000194671
0.0314421
0.000153198
0.00510268
0.000149638
0.0001955
0.0348941
0.000135282
0.000141273
0.00487815
0.000129901
0.0013844
0.0333551
0.000138683
0.000182259
0.000136025
0.000142397
0.0224472
0.000134461
0.000135943
0.000135684
0.000132016
0.000159386
0.000143861
0.0353883
0.000135722
0.000395205
0.0125233
0.000148152
0.000143125
0.000138926
0.000136148
0.00015324
0.0139116
0.00013584
0.000181052
0.000161755
0.046233
0.024663
0.000150279
0.000206362
0.000172303
0.00013038
0.000134326
0.0059504
0.000130303
0.00013255
0.0237807
0.00543207
0.033317
0.00014387
0.0374995
0.00712315
0.000130847
0.000170644
0.000143918
0.000141777
0.000132684
0.00014002
0.0457874
0.000141965
0.000146419
0.00466074
0.000151745
0.023022
0.000156407
0.000147374
0.0142864
0.000134286
0.0121557
0.000131769
0.000150624
0.0462858
0.000141198
0.000135256
0.000141961
0.0288714
0.00859757
0.000145007
0.000141163
0.000133064
0.000159627
0.00837188
0.000199039
0.000146794
0.0111036
0.00977964
0.000142686
0.01886
0.000130299
0.000268719
0.00362737
0.000131948
0.000157432
0.0231317
0.000162688
0.0145723
0.000180303
0.000175858
0.0114338
0.00015477
0.00238814
0.00014045
8.67792e-05
0.000143724
0.0329045
0.000149508
0.000156477
0.000162339
0.000137817
0.01582
0.00703913
0.0130697
0.00021854
0.000133671
0.0273274
0.0001294
0.000139967
0.0293848
0.000133101
0.0125492
0.0227599
0.000130753
0.000154192
0.000177521
0.00020963
0.000135313
0.000190668
0.000167009
0.00651967
0.0391674
0.000142928
0.000144128
0.000139759
0.000130641
0.0279145
0.000186106
0.00638917
0.000138491
0.00594744
0.0345289
0.000129079
0.000133151
0.0120964
0.00513869
0.0478136
0.00022224
0.0135407
0.000219553
0.00018081
0.000245083
0.00851941
0.0473858
0.000149361
0.000197587
0.000139926
0.000154489
0.000237345
0.0121729
0.000150021
0.000216047
0.00434968
0.0001387
0.000148057
0.000149397
0.000154682
0.000140053
0.00989264
0.000360453
0.0164424
0.00013491
0.0057491
0.000164724
0.00024818
0.000195587
0.000185103
0.0146266
0.000136934
0.000141697
0.000211635
0.000133595
0.0166064
0.000178159
0.000143075
0.000129751
0.023821
0.000143526
0.000149329
0.000138499
0.000158393
0.00017653
0.000170576
0.00015441
0.000141228
0.0001452
0.000243311
0.000135486
0.000197955
0.000141172
0.000142584
0.000129715
0.0117899
0.00194104
0.0204396
0.000154241
0.000155904
0.00015322
0.0134022
0.0240436
0.000140842
0.0267573
0.000142985
0.000134864
0.000238673
0.0204361
0.00532966
0.0304748
0.000240168
0.000190495
0.000139834
0.000143617
0.000164376
0.0145779
0.000171932
0.000128037
0.000237562
0.0321925
0.000138113
0.000137357
0.00754471
0.000148958
0.0226049
0.0261025
0.0393071
0.00013567
0.000158862
0.000141614
0.0295595
0.000150084
0.000133744
0.000154504
0.0288792
0.00501267
0.0134532
0.0168678
0.000150066
0.000134831
0.000141651
0.0350572
0.000138339
0.000149139
0.000162229
0.000136402
0.00196498
0.000141115
0.00013342
0.000133526
0.000174629
0.000144967
0.00302489
0.000148056
0.000141693
0.0163124
0.000145954
0.000211036
0.0145532
0.000185245
0.000149251
0.0225873
0.00629002
0.000143892
0.00103189
0.000132384
0.000251623
0.000260843
0.000685644
0.000189712
0.000183141
0.000200787
0.000138677
0.000131375
0.000147051
0.000133455
0.000168952
0.013393
0.000167997
0.0134008
0.000129386
0.044024
0.000859958
0.000147782
0.019656
0.000135863
0.000196435
0.000149171
0.0119319
0.00012966
0.0154291
0.000133262
0.000139501
0.000164009
0.020244
0.00704114
0.000145746
0.0176694
0.020076
0.000134775
0.00316658
0.000167048
0.00023913
0.00398349
0.000142268
0.0273772
0.000139533
0.000142575
0.0233883
0.000186208
0.000133
0.000141809
0.000137284
0.000133969
0.000149203
0.0147964
0.000451399
0.00765045
0.00013996
0.000143867
0.00018971
0.0196636
0.0292428
0.022772
0.00994922
0.000148767
0.000137039
0.000137456
0.000158001
0.000142923
0.000133689
0.00278969
0.0379957
0.00664177
0.000143429
0.000139174
0.000942821
0.00014123
0.000138773
0.000142695
0.000152594
0.000238221
0.012647
0.000140959
0.00013392
0.000167646
0.00014219
0.0291416
0.000159974
0.00331261
0.000147134
0.000177588
0.000140562
0.000132308
0.000201231
0.000151504
0.000186528
0.000136453
0.00245204
0.000150016
0.0133945
0.00013856
0.0179703
0.00013707
0.000189564
0.000141663
0.000138711
0.000143521
0.000268559
0.00449677
0.000142273
0.000151833
0.00013525
0.0374614
0.000179141
0.00275383
0.000154628
0.000151286
0.000189501
0.000384709
0.000241322
0.0170952
0.000142714
0.00014455
0.0143653
0.0029125
0.000129283
0.000231957
0.000152936
0.000135
0.00407663
0.000140234
0.00746294
0.000145807
0.0155853
0.000140431
0.0293396
0.0245197
0.000131005
0.000145968
0.000130666
0.000146026
0.00506871
0.00444205
0.00459134
0.0108103
0.000140435
0.000206267
0.000142619
0.0159902
0.000130182
0.00333461
0.000134606
0.000244126
0.000141335
0.000138436
0.000151561
0.0178454
0.00337055
0.00244548
0.000199894
0.000186622
0.00909784
0.000193284
0.00477329
0.000141904
0.000156967
0.000154866
0.000136012
0.000135286
0.000235121
0.00916601
0.00960784
0.000162775
0.000144427
0.0460094
0.000143221
0.000187169
0.000508235
0.0159437
0.00015583
0.000136165
0.000135518
0.000147092
0.000143554
0.0101257
0.000199127
0.000137959
0.000153431
0.000180373
0.000155044
0.0221065
0.0130878
0.00751095
0.000142933
0.00584149
0.0131453
0.000183333
0.0104138
0.000137379
0.000139372
0.00913334
0.0379342
0.00660712
0.000138993
0.000157074
0.000131736
0.0182895
0.0351069
0.000135394
0.000155324
0.00013762
0.000144312
0.000251232
0.0310149
0.000139018
0.000137298
0.000159711
0.0001433
0.00013514
0.000162783
0.000138292
0.000150885
0.000135403
0.0228169
0.000136188
0.000189446
0.000134465
0.000144408
0.000137483
0.000166026
0.000139287
0.000139239
0.000135111
0.000143275
0.0284355
0.000150905
0.000186516
0.00015204
0.0188134
0.000149217
0.00638413
0.000138431
0.00667982
0.000170353
0.0436854
0.0089143
0.0128386
0.0168693
0.00334521
0.000131742
0.0192099
0.000146943
0.000159111
0.00644895
0.000190306
0.000170892
0.0473356
0.000190662
0.000158998
0.000157746
0.00715139
0.000139404
0.000143302
0.000146341
0.000166285
0.000139302
0.000131794
0.00925309
0.000148054
0.000139592
0.000141069
0.0120249
0.000149188
0.000160554
0.0327872
0.0348438
0.00467505
0.000205058
0.00146938
0.000155366
0.0213594
0.000135184
0.000172474
0.000171741
0.000147528
0.00013497
0.00147187
0.0398017
0.000185708
0.000162748
0.00014925
0.000147976
0.0011778
0.000161185
0.0208091
0.00014959
0.000141879
0.000142311
0.000143512
0.000145766
0.000139628
0.000177174
0.000143952
0.000146405
0.000164356
0.000149058
0.000141764
0.000148454
0.0128393
0.0147801
0.000157979
0.000241401
0.00255349
0.000184826
0.00016721
0.024518
0.00017352
0.000139112
0.000142587
0.000216869
0.000134734
0.000131782
0.000157593
0.00146249
0.000131774
0.000137193
0.000152885
0.000154881
0.000141584
0.000157681
0.000156941
0.00431244
0.0177374
0.00843559
0.000131843
0.00013918
0.0210999
0.0130654
0.000186208
0.000709742
0.0386044
0.00015903
0.000148218
0.00014335
0.0218038
0.0065091
0.000139672
0.000171216
0.0059595
0.00163912
0.00978403
0.0241615
0.000148968
0.00027309
0.000158206
0.000184073
0.000141973
0.0408947
0.000216399
0.000151263
0.000141399
0.000146033
0.000195701
0.000127923
0.000131834
0.000301991
0.000228525
0.011705
0.0461866
0.0334606
0.000143442
0.0293647
0.0127039
0.00280808
0.0366488
0.000134036
0.026587
0.0236206
0.000143717
0.000269187
0.000219493
0.000142118
0.0145367
0.000144516
0.0143406
0.000140992
0.000170875
0.000193077
0.024656
0.000141999
0.000245001
0.000170342
0.000178628
0.000141182
0.000141947
0.00468342
0.0370211
0.000155042
0.000401934
0.000135851
0.00016882
0.000143181
0.000167323
0.0134295
0.0054108
0.0113265
0.0308128
0.0119591
0.000154498
0.0119203
0.000153012
0.000129952
0.0100559
0.00670349
0.000134692
0.000149677
0.000145925
0.000148892
0.000935583
0.000138026
0.0261178
0.000184566
0.00645659
0.000147971
0.000233351
0.000175149
0.0250447
0.000179745
0.000837305
0.00469933
0.010716