/*--------------------------------*- C++ -*----------------------------------*\
| =========                 |                                                 |
| \\      /  F ield         | OpenFOAM: The Open Source CFD Toolbox           |
|  \\    /   O peration     | Version:  v2012                                 |
|   \\  /    A nd           | Website:  www.openfoam.com                      |
|    \\/     M anipulation  |                                                 |
\*---------------------------------------------------------------------------*/
FoamFile
{
    version     2.0;
    format      ascii;
    class       volScalarField;
    location    "100";
    object      k_0;
}
// * * * * * * * * * * * * * * * * * * * * * * * * * * * * * * * * * * * * * //

dimensions      [0 2 -2 0 0 0 0];


internalField   nonuniform List<scalar> 
37190
(
0.00015597
0.000146121
0.000141892
0.000140055
0.000472745
0.000145322
0.000162143
0.000208986
0.000133139
0.0136929
0.00589659
0.0171864
0.000217804
0.000150295
0.0177065
0.00682323
0.000141904
0.000378121
0.000136624
0.000151711
0.000158894
0.00127313
0.000142752
0.0184843
0.000615326
0.000148821
0.0455982
0.000154372
0.0153513
0.000144382
0.00851269
0.000151299
0.000157663
0.000196357
0.000159329
0.00977386
0.0462364
0.00102561
0.000136533
0.000155144
0.00190634
0.000130526
0.00720931
0.000151023
0.0328563
0.000185723
0.0337307
0.0175554
0.000130943
0.000160891
0.000142671
0.000127728
0.000145953
0.000161802
0.000148994
0.000205049
0.000127774
0.000151239
0.00207162
0.00863795
0.000206843
0.0225331
0.000159152
0.000148927
0.0239261
0.00601673
0.00995989
0.0236348
0.025021
0.0265994
0.000136475
0.000279632
0.000159691
0.000142599
0.000144511
0.000264882
0.0296975
0.0310196
0.000157532
0.0351005
0.033953
0.000140097
0.030766
0.000142604
0.0120039
0.000172535
0.0108257
0.000976011
0.000162931
0.00503398
0.00013677
0.0147325
0.000158049
0.000144304
0.000181852
0.0147011
0.000151968
0.00450995
0.0031518
0.000144351
0.0146668
0.000202831
0.000146305
0.00012948
0.0133184
0.00014544
0.000149309
0.0144968
0.0171281
0.000146978
0.00170387
0.000147861
0.000140022
0.000147857
0.000260329
0.000140105
0.0352539
0.00783817
0.000159617
0.000152528
0.000238497
0.0285234
0.000145639
0.000143276
0.0155478
0.000160048
0.0176698
0.000145779
0.0123304
0.0137703
0.04601
0.000147661
0.000144701
0.00710433
0.000146289
0.0174554
0.000147848
0.00357381
0.00223705
0.000709516
0.021778
0.000237249
0.000336118
0.0140289
0.000152583
0.000138933
0.000152527
0.000154727
0.00013865
0.0259879
0.000149344
0.00014315
0.000128718
0.000166887
0.0242281
0.000142152
0.0253571
0.000146485
0.000177852
0.0172351
0.000151719
0.000157864
0.000152149
0.000157966
0.0226248
0.000152825
0.0134765
0.014144
0.000159788
0.0193677
0.0163622
0.000133045
0.000386603
0.000137863
0.0138203
0.0147361
0.000211806
0.000177904
0.000147717
0.0142307
0.000166939
0.000197104
0.00452594
0.0267101
0.00016005
0.0100298
0.000148991
0.0122962
0.0101218
0.000172692
0.00013834
0.000228303
0.000195804
0.00014752
0.000138121
0.0313025
0.0382609
0.0214755
0.0189124
0.000148616
0.000146524
0.000190698
0.000148634
0.000144385
0.00156525
0.00422316
0.000139976
0.000143995
0.0154659
0.000172272
0.000148599
0.000139589
0.0215693
0.000150276
0.0324981
0.000152177
0.000141237
0.000148849
0.00958607
0.000140066
0.000154591
0.000139585
0.00890599
0.00580607
0.0230613
0.00159786
0.000236373
0.0339447
0.000146799
0.0177387
0.0165661
0.000147219
0.000128649
0.00014611
0.000139579
0.000159748
0.0201207
0.000128544
0.000147644
0.000181451
0.000137827
0.0120803
0.000161567
0.000129326
0.0128539
0.0107928
0.000141569
0.000173193
0.00905401
0.000154372
0.00015385
0.000166802
0.000182685
0.000152857
0.00013759
0.000154682
0.000137575
0.000145408
0.000182838
0.000128294
0.0215691
0.0174236
0.000190696
0.000127675
0.0130074
0.000156509
0.000142343
0.000561699
0.000138426
0.000199629
0.00017348
0.000146812
0.00240007
0.0115028
0.000196317
0.0139711
0.000182244
0.000149109
0.0117449
0.000129791
0.000138653
0.000186175
0.000155939
0.000128562
0.0244614
0.000139563
0.000147331
0.000177173
0.000594377
0.000157448
0.000158
0.000150427
0.000200072
0.0332192
0.000131169
0.0122889
0.000136342
0.00015812
0.01691
0.000143132
0.00020215
0.000237038
0.0113239
0.0326711
0.00015398
0.000180808
0.0299048
0.000142939
0.0330357
0.0399939
0.0258592
0.0386105
0.0203204
0.00675641
0.000182451
0.000185359
0.000145155
0.000147892
0.0205791
0.000149101
0.0418713
0.0418644
0.000143319
0.000166962
0.00141493
0.00459301
0.000160544
0.0234238
0.0121038
0.000138515
0.00705822
0.0205807
0.0241743
0.0354184
0.00014595
0.000138711
0.000142307
0.000148937
0.000141057
0.000143914
0.00798595
0.000142292
0.0132008
0.000145779
0.0220675
0.00019594
0.023374
0.000135859
0.00827112
0.0228141
0.0038541
0.000243832
0.000154006
0.000127648
0.000193955
0.000301166
0.000136938
0.000135692
0.0461131
0.0181253
0.0454463
0.018064
0.00943294
0.0321403
0.0318871
0.0253592
0.000147924
0.0127557
0.000131102
0.0226563
0.000145767
0.00574165
0.000225775
0.0220401
0.000143312
0.000129277
0.0216815
0.015234
0.0131492
0.000287071
0.000148253
0.00604417
0.000142943
0.0183519
0.00114255
0.0110035
0.00014
0.00013496
0.000136014
0.000203886
0.000238132
0.0138469
0.000150605
0.000130809
0.0286773
0.00128444
0.0169365
0.0413527
0.00637271
0.000133719
0.0160103
0.0257571
0.000133475
0.0137758
0.0329843
0.000135977
0.000226013
0.00366521
0.0305088
0.000137068
0.000147714
0.000153758
0.000149158
0.0124532
0.000172021
0.0190788
0.000176516
0.000150538
0.0090033
0.00014494
0.000133989
0.00567061
0.0122285
0.000166233
0.000144698
0.00012822
0.000134884
0.000149498
0.0230476
0.0148466
0.000128242
0.000139299
0.000137298
0.00191991
0.0298664
0.000146921
0.000161399
0.000148893
0.000161704
0.0108501
0.000148735
0.000146464
0.0275952
0.000206251
0.0182339
0.00590554
0.0199571
0.000191904
0.000159498
0.000154676
0.0119913
0.000882697
0.000176893
0.000153797
0.024564
0.0147082
0.000137327
0.000144447
0.000136468
0.0198315
0.000130753
0.000185135
0.0243501
0.000147965
0.000185842
0.000136186
0.00399991
0.000180452
0.00014096
0.000989404
0.000146282
0.000145387
0.000661299
0.000151078
0.000214905
0.00550149
0.000146897
0.000185248
0.000144706
0.0003729
0.0132316
0.000146117
0.000136701
0.000286821
0.00019949
0.000172612
0.0192758
0.000152449
0.0290557
0.000140949
0.000235376
0.0279189
0.000196134
0.000134635
0.000176933
0.000156503
0.000150356
0.000293342
0.000146147
0.00296915
0.00886848
0.008997
0.0216989
0.0220222
0.000146854
0.000148938
0.000146598
0.000159572
0.000153034
0.000148602
0.00087922
0.00013811
0.000140956
0.000217389
0.0148977
0.000337989
0.0104005
0.000147694
0.000144622
0.0140465
0.000154116
0.0129652
0.000171739
0.000162849
0.00014408
0.00893533
0.000174201
0.0102249
0.000157771
0.000147073
0.000134622
0.000187508
0.000153623
0.000146167
0.00245954
0.000139562
0.000220258
0.00926628
0.00835953
0.000366958
0.000154592
0.00845955
0.000170838
0.0196586
0.000198899
0.0218326
0.0149773
0.000145345
0.000138512
0.000134058
0.0213526
0.00656188
0.00794417
0.000127756
0.00625622
0.000144649
0.000155926
0.0166499
0.000163081
0.0189309
0.00787926
0.0189428
0.00013955
0.000148267
0.000238738
0.00727882
0.0229466
0.0423522
0.000147294
0.0328959
0.00659494
0.000377566
0.000153014
0.0146007
0.0115977
0.0411328
0.0122187
0.000135762
0.000217638
0.000159417
0.000138557
0.000154326
0.000155878
0.0001469
0.021423
0.0101307
0.00927366
0.00601764
0.000155538
0.000177286
0.0173913
0.000134408
0.012654
0.000139404
0.00921887
0.0140713
0.00848681
0.0183189
0.000154973
0.000142716
0.000145504
0.000155152
0.000147807
0.0195566
0.000172058
0.00018146
0.000138202
0.0249774
0.00859405
0.000144296
0.000134554
0.0197636
0.000155571
0.000149298
0.000154508
0.0264233
0.000142608
0.0112987
0.000135767
0.00015888
0.0109782
0.000168345
0.000137116
0.000154132
0.000138761
0.000161209
0.0262643
0.000158979
0.00860574
0.000148052
0.0369168
0.000139513
0.0002207
0.00532942
0.000169715
0.0192777
0.0249942
0.000188571
0.000148137
0.000141357
0.0295231
0.00605504
0.000172389
0.00019134
0.000140995
0.0207614
0.000145933
0.000133815
0.000174952
0.0299077
0.000129336
0.000183625
0.00721424
0.0283185
0.034827
0.0357609
0.000142348
0.00415002
0.00908178
0.000149763
0.000153529
0.0415687
0.00170356
0.000173218
0.0176592
0.000156505
0.000159934
0.000157048
0.000643737
0.000154373
0.000146485
0.000139009
0.000142945
0.00028012
0.00599965
0.000142626
0.000138602
0.000343969
0.0163921
0.000150426
0.000152098
0.0133119
0.000142268
0.000180329
0.000145631
0.000136277
0.000149757
0.015867
0.00021022
0.00937039
0.000138729
0.000157038
0.000188056
0.0137146
0.000143368
0.000142592
0.00611349
0.000145251
0.000133892
0.000217222
0.000136879
0.000128226
0.000231439
0.000136811
0.000171802
0.000129077
0.000143007
0.000178379
0.000187304
0.000142412
0.000186981
0.000129066
0.0258661
0.000217368
0.000135116
0.0130094
0.000146274
0.000141016
0.0219176
0.0345368
0.0438283
0.000178689
0.000135809
0.00014988
0.000130783
0.000216009
0.00733278
0.0075882
0.00017127
0.0183189
0.000139583
0.0438225
0.000153731
0.000142968
0.000212574
0.000231319
0.00959877
0.000149401
0.000162913
0.000130419
0.000135846
0.00026552
0.00110518
0.000180747
0.0140304
0.000154695
0.0324667
0.0214044
0.0163496
0.0048745
0.004494
0.000142764
0.000173339
0.000136107
0.00447294
0.00014417
0.000212807
0.00306231
0.0270689
0.000141606
0.0246573
0.000177915
0.000139376
0.000151126
0.00027759
0.000134602
0.000485667
0.000132484
0.000155316
0.0299052
0.000145479
0.000161576
0.000156391
0.000170406
0.00013437
0.000185693
0.000153935
0.000137237
0.000155957
0.000193167
0.000133676
0.000129284
0.000145721
0.0257305
0.00013569
0.0307316
0.000188784
0.000201758
0.000167349
0.000169785
0.000135914
0.0001487
0.000134459
0.000148362
0.000131011
0.00024479
0.000145715
0.000148995
0.000141345
0.00679845
0.000220801
0.000142577
0.000149368
0.000134283
0.0205276
0.000158402
0.021034
0.000203336
0.0305155
0.000250669
0.000141677
0.000147552
0.000149729
0.0271178
0.000147913
0.000153234
0.000252554
0.000215698
0.0154844
0.000156434
0.000211708
0.000172317
0.000157101
0.023247
0.000158185
0.0224232
0.00179574
0.000149861
0.000192161
0.000129094
0.0289766
0.000141776
0.00136984
0.0290585
0.000552783
0.00018487
0.000159383
0.000135676
0.000143215
0.0340929
0.0115945
0.0211369
0.000151483
0.000153177
0.000149082
0.0124724
0.00015312
0.000136682
0.013481
0.000167454
0.000228529
0.000149972
0.000160492
0.000174943
0.000142253
0.00014552
0.00126715
0.000153583
0.00465148
0.00478188
0.0237196
0.000191446
0.00017329
0.000161522
0.000160702
0.0212404
0.027359
0.0130202
0.000233059
0.000137205
0.00553337
0.000143433
0.000171718
0.000138341
0.018037
0.00422029
0.005888
0.0387737
0.000151495
0.00416688
0.00565935
0.015319
0.00021624
0.000182177
0.00955841
0.000138332
0.0343475
0.00440041
0.0172254
0.000152453
0.000215019
0.000142952
0.00847888
0.000128363
0.000139078
0.000147109
0.000146386
0.000139077
0.000150111
0.000142875
0.000147445
0.000145543
0.000188096
0.00897037
0.00014234
0.000137164
0.0278498
0.000167033
0.000137436
0.000149736
0.000139434
0.000205825
0.0222403
0.000149335
0.000154416
0.000194548
0.000143173
0.000162674
0.00022174
0.000152002
0.0033122
0.000177445
0.027284
0.0229672
0.00014439
0.000135534
0.000142329
0.0226873
0.019404
0.000137131
0.000148135
0.00712431
0.000135067
0.0231339
0.000163628
0.00239946
0.00017796
0.00013506
0.0227024
0.000136406
0.0215866
0.0233203
0.000182995
0.000170541
0.000174757
0.000187054
0.000152786
0.015161
0.000132016
0.000163689
0.0159011
0.000169857
0.000191425
0.0013396
0.000231629
0.000131958
0.00013471
0.0234912
0.000162842
0.000131856
0.000159173
0.000160202
0.00503721
0.045294
0.000147682
0.0315481
0.000175604
0.0339967
0.000153603
0.00950425
0.000183994
0.00731178
0.00772027
0.000216389
0.000131956
0.000137154
0.000245853
0.000137015
0.000153733
0.000152158
0.000148144
0.000158108
0.000190113
0.000135214
0.000194427
0.0207643
0.000135888
0.00024921
0.000133591
0.000137837
0.00580791
0.000273995
0.0379854
0.0130043
0.000161234
0.000224999
0.000180015
0.000133381
0.00978808
0.000290601
0.000144156
0.0263622
0.000138422
0.000145589
0.000153549
0.000137583
0.000223541
0.0103257
0.000142293
0.0171295
0.000134295
0.0250853
0.0277877
0.0237387
0.0429834
0.00816328
0.000161021
0.000155191
0.000224928
0.000149749
0.000143343
0.000187582
0.000149327
0.0278673
0.000134161
0.000145262
0.000143812
0.000140143
0.00119533
0.000141844
0.000166435
0.00552487
0.000146717
0.000223614
0.000135678
0.000130721
0.000149567
0.0111269
0.000348126
0.00014216
0.000146974
0.0144856
0.000141736
0.0325619
0.000213915
0.000144797
0.00866398
0.00015718
0.000142876
0.000139336
0.00013199
0.00173396
0.00018752
0.000159171
0.000179486
0.000200388
0.0227046
0.000133858
0.00822171
0.000146135
0.000157057
0.000147139
0.000163053
0.000145768
0.0018947
0.0052822
0.000196393
0.000130956
0.000190648
0.00014624
0.0222946
0.000197756
0.000146402
0.000153183
0.000193858
0.000142237
0.0234146
0.000370514
0.000135854
0.000148476
0.000151446
0.000141461
0.000153018
0.000140125
0.000152588
0.000143211
0.000153778
0.000152569
0.000135732
0.000178209
0.0001432
0.0074737
0.000138294
0.000145812
0.0026509
0.000144788
0.000153476
0.000143996
0.000149407
0.000143811
0.000145963
0.00016023
0.000211787
0.00189693
0.000136034
0.00804799
0.0227292
0.00981024
0.000137589
0.0121118
0.000152035
0.0201532
0.00163039
0.0257292
0.000162624
0.0346991
0.0152942
0.000171869
0.000160065
0.000154039
0.0150857
0.000131322
0.000220097
0.0191639
0.00383582
0.000140717
0.000135794
0.000139241
0.000196635
0.0356702
0.0181314
0.0291312
0.0326561
0.000135775
0.0165213
0.00454767
0.00446488
0.000188998
0.000179717
0.000140435
0.000152255
0.0382948
0.0205476
0.000154312
0.000142175
0.000184114
0.000136122
0.0146644
0.000153066
0.000142342
0.000173646
0.000182098
0.000133767
0.000202658
0.000196153
0.0187332
0.000133641
0.00650024
0.000135432
0.0291311
0.00121456
0.000348426
0.000143523
0.0054482
0.00014134
0.000141729
0.000189983
0.0344279
0.00013282
0.000153569
0.010469
0.000162398
0.00015725
0.000130303
0.0151488
0.0161225
0.0221404
0.000222406
0.0207206
0.0098013
0.000162177
0.0234226
0.000150827
0.000142257
0.00600092
0.0259496
0.000329222
0.000136797
0.000206785
0.019926
0.023798
0.000190831
0.000242084
0.00149123
0.0001683
0.000154874
0.0001692
0.00315273
0.000141776
0.000199988
0.000147235
0.0302154
0.0292168
0.000127907
0.000142085
0.000165571
0.00208101
0.000135705
0.000143683
0.000147561
0.0208866
0.000693125
0.000190328
0.0438616
0.000147236
0.000137033
0.000166878
0.000142877
0.00749978
0.0118267
0.000189271
0.00544397
0.000147593
0.000177069
0.000136786
0.000136462
0.000141289
0.000140456
0.000162581
0.0133372
0.000145203
0.000158378
0.00453499
0.000177537
0.0110945
0.000344301
0.00013202
0.000141636
0.000187163
0.000133436
0.00380745
0.000132284
0.000137338
0.000134255
0.000197637
0.000133321
0.000153959
0.0260864
0.000202085
0.000491536
0.000147619
0.000153911
0.000138029
0.000140082
0.000136329
0.0176086
0.000170176
0.000153217
0.00027565
0.000157789
0.000144483
0.00710428
0.000243651
0.000136325
0.000155349
0.0425824
0.000167199
0.000196168
0.000144673
0.0383334
0.000136373
0.000144446
0.00018256
0.000141901
0.00110834
0.00019012
0.000129018
0.000135633
0.0240285
0.0133247
0.000140203
0.00014012
0.00015189
0.000134126
0.000128239
0.00013627
0.000163749
0.00490847
0.000321337
0.000142096
0.000132181
0.000146491
0.0251631
0.00670857
0.000142511
0.000162328
0.00126311
0.0296455
0.000151258
0.0185954
0.000133479
0.000168381
0.000186007
0.000195784
0.000151888
0.00014303
0.00012778
0.0106176
0.000186708
0.000153459
0.000151722
0.00234543
0.000152087
0.000145698
0.000132004
0.00431232
0.000146424
0.00022749
0.000212516
0.000135612
0.000143555
0.0243192
0.00018306
0.000136034
0.00947073
0.00014379
0.00259031
0.000135597
0.000184401
0.00210122
0.000148723
0.00022419
0.02088
0.0001463
0.000145641
0.000142858
0.000167307
0.00016711
0.0067491
0.000136678
0.000193453
0.000155521
0.000190137
0.000147846
0.000200966
0.000132838
0.00463544
0.000153207
0.00014306
0.0269597
0.000166656
0.000143
0.000132948
0.000155039
0.01008
0.000172285
0.000149178
0.000141432
0.000143225
0.000164644
0.0129618
0.00016351
0.0255437
0.000144881
0.000179136
0.000135522
0.015795
0.000129834
0.00379465
0.000164905
0.000149036
0.0280506
0.0305839
0.000143934
0.000234865
0.00013762
0.0164062
0.0281446
0.000134248
0.000999738
0.000137432
0.000154044
0.0033733
0.00020117
0.00456187
0.0449866
0.000130632
0.0230258
0.000141111
0.000143406
0.0370054
0.0309555
0.00013211
0.000182249
0.000148253
0.000170177
0.000144658
0.000175146
0.000143268
0.000185396
0.000143103
0.000141511
0.000176182
0.000150955
0.000188083
0.000618103
0.00873603
0.000142824
0.00014047
0.000194421
0.000185194
0.000975427
0.000137979
0.0241656
0.000147978
0.000135671
0.0132468
0.000139981
0.0228779
0.000131097
0.000157313
0.0384673
0.000135475
0.00014112
0.000142685
0.000149327
0.000148526
0.0216366
0.000150972
0.00628328
0.000248048
0.000156492
0.0118086
0.00772973
0.000140167
0.000147461
0.0106935
0.0145016
0.000154123
0.000150993
0.00847625
0.0153225
0.000142083
0.000167457
0.00013054
0.000143202
0.00113316
0.0305969
0.000182124
0.000142183
0.000149995
0.000151204
0.00683172
0.000278248
0.000129001
0.0194641
0.000211208
0.000178828
0.0123133
0.000137133
0.000212038
0.000142801
0.000148681
0.000136642
0.000168329
0.000169934
0.00018323
0.000152621
0.000153914
0.000177811
0.0205087
0.000145382
0.0128628
0.00471872
0.0129381
0.000132722
0.000135547
0.0117388
0.000141047
0.00707542
0.000146315
0.000185712
0.000867265
0.000144688
0.00796487
0.000141393
0.000738398
0.000186484
0.000220823
0.0199305
0.000145189
0.000146731
0.0129941
0.000145299
0.00964237
0.000200663
0.000233928
0.000200948
0.000147858
0.000258718
0.000153118
0.000159647
0.000169943
0.00742086
0.000137205
0.000137115
0.0274004
0.0130949
0.000190269
0.0319524
0.00015277
0.000137112
0.0276014
0.00017379
0.0104648
0.00407601
0.0144882
0.000151188
0.000164789
0.000149109
0.0380959
0.000153039
0.0068408
0.000135333
0.000138122
0.000148035
0.0305378
0.00766854
0.00018232
0.000179462
0.000158565
0.000128999
0.000188661
0.00012946
0.0216796
0.0196398
0.0240081
0.00012908
0.000153748
0.0171459
0.000163073
0.0296022
0.000133751
0.000135363
0.000194218
0.00776699
0.000152522
0.0137875
0.0281681
0.000154061
0.014223
0.000209576
0.000164525
0.000143822
0.00433975
0.00691991
0.000134071
0.000179892
0.0269778
0.000138111
0.0178838
0.000193927
0.0215369
0.0218363
0.000150259
0.000143144
0.000132614
0.000132509
0.014158
0.000151839
0.000136807
0.0256056
0.000141151
0.000172141
0.000150747
0.000234518
0.000191337
0.0001903
0.000141726
0.000163191
0.000203354
0.000172836
0.000147725
0.000146743
0.000205624
0.00722735
0.000143212
0.000225998
0.029824
0.0324953
0.00506858
0.000138829
0.000158873
0.0116752
0.0119935
0.000148394
0.000142991
0.0123526
0.00794958
0.0227108
0.000154387
0.00361117
0.01831
0.000141687
0.0214109
0.000205934
0.000148714
0.000142459
0.000133867
0.0119644
0.000141068
0.0144448
0.000236737
0.0234608
0.000241407
0.021036
0.0249627
0.00309734
0.0143976
0.000143786
0.0263252
0.000255489
0.000146064
0.00017028
0.000172626
0.000201093
0.0325329
0.000140033
0.000151071
0.000140852
0.00347877
0.000138465
0.000135175
0.000152037
0.000155883
0.000157789
0.0193267
0.000188168
0.000130611
0.000161671
0.000154876
0.000190635
0.000151312
0.000201099
0.000152913
0.0297054
0.0312548
0.000138381
0.0268486
0.000233676
0.0149569
0.0239019
0.000155391
0.0125588
0.00014344
0.026392
0.0244344
0.000140975
0.000140279
0.000144489
0.000140002
0.000155254
0.000160646
0.000141996
0.00373736
0.000148324
0.0207376
0.000155491
0.013649
0.000135154
0.000140052
0.00456206
0.000141138
0.0001439
0.00014261
0.000202362
0.000152489
0.000148496
0.000156359
0.000140767
0.000192182
0.00013403
0.000294881
0.000143292
0.000165471
0.0159748
0.000148536
0.000204995
0.000189856
0.000141644
0.0180454
0.000136518
0.0428635
0.0189628
0.00529477
0.000180445
0.000138702
0.000190194
0.000196011
0.000143783
0.000162251
0.000168374
0.000172671
0.000154881
0.00013864
0.0102967
0.00926938
0.000144261
0.0260836
0.000392823
0.000135257
0.000138724
0.000132018
0.000189241
0.00870167
0.000221604
0.00014218
0.000138684
0.00655765
0.000168365
0.0293448
0.0175477
0.000142531
0.000151145
0.000135773
0.0181282
0.0228973
0.000135991
0.000162942
0.00781712
0.0136704
0.000161366
0.000158298
0.000132478
0.000147109
0.0389611
0.000172428
0.000143216
0.0322427
0.000138017
0.0101918
0.0078428
0.000178947
0.000247835
0.00520059
0.000145541
0.00476195
0.000166725
0.0260814
0.00552135
0.000135291
0.0321209
0.0362302
0.000511986
0.00255708
0.000159237
0.0270925
0.0217632
0.000162705
0.000135546
0.00095301
0.00410363
0.0101181
0.000184792
0.000149005
0.000186041
0.000142319
0.033615
0.040235
0.000241363
0.000156748
0.000148308
0.000142406
0.013631
0.000137935
0.0198366
0.010561
0.000178666
0.000141879
0.014543
0.000142068
0.000177509
0.0261345
0.0102352
0.000150284
0.000146856
0.000143511
0.000144695
0.000207717
0.000141938
0.000171179
0.00021112
0.000144917
0.000130561
0.000203943
0.00080311
0.000137922
0.00013573
0.000144258
0.000152163
0.000157662
0.0243609
0.012672
0.0253787
0.0107305
0.000146701
0.000142337
0.000182295
0.000264627
0.000135865
0.000189698
0.0163416
0.0129206
0.0219983
0.00969811
0.000178396
0.000162235
0.0324311
0.000138045
0.00668217
0.000211707
0.000132761
0.00656473
0.000150917
0.000189502
0.011296
0.000280089
0.000161082
0.0111574
0.000142996
0.000141672
0.000129967
0.000158315
0.00014207
0.000147115
0.000140961
0.0239201
0.000163317
0.000142213
0.000162004
0.000153234
0.00470338
0.0203214
0.0218981
0.000142871
0.00013554
0.0353962
0.000193773
0.00532428
0.000143211
0.000153457
0.000143692
0.000148395
0.014675
0.000156688
0.000138394
0.000143537
0.000201616
0.00013857
0.000169106
0.000136077
0.000136501
0.000151005
0.000196018
0.000178305
0.000166107
0.000136156
0.00014922
0.000248268
0.0138819
0.0453406
0.000147059
0.000607125
0.000215786
0.0001947
0.0313757
0.000153198
0.00513419
0.000149638
0.00019552
0.0349789
0.000135282
0.000141273
0.00490494
0.000129901
0.00136002
0.0332918
0.000138683
0.00018224
0.000136025
0.000142397
0.0224211
0.000134461
0.000135943
0.000135684
0.000132016
0.000159387
0.000143861
0.0354525
0.000135722
0.000395178
0.012519
0.000148149
0.000143125
0.000138926
0.000136147
0.000153238
0.0139177
0.00013584
0.000181058
0.000161765
0.0462018
0.0246526
0.000150279
0.000206226
0.000172301
0.00013038
0.000134326
0.00600182
0.000130303
0.00013255
0.023858
0.00538419
0.0333787
0.00014387
0.0374818
0.0071735
0.000130846
0.000170643
0.000143918
0.000141777
0.000132684
0.00014002
0.0457969
0.000141965
0.00014642
0.00465478
0.000151745
0.0229672
0.000156407
0.000147374
0.0142282
0.000134286
0.0121604
0.000131768
0.000150626
0.0462279
0.000141198
0.000135256
0.000141961
0.0288572
0.00855637
0.000145006
0.000141163
0.000133063
0.000159628
0.00841219
0.000199064
0.000146794
0.0111022
0.00979808
0.000142685
0.0190424
0.000130299
0.000268519
0.00363703
0.000131947
0.000157432
0.0230111
0.00016267
0.0145737
0.000180319
0.000175847
0.0114281
0.00015477
0.00233333
0.000140451
9.74672e-05
0.000143724
0.0328529
0.000149508
0.000156478
0.000162339
0.000137816
0.015816
0.0070904
0.013077
0.000218569
0.000133671
0.0272738
0.0001294
0.000139967
0.0293165
0.000133101
0.0125793
0.0228311
0.000130753
0.000154193
0.000177478
0.000209646
0.000135313
0.000190662
0.00016701
0.0065479
0.039234
0.000142928
0.000144128
0.000139759
0.000130641
0.0278203
0.000186089
0.00638134
0.000138491
0.00594691
0.0345065
0.000129079
0.000133151
0.0120939
0.00504891
0.0477921
0.00022229
0.0135434
0.00021958
0.000180816
0.000245409
0.00847475
0.0473667
0.000149329
0.000197435
0.000139925
0.000154489
0.000237369
0.0120907
0.000150021
0.000216046
0.00434022
0.0001387
0.000148059
0.000149397
0.000154687
0.000140053
0.00991387
0.0003572
0.0164331
0.00013491
0.00566049
0.000164724
0.000248314
0.000195625
0.000185092
0.014625
0.000136934
0.000141697
0.000211691
0.000133595
0.0166267
0.000178154
0.000143075
0.000129752
0.0236864
0.000143526
0.00014933
0.000138499
0.000158394
0.00017654
0.000170578
0.000154407
0.000141228
0.000145199
0.000243243
0.000135486
0.000198579
0.000141172
0.000142584
0.000129715
0.0117258
0.00195207
0.0204339
0.000154242
0.00015591
0.00015322
0.0135117
0.0240637
0.000140837
0.0266909
0.000142985
0.000134864
0.000238605
0.0203739
0.00531996
0.0305139
0.00024026
0.000190493
0.000139834
0.000143622
0.000163106
0.0145737
0.000171932
0.000128037
0.0002376
0.0321669
0.000138113
0.000137357
0.00753708
0.000148954
0.0225358
0.0261436
0.0392919
0.00013567
0.000158862
0.000141614
0.0295509
0.000150086
0.000133744
0.000154504
0.0288479
0.00491315
0.0135543
0.0168747
0.000150066
0.000134831
0.000141652
0.0350516
0.000138339
0.000149139
0.00016223
0.000136402
0.00194092
0.000141115
0.00013342
0.000133526
0.00017461
0.000144966
0.00301196
0.000148057
0.000141693
0.0162431
0.000145955
0.00021108
0.014552
0.000185233
0.000149255
0.0226148
0.00627574
0.000143892
0.0010134
0.000132383
0.000251427
0.00026072
0.000658255
0.000189727
0.000183118
0.000200802
0.000138677
0.000131375
0.000147051
0.000133455
0.000168974
0.0133876
0.000167997
0.0133409
0.000129386
0.0440009
0.000849628
0.000147784
0.0197701
0.000135863
0.000196405
0.000149171
0.0118931
0.00012966
0.0154309
0.000133262
0.000139501
0.00016401
0.0202034
0.00693191
0.000145746
0.0177397
0.0200281
0.000134776
0.0031633
0.000167049
0.00023904
0.00392049
0.000142268
0.0273039
0.000139533
0.000142576
0.023376
0.000186218
0.000133
0.000141809
0.000137284
0.000133969
0.000149203
0.0148036
0.00044704
0.00755021
0.00013996
0.000143867
0.000189719
0.0196662
0.0292258
0.0227021
0.00997285
0.00014877
0.000137039
0.000137456
0.000158002
0.000142923
0.000133689
0.00289453
0.0379327
0.00663029
0.000143429
0.000139174
0.000947663
0.00014123
0.000138773
0.000142695
0.000152594
0.000238225
0.0125961
0.000140959
0.00013392
0.000167651
0.00014219
0.0291089
0.000159974
0.00330654
0.000147137
0.000177597
0.000140557
0.000132307
0.000201262
0.0001515
0.000186306
0.000136453
0.00246498
0.000150017
0.0133583
0.000138559
0.0179288
0.00013707
0.000189579
0.000141663
0.000138711
0.00014352
0.000269153
0.00447483
0.000142273
0.000151833
0.00013525
0.0374418
0.000179146
0.00274321
0.000154628
0.000151286
0.000189524
0.000384445
0.000241184
0.0172694
0.000142714
0.000144552
0.0143463
0.00298525
0.000129283
0.000232002
0.000152936
0.000135
0.00417389
0.000140234
0.00741672
0.000145807
0.0155873
0.000140431
0.0293098
0.0243756
0.000131005
0.000145967
0.000130667
0.000146018
0.0050346
0.00434224
0.00460376
0.0108085
0.000140435
0.000206245
0.000142619
0.0161803
0.000130182
0.00333974
0.000134606
0.000244249
0.000141335
0.000138436
0.000151561
0.0178465
0.00333887
0.00238606
0.000199923
0.000186632
0.0090832
0.000193301
0.00467665
0.000141903
0.000156967
0.000154867
0.000136011
0.000135285
0.000235356
0.00920066
0.00956735
0.00016278
0.000144427
0.0459172
0.000143221
0.000187178
0.00051226
0.0158838
0.000155828
0.000136165
0.000135518
0.000147094
0.000143554
0.0101066
0.000199161
0.000137959
0.000153432
0.000180388
0.000155044
0.0220905
0.0130896
0.00759686
0.000142933
0.00581685
0.0133645
0.000183337
0.0105515
0.000137379
0.000139372
0.00903405
0.0379141
0.00662186
0.000138994
0.000157074
0.000131736
0.018188
0.0350808
0.000135394
0.000155322
0.00013762
0.000144312
0.000248436
0.0309694
0.000139018
0.000137298
0.000159711
0.0001433
0.00013514
0.000162785
0.000138292
0.000150885
0.000135403
0.0228347
0.000136188
0.000189469
0.000134465
0.000145138
0.000137483
0.000166048
0.000139287
0.000139239
0.00013511
0.000143275
0.0283739
0.000150905
0.00018653
0.000152041
0.0189805
0.000149217
0.0063204
0.000138431
0.00667753
0.000170352
0.0436605
0.00891096
0.0129806
0.0168749
0.00336765
0.000131743
0.0192393
0.000146943
0.000159113
0.00640534
0.000190321
0.00017089
0.0473265
0.000190672
0.000158998
0.000157747
0.00714916
0.000139404
0.000143302
0.000146342
0.000166285
0.000139302
0.000131793
0.00928751
0.000148054
0.000139591
0.000141069
0.0120326
0.000149188
0.000160555
0.0327634
0.034818
0.00467971
0.000205146
0.00147409
0.000155364
0.0213217
0.000135184
0.000172525
0.000171725
0.000147528
0.00013497
0.00150765
0.039786
0.000185715
0.000162748
0.00014925
0.000147976
0.00115872
0.000161185
0.0207974
0.00014959
0.000141879
0.000142317
0.000143512
0.000145766
0.000139628
0.000177183
0.000143952
0.000146405
0.000164375
0.000149058
0.000141763
0.000148454
0.0128968
0.0148678
0.000157979
0.000241433
0.00251437
0.000184806
0.000167209
0.0244465
0.000173519
0.000139112
0.000142591
0.000216874
0.000134734
0.000131782
0.000157592
0.00142991
0.000131773
0.000137193
0.000152884
0.00015487
0.000141588
0.000157693
0.000156941
0.00431545
0.0177274
0.00839847
0.000131843
0.00013918
0.0209936
0.013055
0.000186197
0.000696676
0.0386007
0.00015903
0.000148217
0.00014335
0.0217934
0.0064966
0.000139672
0.000171222
0.00600829
0.00159862
0.00967188
0.0241851
0.000148968
0.000272718
0.000158206
0.000184051
0.000141973
0.0408594
0.000216409
0.000151264
0.000141404
0.000146035
0.000195716
0.000127924
0.000131834
0.00030147
0.00022857
0.0117043
0.0461891
0.0334527
0.000143442
0.0293861
0.0130449
0.00288036
0.0366411
0.00013404
0.0265735
0.023635
0.000143717
0.000266498
0.000219526
0.000142118
0.0144935
0.000144516
0.0144323
0.000140992
0.000170874
0.000193094
0.0246606
0.000141999
0.000244955
0.000170387
0.000178622
0.000141182
0.000141947
0.00467648
0.0369658
0.00015504
0.000401912
0.000135851
0.00016882
0.000143181
0.000167323
0.0133619
0.00543372
0.0112787
0.0308536
0.0119716
0.000154503
0.0118196
0.000153013
0.000129952
0.0100886
0.00671221
0.000134692
0.000149677
0.000145925
0.000148892
0.000930516
0.000138026
0.0262911
0.000184567
0.00647185
0.000147969
0.000233431
0.000175136
0.0249783
0.00017975
0.000830702
0.00469161
0.0106254
0.000154957