/*--------------------------------*- C++ -*----------------------------------*\
| =========                 |                                                 |
| \\      /  F ield         | OpenFOAM: The Open Source CFD Toolbox           |
|  \\    /   O peration     | Version:  v2012                                 |
|   \\  /    A nd           | Website:  www.openfoam.com                      |
|    \\/     M anipulation  |                                                 |
\*---------------------------------------------------------------------------*/
FoamFile
{
    version     2.0;
    format      ascii;
    class       volScalarField;
    location    "100";
    object      nut;
}
// * * * * * * * * * * * * * * * * * * * * * * * * * * * * * * * * * * * * * //

dimensions      [0 2 -1 0 0 0 0];


internalField   nonuniform List<scalar> 
37190
(
0.00570114
0.00602176
0.00582955
0.0058264
0.00414304
0.00592185
0.00264436
0.000859967
0.00583431
0.00161804
0.000214868
0.00870512
0.000714957
0.00462052
0.00234825
0.0173434
0.00582896
0.00179083
0.00581964
0.00490866
0.00298772
0.00238047
0.00587586
0.00787053
0.004252
0.00597769
0.0126993
0.00280397
0.00193465
0.00585366
0.00930279
0.00590406
0.00570909
0.000672825
0.00563779
0.0156879
0.0127865
0.00373906
0.0058185
0.00505249
0.0021085
0.00585488
0.0181704
0.00591357
0.00937319
0.00257657
0.00966544
0.00884734
0.00583069
0.00271353
0.00585562
0.00578366
0.00589794
0.00200052
0.00593629
0.000702583
0.00578449
0.00590836
0.006461
0.00947213
0.00100615
0.00437955
0.00298318
0.00595938
0.00437121
0.00389575
0.0261104
0.00640249
0.00713608
0.00881601
0.00581829
0.00210993
0.00560183
0.00587199
0.00590365
0.00629916
0.0131727
0.00687494
0.00572283
0.00916555
0.00983573
0.00582428
0.00968199
0.00581985
0.00116475
0.00152898
0.00346211
0.00348035
0.00291974
0.00723102
0.00581653
0.00179621
0.00569382
0.00597839
0.00106392
0.0150592
0.00430302
0.00301799
0.00318219
0.00590578
0.00902374
0.000733466
0.00589766
0.00580803
0.00118935
0.00597542
0.00595091
0.00146786
0.00390848
0.00595262
0.00353455
0.0059238
0.00582341
0.00592506
0.00240556
0.00582846
0.0103035
0.00262654
0.00302065
0.00368015
0.0022249
0.00742322
0.00588048
0.0058505
0.00232093
0.00305722
0.00311167
0.00588306
0.00120172
0.00856379
0.0128428
0.00594451
0.00596263
0.0114172
0.00600224
0.0117298
0.00588946
0.00965692
0.00166477
0.00424107
0.00724379
0.00210595
0.00437758
0.0143071
0.0045826
0.0059097
0.00377262
0.00292018
0.00591365
0.00855687
0.00595093
0.00601224
0.00579006
0.00235139
0.00513757
0.00586242
0.00637619
0.00588086
0.00181327
0.00323946
0.00589984
0.0034776
0.00577449
0.00570922
0.00681603
0.00362164
0.00163855
0.00190363
0.00303964
0.00616327
0.00225684
0.00583276
0.00459616
0.00587624
0.00168929
0.000676582
0.00059901
0.00344793
0.00593297
0.00186031
0.00196722
0.000660899
0.00683245
0.00648179
0.00270986
0.000726478
0.00595588
0.00127916
0.00599631
0.00313048
0.0059173
0.000796239
0.000753287
0.00593073
0.00591908
0.00967445
0.0108419
0.00935717
0.0049581
0.00592663
0.00597426
0.00120952
0.00595899
0.0059084
0.00308012
0.00874944
0.00582598
0.0058427
0.00197899
0.00287608
0.00595918
0.00581881
0.0154804
0.0059407
0.0081541
0.00333872
0.00584795
0.00595734
0.000412027
0.0058283
0.00255694
0.00581774
0.00527718
0.00010318
0.00572885
0.00161865
0.00049841
0.0101978
0.00590476
0.00399418
0.00219515
0.00590162
0.005789
0.00599138
0.00581939
0.00562199
0.00547703
0.00578987
0.00592163
0.00173242
0.00592124
0.00105151
0.0021074
0.00578738
0.00146814
0.000606283
0.00585438
0.00141342
0.000354917
0.00599619
0.00371108
0.00577773
0.00177672
0.00366882
0.00592274
0.00267253
0.00590436
0.0059321
0.00104062
0.00578829
0.0153369
0.00232132
0.00540418
0.00578195
0.0135794
0.00359835
0.00583197
0.00417027
0.00592739
0.00156584
0.0059375
0.00590434
0.00515131
0.00109691
0.00066974
0.00173872
0.00105034
0.00595371
0.00113415
0.00579296
0.00592478
0.00268304
0.00570792
0.00578969
0.00870729
0.00581757
0.00600745
0.00351863
0.00428837
0.00555372
0.00328668
0.00593727
0.000919775
0.0101599
0.00580768
0.00138855
0.00581237
0.00605815
0.002853
0.00601281
0.000845209
0.00184202
0.0120014
0.0100855
0.00581483
0.00570121
0.0139962
0.00583648
0.00933568
0.0115465
0.00559953
0.0108061
0.00450458
0.00794448
0.00621516
0.00618513
0.00591157
0.00585258
0.00597629
0.00595376
0.011654
0.0113738
0.00582878
0.00225189
0.00150879
0.00937422
0.00313651
0.00703391
0.00116116
0.00592665
0.00872008
0.00522702
0.0101314
0.009261
0.00589845
0.00592385
0.00583163
0.00600216
0.00582029
0.00584231
0.0194962
0.00586544
0.00306757
0.00589533
0.00437451
0.00576115
0.00615323
0.00591471
0.0200676
0.00764839
0.0102228
0.00632994
0.00516821
0.00578186
0.000331633
0.00157385
0.00582099
0.00591307
0.0128179
0.00769212
0.0127222
0.00425083
0.00879699
0.00900385
0.00875942
0.00673089
0.00593568
0.00540256
0.00580617
0.00342499
0.00589556
0.0166246
0.000658905
0.00325054
0.0058181
0.00579669
0.0072272
0.00222145
0.008185
0.00630594
0.00593112
0.000127372
0.00582714
0.0131362
0.00483465
0.000895867
0.00588879
0.00590262
0.00589313
0.000654269
0.000396257
0.00784268
0.00583392
0.00582785
0.008342
0.00509735
0.00158198
0.0118301
0.000238885
0.0058424
0.00264078
0.0063816
0.00590777
0.00166377
0.00874663
0.00589198
0.000333227
0.00142475
0.00812933
0.00584511
0.00593384
0.00487605
0.00589622
0.00104441
0.00227729
0.00607318
0.0021426
0.00583144
0.000219161
0.0059067
0.0058845
0.0166299
0.00846978
0.00221793
0.00585882
0.00578379
0.00590244
0.005992
0.00252332
0.0015841
0.00578381
0.00592645
0.00584216
0.00611343
0.00885287
0.00590908
0.00222279
0.00590582
0.00224654
0.0029047
0.00592563
0.00595224
0.00694547
0.00309568
0.0027203
0.000143529
0.00492477
0.00140606
0.00559091
0.00328433
0.00124408
0.00276504
0.0014222
0.00356745
0.00681038
0.00910319
0.00590013
0.00584926
0.00592101
0.0026877
0.00580463
0.00149358
0.00872604
0.00596278
0.00136582
0.00591745
0.00630914
0.00143146
0.00582142
0.00341732
0.00595006
0.00587372
0.00551193
0.0059124
0.000730827
0.00776986
0.00590909
0.00272429
0.00585839
0.00512653
0.00305316
0.00589295
0.00592077
0.00148384
0.00182204
0.00197628
0.00606927
0.00377234
0.00675161
0.00582092
0.0004964
0.00668731
0.00174914
0.00584419
0.00161064
0.00574506
0.00583145
0.00622957
0.00593983
0.0021798
0.0210388
0.0146286
0.00613925
0.0123921
0.00590379
0.00593505
0.0059094
0.00604548
0.00400559
0.00596055
0.00266148
0.00588277
0.00582003
0.000936543
0.00191202
0.00502092
0.000630653
0.00596202
0.00586062
0.00864903
0.00488434
0.00301833
0.00250746
0.00304288
0.00584864
0.0212619
0.00141154
0.00765745
0.00555444
0.00595908
0.0058443
0.00232607
0.00374092
0.00593892
0.00438919
0.00581753
0.00524373
0.00873025
0.00912514
0.00595013
0.00585408
0.0096887
0.00162223
0.00217499
0.00503852
0.0053804
0.00794755
0.00592114
0.00583087
0.00587623
0.00506394
0.0164768
0.0187992
0.00578549
0.000232203
0.00586049
0.00355825
0.00381812
0.0054827
0.0129053
0.0187679
0.00258785
0.00581742
0.00596105
0.000428246
0.0115953
0.00697283
0.0119425
0.00602031
0.00985833
0.0164638
0.00430401
0.00602624
0.00771676
0.00236033
0.0116147
0.00324349
0.00580684
0.000995161
0.00258171
0.00592602
0.00581116
0.00570125
0.00590722
0.00208171
0.0267023
0.0197304
0.0175811
0.00483529
0.00173819
0.0109566
0.00580547
0.00330691
0.00584063
0.0250543
0.00556297
0.00968858
0.00648105
0.00573497
0.00585816
0.00587748
0.00517144
0.0059393
0.0114267
0.00209535
0.00153607
0.00591305
0.00825527
0.0151899
0.00585231
0.00580537
0.00463378
0.00600335
0.00598426
0.00350585
0.0031727
0.00585609
0.0103914
0.00580702
0.000379339
0.00294293
0.00236872
0.00582324
0.00442222
0.00592229
0.00552427
0.00612845
0.00271125
0.00660437
0.00588351
0.0162008
0.00584303
0.000703841
0.000143818
0.000377136
0.0129156
0.00704303
0.00178079
0.0058782
0.00593994
0.00690127
0.000139855
0.00195241
0.000644736
0.00582047
0.00491828
0.00588659
0.00590965
0.00166087
0.013475
0.00580566
0.00110543
0.00251257
0.00630201
0.01586
0.0105169
0.00589812
0.00864144
0.00374983
0.00597519
0.00581852
0.0114332
0.00207569
0.00250613
0.00563273
0.00357036
0.00568857
0.00564239
0.00301597
0.00423997
0.00590978
0.00589412
0.00582657
0.000350955
0.000164185
0.00590454
0.00583221
0.00472021
0.00903927
0.0040933
0.0057741
0.00142089
0.00591342
0.00189009
0.00589628
0.00581155
0.00594709
0.00874399
0.000806872
0.0106275
0.00588775
0.00575092
0.00207695
0.00181757
0.00582955
0.00590504
0.0177614
0.00592596
0.00587384
0.000516526
0.00582064
0.00578777
0.000406751
0.00581651
0.00206954
0.00578782
0.00585327
0.00153833
0.00130377
0.00589836
0.00236715
0.00578735
0.00665548
0.00200478
0.00580662
0.00735914
0.00586536
0.00582086
0.00590499
0.0100984
0.0109811
0.0012412
0.00582532
0.00464464
0.00585995
0.000569882
0.0125192
0.000576666
0.00243918
0.0017649
0.00592952
0.0120748
0.00375783
0.00583785
0.00062562
0.00502039
0.0108274
0.00590999
0.00280124
0.0058203
0.00580715
0.00513262
0.00536954
0.00195873
0.00179109
0.00579095
0.00906009
0.00554749
0.0022633
0.0124117
0.0119176
0.00585735
0.00580561
0.00581021
0.0118203
0.0058358
0.00200437
0.00313992
0.00305987
0.00585508
0.00866288
0.00159079
0.00582832
0.00596851
0.00618451
0.00580686
0.00413227
0.00587716
0.00579597
0.0140529
0.00589342
0.00553423
0.00573213
0.00542036
0.00585577
0.00242326
0.00602518
0.00581187
0.00322895
0.00137535
0.00586867
0.00578715
0.00589715
0.0160067
0.00580677
0.00731537
0.00499596
0.000782035
0.00544619
0.00197168
0.00582715
0.00587296
0.00580698
0.00595738
0.00580593
0.0062581
0.00589674
0.00595714
0.00593942
0.0186649
0.000556207
0.00591715
0.00588694
0.00588158
0.0146334
0.00273682
0.00620586
0.00503616
0.00969046
0.0066762
0.00588929
0.00592812
0.00600747
0.00293008
0.00593445
0.00581812
0.00651067
0.00614797
0.006528
0.0057516
0.00407838
0.00217436
0.00603522
0.00557472
0.0027897
0.00256849
0.00481939
0.00595705
0.00534064
0.00579209
0.00591911
0.00585725
0.00333742
0.00823041
0.000482541
0.00531225
0.0058325
0.00580678
0.00582932
0.00967761
0.0105006
0.00512574
0.00580789
0.00444464
0.00589561
0.00390915
0.00521573
0.00582008
0.00156815
0.00190676
0.0010569
0.00601906
0.00568596
0.00315955
0.00591013
0.00587661
0.00161609
0.00472691
0.00948169
0.00961023
0.00693739
0.000794919
0.00168089
0.00222111
0.00253826
0.00539167
0.00723781
0.00140063
0.000373264
0.00584324
0.00765889
0.00585562
0.00552565
0.00582566
0.00969551
0.00923468
0.0149458
0.00667618
0.00590567
0.0107761
0.0146352
0.00178349
0.000525637
0.00105019
0.00982189
0.00591491
0.0102224
0.0110703
0.00172912
0.00588901
0.0063237
0.00582971
0.0132165
0.00579745
0.00591581
0.00591405
0.00594041
0.00591557
0.00476304
0.0058258
0.00592734
0.00592969
0.00562823
0.0137653
0.00583875
0.00582194
0.00620099
0.00204777
0.005845
0.00486069
0.00582864
0.000387421
0.0034657
0.00494982
0.00443916
0.000892771
0.00582871
0.00249393
0.000483181
0.00344877
0.00141226
0.00543874
0.00298395
0.00636702
0.00590915
0.0059254
0.00585922
0.00520494
0.00517839
0.00582173
0.00574491
0.000824023
0.00585089
0.00681982
0.00275889
0.00597435
0.00154788
0.00585108
0.00666511
0.00581748
0.0066684
0.0147381
0.00278015
0.00545302
0.00551231
0.00210553
0.00416248
0.0019491
0.00581702
0.00281001
0.00198836
0.00299348
0.000745929
0.00451396
0.004877
0.00580551
0.00588989
0.00894449
0.0030766
0.00580397
0.00270325
0.00301385
0.00173023
0.0127303
0.00592691
0.00868727
0.00165401
0.00745369
0.00524866
0.000558325
0.00284962
0.0115306
0.0119769
0.000529249
0.00580723
0.00584357
0.000421563
0.00584078
0.00353014
0.00601101
0.00595715
0.0057498
0.00091196
0.00590691
0.000697301
0.00938482
0.00580801
0.000348213
0.00587684
0.00589847
0.000394233
0.0032555
0.00969951
0.00159876
0.00225032
0.00455564
0.00120485
0.00583768
0.00952892
0.00124025
0.00585083
0.00772349
0.00582663
0.00592764
0.00580293
0.00589258
0.000579331
0.0167678
0.00589863
0.00254359
0.00583972
0.0109546
0.00660569
0.00856869
0.012026
0.0146889
0.00549925
0.00580114
0.00651138
0.00588515
0.00585352
0.0023655
0.00595453
0.00741514
0.00583686
0.00592513
0.00594135
0.00591075
0.00326364
0.0059187
0.00204088
9.69034e-05
0.00594945
0.0064408
0.00581229
0.00580464
0.0059491
0.00476848
0.00175707
0.00592484
0.005954
0.00399875
0.00587286
0.00991318
0.000735434
0.0058808
0.0197449
0.00604993
0.00599967
0.0058404
0.00581688
0.00439594
0.00582136
0.00553123
0.00169255
0.00326714
0.00738201
0.00588278
0.0192142
0.00594105
0.00572978
0.00586197
0.00239932
0.00587468
0.00097836
0.010478
0.000302016
0.00580555
0.00127739
0.00586465
0.00364075
0.00106689
0.0059454
0.00582263
0.0015365
0.00584924
0.00276115
0.00180304
0.00580738
0.00587166
0.00602506
0.00583384
0.00523081
0.00582532
0.00426666
0.00585211
0.00602901
0.00465686
0.00581406
0.00151449
0.00592543
0.000320659
0.0058366
0.00587339
0.00780942
0.00588097
0.00424725
0.00584737
0.00588665
0.00585689
0.00601051
0.0061043
0.000671534
0.000857644
0.0058096
0.00968936
0.00815613
0.00421698
0.00590351
0.0019863
0.0059914
0.00374885
0.00387023
0.0159533
0.00418768
0.0095439
0.00152531
0.00592621
0.00265204
0.00346136
0.00976321
0.00587281
0.006561
0.00502733
0.010061
0.00592258
0.00586313
0.00583862
0.000855167
0.00738673
0.00390804
0.00778287
0.0100803
0.00586301
0.00173497
0.00978005
0.0112278
0.000934048
0.00113213
0.0059178
0.00444784
0.0105277
0.00530275
0.00582273
0.005849
0.00190543
0.00583189
0.00202587
0.00586818
0.00585131
0.00306898
0.00288693
0.00583243
0.000910489
0.000973409
0.0117556
0.00582986
0.000254625
0.00581387
0.00860502
0.00219619
0.00609431
0.00593158
0.0167322
0.00592407
0.00585751
0.00135847
0.00941181
0.00583162
0.00583676
0.0269284
0.00423905
0.00605879
0.00581776
0.0102271
0.00448816
0.00777866
0.000507249
0.00521193
0.00044515
0.00496576
0.00901354
0.00585463
0.00589911
0.00492833
0.0113419
0.00277872
0.00581767
0.00538987
0.00557176
0.0129768
0.00125095
0.00148718
0.00539585
0.00300233
0.00573168
0.00238558
0.00331236
0.00592007
0.00334557
0.00599772
0.00905637
0.00707971
0.00578595
0.0058474
0.00199418
0.00596838
0.00587395
0.00585474
0.00599937
0.0107097
0.000484913
0.00201972
0.0108735
0.00591991
0.00588516
0.00563912
0.00592591
0.0140089
0.0012844
0.00200901
0.0114282
0.00600493
0.00209776
0.0058794
0.0058317
0.0059057
0.00591666
0.00548502
0.00344397
0.00583337
0.00541424
0.00919357
0.00172743
0.000926972
0.00326055
0.00580921
0.0059103
0.00134329
0.00582817
0.0054355
0.00581307
0.00584606
0.00589541
0.00117745
0.00582591
0.00363444
0.01367
0.000938563
0.0013312
0.00600448
0.00582609
0.00583454
0.00588895
0.00587211
0.00948743
0.0032487
0.00392043
0.00112083
0.00326537
0.00589772
0.0187969
0.000597569
0.00587222
0.00574268
0.0122584
0.00197429
0.00105337
0.00591376
0.0106359
0.00583473
0.00585539
0.00179575
0.00585983
0.00364278
0.00118437
0.00580854
0.00587317
0.00875246
0.00133783
0.00584815
0.00584583
0.00590374
0.00589456
0.00579494
0.00583186
0.00545508
0.0101379
0.00285858
0.00592614
0.00581125
0.00580585
0.0156489
0.016871
0.00591886
0.00242011
0.00082639
0.00849798
0.00602261
0.00365697
0.00587544
0.00180513
0.00243398
0.00113413
0.00590328
0.00592938
0.00578514
0.000942137
0.00224626
0.00584993
0.00589771
0.00510648
0.0058313
0.00596275
0.00585203
0.00956409
0.00591099
0.00113944
0.000789113
0.00590333
0.00592943
0.00791061
0.000982951
0.00580837
0.000313384
0.00594265
0.00522283
0.00580649
0.00137763
0.00600621
0.00586995
0.000717693
0.0132887
0.00593938
0.00596771
0.00583724
0.00195722
0.00268244
0.000759504
0.00583661
0.000740942
0.00470255
0.00126982
0.00593283
0.0010512
0.00581993
0.00942037
0.00547229
0.00582796
0.00722266
0.00297409
0.00588739
0.00582202
0.00579834
0.0152917
0.00151235
0.00589002
0.00583265
0.00589076
0.00283495
0.00129743
0.00310714
0.00769523
0.00584626
0.00194308
0.00580644
0.0100634
0.00579485
0.0103339
0.0054537
0.00595726
0.0044761
0.00925795
0.00588333
0.000587999
0.00581247
0.00200894
0.00701428
0.00585312
0.000658187
0.00594843
0.00581648
0.00727246
0.000915826
0.0118273
0.0111777
0.00580455
0.0164157
0.00582109
0.00591319
0.0112611
0.00830939
0.00585577
0.00102867
0.00596219
0.00168751
0.00590619
0.00132437
0.00600702
0.000979417
0.00582854
0.0058562
0.001662
0.00592125
0.00143355
0.000485635
0.0133641
0.00583641
0.00591435
0.000774776
0.00136269
0.00332744
0.00583425
0.00755269
0.00596185
0.00586216
0.00130339
0.00582233
0.0161633
0.00583345
0.00363206
0.0078768
0.00585756
0.00593596
0.00592913
0.00565168
0.00592313
0.00913399
0.00589111
0.00624415
0.000340743
0.00282793
0.00106335
0.000293645
0.00590827
0.00600219
0.000871056
0.00173149
0.00584085
0.00592124
0.0129602
0.00413399
0.00586237
0.00177176
0.00582244
0.00589165
0.0010568
0.0134071
0.00180163
0.000404315
0.00589621
0.00593168
0.0186908
0.00667672
0.00578733
0.0101807
0.00470733
0.00290565
0.00110951
0.00588557
0.000806095
0.00588283
0.00594288
0.00592075
0.0017785
0.00170193
0.00102911
0.00381768
0.00579686
0.0014297
0.0133643
0.00593227
0.00145242
0.010325
0.00789054
0.00583002
0.00590248
0.00311226
0.00582028
0.018889
0.00589853
0.0013835
0.00492893
0.00590265
0.0123962
0.00585324
0.00129785
0.000946871
0.000724094
0.0132774
0.00581286
0.00590821
0.00134532
0.0059157
0.0153751
0.00302127
0.000501123
0.000907031
0.00587163
0.00278062
0.00583365
0.00319947
0.00284125
0.000301193
0.00581136
0.00588535
0.00411925
0.00205569
0.00198763
0.00871174
0.00584458
0.00584457
0.00612847
0.00238343
0.00647064
0.0112332
0.0037495
0.00592922
0.00196963
0.00595721
0.0111534
0.00394042
0.0183909
0.00590785
0.00587937
0.00588373
0.00766227
0.013231
0.00600905
0.00553343
0.00560625
0.0057881
0.000923011
0.00582982
0.0073973
0.00488798
0.00878836
0.0058093
0.0058179
0.00488229
0.00278737
0.0128975
0.00590423
0.00590775
0.00125059
0.00282282
0.00588745
0.00305705
0.0104186
0.00603319
0.00854085
0.000699157
0.0061018
0.00583959
0.00582823
0.0172222
0.00580342
0.00207729
0.00834128
0.00588014
0.0112875
0.00179424
0.00699343
0.00657456
0.00595986
0.00593081
0.00581747
0.00581554
0.00159806
0.00584801
0.00583914
0.010723
0.0059105
0.00239889
0.00585115
0.000585981
0.00197158
0.0018415
0.00599866
0.00594453
0.000659476
0.00185265
0.00594724
0.00601197
0.00315313
0.00565846
0.00590849
0.000817078
0.00677725
0.00729284
0.015729
0.00584226
0.00559543
0.000806282
0.00316066
0.00600774
0.00582778
0.00135127
0.0122541
0.0124637
0.0035081
0.00760237
0.0126339
0.00593308
0.0158887
0.000645993
0.00590224
0.00584906
0.00584503
0.00102094
0.00582047
0.00162548
0.000385297
0.00661253
0.000467398
0.00246089
0.006252
0.00119238
0.00233755
0.00594125
0.00259783
0.00267782
0.0059204
0.0025711
0.00225473
0.000969536
0.0121937
0.00582212
0.00585634
0.00590575
0.0100626
0.0058912
0.00580689
0.00603244
0.00573462
0.00607869
0.0131218
0.00196648
0.00580425
0.0059386
0.00354397
0.00127909
0.00600618
0.000998556
0.00584149
0.00751681
0.00957683
0.00589497
0.00575887
0.000559482
0.00472927
0.00683819
0.00574842
0.00117862
0.005937
0.0169598
0.0082712
0.00582018
0.00588459
0.00589491
0.00582116
0.00389034
0.00242892
0.00589357
0.00773348
0.0059399
0.00654179
0.00384731
0.00491853
0.00580808
0.00581919
0.0118079
0.00591171
0.0058839
0.00587885
0.00175767
0.00584202
0.00591425
0.00583233
0.00591017
0.000875777
0.00580324
0.00370056
0.00585362
0.00193463
0.0043528
0.00592642
0.000593856
0.001453
0.00585881
0.00191692
0.00583467
0.0112865
0.00992632
7.52919e-05
0.00167364
0.00588907
0.00120721
0.00109407
0.00583818
0.00237278
0.00209194
0.00148145
0.00575137
0.00583468
0.026577
0.00046159
0.00585255
0.0087322
0.00342263
0.00580969
0.0058368
0.0058075
0.00203495
0.0144319
0.000784105
0.00592369
0.00588997
0.0185514
0.00263226
0.0136663
0.00219071
0.00589229
0.00596771
0.0058273
0.0125182
0.0095696
0.00587824
0.00238818
0.0135124
0.00380323
0.0022878
0.00570941
0.00587805
0.00591467
0.0112417
0.000355009
0.00592431
0.00959584
0.00584325
0.016203
0.0074363
0.0030161
0.000376969
0.0102016
0.00587112
0.0095459
0.00191982
0.00439791
0.000209111
0.00581087
0.0135405
0.0107016
0.00439292
0.00525895
0.00570435
0.00652649
0.0109218
0.00201866
0.00590112
0.00505293
0.0107106
0.0180411
0.00135454
0.00595767
0.000403358
0.00588816
0.00884995
0.0116083
0.00119935
0.00565475
0.00593221
0.0058759
0.00143626
0.00589857
0.00459153
0.000741638
0.00204654
0.00589414
0.00154603
0.00592815
0.0016942
0.00644786
0.0183415
0.00388183
0.00595782
0.00584575
0.00589847
0.00484224
0.00584561
0.00195949
0.00604168
0.00588224
0.0058208
0.000705235
0.00410822
0.00589835
0.00581105
0.0058892
0.0060166
0.00572717
0.0171636
0.00294402
0.00421231
0.00073463
0.00599853
0.00593306
0.00102641
0.00425298
0.00581387
0.00120308
0.0021154
0.0013026
0.0140192
0.00883086
0.00335563
0.00276987
0.00973486
0.00584305
0.0178594
0.000700579
0.00586008
0.0116696
0.00588963
0.0013366
0.00380088
0.00504275
0.00231805
0.000846043
0.00592903
0.00593096
0.00580452
0.00286336
0.00589996
0.00588443
0.00581998
0.00865879
0.00553612
0.0058405
0.00276727
0.00584915
0.00793571
0.0133224
0.0112548
0.00582528
0.00581231
0.0136141
0.00113871
0.00793034
0.00592834
0.00376027
0.00589954
0.00584743
0.00195027
0.0024548
0.00583927
0.00593062
0.000726295
0.00585008
0.00208977
0.00580795
0.00583721
0.00597829
0.000787085
0.00273646
0.00577611
0.00581054
0.000430306
0.00549358
0.0015619
0.0135464
0.00588364
0.00399227
0.000621736
0.00205994
0.00843333
0.00602931
0.0085863
0.00595517
0.00203966
0.00704636
0.00581227
0.00585094
0.00201695
0.0058037
0.00405463
0.00874151
0.00590947
0.0029425
0.00591794
0.00589672
0.00392253
0.00588444
0.00580755
0.00581387
0.00584459
0.00241273
0.00596855
0.00872361
0.00581241
0.00133956
0.0012747
0.00588303
0.00597273
0.00591495
0.00582956
0.00584631
0.00171972
0.00591688
0.00156553
0.00555012
0.0123358
0.00744568
0.00448985
0.0051537
0.00248481
0.00581205
0.00580572
0.0116929
0.00584803
0.00588098
0.00247622
0.00201736
0.00704929
0.00584613
0.0131506
0.013345
0.00582102
0.00242861
0.00590613
0.00582162
0.00585921
0.00581998
0.0117616
0.00583072
0.00600384
0.0150299
0.00353874
0.00237295
0.00604877
0.00596219
0.0101987
0.00580577
0.00120998
0.00579685
0.00592567
0.0134026
0.00582933
0.00580801
0.00589396
0.00287282
0.0189358
0.00588442
0.00582898
0.00586696
0.00307471
0.0138544
0.00110797
0.00597915
0.000898299
0.00973136
0.00591169
0.0119386
0.00581095
0.00115994
0.00771657
0.00584355
0.00353139
0.00960225
0.004556
0.00160268
0.00110631
0.00152125
0.00106834
0.00339038
0.0017968
0.00590657
0.000265284
0.00588023
0.00728623
0.00479272
0.00255072
0.00221645
0.00590756
0.00192582
0.0132225
0.00148618
0.000687515
0.00580081
0.00622787
0.0057875
0.00584151
0.00771914
0.00583243
0.00424954
0.00293774
0.00581956
0.00355976
0.0016869
0.000658757
0.00580837
0.00145995
0.00211044
0.0106328
0.010026
0.0058253
0.00594538
0.00583556
0.00584237
0.00852354
0.00214551
0.0183051
0.00590721
0.000204204
0.0103211
0.00579902
0.00586794
0.0010142
0.0066825
0.0125706
0.000766026
0.00131481
0.000676435
0.00142329
0.00487376
0.0186173
0.0125435
0.00572983
0.00505233
0.00589168
0.00339256
0.000586706
0.00748169
0.00594466
0.000522669
0.00962828
0.00584979
0.00593176
0.00595182
0.0058072
0.00582113
0.00985767
0.00034819
0.00322049
0.00589293
0.0072798
0.00197408
0.00113498
0.00070957
0.00210788
0.0016232
0.00584229
0.0058215
0.000830079
0.00580052
0.00699162
0.00261295
0.0058472
0.00580761
0.0129135
0.00593303
0.00595408
0.00590716
0.00318924
0.00262611
0.00163736
0.00578855
0.00585118
0.00592778
0.000339989
0.00582128
0.000485796
0.0058227
0.00587966
0.00579126
0.00316312
0.00150304
0.00463768
0.00583681
0.00565064
0.0060476
0.00338646
0.0146718
0.00585154
0.00739128
0.00584586
0.00580798
0.00425245
0.0103614
0.0157233
0.00697673
0.0012066
0.00147174
0.0058366
0.00583291
0.000374239
0.001849
0.00197289
0.00578551
0.00080921
0.00942724
0.00590086
0.00592143
0.000291091
0.00586812
0.0118546
0.016268
0.0114771
0.00590305
0.00607314
0.00591128
0.00883982
0.00593869
0.00580102
0.00362107
0.00582895
0.00411337
0.00338607
0.00276906
0.00434353
0.00580806
0.00594021
0.0103151
0.00590615
0.00528991
0.00222517
0.00583149
0.000763038
0.00584909
0.00584352
0.00580054
0.00170539
0.00591748
0.0103948
0.00599751
0.00582142
0.00991538
0.00599827
0.000806957
0.00165166
0.00240972
0.00590278
0.0098258
0.0121021
0.00584053
0.000565418
0.00585227
0.000360855
0.00656466
0.00268276
0.00128335
0.00290162
0.000937026
0.00583702
0.00587325
0.00599096
0.00580035
0.00321925
0.0015451
0.00223674
0.00968824
0.00580124
0.0120138
0.000496226
0.00593697
0.0123452
0.00580737
0.000820287
0.00601271
0.003947
0.00580541
0.00171436
0.00583523
0.00581907
0.0019983
0.00356011
0.008319
0.00598935
0.00463029
0.00369934
0.00589321
0.00786901
0.00198737
0.00395863
0.00823232
0.00591223
0.011085
0.00581938
0.00591842
0.00770471
0.00394696
0.00583548
0.00591945
0.00592186
0.00580257
0.0059281
0.00209811
0.000387061
0.00904565
0.00589096
0.00588478
0.00124636
0.00315741
0.00292698
0.0115402
0.0172992
0.00591466
0.00583265
0.00581207
0.00329086
0.00582491
0.00584225
0.00443708
0.00943609
0.000683839
0.0058951
0.00582457
0.00265079
0.00594905
0.00583946
0.00583304
0.00376192
0.000566123
0.00178086
0.00584739
0.00580243
0.00215856
0.00586617
0.0068607
0.00263978
0.00815643
0.00590285
0.00344399
0.00585853
0.00585127
0.000960921
0.00581112
0.000474867
0.00583433
0.00476674
0.00594036
0.00232224
0.00585324
0.00436571
0.00582152
0.00128447
0.00593186
0.0058535
0.00589399
0.00453653
0.00960179
0.00590914
0.0059991
0.00581235
0.0110221
0.00150409
0.00776814
0.00303344
0.00371954
0.00377875
0.00336766
0.00627051
0.00244795
0.00589789
0.00583911
0.00177936
0.00566751
0.00579892
0.000526897
0.00378035
0.00580936
0.00582096
0.00589694
0.0139844
0.00593463
0.0017626
0.005919
0.0136935
0.00975033
0.00580502
0.00588765
0.00582526
0.00583883
0.0103008
0.00476303
0.00939235
0.000959845
0.00592004
0.000604581
0.00583207
0.0100558
0.0058157
0.00725785
0.00580551
0.00107878
0.00592539
0.00582862
0.00600977
0.00265014
0.00865609
0.00393554
0.00213148
0.00194881
0.0214905
0.00113955
0.00396363
0.00585927
0.00603564
0.00580295
0.0058299
0.00591048
0.0050025
0.0161327
0.00904998
0.00553545
0.00589852
0.0129248
0.00583849
0.00118461
0.00136791
0.00968675
0.00432235
0.00588319
0.00580627
0.00590358
0.00589382
0.00351362
0.00214702
0.00581328
0.00355926
0.00109421
0.00311892
0.00933255
0.00106159
0.00889869
0.00591702
0.012767
0.00826077
0.0011065
0.00958916
0.00581183
0.00591921
0.0050123
0.0110929
0.0106417
0.00597127
0.00606763
0.00581573
0.00518059
0.0102208
0.00581386
0.00530764
0.00581248
0.00589139
0.00023411
0.00846475
0.00589122
0.0058877
0.00574328
0.00583688
0.00581079
0.00266901
0.00582086
0.00473304
0.00581259
0.00893762
0.00583216
0.000819164
0.00580557
0.000301416
0.00589219
0.00366631
0.00584126
0.00584122
0.0058109
0.0059241
0.00686584
0.00416695
0.00543938
0.00590017
0.00281849
0.00510347
0.0064197
0.00584996
0.000250034
0.00314416
0.0118814
0.021271
0.0111244
0.00281613
0.00600358
0.0058154
0.00815832
0.00595487
0.00567983
0.0127322
0.00122856
0.00313638
0.0130007
0.00123436
0.00609259
0.00308274
0.000294852
0.00592021
0.00583824
0.00595371
0.00199849
0.00582735
0.00580204
0.0162923
0.00596712
0.00583208
0.00584934
0.00120854
0.00595527
0.00310616
0.00975069
0.0101805
0.00924007
0.00404828
0.000804215
0.00529296
0.00384764
0.00591078
0.00604689
0.00192524
0.00593212
0.00580949
0.00102004
0.0115625
0.00108297
0.00251906
0.00518861
0.00594784
0.000719046
0.00233044
0.00614655
0.00595011
0.00585639
0.00585626
0.00593622
0.00588559
0.00590536
0.00564535
0.00584737
0.00594434
0.00565805
0.00599584
0.00592129
0.00596164
0.0119029
0.00505162
0.0060616
0.00158922
0.00110664
0.00261272
0.00199115
0.0166027
0.0015016
0.00592355
0.00585392
0.000532384
0.00580671
0.0058004
0.00603739
0.00139434
0.00579869
0.00582437
0.00587412
0.00572896
0.00587123
0.0055281
0.00602969
0.00869467
0.00387434
0.0152521
0.00580212
0.00594881
0.00897154
0.00558937
0.00205094
0.000502815
0.0112518
0.00274628
0.00594468
0.00583968
0.0040867
0.0166447
0.00583324
0.00162965
0.0117369
0.0013206
0.00529303
0.00839962
0.00600875
0.00584275
0.00603969
0.00269555
0.00587857
0.0110305
0.000507811
0.0059059
0.00587178
0.00587004
0.00114287
0.00578746
0.00580047
0.00488138
0.000565047
0.000981829
0.0119398
0.0147775
0.00593809
0.0132628
0.00488548
0.00137113
0.0108519
0.000249532
0.00886858
0.0144335
0.00583736
0.000691061
0.000719628
0.00592506
0.00370715
0.00589732
0.00496285
0.00593679
0.00252385
0.00116237
0.00819666
0.00593756
0.00636763
0.00605853
0.00314978
0.00595292
0.00585951
0.0124943
0.00914633
0.00540985
0.00311985
0.00580703
0.00206997
0.00583848
0.00227443
0.00822624
0.0125338
0.0030636
0.00710733
0.00142185
0.00574937
0.0032188
0.00587427
0.00581122
0.00361139
0.014783
0.00580664
0.00530497
0.00588742
0.00592027
0.00498934
0.00581995
0.0108155
0.00222858
0.0143404
0.00594593
0.00619648
0.0015285
0.00600516
0.00146319
0.00677585
0.0125155
0.006705
0.00571458
0.00148018
0.00903864
0.00591214
0.0157958
0.00589769
0.00593795
0.00462034
0.00583736
0.00583441
0.0093991
0.00589754
0.000981695
0.00588139
0.011543
0.00656883
0.00552917
0.00795903
0.00103653
0.00580905
0.00916662
0.00937345
0.00433462
0.00598073
0.0059413
0.00273935
0.018242
0.0084554
0.00582107
0.0025455
0.00605455
0.00592322
0.00228607
0.00104773
0.0059424
0.00587556
0.00585123
0.00291314
0.00597385
0.000869633
0.00585916
0.00583776
0.00939819
0.00603837
0.00590588
0.000384468
0.00287542
0.00449032
0.00593751
0.00595304
0.00831178
0.00592795
0.00587749
0.00589835
0.00241253
0.00579973
0.000619112
0.0129875
0.00346653
0.00584718
0.00582226
0.0082404
0.00172635
0.00180478
0.00177625
0.000815881
0.00353929
0.00582989
0.00761318
0.00147659
0.00588962
0.00564838
0.00584122
0.00106021
0.00786129
0.00856476
0.00350674
0.0058846
0.0148813
0.00593437
0.00592597
0.00593763
0.00365096
0.00595953
0.00521931
0.00134132
0.00593479
0.00573896
0.00588579
0.00591984
0.0058745
0.00585295
0.00599187
0.00588562
0.00581549
0.00873323
0.00294434
0.0170128
0.009284
0.00112271
0.00589179
0.00587767
0.00586773
0.00588174
0.00494844
0.00576032
0.00583688
0.00587867