/*--------------------------------*- C++ -*----------------------------------*\
| =========                 |                                                 |
| \\      /  F ield         | OpenFOAM: The Open Source CFD Toolbox           |
|  \\    /   O peration     | Version:  v2012                                 |
|   \\  /    A nd           | Website:  www.openfoam.com                      |
|    \\/     M anipulation  |                                                 |
\*---------------------------------------------------------------------------*/
FoamFile
{
    version     2.0;
    format      ascii;
    class       volScalarField;
    location    "100";
    object      omega_0;
}
// * * * * * * * * * * * * * * * * * * * * * * * * * * * * * * * * * * * * * //

dimensions      [0 0 -1 0 0 0 0];


internalField   nonuniform List<scalar> 
37190
(
0.027358
0.0242654
0.0243402
0.024038
0.114264
0.0245399
0.0317436
0.0805687
0.0228201
8.45742
27.448
1.97781
0.189692
0.0254537
7.53819
0.392342
0.0243446
0.211173
0.0234763
0.0257637
0.0291995
0.500727
0.0242947
2.35024
0.144974
0.0248961
3.5928
0.0270689
7.93505
0.0246653
0.913804
0.0256262
0.0276157
0.0834274
0.0282607
0.621637
3.61829
0.274164
0.0234653
0.0268762
0.89171
0.0222935
0.39582
0.0255383
3.50583
0.0615838
3.49036
1.98665
0.0224575
0.0300019
0.0243651
0.0220842
0.0247465
0.0320191
0.025099
0.0863798
0.022089
0.0255972
0.321528
0.91068
0.0779564
5.14415
0.0293908
0.0249903
5.48111
1.56481
0.381609
2.73019
3.08915
3.01791
0.0234562
0.132038
0.0285062
0.0242847
0.024478
0.0420216
2.24964
3.66566
0.0275268
3.83506
3.45265
0.024054
3.17898
0.0245033
10.3132
0.0390778
3.14382
0.278187
0.0323916
0.68963
0.023514
8.20465
0.0277576
0.0241375
0.0521794
0.976078
0.0258347
1.51824
1.00109
0.0244421
1.63127
0.0840443
0.0248073
0.0222933
11.1984
0.0243395
0.02509
9.87997
4.35971
0.0246913
0.472828
0.0249608
0.0240446
0.0249548
0.107911
0.0240381
3.42234
3.00404
0.0292172
0.0261404
0.0814057
3.61689
0.0247666
0.02449
6.41205
0.0298932
5.68008
0.0247795
10.2628
1.61437
3.5845
0.0248398
0.0242679
0.620754
0.0243724
1.49007
0.0251039
0.371223
1.36336
0.167898
3.00136
0.0798122
0.0766337
0.981636
0.0260392
0.0235093
0.0261515
0.0272011
0.0234457
3.03785
0.0250958
0.0238097
0.0222308
0.036735
4.71517
0.024248
3.01227
0.0249088
0.0428302
5.33044
0.0257155
0.0282267
0.0263488
0.0276683
3.31451
0.0262484
8.22165
7.4339
0.0292879
3.14345
6.13872
0.0228099
0.0839506
0.0234612
8.17626
22.0799
0.148302
0.0515904
0.0248976
7.64554
0.0367273
0.0792299
0.655567
2.83951
0.029921
9.98272
0.0250157
9.60799
1.70239
0.0430613
0.0233789
0.234011
0.0777509
0.0248738
0.0233347
3.23717
3.53232
2.29618
2.98363
0.0250759
0.0245257
0.0801169
0.0249427
0.0244373
0.507503
0.482038
0.0240262
0.0246452
7.81628
0.0425908
0.024936
0.0239893
1.39497
0.025296
3.77967
0.0260824
0.0241515
0.0249856
23.2798
0.024032
0.0271767
0.023993
1.70704
33.0223
3.26251
0.999169
0.256199
3.33077
0.0248611
4.44355
7.54866
0.0249454
0.022223
0.0243867
0.0239852
0.0284145
2.98511
0.0222015
0.024933
0.0573721
0.0232766
11.4845
0.0318522
0.0223462
8.76254
10.785
0.0241818
0.0395815
25.5457
0.025745
0.0265671
0.0288699
0.0598681
0.0262461
0.0232308
0.0271855
0.0233006
0.0245122
0.0524782
0.0221644
1.40908
7.50393
0.0352834
0.0220817
0.963
0.0276278
0.0244074
0.134621
0.0233536
0.0572814
0.0292104
0.024865
0.468814
10.4814
0.0818056
8.03123
0.0524812
0.0250446
10.3505
0.0224049
0.0234023
0.0693942
0.0273202
0.0222054
2.80787
0.0239899
0.0245247
0.0503464
0.138035
0.0283489
0.0282984
0.0253361
0.0703341
3.27148
0.0225855
8.85439
0.0234572
0.0261003
5.92495
0.0238043
0.0733821
0.135196
0.949757
3.24112
0.0264812
0.0316962
2.13892
0.0244907
3.53906
3.46588
4.62049
3.57666
4.51199
0.841404
0.0293411
0.0299525
0.0245544
0.0252695
3.46216
0.025043
3.59608
3.68468
0.0245882
0.034768
0.948361
0.489334
0.0297641
2.72805
10.4206
0.0233715
0.81616
3.3677
2.37648
3.82999
0.0247438
0.0234156
0.0244026
0.024814
0.0242355
0.0246331
0.408792
0.0242593
4.32633
0.024728
3.11262
0.0339839
3.79941
0.0229697
0.411505
2.76249
0.378085
0.0385179
0.0264476
0.0220772
0.30874
0.1808
0.0235248
0.0229479
3.59965
2.35796
3.57423
4.25171
1.08373
3.56994
3.64051
2.77115
0.0249212
2.36484
0.0225798
6.62491
0.0247249
0.346139
0.216577
6.73488
0.0246323
0.0223018
2.99452
6.87232
1.614
0.045471
0.0249959
33.1551
0.0245305
1.41055
0.236633
9.73317
0.0237739
0.0228645
0.0230803
0.122701
0.250674
1.77431
0.0258153
0.0224455
3.43845
0.252329
10.6565
3.49796
26.6761
0.0228877
6.06493
2.79003
0.0225932
8.27705
3.7772
0.0230785
0.676357
2.59951
3.75293
0.0234501
0.0248935
0.026343
0.0252968
11.9228
0.0425877
3.14297
0.0396792
0.0258148
41.0741
0.0245383
0.0227698
0.341637
1.44972
0.0340278
0.0246974
0.0221688
0.0228523
0.0249496
5.43035
9.36971
0.0221725
0.0235046
0.0235013
0.314796
3.37455
0.0248636
0.0316584
0.0252109
0.0318802
3.74091
0.0251002
0.0246066
3.66854
0.0481324
6.70529
41.1486
3.36816
0.0837141
0.0285275
0.0270067
9.63382
0.314949
0.0507189
0.02661
3.60764
1.62196
0.0232753
0.0246949
0.0230481
7.39743
0.0225256
0.0666456
2.7888
0.0248147
0.0682095
0.0230143
0.626521
0.0581028
0.024214
0.293215
0.0245849
0.0247522
0.119756
0.0255524
0.178843
0.712732
0.0248596
0.0680015
0.0247006
0.0725626
4.33563
0.0247952
0.0230883
0.174134
0.0556946
0.0435802
3.17885
0.0261774
3.91585
0.0242142
0.252413
2.90347
0.0544908
0.0230374
0.0505948
0.0272406
0.0257824
0.0470257
0.0246046
1.37767
0.421152
0.61311
3.41332
1.78586
0.0248742
0.0250949
0.0248073
0.0263952
0.0262367
0.0249308
0.332344
0.0234771
0.0242192
0.0885984
7.79164
0.0671556
16.4907
0.0247723
0.024677
1.63044
0.0264967
4.29094
0.0421956
0.0319513
0.0246347
0.420113
0.040384
1.34727
0.0284034
0.0246805
0.0230347
0.0729758
0.0264745
0.0246117
0.547066
0.02399
0.0419473
1.07394
0.911254
0.0615402
0.0264074
0.871307
0.0372516
9.05645
0.0394387
4.05875
1.89201
0.0245467
0.0237549
0.0228135
4.21737
0.398626
0.422754
0.0220821
26.945
0.0246822
0.0273638
4.33008
0.029745
1.46892
0.420334
7.25449
0.0239882
0.0248725
0.252082
0.62686
2.75292
3.54902
0.0244661
3.33909
0.400853
0.0876068
0.0253913
1.89968
3.76981
3.54438
3.51923
0.0233796
0.0881468
0.0298204
0.0233811
0.026557
0.0273414
0.0248679
10.2536
0.379706
0.471326
0.34267
0.0270395
0.0511167
1.56874
0.023152
3.83543
0.0238679
0.368265
2.52453
0.874632
2.81088
0.0270218
0.024362
0.0247563
0.0268765
0.0248862
1.72024
0.0425706
0.0576431
0.0233724
3.02641
0.567594
0.0246562
0.0231775
4.26653
0.0259139
0.0249484
0.0269046
5.68322
0.024352
1.09987
0.0233798
0.320089
3.73637
0.0358746
0.0235464
0.0264957
0.0234303
0.0291817
4.1733
0.0295197
1.31634
0.0251637
2.28001
0.0238769
0.197814
35.12
0.288537
1.49514
3.55793
0.0480458
0.0252013
0.0237977
2.95468
33.8804
0.0430753
0.284419
0.024224
3.25105
0.0247907
0.0226435
0.0401456
2.21621
0.0222775
0.0546201
2.88954
2.91048
2.19957
3.40131
0.0241345
0.479299
2.41435
0.0250641
0.0263864
3.63934
0.826532
0.0439679
3.1385
0.0276358
0.028114
0.027834
0.219321
0.0266103
0.0247868
0.0235844
0.0245333
0.799682
33.1695
0.0241553
0.0237649
0.0727248
1.81816
0.0254913
0.0263417
9.36986
0.0240585
0.0554299
0.0246987
0.0234493
0.0251815
1.8204
0.141472
0.880182
0.0235623
0.0273075
0.073351
7.55117
0.0245933
0.0241476
0.344604
0.024511
0.0227945
0.166776
0.0235161
0.0221547
0.252887
0.0235212
0.0421948
0.0223014
0.0244322
0.0536914
0.0754851
0.0241444
0.0704386
0.0223013
3.88667
0.0706905
0.0232693
1.77874
0.0249384
0.0242259
3.71291
3.42084
3.50771
0.0440388
0.0233136
0.0253504
0.022318
0.16164
0.583154
13.152
0.0413773
10.323
0.0235404
3.6323
0.0265416
0.0244899
0.149729
0.0460862
0.885769
0.0252794
0.0323694
0.0224075
0.0233928
0.0520183
0.206288
0.0560141
6.16864
0.0267134
3.5838
3.85964
7.22565
0.393694
0.37774
0.0243737
0.0298597
0.0234256
0.378944
0.0247057
0.0670018
0.985404
7.31019
0.0241851
2.84485
0.0424095
0.0239137
0.0253205
0.0448422
0.0231798
0.117399
0.0225421
0.026797
2.1308
0.024685
0.0291954
0.0272841
0.0314359
0.0229465
0.0670624
0.0255486
0.0236133
0.0273876
0.0860335
0.0227778
0.0223398
0.0247105
1.60577
0.0233676
3.72366
0.0360803
0.117139
0.0307263
0.0376009
0.0233242
0.0253197
0.0231548
0.0249039
0.0225651
0.0391121
0.0247112
0.0250111
0.0237977
0.364425
0.181947
0.0240956
0.0253725
0.0228311
1.41051
0.0291226
3.41241
0.0403483
3.15026
0.0375099
0.0240568
0.0248902
0.0249238
7.20049
0.0249244
0.0263371
0.0387556
0.0350781
2.374
0.0271977
0.0478696
0.0430774
0.0260307
2.81842
0.0289916
5.30671
0.374539
0.025157
0.0359761
0.022288
3.89021
0.0242051
0.408703
3.53118
1.13744
0.0347954
0.027324
0.023365
0.024568
3.52329
1.11607
4.12461
0.0260825
0.0261933
0.0252867
3.20654
0.0261851
0.0234845
8.59315
0.0375896
0.098574
0.0249162
0.0282252
0.0360731
0.0240694
0.0247625
0.788383
0.0262801
0.490076
0.496717
3.42012
0.0809175
0.0386695
0.031685
0.0308522
3.9406
3.1781
9.30061
0.254729
0.023481
0.716417
0.0244948
0.031075
0.0237468
1.86302
0.456968
0.395371
4.8659
0.0256521
0.386737
0.387995
8.5898
0.158377
0.0518747
0.971518
0.023387
3.36241
0.396064
9.98172
0.0258879
0.0340168
0.024522
0.638991
0.0221413
0.0235096
0.0248746
0.0246424
0.0235102
0.0254041
0.0245246
0.0248754
0.0245448
0.0333964
0.649367
0.0243789
0.0235599
3.47097
0.0367826
0.0235134
0.0253117
0.0239223
0.533851
3.16033
0.0252181
0.0266153
0.0637955
0.0245634
0.0324092
0.172625
0.0260134
2.3613
0.0326092
5.77329
3.60823
0.024435
0.0228734
0.0242919
2.88131
3.74887
0.0235551
0.0257845
8.55022
0.0230849
3.40116
0.0321898
0.405323
0.0521126
0.0230829
3.39781
0.0234476
3.23837
1.58385
0.0658173
0.0312613
0.0317018
0.0767448
0.0260818
7.77862
0.0226947
0.0322045
7.99647
0.0387723
0.0802272
0.302288
0.0475439
0.0227299
0.0228714
2.62158
0.0319787
0.0227182
0.0296218
0.0299141
2.93124
3.55985
0.0249171
3.63174
0.0486064
3.52198
0.0262815
17.0115
0.064569
0.631405
0.642161
0.158822
0.0227228
0.0234708
0.242755
0.0234583
0.0266019
0.0253132
0.0248683
0.0274989
0.0585279
0.0228908
0.0801535
2.2127
0.0233966
0.255725
0.0227317
0.0233682
14.7168
0.0641433
3.92042
8.12906
0.0314693
0.0493607
0.0453702
0.0228483
1.02873
0.248636
0.0246385
3.41408
0.0237568
0.024561
0.0264603
0.0233485
0.192606
0.616013
0.024123
6.73566
0.0229968
2.28927
3.12655
2.7701
3.57698
0.553545
0.0292807
0.0267516
0.0345601
0.0254456
0.0244883
0.0735291
0.0250777
3.60766
0.0229852
0.0245162
0.0242053
0.0237098
0.363839
0.0239655
0.036185
34.4283
0.0246606
0.0346913
0.0233433
0.02252
0.0251412
2.33604
0.197769
0.0239939
0.0246849
3.66267
0.024134
3.28662
0.17248
0.024622
0.43911
0.0259804
0.0238139
0.0238573
0.0226908
0.39664
0.0321945
0.0287767
0.044004
0.0450218
3.07661
0.0227542
0.42856
0.0245975
0.0274116
0.0251007
0.032723
0.0248127
1.95407
0.506294
0.292211
0.0225571
0.0868839
0.0249356
3.8787
0.0993761
0.0246244
0.0263081
0.0875648
0.0243172
8.45612
0.205839
0.0233933
0.0252865
0.025136
0.0242484
0.026075
0.0240546
0.0260375
0.0244716
0.0255064
0.0260045
0.0233455
0.0536711
0.0241671
23.2975
0.0236943
0.0248257
0.341101
0.0246197
0.0263794
0.0246258
0.025381
0.0245542
0.0242845
0.0262488
0.150452
2.23601
0.0234155
0.825999
2.78661
2.32052
0.0233064
3.64846
0.0253756
4.32625
0.412395
1.6104
0.0317472
3.63253
10.0558
0.0289879
0.0302697
0.0267156
1.5223
0.0223611
0.0335178
3.81341
0.378998
0.0237594
0.0231607
0.0238482
0.0670422
3.89355
4.64735
3.59721
3.24129
0.023158
6.10406
0.466487
0.394721
0.0571705
0.0482098
0.023731
0.0259379
3.64179
3.3311
0.0265013
0.0243075
0.0450719
0.023341
7.24124
0.0260842
0.0243265
0.0356099
0.0630719
0.022935
0.131736
0.0947011
1.5799
0.0229235
25.5228
0.0232946
3.38617
0.517008
0.057058
0.0241963
0.324836
0.0238586
0.0241961
0.0824366
3.65358
0.0227759
0.0263109
0.388709
0.0313267
0.025954
0.0223974
1.48389
3.54984
2.84627
0.174686
3.97693
21.3193
0.0311336
2.59377
0.0257614
0.024115
1.23321
2.28754
0.11832
0.023514
0.0383169
3.57754
1.84111
0.0868825
0.0993475
0.276889
0.0355709
0.0270201
0.0361605
0.923456
0.0239485
0.0446252
0.0245485
3.33732
2.95104
0.0221065
0.0242989
0.0354772
0.349133
0.0231029
0.0245414
0.024596
1.95367
1.43953
0.0822528
4.03549
0.0248714
0.0232845
0.0295929
0.0241106
0.537478
9.2148
0.0806144
0.478694
0.0245786
0.0406702
0.0232653
0.0234001
0.0239241
0.0237391
0.0296402
3.88302
0.0248911
0.0292514
0.495702
0.0422297
11.9719
0.102196
0.0227259
0.0239642
0.0755393
0.0228951
0.684979
0.0227564
0.0234923
0.0227728
0.0993012
0.0228842
0.0266336
1.91558
0.128984
0.369446
0.0245848
0.0264178
0.0236573
0.0237871
0.0232163
1.85881
0.0391272
0.0263183
0.241814
0.0283208
0.0244982
0.378237
0.180229
0.0232152
0.0270519
3.47512
0.0372165
0.0944978
0.0244638
3.60809
0.0233727
0.024669
0.0598648
0.0242159
0.306507
0.0824957
0.0222118
0.0230936
2.74377
9.95889
0.0239739
0.0239693
0.025728
0.0227543
0.0221294
0.0233664
0.030018
0.481268
0.112266
0.0239779
0.0227458
0.0252315
1.60672
0.398146
0.0240774
0.0321392
1.50627
3.48916
0.0251151
5.08627
0.0227181
0.0387732
0.0744987
0.093012
0.0257296
0.0241222
0.0220876
11.2767
0.0695282
0.0262327
0.0257253
0.460536
0.0260802
0.0244347
0.0225569
0.451903
0.0247712
0.0986417
0.167346
0.0229721
0.0242105
3.07513
0.0514659
0.0234203
24.2836
0.0241962
0.497213
0.0233527
0.0676337
0.350286
0.0253367
0.213529
1.57507
0.0246322
0.0244048
0.0244736
0.0372522
0.0351588
8.81094
0.0234173
0.0701533
0.0270376
0.083689
0.02492
0.127913
0.0228247
0.494069
0.0261354
0.0245472
3.73302
0.0346955
0.0242891
0.0228354
0.0267387
0.658788
0.0386873
0.0251265
0.0242483
0.0243135
0.0337461
9.99483
0.0326949
3.32035
0.024782
0.0531064
0.02334
1.54921
0.0224051
0.36389
0.0302365
0.0250175
4.13144
3.30455
0.0244648
0.204423
0.0236767
8.16467
4.01222
0.0229361
1.52744
0.0231039
0.0264847
0.46366
0.110114
0.382577
4.02685
0.0225052
1.40323
0.0242414
0.0242518
3.28654
3.73208
0.0225606
0.0512784
0.0248655
0.0367575
0.0244927
0.0411485
0.02385
0.0524457
0.0245522
0.0241643
0.0495028
0.0254938
0.0721526
1.28569
0.657941
0.0244712
0.0237506
0.0723735
0.0690349
0.294592
0.0236499
3.20003
0.0248208
0.0231436
10.1649
0.0240422
1.41688
0.0224733
0.0279319
4.86882
0.0231283
0.0237739
0.0240652
0.025162
0.0250758
2.37003
0.0256275
0.98863
0.261226
0.0280475
9.02353
26.3332
0.0237238
0.0245678
12.2724
6.17842
0.026387
0.0255004
0.65157
3.66365
0.0242365
0.0377326
0.0224202
0.0243059
1.08156
2.2827
0.0588961
0.319373
0.0254392
0.025491
0.365729
0.0416611
0.0222903
1.91429
0.0448557
0.0525714
11.0981
0.0232999
0.195567
0.0242742
0.0250186
0.0230784
0.0388159
0.0364321
0.0496229
0.0261396
0.0265515
0.0521192
1.53718
0.024507
8.86167
0.458841
1.64926
0.0227652
0.0229644
3.77693
0.0242337
0.374849
0.0248054
0.0703199
0.175174
0.0245124
0.639783
0.0241563
0.569825
0.053642
0.118221
1.50236
0.0249776
0.0248352
9.65436
0.0245616
0.626044
0.0457325
0.234898
0.10933
0.0251813
0.0774663
0.0262475
0.0295721
0.0351924
22.8614
0.0236099
0.0232978
4.27628
6.10833
0.0460645
3.67513
0.0261387
0.0234597
3.4432
0.0447215
1.58098
0.360206
3.82549
0.0254988
0.0347256
0.02503
3.41805
0.0262326
0.372281
0.0229072
0.0234928
0.0251599
3.73345
0.577187
0.0303272
0.0324318
0.0282828
0.0222869
0.0739029
0.0222064
2.93049
4.02429
2.73015
0.0222195
0.0264273
3.54551
0.0323249
2.28878
0.0226534
0.0229128
0.0887681
2.75774
0.0259064
4.5308
2.66554
0.0255355
1.6731
0.142119
0.0269635
0.0246288
0.728622
0.402204
0.0231021
0.0416703
3.24611
0.0234877
1.56944
0.0516344
2.99655
3.34496
0.0252118
0.0241357
0.0227959
0.0227853
8.8615
0.0259605
0.0234293
2.37752
0.0238814
0.0425615
0.025763
0.253502
0.0474638
0.0824676
0.0236263
0.0274461
0.121995
0.0437508
0.0248394
0.0244083
0.0478383
1.29388
0.0242384
0.128704
3.03009
3.24071
0.321341
0.0237629
0.0283924
14.4835
3.80084
0.0247005
0.0245362
9.13653
0.653552
1.82854
0.0268684
0.474067
1.45249
0.0238809
1.34272
0.129331
0.0251962
0.0243563
0.0229027
11.7184
0.0242366
8.8889
0.205958
3.55727
0.236384
6.07168
3.28126
2.62165
6.16365
0.0242014
8.08118
0.0767834
0.024671
0.0401227
0.0390417
0.127815
2.64036
0.0240519
0.0257923
0.0238501
0.34292
0.0235038
0.0232784
0.0252032
0.0271816
0.0259576
1.47525
0.0466941
0.0225027
0.0272185
0.0270251
0.0788259
0.0251927
0.130191
0.026177
3.08386
3.26529
0.0234745
2.86941
0.238578
2.95284
3.49632
0.0270309
10.6554
0.0241604
1.55517
2.95479
0.0242219
0.0238385
0.0245107
0.0240505
0.0270804
0.0308549
0.0240934
0.485397
0.0249708
3.15152
0.0271793
2.75461
0.02327
0.0240673
0.387366
0.0238743
0.0244566
0.0242582
0.0581023
0.0261052
0.0251081
0.0268066
0.0238177
0.061847
0.0230957
0.0692811
0.0244793
0.035481
3.63283
0.0250633
0.116802
0.0765012
0.0241762
6.7118
0.0233978
3.48107
1.91208
32.1736
0.0559371
0.0235524
0.0822868
0.0939828
0.024628
0.03214
0.0361298
0.0387661
0.0269302
0.0237614
0.387471
20.0661
0.0246493
2.9877
0.113963
0.0232814
0.0237672
0.0227323
0.0810075
0.605169
0.217338
0.0240019
0.0235458
0.353818
0.0359631
2.15214
8.03236
0.0241894
0.0253271
0.0232995
1.45098
2.38404
0.0231346
0.0326979
0.581191
3.63862
0.0315096
0.0277267
0.0225377
0.0248719
3.46849
0.268897
0.0241742
3.36243
0.0236199
0.62815
1.03978
0.0374961
0.241327
0.511833
0.0247893
0.49827
0.03672
5.39868
26.3933
0.0232824
2.37381
3.38662
0.116429
0.481455
0.0279159
4.1508
1.99655
0.0327219
0.0229695
0.188655
0.384189
0.560472
0.0686302
0.0250105
0.260745
0.0241703
3.18856
3.46902
0.110701
0.0277201
0.0250006
0.0242355
9.48948
0.0233844
4.32167
14.249
0.0524478
0.0240713
9.40701
0.023965
0.0512113
2.81036
0.557893
0.0254746
0.0246493
0.0245491
0.0245327
0.0428783
0.0242812
0.0416066
0.0349341
0.0246364
0.02243
0.122776
0.195999
0.0233832
0.0233572
0.0244983
0.0252906
0.0275286
1.41657
4.32255
5.53538
14.6135
0.0244561
0.0239905
0.0506994
0.0621609
0.0233692
0.0807204
7.72741
9.91886
1.57137
1.10405
0.0526277
0.031936
3.33359
0.0236256
0.374496
0.150839
0.0226551
0.559802
0.0256246
0.0756415
2.98165
0.0558236
0.0312946
13.1937
0.024118
0.0238869
0.0223907
0.0290296
0.0240799
0.025001
0.0242202
2.76191
0.0295007
0.0243494
0.0316917
0.0261982
0.589864
1.52632
1.95013
0.024526
0.0233194
2.60431
0.0875026
0.669461
0.0241571
0.0263841
0.0243565
0.0253779
7.52125
0.0283383
0.0237006
0.0242028
0.116871
0.0236868
0.0368331
0.0234295
0.0233847
0.0252589
0.102538
0.051665
0.0287575
0.0234326
0.340239
0.0453477
8.88667
3.35263
0.0249948
0.152236
0.162099
0.0476609
3.64531
0.0254088
0.594876
0.0251275
0.0489745
3.87814
0.0232753
0.0241453
2.42262
0.0223825
0.337581
3.68363
0.0234679
0.0619322
0.0229852
0.0241485
3.69895
0.0228503
0.0234079
0.023338
0.0225877
0.029861
0.0241032
3.37329
0.0233504
0.294113
9.82557
0.0251827
0.0239631
0.0234872
0.0233547
0.0262113
8.08904
0.0229581
0.0593246
0.0291461
3.74779
3.31199
0.0254688
0.0399732
0.0426555
0.0224327
0.0231368
0.510102
0.0222815
0.0225388
6.34711
2.68574
3.49966
0.0246094
2.74984
0.534806
0.0224783
0.040632
0.0243675
0.0243535
0.0226454
0.0240585
3.89678
0.0243478
0.0243876
0.310301
0.0259268
9.71652
0.0258576
0.0247181
1.40045
0.0231298
10.0458
0.0227311
0.025419
3.456
0.024222
0.0232878
0.0240859
6.43665
0.45326
0.0246425
0.0242175
0.0226801
0.0296858
0.605205
0.126397
0.0245511
12.362
1.00725
0.0241362
1.58273
0.022423
0.227603
0.470275
0.02258
0.028116
2.40146
0.0317218
9.09211
0.0487578
0.040858
10.7038
0.0270221
1.31753
0.0237787
0.337709
0.024442
3.81022
0.025262
0.0280442
0.0324748
0.0233288
8.21542
0.533436
8.79306
0.186036
0.0230435
3.92083
0.0223585
0.0239608
3.59755
0.0228209
2.89406
6.47666
0.0224679
0.0266784
0.042556
0.143131
0.0232961
0.0785635
0.0369165
0.613773
3.69658
0.0245357
0.024242
0.0239495
0.0223609
3.2727
0.0746943
0.348905
0.0234444
29.1215
3.34562
0.0222587
0.0226912
11.9284
0.761472
3.80513
0.217286
10.2979
0.191952
0.0591269
0.0504492
0.456737
3.75735
0.0260603
0.0390404
0.0237497
0.0267764
0.204563
1.62644
0.0252362
0.160848
0.451697
0.0237103
0.0249602
0.025101
0.0266367
0.0240594
1.00595
1.02889
5.10565
0.0228936
0.783649
0.0347519
0.135305
0.0785664
0.0652398
9.0119
0.0234385
0.0243403
0.192316
0.0230315
2.37977
0.0515449
0.024469
0.0223416
1.84148
0.0241911
0.0250802
0.023446
0.0288929
0.0483451
0.0368969
0.0266748
0.0241366
0.0244947
0.259443
0.0232743
0.251661
0.0242451
0.0242504
0.0223985
3.69592
1.29474
4.40702
0.0264257
0.027591
0.0253357
3.94665
1.63935
0.0240688
3.60963
0.0244592
0.0232204
0.0561266
1.96874
0.338998
3.03253
0.109705
0.0782564
0.0239581
0.0246237
0.271273
7.88497
0.0425744
0.0221307
0.222198
3.41488
0.0234055
0.0231965
25.9417
0.0253841
1.90639
1.60513
3.42565
0.022983
0.0261582
0.0239565
3.34382
0.0252723
0.0230553
0.02678
3.78401
1.21052
3.9651
6.09135
0.0254002
0.0232144
0.0238462
3.39904
0.0234229
0.0251647
0.0323458
0.0233907
2.56784
0.0241259
0.0228322
0.0230196
0.0397857
0.024498
0.2908
0.0246863
0.0243399
1.6446
0.0243327
0.179583
8.81127
0.0727834
0.0252851
2.3003
0.520086
0.0246368
1.81203
0.0226209
0.241886
0.0397087
0.252846
0.0833847
0.063109
0.113069
0.0237581
0.0223684
0.0245455
0.0230081
0.0345525
8.66969
0.0377132
1.38273
0.0223031
3.66579
1.72259
0.024892
1.59399
0.023395
0.103455
0.0248093
3.02237
0.0223343
8.99943
0.0228375
0.0239731
0.0340206
5.07289
0.842505
0.0243341
3.79629
4.45014
0.0228696
0.402372
0.036907
0.0559437
0.478375
0.0240633
2.47388
0.0239773
0.0240901
3.03483
0.0380414
0.0227916
0.0239564
0.0231826
0.0230879
0.0251253
7.05175
1.15939
0.843208
0.0237584
0.0244473
0.0780003
6.22728
6.27705
1.97223
0.575473
0.0251524
0.0234951
0.0236501
0.0283823
0.0245366
0.0228832
0.635316
3.88212
9.73385
0.0243303
0.0238944
0.36059
0.02374
0.0237647
0.0244633
0.0261433
0.21229
6.85423
0.0241064
0.02308
0.0353589
0.0242389
3.75466
0.0302709
0.406156
0.0249262
0.051562
0.023992
0.0226118
0.130128
0.0260709
0.375512
0.023388
0.515439
0.0252537
3.88819
0.0236723
4.12011
0.0235454
0.0833926
0.0238817
0.0236971
0.0243503
0.0595978
0.467565
0.0240768
0.0253093
0.0232695
3.39935
0.0553399
0.354261
0.0271097
0.025778
0.0393099
0.113361
0.0384562
6.9722
0.0241975
0.0247554
8.08138
0.51854
0.0222943
0.228157
0.0262597
0.0232384
0.705116
0.0237808
0.532515
0.0245688
8.84167
0.0237255
2.14549
2.50527
0.0225676
0.0247922
0.022431
0.0250083
0.490777
0.92125
0.48902
11.2176
0.0237219
0.120818
0.0244542
1.59123
0.0223845
0.459668
0.0231859
0.130121
0.0238525
0.0237511
0.0252191
6.73333
0.3869
0.610591
0.0505109
0.0447567
0.423075
0.0916893
1.19598
0.0242191
0.0260066
0.0266878
0.02333
0.0228891
0.047157
0.568751
1.06274
0.0294072
0.0244853
3.56117
0.0245305
0.0722892
0.373924
1.6455
0.0271751
0.0231447
0.0233399
0.0249159
0.0243566
2.88174
0.0493466
0.0237318
0.026472
0.048326
0.0271829
2.36886
12.3281
0.847371
0.0241563
0.457115
1.59278
0.0486279
1.08907
0.0236378
0.0235457
1.81888
3.42035
0.621399
0.0232771
0.0258871
0.0226516
3.53957
3.43516
0.0232882
0.0269514
0.0236766
0.0244953
1.06317
3.57535
0.0235975
0.0233195
0.0278087
0.0245508
0.0232567
0.031332
0.0237581
0.0255469
0.0232948
2.54951
0.0233512
0.0764474
0.0231614
0.265448
0.0233331
0.0327382
0.0238454
0.0238373
0.0232512
0.0241851
3.46657
0.0255588
0.0342905
0.0257688
6.66237
0.0251903
0.989776
0.0236635
26.7136
0.0400141
3.67811
0.418998
1.15711
5.9903
0.557946
0.0226541
2.35852
0.0246761
0.0280137
0.505397
0.0837838
0.0406072
3.64245
0.0810473
0.026097
0.0285294
24.2524
0.0235472
0.0245454
0.0245799
0.0362847
0.0239049
0.022715
0.568503
0.0248116
0.0239351
0.0241171
9.94852
0.0250513
0.0301839
3.36249
3.42288
0.506099
0.0449304
1.82964
0.0269752
4.63988
0.0228708
0.0285196
0.0374429
0.0248693
0.0232327
1.45774
3.44317
0.051188
0.0324051
0.0251896
0.0248789
1.6297
0.0313213
3.38503
0.0251407
0.0242264
0.0243023
0.0241757
0.0247666
0.0236442
0.0313838
0.0246183
0.0246292
0.0290511
0.0248603
0.0239413
0.0249016
1.08149
2.89953
0.0260623
0.0982801
2.29815
0.0707293
0.0341251
1.47776
0.0392645
0.0234845
0.0243586
0.1645
0.0232032
0.0227195
0.0261027
1.03843
0.0227247
0.023555
0.0260269
0.0270335
0.024116
0.0285245
0.026028
0.496057
4.57831
0.552559
0.0227233
0.0233963
2.34662
2.34121
0.0678226
1.40008
3.43164
0.0295982
0.0249327
0.0245476
4.00602
0.390772
0.0239441
0.0381005
0.508927
1.23179
1.84592
2.87571
0.0247919
0.0466132
0.0261944
0.0682778
0.024151
3.70858
0.164337
0.0256122
0.0240822
0.0248778
0.0598423
0.0221036
0.0227282
0.0616648
0.219178
11.9223
3.87171
2.26185
0.0241563
2.21527
2.60792
2.05889
3.37773
0.531549
2.99702
1.63735
0.0246202
0.384754
0.198764
0.0239859
3.92408
0.0245053
2.89187
0.0237489
0.0407965
0.0916047
3.00721
0.0239155
0.0384594
0.0281135
0.0524589
0.0237165
0.024225
0.374864
3.87818
0.0268418
0.128451
0.0233942
0.0387352
0.0245237
0.0370731
1.63218
0.432204
3.7005
3.02722
8.30673
0.0268726
3.71296
0.0260479
0.0223623
2.78669
0.453586
0.0231962
0.0252463
0.024786
0.0251495
0.186331
0.023716
2.41784
0.0708978
0.450514
0.024886
0.0376661
0.0402067
3.28576
0.0564661
0.122841
0.375501
1.59728
0.0271155
8.96881
3.83076
0.0239489
0.462407
0.024205
0.0249462
0.0476939
0.0228039
0.0237704
3.87572
0.0237278
11.3789
0.02313
2.42347
2.85392
0.028862
3.2213
0.0565843
0.0223546
3.00345
2.38894
0.757148
0.0246985
0.0249087
0.17342
0.544216
3.52387
0.0232652
0.0319662
0.0258529
0.0250612
0.0367526
0.0551014
0.0249059
0.0246783
0.0242075
0.0537186
0.0245084
0.159244
0.0242407
0.0225576
3.88666
0.0251227
0.025613
0.252
0.0288546
0.027186
0.0252975
0.0250558
2.78454
0.0249159
0.0246953
0.0236989
0.0284714
0.0227895
0.121311
3.42844
0.0271319
0.0242902
0.023751
3.87905
8.20581
0.0367262
7.89168
0.171997
0.0337249
0.0239315
0.447734
9.10443
0.024636
4.89574
0.0235129
0.167584
0.694262
3.3481
3.68516
0.023916
0.658414
0.0245902
0.0254416
0.0238195
0.465654
0.024961
3.36545
0.0782447
0.0253734
0.0272548
0.0238829
0.0254768
0.0232364
0.0237185
0.0244249
0.0244274
0.0226728
3.28574
6.0784
0.333871
0.500979
0.128994
0.0247976
0.0242178
0.0240988
0.0248962
0.212636
0.0268898
0.0225501
0.0232494
0.0220965
1.56267
5.54465
0.0417038
0.0225303
3.28712
1.69797
1.46034
0.0301059
0.0267206
0.0769972
0.0247243
0.536726
0.0708685
0.0252415
3.45949
0.0235213
0.0253075
3.55901
0.309976
0.0244618
0.0408783
0.0244627
0.0282721
0.32521
0.38722
0.0278724
2.33864
0.364663
7.57338
0.0232843
0.0242195
0.182047
10.8348
2.16268
0.0234207
0.0244852
0.0247803
0.0231384
0.0951605
0.0223758
1.83964
0.042071
0.0231712
0.0251911
0.0250923
0.0247646
0.0747921
0.0248456
0.216771
0.0254223
2.6862
12.9634
2.99731
0.309609
3.47905
0.0238873
3.2356
7.04258
0.0300019
0.0246684
0.0244783
0.027009
3.03822
0.0247271
0.0231812
0.0251844
0.126506
0.447783
0.0405963
0.0249525
5.18526
0.0711782
0.0227567
8.66849
0.395018
4.40724
0.0234095
0.0262656
0.0340468
0.0755051
0.0252062
0.074912
0.0231961
0.0238597
0.0249125
3.71345
2.57973
0.0244334
0.475861
0.0262113
0.025198
0.0526209
2.25266
3.17266
0.0248236
0.39004
0.0501029
0.0252351
0.0238427
0.345435
6.01655
0.0334387
0.435288
0.296421
0.024574
0.0244441
0.0298187
4.39566
0.0250204
1.55163
10.8454
0.0238988
0.349598
0.296587
0.0246538
3.5937
0.0248372
0.255019
0.0245497
0.0411518
0.0509778
0.0723992
0.172115
0.874239
1.61429
2.96208
0.0245872
0.0235173
0.067833
0.0237557
0.136961
0.0242333
0.0244388
0.0232368
1.97396
0.036366
3.25319
0.174185
0.0350777
10.61
0.47043
0.0239072
0.887147
7.09674
0.0222281
3.62587
0.488468
0.0283196
0.0221928
3.55028
3.38443
0.0231025
0.0248881
0.0512403
0.0276632
0.0250688
0.0266408
3.3996
0.0240683
0.321167
3.25228
0.0237167
0.0268987
0.0240526
0.049227
3.22546
10.6464
0.197655
9.80288
3.42133
0.0222727
2.52936
0.0237445
5.97504
0.0231134
0.024065
2.15582
0.0269291
0.0243749
3.05907
0.0245469
0.113288
0.91164
0.0315035
0.0770595
0.353822
0.0392144
3.37129
0.0244578
0.0360375
0.0342129
10.0906
0.024271
2.34079
0.0258995
0.088336
4.35933
0.430825
0.0259452
0.0889541
0.0245415
0.0250143
0.0233318
0.0252577
0.0522495
0.11267
0.0233401
0.0225213
0.0242314
0.0229642
0.0258768
0.0313864
3.38307
0.0437175
0.0237894
0.0504142
0.0245406
0.35911
1.5633
0.0240617
3.58234
0.492713
0.0231475
0.0229753
3.43148
0.52577
0.299304
0.0264611
2.32344
0.0247319
3.43065
0.0245042
11.6625
0.0355593
1.23846
0.778156
0.0237056
0.0510657
0.0315258
3.37252
0.0245381
0.106491
0.0331864
0.0250202
0.269111
2.65617
3.23336
0.0268469
0.0441157
0.0252275
0.0263099
4.71456
0.35085
2.29864
22.8251
5.88226
6.758
0.641777
4.10366
0.0230892
2.1743
1.62355
0.606554
0.622121
0.251218
0.0233555
0.0238102
0.0233385
0.0230662
0.915103
3.26158
0.0234963
0.0376483
0.0239716
0.0559308
0.0495783
24.5648
0.0237943
0.0236962
0.0256106
0.0224359
0.0594404
0.0295812
0.041074
3.30431
6.04424
0.0234159
5.61249
0.0233075
0.0379331
0.0230538
0.0232891
0.0234663
2.22954
0.0743899
0.025622
0.0242357
1.14334
0.0633223
0.124519
0.0244546
0.0667542
0.0249601
2.48795
0.0522611
0.0248883
0.0399455
0.0802051
0.0282779
0.0246959
1.02662
0.105255
0.0222033
0.0237291
0.0501972
11.4517
0.02595
0.0426369
0.0234014
0.0379294
0.0232556
0.025418
3.35826
0.0223563
0.0248879
0.386502
0.395378
0.345836
0.0244681
0.187567
0.064599
0.0726629
0.283437
3.28443
0.0590607
5.22922
3.45672
4.2768
0.0381616
2.69704
1.91603
3.7236
1.77125
0.0330803
0.0237584
0.0246421
0.0245398
0.0239711
0.0303323
0.0346893
0.0237853
0.0696524
0.655939
36.4623
3.65979
0.0251031
0.378264
0.0252752
5.98183
0.0249016
0.0235508
0.0224446
0.0221845
0.0256125
0.0258338
0.0232572
2.85051
3.40278
3.61873
0.0285434
0.0268839
0.0233088
11.3464
0.0224193
0.630149
0.0233349
3.54494
0.0390201
0.0228276
0.023493
2.8734
3.8734
0.0352513
3.54355
3.78227
0.0237545
0.0237886
0.0234069
0.0363222
0.637144
0.0258352
0.0250819
0.56037
0.0237598
3.14454
0.0268381
0.0243529
0.0231197
0.0694452
0.0258684
0.0237861
0.349466
0.0648786
0.200997
0.0246348
3.38033
2.63982
0.0821871
0.0237313
0.0259276
0.0245377
3.44112
0.0228642
0.624899
0.0237867
3.20174
2.39111
0.110144
0.0243813
0.0850554
0.0246002
0.02819
2.79931
0.0228751
0.0232602
0.204011
0.858762
0.335194
0.0280827
6.43678
0.0243737
0.0238817
0.0227924
0.0252647
0.599695
0.0238466
0.869158
0.0690901
13.7353
1.0725
0.0850357
0.050905
0.0233173
4.21438
0.0248123
0.024324
0.0225531
0.0735908
0.0245928
0.0281169
0.0339616
0.0243267
0.0235225
1.1569
0.0577022
0.0253867
0.023965
0.0245491
0.0235663
0.0230723
2.51495
0.0283885
0.387314
0.025224
0.0241619
0.035344
0.181244
0.555111
0.024507
3.00541