/*--------------------------------*- C++ -*----------------------------------*\
| =========                 |                                                 |
| \\      /  F ield         | OpenFOAM: The Open Source CFD Toolbox           |
|  \\    /   O peration     | Version:  v2012                                 |
|   \\  /    A nd           | Website:  www.openfoam.com                      |
|    \\/     M anipulation  |                                                 |
\*---------------------------------------------------------------------------*/
FoamFile
{
    version     2.0;
    format      ascii;
    class       surfaceScalarField;
    location    "100";
    object      phi;
}
// * * * * * * * * * * * * * * * * * * * * * * * * * * * * * * * * * * * * * //

dimensions      [0 3 -1 0 0 0 0];
oriented        oriented;


internalField   nonuniform List<scalar> 
55332
(
-0.242324
0.255534
-0.0132096
0.348651
-0.0485857
-0.300066
-0.250241
-0.0333173
0.283558
0.0991192
-0.309167
0.210048
-0.311899
0.0495736
0.262325
-0.317247
0.143331
0.173916
0.0355586
-0.169566
0.134008
-0.000866963
0.131311
-0.130444
0.390086
-0.323635
-0.066451
-0.0152111
0.0153394
-0.00874157
0.00217347
0.0065681
0.050848
0.064429
-0.115277
-0.0329835
-0.0371779
0.0701614
-0.124723
-0.095723
0.220446
0.00750921
-0.00572741
-0.0017818
0.399706
-0.29039
-0.109316
0.0497434
-0.299984
-0.142965
0.146792
-0.00382641
0.234592
-0.388647
0.154055
0.172464
0.0808539
-0.253317
-0.140539
-0.0346373
0.175176
-0.220875
0.207914
0.0129603
-0.00664867
-0.258911
0.265559
0.0363522
0.0104198
-0.046772
-0.0609088
-0.25099
0.285173
-0.36743
0.0822564
-0.0223711
0.00552684
0.0168443
-0.0910754
0.182547
0.00695621
-0.00862508
0.00166886
0.20936
0.0640557
-0.273416
0.240236
-0.231454
-0.00878178
-0.0775406
-0.154553
0.232094
-0.229995
0.271554
-0.0415589
0.166607
-0.153605
-0.013002
-0.0385513
-0.229914
0.268465
-0.32537
0.225054
0.100316
-0.0157002
-0.00667094
0.218234
-0.206825
-0.0114096
0.36731
-0.132718
-0.155103
0.258229
-0.103126
-0.138672
0.202917
-0.0642449
-0.220318
-0.142468
0.362786
0.262906
0.1368
0.170462
-0.248002
-0.0142136
0.00333635
0.0108773
0.255961
-0.272565
0.0166034
-0.00974786
-0.00446579
-0.0698001
0.120648
0.0608284
-0.331834
0.271006
-0.16083
-0.0709352
0.231765
0.111716
-0.317732
0.206016
0.00172323
0.345689
-0.347412
0.288458
-0.191463
-0.0969949
0.131151
0.00292054
-0.134072
0.307595
-0.136595
-0.171
-0.17461
0.178359
-0.00374941
0.264992
-0.263269
0.226491
-0.319896
0.0934058
0.390892
-0.141371
-0.249522
0.0199289
0.220307
-0.136915
0.136048
0.0073619
0.000528503
-0.00789041
0.0310439
-0.171583
-0.0775419
0.362715
-0.00451059
-0.00247565
0.00698624
-0.0303537
-0.0814084
0.111762
0.257263
0.0120754
-0.269338
-0.0319271
0.0166086
0.0153184
-0.000750952
0.00102665
-0.000275694
-0.0161028
0.021607
-0.00550426
0.263418
0.103892
0.118629
-0.250576
0.131946
-0.324171
0.114081
0.21009
0.225587
-0.232236
0.339172
-0.0344896
-0.304683
-0.358906
0.121853
0.237053
0.0424527
-0.0338731
-0.00857959
-0.00701078
0.0302993
-0.0232885
-0.220525
0.286032
-0.0655072
0.0445755
-0.0225936
-0.0219819
0.00823347
0.00360094
-0.0118344
0.250217
0.0681954
-0.318413
-0.00683087
-0.0173881
0.024219
-0.420318
0.259611
0.160707
-0.0158369
-0.000207629
0.0160445
-0.125049
0.196662
-0.0716122
-0.0147276
0.0459951
-0.0312674
0.310123
-0.0541622
0.147778
-0.11222
-0.117441
-0.121701
0.239142
-0.403751
0.185807
0.217944
-0.00897818
-0.00209905
0.0110772
-0.268546
0.312142
0.0208493
-0.332991
0.170576
-0.148165
-0.0224114
0.172134
0.0519473
-0.224081
-0.110821
0.283285
-0.130684
0.10033
0.131588
-0.174632
0.0415509
0.297621
0.0724343
-0.0393503
-0.033084
-0.0245085
-0.150101
-0.100326
0.266393
-0.166067
0.424465
-0.281626
-0.142839
0.00813023
-0.00117402
-0.345339
0.0338182
0.311521
0.328205
-0.10097
-0.227235
-0.00342888
0.00925796
-0.00582908
0.0464068
-0.0277954
-0.120758
0.283497
-0.162739
0.113523
-0.244604
0.131081
-0.403094
0.195243
0.207851
-0.125136
0.375354
-0.219182
-0.183912
0.192921
-0.0742919
0.292062
-0.192943
0.01246
-0.00422652
-0.0518085
0.0370808
-0.190466
-0.0343624
0.224828
-0.256256
0.133242
0.123014
0.284556
-0.171461
-0.113095
-0.0389727
0.0319619
-0.145184
-0.117891
0.263075
-0.185314
0.29703
0.0287127
-0.0263542
-0.00235851
-0.228277
0.109803
0.118474
-0.00129976
0.011209
-0.00990924
0.108027
-0.25321
-0.00978931
0.000811129
0.0172652
0.0551691
0.0169763
-0.00501122
-0.0119651
0.241778
-0.383016
0.141238
0.353214
-0.0410725
0.34751
-0.293515
-0.0539948
-0.423853
0.275574
0.14828
-0.0773718
-0.0767142
0.154086
-0.0309759
-0.231703
0.262679
-0.403653
0.138428
0.265225
-0.166219
0.102987
0.0632329
0.308824
-0.259251
0.0559669
-0.0444768
-0.0114901
0.124263
0.160294
0.252525
-0.38646
0.133935
0.24289
-0.0707569
0.234729
-0.105046
-0.129683
0.0145234
0.302608
-0.317131
-0.164672
-0.0915836
-0.211837
0.089657
0.12218
0.274064
-0.259541
-0.022358
0.00625525
0.239986
0.0882188
0.355347
-0.0177545
-0.337592
0.398021
-0.291489
-0.106532
0.137582
-0.117148
-0.0204338
-0.00139312
0.00875502
-0.178018
0.339673
-0.161654
0.000507548
-0.0012585
-0.0114643
-0.282138
0.293602
-0.204735
0.25446
-0.0497253
0.00378353
0.00429306
-0.00807659
0.211277
-0.316719
0.105442
-0.184222
0.0322339
0.151988
0.299851
-0.0771969
-0.222654
0.0510289
-0.000484339
0.00140423
-0.000919892
0.228665
-0.0954235
0.0100655
-0.0116271
0.00156162
-0.0106518
0.0142353
-0.00358352
-0.0332588
-0.157207
-0.0516488
0.0173994
0.0342495
0.0264772
0.00223557
0.256086
0.133999
0.359237
-0.106712
0.0952063
-0.369189
0.273983
-0.0133201
0.0134352
-0.000889016
-0.00078015
0.00166917
-0.033745
0.0925882
-0.0588431
0.11554
-0.164074
0.0485335
-0.165006
0.269045
-0.104039
-0.0124105
0.0133899
0.120624
0.0169578
-0.155489
-0.00521712
0.160706
0.117054
-0.234495
0.00660728
-0.0317182
0.025111
-0.133966
-0.0943112
0.00368203
-0.00333514
-0.000346891
0.131721
-0.278258
0.146537
-0.00137682
-0.0138342
-0.0330259
-0.0828268
0.115853
0.122197
0.00301754
-0.125215
0.0200094
0.254055
-0.0109372
0.0555981
-0.0446609
-0.150045
-0.00544394
-0.162401
0.259799
-0.0973983
0.273291
-0.253281
0.0187086
-0.0255394
-0.014963
-0.007782
0.022745
0.0894026
-0.0772806
-0.012122
0.0538612
-0.00566301
-0.0481982
-0.420549
0.300162
0.120387
-0.36211
0.0167708
0.0202002
-0.0946131
0.0744129
0.348385
-0.265109
-0.0832758
0.326167
-0.204525
-0.121641
0.188837
-0.0135515
-0.175285
0.270777
-0.355009
0.0842315
0.372602
-0.0285516
-0.344051
0.319933
-0.352684
0.0327511
-0.00792617
-0.00262006
0.0105462
0.152799
-0.0306019
0.279819
0.0685659
0.36525
-0.335101
-0.0301491
0.20722
-0.0485747
-0.158645
-0.179395
-0.0918537
0.271249
-0.0308152
0.0465738
-0.0157586
0.0698679
0.126906
-0.196774
-0.0269429
0.368347
-0.341404
-0.133388
-0.00149597
-0.0185076
0.0200036
0.345659
0.0866007
0.291652
-0.303031
0.0113786
-0.114434
-0.00874157
0.000542307
0.178466
-0.119157
-0.0593095
0.0520002
-0.0712025
0.0192023
0.00490244
-0.0273811
0.0224786
-0.279563
0.195058
0.0845052
0.0199371
-0.0160308
-0.00390627
0.011476
-0.0096039
0.239106
-0.270082
0.239729
0.158292
-0.199984
-0.22387
0.336698
-0.252947
0.0230331
0.00786122
0.046
-0.367169
0.321075
0.0460941
0.38557
-0.175906
-0.209664
-0.136974
0.0633599
0.0736143
0.00818308
0.265108
0.0119756
-0.00191016
0.16885
-0.0376986
0.426429
-0.261079
-0.16535
-0.00306762
-0.0127693
0.00124125
0.00244078
0.0293179
0.339029
-0.178912
0.0538631
-0.00703712
0.00554116
0.206084
-0.436736
0.230652
0.160523
-0.217759
0.0572367
0.0890423
-0.338291
0.249249
-0.134561
0.0989816
0.0355798
0.115092
0.113574
0.306672
-0.298489
-0.0913308
-0.120506
0.250554
-0.349585
0.0990308
0.338818
-0.182828
-0.15599
0.135791
0.034785
0.428118
-0.16799
-0.260128
0.178699
0.0285208
0.00377406
0.00373515
-0.325101
0.0970898
0.228012
0.350028
-0.0160066
-0.334021
0.21364
0.0292508
-0.24819
0.120551
0.12764
0.323132
-0.313119
-0.0100128
0.361217
-0.127411
-0.233807
0.248494
0.102674
-0.351168
0.255038
-0.208459
-0.0465788
0.354823
-0.121591
-0.233231
0.2608
-0.0778029
0.0113784
0.000472851
-0.0118513
0.0559572
0.11065
0.0130597
-0.0016812
-0.0292763
-0.118888
0.348164
-0.108177
-0.000260405
0.0950989
0.229013
-0.324112
0.343795
-0.0953016
0.109871
0.00422016
-0.114091
-0.0571069
-0.185217
-0.323689
-0.0434804
0.0363997
-0.0263388
-0.010061
-0.0154103
0.307063
-0.415277
0.295837
0.11944
-0.0519192
0.16746
0.0416229
0.267201
0.288106
-0.231886
-0.0562201
-0.219642
0.0354197
0.0460957
-0.225491
0.0245652
-0.145713
0.121148
0.0217108
-0.0168083
0.11382
-0.329101
0.215281
-0.012764
0.00211221
0.239077
0.093369
-0.332446
-0.194026
0.38904
-0.195014
0.000908621
0.0251228
0.330224
-0.11235
-0.217179
0.2182
-0.00102003
-0.0194194
0.233059
0.0212488
0.000461944
-0.29412
0.247993
0.0461268
0.250231
-0.381891
0.131659
0.0163295
-0.0434936
0.0271641
0.117245
-0.29626
0.179015
0.0124606
-0.00891172
-0.00354887
-0.0477276
0.0609576
-0.01323
0.00163296
-0.00614354
0.0107373
-0.0257003
-0.0118305
0.0105308
0.194599
-0.202824
0.008225
-0.357133
0.113163
0.24397
-0.231947
-0.125186
0.166076
0.10577
-0.271845
0.128126
-0.375479
0.247353
-0.00462182
0.000526577
0.00409524
0.0699057
0.00841012
0.0130263
-0.0214364
0.00769869
0.015572
-0.0232706
-0.182185
0.310519
-0.128334
-0.0876987
-0.10977
0.197469
0.12741
0.0510565
0.406205
-0.135427
-0.194089
-0.0142254
-0.0177017
-0.0117948
0.000167667
0.25005
0.0937456
0.255867
-0.245406
-0.010461
0.00175716
0.00762381
-0.00938097
0.0436991
-0.029954
-0.0137451
0.0137603
0.199876
0.0885825
0.33685
-0.0867998
0.291287
0.0318446
0.251418
-0.387445
0.136027
0.219085
0.107691
-0.326776
0.0393637
0.28057
0.380825
-0.11792
0.113287
-0.291305
-0.0103829
0.0307342
-0.0203513
0.295821
-0.0959454
0.0302909
-0.0148713
-0.0154196
0.357792
-0.10756
0.0100587
0.00310389
-0.0131626
-0.0197772
-0.261595
0.281372
0.261993
0.118832
0.0308883
-0.0137283
-0.01716
-0.150178
-0.253475
-0.345991
0.12198
0.224011
0.0926648
-0.226284
0.133619
0.0176967
0.332331
-0.00679068
0.0719342
-0.0651435
-0.145423
0.134008
0.011415
0.375759
-0.190116
-0.185642
0.244565
-0.264342
0.020705
-0.0136852
-0.00701978
-0.00675851
0.0431107
0.00500477
0.00936118
0.0105759
-0.114001
-0.0968134
0.210815
0.00271274
-0.00761048
-0.00246082
0.0100713
0.0348303
-0.00737812
-0.0274522
-0.270245
0.105238
0.0183327
-0.0627394
0.0444068
0.316033
-0.202213
0.00195578
-0.00443143
0.0906799
0.205141
0.0274811
-0.274816
0.247335
-0.0641342
0.0531971
-0.00303482
0.0165876
-0.0135527
-0.251475
-0.168843
-0.26054
0.384734
-0.124194
0.0401276
0.0158394
0.0061957
-0.00241218
-0.0760447
0.00881756
0.0672271
-0.422354
0.197941
0.224413
0.162202
-0.342692
0.18049
0.00760977
-0.00760977
-0.135212
-0.184268
0.31948
-0.228908
0.201087
0.0278209
-0.359632
0.140107
0.219525
0.00836562
-0.00598646
-0.00237916
0.376649
-0.310893
-0.0657563
0.378897
-0.217689
-0.161208
0.399347
-0.365751
-0.0335963
0.0808025
-0.122709
0.0419065
0.0742577
-0.00769981
-0.0665578
-0.086653
-0.0246645
0.111317
0.351204
-0.280717
-0.0704871
0.342259
-0.28143
0.0103202
0.00360171
-0.013922
-0.23442
-0.125213
-0.00773963
0.00127788
0.00646175
-0.00364651
0.0155823
-0.0119358
-0.00666387
0.00155991
0.00510396
-0.274833
0.395703
-0.12087
0.00294808
0.0099644
-0.0129125
0.0222684
0.0125619
-0.219321
-0.144186
-0.0104583
-0.00133646
0.0324997
0.0140742
0.0557516
0.343596
0.0491904
-0.000962512
-0.0482278
0.0160569
-0.0538086
0.0377518
0.00197595
-0.00958643
-0.352798
0.233047
0.119751
0.106644
0.228381
-0.135716
0.187558
-0.272831
0.0852726
-0.010971
0.0122759
-0.00130494
0.151321
-0.119645
-0.0316758
-0.0204027
-0.0312461
-0.234428
0.180086
0.0543416
0.298146
0.0530584
-0.000889016
0.291942
-0.125866
0.384571
-0.127463
-0.257108
-0.273988
0.301469
-0.150764
0.0733921
0.0921817
-0.17988
-0.353389
0.199619
0.15377
-0.235974
0.320037
-0.0840627
0.153148
0.225749
-0.438288
0.18878
0.249508
-0.0248995
0.010242
0.0146575
0.000913145
0.0660003
-0.301974
-0.0894531
-0.244189
0.333642
-0.219919
0.368924
-0.149005
0.1922
0.198693
0.0141893
-0.00386901
0.301429
-0.167762
-0.133667
-0.119049
0.161243
-0.0421949
-0.107237
0.294796
0.0498013
-0.0134347
0.000406315
0.0130284
-0.214465
-0.190438
-0.128534
0.318972
-0.0216988
-0.0214441
0.0431429
-0.220914
0.271391
-0.0504765
-0.0098251
0.00402202
-0.012939
0.00891702
0.01096
-0.00920288
0.0826339
-0.0624337
-0.148054
-0.176117
-0.122071
0.209963
-0.0878919
0.00102472
0.144788
0.165336
0.129507
-0.084616
-0.0448906
-0.223179
0.114256
0.108922
-0.00350553
0.0135642
-0.0448963
0.00554592
0.382211
-0.131656
0.241235
-0.252699
-0.0146503
-0.306362
0.321012
-0.00267113
0.0071573
-0.00448617
0.414609
-0.292203
-0.122406
-0.0671232
0.112009
-0.0448857
0.0185659
0.0178339
0.151546
-0.265961
0.114415
-0.106508
0.0393846
-0.276245
-0.246246
0.124545
-0.0613758
-0.0381117
0.0994875
-0.0559564
0.253594
-0.197638
0.203666
-0.227818
0.0241518
0.115618
-0.306056
0.113517
0.151983
-0.278667
0.273651
0.00501651
-0.0283595
0.25485
0.0328217
-0.0658052
0.229414
0.0264533
0.156553
0.144875
-0.029109
0.13898
-0.242762
-0.0957282
0.338491
0.0393799
-0.0201334
-0.0192466
-0.261554
0.161228
-0.356661
0.050299
-0.0104419
-0.134981
0.0731114
-0.255946
0.182835
0.142159
-0.0589613
-0.0831977
-0.029303
0.0465534
-0.0172504
0.188567
-0.118699
0.0123086
-0.00131148
-0.0109971
-0.292976
0.23702
-0.0214494
0.0734496
0.00931064
-0.0340281
0.0247175
0.204951
0.0500867
0.352927
-0.313527
-0.0393991
0.0587012
0.0708053
0.382887
-0.167491
-0.215396
0.251254
-0.37952
0.128266
-0.186303
-0.23605
-0.293293
0.132549
0.160744
-0.0788709
-0.0873485
0.359829
-0.0978359
-0.142892
-0.182478
-0.00454246
-7.93646e-05
0.0458178
-0.00293771
-0.0428801
-0.0497136
-0.201855
0.251568
0.123929
0.183666
-0.283521
0.233807
0.35085
-0.356551
0.00570041
-0.160164
0.249611
-0.0894466
0.139183
0.140636
-0.0346396
0.238306
-0.225997
0.321203
-0.130928
-0.204188
0.335116
0.218407
-0.0870956
-0.0114298
-0.272413
0.0296503
-0.0152663
0.0192884
0.265397
-0.113851
-0.277418
0.162104
0.115313
-0.0587795
0.286149
-0.189368
-0.0967802
0.0137946
0.0255853
-0.1133
0.137107
-0.023807
-0.204907
0.167987
0.0369192
0.116207
0.176046
-0.292253
0.29861
0.0612195
-0.132838
-0.0534172
0.186255
0.152476
-0.0982547
-0.0542216
0.108144
0.179962
-0.134729
-0.149359
0.284089
0.308977
0.0439492
0.103938
-0.0997179
-0.0754454
0.235968
-0.146503
-0.14679
-0.132723
0.324382
-0.339793
0.366153
-0.129299
-0.236854
-0.14825
-0.0924399
0.24069
0.181457
0.0131429
0.406021
-0.209141
-0.19688
0.358962
-0.107708
0.29257
-0.0438689
-0.248702
0.0512063
0.144414
-0.195621
0.00489466
-0.00293888
0.32987
-0.318599
-0.0112706
0.0162284
-0.0128256
-0.00340275
-0.103715
-0.000555261
0.10427
-0.106073
-0.211174
-0.223024
-0.112712
0.335737
0.341801
-0.0906532
-0.251148
-0.00872664
-0.34586
0.0698281
0.276032
0.333664
-0.343208
0.00954377
-0.392912
0.216666
0.176246
0.00171183
0.00589793
-0.172187
-0.105231
0.127151
-0.272926
0.145776
0.0347627
0.0116441
-0.19404
-0.0563568
0.250397
0.123107
-0.0274726
-0.0956344
0.0683587
0.265305
-0.0170546
0.0140198
0.0491835
0.275199
0.263606
-0.124423
0.0203625
0.0538952
0.273585
0.0739244
0.0166629
-0.0190368
0.0153903
0.364406
-0.0157546
0.00206449
0.0228351
-0.0248996
0.0110731
-0.356933
-0.118675
-0.267785
-0.0696061
0.311385
-0.112147
0.00843221
0.0034788
-0.0118353
0.00835654
-0.0101283
0.0185384
0.010396
-0.0108062
0.000410149
0.237965
-0.374527
0.136562
0.101523
0.116884
-0.18396
0.0791651
0.104795
0.234816
0.102034
0.0938384
0.136193
-0.230031
0.0628376
0.192696
0.15641
0.0386481
-0.00678981
0.00626156
0.000528256
-0.365528
0.145604
0.219925
0.0339922
0.240744
-0.274736
-0.0841781
-0.248333
0.332512
-0.249702
0.0945994
-0.0784106
0.118954
-0.0405435
-0.11874
0.141088
-0.0223484
0.149706
-0.365969
0.216263
-0.0121318
0.0156106
-0.162862
0.342583
-0.179721
0.333273
-0.0760103
0.0879286
-0.113871
0.025942
0.237551
0.0550196
-0.0190369
-0.051497
0.070534
-0.260731
0.219915
0.040816
0.094059
-0.267572
0.173513
-0.26357
0.145679
0.163492
0.0947367
-0.407719
0.271725
0.135994
0.048924
-0.00310623
0.038021
-0.085972
-0.0510023
-0.350978
0.123938
0.227039
-0.0156798
-0.00606705
0.0217469
0.26599
-0.0674286
-0.198561
0.314334
-0.104974
0.156195
-0.388077
0.231882
0.0097467
-0.0156737
0.00592705
-0.188699
-0.248037
-0.222265
-0.216023
-0.135669
0.204616
-0.0689466
0.00533544
0.00181615
-0.00715159
-0.166094
0.260153
-0.217119
0.410128
-0.172163
0.0454401
0.0173288
-0.0627688
-0.00235532
-0.0110794
-0.257007
0.0730852
0.183922
-0.161543
-0.18654
0.348083
0.0598644
-0.09865
0.333466
0.31547
-0.201388
-0.00553892
0.00717188
-0.0358685
-0.142625
0.178494
0.0967431
0.0557332
-0.206785
0.332818
-0.126033
0.0257523
0.023533
-0.0492853
-0.310101
0.147239
0.0178675
0.0488152
-0.0666827
-0.00474309
0.00474309
0.0627312
-0.0172912
0.00864686
0.11446
0.0123343
-0.0426846
0.0303503
0.0652241
0.1771
-0.242324
-0.22031
0.325367
-0.105057
-0.379656
0.181886
0.19777
-0.0294214
0.0361345
-0.00671317
-0.00666387
-0.160841
0.0411957
-0.0263897
-0.194485
0.0916777
-0.302019
0.210342
-0.0336157
0.0173891
0.0162266
0.256989
-0.148963
-0.40326
0.183939
-0.17295
0.222951
-0.0500001
0.0197605
0.0226922
0.254746
0.169719
-0.126982
0.0977057
-0.0357516
-0.0189219
0.0282325
-0.0179393
0.0436916
-0.0089066
0.0129788
-0.00407219
0.151979
-0.36448
0.212501
-0.118403
-0.236606
0.0514579
0.20919
-0.347971
0.138781
0.100027
0.146164
-0.246192
0.0213873
-0.0136886
-0.164155
0.025483
-0.0908164
-0.0425376
0.133354
-0.044432
0.015129
-0.12104
0.338357
-0.128987
-0.20937
0.206364
0.0254601
-0.231824
0.0313588
0.186876
0.28657
-0.0918482
-0.194722
-0.394761
0.280944
0.113818
-0.131202
0.353591
-0.22239
0.187723
-0.322935
0.0483766
0.000813741
0.00582287
-0.00582287
0.343397
-0.191418
0.100196
-0.32322
0.101771
0.257466
-0.00725946
-0.0835662
0.0908257
0.0935559
-0.218279
0.0477378
0.252113
-0.00956231
0.00163614
0.15335
-0.348425
0.195075
-0.103108
-0.0118818
0.11499
0.0898158
-0.235416
0.1456
-0.0856204
0.324697
0.154731
0.0855546
-0.240285
-0.0939124
-0.0812298
0.0474848
0.32307
-0.0855194
-0.358142
0.22694
-0.263054
0.321532
-0.058478
-0.0211312
-0.0861212
0.107252
-0.0132425
-0.00518969
0.0184322
0.127307
0.204431
0.138966
-0.331946
0.247768
-0.325959
0.212201
0.113758
0.0895292
0.252272
0.0703434
-0.0800518
0.00970842
0.118687
0.257071
0.278566
0.149552
0.0785574
-0.0694073
-0.00915007
-0.113624
-0.290128
0.131114
0.00599269
-0.209229
0.30623
-0.0970009
0.289502
-0.386968
0.0974666
-0.111979
0.0440134
0.0679657
-0.106498
0.0671661
0.0393324
-0.127716
-0.236764
-0.108512
0.0873809
0.0993868
-0.308616
0.00892941
0.00144387
-0.0103733
0.147997
0.0538141
-0.201811
-0.382222
0.163732
0.21849
-0.107491
-0.390186
0.326704
0.0634819
-0.201299
-0.00339088
-0.0119697
0.0153606
0.00355338
-0.0246513
0.00989781
0.0147535
-0.144933
-0.0309686
0.175902
-0.233494
0.369508
-0.136014
0.142999
0.0769954
-0.219994
0.19995
-0.420269
0.0885595
-0.0182161
-0.171335
0.299582
0.0038034
0.0011993
-0.0050027
0.0480405
0.0939978
-0.142038
-0.00191538
-0.00582425
0.244666
-0.334119
0.00601736
0.0143849
-0.0204023
-0.156311
-0.0614481
0.299963
-0.182719
7.29072e-05
0.0925152
-0.266031
-0.0648606
0.330892
0.0972731
0.225797
0.141863
0.161896
-0.303758
0.117237
0.0305416
0.0639474
-0.331577
0.26763
-0.116685
-0.257842
-0.348661
0.115581
0.23308
0.04889
0.275065
-0.323955
0.0202056
-0.123314
-0.00554585
0.00357193
0.00197392
0.221762
-0.127923
0.0109738
-0.00768768
-0.00328613
0.0155086
-0.0057619
0.00532625
0.00614973
0.410165
-0.21481
-0.195355
-0.0370996
-0.237197
0.274297
-0.0722961
-0.245436
0.296773
-0.207731
0.266359
-0.386116
0.119757
0.229181
-0.266281
0.380069
-0.0905674
0.221932
-0.073935
-0.0502529
0.181841
-0.000920451
-0.00139961
0.00232006
-0.201511
0.322293
-0.120782
-0.00534734
-0.0209914
-0.232457
0.15047
0.0819867
-0.345475
0.242498
0.102978
-0.00995683
0.237779
-0.227823
-0.293693
-0.0652128
0.373162
-0.216967
0.242542
0.398461
-0.139543
-0.258918
0.249708
-0.30005
0.0503426
0.038085
-0.0217556
-0.145449
0.235265
0.231549
0.0839202
-0.314972
0.325382
-0.0104097
0.0218404
-0.214331
0.192491
0.0890846
0.234509
-0.323593
0.0279887
-0.114302
0.0863133
-0.337583
0.334587
0.00299661
0.124225
0.216413
-0.340639
-0.145726
-0.127201
-0.0925986
-0.0218488
0.114447
0.343389
-0.253859
0.19938
0.227049
-0.269572
0.0341555
-0.172735
0.0596904
0.113044
0.15204
0.258088
-0.033307
0.0116082
0.0403538
0.181008
-0.221362
0.133875
-0.0530726
-0.205781
0.227622
-0.0668716
-0.106363
0.173234
0.109439
-0.342933
-0.295845
0.0755354
0.383975
-0.23427
-0.104093
0.250784
-0.146691
0.392294
-0.324519
-0.0677755
-0.282061
-0.0639299
-0.227258
-0.0423133
0.304056
-0.20976
-0.0942966
-0.255586
-0.12407
0.112078
0.226653
-0.338731
-0.0180076
0.0733177
-0.0553101
-0.125299
0.348615
-0.223316
0.174721
-0.24462
0.0698985
-0.330944
0.240291
-0.0502084
0.142303
-0.178171
0.00695737
-0.00836587
0.0014085
-0.0395027
0.369372
0.00756803
-0.0249561
-0.383393
0.181566
0.201827
0.159681
-0.347907
0.188226
0.237074
-0.0224316
-0.214642
-0.164766
0.375934
-0.211168
-0.00205372
0.00113327
-0.219892
-0.0503529
-0.146536
-0.0996728
0.246209
-0.210714
-0.172678
-0.330327
0.0931097
0.237218
-0.00759715
-0.0464009
0.053998
0.224213
0.158674
0.0638227
0.18024
-0.244063
-0.109593
-0.051248
-0.299314
0.289358
-0.0172057
0.0338144
0.182187
-0.0398838
-0.0231809
-0.00171855
0.158383
0.30556
-0.0963702
-0.271523
-0.0535783
-0.291793
0.0312529
0.0121093
0.000199292
0.326522
-0.201637
-0.124884
0.0099677
0.178869
0.0110481
0.00113424
-0.0121824
0.075532
-0.00783815
-0.0676938
-0.165367
0.205721
0.367794
-0.124572
-0.243222
0.398925
-0.246885
0.175411
0.134989
-0.3104
0.00830204
-0.0107629
-0.206441
0.00537873
0.0108497
-0.295112
0.217915
-0.180457
0.00153734
0.17892
-0.0981099
0.0510371
-0.00504202
-0.216386
0.0359286
-0.139337
-0.249311
0.0119656
-0.011057
-0.0482626
0.138738
-0.0904755
-0.21471
0.0910675
0.123642
0.216564
0.126025
-0.342589
0.0852161
0.253141
-0.267806
0.0918446
0.175962
-0.32457
0.19927
-0.150052
-0.0146102
0.121396
-0.106786
0.285399
-0.0570184
0.106619
0.299585
-0.360919
0.114049
0.24687
0.0124733
-0.0158642
0.186336
-0.112327
-0.0740083
0.161596
0.0195363
-0.181132
0.116517
0.0447269
-0.157459
0.0736711
0.0837883
-0.000705242
0.0107289
-0.0100236
-0.00916679
0.000505961
0.00866083
-0.00820845
0.0111565
0.0708576
0.367022
-0.239554
-0.127468
0.238732
-0.121678
0.136679
-0.264201
0.127522
0.0702486
0.191649
-0.261897
-0.219651
-0.110965
0.330616
-0.00121964
-0.0798525
0.0810721
0.284816
-0.270466
-0.0143498
-0.00166153
-0.241137
0.242799
0.0152134
-0.018282
0.00306862
-0.0653046
0.276582
0.379172
-0.175918
-0.203254
0.240045
-0.241707
-0.00695558
0.0100206
-0.00306499
-0.131652
0.047327
0.0843247
-0.0405049
0.176296
0.195558
-0.0141015
-0.308897
-0.0420801
-0.0111856
-0.0161955
0.169192
0.20998
-0.00499661
0.00232548
0.247461
-0.206728
-0.0407331
-0.133156
0.335948
-0.202792
-0.340189
-0.000498282
0.340687
0.0806885
-0.247618
0.16693
0.0578552
0.289144
-0.346999
0.368827
-0.239511
-0.129316
0.282905
-0.126351
0.272797
0.00844693
-0.281244
0.312965
0.055862
-0.236396
0.140673
-0.136714
0.324438
-0.0485414
0.285615
-0.217633
0.314901
-0.0972683
-0.116665
-0.265226
-0.152243
0.232931
-0.00763252
-0.332556
0.35755
-0.331772
-0.0257772
0.0101612
-0.000659392
-0.00950176
0.0749752
0.045649
-0.356886
0.136967
-0.0790767
0.222076
-0.226143
-0.119332
-0.0629091
0.0561184
0.0220934
0.00819754
0.0834188
0.142978
-0.226397
0.0972019
0.0295033
-0.158865
0.129362
0.306953
-0.131542
-0.112496
0.173687
-0.061191
-0.118599
0.0798353
0.0387638
-0.0803391
0.207245
-0.0422658
0.058598
-0.0163322
-0.306434
-0.0361596
0.342593
0.000527322
0.00480812
-0.0149098
0.0142046
0.160684
0.165483
0.0921
-0.352688
0.260588
0.300582
-0.0945664
-0.0320771
-0.00876158
0.0181228
0.319588
0.037962
-0.421687
0.214329
0.207358
-0.00890346
0.00239407
0.00650939
0.386656
-0.330119
-0.0565366
-0.0425407
0.032118
0.0104227
0.196589
-0.027961
-0.168627
0.170254
-0.244243
0.073989
-0.121652
0.0432415
0.324094
0.0625622
-0.0151959
-0.0273448
0.358573
-0.095155
-0.00178382
0.0159587
-0.0141749
0.0609483
-0.137663
-0.0530638
-0.0801679
0.133232
-0.326951
0.0205174
-0.165721
0.23597
0.0911299
-0.131642
0.0405117
0.12856
-0.229751
0.101191
0.0110318
-0.010942
0.389009
-0.110519
-0.27849
0.17182
0.0247685
-0.00722192
0.00848872
-0.00126681
-0.140801
-0.0316499
0.17245
0.0994008
0.0869348
-0.0575645
-0.268272
0.0022414
0.230713
0.11673
-0.347443
0.0495342
-0.325516
0.275982
0.00132108
0.0142585
-0.0155796
-0.071739
-0.133168
-0.1166
0.347313
-0.171455
0.028829
-0.0900813
-0.09954
0.189621
0.0171689
-0.0594347
0.00329112
-0.176594
-0.218168
0.00206209
0.0133798
0.0914452
-0.104825
-0.00568021
-0.0205794
0.0262596
0.223025
0.0623743
-0.0229755
0.0170786
0.00589689
0.0952962
-0.124405
0.0586751
0.15742
-0.216095
0.23922
-0.180545
-0.0816454
-0.0500062
0.128521
-0.32091
0.192389
0.214488
0.152534
0.0747309
0.0148748
-0.0896057
0.356766
-0.142278
-0.107244
-0.115935
0.231545
0.114731
-0.346276
-0.250436
0.146344
0.0294487
-0.292503
0.124772
0.0436708
-0.168442
0.0138578
-0.231547
-0.0179282
-0.135677
0.0634949
0.0259077
0.221187
-0.360778
0.139591
-0.0932444
0.0190482
0.0741962
-0.162629
0.391499
-0.22887
0.155866
-0.317174
0.161308
-0.00122036
0.00502376
-0.0327959
-0.239769
0.0217022
0.0276882
0.0106429
0.00469656
0.157422
-0.0409051
-0.221156
0.309825
-0.0886694
0.032938
-0.177871
0.0882309
-0.336489
0.248258
-0.192816
0.160419
0.0323964
0.18644
-0.209136
0.0226962
-0.171038
0.287245
-0.0144309
0.0109254
0.111468
-0.331119
-0.176918
0.32025
-0.227366
0.0808299
0.315794
-0.159928
-0.065305
0.0472974
0.261284
-0.0314869
0.360097
-0.155666
0.00110396
-0.010053
0.00894907
0.198055
-0.331969
0.133913
0.0142574
-0.0136898
-0.000567612
-0.00908719
-7.96011e-05
0.0197376
0.00696749
-0.0267051
-0.0130195
-0.281581
0.267959
0.0136219
-0.0127871
0.216713
-0.203926
0.00587104
0.243837
0.203725
-0.336881
0.238152
-0.284341
0.046189
0.289924
-0.153245
0.115051
-0.0111125
0.174586
-0.293819
0.119233
-0.0266384
0.318565
-0.12051
-0.209803
-0.116156
0.116937
0.197092
-0.31403
0.134145
-0.35221
0.218065
-0.196857
-0.205411
0.359668
-0.154257
-0.0630051
0.13798
-0.00777908
0.00777908
0.175663
-0.296421
0.421456
-0.23989
0.163302
-0.401884
0.238582
0.163239
0.25137
0.252495
-0.0977638
0.0589096
-0.0214765
-0.121489
-0.337974
0.132563
0.112912
0.170586
-0.00828
0.0043554
0.0039246
0.241007
-0.313303
0.0195218
-0.0174573
-0.0386259
0.0714476
0.291438
-0.230991
-0.0604478
0.235275
0.0149121
-0.250187
-0.355841
-0.0090202
0.364861
-0.31291
0.358649
-0.0457392
0.209658
0.132925
0.233118
0.155891
0.266163
-0.166398
-0.0997656
0.102628
0.255164
0.229435
-0.242222
-0.205414
0.00067932
0.306964
-0.104837
-0.202127
-0.0214388
0.019655
0.221942
0.303634
-0.20176
-0.0909138
0.292674
-0.288318
-0.0266539
0.321356
-0.19323
-0.163731
0.0512349
-0.341927
0.0549124
0.287015
-0.0405586
-0.0180378
0.0585964
0.3229
-0.28617
-0.03673
-0.00171924
0.0736534
0.150219
0.242075
0.0932123
-0.034985
-0.0582273
-0.240516
-0.149671
-0.00992175
-0.00245633
0.0123781
-0.132127
0.0771656
0.0549613
-0.308212
0.106452
-0.0426634
-0.173223
0.215886
0.00252028
-0.0951189
0.288806
-0.12552
-0.163287
-0.00424511
-0.0025447
0.0542406
0.0925509
-0.151134
0.37232
0.125815
-0.3326
0.2989
-0.0823363
-0.169677
0.307576
-0.137899
0.270522
-0.219697
-0.0508243
0.266553
-0.198358
0.169231
0.0654985
-0.176379
-0.117608
0.293987
-0.0108154
0.254946
-0.24413
-0.0800172
0.208578
0.403159
-0.239857
-0.0450675
-0.0669116
0.13478
-0.337679
0.202898
-0.0049736
0.000230507
0.11758
0.203279
-0.320859
-0.0793532
-0.262574
-0.293488
0.0439597
0.249528
0.0469881
0.24445
-0.272968
0.15014
0.122829
0.290361
-0.114315
0.273101
-0.0349485
0.162813
0.100741
-0.263554
-0.409496
0.295117
0.114379
0.284286
-0.295102
-0.0930482
0.0617677
0.0312805
0.0162491
0.0399744
-0.0562236
0.335666
-0.0693063
-0.123653
0.251497
-0.127845
0.00266994
-0.0231357
0.0204657
-0.0260498
0.113978
-0.232459
-0.117127
0.0120433
-0.00164728
0.315517
-0.0839717
0.0219321
-0.0206461
-0.00128603
-0.0625285
0.261762
-0.199233
0.179291
-0.180563
0.00127168
-0.240632
0.206159
0.0344728
0.0150426
-0.0165031
0.00146054
-0.00743453
0.000230199
0.00720433
0.122876
-0.182453
0.1333
0.049153
-0.0829808
0.197237
-0.00624429
-0.112495
-0.370743
0.161675
0.209069
0.178442
0.243014
0.0199776
-0.0201289
0.000151315
0.389654
-0.181451
-0.208203
-0.15326
0.368162
-0.214902
0.382005
-0.320605
-0.0614
-0.133157
0.342815
-0.11621
-0.0156525
-0.00744253
0.023095
-0.00319319
0.00748625
-0.0227084
0.0375518
-0.0148435
0.0130677
0.00818118
0.327245
0.05476
0.0124103
0.0140669
-0.288401
0.304181
-0.0157798
0.185576
0.204078
-0.0491924
0.173964
-0.143915
0.189379
-0.0454638
-0.34802
0.19476
-0.215867
0.0123735
-0.0267867
0.0144133
-0.017889
-0.0157267
-0.178455
0.27713
-0.0986748
0.177474
0.111333
0.245716
-0.180491
0.231138
-0.360615
0.129476
0.00721752
-0.0131759
0.00595833
0.215065
0.055457
-0.264949
0.13943
-0.0414618
-0.226345
0.0798876
-0.132951
0.196874
-0.331241
0.134367
0.0478467
0.0196782
-0.0675249
0.114639
-0.0695827
-0.0450566
-0.0243338
0.120786
-0.0964527
0.327963
-0.131088
0.00129046
0.00453242
0.38018
-0.163612
-0.216568
0.0104665
0.00372272
-0.191667
0.208193
-0.0165258
0.219717
0.354173
-0.219393
-0.4044
0.162655
0.241745
0.369775
-0.158384
-0.211391
0.12501
0.0994396
-0.0685193
-0.0309203
0.0172594
-0.00221683
0.409797
-0.117235
-0.292562
-0.155642
0.239466
-0.0838233
-0.207942
-0.157586
-0.177256
0.190701
-0.0134451
-0.316686
-0.0391548
0.324958
-0.261011
-0.100616
0.223068
-0.122452
-0.0309361
0.0071035
0.0238326
0.0220151
-0.0193452
-0.0712721
0.0035389
-0.0174663
-0.00550916
0.0310546
-0.208311
0.0156341
-0.014313
-0.307955
0.252036
0.0559192
0.227542
0.132555
-0.188387
0.0988834
0.0895034
-0.000588728
0.0148461
0.139953
0.0605512
-0.200504
-0.186041
0.371847
0.249488
-0.00590227
0.0258799
-0.0333256
-0.0100173
0.043343
0.058601
0.0346113
0.172345
-0.196989
0.0246433
-0.23789
0.00347051
0.0858221
-0.200348
0.114526
-0.193349
-0.0673818
-0.112459
0.198281
0.111357
0.0915602
-0.210342
0.345445
-0.135103