/*--------------------------------*- C++ -*----------------------------------*\
| =========                 |                                                 |
| \\      /  F ield         | OpenFOAM: The Open Source CFD Toolbox           |
|  \\    /   O peration     | Version:  v2012                                 |
|   \\  /    A nd           | Website:  www.openfoam.com                      |
|    \\/     M anipulation  |                                                 |
\*---------------------------------------------------------------------------*/
FoamFile
{
    version     2.0;
    format      ascii;
    class       surfaceScalarField;
    location    "100";
    object      phi_0;
}
// * * * * * * * * * * * * * * * * * * * * * * * * * * * * * * * * * * * * * //

dimensions      [0 3 -1 0 0 0 0];
oriented        oriented;


internalField   nonuniform List<scalar> 
55332
(
-0.242327
0.255538
-0.0132111
0.348651
-0.0485857
-0.300066
-0.250241
-0.0333174
0.283558
0.0991192
-0.309168
0.210048
-0.311617
0.0494634
0.262153
-0.317247
0.143332
0.173916
0.0355589
-0.169568
0.134009
-0.000815596
0.131242
-0.130426
0.390086
-0.323635
-0.0664509
-0.0152053
0.0153342
-0.00874631
0.00217465
0.00657165
0.0510602
0.0643325
-0.115393
-0.0329709
-0.0371758
0.0701467
-0.124723
-0.095723
0.220446
0.00750578
-0.00572408
-0.0017817
0.399717
-0.290382
-0.109335
0.0497435
-0.299984
-0.142782
0.146708
-0.00392629
0.234592
-0.388647
0.154055
0.172463
0.0808542
-0.253318
-0.140539
-0.034638
0.175177
-0.220665
0.207673
0.0129918
-0.00664846
-0.258911
0.265559
0.0362158
0.0105191
-0.0467349
-0.0608222
-0.250794
0.285173
-0.36743
0.0822564
-0.0223706
0.00553002
0.0168406
-0.0910761
0.182547
0.00695877
-0.00862766
0.00166889
0.209361
0.0640557
-0.273416
0.24046
-0.231547
-0.00891328
-0.077542
-0.154553
0.232095
-0.229991
0.271548
-0.0415562
0.166556
-0.1536
-0.0129565
-0.0385486
-0.229909
0.268457
-0.325198
0.225417
0.099781
-0.0156956
-0.00667506
0.218121
-0.206805
-0.0113153
0.36731
-0.132718
-0.155104
0.258229
-0.103125
-0.138772
0.203069
-0.064297
-0.220319
-0.142467
0.362786
0.262947
0.136769
0.170462
-0.248004
-0.0142117
0.0033375
0.0108742
0.255708
-0.272382
0.0166732
-0.00974415
-0.00446752
-0.0697349
0.120795
0.0608285
-0.331834
0.271006
-0.160829
-0.0709337
0.231763
0.111712
-0.317729
0.206017
0.00172299
0.345689
-0.347412
0.288459
-0.191464
-0.0969948
0.131152
0.00291963
-0.134072
0.307596
-0.136595
-0.171001
-0.174559
0.178293
-0.00373364
0.264992
-0.263269
0.22649
-0.319897
0.0934073
0.390821
-0.141246
-0.249575
0.0200388
0.220421
-0.13686
0.136045
0.00735808
0.00052918
-0.00788726
0.0310446
-0.171584
-0.077542
0.362715
-0.00453026
-0.00252119
0.00705145
-0.0305411
-0.0812956
0.111837
0.257099
0.0123449
-0.269444
-0.0318931
0.0165849
0.0153083
-0.000617878
0.000835949
-0.000218071
-0.0161074
0.0216099
-0.00550244
0.263419
0.103892
0.118487
-0.250589
0.132102
-0.324162
0.114078
0.210083
0.225588
-0.232236
0.339171
-0.0344894
-0.304681
-0.358866
0.121856
0.23701
0.0424513
-0.0339128
-0.0085385
-0.00701881
0.0303104
-0.0232916
-0.220523
0.286026
-0.0655033
0.0445851
-0.022605
-0.0219802
0.00822915
0.0036025
-0.0118317
0.250218
0.0681954
-0.318413
-0.00682847
-0.0173929
0.0242214
-0.420314
0.25961
0.160704
-0.0158412
-0.000207879
0.0160491
-0.125044
0.196648
-0.0716038
-0.0147348
0.0460037
-0.0312689
0.309862
-0.0541536
0.14778
-0.112221
-0.117415
-0.12176
0.239175
-0.403751
0.185807
0.217945
-0.00898279
-0.00210023
0.011083
-0.26854
0.312142
0.0208493
-0.332991
0.170561
-0.148139
-0.0224216
0.173026
0.0511477
-0.224174
-0.110822
0.283285
-0.130743
0.100201
0.131678
-0.174636
0.041551
0.29762
0.072479
-0.0391422
-0.0333368
-0.0245159
-0.150043
-0.100326
0.266393
-0.166067
0.424465
-0.281626
-0.142839
0.00813309
-0.00117432
-0.345339
0.0338183
0.311521
0.328206
-0.100971
-0.227236
-0.00342872
0.00925931
-0.00583059
0.0464664
-0.0277523
-0.120758
0.283498
-0.162739
0.113525
-0.244691
0.131166
-0.403094
0.195244
0.20785
-0.125137
0.375354
-0.219181
-0.183913
0.192908
-0.0744209
0.292062
-0.192943
0.012458
-0.00422882
-0.0518149
0.0370801
-0.190464
-0.0343622
0.224826
-0.256257
0.133242
0.123014
0.284445
-0.171315
-0.11313
-0.0389841
0.0319653
-0.145184
-0.117891
0.263075
-0.185314
0.297026
0.0286468
-0.0263338
-0.00231304
-0.228278
0.109803
0.118476
-0.00130045
0.0112147
-0.0099142
0.108027
-0.253211
-0.0097944
0.000811612
0.0169883
0.0554907
0.016974
-0.00501452
-0.0119595
0.241779
-0.383016
0.141238
0.353214
-0.0410726
0.347451
-0.293769
-0.0536816
-0.423854
0.275574
0.14828
-0.0777698
-0.0765452
0.154315
-0.030973
-0.231703
0.262676
-0.403542
0.138268
0.265274
-0.166222
0.10286
0.0633612
0.308506
-0.259042
0.0559384
-0.0444262
-0.0115122
0.124273
0.160172
0.252499
-0.386421
0.133923
0.242979
-0.0699531
0.234729
-0.105046
-0.129683
0.0145252
0.302608
-0.317133
-0.164673
-0.0915839
-0.211838
0.0896575
0.12218
0.274066
-0.259541
-0.0223624
0.00625494
0.239987
0.0882197
0.355347
-0.0177545
-0.337593
0.398021
-0.291489
-0.106532
0.137582
-0.117149
-0.0204326
-0.0013941
0.00875219
-0.178019
0.339673
-0.161654
0.000451389
-0.00106927
-0.0114643
-0.282138
0.293602
-0.204736
0.254497
-0.0497615
0.00379813
0.00432254
-0.00812068
0.211276
-0.316719
0.105443
-0.184221
0.0322339
0.151987
0.299857
-0.0772005
-0.222656
0.0510245
-0.000371498
0.00121492
-0.000843422
0.228666
-0.0954237
0.0100606
-0.0116215
0.00156088
-0.0106569
0.0142417
-0.00358474
-0.033258
-0.157206
-0.0516315
0.0173792
0.0342523
0.0264386
0.00220826
0.256086
0.133999
0.359201
-0.106702
0.0952063
-0.369189
0.273983
-0.0133144
0.0134298
-0.000963672
-0.000760789
0.00172446
-0.0337193
0.0925793
-0.05886
0.115538
-0.164084
0.0485466
-0.165006
0.269045
-0.104038
-0.0124054
0.0133848
0.120625
0.0169566
-0.155475
-0.00518436
0.160659
0.117093
-0.234508
0.00654779
-0.0316559
0.0251082
-0.133967
-0.0943113
0.00367016
-0.00332677
-0.000343389
0.131721
-0.278258
0.146538
-0.00137607
-0.0138292
-0.0332714
-0.0827376
0.116009
0.122202
0.00301632
-0.125218
0.0200106
0.254055
-0.0109219
0.0555806
-0.0446586
-0.150005
-0.00547027
-0.162401
0.259799
-0.0973982
0.273292
-0.253281
0.0187124
-0.0255409
-0.0149678
-0.00778158
0.0227494
0.0895408
-0.077651
-0.0118898
0.0537813
-0.00561009
-0.0481712
-0.420549
0.300162
0.120387
-0.36211
0.0167708
0.0201937
-0.0946085
0.0744149
0.348386
-0.26511
-0.0832764
0.326167
-0.204525
-0.121642
0.188868
-0.0136189
-0.175249
0.270918
-0.354968
0.0840498
0.372603
-0.0285516
-0.344051
0.319933
-0.352684
0.0327511
-0.00792965
-0.0026215
0.0105511
0.152804
-0.0306021
0.27982
0.0685665
0.36525
-0.335101
-0.0301491
0.207151
-0.0478869
-0.159264
-0.179396
-0.0918532
0.271249
-0.0308149
0.0465863
-0.0157714
0.0698678
0.126906
-0.196774
-0.0269429
0.368347
-0.341405
-0.133389
-0.00148086
-0.0185237
0.0200046
0.34566
0.0866004
0.291653
-0.303031
0.0113786
-0.114567
-0.00874631
0.000464452
0.17833
-0.119146
-0.0591842
0.0520178
-0.0711918
0.019174
0.00490282
-0.0273859
0.0224831
-0.279564
0.195058
0.0845053
0.0199396
-0.0160333
-0.0039063
0.0114758
-0.00960444
0.239107
-0.27008
0.239729
0.158292
-0.199984
-0.22387
0.336699
-0.25294
0.0230308
0.00779737
0.0459839
-0.367169
0.321075
0.0460942
0.38557
-0.175906
-0.209664
-0.136976
0.0633566
0.0736194
0.00818386
0.265108
0.0119698
-0.0019092
0.16885
-0.037698
0.42643
-0.26108
-0.16535
-0.00306793
-0.0127733
0.00122974
0.00244041
0.0293179
0.33903
-0.1789
0.053856
-0.00704111
0.00556025
0.206084
-0.436736
0.230652
0.160523
-0.21776
0.0572369
0.0890243
-0.338273
0.249249
-0.134562
0.0989872
0.0355752
0.115092
0.113574
0.306673
-0.298489
-0.0913313
-0.120506
0.250554
-0.349585
0.0990309
0.338818
-0.182828
-0.15599
0.135766
0.0347943
0.428118
-0.16799
-0.260128
0.17933
0.0278211
0.00377201
0.00373377
-0.325056
0.0970677
0.227988
0.350028
-0.0160064
-0.334022
0.214435
0.0285446
-0.24819
0.120551
0.127639
0.323132
-0.313119
-0.0100131
0.361169
-0.127372
-0.233797
0.248495
0.102674
-0.351169
0.254986
-0.208487
-0.0464986
0.354828
-0.121608
-0.23322
0.260677
-0.0777817
0.0113735
0.000472755
-0.0118462
0.0559082
0.110648
0.0130543
-0.0016808
-0.0292567
-0.118882
0.348165
-0.108178
-0.000260124
0.0950989
0.229013
-0.324112
0.343796
-0.095301
0.109886
0.00421458
-0.114101
-0.0571062
-0.185221
-0.323689
-0.0434805
0.0363776
-0.0263182
-0.0100594
-0.0154103
0.307063
-0.415277
0.295837
0.11944
-0.0519314
0.167469
0.0414919
0.267014
0.288107
-0.231881
-0.0562263
-0.21964
0.0354196
0.0460951
-0.225491
0.0245219
-0.145665
0.121143
0.021715
-0.0168122
0.11382
-0.329101
0.215281
-0.01277
0.00211303
0.239077
0.0933689
-0.332446
-0.194026
0.38904
-0.195014
0.000908302
0.0251228
0.330224
-0.112338
-0.216961
0.217997
-0.00103565
-0.0186388
0.233073
0.0212534
0.000461537
-0.294119
0.247996
0.046123
0.250215
-0.381879
0.131664
0.0164467
-0.0434596
0.0270129
0.117244
-0.29626
0.179015
0.012458
-0.00890777
-0.00355018
-0.0477551
0.0610946
-0.0133395
0.00167707
-0.00620733
0.0107375
-0.0257053
-0.0118359
0.0105355
0.194409
-0.202571
0.00816272
-0.357143
0.113178
0.243965
-0.231938
-0.125205
0.166076
0.10577
-0.271846
0.128131
-0.375482
0.247351
-0.004462
0.000545353
0.00391664
0.0699065
0.00841528
0.0130248
-0.0214401
0.00770368
0.0155713
-0.0232749
-0.182185
0.310519
-0.128334
-0.0877003
-0.109765
0.197465
0.127394
0.0509357
0.406082
-0.135164
-0.194087
-0.0142138
-0.0176793
-0.0117891
0.000167598
0.25005
0.0937452
0.256193
-0.245348
-0.0108451
0.00181018
0.00760539
-0.00941557
0.0436825
-0.0300372
-0.0136453
0.0137702
0.199876
0.0885824
0.33685
-0.0867991
0.291288
0.0318448
0.251418
-0.387445
0.136027
0.219085
0.107691
-0.326776
0.0393637
0.28057
0.380728
-0.117781
0.113286
-0.291305
-0.0105291
0.0308188
-0.0202897
0.295821
-0.0959453
0.0302503
-0.014858
-0.0153923
0.357784
-0.107569
0.0100626
0.00310544
-0.013168
-0.0197775
-0.261595
0.281373
0.262066
0.118662
0.0308613
-0.0137159
-0.0171454
-0.149977
-0.253565
-0.345994
0.122018
0.223976
0.0926658
-0.226284
0.133618
0.0176966
0.332331
-0.00685572
0.0719779
-0.0651222
-0.145267
0.133909
0.0113576
0.375759
-0.190116
-0.185643
0.244565
-0.264343
0.0207034
-0.0136799
-0.00702346
-0.00683001
0.0430459
0.00500777
0.00936063
0.010579
-0.114804
-0.096183
0.210987
0.0027138
-0.00760593
-0.00246215
0.0100681
0.0347687
-0.00733721
-0.0274315
-0.270245
0.105238
0.0182512
-0.0626083
0.0443571
0.316033
-0.202213
0.00196151
-0.00448271
0.0906797
0.205142
0.0270058
-0.274557
0.247551
-0.0641172
0.0531953
-0.00296033
0.0165319
-0.0135716
-0.251471
-0.168843
-0.26054
0.384734
-0.124194
0.0400802
0.0158582
0.0062277
-0.00242957
-0.0760386
0.00854323
0.0674953
-0.422321
0.197904
0.224418
0.162203
-0.342694
0.18049
0.00761295
-0.00761295
-0.135212
-0.184268
0.31948
-0.228803
0.201739
0.0270641
-0.359555
0.140059
0.219497
0.00839587
-0.00601112
-0.00238475
0.376649
-0.310894
-0.0657546
0.378898
-0.217689
-0.161209
0.399345
-0.36575
-0.0335951
0.0808307
-0.122753
0.0419222
0.074273
-0.00773323
-0.0665397
-0.0865947
-0.0249157
0.11151
0.351205
-0.28072
-0.0704843
0.342259
-0.281431
0.0103215
0.00360377
-0.0139253
-0.234336
-0.125219
-0.00769989
0.00127786
0.00642203
-0.00365128
0.015585
-0.0119337
-0.00666534
0.00156001
0.00510533
-0.274833
0.395704
-0.12087
0.00294931
0.00996942
-0.0129187
0.0222612
0.0125076
-0.219321
-0.144185
-0.0104533
-0.00133583
0.0325027
0.0140836
0.0557502
0.343595
0.0491692
-0.000953146
-0.0482161
0.0160631
-0.0538104
0.0377473
0.00197703
-0.00958296
-0.352798
0.233047
0.119751
0.106644
0.228381
-0.135715
0.187556
-0.272831
0.0852751
-0.0109668
0.0122713
-0.00130452
0.151322
-0.119647
-0.0316743
-0.0204071
-0.0312244
-0.234402
0.180099
0.0543031
0.298149
0.0530558
-0.000963672
0.291942
-0.125867
0.384571
-0.127463
-0.257108
-0.274282
0.301288
-0.151064
0.0732942
0.0921774
-0.179878
-0.35339
0.19962
0.15377
-0.235974
0.320037
-0.0840628
0.153147
0.22575
-0.438288
0.18878
0.249508
-0.0248209
0.0102484
0.0145725
0.000913031
0.0660004
-0.301974
-0.0894527
-0.24419
0.333642
-0.219919
0.368924
-0.149005
0.192113
0.198708
0.0141929
-0.00387137
0.301429
-0.167762
-0.133667
-0.11905
0.161244
-0.0421944
-0.107239
0.294795
0.0498006
-0.01358
0.000590072
0.0129899
-0.214465
-0.190438
-0.128534
0.318972
-0.0216958
-0.0214565
0.0431524
-0.220856
0.271372
-0.0505155
-0.00982694
0.00401932
-0.0129435
0.00892416
0.0109883
-0.00917814
0.0826279
-0.0624342
-0.148048
-0.176113
-0.122071
0.209963
-0.0878922
0.00102446
0.144701
0.165161
0.129506
-0.0846149
-0.0448914
-0.223179
0.114257
0.108923
-0.00350716
0.0135698
-0.0450429
0.00590068
0.382211
-0.131656
0.241235
-0.252699
-0.0146505
-0.306363
0.321013
-0.00270953
0.00721923
-0.00450969
0.414609
-0.292203
-0.122406
-0.0671245
0.112006
-0.044882
0.0185467
0.0178309
0.151546
-0.265961
0.114415
-0.106506
0.0393814
-0.276246
-0.246315
0.124554
-0.0613758
-0.0381108
0.0994866
-0.0559565
0.253594
-0.197638
0.203645
-0.227715
0.0240704
0.115618
-0.306056
0.113517
0.151983
-0.278357
0.273461
0.004896
-0.0283608
0.25485
0.0328217
-0.0657926
0.229417
0.026776
0.156553
0.144875
-0.0291084
0.138994
-0.242761
-0.0956831
0.338444
0.0394538
-0.0200597
-0.0193941
-0.261554
0.161228
-0.356662
0.0502991
-0.0103859
-0.134881
0.073027
-0.255881
0.182854
0.142159
-0.0589596
-0.0831998
-0.0292806
0.0465399
-0.0172593
0.188567
-0.118699
0.0123025
-0.00127491
-0.0110276
-0.292976
0.23702
-0.0214187
0.0734365
0.00921064
-0.0339563
0.0247457
0.204978
0.0500083
0.352926
-0.313528
-0.0393988
0.0587021
0.0708042
0.382878
-0.167488
-0.215389
0.251247
-0.379519
0.128272
-0.186306
-0.236015
-0.293293
0.132549
0.160744
-0.0789749
-0.0872469
0.359633
-0.0975669
-0.14247
-0.182728
-0.00437087
-9.11269e-05
0.0455615
-0.00265446
-0.042907
-0.0497146
-0.201853
0.251567
0.123929
0.183666
-0.28352
0.233806
0.35085
-0.356551
0.00570044
-0.160165
0.249611
-0.0894467
0.139183
0.140637
-0.0345692
0.238214
-0.225997
0.321203
-0.130928
-0.204188
0.335116
0.218342
-0.0871008
-0.0114259
-0.272382
0.0296209
-0.0152725
0.0192918
0.265398
-0.113851
-0.277418
0.162104
0.115313
-0.0590503
0.286148
-0.189368
-0.0967794
0.013926
0.0255278
-0.113302
0.137108
-0.0238052
-0.204909
0.167988
0.0369211
0.116207
0.176047
-0.292253
0.298698
0.0609348
-0.132835
-0.0534049
0.18624
0.152986
-0.0981896
-0.0547962
0.108151
0.179956
-0.134729
-0.149359
0.284089
0.308978
0.0439489
0.103947
-0.0997327
-0.0754455
0.235968
-0.146503
-0.14679
-0.13279
0.324383
-0.339793
0.366135
-0.129295
-0.23684
-0.149044
-0.0918336
0.240878
0.181151
0.0132575
0.405972
-0.209103
-0.196869
0.358964
-0.107717
0.292754
-0.0439019
-0.248852
0.0511969
0.144412
-0.195609
0.00494225
-0.00298073
0.329861
-0.318598
-0.0112633
0.0162356
-0.0128314
-0.00340421
-0.103873
-0.000384026
0.104257
-0.106073
-0.211174
-0.223025
-0.112712
0.335737
0.341802
-0.0906535
-0.251148
-0.0087305
-0.346064
0.0701735
0.275891
0.333945
-0.3431
0.00915507
-0.392912
0.216666
0.176246
0.00171239
0.00590056
-0.172187
-0.105231
0.127151
-0.272926
0.145776
0.0347013
0.0117651
-0.194034
-0.0563513
0.250385
0.122818
-0.027026
-0.095792
0.0688038
0.265142
-0.0169863
0.014026
0.0491835
0.275199
0.263607
-0.124424
0.0203942
0.0538787
0.273817
0.0736344
0.0166475
-0.0190396
0.0153883
0.364406
-0.0157546
0.00206273
0.0228394
-0.0249021
0.010785
-0.356849
-0.118653
-0.267769
-0.0696061
0.311385
-0.112193
0.00831969
0.00334052
-0.0117988
0.00845827
-0.0101259
0.0185412
0.0102812
-0.0108086
0.000527397
0.237965
-0.374527
0.136562
0.101452
0.11689
-0.183962
0.0791653
0.104796
0.234816
0.102034
0.0938375
0.136195
-0.230032
0.062839
0.192699
0.15641
0.0386481
-0.00673392
0.00619755
0.000536376
-0.365559
0.145458
0.220101
0.0334532
0.241135
-0.274588
-0.0837987
-0.248581
0.332379
-0.249702
0.0945975
-0.0784116
0.118953
-0.0405417
-0.11871
0.140874
-0.022164
0.149706
-0.365969
0.216263
-0.0122766
0.0156171
-0.162862
0.342583
-0.17972
0.333333
-0.0762338
0.0879743
-0.114001
0.0260262
0.237729
0.0550245
-0.0189915
-0.0515847
0.0705762
-0.260732
0.219912
0.0408202
0.0940589
-0.267572
0.173513
-0.26357
0.145679
0.163491
0.094738
-0.407719
0.271725
0.135994
0.0489546
-0.00339315
0.0380194
-0.08597
-0.0510059
-0.350978
0.123938
0.227039
-0.0156836
-0.00606573
0.0217494
0.265864
-0.0668295
-0.199034
0.314335
-0.104974
0.156195
-0.388078
0.231882
0.0097513
-0.0156807
0.00592937
-0.188699
-0.248037
-0.222265
-0.216023
-0.13567
0.204616
-0.0689468
0.00530451
0.00189452
-0.00719902
-0.166094
0.260153
-0.217348
0.410128
-0.172163
0.0454275
0.0173225
-0.06275
-0.00251433
-0.0110656
-0.257027
0.0731178
0.183909
-0.161543
-0.18654
0.348083
0.0598636
-0.0986495
0.333465
0.315458
-0.201379
-0.00555605
0.00723312
-0.0358685
-0.142627
0.178495
0.0966057
0.05638
-0.206784
0.332816
-0.126031
0.0254627
0.0236324
-0.0490951
-0.310102
0.147239
0.0178539
0.048814
-0.0666679
-0.00474095
0.00474095
0.0627124
-0.0172849
0.00810282
0.114715
0.0123432
-0.0426958
0.0303526
0.0651621
0.177124
-0.242286
-0.220313
0.325368
-0.105055
-0.379655
0.181885
0.19777
-0.0294461
0.0360619
-0.00661579
-0.00666534
-0.160841
0.0411939
-0.0263846
-0.19428
0.0916778
-0.302019
0.210342
-0.0335946
0.0173685
0.0162261
0.256989
-0.148963
-0.403259
0.183938
-0.172973
0.222958
-0.0499843
0.0197432
0.0227081
0.254746
0.169719
-0.126966
0.0977095
-0.0357518
-0.0189438
0.0281545
-0.0180208
0.0434835
-0.00890279
0.0129774
-0.00407459
0.15198
-0.36448
0.212501
-0.118197
-0.236771
0.0513348
0.20919
-0.347971
0.138781
0.100029
0.146165
-0.246194
0.0213912
-0.0136876
-0.164311
0.0255391
-0.0908204
-0.0425366
0.133357
-0.0444214
0.0151409
-0.121039
0.338343
-0.12898
-0.209363
0.206368
0.0254585
-0.231826
0.0312827
0.186838
0.286569
-0.0918475
-0.194722
-0.394762
0.280944
0.113818
-0.131202
0.353592
-0.22239
0.187724
-0.322935
0.048364
0.000805196
0.00582178
-0.00582178
0.343397
-0.191418
0.100196
-0.32322
0.101771
0.25743
-0.00748946
-0.0835302
0.0910197
0.093556
-0.218279
0.0477418
0.252115
-0.00956673
0.00163708
0.15335
-0.348425
0.195076
-0.103114
-0.0118775
0.114992
0.0898163
-0.235416
0.1456
-0.0856203
0.324697
0.154731
0.0855541
-0.240286
-0.0940841
-0.0812272
0.0475079
0.323259
-0.0855296
-0.358142
0.22694
-0.263064
0.32154
-0.0584757
-0.0211256
-0.0861349
0.107261
-0.0132461
-0.00519049
0.0184366
0.127307
0.204431
0.138967
-0.331824
0.248025
-0.32596
0.212201
0.113759
0.0895294
0.252272
0.070372
-0.0800542
0.00968214
0.118688
0.257071
0.278566
0.149552
0.078571
-0.0693901
-0.00918084
-0.113624
-0.290128
0.131117
0.00599091
-0.209229
0.30623
-0.097001
0.289501
-0.386971
0.0974702
-0.111978
0.0440124
0.0679659
-0.106497
0.0671646
0.0393321
-0.127716
-0.236765
-0.108519
0.0873932
0.0993868
-0.308616
0.00893
0.00144522
-0.0103752
0.147912
0.0539253
-0.201837
-0.382222
0.163732
0.21849
-0.107653
-0.390183
0.326702
0.0634812
-0.201299
-0.00339144
-0.011975
0.0153665
0.00355518
-0.0247702
0.0100675
0.0147027
-0.144942
-0.0309452
0.175887
-0.233494
0.369508
-0.136014
0.142999
0.0769954
-0.219995
0.19995
-0.420268
0.088559
-0.018187
-0.171455
0.299398
0.00382621
0.00119998
-0.0050262
0.0480397
0.0940012
-0.142041
-0.00192229
-0.00577759
0.244666
-0.334119
0.00602242
0.0143825
-0.0204049
-0.156312
-0.0614482
0.299963
-0.182719
4.28352e-05
0.0925365
-0.26604
-0.0648778
0.330918
0.0972478
0.226011
0.14186
0.161896
-0.303756
0.117238
0.0305419
0.0639473
-0.331577
0.26763
-0.116685
-0.257843
-0.348698
0.115619
0.233079
0.0489499
0.275017
-0.323967
0.0202013
-0.123316
-0.00551812
0.00355481
0.00196331
0.221763
-0.127925
0.010971
-0.00768355
-0.00328742
0.0155149
-0.00576363
0.0053257
0.00615005
0.410108
-0.214968
-0.19514
-0.037217
-0.237074
0.274291
-0.0722939
-0.245436
0.296758
-0.207734
0.26636
-0.386116
0.119757
0.229077
-0.266294
0.380073
-0.0905722
0.221925
-0.0740133
-0.0501003
0.181778
-0.000822225
-0.00144802
0.00227025
-0.201512
0.322294
-0.120782
-0.00533643
-0.0209818
-0.232483
0.150497
0.0819856
-0.345475
0.242498
0.102978
-0.0099568
0.23778
-0.227823
-0.293653
-0.065213
0.373162
-0.216967
0.242516
0.398461
-0.139543
-0.258918
0.249705
-0.300046
0.0503409
0.038039
-0.0215923
-0.145449
0.235265
0.231542
0.0839158
-0.314977
0.325392
-0.0104147
0.0218108
-0.214313
0.192503
0.0890845
0.234509
-0.323593
0.0279842
-0.114308
0.0863241
-0.337584
0.334587
0.00299661
0.124225
0.216413
-0.340639
-0.145726
-0.127201
-0.0926162
-0.0218395
0.114456
0.343389
-0.25386
0.19938
0.22705
-0.269572
0.0341552
-0.172967
0.0599335
0.113034
0.15204
0.258088
-0.0333124
0.0116166
0.0403146
0.181026
-0.22134
0.133922
-0.0530912
-0.205793
0.227603
-0.0668765
-0.106354
0.173231
0.109439
-0.342933
-0.295845
0.0755319
0.383976
-0.23427
-0.104093
0.250784
-0.146691
0.392294
-0.324519
-0.0677755
-0.282023
-0.0639711
-0.227259
-0.042313
0.304056
-0.209759
-0.0942968
-0.255586
-0.124069
0.111884
0.226879
-0.338762
-0.0180423
0.0733345
-0.0552922
-0.125299
0.348615
-0.223316
0.174719
-0.24462
0.0699008
-0.330945
0.240291
-0.0494732
0.142304
-0.178172
0.00679181
-0.00821423
0.00142242
-0.0395109
0.369372
0.00756725
-0.0249602
-0.383383
0.181588
0.201794
0.159681
-0.347907
0.188226
0.237074
-0.0224317
-0.214642
-0.164766
0.375934
-0.211168
-0.00201307
0.00119084
-0.219892
-0.050353
-0.146535
-0.0996753
0.24621
-0.210728
-0.172655
-0.330327
0.0930839
0.237243
-0.00749445
-0.0463773
0.0538718
0.224204
0.158674
0.0638745
0.180214
-0.244089
-0.109595
-0.0512466
-0.299315
0.289358
-0.0171837
0.0337686
0.182188
-0.0398839
-0.0230853
-0.00173557
0.158211
0.30556
-0.0963703
-0.271506
-0.0535505
-0.291793
0.0312531
0.0121378
0.00016474
0.326522
-0.201638
-0.124884
0.0100816
0.178786
0.0110488
0.00113566
-0.0121845
0.0755185
-0.0077756
-0.067743
-0.165385
0.205699
0.367791
-0.124578
-0.243213
0.398925
-0.246885
0.175411
0.134989
-0.3104
0.00829713
-0.0107593
-0.206637
0.00538117
0.0108545
-0.295116
0.217915
-0.180457
0.00153705
0.17892
-0.098112
0.0510425
-0.00503879
-0.216386
0.035929
-0.139337
-0.249311
0.0119599
-0.0110516
-0.0482616
0.138738
-0.0904766
-0.214639
0.0909814
0.123658
0.216564
0.126025
-0.342589
0.0852085
0.253135
-0.267777
0.091837
0.17594
-0.32457
0.199271
-0.150052
-0.0146086
0.121231
-0.106622
0.285398
-0.0570175
0.106414
0.299669
-0.360821
0.113719
0.247102
0.0124783
-0.0158698
0.186331
-0.112355
-0.0739765
0.161599
0.0195538
-0.181153
0.116518
0.0447263
-0.15746
0.0736711
0.0837892
-0.00070505
0.0107333
-0.0100282
-0.00904193
0.00056193
0.00848
-0.00821284
0.0111622
0.0708377
0.367022
-0.239554
-0.127468
0.238718
-0.121625
0.13668
-0.264201
0.127522
0.0702512
0.191632
-0.261883
-0.219651
-0.110965
0.330616
-0.00144526
-0.0798531
0.0812984
0.28471
-0.270366
-0.0143439
-0.00212648
-0.240959
0.243086
0.0152374
-0.0182094
0.00297198
-0.0653057
0.276582
0.379007
-0.175854
-0.203152
0.239866
-0.241993
-0.00695786
0.0100243
-0.00306646
-0.131721
0.047364
0.0843571
-0.0405087
0.176275
0.195449
-0.014298
-0.308898
-0.0420797
-0.0111872
-0.0161987
0.169206
0.209801
-0.00505152
0.00234199
0.247461
-0.206728
-0.0407323
-0.133187
0.33597
-0.202783
-0.340186
-0.000501527
0.340688
0.0812569
-0.24778
0.166523
0.0578555
0.289144
-0.346999
0.368827
-0.239511
-0.129316
0.282905
-0.126351
0.272797
0.00844728
-0.281244
0.312965
0.0558617
-0.236396
0.140673
-0.136714
0.324438
-0.0485413
0.285615
-0.217633
0.314902
-0.0972686
-0.116667
-0.265212
-0.151836
0.233093
-0.00763027
-0.332556
0.35755
-0.331773
-0.0257772
0.010162
-0.000611921
-0.00955006
0.0749771
0.0456484
-0.356886
0.136967
-0.0790768
0.222076
-0.226143
-0.119332
-0.062937
0.0560813
0.0220555
0.00819478
0.0834188
0.142978
-0.226397
0.0972011
0.0294696
-0.158823
0.129354
0.306953
-0.131542
-0.112498
0.173689
-0.061191
-0.118672
0.0798655
0.0388065
-0.0803391
0.207245
-0.0422575
0.0585987
-0.0163412
-0.306424
-0.0361648
0.342589
0.00044734
0.00485717
-0.0149155
0.0142105
0.160684
0.165483
0.0921001
-0.352688
0.260588
0.300581
-0.0945639
-0.0320417
-0.00876371
0.0181243
0.319588
0.0379621
-0.421682
0.214324
0.207358
-0.00903489
0.00244082
0.00659407
0.386656
-0.330119
-0.0565364
-0.0425476
0.0321244
0.0104232
0.196589
-0.0279632
-0.168626
0.170278
-0.244213
0.073935
-0.121651
0.0432399
0.324094
0.062562
-0.0151969
-0.0273506
0.358574
-0.0951549
-0.00178364
0.0159604
-0.0141768
0.0612153
-0.13776
-0.053075
-0.0801749
0.13325
-0.326944
0.0205206
-0.1657
0.235952
0.0911404
-0.131665
0.0405243
0.128561
-0.229752
0.101191
0.0110279
-0.0109385
0.389009
-0.110519
-0.27849
0.171818
0.0247711
-0.00722263
0.00849019
-0.00126755
-0.1408
-0.0316556
0.172455
0.0993655
0.0869657
-0.0574375
-0.268297
0.00225653
0.230713
0.11673
-0.347443
0.0495346
-0.325516
0.275982
0.00124698
0.0143709
-0.0156178
-0.0717409
-0.133168
-0.1166
0.347313
-0.171456
0.028829
-0.0900827
-0.0995396
0.189622
0.0171798
-0.0594374
0.00329408
-0.176594
-0.218168
0.0020632
0.0133784
0.0914458
-0.104824
-0.00555336
-0.0206331
0.0261865
0.223025
0.0623733
-0.0229801
0.0170907
0.00588944
0.0953076
-0.124416
0.0590488
0.15705
-0.216099
0.239277
-0.180228
-0.0816855
-0.0500356
0.128522
-0.32091
0.192389
0.214488
0.152534
0.074797
0.0148525
-0.0896495
0.356767
-0.142279
-0.107244
-0.115935
0.231545
0.114731
-0.346277
-0.250437
0.146344
0.0294429
-0.292507
0.124763
0.0436443
-0.168407
0.0138582
-0.231547
-0.0179677
-0.135632
0.0637749
0.0257659
0.221187
-0.360778
0.139591
-0.0932739
0.0190097
0.0742642
-0.162629
0.3915
-0.228871
0.155866
-0.317174
0.161308
-0.0012237
0.00504992
-0.0328526
-0.239529
0.0216992
0.0276985
0.0106389
0.00469528
0.157422
-0.0409046
-0.221215
0.309833
-0.0886174
0.032912
-0.177854
0.0882308
-0.336489
0.248258
-0.192768
0.159987
0.0327806
0.186419
-0.209073
0.0226541
-0.171038
0.287245
-0.0144362
0.0109291
0.111468
-0.331119
-0.176918
0.32025
-0.227367
0.0808327
0.315794
-0.159928
-0.0653197
0.0472774
0.261272
-0.0309003
0.360097
-0.155666
0.00110332
-0.0100517
0.00894843
0.198056
-0.331969
0.133913
0.0144208
-0.0137574
-0.000663384
-0.00890725
-0.000134675
0.0197307
0.00696507
-0.0266957
-0.0130171
-0.281544
0.267619
0.0139247
-0.0128068
0.216724
-0.203917
0.00587222
0.243833
0.203718
-0.336905
0.238155
-0.284341
0.0461864
0.289924
-0.153245
0.115066
-0.0111187
0.174586
-0.293819
0.119233
-0.026641
0.318565
-0.12051
-0.209803
-0.116156
0.116937
0.197093
-0.31403
0.134145
-0.35221
0.218065
-0.196724
-0.205411
0.359669
-0.154258
-0.0630044
0.137982
-0.00777923
0.00777923
0.175663
-0.296421
0.421457
-0.239869
0.163302
-0.401884
0.238582
0.163239
0.25137
0.252495
-0.0977633
0.0587718
-0.0213531
-0.121429
-0.337975
0.132564
0.112912
0.170586
-0.00809384
0.0042191
0.00387474
0.241007
-0.313301
0.0195237
-0.017461
-0.0386136
0.0714354
0.291438
-0.230991
-0.0604474
0.234855
0.0153447
-0.2502
-0.355841
-0.00902021
0.364861
-0.31291
0.358649
-0.0457393
0.209658
0.132925
0.233118
0.155891
0.266212
-0.16638
-0.0998321
0.102638
0.255146
0.229425
-0.242232
-0.205456
0.000719896
0.306954
-0.10487
-0.202084
-0.02144
0.0196564
0.221942
0.303659
-0.20176
-0.0909141
0.292674
-0.288327
-0.0266497
0.321359
-0.193228
-0.163733
0.0512347
-0.341926
0.0549136
0.287012
-0.0405501
-0.0180447
0.0585948
0.322679
-0.286203
-0.0364755
-0.00166635
0.0736443
0.150219
0.242075
0.0932099
-0.034985
-0.0582249
-0.240513
-0.14967
-0.00994413
-0.00247612
0.0124202
-0.13214
0.0771861
0.0549541
-0.308212
0.106452
-0.0426655
-0.173223
0.215888
0.00250573
-0.0951219
0.288807
-0.12552
-0.163287
-0.00418193
-0.002552
0.0543084
0.0924
-0.151134
0.37232
0.125812
-0.332597
0.2989
-0.0823364
-0.169677
0.307576
-0.137899
0.270521
-0.219698
-0.0508234
0.266554
-0.198358
0.169231
0.0654984
-0.17638
-0.117608
0.293987
-0.0108154
0.254946
-0.24413
-0.080017
0.208578
0.403159
-0.239857
-0.0450666
-0.0669117
0.13478
-0.337679
0.202899
-0.00497089
0.000229944
0.11758
0.203279
-0.320859
-0.0793547
-0.262571
-0.293315
0.044009
0.249306
0.0469877
0.244451
-0.272969
0.15014
0.122829
0.290361
-0.114315
0.273101
-0.0349467
0.162814
0.10074
-0.263554
-0.409496
0.295117
0.114379
0.284286
-0.295102
-0.0930406
0.0617797
0.0312609
0.0162556
0.0399666
-0.0562221
0.335666
-0.0693063
-0.123837
0.251461
-0.127624
0.0026724
-0.0231272
0.0204548
-0.0261418
0.114116
-0.232458
-0.117127
0.0120083
-0.00172712
0.315517
-0.0839717
0.0219318
-0.0207211
-0.00121068
-0.0625822
0.261607
-0.199024
0.179466
-0.180827
0.00136049
-0.240647
0.206166
0.034481
0.015026
-0.0164184
0.00139246
-0.00748333
0.000226913
0.00725641
0.122889
-0.182454
0.133301
0.0491531
-0.082981
0.197238
-0.00641186
-0.112299
-0.370743
0.161675
0.209068
0.178465
0.242992
0.0199737
-0.0201303
0.000156632
0.389481
-0.181466
-0.208016
-0.15326
0.368162
-0.214902
0.382006
-0.320606
-0.0614001
-0.133157
0.342816
-0.116195
-0.0156816
-0.00732861
0.0230102
-0.00320013
0.00752267
-0.0227109
0.0375614
-0.0148505
0.0130699
0.00818352
0.327246
0.05476
0.0123616
0.014077
-0.288312
0.303983
-0.0156707
0.185643
0.203838
-0.0491677
0.173931
-0.143893
0.189358
-0.0454647
-0.348021
0.19476
-0.215868
0.0123779
-0.0267922
0.0144142
-0.0178847
-0.01571
-0.178453
0.277127
-0.0986742
0.177474
0.111333
0.245676
-0.180514
0.231138
-0.360615
0.129477
0.00722125
-0.0131827
0.00596146
0.215065
0.055456
-0.26495
0.13943
-0.0414644
-0.226313
0.0798924
-0.132967
0.196875
-0.331241
0.134367
0.0478419
0.0196765
-0.0675184
0.114642
-0.0695765
-0.0450657
-0.0243544
0.120589
-0.0962343
0.327963
-0.131088
0.00128991
0.00453187
0.38018
-0.163612
-0.216568
0.0104682
0.00372476
-0.191597
0.208173
-0.0165759
0.219666
0.354173
-0.219393
-0.404445
0.162625
0.241819
0.369775
-0.158384
-0.211391
0.12501
0.0994361
-0.068517
-0.0309191
0.0171907
-0.00216474
0.409797
-0.117236
-0.292562
-0.155644
0.239467
-0.0838229
-0.208107
-0.157452
-0.177267
0.190711
-0.0134442
-0.316686
-0.0391548
0.324958
-0.261011
-0.100607
0.223305
-0.122698
-0.0309903
0.00718304
0.0238073
0.0220082
-0.0193358
-0.071308
0.00353991
-0.0174741
-0.00550602
0.0310547
-0.208322
0.0156585
-0.0144115
-0.307954
0.252033
0.0559207
0.227542
0.132555
-0.188714
0.0993624
0.0893519
-0.000502697
0.0149235
0.139852
0.0604847
-0.200337
-0.186041
0.371848
0.249468
-0.00590535
0.025879
-0.0330633
-0.0102736
0.0433368
0.0585987
0.0346111
0.172429
-0.196989
0.02456
-0.237853
0.00351754
0.0858549
-0.200359
0.114504
-0.193346
-0.0673859
-0.11244
0.198295
0.111445
0.091624