/*--------------------------------*- C++ -*----------------------------------*\
| =========                 |                                                 |
| \\      /  F ield         | OpenFOAM: The Open Source CFD Toolbox           |
|  \\    /   O peration     | Version:  v2012                                 |
|   \\  /    A nd           | Website:  www.openfoam.com                      |
|    \\/     M anipulation  |                                                 |
\*---------------------------------------------------------------------------*/
FoamFile
{
    version     2.0;
    format      ascii;
    class       volScalarField;
    location    "200";
    object      k;
}
// * * * * * * * * * * * * * * * * * * * * * * * * * * * * * * * * * * * * * //

dimensions      [0 2 -2 0 0 0 0];


internalField   nonuniform List<scalar> 
37809
(
0.000135093
0.000189995
0.000158011
0.000144987
0.000141055
0.000145818
0.000140694
0.0305854
0.000150296
0.000167983
0.000159683
0.000159752
0.00014524
0.00015671
0.000151856
0.000153471
0.000147021
0.0294474
0.000159713
0.000145601
0.000153473
0.0285696
0.00571283
0.000167736
0.030405
0.000156223
0.000158807
0.0264624
0.000165663
0.000132584
0.000159754
0.0368387
0.000143323
0.000252253
0.000159679
0.000143352
0.000193734
0.000630613
0.0122557
0.000138753
0.000130388
0.000240074
0.000153577
0.000169262
0.000143329
0.000160908
0.000151618
0.000154785
0.000153554
0.000192423
0.0243307
0.00862013
0.000207987
0.000256808
0.000159265
0.00014192
0.000203324
0.000157521
0.000214868
0.0274881
0.000160883
0.000165867
0.0001558
0.000169236
0.000153644
0.000151878
0.000189171
0.0207498
0.000167889
0.00018804
0.000141962
0.000150183
0.00872753
0.000207916
0.0001417
0.000350109
0.000191931
0.000132927
0.000152956
0.000153413
0.000169778
0.026478
0.000146663
0.000213816
0.000261593
0.0181868
0.000148174
0.0249755
0.000168026
0.000193837
0.000155971
0.024896
0.000163633
0.000142267
0.000165372
0.000133721
0.0331623
0.000133642
0.000127642
0.0294533
0.00014988
0.000204205
0.00013525
0.000153466
0.000244794
0.000151281
0.027426
0.000144382
0.0283147
0.0349077
0.000144022
0.000207737
0.0362616
0.000138789
0.0293417
0.0334203
0.000151506
0.000138073
0.000253564
0.000148833
0.000247971
0.00017183
0.0311338
0.000142945
0.000138478
0.000307896
0.000132244
0.000153731
0.000132771
0.000133235
0.000157622
0.000151674
0.000145019
0.000138477
0.000132238
0.000140133
0.000170794
0.000329512
0.027147
0.000154583
0.000160247
0.00024038
0.000157241
0.000148635
0.000133348
0.000139337
0.000160226
0.000154574
0.000132895
0.000132227
0.000222726
0.000148636
0.000151221
0.000211343
0.000132872
0.000159565
0.000132243
0.0215444
0.000127798
0.000141867
0.000143564
0.0232071
0.0359009
0.000151249
0.000133009
0.000181433
0.000143628
0.000265133
0.000153743
0.00608954
0.000145349
0.000193246
0.000149158
0.000148878
0.000157349
0.000138299
0.000150456
0.000145538
0.000176596
0.000140066
0.000142227
0.000242782
0.000141356
0.000142203
0.000143419
0.000134591
0.0307199
0.000149157
0.0284234
0.000190685
0.00759029
0.00019781
0.000145741
0.000204719
0.0001424
0.000146559
0.000146551
0.000210622
0.0001485
0.0228153
0.00717681
0.000169758
0.000147538
0.00015386
0.00016142
0.000151709
0.000141771
0.0269833
0.000134921
0.0421395
0.002958
0.000207487
0.000225839
0.000192937
0.00014783
0.000127881
0.000314487
0.000206666
0.000135242
0.00604391
0.00018926
0.000147807
0.000161393
0.000158501
0.000150478
0.000207238
0.000139623
0.0314469
0.00013218
0.000192744
0.000152015
0.000147804
0.000147694
0.000147539
0.000153532
0.000191584
0.0334078
0.000158548
0.000151486
0.000134442
0.000196965
0.000141274
0.000232161
0.0331452
0.000169325
0.000157797
0.000205993
0.000226601
0.0314729
0.000170371
0.000142719
0.000139525
0.000165196
0.0229944
0.000149453
0.000143384
0.000179265
0.000143142
0.000146522
0.000159122
0.000142215
0.00014527
0.000146365
0.000152757
0.0221006
0.000147963
0.00802276
0.000208316
0.000132926
0.000150391
0.000143128
0.000148652
0.000141836
0.000178033
0.000172373
0.0253223
0.000154768
0.000153556
0.000144946
0.0217524
0.000206288
0.00014469
0.000153868
0.00103481
0.000216479
0.000143069
0.0331127
0.000164834
0.000138001
0.00581012
0.00015404
0.000153673
0.000214616
0.0298857
0.000167976
0.000138119
0.00523609
0.000142499
0.000142374
0.000185051
0.0030724
0.000141661
0.000153524
0.000165607
0.000151286
0.000156042
0.00014254
0.00015051
0.000152124
0.00018265
0.000158993
0.000147976
0.000146694
0.00018696
0.000192726
0.000137432
0.000219442
0.000134754
0.0135632
0.000186047
0.000159483
0.000219385
0.0372153
0.000192964
0.033513
0.000135408
0.000166469
0.0266701
0.00014358
0.000154575
0.000177
0.000177706
0.000214433
0.000132929
0.000145774
0.000138765
0.000148509
0.000201753
0.0328839
0.000149316
0.00615933
0.000137394
0.0267816
0.000190549
0.000138053
0.00014819
0.0325874
0.0462538
0.000165999
0.000157692
0.000157313
0.000150607
0.000153334
0.023775
0.000167905
0.000149494
0.000128745
0.0385381
0.00101577
0.000142746
0.00013337
0.00359122
0.000162827
0.000133523
0.000138261
0.000180738
0.000141825
0.000208258
0.000185136
0.000134783
0.000169457
0.000134624
0.000151079
0.000132248
0.000187078
0.000141743
0.000142727
0.000142345
0.000171334
0.0297324
0.000158788
0.000147555
0.000856669
0.000205968
0.000185131
0.000138481
0.000157398
0.00292777
0.000289745
0.0352029
0.000136719
0.000168174
0.0304884
0.000175009
0.000202031
0.000138264
0.000136658
0.000138523
0.0278063
0.000140921
0.000138454
0.000139822
0.000158642
0.0319929
0.000154802
0.0183418
0.000247184
0.000133481
0.000161973
0.000303211
0.00015148
0.000155426
0.000172713
0.000191887
0.000227248
0.000134385
0.000140817
0.0001579
0.00017594
0.000225695
0.000142049
0.000138699
0.000151811
0.000343353
0.00406758
0.000193674
0.000158543
0.000132791
0.000143654
0.000142137
0.000132793
0.0348252
0.000219982
0.000179496
0.000160215
0.000158387
0.000161324
0.030722
0.000145099
0.0334231
0.000144911
0.000158034
0.000139762
0.000148602
0.000134749
0.000133111
0.00014105
0.000138325
0.000138059
0.000156585
0.000145079
0.000149166
0.0199332
0.000148393
0.000152101
0.000140225
0.000141026
0.000156838
0.000142961
0.00016003
0.000190254
0.000149103
0.000259604
0.000138548
0.000147677
0.000244592
0.000137361
0.000138755
0.000185825
0.000186208
0.000184589
0.000137929
0.00015568
0.000160411
0.0272967
0.000144996
0.000151425
0.0016494
0.000296319
0.000139745
0.000153735
0.00413614
0.0027426
0.000139702
0.000219983
0.000145262
0.0292832
0.000167138
0.000140354
0.000206296
0.000148715
0.000140207
0.00239426
0.000429479
0.000135087
0.000148861
0.000137901
0.000132201
0.0387577
0.00743104
0.000131589
0.00244353
0.000299957
0.000134498
0.000134617
0.000131522
0.000159252
0.0338214
0.0279655
0.00049358
0.000138981
0.0269515
0.000143028
0.000142343
0.0002195
0.00013978
0.00017916
0.000257493
0.00564581
0.0001545
0.000206834
0.000131463
0.000188384
0.0109323
0.000207685
0.000148923
0.000247998
0.00018923
0.000140337
0.000182792
0.000143864
0.000161296
0.000154738
0.000202331
0.000148694
0.000175773
0.000182549
0.0275875
0.000131439
0.000151285
0.000139452
0.000169126
0.0337378
0.000259055
0.0328319
0.000180071
0.000157344
0.000153112
0.000175342
0.000182257
0.0330991
0.00018021
0.00014114
0.00015087
0.00018228
0.00016696
0.000215823
0.000158747
0.00018184
0.000255536
0.0219063
0.000139614
0.000133037
0.0386883
0.000148798
0.000136939
0.000132169
0.000133407
0.000153472
0.0258385
0.0310441
0.00361987
0.0263007
0.000142883
0.000153375
0.000729518
0.000152909
0.000157064
0.00016963
0.000855913
0.000138613
0.000142669
0.000137041
0.000138944
0.000232918
0.0265268
0.000138509
0.00016197
0.00017993
0.000230721
0.000139373
0.000133632
0.000214104
0.000131239
0.00361644
0.0002114
0.000169264
0.000151107
0.000134525
0.00112835
0.000159025
0.000160666
0.000147892
0.000141931
0.000164253
0.000219304
0.000164649
0.000152842
0.000147236
0.000197657
0.000193767
0.000167964
0.000151521
0.000187653
0.00015564
0.000734886
0.000182089
0.00346139
0.000150654
0.0271565
0.000223845
0.00607987
0.000181485
0.000171613
0.0309401
0.000144523
0.000154704
0.000196911
0.000177307
0.000138387
0.000171397
0.0322932
0.000150717
0.000152885
0.0241165
0.0226188
0.000174065
0.000170861
0.0214868
0.000141704
0.000171173
0.0206364
0.000150459
0.000202506
0.000134467
0.000150079
0.000134631
0.00019132
0.000159623
0.00017762
0.000176124
0.000161393
0.000209402
0.000157508
0.000178893
0.000187677
0.00014979
0.00014913
0.000132287
0.00338925
0.000147021
0.000181253
0.000152212
0.000161226
0.000138286
0.000153073
0.0415459
0.000139306
0.000132445
0.000132996
0.00015563
0.0271786
0.000181722
0.000234412
0.000138172
0.000146826
0.000214114
0.00013949
0.000141929
0.000249283
0.000134922
0.0387573
0.000190558
0.000253751
0.000167322
0.0001375
0.000138405
0.000141632
0.000149479
0.00777957
0.0078856
0.000153644
0.000155357
0.000131703
0.0374478
0.000157763
0.000145832
0.000137619
0.00354126
0.000157339
0.000151698
0.000195798
0.0231485
0.000212852
0.000157754
0.0245561
0.000135586
0.000210925
0.000154711
0.000135114
0.000152003
0.000300739
0.000131665
0.000144168
0.000131415
0.0236352
0.00786427
0.00215102
0.000142651
0.00014762
0.000146968
0.00014994
0.000142229
0.000183031
0.000153461
0.000150153
0.000131076
0.000134548
0.00025695
0.0433991
0.000181457
0.0002592
0.000150657
0.00015638
0.000142035
0.000139659
0.000157822
0.000216709
0.00015157
0.000228754
0.000162241
0.000366297
0.000145668
0.0420932
0.000212986
0.000134333
0.00013656
0.0278517
0.000140236
0.00014422
0.0196529
0.000137429
0.000178469
0.000136556
0.0148096
0.000148723
0.000144351
0.0055314
0.000204357
0.000182946
0.000140196
0.000153297
0.000137896
0.000143148
0.000158184
0.000142921
0.000155991
0.000142984
0.0204653
0.0238848
0.0243254
0.000158162
0.00015059
0.0203734
0.000144217
0.000148774
0.000133464
0.000142199
0.000144341
0.000182131
0.0255336
0.000131342
0.000131326
0.0339005
0.000146702
0.000143989
0.00019072
0.000180263
0.000206389
0.0235938
0.000191628
0.0284399
0.0210639
0.000148521
0.0302762
0.000150378
0.000204086
0.000182694
0.000139683
0.000156114
0.0117625
0.000153003
0.000139727
0.0394235
0.00015305
0.000164101
0.0268322
0.00274922
0.000144386
0.000247627
0.00625483
0.000151848
0.000175618
0.000139615
0.000180639
0.00382549
0.000142561
0.000138362
0.000239035
0.000132655
0.000226185
0.0117797
0.000543606
0.000147703
0.000656679
0.000190521
0.000144378
0.000140202
0.000139464
0.00013817
0.000147395
0.000183328
0.00229136
0.000151744
0.000144209
0.000186408
0.000157078
0.000159629
0.000155119
0.000148032
0.000243865
0.00013816
0.000157336
0.00013776
0.000143021
0.000205729
0.000149185
0.00013944
0.000142978
0.000181635
0.000181003
0.000130606
0.000137459
0.00018835
0.000150845
0.0278273
0.00016368
0.000172798
0.000134918
0.000164975
0.000154008
0.000140247
0.00727372
0.000158186
0.000144624
0.000223571
0.000142006
0.000127702
0.000147302
0.000175977
0.000127752
0.000213002
0.00369786
0.000159463
0.000183101
0.0453795
0.000172779
0.00013665
0.000147717
0.000159375
0.0234093
0.000144006
0.000148635
0.000151592
0.000186378
0.000159171
0.000178147
0.000192949
0.000148704
0.000237647
0.0368191
0.0258957
0.000190171
0.00326471
0.000161566
0.000138857
0.000216971
0.000151545
0.00449009
0.000152816
0.00547358
0.00018119
0.000144502
0.000138644
0.000320909
0.00473459
0.000151714
0.000151019
0.000143046
0.000138997
0.000143361
0.00770506
0.000153631
0.000135288
0.031421
0.000138084
0.000220479
0.000159241
0.000181181
0.000177743
0.000151669
0.000138073
0.0314127
0.0263318
0.000159233
0.000174374
0.000166706
0.000138619
0.000138979
0.000178075
0.0140096
0.000143743
0.000156015
0.00024523
0.000192821
0.000141954
0.000203479
0.00019167
0.000193686
0.000143611
0.000169112
0.000189642
0.0334324
0.000150616
0.000144715
0.000151376
0.000146958
0.000148253
0.000144532
0.000225457
0.000137528
0.000153167
0.000263629
0.000147479
0.0246218
0.000137611
0.00703836
0.000132499
0.025587
0.00176486
0.00021136
0.000148446
0.00947178
0.000160609
0.000162033
0.00017591
0.000165654
0.00019648
0.000136082
0.000137739
0.00021543
0.000153364
0.00641897
0.000170163
0.00166057
0.000139352
0.000171387
0.000133267
0.00015757
0.000213312
0.000167124
0.000174838
0.000137687
0.000242843
0.00288402
0.000185593
0.0363454
0.000189901
0.000148872
0.034867
0.023591
0.0407316
0.000171329
0.0410474
0.0432377
0.0352226
0.000143517
0.000141532
0.000141111
0.000155768
0.000131249
0.0415156
0.00385218
0.000132326
0.000186164
0.000168773
0.000148413
0.000130318
0.000387232
0.000178231
0.000150104
0.000162581
0.00067843
0.000135877
0.017902
0.000233429
0.000260018
0.000135789
0.00384483
0.000189609
0.00133368
0.000134121
0.0403449
0.000167899
0.000267316
0.000170727
0.000134142
0.000133093
0.00716239
0.000148491
0.000158201
0.000191351
0.000171733
0.000152999
0.000156058
0.000143163
0.000144305
0.000157963
0.000143304
0.000180888
0.000183328
0.000175792
0.000201753
0.000144339
0.000184446
0.0015011
0.000162071
0.0329372
0.000153256
0.000140005
0.000167707
0.00400513
0.000128838
0.000151649
0.000167119
0.000216454
0.000194889
0.000163058
0.000166568
0.000179565
0.0231883
0.000149004
0.000158462
0.00383495
0.000132394
0.000381992
0.00016215
0.000181423
0.000153915
0.000144995
0.000159409
0.000175956
0.000221273
0.000160775
0.000142501
0.0370444
0.000189759
0.0436107
0.0061208
0.000148639
0.00337864
0.000145048
0.000160758
0.00013415
0.000167771
0.000155649
0.0426477
0.000143338
0.00175399
0.000137812
0.00014747
0.000136072
0.000180072
0.040585
0.000150157
0.000200063
0.000145673
0.000173072
0.0321665
0.0193638
0.000138698
0.000207668
0.000134719
0.000137808
0.00014128
0.000151199
0.000148427
0.000158591
0.0337948
0.000152863
0.00323778
0.000177102
0.000134883
0.000198942
0.000151622
0.000209129
0.000150144
0.000149028
0.000156811
0.000130216
0.000169021
0.000157263
0.000203275
0.000245058
0.000147513
0.000134686
0.000197868
0.000191952
0.00102228
0.000191182
0.00014842
0.000127758
0.000153177
0.000188422
0.00401096
0.000158859
0.000177853
0.00440726
0.00510765
0.000282572
0.000148632
0.0326084
0.000255829
0.00013476
0.00014209
0.000142855
0.0001348
0.000130175
0.000160213
0.000199227
0.000196739
0.0396515
0.0274345
0.00019821
0.000195325
0.000152553
0.000190216
0.000153508
0.00013187
0.000175165
0.000151238
0.000158653
0.000152491
0.000179773
0.000131782
0.00015635
0.000150563
0.000146041
0.000137716
0.000149057
0.00013864
0.00015454
0.000131104
0.000157668
0.000150781
0.000137266
0.000168019
0.000166087
0.000152306
0.000137664
0.000162757
0.000140846
0.000137592
0.032211
0.000148283
0.000283662
0.000235472
0.000135229
0.000133207
0.000134387
0.000144948
0.00786062
0.00087033
0.0255405
0.00014856
0.000175774
0.00014658
0.00013429
0.0399664
0.000178545
0.000133213
0.000140611
0.000142569
0.000306845
0.000136892
0.000152761
0.000137188
0.000185084
0.000143401
0.00015306
0.000171459
0.000136695
0.000138577
0.000139908
0.000141016
0.000133294
0.000137969
0.000163723
0.000133089
0.0109161
0.000161987
0.000153044
0.000141029
0.000218483
0.000181038
0.000159074
0.000138977
0.00014932
0.00676993
0.000137363
0.000138545
0.000135733
0.000148542
0.034776
0.000157554
0.000138038
0.000130983
0.00016409
0.000161872
0.000181533
0.000198799
0.000160126
0.00366556
0.0353313
0.00015917
0.00014989
0.000155786
0.00108627
0.0238252
0.000137192
0.000145367
0.000170256
0.000183088
0.000178878
0.000135655
0.0278264
0.000134687
0.0203163
0.000138731
0.000127974
0.000144914
0.000140751
0.000130865
0.000141398
0.000127766
0.0386581
0.000147344
0.000145542
0.000130951
0.000132508
0.000164929
0.000160468
0.00385973
0.000133354
0.000160227
0.00346598
0.000198835
0.000155633
0.000186857
0.000211459
0.00015038
0.000139458
0.000176716
0.000194112
0.000185885
0.000183686
0.000214604
0.000138149
0.0254757
0.000161845
0.000140033
0.000153002
0.000225223
0.004072
0.0340581
0.000142711
0.000181991
0.000164634
0.000148601
0.000189741
0.00019401
0.000131075
0.000150889
0.000148928
0.000151201
0.000136581
0.00015613
0.00015115
0.000147002
0.000131452
0.00282984
0.00596327
0.000142378
0.000212347
0.000136634
0.000130787
0.000138081
0.000158036
0.000143558
0.000188659
0.000189781
0.000158958
0.000158434
0.00478233
0.00013057
0.0301273
0.000137403
0.00014712
0.000155159
0.000149001
0.000157685
0.000175728
0.000152367
0.000139937
0.000130708
0.000133404
0.000160953
0.000150154
0.000130633
0.0155364
0.000165959
0.0374897
0.000140736
0.000184143
0.000192834
0.000172784
0.000130521
0.000157306
0.020898
0.000150038
0.000156077
0.000141041
0.000197758
0.000146421
0.000205523
0.000212877
0.000139833
0.000157728
0.000153975
0.000137245
0.000135954
0.000166074
0.000133497
0.00424166
0.0217689
0.0426649
0.000224206
0.0306268
0.000148353
0.000190061
0.000177215
0.000143423
0.000137216
0.000185734
0.00157764
0.000148711
0.000167328
0.000145801
0.000145883
0.000136916
0.000186607
0.000142388
0.000185205
0.000177854
0.000143395
0.000167019
0.000138747
0.00019554
0.000361909
0.000152512
0.00015009
0.000135943
0.0349671
0.000153696
0.00016005
0.000147945
0.000178412
0.00018231
0.00119309
0.000147334
0.000203444
0.000137198
0.000147542
0.00014262
0.000184531
0.000172259
0.000218018
0.000291594
0.000138131
0.000139577
0.000190254
0.000218132
0.000149583
0.00018637
0.000137351
0.00016768
0.000147577
0.000140715
0.000211021
0.000139879
0.000203607
0.000163221
0.0359488
0.000169986
0.000167466
0.000158555
0.000173206
0.000155342
0.000218692
0.000143162
0.000132487
0.00021263
0.000138512
0.000167266
0.000187844
0.000136999
0.0336502
0.000326686
0.00341776
0.0317864
0.00019947
0.000155877
0.0081501
0.000228022
0.000130047
0.000165353
0.000130101
0.0318068
0.0184259
0.0470538
0.031099
0.000143619
0.00015775
0.000143607
0.000143554
0.0001713
0.000168767
0.0464269
0.0181932
0.000149286
0.000181503
0.000151577
0.0356375
0.000145594
0.000148237
0.000141715
0.000142686
0.000140616
0.000141873
0.000153069
0.000216718
0.000142005
0.000166139
0.000143161
0.0001404
0.000163218
0.000157484
0.000214037
0.000145791
0.00015932
0.00100607
0.000153598
0.000131865
0.000154462
0.000166809
0.00996433
0.00102657
0.000131918
0.000280454
0.000142962
0.000188366
0.000155577
0.000136843
0.000149279
0.000131911
0.000140321
0.000143657
0.000163617
0.0329335
0.0379353
0.000193169
0.000195166
0.000153174
0.000225502
0.000147522
0.000146969
0.000165239
0.0276146
0.00019598
0.000155937
0.000141224
0.0377679
0.000153299
0.000136435
0.0439243
0.000153918
0.000143585
0.000135805
0.00014278
0.000134271
0.000191257
0.000154493
0.00023815
0.000190983
0.000164149
0.000133014
0.000150728
0.000169449
0.000153338
0.000152454
0.0344735
0.000133095
0.000147376
0.000133559
0.0406904
0.000154687
0.000163792
0.000159957
0.000152519
0.000152298
0.00015678
0.000268759
0.000145736
0.0181698
0.000194314
0.000141319
0.000207933
0.000210832
0.000192457
0.000153134
0.00126614
0.00015066
0.016631
0.000189318
0.000155246
0.000224005
0.00015635
0.000172827
0.0382665
0.000178521
0.000179922
0.000175022
0.000214488
0.000136433
0.000249539
0.000151577
0.000270829
0.000171997
0.000133609
0.000137893
0.000155181
0.000151105
0.000189419
0.000162754
0.000135207
0.00016389
0.000149886
0.000172063
0.000212261
0.000207123
0.000178535
0.00354255
0.000133705
0.00118619
0.000156359
0.000143806
0.000151608
0.000135494
0.000191559
0.000139468
0.000135011
0.000187112
0.000150751
0.000216781
0.000135239
0.000155088
0.0268808
0.00784394
0.0325402
0.000151196
0.0059095
0.000164147
0.00020407
0.0246333
0.00014122
0.0248972
0.000169419
0.000144955
0.00027
0.000142339
0.000147361
0.0440509
0.000142035
0.000142872
0.000197399
0.000383168
0.000155596
0.000156454
0.000208712
0.000158014
0.000157602
0.000151599
0.000178265
0.0235563
0.0001566
0.000151399
0.00014317
0.000148056
0.000134135
0.000134237
0.0336503
0.000224075
0.000166179
0.000180747
0.000135338
0.000149109
0.000175038
0.00015052
0.00163231
0.00015329
0.000143372
0.000160819
0.000137453
0.000227365
0.00046133
0.0389788
0.000153273
0.000151345
0.000163064
0.000238734
0.00726484
0.00090628
0.030218
0.00018326
0.000151953
0.000157427
0.000150152
0.000197182
0.000130375
0.000214564
0.000176375
0.0193649
0.000136381
0.000151364
0.000135397
0.0294652
0.000141734
0.00422196
0.00019097
0.000142697
0.000212327
0.00014358
0.000207578
0.00017044
0.000157755
0.000142643
0.000149265
0.000156829
0.000194278
0.000169104
0.000156909
0.000165295
0.000132917
0.000134482
0.000154817
0.0240621
0.0282487
0.000146928
0.000199261
0.000176527
0.000136481
0.000209165
0.000157481
0.000149942
0.000145124
0.000133169
0.000159655
0.000175081
0.000183575
0.0156279
0.000184449
0.000220944
0.000158155
0.000159057
0.000148968
0.000133209
0.000145538
0.000180543
0.000158101
0.000212351
0.000148804
0.000152271
0.000156259
0.000178396
0.000131911
0.0001627
0.0232808
0.000178176
0.000148586
0.00014349
0.000166246
0.000131901
0.000141084
0.000142951
0.000190202
0.00013261
0.000156693
0.000171959
0.000144184
0.000180763
0.000109505
0.000136575
0.000151808
0.000153212
0.000148725
0.0001475
0.000141596
0.000266569
0.000155328
0.000169403
0.0287509
0.000143666
0.000149307
0.0211529
0.000140864
0.000191379
0.000129057
0.000132393
0.026371
0.000161298
0.0326993
0.0261887
0.0168388
0.000133114
0.00018544
0.00013779
0.000213162
0.000137647
0.000197901
0.00013515
0.000199148
0.000179538
0.000251566
0.000173923
0.000140989
0.000132395
0.000143115
0.00016342
0.000163996
0.000129049
0.000323463
0.000195839
0.0333233
0.000155491
0.000137635
0.0194623
0.000166867
0.000174686
0.000141102
0.000220359
0.000134845
0.000135984
0.0302341
0.000155357
0.000141021
0.000142925
0.000152566
0.00014454
0.0326072
0.00238614
0.000163185
0.000164709
0.000143521
0.00022863
0.00014684
0.000289312
0.000147185
0.000176487
0.00019597
0.000148828
0.000158204
0.00515181
0.000211184
0.000144347
0.000161543
0.000143318
0.000156284
0.0267722
0.000157639
0.000195904
0.00016529
0.000228492
0.000147908
0.00021999
0.000168247
0.000146769
0.000186988
0.000139144
0.000146847
0.000155599
0.000173628
0.00334427
0.000150383
0.000158745
0.000157748
0.000218074
0.000141815
0.000179387
0.000133714
0.000154987
0.000161317
0.000152473
0.000150405
0.000234689
0.000151955
0.000144575
0.000198305
0.000152696
0.000149376
0.000132386
0.000150962
0.000140647
0.000155931
0.00013883
0.000159522
0.0243432
0.000145244
0.000224861
0.000150372
0.000131851
0.000155242
0.000144269
0.000141923
0.0244332
0.00017889
0.000195961
0.000204972
0.000195668
0.000145238
0.000151913
0.00013365
0.000156178
0.000675638
0.0315499
0.0355481
0.0356655
0.000146429
0.0382364
0.0217079
0.000139309
0.000147315
0.000293481
0.000228853
0.0370416
0.00322003
0.000130472
0.0001378
0.000158381
0.000221429
0.00493855
0.000190127
0.0294211
0.000133687
0.000212629
0.000135086
0.00015509
0.00014289
0.000201709
0.000142111
0.00021355
0.000167901
0.000180153
0.000164448
0.000148875
0.000178251
0.0200657
0.000174824
0.00335688
0.000158068
0.000143829
0.000148586
0.000148632
0.000180201
0.000239025
0.000154362
0.000177962
0.000143007
0.0001901
0.000233361
0.000244957
0.00015171
0.000146881
0.000225481
0.000148489
0.0297231
0.000171251
0.000138634
0.000143334
0.000128109
0.000246092
0.000138113
0.0305101
0.000142606
0.000149285
0.000162689
0.00210631
0.00015208
0.0298742
0.000180727
0.000149324
0.00020169
0.000152612
0.000148776
0.000142966
0.000143117
0.000152933
0.0259716
0.000169402
0.000135962
0.000143502
0.00013832
0.000143486
0.000142475
0.000138524
0.000156234
0.000159918
0.000144507
0.000170464
0.000133767
0.00013113
0.000162636
0.000162221
0.000150737
0.000185868
0.000135244
0.000172903
0.000235104
0.000130464
0.00014084
0.000202174
0.00217217
0.000178672
0.000167983
0.000173069
0.000161447
0.000150951
0.000147661
0.000236011
0.000155928
0.000161242
0.00016707
0.000149596
0.000150762
0.000189418
0.000154794
0.000173649
0.000138258
0.000176439
0.0277958
0.000153108
0.000233168
0.000136734
0.000142117
0.000179314
0.000155873
0.000146484
0.0226095
0.0202976
0.0284899
0.000144883
0.000148825
0.000137799
0.0322844
0.000214912
0.000169613
0.000182501
0.000136738
0.000138729
0.000182196
0.000153061
0.000147056
0.000157809
0.000156959
0.000204248
0.000139312
0.000143518
0.000298842
0.000136681
0.000151488
0.000178046
0.000139136
0.000181757
0.000232645
0.00100263
0.00014911
0.000157316
0.000136806
0.000136775
0.000159657
0.000142737
0.000145738
0.000150397
0.000143857
0.000151054
0.000173341
0.00013918
0.000138267
0.000180727
0.00019583
0.000135312
0.000257244
0.00014655
0.000151562
0.000152459
0.000142061
0.00014502
0.000153966
0.0001499
0.0276972
0.000155265
0.000135209
0.000174759
0.000176391
0.000151497
0.00015465
0.000159827
0.000152098
0.000163565
0.00013268
0.000189894
0.000132345
0.000135089
0.000144628
0.00019516
0.000162525
0.000141687
0.000135119
0.000169312
0.000211928
0.000203588
0.000162102
0.000208002
0.000165297
0.000138631
0.000133306
0.00014273
0.000132741
0.000154756
0.0002954
0.000144428
0.000141771
0.0105058
0.000155332
0.000141837
0.00015948
0.00168043
0.000168535
0.000144712
0.000175575
0.000148886
0.0288893
0.000206018
0.000147675
0.0234734
0.000144919
0.000138199
0.000145802
0.000163081
0.000160758
0.000134872
0.000146376
0.0352342
0.000160861
0.000143156
0.00401667
0.000145729
0.000141613
0.000164096
0.000176142
0.000175342
0.000239991
0.000162942
0.000200303
0.00540442
0.0293304
0.000219896
0.0079023
0.000128621
0.000146488
0.000138941
0.00014054
0.000168608
0.0295157
0.000145163
0.000218003
0.00251625
0.0140757
0.00182248
0.00014959
0.000155864
0.000143239
0.000182991
0.000148639
0.0035651
0.000148966
0.00013747
0.0375779
0.000143372
0.000204263
0.000243006
0.000235356
0.000154656
0.0102611
0.000153655
0.000137768
0.000138183
0.00293803
0.000143632
0.000143625
0.00275769
0.000174272
0.000147533
0.00305112
0.000145743
0.00276147
0.00019789
0.000145403
0.000236518
0.000141215
0.000132823
0.000162657
0.000157567
0.000221612
0.000191168
0.000140743
0.00014687
0.000151722
0.0033625
0.000165885
0.000143834
0.00737696
0.000131946
0.000161954
0.00359553
0.000156053
0.000149044
0.00013245
0.0281431
0.000220638
0.000180749
0.000156258
0.000159072
0.000157823
0.000189334
0.000228941
0.0289782
0.000215576
0.00017131
0.000168946
0.000195194
0.000148778
0.00434859
0.000136563
0.0001911
0.0273296
0.000215047
0.000198119
0.000134581
0.0398917
0.000153928
0.000153711
0.000235889
0.000147967
0.000150528
0.000149187
0.000226505
0.00014046
0.00749672
0.000133239
0.000143214
0.000138708
0.00013012
0.000149641
0.000143442
0.0346699
0.000144346
0.0019067
0.000137568
0.000157586
0.000138704
0.000133479
0.00332982
0.000147532
0.000152925
0.00361905
0.000149521
0.030403
0.000150494
0.0410367
0.0330826
0.00694797
0.000143477
0.000130361
0.000208722
0.000191794
0.000130056
0.000133348
0.00538181
0.000141803
0.000150322
0.000194225
0.000174304
0.000146712
0.000141789
0.00705905
0.00013608
0.000138485
0.000143739
0.000148897
0.00486369
0.000148231
0.000138953
0.000231935
0.000144283
0.000141328
0.000134436
0.000161957
0.000153049
0.000137857
0.0235121
0.000173652
0.00673529
0.00013993
0.000141253
0.000142449
0.000195792
0.000173172
0.000154046
0.000220549
0.000143369
0.000170583
0.000212481
0.00015462
0.000156468
0.000157922
0.000133353
0.000143387
0.0307429
0.000147346
0.000213528
0.000151834
0.000172338
0.0037753
0.000173649
0.000153024
0.000158536
0.000158038
0.00016296
0.00015563
0.000154915
0.00499378
0.000181349
0.000150264
0.000180022
0.0318991
0.000160707
0.000242099
0.000172083
0.0271731
0.000165839
0.000136103
0.000140424
0.000988257
0.00876655
0.000167499
0.000219886
0.000152775
0.000209067
0.0253753
0.00063323
0.00325865
0.000148762
0.0341086
0.000202763
0.000135466
0.000189125
0.000174488
0.000164778
0.000143896
0.000158328
0.000159534
0.000130265
0.000182977
0.000165392
0.0314886
0.000141124
0.000180624
0.000137489
0.000221275
0.000198747
0.000143496
0.000205283
0.00015389
0.00155895
0.000173727
0.000140403
0.0056794
0.000142461
0.0324895
0.000155803
0.000148512
0.000139701
0.000211673
0.000144889
0.000230942
0.000142428
0.028876
0.000132281
0.000144117
0.000221847
0.000153273
0.000143482
0.000139865
0.000818485
0.000173109
0.000213747
0.000152698
0.0216864
0.000136277
0.000163141
0.000146202
0.000139734
0.000174272
0.00222027
0.000199704
0.0399036
0.00013232
0.00015712
0.000147627
0.000212568
0.000155668
0.000179288
0.00017179
0.00461562
0.000142003
0.0341425
0.000144115
0.000148264
0.000143477
0.000152053
0.000174701
0.000149117
0.000158178
0.000135658
0.0225176
0.000207419
0.0269725
0.000164235
0.000170097
0.000154586
0.0367454
0.000139087
0.000137324
0.000224547
0.000134881
0.000226648
0.000143452
0.000154243
0.000232303
0.000155417
0.000195263
0.000193345
0.024995
0.000138969
0.000130325
0.00021653
0.000142402
0.000171084
0.000239249
0.000163947
0.0220022
0.000147463
0.0308919
0.000204405
0.000141366
0.0280085
0.000205913
0.000160657
0.00723119
0.000181629
0.000200372
0.00020647
0.000160409
0.00129111
0.000188732
0.000162653
0.000132117
0.00341288
0.000146651
0.00321699
0.00014671
0.00225541
0.000153933
0.00014828
0.000147473
0.000143372
0.0348931
0.000142519
0.000141864
0.000181734
0.000143856
0.00016266
0.000153454
0.000154593
0.000174217
0.000146316
0.000174444
0.000143547
0.000139418
0.00014521
0.000175167
0.00014308
0.000189882
0.000249201
0.000131944
0.00014894
0.000135466
0.00021104
0.000145022
0.000134373
0.000131993
0.000134731
0.00112056
0.000137673
0.000137888
0.00355779
0.00022228
0.000174236
0.000227136
0.000146557
0.000155107
0.000200904
0.000147011
0.000173165
0.000153906
0.000143806
0.00015847
0.00015519
0.000142859
0.000154277
0.000195886
0.000132065
0.000130435
0.000213217
0.00015912
0.000181611
0.000141634
0.000151634
0.000401452
0.000142211
0.000149582
0.000132641
0.000171143
0.0407064
0.000226155
0.0223115
0.000159394
0.000143476
0.000143456
0.000386332
0.000146461
0.000265618
0.000890757
0.000170863
0.000190036
0.000142759
0.000149156
0.00015854
0.000142037
0.000139869
0.000174193
0.000225618
0.000142095
0.00016955
0.00013989
0.000144786
0.000148757
0.000150554
0.00464755
0.000142787