/*--------------------------------*- C++ -*----------------------------------*\
| =========                 |                                                 |
| \\      /  F ield         | OpenFOAM: The Open Source CFD Toolbox           |
|  \\    /   O peration     | Version:  v2012                                 |
|   \\  /    A nd           | Website:  www.openfoam.com                      |
|    \\/     M anipulation  |                                                 |
\*---------------------------------------------------------------------------*/
FoamFile
{
    version     2.0;
    format      ascii;
    class       volScalarField;
    location    "200";
    object      omega;
}
// * * * * * * * * * * * * * * * * * * * * * * * * * * * * * * * * * * * * * //

dimensions      [0 0 -1 0 0 0 0];


internalField   nonuniform List<scalar> 
37809
(
0.0231046
0.0803237
0.0289087
0.571051
0.0237452
0.0245462
0.0236772
2.83968
0.0252883
0.0366249
0.0288152
0.0294379
0.0244151
0.0275631
0.0256991
0.0264266
0.0245328
3.80494
0.0293931
0.0246855
0.0264215
3.12473
0.378216
0.0275711
3.23386
0.0258186
0.0289649
2.79786
0.0346719
0.0226748
0.0285561
3.23701
0.0245912
0.0599695
0.0295046
0.0245948
0.0929252
1.64369
1.03037
0.0234131
0.0222858
0.151269
0.0264993
0.0378725
0.0245419
0.0302915
0.0257221
0.026768
0.0263494
0.0927762
2.88669
0.7735
0.070754
0.0623489
0.0292353
0.0238727
0.136726
0.028455
0.191622
2.81419
0.0302615
0.0346524
0.531889
0.0378966
0.026656
0.025701
0.0776284
4.2253
0.0361673
0.0614816
0.0238817
0.0249957
0.793417
0.153076
0.0239444
0.0492154
0.0902804
0.0229135
0.0262485
0.0256479
0.0385358
3.74897
0.0248266
0.0624489
0.0775337
5.10098
0.0249103
2.8635
0.0362297
0.0930548
0.0258341
2.94131
0.033197
0.0240514
0.0341819
0.0229233
3.48328
0.022912
0.0220642
3.28429
0.0249712
0.140211
0.0231239
0.0265402
0.0714379
0.0255163
3.13354
0.0241863
2.67468
1.9631
0.0241996
0.152292
4.02993
0.0234121
2.88415
3.98347
0.0255959
0.0236724
0.34497
0.0250915
0.084515
0.0404394
2.93612
0.0245024
0.0233541
0.0471763
0.0228064
0.0263581
0.0228192
0.0228713
0.0286541
0.0256458
0.0243688
0.0233565
0.0228058
0.0239653
0.0394993
0.0508563
3.5157
0.0270546
0.0297436
0.152188
0.0278447
0.0250332
0.0228828
0.0239151
0.0297189
0.026678
0.0228363
0.0228038
0.284635
0.0250326
0.0253803
0.168504
0.0228291
0.0284204
0.0228054
2.11447
0.0220882
0.0238821
0.0246059
2.99128
3.19257
0.0256652
0.022847
0.0578127
0.0246139
0.0972114
0.0263566
0.38954
0.0245022
0.095608
0.0250261
0.025094
0.0278584
0.0233342
0.0253234
0.0244444
0.0455448
0.0239582
0.0240229
0.160969
0.0237814
0.0240176
0.02449
0.0230171
2.93055
0.0250288
3.40298
0.0868153
0.523655
0.106896
0.024699
0.139624
0.0240271
0.0248126
0.0248104
0.16486
0.0249944
3.02474
0.521984
0.0385513
0.0247358
0.0268054
0.0306311
0.025651
0.0238426
2.84549
0.0230707
4.07567
0.333658
0.148716
0.338588
0.0942391
0.0246655
0.0221002
0.52055
0.144277
0.0231186
0.392779
0.0781234
0.0247872
0.0305969
0.0261352
0.0251151
0.146505
0.0239162
3.41733
0.0227935
0.383571
0.0259293
0.0247861
0.0251167
0.0247372
0.0266536
0.0818478
3.20044
0.0261385
0.0257254
0.022984
0.103593
0.0238485
0.0661265
3.4977
0.0384923
0.0287523
0.143855
0.0625541
3.55214
0.0400172
0.0244057
0.0239043
0.0340832
2.99746
0.0250789
0.0244846
0.0516456
0.0245028
0.0250232
0.029171
0.0240094
0.0244164
0.0250012
0.0259877
3.66325
0.024813
2.97554
0.151591
0.0229141
0.0254226
0.0240946
0.0249484
0.0239211
0.0475397
0.0412515
3.72883
0.0267638
0.0264698
0.0244126
3.95348
0.145678
0.0246401
0.0266244
0.8794
0.10825
0.0244945
3.22781
0.0337202
0.0236536
0.382892
0.0264698
0.0255203
0.0452739
3.38
0.0366535
0.0236657
2.80376
0.0243885
0.0243749
0.0567319
0.335557
0.0238234
0.0264636
0.0346504
0.0256685
0.0273528
0.0243899
0.0250735
0.0257783
0.0530023
0.0289984
0.0248109
0.0248279
0.0570979
0.0892022
0.0236198
0.0906788
0.0230365
1.04538
0.0554059
0.0293183
0.0471145
4.03412
0.344476
3.37549
0.0231388
0.0363983
3.42118
0.024564
0.0266784
0.0470701
0.0481693
0.763815
0.0227899
0.0247896
0.023392
0.0250244
0.141254
3.04774
0.0250458
2.81389
0.0236186
3.64426
0.0833793
0.0232876
0.0248416
3.55831
3.7058
0.0359167
0.0285542
0.027637
0.0253506
0.0262651
3.57508
0.03812
0.025116
0.0221675
3.34698
0.149671
0.024144
0.0228376
0.274127
0.0318526
0.0228526
0.0233148
0.0563648
0.0239265
0.154181
0.0671753
0.02302
0.0308829
0.0230049
0.0256132
0.0228057
0.0735122
0.0239077
0.0241396
0.0243747
0.0403335
2.92712
0.0289981
0.0251396
1.3235
0.143888
0.0568571
0.0233457
0.0261454
1.32416
0.108393
3.1521
0.0234352
0.0304884
2.81146
0.0444475
0.0507039
0.0233187
0.0234262
0.0233487
3.55251
0.0241008
0.0233466
0.0239988
0.0287048
3.42206
0.0266666
4.65569
0.0887123
0.0227627
0.0309914
0.170698
0.0257291
0.0268864
0.0419281
0.0833208
0.132708
0.0229456
0.0240893
0.0281568
0.0477164
0.240317
0.023891
0.0233807
0.0258582
0.0487432
0.346379
0.101851
0.0288317
0.0227712
0.0245724
0.0239033
0.0227775
3.13974
0.0566694
0.0494782
0.02968
0.0286328
0.0304853
3.35587
0.0247096
1.98426
0.0246772
0.0291956
0.0235429
0.0248592
0.0230309
0.0227857
0.0237406
0.0233195
0.0236474
0.0275421
0.0247218
0.0251627
2.32758
0.0248878
0.0257754
0.0240723
0.0237633
0.0276955
0.0244791
0.0295633
0.0806521
0.025005
0.0632138
0.023353
0.0248058
0.0562958
0.0235738
0.0233863
0.069409
0.0337868
0.0556311
0.0236352
0.625597
0.0290167
2.85014
0.0247153
0.0256606
0.403168
0.0397374
0.0235397
0.026714
0.348021
2.48313
0.0239814
0.152431
0.0245114
3.5681
0.0354453
0.0240818
0.142403
0.0250511
0.0240727
2.2548
0.17853
0.0230854
0.0249838
0.0236278
0.0227015
3.33385
3.26237
0.0226885
2.07131
0.0383981
0.0228753
0.0229992
0.0226849
0.0281849
3.2431
2.65931
0.202021
0.0234261
2.83209
0.0244865
0.0240975
0.150973
0.0239912
0.0516394
0.059779
1.98224
0.0268213
0.144552
0.022677
0.0754828
1.00983
0.0476323
0.025111
0.085785
0.0777515
0.0240782
0.0532638
0.0245807
0.0305327
0.027125
0.0382894
0.0250507
0.0455855
0.0587446
3.61759
0.0226756
0.0255237
0.0239315
0.0385098
3.28238
0.0599887
3.2108
0.0512446
0.0280612
0.0261112
0.0318337
0.0596871
3.18934
0.0516076
0.0242329
0.0256248
0.0596727
0.0352863
0.0551405
0.028879
0.054138
0.165961
3.50752
0.0239556
0.0228526
3.36895
0.0249777
0.0235549
0.0227927
0.0228909
0.0262473
4.23939
2.95519
1.7406
3.15367
0.0244281
0.0262325
0.11332
0.0262414
0.0280555
0.0377908
0.136412
0.0237204
0.0244038
0.0231814
0.0234349
0.106845
3.75597
0.0233817
0.0310135
0.0500608
0.0435474
0.0239218
0.0228356
0.183735
0.0226438
1.95882
0.162396
0.0386626
0.0256277
0.0229636
1.77045
0.0289427
0.0293138
0.0248472
0.0238704
0.0332261
0.12139
0.0336063
0.0261062
0.0247296
0.0445493
0.102593
0.0381161
0.0257343
0.0612742
0.0271545
1.62951
0.0578346
1.13692
0.0252038
2.79061
0.232608
0.902261
0.0558864
0.0395758
3.44576
0.0242297
0.0267337
0.0483663
0.0471095
0.0237016
0.0407387
1.96149
0.025494
0.0260365
4.62953
1.47545
0.0432778
0.0387383
5.40211
0.0242583
0.0401311
3.48785
0.0253197
0.13227
0.0229378
0.0252429
0.0229539
0.0918809
0.0289956
0.0469909
0.0440208
0.027064
0.159607
0.0282479
0.0463078
0.0661461
0.0253198
0.0251559
0.0228123
2.15066
0.0247063
0.0562193
0.0258162
0.0265579
0.0236911
0.0261741
4.07838
0.0237785
0.0228388
0.0229259
0.0271554
2.77577
0.0572772
0.28196
0.0236826
0.0245292
0.188107
0.0239381
0.0238685
0.0920454
0.023052
3.3279
0.0880133
0.0970642
0.0275533
0.0235784
0.0237885
0.0242524
0.0252445
0.530694
0.526114
0.0265157
0.0268824
0.0227052
3.85197
0.0283949
0.0246956
0.023591
0.336693
0.028843
0.0257905
0.110857
2.11836
0.177053
0.0287568
3.14583
0.023161
0.158693
0.027183
0.0230743
0.0257496
0.175265
0.0226978
0.0244763
0.0226719
1.49117
0.514143
1.26357
0.024097
0.0247574
0.0246493
0.0252101
0.0243619
0.0539527
0.0265146
0.0250432
0.0226178
0.022961
0.168266
3.6173
0.0520438
0.135761
0.0258483
0.0276994
0.0238643
0.0239739
0.0283069
0.19074
0.0256995
0.283806
0.0314497
0.878197
0.0246802
4.01288
0.109211
0.0226935
0.0234163
3.91344
0.0240856
0.0242214
3.52794
0.02319
0.0527613
0.0234109
1.05854
0.0249442
0.0244972
2.95797
0.0518113
0.0536731
0.0240817
0.026451
0.0233163
0.0244847
0.0291934
0.0245352
0.0273368
0.024443
2.12052
1.41135
1.465
0.0292024
0.0253379
4.08309
0.0242198
0.0250727
0.0228201
0.0243614
0.0245241
0.0529436
3.56723
0.0226604
0.0226577
3.53872
0.0246102
0.024183
0.0872638
0.0504599
0.142437
2.12583
0.0930206
2.65602
3.30884
0.024915
2.88908
0.0252887
0.138254
0.0333831
0.0239703
0.0271499
2.11082
0.0260764
0.0239778
3.35948
0.0262958
0.032632
3.44502
1.41986
0.0245064
0.0561678
0.510339
0.0256927
0.0423442
0.023811
0.0507355
0.34513
0.0241043
0.0237817
0.0642334
0.0227591
0.212592
1.01936
0.229917
0.0247765
0.273937
0.0831781
0.0242069
0.0240775
0.0237979
0.0237559
0.0247317
0.0584333
0.464163
0.025672
0.0242022
0.0636343
0.0280288
0.0287951
0.0268095
0.0248355
0.0681317
0.0237553
0.0281722
0.0235469
0.0245495
0.139708
0.0248239
0.0236908
0.0244396
0.0558405
0.0547161
0.0223054
0.0235706
0.067482
0.0250517
3.34557
0.0323013
0.0430088
0.0229188
0.0349187
0.0264628
0.0240821
2.9163
0.0285382
0.0246272
0.336636
0.0243802
0.0220745
0.0247008
0.0456842
0.0220811
0.17343
0.337897
0.0292046
0.0541516
3.63619
0.0430218
0.0231149
0.0247833
0.0291904
2.92585
0.0242023
0.024952
0.0256993
0.0709877
0.0290793
0.0522736
0.278325
0.0249448
0.280984
3.85949
2.83596
0.0810224
0.42792
0.0287778
0.0238639
0.107932
0.0256027
0.36056
0.0260071
2.74704
0.0512396
0.0242698
0.023818
0.0413069
0.36441
0.0251605
0.0254523
0.0245537
0.0234224
0.0240918
0.523613
0.0254338
0.0231083
3.63726
0.023743
0.208273
0.0281605
0.0547332
0.0510028
0.0251952
0.0237414
2.91437
3.40979
0.0290617
0.0439701
0.0348855
0.0238125
0.0235936
0.0485797
2.81453
0.0241673
0.0271361
0.103038
0.0469222
0.0243732
0.140422
0.0931575
0.098039
0.0241287
0.0372723
0.0790376
3.2672
0.0251349
0.0242742
0.0256534
0.0249302
0.0252484
0.0246207
0.21698
0.0232852
0.0263315
0.0949658
0.0248282
2.91222
0.0235712
2.66707
0.0228471
2.90975
0.247738
0.175089
0.0252929
2.72789
0.0299847
0.0268951
0.0477559
0.0356659
0.0872069
0.0233598
0.0235809
0.184706
0.0264101
0.719023
0.0397431
1.2497
0.0234801
0.0412839
0.0228109
0.0284612
0.195249
0.0360959
0.0443871
0.0236093
0.159502
0.760377
0.0626619
3.21662
0.0449207
0.0251068
3.12879
3.51988
4.0134
0.0411717
3.58092
4.10029
2.00107
0.0245442
0.0238464
0.0242316
0.0273713
0.0226457
3.44039
0.35913
0.0227131
0.0581822
0.0378216
0.0249204
0.0224879
0.111799
0.0482977
0.025007
0.0314418
0.244102
0.0233285
2.13812
0.282667
0.0960107
0.0233195
0.35644
0.0416266
0.396624
0.0230625
4.01996
0.0370502
0.0838016
0.0395125
0.0230663
0.0227967
2.66759
0.0250269
0.0285201
0.0646895
0.0413227
0.0262882
0.0275197
0.0240934
0.0243161
0.028663
0.0242264
0.0524766
0.0544007
0.0441909
0.141381
0.0243221
0.0605189
2.12362
0.0310325
3.40845
0.0262434
0.0240243
0.0366558
0.61817
0.0221732
0.025724
0.0361123
0.205516
0.0365614
0.0321187
0.0348241
0.054307
2.10962
0.0249925
0.0286787
0.337922
0.0228288
0.74206
0.0310079
0.0578991
0.0267909
0.0247197
0.0298524
0.0428458
0.223941
0.0300852
0.0242478
3.275
0.0792011
3.66494
0.902087
0.0249496
0.336887
0.0247132
0.0300653
0.0226609
0.0369285
0.0273562
4.10539
0.0240281
2.40698
0.0232688
0.0248261
0.0233555
0.0520593
3.48489
0.0249777
0.0408942
0.0246781
0.0422142
3.63228
3.56341
0.0233748
0.0913488
0.0228953
0.0232712
0.0237732
0.0255989
0.0248762
0.0286835
3.07526
0.0260541
0.335343
0.0499618
0.0230017
0.0455107
0.0256136
0.159029
0.0254093
0.0249948
0.0277089
0.0222781
0.0380123
0.0279922
0.148365
0.109586
0.0247477
0.0229795
0.0397904
0.0935518
0.339317
0.0644458
0.0251658
0.0220833
0.0261628
0.0611688
0.339167
0.02949
0.0471115
1.69351
1.60614
0.18437
0.0250446
3.03148
0.120842
0.0231279
0.0243893
0.0244643
0.0231351
0.022473
0.026508
0.116638
0.0871356
3.38974
2.61285
0.12265
0.0979421
0.0264036
0.0805902
0.0266143
0.0227344
0.0467145
0.0251743
0.0287714
0.0263769
0.0551066
0.0227146
0.0260878
0.0253456
0.0248432
0.0235743
0.02514
0.0237267
0.0266755
0.0226219
0.02824
0.0257371
0.0236001
0.0382336
0.0350796
0.0255215
0.023599
0.0318382
0.0237042
0.0235991
3.00241
0.0251308
0.14985
0.111453
0.0229428
0.0228394
0.0230677
0.0247033
0.521159
0.124235
2.89205
0.024916
0.0477408
0.0247925
0.0230603
3.42493
0.0504089
0.0228445
0.0236712
0.0239893
0.041299
0.0231432
0.0259912
0.0235904
0.0671872
0.0241241
0.0263239
0.0403123
0.02347
0.0233579
0.0235824
0.0242216
0.0227997
0.0236466
0.0328067
0.0227297
3.03972
0.0271586
0.0260887
0.0241085
0.117292
0.0515819
0.0295017
0.0234158
0.02505
0.7218
0.0235119
0.0233587
0.0233095
0.0250239
3.53273
0.0277925
0.0236647
0.0225766
0.0331447
0.0308181
0.0580055
0.127823
0.0299795
0.333039
3.16086
0.0263058
0.0251732
0.0272398
1.85888
3.2779
0.0231638
0.0246266
0.0385085
0.0584471
0.0498104
0.0233014
3.31941
0.0228968
3.36852
0.0238287
0.0221039
0.0247136
0.0240714
0.0225597
0.0239116
0.0220843
4.00135
0.0247032
0.0246946
0.0225699
0.0227401
0.034115
0.0263995
0.342969
0.0227639
0.0263286
0.320743
0.114886
0.027012
0.0573844
0.186508
0.0254204
0.0237921
0.0468328
0.0994004
0.0670916
0.0549496
0.068044
0.0236725
3.04991
0.0308222
0.0240292
0.0260713
0.239081
0.341191
1.93796
0.0239887
0.0540861
0.033804
0.0249229
0.0327728
0.0983734
0.022587
0.0254177
0.0248051
0.0255083
0.0230808
0.0258501
0.025701
0.0249494
0.0223612
0.901921
0.554827
0.0239609
0.174101
0.0230807
0.0225548
0.0236542
0.0289521
0.0241345
0.0763075
0.0645572
0.02896
0.0291562
2.67644
0.0225323
2.8569
0.0235818
0.0246965
0.0269468
0.0254626
0.0286628
0.308612
0.0258614
0.0239526
0.0225452
0.0227538
0.0301978
0.0254142
0.0225404
2.84633
0.0359215
3.31492
0.0240665
0.0604208
0.0698609
0.291655
0.0225243
0.0276111
3.55718
0.0252144
0.0273541
0.0242225
0.110723
0.0247784
0.0475332
0.175466
0.0239437
0.0280163
0.0265016
0.0231633
0.0233424
0.0351941
0.0227482
0.343746
3.37175
3.49076
0.223236
2.89068
0.0248869
0.0858575
0.047052
0.0244804
0.0235236
0.0671264
0.313751
0.0249563
0.0355101
0.0247836
0.0248017
0.023554
0.0552387
0.0240844
0.0624127
0.0344579
0.0244759
0.0361242
0.0238335
0.0998311
0.118432
0.0259049
0.0252159
0.0233385
3.15361
0.0254563
0.0260881
0.0248004
0.0522533
0.0566617
1.79505
0.0247361
0.13164
0.0235177
0.024822
0.0242559
0.0556075
0.0412544
0.28428
0.996129
0.0233438
0.0239485
0.0826194
0.198139
0.0251061
0.0647165
0.0235412
0.036665
0.0250267
0.0240822
0.163797
0.0240062
0.132491
0.0329434
3.21888
0.0386847
0.0355807
0.0294575
0.0431417
0.0270197
0.335557
0.0242986
0.0227328
0.109346
0.0237104
0.0366404
0.0737908
0.0231366
3.34666
0.0508079
0.27365
2.99958
0.131016
0.0269994
2.89442
0.0510695
0.0224495
0.0352921
0.0224567
3.65681
3.50289
3.81292
3.93116
0.0245747
0.0289276
0.0244815
0.0244026
0.039513
0.0381902
3.73822
5.06883
0.0250802
0.0580102
0.0256071
3.17804
0.0246401
0.024882
0.0239368
0.0244226
0.0237295
0.023962
0.0261286
0.199741
0.0238889
0.0352282
0.024295
0.0240212
0.03293
0.025992
0.178262
0.0246542
0.0294371
1.50025
0.0262925
0.0227443
0.0257646
0.0351038
0.987933
0.383567
0.0227533
0.187478
0.0245403
0.0330275
0.0272807
0.0231081
0.0250813
0.0227322
0.0240112
0.0245803
0.0303956
3.01134
3.37801
0.079815
0.102464
0.0264809
0.0437811
0.0247559
0.0248813
0.0335469
3.86868
0.103694
0.0258558
0.0237614
3.2889
0.0263612
0.0233987
3.78006
0.0268053
0.0241428
0.0231699
0.0244464
0.0227879
0.0331929
0.0265547
0.145045
0.086666
0.0322733
0.0229278
0.0255464
0.0387564
0.0256137
0.0253242
3.55827
0.0228036
0.0248057
0.0227821
3.51761
0.026739
0.0323548
0.0263557
0.0261213
0.0258385
0.0278986
0.118102
0.0243961
2.54452
0.100334
0.0238726
0.165521
0.163087
0.0886024
0.0254751
0.381551
0.0255617
4.55188
0.0778667
0.0269978
0.81178
0.027477
0.04193
3.30738
0.0520514
0.0540021
0.0477728
0.18059
0.0233939
0.111176
0.0256214
0.181998
0.0415381
0.0227733
0.0232879
0.0272986
0.0256916
0.0796954
0.0299682
0.0229131
0.033895
0.0253502
0.0410476
0.102286
0.061888
0.052142
0.369462
0.0227675
2.4172
0.0272265
0.0242444
0.0256378
0.0231178
0.0895856
0.0237797
0.0228884
0.0653526
0.0255494
0.192251
0.0229131
0.0269287
3.41266
0.512656
3.1931
0.0258153
0.554792
0.0329733
0.142001
3.43806
0.0237619
3.65012
0.0385214
0.0246955
0.104998
0.0242405
0.0246919
3.74696
0.0243819
0.0244243
0.079297
1.11816
0.0273472
0.02749
0.167834
0.0281732
0.0279013
0.0256244
0.0463391
3.48275
0.0276507
0.025561
0.0242885
0.0248391
0.023058
0.0230667
3.05378
0.278201
0.0362246
0.0563245
0.0230852
0.0250034
0.0464399
0.0255192
1.85773
0.0267295
0.0243061
0.0296057
0.0235803
0.162755
1.36794
3.34091
0.0261741
0.0255493
0.0315766
0.176003
1.96517
0.54051
3.75967
0.033713
0.0257374
0.0280905
0.0250097
0.108366
0.0224574
0.180711
0.0454248
2.32056
0.0230545
0.0252394
0.0231426
3.52828
0.0239341
0.507613
0.0874443
0.0244469
0.179018
0.024226
0.104479
0.0386178
0.0285525
0.0241909
0.0251803
0.0275147
0.0355773
0.0308491
0.0276935
0.0336318
0.0229141
0.0228114
0.0266573
3.62672
3.64506
0.0247931
0.128095
0.0487626
0.0234616
0.155044
0.0285416
0.025196
0.0245605
0.022899
0.0264458
0.0464111
0.0543946
2.53637
0.0652198
0.216967
0.0261965
0.02976
0.0251291
0.0229057
0.0246642
0.05533
0.0283956
0.0351782
0.0249555
0.0254396
0.027431
0.0474514
0.0227414
0.0314582
3.47682
0.0471617
0.0249331
0.0244706
0.0345299
0.0227458
0.0237395
0.0240667
0.080572
0.0227364
0.0278695
0.0403041
0.0244131
0.053689
0.216139
0.0234539
0.0258356
0.0267194
0.0249563
0.0249733
0.0239374
0.117604
0.0257328
0.0279486
3.72722
0.0246204
0.0250818
3.67243
0.0237074
0.0426723
0.0221877
0.0227371
3.25343
0.0304169
3.29101
3.03534
4.40113
0.0227908
0.0317705
0.0235625
0.178411
0.0235489
0.102699
0.0230158
0.0828318
0.612431
0.122331
0.0432437
0.0240376
0.0227011
0.0245587
0.032038
0.0325857
0.022189
0.0447467
0.100639
1.84569
0.0270728
0.0235779
2.13463
0.0348246
0.046532
0.02374
0.0369128
0.0231297
0.0234014
2.77769
0.027382
0.0240423
0.0244717
0.0259571
0.0242837
3.27465
0.760512
0.0323884
0.0333998
0.0245987
0.282704
0.0248222
0.761098
0.0247927
0.038257
0.10384
0.0249793
0.0284619
0.533341
0.117256
0.0242935
0.0287948
0.0241954
0.0274754
2.81931
0.0278938
0.0999879
0.0352929
0.162269
0.0248006
0.184356
0.030471
0.0247792
0.0443156
0.0237456
0.02451
0.0271277
0.0366835
0.310895
0.0254632
0.029058
0.028276
0.174231
0.0242429
0.0544589
0.0230422
0.0268599
0.0304456
0.0262399
0.0254705
0.167088
0.0258847
0.0246667
0.125268
0.0259711
0.0250571
0.0228218
0.0259444
0.0240821
0.0259937
0.0238594
0.0295626
3.33122
0.0244659
0.0386285
0.0254793
0.0227384
0.027308
0.0242269
0.0242539
1.39751
0.0486309
0.07004
0.145513
0.109947
0.0244645
0.0257813
0.0229228
0.027597
1.52619
2.99298
3.16807
1.77679
0.0246599
3.87392
3.15517
0.0237658
0.0247084
0.608999
0.132797
1.8464
0.570615
0.022468
0.0236178
0.0286303
0.185943
2.58102
0.0833916
1.85101
0.0229283
0.118069
0.0230986
0.0272364
0.0240522
0.123637
0.0241208
0.0832236
0.0371712
0.0554872
0.0343665
0.0250495
0.0454018
2.84183
0.0363148
0.310258
0.0284579
0.0241718
0.024932
0.0249511
0.0563585
0.119881
0.0268859
0.039432
0.0245112
0.0810671
0.0337808
0.0381104
0.0256536
0.0246712
0.119309
0.0249154
3.43062
0.0401413
0.0233862
0.0241917
0.0221191
0.0918807
0.0232884
2.88117
0.0244136
0.0250937
0.0267931
0.430525
0.0257639
2.85543
0.0554846
0.0250896
0.123612
0.0259385
0.0250275
0.0245092
0.0241733
0.0260486
3.16767
0.0381455
0.0234008
0.0244825
0.0233166
0.0244777
0.0242706
0.0233471
0.0273355
0.0298409
0.0242798
0.0392647
0.0230503
0.0224099
0.0269467
0.0269089
0.0253751
0.0693981
0.0229519
0.0426114
0.0331951
0.0225168
0.0237053
0.134112
1.77346
0.0481522
0.0277525
0.0410871
0.0305596
0.0255734
0.0246302
0.115042
0.0272395
0.0304467
0.0361718
0.0254172
0.0253897
0.0828222
0.0270889
0.0417092
0.0233473
0.0487853
2.6278
0.0261309
0.282338
0.0234463
0.0241172
0.0534846
0.0275346
0.0245736
2.82643
3.88065
2.79197
0.0246122
0.0250677
0.0235983
3.03168
0.182794
0.0391311
0.0528037
0.0234491
0.0233801
0.059937
0.0261116
0.0250722
0.0282321
0.0278302
0.0978294
0.023479
0.0245932
0.0733203
0.0234652
0.0252574
0.0474115
0.0234443
0.0355525
0.0947665
0.407508
0.0250058
0.0280532
0.023537
0.0235324
0.0277626
0.0244212
0.0245306
0.0253065
0.024607
0.0256857
0.0316849
0.0238141
0.0233503
0.0573135
0.0699174
0.0232182
0.773437
0.0247275
0.0257851
0.0254917
0.0239628
0.0246251
0.026598
0.0253537
3.28143
0.0269706
0.0232075
0.0465413
0.046182
0.0258154
0.0266482
0.0262671
0.0253307
0.032722
0.022876
0.0835589
0.022822
0.0230909
0.0246237
0.0726591
0.0314322
0.0242258
0.0230793
0.0381171
0.190823
0.141249
0.0309879
0.101779
0.0336791
0.0233828
0.0228999
0.0245005
0.0228855
0.0267597
0.474162
0.0244109
0.0242531
1.4892
0.026808
0.0242528
0.0292145
2.04192
0.0366412
0.0246294
0.0449807
0.0249843
2.91462
0.0690428
0.0250456
3.45937
0.024718
0.0233105
0.0247278
0.0317921
0.0293321
0.023136
0.0248927
3.55152
0.0302094
0.0245642
0.390208
0.0246228
0.0239363
0.0336284
0.045545
0.0474127
0.306724
0.0316079
0.131413
0.372115
3.18414
0.215953
0.518548
0.022155
0.0249049
0.023417
0.0240118
0.0372627
2.91362
0.0242804
0.206587
1.3812
3.12979
2.21947
0.0251335
0.0272542
0.024551
0.0534797
0.0250281
0.484618
0.0250164
0.0232386
3.88349
0.0244324
0.143375
0.102004
0.267321
0.0270253
3.0005
0.0269398
0.0235534
0.0233119
0.314711
0.0245546
0.0244537
1.52652
0.0466448
0.0247405
0.526395
0.0243546
0.293977
0.102996
0.0246488
0.271881
0.0242426
0.0228135
0.0314248
0.0259951
0.0493544
0.0595131
0.0240887
0.0246763
0.0258389
0.311028
0.0349304
0.0246016
0.658269
0.0227295
0.0312303
0.274253
0.027289
0.0251239
0.0228374
3.45283
0.0365799
0.0525172
0.0276188
0.0289837
0.028028
0.0804592
0.0362984
2.74678
0.186025
0.0407313
0.0379939
0.108574
0.0249871
0.392289
0.0234493
0.0848863
2.80144
0.183083
0.0707801
0.023011
3.54178
0.0265941
0.0269442
0.276699
0.025161
0.0253259
0.0250626
0.0728824
0.0240045
0.750658
0.022621
0.0245469
0.0233885
0.0224634
0.025291
0.0244878
3.12237
0.0242466
1.40819
0.0235781
0.0282024
0.023384
0.0226452
0.31303
0.0247393
0.025574
1.57251
0.0255776
2.81569
0.025496
3.42267
1.86235
0.752124
0.0244432
0.0224957
0.03373
0.0592711
0.0224446
0.0228452
0.489356
0.0242589
0.025289
0.101651
0.0450252
0.0248109
0.0242366
0.734209
0.0230012
0.0233504
0.0244655
0.0250482
0.472719
0.0248742
0.0234268
0.255222
0.0243483
0.0242591
0.0229781
0.0267899
0.0254701
0.0236851
2.80565
0.0403816
0.651475
0.0240111
0.0242495
0.0244212
0.0936548
0.0397985
0.0263787
0.218033
0.0244549
0.0398771
0.0638381
0.0271429
0.0276313
0.02867
0.0228503
0.0245009
2.0272
0.024931
0.187473
0.0258355
0.0421033
0.370522
0.0429246
0.0260408
0.0286599
0.0284435
0.0283853
0.0271525
0.026691
2.69778
0.0528317
0.025272
0.0530022
3.01724
0.130955
0.113806
0.0421127
3.24434
0.0341882
0.0234135
0.0236455
0.435667
0.617684
0.0354103
0.939394
0.0260901
0.15489
2.87877
1.23431
2.56544
0.0250837
3.08702
0.135866
0.0229657
0.0803455
0.0439707
0.0331853
0.024473
0.0287206
0.0286498
0.0224812
0.0612571
0.0319445
2.95787
0.0240294
0.053716
0.0235244
0.210805
0.0640782
0.0245154
0.0590371
0.0266107
0.267148
0.0458076
0.0236426
1.38126
0.0242495
3.65266
0.0270336
0.0249341
0.023966
0.177
0.0243624
0.27873
0.0244173
2.89388
0.0226975
0.024273
0.097358
0.0260445
0.0244659
0.0240159
1.12667
0.0429026
0.0350514
0.0260538
3.81045
0.0233365
0.0321393
0.0246393
0.0239726
0.0457492
0.316259
0.0807545
3.9372
0.022705
0.0278638
0.0248552
0.183154
0.0272089
0.0535215
0.0413137
0.359572
0.0239588
3.08519
0.0242082
0.0248559
0.0245704
0.0258259
0.046504
0.0251588
0.0274881
0.022989
3.16198
0.146945
2.63662
0.0329975
0.0392805
0.0266872
1.96981
0.0234438
0.0235346
0.205855
0.0230051
0.245817
0.0245711
0.0262007
0.0940077
0.0270548
0.103167
0.0796546
3.81081
0.0234236
0.0224977
0.173676
0.0239902
0.039371
0.0790179
0.0322872
2.32994
0.024724
2.8484
0.115517
0.0237774
3.25162
0.076583
0.0300175
2.95257
0.0585417
0.132044
0.163912
0.0263806
0.420028
0.0762054
0.0319731
0.0227827
2.5545
0.0244834
0.410613
0.0248167
0.308053
0.0262075
0.0249015
0.0249477
0.0244972
3.45138
0.0244227
0.0242588
0.0587755
0.0241671
0.031777
0.0266042
0.026273
0.035789
0.0249058
0.0437218
0.0245576
0.0234773
0.0244739
0.0475887
0.02452
0.0831655
0.0884819
0.0227389
0.0249767
0.0229394
0.186593
0.0245986
0.0229409
0.0227655
0.0229491
0.446109
0.0235588
0.0233137
0.435892
0.226744
0.0450264
0.0386687
0.0249514
0.0270418
0.0897718
0.0245811
0.035284
0.0263419
0.0245473
0.0286151
0.0267832
0.0244552
0.0269758
0.282973
0.0227771
0.0225046
0.174908
0.0295887
0.0553579
0.0242578
0.0256327
0.0644563
0.0239163
0.0251046
0.022752
0.0405402
3.96618
0.198525
2.10355
0.0291629
0.024577
0.0245768
0.869809
0.0245719
0.134435
0.355988
0.0406004
0.0764577
0.0244281
0.0254869
0.0285856
0.023963
0.0236038
0.0431298
0.238127
0.0239615
0.0386452
0.0236031
0.0244768
0.0250459
0.0252188
0.604977
0.02442
0.0286572
0.0422967
0.0241365
0.0629491
0.0260271
0.0401982
0.024805
2.00508
0.0239468
0.0260386
0.0235649
0.0360749
0.02966
0.0569271
0.0248545
0.0231064
0.0463624
0.135927
0.0247026
0.025047
0.578443
0.0276323
0.0250739
0.338993
3.54112
0.026522
3.93888
0.0246162
0.0831917
0.750989
0.0227214
0.0295898
0.0648283
0.0862201
0.0268291
0.264258
3.07085
0.0230516
0.2893
0.0254511
3.46688
0.023183
3.00183
0.0308098
0.0239057
0.0231378
0.0246463
0.0244381
0.0322613
0.0307941
0.686427
0.0239509
0.0351751
0.0255563
0.0237317
0.0246643
2.35123
0.347395
2.80882
0.0280038
1.06254
0.024674
0.0261399
0.272412
2.753
0.0252612
0.171639
0.0406959
0.0231463
0.0333013
0.0255549
0.0252821
0.0250929
0.0398341
0.0242816
0.109858
0.0265256
0.154953
0.0237466
0.0245748
0.0323071
0.024486
0.0418483
0.238432
0.259695
3.39237
0.0241096
0.0242992
0.0248689
0.195554
0.0825011
0.0242815
0.0263886
0.0276069
0.125534
0.0246029
3.73885
0.0244494
0.024595
0.0234599
0.0285842
0.160437
2.94986
0.131265
0.0343771
0.0268371
0.0300448
0.363628
0.0248115
0.0780303
0.0246239
0.0268546
0.0242851
0.0241085
0.0250096
0.0246114
0.0491786
0.281493
0.0277463
0.0253401
0.0287414
2.25459
0.106849
3.45304
0.0664605
0.141095
0.0495799
1.82912
2.7548
0.0260962
0.0239439
0.283185
0.0256748
0.0600605
0.0242788
3.17478
0.022095
0.345731
0.0242475
0.02582
0.0332815
0.0239823
0.179099
0.058007
0.025649
0.0236755
0.0224371
0.0246392
0.0280187
0.024253
3.48693
0.0224362
0.0247958
0.0228702
0.0369651
0.0306459
0.0723148
0.0331993
0.128098
0.029165
0.0332212
0.119447
0.0228879
0.0230625
0.023952
0.025653
0.0642375
0.0270413
0.444182
0.103473
0.0239442
0.0606078
0.0244705
3.38659
0.03132
0.259827
0.03358
0.385472
0.0488688
0.0261717
0.0248565
0.0239419
0.105
0.139896
0.0251236
3.17495
0.025292
1.86845
0.0271579
1.609
0.0735464
0.0264855
0.387979
0.0235755
0.45676
0.0269452
0.0996957
0.0252965
0.0257049
0.029869
3.80798
0.0248786
0.0331335
0.0240534
0.16776
2.06701
0.0263552
0.028105
1.24171
0.0260915
0.0256873
0.0247879
0.0426715
0.0504438
0.0256703
0.0268533
0.0246829
0.0263417
0.0250422
0.0266546
0.0251709
3.62272
0.0229478
0.0292503
0.0421844
0.0252243
0.024186
0.0237895
0.411206
0.031443
0.0331265
0.0224416
0.0366126
3.48869
0.0224648
0.0231734
0.0242095
0.0297974
0.0378804
0.0245704
0.0267603
0.0295544
3.01574
0.0931858
0.0267448
0.0239423
0.0275613
0.0317946
0.0264236
0.0254415
3.32932
0.0268826
0.0260252
0.0727848
0.0288258
2.19409
3.43414
0.0259484
1.93482
0.0430333
0.0269593
0.0698935
3.20006
0.0252354
0.023245
0.0244338
0.0264563
0.0239137
0.0394178
0.0682708
2.86134
0.0231532
0.074272
0.067278
0.0336175
0.0921598
0.0256463
0.0225155
0.0313545
0.376308
0.0290508
0.0346543
0.0240461
2.19834
0.0244528
0.0285806
0.230929
0.0290333
0.0320512
0.0253382
0.0245891
0.0761795
0.024578
0.0231911
0.562954
0.0240712
0.0248477
3.97037
0.0253087
0.0347853
0.969306
0.0227202
2.80661
0.0308206
0.0279019
0.0472
0.0246738
0.0336111
0.0431259
0.024523
0.0335779
0.0358363
0.0235348
0.0520458
0.0436925
0.184106
0.0661331
0.0240491
0.0279397
0.0231227
1.87055
0.90058
0.023154
0.0265662
0.02482
0.0265198
0.0730129
0.0317107
0.0230662
0.0272339
0.0248759
0.0310547
0.0231616
0.0232428
0.0262749
0.0630005
0.024159
0.277741
0.101346
0.0241729
2.86688
0.0226316
0.0425937
0.0953869
0.0339734
0.0224855
2.7524
0.0263736
0.123289
0.0291702
0.0260663
0.194682
0.0267392
2.88861
0.0237952
0.0704684
0.0244426
0.0313446
0.0261712
1.98059
0.0659961
0.0231018
0.0230895
0.0275358
3.00542
0.0224814
0.0256898
0.0262995
0.0225933
0.508983
0.0246002
0.0224523
0.046515
0.024035
0.0236765
3.19474
0.0699572
0.0249739
0.28402
0.0422097
0.0242617
0.0246582
3.79799
0.0224371
0.135613
0.0263088
0.0367265
0.0243988
0.0239185
0.0231128
0.0706564
0.895076
2.60007
0.0313047
0.0243358
0.0973978
3.30021
0.0247013
0.0262896
0.0241837
2.84773
0.0250569
0.357259
3.65037
0.67493
0.0240132
0.360084
0.0245847
0.0717632
0.0248048
0.0230685
0.0710791
0.0326013
0.0241035
0.0442459
0.107489
0.0749005
0.0346969
0.145268
0.0261744
2.98793
0.159518
0.0243138
0.0239776
0.289838
0.0462786
0.0601668
0.0231012
0.037797
0.0227484
0.0229046
0.0415295
0.0292238
0.0264847
0.041195
0.0237054
0.0291058
0.0236472
0.456081
0.0229254
0.0239248
0.0356346
0.0870092
0.0256149
3.18222
3.03852
0.02648
0.0227434
0.0241349
0.0267092
0.0829412
0.0244261
2.96609
0.0505883
0.103326
0.0236378
0.0259751
2.78501
0.0996808
2.79667
0.144333
0.0225923
0.0530186
0.0648823
0.136607
0.0227241
0.0230561
0.0240868
0.0878141
0.0269148
2.30683
0.024502
0.0230465
0.0240835
3.69816
0.0279518
0.0329878
0.0226073
0.0231831
0.0227836
0.0500667
0.049733
0.0223872
0.0421345
0.170876
0.287353
0.0234822
0.183691
0.0241063
2.82531
3.35547
0.0227854
0.0230185
0.0501324
0.0247061
0.207361
0.0733445
0.0244121
0.0270007
0.0255587
0.0312668
0.0244213
0.0296502
1.64715
0.0298061
0.0230962
0.825244
0.317403
0.058577
0.0226642
0.0229116
0.0234849
0.0430644
0.0260325
0.0278121
0.024518
0.02587
0.0226014
0.099862
0.0228897
0.0231604
0.0227301
0.022998
0.0254607
0.0257867
0.0466623
0.02601
3.841
0.0228986
3.98831
0.0362256
0.278741
0.464106
0.024384
3.12452
0.0288459
0.0254795
0.0431045
0.0384175
0.0571795
0.0246083
0.0984608
3.63917
0.380928
0.0285168
0.0346517
0.128637
2.15945
0.0245257
0.0240651
0.0261854
2.80222
0.023808
0.0249492
0.671907
0.0250589
0.0225449
0.163798
0.0749045