/*--------------------------------*- C++ -*----------------------------------*\
| =========                 |                                                 |
| \\      /  F ield         | OpenFOAM: The Open Source CFD Toolbox           |
|  \\    /   O peration     | Version:  v2012                                 |
|   \\  /    A nd           | Website:  www.openfoam.com                      |
|    \\/     M anipulation  |                                                 |
\*---------------------------------------------------------------------------*/
FoamFile
{
    version     2.0;
    format      ascii;
    class       surfaceScalarField;
    location    "200";
    object      phi;
}
// * * * * * * * * * * * * * * * * * * * * * * * * * * * * * * * * * * * * * //

dimensions      [0 3 -1 0 0 0 0];
oriented        oriented;


internalField   nonuniform List<scalar> 
56329
(
-0.298455
0.355725
-0.0572698
-0.0102338
0.0710206
-0.0607868
0.0674171
-0.145696
0.0782788
0.047085
0.00288921
-0.0499743
0.367462
-0.291821
-0.0756414
0.36107
-0.354192
-0.00687777
-0.413758
0.336785
0.0769734
0.0396893
-0.0115508
-0.0281385
-0.13562
0.206854
-0.0712341
-0.137273
0.0656646
0.071608
-0.243925
0.302845
-0.0589197
0.184408
-0.111654
-0.0727544
0.198706
-0.320884
0.122178
0.0757859
-0.229431
0.153645
0.224516
-0.118623
-0.105893
0.173251
-0.133254
-0.0399974
0.282659
0.110097
-0.392756
-0.00609853
0.0312683
-0.0251698
0.08591
0.0984979
-0.175134
0.240157
-0.0650232
0.132971
0.0402807
0.00865165
-0.0315421
0.0228904
-0.300859
-0.0287426
0.329602
0.374666
-0.106144
-0.268522
-0.0116323
-0.00186154
0.0134939
0.281504
0.0799587
-0.361463
0.037451
-0.129728
0.0922768
0.00137786
-0.0207401
0.0193622
-0.148946
0.0754344
0.0735116
0.333892
-0.413474
0.0795816
0.282266
-0.0190294
-0.263237
0.00121143
-0.0161966
0.0149852
-0.410317
0.310392
0.0999255
0.179164
0.0194033
-0.198567
-0.0232591
-0.0871438
0.110403
-0.101758
0.0729824
-0.016199
-0.0567835
-0.0070059
0.0492334
-0.0422275
0.218571
-0.172609
-0.0459617
0.394564
-0.350962
-0.0436025
-0.167426
-0.182703
0.350129
0.133367
-0.062753
-0.0706144
0.172912
-0.0688253
-0.104087
-0.127491
0.054274
0.0732172
0.153801
0.224588
-0.37839
0.181874
-0.0872972
-0.0945771
-0.0647437
0.178966
-0.114222
-0.200413
0.0787326
0.12168
-0.0417077
0.143833
-0.102125
-0.0270557
0.0771049
-0.0500491
-0.0230244
0.00532749
0.0176969
-0.0637032
0.175759
-0.112055
0.340061
-0.160897
-0.197658
0.217061
-0.120722
0.0974633
0.314546
-0.340652
0.0261057
-0.0513002
0.0683072
-0.017007
-0.116501
0.162789
-0.0462879
0.0552426
0.000350306
-0.0555929
-0.0203314
0.0212564
-0.000924919
0.0892029
0.0926713
-0.0331639
-0.0716685
0.104832
-0.00189209
0.0489771
-0.0622969
-0.0651943
0.192411
-0.266761
0.0743498
0.148986
0.0755301
0.0681138
-0.0783476
2.76291e-05
0.011731
-0.0117586
0.134486
-0.0347446
-0.0997411
-0.142608
0.0561084
0.0865001
0.00368957
0.310856
0.362511
-0.424765
0.0622542
-0.20663
0.142927
0.0639911
-0.0174368
-0.391093
0.33503
0.0560628
0.19998
-0.330461
0.13048
-0.0817618
0.054706
-0.268444
0.348331
-0.0798864
-0.1718
0.0677121
0.104088
0.400047
-0.166147
-0.2339
-0.126069
0.0637717
-0.0380326
0.031934
0.25427
-0.0655567
-0.188713
0.18471
0.15535
-0.0153019
-0.14265
0.157951
0.0902586
0.201138
-0.291396
-0.0216465
0.0410263
0.0934594
0.0715025
0.00147991
0.332826
-0.0513213
-0.0213328
0.0197946
0.0015382
-0.0119792
0.116743
-0.104764
0.00202285
-0.393116
-0.108592
0.0754283
0.273517
-0.406855
0.133338
-0.0361326
0.0213653
0.0147673
0.346099
-0.072582
-0.176371
-0.183321
-0.0143986
0.00276623
-0.434376
0.356459
0.0779172
-0.0660179
0.0147177
0.377184
-0.29303
-0.084154
0.277264
-0.0848527
-0.169215
0.153913
-0.249844
0.14841
0.101435
-0.0267418
0.0353934
-0.434323
0.35599
0.078333
0.0619437
-0.0193598
-0.0425839
-0.138302
0.109634
0.0286682
-0.352821
0.263372
0.0894488
0.0086514
0.0553397
-0.00550442
0.02894
-0.0234356
0.287611
0.106953
-0.00196778
-0.0146795
0.0166472
0.0291604
-0.0346648
-0.14881
0.222786
-0.0739764
-0.290275
0.363653
-0.0733783
-0.116713
-0.00421646
0.120929
0.210523
-0.150721
-0.0598022
-0.148485
-0.0409387
0.189424
-0.212968
0.088671
0.124297
0.0354552
-0.0376046
0.00214941
-0.160331
0.314133
-0.398202
0.351914
0.046288
-0.213126
0.358324
-0.145198
-0.0420809
-0.293386
0.335467
0.221009
-0.11178
-0.109229
-0.287789
0.387786
-0.099997
-0.21414
0.352536
-0.138396
-0.088452
0.134129
-0.0456774
0.221222
-0.072236
0.302567
-0.103861
-0.289517
-0.108685
0.295581
-0.337662
0.333168
-0.273602
-0.059566
-0.135796
0.0622432
0.0735525
-0.319979
0.106853
-0.0124098
-0.000983741
0.0133935
-0.100636
-0.0466767
0.147312
0.17949
-0.0935796
0.0610674
0.0722999
0.21967
-0.143884
0.222981
-0.160885
-0.0620953
-0.362336
0.148196
-0.340195
0.264105
0.0760897
0.0782569
0.101233
-0.205389
0.140175
0.0652141
0.359804
-0.248662
-0.111142
-0.0460207
0.341602
-0.0198126
-0.0316885
0.0515012
0.190949
0.0320321
0.278728
-0.385645
0.106917
-0.0274795
-0.0238341
0.0513136
0.0720148
-0.0216181
0.303884
0.299504
-0.345525
0.0383004
0.029393
-0.0676934
-0.198673
0.360504
-0.161831
0.397359
-0.161351
-0.236008
-0.208008
0.32765
-0.119642
0.0277147
-0.0123845
-0.0153302
0.0151263
-0.0139149
0.172063
-0.0693984
-0.102664
-0.357724
0.109062
0.0545573
-0.103596
0.0490388
-0.316593
0.108586
0.143769
-0.212624
0.0688546
0.0878824
0.133126
-0.287137
0.0132252
0.273912
0.343985
0.0170846
-0.0121902
0.076608
-0.0644179
0.293281
-0.0627942
-0.230487
0.140386
0.0701377
0.0815815
0.138089
0.0155341
0.33638
-0.21259
0.0769709
0.196173
0.10174
-0.297913
0.0491561
-0.13781
0.0886535
0.30633
0.0268375
0.379404
-0.168629
-0.210774
-0.128161
0.0654078
-0.146431
-0.169254
0.315685
0.149051
0.230353
0.304183
-0.169221
-0.134963
-0.311681
0.368522
-0.0568409
0.000740502
-0.016831
0.0160905
0.260259
0.0330229
-0.0129564
0.000546653
0.0799345
-0.0059241
-0.0740104
0.18616
-0.321215
-0.025474
-0.0404905
0.0659645
-0.260239
0.0851059
0.0339714
-0.091795
0.0578236
-0.394073
0.301341
0.092732
0.269757
-0.195849
-0.0739082
0.0515887
0.218169
0.0373544
-0.0648339
-0.192484
0.282743
-0.0126694
0.0179969
0.322634
-0.136474
-0.0587263
-0.0673423
0.123634
-0.310475
0.186841
0.15963
-0.257762
0.098132
0.177104
-0.0879009
0.0724124
0.314772
0.0825872
-0.0239273
0.00706198
0.0168653
-0.285606
0.365164
-0.0795577
-0.0335889
0.0281811
0.00540782
0.0116713
0.267125
-0.278797
0.0229578
-0.0864027
0.0634449
-0.0803699
0.0778261
0.00254379
0.0649147
0.334003
-0.0513433
0.193624
-0.392296
0.0200778
-0.136791
-0.0590196
0.0720264
-0.0130067
0.0787288
-0.276469
-0.0147683
0.0738006
-0.0590323
0.321184
-0.19755
0.0797312
0.0973726
0.316407
-0.303802
-0.0126046
0.0158564
-0.319718
0.303861
0.014265
-0.0732846
0.263582
-0.349396
0.0858134
-0.0336713
0.0334469
0.000224379
-0.289844
0.378895
-0.0890511
0.0397264
0.0118128
-0.0515392
-0.0414325
0.147649
-0.106216
0.119169
0.202015
-0.41666
0.41666
-0.0949686
-0.215506
-0.107131
-0.0808278
-0.0350813
0.115909
0.0207919
-0.0263861
0.00559422
0.284387
0.0320197
0.183487
-0.267329
0.0838413
-0.276251
0.361946
-0.0856953
0.0557255
-0.0811994
0.300463
-0.366782
0.0663199
-0.0142279
-0.154987
-0.019428
-0.0167046
-0.0557944
0.124037
-0.0682426
-0.129575
0.0411231
0.0725481
-0.0638967
-0.188072
0.173844
-0.0245772
0.032076
-0.00749876
0.0990925
0.0104895
-0.109582
-0.144184
0.282229
-0.138045
0.366341
-0.102759
-0.0375531
-0.0710391
0.0108127
0.016902
0.249116
0.104172
-0.353288
0.190964
0.11322
-0.125727
0.055629
0.0700975
0.206392
-0.28961
0.083218
0.423224
-0.183185
-0.240039
-0.0832715
-0.0489315
-0.241475
0.290406
0.320414
-0.124242
0.156187
0.267037
0.0634025
-0.204842
0.14144
0.00988869
-0.0401916
0.0303029
0.284534
-0.12685
-0.157685
0.0427771
0.00903595
-0.0518131
0.0879934
-0.0650357
-0.363861
0.0954171
-0.211204
0.288294
-0.0770903
0.354167
-0.274745
-0.079422
0.0980556
-0.249537
0.151481
0.248004
-0.296936
0.0336964
0.111223
-0.144919
0.0534308
-0.124674
0.0712437
-0.0281439
-0.112165
-0.0882481
-0.17666
0.0434061
0.356465
0.0205854
-0.377051
-0.000613643
0.0123446
-0.0524314
-0.239039
-0.0959835
0.335023
-0.231571
0.33221
-0.100639
0.123113
-0.0795511
-0.0435622
0.150205
-0.0814551
-0.0687497
0.295182
-0.0887896
0.0273435
-0.0065516
-0.110436
0.0728826
-0.273868
0.369989
-0.0961211
-0.287634
-0.171735
0.0659987
0.105736
0.33412
-0.0850034
-0.00788499
0.201891
-0.194006
0.00335933
-0.0141991
0.0108398
-0.0856599
-0.0516127
-0.372394
0.0985256
-0.00981983
0.0435003
-0.0336805
0.123113
0.158066
-0.281178
-0.165902
0.289014
0.218218
-0.130931
-0.0872867
0.305423
-0.293751
0.157615
-0.304046
-0.133213
-0.043447
-0.106738
-0.0422083
0.0645884
0.107474
-0.198815
0.142111
0.0567039
-0.14879
0.306855
-0.000659693
0.363171
-0.206225
0.0839253
0.1223
-0.167535
0.0767277
0.0908074
0.0291071
-0.16451
0.135403
0.0939879
0.190546
0.0584207
0.142189
-0.215504
0.0733148
-0.0829654
0.0667664
-0.0888032
0.314864
-0.226061
0.0325463
-0.153715
0.121169
0.375077
-0.297505
-0.0775713
-0.196064
0.143732
0.0523326
0.202942
-0.0607532
-0.124428
0.153535
-0.19398
0.186095
0.0307473
-0.00180728
-0.0137279
0.0534543
-0.0108299
0.0289113
-0.0180814
-0.349716
0.0566862
-0.0697109
-0.0445883
0.114299
0.0395581
-0.0332947
-0.00626336
-0.198317
0.284061
-0.0857433
-0.101925
-0.103465
0.039999
-0.112483
0.0724844
0.107481
-0.0674817
-0.0401167
0.0519295
0.307322
0.0329122
-0.340234
0.363678
-0.155785
-0.207894
0.0546476
-0.344165
-0.152309
0.229955
-0.0776459
-0.0956213
0.0407446
0.0548767
-0.0030019
0.0167587
-0.0137568
0.15788
-0.25545
0.09757
0.0504431
-0.007666
-0.320177
0.231374
-0.0129549
0.0117485
0.00120637
-0.0946167
0.0818308
0.0127859
-0.285462
0.365997
-0.0805359
-0.174723
-0.0759197
0.250643
0.00747716
-0.0320544
0.0027834
0.0125386
-0.015322
-0.13043
0.0607194
-0.133949
0.0174476
-0.247021
0.323258
-0.0762367
0.222417
0.00472239
-0.22714
-0.136626
0.0949181
0.0121404
-0.0127541
0.114732
-0.10067
-0.0140626
-0.26297
0.254626
0.0083442
0.0467441
0.2937
-0.340444
0.0156395
0.00131178
-0.0169512
0.284853
-0.333305
0.0484522
-0.393904
0.235992
0.157912
-0.27321
0.381822
-0.108613
0.264281
0.0543495
-0.318631
-0.143072
0.055197
0.087875
-0.356192
0.0829824
-0.273832
0.369595
-0.0957623
0.108329
-0.0537717
0.405706
-0.24804
-0.157666
0.0143072
0.0447012
-0.0590085
0.0411433
-0.0944476
0.0533043
0.31777
-0.386103
0.0683328
0.192207
-0.283197
0.09099
0.371527
-0.0537564
0.105277
-0.174676
0.36196
-0.0624555
-0.0274863
0.0888635
-0.0613771
0.237077
-0.244853
0.12725
-0.293152
-0.110901
-0.102067
0.0156245
-0.014884
-0.0151519
-0.107458
0.12261
0.341408
-0.341408
0.0480212
0.0750921
0.013514
0.0590342
0.121297
0.0969212
-0.274281
0.370533
-0.0962514
-0.0565132
0.335242
-0.173572
0.109874
0.0636985
0.247797
-0.339614
0.0918173
-0.0139875
0.0154091
-0.00142159
0.207713
0.100401
-0.308114
0.301996
-0.109789
0.0392891
0.000400227
0.0469665
-0.120513
0.0735465
-0.0174527
0.165055
-0.147603
-0.298598
0.364666
-0.0660676
0.348173
-0.14046
-0.36062
0.0620217
-0.00959558
0.23242
0.0661068
-0.298527
-0.313095
-0.0475246
0.340096
-0.293627
-0.0464689
0.0763539
-0.182121
0.105767
-0.0116769
-0.0219943
-0.151233
0.263659
-0.112427
0.00152051
-0.135793
0.207887
-0.0720931
-0.0151353
0.349028
-0.162407
0.0623526
0.100054
-0.113915
0.126281
-0.0123657
0.175285
-0.110697
-0.257397
0.0875504
0.169846
0.125489
-0.0581805
-0.0673086
0.0121885
-0.0930163
-0.0603376
0.125701
-0.0653636
-0.297794
0.379295
-0.0815011
-0.0733604
0.30578
0.22775
-0.146168
-0.120739
0.064488
0.0562506
0.0690833
0.00405389
-0.0731372
0.336841
-0.322178
-0.0146639
-0.257902
0.35352
-0.0956173
-0.15821
0.116778
0.293329
-0.0933485
0.0646064
-0.298269
0.233663
0.0796949
-0.0174267
-0.0622683
-0.101167
0.0860155
-0.367509
0.308443
0.059066
-0.30625
0.107933
0.316092
0.0207494
-0.0601878
-0.0161955
0.00220798
0.00973702
-0.205675
0.195938
0.138693
-0.104996
-0.103998
0.141983
-0.0379853
0.0384035
-0.173325
0.134922
-0.223859
0.107149
0.11671
-0.00300753
-0.0111916
0.442304
-0.194027
-0.248277
-0.0847583
-0.0535438
0.259119
0.0709433
-0.255398
0.184455
0.374751
-0.246882
-0.127869
0.285608
-0.354232
0.0686242
0.0633956
0.0742256
-0.340561
0.266335
0.198208
0.0792043
0.264941
-0.348725
0.0837837
-0.168772
-0.0606583
-0.0850095
-0.155928
0.240937
0.27356
-0.0794276
-0.194133
0.0771756
-0.0731677
-0.00400786
0.0848454
-0.249218
0.164372
-0.077307
-0.128918
0.0181924
-0.240227
0.222034
-0.248649
-0.16511
-0.116341
0.252437
-0.136096
-0.212432
0.291116
-0.0786845
0.0461609
-0.150159
-0.0925465
0.0464431
0.0461034
0.261186
-0.103307
-0.187921
-0.364793
0.0909602
-0.233517
0.277055
-0.0435387
0.327155
-0.185958
-0.141197
-0.335276
0.0812226
0.254053
-0.365918
0.0916372
-0.0668874
0.108031
0.0531582
-0.266508
0.21335
-0.168585
0.121492
0.0470932
0.374822
-0.109881
-0.0556005
0.0485946
-0.00343147
-0.240493
-0.0113502
-0.0125771
-0.241912
0.156902
-0.176361
0.111617
-0.2372
0.227267
0.0099336
-0.263303
-0.0782439
0.341547
0.236549
0.138202
-0.080943
-0.0747522
0.155695
0.297932
-0.233325
-0.0388972
0.0290773
-0.267779
0.363253
-0.0954735
0.140004
-0.0549698
-0.0850346
0.00117355
0.355292
0.00103722
0.00720792
-0.00824515
-0.100644
0.119792
-0.0191481
0.360521
-0.212827
-0.147694
-0.0573235
0.0718624
-0.0145389
-0.223668
0.0627821
-0.244278
0.26247
-0.00420742
-0.0346898
0.122955
-0.155342
0.0323862
-0.350403
0.0647963
0.244802
-0.146747
0.307599
0.0672227
-0.290931
0.36849
-0.0775586
-0.00711017
0.0170852
-0.00997505
0.039568
-0.0518453
0.0122773
-0.0512008
-0.300221
0.351421
-0.0557825
0.0624804
-0.00669786
-0.33506
0.0717575
-0.296576
0.378342
-0.0817656
0.0952761
0.287835
-0.339036
0.335006
-0.125599
-0.209407
-0.0215479
0.0261736
-0.00462568
0.0474593
0.0144844
-0.0768192
0.199775
-0.362977
0.105075
-0.000401893
-0.0199295
0.0827501
-0.0647046
0.365167
0.0791227
0.0608817
0.0723167
-0.079356
-0.0463705
0.288702
-0.133873
-0.154829
0.110642
-0.0626208
-0.328481
0.0969099
0.0147029
-0.050099
0.337934
-0.0818411
0.0670727
-0.141611
-0.0544529
0.0332105
-0.219697
0.186486
-0.202124
0.0514032
0.0493315
-0.197817
-0.0579154
0.087461
-0.0295456
0.173801
0.186719
-0.110805
-0.0567297
0.402514
-0.168567
-0.233947
-0.131551
-0.0923082
-0.154417
0.0537813
-0.00942276
-0.23851
0.247932
-0.0933377
-0.13033
0.11475
-0.0677837
-0.0119586
0.0736965
-0.0617379
-0.0116284
5.20881e-05
0.0115763
0.294062
-0.344161
-0.150336
-0.0995086
0.281346
-0.373995
0.0926488
-0.0966569
0.0906151
0.00604187
0.00474635
-0.0262943
0.159153
0.129549
-0.0248552
0.0278618
-0.00300657
-0.206855
0.107919
0.0989361
0.201004
-0.0760698
-0.124934
0.0290147
-0.186931
0.157916
0.0575043
0.219684
-0.277188
0.105786
-0.0490418
-0.0567447
0.00248828
-0.127783
-0.0790722
-0.0847924
-0.227783
0.312575
-0.201165
-0.0574279
0.258593
0.0515886
0.0541979
0.0100454
-0.11069
-0.172465
-0.126106
-0.0723813
0.14067
-0.0682887
0.132981
-0.0719138
-0.0316144
0.0359703
-0.00435586
0.377796
-0.28495
-0.0928456
-0.0915801
-0.266144
-0.0020536
0.0176931
0.23174
-0.0995912
-0.132149
-0.0832279
-0.213195
0.296423
0.072116
-0.0931349
-0.269201
-0.151908
0.180923
-0.00500961
-0.00301483
0.00802445
0.0358852
-0.00043002
0.0595383
-0.127134
0.0675958
0.00418945
-0.0309312
-0.245601
0.276512
-0.0309118
-0.0335883
-0.107154
0.140742
-0.39499
0.255088
0.139901
-0.120126
-0.0516742
-0.0500213
0.141329
-0.0913079
0.0763591
0.0473547
-0.123714
-0.241881
-0.153108
-0.400524
0.309649
0.0908755
-0.292973
0.0507898
0.28348
-0.334269
-0.0401253
-0.310837
0.152154
-0.119607
-0.0124872
0.000858816
-0.0553714
0.342983
-0.0826755
0.0204427
0.11825
0.205922
-0.215345
-0.0588487
0.274041
-0.336564
0.0625224
0.0314529
0.0225908
-0.298657
0.369309
-0.0706521
0.0960588
-0.0334271
-0.0626317
0.129355
-0.0413617
0.0197915
-0.116448
-0.0915587
0.275046
0.349447
-0.299495
-0.0499519
0.0491959
3.7475e-05
-0.0859939
0.162348
0.169095
-0.260538
0.0914438
-0.297997
0.0644807
0.376615
-0.0605229
0.0373898
-0.112281
0.0748917
0.066735
-0.127073
-0.0730459
-0.152924
0.113425
0.0394993
-0.0414144
0.210418
-0.169004
0.0482958
-0.230238
0.181942
0.0774409
0.00225409
0.0329037
0.0818286
0.0675055
0.10778
-0.0178032
-0.124805
-0.205579
0.0855835
0.119996
-0.0409068
0.0366994
-0.0837271
0.0717685
-0.0672755
-0.106297
0.350023
0.00516917
-0.355193
-0.0196114
-0.0011287
0.0882993
-0.019216
0.209571
-0.0433054
-0.166266
0.126234
-0.0630777
-0.0631559
-0.024341
0.116747
-0.0924064
0.0099624
-0.00892518
0.377431
-0.00408342
-0.373347
0.0175004
0.122675
-0.157948
0.140496
0.071269
-0.138688
0.0674186
0.312426
0.00486576
-0.317291
0.0492791
-0.116674
0.0673952
0.130478
-0.0208438
-0.302762
-0.0761469
0.206723
-0.130576
0.00354581
-0.00855543
-0.148321
0.137455
0.0461645
-0.119793
0.0736286
-0.11685
0.092509
0.0774062
0.182825
-0.260231
0.127963
-0.0593908
-0.0685726
0.00252723
-0.0341417
-0.0041909
0.226608
0.0393266
0.0574163
-0.0967429
-0.306539
0.379357
-0.0728179
-0.0429213
0.166829
-0.123908
-0.384361
0.0778223
-0.0226941
0.0808097
-0.0581156
0.256891
-0.0877966
0.12789
-0.0787335
-0.206888
0.0831117
0.123777
-0.354628
0.233012
0.121616
0.0516616
0.017865
-0.131954
0.114089
-0.202572
0.144794
0.0577782
0.0187275
-0.0986572
0.0799297
0.216963
0.0612277
-0.278191
0.148201
-0.222192
0.0739904
-0.349337
0.0559502
0.0653419
0.0307169
-0.223505
0.182091
0.0328854
0.0577745
-0.0906599
-0.0546955
-0.122075
0.176771
-0.360527
0.361431
-0.000904364
-0.0423631
0.354789
0.0416552
0.0936334
-0.135289
-0.023986
-0.0096029
-0.251388
0.336463
-0.0850757
-0.389408
0.128085
0.261323
0.239899
0.124244
-0.364143
-0.134998
-0.0705812
-0.00348222
-0.0256098
0.029092
-0.0508417
-0.0388113
-0.00949212
0.0483034
-0.332638
0.38012
-0.13681
-0.24331
-0.00639648
0.0616391
-0.278519
-0.0954763
0.0643102
0.312305
-0.20137
0.0655764
0.0540362
-0.351541
0.00816833
0.00568524
-0.0138536
0.0647712
-0.0874653
0.109419
0.0950658
-0.204485
0.298224
0.0764422
-0.243921
0.347921
-0.104
0.341108
-0.0525238
-0.288584
-0.192808
0.270215
-0.0525054
0.269468
-0.0145788
-0.0867284
0.0396994
-0.101536
-0.155861
0.354492
-0.289418
-0.0650747
-0.034367
0.00404161
0.0303254
0.103029
-0.0851636
0.160362
-0.238239
0.0778772
-0.354199
0.110279
0.043091
-0.310334
0.267243
0.0609053
-0.254584
0.193678
-0.0979372
0.165443
-0.0755628
0.0623852
0.0131776
0.0688265
-0.0311648
0.059695
-0.0282422
-0.062158
0.0365988
-0.0324094
0.266989
0.106392
-0.373381
0.0658232
0.0635319
0.115201
0.044364
-0.363008
0.0986672
0.264341
-0.176465
0.12177
0.0145565
-0.128472
0.0542717
-0.395011
0.200984
0.363676
-0.0696133
-0.130263
-0.0180577
-0.321335
0.106385
0.214951
0.116947
-0.0574087
-0.19762
-0.196453
0.201023
0.0467108
-0.247733
-0.113851
-0.186039
0.29989
0.125709
-0.168631
-0.153385
0.280635
0.227981
-0.120062
0.174681
0.102583
-0.232027
-0.202349
-0.275904
0.364145
-0.0882411
0.0516522
0.0577331
0.0752482
0.0141915
-0.0208062
0.00661472
0.127168
-0.106726
-0.241865
0.337536
-0.09567
-0.393434
0.249906
0.143528
0.0431318
0.0944557
-0.137588
0.329691
-0.404964
0.0752729
0.0909304
0.272322
0.0499054
-0.182462
0.132556
-0.024195
-0.0351358
0.0593308
0.170282
-0.138709
-0.0315734
-0.0597222
0.0399096
-0.0841927
-0.0566904
0.140883
0.0810205
-0.0127972
-0.0682233
0.24472
-0.0843575
-0.00492147
0.0241068
-0.0191853
0.0612662
-0.129642
0.068376
-0.232095
0.358679
-0.126583
0.373961
-0.0257879
0.00546944
-0.00848427
-0.0274547
0.252358
-0.224903
0.301009
-0.188015
-0.112993
0.0112534
0.00853509
-0.0197885
0.294833
-0.376321
0.081488
0.0816779
0.0133455
-0.0950234
0.290843
0.0831179
0.098761
0.11981
0.175707
-0.261481
0.0857734
-0.383274
0.249963
0.133311
-0.0105005
0.0500685
-0.00377673
0.168832
0.0935517
0.134429
0.246542
-0.273997
-0.0786534
0.253334
-0.299635
0.38013
-0.0804949
-0.346993
0.107953
-0.142052
0.0597906
0.0822618
-0.177445
0.323213
-0.145768
-0.113231
0.303477
-0.102443
-0.201035
-0.0333531
0.0716535
0.0757815
-0.119943
-0.0544818
-0.0694519
-0.0726005
0.181725
0.0511607
-0.232885
-0.0123154
0.013836
0.230565
0.0704439
-0.068233
0.208619
-0.0662098
0.340251
-0.307926
0.154541
-0.22854
-0.16647
0.0119252
0.115243
0.0273865
0.00677852
-0.034165
0.29402
0.0696554
0.368304
-0.0742836
-0.0244983
0.0319755
0.158971
-0.272822
-0.0755742
0.306139
0.0793986
0.000535936
-0.0864038
-0.0371358
0.12354
0.0515394
0.020323
-0.0446628
0.0849878
-0.0106583
-0.0743295
-0.0467424
0.0273826
0.022066
0.249607
-0.0738994
0.014737
-0.0167047
-0.0517482
0.233473
-0.0524683
0.0554056
-0.269013
0.213608
-0.35322
0.118684
0.234536
-0.247544
0.183227
0.0643166
0.0477023
0.0629398
-0.123529
-0.26229
0.0148046
-0.00663622
-0.175104
0.0549782
0.0828945
-0.134915
0.0520203
0.0112833
0.00140396
-0.0126873
0.119671
-0.0338028
-0.0858685
-0.245613
-0.137661
0.193282
0.180246
0.132228
-0.209535
-0.158658
-0.0420338
0.200692
0.249329
0.0779612
-0.32729
-0.143665
-0.00868737
0.152352
0.0177518
0.28018
0.388606
-0.0535754
0.252505
0.088603
0.221392
-0.220998
-0.000394648
0.375451
-0.067008
0.0765163
-0.00481704
-0.0716992
0.0157144
-0.188323
0.111378
-0.188198
-0.307641
0.180792
0.195455
-0.0840763
-0.0658798
-0.0287369
-0.183321
-0.251002
-0.000466998
0.252825
0.336155
-0.0868262
0.16136
-0.300219
0.138859
-0.0566319
0.257655
-0.112206
0.0480566
0.0641492
-0.223047
-0.0141534
0.0570282
-0.17634
0.119312
0.333016
0.0444152
0.0406305
-0.107943
0.067312
0.0389077
-0.136843
0.0979353
0.114992
0.187852
-0.23776
0.316597
-0.0788377
0.114058
-0.260871
0.146814
0.0243767
0.197016
0.31078
-0.14942
-0.0930467
-0.333774
0.272196
0.0615776
-0.295859
0.27753
0.018329
0.0678082
-0.0162688
-0.269277
0.285133
-0.257265
0.331964
-0.0746992
0.0578767
0.074503
0.0517306
0.120103
-0.0455997
-0.30321
0.135784
0.0923001
0.255621
0.0875711
-0.0688435
0.209628
-0.336706
0.127078
0.0132102
-0.00192682
0.134825
-0.0519308
-0.110298
0.048083
0.0622152
0.0495495
0.289898
-0.339447
-0.0704142
-0.0502711
0.120685
-0.0838526
-0.244745
0.041145
0.00929814
-0.12342
-0.0567996
0.205129
-0.148329
-0.0234817
-0.0568882
0.278161
0.00580516
-0.283966
-0.357562
0.18119
0.247611
-0.0730867
-0.174524
0.0449348
0.0698154
0.177183
0.0255423
-0.0651886
0.0396463
0.300356
-0.257265
-0.120611
0.166772
-0.119006
0.0139982
-0.0112148
-0.0519712
-0.058327
-0.276978
0.383584
-0.106605
-0.183533
-0.124109
-0.00920997
-0.102444
0.048076
-0.0141824
-0.0338936
-0.174117
-0.178704
-0.0518847
0.337493
0.158797
0.0114856
-0.0943737
-0.111935
0.102725
-0.0150495
0.0967274
-0.0519564
0.0382285
-0.137243
-0.124238
0.0108099
0.0434876
-0.0542975
-0.0269195
-0.00744749
0.0196016
-0.0230838
-0.0845529
0.0288915
0.0556614
-0.222208
0.0702458
-0.312413
0.109698
0.202715
0.328896
-0.279302
-0.0495933
0.053801
0.0964038
0.160142
0.0626444
0.0092693
-0.283109
0.27384
-0.182578
0.0569274
0.12565
0.0488152
-0.00767023
0.0196752
-0.16334
-0.289651
0.101636
0.354623
-0.288156
-0.0664664
0.197622
-0.319279
0.121657
0.281168
-0.271899
0.298869
-0.356583
0.0577136
-0.0753248
0.223734
-0.0503791
-0.24548
0.283324
-0.372012
0.0886882
-0.227003
0.294492
-0.0674883
0.281083
-0.295662
0.343869
0.00327354
-0.347143
0.25075
0.105143
-0.355893
0.0282373
-0.0274281
-0.000809213
0.296085
0.0146951
0.00916908
0.0451272
-0.0542963
0.123473
0.211533
0.0777857
0.0423171
0.0603762
0.0393899
-0.0997661
0.310797
-0.101169
0.310692
-0.0146073
0.00289197
-0.0190269
0.0161349
0.0147279
0.0248302
-0.105538
-0.0150735
-0.0521636
0.119711
-0.067547
-0.133685
0.0431068
0.0905779
0.0690654
0.285557
0.0845925
-0.341857
0.0342869
0.0731939
-0.0559433
0.0534171
0.0025262
-0.0719397
0.335312
-0.159994
0.0359533
-0.164006
0.128053
-0.0271476
-0.130801
0.303171
-0.0250102
-0.0127634
-0.0562472
0.0690106
0.0798392
0.00514864
-0.0636581
0.0784448
-0.0147866
-0.293849
0.0668457
-0.052632
0.128991
0.0834243
-0.0547172
-0.028707
-0.0120104
0.0136166
-0.00160622
0.31619
0.0338331
-0.00421622
0.360206
-0.0619868
-0.114374
-0.33099
-0.0856707
-0.373059
0.146853
0.226205
0.154933
-0.211733
0.000605564
0.0759107
0.301313
-0.250523
-0.0857482
0.15346
0.193101
0.228072
-0.0315798
-0.196492
-0.0199152
0.0182523
0.00166286
0.0864943
-0.371245
0.28475
-0.054593
0.0537722
0.000820768
-0.195004
-0.194405
-0.0142708
-0.149235
-0.205082
0.354317
-0.0550707
0.0657107
-0.01064
-0.216872
-0.0557531
-0.00310517
0.0588583
-0.111061
0.161816
-0.0507546
-0.364333
0.364333
-0.0490977
-0.0716409
0.0460086
0.0719907
0.116226
-0.0529389
-0.0632876
0.356276
-0.0876146
-0.268662
0.346487
-0.259992
0.0322688
-0.0564638
-0.154573
0.0459941
0.107938
-0.153932
0.118884
0.061638
0.055309
-0.376593
0.300977
0.0756151
0.126986
-0.083415
-0.0435711
-0.0750192
-0.269075
0.344094
0.0674788
0.0953101
0.0172066
-0.064308
0.0471015
-0.138499
0.0652122
0.0732866
-0.0743485
0.290141
0.040289
-0.33043
-0.0653921
-0.0627687
0.128252
0.0173342
-0.145586
-0.110527
0.0433446
0.0671826
-0.00170872
-0.0155559
0.0172646
0.146418
-0.173565
-0.129398
-0.0727259
-0.0197406
0.00325732
0.0164833
0.0365961
-0.00920965
-0.0223199
0.0173984
0.0568392
0.0701469
0.00465152
-0.0201568
0.0155053
-0.0286923
0.00470628
-0.0465803
0.119383
-0.0728031
0.311197
0.0913171
-0.0240754
0.36086
0.228691
-0.313484
0.0431925
0.0965618
-0.139754
0.0696473
-0.00219082
0.0125947
-0.0104039
0.00813305
-0.28342
0.275287
-0.36381
0.0728787
-0.0187643
0.140061
0.0627353
-0.11853
-0.100547
-0.139801
0.240348
-0.364835
0.313246
0.0515888
-0.256692
0.160887
0.0958047
-0.0551747
0.126444
0.263274
0.0687379
-0.332012
-0.139588
0.055284
0.0843039
-0.0871549
-0.262073
0.349228
0.213545
-0.344419
0.130874
-0.0411807
0.0788381
-0.0376573
-0.0448129
0.00600164
-0.0808271
-0.131797
0.319665
-0.10612
0.283255
-0.275122
0.0415798
0.195206
-0.236786
-0.247475
0.240051
0.00742409
-0.423739
0.220531
0.203208
-0.00182221
-0.0204977
0.0966094
-0.0109035
-0.0857058
0.327717
-0.0799195
-0.0765123
-0.0592835
-0.207665
-0.216074
-0.355814
0.280795
-0.00133971
-0.0544134
0.302292
-0.362585
0.0602924
0.0245533
-0.119179
0.0946255
0.195795
-0.111259
-0.0845366
0.119943
-0.0552037
-0.0647388
-0.121582
-0.0535217
-0.0939037
0.137096
0.0941126
0.260055
-0.33589
0.168766
0.167125
0.0921519
-0.146115
0.0539626
0.351649
-0.0503083
-0.139609
0.0672275
0.122821
-0.0178773
-0.104944
-0.134776
-0.0721129
-0.0679031
-0.0277183
-0.2214
-0.114491
-0.114056
0.0495347
0.0645211
0.0342363
0.0127659
-0.0470022
0.235774
-0.128625
-0.0225068
-0.0949707
-0.379117
0.214434
0.164682
-0.121524
0.0549826
0.066541
0.219262
0.00300797
-0.222269
0.28031
-0.233566
0.0402571
-0.0725856
-0.0659132
0.00898728
0.0522769
-0.0612642
-0.185352
0.138148
-0.0637909
-0.0743567
-0.0913995
-0.0422851
0.0419175
0.0558961
-0.0978136
0.0360134
0.231547
-0.0821104
-0.149437
0.117168
-0.0926148
0.0363616
0.263994
0.28503
-0.393587
0.108557
0.0575388
0.109753
0.126021
-0.0711486
-0.0324475
-0.151226
0.0702832
-0.0849427
-0.156969
0.259611
-0.188667
0.0485686
-0.207227
-0.051182
0.0601693
0.172052
-0.0937948
-0.0171061
-0.240804
0.25791
-0.0190397
0.017331
0.0255089
-0.00566765
0.0198591
0.176985
-0.15154
-0.0979966
-0.0309913
-0.279343
0.114271
-0.191119
0.0768483
0.0748889
0.0971627
-0.407499
0.175403
-0.00695205
0.103561
-0.153796
0.0622393
0.0915565
-0.0218548
-0.00683747
0.279988
0.0755406
-0.355529
0.0417162
-0.0522168
-0.37733
0.10222
0.27511
0.199054
0.0290172
0.289109
0.0671668
0.0949908
-0.151703
0.0567125
0.00627908
0.0128196
-0.0190987
-0.0378368
0.021421
0.174021
-0.195442
0.176419
0.0683008
-0.0690395
0.12247
0.0305671
-0.00232982
0.0177817
-0.0201597
0.00237798
0.0466288
-0.359724
0.253775
-0.34093
-0.351435
0.0548588
-0.1288
-0.24853
0.0202704
-0.312091
-0.173562
0.111576
0.0705199
-0.245243
-0.0452474
-0.136874
0.0129861
-0.015988
0.0382524
-0.155496
0.117244
0.274431
-0.0429269
0.103303
-0.359755
0.104169
0.255586
-0.184751
0.226331
-0.2463
0.187973
0.058327
0.0318635
0.279858
-0.216315
-0.063543
0.0877143
0.143833
-0.0105544
-0.13785
0.148405
-0.388902
0.206199
-0.12229
0.0536014
0.0686885
0.0501271
-0.18482
0.134693
0.0811469
-0.0404023
0.158177
-0.122223
-0.110307
0.273724
-0.163417
0.0550935
-0.354588
-0.169236
0.190657
-0.0900071
0.0265221
0.063485
-0.325574
0.0635009
0.0605907
0.135205
0.441568
-0.27414
-0.167428
-0.133211
-0.224351
-0.148505
0.114917
-0.130023
0.292497
-0.256135
0.276342
-0.175896
-0.100445
0.0440758
0.0838139
-0.0687085
-0.0584255
-0.125679
0.102332
0.0233468
-0.320516
0.0786501
-0.220542
-0.0154148
0.0146353
0.000779547
0.031601
-0.151165
0.119564
-0.361157
0.160818
0.200339
0.262633
-0.307217
0.0445833
-0.199886
0.287977
-0.0880907
-0.235585
-0.125572
0.392077
-0.325721
-0.0663568
0.3431
-0.400452
0.0573526
-0.0384874
-0.0230651
0.0615525
0.0539738
0.0622527
0.0105188
-0.0176289
-0.0524189
0.00918881
0.0432301
0.0172306
0.0656565
-0.082887
-0.0527642
-0.0200618
0.072826
-0.320087
0.0980461
0.222041
-0.03183
-0.0607165
-0.173294
0.0985418
-0.385159
0.099202
0.285957
0.043014
-0.101566
0.058552
0.00574364
0.350715
0.0125998
0.104568
-0.224702
-0.0953849
0.071717
0.0239157
-0.0956327
-0.354809
0.0653914
0.328376
0.128857
-0.204623
0.0757657
0.0617802
0.238717
-0.300497
0.271478
0.0750092
0.199605
-0.221032
-0.179492
-0.145278
0.200764
-0.0554858
-0.37321
0.0973055
-0.132335
-0.246581
0.227299
-0.309613
0.0823148
-0.0165142
-0.0841556
-0.0422089
0.117643
0.293493
0.106554
-0.0836252
-0.270574
-0.0817106
-0.0613614
0.148459
-0.297138
0.14868
0.355366
-0.065225
-0.0148779
-0.00141954
0.0162974
0.173926
0.267642
-0.13007
0.161671
0.0150432
0.13711
-0.284233
0.333783
-0.351661
0.0921632
0.259497
0.0635795
0.236768
-0.300348
-0.103647
0.217917
0.335481
-0.0543984
0.261336
0.0235168
0.0193927
0.171707
0.0778996
-0.0584358
0.10145
0.127997
-0.206529
0.0785325
-0.212243
0.275822
0.0167979
0.156598
-0.0616077
-0.250515
-0.101145
0.303174
-0.154716
0.350277
-0.137438
-0.343769
0.0667904
-0.0627138
-0.119864
0.314242
-0.0869438
-0.039848
-0.0545996
-0.346685
0.158507
-0.115295
-0.0432119
-0.0605496
0.122793
0.331056
-0.0578925
-0.273164
-0.360676
0.0984177
0.262258
-0.314752
-0.00375316
0.318505
0.0863017
0.236901
-0.323203
0.340596
-0.26637
0.0884098
0.28158
0.0399008
-0.113166
0.0732656
-0.247894
-0.16558
0.00265059
0.0419439
-0.0445945
-0.217005
-0.137623
-0.121282
0.178209
-0.231074
0.297181
0.128001
0.0387294
-0.125133
0.201063