/*--------------------------------*- C++ -*----------------------------------*\
| =========                 |                                                 |
| \\      /  F ield         | OpenFOAM: The Open Source CFD Toolbox           |
|  \\    /   O peration     | Version:  v2012                                 |
|   \\  /    A nd           | Website:  www.openfoam.com                      |
|    \\/     M anipulation  |                                                 |
\*---------------------------------------------------------------------------*/
FoamFile
{
    version     2.0;
    format      ascii;
    class       surfaceScalarField;
    location    "200";
    object      phi_0;
}
// * * * * * * * * * * * * * * * * * * * * * * * * * * * * * * * * * * * * * //

dimensions      [0 3 -1 0 0 0 0];
oriented        oriented;


internalField   nonuniform List<scalar> 
56329
(
-0.298455
0.355725
-0.05727
-0.0102338
0.0710208
-0.060787
0.0674163
-0.145695
0.0782792
0.0470859
0.00288421
-0.0499701
0.367462
-0.29182
-0.0756415
0.36107
-0.354192
-0.00687777
-0.413758
0.336785
0.0769734
0.0397043
-0.0115491
-0.0281552
-0.135619
0.206853
-0.071234
-0.137271
0.065664
0.0716068
-0.243933
0.302849
-0.0589156
0.184407
-0.111653
-0.0727547
0.198705
-0.320883
0.122178
0.0757868
-0.229429
0.153642
0.224516
-0.118623
-0.105893
0.173251
-0.133253
-0.0399976
0.282659
0.110097
-0.392756
-0.00609816
0.0312722
-0.0251741
0.0859091
0.0984982
-0.175133
0.240157
-0.0650232
0.13297
0.0402808
0.0086623
-0.0315489
0.0228866
-0.300589
-0.0291438
0.329732
0.374656
-0.106145
-0.26851
-0.0116377
-0.00186154
0.0134992
0.281504
0.0799587
-0.361463
0.0374506
-0.129727
0.0922765
0.00136729
-0.0207354
0.0193681
-0.148945
0.0754346
0.0735106
0.333892
-0.413474
0.0795816
0.282258
-0.0190311
-0.263227
0.0012106
-0.0162003
0.0149897
-0.410317
0.310392
0.0999256
0.179239
0.0193094
-0.198549
-0.0232587
-0.0871434
0.110402
-0.101758
0.0729816
-0.0161993
-0.0567823
-0.00700523
0.0492315
-0.0422263
0.218396
-0.172576
-0.0458197
0.394564
-0.350961
-0.0436029
-0.167426
-0.182703
0.350129
0.133337
-0.0627791
-0.0705583
0.172912
-0.0688255
-0.104087
-0.127489
0.0542733
0.0732159
0.153801
0.224588
-0.378389
0.181873
-0.0872969
-0.0945762
-0.0647437
0.178966
-0.114222
-0.200413
0.0787332
0.12168
-0.0417075
0.143833
-0.102125
-0.0270643
0.0771058
-0.0500416
-0.0230187
0.00531458
0.0177041
-0.0637722
0.175836
-0.112064
0.340064
-0.160824
-0.197723
0.217033
-0.120722
0.097463
0.314546
-0.340652
0.0261052
-0.0513032
0.0683095
-0.0170063
-0.1165
0.162788
-0.0462882
0.055248
0.000346424
-0.0555944
-0.0203351
0.0212533
-0.000918156
0.0892019
0.0926711
-0.0331642
-0.0716674
0.104832
-0.00188728
0.0489732
-0.0622956
-0.0651936
0.192407
-0.266757
0.0743506
0.148986
0.0755302
0.0681139
-0.0783477
2.70699e-05
0.0117355
-0.0117625
0.134483
-0.0347433
-0.0997399
-0.142603
0.0560906
0.0865124
0.00369022
0.310856
0.362511
-0.424765
0.0622541
-0.206728
0.142956
0.0639879
-0.0174348
-0.391093
0.335031
0.0560629
0.200014
-0.330404
0.130391
-0.0817617
0.0546974
-0.268444
0.348331
-0.0798864
-0.1718
0.0677123
0.104087
0.400047
-0.166147
-0.2339
-0.126067
0.0637711
-0.0380372
0.031939
0.25427
-0.065557
-0.188713
0.184634
0.15543
-0.0152065
-0.142693
0.157899
0.090258
0.201137
-0.291395
-0.0216514
0.0410245
0.0934588
0.0715013
0.00148026
0.332825
-0.0513213
-0.0213302
0.0197972
0.00153305
-0.0119783
0.116743
-0.104764
0.00202285
-0.393116
-0.108591
0.0754272
0.273517
-0.406855
0.133338
-0.0361337
0.0213691
0.0147646
0.346099
-0.0725818
-0.176371
-0.183321
-0.0144046
0.00276695
-0.434376
0.356459
0.0779171
-0.0660198
0.0147167
0.377184
-0.29303
-0.0841541
0.27726
-0.0848531
-0.16917
0.153964
-0.249843
0.148409
0.101434
-0.0267387
0.035401
-0.434323
0.35599
0.078333
0.0619612
-0.0193498
-0.0426114
-0.138349
0.109751
0.028598
-0.352821
0.263372
0.089449
0.00864978
0.0553381
-0.00550658
0.0289464
-0.0234398
0.287611
0.106954
-0.00196427
-0.014683
0.0166473
0.029165
-0.0346715
-0.148809
0.222786
-0.0739766
-0.290275
0.363653
-0.0733783
-0.116834
-0.00416839
0.121003
0.210523
-0.150721
-0.0598026
-0.148453
-0.0408965
0.18935
-0.212963
0.0886826
0.124281
0.0354698
-0.0376098
0.00213996
-0.160331
0.314132
-0.398202
0.351914
0.0462877
-0.213123
0.358271
-0.145148
-0.0420808
-0.293387
0.335467
0.221009
-0.111779
-0.109229
-0.287789
0.387786
-0.099997
-0.21414
0.352536
-0.138396
-0.0884512
0.134129
-0.0456778
0.221222
-0.0722362
0.302566
-0.103861
-0.289517
-0.108685
0.295581
-0.337662
0.333168
-0.273602
-0.0595659
-0.135793
0.0622421
0.0735511
-0.319923
0.1068
-0.0124151
-0.000984639
0.0133997
-0.100635
-0.0466773
0.147312
0.179489
-0.0935799
0.0610036
0.0723339
0.219668
-0.143882
0.222981
-0.160885
-0.0620956
-0.362336
0.148196
-0.340195
0.264105
0.0760896
0.0782559
0.101233
-0.20539
0.140176
0.0652139
0.359804
-0.248662
-0.111142
-0.0460206
0.341602
-0.01981
-0.0316868
0.0514968
0.190948
0.0320324
0.278728
-0.385645
0.106917
-0.0274767
-0.0238369
0.0513137
0.0720147
-0.0216146
0.303873
0.299504
-0.345525
0.0382277
0.0294343
-0.067662
-0.198673
0.360504
-0.161831
0.397359
-0.161351
-0.236008
-0.208008
0.32765
-0.119642
0.0277181
-0.0123744
-0.0153437
0.0151301
-0.0139195
0.172063
-0.0693986
-0.102664
-0.357724
0.109062
0.0545557
-0.103596
0.0490401
-0.316593
0.108586
0.143728
-0.212527
0.0687991
0.0878822
0.133126
-0.286861
0.0127878
0.274073
0.343985
0.0170847
-0.0122008
0.0766102
-0.0644094
0.293281
-0.0627935
-0.230487
0.140385
0.070138
0.0815823
0.138086
0.0155344
0.33638
-0.21259
0.0769708
0.196172
0.101741
-0.297913
0.0491484
-0.137805
0.0886562
0.30633
0.0268375
0.379402
-0.168629
-0.210773
-0.128124
0.0653451
-0.146431
-0.169254
0.315685
0.14905
0.230351
0.304183
-0.16922
-0.134963
-0.311681
0.368522
-0.0568407
0.000738113
-0.0168317
0.0160936
0.260258
0.0330221
-0.0129624
0.00054733
0.0799374
-0.00592599
-0.0740114
0.185807
-0.321309
-0.025473
-0.0404908
0.0659637
-0.260239
0.0851058
0.033987
-0.091789
0.057802
-0.394073
0.301341
0.0927321
0.269757
-0.195849
-0.0739084
0.051589
0.218168
0.0373569
-0.0648336
-0.192484
0.282742
-0.0126765
0.0179911
0.322686
-0.136879
-0.0587259
-0.0673408
0.123633
-0.310474
0.186841
0.159625
-0.257758
0.098133
0.177103
-0.0879007
0.0724126
0.314772
0.0825872
-0.0239267
0.00705724
0.0168695
-0.285606
0.365164
-0.0795578
-0.0335961
0.0281865
0.00540963
0.0118398
0.26706
-0.2789
0.0229754
-0.0863963
0.063421
-0.080384
0.0778433
0.00254073
0.0649051
0.334003
-0.0513433
0.193624
-0.392296
0.0200257
-0.13686
-0.0590182
0.0720241
-0.0130058
0.078729
-0.276604
-0.0147687
0.0738001
-0.0590314
0.321184
-0.197551
0.0797301
0.0973724
0.316407
-0.303802
-0.0126046
0.0158564
-0.319718
0.303861
0.0142639
-0.0732821
0.263582
-0.349396
0.0858133
-0.0336738
0.0334452
0.000228542
-0.289844
0.378895
-0.089051
0.0397219
0.0118121
-0.051534
-0.0414329
0.147649
-0.106216
0.119169
0.202015
-0.41666
0.41666
-0.0949682
-0.215506
-0.107132
-0.0808159
-0.0350824
0.115898
0.0207969
-0.0263876
0.00559079
0.284387
0.0320197
0.183489
-0.26733
0.0838405
-0.276251
0.361946
-0.0856951
0.0557255
-0.0811985
0.300463
-0.366783
0.0663199
-0.0141534
-0.155017
-0.0194312
-0.0167024
-0.0557948
0.124036
-0.0682413
-0.129575
0.0411236
0.072545
-0.0638952
-0.188033
0.17388
-0.0245809
0.0320765
-0.00749559
0.0990911
0.0104906
-0.109582
-0.144184
0.282229
-0.138045
0.366341
-0.102759
-0.0375534
-0.0710381
0.0107995
0.0169186
0.249116
0.104172
-0.353288
0.190964
0.11322
-0.125722
0.055628
0.0700942
0.206392
-0.28961
0.083218
0.423219
-0.183181
-0.240039
-0.0832711
-0.0489331
-0.241474
0.290407
0.320414
-0.124242
0.156181
0.267038
0.0634031
-0.204842
0.141439
0.00988886
-0.0401961
0.0303073
0.284534
-0.126849
-0.157684
0.0427824
0.00903066
-0.0518131
0.0879874
-0.065012
-0.363861
0.0954171
-0.211205
0.288295
-0.0770897
0.354167
-0.274745
-0.0794221
0.0980555
-0.249537
0.151481
0.248003
-0.296937
0.0336994
0.111232
-0.144931
0.0534293
-0.124672
0.0712423
-0.0281483
-0.112165
-0.0882479
-0.17666
0.0434063
0.356465
0.0205855
-0.377051
-0.000613047
0.0123485
-0.0524093
-0.239039
-0.0959835
0.335023
-0.231567
0.332202
-0.100635
0.122978
-0.0795397
-0.0434386
0.150202
-0.0814198
-0.0687824
0.295182
-0.0887896
0.0273437
-0.00654684
-0.110435
0.0728816
-0.273868
0.369989
-0.0961211
-0.287801
-0.171735
0.0659986
0.105736
0.33412
-0.0850034
-0.00787736
0.20185
-0.193973
0.00336052
-0.0142055
0.010845
-0.0856592
-0.0516117
-0.372394
0.0985256
-0.00981442
0.0434987
-0.0336842
0.123112
0.158066
-0.281178
-0.165902
0.289014
0.218248
-0.130953
-0.0872955
0.305529
-0.293689
0.157615
-0.304046
-0.133213
-0.0434472
-0.106736
-0.0422087
0.0645885
0.107474
-0.198815
0.14211
0.056705
-0.148789
0.306855
-0.000659694
0.36317
-0.206225
0.0839257
0.1223
-0.167551
0.0767288
0.0908219
0.0291111
-0.164511
0.1354
0.0939879
0.190546
0.0584209
0.142152
-0.215493
0.0733411
-0.0829644
0.0667651
-0.0888032
0.314864
-0.226061
0.0326208
-0.153774
0.121153
0.375077
-0.297505
-0.0775713
-0.195844
0.14367
0.0521741
0.202928
-0.0607759
-0.124425
0.153536
-0.193929
0.186052
0.0307532
-0.00180688
-0.013727
0.0534489
-0.010826
0.0289102
-0.0180842
-0.349716
0.0566864
-0.0697117
-0.0445873
0.114299
0.039559
-0.0332915
-0.00626743
-0.198317
0.284061
-0.0857434
-0.101925
-0.103465
0.0399957
-0.112479
0.0724831
0.107476
-0.0674801
-0.0401125
0.0519246
0.307322
0.0329123
-0.340234
0.363678
-0.155785
-0.207894
0.0546474
-0.344164
-0.152309
0.229955
-0.0776462
-0.095628
0.0407569
0.0548711
-0.00300065
0.0167615
-0.0137609
0.157879
-0.255449
0.0975701
0.0504424
-0.00766
-0.320177
0.231374
-0.0129611
0.0117544
0.00120668
-0.0946178
0.0818316
0.0127862
-0.285462
0.365998
-0.0805358
-0.174723
-0.0759196
0.250642
0.00747403
-0.032055
0.00278512
0.0125413
-0.0153264
-0.13043
0.0607185
-0.133948
0.017448
-0.247017
0.323249
-0.0762323
0.222417
0.00472167
-0.227139
-0.136626
0.094918
0.0121449
-0.012758
0.114732
-0.100669
-0.0140634
-0.26297
0.254625
0.00834491
0.0467442
0.2937
-0.340445
0.0156439
0.00131105
-0.0169549
0.284671
-0.333164
0.0484925
-0.393901
0.235991
0.157911
-0.27321
0.381823
-0.108613
0.264073
0.054599
-0.318672
-0.143071
0.0551966
0.0878743
-0.356192
0.0829825
-0.273833
0.369595
-0.0957626
0.108329
-0.0537731
0.405704
-0.24804
-0.157665
0.0143049
0.0447035
-0.0590083
0.0411456
-0.0944485
0.0533029
0.317771
-0.386103
0.0683325
0.192211
-0.283183
0.0909725
0.371527
-0.0537562
0.105277
-0.174676
0.36196
-0.0624554
-0.0274888
0.0888653
-0.0613765
0.237075
-0.244851
0.127249
-0.293151
-0.11091
-0.102054
0.0156253
-0.0148872
-0.0151518
-0.107457
0.122609
0.341408
-0.341408
0.0478771
0.0751012
0.0135126
0.0590324
0.121321
0.0969269
-0.274281
0.370533
-0.096252
-0.0565132
0.335242
-0.173719
0.109898
0.0638206
0.24786
-0.339628
0.0917674
-0.0139922
0.0154126
-0.00142037
0.207713
0.100401
-0.308114
0.301985
-0.109774
0.0393103
0.000393996
0.0469641
-0.120509
0.073545
-0.0174066
0.165024
-0.147617
-0.298599
0.364666
-0.0660673
0.348173
-0.14046
-0.36062
0.0620214
-0.00960059
0.23242
0.0661067
-0.298527
-0.313096
-0.0475241
0.340096
-0.293627
-0.0464689
0.0763536
-0.182122
0.105768
-0.0116804
-0.0219934
-0.151232
0.263657
-0.112425
0.00152167
-0.135739
0.207801
-0.0720614
-0.0151353
0.349028
-0.162405
0.0623515
0.100054
-0.114001
0.126335
-0.0123347
0.175285
-0.110697
-0.257394
0.0875491
0.169845
0.125486
-0.0581795
-0.0673068
0.012193
-0.0930089
-0.060284
0.125676
-0.0653923
-0.297795
0.379296
-0.081501
-0.0733603
0.30578
0.227748
-0.146166
-0.120738
0.0644889
0.0562492
0.069075
0.00407276
-0.0731478
0.336842
-0.322177
-0.0146644
-0.257902
0.35352
-0.0956181
-0.15821
0.116777
0.293308
-0.0932947
0.064823
-0.298293
0.23347
0.0796994
-0.0174307
-0.0622688
-0.101167
0.0860152
-0.36751
0.308443
0.0590662
-0.30625
0.107933
0.316092
0.02075
-0.0601879
-0.0161995
0.00220734
0.00981604
-0.205732
0.195916
0.138707
-0.105008
-0.103998
0.141984
-0.0379863
0.0384067
-0.173327
0.13492
-0.223857
0.107152
0.116705
-0.0030085
-0.011197
0.442299
-0.194023
-0.248276
-0.0848489
-0.0534999
0.259119
0.0709554
-0.255404
0.184449
0.374751
-0.246882
-0.127869
0.285608
-0.354232
0.0686242
0.0633955
0.0742257
-0.340561
0.266335
0.198208
0.0792042
0.264941
-0.348724
0.0837837
-0.16877
-0.0606595
-0.0850098
-0.155928
0.240937
0.273559
-0.0794272
-0.194131
0.0771549
-0.0731858
-0.00396914
0.0848456
-0.249218
0.164372
-0.0773074
-0.128918
0.0181926
-0.240227
0.222034
-0.248649
-0.16511
-0.116342
0.252436
-0.136094
-0.212432
0.291116
-0.0786845
0.0461617
-0.150159
-0.0925459
0.0464428
0.0461031
0.261186
-0.103307
-0.187907
-0.364793
0.0909605
-0.233516
0.277054
-0.0435381
0.327054
-0.185895
-0.141159
-0.335276
0.0812226
0.254053
-0.365919
0.0916379
-0.0668863
0.108032
0.0531791
-0.266535
0.213356
-0.168603
0.12151
0.0470924
0.374821
-0.109881
-0.0555947
0.0485895
-0.00343877
-0.240495
-0.0113465
-0.0125802
-0.241912
0.156902
-0.176361
0.111617
-0.237265
0.227472
0.00979277
-0.263359
-0.0781942
0.341554
0.23655
0.138201
-0.0809423
-0.0747527
0.155695
0.297938
-0.233115
-0.0388952
0.0290808
-0.267779
0.363253
-0.0954735
0.139956
-0.0549512
-0.085005
0.00117355
0.355292
0.00103788
0.00721153
-0.00824941
-0.100642
0.119791
-0.0191484
0.360521
-0.212827
-0.147694
-0.0573224
0.0718602
-0.0145378
-0.223667
0.0627823
-0.244278
0.26247
-0.00420212
-0.0346931
0.122807
-0.155223
0.0324163
-0.350403
0.0647964
0.244802
-0.146746
0.307599
0.0672227
-0.290931
0.36849
-0.0775587
-0.00711149
0.0170902
-0.0099787
0.039571
-0.05185
0.012279
-0.0512009
-0.300221
0.351421
-0.0557899
0.0624879
-0.006698
-0.335056
0.0716968
-0.296576
0.378342
-0.0817656
0.0952759
0.287835
-0.339036
0.334995
-0.125591
-0.209404
-0.0215457
0.0261748
-0.00462915
0.0474923
0.0144689
-0.0768113
0.199618
-0.362978
0.105076
-0.000407745
-0.0199274
0.08275
-0.0647046
0.365167
0.0790892
0.060867
0.0723167
-0.0793545
-0.0463677
0.288601
-0.133822
-0.15478
0.110447
-0.0625697
-0.328472
0.0969047
0.0147017
-0.0500991
0.337934
-0.0818405
0.0670718
-0.141516
-0.0543285
0.0332669
-0.219744
0.186477
-0.202124
0.0514036
0.0492867
-0.19774
-0.0579149
0.0874605
-0.0295456
0.173801
0.186719
-0.110809
-0.0567413
0.402514
-0.168567
-0.233947
-0.131553
-0.0923042
-0.154417
0.0537817
-0.00939533
-0.238541
0.247936
-0.0933379
-0.13033
0.114746
-0.0677819
-0.0119614
0.0736959
-0.0617345
-0.0116346
5.24592e-05
0.0115821
0.294062
-0.344161
-0.150335
-0.099508
0.281346
-0.373995
0.0926488
-0.0966556
0.0906147
0.00604095
0.00475015
-0.0262958
0.159116
0.129485
-0.02486
0.0278618
-0.00300172
-0.206851
0.107941
0.0989108
0.201005
-0.0760715
-0.124933
0.0290155
-0.186931
0.157916
0.0574941
0.219703
-0.277198
0.105786
-0.0490433
-0.0567428
0.00248365
-0.1278
-0.079051
-0.0847924
-0.227782
0.312575
-0.201164
-0.0574262
0.258591
0.0515903
0.0541959
0.0100459
-0.110688
-0.172465
-0.126104
-0.0723744
0.140662
-0.0682879
0.13295
-0.0719465
-0.0316135
0.0359724
-0.00435895
0.377796
-0.28495
-0.0928456
-0.0915802
-0.266144
-0.00205283
0.0176967
0.23174
-0.0995911
-0.132149
-0.0832279
-0.213194
0.296422
0.0721159
-0.093135
-0.269201
-0.151908
0.180923
-0.00501253
-0.00301655
0.00802908
0.0358913
-0.000421431
0.0595071
-0.127058
0.0675506
0.00419808
-0.0309368
-0.2456
0.276512
-0.0309118
-0.0335881
-0.107154
0.140742
-0.394829
0.254946
0.139883
-0.120125
-0.0516745
-0.0500212
0.141329
-0.0913075
0.0763591
0.0473522
-0.123711
-0.2418
-0.153029
-0.400524
0.309649
0.0908755
-0.292973
0.0507905
0.283478
-0.334269
-0.0401248
-0.310837
0.152215
-0.119594
-0.0124936
0.000859031
-0.0553717
0.342983
-0.0826754
0.0204472
0.11826
0.205962
-0.215358
-0.0588487
0.274041
-0.336564
0.0625225
0.0314499
0.0225908
-0.298657
0.369309
-0.0706522
0.0960721
-0.0334515
-0.0626206
0.129325
-0.0413371
0.0197923
-0.116448
-0.091558
0.275047
0.349447
-0.299495
-0.0499517
0.0491944
3.71174e-05
-0.0859948
0.162348
0.169102
-0.260544
0.091442
-0.297996
0.0644801
0.376615
-0.0605233
0.0373901
-0.112281
0.0748907
0.0667595
-0.127043
-0.0730449
-0.152924
0.113425
0.0394992
-0.0414146
0.210418
-0.169004
0.0483348
-0.230278
0.181943
0.0774422
0.00225727
0.0329045
0.0818279
0.0675057
0.10778
-0.0177902
-0.124813
-0.20558
0.0855844
0.119995
-0.0409037
0.0367016
-0.0837257
0.0717643
-0.0673729
-0.106346
0.350023
0.00516917
-0.355193
-0.0196163
-0.00111914
0.0883076
-0.0192326
0.209338
-0.0432053
-0.166133
0.126228
-0.0630767
-0.0631517
-0.0243367
0.116746
-0.0924091
0.00996723
-0.00892935
0.377431
-0.00408341
-0.373347
0.0175007
0.122675
-0.157925
0.140519
0.0712627
-0.138682
0.0674193
0.312425
0.0048658
-0.317291
0.0492795
-0.116673
0.0673936
0.130552
-0.0208011
-0.302763
-0.0761474
0.206723
-0.130576
0.00354799
-0.00856052
-0.148755
0.137492
0.0461626
-0.11979
0.073627
-0.116848
0.0925118
0.077406
0.182825
-0.260231
0.127961
-0.0593901
-0.0685709
0.00253061
-0.0341441
-0.00419032
0.226608
0.0393397
0.057398
-0.0967377
-0.306539
0.379357
-0.0728179
-0.0429212
0.166829
-0.123908
-0.384361
0.0778222
-0.0226989
0.0808129
-0.0581141
0.256897
-0.0877952
0.127885
-0.078737
-0.206877
0.0831233
0.123753
-0.354634
0.233025
0.121609
0.0516617
0.0178649
-0.131954
0.114089
-0.20256
0.144767
0.0577924
0.0187228
-0.0986481
0.0799253
0.216962
0.0612265
-0.278189
0.148201
-0.222192
0.0739907
-0.349337
0.0559501
0.0653241
0.030748
-0.223505
0.18209
0.0328871
0.0577713
-0.0906584
-0.0546954
-0.122075
0.176771
-0.360527
0.361431
-0.000904356
-0.0423631
0.354788
0.041655
0.0936332
-0.135288
-0.0239906
-0.00960551
-0.251388
0.336463
-0.0850757
-0.389408
0.128085
0.261323
0.239899
0.124244
-0.364143
-0.134999
-0.070581
-0.00350168
-0.025615
0.0291167
-0.0508385
-0.0388119
-0.00948869
0.0483006
-0.332638
0.38012
-0.13681
-0.24331
-0.00639385
0.0616418
-0.278519
-0.0954763
0.0643107
0.312304
-0.201284
0.0655447
0.0540361
-0.351541
0.00817133
0.00568692
-0.0138582
0.064769
-0.0874678
0.109363
0.0950305
-0.204394
0.298214
0.0764413
-0.24392
0.347921
-0.104
0.341108
-0.0525237
-0.288584
-0.192808
0.270214
-0.0525044
0.269466
-0.0150787
-0.0871818
0.0396996
-0.101535
-0.155859
0.354492
-0.289418
-0.0650748
-0.0343713
0.00404118
0.0303301
0.103028
-0.0851632
0.160362
-0.238239
0.0778772
-0.354199
0.110279
0.0433358
-0.310434
0.267098
0.0609153
-0.254591
0.193676
-0.0979368
0.165442
-0.0755669
0.0623863
0.0131806
0.0687998
-0.0312038
0.0596922
-0.0282423
-0.0621584
0.0366051
-0.032407
0.266989
0.106392
-0.373381
0.0658213
0.0635032
0.1152
0.0443645
-0.363008
0.0986672
0.264341
-0.176465
0.12177
0.0145166
-0.128517
0.0542718
-0.395007
0.200984
0.363676
-0.0696133
-0.130388
-0.0183669
-0.321435
0.106804
0.214632
0.116865
-0.0573579
-0.19762
-0.196453
0.201022
0.0467108
-0.247733
-0.113851
-0.18604
0.29989
0.125709
-0.16863
-0.153385
0.280635
0.227974
-0.120034
0.174678
0.102582
-0.232027
-0.202349
-0.275904
0.364145
-0.0882411
0.0516521
0.0576614
0.0752886
0.0141951
-0.0208117
0.00661664
0.127185
-0.106738
-0.241906
0.337605
-0.0956991
-0.393429
0.249911
0.143519
0.0431318
0.0944553
-0.137587
0.329691
-0.404964
0.0752729
0.0909304
0.272322
0.0499081
-0.182463
0.132555
-0.0241918
-0.0351366
0.0593284
0.170282
-0.138709
-0.0315734
-0.0597178
0.0399078
-0.0841922
-0.0566898
0.140882
0.0810351
-0.0127975
-0.0682376
0.244719
-0.0843575
-0.00492263
0.0241116
-0.0191889
0.0612203
-0.129619
0.0683991
-0.232096
0.358679
-0.126583
0.373961
-0.0257879
0.00547231
-0.00848887
-0.0274546
0.252358
-0.224903
0.301008
-0.188015
-0.112993
0.0112788
0.0085182
-0.019797
0.294833
-0.376322
0.0814884
0.081677
0.0133461
-0.0950231
0.290843
0.0831179
0.0985341
0.119862
0.175707
-0.26148
0.0857735
-0.383276
0.249961
0.133315
-0.0105012
0.0500722
-0.00381136
0.168835
0.0935749
0.1344
0.246542
-0.273997
-0.0786529
0.25333
-0.299635
0.38013
-0.0804952
-0.346992
0.107953
-0.142052
0.0597912
0.0822611
-0.177445
0.323212
-0.145768
-0.113231
0.303477
-0.102443
-0.201035
-0.0333858
0.0716134
0.0755891
-0.120132
-0.0547991
-0.0694523
-0.0725999
0.181724
0.0511607
-0.232885
-0.0123184
0.0138401
0.230565
0.0704433
-0.0682333
0.208618
-0.06621
0.340251
-0.307926
0.154541
-0.228538
-0.166469
0.0119319
0.115253
0.0273904
0.00677562
-0.0341661
0.29402
0.0696554
0.368304
-0.0742837
-0.0245019
0.0319759
0.158972
-0.272822
-0.0755737
0.306138
0.0794
0.000537384
-0.0864087
-0.0371269
0.123536
0.0515387
0.0203215
-0.0446867
0.0849922
-0.0106631
-0.0743292
-0.0467637
0.0274139
0.0220783
0.249607
-0.0738996
0.0147404
-0.0167047
-0.0517482
0.233472
-0.0524493
0.0554055
-0.269032
0.213627
-0.35322
0.118684
0.234536
-0.247541
0.183226
0.0643151
0.0475529
0.0628939
-0.123528
-0.26229
0.0148093
-0.00663798
-0.175104
0.0549785
0.0828946
-0.134913
0.0520188
0.0112886
0.00140402
-0.0126926
0.119605
-0.0337765
-0.0858285
-0.245613
-0.137663
0.193232
0.17995
0.132228
-0.209535
-0.158633
-0.042044
0.200677
0.249329
0.0779611
-0.32729
-0.143682
-0.00868549
0.152367
0.0179454
0.279992
0.388606
-0.0535755
0.252505
0.0886028
0.22143
-0.221059
-0.000371282
0.375452
-0.0670082
0.0765258
-0.00484022
-0.0716856
0.015571
-0.188147
0.111219
-0.18803
-0.307641
0.180791
0.195283
-0.0840643
-0.0658804
-0.0287374
-0.183321
-0.251002
-0.000467103
0.252825
0.336155
-0.0868262
0.16136
-0.300219
0.138859
-0.0566319
0.257654
-0.1122
0.0480544
0.0641452
-0.223365
-0.0138992
0.0570281
-0.17634
0.119312
0.333016
0.0444152
0.0406253
-0.107934
0.0673085
0.0389075
-0.136842
0.0979349
0.114989
0.18786
-0.237762
0.316592
-0.0788299
0.114057
-0.260872
0.146814
0.0243505
0.197079
0.31078
-0.14942
-0.0930463
-0.333774
0.272196
0.0615774
-0.295859
0.27753
0.0183291
0.0678062
-0.0162676
-0.269277
0.285133
-0.257264
0.331961
-0.0746976
0.0578767
0.0744987
0.0517297
0.120098
-0.0455988
-0.30321
0.135784
0.0923
0.255621
0.0875611
-0.0688383
0.209628
-0.336706
0.127078
0.0132156
-0.00192699
0.134824
-0.0519294
-0.110297
0.0480837
0.0622138
0.0495497
0.289897
-0.339447
-0.0704133
-0.0502719
0.120685
-0.0838527
-0.244745
0.0411498
0.00929267
-0.123419
-0.0567997
0.205129
-0.148329
-0.0234841
-0.0568999
0.278161
0.00580516
-0.283966
-0.357562
0.181191
0.24761
-0.0730862
-0.174524
0.044932
0.069814
0.177183
0.0255392
-0.0651862
0.039647
0.300437
-0.257101
-0.120611
0.166773
-0.119021
0.0140025
-0.0112173
-0.0519717
-0.0583257
-0.276979
0.383584
-0.106606
-0.183532
-0.124108
-0.0092091
-0.102444
0.0480834
-0.0141444
-0.0339391
-0.174117
-0.178704
-0.0518847
0.337493
0.158797
0.0114856
-0.0943751
-0.111934
0.102725
-0.0150501
0.0967272
-0.051952
0.038225
-0.137243
-0.124238
0.0108084
0.0434854
-0.0542938
-0.026924
-0.00744736
0.0196019
-0.0231036
-0.0845521
0.0288918
0.0556603
-0.222266
0.0705692
-0.312402
0.109687
0.202716
0.328895
-0.279302
-0.0495933
0.0537592
0.096443
0.160141
0.0626447
0.00955001
-0.283282
0.273732
-0.182578
0.0569276
0.12565
0.0488136
-0.00766384
0.0196725
-0.163354
-0.289651
0.101636
0.354623
-0.288156
-0.0664663
0.197667
-0.319277
0.12161
0.281351
-0.271801
0.298869
-0.356582
0.0577136
-0.0753249
0.223734
-0.0503792
-0.24548
0.283324
-0.372012
0.0886882
-0.227004
0.294492
-0.0674875
0.280721
-0.2958
0.343869
0.00327353
-0.347143
0.25075
0.105143
-0.355893
0.0282369
-0.0274307
-0.000806156
0.296085
0.0146951
0.00916539
0.0451286
-0.054294
0.123463
0.211532
0.0777816
0.042316
0.0603753
0.0393909
-0.0997662
0.310797
-0.101169
0.310692
-0.0146074
0.0028881
-0.0190265
0.0161384
0.0147315
0.0248275
-0.105539
-0.0150729
-0.0521622
0.119707
-0.067545
-0.133683
0.0431049
0.0905777
0.0690653
0.285557
0.0845913
-0.341855
0.0342834
0.0731923
-0.0559503
0.0534288
0.00252145
-0.0719399
0.335312
-0.159992
0.0360317
-0.164006
0.127974
-0.0271088
-0.130816
0.303171
-0.0250102
-0.0127632
-0.0562508
0.069014
0.0798388
0.00515341
-0.0636594
0.0784473
-0.0147878
-0.293849
0.0668446
-0.0526295
0.128989
0.0834236
-0.0547166
-0.028707
-0.0120157
0.0136223
-0.00160654
0.31619
0.0338331
-0.00421622
0.360206
-0.0619869
-0.114374
-0.33099
-0.0856707
-0.373054
0.146846
0.226208
0.154933
-0.211733
0.000631678
0.0758941
0.301312
-0.250522
-0.0857477
0.15346
0.193014
0.228071
-0.0315798
-0.196492
-0.0199109
0.0182556
0.00165531
0.0864941
-0.371244
0.28475
-0.0545959
0.0537771
0.000818804
-0.195004
-0.194405
-0.014273
-0.149165
-0.205057
0.354222
-0.0550754
0.0657135
-0.0106381
-0.216873
-0.0557619
-0.00310225
0.0588642
-0.111063
0.161817
-0.0507547
-0.364333
0.364333
-0.0490986
-0.0716396
0.0460094
0.0719897
0.116209
-0.0529267
-0.0632819
0.356276
-0.0876146
-0.268662
0.346487
-0.259992
0.0322698
-0.0564616
-0.154573
0.0460009
0.107933
-0.153934
0.118883
0.0615747
0.0552902
-0.376593
0.300978
0.0756144
0.126985
-0.0834152
-0.04357
-0.0750194
-0.269075
0.344094
0.067479
0.0953094
0.0171915
-0.0643074
0.0471158
-0.138498
0.0652123
0.0732854
-0.0743465
0.290141
0.040289
-0.33043
-0.065408
-0.0627162
0.128119
0.0173269
-0.145446
-0.110519
0.0433412
0.0671782
-0.00170741
-0.0155605
0.0172679
0.146435
-0.173544
-0.129398
-0.0727263
-0.0197432
0.00325568
0.0164875
0.036597
-0.00920657
-0.0223243
0.0174016
0.0568396
0.0701456
0.00465175
-0.0201609
0.0155092
-0.0286987
0.00470809
-0.0464704
0.119369
-0.0728982
0.311197
0.0913171
-0.0240754
0.36086
0.228691
-0.313484
0.0431925
0.0965614
-0.139754
0.0696473
-0.00219209
0.0125992
-0.0104071
0.00824298
-0.283573
0.27533
-0.36381
0.0728788
-0.0187527
0.140074
0.062734
-0.118529
-0.100547
-0.139801
0.240348
-0.364835
0.313246
0.0515887
-0.256677
0.160982
0.0956943
-0.055176
0.126439
0.263274
0.0687379
-0.332012
-0.139587
0.0552828
0.0843039
-0.0872167
-0.262084
0.349301
0.213545
-0.344419
0.130874
-0.0411201
0.0788024
-0.0376823
-0.0448105
0.00599864
-0.0807798
-0.131747
0.319665
-0.10612
0.283425
-0.275182
0.0415988
0.195223
-0.236822
-0.247577
0.240149
0.00742822
-0.423739
0.220531
0.203208
-0.0018228
-0.0205015
0.0966081
-0.0109026
-0.0857055
0.327742
-0.0798818
-0.0765106
-0.0592826
-0.207665
-0.216074
-0.355815
0.280795
-0.00134329
-0.0544186
0.302292
-0.362585
0.0602924
0.0245526
-0.119178
0.0946256
0.19583
-0.111287
-0.0845428
0.119941
-0.0552042
-0.0647373
-0.121582
-0.053522
-0.0939033
0.137096
0.0941128
0.260055
-0.33589
0.168765
0.167125
0.0921512
-0.146114
0.0539628
0.351649
-0.0503083
-0.139602
0.0672275
0.122814
-0.0178659
-0.104948
-0.134781
-0.0720955
-0.0678996
-0.0277283
-0.2214
-0.114491
-0.114049
0.0495317
0.064517
0.0342399
0.0127601
-0.0470001
0.235771
-0.12862
-0.0225064
-0.0949705
-0.379117
0.214434
0.164682
-0.121523
0.0549829
0.0665398
0.219172
0.00345087
-0.222623
0.28031
-0.233566
0.040257
-0.0725856
-0.0659121
0.00898678
0.0522833
-0.0612701
-0.185362
0.138146
-0.0637905
-0.0743559
-0.0913992
-0.0422835
0.0419184
0.0558953
-0.0978137
0.0359492
0.231547
-0.0821106
-0.149437
0.117167
-0.0926148
0.0366215
0.263815
0.285031
-0.393587
0.108557
0.057551
0.109755
0.126016
-0.0711496
-0.0324462
-0.151226
0.0702835
-0.084943
-0.156969
0.259616
-0.18866
0.0485809
-0.207214
-0.0511892
0.060176
0.172051
-0.0937952
-0.0171063
-0.240804
0.25791
-0.0190429
0.0173355
0.0255088
-0.00566914
0.0198642
0.176792
-0.15154
-0.0979965
-0.0312079
-0.279226
0.11427
-0.191119
0.0768485
0.0748879
0.0971632
-0.407498
0.175403
-0.00695282
0.103561
-0.153795
0.0622393
0.0915561
-0.021859
-0.0068397
0.279988
0.0755406
-0.355529
0.0417155
-0.0522167
-0.37733
0.102219
0.27511
0.199054
0.0290171
0.289109
0.0671669
0.0949778
-0.151712
0.0567342
0.00627988
0.0128233
-0.0191032
-0.0378368
0.0214099
0.173997
-0.195407
0.176419
0.0683008
-0.0690378
0.122467
0.0305692
-0.00233234
0.0177878
-0.0201533
0.00236553
0.0466282
-0.359725
0.253774
-0.340991
-0.351435
0.0548589
-0.1288
-0.24853
0.0202708
-0.312091
-0.173562
0.111575
0.0705198
-0.245243
-0.0452471
-0.136875
0.0129899
-0.0159906
0.0382522
-0.155496
0.117243
0.274321
-0.0429279
0.103303
-0.359755
0.104169
0.255586
-0.184775
0.226374
-0.246299
0.187972
0.058327
0.0318634
0.279859
-0.216315
-0.0635431
0.0877144
0.143833
-0.0105546
-0.137851
0.148405
-0.388902
0.206199
-0.122289
0.0536016
0.0686872
0.0501291
-0.184821
0.134692
0.0811522
-0.0403953
0.15817
-0.122139
-0.110308
0.273724
-0.163417
0.0550933
-0.354588
-0.169219
0.190629
-0.0900103
0.0265255
0.0634848
-0.325659
0.0635746
0.0606175
0.135212
0.441568
-0.27414
-0.167428
-0.133211
-0.224351
-0.148505
0.114917
-0.13004
0.292562
-0.255941
0.276344
-0.175888
-0.100456
0.0440673
0.0838181
-0.0686709
-0.0583868
-0.125698
0.102407
0.023291
-0.320583
0.078677
-0.220542
-0.0154189
0.0146371
0.000781804
0.0316696
-0.151145
0.119475
-0.361157
0.160818
0.200339
0.262633
-0.307216
0.0445833
-0.199886
0.287976
-0.0880906
-0.235585
-0.125572
0.392077
-0.325721
-0.0663567
0.3431
-0.400452
0.0573526
-0.0384871
-0.0230667
0.0615538
0.0539593
0.0622493
0.0105222
-0.0176337
-0.0524271
0.00916594
0.0432611
0.0172422
0.0656483
-0.0828904
-0.0527633
-0.0200615
0.0728248
-0.32008
0.0980432
0.222036
-0.0318299
-0.0607161
-0.173294
0.0985412
-0.385159
0.099202
0.285957
0.043015
-0.101566
0.0585509
0.00574365
0.350715
0.012599
0.104568
-0.224696
-0.0953837
0.0717162
0.0239162
-0.0956324
-0.354809
0.0653915
0.328376
0.128857
-0.204623
0.0757656
0.0617778
0.23872
-0.300498
0.271478
0.075009
0.199604
-0.221032
-0.179492
-0.145278
0.200764
-0.0554866
-0.37321
0.0973055
-0.132334
-0.246583
0.227298
-0.309613
0.0823148
-0.0165134
-0.0841557
-0.0422079
0.117642
0.293493
0.106554
-0.0836251
-0.270574
-0.0817098
-0.061361
0.148459
-0.297139
0.148679
0.355366
-0.065225
-0.0148822
-0.00141751
0.0162997
0.173926
0.267642
-0.129944
0.161614
0.0151293
0.137086
-0.284233
0.333783
-0.351661
0.0921633
0.259497
0.0635794
0.236768
-0.300348
-0.103647
0.217917
0.335586
-0.0548648
0.261243
0.0234287
0.0193894
0.171707
0.0778997
-0.0584347
0.10145
0.127997
-0.206529
0.0785326
-0.212243
0.275822
0.0168021
0.156607
-0.0616292
-0.250515
-0.101145
0.303175
-0.154715
0.350277
-0.137389
-0.343769
0.0667904
-0.0627139
-0.119864
0.314242
-0.0869438
-0.0398499
-0.0545986
-0.346685
0.158506
-0.115294
-0.0432122
-0.0605482
0.12279
0.331056
-0.0578923
-0.273164
-0.360676
0.098417
0.262259
-0.314752
-0.00375318
0.318505
0.0863017
0.236901
-0.323203
0.340596
-0.26637
0.0884099
0.28158
0.0399011
-0.113166
0.0732647
-0.247894
-0.16558
0.00264382
0.0419476
-0.0445915
-0.217
-0.137634
-0.121282
0.17821
-0.231074
0.297181
0.12798
0.0387199
-0.125129
0.201054
0.0752899