/*--------------------------------*- C++ -*----------------------------------*\
| =========                 |                                                 |
| \\      /  F ield         | OpenFOAM: The Open Source CFD Toolbox           |
|  \\    /   O peration     | Version:  v2012                                 |
|   \\  /    A nd           | Website:  www.openfoam.com                      |
|    \\/     M anipulation  |                                                 |
\*---------------------------------------------------------------------------*/
FoamFile
{
    version     2.0;
    format      ascii;
    class       volVectorField;
    location    "200";
    object      U;
}
// * * * * * * * * * * * * * * * * * * * * * * * * * * * * * * * * * * * * * //

dimensions      [0 1 -1 0 0 0 0];


internalField   nonuniform List<vector> 
37809
(
(1.00736 -8.88815e-05 0)
(1.07537 0.0549152 -6.8838e-21)
(1.06166 0.0227348 -4.00096e-21)
(1.07289 0.0723424 -7.36572e-21)
(1.01036 0.00074642 0)
(1.00059 -3.03681e-05 -3.67292e-22)
(1.00251 -0.000100499 1.93981e-22)
(0.720591 0.0188036 5.12675e-21)
(1.03207 0.0160808 -2.50465e-21)
(1.04966 0.043297 -4.35912e-21)
(1.01136 0.010402 0)
(1.03758 0.0314689 0)
(1.01166 0.00272957 4.07654e-22)
(1.02102 0.0217648 1.14446e-22)
(1.02851 0.0190457 -1.87654e-21)
(1.04736 0.0188209 2.02182e-21)
(1.00203 3.54816e-05 1.90543e-22)
(0.840926 0.0744706 -4.81012e-21)
(1.03707 0.0313609 0)
(1.02801 0.00796953 0)
(1.04712 0.0191057 -2.48538e-21)
(0.798104 0.0408471 6.00071e-21)
(0.965992 -0.0612592 5.22845e-21)
(1.0189 0.000718729 -1.50263e-25)
(0.420377 0.0250118 2.20167e-21)
(1.00211 0.000110328 1.24932e-23)
(1.04437 0.0304528 5.1013e-21)
(0.568091 0.0330976 0)
(1.05745 0.0385074 0)
(1.00475 -0.000220895 2.23539e-22)
(1.01249 0.0119765 1.30135e-21)
(0.512258 0.0393256 -5.82341e-21)
(1.02067 0.000178209 1.44639e-21)
(1.05508 -0.00956768 0)
(1.04393 0.0317094 -1.24432e-21)
(1.02062 7.21731e-05 0)
(1.08806 0.0572609 0)
(1.08709 0.0855543 -9.80684e-21)
(0.830274 0.0188157 0)
(1.01017 -0.000147827 0)
(1.01052 -0.00158631 5.0274e-23)
(0.9522 0.081652 -9.56646e-22)
(1.04923 0.0182678 -4.50296e-21)
(1.04794 0.0451942 1.77411e-21)
(1.0186 0.000678531 3.64075e-21)
(1.0423 0.033616 -4.85872e-21)
(1.04053 0.0169563 0)
(1.02725 0.0224063 8.64193e-22)
(1.03951 0.0216571 0)
(1.06274 0.0739331 -4.16309e-21)
(0.54802 0.0326358 -7.09717e-21)
(0.866547 -0.215153 2.51884e-21)
(1.06499 -0.0070385 -5.37839e-22)
(1.05221 -0.0072046 0)
(1.04386 0.0312241 5.42901e-21)
(1.01077 0.000688879 -2.19961e-22)
(1.0719 0.0585474 7.54126e-21)
(1.05428 0.0254933 -3.03378e-21)
(1.06991 0.0582495 0)
(0.571281 0.0322658 5.18415e-21)
(1.04175 0.0336013 4.47327e-21)
(1.053 0.0398325 7.97704e-23)
(1.0719 0.0715114 7.8004e-21)
(1.04873 0.0450325 -1.79007e-21)
(1.01467 0.00954754 -3.94853e-22)
(1.02816 0.0190556 -1.12431e-21)
(1.07535 0.0544764 0)
(0.415199 0.0119221 0)
(1.04092 0.0430076 -1.40598e-21)
(1.00548 0.0427417 8.08435e-22)
(1.01089 0.000694862 -1.82229e-22)
(1.00381 0.000204507 8.73682e-23)
(0.864138 -0.209599 -1.49643e-21)
(1.09455 0.0691419 0)
(1.0028 -6.77754e-05 -1.71772e-23)
(0.984465 0.0219993 -2.43548e-22)
(1.06203 0.0731921 -7.31424e-21)
(1.00451 -3.7345e-05 0)
(1.04798 0.0171494 -2.14372e-21)
(1.01744 0.00030929 1.22418e-21)
(1.04938 0.0456798 3.71955e-21)
(0.87344 0.0757619 0)
(1.03347 0.00458593 0)
(1.06539 -0.000125828 0)
(0.958596 0.010963 -3.91358e-21)
(0.402928 0.00927976 -3.52512e-21)
(1.01263 0.00687473 1.90735e-22)
(0.553606 0.0326565 4.78294e-21)
(1.04014 0.0430946 2.07235e-21)
(1.08752 0.0574987 3.33607e-21)
(1.00099 2.80342e-05 0)
(0.544682 0.0279596 -3.75946e-22)
(1.06666 0.0315318 0)
(1.00241 -4.18333e-05 0)
(1.05286 0.0392394 0)
(1.00707 -0.000304082 1.92821e-22)
(0.738752 0.0532475 0)
(1.00696 -0.00031415 0)
(1.00713 -0.000570296 0)
(0.411195 0.0231302 0)
(1.00522 0.000367706 -5.18197e-23)
(1.07184 0.0586879 -1.28938e-20)
(1.00742 -9.54248e-05 1.27043e-22)
(1.01434 0.00934976 7.83518e-22)
(0.963429 0.0108654 -2.38689e-22)
(1.02084 0.0167988 0)
(0.818907 0.0423422 -5.83317e-21)
(1.00175 -4.00349e-05 0)
(0.796137 0.0205662 -1.47428e-20)
(0.765962 -0.0860413 -3.17308e-21)
(1.01092 0.0029931 -7.63647e-23)
(1.0937 0.0689523 0)
(0.794028 0.0756122 6.11092e-21)
(1.01026 -0.000127166 0)
(0.557682 0.0288291 -2.87098e-21)
(0.827897 0.0774437 5.59703e-21)
(1.02715 0.018401 -3.31712e-21)
(1.00736 0.00176387 0)
(0.964739 -0.0544915 0)
(1.04028 0.00533827 1.09813e-21)
(0.979409 0.0787343 3.38962e-22)
(1.02793 0.0310215 0)
(0.707266 0.033499 -8.73367e-21)
(1.01863 0.00077565 -2.93986e-21)
(1.01033 -0.000116999 -2.26039e-22)
(0.998167 0.0263944 7.91804e-25)
(1.00487 -0.000160344 2.06748e-22)
(1.0334 0.0222607 1.70712e-21)
(1.00635 -0.000385519 0)
(1.00666 -0.000348679 0)
(1.0599 0.0227909 -3.91544e-21)
(1.02784 0.0187172 8.02212e-22)
(1.01149 0.0026508 2.54273e-22)
(1.01027 -9.29267e-05 2.32503e-22)
(1.00478 -0.000147861 4.101e-22)
(1.01021 0.00401127 1.54881e-22)
(1.04607 0.0471528 4.55991e-21)
(0.998116 0.0308498 0)
(0.384169 0.0195403 0)
(1.05703 0.0160536 0)
(1.03687 0.0319985 0)
(0.948031 0.0756437 -3.33083e-21)
(1.02097 0.0221461 1.63073e-22)
(1.03832 0.00665662 8.30847e-21)
(1.00679 -0.000337245 -2.4938e-22)
(1.0097 0.00284794 -1.22379e-22)
(1.03643 0.0319277 0)
(1.02819 0.0224432 0)
(1.00639 -0.000364309 -6.52849e-22)
(1.00474 -0.000150427 -4.12214e-22)
(1.07862 0.0791449 3.66059e-23)
(1.03828 0.00694887 -3.76352e-21)
(1.01782 0.000353687 1.67566e-21)
(1.07179 0.0620027 0)
(1.00645 -0.000385808 1.1252e-22)
(1.01201 0.0113506 -7.67751e-22)
(1.00466 -0.000138083 4.05087e-22)
(0.683796 0.173694 4.39624e-21)
(1.00697 -0.000545679 -8.1145e-24)
(1.002 -6.54318e-05 0)
(1.02243 0.000379631 0)
(0.537902 0.0269791 4.31358e-21)
(0.496277 0.0367646 1.78443e-22)
(1.04428 0.0138059 1.74644e-21)
(1.0065 -0.000360887 2.84633e-22)
(1.065 0.0532452 4.30552e-21)
(1.02267 0.000302341 0)
(0.980407 0.097442 -2.83262e-22)
(1.03302 0.022281 1.62137e-21)
(0.941976 -0.0821163 -3.56748e-22)
(1.00086 -5.7939e-05 3.44495e-22)
(1.06259 0.0764149 4.19655e-21)
(1.01672 0.0125949 -3.04655e-22)
(1.0402 0.00577862 1.2245e-21)
(1.02057 0.0220842 -2.58938e-22)
(1.0102 -0.000153236 -3.04482e-23)
(1.03243 0.0163576 3.13306e-21)
(1.01308 0.00724035 -4.20749e-23)
(1.02484 0.047296 0)
(1.01009 0.0039123 3.38178e-23)
(1.01272 0.00046795 1.82836e-22)
(0.949308 0.0886024 2.16016e-21)
(1.01055 0.000755627 3.15537e-22)
(1.01265 0.00049502 1.66485e-22)
(1.0226 0.00581063 -2.62612e-21)
(1.00755 -0.000172111 2.26056e-22)
(0.552645 0.0300237 -6.10599e-21)
(1.01654 0.012502 1.50076e-22)
(0.38894 0.0212049 -8.54264e-22)
(1.07009 0.0576357 1.6432e-20)
(0.954739 0.0938296 4.34969e-21)
(1.07889 0.0597916 1.04317e-20)
(1.02837 0.00807491 0)
(1.06145 0.101401 5.88081e-21)
(1.00212 -5.64714e-05 -2.0209e-22)
(1.03299 0.00496838 0)
(1.03295 0.00527236 0)
(1.07216 0.061986 1.07455e-20)
(1.01267 0.00696392 2.16815e-22)
(0.536267 0.0330592 -3.02158e-21)
(0.96467 0.116656 -6.40549e-21)
(1.05013 0.0455373 0)
(1.01491 0.00977236 8.53689e-23)
(1.01535 0.00962691 4.68808e-22)
(1.04164 0.0343892 -2.12686e-21)
(1.0275 0.0187459 8.60137e-22)
(1.00217 -7.33377e-05 -7.85651e-23)
(0.559446 0.0294303 -5.49179e-21)
(1.00748 -9.86277e-05 -4.94658e-22)
(0.701096 0.070018 0)
(1.05521 -0.0185613 3.82564e-22)
(1.0597 0.107044 1.23238e-21)
(1.08205 0.0510989 -7.95843e-21)
(1.06179 0.075662 3.12415e-21)
(1.00136 -1.18803e-06 -4.03863e-22)
(1.00687 -0.000512028 0)
(0.95065 -0.0532415 -3.00207e-21)
(1.0836 0.0663985 1.32137e-21)
(1.00749 -9.54066e-05 -1.22048e-22)
(0.93205 -0.108502 0)
(1.08471 0.0534818 0)
(1.01489 0.00988508 -1.45069e-22)
(1.04113 0.0343972 -3.90277e-21)
(1.002 0.000111264 1.3221e-23)
(1.00031 -5.24625e-07 0)
(1.0839 0.0670602 -2.76733e-21)
(1.00964 0.00345557 -2.54913e-22)
(0.763013 0.0522534 7.48155e-21)
(1.00461 -0.000149617 -1.05086e-22)
(1.08994 0.0841615 0)
(1.04721 0.0144983 3.98655e-21)
(1.01476 0.00971894 -3.8681e-23)
(1.0002 -3.8269e-06 0)
(1.01505 0.00994096 0)
(1.01498 0.00943547 3.56109e-22)
(1.04588 0.0786335 -1.95246e-21)
(0.690067 0.0444659 6.34155e-22)
(1.00265 0.000114808 -3.26439e-23)
(1.01458 0.0109371 2.21542e-22)
(1.00769 -0.000289518 1.23015e-22)
(1.07916 0.0593509 1.27756e-20)
(1.00308 -5.6136e-05 -6.70409e-24)
(0.966346 0.0175062 1.9572e-21)
(0.740219 0.0540774 4.29902e-21)
(1.05747 0.0434127 -7.49575e-21)
(1.06055 0.0229543 4.68739e-21)
(1.09377 0.0677615 -1.27232e-20)
(0.971154 0.0165312 1.67753e-21)
(0.775899 0.0575286 2.06453e-21)
(1.06359 0.0427144 -2.79482e-21)
(1.02014 0.00555776 -1.24735e-21)
(1.00952 0.00333212 1.98131e-22)
(1.05364 0.0388399 -4.18908e-23)
(0.536093 0.0245745 3.78301e-21)
(1.01015 0.00071023 -4.5986e-22)
(1.02239 0.0058544 1.45102e-21)
(1.04659 0.0576538 0)
(1.02242 0.00363422 1.07898e-21)
(1.01244 0.00126689 6.6332e-22)
(1.04446 0.030981 -5.6012e-21)
(1.01291 -0.00024962 0)
(1.01297 0.00708959 -1.10626e-23)
(1.01222 0.000982524 0)
(1.02537 0.0196728 6.25767e-22)
(0.915644 0.0786988 -2.43932e-21)
(1.02098 0.0131317 1.7162e-21)
(1.00769 0.0612396 -1.5975e-21)
(1.06096 0.109093 -1.42952e-21)
(1.00455 -3.64186e-05 5.19708e-23)
(1.0147 0.0105033 1.45997e-23)
(1.01052 0.00287832 0)
(1.0283 0.0135339 2.79439e-21)
(1.01259 -0.000247148 -3.42368e-22)
(1.01957 0.021935 8.70484e-22)
(1.04396 0.0490858 1.5495e-21)
(0.885573 0.0771873 -2.49638e-21)
(1.02757 0.0224703 0)
(1.04803 0.0188946 -4.68029e-21)
(1.00103 -5.12908e-05 3.49918e-22)
(0.423134 0.0130582 -6.69489e-21)
(1.06267 0.103569 -3.63725e-21)
(1.01698 0.000807061 0)
(1.01271 0.00564848 2.74881e-22)
(0.85475 0.0959667 -4.8364e-21)
(0.970004 0.0476239 0)
(1.02215 0.00358825 1.23228e-22)
(0.703766 0.0463062 -2.10036e-21)
(1.05349 0.0382744 -5.523e-23)
(1.0073 0.00170593 0)
(0.954825 -0.0864553 -4.94806e-21)
(1.03264 0.0227133 -5.07544e-24)
(1.00919 0.0005104 0)
(1.01616 0.040853 9.95727e-23)
(0.379808 0.0228776 2.81515e-21)
(1.05039 0.0431825 1.00927e-21)
(1.00742 0.00177355 0)
(1.03314 0.0706788 -4.01221e-21)
(1.01965 0.00504816 -1.61758e-21)
(1.01931 0.00491779 -1.54149e-21)
(1.02205 0.014197 -5.78987e-22)
(1.05753 -0.0219489 -2.77974e-23)
(1.01075 0.000798343 0)
(1.04825 0.018519 4.64032e-21)
(1.058 0.0382147 4.25424e-21)
(1.04395 0.0141775 -1.6723e-21)
(1.02598 0.0231518 6.49248e-22)
(1.01972 0.00521831 2.31435e-21)
(1.00301 0.00013834 -1.68162e-22)
(1.0261 0.0190956 -7.49739e-22)
(1.0131 0.0246116 0)
(1.02344 0.0240271 0)
(1.02074 0.0131085 7.28552e-22)
(1.03348 0.00489411 1.43751e-21)
(1.04061 0.0397661 0)
(1.08793 0.0565678 0)
(1.00663 0.00127893 0)
(1.0533 0.0017161 0)
(1.00759 -0.000144835 1.22209e-22)
(0.802848 0.0631324 1.02102e-21)
(1.03786 0.0403684 0)
(1.02347 0.0242289 0)
(1.01696 0.0432636 -1.0393e-22)
(0.779473 0.075564 1.73889e-21)
(1.08756 0.0831587 0)
(0.716293 0.0499245 1.98484e-23)
(1.00755 -9.79851e-05 0)
(1.07728 0.030452 0)
(0.833984 0.0565735 1.94519e-21)
(1.02395 0.00288227 6.7978e-22)
(1.02851 0.0225704 0)
(1.03722 0.0540999 0)
(1.03685 0.0550643 -2.41349e-21)
(1.093 0.0852511 1.02188e-20)
(1.00726 -0.000504645 0)
(1.01796 0.000568171 0)
(1.01044 -6.61437e-05 0)
(1.03864 0.00552235 -1.00079e-21)
(1.07801 0.0694404 5.51875e-21)
(0.521183 0.0324264 1.30603e-21)
(1.02234 0.0149079 -9.02406e-22)
(1.02347 0.0611258 -1.6255e-21)
(1.00659 0.00123325 -1.69314e-22)
(0.364591 0.0184948 6.77048e-21)
(1.07251 0.055891 1.4663e-21)
(1.0108 -0.000858392 -3.79308e-22)
(1.01945 0.0130749 0)
(0.758782 0.0564966 0)
(0.467725 0.0497078 0)
(1.07717 0.0296183 0)
(1.05498 0.02571 8.8157e-22)
(1.01201 0.00999371 7.33267e-22)
(1.01751 0.0144117 0)
(1.03939 0.0212368 0)
(0.434272 0.0156459 9.78922e-21)
(1.08025 0.0309296 2.11179e-20)
(1.01588 0.0120346 0)
(1.0086 -0.00112224 -1.87032e-23)
(0.530838 0.0436688 0)
(0.993062 0.0881621 0)
(1.0128 0.000670997 0)
(1.00753 -0.000533122 -6.5282e-22)
(0.944491 0.085736 0)
(1.04783 0.0363299 5.82023e-21)
(1.00766 -0.00054042 6.0654e-22)
(1.01118 -0.000931315 -5.14355e-22)
(1.0645 0.0528677 -4.15581e-21)
(1.01254 0.000291995 0)
(1.07261 0.0614458 -1.25676e-23)
(1.06697 0.055567 -4.54986e-21)
(1.00788 -0.00023526 4.33375e-22)
(1.00617 0.0108981 5.60006e-22)
(1.00775 -0.000246878 -4.41586e-22)
(1.04399 0.0133641 -3.42488e-21)
(1.00462 -0.000138685 -5.11598e-22)
(1.068 0.0566068 4.7834e-21)
(1.01246 0.000331085 0)
(1.0129 0.000651254 -3.33418e-22)
(1.01926 0.00474161 1.54053e-21)
(1.02831 0.0301094 0)
(0.539942 0.0277491 -2.87457e-21)
(1.04587 0.0302528 0)
(1.00084 -1.51168e-05 0)
(0.838311 0.0869262 4.07996e-21)
(1.09308 0.0674523 1.55102e-20)
(1.0235 0.014338 1.75521e-21)
(1.01155 -0.000910068 0)
(1.01646 0.000147731 0)
(1.05006 -0.0659128 0)
(0.988662 -0.0155053 0)
(0.516891 0.0364504 -4.25088e-23)
(1.00664 0.000734144 -2.3116e-22)
(1.00646 0.00958044 0)
(0.714755 0.015502 0)
(1.04028 0.052134 -6.13854e-23)
(0.984109 0.0168229 -7.54505e-23)
(1.01082 -0.000824319 0)
(1.00656 0.000704155 -3.34913e-22)
(1.01094 -0.000825763 -1.27596e-22)
(0.366934 0.0200026 -9.20681e-21)
(1.01242 0.00499131 2.35288e-22)
(1.0108 -0.000758933 -4.88073e-22)
(1.01101 0.00311394 4.03556e-22)
(1.03009 0.027482 -1.21876e-21)
(0.754855 0.0520475 -2.65703e-21)
(1.01872 0.0189844 -9.05563e-23)
(0.429709 0.00910567 0)
(0.999801 0.0908674 -3.3042e-22)
(1.00457 -0.00020664 -2.29159e-22)
(1.04042 0.0351181 -2.9536e-21)
(0.973023 -0.0267459 1.40477e-21)
(1.04422 0.0146555 -1.71861e-21)
(1.01783 0.0189805 0)
(1.04645 0.0495349 -3.42401e-21)
(1.04752 0.0794563 0)
(0.961477 0.0739921 -3.39121e-21)
(1.00808 -0.000511957 -2.2562e-22)
(1.01224 0.00482929 4.31849e-22)
(1.02051 0.022468 1.36186e-22)
(1.06427 0.0483368 1.71827e-21)
(1.09454 0.0733223 -2.66285e-22)
(1.01095 0.000753451 -2.01541e-22)
(1.01188 -0.000797954 0)
(1.04684 0.0141064 0)
(0.985093 0.0173374 0)
(1.01603 0.0870019 -1.35058e-21)
(1.07093 0.0601072 -3.49641e-23)
(1.04567 0.0298385 0)
(1.00724 -0.000497223 3.84967e-22)
(1.02426 0.0028786 1.55329e-21)
(1.01107 0.000775891 4.16557e-23)
(1.00715 -0.000494218 0)
(0.507015 0.03537 -7.13363e-22)
(1.04355 -0.00929816 -1.26701e-21)
(1.01889 0.0210854 0)
(1.03019 0.029263 -8.9919e-22)
(1.02374 0.0237871 8.36958e-22)
(1.0225 0.025311 5.251e-23)
(0.381833 0.0242543 0)
(1.01275 0.00122222 3.09524e-22)
(0.772569 -0.0757729 5.00675e-21)
(1.01256 0.00103744 -3.0256e-22)
(1.01992 0.00812284 0)
(1.01078 -0.000270139 -1.73849e-22)
(1.00043 -3.39126e-05 1.14224e-22)
(1.00767 -0.00016303 -1.17125e-22)
(1.00778 -0.000533232 0)
(1.01037 0.000743508 -3.28916e-24)
(1.01094 -0.000872858 0)
(1.00738 0.00170943 0)
(1.02139 0.0217927 2.21603e-22)
(1.02953 0.00166872 0)
(1.01289 0.00727964 -2.42342e-22)
(0.891525 0.116958 -7.11243e-21)
(1.02404 0.0136859 -1.1699e-21)
(1.02646 0.0191329 1.62419e-21)
(1.01247 0.00324638 -8.13358e-22)
(1.00234 -8.73045e-05 1.49432e-22)
(1.02201 0.0222224 -1.35743e-22)
(1.02179 0.00371719 -1.26728e-22)
(1.03048 0.0291441 3.0104e-21)
(1.0797 0.0548273 0)
(1.02208 0.0145866 1.19947e-21)
(1.0469 -0.0119003 -1.0142e-21)
(1.01134 -0.000968182 7.78009e-22)
(1.01226 0.00639728 0)
(1.0156 0.0584297 0)
(1.0067 0.00135149 -1.63807e-22)
(1.01174 -0.000961389 0)
(1.06715 0.0560877 -7.92456e-21)
(1.02209 -0.00915797 0)
(1.01274 0.0214277 1.36194e-21)
(1.00725 0.0016456 1.51603e-22)
(1.09004 0.0843237 -8.7213e-21)
(1.01089 0.0107591 -5.0419e-22)
(0.560119 0.0296111 3.0883e-21)
(1.02915 0.00154472 0)
(1.04029 0.0165337 0)
(0.868542 -0.178513 0)
(0.992172 -0.00308214 0)
(1.01075 -0.00024431 0)
(1.05785 0.0121117 -6.8483e-23)
(1.00705 0.095524 0)
(1.05128 0.0708674 -4.69266e-21)
(1.01074 0.0029744 -3.67376e-22)
(1.00916 0.121453 0)
(1.00078 -4.3289e-05 -5.1592e-22)
(0.342772 0.0208121 -4.03907e-21)
(1.04193 0.0421446 1.46287e-21)
(1.01255 0.00367324 0)
(1.08247 0.0658625 -8.41643e-21)
(1.03884 0.00656628 -7.48445e-21)
(1.01242 0.00313499 7.28449e-22)
(1.05621 0.0716391 4.57076e-21)
(0.923498 0.158145 0)
(1.00761 -9.89113e-05 5.23795e-22)
(1.02844 0.013903 -1.97153e-21)
(1.00724 0.00162863 -3.04762e-22)
(1.007 -0.000475269 0)
(0.487495 0.0418568 -5.07127e-21)
(1.04189 0.0864607 0)
(1.00537 -0.000299399 0)
(1.06463 0.0467694 5.41195e-21)
(0.989454 -0.000727034 0)
(1.00918 -0.00061378 5.32947e-22)
(1.00782 -0.000276355 0)
(1.00526 -0.000282959 0)
(1.01097 0.0102382 0)
(0.683874 0.0463003 4.40492e-21)
(0.80741 0.0243131 4.68834e-21)
(0.912806 0.16406 -4.37501e-22)
(1.0121 -0.0008463 0)
(0.564215 0.03123 7.57889e-22)
(1.02206 0.003766 -1.20925e-21)
(1.00261 -7.30873e-05 0)
(1.0044 0.120311 9.00477e-22)
(1.01089 0.00312025 -1.17498e-23)
(1.04772 0.0574406 -4.02905e-21)
(1.007 0.0661453 -8.39176e-22)
(0.785642 0.0971001 2.08427e-21)
(1.0131 0.00623701 -5.47393e-22)
(1.08282 0.0664801 7.3528e-21)
(1.0052 -0.000273231 9.71791e-23)
(1.08466 0.0528103 0)
(0.819768 0.0654305 0)
(1.03531 -0.00995089 0)
(1.0408 0.00525684 1.16322e-21)
(0.982633 0.0844746 0)
(1.08108 0.053889 -7.86347e-21)
(1.01242 0.00365887 -4.34631e-22)
(1.01242 0.0258818 7.35785e-22)
(1.01808 0.000735005 2.2526e-21)
(1.02282 0.0252643 5.82045e-23)
(1.05764 0.0161319 0)
(1.02625 -0.0104516 0)
(1.03896 0.00624797 2.35159e-21)
(1.04 0.0531006 3.33172e-23)
(1.05364 0.0607811 -8.55058e-22)
(0.358788 0.0191139 3.80669e-21)
(1.0051 -0.000258359 9.56046e-23)
(1.02111 0.0168999 0)
(1.00993 0.00296919 -2.46377e-22)
(1.06221 0.0414753 -1.7613e-21)
(0.695765 0.0460926 -4.51245e-21)
(1.00065 0.0653742 4.2345e-22)
(0.708715 0.0459677 0)
(1.03678 0.0321054 -5.97888e-22)
(1.02511 0.0237232 0)
(1.025 0.0199664 -1.14498e-21)
(1.00819 -0.00516912 -5.10088e-22)
(1.06376 0.0549017 -4.16923e-21)
(0.695981 0.0451785 0)
(1.03717 0.0302824 -5.91386e-22)
(1.0157 0.00304372 0)
(1.01239 0.00725599 -3.35373e-22)
(1.06329 0.0552431 0)
(1.04238 0.0418296 7.54369e-22)
(1.03844 -0.0126812 0)
(1.02376 0.024005 0)
(1.02926 0.0584909 0)
(0.939789 0.0766472 -2.59377e-21)
(0.892584 0.0682638 -1.16488e-20)
(1.01029 0.00310741 -7.70649e-22)
(1.00649 -0.000350094 6.99695e-22)
(0.542259 0.0448211 5.3938e-21)
(1.02932 0.0135658 0)
(1.0061 0.000972038 2.47347e-22)
(1.00465 -0.000152036 0)
(1.00679 -0.000326948 1.58073e-22)
(1.025 0.0202604 0)
(0.290959 0.0144643 0)
(0.720253 0.0337964 6.05212e-21)
(0.922757 0.191397 1.56635e-22)
(0.835825 0.0440273 0)
(1.02077 0.00553487 -4.26816e-22)
(1.03483 0.0217582 -2.38966e-21)
(1.00092 0.0692285 -2.25905e-22)
(1.0483 0.0167709 6.83287e-21)
(1.04755 0.0269189 -5.31648e-21)
(1.03773 0.0445718 2.12592e-21)
(1.00944 0.0723655 3.62588e-23)
(1.00787 0.00206 2.39439e-22)
(1.02006 0.00536873 -1.6395e-21)
(1.01532 -0.00216489 0)
(1.0103 -0.000163453 -2.10216e-22)
(1.05713 -0.00150301 1.23122e-21)
(0.350292 0.0175133 0)
(1.01009 -0.000112419 -2.74742e-22)
(1.04098 0.0350871 1.07958e-21)
(1.02015 0.0197884 0)
(1.02797 -0.0120791 -1.3084e-21)
(1.00979 0.00284448 1.35692e-22)
(1.00814 -0.000567386 0)
(1.09447 0.0728877 -4.72882e-21)
(1.00505 -0.000237474 0)
(1.08771 0.0913403 4.51101e-21)
(1.06 0.112921 9.25065e-21)
(1.06277 0.0415909 1.46921e-21)
(1.01461 0.0107107 0)
(1.0081 -0.000474026 0)
(1.08104 0.0857209 0)
(1.02986 0.0277716 -6.14135e-22)
(1.0114 0.00821915 -7.56625e-22)
(1.01238 0.00657568 0)
(1.01088 0.000779228 0)
(1.05406 0.0373325 0)
(0.967279 0.0730043 0)
(1.05421 0.0378951 4.07329e-21)
(1.04064 0.0199644 0)
(1.02158 0.0123691 3.26378e-23)
(1.02915 -0.00924468 1.46842e-21)
(1.07105 0.0604752 -6.27818e-21)
(1.07992 0.0315358 -9.04111e-23)
(1.04388 0.015009 1.75384e-21)
(1.00677 0.044677 -5.55149e-22)
(1.02636 0.0229333 -6.94949e-22)
(1.06799 0.0720225 4.50203e-21)
(1.05339 0.0601869 7.21211e-22)
(1.03925 -0.0680931 0)
(1.00002 -1.50918e-05 -4.74003e-22)
(0.574488 0.0333344 0)
(1.09339 0.0750831 0)
(0.836716 0.0815721 0)
(1.04735 0.0607957 1.86943e-21)
(1.02664 0.0410163 -9.41019e-22)
(0.353621 0.0234733 0)
(1.00123 -4.72045e-05 -1.90184e-22)
(1.02804 0.0225693 4.01697e-22)
(0.986704 0.0162935 0)
(1.03139 0.052612 1.43424e-21)
(1.00767 0.00194612 5.93741e-23)
(1.05495 0.0466799 -4.41941e-23)
(0.808695 -0.0889155 2.10039e-21)
(1.0147 0.0107598 -3.87154e-22)
(1.02636 0.020049 1.54692e-21)
(0.278411 0.0118884 9.87264e-23)
(0.826918 -0.0461766 0)
(1.04156 0.0511177 0)
(1.02732 0.0405534 0)
(0.269036 0.0101376 4.47748e-21)
(1.01633 0.00540493 0)
(1.04838 0.0475263 1.88674e-21)
(0.906841 0.0674618 1.15367e-20)
(1.01733 0.0141437 9.19483e-23)
(1.06272 0.0964147 0)
(1.00831 -0.000576606 3.03812e-25)
(1.03301 0.015414 1.97588e-21)
(1.00844 -0.000582402 0)
(1.06894 0.0616867 0)
(1.01201 0.00816351 -6.55284e-22)
(1.02391 0.0480768 0)
(1.02892 0.0357386 0)
(1.01055 -0.00351304 -3.86633e-22)
(1.07225 0.0615504 -6.81863e-21)
(1.04571 0.0281168 1.13899e-21)
(1.02913 0.0389955 0)
(1.02975 0.0690113 -5.26705e-22)
(1.01266 0.00717744 -8.27785e-22)
(1.04177 0.00558489 5.54416e-21)
(1.00492 -0.000156376 6.71431e-26)
(1.08485 0.0936731 7.72557e-21)
(1.02154 0.0121251 0)
(1.05405 0.0587425 3.21318e-21)
(1.03153 0.0198143 -1.58275e-21)
(1.00845 0.000433634 6.16085e-22)
(1.00757 0.00188102 -6.00717e-23)
(1.03961 0.020701 5.73539e-23)
(0.712983 0.0713016 -5.9766e-21)
(1.00847 0.00232419 8.5973e-23)
(1.00481 -0.000109473 4.57161e-22)
(1.00459 -3.13144e-05 -6.75053e-22)
(1.02666 0.0230366 -1.97561e-21)
(0.598357 0.00756065 0)
(1.05423 0.0594077 -3.57645e-21)
(1.07127 0.0727219 2.13031e-21)
(1.00747 0.00182943 0)
(1.00149 -3.09567e-06 -4.0711e-22)
(1.07013 0.0580482 0)
(1.01003 0.0029662 0)
(1.01095 0.00080292 1.44152e-22)
(1.00378 0.096252 1.02701e-21)
(1.00773 -0.000137932 -1.30586e-22)
(0.455507 0.0388475 0)
(1.06842 0.061378 4.61839e-21)
(1.01587 0.100967 5.5966e-22)
(1.01837 0.0010965 0)
(1.00689 0.00140385 0)
(1.00807 0.00181125 -1.16985e-22)
(1.01619 0.00529619 2.13405e-21)
(1.01249 0.00693548 5.76847e-22)
(0.957019 -0.0120536 0)
(0.960358 0.0563794 2.40127e-21)
(1.04889 0.0186499 0)
(1.01817 0.0191482 2.45162e-23)
(1.00537 -0.000303262 -1.01308e-22)
(0.723493 0.0652021 8.67414e-21)
(1.04589 0.0285497 1.46566e-21)
(1.02785 0.00869795 0)
(1.00701 0.00146653 0)
(1.05831 0.0100159 0)
(1.01855 0.00673558 5.99486e-22)
(1.04413 0.0154799 -1.89371e-21)
(1.07188 0.0595353 1.77249e-21)
(0.657771 0.149045 1.27951e-20)
(1.09402 0.0722134 0)
(1.06101 0.0224227 0)
(0.858996 0.0455586 0)
(1.00761 -9.52539e-05 -2.95472e-23)
(1.0568 0.114632 0)
(1.06125 0.0128544 1.82686e-21)
(1.00781 -0.000117866 1.26636e-22)
(1.03148 0.0194354 1.47203e-23)
(0.965483 -0.0259451 -1.57399e-21)
(1.00543 -0.000309731 -9.72155e-23)
(1.01275 0.000999876 0)
(1.00505 -0.000248041 0)
(0.82652 -0.0575205 2.13258e-21)
(1.00391 0.0566318 2.09239e-21)
(0.940428 0.184329 -1.71911e-22)
(1.00198 -5.03054e-05 1.25828e-22)
(1.01973 0.0125608 -1.20366e-21)
(1.01492 0.00955012 1.77517e-22)
(1.0329 0.0151075 3.61531e-21)
(1.01894 0.00461937 0)
(1.03898 0.0332842 7.58022e-22)
(1.01399 0.00934363 -5.64051e-24)
(1.00506 0.000352005 0)
(1.00517 -0.000256481 0)
(1.0082 -0.000506169 0)
(0.935489 0.0697177 0)
(0.510265 0.0498413 0)
(1.0196 0.018612 -1.19569e-21)
(1.02379 -0.0263305 2.34871e-22)
(1.01118 0.000287869 -6.40867e-24)
(1.04778 0.0255752 -5.2248e-21)
(1.00214 -8.4817e-05 0)
(1.01062 0.00297994 0)
(1.02406 0.0235765 0)
(1.0756 0.0682615 6.47956e-21)
(1.03973 0.01709 1.46375e-21)
(1.07951 0.0785311 -1.15012e-20)
(1.04912 0.0352847 0)
(1.08167 0.0484011 -8.42633e-21)
(1.02746 0.00857171 0)
(0.679602 0.0669091 -1.1413e-20)
(0.973931 0.0659005 0)
(1.0137 -0.00215195 2.43398e-23)
(1.00649 0.00067462 -3.44984e-22)
(0.299509 0.0164355 4.42199e-21)
(1.0127 0.00291126 -1.78228e-22)
(1.01101 0.00238767 -3.86814e-22)
(0.50683 0.0228668 0)
(1.01076 -0.000818467 -5.97703e-22)
(1.07825 0.045177 0)
(1.00653 0.000658255 6.24632e-22)
(0.816635 0.00966105 0)
(1.02528 0.0140883 -7.08589e-22)
(1.01447 -0.00068092 7.67759e-25)
(1.05817 0.0866281 0)
(0.982426 0.014399 2.89278e-21)
(1.03867 0.0354963 6.66261e-22)
(1.01266 0.00277229 1.62422e-22)
(1.01371 0.00910304 2.20505e-22)
(1.00966 -0.000113265 -1.27346e-22)
(1.01726 0.000921704 0)
(1.06779 0.0186054 -2.20726e-23)
(1.01988 0.000620315 2.01088e-21)
(1.02626 0.0232115 -7.14093e-22)
(1.02121 0.0054715 1.00268e-21)
(0.711685 0.177511 -5.86827e-21)
(0.74486 -0.116659 -3.03524e-21)
(0.786701 -0.0919899 3.55899e-21)
(1.06814 0.0180907 6.45883e-21)
(1.02023 0.0158244 0)
(0.440678 0.0113865 6.55047e-21)
(1.01099 0.00231839 0)
(1.03965 0.00584997 0)
(1.00802 -0.000552954 -2.06867e-22)
(1.01888 0.00444383 -7.4447e-22)
(1.01295 0.00113844 -3.73881e-22)
(1.02122 0.0172741 0)
(0.857498 0.0650965 0)
(1.0051 -0.000253526 -9.69649e-23)
(1.00505 -0.000241888 9.53491e-23)
(0.732424 0.0552489 3.78685e-21)
(1.01493 0.0094455 0)
(1.01085 0.00223784 0)
(1.07004 0.0578569 -1.34112e-20)
(1.01912 0.0477127 0)
(1.08172 0.0658613 -1.23631e-20)
(0.631229 0.140173 0)
(1.06845 0.063706 -2.10681e-21)
(0.77 0.0140122 0)
(0.519352 0.0231106 -3.73665e-21)
(1.02495 0.0138255 0)
(0.56914 0.0309246 -5.81289e-21)
(1.01997 0.0155168 1.73774e-23)
(1.06405 0.0984923 3.66119e-21)
(1.01262 -0.00930204 0)
(1.01053 0.00312131 3.31488e-22)
(1.0172 0.0191531 0)
(0.757813 0.0908256 -1.19778e-20)
(1.02534 0.0199601 0)
(1.01065 0.00313091 0)
(0.467498 0.0414567 1.49183e-21)
(1.04896 0.0168745 -4.49346e-21)
(1.03904 0.0375703 6.26528e-21)
(0.4032 0.0189133 3.29558e-21)
(0.966677 0.186629 -1.58964e-21)
(1.01431 -0.000868054 -3.25853e-22)
(1.00957 0.0588662 -4.91877e-22)
(0.95728 0.14841 -1.75973e-21)
(1.02649 0.018815 -2.39503e-21)
(1.02478 0.0367665 -6.14231e-22)
(1.00872 0.00250693 -1.80505e-22)
(1.01695 0.0224682 -5.63557e-22)
(0.991516 0.114313 1.69296e-21)
(1.00234 -4.95849e-05 0)
(1.00801 0.00180524 1.09777e-22)
(0.992995 -0.0232293 -9.87629e-22)
(1.00713 -0.000483606 -3.86067e-22)
(1.0839 0.108556 1.14789e-20)
(0.825433 0.033464 9.35052e-22)
(0.915176 0.180292 0)
(1.02097 0.0128288 -9.22998e-22)
(0.903958 0.188993 1.94136e-22)
(1.07281 0.0557078 0)
(1.00154 -4.30645e-05 0)
(1.01254 0.00294783 0)
(1.0086 0.00243702 2.5609e-22)
(1.00775 0.00154191 1.02954e-22)
(1.01947 0.012308 6.13134e-22)
(1.04105 0.0637606 3.31536e-21)
(0.857112 -0.157246 -5.9487e-22)
(1.03177 0.0189983 0)
(1.00156 -5.74883e-05 -8.9548e-23)
(1.03218 0.06735 0)
(1.0461 0.0272418 -2.29434e-21)
(1.01147 0.00962306 4.95325e-22)
(1.0105 0.00367576 0)
(1.01463 0.00959687 9.35859e-24)
(0.995699 -0.0280232 1.78679e-21)
(1.00768 0.00147321 -9.45209e-23)
(1.04626 0.027758 2.4197e-21)
(1.00747 0.00112181 2.46157e-22)
(1.02008 0.000514611 -2.78582e-22)
(1.08142 0.0652203 1.18716e-20)
(1.00128 1.48189e-05 0)
(1.01622 -0.00183753 -7.43822e-25)
(1.02109 0.00559034 0)
(1.04625 0.0611533 -5.49748e-21)
(1.0453 0.0602255 1.90196e-21)
(1.01068 -0.00161905 -2.40345e-23)
(1.00687 0.00137583 -9.17324e-23)
(1.02928 0.0701432 5.59249e-21)
(1.0028 0.000175314 1.22395e-22)
(0.411958 0.0205235 8.58227e-22)
(1.03861 0.0369539 -2.10341e-21)
(1.06187 0.0460905 8.90529e-22)
(1.00937 -0.000617757 -1.11582e-22)
(1.07672 0.0279701 -1.87686e-21)
(1.03301 0.0227175 -2.26461e-21)
(1.01259 0.00309016 0)
(1.01281 0.0601672 -5.20695e-21)
(1.02404 0.0237913 -4.8177e-22)
(1.02699 0.00564682 0)
(1.08174 0.0501925 1.02619e-20)
(1.01845 0.00217336 -5.36135e-23)
(1.00716 -0.000613031 0)
(1.01652 0.0110766 -2.91042e-22)
(1.0388 0.0531354 2.49862e-21)
(1.00701 -0.000539502 0)
(1.07646 0.0668349 5.76197e-21)
(1.05654 0.0117126 1.06997e-21)
(1.0304 0.0285249 5.8993e-23)
(1.02077 0.0162763 0)
(0.448415 0.0471348 -7.41458e-21)
(1.06244 0.045799 2.78008e-21)
(1.01 -0.000756906 -2.41328e-22)
(1.02124 0.0128642 -6.60906e-22)
(1.03804 0.031047 0)
(0.697213 0.00450575 6.39449e-21)
(1.01089 0.0030638 8.1438e-23)
(1.00001 -2.87212e-05 -1.04963e-22)
(1.03954 0.0173132 1.6946e-21)
(1.06774 0.0562165 4.21815e-21)
(1.03804 0.0306937 0)
(1.07769 0.0449439 0)
(1.08613 0.0820573 0)
(1.02555 0.0140395 4.30224e-21)
(1.08212 0.077893 0)
(0.736006 0.0663704 -8.92711e-21)
(0.57935 0.00489006 0)
(1.08796 0.054098 4.93898e-21)
(0.867729 -0.151843 0)
(1.00909 0.00961308 0)
(1.00906 0.00204509 1.07957e-22)
(0.968666 0.0426396 0)
(1.02681 0.0184362 8.708e-22)
(1.00369 -0.11242 -1.93725e-21)
(1.02875 0.0204202 -1.11266e-21)
(1.02769 0.059689 9.82494e-21)
(1.01556 0.0226508 0)
(1.01118 0.00246552 -6.04159e-24)
(1.00843 0.00210913 0)
(0.987803 0.00613498 3.06971e-22)
(0.99351 -0.116546 0)
(1.00239 0.000151784 2.21982e-22)
(1.02066 0.0164444 -6.54642e-22)
(1.02005 0.000445801 0)
(1.01055 -3.72612e-05 -3.82628e-22)
(1.01062 0.00136876 0)
(0.974622 -0.0212798 -2.22892e-21)
(1.00634 0.000409619 2.40484e-22)
(1.0077 -9.52333e-05 1.29875e-22)
(0.785405 0.0608275 0)
(1.00757 0.00140603 1.03798e-23)
(1.07181 0.0661889 0)
(1.01036 0.00977273 4.14855e-22)
(1.04419 0.0606173 0)
(1.06886 0.0479768 2.15424e-21)
(1.00196 6.42265e-05 1.2759e-22)
(1.00752 0.0014146 0)
(0.590479 0.033968 6.08128e-21)
(0.839301 0.05652 4.49366e-21)
(1.03072 0.0283731 0)
(1.04428 0.0516559 0)
(1.03846 0.0409277 -4.07159e-21)
(1.00837 0.00211362 0)
(1.0161 -0.00195423 0)
(1.03551 0.0550432 -3.71719e-21)
(0.988303 0.043213 4.10771e-21)
(1.0108 0.00293578 1.3894e-22)
(1.01761 0.0193293 0)
(1.06975 0.0608796 1.07705e-22)
(0.988337 0.0196105 4.48122e-22)
(1.01829 0.00212832 0)
(1.0719 0.0579246 0)
(1.0685 0.0642026 2.85012e-21)
(1.07136 0.0576835 0)
(1.01071 0.00144454 -1.94628e-22)
(1.03718 0.0437502 -2.00794e-21)
(1.08214 0.0541386 -6.1978e-21)
(0.399301 0.0286413 1.00186e-22)
(1.00039 -1.47895e-05 3.17164e-22)
(1.00129 -4.66263e-05 0)
(1.04063 0.0162517 0)
(1.00033 -9.95557e-06 3.11119e-22)
(1.01176 0.000727318 0)
(1.02678 0.00543173 0)
(1.08378 0.111182 -1.10171e-20)
(1.01561 -0.00212296 0)
(1.04824 0.0176873 0)
(0.977415 0.0906187 7.35202e-22)
(1.02989 0.0107538 6.5504e-22)
(0.54824 0.0311559 -5.80356e-21)
(1.00709 0.0013815 2.93497e-22)
(1.0287 0.0457715 0)
(1.0048 -9.92582e-05 0)
(0.547692 0.0279886 3.28538e-21)
(1.0149 0.050539 0)
(1.07065 0.0580706 0)
(1.01196 0.00114879 3.64046e-22)
(1.02119 0.044823 0)
(1.02792 0.0280169 0)
(1.00138 1.74464e-05 7.76759e-22)
(1.06482 0.0480698 -1.64565e-21)
(1.07904 0.0277718 7.45769e-21)
(1.0189 0.0828076 -3.50588e-22)
(1.00612 0.000550481 -1.24127e-22)
(1.00722 0.00141334 -1.06294e-22)
(1.07609 0.0679294 -6.81649e-21)
(1.04894 0.0178252 0)
(0.858765 -0.22803 -2.05512e-21)
(1.06291 0.0425325 -1.4154e-21)
(0.93175 0.182387 6.83839e-22)
(1.01126 -0.000804624 -2.56362e-22)
(1.06349 0.0438147 9.15452e-21)