/*--------------------------------*- C++ -*----------------------------------*\
| =========                 |                                                 |
| \\      /  F ield         | OpenFOAM: The Open Source CFD Toolbox           |
|  \\    /   O peration     | Version:  v2012                                 |
|   \\  /    A nd           | Website:  www.openfoam.com                      |
|    \\/     M anipulation  |                                                 |
\*---------------------------------------------------------------------------*/
FoamFile
{
    version     2.0;
    format      ascii;
    class       volScalarField;
    location    "300";
    object      ddt0(k);
}
// * * * * * * * * * * * * * * * * * * * * * * * * * * * * * * * * * * * * * //

dimensions      [0 2 -3 0 0 0 0];


internalField   nonuniform List<scalar> 
37809
(
8.80112e-09
-3.69303e-07
-1.25188e-08
0.000287703
-1.3555e-08
1.0862e-08
8.00366e-09
-0.000242251
1.21077e-08
-4.25836e-08
-4.95787e-07
-9.56517e-09
-2.37874e-08
3.506e-08
2.31684e-08
3.87535e-09
8.58495e-09
7.33798e-05
-7.9285e-09
3.56962e-09
4.15819e-09
0.000690002
0.000394614
-1.70499e-06
-1.39899e-05
1.22565e-08
-8.21163e-09
0.000474762
-2.77924e-08
2.59306e-09
4.72418e-08
8.76063e-05
-2.92414e-09
-1.28324e-05
-1.39899e-08
-2.79587e-09
-1.99768e-07
-0.00063163
4.18303e-05
1.34397e-08
9.98004e-09
-9.36833e-06
2.1052e-09
-5.23491e-08
1.2462e-09
-2.20439e-08
7.1722e-09
6.89077e-08
9.31951e-09
1.58661e-06
0.000416864
-0.0111569
2.49127e-07
-9.73983e-06
-9.53409e-09
2.57339e-08
-9.9104e-07
-5.6676e-09
-1.43996e-06
0.000456491
-2.17683e-08
-3.06764e-08
0.000235907
-5.19112e-08
1.88924e-07
2.39617e-08
-3.43417e-07
1.20543e-05
-8.90188e-08
-1.07997e-06
2.36804e-08
7.0864e-09
-0.0156749
1.77999e-07
1.1101e-08
0.00036251
1.4944e-06
6.20397e-10
3.27987e-09
-5.33199e-10
-4.64283e-08
5.97541e-05
-1.01504e-08
3.54213e-06
-8.11578e-06
-5.60512e-06
-6.89005e-08
0.000435122
-9.22913e-08
-2.19953e-07
1.26546e-08
0.000356332
-3.0371e-08
1.03446e-08
-2.92684e-08
-1.11683e-08
0.000745805
-9.9235e-09
3.37356e-09
-2.33811e-05
1.64935e-09
-1.05587e-06
1.00586e-08
1.19979e-07
-6.13861e-06
-3.47851e-08
0.000729773
1.36829e-08
-0.00106823
0.000167583
3.49689e-08
1.44185e-07
-0.000552129
1.11147e-08
0.000347685
-0.000608967
2.10918e-08
4.3838e-09
-2.36755e-05
-4.94725e-09
5.93081e-06
2.4134e-06
0.000438828
1.61819e-09
-2.88798e-08
0.000143636
-2.27314e-09
1.80233e-08
-4.04101e-09
-7.83762e-09
-1.03386e-08
2.26876e-08
-3.56139e-08
-2.75806e-08
-2.11274e-09
-4.43831e-09
-6.95125e-08
0.000323877
-5.23097e-05
-6.15087e-09
-1.15499e-08
-1.0491e-05
6.00637e-08
-5.24346e-09
-9.39391e-09
-1.55622e-09
-1.0368e-08
5.39795e-08
-5.81697e-09
-2.16768e-09
1.29736e-05
-5.17676e-09
-1.52953e-09
-1.30921e-06
-4.58616e-09
-5.4613e-08
-1.86537e-09
0.0102178
2.46573e-09
1.57842e-08
-3.51813e-09
0.000310941
7.25468e-05
3.34844e-09
-6.40912e-09
-5.15448e-08
-3.50871e-09
-0.000101724
1.88871e-08
0.000552715
1.14069e-08
1.74134e-06
-2.43333e-08
-4.32573e-09
2.86583e-08
-2.97021e-08
1.1934e-08
1.45969e-08
-3.84885e-07
-4.65224e-09
-8.0753e-08
-1.01834e-05
-2.12763e-08
-8.07539e-08
6.85214e-09
-8.01051e-09
0.000309114
-2.06231e-08
-5.05097e-05
-2.28361e-07
-0.000909792
-6.50058e-07
2.4766e-09
2.6815e-06
1.89492e-08
-1.02019e-08
-1.00532e-08
-1.28778e-06
-7.83411e-08
0.000369608
-0.0032013
-4.5255e-08
2.35557e-08
3.57091e-07
-2.55089e-08
2.27302e-08
1.55717e-08
0.000400667
1.81821e-09
-0.000322349
-0.000716504
2.79761e-06
-3.52796e-07
1.63569e-06
8.83121e-09
2.02565e-09
-2.33624e-05
-4.83751e-07
1.01786e-08
1.64909e-05
-2.25501e-07
2.72725e-08
-2.41488e-08
2.57471e-09
1.262e-08
-4.67344e-07
-4.77173e-09
0.000869662
-1.68889e-09
-3.43327e-05
2.03094e-09
2.93984e-08
6.25056e-09
2.27766e-08
2.11147e-07
2.76428e-07
0.000675557
2.91087e-09
2.70224e-08
-1.0989e-08
-6.03301e-07
1.78288e-08
-6.0068e-06
0.000741785
-3.12327e-08
-1.10233e-08
6.90378e-08
-6.19535e-06
0.000803958
-4.75992e-08
5.01891e-09
-5.09052e-09
-2.75869e-08
0.000277449
6.95093e-10
6.9566e-09
-5.01256e-08
1.48026e-09
4.0996e-08
-9.82235e-09
-1.5468e-09
1.03325e-08
2.99188e-08
3.28579e-08
-4.10158e-05
-1.4859e-08
0.00144779
2.79449e-06
6.89698e-10
5.40354e-08
2.9425e-08
1.30715e-08
3.74958e-09
-4.30127e-08
-9.64207e-08
-4.30116e-06
6.38069e-08
3.29339e-09
1.43981e-08
2.48906e-05
2.90945e-06
1.1185e-09
1.89575e-07
0.00387726
-3.88283e-06
1.99571e-09
0.000725225
-2.75004e-08
2.72986e-09
0.00012703
2.06932e-08
1.47055e-09
1.73547e-05
-7.19073e-05
-4.19369e-08
3.24582e-09
0.000913117
4.18922e-09
3.50806e-09
-2.33808e-07
-0.00164374
-2.17608e-08
2.95328e-09
-2.79384e-08
3.80967e-09
1.16574e-07
4.25156e-09
9.04224e-09
2.60618e-08
-5.6241e-07
3.29415e-07
-1.57717e-08
-1.04002e-08
3.35426e-06
-1.8758e-07
1.80428e-09
-2.13987e-06
-5.90417e-09
0.000956329
3.88706e-06
3.75645e-07
2.49115e-05
-0.000503696
-1.5569e-05
0.000720694
1.06547e-08
-4.51481e-08
0.00109493
-2.86297e-09
5.16895e-08
-2.25975e-07
-2.34743e-07
-0.000250489
9.22211e-09
6.23422e-10
-2.6667e-08
-6.11953e-09
1.95827e-06
0.000187833
-1.09973e-08
0.001432
1.65173e-09
-7.70132e-05
-3.68874e-07
3.40973e-08
-2.28532e-08
0.000746241
-0.000262018
-4.2501e-08
-6.03891e-09
-2.79969e-07
-5.95666e-08
9.44809e-09
4.2393e-05
-4.78425e-08
-1.26353e-08
2.08555e-09
8.20904e-05
1.81138e-05
-1.00925e-07
6.27275e-09
6.85904e-05
-2.66769e-08
5.39751e-09
4.70323e-08
-3.8445e-08
-6.11251e-08
-1.24871e-06
-7.54861e-08
-1.08185e-08
-8.59082e-07
-1.12419e-08
3.10796e-09
-1.91008e-09
-9.02508e-08
-6.58466e-08
-1.01057e-07
3.50573e-09
2.25822e-06
0.000281065
-8.41913e-09
1.87426e-09
0.00456309
5.51811e-08
-1.90518e-07
4.6288e-08
-1.74775e-09
-1.94982e-05
2.27605e-05
0.000134396
3.81814e-09
-9.78447e-07
-0.000295801
-1.5543e-07
-4.90503e-06
2.77486e-08
4.73876e-09
2.34239e-08
-7.75997e-05
6.59838e-09
1.70099e-08
2.68435e-09
4.80508e-08
0.000835955
-1.36752e-07
4.32526e-05
-5.72098e-05
4.66547e-09
-2.95824e-08
-9.46376e-06
4.06765e-09
-1.8281e-07
-7.12026e-08
5.18355e-07
-8.72625e-06
-3.13216e-09
6.42614e-09
4.69682e-08
-5.53057e-08
2.73519e-06
1.23945e-08
1.91348e-08
2.21062e-09
0.000196249
0.000728721
8.31507e-08
-7.93869e-09
1.06533e-08
-3.21232e-09
1.0313e-08
9.33361e-09
0.00011785
-3.77474e-06
-1.98291e-07
3.94927e-08
2.787e-07
5.55145e-07
-7.47905e-05
-4.10477e-08
4.15098e-05
-3.66798e-08
1.27883e-06
2.57829e-08
7.01361e-09
-6.33292e-09
9.59705e-09
-1.5284e-08
3.16929e-08
5.67565e-10
6.38081e-08
-6.87988e-09
-7.52124e-08
0.00164051
2.24287e-09
2.69464e-08
2.02584e-09
7.37813e-09
9.9108e-08
2.74349e-09
3.30111e-08
-3.31839e-07
-1.26257e-08
-1.32871e-06
4.82947e-08
-7.81337e-08
-7.01083e-05
-2.69253e-09
5.18802e-08
-8.07396e-08
-6.05742e-07
-6.32057e-07
1.66167e-10
-0.000205776
-6.08251e-07
0.000396512
-6.38562e-09
7.07085e-09
-0.000337705
1.58549e-05
2.49217e-08
-8.35037e-09
0.000697701
0.00085377
2.02358e-09
-1.1184e-06
1.34391e-08
-0.000106712
-7.59239e-08
2.38458e-09
-5.72474e-07
-4.93133e-09
2.05168e-09
0.000780871
0.0131237
4.13017e-09
1.28824e-08
-1.13735e-09
7.63141e-09
-1.52124e-05
-0.000868208
3.41228e-09
0.000573333
2.00712e-05
9.05162e-10
-1.15277e-08
2.60961e-09
-3.78378e-07
0.000640174
-0.00116767
0.011625
2.76694e-08
0.000428089
2.54522e-09
1.45853e-08
-1.68932e-06
2.41269e-09
-5.23308e-08
-2.54555e-05
0.00401104
3.79044e-07
-5.50717e-07
2.7189e-09
-2.15019e-07
0.00125996
-2.15701e-06
-4.38478e-09
-1.14334e-05
-2.88182e-07
2.60217e-09
-6.08767e-07
1.62862e-09
5.71174e-07
-6.92216e-09
-4.29108e-06
-5.06123e-09
-1.66231e-07
1.12075e-07
-8.74752e-05
2.33578e-09
-3.07838e-08
-7.97435e-10
-4.06884e-08
0.000683496
-8.89232e-05
0.0007444
2.25138e-06
1.85498e-07
3.77656e-08
-2.431e-06
-6.7715e-09
0.000696272
2.25908e-06
-2.50705e-09
-1.94708e-07
3.44047e-09
-7.50935e-08
-5.86593e-06
3.1088e-07
-4.76602e-07
-1.47444e-05
0.000898706
5.96645e-10
-7.10598e-09
0.000102297
1.2501e-08
-5.15352e-10
-1.67146e-09
-9.26067e-09
4.49775e-08
-0.000118936
0.00041986
0.00338885
0.000825855
5.92888e-09
1.47023e-08
0.00132685
2.73427e-09
-1.85749e-09
-1.29716e-07
0.00093099
6.73706e-09
4.99948e-09
3.45655e-08
1.71651e-08
-3.40397e-06
-9.09457e-05
6.01799e-09
-3.10945e-08
-1.21895e-07
1.03436e-07
-1.0882e-09
1.12197e-08
4.58655e-07
2.60019e-09
-0.00117114
3.24003e-06
-4.18499e-08
4.34429e-08
-7.06607e-09
-0.000498951
4.90261e-08
-4.37135e-07
-7.66869e-08
-3.0986e-10
-2.49682e-08
-5.90659e-06
-2.57066e-08
8.58991e-09
-8.24975e-09
-1.28171e-06
1.67642e-07
-4.92942e-08
4.51102e-09
-1.08765e-06
9.85191e-08
0.000710097
6.33851e-08
-2.06447e-05
1.32785e-08
0.000488563
3.50501e-06
0.00325323
-5.70787e-08
-2.28899e-07
-0.00010709
7.06423e-09
5.83955e-08
-4.66235e-06
-3.16767e-07
5.83088e-09
-2.83982e-08
-6.09222e-05
3.09552e-08
3.85279e-08
-0.000120686
0.00266546
-1.32326e-07
-2.02566e-07
-0.000122553
-5.1167e-09
-5.58322e-08
0.00088608
-5.54915e-08
2.72142e-06
3.89902e-09
1.04609e-08
6.17927e-10
3.35466e-07
-3.41604e-07
-4.4827e-07
3.37673e-06
1.77704e-06
-1.27637e-06
-2.63909e-09
4.07276e-06
-1.30951e-06
-1.25849e-07
-4.36063e-09
-2.35781e-09
-0.00122162
-7.5866e-09
6.4714e-08
1.75956e-08
8.79061e-09
5.35302e-09
9.36307e-09
-0.000351598
9.95966e-09
-1.89318e-09
1.13345e-09
9.55793e-08
-8.64657e-05
8.43471e-08
1.26859e-06
4.81092e-09
3.67904e-09
-1.41869e-06
-3.33312e-10
-1.89017e-09
-9.29551e-05
-3.864e-09
-6.83205e-05
2.19191e-07
-0.000145167
-4.34083e-06
-4.20851e-09
-1.23023e-09
-4.90675e-09
-1.32011e-07
0.00180638
0.000214423
2.58683e-09
-1.65444e-07
2.76593e-09
0.00020228
-3.87409e-09
6.27204e-09
-3.62051e-09
-0.00199164
9.18946e-07
4.68448e-09
-6.69678e-08
0.0123652
3.67185e-07
-1.17032e-08
0.000886427
1.04759e-08
2.87442e-06
-1.13792e-08
-1.47673e-09
1.7156e-08
-1.06231e-05
3.21849e-09
-7.67232e-08
2.4921e-09
0.00219622
-0.000809382
0.00377216
1.71813e-08
-1.92705e-08
2.24005e-08
1.01857e-08
2.80204e-09
2.73868e-06
7.61499e-09
1.72348e-09
2.11123e-09
-6.37596e-09
-1.37872e-05
-0.000128523
-2.11073e-07
-2.20034e-06
6.23979e-07
-1.66573e-10
1.70792e-08
1.67273e-09
2.35181e-07
-9.52893e-07
7.53203e-09
1.0685e-05
-2.23728e-08
0.000110765
7.16645e-09
-0.000157496
-4.21243e-06
2.67343e-09
4.9033e-09
-0.000120494
1.28404e-09
-4.61774e-08
0.000117592
2.91771e-08
-1.38126e-07
5.88134e-09
2.1678e-05
7.35134e-09
-3.55902e-08
-0.000789865
-5.04523e-06
2.66065e-06
1.33547e-09
2.27883e-09
4.78914e-09
1.22015e-09
-1.8297e-08
-1.54466e-09
1.10364e-07
6.3305e-09
0.00909761
0.00336469
0.0024665
-1.86905e-08
-3.86766e-08
5.97983e-05
-5.06032e-08
-4.84544e-09
1.0154e-08
2.79759e-09
-8.65961e-08
-1.63439e-07
0.000888346
2.58377e-09
2.65563e-09
0.000677238
1.89209e-08
-5.05866e-08
-1.82402e-07
-5.88482e-07
-6.28395e-07
0.0118405
6.86457e-07
-0.000932814
0.000165049
6.79585e-09
0.000375746
-3.92411e-08
2.76936e-06
-2.27789e-06
1.46866e-09
-2.3127e-07
0.00419864
3.86492e-08
1.90392e-09
-6.34851e-05
2.37002e-09
-5.32584e-08
-2.24652e-05
0.00367075
-2.34915e-08
-6.2925e-05
-0.0032274
2.35345e-08
3.46591e-06
1.07702e-08
-3.30574e-07
0.000317008
1.12699e-08
-9.96806e-10
-6.54631e-06
1.0251e-08
5.40537e-06
0.000125271
0.00811815
-1.34115e-08
0.00712804
-3.69353e-07
1.37651e-08
1.70287e-09
1.04019e-08
-1.04679e-10
-1.98349e-08
-3.82072e-07
0.000252172
1.57517e-08
6.74217e-09
-1.05348e-06
-1.56074e-09
-3.88664e-07
1.1542e-09
3.77459e-08
-7.15509e-06
5.45269e-11
-2.03605e-09
-5.74773e-09
-2.08198e-09
-6.54796e-07
1.2074e-08
-5.22423e-08
6.52916e-09
-8.82826e-08
-1.35779e-07
1.08496e-08
-4.58943e-09
-1.38194e-06
2.95786e-09
-1.22356e-05
-4.98355e-08
-3.92781e-08
8.74806e-09
-3.89549e-08
1.98859e-08
1.66202e-09
0.00147623
2.62748e-07
-1.87606e-09
2.10423e-06
2.70451e-09
3.25885e-09
-7.49882e-09
-1.86855e-07
2.82859e-09
-8.43747e-07
-0.00153711
4.11266e-08
-2.20148e-07
-0.00024371
-4.16234e-08
2.06459e-08
-1.24438e-08
-5.9125e-09
5.91907e-05
3.57966e-08
7.26869e-09
7.89156e-09
-1.03037e-07
-5.65204e-09
-1.35861e-07
2.33523e-05
8.58018e-09
1.92316e-06
0.00019717
-0.00011058
-1.71779e-07
0.000721269
-6.8171e-07
-1.77157e-09
-3.85943e-06
2.07486e-08
-0.00263182
3.18203e-08
0.00145443
-4.14892e-07
-4.45177e-08
-2.25462e-09
3.67298e-05
-0.00210001
4.80733e-09
-3.56813e-08
-2.20349e-09
-2.12694e-08
-2.43726e-08
0.0017635
-2.16218e-09
7.4163e-09
0.000703797
3.24232e-10
-1.08703e-06
-4.85857e-07
-1.76883e-07
-1.03862e-07
3.72487e-09
4.20203e-10
0.000433039
0.00110654
3.45167e-08
-1.00169e-07
-8.60015e-08
-2.07308e-09
6.9946e-08
-2.71072e-07
-4.90376e-05
3.58372e-08
-2.06103e-07
2.01793e-05
-4.74379e-06
2.52991e-09
-8.74353e-07
7.90173e-07
-3.54181e-07
-2.85664e-08
-1.26608e-07
-2.78626e-07
-7.465e-05
1.31979e-08
1.2984e-08
6.72421e-09
9.00721e-09
3.69707e-07
-1.57741e-09
4.56486e-06
7.32465e-08
3.00424e-09
-8.64697e-05
8.21255e-09
0.000397354
-7.06421e-09
0.000831104
-1.66218e-09
0.00036353
-0.0010629
-1.36083e-06
3.4723e-07
0.000230782
8.2627e-08
2.06927e-08
-5.80884e-08
-3.93377e-08
-2.47704e-06
5.62794e-09
-7.59046e-09
-8.67478e-07
2.52914e-09
-0.00312059
-4.31924e-08
0.00376495
1.88797e-08
-4.81134e-08
1.04218e-08
-4.95818e-09
2.44694e-06
-2.99537e-08
-1.38836e-07
-1.34315e-09
-1.15436e-05
0.0121903
-7.00367e-07
0.000172414
-4.50141e-06
-5.15873e-09
0.000258063
0.00096609
-0.000158471
-4.67279e-08
5.04668e-05
-0.000360996
0.000104118
1.62254e-09
8.17222e-09
-2.3605e-09
1.72001e-09
2.58325e-09
-0.000179362
0.000360613
8.40624e-09
-2.6494e-07
-3.13542e-08
1.3084e-08
-3.67703e-09
-1.17522e-05
-3.81822e-07
-5.42796e-09
-3.59023e-08
-6.30227e-05
4.7411e-09
0.00700539
1.19205e-06
-3.64655e-05
4.31902e-09
6.03018e-05
-1.45633e-06
-0.01218
2.97672e-09
-0.000181214
-3.64005e-08
2.15232e-05
-6.51995e-08
2.8259e-09
1.04663e-08
0.000358116
-1.97204e-09
-1.61912e-09
-7.01623e-07
-2.70231e-08
1.81059e-09
9.40479e-10
2.78555e-08
4.53014e-09
-5.94224e-09
1.70736e-08
-4.57087e-07
-7.75818e-07
2.94244e-06
1.80739e-06
5.47983e-09
-5.05577e-07
0.00107345
6.57117e-07
0.000771301
9.12411e-09
3.27334e-09
-3.04088e-08
0.000523047
2.50948e-09
7.56786e-09
-3.0914e-08
-1.27367e-06
-5.5527e-06
-2.49518e-08
-8.21007e-08
-1.29881e-07
0.0121952
3.47198e-09
-3.12374e-09
-0.000778568
-2.30164e-09
0.000111882
6.27411e-07
-5.57053e-08
-8.91846e-09
-6.2386e-09
1.45824e-06
3.66959e-06
-9.86349e-09
-1.44294e-08
4.2428e-09
0.000195209
-2.89916e-07
-0.000120872
0.0117531
1.31372e-08
-0.00272753
-7.10366e-09
-1.34505e-08
2.16239e-08
-3.50535e-08
9.50852e-10
-0.000391338
6.32996e-09
-0.000777123
-2.27135e-08
8.92707e-09
5.81999e-09
8.55734e-07
1.64213e-05
3.49371e-09
7.19562e-06
7.83162e-09
-1.00267e-07
0.000692751
0.000232065
1.21875e-08
5.9826e-06
4.70207e-09
-2.48893e-08
-6.01049e-09
6.51146e-09
-2.25656e-08
4.18972e-08
0.000209779
1.3435e-08
-0.0028925
-9.29296e-08
-1.24239e-08
-2.635e-06
-4.38363e-08
2.35349e-07
1.03535e-07
1.68669e-09
5.20019e-08
8.30326e-09
-3.058e-08
1.9613e-07
2.05011e-06
3.3445e-05
4.25847e-08
-9.63097e-09
7.28872e-06
-1.70292e-08
-7.51912e-05
-2.13405e-07
6.85759e-09
2.87476e-09
1.44771e-08
-2.48958e-07
-0.000211389
1.46603e-06
-4.5124e-07
0.00347689
-1.79668e-05
-3.58154e-06
-5.55336e-09
0.000204638
7.45298e-05
-2.04794e-10
2.95737e-09
3.68071e-09
-1.49582e-09
-2.55121e-09
6.77347e-09
-8.05226e-07
-2.78116e-06
-9.73965e-06
-0.00116828
2.26208e-06
-3.50576e-07
2.86191e-07
-3.19871e-07
-8.44675e-09
5.22572e-10
-7.84577e-08
3.36077e-09
-2.95366e-09
3.02982e-07
-1.4974e-07
2.44609e-09
1.06688e-09
1.34384e-08
5.74615e-08
-8.07776e-09
-4.44706e-09
7.10041e-09
7.63983e-08
2.32671e-09
2.26087e-07
6.13957e-07
9.93699e-10
-4.78722e-08
-2.83615e-08
-8.53469e-10
-2.80319e-09
-2.55352e-08
-1.10951e-08
-1.62953e-09
0.000246736
7.10326e-09
-0.00119464
-2.4586e-06
5.47547e-09
-3.7588e-10
7.00015e-09
-7.10207e-09
0.00108559
-6.57336e-05
0.000388526
4.9266e-09
-8.21782e-08
-6.83982e-09
6.25503e-09
8.13765e-06
8.63066e-07
-2.24977e-09
-9.96719e-09
1.63566e-08
2.22543e-05
1.95398e-08
2.9812e-08
6.96443e-10
-9.58198e-08
3.03459e-08
9.14443e-10
-7.57972e-08
-3.09133e-09
-1.06039e-08
1.64089e-08
-2.16232e-09
8.99757e-09
1.72764e-09
-2.28495e-08
2.82385e-09
0.00152121
1.88899e-06
3.44383e-08
7.15167e-09
-5.22118e-06
-6.18244e-07
1.50032e-06
7.90731e-10
-9.13994e-09
-0.000558235
-3.65904e-09
-1.68139e-08
3.55638e-09
-5.98555e-09
0.000616371
-8.29372e-08
3.74291e-09
-2.18737e-09
-2.39697e-08
-1.88977e-08
-1.77637e-08
8.27526e-07
-1.22865e-08
-7.85874e-05
0.000260364
2.3269e-10
-3.55527e-08
1.13314e-07
0.000447942
-0.00035764
2.77606e-08
1.28836e-08
-1.38935e-07
-2.67562e-07
-2.95101e-07
3.13141e-09
-1.67426e-06
5.90052e-09
0.0002745
-2.44644e-09
2.40504e-09
-5.78152e-09
6.4472e-09
-3.49875e-09
5.67949e-09
2.77961e-09
-0.000191477
-4.42163e-09
-2.23235e-08
-2.92773e-09
1.00865e-08
-2.91943e-08
1.94882e-08
0.000235714
-7.54918e-09
8.50744e-09
-0.000193222
-7.75352e-07
-1.24909e-07
3.39145e-06
2.40582e-06
5.95384e-08
1.05658e-08
-1.93464e-07
1.85778e-06
3.27158e-07
-8.08572e-07
6.43766e-06
4.2081e-09
0.000379122
-2.28767e-08
3.39122e-09
3.73974e-08
-4.65918e-07
0.000129233
-1.88446e-05
1.75002e-08
-5.14628e-07
-2.70854e-08
2.37055e-09
-4.81604e-07
1.81706e-06
-1.49383e-09
-4.28018e-08
9.8834e-09
1.868e-08
7.88633e-09
1.3638e-08
-1.87608e-07
8.31378e-09
1.41146e-08
-0.00324324
-0.00292316
1.46592e-08
2.65703e-07
3.50916e-09
-2.96634e-09
1.92287e-09
-1.33657e-08
2.86034e-08
-3.34606e-07
-1.25728e-06
-5.6163e-09
-1.32187e-08
0.00147187
-2.63946e-09
-0.000376282
-2.09692e-09
-1.8721e-08
9.49359e-08
4.42867e-07
-9.71805e-09
-8.6067e-06
2.99181e-08
-3.60286e-09
-2.91951e-09
-1.22974e-08
7.44236e-08
1.13177e-07
-2.49551e-09
7.99389e-06
-4.22875e-08
0.00019626
6.37714e-09
-3.82096e-07
-1.52581e-06
-8.18747e-06
-2.96268e-09
-3.26828e-07
0.000523275
-4.57564e-08
5.07016e-08
-2.39023e-09
-7.00478e-07
-6.65285e-09
-1.99182e-06
-1.31719e-06
-3.70178e-09
-3.34285e-08
-4.82321e-07
2.42828e-08
5.24601e-09
-3.08385e-08
-1.5372e-08
0.00093282
-0.00105453
-0.000190879
-8.13743e-07
0.000402559
4.42623e-09
1.56125e-07
-3.16772e-07
7.69766e-09
-6.00783e-09
3.55756e-07
2.54646e-05
1.26968e-08
-9.57069e-08
8.13912e-09
7.28036e-09
-4.05784e-10
3.8032e-06
1.15633e-08
-5.16937e-07
3.7609e-06
7.76988e-09
-3.24302e-08
-2.50161e-09
-1.21121e-07
-5.39886e-06
2.71206e-08
-3.55532e-08
5.27587e-09
8.95564e-05
-3.27172e-09
1.97951e-06
-2.10275e-08
-1.05668e-07
-2.57244e-07
-0.000683051
-1.03227e-08
-1.13273e-07
-5.57495e-09
1.21063e-08
5.28701e-09
-6.65747e-07
-8.58243e-08
1.63599e-05
0.00108014
1.05348e-08
8.44324e-11
-3.52127e-07
-1.18201e-06
1.52689e-09
-7.04764e-07
-6.53959e-09
-3.13669e-08
1.46281e-07
6.11255e-09
-8.29946e-07
2.89329e-09
-9.5436e-08
-3.13839e-08
0.000292937
-5.82265e-08
-1.0089e-07
1.00889e-06
-2.23663e-08
9.83115e-08
-4.68003e-06
6.79914e-09
9.89863e-09
-4.56004e-06
6.29848e-09
4.39909e-07
-3.07707e-07
2.15216e-08
0.000708417
0.000433504
5.90789e-05
0.000225753
7.11744e-07
5.16831e-08
0.0015131
-3.33029e-05
-1.77957e-09
-3.96767e-08
-2.26281e-09
0.000658543
0.000493084
-0.000282742
-0.000600238
-3.46455e-09
-1.77295e-08
8.33375e-09
-9.8813e-09
-1.75743e-07
4.26604e-07
-0.000263086
5.39369e-06
7.90841e-09
-2.41958e-08
-3.81708e-08
9.15979e-05
1.34715e-08
4.3529e-08
4.94327e-09
5.35179e-09
1.65262e-08
1.18128e-08
1.34572e-08
-1.30658e-06
3.0062e-08
-3.05382e-08
7.13936e-09
2.77422e-09
-3.11916e-08
6.25992e-09
-9.03593e-07
1.39876e-08
-1.03584e-08
0.000981049
5.07569e-08
-5.97865e-10
4.60479e-10
-7.90807e-08
0.00233733
-0.0122071
-9.56416e-10
-2.71387e-05
-1.8792e-09
8.23938e-07
2.11256e-09
1.07107e-08
7.21163e-09
1.51158e-09
1.78541e-09
-3.82255e-09
-1.07562e-06
0.000333877
0.000222619
-1.6169e-06
1.90095e-06
-8.81428e-09
-1.81092e-05
-1.0914e-08
1.0817e-09
6.84956e-08
-0.000670614
-5.97988e-07
1.40906e-08
-2.72073e-08
6.69528e-05
-4.58013e-07
5.85211e-09
-0.000108801
-9.46811e-09
5.61966e-09
1.17403e-08
4.75946e-09
-7.98158e-10
6.06494e-07
-1.15285e-07
-1.03704e-05
1.32814e-06
7.85702e-07
1.13515e-09
8.35092e-08
3.71154e-07
1.05256e-10
-3.91743e-09
0.000641621
9.30455e-09
1.27554e-08
-4.90853e-09
3.80522e-05
-6.59214e-07
-5.02919e-08
-3.25736e-09
-3.7534e-07
2.65141e-08
-1.14361e-09
-3.82263e-06
9.89603e-09
-0.0018196
-3.72591e-07
3.82893e-09
3.49498e-06
-7.72484e-07
-1.66763e-07
4.26091e-09
-0.00100825
-4.19624e-09
0.000149867
-2.96645e-07
1.35332e-08
0.000751996
4.30806e-08
-8.133e-08
-3.53778e-05
-3.8055e-08
4.22484e-08
-6.8374e-08
-5.26099e-07
6.46467e-09
4.73268e-05
1.88846e-08
-2.50854e-05
-2.64159e-08
-1.25599e-08
-2.34188e-08
-4.73014e-09
1.14884e-07
-6.8698e-08
-9.57138e-07
-2.03399e-08
-3.43465e-08
1.16895e-07
-7.03636e-08
-3.55241e-06
1.06324e-05
-4.12929e-08
0.00119976
-1.67303e-08
-0.00101987
1.98882e-07
-1.97334e-08
1.33186e-08
5.73596e-09
1.44045e-06
8.87624e-09
-2.13553e-08
-1.106e-06
7.75824e-08
-1.28228e-06
-2.0905e-08
1.42469e-08
-1.24098e-05
0.000441142
0.000754355
-2.56783e-07
-0.00118374
-3.21392e-08
-9.55432e-07
5.64829e-05
-2.88318e-08
0.000459967
-3.05751e-08
1.00364e-09
0.000384061
2.52819e-09
1.41899e-08
-0.000124026
2.85525e-09
5.95471e-09
-2.03537e-06
-0.00042741
7.27628e-10
9.12378e-08
3.51396e-06
2.46401e-08
-1.17268e-07
1.99582e-08
3.84532e-06
8.62214e-05
1.55366e-07
1.78829e-08
1.12793e-08
3.4071e-08
4.40026e-09
4.22314e-09
0.000366395
-8.62589e-06
-4.14711e-08
-3.73244e-08
-4.21746e-09
-1.43916e-08
-6.1743e-08
-4.05856e-09
0.00128485
3.87859e-07
9.95326e-09
-2.03363e-07
-3.09484e-09
-5.67818e-06
-0.000619806
-3.94572e-05
4.15414e-08
1.89271e-08
7.13152e-07
-2.34975e-05
0.00357628
0.00043393
0.000368016
-1.79469e-06
1.6154e-08
1.96813e-07
7.72142e-09
-6.67353e-07
4.50265e-10
-5.56291e-07
-3.86308e-07
0.00169951
7.72463e-10
9.37007e-09
1.04697e-08
-0.000103693
1.2745e-09
-0.00638328
-2.61195e-07
3.87401e-09
-1.41626e-06
-1.80938e-08
-4.85623e-06
-1.50365e-07
-5.43043e-09
5.66295e-09
-9.66749e-08
-3.40135e-07
-4.11705e-06
-5.76481e-07
8.49483e-08
-7.04687e-08
8.83927e-10
-5.68079e-09
-1.52531e-07
0.000494158
-0.000104939
2.59919e-09
2.40135e-06
-4.85434e-08
-2.60384e-09
-7.95566e-07
-9.02452e-09
-4.36009e-08
-2.84935e-08
-4.6265e-09
8.02628e-09
-5.68427e-08
-5.32258e-07
-0.00184735
-9.3286e-08
-1.20668e-06
-1.67527e-10
-1.93548e-08
-4.89972e-09
-3.88147e-09
9.24622e-09
5.61624e-08
4.29815e-08
-2.12678e-05
3.28656e-09
7.71654e-09
4.67637e-08
-4.78388e-07
-1.25496e-11
6.08151e-08
-0.000297295
-4.85939e-07
1.21408e-08
7.89274e-09
-6.96049e-08
-5.79893e-10
-3.52104e-08
2.3789e-08
-2.80641e-07
9.18083e-09
-9.18048e-10
-1.86932e-07
1.35745e-08
-1.89546e-07
4.02503e-05
-1.99124e-09
4.03798e-09
3.98925e-07
1.27645e-08
-9.84323e-12
1.39758e-08
-3.02114e-06
1.366e-08
1.12044e-08
0.000417762
-3.43205e-09
1.21648e-09
0.000151853
-3.17125e-08
-2.1163e-06
4.20613e-09
9.14657e-09
7.43565e-05
-1.4645e-08
-8.02175e-05
0.000272415
0.000154365
1.00787e-08
-1.1658e-06
-8.3622e-09
3.19085e-07
-7.49311e-09
4.79887e-07
-1.04285e-08
-2.2604e-06
-0.000170552
7.87675e-05
-1.18915e-07
-4.39539e-09
1.73756e-09
-2.39781e-09
7.22148e-08
-5.14701e-08
2.97633e-09
6.10637e-05
-1.54773e-07
-0.000982994
4.82568e-08
-6.47983e-09
0.0083152
-6.74479e-08
-1.01815e-07
-3.6645e-08
-3.17682e-05
1.03093e-09
-1.72705e-10
-0.000468887
-5.36283e-09
-3.7638e-09
3.52489e-09
1.24745e-08
-1.67232e-08
-7.05129e-05
0.000588548
-2.1385e-08
1.77064e-07
-3.50944e-09
1.02178e-05
-9.13384e-09
-0.000202745
1.0122e-08
-2.23298e-06
-5.93746e-07
1.2797e-08
3.01239e-08
-0.00548172
-5.66113e-06
-2.17268e-08
-5.15914e-07
1.56235e-08
1.39033e-07
0.000448092
-1.41046e-07
-3.5572e-07
-3.91321e-08
-3.95535e-06
-2.0573e-08
3.25957e-06
-1.17479e-06
2.56173e-09
-3.68883e-06
6.21144e-09
3.44905e-09
4.06858e-08
-1.79098e-06
-0.000563021
-2.24223e-09
-8.30287e-09
-6.34873e-11
2.83099e-06
-5.99142e-09
-1.47853e-07
5.09201e-10
9.25363e-08
-1.69644e-08
-2.22338e-07
1.01252e-07
-1.38809e-05
3.80378e-09
8.32741e-10
1.11178e-06
3.45157e-08
-1.7866e-08
-3.06942e-09
-2.36716e-07
5.3812e-09
-9.84524e-10
-1.81605e-09
-1.03229e-08
0.000114674
7.70664e-09
-6.33076e-06
-1.67177e-07
-1.90201e-10
-4.27416e-09
1.55911e-08
-6.44636e-09
0.0029989
-5.15487e-07
-9.09541e-07
-1.02492e-06
-5.73495e-08
8.3909e-09
9.19076e-09
-9.64156e-09
3.40168e-10
0.00123592
0.000632216
0.000192302
-0.00302236
-1.81826e-09
0.00014855
0.000329211
8.32705e-09
3.93505e-08
-2.37292e-05
-8.02379e-06
-0.00085247
0.000151031
-4.84677e-10
-1.4187e-09
1.29076e-07
3.07455e-06
0.000898111
1.15333e-06
-0.00089661
-8.85703e-09
-5.76741e-06
7.74145e-09
-3.63737e-09
1.69582e-08
-2.34998e-07
-8.49948e-09
4.89665e-06
4.10716e-07
-1.36345e-07
-3.67899e-08
-2.18413e-09
4.09958e-06
-0.000521727
-2.65551e-06
-0.000673492
1.32989e-07
8.38887e-09
1.22104e-08
1.26043e-08
-1.25951e-07
-5.11173e-06
-2.10451e-09
-2.26516e-06
-4.71273e-10
-1.59424e-07
7.13288e-06
3.03188e-07
2.18579e-08
-1.92277e-08
-4.61868e-06
1.0935e-08
-8.20612e-05
-5.91801e-08
-1.11122e-08
-2.20497e-08
2.09292e-09
-8.8296e-05
3.6345e-08
-0.000179162
5.11949e-09
4.6324e-09
8.47214e-09
-0.0129041
2.47551e-08
-0.000467767
5.96019e-08
4.44239e-09
-2.19693e-07
3.33999e-08
-2.04651e-09
-4.01689e-10
-2.07789e-08
3.83226e-08
0.000135913
2.27274e-07
-1.92652e-10
8.11778e-09
4.50852e-08
8.07057e-09
-3.83436e-09
3.84013e-08
-2.86953e-07
-1.18927e-08
-1.54977e-08
-5.20022e-08
2.79516e-10
6.15118e-09
2.47904e-08
2.5727e-08
-3.29578e-08
-5.69425e-08
6.99348e-09
-2.4799e-08
6.87366e-06
-3.00383e-09
-3.14103e-08
-8.00531e-07
-0.000381986
-1.76178e-07
1.02551e-08
-2.73938e-07
7.74703e-08
3.28029e-09
7.81563e-09
-9.36732e-06
5.95965e-08
1.067e-07
-3.32351e-08
-9.03216e-08
1.59478e-08
1.49749e-07
-3.11237e-09
-2.86448e-07
-2.49531e-09
-9.04425e-08
-0.00104089
1.55114e-08
2.96084e-06
1.40874e-09
-1.02481e-08
-3.25265e-08
-1.22398e-09
2.87914e-08
-0.00016878
0.000136301
0.000508015
8.23554e-09
-7.17785e-08
-5.75581e-09
0.000185262
-4.3191e-07
-4.66995e-08
-6.43383e-07
1.01492e-09
1.05433e-08
-1.90055e-07
1.55156e-08
-4.75283e-09
2.9174e-08
1.65154e-07
-3.63869e-06
1.12774e-08
-3.67853e-09
0.00432709
-2.64716e-09
1.05699e-08
-2.44334e-07
-3.37513e-08
4.04816e-06
4.32332e-06
3.14337e-05
-2.72104e-08
1.08283e-09
-8.00004e-10
-9.16676e-10
1.2527e-07
5.59823e-09
1.23311e-08
1.34768e-08
-4.82242e-09
-1.57122e-07
-1.50667e-06
1.46914e-09
-1.65019e-09
-1.28069e-07
-7.71837e-07
-6.87963e-09
0.000722738
1.26514e-08
1.4349e-09
-2.19573e-09
7.54568e-10
7.82906e-09
4.5974e-09
1.1958e-07
1.96971e-05
3.75292e-08
-7.07372e-09
-1.0297e-07
-2.36812e-07
-1.49448e-07
-4.1609e-07
1.42543e-08
8.31215e-09
-2.22318e-08
-5.87999e-10
-2.17378e-07
-2.31143e-09
4.65089e-09
-1.30882e-09
-1.69844e-06
-3.5952e-08
-4.99909e-09
-5.35749e-10
2.43231e-07
4.31613e-07
3.16645e-06
4.99771e-08
-3.54079e-06
-6.25324e-08
-1.26485e-08
-7.06896e-09
-3.35649e-10
-2.89035e-10
8.25276e-08
-1.76732e-05
8.52983e-09
-5.90812e-09
-0.0129233
-1.73526e-07
-6.22556e-09
4.59127e-08
0.000429748
-1.1642e-07
-1.12681e-09
-2.11215e-07
1.29698e-08
0.000290289
1.01813e-05
1.15606e-07
9.80267e-05
-5.38759e-09
-2.02546e-08
-3.94404e-08
8.23175e-08
-5.23221e-07
-3.66134e-10
4.75022e-08
0.000582821
1.14771e-07
-2.55533e-09
-0.00173621
7.62904e-09
1.1187e-08
-3.42581e-08
-2.7274e-07
-1.06707e-07
-7.34647e-06
7.49594e-07
-2.29375e-07
2.85981e-06
3.34158e-05
-7.53596e-07
-0.000751783
3.59778e-09
3.20426e-08
-6.52014e-09
-1.21979e-09
-4.62669e-08
0.000298748
1.45791e-08
-1.29034e-06
-1.26726e-05
0.00149126
0.00141516
-1.81628e-08
5.35176e-08
-2.57035e-09
-6.63976e-07
-5.12232e-09
-0.00926541
1.78389e-08
-2.29772e-08
0.000143465
1.86445e-09
-9.08407e-07
1.46756e-05
1.15801e-06
-2.56851e-09
0.00151153
1.77158e-07
-7.17315e-09
-2.29268e-08
0.000145409
-1.1762e-09
3.06922e-09
-2.04296e-05
-6.3369e-08
3.25897e-08
0.000281385
1.04207e-08
-6.43549e-05
6.40644e-07
1.01471e-08
1.9284e-06
-2.40584e-09
-1.3474e-09
5.02341e-08
5.56467e-09
-2.72789e-05
5.34111e-06
5.9445e-09
1.14258e-08
1.44174e-09
-0.000862544
-2.94338e-08
-4.62543e-09
-0.000734295
2.61453e-09
-2.18771e-08
0.000141097
6.80416e-08
-1.1582e-07
-2.20553e-09
-5.90855e-05
-3.76073e-05
-4.08791e-07
4.89697e-10
1.05295e-06
-4.88719e-08
9.40484e-07
1.27811e-05
3.43576e-05
-3.35292e-07
-2.77088e-08
-3.08801e-08
9.42093e-08
3.71048e-08
-0.000933848
-1.4665e-09
-3.97172e-07
0.000476232
-4.32318e-07
1.40012e-06
-8.27193e-09
0.00014228
4.1067e-09
1.18293e-07
2.24048e-06
1.72697e-07
-3.42989e-08
1.35172e-08
1.56633e-05
-1.61481e-09
0.00209215
-8.3352e-09
-2.41933e-09
-2.31339e-08
-2.34114e-09
1.15748e-07
7.29848e-09
0.000170525
-5.86649e-08
0.00369059
-5.42237e-09
-1.57394e-10
5.70271e-08
-6.81568e-09
-0.000838673
3.40797e-08
-1.52969e-09
0.00330564
5.48901e-07
-0.000417808
-2.5012e-09
-0.000158288
-0.00136512
0.00171503
3.79622e-09
-3.8085e-09
1.43922e-05
5.69049e-06
-1.43778e-09
2.35607e-09
0.0041231
-5.97571e-09
1.2492e-08
-2.69834e-07
-3.08064e-08
-9.41838e-09
-5.47769e-09
-0.00477207
-2.56975e-08
4.89819e-08
4.34142e-09
-1.63147e-09
-0.00238636
8.39413e-09
3.73753e-08
3.44729e-08
-2.66355e-08
-2.0495e-09
-1.11098e-08
1.04502e-08
4.08159e-09
2.82307e-09
-7.51194e-07
2.99118e-06
-0.0016686
3.14305e-09
-2.23665e-09
1.55746e-09
-9.17254e-08
2.71424e-06
-1.7915e-07
-9.79221e-07
6.99018e-09
-2.93796e-08
-7.35114e-06
-1.08614e-08
2.71443e-09
-6.48761e-09
3.93423e-11
4.81091e-09
0.000213024
2.54738e-08
-1.35079e-06
4.52657e-09
4.15395e-07
0.000564463
-9.44689e-08
-1.47369e-07
9.88626e-07
-1.71674e-09
-8.55259e-07
1.15648e-07
-2.11339e-07
0.00149009
-5.33487e-07
1.37706e-08
-7.75869e-08
0.000197235
-3.16759e-06
-4.45882e-06
-4.29083e-08
0.00101399
-6.94852e-08
-5.52034e-10
-6.84172e-10
0.00175514
0.00512591
-8.50072e-08
-0.000379745
8.2467e-09
-7.43595e-07
0.000408824
0.000513114
0.00135408
-5.09813e-09
0.00023263
2.97023e-06
6.93445e-09
-2.07713e-07
-1.11084e-07
8.20819e-08
2.20583e-09
-5.7924e-09
-4.40807e-07
-3.46657e-09
2.48875e-08
-6.94014e-07
0.000600934
-9.88053e-09
-2.2085e-07
-4.51558e-09
-9.19583e-07
7.47274e-06
3.93231e-09
6.98257e-06
1.47671e-07
0.00242925
-6.48268e-08
1.42732e-09
-0.00397023
2.72525e-09
0.000647446
-2.35848e-07
3.76985e-08
1.08537e-09
-1.35729e-06
-4.60286e-09
-1.07153e-05
1.47729e-09
0.000322848
4.56314e-09
-1.87705e-08
-3.00845e-06
9.57785e-07
7.46425e-09
2.68865e-09
-0.000444282
3.58163e-07
1.89031e-05
8.73863e-09
6.68984e-05
2.39903e-09
-2.58118e-08
-3.15449e-09
1.56023e-09
-9.71418e-08
0.00239128
-2.16886e-06
1.02664e-05
6.49506e-09
5.23032e-08
1.35336e-08
-1.2992e-06
-1.53539e-07