/*--------------------------------*- C++ -*----------------------------------*\
| =========                 |                                                 |
| \\      /  F ield         | OpenFOAM: The Open Source CFD Toolbox           |
|  \\    /   O peration     | Version:  v2012                                 |
|   \\  /    A nd           | Website:  www.openfoam.com                      |
|    \\/     M anipulation  |                                                 |
\*---------------------------------------------------------------------------*/
FoamFile
{
    version     2.0;
    format      ascii;
    class       volScalarField;
    location    "300";
    object      k;
}
// * * * * * * * * * * * * * * * * * * * * * * * * * * * * * * * * * * * * * //

dimensions      [0 2 -2 0 0 0 0];


internalField   nonuniform List<scalar> 
37809
(
0.000135139
0.000189302
0.000158012
0.00184409
0.000140923
0.000147315
0.000142255
0.0292195
0.000150258
0.000167876
0.000158811
0.000159655
0.000144921
0.000156019
0.000151777
0.000153463
0.000148734
0.0369986
0.00015962
0.000145676
0.000153462
0.0293952
0.00399243
0.000151878
0.0309674
0.000158931
0.000158719
0.027268
0.000165633
0.000133069
0.000155609
0.0384241
0.000143366
0.000235009
0.000159573
0.000143394
0.000192188
0.00308143
0.000331878
0.000138658
0.00013043
0.000205818
0.000153577
0.000169116
0.000143396
0.000160784
0.000151605
0.000154764
0.000153505
0.000192933
0.0251283
0.0159841
0.00024758
0.000221252
0.000159171
0.000141812
0.000201444
0.000157498
0.000210012
0.0285365
0.000160758
0.000165786
0.00155426
0.000169093
0.000152479
0.000151794
0.000188545
0.0211275
0.000167615
0.000184824
0.000141838
0.000151609
0.0131887
0.000205167
0.000142668
0.000507347
0.00019238
0.000133008
0.000152962
0.000153668
0.00016966
0.0343168
0.000146684
0.000245468
0.000209441
0.0184912
0.000147767
0.0258194
0.000167746
0.000192263
0.000158636
0.0259261
0.000163605
0.000143094
0.000165303
0.000133857
0.0376995
0.000133775
0.000127738
0.0299244
0.000150773
0.000202011
0.000135297
0.000152128
0.000203284
0.000150987
0.0283678
0.000146321
0.0276155
0.000433456
0.000143997
0.000204933
0.0416788
0.000138681
0.0306476
0.0391072
0.000151406
0.00013811
0.000243186
0.00014886
0.000226922
0.000173039
0.0310096
0.000143006
0.000138448
0.000375461
0.000132335
0.000153676
0.000132882
0.000133361
0.000157621
0.000151586
0.000144715
0.000138429
0.000132327
0.000140159
0.000170586
0.000529206
0.0273925
0.000154602
0.000160152
0.000207586
0.000156505
0.000148655
0.000133481
0.000139369
0.000160132
0.000154552
0.000133014
0.000132318
0.000138973
0.000148655
0.00015143
0.00020628
0.000132987
0.000155309
0.000132335
0.0273345
0.000127896
0.000143422
0.000143606
0.0236995
0.0372834
0.000151263
0.00013313
0.000181805
0.000143668
0.000172197
0.000153687
0.00398002
0.000146835
0.000193431
0.000149037
0.000148907
0.000156519
0.000138288
0.000150418
0.000145421
0.000175576
0.000140094
0.000141887
0.000206285
0.000141205
0.000141868
0.000143472
0.0001347
0.0321471
0.000149046
0.0287239
0.00019189
0.00161556
0.000195602
0.000145817
0.00019984
0.000143686
0.000146588
0.000146583
0.00020571
0.000148031
0.0236573
0.00212254
0.000169646
0.000147521
0.000152966
0.00016129
0.000151613
0.000143388
0.028077
0.000134979
0.046521
0.000542332
0.00020098
0.000209644
0.00019308
0.000149689
0.00012798
0.0002432
0.000202804
0.000135287
0.00397854
0.000188129
0.000147789
0.000161265
0.000161416
0.000152689
0.000203297
0.000139663
0.0358146
0.000132274
0.000228892
0.000152031
0.000147788
0.000148336
0.000147522
0.000152496
0.000189269
0.0360457
0.000161507
0.000151544
0.000134574
0.000194926
0.000142162
0.000197987
0.0378042
0.000169333
0.000157798
0.000203358
0.000194042
0.0370548
0.000170396
0.000142741
0.00013957
0.000165132
0.023457
0.000149841
0.000143435
0.000178922
0.000143208
0.000146006
0.000159027
0.000141885
0.00014515
0.000145873
0.000152615
0.0300066
0.000147823
0.0161724
0.000201441
0.000133006
0.000150466
0.000143095
0.000148611
0.000141554
0.000178862
0.000172071
0.0331601
0.000154752
0.000153551
0.000146438
0.0221885
0.000200769
0.00014478
0.000151222
0.00751109
0.000199402
0.000143135
0.0358522
0.000164767
0.000138036
0.00398108
0.000153987
0.000154175
0.000216487
0.0301188
0.000167873
0.000138152
0.0139563
0.000142524
0.000142397
0.00018549
0.000574173
0.000141496
0.00015352
0.000165577
0.000151297
0.000156064
0.000142563
0.00015213
0.000152003
0.000181775
0.000158911
0.000147836
0.000146716
0.000190799
0.000191294
0.000137474
0.000213091
0.000134848
0.000662796
0.000189062
0.000159406
0.000247831
0.0425979
0.000187172
0.0371951
0.000135456
0.000166377
0.0324968
0.000143643
0.000154554
0.00017629
0.00017695
0.000942757
0.000133
0.000145889
0.000138694
0.000148526
0.000202724
0.0343226
0.000149147
0.0139306
0.000137437
0.0268785
0.000190514
0.0001381
0.000148056
0.0378972
0.0470896
0.000165917
0.000157673
0.000153941
0.000150348
0.000153287
0.0243043
0.000167782
0.0001494
0.000128826
0.0404138
0.00739909
0.000142422
0.000133449
0.00376568
0.000162718
0.000133605
0.000138228
0.000181098
0.000141493
0.000204062
0.000185737
0.000134899
0.000159549
0.00013475
0.000151096
0.000132341
0.00018797
0.000141421
0.000142381
0.000142371
0.000173009
0.0310347
0.000158705
0.000147502
0.00762008
0.000203275
0.000185666
0.000138343
0.000157802
0.000279192
0.000256872
0.0367503
0.000136799
0.000158876
0.0291261
0.000174511
0.00018199
0.00013833
0.000136735
0.000138588
0.0279291
0.00014096
0.000138532
0.000139851
0.000158698
0.0362893
0.00015402
0.0187821
0.000200116
0.000134113
0.000161836
0.000225604
0.000151489
0.000154497
0.000172491
0.000189737
0.000203471
0.000134508
0.000140854
0.000157004
0.000176106
0.000216919
0.000141888
0.000138454
0.000151828
0.00040227
0.0034058
0.000195621
0.000158461
0.000132858
0.000143717
0.000141963
0.000132863
0.0362582
0.000205658
0.000180016
0.000160288
0.000158335
0.000160938
0.030979
0.000144759
0.000578945
0.0001446
0.000159389
0.000139673
0.000150658
0.000134846
0.000133174
0.000140922
0.000138374
0.000138095
0.000155985
0.000145106
0.0001486
0.0253837
0.000148269
0.00015199
0.000140269
0.000142474
0.000156347
0.000143025
0.000160081
0.000189147
0.000148936
0.000211054
0.000138524
0.00014732
0.000206065
0.000137416
0.000138626
0.000186544
0.000170413
0.00018352
0.000137967
0.000750661
0.000159071
0.0284156
0.000145024
0.000151415
0.000777362
0.000233964
0.00013965
0.000153761
0.0031716
0.0108962
0.00013973
0.000202194
0.000146576
0.029247
0.000166896
0.000140401
0.000202408
0.000148737
0.000140251
0.00989631
0.0172953
0.000135138
0.000148814
0.000137942
0.000132283
0.0401115
0.0135169
0.000131666
0.00346713
0.00024605
0.000134526
0.000134745
0.0001316
0.000154878
0.0367113
0.0273909
0.0176051
0.000138734
0.0280152
0.000143093
0.000142924
0.000202331
0.000139809
0.000178896
0.000223107
0.010822
0.000151837
0.000202869
0.000131541
0.000187355
0.000773671
0.000193659
0.000148953
0.000224626
0.000188164
0.000140383
0.000181672
0.00014394
0.000161074
0.000154757
0.000177405
0.000148717
0.000175232
0.000182649
0.027656
0.000131518
0.000150998
0.000139481
0.000169138
0.0368259
0.000201396
0.0354405
0.00018405
0.000157447
0.000152957
0.000163465
0.000182738
0.0356711
0.00018435
0.000141174
0.000149856
0.000182765
0.000166722
0.000200437
0.000158771
0.000180324
0.00020547
0.0307002
0.000139639
0.00013316
0.040715
0.000148771
0.000136987
0.000132262
0.000133538
0.000153317
0.0254871
0.0307664
0.0167733
0.0276909
0.000142912
0.000153319
0.00642068
0.000152916
0.000157009
0.000169258
0.00641304
0.000138648
0.000142695
0.000136138
0.000138846
0.000217661
0.0265273
0.000138413
0.000161828
0.000180749
0.000182
0.000139403
0.000133682
0.000210756
0.000131322
0.00311926
0.000203251
0.000169279
0.00015118
0.000134659
0.00466415
0.000159092
0.000159926
0.000147515
0.000141754
0.000164193
0.00020057
0.000164592
0.000152809
0.000147111
0.000186077
0.000195807
0.000167848
0.000151527
0.00018441
0.00015565
0.00660565
0.000182147
0.00027256
0.000152862
0.0280138
0.000216258
0.00147134
0.000181121
0.000171102
0.030981
0.000146371
0.00015469
0.00017957
0.000176373
0.000138422
0.000171405
0.000363267
0.000150762
0.000152781
0.0237175
0.0286664
0.000173642
0.000170424
0.0210633
0.000141736
0.000171018
0.0294717
0.000150218
0.000198961
0.000134563
0.000150051
0.000134743
0.000193395
0.000159324
0.000176435
0.00017681
0.000154706
0.000204902
0.00015744
0.000178905
0.000185231
0.000149074
0.00014916
0.000132377
0.00301687
0.000146901
0.000181373
0.000152154
0.000162974
0.000138322
0.000153031
0.0461048
0.000139336
0.000132532
0.000133072
0.000155645
0.0267713
0.000181873
0.000165195
0.000138208
0.000148643
0.000209651
0.000139517
0.000141747
0.0001771
0.000135004
0.0397512
0.000192485
0.000117513
0.000153035
0.00013756
0.000138456
0.000141665
0.000148808
0.00196711
0.00162189
0.000153643
0.000154456
0.000131781
0.0429159
0.000157692
0.000145902
0.000137675
0.00291786
0.000158973
0.000151703
0.000197454
0.0317988
0.000209519
0.000157754
0.0261812
0.00013564
0.00020217
0.000154735
0.000135183
0.000151946
0.000227885
0.000131743
0.000143848
0.000131495
0.0301104
0.00234327
0.013728
0.000143793
0.000147503
0.000146957
0.000149915
0.000142252
0.00018698
0.00015204
0.000151353
0.000131161
0.000134683
0.000208093
0.044983
0.000181925
0.000216764
0.000149254
0.000156335
0.000143693
0.000139686
0.000157796
0.000210324
0.000151554
0.000183961
0.000162147
0.000549141
0.000145737
0.046311
0.000197935
0.000134058
0.000136632
0.027544
0.000140281
0.000143993
0.0204684
0.000137371
0.000178166
0.000136624
0.000326602
0.000148617
0.000143696
0.0107611
0.000183112
0.000186812
0.000140239
0.000151891
0.000137826
0.000143208
0.000158187
0.000142973
0.000156027
0.000143022
0.0261009
0.0284734
0.0296836
0.000158164
0.000150329
0.0209027
0.000144004
0.0001488
0.000133518
0.000142224
0.000143978
0.000182888
0.0335884
0.000131422
0.000131407
0.0386677
0.000146698
0.000143793
0.000191988
0.000178689
0.000202431
0.0339658
0.000193688
0.0283529
0.0217405
0.000148412
0.0316842
0.000150127
0.0001998
0.000166838
0.000139709
0.000155021
0.0109432
0.000152866
0.000139752
0.0405667
0.000153059
0.000163915
0.0272065
0.0140656
0.000143716
0.000212044
0.00267471
0.000151734
0.000173753
0.000139654
0.000180569
0.00294429
0.000143331
0.000138415
0.000200252
0.000132723
0.00021325
0.000353323
0.0200516
0.00014757
0.0196562
0.000190385
0.000146258
0.000140246
0.000139503
0.00013822
0.000147289
0.000182355
0.000688201
0.000151689
0.000146021
0.000184367
0.000157015
0.000158822
0.000151364
0.000148018
0.000204276
0.00013821
0.00015727
0.00013787
0.000143071
0.000201879
0.000151203
0.00013791
0.000143013
0.000181212
0.000180506
0.00013064
0.000137523
0.000185704
0.000152725
0.0282782
0.000163501
0.000172891
0.000134905
0.000164904
0.000153954
0.000140292
0.0151212
0.000158219
0.000144698
0.000208724
0.000142046
0.000127792
0.00014727
0.000175382
0.000127847
0.000207405
0.00342809
0.000159523
0.000183702
0.0460456
0.000172866
0.000136687
0.000147582
0.000159283
0.0285115
0.000143992
0.00015057
0.000151573
0.000187114
0.00015908
0.000177858
0.000112457
0.000148605
0.000235418
0.0425818
0.0257539
0.000188984
0.00138102
0.000155983
0.000138896
0.000199646
0.000151437
0.00285557
0.000152752
0.0129416
0.0001809
0.00014425
0.000138697
0.000271764
0.00343726
0.000153734
0.000150736
0.000143095
0.000138893
0.000143328
0.0020712
0.00015458
0.000135329
0.0377749
0.000138133
0.000214194
0.000154887
0.000180629
0.000177807
0.000153743
0.000138122
0.0329791
0.0320719
0.000159271
0.000174047
0.000166443
0.000138672
0.000137554
0.000177228
0.01266
0.000143715
0.000154959
0.000261503
0.000177678
0.000141993
0.000202188
0.000193721
0.000194449
0.000143551
0.000168747
0.000188507
0.0338471
0.000152835
0.00014652
0.000151368
0.000147868
0.000147465
0.000144605
0.00020964
0.000136485
0.000153169
0.000189782
0.00014752
0.025594
0.000137688
0.00857588
0.000132586
0.0266357
0.00246122
0.000207302
0.000147579
0.00893853
0.000160825
0.000165761
0.000176065
0.000165571
0.000190095
0.00013614
0.000137816
0.000209247
0.000153367
0.0177201
0.000170189
0.0140178
0.000139406
0.000171434
0.000133328
0.000157545
0.000211275
0.000167106
0.000174385
0.000137733
0.00020421
0.0115517
0.000183997
0.0382262
0.000176041
0.0001489
0.0367773
0.0319435
0.0455222
0.000171381
0.0435379
0.0472409
0.00122295
0.000143585
0.00014298
0.000141145
0.00015572
0.00013133
0.0419261
0.00109103
0.000132406
0.000186705
0.000168772
0.00014839
0.000130415
0.000242491
0.00017713
0.000150573
0.000162432
0.000235851
0.000135931
0.0242808
0.000144666
0.000189557
0.000135842
0.00116927
0.000180533
0.00462832
0.000134201
0.0452895
0.000167903
0.000242696
0.000170535
0.000134223
0.000133156
0.00707726
0.000148706
0.000158114
0.000190961
0.000171773
0.000153009
0.000156006
0.000143117
0.000144199
0.000157933
0.000144346
0.000179524
0.000181162
0.00017692
0.000202716
0.000144237
0.000183196
0.00884218
0.000161654
0.0369271
0.000153212
0.000140039
0.000167691
0.000804006
0.000128918
0.000151633
0.0001671
0.000213568
0.000174422
0.000162964
0.00016631
0.000179564
0.0311744
0.000148877
0.000158372
0.00372813
0.000132483
0.000565905
0.000161557
0.000181786
0.000153942
0.000145022
0.000160769
0.000174924
0.000218164
0.000160679
0.000142567
0.0391748
0.000188636
0.0454427
0.0113546
0.000148604
0.00214646
0.000145079
0.000160664
0.000133898
0.000167767
0.000155614
0.0468486
0.000145121
0.00604068
0.00013788
0.000147509
0.000136127
0.000183695
0.0425784
0.00015188
0.000189834
0.000145738
0.000172751
0.0382179
0.0203049
0.000138769
0.000211029
0.000134724
0.000137867
0.000141132
0.000151194
0.000148281
0.000158629
0.0354017
0.00015281
0.00148567
0.000177178
0.000135028
0.000184715
0.00015129
0.000206234
0.000150282
0.000148894
0.000156838
0.000130267
0.000169007
0.000157242
0.000203735
0.000262514
0.00014745
0.000134828
0.000186007
0.000193726
0.000244124
0.000191051
0.000149352
0.000127846
0.000153123
0.000188548
0.00388345
0.000159569
0.000176669
0.0165841
0.000236493
0.000225786
0.000148653
0.0340596
7.05586e-05
0.000134861
0.000142132
0.000142915
0.000134904
0.00013027
0.000160948
0.000197882
0.000190308
0.0412076
0.0276574
0.00019923
0.000193502
0.000150796
0.000189077
0.000153536
0.000131953
0.000175229
0.000152675
0.000158565
0.000150802
0.000179407
0.000131862
0.000156672
0.000150515
0.0001452
0.000137799
0.000149087
0.000138678
0.000154449
0.000131186
0.000157708
0.000149406
0.000137309
0.0001679
0.000166056
0.000152543
0.000137714
0.000162653
0.000140866
0.000137639
0.0337125
0.000149278
0.000818225
0.000222787
0.000135204
0.000133311
0.000134456
0.000144981
0.00195058
0.00738394
0.0265729
0.000148444
0.000175845
0.000146635
0.000134361
0.0417204
0.000182481
0.000133324
0.00014065
0.000144156
0.000247893
0.000136945
0.000152699
0.000137232
0.00018566
0.000143378
0.000153074
0.000171229
0.000136782
0.000138644
0.000141313
0.000141052
0.000133353
0.000138005
0.000163669
0.000133646
0.0177877
0.000155278
0.000152984
0.000141069
0.000200232
0.000179343
0.000159544
0.000139039
0.000149155
0.0175813
0.000137468
0.000138608
0.000135787
0.000148559
0.0392433
0.000154236
0.000138074
0.000131089
0.000164037
0.000161785
0.000181959
0.00020057
0.000160063
0.00265932
0.0373402
0.000159552
0.00014967
0.000155787
0.00199687
0.0253096
0.000137126
0.000145383
0.000169852
0.000182251
0.000177945
0.00013571
0.0283194
0.000134693
0.021205
0.000138783
0.000128098
0.00014494
0.000140775
0.000130973
0.000141335
0.000127852
0.0441104
0.000147315
0.000144904
0.00013106
0.000132578
0.000164905
0.000162434
0.00277612
0.000133468
0.000161827
0.00267834
0.000197553
0.00015475
0.000190918
0.000209625
0.000150462
0.00013949
0.000176079
0.00019406
0.000185864
0.000181472
0.000204611
0.000138182
0.0251122
0.000161746
0.000140067
0.000152928
0.000220348
0.00384786
0.000283998
0.000144341
0.000180416
0.000164606
0.000148475
0.000164442
0.000193798
0.000131181
0.000150602
0.000150828
0.00015113
0.000136483
0.000158871
0.000150098
0.000147826
0.00013144
0.000618403
0.0106256
0.000143926
0.000208849
0.000136533
0.000130891
0.000138114
0.000158037
0.000143487
0.000188111
0.000185861
0.000158864
0.000158431
0.0119432
0.000130668
0.0285162
0.000137454
0.000147023
0.00015511
0.00014651
0.000157683
0.000247748
0.000152247
0.000139964
0.00013081
0.000133537
0.000161165
0.000150286
0.000130732
0.0142797
0.000165873
0.0397384
0.000140757
0.000183065
0.000187823
0.000185827
0.000130619
0.000153923
0.0297493
0.000149832
0.000156089
0.000141076
0.000196776
0.000146479
0.000190834
0.000207398
0.000139862
0.000156693
0.000150711
0.000137162
0.000136009
0.000166056
0.000133649
0.00376453
0.0286467
0.0432105
0.000219648
0.0320774
0.000148236
0.000191895
0.000176283
0.000143465
0.000137306
0.00018585
0.000279195
0.000148655
0.00016704
0.000145947
0.000146058
0.000136965
0.000189033
0.000143177
0.000183824
0.000170129
0.000143434
0.000167008
0.000138796
0.000193949
0.000239077
0.000152448
0.000149861
0.000135995
0.0363012
0.000155081
0.000148625
0.000147819
0.000178483
0.000181566
0.00381112
0.000147207
0.000200838
0.000137292
0.000147562
0.000142684
0.000183173
0.00017199
0.000126174
0.003605
0.00013805
0.000139603
0.000190303
0.000211348
0.000149443
0.000184615
0.000137436
0.000167663
0.000147555
0.000140751
0.000205897
0.000139909
0.000201012
0.000163189
0.0382097
0.000169819
0.000167172
0.000160263
0.000173247
0.000155311
0.000195854
0.000143224
0.000132559
0.000197727
0.000138546
0.00016944
0.000187338
0.000136911
0.0371562
0.000652968
0.00376068
0.0331981
0.000201212
0.000151913
0.0145283
0.000211604
0.000130137
0.000165278
0.000130192
0.0382195
0.027276
0.0482813
0.0370479
0.000143678
0.000157758
0.000143629
0.000143548
0.000170811
0.00017107
0.0474286
0.0185186
0.00014928
0.000181921
0.000151257
0.0370654
0.000145599
0.000148232
0.000141637
0.000142727
0.000141863
0.000142957
0.000153015
0.000212228
0.000141909
0.00016612
0.000143224
0.000140412
0.000163187
0.000160336
0.000208193
0.000145792
0.000159255
0.00644632
0.000153471
0.000131951
0.000154804
0.000166558
0.00116624
0.00221807
0.000132005
0.000204516
0.000143013
0.000166276
0.000155527
0.000136737
0.000149276
0.000131994
0.000140334
0.000143715
0.000161045
0.0346853
0.040474
0.000188557
0.000194403
0.000153203
0.000199443
0.000147393
0.000147102
0.000165657
0.0336726
0.000195403
0.000158645
0.000141095
0.0394052
0.000151751
0.000136501
0.0463366
0.000153944
0.00014472
0.000135844
0.000142833
0.000134398
0.000166151
0.00015378
0.000206911
0.000191705
0.000162904
0.000133091
0.000150861
0.000171666
0.000153626
0.000153237
0.0392141
0.000133164
0.000147397
0.000133655
0.0428879
0.000151367
0.000163617
0.0001609
0.000151221
0.000152229
0.000156728
0.000231059
0.000147575
0.018015
0.000194958
0.000142017
0.000205526
0.000205794
0.000191056
0.000155632
0.000566215
0.000150693
0.0176146
0.000188277
0.000155185
0.00326418
0.000156354
0.000172571
0.0394081
0.000178792
0.000180173
0.000174734
0.000208921
0.000136494
0.000247061
0.000151509
0.000202223
0.000172007
0.000133735
0.000137906
0.00015519
0.000151308
0.000188405
0.000160416
0.000135271
0.000163833
0.000150001
0.000171853
0.000197627
0.000195631
0.000178802
0.00125876
0.000133853
0.00432253
0.000152502
0.000143736
0.000151559
0.000135532
0.000192342
0.000139482
0.000135106
0.000184884
0.000150875
0.000210319
0.000135316
0.000155028
0.0272953
0.0024446
0.0350435
0.000150486
0.0107055
0.000164032
0.000202375
0.0252281
0.000141092
0.0334078
0.000169423
0.000145052
0.000288457
0.000142407
0.000149272
0.0462225
0.000142075
0.000142899
0.000190717
0.00119415
0.000155564
0.000155985
0.000205886
0.000157025
0.000156441
0.000151527
0.000178917
0.0242093
0.00015661
0.000151277
0.000143217
0.000148044
0.000134211
0.000134317
0.0355877
0.000100181
0.000166085
0.000181112
0.000135407
0.000148939
0.000175153
0.000150553
0.00709807
0.00015405
0.000143429
0.000160698
0.000137508
0.000198795
0.00181659
0.0402083
0.000153206
0.000151278
0.000162192
0.00018946
0.018783
6.1516e-05
0.037814
0.000166414
0.000151896
0.000157493
0.000151602
0.000196321
0.000130465
0.000208915
0.000175354
0.0249661
0.000136292
0.000153615
0.000135449
0.0294948
0.000141655
0.00955802
0.000191964
0.000142752
0.000207772
0.000143515
0.0001954
0.000170015
0.000157722
0.000142597
0.00014867
0.000156099
0.000170913
0.000159414
0.000156342
0.000165071
0.000132993
0.000134615
0.000154019
0.0326211
0.0282132
0.000146992
0.000200193
0.00017672
0.000136558
0.000204471
0.000157479
0.000149746
0.0001446
0.000133275
0.000160557
0.000175211
0.000182764
0.0151263
0.00018492
0.000217492
0.000158593
0.000159054
0.000148998
0.000133311
0.000145601
0.000180834
0.000158133
0.00020245
0.000148679
0.000154752
0.000156271
0.000177438
0.000131996
0.000162941
0.0250723
0.000177137
0.000148519
0.000143512
0.000166019
0.000131986
0.000141015
0.000142885
0.000189006
0.000132683
0.000156644
0.000171431
0.000145157
0.000180093
0.000286913
0.000136661
0.000151816
0.000153964
0.000148667
0.00014765
0.00014154
0.00023584
0.000158023
0.000170923
0.03662
0.000143705
0.000149245
0.0219252
0.000140836
0.000179821
0.000129134
0.000132465
0.027074
0.00016121
0.0330296
0.0255623
0.0178344
0.000133175
0.000162969
0.000137893
0.000209647
0.00013775
0.000192937
0.000135294
0.00019155
0.000672794
6.78364e-05
0.000173539
0.000140989
0.000132496
0.000143164
0.00016374
0.000163811
0.000129127
0.000287117
0.000194179
0.000327666
0.000155496
0.000137706
0.0253868
0.000166829
0.000174515
0.000141037
0.000201591
0.000134944
0.000136052
0.0288952
0.000155369
0.000141019
0.000142986
0.000152517
0.000144537
0.0329894
0.000489322
0.000163136
0.00016558
0.000143565
0.000183518
0.00014688
0.000670753
0.000148651
0.000168089
0.000195425
0.000148795
0.000158206
0.0100185
0.00019662
0.000144256
0.000155919
0.000144532
0.000156263
0.0277759
0.000156419
0.000194016
0.000165211
0.000201495
0.00014778
0.000196641
0.00015898
0.000146835
0.000173806
0.000139157
0.000148678
0.000155589
0.000166476
0.00272893
0.000150415
0.000158682
0.000157664
0.000207638
0.000141866
0.000179045
0.000133789
0.000154871
0.000161224
0.0001501
0.000150545
0.000196088
0.000151964
0.000144665
0.000200105
0.00015257
0.000149195
0.000132479
0.000149342
0.000140688
0.000156321
0.00013887
0.000159462
0.0250889
0.000145288
0.000171653
0.0001495
0.000131935
0.00015525
0.000146009
0.000141972
0.0293487
0.000177517
0.000194334
0.000202933
0.000197216
0.000145282
0.000151882
0.000133778
0.000156131
0.00612074
0.0323627
0.0373641
0.0167616
0.000146326
0.043487
0.0226221
0.000139324
0.00014726
0.000227589
0.000205091
0.0159422
0.00060422
0.000130565
0.000137844
0.00015862
0.000198025
0.00690171
0.000191015
0.000334744
0.000133811
0.000197274
0.000135133
0.000155096
0.000144503
0.000199164
0.000142087
0.000221124
0.000170024
0.00018015
0.000164387
0.000148897
0.000177416
0.0178689
0.000168202
0.00264595
0.00015829
0.000145589
0.000148518
0.000148609
0.000179725
0.000208788
0.000154372
0.00016901
0.000143069
0.000188919
0.000175897
0.000215896
0.000151629
0.000146795
0.000203112
0.00014841
0.0298963
0.000171083
0.000138535
0.000143311
0.000128248
0.000169717
0.000138137
0.0290816
0.000142645
0.000149291
0.000163707
0.0055108
0.000152007
0.028128
0.000180972
0.000149272
0.000199166
0.000152504
0.000148798
0.000143027
0.000143105
0.000152817
0.0268184
0.000170875
0.000136028
0.000143538
0.000138261
0.000143517
0.000142543
0.000138365
0.000155707
0.000159853
0.000144508
0.000170324
0.000133843
0.000131723
0.000166433
0.000166061
0.000150477
0.000186614
0.000136164
0.000172905
0.000175701
0.000130562
0.000140817
0.000201225
0.00127249
0.000179078
0.000169364
0.000172481
0.000161681
0.000150967
0.000149514
0.00024021
0.00015543
0.000161574
0.000167061
0.000149379
0.000150694
0.0001911
0.000154803
0.000173026
0.000138172
0.000176507
0.0279184
0.000153053
0.000157027
0.000136821
0.000142097
0.000179624
0.000155855
0.000146411
0.0293029
0.0210231
0.0294694
0.000144945
0.000148326
0.00013786
0.0336519
0.000209394
0.000169625
0.000181161
0.000136827
0.000138474
0.000181763
0.000153005
0.000145835
0.000157802
0.00015701
0.000194091
0.000139368
0.000143564
0.00282827
0.000136769
0.000153769
0.000178338
0.00013905
0.000172291
0.000232887
0.000285131
0.000148933
0.000157235
0.000136858
0.000136827
0.000154076
0.000142773
0.000147241
0.000150349
0.000143908
0.000150025
0.000161194
0.00013926
0.000138181
0.000180222
0.000194922
0.000135414
0.00260282
0.000146123
0.000151582
0.000152877
0.000141968
0.000145084
0.000153944
0.000149997
0.0282682
0.000155245
0.000135313
0.00017462
0.000175662
0.000150412
0.000151107
0.000161863
0.000154585
0.000163518
0.000132764
0.000191012
0.000132434
0.000135139
0.000144704
0.000189325
0.000162374
0.000141744
0.000135184
0.000170879
0.000210561
0.000201062
0.000162274
0.000195849
0.000165087
0.000138534
0.000133423
0.000142786
0.000132823
0.000154688
0.00023514
0.000145579
0.000141811
0.00473134
0.000151457
0.000141881
0.000159554
0.0024429
0.000168201
0.000144788
0.000174924
0.000148835
0.0301221
0.000209005
0.000147346
0.0241553
0.000144944
0.000138268
0.000145161
0.000163412
0.000159849
0.000134976
0.000145476
0.0396885
0.000161202
0.000143205
0.00427967
0.000145668
0.000141551
0.000164065
0.000175337
0.000175191
0.000217884
0.000162286
0.000201044
0.00398322
0.030024
0.000216742
0.00196937
0.000128703
0.0001457
0.000139001
0.000140547
0.000168486
0.0308129
0.000147045
0.000213666
0.000235189
0.0206651
0.00836215
0.000149484
0.000155884
0.000143294
0.000181587
0.000148658
0.00825742
0.000148941
0.000137533
0.0431557
0.00014336
0.000202667
0.000258838
0.00021691
0.000154663
0.0167125
0.000153645
0.000137876
0.000138244
0.00337296
0.000143701
0.000143609
0.000240464
0.000174012
0.000147512
0.000780557
0.000147592
0.00329482
0.000193023
0.00014546
0.000233115
0.000141247
0.000132928
0.000162859
0.000160408
0.000206202
0.000194268
0.000140783
0.000148543
0.000151741
0.00274848
0.000165863
0.000143887
0.0113614
0.000132028
0.000161861
0.00377862
0.000155576
0.000148472
0.000132539
0.028412
0.000216759
0.00017947
0.000156208
0.000157382
0.00015671
0.000190317
0.000216983
0.0283021
0.000210048
0.000171325
0.000168935
0.000197
0.000148775
0.00481314
0.000136649
0.000190869
0.0282971
0.000209428
0.000202023
0.000134693
0.0426551
0.000153908
0.000153625
0.000213094
0.000147984
0.000150276
0.00014915
0.000212797
0.000140468
0.00138105
0.000133274
0.000143271
0.000138624
0.000130212
0.000149718
0.000143492
0.0362758
0.000144136
0.0141367
0.000137633
0.000157501
0.000138601
0.000133495
0.00283837
0.00014751
0.000153176
0.0161515
0.00014699
0.0289453
0.000150526
0.0416268
0.00054805
0.00122176
0.000143467
0.00013046
0.000208049
0.000194193
0.000130145
0.000133443
0.00536478
0.00014184
0.000150281
0.000195369
0.000174447
0.000146758
0.000141844
0.0176891
0.000136094
0.000138484
0.000143723
0.000148917
0.00380048
0.000148134
0.000138723
0.000226391
0.000143885
0.000141358
0.00013457
0.000163058
0.000155532
0.000137906
0.0287939
0.000171876
0.0109471
0.00013996
0.000141284
0.000142495
0.000191165
0.000170832
0.000153321
0.000216676
0.000143384
0.000170595
0.000206285
0.000154643
0.000156396
0.000157893
0.000133454
0.00014345
0.000473196
0.000146818
0.00020925
0.00015184
0.000174888
0.000962728
0.000173342
0.000152496
0.000156651
0.00015795
0.000155022
0.000155554
0.000154034
0.011408
0.000179781
0.000150211
0.000179646
0.0332547
0.000254326
0.000218945
0.000172156
0.0300999
0.000165611
0.000136174
0.000140473
0.0205935
0.0090146
0.000167427
0.00120223
0.000152744
0.000204443
0.0263701
0.00495267
0.0111425
0.000148791
0.0358217
0.000199895
0.000135429
0.000190022
0.000174125
0.000165213
0.000143872
0.00015825
0.000157557
0.000130361
0.00018352
0.000161539
0.0321219
0.000141147
0.000180011
0.000137596
0.000215336
0.000200581
0.000143564
0.000189633
0.000151196
0.00411294
0.000173476
0.000140457
0.000557317
0.000142528
0.0385933
0.000154751
0.000148511
0.000139726
0.000207488
0.000144756
0.000127771
0.000142474
0.0301316
0.000132374
0.000144027
0.000205797
0.000148977
0.000143497
0.000139898
0.00285316
0.000175568
0.000225627
0.000152664
0.0222452
0.000136325
0.000163041
0.000146103
0.000139758
0.000174164
0.00460403
0.000192124
0.0447557
0.000132406
0.000157149
0.00014933
0.000208735
0.000155541
0.000179593
0.000171828
0.0038111
0.000141772
0.036093
0.000143959
0.000148117
0.000143531
0.000152022
0.00017454
0.000149146
0.000153054
0.000135612
0.0282698
0.000203138
0.0265725
0.000164113
0.000170103
0.000154481
0.000952259
0.000139148
0.000137414
0.000172265
0.000135023
0.000217976
0.000143507
0.000149737
0.000229803
0.000155427
0.000194636
0.000188672
0.0312188
0.000138854
0.000130423
0.000207005
0.000142294
0.00017062
0.000229483
0.000162953
0.0342529
0.000147406
0.03026
0.000194702
0.000141262
0.0309487
0.000210065
0.00016091
0.0158484
0.000181429
0.000201231
0.000206158
0.00016132
0.000456875
0.00018797
0.000162609
0.000132211
0.0117817
0.00014855
0.00740949
0.000146749
0.00378616
0.000148122
0.000148267
0.000146756
0.000143434
0.0346711
0.000142567
0.000141904
0.000181543
0.000143736
0.000162567
0.000153482
0.00014827
0.000168162
0.000143946
0.000173928
0.000143612
0.000139308
0.000146709
0.000174906
0.000143141
0.000190969
0.000203318
0.000132029
0.000148788
0.00013551
0.000209845
0.000145041
0.000134495
0.000132083
0.000134806
0.000371378
0.000137771
0.000137819
0.00732703
0.000219183
0.000174375
0.000213038
0.000144045
0.000155126
0.00019246
0.000148964
0.000167534
0.000153252
0.000143879
0.000158457
0.000154274
0.000142915
0.000154301
0.000113754
0.000132156
0.000130535
0.00020745
0.000159107
0.000180838
0.000141664
0.000151514
0.00183027
0.000142052
0.000149441
0.000132709
0.000171173
0.0453231
0.00018127
0.0279977
0.000159412
0.000143528
0.000143507
0.00240502
0.000146384
0.000222355
0.000435584
0.000170903
0.000188004
0.0001428
0.000145444
0.000156227
0.000141783
0.000139421
0.000173596
0.000219668
0.000142002
0.00016954
0.000139444
0.000144339
0.000148778
0.000152757
0.000276087
0.000142819