/*--------------------------------*- C++ -*----------------------------------*\
| =========                 |                                                 |
| \\      /  F ield         | OpenFOAM: The Open Source CFD Toolbox           |
|  \\    /   O peration     | Version:  v2012                                 |
|   \\  /    A nd           | Website:  www.openfoam.com                      |
|    \\/     M anipulation  |                                                 |
\*---------------------------------------------------------------------------*/
FoamFile
{
    version     2.0;
    format      ascii;
    class       volScalarField;
    location    "300";
    object      nut;
}
// * * * * * * * * * * * * * * * * * * * * * * * * * * * * * * * * * * * * * //

dimensions      [0 2 -1 0 0 0 0];


internalField   nonuniform List<scalar> 
37809
(
0.00584787
0.00218175
0.0026671
0.000815269
0.00593727
0.00595449
0.00596283
0.0102016
0.00594207
0.0028735
0.00553314
0.00325531
0.00594279
0.00568212
0.00591042
0.00426067
0.00600859
0.00822524
0.00374434
0.00589986
0.00389561
0.0094875
0.0114967
0.00583273
0.00967462
0.00607857
0.00351043
0.0098043
0.00288508
0.00585407
0.00550619
0.0122522
0.00582917
0.00399964
0.00391151
0.00582946
0.00208773
0.00110655
0.00234769
0.00592422
0.00585157
0.00147557
0.00386869
0.00294649
0.00584139
0.0030454
0.00505862
0.00578904
0.00447076
0.0020456
0.00886429
0.0167812
0.00392979
0.0040167
0.00348629
0.00594315
0.00147742
0.00301307
0.00108994
0.0101233
0.00341993
0.0032084
0.000861374
0.00294522
0.00574395
0.00591106
0.00191001
0.00500044
0.0028189
0.0020028
0.00594245
0.00602107
0.0140791
0.00132844
0.00592801
0.00354734
0.00209554
0.00580273
0.00384621
0.00598255
0.00292767
0.00792854
0.00590797
0.00396154
0.00338141
0.00363617
0.00594058
0.00912447
0.00312217
0.00198987
0.00606485
0.00884318
0.00211754
0.00592327
0.00280382
0.00583642
0.0111067
0.00583572
0.00578705
0.00918028
0.00600757
0.00144457
0.00584976
0.00575837
0.00348424
0.00592622
0.00914797
0.00599743
0.00977147
0.000808982
0.00595078
0.00133502
0.00851252
0.00592548
0.0105955
0.00857005
0.00592075
0.0058333
0.00166648
0.0059333
0.0024762
0.00421948
0.0105356
0.0058351
0.00592821
0.0034891
0.00580039
0.00529078
0.00582083
0.00582816
0.00275083
0.00591579
0.00594479
0.00592697
0.00580024
0.00584776
0.00297982
0.00317329
0.00781502
0.00329744
0.00373312
0.00147922
0.00564311
0.00593847
0.00583039
0.00582689
0.00378687
0.00579929
0.00582209
0.00580026
0.000470266
0.00593859
0.00595952
0.00121753
0.00582277
0.00552436
0.00580055
0.0113853
0.00578794
0.00596189
0.00583546
0.00841065
0.0120041
0.00458734
0.00582437
0.00226803
0.00583614
0.00127879
0.00560231
0.0113855
0.00595048
0.00198862
0.00595628
0.00590429
0.005642
0.00592588
0.00594007
0.00595133
0.00270869
0.00584675
0.00591508
0.00139903
0.00594027
0.0059157
0.00585739
0.0058499
0.0109775
0.00595569
0.00848788
0.00208039
0.00514941
0.00184393
0.00590237
0.00141724
0.00594218
0.00590726
0.00590752
0.00124188
0.00593221
0.00802511
0.00645123
0.00292886
0.00596352
0.00572561
0.0033098
0.00591609
0.00596764
0.00984643
0.00584934
0.0117775
0.00463948
0.00133871
0.000536763
0.00201568
0.00601006
0.00578848
0.00159413
0.00140081
0.00585078
0.01141
0.00220915
0.00596212
0.00354658
0.00609227
0.00601551
0.00138178
0.00583878
0.0106885
0.00580079
0.000309859
0.00454009
0.00596237
0.0058864
0.00596315
0.00574408
0.00227876
0.0113875
0.00609438
0.00589026
0.00585221
0.00189731
0.0059317
0.0034832
0.0110946
0.00272216
0.00280951
0.00140635
0.00362333
0.0106798
0.00253957
0.00584819
0.00583768
0.00287645
0.0083659
0.0059603
0.00585718
0.00318727
0.00584332
0.00584403
0.00351027
0.00592049
0.00594708
0.00584478
0.00588173
0.00774157
0.00596061
0.00512367
0.00131427
0.00580254
0.00591796
0.00593955
0.00595718
0.00592645
0.00219699
0.00302128
0.00805919
0.00578899
0.00370975
0.00595413
0.00560982
0.00136538
0.00587287
0.00571473
0.00427941
0.00175931
0.00584231
0.0112385
0.00285254
0.00583482
0.0114789
0.00549457
0.00601449
0.00419162
0.00899149
0.00271452
0.00583677
0.00431823
0.00584338
0.00584145
0.00211499
0.00319137
0.00594243
0.0041057
0.00254487
0.00458401
0.00571432
0.00584468
0.00601711
0.00590396
0.00192183
0.00549237
0.00596161
0.00590892
0.00294726
0.00199511
0.00581927
0.00229891
0.00585172
0.00216666
0.00316762
0.00544887
0.00410156
0.0106149
0.000313652
0.0112571
0.00585294
0.0019713
0.00960531
0.00584654
0.005799
0.00304068
0.0030684
0.000625947
0.00583425
0.00588148
0.00593005
0.00593554
0.00144026
0.0113981
0.00596003
0.00449503
0.00581798
0.00739693
0.00187785
0.00592981
0.00596266
0.0109285
0.0134546
0.00211671
0.00301682
0.00562341
0.00593511
0.00458337
0.0067924
0.00194419
0.00594871
0.00580961
0.0125668
0.0160565
0.00590524
0.00584158
0.0134835
0.00313783
0.0058444
0.00593047
0.00246157
0.00592247
0.00131972
0.00212581
0.00585742
0.00530044
0.0058547
0.00462386
0.00580069
0.00213016
0.00592378
0.00590575
0.00584039
0.00423122
0.0105981
0.00372301
0.00586534
0.00424085
0.00140598
0.00213244
0.00593018
0.00602058
0.00183784
0.00582727
0.0119348
0.00583556
0.00535273
0.0102674
0.00305863
0.00397844
0.00593109
0.00583509
0.00593424
0.00789924
0.00584788
0.00593203
0.00582675
0.00472074
0.0108265
0.00579457
0.00403056
0.00201962
0.0058728
0.00341682
0.00188073
0.0045767
0.00576705
0.00300549
0.0022398
0.0016487
0.00585908
0.00584633
0.00560055
0.00246706
0.000958506
0.00594286
0.00592874
0.00397316
0.0038351
0.010663
0.0017476
0.0034513
0.00583285
0.00584755
0.00594328
0.00583138
0.0118038
0.00424266
0.00212332
0.00432572
0.00554211
0.00529062
0.00934077
0.00586255
0.00103547
0.00586511
0.00544248
0.00593512
0.00599975
0.0058528
0.00584317
0.00593823
0.005933
0.00583881
0.00568401
0.00586906
0.0059178
0.00998999
0.00596055
0.00590372
0.00582603
0.00595361
0.00566487
0.00584154
0.00419803
0.00218422
0.00596102
0.00413586
0.00593311
0.0059452
0.00324323
0.00582787
0.00593192
0.00208465
0.0053507
0.00193012
0.0058364
0.00046938
0.00551066
0.00994404
0.00586729
0.00497128
0.00355014
0.00581098
0.00593505
0.00310212
0.0102615
0.00346733
0.00582593
0.00129961
0.00594115
0.00826402
0.00309889
0.00582915
0.001418
0.00593767
0.00582523
0.00318908
0.0132721
0.00585265
0.00595719
0.0058371
0.00582504
0.0125252
0.00381428
0.00580141
0.00156127
0.00564145
0.00588017
0.00585579
0.00579938
0.00556235
0.0114916
0.00983415
0.0137835
0.00592957
0.00987714
0.00584252
0.00591103
0.00129173
0.00582684
0.00280655
0.00187959
0.00589229
0.00569294
0.00139891
0.00579876
0.00193547
0.00224639
0.00439461
0.00591508
0.00239298
0.00203078
0.00582933
0.00189651
0.00585379
0.00528462
0.00289649
0.00525086
0.00593694
0.00305819
0.0030581
0.00768183
0.00579811
0.00592511
0.00582765
0.00258923
0.0114086
0.00211097
0.0111495
0.00298734
0.00561938
0.00586797
0.00537596
0.00234033
0.0112911
0.00289735
0.00582501
0.00586707
0.00237818
0.00344252
0.00425237
0.0055086
0.00285947
0.00139974
0.00828735
0.00582846
0.00582423
0.0125892
0.00595621
0.00581451
0.00580051
0.00583081
0.00585205
0.00603321
0.0103924
0.00802274
0.00889381
0.00584967
0.00530859
0.0139631
0.00396138
0.00354094
0.00300309
0.0139476
0.00584418
0.00584671
0.00589344
0.00592671
0.00241203
0.00708241
0.00592153
0.00335528
0.00225513
0.0052818
0.00582673
0.00585296
0.00113097
0.00579742
0.00164064
0.00123127
0.00240477
0.00589843
0.0058609
0.00161428
0.00464433
0.00547962
0.00594412
0.00594242
0.0028687
0.00175473
0.00289842
0.00467859
0.00595119
0.00453396
0.00161516
0.00204596
0.00453917
0.00191994
0.00574015
0.00224781
0.00310407
0.00182899
0.00600645
0.0100693
0.000975776
0.00265569
0.00319982
0.0028146
0.00910144
0.00598794
0.0057925
0.00409801
0.00292611
0.00583928
0.00278728
0.000880642
0.00591295
0.00587598
0.00513353
0.0214946
0.00308576
0.00283342
0.00390743
0.00584211
0.0029507
0.00830047
0.00593667
0.00148686
0.00586386
0.00594404
0.00586753
0.00194267
0.00551046
0.00268274
0.00392787
0.00579147
0.00127882
0.00351257
0.00376556
0.00278515
0.00590173
0.00520366
0.00580079
0.0013974
0.00594816
0.00315556
0.00589595
0.00607556
0.00583764
0.00472434
0.0116159
0.00585905
0.00580089
0.00580252
0.00573919
0.0101793
0.00312792
0.000668538
0.00583493
0.00600473
0.0011014
0.00582755
0.00594265
0.00178103
0.00585465
0.0124231
0.00199944
0.00103691
0.00582819
0.00583278
0.00581915
0.00584057
0.00590767
0.00585856
0.00516351
0.00360737
0.00576642
0.00580218
0.0115494
0.00378802
0.00590672
0.00583457
0.00977067
0.00549658
0.00444582
0.00156112
0.0119899
0.00116743
0.00279728
0.00844045
0.00585504
0.00124499
0.00275219
0.00585707
0.00590295
0.00182564
0.00580239
0.00588019
0.00579795
0.0216932
0.0063962
0.00666126
0.00593366
0.00596013
0.00596136
0.00594631
0.00583863
0.00295744
0.00576159
0.00600606
0.00579695
0.00586272
0.00142059
0.0131467
0.00200468
0.00575553
0.00582055
0.00357507
0.00597262
0.00582594
0.00558624
0.00108176
0.00572653
0.000704843
0.00291816
0.000476485
0.0059037
0.0117705
0.00184823
0.00591473
0.00583328
0.00708038
0.00582333
0.00594858
0.0065908
0.00592523
0.00198388
0.00583432
0.00243674
0.0059607
0.00588566
0.00315159
0.00397556
0.00300339
0.00582256
0.00576969
0.00591211
0.00584725
0.00244417
0.00582629
0.00571556
0.00585046
0.0111786
0.0213001
0.0215787
0.00245037
0.00594011
0.00512372
0.00594933
0.00593524
0.00584966
0.00583755
0.0058768
0.0022939
0.00882534
0.00579772
0.00579768
0.0112514
0.00596028
0.0059487
0.00174367
0.00233279
0.00141842
0.0124552
0.0018489
0.00884651
0.0073908
0.00595949
0.0109402
0.00594313
0.00143228
0.00533886
0.0058278
0.00573296
0.00593367
0.00587166
0.00582776
0.0125936
0.00373978
0.00330534
0.00791106
0.00661138
0.00588517
0.00359461
0.00776771
0.00591239
0.00404638
0.00586414
0.00214538
0.00994983
0.00592148
0.00581908
0.00396279
0.00582997
0.00104004
0.0022344
0.0158609
0.00595885
0.0161162
0.00196275
0.00599188
0.00582385
0.00586112
0.0058172
0.00595738
0.00308311
0.00455937
0.00591038
0.00598297
0.00287733
0.00353735
0.00553692
0.00571077
0.00596002
0.00394767
0.00581691
0.00349128
0.0058528
0.00582692
0.00144321
0.00602578
0.00586934
0.005851
0.0032016
0.00326392
0.00585595
0.00583304
0.00273229
0.00603387
0.00848232
0.00332866
0.00246547
0.00588611
0.00208401
0.0054345
0.00582464
0.00484768
0.00555467
0.00587414
0.000527891
0.0058255
0.00578699
0.00596174
0.00310198
0.00578755
0.0011838
0.0108587
0.00393719
0.00185724
0.0133853
0.00247224
0.00591229
0.00595777
0.00379698
0.0101141
0.0059497
0.00598237
0.00499285
0.00209325
0.0040428
0.00199042
0.000422134
0.00595991
0.000845084
0.0113933
0.00984438
0.00194379
0.00596801
0.00550139
0.00581946
0.00175038
0.00592082
0.00964985
0.00587853
0.00423568
0.00211828
0.0059484
0.00582203
0.00505731
0.0107473
0.0060447
0.00593075
0.00582694
0.00593161
0.00594878
0.00585896
0.00604481
0.00585528
0.0100604
0.00581672
0.000979714
0.00556879
0.00326202
0.00220787
0.00603786
0.00581666
0.0112994
0.00951015
0.00468716
0.00307144
0.00311228
0.00582233
0.00588168
0.00295744
0.00458843
0.00594737
0.0057335
0.00225977
0.00410901
0.00582502
0.001427
0.0020269
0.00181041
0.00594944
0.00302408
0.00202424
0.0105588
0.00601616
0.00598576
0.00504635
0.00590403
0.00583153
0.00587195
0.000964851
0.0058905
0.00364082
0.00162845
0.00594052
0.00885705
0.00583966
0.00318256
0.00580113
0.00916181
0.0103525
0.00118351
0.00583073
0.00335572
0.00430767
0.0060546
0.00225665
0.0019618
0.00218454
0.00582656
0.00584263
0.0011195
0.0038305
0.018916
0.00235257
0.00682807
0.00593639
0.00215895
0.00584353
0.0033326
0.00109781
0.00273235
0.0031548
0.00583271
0.00138746
0.00982832
0.00290703
0.0122267
0.00421597
0.00569198
0.0119835
0.0088852
0.011351
0.0024225
0.0128019
0.0111531
0.00146313
0.00584826
0.00595397
0.00582411
0.00370325
0.00579738
0.0127554
0.00781344
0.00582752
0.00224221
0.00269612
0.00595462
0.00579717
0.00307372
0.00289119
0.0060011
0.00338352
0.0053648
0.00582549
0.0107933
0.000383927
0.00123357
0.00582394
0.00670692
0.00463766
0.00848464
0.00581715
0.0114748
0.00242148
0.00589254
0.00297178
0.0058171
0.0058395
0.00273005
0.00593231
0.00391145
0.00201435
0.00269982
0.00381238
0.0036534
0.00594079
0.00593192
0.00313426
0.0059275
0.00287012
0.00219679
0.00376827
0.00144012
0.00593203
0.00299289
0.00293185
0.00522014
0.00969682
0.00486317
0.00582828
0.00269034
0.00441147
0.00581227
0.00503828
0.00271068
0.0010025
0.00524559
0.00308403
0.00314694
0.0021175
0.0119527
0.00596055
0.00387845
0.0114785
0.00580128
0.000554981
0.00522231
0.00204163
0.002919
0.00586621
0.00536709
0.0040077
0.000948656
0.00362243
0.0058782
0.0123525
0.00208175
0.0131211
0.00977281
0.0059565
0.00786917
0.00586994
0.00369137
0.00591477
0.00251474
0.00359886
0.0117537
0.00598606
0.00190674
0.00592356
0.00594061
0.00582714
0.00246562
0.012829
0.0060249
0.00456327
0.00590431
0.00299237
0.0107866
0.0059475
0.00593508
0.00574393
0.00588386
0.00592259
0.00593939
0.00504997
0.00596382
0.00433812
0.0116876
0.00531669
0.00622325
0.00225813
0.00586715
0.00449794
0.00591635
0.00128345
0.00591449
0.00596091
0.0055935
0.00584616
0.00273627
0.00562881
0.00138345
0.00236093
0.00596017
0.00586415
0.00457196
0.00179672
0.00538362
0.00207237
0.0059066
0.00578716
0.00511539
0.0018315
0.011712
0.00539711
0.00257095
0.00786634
0.00136241
0.00578236
0.00593596
0.0113529
0.00033785
0.00582887
0.00582682
0.00584065
0.00582887
0.00579449
0.00604056
0.00170476
0.00218871
0.0127056
0.00974807
0.00161544
0.0019934
0.00573741
0.00201784
0.00321761
0.0058022
0.00228487
0.00602066
0.00375484
0.00573979
0.00204165
0.0058033
0.00599324
0.00593927
0.00587001
0.0058435
0.00579197
0.00584389
0.00580028
0.00579714
0.00559496
0.00581925
0.00581713
0.00172364
0.00280477
0.00596971
0.00583436
0.00317529
0.00594156
0.00583123
0.0113137
0.00590999
0.00155252
0.00237358
0.00589312
0.00583458
0.00582707
0.00586826
0.00566039
0.0160985
0.0092043
0.00596069
0.00227018
0.00591347
0.00582481
0.0127546
0.00257363
0.00583376
0.00594033
0.00596553
0.00549413
0.00591614
0.00587962
0.00581621
0.00211525
0.00594354
0.00371762
0.00293989
0.00582602
0.00593367
0.00595071
0.00582266
0.00584762
0.00583524
0.00286714
0.0058631
0.00568544
0.00579123
0.00586925
0.00585055
0.00183913
0.00236539
0.00539434
0.00593629
0.00595934
0.019267
0.00584452
0.00593203
0.00582406
0.00593696
0.0114657
0.00560006
0.00583365
0.00580404
0.00287903
0.00359446
0.00232323
0.00149889
0.00314346
0.00949762
0.0120737
0.00605227
0.00595106
0.00572829
0.000958432
0.00979889
0.00592168
0.00590309
0.00305109
0.00308363
0.00295553
0.00582276
0.00855954
0.00588226
0.00657576
0.00582306
0.00579207
0.0058643
0.00584764
0.00580319
0.00591165
0.00578731
0.010776
0.00596288
0.00588181
0.00580442
0.00582844
0.00250449
0.00608431
0.00963998
0.00586073
0.0060962
0.00958383
0.00172825
0.00575069
0.00295873
0.00114336
0.00591832
0.00586205
0.00310418
0.00192166
0.00272596
0.00203218
0.0057254
0.00583638
0.00834251
0.00367515
0.00582824
0.00587216
0.000936854
0.0116254
0.000722892
0.00596889
0.00283762
0.00276047
0.00596075
0.00555122
0.00193564
0.00580541
0.00593298
0.00602001
0.00592782
0.00591513
0.00606917
0.00586003
0.00589924
0.00587804
0.00151587
0.0163372
0.00596219
0.00118418
0.00591741
0.00580096
0.00583798
0.00249741
0.00594658
0.00196903
0.00192172
0.0037513
0.00272241
0.00396715
0.00579691
0.00987777
0.0058276
0.00595484
0.0057661
0.00583453
0.00286995
0.000275145
0.00589487
0.0058427
0.00579981
0.00586584
0.00423975
0.00591436
0.00579767
0.00510192
0.00197598
0.0124121
0.00584812
0.00299798
0.00185141
0.000203103
0.00579682
0.00562836
0.00653677
0.00594537
0.00545813
0.00582343
0.00178574
0.00591045
0.00442579
0.00117468
0.00584057
0.005619
0.00574256
0.00592346
0.00582536
0.0025155
0.0058718
0.0112938
0.00979798
0.013006
0.000921018
0.0110691
0.00595931
0.00199604
0.00284622
0.00585959
0.00583497
0.0027247
0.00609626
0.00595772
0.00310412
0.00588151
0.00588112
0.00581379
0.00311934
0.00591937
0.00291632
0.00489904
0.00585944
0.00258718
0.00582248
0.00195679
0.00301828
0.00588925
0.00594901
0.00582576
0.011784
0.00604828
0.00596301
0.00596275
0.00216325
0.00316585
0.00134142
0.0059536
0.0015251
0.00583577
0.00594408
0.00588116
0.00204995
0.00308352
0.000393131
0.00142565
0.00591505
0.00582865
0.00201773
0.00103899
0.00595718
0.00282605
0.00583621
0.00270654
0.00590214
0.00584381
0.00124558
0.00582732
0.00151601
0.00250568
0.012174
0.00300345
0.00311229
0.00542606
0.00267996
0.00575752
0.000511968
0.00589298
0.00582937
0.00191817
0.0058424
0.00351443
0.00198896
0.00591957
0.011331
0.0034628
0.0134658
0.0111461
0.00138596
0.00569067
0.0047855
0.00670346
0.00579482
0.00200303
0.00579538
0.0105546
0.00760547
0.0134225
0.00913601
0.00584549
0.0023847
0.00586635
0.00588246
0.00298506
0.00318228
0.0134429
0.0036652
0.00595134
0.00231093
0.00591661
0.0119711
0.00590888
0.00595753
0.00591827
0.00584323
0.00594112
0.00593343
0.00543241
0.00103233
0.00594308
0.00279401
0.00589391
0.00584495
0.00241898
0.006087
0.00115334
0.00591333
0.00322843
0.0022589
0.00584701
0.00579949
0.00599528
0.00317552
0.00238749
0.00472968
0.00579952
0.00133408
0.00582674
0.00543987
0.00379566
0.00591941
0.00595089
0.00580455
0.00584409
0.00584568
0.00535195
0.0116061
0.0124425
0.00235368
0.0018653
0.00309602
0.00536074
0.00595654
0.00590739
0.00343718
0.00788027
0.00155232
0.00606247
0.00594009
0.0124222
0.00578693
0.00583217
0.0129791
0.00308507
0.00595786
0.00586194
0.00584168
0.00589498
0.00544341
0.00580881
0.00156827
0.0021746
0.00506052
0.00580282
0.00590512
0.00292635
0.00598699
0.00602141
0.0113721
0.005838
0.00594141
0.00586439
0.012814
0.0057398
0.00332161
0.00606509
0.00581428
0.00589612
0.0035305
0.00231455
0.00599819
0.00669461
0.00165609
0.00592572
0.00125508
0.0012506
0.0019956
0.00604234
0.00214916
0.00389587
0.00398554
0.00202527
0.00487668
0.0012748
0.00529197
0.00299064
0.0123767
0.002426
0.00279528
0.00176791
0.00114154
0.00583313
0.00225125
0.00591644
0.00128375
0.00270931
0.00586963
0.00592098
0.00312884
0.00588857
0.00185907
0.00539951
0.00590202
0.00204762
0.00591827
0.00302491
0.00183157
0.00306076
0.0024889
0.00631929
0.00587585
0.00137985
0.00566619
0.00592972
0.00591249
0.00586171
0.00211284
0.00586513
0.00590056
0.00281123
0.00590456
0.00107052
0.00590354
0.00531121
0.00801139
0.00644877
0.0110692
0.00584447
0.016401
0.00306724
0.00142901
0.00733297
0.00593975
0.0090667
0.0026483
0.0058707
0.000802811
0.00587334
0.0059862
0.0130665
0.00582627
0.00585012
0.00184517
0.000634585
0.00361125
0.00569275
0.00124005
0.00559926
0.0056344
0.00591688
0.00377125
0.00694851
0.00567412
0.00592465
0.00589538
0.0059599
0.00581877
0.00582115
0.0117734
0.000286862
0.0019427
0.0024108
0.00586392
0.00596151
0.0023297
0.00418192
0.00252998
0.00575873
0.0058998
0.00544529
0.00583019
0.00124608
0.000724328
0.0125367
0.00585999
0.00592398
0.00514899
0.00117063
0.00879735
0.000458314
0.00934781
0.00532697
0.00590359
0.0056162
0.00601618
0.00170658
0.0058074
0.00114124
0.00252076
0.00989135
0.00591324
0.00602014
0.0058515
0.00842855
0.00591976
0.0149535
0.00185315
0.00583821
0.00116459
0.00592497
0.00193871
0.00298197
0.003124
0.00589535
0.00591642
0.00568677
0.00527582
0.00529543
0.00566574
0.00323354
0.00580214
0.00589851
0.00579643
0.00889604
0.00778393
0.00592744
0.00155848
0.00245378
0.0058188
0.00130999
0.00284995
0.00594602
0.00589782
0.00581775
0.00603551
0.00231603
0.00192321
0.00568089
0.00212595
0.000931159
0.00603704
0.00239837
0.00524076
0.00581768
0.00590213
0.0028364
0.00445285
0.00539952
0.00596118
0.00602433
0.00520662
0.00215698
0.00580228
0.00381784
0.00971325
0.00229613
0.00595813
0.00586422
0.00325133
0.00580067
0.00594062
0.00593817
0.00200648
0.00583386
0.00355732
0.00298366
0.00591801
0.00332061
0.00406531
0.00582488
0.00427402
0.00575808
0.00595822
0.00590717
0.00591357
0.00229304
0.00606484
0.00604662
0.00956152
0.00583612
0.00595017
0.00600215
0.00594021
0.00459277
0.00581833
0.0058242
0.00832488
0.0037047
0.0102058
0.00851608
0.00417573
0.00584193
0.00557474
0.00585002
0.00115943
0.00584729
0.00184835
0.00587506
0.00185541
0.000500888
0.000483794
0.00306628
0.00586514
0.00583421
0.00582856
0.0037147
0.00328583
0.00581767
0.00473002
0.00194294
0.000423392
0.00574821
0.00583882
0.0110178
0.00312373
0.00200054
0.00594129
0.00531659
0.00583206
0.00581228
0.0102821
0.00304735
0.00586529
0.00584174
0.00539836
0.00595119
0.0102439
0.00198763
0.00281674
0.00369268
0.00583548
0.000692199
0.00591649
0.000498383
0.00595162
0.00453396
0.0018086
0.00595703
0.00447807
0.0155425
0.00171775
0.00593961
0.00549609
0.00593633
0.00569805
0.00985144
0.00563553
0.00195707
0.00206447
0.00126803
0.00596125
0.00108788
0.00536146
0.00592445
0.00416429
0.00585989
0.00600663
0.00552862
0.00464649
0.00977135
0.00449611
0.00327722
0.00380143
0.00116733
0.0058508
0.0020431
0.00580447
0.00577755
0.00361572
0.00578156
0.00591073
0.00123127
0.00396614
0.00586232
0.00155265
0.00588321
0.00595937
0.00580286
0.00580256
0.00584112
0.00599761
0.00581945
0.00311563
0.00752792
0.00593723
0.00549834
0.00588413
0.00580033
0.00313792
0.00597539
0.00585261
0.021327
0.00246781
0.00210128
0.00139831
0.00157242
0.0059373
0.0052258
0.00583318
0.00356605
0.00216941
0.0107943
0.0120812
0.00915229
0.00593555
0.011652
0.00736811
0.00586194
0.00596167
0.000477866
0.00166255
0.0087246
0.0043285
0.005809
0.00583534
0.00554352
0.00111
0.00263591
0.00225134
0.000727375
0.0058333
0.00171245
0.00584916
0.00320728
0.00596505
0.00161542
0.00589097
0.00253301
0.00331349
0.00203425
0.00207283
0.00594375
0.00382769
0.00632191
0.0048057
0.00965975
0.00556621
0.00597652
0.00595837
0.00595604
0.00196544
0.00188469
0.00332397
0.00442859
0.00583574
0.0019646
0.00592532
0.00581457
0.00591505
0.00595138
0.00185359
0.00595832
0.00879238
0.00294834
0.00592566
0.00592412
0.00579454
0.00157229
0.00593132
0.00948289
0.00584209
0.00594851
0.00607183
0.00961915
0.0059044
0.00974024
0.00283343
0.00594929
0.00161536
0.00588711
0.00594479
0.0058345
0.00591994
0.00587513
0.00846259
0.00315061
0.00581144
0.0058622
0.00593179
0.00586253
0.00587169
0.00593102
0.00570678
0.00312487
0.00595086
0.00295059
0.00580472
0.00586044
0.00606502
0.00605885
0.00593782
0.0023132
0.00590485
0.00290745
0.00592124
0.00579621
0.00593984
0.00147183
0.000817846
0.00214407
0.00603844
0.00291064
0.0040272
0.00470339
0.00601077
0.00217559
0.00572478
0.00431972
0.00260481
0.00588254
0.00593761
0.00204423
0.00323505
0.00251381
0.00591953
0.00225198
0.00952468
0.00530476
0.00055141
0.00583359
0.00589216
0.00236753
0.00334153
0.00595962
0.010062
0.00545004
0.0105292
0.00588797
0.00592781
0.0058405
0.0112122
0.0011295
0.00245324
0.00211082
0.00583311
0.00592988
0.00201589
0.0052705
0.00585083
0.00444963
0.00565115
0.00196
0.00593462
0.00583671
0.00491468
0.00582667
0.00602014
0.00201517
0.00593259
0.00483167
0.00245638
0.0041367
0.00596007
0.00393061
0.00581335
0.00581316
0.00561406
0.00584551
0.00595473
0.00594193
0.0058473
0.00586083
0.00528254
0.00584612
0.00591917
0.0019057
0.00209121
0.00582996
0.00121155
0.00591977
0.00412149
0.00598006
0.00592597
0.00589049
0.00394831
0.00591819
0.00863707
0.00559943
0.00582829
0.00211344
0.00295153
0.00584767
0.00572568
0.00610067
0.00603671
0.00288607
0.00580159
0.00187282
0.0058008
0.00585139
0.00587518
0.0017846
0.00342846
0.00584978
0.00585606
0.00298223
0.00101821
0.00141757
0.00382258
0.00187665
0.00318398
0.00592637
0.00582372
0.00582683
0.00580178
0.00579059
0.000569993
0.00592946
0.00584631
0.00363485
0.00570887
0.0058492
0.00426237
0.00113118
0.00305042
0.00587725
0.00300757
0.00595798
0.0103182
0.00282857
0.00589409
0.00697974
0.00586344
0.00592949
0.00588178
0.00374252
0.00547448
0.00583178
0.00586723
0.0115563
0.00447684
0.00582893
0.0116081
0.00591703
0.0059145
0.00233997
0.00283419
0.00214434
0.000776289
0.00514547
0.00137197
0.0115449
0.00948526
0.000943095
0.00574404
0.00580739
0.00586611
0.0059343
0.00585291
0.00290218
0.0105611
0.00600122
0.0010008
0.00130126
0.00650624
0.00289233
0.00594815
0.00572412
0.00583555
0.00188695
0.0059397
0.0132757
0.00595321
0.00591646
0.0114926
0.00586774
0.00141816
0.00223041
0.000837196
0.00329644
0.00540784
0.00572086
0.00585146
0.00592824
0.0110181
0.00585101
0.00587292
0.0014328
0.0018004
0.00596253
0.00433847
0.00600228
0.0109565
0.00184553
0.00590019
0.000841459
0.00582573
0.00582436
0.00394535
0.0060896
0.00538788
0.00311291
0.00584349
0.00596921
0.00410979
0.00990749
0.00252536
0.0058477
0.0179725
0.00580674
0.00341432
0.0135115
0.00571957
0.00592058
0.00580152
0.00827313
0.00559607
0.00287011
0.0036629
0.00544453
0.00561817
0.0023254
0.00598906
0.0105244
0.00111256
0.00283208
0.00280116
0.00159911
0.00595364
0.0126291
0.00582552
0.00188957
0.0101027
0.00112857
0.00261618
0.00585096
0.0126334
0.00389019
0.00572113
0.00083002
0.00588783
0.00594092
0.0059507
0.00272895
0.00585138
0.00440829
0.00589072
0.00583556
0.00592817
0.0057945
0.00592205
0.00585879
0.0118555
0.00594767
0.00667472
0.00583581
0.0039343
0.00593078
0.00589445
0.0100959
0.00596288
0.00598102
0.00788687
0.00582962
0.0101598
0.00437141
0.0127263
0.00098094
0.00429512
0.00586951
0.00579712
0.0059594
0.0031198
0.00579648
0.00583904
0.0120033
0.00584615
0.00594293
0.00167737
0.00250248
0.00591426
0.00585138
0.0187548
0.00591608
0.00593148
0.00587474
0.00594483
0.0102157
0.00595763
0.00592872
0.000857618
0.00591826
0.00582637
0.00585343
0.00604794
0.00603956
0.00582134
0.00963929
0.00420914
0.0172316
0.00582827
0.00582564
0.00583382
0.00201732
0.00426039
0.00582702
0.000949944
0.00586288
0.00261822
0.00555517
0.0027722
0.00395941
0.00322724
0.00583814
0.00585371
0.000945247
0.00590183
0.00111821
0.00443356
0.00327212
0.00729561
0.00305407
0.00586543
0.0054831
0.0038597
0.00565499
0.00574024
0.00578927
0.00384885
0.00267636
0.00594488
0.00320058
0.0111146
0.00449861
0.00229577
0.0025034
0.00938469
0.00313904
0.00581445
0.00593928
0.0180544
0.0141521
0.00308167
0.000575687
0.00462841
0.00131103
0.00919289
0.00178143
0.00365269
0.0058418
0.0117922
0.00146152
0.00589739
0.00193209
0.00306125
0.00349796
0.00587916
0.00324838
0.00553653
0.00579652
0.00241912
0.00511801
0.0108303
0.00587335
0.00331843
0.0058468
0.000968956
0.00294319
0.00585478
0.00320935
0.00571489
0.0114681
0.00185003
0.0059393
0.000749285
0.00587609
0.0108379
0.00574632
0.00595585
0.00582956
0.00117827
0.0059441
0.000449909
0.00583387
0.0103853
0.00582987
0.00593498
0.00195634
0.00581966
0.00586482
0.00582449
0.00143339
0.00252828
0.00624746
0.00477914
0.00583924
0.00584043
0.00300899
0.00593142
0.00582931
0.00211139
0.012804
0.00174734
0.0112453
0.00582944
0.00520554
0.00596455
0.00113611
0.00572123
0.00238154
0.00263181
0.0126513
0.00592559
0.0118634
0.00594868
0.00596238
0.00584059
0.00507338
0.00207239
0.00559231
0.00566479
0.00589949
0.00902656
0.00137757
0.00956219
0.00307255
0.0027586
0.00579948
0.0011038
0.00593417
0.00583685
0.000523773
0.00586607
0.000956749
0.00583946
0.00581183
0.00250869
0.00575252
0.00185702
0.00235981
0.00783964
0.00592983
0.00579479
0.00117959
0.00593309
0.00292314
0.00259414
0.00505822
0.0117961
0.00596236
0.0105967
0.0016721
0.00594221
0.00962375
0.00269093
0.00430416
0.0049353
0.00252028
0.00134055
0.00127817
0.0060754
0.00256959
0.00201841
0.00285606
0.00580078
0.00377919
0.00600615
0.0156511
0.00591261
0.011948
0.00578204
0.00595399
0.00589674
0.00585395
0.0102812
0.00583654
0.00584876
0.00207259
0.00594855
0.00301593
0.00306656
0.00578731
0.00486612
0.00584177
0.00302777
0.00584675
0.00593568
0.00595217
0.00195907
0.00583659
0.00226017
0.00214305
0.00580436
0.00596142
0.0059059
0.00114437
0.0058959
0.00585988
0.00579972
0.00587216
0.00370244
0.00584585
0.00591247
0.0154421
0.000943545
0.00247742
0.0054377
0.00583912
0.0057392
0.00195577
0.00600427
0.00491628
0.00583359
0.00585992
0.00485466
0.00577947
0.00584286
0.00275717
0.000399495
0.00579994
0.00579817
0.00117583
0.00275136
0.00323421
0.00583931
0.0059177
0.00523427
0.00594362
0.00595747
0.00583112
0.00272225
0.0111822
0.00071015
0.0116394
0.00410897
0.00583897
0.00583817
0.00203416
0.00595917
0.00222191
0.00358641
0.00255413
0.00242463
0.00584494
0.0058207
0.00549275
0.00592525
0.00591914
0.00299133
0.000938137
0.00592775
0.00270242
0.0059201
0.00590667
0.00594032
0.00599921
0.00435007
0.00584778
0.00553692
0.00531708
0.00594576
0.00243071
0.00541155
0.00440915
0.00601829
0.00154203
0.0058243
0.00587563
0.00584511
0.003054
0.00548384
0.00286037
0.00596291
0.00589782
0.00197076
0.00145742
0.00601161
0.00593979
0.0158096
0.00509822
0.00594977
0.010514
0.0106929
0.0057467
0.0118596
0.00589364
0.00254545
0.000585112
0.00580307
0.00279612
0.00254652
0.00218816
0.00339068
0.000846266
0.0118073
0.00580471
0.0123636
0.0059329
0.010919
0.00592625
0.0115188
0.00541233
0.00582599
0.00582359
0.00594994
0.00583726
0.00308182
0.0026326
0.00762268
0.00583787
0.00313313
0.00592459
0.00586276
0.00595905
0.00952715
0.0176557
0.00529578
0.00562273
0.00218369
0.00596092
0.00603649
0.0129789
0.0103365
0.00580581
0.00119408
0.00287631
0.00582486
0.00276234
0.00582004
0.00589692
0.00594882
0.00241622
0.0059545
0.00179957
0.0057667
0.00568786
0.00586637
0.00594961
0.00289401
0.00588277
0.00282901
0.000970791
0.0109118
0.0125211
0.00594328
0.00590308
0.00590641
0.00105454
0.00184345
0.00589982
0.00576759
0.0058375
0.00147105
0.00585416
0.0130053
0.00583982
0.00583797
0.00581753
0.00549302
0.00126946
0.00514311
0.00147885
0.00203531
0.00577401
0.00560011
0.00441987
0.00591058
0.00237735
0.00591613
0.00584109
0.00596282
0.00593851
0.00596049
0.00590041
0.00231659
0.000179132
0.0058516
0.00581245
0.00260206
0.00318364
0.00202971
0.00830763
0.00186827
0.00180983
0.0036749
0.000199448
0.0103447
0.00586174
0.00592865
0.000328258
0.00579674
0.00246349
0.00590071
0.0112089
0.00578774
0.0105082
0.00591736
0.00580976
0.00208821
0.00583892
0.00114996
0.00260161
0.00591399
0.00594615
0.00586336
0.00590713
0.00562259
0.00595229
0.0107439
0.00579865
0.00591116
0.00588096
0.00198217
0.00540973
0.00202633
0.00228386
0.00150562
0.00274427
0.00254081
0.00180964
0.00591711
0.00582289
0.00582683
0.00586216
0.00294793
0.00574776
0.0149637
0.00166576
0.00583709
0.0064454
0.00582738
0.00807695
0.00362374
0.011439