/*--------------------------------*- C++ -*----------------------------------*\
| =========                 |                                                 |
| \\      /  F ield         | OpenFOAM: The Open Source CFD Toolbox           |
|  \\    /   O peration     | Version:  v2012                                 |
|   \\  /    A nd           | Website:  www.openfoam.com                      |
|    \\/     M anipulation  |                                                 |
\*---------------------------------------------------------------------------*/
FoamFile
{
    version     2.0;
    format      ascii;
    class       volScalarField;
    location    "300";
    object      omega_0;
}
// * * * * * * * * * * * * * * * * * * * * * * * * * * * * * * * * * * * * * //

dimensions      [0 0 -1 0 0 0 0];


internalField   nonuniform List<scalar> 
37809
(
0.0231092
0.0798639
0.0288714
2.26118
0.0237354
0.0247401
0.0238569
2.86446
0.0252872
0.0367304
0.0287021
0.029439
0.024386
0.0274579
0.0256796
0.0264183
0.0247536
3.8137
0.0293938
0.0246914
0.0264136
3.09852
0.347303
0.0260517
3.20097
0.0261461
0.0289666
2.78112
0.0347153
0.022731
0.0282604
3.13631
0.0245946
0.0587482
0.0295055
0.0245981
0.0920566
2.78529
0.140943
0.0234053
0.0222897
0.139476
0.026488
0.0380075
0.0245482
0.0302952
0.0257213
0.0267339
0.0263481
0.0943156
2.8346
0.95304
0.0630457
0.0551206
0.0292384
0.0238613
0.13635
0.0284375
0.192674
2.81885
0.030264
0.0347126
1.80331
0.0380291
0.0265459
0.0256796
0.0771551
4.22505
0.0362042
0.0601477
0.0238686
0.0251797
0.938051
0.154439
0.0240667
0.142006
0.0918041
0.0229216
0.0262391
0.0256861
0.0386932
3.78701
0.0248282
0.0619972
0.0619383
5.08522
0.0248743
2.82952
0.0362712
0.0921972
0.0261565
2.93167
0.033154
0.024158
0.0342372
0.0229348
3.39456
0.0229236
0.0220731
3.25969
0.0250971
0.139843
0.0231286
0.0264185
0.0583444
0.0254778
3.1012
0.0243972
2.7889
0.536993
0.024198
0.153503
4.01894
0.0234042
2.89255
3.99973
0.0255721
0.0236761
0.146007
0.0250889
0.091597
0.0410081
2.94348
0.0245079
0.0233541
0.107056
0.0228148
0.0263498
0.0228288
0.0228823
0.0286218
0.025624
0.0243432
0.0233559
0.0228141
0.0239679
0.0396636
0.165768
3.50514
0.0270294
0.0297444
0.140325
0.0277338
0.0250326
0.022894
0.0239182
0.0297196
0.02665
0.0228464
0.0228124
0.295565
0.0250321
0.0254098
0.169421
0.0228392
0.0281133
0.0228143
2.39817
0.022097
0.0240565
0.0246093
2.8175
3.1061
0.0256599
0.0228575
0.0582511
0.024617
0.133873
0.0263475
0.349618
0.0246761
0.0972688
0.0250218
0.0250913
0.0277417
0.0233362
0.0253226
0.0244351
0.0454131
0.0239611
0.0239874
0.14746
0.0237709
0.0239817
0.0244942
0.0230261
2.92853
0.0250258
3.38416
0.0872016
0.314009
0.106081
0.0247049
0.141005
0.0241807
0.024815
0.0248129
0.165641
0.0249539
2.94765
0.329568
0.0387075
0.0247372
0.0267159
0.0306357
0.0256272
0.0240275
2.85145
0.0230759
3.95008
0.118761
0.150127
0.390322
0.0957886
0.0249063
0.0221095
0.152643
0.144775
0.0231229
0.348795
0.0772975
0.024788
0.0306018
0.0264952
0.0253826
0.147125
0.02392
3.351
0.0228027
0.739693
0.02592
0.0247868
0.0251997
0.0247388
0.0265483
0.0830562
3.16561
0.026501
0.0257278
0.0229955
0.10274
0.0239666
0.0568316
3.40771
0.0386299
0.0287196
0.144598
0.0535529
3.46985
0.0401097
0.0244078
0.0239085
0.0341302
2.8036
0.0251399
0.0244887
0.0521654
0.024508
0.0249836
0.0291709
0.023965
0.024407
0.0249576
0.0259472
3.73357
0.0248
3.15625
0.153271
0.022922
0.0254252
0.024092
0.0249465
0.0238851
0.0474149
0.0414413
3.7789
0.0267319
0.0264603
0.0245943
3.95523
0.147042
0.0246523
0.0264615
1.75383
0.0985158
0.0244997
3.19036
0.0337651
0.0236572
0.346874
0.0264598
0.025634
0.0516045
3.34977
0.0367598
0.0236693
3.23176
0.0243907
0.024377
0.0559377
0.181847
0.0238111
0.0264537
0.0346902
0.0256636
0.0273108
0.0243919
0.0252828
0.0257459
0.0522105
0.0289327
0.024798
0.0248296
0.0593788
0.0883676
0.0236239
0.0858041
0.0230442
0.302977
0.0575774
0.0292547
0.0603764
4.01304
0.597418
3.30442
0.0231433
0.0362602
3.38338
0.024569
0.0266517
0.0473092
0.0484249
1.5075
0.0227964
0.0248048
0.0233884
0.0250232
0.140759
3.01142
0.0250246
3.09888
0.0236227
3.63376
0.0832002
0.0232891
0.0248305
3.46799
3.50007
0.0357794
0.0285355
0.027375
0.0253321
0.0262643
3.57812
0.0379458
0.0251147
0.0221746
3.21618
0.460865
0.024118
0.0228447
0.279279
0.0318738
0.0228603
0.0233081
0.0568318
0.0238909
0.154624
0.0676996
0.0230305
0.0301006
0.0230157
0.0256083
0.0228147
0.0740651
0.0238734
0.0241089
0.0243769
0.0408874
2.9284
0.0289976
0.0251481
1.79596
0.144577
0.0561006
0.0233287
0.0262105
0.151978
0.0440177
3.07946
0.0234424
0.0296814
2.837
0.0446762
0.0457441
0.0233229
0.0234332
0.023354
3.53571
0.0241044
0.0233532
0.0240016
0.0287004
3.35216
0.0265802
4.65982
0.099066
0.0228363
0.030999
0.11998
0.0257239
0.0267897
0.0421435
0.08471
0.123399
0.0229572
0.0240927
0.0280338
0.0480048
0.226342
0.0238753
0.0233529
0.0258499
0.104227
0.319081
0.102262
0.028831
0.0227775
0.0245772
0.0238863
0.0227841
3.07194
0.0484789
0.0491745
0.0296856
0.0285693
0.0304191
3.31662
0.0246921
0.560041
0.0246543
0.0292854
0.0235333
0.0251107
0.0230395
0.0227914
0.0237313
0.0233227
0.0236512
0.0274427
0.0247239
0.0251108
2.54012
0.024875
0.0257447
0.0240762
0.0239306
0.0275994
0.0244841
0.0295702
0.0799097
0.024985
0.0510876
0.0233476
0.0247797
0.0635649
0.0235791
0.0233695
0.069965
0.0318532
0.0545915
0.0236391
1.6007
0.0288664
2.85752
0.0247175
0.0256601
0.223727
0.0402236
0.0235296
0.0266908
0.308748
3.14229
0.0239841
0.155552
0.0246713
3.53914
0.0354807
0.024086
0.142741
0.0250497
0.0240765
3.1029
1.30281
0.0230901
0.0249805
0.023632
0.0227094
3.2027
3.54385
0.0226955
2.22017
0.0435483
0.022878
0.0230106
0.022692
0.0278441
3.19486
2.78548
1.27712
0.023397
2.83632
0.0244916
0.0241792
0.156606
0.0239939
0.0521764
0.117988
1.83637
0.0266707
0.145017
0.0226843
0.0747093
0.340947
0.0440808
0.0251079
0.0938706
0.0770155
0.0240822
0.0523705
0.0245892
0.0304794
0.0270994
0.0337898
0.0250494
0.0458145
0.0597261
3.60021
0.022683
0.0254845
0.0239343
0.0385923
3.22815
0.0949233
3.17889
0.0525392
0.0280184
0.0260663
0.0304087
0.0602859
3.15944
0.0528826
0.0242358
0.0255421
0.0602747
0.0353246
0.0471385
0.0288221
0.054208
0.146802
3.54708
0.0239581
0.0228632
3.2344
0.0249774
0.0235595
0.0228017
0.0229021
0.0261988
4.22448
2.96066
2.09031
3.11368
0.0244308
0.0262277
0.45982
0.0262311
0.0280498
0.0378278
0.45978
0.0237241
0.024406
0.0230999
0.0234272
0.0901041
3.74553
0.0233746
0.0310196
0.0498333
0.0344552
0.0239248
0.0228401
0.186346
0.0226519
1.90311
0.16507
0.0387436
0.0256306
0.0229758
2.88974
0.0289434
0.0291859
0.0248171
0.0238546
0.0332622
0.1143
0.0336459
0.0261051
0.0247196
0.0410451
0.103054
0.0379429
0.0257295
0.0599484
0.0271159
2.93828
0.0586798
0.149136
0.0254496
2.78202
0.221654
0.548334
0.0566031
0.0394952
3.40405
0.0244444
0.0267052
0.04382
0.0471889
0.0237054
0.0409702
0.413636
0.0254969
0.0260009
4.62009
1.33295
0.0434842
0.0386752
5.39048
0.0242611
0.0403174
3.5385
0.0253035
0.133811
0.0229478
0.0252439
0.0229642
0.0927145
0.0289132
0.0467942
0.0450117
0.0267103
0.160226
0.0282454
0.0475071
0.066507
0.0252594
0.0251526
0.0228205
2.16028
0.0246969
0.0570127
0.0258065
0.0268245
0.0236948
0.0261733
3.96918
0.0237814
0.0228468
0.0229335
0.0271196
2.63011
0.0581027
0.247081
0.0236864
0.0247544
0.190342
0.0239408
0.0238525
0.0994696
0.0230593
3.19998
0.0889246
0.113182
0.0262702
0.023584
0.0237932
0.0242554
0.0251891
0.334818
0.314059
0.026505
0.0267856
0.0227124
3.71606
0.0283924
0.0247011
0.0235964
0.29915
0.0289218
0.0257856
0.110965
2.65061
0.179466
0.028723
3.10204
0.0231663
0.162383
0.0271546
0.0230803
0.0257407
0.124878
0.0227049
0.0244631
0.0226796
1.38726
0.366149
2.06035
0.0242334
0.0247482
0.0246516
0.0252114
0.0243639
0.0556058
0.0263885
0.0252
0.0226259
0.0229728
0.14651
3.42186
0.0515601
0.0376513
0.025642
0.0276927
0.0240586
0.0239766
0.0282471
0.194422
0.0256994
0.260943
0.0314655
1.15143
0.0246856
3.8443
0.102928
0.0226651
0.0234229
3.89023
0.0240894
0.0242064
3.10484
0.023184
0.0524827
0.0234173
0.133746
0.0249328
0.0244148
3.41467
0.0460614
0.055361
0.0240855
0.0263257
0.0233125
0.0244916
0.0291408
0.0245393
0.0272984
0.0244462
2.33217
1.33584
1.37475
0.0291495
0.0253076
4.07952
0.0242051
0.0250706
0.0228249
0.0243636
0.0244994
0.0525505
3.56287
0.0226678
0.0226655
3.43696
0.0246126
0.0241722
0.0876576
0.0501089
0.142715
2.72646
0.0940002
2.76485
2.94102
0.0249036
2.89622
0.0252607
0.139497
0.0312552
0.0239729
0.0270405
1.84417
0.0260345
0.0239804
3.22146
0.0262851
0.0326395
3.43906
2.12687
0.02442
0.0590749
0.345078
0.0256637
0.0429369
0.0238149
0.0502015
0.295721
0.0242052
0.0237865
0.0505478
0.0227656
0.205044
0.157456
1.26476
0.0247648
1.22043
0.0829993
0.0244095
0.0240813
0.0238015
0.0237605
0.0247239
0.059146
0.150916
0.0256648
0.0244062
0.0640757
0.028025
0.0286844
0.0265048
0.0248351
0.0517619
0.02376
0.0281683
0.0235563
0.0245534
0.139881
0.0250927
0.0234971
0.0244425
0.0566002
0.0553032
0.0223089
0.0235766
0.0679656
0.0253113
3.33382
0.0323051
0.0432089
0.0229193
0.0347971
0.026454
0.024086
3.11908
0.0284838
0.0246331
0.395127
0.0243834
0.0220826
0.0247025
0.0459267
0.02209
0.175199
0.316063
0.0292074
0.0536283
3.44021
0.0432213
0.0231191
0.0247714
0.0291916
2.63766
0.0242016
0.0251689
0.0256993
0.0714792
0.02908
0.0520135
0.266404
0.0249341
0.278532
3.73763
2.61623
0.0801995
0.231761
0.0283536
0.0238675
0.0981118
0.025577
0.296887
0.0259847
3.05512
0.050681
0.0242503
0.0238227
0.0535735
0.320529
0.0254329
0.0254161
0.0245576
0.0234157
0.0240937
0.352605
0.0255724
0.0231123
3.55973
0.0237477
0.218619
0.0278136
0.0553733
0.0511223
0.0254631
0.023746
2.91877
3.37255
0.029063
0.0442214
0.0349001
0.0238174
0.023387
0.0488008
2.75938
0.0241645
0.0270271
0.115685
0.0432415
0.0243764
0.139988
0.0942136
0.0980432
0.0241286
0.0372891
0.0782604
3.20571
0.025404
0.024478
0.0256525
0.0250452
0.0252869
0.0246264
0.217326
0.0231702
0.0263214
0.11612
0.0248329
2.88954
0.0235781
2.69451
0.0228552
2.90719
0.238038
0.175155
0.02531
2.66381
0.029999
0.0273776
0.0480273
0.0355213
0.0870152
0.0233654
0.0235879
0.186906
0.0263994
0.936379
0.0398515
2.05257
0.0234832
0.0414038
0.0228163
0.0284442
0.192458
0.0361675
0.0446031
0.0236138
0.147176
1.17459
0.0632932
3.1267
0.0417564
0.0251037
3.06921
3.53585
3.87409
0.0412961
3.4012
3.96705
0.83606
0.0245518
0.0240142
0.0242346
0.0273653
0.0226533
3.28712
0.140101
0.0227208
0.0572916
0.0379455
0.0249201
0.0224964
0.0788732
0.0483395
0.0250909
0.0314488
0.0440544
0.0233338
2.24736
0.239295
0.152694
0.0233247
0.175665
0.0389324
0.548402
0.0230699
3.89988
0.037118
0.0411567
0.0396731
0.0230738
0.0228027
2.59246
0.0250671
0.02852
0.0629264
0.0415552
0.0262766
0.0275136
0.0240906
0.024309
0.0286511
0.0243518
0.0525733
0.0536949
0.0451334
0.140768
0.024315
0.0612098
3.01552
0.0309669
3.33597
0.0262423
0.0240274
0.0367485
0.181435
0.0221803
0.0257234
0.0361844
0.213006
0.0332596
0.0321413
0.0348384
0.0543554
2.60663
0.0249771
0.0286791
0.324973
0.0228369
1.01877
0.0309355
0.0583236
0.0267674
0.0247216
0.0299539
0.0436438
0.229975
0.0300858
0.0242534
3.17167
0.0784181
3.4636
1.16117
0.0249482
0.273629
0.0247157
0.0300656
0.0226379
0.0369954
0.0273468
3.98592
0.0242431
3.16851
0.0232766
0.0248306
0.0233609
0.052527
3.3192
0.0252087
0.0415889
0.0246832
0.042403
3.5433
3.41341
0.0233812
0.0367614
0.0228971
0.0232781
0.023762
0.0255983
0.0248634
0.028682
3.02917
0.0260509
0.239963
0.0501019
0.0230143
0.0410752
0.0255716
0.160684
0.025409
0.0249784
0.0276946
0.0222826
0.0381525
0.027935
0.147272
0.110988
0.0247392
0.022992
0.040673
0.0940674
0.0454444
0.0628342
0.0252857
0.0220914
0.0261587
0.0599263
0.331633
0.0295649
0.0469164
2.10781
0.173526
0.0390321
0.0250427
3.00021
0.209906
0.0231367
0.0243927
0.024469
0.0231442
0.0224817
0.0266445
0.116078
0.0869469
3.24353
2.76122
0.12333
0.0970722
0.0262828
0.0798456
0.0265923
0.0227419
0.0468504
0.0253585
0.0287722
0.0262729
0.0547757
0.0227219
0.0261414
0.0253424
0.0247361
0.0235817
0.0251368
0.0237304
0.0266279
0.0226295
0.0281873
0.0256739
0.0236043
0.0380537
0.0351303
0.0255529
0.023604
0.0318573
0.0237087
0.0236038
2.97993
0.0252587
0.529405
0.0939057
0.0229427
0.0228484
0.0230745
0.0247059
0.344076
0.458725
2.88693
0.0249038
0.0478882
0.0247968
0.023067
3.27128
0.0510412
0.0228538
0.0236772
0.0241648
0.0450365
0.0231477
0.0259709
0.0235947
0.0676864
0.0241234
0.026311
0.0404856
0.0234778
0.0233657
0.0237472
0.0242247
0.0228047
0.0236503
0.0328339
0.0227944
3.12854
0.0268098
0.0260653
0.0241121
0.108872
0.0512315
0.0295753
0.0234219
0.0250288
0.911928
0.0235208
0.0233661
0.0233149
0.0250228
3.42296
0.0275418
0.0236685
0.0225858
0.0331742
0.0308184
0.0585409
0.127644
0.0299776
0.279959
3.09291
0.0263624
0.0251502
0.027196
2.08271
2.58333
0.0231567
0.0246282
0.0385434
0.0591023
0.0500478
0.0233068
3.30855
0.0228982
3.22422
0.0238333
0.022116
0.0247156
0.0240739
0.0225691
0.0239078
0.0220918
3.91704
0.0247054
0.0246359
0.0225793
0.0227468
0.034127
0.0266972
0.287815
0.0227733
0.0265456
0.279475
0.114311
0.02691
0.0595581
0.183348
0.025423
0.0237953
0.0470794
0.100985
0.0681825
0.0541446
0.0357524
0.023676
3.0104
0.0308226
0.0240325
0.0260428
0.235219
0.33095
0.393954
0.0241823
0.0541515
0.0338194
0.0249088
0.029625
0.10012
0.0225963
0.025384
0.0250544
0.025495
0.0230735
0.0261768
0.0256139
0.0250584
0.0223612
0.414341
0.650739
0.0241397
0.176363
0.0230731
0.0225637
0.0236578
0.0289139
0.0241293
0.0759359
0.062741
0.028961
0.0291203
3.01024
0.022541
2.88719
0.0235867
0.0246896
0.0269003
0.0251101
0.0286324
0.900577
0.0258271
0.0239553
0.0225541
0.0227651
0.0302107
0.0254102
0.022549
2.79913
0.0357838
3.20185
0.0240687
0.0610626
0.0674811
0.915016
0.0225329
0.0273479
3.6221
0.0252015
0.0273366
0.0242256
0.110196
0.024783
0.0431287
0.176553
0.0239467
0.0278863
0.0262446
0.0231557
0.0233478
0.0352286
0.0227611
0.333201
2.77449
3.32254
0.238469
2.89799
0.0248748
0.0868002
0.0471296
0.0244838
0.0235316
0.0682092
0.0457396
0.0249516
0.035523
0.0248145
0.0248351
0.0235586
0.0574826
0.0241879
0.0630321
0.0347226
0.0244792
0.0361783
0.023838
0.0991159
0.0791924
0.0258858
0.0251909
0.0233438
3.08075
0.0256406
0.024924
0.0247905
0.0523818
0.057351
2.84175
0.0247257
0.131687
0.0235259
0.0248249
0.0242612
0.0544459
0.0414348
0.321081
2.52754
0.0233388
0.0239512
0.0825338
0.20341
0.0250862
0.0653255
0.0235489
0.0367567
0.0250002
0.0240855
0.165299
0.0240091
0.132591
0.0328815
3.13888
0.0388315
0.0355928
0.0295353
0.0434499
0.0269753
0.382324
0.0243042
0.0227399
0.10308
0.0237139
0.0368602
0.0734091
0.0231286
3.27944
0.187709
0.279278
2.97857
0.130859
0.0266947
3.03573
0.0315569
0.0224575
0.0351592
0.0224648
3.57723
3.58633
3.59723
3.96066
0.0245793
0.0288773
0.0244836
0.0244028
0.0395344
0.0384351
3.52833
5.05242
0.0250835
0.0585421
0.0255648
3.09644
0.0246408
0.0248814
0.0239323
0.024426
0.0238781
0.0240934
0.0261254
0.205563
0.0238779
0.035266
0.0243003
0.0240228
0.0328696
0.0263407
0.180509
0.0246548
0.0294321
2.85314
0.0262477
0.0227522
0.0258209
0.0351271
0.483284
0.473552
0.0227615
0.153293
0.0245443
0.0305641
0.0272748
0.0230998
0.0250847
0.0227397
0.024013
0.0245849
0.0300917
2.98872
3.25317
0.0801096
0.10422
0.0264608
0.0372651
0.0247448
0.0249014
0.0335985
3.91998
0.103227
0.0261684
0.023753
3.1724
0.0262233
0.0234048
3.57034
0.0267809
0.0242906
0.0231739
0.0244507
0.0227987
0.0305218
0.0264737
0.131924
0.0881562
0.0321906
0.0229356
0.0255475
0.0389785
0.0256599
0.0254487
3.44853
0.0228098
0.0248084
0.0227909
3.34724
0.0263715
0.0323598
0.0265289
0.0260087
0.0258184
0.0278927
0.0998268
0.0246033
2.69104
0.100245
0.0239662
0.16376
0.164553
0.0877468
0.0257569
0.269843
0.0255532
4.41908
0.0771291
0.0269941
2.55957
0.0274637
0.0421555
3.18429
0.0524489
0.0546758
0.0474464
0.183011
0.0233998
0.109606
0.025608
0.157484
0.0417779
0.0227842
0.0232911
0.0272746
0.025695
0.0789259
0.0297099
0.0229195
0.0337774
0.0253453
0.0412602
0.0946485
0.0638911
0.0525281
0.197895
0.0227802
3.13324
0.0269138
0.0242399
0.0256336
0.0231215
0.0910348
0.0237816
0.0228971
0.0657662
0.0255522
0.196457
0.0229212
0.0269247
3.40708
0.378549
3.16606
0.0257486
0.652943
0.0330053
0.14162
3.44035
0.0237539
3.68442
0.0386686
0.0247077
0.355856
0.0242463
0.0249361
3.53773
0.0243852
0.0244267
0.076609
1.88367
0.0273368
0.0274006
0.166036
0.028044
0.0277654
0.0256092
0.0474392
3.48406
0.0276005
0.0255335
0.0242931
0.0248399
0.0230652
0.0230739
3.0229
0.349087
0.0360739
0.0567941
0.0230916
0.0249834
0.0466652
0.0255112
2.80497
0.0267505
0.0243109
0.0295115
0.0235855
0.159531
2.50958
3.20748
0.0261443
0.0255365
0.0314994
0.161876
2.13446
0.135439
3.73871
0.03124
0.0257294
0.0280425
0.0251991
0.107856
0.0224653
0.183055
0.0452812
2.52324
0.0230486
0.0255168
0.0231478
3.49945
0.0239293
0.639946
0.08773
0.0244513
0.178406
0.024222
0.100787
0.0386494
0.0285384
0.0241881
0.0251283
0.0274497
0.0323963
0.0301036
0.0275942
0.0336355
0.0229213
0.0228219
0.0265715
3.66693
3.62459
0.0247985
0.128456
0.0490548
0.0234685
0.156084
0.0285125
0.0251842
0.0245175
0.0229083
0.026602
0.0466451
0.0534375
2.66281
0.065647
0.23355
0.02627
0.0297036
0.0251257
0.0229149
0.0246693
0.0560367
0.0283905
0.0375195
0.0249411
0.0256878
0.0274144
0.0470366
0.022749
0.0314812
2.58173
0.0467559
0.0249271
0.0244724
0.0345596
0.0227536
0.0237375
0.0240621
0.0797524
0.0227436
0.0278625
0.0403278
0.024528
0.0542347
0.0704118
0.0234616
0.0258294
0.0267385
0.0249515
0.024995
0.0239347
0.102889
0.0260556
0.0282676
3.71981
0.0246234
0.0250825
3.65281
0.0237089
0.0391584
0.0221944
0.0227439
3.25218
0.0304178
3.23648
3.00191
4.27043
0.0227964
0.0292367
0.0235714
0.180815
0.0235579
0.10438
0.0230286
0.0795952
1.3444
0.140857
0.0434434
0.0240385
0.0227103
0.0245626
0.0320728
0.0325932
0.0221957
0.0604607
0.0999407
0.788682
0.0270511
0.0235845
2.30149
0.0348193
0.0463762
0.0237385
0.0379515
0.0231383
0.0234076
2.8105
0.0273581
0.024043
0.0244766
0.0259548
0.024287
3.2205
0.243795
0.0324073
0.0334892
0.0246021
0.26508
0.0248256
1.34792
0.0249766
0.0370736
0.103393
0.024978
0.0284607
0.645186
0.114457
0.0242871
0.0283692
0.024347
0.0274239
2.81941
0.0277559
0.0991366
0.0351596
0.158917
0.0247902
0.180752
0.0296526
0.0247846
0.0417368
0.0237473
0.0247523
0.0271107
0.0358286
0.279399
0.0254563
0.0290525
0.0282754
0.177858
0.0242473
0.0541588
0.0230493
0.0268056
0.0304464
0.0259617
0.0254697
0.159268
0.025878
0.0246771
0.125273
0.0259331
0.0250354
0.02283
0.0257378
0.0240858
0.0260639
0.0238631
0.0295605
3.33275
0.0244706
0.0312214
0.0254075
0.0227461
0.0272856
0.0244351
0.024258
1.37509
0.0483631
0.067159
0.145128
0.110069
0.0244694
0.0257815
0.022934
0.0275898
2.82073
2.99826
3.09298
1.83255
0.0246524
3.73239
3.06996
0.0237676
0.024701
0.476686
0.123343
1.82839
0.139193
0.0224763
0.0236222
0.0286135
0.178398
2.61813
0.0848448
0.466979
0.0229392
0.11519
0.023103
0.0272141
0.024225
0.123288
0.0241194
0.0872743
0.0373865
0.0555414
0.0342482
0.0250511
0.0463467
2.82684
0.035002
0.274114
0.0284375
0.0243601
0.0249259
0.0249509
0.0559044
0.0984067
0.0268667
0.0381632
0.0245161
0.0802288
0.0296802
0.0371592
0.0256345
0.0246658
0.105568
0.024908
3.40032
0.0403348
0.0233788
0.0241912
0.0221326
0.107858
0.0232894
2.90209
0.0244168
0.0250973
0.0269617
0.575173
0.0257447
2.8881
0.0562265
0.0250907
0.123294
0.0259046
0.0250299
0.024514
0.0241735
0.0260108
3.16906
0.0382875
0.023407
0.0244854
0.0233085
0.0244804
0.0242764
0.023329
0.0272847
0.0298373
0.0242835
0.0394392
0.0230576
0.0224766
0.0274414
0.027408
0.0253422
0.069999
0.0230596
0.0429036
0.0296687
0.0225255
0.0237072
0.13359
1.55658
0.0478899
0.0280476
0.040959
0.0305805
0.0255692
0.0248743
0.110678
0.0271504
0.030462
0.0362241
0.0253937
0.0253795
0.0837819
0.0270677
0.0415825
0.0233417
0.0489187
2.76111
0.0261253
0.249419
0.0234541
0.0241164
0.0539333
0.0275195
0.0245671
2.68199
3.85732
2.7988
0.0246172
0.025022
0.0236041
3.00149
0.185381
0.039201
0.0519565
0.0234569
0.0233519
0.0596025
0.0261057
0.0249256
0.0282272
0.0277836
0.0951218
0.0234839
0.0245968
0.572457
0.023473
0.0255425
0.0471859
0.0234384
0.0356534
0.0949175
0.0688266
0.0249885
0.0280525
0.0235419
0.0235374
0.0274444
0.0244243
0.0247268
0.025303
0.0246109
0.025598
0.0305146
0.0238209
0.0233447
0.0568323
0.0674584
0.0232273
2.14655
0.0246839
0.0257766
0.0255646
0.0239569
0.0246303
0.0265915
0.0253451
3.27293
0.0269528
0.0232167
0.0464405
0.0463388
0.0257218
0.0263912
0.0265319
0.0256075
0.0327434
0.0228841
0.0839443
0.0228303
0.0230952
0.0246296
0.0693315
0.0314376
0.0242306
0.0230845
0.0382887
0.187833
0.141837
0.0309987
0.0973335
0.0336977
0.0233758
0.0229103
0.0245049
0.0228935
0.0267136
0.412583
0.0245517
0.0242566
1.30773
0.0265304
0.0242565
0.0292185
2.15903
0.0366627
0.0246353
0.0451503
0.0249808
2.91937
0.0738645
0.0249989
3.46074
0.0247199
0.0233187
0.0246797
0.0318327
0.0291993
0.0231449
0.0247946
3.43465
0.0302265
0.024568
0.368993
0.0246185
0.0239328
0.0335785
0.0456344
0.0472803
0.281013
0.0315391
0.131022
0.345085
3.1654
0.229795
0.34298
0.022162
0.0248375
0.0234234
0.0240132
0.0373827
2.91765
0.0245026
0.213475
0.180633
3.17616
2.89068
0.0251312
0.0272327
0.0245554
0.0525613
0.0250279
0.623195
0.0250186
0.0232458
3.75529
0.0244318
0.14291
0.116041
0.259072
0.0270048
3.09032
0.026857
0.0235627
0.0233197
0.305954
0.02456
0.0244528
0.167831
0.0463285
0.0247397
0.179445
0.0245893
0.300606
0.104586
0.0246534
0.276997
0.0242454
0.0228227
0.0314554
0.0263412
0.0383363
0.0623972
0.0240924
0.0248849
0.0258298
0.277694
0.0349724
0.0246057
0.632124
0.022737
0.0312429
0.279636
0.0272006
0.0250774
0.0228455
3.43429
0.0387386
0.0526599
0.0276131
0.0289057
0.0278936
0.0818427
0.0362216
2.68931
0.188793
0.040943
0.0381271
0.10882
0.0249889
0.381244
0.023457
0.0846059
2.80087
0.185565
0.0715071
0.0230207
3.37668
0.0265865
0.0268523
0.25671
0.0251337
0.0252951
0.0250643
0.0778956
0.024006
0.310346
0.0226245
0.0245514
0.023384
0.0224717
0.0252813
0.0244917
3.06002
0.0242341
2.11744
0.0235842
0.028202
0.0233697
0.0226476
0.28143
0.024738
0.0256103
2.04758
0.0252138
2.84927
0.0254888
3.27113
0.565608
0.281861
0.0244428
0.0225042
0.0348954
0.0622349
0.0224524
0.0228536
0.446853
0.0242621
0.0252874
0.101741
0.0453251
0.0248143
0.0242412
0.943042
0.0230041
0.0233473
0.0244646
0.0250499
0.372494
0.0248646
0.0233984
0.263955
0.024312
0.0242618
0.02299
0.0269609
0.0257522
0.0236897
2.64077
0.0408315
0.635438
0.024014
0.0242522
0.0244257
0.0947591
0.0400953
0.0263123
0.228073
0.0244562
0.040068
0.0371927
0.0271141
0.0276304
0.028656
0.0228591
0.0245059
0.500421
0.0248768
0.187125
0.02583
0.0423609
0.13106
0.0431686
0.0259993
0.028569
0.0284435
0.0274148
0.0270988
0.026607
2.96375
0.0527915
0.0252672
0.0535716
2.9921
0.0565008
0.0935325
0.042271
3.20752
0.0342042
0.0234199
0.0236516
1.14172
0.636511
0.0354013
2.09006
0.0260888
0.155939
2.86844
2.77961
3.05019
0.0250808
3.03794
0.136772
0.0229642
0.0806804
0.0442326
0.0332413
0.0244715
0.0287185
0.0284581
0.0224896
0.0619304
0.0315632
2.96607
0.0240319
0.0542455
0.0235335
0.222224
0.0681404
0.0245207
0.0590674
0.0264562
0.358614
0.0455083
0.0236488
0.756289
0.0242555
3.56116
0.0269306
0.0249352
0.0239685
0.176094
0.024353
0.283896
0.0244218
2.90143
0.0227062
0.0242675
0.0846144
0.0255978
0.0244674
0.0240189
1.99085
0.0431857
0.0361115
0.026053
3.80954
0.0233416
0.032165
0.0246321
0.0239751
0.0456807
0.359602
0.0766487
3.7827
0.0227133
0.0278474
0.0250362
0.183723
0.0271867
0.0539583
0.041555
0.301341
0.0239255
3.04259
0.0242003
0.0248419
0.0245748
0.025826
0.0463574
0.0251553
0.0270178
0.022987
2.65946
0.14746
2.77907
0.0330322
0.0394501
0.026637
0.863668
0.0234486
0.0235425
0.328457
0.0230177
0.227869
0.0245754
0.0257631
0.0915989
0.0270188
0.10481
0.0799497
3.87438
0.0234161
0.0225069
0.175475
0.0239831
0.0393984
0.0883501
0.032215
2.90457
0.0247228
2.85577
0.116434
0.0237726
3.21605
0.0780763
0.0300292
3.21106
0.0584055
0.131565
0.161298
0.026553
0.183644
0.0756591
0.0319854
0.022792
3.11724
0.024733
0.473427
0.0248196
0.316952
0.0256194
0.0249021
0.0248876
0.0245021
3.3724
0.0244266
0.0242622
0.0586545
0.0241632
0.0317982
0.026582
0.0256216
0.0345594
0.0246408
0.0438819
0.0245627
0.0234696
0.0246481
0.0473278
0.0245248
0.0844928
0.0949256
0.0227465
0.0249585
0.0229448
0.183375
0.0246003
0.0229519
0.0227741
0.0229568
0.0996145
0.0235672
0.0233099
0.474485
0.232307
0.0453211
0.039206
0.0246688
0.0270293
0.0873395
0.0248097
0.0340791
0.0262707
0.024553
0.0286136
0.0266936
0.0244597
0.0269486
0.284778
0.0227858
0.0225131
0.176424
0.0295562
0.055914
0.0242604
0.0256035
0.348901
0.0238999
0.0250846
0.0227587
0.0407451
3.80676
0.255033
2.40298
0.0291651
0.0245811
0.0245809
1.17927
0.0245645
0.100129
0.120375
0.0407097
0.0775381
0.0244314
0.0249886
0.0284419
0.0239286
0.0235543
0.0432345
0.234188
0.0239555
0.0387967
0.0235543
0.0244367
0.0250455
0.0254628
0.0635068
0.0244227
0.0284631
0.0393688
0.0241314
0.0637049
0.0260247
0.038562
0.0250515
2.9686
0.0239495
0.0259937
0.0235731
0.0360526
0.0288929
0.0577166
0.0248406
0.0230335
0.0461064
0.137138
0.0249519
0.0250466
0.650782
0.0276209
0.0250776
0.291338
3.45976
0.0262445
3.76451
0.0245672
0.0853769
0.708535
0.0227287
0.0295598
0.0658886
0.0875811
0.0268105
0.275054
3.03839
0.0230591
0.319293
0.0254385
3.38776
0.0231699
2.98047
0.0297
0.0239089
0.023147
0.0246429
0.0244424
0.0322841
0.0307637
1.14236
0.0239535
0.0351997
0.0255305
0.0237335
0.024666
2.55809
1.18367
2.77628
0.0278532
0.235046
0.0248723
0.026237
0.26745
2.65175
0.0252625
0.1735
0.0409028
0.0231557
0.0332864
0.0250155
0.0252633
0.0250965
0.0399207
0.0242854
0.109035
0.0264724
0.0471272
0.023748
0.0245763
0.0323204
0.0244841
0.0421054
0.224138
0.245172
3.25205
0.0241028
0.0243023
0.024815
0.19991
0.0828306
0.0242846
0.0260912
0.0269255
0.125368
0.0246115
3.53195
0.0244539
0.0245987
0.0234666
0.0284302
0.1617
3.08045
0.130825
0.034258
0.0267424
0.0283931
0.405968
0.0248144
0.0793099
0.0246202
0.0261334
0.0244623
0.024111
0.0249931
0.0246129
0.0493628
0.644299
0.0269607
0.0247823
0.0287009
2.98432
0.0907349
3.47902
0.0646894
0.118035
0.171516
0.710779
2.72173
0.0260373
0.024069
0.243313
0.0249713
0.0610384
0.0242809
3.14945
0.0221025
0.290372
0.0243516
0.0256589
0.0331821
0.0239843
0.181388
0.0579285
0.0256367
0.0238335
0.0225075
0.0246401
0.0278543
0.0242574
3.40702
0.0224437
0.0247456
0.0228737
0.0368097
0.0295928
0.0720049
0.0331294
0.128132
0.0291287
0.0331787
0.105154
0.0228882
0.0230695
0.0239547
0.0256005
0.0680586
0.0269368
0.475096
0.103761
0.0239469
0.320818
0.0244749
3.38181
0.0313241
0.300423
0.0334717
0.340884
0.0485834
0.0261093
0.0247287
0.0239496
0.385948
0.10529
0.025123
3.09949
0.0253849
2.31621
0.0266628
2.03084
0.0741188
0.0264787
0.34646
0.0235611
0.35575
0.0262073
0.100053
0.0252826
0.0257001
0.029063
3.80946
0.0247497
0.0331368
0.0240554
0.0777529
1.55346
0.0263541
0.0281002
1.86928
0.0258567
0.025693
0.0246403
0.0428265
0.0502156
0.0258191
0.026801
0.0246887
0.0263297
0.0250231
0.0266087
0.0251223
2.87764
0.0229584
0.0292541
0.040257
0.0252199
0.0241826
0.0237959
0.372709
0.0314588
0.0331331
0.0224495
0.0339663
3.50865
0.022473
0.0231782
0.024206
0.0298002
0.0357974
0.0245761
0.0267511
0.0281407
2.98974
0.0936477
0.0263674
0.0239501
0.0275481
0.0317953
0.0264039
0.0254305
3.1997
0.0268626
0.0260193
0.568623
0.0295493
1.84868
3.28692
0.0257626
0.315765
0.0429982
0.0269327
0.0709762
3.16197
0.0252199
0.0232508
0.024554
0.0268126
0.0239105
0.0349687
0.0658998
2.84387
0.0231415
0.0710872
0.0693116
0.0336
0.0902391
0.0256336
0.0225242
0.0300565
0.211486
0.0292127
0.0346092
0.0240406
1.84947
0.024457
0.0285426
0.220804
0.0290004
0.0304421
0.0248727
0.0245929
0.0764868
0.0245828
0.0231855
1.89047
0.0240738
0.0248436
3.99727
0.0253042
0.0302327
2.43789
0.0227275
2.80052
0.031251
0.027895
0.0474007
0.0246331
0.0336286
0.0434415
0.0245281
0.0334696
0.0320421
0.0235441
0.052449
0.0434704
0.184593
0.0449501
0.0240509
0.0279368
0.023126
2.15043
0.941335
0.0231582
0.0262331
0.0248179
0.0265038
0.0722619
0.0305411
0.0230733
0.0271738
0.0251311
0.0309199
0.0231685
0.0232493
0.0262516
0.0637447
0.0241583
0.286618
0.100517
0.0241726
2.84824
0.0226394
0.0393144
0.0920473
0.0340313
0.022494
2.77235
0.0263549
0.101005
0.0291668
0.0260397
0.199664
0.02672
2.7715
0.0238017
0.0703044
0.0244468
0.0313986
0.0261296
1.50079
0.0691206
0.023106
0.023095
0.0275344
2.97799
0.0224732
0.0256625
0.0262661
0.0226012
0.403745
0.0246053
0.0224599
0.0464162
0.024037
0.023681
3.15448
0.0676275
0.0249591
0.991287
0.0424862
0.0242643
0.0246501
3.68479
0.0224447
0.135248
0.0262541
0.036696
0.0241731
0.0240932
0.023116
0.0777228
0.946688
2.59597
0.0313055
0.0243272
0.0965039
3.2901
0.0246579
0.0262439
0.0241802
2.88445
0.025035
0.300026
3.72831
2.10959
0.0240163
0.299062
0.0245862
0.0725987
0.0250815
0.0230754
0.0716876
0.0326014
0.0242926
0.0443443
0.109268
0.0742748
0.0346503
0.144362
0.0261518
2.96975
0.16074
0.024026
0.0239796
0.274741
0.0466663
0.0606195
0.0231095
0.0367302
0.0227552
0.0229148
0.0399305
0.0292569
0.026477
0.0498161
0.0235866
0.0291067
0.0236514
0.611435
0.0229326
0.023928
0.0357381
0.0857694
0.0256184
3.17899
3.08183
0.0264079
0.0227501
0.024274
0.0266921
0.083096
0.0244291
2.97127
0.124553
0.104373
0.023642
0.0259283
2.74966
0.457938
3.31768
0.14407
0.0226018
0.125432
0.0650892
0.0374764
0.0227315
0.0230626
0.024047
0.088088
0.026889
2.79169
0.0245068
0.0230535
0.0240844
3.76796
0.0279488
0.0328974
0.0226152
0.0231922
0.0227959
0.0502337
0.0508879
0.0223857
0.0422938
0.172981
0.288741
0.0234884
0.185367
0.0241102
2.83289
3.35696
0.0227981
0.0230313
0.0499203
0.0247119
0.131084
0.0712607
0.0244156
0.0267002
0.0255526
0.0312673
0.0244255
0.0296482
1.32261
0.0298067
0.0231045
1.11032
0.290628
0.0582414
0.022764
0.022919
0.0234913
0.053505
0.0259885
0.0273333
0.0245257
0.0258258
0.0226092
0.239776
0.0228937
0.0231672
0.0227371
0.0230106
0.0254251
0.0257869
0.0467759
0.0260089
3.62352
0.0229086
3.82536
0.0349021
0.313854
0.32748
0.0245068
3.06189
0.0288381
0.0254756
0.0430909
0.036464
0.0574578
0.024605
0.100073
3.63049
0.362631
0.0281789
0.0360652
0.0824001
2.71855
0.0245308
0.0242021
0.0264553
2.71659
0.0238147
0.0249454
0.328591
0.0250564
0.0225494