/*--------------------------------*- C++ -*----------------------------------*\
| =========                 |                                                 |
| \\      /  F ield         | OpenFOAM: The Open Source CFD Toolbox           |
|  \\    /   O peration     | Version:  v2012                                 |
|   \\  /    A nd           | Website:  www.openfoam.com                      |
|    \\/     M anipulation  |                                                 |
\*---------------------------------------------------------------------------*/
FoamFile
{
    version     2.0;
    format      ascii;
    class       volScalarField;
    location    "300";
    object      p;
}
// * * * * * * * * * * * * * * * * * * * * * * * * * * * * * * * * * * * * * //

dimensions      [0 2 -2 0 0 0 0];


internalField   nonuniform List<scalar> 
37809
(
0.000752721
-0.0610374
-0.0467941
-0.0746369
0.000851081
0.000641414
0.000570004
-0.0568703
-0.0208516
-0.033704
0.000487734
-0.0238128
0.000759175
-0.00576647
-0.0161613
-0.0340887
2.78336e-05
-0.0747119
-0.0233497
-0.0197415
-0.0338732
-0.074851
-0.00298894
0.00021808
-0.0739714
-0.00234109
-0.0301673
-0.0914116
-0.0413267
0.000505709
0.0020055
-0.0751559
-0.0161865
0.00905462
-0.029685
-0.0161287
-0.0747738
-0.0772379
0.00157377
0.000946262
7.26114e-05
-0.0128799
-0.035854
-0.0321362
-0.0148155
-0.0280712
-0.0283325
-0.0133242
-0.0266257
-0.0293808
-0.093062
0.0100194
0.00888209
0.00854634
-0.0296736
0.000848291
-0.0601672
-0.0397289
-0.0640595
-0.0897495
-0.027595
-0.0371091
-0.0745094
-0.0327859
0.00126696
-0.0157924
-0.060811
-0.0746126
-0.0268034
-0.00989055
0.000873894
-0.00191916
0.0127036
-0.0809721
0.000153386
-0.00129393
-0.0297766
0.000587299
-0.0348859
-0.0152512
-0.033226
-0.0766451
-0.0244482
0.00887022
0.00199127
-0.0742667
-0.000441075
-0.0929269
-0.0262416
-0.0744307
-0.00236304
-0.0904565
-0.0510405
0.000163853
-0.0370821
0.000791319
-0.0773463
0.000795765
1.11827e-05
-0.0743961
-0.00314488
-0.0608545
0.000746959
0.00115186
0.00213865
-0.00862076
-0.0747029
0.000569377
-0.0203589
0.0229449
-9.69825e-05
-0.0804487
-0.0764044
0.000945007
-0.0840643
-0.0783918
-0.0149645
-0.00156818
0.0113087
-0.0296814
-0.00136082
0.00265539
-0.0772651
-0.0148259
0.000961593
-6.79815e-05
0.000667022
-0.0204721
0.000753072
0.000779812
-0.0452414
-0.0156099
0.000717076
0.000949851
0.000660542
-0.00412663
-0.0304765
0.000242521
-0.0723148
-0.0430866
-0.0232013
-0.0121141
-0.00542928
-0.028008
0.000783422
-0.00501274
-0.0228057
-0.0145141
0.00075898
0.000660068
-0.0762694
-0.0279697
-0.015118
-0.0674786
0.000761419
0.00185949
0.000654758
-0.0209804
3.49414e-05
0.000613836
-0.0172654
-0.0944651
-0.0747748
-0.0320531
0.00076892
-0.0453566
-0.0174206
-0.00380571
-0.0200792
-0.00508808
0.000644453
-0.0281424
-0.00576782
-0.0295956
-0.00510557
0.000959384
-0.021065
-0.00309045
-0.0173194
-0.00406202
0.0010851
-0.014035
0.000898012
0.00109154
-0.0162607
0.0008047
-0.0814132
-0.00553935
-0.0718534
-0.0494274
-0.00769726
-0.0682434
-0.0199671
-0.0198262
0.000431534
-0.0240793
-0.0240323
-0.0672665
-0.00029262
-0.0946107
-0.00658323
-0.0338509
-0.00441153
0.00134821
-0.0274966
-0.0152097
0.000637764
-0.088657
0.000781368
-0.0757285
0.00325735
-0.0189335
-0.0452542
-0.028476
1.23508e-05
3.69534e-05
0.0104893
-0.0744004
0.000753954
-0.00598889
-0.0709154
-0.00421143
-0.0270617
-0.00370786
-9.87785e-05
-0.0747096
-0.00403774
-0.079603
0.000657404
-0.0783367
-0.034532
-0.0040147
0.000647398
-0.00461284
0.00120891
-0.0241676
-0.0843701
-0.00366058
-0.00213777
0.000816931
-0.068151
6.67803e-05
0.00205241
-0.07669
-0.0406047
-0.0458191
-0.0804013
0.00210356
-0.0780076
-0.0467361
-0.014374
-0.00402527
-0.0378174
-0.0947848
-0.00786494
-0.0160661
-0.0291647
-0.0168316
0.00105013
-0.0302347
0.00112388
-0.00314194
0.001034
-0.012276
-0.0760004
-0.010931
-0.0765469
-0.0183594
0.000584444
-0.00251475
-0.000268114
-0.0181368
0.00111022
-0.00181961
-0.0287668
-0.0763023
-0.0136976
-0.0347303
0.000682394
-0.0748921
-0.0192674
-0.013575
0.00153813
-0.0167987
-0.00767349
-0.0166661
-0.0816602
-0.0377561
-0.00133891
-0.00350577
-0.0196036
-0.00784003
0.00294
-0.0726428
-0.0343193
-0.00134632
-0.0753643
-0.014206
-0.0139834
0.00304976
0.00305532
0.000923733
-0.0349166
-0.0418305
-0.0317258
-0.0112261
-0.014182
-0.00187068
-0.0134526
-0.00340632
-0.00619435
-0.0106826
-0.0244634
0.00832281
-0.0744712
-0.00183566
0.0151317
0.000802022
-0.00541458
0.00749026
-0.00591704
0.00314128
-0.0753502
-0.0782691
-0.0762728
0.00075643
-0.0617967
-0.0782723
-0.0180548
-0.0148888
-0.024361
-0.0241432
-0.0782376
0.000789218
-0.0146146
0.000968957
-0.0283779
-0.0321222
-0.0764063
-0.0114187
-0.0758204
-0.00189211
-0.073011
-0.0564786
0.000978018
-0.00919651
-0.0770726
-0.0762443
-0.0616789
-0.040361
0.00166105
-0.00589997
-0.0265654
-0.0751771
-0.0646618
-0.00466031
7.62188e-05
-0.0750779
-0.00657725
0.00108975
0.000805958
0.000832433
-0.032847
0.000814816
0.000989224
-0.045023
0.00107063
-0.0664956
-0.0465725
0.00082858
0.0020624
0.000824909
-0.0318635
0.000653728
-0.0471352
0.00107244
0.001099
-0.0140068
0.00263296
-0.0811693
-0.0315646
0.000183049
-0.0151644
-0.0799761
0.00365433
0.000999669
-0.0152635
0.0237807
0.000583079
-0.0760103
-7.84561e-05
0.00207002
-0.0566592
-0.0261722
0.00243908
0.000980913
-8.44192e-05
0.000985082
-0.07232
-0.00660164
0.000990421
-0.00648662
-0.0160552
-0.0810728
-0.00518417
-0.0759588
0.00050605
0.000499934
-0.0264185
0.00811147
-0.0319061
-0.00441752
-0.0304662
-0.0243446
-0.0120413
0.00083832
-0.00650652
-0.00477616
-0.0463044
-0.0224478
0.000889825
0.0010049
-0.0342603
-0.000704723
0.0013267
-0.0454121
-0.0314959
0.000777106
-0.0182621
0.000923065
0.000778106
-0.0756788
0.00786085
-0.00134404
-0.0163919
-0.00696401
-0.00352521
-0.0727689
0.00107196
0.0205245
0.00105032
0.00277264
0.000985471
0.000347519
0.00080623
0.000794079
0.000853993
0.000984708
-0.00113407
-0.00611734
-0.0219042
-9.49159e-05
-0.0026325
-0.0138775
-0.0138558
-0.00818899
0.000530402
-0.00636857
-0.016385
-0.016667
-0.0662689
-0.0113193
0.00834994
0.000999725
-0.000456253
0.00143508
-0.00106991
0.0010127
-0.0463857
0.0033885
-0.00196229
-0.00112822
-0.0776608
0.000487385
-0.0879489
-0.0216711
-0.0281809
0.00060897
0.000671171
0.000986762
-0.0441198
0.000285917
-0.0747401
-0.00626291
-0.0188127
0.000672145
-0.0729599
-0.0276453
-0.00798931
-0.0736655
-0.0284309
-0.00819883
-0.0755581
-0.0212716
0.000788506
-0.0181254
-0.00105666
0.00075119
-0.0739043
-0.0780127
0.000698575
-0.0515158
2.30272e-05
0.000847186
0.000820509
0.000693452
0.00178788
-0.0781244
-0.0173148
-0.0219738
0.00102026
-0.0900684
-0.0165626
4.83572e-05
-0.018587
-0.00633952
-0.0298406
0.000227682
-0.0160972
0.00157368
-0.0740571
0.000689532
-0.070699
-0.00767141
0.00713897
-0.0300881
-0.00187324
-0.0674344
-0.00784183
-0.00405484
-0.0144588
-0.00375178
-0.0435962
0.0036285
-0.0285749
-0.0259696
-0.0324794
-0.0731583
0.000685162
-0.00886162
-0.00520725
-0.0455446
-0.0781384
-0.000800099
-0.0817336
0.00648527
-0.00942079
-0.0116589
0.00266929
-0.0431682
-0.0823094
0.00656941
-0.0115943
0.000609254
-0.0424817
-0.0279807
0.00767719
-0.00667209
-0.0206009
-0.0120557
-0.072584
-0.00556752
0.000757833
-0.0750367
-0.0190693
-0.00154231
0.000658219
0.00077062
-0.0114875
-0.0720628
-0.0752052
-0.0243251
-0.0744521
-0.0148828
-0.0221063
-0.00467027
-0.0351907
-0.0334277
-0.0245684
-0.00432382
-0.00144741
-0.0143969
9.70733e-05
0.000964954
0.0160896
-0.072898
0.000939026
-0.0269133
-0.000504607
0.00387056
-0.00514128
0.000821863
-0.0810885
0.000673715
-0.00875054
-0.018162
-0.0460531
-0.00221236
0.000846724
-0.0771935
-0.0158286
0.00117189
-0.000405102
0.000898102
-0.0383966
-0.0121935
-0.0384438
-0.0279355
-0.0120229
0.00645447
-0.0445876
-0.0644219
-0.0315615
-0.0104512
-0.0118845
-0.0750468
-0.0325774
0.0226508
-0.000205005
-0.0907079
-0.0222564
-0.0132024
-0.028918
-0.0167429
-0.0736083
0.000599863
-0.0143349
0.00242237
-0.021247
-0.00152475
-0.0377096
0.0220133
-0.00244809
-0.0132761
-0.0717196
0.0235323
-0.0270171
-0.017046
-0.071567
-0.0109949
-0.0321826
-0.0724571
-0.00582251
-0.0208733
0.000854203
-0.0219311
0.000859133
-0.0415582
0.00108183
-0.0170704
0.00412474
0.00108595
-0.0666947
-0.0316338
0.00484764
-0.0209247
0.000236595
-0.0307679
0.000668496
-0.00661621
-0.0121053
-0.033466
-0.0192095
-0.00929811
-0.00151365
-0.0268796
-0.0757208
-0.00125732
0.000650349
0.000576868
-0.0122355
-0.0768924
-0.0333134
-0.0740778
-0.00158537
0.000129111
-0.0632444
-0.00533749
0.000915347
0.000529783
0.000810884
-0.0763091
-0.0417514
0.00249614
0.00017061
-0.000904171
-0.00377848
-0.0109675
0.000186467
-0.00732249
-0.00711981
-0.0354945
-0.00464572
0.000702845
-0.0744562
-0.031788
-0.0194171
-0.000911567
0.00274564
0.00246808
-0.0317269
-0.0472129
-0.0151195
-0.0808368
-0.0463177
-0.0731038
0.000750364
-0.0182092
-0.04719
0.000807347
-0.0192586
0.00730555
0.000702099
0.00106686
0.000680846
0.0264783
-0.00276459
-0.0245753
0.000421446
-0.00984841
-0.00477483
-0.0219105
-0.0137986
0.00739078
0.00118592
-0.00339092
0.000671062
0.000846353
-0.0112241
-0.0764001
0.000127926
0.002835
0.000963314
-0.0337791
0.000660576
-0.00610864
-0.00772936
-0.0725067
-0.0275733
-0.0764798
-0.0340668
-0.0492182
-0.0191453
-0.0756237
-0.0115132
5.45771e-05
-6.32935e-05
-0.0723283
-0.00862295
0.000630459
-0.0989169
0.000964522
-0.0627139
-2.31268e-05
0.00250607
-0.0149271
0.00123553
-0.0781971
0.00258911
0.00751827
-0.008643
0.00108746
0.000910117
-0.0136475
-0.0529606
-0.0157164
-0.0116168
-0.0152801
-0.0217324
0.0218024
0.0219225
-0.0533083
-0.00846603
-0.0769757
0.000662141
-0.0291442
0.000815337
-0.0138137
0.0010585
0.00114289
-0.0760683
0.000680801
0.000677811
-0.0767911
-0.00495921
0.00063403
-0.0489428
-0.0150409
-0.0732554
-0.0077476
-0.0386566
-0.0201581
-0.0966138
-0.0147409
-0.0836919
-0.00835162
-0.0202686
0.00303067
-0.00587491
-0.00384201
-0.0137863
-0.0120975
-0.00603065
-0.0761464
-0.0357876
-0.0253046
-0.0731923
-0.0219432
0.00121859
0.000347866
-0.00771083
-0.0140531
0.00327583
-0.00131703
-0.00237757
-0.00075625
0.00014389
-0.00368247
0.00661817
0.000773557
-0.0148063
-0.0017658
-0.020978
-0.0110761
-0.0213766
-0.0570538
0.00053804
-0.00842317
-0.00131842
-0.00357636
-0.00970186
-0.0253892
0.00014142
-0.0196773
0.000590141
-0.021731
-0.0320693
0.000725398
0.00146854
-0.00363789
0.00678728
-0.00356381
-0.0321964
-0.000143267
-0.0158559
-0.072859
-9.75758e-05
9.9625e-05
-0.0151251
-0.0282691
-0.027976
9.0357e-05
-0.000840638
-0.0207899
-0.00127145
-0.0732488
-0.0249315
-0.0443531
0.000867676
-0.0612685
-0.0200009
-0.00840229
-0.0742021
-0.00743201
-0.0196046
-0.0468133
-0.0143548
1.66735e-05
-0.00656457
-0.0252698
1.81234e-05
-0.0718687
0.00260987
-0.0164708
0.00169346
-0.0759955
-0.0449989
0.000929676
-0.0113413
-0.0243614
-0.0053206
-0.000154791
0.000365062
-0.0273955
-0.0471578
-0.0243207
-0.062081
-0.0782598
-0.0152144
-0.0767503
-0.0749407
-0.0787024
-0.0740212
-0.00562753
0.00188518
-0.00490375
-0.00664626
-0.0145665
0.000667009
-0.0159557
-0.0745782
-0.00262515
0.000675811
-0.00394823
0.000298154
0.000142371
-0.00151849
-0.00864157
-0.0158155
0.000978958
0.000740132
-0.00535789
-0.00526098
0.000783646
-0.076656
-0.00345353
-0.0712229
0.00178621
-0.0273354
-0.0516975
-0.00126514
-0.00336928
-0.0834431
-0.0799428
-0.0168744
-0.0287346
-0.0249753
-0.00385677
0.000130295
-0.0234515
-0.0400806
-0.000135798
-0.00410871
0.0154441
0.00213119
-0.0142293
-0.057177
-0.0380162
-0.0527823
0.000761534
-0.0241332
-0.0685729
-0.0736523
-0.00020349
0.000585091
-0.0285211
0.000660868
0.00102169
-0.0194989
-0.0140645
0.000101214
-0.0350887
-0.00292761
-0.0204575
-0.0919522
-0.000624759
-0.0569052
0.000642778
-0.0889296
0.000778463
-0.0620561
0.00103784
-0.0442535
-0.013363
-0.00711356
-0.0469949
-0.0635811
-0.0184622
-1.52607e-06
-0.000574899
-0.0724214
-0.035662
0.00571008
-0.0460808
-0.0237717
0.00101503
-0.0463795
0.000810643
-0.0393116
-0.0267645
-0.041014
-0.0268125
-0.0011102
-0.0146473
-0.0255525
-0.0235297
-0.0759357
0.0020413
-0.0302074
-0.0769327
-0.0754377
-0.0754848
-0.0457403
-0.0743909
-0.0773464
0.0164109
-0.014356
0.000576593
-0.0116419
-0.0323018
0.000677381
-0.0748445
0.000935822
0.000759606
0.00439263
-0.0407012
-0.0187997
0.000610618
0.00330415
-0.0209157
-0.00435247
-0.0257864
0.00315205
8.98769e-05
-0.0228988
-0.0742678
-0.00261211
8.07288e-05
0.000872913
0.0056649
0.00199188
0.000563808
-0.077155
-0.044502
0.000832954
-0.0311208
0.000558705
0.000796729
-0.045098
-0.0110101
-0.0254786
0.00643783
-0.0395411
-0.0360661
-0.0323292
-0.000200111
-0.00321344
-0.0389097
0.000433387
-0.0209361
-0.0119441
0.00418136
-0.0333527
-0.00329884
-0.0244758
-0.0739726
-0.00303718
-0.0783579
-0.026956
-0.00682328
-0.040308
-0.000130374
7.02424e-05
-0.0280158
-0.0415577
-0.0565338
0.00356254
-0.0344653
-0.0255581
-0.0536359
-0.0150368
-0.0139194
-0.0254533
0.00241328
0.000661233
-0.0471881
-0.00278683
-0.0460295
-0.0446413
-0.0216586
0.00300764
0.00379218
-0.056895
-0.0225854
-0.00706989
-0.0762165
-0.0680022
-0.07481
-0.0259294
-0.0184074
0.00286027
-0.0216585
-0.0221407
5.79887e-05
-0.0438775
-0.0344925
-0.0748054
0.000672172
-0.0776674
0.000952816
-0.0203298
2.87511e-05
0.00504973
-0.0736723
-0.00152374
0.00368863
-0.0189226
-0.0285563
-0.0745962
-0.0973726
0.000997005
0.00309349
0.000858305
0.00094758
0.000871233
-0.0283963
-0.00926894
-0.0165573
-0.0765984
-0.0225103
0.00271273
-0.051002
0.000853489
0.00610652
-0.00808091
-0.0811393
-0.00179055
-0.0135827
-0.0157763
7.44873e-05
-0.0388525
-0.00845084
-0.0314902
0.0163472
-0.00295057
0.000852516
0.0035046
-0.0463671
0.0033615
0.00705146
0.000555472
3.48762e-05
-0.0220875
0.00491948
0.00235647
0.00285821
-0.0163922
-0.0258517
0.010738
0.0029079
-0.0288242
-0.0772611
0.0156241
0.00057562
-0.0145008
-0.0160816
0.000568267
0.000592733
-0.0129637
-0.0609058
-0.0180639
-0.073256
-0.0109818
-0.0296204
-0.0724099
0.0015668
-0.066856
-0.0437901
0.000700526
-0.0504155
-0.00311957
-0.0248967
0.00159309
-0.0634112
0.000707354
-0.0151878
-0.0200606
0.00120191
-0.000522262
-0.0303961
-0.00152134
-0.0113501
0.000674364
-0.00815721
0.0010088
-0.00178004
-0.065451
-0.0413013
-0.0152053
-0.000974539
-0.0333647
0.000965431
-0.00109674
-0.078874
0.00053959
0.0156386
0.0166819
0.000875858
0.000792451
0.00064415
-0.0214515
-0.00463912
-0.00616686
-0.0907315
-0.014446
-0.0503643
-0.0228375
0.00062928
-0.0734101
0.00470619
0.000788473
0.000951396
0.000680444
0.000279923
0.000941145
-0.0164026
-0.0017512
-0.0473555
-0.000228852
-0.036898
-0.0302885
-0.000515478
0.000980294
0.000305665
-0.0115336
0.000803959
-0.00126718
-0.0390315
0.000483383
-0.0757894
0.00110908
-0.0158201
-0.00651359
-0.0113568
-0.015414
0.00289633
0.000988394
-0.0117241
0.00377725
-0.000197013
0.000977344
0.000111201
-0.0282662
-0.0774123
0.00173802
-0.00149038
0.000671959
-0.0390796
-0.0207606
-0.043404
-0.0384993
-0.036519
-0.00404568
-0.0774541
-0.0149165
-0.00846176
-0.0111115
-0.0523939
-0.0561284
0.000955448
-0.0167393
-0.0243434
-0.0260394
-0.023267
0.000113988
-0.0735756
0.000856075
-0.0974345
-0.00402596
2.49145e-05
-0.0214206
-0.00600255
0.000661844
-0.000287701
4.18996e-05
-0.0763872
-0.00634401
0.00116172
0.000668319
0.00076656
-0.0445181
-0.0072029
-0.00117004
0.000797188
-0.00732413
-0.00489999
-0.0608007
-0.00488518
0.00833483
-0.0272788
-0.00230958
-0.00124793
-0.0250703
-0.0272162
-0.0308937
-0.0114204
0.0028853
-0.00142306
-0.0596535
-0.0212214
-0.00695622
-0.0147018
-0.059348
0.00234415
0.0253689
0.000641395
-0.0200427
-0.0440993
-0.0137856
0.00208713
-0.0266451
0.00067867
-0.008223
-0.000409675
-0.017247
0.000925449
-0.00236862
0.000665227
0.000630299
4.38304e-05
0.0267497
0.00298997
0.000640934
-0.0801437
0.000927562
0.000657238
-0.00120396
-0.0473439
-3.64835e-05
-0.0599781
-0.00956159
-0.0248982
-0.0465341
-0.0746359
0.000639429
-0.0518127
-0.00113582
-0.00985574
-0.0112525
0.0011104
-0.0447635
-0.0753534
-0.0132646
-0.00428468
0.000650317
0.000792312
-0.0135687
-0.00158402
0.00064732
-0.0425062
-0.0623432
-0.0756144
-0.00584056
-0.0250998
-0.00955463
-0.0749923
0.000633868
0.00163946
-0.0742933
-0.00603543
-0.0155352
-0.0114972
-0.0601171
-0.0225342
0.0069191
-0.0678227
-0.00430643
-0.00448529
0.0014658
0.000952256
3.52746e-05
-0.0439704
0.000783867
0.00121879
-0.00457758
-0.0753359
-0.0715312
-0.0836915
-0.0142036
-0.0410509
-0.0218733
-0.0157926
-0.00050865
-0.0315584
0.00109214
-0.0174981
-0.0248003
0.000164192
0.000201974
-0.00158728
0.00748788
0.000135433
-0.0241921
0.0032813
-0.0156126
-0.0434753
-0.00412589
-0.0776504
0.00260975
-0.0165608
-0.00856856
6.14027e-05
-0.0736849
-0.00436622
0.000217151
-0.00935544
-0.0516315
-0.0264006
-0.0774847
-0.0116862
-0.0784963
-0.000465675
-0.0191886
-0.00701958
-0.00266684
-0.029387
-0.076309
-0.0728825
0.000922249
-0.00541775
-0.0558027
-0.0716782
-0.0135737
-0.023243
-0.000562318
-0.0409358
0.00113609
-0.00659307
-0.0719886
-0.00663086
-0.0789932
-0.0531355
-0.0772938
-0.0319364
-0.0241985
0.00272069
-0.0379561
-0.0114132
-0.0441312
-0.0067256
0.000764542
-0.0121661
-0.00145122
-0.00342096
-0.0599546
0.000942096
-0.078916
-0.000691087
0.00186646
-0.0784616
-0.0391087
0.00146165
-0.0737274
0.000300997
0.000575024
-0.0621525
0.00058376
-0.0755744
-0.0735028
-0.0762475
-0.077851
-0.018152
-0.0529036
-0.0153057
-0.0107763
-0.0228135
-0.00276517
-0.0761141
-0.0743591
-0.0225351
-0.0441188
-0.00834581
-0.073873
-0.0165059
-0.00344023
-0.000212695
-0.0150904
0.000311025
0.000257279
-0.0225169
-0.0646002
0.000859098
-0.0435002
-0.00655011
-0.0052594
-0.0527589
-0.00316824
-0.0719991
-0.0165431
-0.0355677
-0.0742152
-0.0120809
0.000685657
-0.0145967
-0.0266557
-0.0107392
0.00298432
0.000683026
-0.0102994
-0.015792
0.0014307
-0.0318044
0.000938178
-0.0226557
0.000706445
-0.00525976
-0.0182365
0.000702479
-0.0800393
-0.0758291
-0.0198202
-0.0253945
-0.0436496
0.0026051
-0.0116572
-0.0135969
-0.0110012
-0.0771922
-0.0591111
-0.00229042
0.00087211
-0.0749357
0.00135021
-1.42266e-05
-0.0754109
-0.0450974
9.70217e-06
0.000780275
-0.0156816
0.000789837
0.00142303
-0.00549061
-0.0111103
-0.0312015
-0.00134938
0.000574995
-0.00186185
-0.00263922
-0.0144278
-0.00519838
-0.0770724
0.00080326
-0.018945
0.000807218
-0.0740491
0.00159837
-0.0243688
-0.00942747
0.00123619
-0.0162912
-0.0333515
0.0180966
0.000372783
-0.00349253
-0.0534023
1.77447e-05
-0.0217781
-0.0722777
-0.0750224
-0.00108572
0.00186217
-0.0355549
-0.0962084
-0.0668458
-0.0228109
-0.0738498
-0.0165051
-0.0298132
-0.0726265
-0.0448371
-0.0365817
-0.0711187
-0.0741375
1.59541e-05
0.0156799
-0.0176471
-0.0111313
-0.037604
0.000801915
0.00093636
-0.0419579
-0.00142023
-0.0783572
0.000504135
0.000862153
-0.0614447
-0.00164441
-0.0307153
-0.00829851
0.00283912
-0.0453667
-0.0015765
0.00079654
-0.0785534
0.00149632
-0.00234367
-0.0208297
0.000810743
-0.0307384
-0.00101581
0.000847435
-0.0215291
-0.0020597
-0.0706748
0.000860058
-0.0227572
-0.0733192
-0.00225256
-0.0823192
0.00116065
0.000985697
-0.0331605
-0.0585566
-0.0754453
0.000886971
-0.0752078
-0.0399866
-0.0144352
-0.000984368
-0.0073841
0.000527924
-0.0739659
-0.0143834
-0.0147695
-0.0113239
-0.0793276
-0.0348394
-0.00673954
-0.0209445
-0.00447441
-0.00419648
-0.0174009
0.00475132
-0.0769517
-0.00962183
-0.0139942
-0.00622197
-0.00383102
0.000580309
0.000589579
-0.0800423
-0.0737361
-0.0638494
-0.0443744
0.000831186
-0.0110208
-0.0477484
-0.0351294
-0.0735822
0.000614822
-0.00626501
0.00178665
-0.00101812
-0.0188762
-0.0793927
-0.0728552
-0.0145352
-0.0176116
-0.00208316
-0.019222
-0.0242995
0.0256354
-0.0774989
0.00281168
-0.01964
-0.00898316
-0.00215365
-0.0600579
0.000572797
-0.0739684
-0.0178553
-0.005908
0.000916034
-0.000564836
0.000741681
-0.0731168
-0.000153615
0.00286623
-0.0509298
-0.0157211
-0.0628764
-0.00245295
-0.0142613
-0.0237122
-0.0383574
-0.00406714
1.97393e-06
-0.000814186
0.00323578
0.00212241
-0.00606809
-0.0243655
0.000593118
0.000800808
-0.00494905
-0.0782704
-0.0729607
-0.0211431
-0.0290999
-0.0461612
-0.00071001
-0.072102
-0.0441881
-0.00596333
0.00114519
0.000716334
-0.0119291
-0.0470903
-0.00193564
-0.00470509
-0.047469
-0.0648575
-0.0147741
-0.0526275
-0.0306453
0.000709716
-0.0186649
-0.0363376
-0.0168167
0.00186816
-0.0140262
-0.000668815
-0.0157595
-0.010046
0.000695683
-0.0131358
-0.0538012
-0.0105657
-0.0169231
-0.0151096
-0.0268002
0.000691763
0.000913334
-0.000162535
-0.0691473
0.000774698
-0.0338304
-0.0225675
0.000497068
-0.026385
7.61321e-05
-0.000460852
-0.0325504
0.000631098
-0.0172244
-0.0146084
-0.000390358
0.0190309
-0.00194326
-0.0123389
-0.0761887
-0.017405
-0.00439271
-0.0828986
0.000917684
0.00524629
5.24058e-05
0.00075938
-0.0757242
-0.0214527
-0.0737634
-0.0602015
-0.0964098
0.000796442
0.00196443
-0.000281904
-0.0803325
-0.000287963
-0.020917
0.000870515
-0.0109684
-0.0779
0.0164617
-0.0276598
-0.00381837
0.000762747
-0.0160081
-0.0121762
-0.025849
5.98573e-05
-3.42425e-05
-0.077164
0.0337164
-0.0151054
-0.000682138
-0.0221145
-0.0151049
-0.0602699
0.000930554
0.00213413
0.000603736
-0.000602991
-0.0526417
-0.0425699
-0.00392624
-0.016251
-0.0229544
-0.000943854
-0.0729055
-0.00694555
-0.0396216
-0.00846595
-0.0172874
-0.0765864
-0.0237682
-0.0796316
0.000574065
0.00133412
-0.0584843
-0.0187394
-0.0180587
0.00371515
-0.0160816
-0.00220676
0.00191163
0.000494945
-0.00992689
-0.0899508
-0.00394172
-0.0729294
-0.0627635
-0.0189457
-0.00965763
-0.0174302
0.00203591
-0.0210466
0.00171862
-0.000957834
0.000194366
-0.0162921
0.00109928
-0.00374459
-0.033711
-0.035104
-0.026004
-0.0177559
-0.00970534
-0.0628294
0.000436551
-0.0102811
-0.0219087
0.00148683
-0.00174593
-0.0184579
-0.0329217
-0.0147609
-0.0368711
-0.0126751
-0.0105292
0.000677365
0.00150888
-0.00685983
-0.0147779
-0.00478517
-0.0360493
-0.0777984
-0.00625607
0.00222514
0.000468235
0.000689575
-0.0415938
0.000635053
-0.00982643
0.0226511
-0.0160601
0.00816604
-0.0593493
-0.0479954
-0.00606961
-0.0259486
0.000766467
-0.0332692
-0.0741937
-0.0813696
-0.0764303
0.00592503
-0.012885
-0.0764561
-0.0952725
-0.00102187
-0.0031169
-0.0250304
-0.0111985
0.00334868
0.000192471
0.000583983
-0.00104911
-0.0112968
-0.0177515
-0.0581157
-0.0325119
0.0323994
0.000767029
-0.0158199
0.000759712
-0.0410026
0.000658619
-0.0770221
-0.00326896
0.0142151
-0.00339389
-0.0535841
-0.0610266
-0.0265563
0.00430745
-0.0339184
0.00186657
-0.00467275
-0.0111719
0.000651429
-0.016661
-0.0191211
-0.0686305
0.00521885
-0.0399285
0.00146427
-0.0166709
-0.0745953
0.00107195
0.000406862
-0.0164296
-0.00971623
-0.00635899
-0.0163345
-0.0731121
-0.0315547
0.000949318
-0.0021023
2.93381e-05
0.00243021
0.000982689
-0.0579411
-0.0148794
-0.0241443
-0.0120738
0.00330289
-0.0164435
-0.0478631
-0.0356199
-0.00417169
-0.0774861
-0.0134781
-0.0259797
-0.0165802
-0.00219469
-0.0128816
-0.0779938
-0.00475252
-0.000629694
-0.0156839
0.000995673
-0.0155058
-0.00833139
0.00100634
-0.000860358
-0.0360846
-0.000847708
-0.0323565
0.00042853
3.98912e-05
-0.00722232
-0.00716533
-0.00887614
-0.0455821
0.000488303
-0.0367453
0.00112198
0.000627836
0.000925822
-0.0569859
-0.0220585
-0.00274683
-0.0131429
-0.015116
-0.0132113
-0.0313575
3.22939e-05
0.0203487
-0.00672979
-0.0119541
-0.0438744
0.000994135
-0.0178768
-0.0414278
-0.0407673
-0.0149238
0.000935231
-0.0510433
-0.0132579
-0.0212061
-0.0743527
-0.000183312
-0.00314449
-0.0440205
-0.0375621
-0.00339234
0.00196662
-0.0833774
-0.0891705
-0.0180299
-0.000242857
-0.000743471
-0.0768625
-0.0747559
-0.0474092
-0.00582489
-0.000220018
0.00101106
-0.0625326
-0.0208801
0.00123587
-0.0182682
-0.00973878
-0.0143819
0.00100343
-0.0174406
-0.00535742
-0.000475068
-0.000455438
-0.00324544
0.000982909
0.00341948
0.0151022
0.000135263
-0.00904354
-0.0265302
-0.00148262
-0.00145088
0.00148707
-0.0149662
0.000654183
-0.0197648
-0.0187188
0.000605852
0.00212955
-0.00230358
0.000930123
-0.0691894
0.00894224
0.000437525
-0.0726496
0.000979596
-0.0343078
-0.0109316
-7.81646e-05
-0.0182957
-0.0329033
-0.00146224
-0.0742008
-0.0165022
0.000436772
-0.0584128
-0.0238314
0.000701587
0.00144814
-0.00606899
-0.00068877
-0.039677
0.000617401
-0.0492201
0.000662513
0.000774319
-0.0194512
-0.00688592
-0.0262831
-0.0093739
0.0007987
-0.00435626
-0.0376848
-0.0218841
-0.0139744
-0.0122728
-0.0265162
0.000952952
0.000743378
-0.0156926
0.000609013
-0.0115315
-0.0267187
0.000542011
-0.0103731
0.0300387
0.00144486
-0.0101021
-0.0159978
-0.0496255
-0.0243771
-0.0195598
-0.0241229
-0.0178218
-0.0811828
0.00794316
0.00118505
-0.0773182
-0.021406
0.000962381
0.0011564
-0.0120596
0.000968651
0.000592343
0.00118893
-0.0773751
-0.0118132
-0.016112
0.00227664
-0.0143685
-0.000327944
-0.0515478
-0.0221983
-0.0589977
-0.0142426
-0.00231334
-0.0492906
-0.00118809
-0.0743996
-0.0610844
-0.00434904
6.10755e-05
0.00117543
0.0009955
-0.00446057
-0.0335957
-0.0812903
0.000523481
-0.0642736
0.00885122
-0.0755974
-0.0736806
-0.0048006
-0.0148798
-0.0170603
-0.00531394
-0.0276171
0.00370078
-0.00412644
0.000930599
-0.0737158
-0.0134515
-0.0579758
0.0159333
-0.0737879
-0.0401719
-0.0739984
0.00209835
-0.000189614
0.000965341
-0.000432818
-0.0180505
-0.0136331
0.0112949
-0.0710362
-0.00402082
-0.000345306
0.000453709
-0.000879605
-0.0212231
-0.0181902
-0.0765221
-0.0117164
0.000765833
-0.0135936
-0.00318546
0.00292309
0.00807542
-0.00677386
0.00054466
-0.0345937
-0.00750727
-0.04259
-0.0186721
0.00178092
0.000717201
-0.0343306
0.000163479
-0.00687626
4.68938e-05
0.000657485
-0.0742328
0.00217061
-0.0215197
-0.0327967
0.00251676
-0.00420319
-0.0337631
0.000371828
-0.0756823
-0.0753768
-0.03832
-0.0394225
-0.0463584
-0.00360875
0.00166675
-0.000420236
-0.0577996
-0.0901647
-0.0745264
0.0118938
0.000803365
-0.0752636
-0.0331989
0.0020428
-0.0740503
0.00121745
-0.00881665
-0.00407144
0.000646105
-0.00442629
-0.00763355
0.000578768
-0.0170893
0.000969827
0.000581396
-0.00152217
-0.0160814
-0.0762635
0.000753108
-0.0251171
-0.000787728
-0.026519
0.00100926
0.000595417
-0.00878111
-0.00383372
-0.0151895
-0.0244072
0.00104736
-0.0544663
-0.0341754
-0.0767668
0.0313931
-0.00611216
-0.0136416
0.000614169
0.000906439
0.00790384
0.000568648
0.000801394
-0.0181928
-0.0105481
-0.0205183
-0.0507747
-0.0427814
-0.0234982
-0.00949526
0.00636012
0.000892504
0.000998
-0.0138257
-0.0263523
-0.00624528
-0.0150576
0.00101845
-0.0736437
0.00112554
-0.0120236
0.000823771
-0.0128117
-0.00108922
-0.00235938
-0.00138486
0.00281451
0.00285297
-0.00664626
-0.0119014
-0.013897
-0.021361
0.00240337
-0.00442571
-0.0617618
-0.0147063
-0.0391751
0.00304811
-0.0465402
-0.0275002
-0.0393955
0.000801758
-0.0167196
0.0150387
0.00112854
-0.0616297
-0.0321848
-0.00116016
0.000188776
-0.0289799
-0.00426577
0.00233749
-0.0260088
0.0017679
-0.0101078
-0.00415634
-0.0731672
-0.019223
-0.0191322
-0.0289687
-0.076384
0.00200993
0.0158805
-0.0451453
-0.0781811
-0.0263502
-0.000590243
0.000934593
-0.0130933
0.00129599
-0.0147882
-0.0784596
-0.0282611
-0.0724085
-0.0910054
-0.0750157
-0.0755874
-0.0299187
-0.0767697
-0.0216868
0.000885827
-0.0499565
-0.0280792
-0.0108655
-0.0135612
-0.0317192
-0.00215634
0.000604621
-0.0415052
-0.000314351
-0.0818072
-0.003204
-0.0269997
-0.000195287
-0.0719124
0.0080816
-0.0170983
0.00181991
0.00150119
-0.00525858
-0.0701409
0.000944648
0.029638
-0.00729912
-0.0759583
-0.00387976
-0.00362995
-0.00564597
-0.0616817
-0.00263932
-0.0733115
-0.0137902
-0.0834994
0.000749256
-0.00232826
0.0104621
0.00107461
-0.0149071
-0.00708633
-0.0133956
-0.000861547
0.00122257
-0.0275114
-0.0766178
0.000331302
-0.0338775
-0.0126832
-0.00580148
-0.0570949
-0.00623228
-0.00746714
-0.077209
0.000755957
-0.0157183
0.00054623
-0.0607089
-0.000486163
-0.0446579
-0.0388656
-0.00582639
0.00111407
-0.0789828
0.000749433
-0.010462
-0.0177742
-0.0263112
-0.059608
-0.0310336
0.00146694
0.000896356
-0.00544829
-0.0722573
-0.0115086
-0.0325732
-0.039309
-0.0109417
0.0198646
0.00101238
-0.000516337
-0.0182875
0.000847638
-0.0279037
-0.0176183
0.00100906
0.0150669
-0.0126188
-0.0259681
-0.0194263
-0.0772514
0.000966252
0.000604162
-0.0176304
4.86759e-05
-0.023487
-0.00086035
-0.00158454
0.00948333
-0.00738113
-0.0743656
-0.0188658
0.000925431
-0.0785447
0.0131098
-0.012841
-0.0756735
-0.0576293
-0.0484971
-0.0293852
-0.00918567
0.00375306
-0.0625761
-0.0402141
0.00066017
-0.0750762
0.000361207
-0.00231047
-0.023967
0.00130403
0.00129615
-0.0189195
0.00114703
-0.0166208
-0.0747406
-0.0152232
-0.0102998
-0.0573827
0.000726978
-0.0346057
-0.0440266
0.00125939
0.00207989
0.00124223
-0.025695
-0.0179855
0.000993734
0.000617899
-0.065484
-0.0168414
-0.0333588
-0.00167777
0.000706147
-0.0123325
0.000874104
-0.0364371
-0.0164844
0.000837416
0.000669109
0.000865161
-0.00148021
-0.000376048
0.000912071
-0.00168586
-0.0586715
-0.0434467
0.00246365
0.00121994
-0.000528603
-0.0139902
0.000369973
0.00210333
-0.00554812
-0.0178067
-0.0191784
-0.00417378
-0.0158737
-0.0460643
-0.0785108
0.000665739
0.000622815
-0.0704032
-0.04544
-0.0260824
-0.0110564
-0.0138361
-0.00210907
0.000914088
-0.0132437
0.00077318
-0.0397255
-0.0753258
-0.0187072
-0.0210052
-0.0175633
-0.0176416
-0.0175137
-0.0111108
-0.00332061
0.0153267
-0.00320993
-0.0469122
-0.0244992
-0.0151388
0.00127055
0.00209137
0.00111875
0.00104805
-0.0240269
-0.0601426
-2.48915e-05
-0.0387637
0.00105404
0.00114969
-0.0276089
-0.000114354
0.00288845
-0.014804
-0.00196196
0.00273757
-0.00010394
-0.0405215
-0.0229553
0.001511
-0.000455751
-0.079084
-0.00578903
-0.0114159
-0.000424439
-0.0196804
0.00214493
-0.0353927
-0.0102015
6.15025e-05
-0.0653547
-0.0211596
5.31362e-05
-0.0277763
0.000691387
-0.0163008
-0.0235599
-0.00838154
-0.0754281
0.00146053
-0.0788362
0.00117255
0.0140802
-0.0132192
0.000702627
-0.0450258
0.0106041
-0.0321247
-0.0393513
-0.0760839
-0.0800801
0.00041484
0.000469963
-0.0173664
-0.0790693
0.000958251
-0.0797401
0.0023285
-0.00494384
0.000509117
-0.00928769
-0.0155375
-0.032786
-0.0467407
-0.0271353
-0.00468139
-0.0260168
-0.0143457
-0.000754489
-0.00693036
-0.001324
-0.0160109
-0.0338174
0.00245989
-0.00307772
0.000597444
-0.011127
-0.000163353
-0.0773512
-0.0270794
-0.0721615
-0.00177036
0.000508762
-0.0472061
0.00123887
0.00089163
-0.0239225
-0.0474314