/*--------------------------------*- C++ -*----------------------------------*\
| =========                 |                                                 |
| \\      /  F ield         | OpenFOAM: The Open Source CFD Toolbox           |
|  \\    /   O peration     | Version:  v2012                                 |
|   \\  /    A nd           | Website:  www.openfoam.com                      |
|    \\/     M anipulation  |                                                 |
\*---------------------------------------------------------------------------*/
FoamFile
{
    version     2.0;
    format      ascii;
    class       volScalarField;
    location    "200";
    object      ddt0(k);
}
// * * * * * * * * * * * * * * * * * * * * * * * * * * * * * * * * * * * * * //

dimensions      [0 2 -3 0 0 0 0];


internalField   nonuniform List<scalar> 
54593
(
-2.71838e-08
-3.21889e-08
1.15943e-08
0.000235758
0.000266919
0.000145709
-0.00063102
-7.59714e-08
-5.49121e-08
1.10655e-08
-4.90497e-08
-0.000296725
-6.30652e-07
-8.62436e-09
1.21349e-06
1.24537e-09
-8.82276e-08
-5.09096e-07
1.42095e-08
-1.0321e-08
1.21908e-08
-4.39723e-08
2.71433e-09
-4.61256e-05
-6.4147e-09
-2.14726e-06
-2.62184e-08
6.84009e-08
0.000333151
3.72586e-09
-2.16798e-06
4.33855e-06
-3.80146e-09
0.00016765
1.00153e-06
-4.20312e-11
1.39891e-07
-2.33126e-08
5.17495e-08
-4.19675e-08
3.04417e-07
0.00307226
7.84769e-09
-2.34778e-08
-1.02598e-07
2.33919e-08
4.94971e-07
-2.03421e-07
1.92969e-08
8.50294e-08
-4.2013e-09
2.16675e-08
-1.65499e-08
-3.69872e-07
-9.45778e-07
5.01068e-09
-0.00200694
0.00252521
-8.59687e-07
-4.40144e-08
8.0746e-09
1.12564e-08
-7.09902e-09
0.000196762
-2.32853e-08
2.73658e-09
0.000103417
-1.06686e-06
0.000233053
0.000220735
2.0549e-08
-4.25466e-07
-2.40476e-08
-0.00341644
-2.97521e-09
4.87693e-08
1.6361e-08
9.64445e-06
4.49813e-05
3.48753e-06
5.74523e-10
0.000344291
-2.32917e-08
0.00235524
-5.27838e-08
-0.00315366
-0.00013864
-6.88215e-07
-5.09257e-06
7.1853e-11
8.67973e-06
-2.97599e-08
-3.87427e-08
3.67707e-07
3.23679e-08
0.00053071
0.00557032
-2.86621e-06
2.16541e-09
7.95892e-08
-3.41178e-08
0.000279552
-5.95278e-09
-1.51731e-08
1.63091e-06
-2.12836e-09
-3.84548e-08
-6.43478e-07
5.01149e-08
7.70699e-07
-0.000171681
-1.62998e-08
-1.1023e-10
-2.19314e-06
-7.29315e-10
3.28176e-06
0.000225693
0.000189654
0.000175236
-1.11674e-07
0.000202932
-3.71107e-10
-0.000113487
1.17285e-07
2.19532e-08
4.3634e-06
1.44577e-08
2.16943e-08
8.43512e-05
-0.000986406
4.48566e-09
2.53378e-08
4.29969e-08
-3.97213e-11
-2.57808e-08
1.57011e-06
2.82372e-08
0.00473375
-1.49949e-08
-4.88858e-10
-6.40483e-05
1.57408e-06
4.57664e-08
0.0075779
1.38484e-09
-1.18885e-06
-0.000475395
2.15442e-07
0.000217458
3.49808e-08
-9.27887e-08
4.91747e-08
-1.65232e-06
5.67778e-07
5.32295e-08
0.00103142
-4.81614e-08
0.00111872
1.50374e-07
3.4864e-09
-8.60414e-06
1.21183e-09
-5.31766e-05
0.000611419
7.50509e-08
3.93777e-08
-3.82767e-10
6.98896e-09
1.87601e-07
-4.42573e-13
-2.05668e-06
1.55413e-07
-1.0567e-06
-3.38779e-10
-7.05247e-08
-8.60587e-10
-0.000149174
8.25197e-09
1.29155e-08
2.29566e-07
0.000105106
1.18003e-08
0.000234741
-3.26746e-08
-1.55188e-09
8.69886e-06
2.96679e-08
-2.82884e-08
-9.69307e-09
0.00303017
1.32343e-08
0.0016616
-1.25723e-06
-2.60417e-08
-0.000261529
-0.000454522
-2.09532e-08
-2.63241e-08
-2.19357e-06
7.69471e-06
-2.06637e-08
-1.14399e-05
-5.30675e-07
-6.44881e-09
3.3373e-08
3.30595e-08
1.37695e-05
-5.01471e-08
5.18963e-08
7.3861e-10
8.79042e-11
-1.14374e-08
1.12235e-08
4.09915e-08
3.148e-08
-2.25232e-06
0.00108655
0.000515644
3.15333e-05
-2.22446e-08
-3.5222e-08
-0.021571
-0.0241605
4.03983e-08
-1.66754e-06
4.3607e-08
-6.34017e-10
-1.17053e-06
9.606e-09
1.58631e-07
2.1014e-08
-7.5707e-07
0.000295226
-1.73532e-09
-1.96396e-09
0.00567577
-2.13674e-06
-2.82844e-10
8.74549e-06
1.74252e-10
3.79761e-08
4.05679e-08
0.00187036
5.40704e-07
5.73021e-08
-1.50827e-08
0.000380708
2.01426e-05
6.43588e-09
-9.29835e-05
4.48919e-07
-0.00032517
0.00342795
-6.21445e-09
-2.23044e-09
7.86745e-10
0.000118849
-4.91693e-08
1.81221e-06
-4.72899e-08
-5.75422e-09
4.33994e-05
-3.36266e-09
6.39285e-06
3.82532e-08
-1.00401e-08
0.000358138
6.41592e-09
-4.33471e-08
3.94414e-08
-0.00239339
0.000178428
1.00038e-08
-2.61609e-08
-1.34563e-08
4.21952e-08
1.05456e-08
0.0024788
-1.20373e-08
5.71471e-07
2.70065e-09
2.49444e-08
5.79829e-08
-0.000281911
0.000399438
-7.17724e-08
-4.54333e-08
1.13255e-08
5.3877e-09
6.51921e-06
-0.000316804
0.000302327
-5.90067e-09
4.91768e-09
-2.43373e-07
-8.1209e-10
-0.000121793
0.000149455
-2.96769e-09
-1.89911e-06
-7.07417e-05
2.05332e-08
1.80177e-10
-3.94313e-11
3.53479e-08
5.17649e-08
5.32875e-08
-5.07187e-05
3.449e-08
-2.20225e-08
0.00351615
4.48248e-08
0.000192252
-1.04715e-09
7.32257e-08
0.000371897
-6.52492e-06
0.00428898
-1.78003e-06
-5.48105e-08
1.64818e-08
6.7402e-09
-1.0567e-05
8.02035e-08
0.00508976
-1.82317e-08
-3.18611e-06
-1.06187e-08
9.56522e-05
1.28048e-07
1.28522e-09
-5.37606e-08
-1.71487e-08
1.20846e-09
-2.82989e-11
3.65994e-07
4.09115e-08
0.000266629
-2.51358e-06
5.86745e-08
-1.11433e-07
-1.33867e-08
0.00046536
-5.22793e-08
5.0357e-08
-1.02355e-06
7.09546e-08
-1.67229e-06
-3.4491e-07
0.00217867
-0.000135986
4.94332e-09
-7.47714e-07
3.78012e-07
-8.37767e-09
8.46405e-09
6.42485e-09
6.96165e-09
3.37965e-08
-2.15102e-08
-2.09081e-06
-3.38057e-08
-6.89142e-08
5.21042e-05
-1.41507e-06
-1.57926e-09
7.15357e-09
0.0287227
8.73675e-10
-2.65522e-08
2.34371e-08
3.34553e-08
6.90621e-09
-5.59614e-08
1.44124e-09
-1.94673e-06
9.12016e-10
-0.010996
1.21416e-08
-0.000132188
0.000646908
-1.28134e-07
-1.01925e-05
-2.12414e-05
-5.18101e-07
-7.52399e-07
-0.000161144
-1.65583e-08
0.00202313
-7.46902e-07
-9.97164e-06
-8.63905e-07
4.32031e-08
8.58493e-09
-0.000320073
0.000203168
-0.0160561
-6.77097e-08
-7.83647e-06
-2.81262e-07
-5.9834e-08
2.16892e-07
0.000129836
4.02372e-07
-1.00446e-05
1.92449e-05
2.71114e-09
-1.18741e-05
-9.8266e-09
8.78434e-07
-2.17175e-06
6.62181e-10
-6.44499e-10
-1.28797e-08
-1.95781e-08
0.000336364
-4.05759e-08
-1.16198e-08
4.54888e-08
8.96679e-08
3.05129e-07
-0.000602595
-5.18705e-08
-5.24948e-07
-0.000467513
0.000179517
0.00143159
5.46797e-08
8.83378e-05
-4.18912e-08
-0.000458688
2.6717e-07
8.53099e-08
3.74221e-08
-2.95937e-07
3.25035e-08
-2.67008e-08
0.00517912
-1.07052e-06
-3.85391e-07
3.733e-05
-1.72827e-09
2.12449e-08
8.55043e-09
-0.000474012
-2.46757e-07
-2.74958e-08
3.77196e-09
-1.55509e-06
-3.62811e-07
0.000940714
-2.30568e-05
1.24568e-07
-7.01893e-07
0.000234971
1.03373e-07
-1.27721e-08
1.53949e-09
2.15944e-08
-2.27906e-07
-2.82224e-08
6.12047e-09
1.04808e-07
4.84659e-08
-3.55728e-09
2.50044e-07
-1.99017e-06
1.26792e-08
-2.16767e-08
-0.00523762
0.000283176
7.80303e-06
-5.34018e-08
-8.62502e-09
0.000127443
5.07021e-08
-4.70177e-13
0.00084965
0.000644982
1.33226e-08
-5.25094e-08
-1.35881e-08
-1.03111e-06
-1.67152e-07
-1.07355e-08
-0.0138463
-5.58365e-06
-6.93661e-06
-6.32635e-09
-2.40422e-06
1.33887e-07
-1.45274e-09
-1.22916e-08
5.94859e-08
-2.34325e-06
-3.79312e-08
-3.50048e-07
9.74434e-09
-6.31226e-06
4.88854e-08
-3.85544e-05
-0.000180125
-4.15344e-06
-7.01591e-07
2.90977e-08
-5.96587e-07
2.64157e-09
-1.01732e-07
4.79839e-08
7.03026e-09
2.74443e-08
-4.79748e-07
-0.000455549
3.46371e-09
-5.99373e-09
0.000241845
-4.00678e-07
-5.59179e-09
-0.000198746
-3.08447e-08
-7.39628e-07
-6.31894e-08
-3.89125e-08
4.42365e-09
-2.48544e-08
-2.8469e-07
0.00114764
0.002493
7.46534e-06
2.03596e-08
0.00114282
-6.17219e-08
-6.74386e-07
5.03966e-08
2.14137e-08
9.90787e-09
0.000226797
-1.31818e-08
-3.92043e-10
-2.21799e-08
3.99445e-08
4.68989e-08
-0.0102085
0.000216854
3.43642e-08
2.80856e-05
0.000128079
7.00628e-09
0.000410571
-3.79117e-09
0.00146435
3.21735e-08
-1.91264e-06
-2.25212e-06
2.22083e-07
2.26885e-07
-1.1518e-07
0.000108044
-6.37918e-06
0.000199149
9.10136e-09
-1.76712e-09
2.18263e-07
-1.83953e-08
7.58418e-06
-3.34583e-08
-0.000425017
2.12717e-08
2.03506e-08
-8.70636e-07
-5.56389e-09
-5.48951e-08
3.01499e-06
-4.94579e-08
-0.00140056
0.000182226
4.30072e-06
-9.33071e-07
0.000151917
4.29966e-08
4.33798e-09
6.44605e-09
1.07541e-08
2.91976e-08
-6.81864e-08
4.94215e-08
-1.49303e-06
4.20146e-09
-4.15031e-06
3.40045e-08
3.23723e-08
0.000348665
3.67987e-08
-2.10176e-07
-3.33974e-08
-0.000308297
-0.000322654
2.64921e-08
-1.65758e-10
2.50967e-07
0.000225133
-2.96133e-08
2.69882e-09
0.000480819
8.18834e-06
-5.60165e-06
1.0648e-05
-4.45536e-09
-5.29398e-08
-6.34383e-08
-3.32486e-06
3.50916e-08
-1.52774e-10
-2.02529e-08
-2.71159e-07
3.3291e-08
-6.95019e-08
2.45164e-07
0.00281496
-1.6777e-09
6.43003e-09
2.87165e-05
-1.42613e-06
-7.04449e-07
0.00458892
-4.35722e-08
-3.13876e-06
0.00025224
0.000515627
-4.28722e-07
6.55949e-06
-3.06311e-08
4.92026e-08
1.68291e-07
2.44044e-08
2.68634e-07
-8.73288e-07
0.0187746
3.77324e-09
4.70012e-05
6.3458e-08
4.50286e-08
-1.09484e-07
9.03117e-09
5.51631e-08
-9.02541e-07
-9.04818e-06
-0.000449118
-5.81249e-09
0.00066928
3.04691e-09
-2.55161e-07
0.00041084
0.00255803
5.61752e-10
1.20752e-08
-4.48366e-05
5.73339e-08
-3.47187e-08
1.23181e-09
1.11787e-09
2.85953e-08
0.000195278
-1.53769e-06
-4.27429e-09
1.66231e-08
-4.09123e-06
-1.42022e-06
4.85459e-08
7.04067e-09
4.9522e-08
-4.06888e-08
2.91688e-08
-6.45398e-08
2.34537e-07
3.43395e-05
0.000382056
1.46364e-08
4.31935e-10
-2.92222e-08
5.77793e-08
-4.07089e-08
-1.70477e-09
-0.000252485
4.63739e-05
-2.30721e-08
1.68123e-10
3.65995e-08
-4.45369e-06
-0.000532778
2.6222e-08
6.20258e-11
0.000218071
1.52596e-08
-6.55922e-08
3.33009e-07
-6.20603e-09
-2.68669e-06
-1.80328e-07
4.45414e-07
2.76941e-10
-4.42086e-08
7.42078e-05
-1.2572e-07
2.85151e-08
0.000273894
-2.21002e-08
7.94884e-05
5.40064e-08
1.22857e-08
3.89515e-08
2.69686e-08
0.00016201
1.17697e-09
1.26177e-06
0.00016829
-2.92129e-07
-1.29587e-08
-1.27096e-07
0.000228858
2.79742e-08
-0.000138625
-4.44837e-08
-0.000517653
7.68618e-06
1.01832e-05
1.20562e-09
0.000120054
-4.84887e-08
-6.02091e-10
1.04105e-08
8.94393e-09
0.000154075
2.05407e-06
-0.000221574
-7.5674e-07
6.55796e-07
-1.89566e-08
-2.60313e-08
1.66023e-09
-8.18706e-09
0.00142745
-2.17501e-06
1.99161e-05
-7.34165e-10
-0.000251978
1.01723e-07
0.000514099
-7.71708e-06
0.00124807
-5.35306e-06
-2.79295e-06
-0.000128403
-0.00023851
1.9048e-05
0.00027026
-1.87832e-08
0.00288605
-0.00121319
-1.42637e-06
0.00156709
0.00235045
0.000658374
-4.63364e-08
0.00236858
-1.27714e-08
-2.2331e-06
3.41415e-07
4.00215e-08
2.49651e-09
-1.56642e-10
1.68916e-09
-0.000345157
-1.39587e-07
-5.43626e-08
2.84701e-08
1.06548e-08
1.94361e-09
-0.0154567
1.09894e-08
-0.000307183
-1.17774e-06
5.01736e-06
-1.20777e-08
-1.80851e-06
0.000120636
-5.87323e-09
1.18404e-05
-0.00248581
0.000186463
-0.000344698
-1.43975e-10
-3.50301e-08
-1.13813e-06
2.10225e-08
-4.25787e-10
0.00532615
5.57803e-08
0.00104921
-1.30914e-05
-1.49457e-06
3.79586e-08
7.00803e-09
4.92111e-06
-3.24591e-07
-0.0064344
-6.3472e-08
-1.67161e-06
-2.93063e-08
-1.14548e-08
0.000484671
0.01789
-2.4899e-08
8.48693e-08
-1.34052e-11
-1.34979e-10
-1.30025e-10
-8.82961e-07
2.02838e-07
-0.000253135
-3.63998e-08
-8.81625e-08
-0.000126947
-9.45009e-07
2.03582e-08
-3.45884e-09
3.26442e-06
-9.84297e-09
3.05983e-09
-3.8449e-09
0.000278324
1.25819e-08
-1.6444e-08
2.71585e-08
-6.37873e-10
-8.30318e-07
-1.4429e-09
1.62121e-09
2.40762e-09
-7.5089e-05
3.13033e-08
1.13613e-08
8.28479e-05
3.01222e-08
8.52889e-09
-0.00031028
1.54262e-07
7.24708e-09
-1.55843e-05
0.00258526
0.000501354
1.0222e-08
-2.38223e-05
-1.08731e-08
7.50017e-06
2.69329e-08
-8.41948e-09
-0.013778
-5.37419e-07
3.88703e-08
0.000168463
-6.53165e-08
1.92288e-08
6.60897e-09
-8.97368e-09
-5.92909e-06
-4.42329e-08
1.32703e-09
0.000249459
5.19927e-08
4.81654e-08
1.40699e-05
1.09195e-08
-1.07113e-08
1.10906e-05
-0.00029137
4.58543e-09
2.31674e-09
0.000161722
-0.000278217
-1.7538e-06
4.46472e-09
-0.000289914
0.000364808
-0.000254456
9.35483e-09
4.85909e-08
-7.45501e-09
1.2284e-08
-2.12911e-09
-7.33348e-07
-0.000266925
1.18433e-08
1.03578e-08
1.052e-09
2.82591e-08
0.000270586
-0.000158623
-0.000100006
-2.30264e-07
2.89846e-07
-1.23758e-09
0.000203307
7.21777e-06
0.000461465
-5.02147e-08
-0.000155379
4.63833e-08
-3.78761e-08
-4.0869e-08
1.12487e-08
4.12657e-08
-1.04644e-08
-0.000140912
0.000473324
3.94612e-07
8.71295e-07
-4.0478e-08
4.64784e-07
1.04902e-06
2.75641e-07
-5.51433e-09
-0.000333285
0.000473567
-2.98505e-08
-5.44299e-06
1.67946e-09
2.80062e-08
0.000172015
2.44898e-06
-1.68607e-09
-0.000260436
8.40617e-10
-9.06836e-05
-4.61954e-06
-2.32377e-06
-1.39249e-06
2.01016e-08
-2.75893e-07
-6.86193e-07
2.72661e-08
-1.47952e-06
3.90286e-08
-6.1165e-07
-3.10482e-08
0.00524063
0.000485407
4.16976e-10
-2.55642e-08
3.12851e-08
5.34639e-08
-2.1313e-07
8.98196e-09
2.59668e-08
3.64966e-05
-1.08298e-06
-4.47755e-08
2.99114e-05
-6.17332e-08
0.000402223
-1.10378e-09
1.62748e-09
-2.57548e-06
-2.44309e-10
2.79471e-08
1.96192e-07
-2.0844e-06
-2.13869e-06
0.000137209
-1.82233e-08
9.08333e-07
0.00350721
-1.3117e-07
7.77074e-05
1.66666e-08
-0.0289823
-1.86202e-07
-6.23588e-08
2.3438e-06
5.3923e-08
-0.000120373
-0.000159214
1.30055e-05
-1.90719e-09
-5.96637e-08
-4.49282e-05
3.27046e-08
1.91896e-08
-2.9198e-07
-2.24088e-06
0.00245839
4.12381e-08
3.23908e-07
-3.43704e-08
-3.55029e-08
-2.36413e-10
5.52054e-09
0.000264528
-3.93408e-07
2.40788e-08
2.54653e-06
0.000431574
-1.50762e-09
0.000493366
0.000210459
-8.80434e-08
-1.2691e-05
4.2983e-07
-2.97318e-07
9.22131e-08
-2.30413e-05
-1.93988e-07
1.29994e-08
-0.000264513
2.44149e-09
-1.149e-08
9.48994e-10
-0.00172646
-1.52823e-10
-8.57143e-07
4.48133e-08
0.000593518
-3.93189e-08
-1.14315e-08
-3.83552e-08
-0.000165454
6.15145e-09
1.56292e-08
-9.24308e-09
1.46399e-07
1.15099e-08
0.0189112
4.49487e-08
9.22085e-09
2.96517e-06
-7.52378e-07
0.000456728
3.95749e-09
3.09539e-07
0.000329547
2.87716e-05
3.98174e-08
5.869e-08
1.70564e-08
-3.16469e-08
3.73819e-07
1.33611e-08
-2.87404e-09
4.11225e-08
-8.19095e-08
-2.41646e-08
0.000506102
3.47022e-10
1.15363e-07
-4.58134e-10
-1.91626e-08
-6.2363e-08
2.11991e-10
4.69499e-08
7.6651e-07
-6.65126e-10
5.94714e-12
1.81816e-09
8.27383e-06
-1.60963e-08
0.0058825
-6.76699e-08
3.47912e-05
0.000740665
-1.9487e-06
-4.0367e-08
1.07437e-07
1.92763e-09
-0.0038981
-0.000131095
-0.000299068
0.00456611
-5.10135e-07
3.29451e-06
-1.45434e-06
-3.31001e-06
-2.69325e-07
5.76517e-08
-2.38293e-09
-1.84631e-07
-0.000338955
-1.75467e-07
-1.75081e-08
9.10303e-10
-2.88051e-07
-4.55451e-08
6.90667e-05
-8.7351e-09
4.68281e-07
-5.66072e-09
0.0001557
-1.31574e-08
-0.000213572
-3.0144e-08
-2.78471e-06
-8.04367e-09
-4.48934e-09
-0.000979971
7.14242e-05
1.66175e-07
3.98911e-08
-1.72174e-08
2.84424e-08
0.000635126
0.000940006
-4.4361e-05
3.26313e-08
-7.44649e-07
2.86002e-08
-3.79534e-08
-6.58954e-09
-2.17517e-06
8.89376e-09
4.97487e-08
-4.51633e-08
8.81054e-09
9.13059e-05
9.1e-09
-3.04198e-08
-1.18586e-09
-6.79553e-08
-5.80144e-10
-3.20694e-08
0.00552953
-5.90023e-08
0.000104325
0.0724034
-2.17132e-08
1.38999e-07
8.62546e-09
1.13295e-08
-8.41804e-09
-0.00410749
0.00723607
9.93125e-09
-4.55734e-08
1.44114e-08
0.00210272
-0.000671079
1.03262e-09
6.07683e-09
2.43073e-08
-4.96898e-09
0.000201196
-6.57333e-06
9.05638e-09
-4.45541e-09
-1.65207e-06
8.90915e-06
2.61682e-08
3.45834e-06
-0.000267611
2.75528e-09
-0.000328541
-2.31109e-08
-0.000260561
0.000244785
-4.95894e-09
6.66271e-08
6.18518e-05
0.000160259
1.06327e-08
-7.80836e-07
-1.2498e-08
4.45313e-09
0.00177652
7.43609e-09
-6.73865e-08
1.48825e-09
1.37938e-05
2.35827e-07
-2.49541e-08
-2.23889e-06
4.86997e-08
1.59015e-08
-1.6849e-07
0.000345546
-2.44521e-08
0.00108367
7.67584e-06
3.16368e-08
2.20801e-08
-1.08674e-08
-4.45959e-08
2.55849e-07
4.95878e-08
-1.90972e-09
4.78901e-07
0.00296423
-1.61664e-07
-5.263e-10
2.00239e-07
-2.68507e-05
5.19308e-09
0.000374469
4.35788e-08
-9.13806e-06
-4.80272e-07
0.000276488
4.36224e-10
0.00238383
4.98906e-09
5.19745e-09
-8.91218e-10
-3.85429e-08
-2.11653e-09
0.00025704
2.88479e-09
-4.37512e-08
5.76666e-06
-1.05922e-08
4.04232e-08
2.85515e-06
-6.0124e-08
5.93384e-10
-2.1993e-09
-2.19892e-08
0.000653853
0.0101759
0.000923416
0.00219212
8.26988e-05
-2.73851e-08
-1.19215e-08
-2.99917e-07
1.08918e-06
-6.49968e-06
0.125923
2.16623e-09
9.40974e-07
-0.000393762
-1.24636e-08
0.00131696
1.89259e-07
3.79226e-09
-2.96904e-08
-3.24315e-08
1.29892e-09
3.77962e-08
-5.51299e-06
0.000314676
5.62404e-06
-1.15215e-06
-1.11308e-08
5.29302e-07
4.31484e-08
-1.09873e-08
-0.00111144
-1.27254e-08
3.27861e-08
-3.00323e-06
-4.74782e-09
-2.65466e-07
1.26196e-08
-1.9849e-07
1.71326e-05
2.5271e-07
-7.85972e-09
1.38405e-08
-0.00036246
-0.00340829
-1.52035e-08
-0.000144041
1.98868e-08
4.98659e-08
0.000191371
-2.04522e-07
-9.74792e-09
0.000733126
-0.00101351
5.8835e-09
-4.00512e-08
3.05968e-07
1.54509e-06
2.70616e-07
-7.02347e-07
-1.16208e-08
0.0001025
-6.04679e-08
-4.03549e-11
-4.22019e-08
3.45682e-08
2.18723e-08
5.484e-08
2.90376e-07
-0.000107314
7.32165e-09
1.51679e-07
-2.83038e-08
1.95312e-08
-4.54152e-05
-1.35446e-08
-0.00374374
-1.47174e-06
0.000321708
-4.29018e-08
0.00010422
0.000211618
5.61171e-08
2.8628e-08
0.00245488
-0.000315899
3.62756e-06
1.8946e-07
-0.000250588
-2.35059e-06
0.000218867
-9.06619e-09
0.000428182
-1.68811e-08
-1.51614e-08
2.37688e-08
1.8833e-07
1.92677e-08
-4.39189e-07
-3.95749e-06
-4.06861e-08
5.5e-08
0.0224294
-2.68827e-08
-0.00048274
2.03482e-07
-4.63106e-08
0.000197918
-2.31536e-08
8.67834e-08
0.00174172
0.000155969
-2.84595e-07
2.60278e-07
-0.00010398
-1.78421e-08
-1.01205e-09
0.000565703
-2.23657e-07
-0.000946887
-1.11296e-08
1.68612e-08
2.55481e-08
-3.54326e-08
-5.55216e-08
-2.09252e-07
-1.41002e-08
0.000159932
2.31998e-09
3.73065e-07
-2.19818e-08
0.000187324
3.82134e-05
4.79601e-08
-2.69035e-08
-6.80523e-08
-1.96668e-10
-0.000108739
-2.14351e-08
-3.32082e-07
-0.000101581
2.49086e-09
3.18176e-09
0.0115817
-0.00450774
-4.80755e-09
-2.60024e-08
-1.42834e-08
4.7945e-08
1.90259e-09
-0.000490505
-1.22754e-08
-1.24533e-05
-1.44593e-07
-1.4539e-06
2.97519e-08
-1.08625e-08
-4.35189e-07
-4.23852e-07
-5.71013e-10
-3.0348e-05
0.0142309
-7.4507e-06
6.02374e-08
-1.44478e-09
0.000422003
0.000203332
-0.000573514
-8.57221e-10
1.02582e-09
0.000117033
3.68922e-08
-3.26978e-05
-3.23271e-09
6.8779e-09
-2.99984e-08
6.5117e-09
-8.68677e-09
2.72769e-10
7.4185e-09
3.39999e-07
1.93267e-09
-6.18115e-08
-1.06995e-06
-8.93967e-08
-3.73983e-11
-4.56029e-08
-0.00372093
3.74152e-07
0.00196392
-6.20459e-08
0.000466296
2.08277e-08
1.02944e-09
-5.58454e-08
-1.85197e-08
7.30626e-08
2.07122e-08
0.000275246
-2.63625e-07
3.14733e-08
1.58438e-08
-9.79705e-08
1.54114e-09
-4.31191e-07
4.78138e-07
-0.000648385
6.84502e-08
-4.72126e-08
0.000137721
-1.71368e-08
7.27561e-09
1.21503e-07
-8.97985e-06
1.98644e-10
2.15084e-06
-0.000195739
-9.65944e-09
-2.88583e-07
-8.121e-07
5.96158e-09
-2.29219e-08
-1.46749e-10
-4.31955e-09
9.68833e-05
-1.02461e-08
-5.86905e-07
-4.70231e-07
6.1072e-10
-1.25164e-05
-1.04663e-08
5.63274e-08
-2.26921e-09
3.22254e-08
1.88242e-05
0.000241947
5.56084e-07
1.23568e-08
-1.85533e-08
3.77958e-07
-4.27914e-08
-0.000273174
9.13251e-11
4.20561e-06
2.08223e-08
0.000201441
-6.5374e-06
-6.55694e-08
1.43854e-07
4.86049e-09
-4.52619e-11
-3.78892e-08
-4.49229e-08
-2.73692e-07
2.44974e-08
9.77886e-10
-0.000444605
0.000279452
2.58016e-06
-1.0388e-07
4.02001e-08
-0.000272175
-5.4434e-08
-0.000199667
1.23161e-08
-1.08867e-08
2.73739e-07
-2.06466e-10
0.000401629
-7.64361e-09
0.000168672
3.49113e-09
2.13629e-09
-3.79598e-09
2.76439e-08
1.9629e-07
2.07656e-08
2.85512e-07
-6.90632e-08
-0.0428283
-9.87182e-09
-9.49516e-05
1.56724e-09
-1.02444e-07
-4.07292e-08
-1.0434e-10
-9.20019e-08
4.96673e-08
-2.57211e-10
4.5576e-08
4.09548e-08
2.85643e-08
1.80758e-08
1.06361e-05
3.95204e-07
-0.00122469
1.23926e-09
4.94636e-08
-9.5885e-09
-3.54391e-08
-1.03264e-08
0.000180244
2.72339e-08
-3.27503e-10
-1.94755e-10
-2.29625e-08
-1.63585e-06
-2.21052e-05
-4.89223e-11
-6.94261e-06
3.30225e-07
-0.000193636
-2.36246e-06
-2.65026e-05
-5.4601e-10
4.11628e-08
4.16478e-05
1.09704e-07
0.00157595
-7.84069e-05
-5.10319e-07
-2.41349e-11
4.71215e-09
-4.56885e-10
4.12848e-08
7.46777e-08
-2.93629e-08
0.00183147
0.000582218
2.18969e-07
-4.38972e-08
2.19903e-05
-1.29595e-10
-0.00103618
1.53108e-05
-0.000517672
-4.0467e-08
9.08511e-09
0.000493902
-1.9739e-07
-0.00051661
8.8982e-07
4.84343e-07
-8.34867e-06
6.04479e-05
4.10928e-09
9.52295e-09
-0.00335346
-6.99031e-08
4.25467e-08
0.000454535
9.71819e-09
-3.18755e-07
6.23377e-09
0.000299915
-5.94616e-09
-4.20804e-08
5.93835e-08
-5.87198e-09
-2.98078e-05
2.81622e-08
5.96707e-05
-1.6135e-08
1.38736e-09
-2.88491e-08
-4.0823e-08
2.11788e-07
-5.49936e-08
5.01518e-08
3.52914e-08
6.27986e-07
-1.24274e-06
5.19631e-08
-4.23343e-08
3.9392e-08
-1.88586e-07
-9.38213e-06
1.63038e-07
6.24148e-09
-3.7677e-09
1.20738e-08
4.94297e-08
-8.82685e-09
9.07615e-09
-1.21383e-09
0.000775047
4.25503e-08
-8.51523e-07
-0.000431318
6.1305e-09
1.84407e-06
0.000631353
-2.60936e-09
-9.9444e-11
-3.4463e-09
-1.37489e-08
0.000629983
5.80948e-09
-0.000281034
9.14619e-05
8.77364e-08
3.95692e-07
1.25848e-06
-7.323e-08
-5.01183e-08
2.1173e-08
3.18995e-09
1.84883e-08
2.45256e-08
-7.04057e-09
0.000437038
-0.0164711
2.93437e-08
-6.52803e-08
5.27243e-08
2.53326e-08
-0.000247596
5.25046e-06
-4.75565e-10
-2.1062e-10
0.000202001
-3.94653e-08
0.000418132
3.75292e-05
-2.44676e-05
0.000639766
0.00459067
6.71386e-09
0.00110064
0.000239406
0.000344239
-2.73087e-08
1.76946e-08
6.79008e-07
-2.61045e-07
-1.6066e-06
0.000337448
1.44547e-08
1.24264e-07
1.15627e-08
-3.50251e-08
-0.00164692
-6.53318e-08
-3.31187e-09
-0.00364843
2.19655e-08
-5.46562e-08
-5.47275e-07
1.4181e-09
6.0133e-09
-6.05608e-08
2.31158e-06
0.000520666
5.49581e-05
0.000379573
-2.45706e-09
-2.15951e-10
-4.72155e-07
-4.2219e-08
-1.31858e-08
-9.45695e-11
0.000645488
-5.07943e-08
6.50408e-09
-0.000164794
-4.48815e-11
-5.66958e-08
-8.77205e-09
-4.91076e-06
-1.01551e-06
0.000247054
-8.05289e-09
1.7269e-07
-0.000848055
-1.65127e-07
-1.00226e-10
9.66166e-09
-6.97065e-10
-1.18326e-08
1.35154e-08
-6.98593e-08
-1.86925e-06
4.08944e-08
3.31635e-08
0.000266611
3.19214e-10
6.49757e-05
5.82702e-09
1.0361e-08
1.57591e-07
3.70769e-08
-2.44605e-08
-2.76721e-06
5.02521e-09
-0.000272787
-4.95495e-09
2.32496e-05
-2.16701e-06
6.19375e-06
1.9544e-05
3.81984e-08
2.55245e-08
-5.78844e-09
2.41463e-08
-0.000963821
5.9016e-08
1.388e-09
3.30324e-08
0.00109625
5.82271e-05
0.000673648
4.20324e-09
-7.02418e-07
-0.00334452
-1.38455e-10
-1.56512e-06
-0.000417486
-0.00219198
2.71347e-08
1.78029e-08
4.40958e-08
1.3074e-08
1.02637e-08
0.000460199
6.03055e-09
5.42437e-09
-7.09109e-09
1.76281e-07
5.85021e-07
-2.11426e-07
1.47608e-08
-1.53665e-06
6.21728e-09
-6.4142e-09
4.51373e-08
6.87215e-08
7.1459e-10
1.16919e-05
-2.63612e-06
1.14059e-07
6.65311e-10
-8.92598e-05
-6.50448e-08
1.65369e-08
1.37772e-10
-6.80292e-08
3.94257e-07
-0.000148653
-1.10029e-07
2.2918e-07
1.35731e-08
4.95781e-10
0.000682156
1.532e-07
2.14662e-07
-1.83859e-05
2.53075e-05
7.11182e-05
1.01185e-07
5.75801e-08
-1.20651e-08
-9.28807e-08
3.70887e-08
1.51143e-05
5.28951e-09
1.57357e-08
8.24545e-05
0.000238013
-0.000280031
1.11884e-09
1.34e-07
-2.71626e-10
2.25783e-08
1.25375e-06
0.000225365
5.78122e-08
-0.000854877
1.75546e-08
3.11715e-07
-6.25168e-08
-7.16136e-08
-4.93729e-08
-1.01548e-08
-1.58487e-08
-2.4657e-07
-6.39655e-06
2.98341e-08
7.49427e-06
-0.00021152
0.000902481
-6.46072e-08
-2.74141e-08
0.000430474
-3.13681e-08
-5.57865e-06
-5.53952e-09
-6.03945e-08
0.000298693
-1.21794e-07
-3.21663e-07
-5.93382e-05
9.3922e-07
1.46244e-08
3.56634e-09
-0.000161524
1.84469e-08
0.000293295
2.7727e-05
0.000278169
0.000509878
2.03537e-06
-6.18078e-06
2.15633e-08
2.86226e-08
0.000168033
6.35962e-08
1.58498e-08
-8.68395e-09
1.17898e-06
-2.32903e-08
-5.93944e-08
-2.06886e-08
1.9144e-08
4.26273e-09
1.27912e-05
2.71185e-08
-6.95263e-08
-0.000356496
-2.23478e-06
1.43369e-08
2.84432e-09
4.99308e-08
1.07471e-08
1.8753e-05
0.000380117
0.000267167
1.76386e-08
4.50202e-10
-2.70121e-07
1.70361e-06
1.12821e-09
1.94116e-07
2.56057e-08
0.00620836
2.91559e-08
1.21011e-07
1.84184e-09
4.98304e-08
-5.16638e-10
0.000287035
6.16971e-08
1.43951e-05
-2.68453e-07
-0.018861
-3.9997e-07
2.03399e-07
1.45965e-10
0.000312045
-7.96723e-07
9.00218e-09
-0.00036346
-3.85816e-08
-1.70975e-08
-4.57184e-08
1.89756e-10
-6.77155e-08
0.000289695
2.92046e-09
5.23066e-07
-1.01614e-08
2.57225e-08
-3.43193e-09
-0.00327271
1.10793e-08
-0.000122263
-9.67998e-07
-0.00315718
8.57832e-09
1.24054e-08
-2.11275e-10
1.39863e-08
3.85404e-09
1.34867e-08
3.11215e-08
-9.29261e-09
-2.64526e-08
1.47345e-08
-2.78045e-08
0.000640019
7.47162e-07
-2.76569e-06
-1.38678e-09
0.000300008
-1.20596e-08
-2.44303e-10
-4.60042e-10
4.49706e-10
-3.97822e-07
-2.45003e-08
-6.56827e-08
-3.58142e-10
-3.30633e-10
2.86299e-08
7.40659e-05
2.58612e-10
1.41813e-08
3.10878e-07
-2.91886e-08
-6.15406e-05
0.000597088
2.38911e-07
1.39003e-09
1.72797e-08
-2.03051e-07
1.4359e-09
1.01454e-06
-4.86964e-10
7.9813e-07
-2.63891e-08
0.00105441
3.78526e-07
-0.000295175
-6.31211e-08
5.58627e-09
5.85208e-08
0.000284924
-1.94449e-05
2.20571e-08
0.000850025
3.648e-08
-1.95565e-06
-1.31682e-08
-2.90762e-05
0.000309433
1.00221e-08
-4.38479e-08
-1.72286e-08
1.66429e-08
3.0147e-08
-2.2856e-08
0.000287634
4.40979e-06
-6.77915e-08
0.000113684
3.02954e-09
5.80207e-08
-1.60949e-07
0.00377193
-5.63566e-07
2.69184e-06
-0.000258014
1.79385e-08
9.01302e-06
-0.00024971
-0.000775479
-0.000172835
-1.86348e-08
8.36511e-05
-0.000331347
0.000572614
4.11114e-05
0.000166621
-6.65267e-05
1.03648e-05
-5.89443e-09
0.00281723
-1.56032e-07
7.46575e-09
-1.46572e-06
0.000279125
-1.40259e-07
-2.15909e-08
1.74886e-08
-1.33982e-06
0.00357673
-6.13859e-08
4.27362e-08
-1.38821e-08
-0.0001282
0.0053026
7.36331e-07
-1.34896e-08
1.05422e-08
-4.90208e-06
2.94502e-08
0.00252064
2.76251e-08
-1.3323e-09
0.000312136
5.00456e-09
-2.0375e-09
5.10006e-11
1.15122e-08
-1.14123e-07
-9.41161e-09
-2.34387e-05
-0.000537761
-0.000166527
3.94343e-08
1.07743e-07
-6.71798e-08
1.11805e-07
4.42042e-08
9.20143e-09
-9.90017e-10
-0.000120492
0.000117013
2.33794e-09
-2.94388e-09
-9.48551e-11
1.20236e-09
6.43614e-06
-0.000314936
3.8525e-07
0.00110748
-0.000137955
4.90826e-07
-7.63644e-09
2.58899e-09
-2.99702e-09
1.31037e-06
2.28005e-07
-0.000931489
4.98e-07
-1.16859e-08
0.0010613
-1.27936e-06
-6.09646e-08
0.000332144
-5.45368e-07
0.000122216
8.84066e-09
8.72759e-05
8.49504e-09
-5.72253e-09
5.47593e-08
4.97945e-09
0.000878636
-1.21397e-07
0.000304464
5.45861e-08
-8.38392e-09
-0.000206419
1.50805e-05
-8.4239e-06
3.58256e-09
-0.000622113
0.000203354
2.01472e-06
-9.22348e-09
-6.53007e-05
-3.65103e-09
-6.48061e-09
5.61108e-08
4.50204e-08
-6.16213e-08
-6.00323e-08
5.61044e-05
4.81916e-08
9.77636e-09
0.00428113
4.31643e-08
2.16132e-08
5.86957e-08
4.53756e-07
-8.05973e-08
-1.72351e-08
3.76107e-07
-0.000146254
-8.38778e-10
-3.13556e-10
-5.68849e-07
-4.31927e-08
-3.44129e-10
0.000129205
-2.77113e-07
0.000177037
6.80925e-07
4.01173e-09
5.14464e-08
-3.13719e-08
-0.000122099
-1.92344e-07
4.85475e-09
-2.96262e-08
8.40205e-10
-4.44144e-06
2.77562e-08
-3.45161e-06
2.36512e-09
6.5842e-09
3.12877e-07
-3.44334e-08
6.75949e-07
-7.48392e-06
3.23942e-05
-2.07461e-06
-0.000219788
5.54442e-08
-0.00151615
4.5017e-09
-9.5729e-09
0.00536904
3.79607e-07
-3.15788e-07
9.43254e-08
1.48467e-08
1.06323e-08
-2.06836e-08
-8.71654e-08
-5.85072e-10
4.45931e-08
9.3297e-09
0.000627425
4.75483e-08
-0.000263612
0.00125779
-0.000747142
-0.000124516
-3.35566e-07
-5.0641e-10
-1.16287e-07
4.81158e-05
4.36268e-08
4.71118e-10
0.000234682
7.67324e-05
7.77611e-07
-0.000313312
5.37845e-09
0.000242632
0.000166362
-8.84519e-09
0.000547262
-1.01835e-08
8.40526e-09
8.83294e-09
2.94696e-08
-6.43585e-08
4.52482e-08
0.00504347
-2.89624e-07
2.1777e-07
0.000175144
2.08539e-09
-8.03276e-08
-9.48466e-09
-6.60995e-10
0.000380998
6.91319e-05
0.000153043
7.73001e-09
-4.35144e-06
-6.12995e-06
-1.31738e-07
-0.000183595
-9.40046e-10
1.1541e-09
1.4177e-09
-8.81622e-09
-3.33909e-08
4.0508e-09
-4.80965e-08
8.96406e-11
-0.000156504
-0.000217458
0.00136553
1.19547e-08
-3.16595e-07
-0.000191503
1.15739e-08
2.51508e-08
6.14763e-06
-1.115e-09
-3.58474e-08
-5.71212e-09
-1.82528e-05
-0.000119287
3.82183e-07
8.77536e-09
-8.69983e-06
-0.000398386
-3.27029e-07
4.93326e-09
4.23686e-08
-5.42025e-09
5.1569e-07
-6.8122e-06
3.9394e-05
7.35564e-09
3.76424e-08
2.49471e-09
2.75088e-08
4.48048e-09
7.26874e-09
-4.83855e-11
1.21293e-05
0.000275325
-3.15284e-10
2.85594e-08
0.000350157
-2.24016e-08
3.80811e-09
-1.14627e-08
-1.8713e-07
0.000349387
-2.50576e-08
1.80549e-09
-4.66897e-10
9.94236e-06
-1.27191e-08
-1.21498e-05
-1.30119e-07
3.44875e-07
-2.03616e-08
1.51205e-09
-5.14274e-08
-1.6237e-06
3.50805e-09
-0.000448153
0.000111315
4.83642e-09
-1.99306e-08
1.32045e-09
-5.92178e-08
2.43848e-07
1.04235e-07
1.83655e-06
1.21755e-06
2.57706e-08
-0.000452146
1.2799e-06
8.34688e-09
-2.56908e-08
1.46285e-08
9.36045e-09
3.86618e-08
-2.94061e-08
0.000324085
0.000798595
4.58721e-08
2.24227e-09
-0.000296301
-1.35544e-06
-4.03462e-08
5.54103e-09
-1.73151e-08
8.49886e-08
1.16019e-06
0.000332434
0.000277125
-6.1351e-08
-5.79988e-06
-1.77752e-10
-9.88399e-08
5.90425e-08
1.78033e-08
-0.000269437
-3.00354e-08
-0.000152273
-7.82448e-08
1.71496e-05
5.60804e-09
-2.63621e-09
1.13919e-08
5.61751e-09
0.004303
1.27524e-07
1.65143e-05
-1.98052e-10
2.72759e-07
-1.38124e-07
1.8876e-08
-2.95977e-07
-8.48712e-09
0.000345565
-1.36947e-08
-1.81446e-06
-0.0060224
-3.2015e-08
-1.77363e-06
-4.53009e-08
-2.67917e-06
-3.85399e-06
-0.000300665
-2.66589e-08
3.42515e-08
9.34238e-09
1.12059e-10
3.21815e-08
4.95589e-09
-3.24501e-06
-5.75898e-10
-8.03052e-10
-1.26526e-07
-3.79679e-06
-1.41823e-09
3.13528e-07
-2.86208e-05
0.000133616
6.44057e-08
0.000260883
6.11412e-09
5.84374e-05
1.80637e-07
3.97053e-08
0.000219892
-0.000369735
4.77775e-06
-1.78074e-05
3.64392e-06
-8.69114e-09
3.48754e-09
1.16965e-08
-1.69768e-07
-6.87844e-08
7.35869e-09
-7.44865e-07
7.72819e-08
0.000199439
-0.00211676
1.33776e-07
-1.75445e-10
1.42484e-07
0.00426161
-9.65695e-05
-1.91538e-08
0.000180491
4.74049e-09
9.34978e-08
2.77078e-05
-8.04881e-08
2.89977e-05
0.012483
5.67179e-09
0.000306483
-1.48302e-08
-0.000186839
3.96874e-08
-2.45649e-07
0.000300294
5.22966e-09
-1.69184e-06
-6.78105e-05
6.28113e-09
4.91829e-08
3.85325e-08