/*--------------------------------*- C++ -*----------------------------------*\
| =========                 |                                                 |
| \\      /  F ield         | OpenFOAM: The Open Source CFD Toolbox           |
|  \\    /   O peration     | Version:  v2012                                 |
|   \\  /    A nd           | Website:  www.openfoam.com                      |
|    \\/     M anipulation  |                                                 |
\*---------------------------------------------------------------------------*/
FoamFile
{
    version     2.0;
    format      ascii;
    class       volScalarField;
    location    "200";
    object      ddt0(omega);
}
// * * * * * * * * * * * * * * * * * * * * * * * * * * * * * * * * * * * * * //

dimensions      [0 0 -2 0 0 0 0];


internalField   nonuniform List<scalar> 
54593
(
-2.19104e-06
-0.00016294
8.38782e-07
0.043264
-0.0627022
-0.00440559
0.291839
-0.000135592
-0.000170827
8.13215e-07
-2.13708e-05
1.14619
-0.00476809
-8.65133e-07
0.0113783
8.83681e-07
-0.000138803
-0.00126434
9.62082e-07
-2.81234e-05
9.05789e-07
-1.66833e-05
3.3314e-07
0.299518
-4.8273e-07
-0.00179459
-2.02681e-06
0.000131478
-0.00760682
2.45545e-07
-0.00158607
0.0516935
-2.92987e-07
0.0155627
0.00339393
-3.26155e-09
0.000864007
-0.000171283
3.26189e-06
-1.59261e-05
0.00152051
-1.42804
5.97528e-07
-1.98809e-06
0.0105648
8.26344e-06
0.000263353
-0.00462253
1.47537e-06
0.000119831
-3.27073e-07
1.62075e-06
-6.27193e-06
-0.0160987
-0.00178559
4.60737e-07
-0.150997
1.51778
-0.00163005
0.00123585
6.14854e-07
7.41063e-06
-8.32302e-07
0.0313497
-1.76222e-06
1.87081e-06
-0.0840541
-0.0308759
0.0134484
0.0158105
1.58947e-06
-0.00280145
-1.84379e-06
0.0387914
1.15687e-05
2.42549e-06
3.4528e-05
0.0702247
-0.0112901
-0.0579597
4.35043e-08
0.0442318
-2.01599e-06
-0.0290737
-1.38869e-05
0.0427416
-0.129742
-0.00114509
-0.0438203
3.21142e-08
0.0410117
-1.25783e-05
0.00367406
-0.00179857
1.51095e-05
0.116115
0.0241564
-0.0169541
2.42091e-07
6.72988e-05
-4.63982e-06
-0.0107465
-9.94434e-07
-1.1475e-06
0.0205476
0.000213979
0.00029147
-0.00105956
4.89358e-06
0.00775972
-0.0956227
-1.22658e-06
2.83136e-08
-0.00120325
-5.8887e-10
-0.012026
0.0134098
0.0272322
0.0141003
0.00231306
0.0301519
-2.77504e-08
-0.0421736
0.000171777
1.6719e-06
-0.00280616
8.5747e-06
1.62299e-06
-0.100665
0.0135623
8.84398e-07
3.91327e-06
1.99342e-06
-2.78015e-09
-9.02681e-06
0.00582466
2.14414e-06
0.0193962
-1.13288e-06
-3.83294e-08
-0.0957152
0.0117313
2.24945e-06
12.1642
2.87435e-05
-0.0262976
-0.000400546
0.00124477
0.0171321
3.35003e-06
0.000950421
8.38354e-06
-0.00224206
0.023119
5.16904e-06
-0.0814111
-2.02729e-05
-0.0923229
0.0024905
5.02385e-07
0.0702395
9.28429e-07
-0.0968373
0.094353
0.00013488
1.78046e-06
6.62208e-08
5.36517e-07
0.001461
-5.89952e-12
-0.0011997
0.00568034
-0.024738
-2.54528e-08
-0.00021886
-5.57377e-08
-0.115898
5.4559e-06
2.2023e-05
0.00154091
-0.0335734
8.93995e-07
-0.0293644
-4.04458e-06
-1.17149e-07
0.0259159
3.12427e-06
-8.96525e-06
-9.68254e-07
4.43465
2.19128e-05
-0.00873182
-0.119534
-1.96804e-06
-0.0723643
-0.0033623
-1.79695e-06
-7.29903e-06
-0.00116456
0.00354901
-2.88344e-06
-0.0478131
-0.000946058
-1.27336e-06
7.1449e-06
6.87083e-06
-0.0903111
-1.35333e-05
3.3265e-06
5.69964e-08
6.5012e-09
-1.03505e-06
8.65832e-07
6.70994e-06
1.62381e-05
-0.00276208
-0.106213
-0.0167242
0.154294
-1.87085e-06
-1.18898e-05
-0.297892
-0.160782
2.47673e-06
-0.00769277
-3.7959e-06
-4.77756e-08
-0.0118176
7.24056e-07
-0.00704425
-3.84256e-05
-0.00111269
0.865992
-1.31559e-07
-3.72441e-07
0.052541
-0.00143427
-2.24926e-08
0.122752
1.23731e-08
2.3481e-06
4.8552e-06
-0.0223494
0.0043821
4.40978e-06
1.47948e-05
-0.0702415
0.116744
4.8951e-07
0.939114
0.00511906
-0.0376514
-0.0635001
-4.69513e-07
1.06343e-05
5.09371e-07
-0.11501
-1.15075e-05
0.0258772
-1.77268e-05
0.000864882
-0.0272869
-7.58072e-07
0.00290841
1.85114e-05
-7.57513e-07
0.149836
4.87762e-07
-2.52977e-05
1.79045e-06
0.0343607
-0.0333784
1.79117e-06
-1.99997e-06
1.48744e-05
3.78554e-06
9.71557e-06
-0.0223838
-8.68953e-07
0.000364473
3.47004e-07
-1.69828e-06
8.11008e-06
-0.0451692
-0.0688053
0.000525134
-1.78511e-05
2.10022e-06
7.17887e-05
0.0515406
-0.0452772
0.0429117
-4.36807e-07
3.72245e-07
-0.000355295
-6.18231e-08
-0.0813368
-0.0282145
-1.00162e-07
-0.00228504
-0.0855235
7.71467e-07
7.69966e-09
-3.01798e-09
3.0843e-06
6.24603e-06
-3.85042e-05
-0.21792
3.31432e-06
-1.96543e-06
-0.059564
0.000370459
0.115344
-1.39635e-07
0.000108416
0.131579
-0.135419
0.212321
-0.0012378
-6.10497e-06
0.000270605
4.92767e-07
-0.00530075
0.000143558
0.0018784
-9.80863e-05
-0.0169415
-7.86762e-07
-0.0297993
0.000185034
1.01419e-07
-2.26067e-05
-1.29138e-06
3.48069e-07
-2.11861e-09
0.00410071
1.47296e-05
-0.126137
0.0230133
6.58974e-07
1.26768e-05
-4.81352e-06
-0.0357138
-1.23556e-05
5.99356e-06
-0.00157367
0.000141446
-0.00216578
-0.00252116
0.199229
-0.440425
3.75104e-07
0.00689378
0.000510951
-8.48085e-07
6.39014e-07
-7.43618e-06
5.19004e-07
3.99031e-06
-1.87302e-06
-0.000902212
-1.38026e-05
-1.53611e-05
-0.0708378
-0.0147854
-3.63817e-07
5.42289e-07
-2.12179
-9.7338e-06
-2.02541e-06
1.38123e-05
3.06502e-06
5.13848e-07
-6.53124e-06
6.97536e-07
-0.000516763
-4.51862e-07
5.97147
8.74007e-06
-0.0738771
0.100167
-0.000317919
-0.164131
0.0617131
-0.000924682
-0.0128562
-0.395313
-1.25546e-06
-0.0158991
-0.00886427
-0.112251
-0.00164556
1.32434e-05
6.51288e-07
0.151615
-0.0937265
3.3367
-0.000198206
-0.0681206
-0.000429191
-1.65297e-05
0.000521368
0.0198263
0.00239165
-0.000798158
0.16789
-4.04669e-08
-0.169572
-7.43906e-07
-0.0331973
-0.00309611
-5.10841e-07
-4.86937e-08
-0.0018588
-1.48126e-06
-0.00125272
-8.0284e-05
-8.96554e-07
6.14367e-06
0.00015214
0.000402791
0.21135
-0.000299516
-0.00104563
-0.032948
0.133492
-0.0789847
-5.70988e-05
0.275425
-0.000264448
0.0324826
0.00117099
0.000639698
3.97531e-05
-0.000478691
5.91608e-05
-2.06639e-06
0.00800689
-0.00630453
0.000590541
0.000740498
-1.30515e-07
1.5929e-06
6.4996e-07
-0.0749226
-0.000306566
-2.12819e-06
4.61115e-07
-0.00211455
-0.0015327
-0.415791
-0.0766495
-0.0193254
-0.00664521
0.0413561
0.00260622
-0.000386471
1.17812e-07
7.21622e-06
0.00507645
-2.12909e-06
4.64088e-07
0.00132679
6.84499e-06
-2.85223e-07
0.000484593
-0.00113892
1.70063e-06
-8.99868e-05
-6.42137
0.0593738
0.0453457
-9.20968e-06
-6.44446e-07
-0.132133
8.49664e-06
1.24789e-11
-0.0156941
-0.0893761
1.85602e-06
-0.0001597
-1.08833e-06
-0.00981188
-0.000222003
-7.69771e-07
-3.89875
-0.00423192
-0.0725915
-4.81941e-07
-0.0479772
0.00315299
-1.09738e-07
-9.27326e-07
1.90556e-06
-0.122106
-4.31097e-06
-0.00101074
1.73499e-06
-0.013013
5.91779e-06
0.483692
-0.143994
-0.0100601
-0.0086454
2.16753e-06
0.00029031
2.57475e-07
0.00011644
0.00167748
5.22916e-07
3.06888e-06
-0.000435228
-0.0743098
4.3039e-07
-2.50314e-05
0.0226575
-0.00490656
-4.14089e-07
-0.144056
-2.36981e-06
-0.00122987
-2.0828e-05
-4.37639e-06
6.12109e-07
-2.00623e-06
-0.000431879
-0.00916983
-0.0524936
0.00275825
1.53277e-06
-0.147022
-1.70788e-05
-0.00781605
4.7751e-06
1.61222e-06
7.2392e-07
0.0175963
-1.0157e-06
-2.8987e-05
3.01244e-06
3.07602e-06
3.40803e-06
-3.81906
-0.0315702
8.13771e-06
-0.0156908
-0.125244
5.49334e-07
0.263233
-2.61855e-07
-0.0791815
-1.96289e-05
-0.00189444
-0.042335
0.000975855
0.00105671
-0.000740278
0.342248
0.0144001
0.0451929
6.9019e-07
-1.33868e-07
0.000542917
-9.61209e-05
0.00616006
-3.73441e-06
0.0333259
3.04414e-06
1.40412e-05
-0.00163765
-4.20501e-07
-2.30113e-05
0.0133848
-1.75185e-05
1.75401
0.0247248
0.0628675
-0.0137599
-0.00519437
0.00451702
3.17394e-07
4.89638e-07
-3.2322e-05
2.18148e-06
-1.6328e-05
5.91133e-06
-0.00209709
1.40253e-06
-0.00125835
1.10451e-05
5.8483e-05
-0.030466
-0.000218226
-0.000418805
-4.85166e-06
-0.0527954
-0.0157676
2.09972e-06
-1.2573e-08
0.00109759
-0.0171675
-9.60396e-06
2.67167e-07
0.0869538
-0.0403592
-0.0826963
0.258013
-1.31204e-06
-1.99703e-05
1.3673e-05
0.00046115
4.18638e-06
-1.1536e-08
-0.000793158
-0.000613938
-1.99958e-05
-1.55878e-05
0.00136709
-0.0143352
-1.26771e-07
4.87334e-07
0.118741
-0.00209343
-0.0011584
0.0102605
0.00244666
0.00044487
0.108641
0.0990431
-0.000894411
-0.208069
-2.33764e-06
6.94958e-06
0.000371359
1.91601e-06
0.000290054
0.00198997
2.13555
1.29966e-06
-0.0968746
-0.00377903
3.61887e-06
-0.0174218
6.84057e-07
3.8543e-06
-0.0138662
-0.0819205
0.0198251
5.60873e-05
-0.100864
2.32045e-07
0.00219688
0.108868
-0.00975223
4.49908e-08
9.25163e-07
-0.0293384
-0.000114881
-3.91434e-06
9.34824e-08
1.79852e-07
2.16383e-06
0.550812
-0.0150272
-7.03289e-07
2.62307e-06
-0.0170105
-0.00196692
6.5039e-06
5.33708e-07
4.7825e-06
-8.16782e-05
8.76796e-07
-1.76477e-05
0.000997605
0.108135
0.0163439
9.55607e-06
3.39372e-08
-2.24469e-06
8.22045e-06
0.000112606
-1.29256e-07
-0.0273119
-0.0419773
-7.99449e-06
1.46102e-08
2.86137e-06
-0.0177462
-0.11718
2.02196e-06
-1.30315e-08
-0.0232497
3.92481e-06
-2.53346e-05
-0.00795539
-7.49536e-07
-0.0121061
0.00691025
-0.00125996
1.8993e-08
-1.18805e-05
0.0253254
-0.000111699
3.25642e-06
-0.00378224
-1.67057e-06
0.0222868
9.92278e-05
3.80791e-05
7.33621e-06
2.08354e-06
-0.00265773
9.09174e-08
0.00437119
-0.00574781
-0.000856459
-1.23692e-06
-0.00010477
-0.0248179
-3.56214e-06
-0.0978279
-2.56037e-05
0.0961338
0.00513233
-0.00680154
9.35835e-08
-0.226036
-1.21673e-05
-2.91215e-07
7.89318e-07
6.75023e-07
0.463157
-0.00282939
-0.0869424
-0.000990306
-0.00325529
-1.39541e-06
-2.42084e-05
1.262e-07
-9.34131e-07
-0.0133132
-0.0143872
-0.199051
-5.59794e-08
-0.0296062
0.00229398
0.0547578
-0.00303849
-0.025081
0.00864179
-0.00233564
0.140959
-0.160007
-0.0181447
0.0247987
-1.41557e-06
-0.0100987
-0.131534
-0.00196847
-0.0862629
-0.0537572
-0.0353342
-0.000180871
-0.067867
-6.79551e-05
-0.0279533
-0.0162749
1.28293e-05
1.89376e-07
-1.07238e-08
1.28541e-07
0.161656
0.000151422
-2.04674e-05
2.14908e-06
8.06037e-07
1.25874e-07
-3.07695
7.68897e-07
0.0604614
-0.00150967
0.0154576
-1.2132e-06
0.0012486
0.0237558
-4.23864e-07
-0.00813782
0.0359158
0.0255495
-0.0792677
-1.0909e-08
-3.75261e-05
-0.00198404
3.28695e-06
4.48752e-05
0.0149179
4.01936e-06
-0.0240044
-0.0348489
-0.0130914
3.67299e-06
5.35238e-07
0.037634
-0.000202552
9.61387
-1.75444e-05
-0.00209317
0.000867254
1.384e-05
0.0530455
-1.01724
-7.72177e-05
0.000999381
-9.28446e-09
-1.02033e-08
1.63271e-08
-0.00135432
-0.0142752
0.0210212
-0.000107812
-0.000475659
0.140565
-0.00176456
-1.28548e-05
-1.32112e-06
-0.140988
-7.7926e-07
8.85437e-07
-4.96576e-07
0.0101702
-1.25199e-05
-1.25318e-06
9.30575e-07
-1.05519e-08
-0.00153865
-2.29191e-07
1.23576e-07
1.81739e-07
0.0336146
2.33236e-06
1.06321e-06
-0.0289176
2.27559e-06
3.66086e-05
0.0836973
-0.000471607
5.44764e-07
-0.152028
-0.00610569
0.107375
7.58291e-07
-0.0315956
-7.96932e-07
0.0671645
2.08713e-06
0.000862046
2.41081
-0.000113269
3.42747e-06
0.537991
-2.49697e-05
1.46921e-06
5.00203e-07
-2.98286e-07
-0.0685403
-1.12781e-05
1.01128e-07
-0.0192756
4.28703e-06
-4.90815e-06
0.0987902
8.1892e-07
-1.05909e-06
0.0617753
-0.0393852
3.64097e-07
1.72242e-07
0.021007
-0.0355154
-0.00214985
3.53974e-07
-0.0632507
0.0202932
-0.0858045
7.08953e-07
0.000650435
-5.70833e-07
9.41242e-07
1.10937e-05
-0.00116819
-0.036455
9.11246e-07
-3.39269e-07
7.96481e-08
2.06656e-06
-0.0187498
-0.176816
-0.454179
0.000676771
0.000174304
-9.52272e-08
-0.0179102
0.165686
0.128023
-1.77595e-05
-0.0850159
6.29013e-06
-3.19187e-06
-1.94525e-05
2.40495e-06
-6.99391e-06
-7.92183e-07
-0.11775
-0.0332379
-0.00195203
0.00474612
-1.05875e-05
-0.00145833
0.00392019
0.00059918
-4.10716e-07
0.0115986
0.0827375
-2.2557e-06
-0.0248338
1.39924e-07
4.11617e-05
0.0223074
0.00410342
-1.27392e-07
-0.0684677
6.30706e-08
-0.151965
-0.0816367
-0.00223552
-0.00742092
-1.46571e-05
-0.000623345
-0.00770251
2.09294e-06
-0.00135552
-1.89646e-05
0.102487
0.000353958
0.00906217
0.0784574
-2.04448e-09
-1.94508e-06
2.33147e-06
5.23896e-06
-0.000434028
6.84907e-07
1.99024e-06
0.0185346
0.0133128
9.62147e-05
0.109974
-2.17032e-05
0.469994
-8.48147e-08
1.23497e-07
0.000641677
-1.58853e-07
0.000201631
0.00650084
-0.00214712
-0.00231218
-0.129024
-0.000228442
-0.00168735
1.42706
0.000558773
0.0202793
1.27591e-05
-0.00937475
-0.000430006
-1.64316e-05
0.0168461
8.19364e-05
-1.98946
-0.124891
-0.0533536
-1.44797e-07
-2.07498e-05
0.191398
2.46917e-06
-4.16812e-06
-0.000452061
-0.00242775
-0.0705494
3.66024e-06
0.00175177
0.00112877
-2.99907e-06
8.0983e-08
4.26642e-07
0.103145
0.000492889
8.47357e-06
-0.00332275
0.139723
3.28233e-09
0.111065
0.191098
0.000612792
-0.0825902
0.00110757
-0.000483695
0.000370703
0.0638286
-0.000268039
1.00042e-06
-0.0602017
1.84036e-07
-8.67707e-07
8.2969e-08
0.0912782
-1.18648e-08
-0.00161923
3.35305e-06
-0.13491
-0.000135302
-8.6161e-07
-1.01621e-05
-0.087311
4.65998e-07
2.46023e-06
-6.98399e-07
0.000217789
3.98283e-06
-0.697945
-1.67596e-05
6.9668e-07
0.0281857
-0.0014306
0.0882987
1.25053e-06
-0.00119829
-0.0555215
-0.019481
3.08747e-06
6.81414e-07
2.80413e-06
-2.50644e-06
0.00126726
-4.56141e-05
1.4501e-09
2.23075e-06
0.00193285
-1.83013e-06
0.0715971
2.54928e-08
3.80836e-05
-6.57014e-09
-1.49044e-06
-1.73873e-05
1.75037e-10
2.14515e-06
0.00873971
-5.03334e-08
1.56471e-08
1.3552e-07
0.00940364
-0.00025856
0.0417707
-1.80013e-05
-0.0178443
-0.0369884
-0.0045761
-0.000202762
0.00015106
1.43987e-07
0.0459552
0.0889722
-0.024411
0.00373909
-0.000930328
0.0440487
-0.00195963
-0.0186325
-0.00889988
4.54915e-06
-1.73079e-07
-0.000231112
0.11358
-0.000473668
0.000156832
6.82403e-08
-0.000447101
-3.73092e-06
-0.0253032
-6.59274e-07
0.0175867
-1.7669e-06
0.591551
-1.22164e-06
0.568843
-2.46846e-05
-0.00316506
-5.88219e-07
-1.54425e-06
1.23907
-0.122078
0.000750166
9.64975e-05
-1.29947e-06
2.65868e-06
-0.101346
-0.0901104
-0.0589517
6.81266e-06
-0.00106481
4.08494e-05
-9.69768e-05
-4.99909e-07
-0.00123589
6.75898e-07
4.41321e-06
-1.16232e-05
6.68002e-07
0.0196021
6.96683e-07
-2.22109e-06
-8.98163e-08
-1.34323e-05
-4.42334e-08
-2.59404e-05
0.0173663
-2.10043e-05
0.144129
-7.99651
-1.41109e-06
0.000197664
6.23254e-07
4.22462e-06
-9.94863e-07
3.14232
7.22608
1.05053e-06
-3.72584e-06
7.87158e-05
-0.0499612
-6.13626
8.22801e-08
4.60471e-07
7.17395e-05
-3.69138e-07
-0.0773427
-0.0380605
6.80174e-07
-6.24909e-06
-0.00190676
0.0654378
4.23512e-06
0.0630162
-0.0329355
2.11783e-07
0.0896411
-2.72747e-06
-0.0342626
0.109207
-3.80096e-07
0.000260647
0.0247086
-0.0272647
8.13247e-07
-0.00382289
-1.2447e-06
3.3943e-07
0.00979817
-6.38608e-07
-1.80153e-05
1.10204e-07
-0.0106743
0.00136453
-7.73855e-05
0.00126783
-4.9556e-06
3.99012e-06
-0.000419823
0.0315451
-1.85307e-06
-0.0140323
0.000255963
5.47711e-05
8.8388e-06
1.58467e-05
-3.75807e-06
0.000272905
4.31571e-06
-1.44411e-07
0.00367179
-0.00805929
-0.000884682
-3.95351e-08
0.00131836
-0.0508251
4.09057e-07
-0.0942133
3.15391e-06
-0.00164164
-0.000723466
0.151594
3.22782e-08
-0.0494053
3.99695e-07
3.95579e-07
-3.20698e-08
-4.7386e-05
-1.5414e-07
0.0505152
2.17405e-07
-3.63056e-06
0.00239025
-7.99303e-07
3.20491e-06
0.120563
-7.23295e-06
-2.11589e-07
-1.61515e-07
0.000313639
-0.103459
0.264293
-0.0388224
-0.829122
0.0233399
-2.07313e-06
-5.0046e-06
-0.00423127
0.00170182
-0.0286994
-0.584552
5.04044e-07
-0.0668767
-3.36705e-05
-9.39377e-07
-0.136085
0.00137244
4.22033e-08
-9.99133e-06
-4.19396e-06
9.89356e-08
8.02154e-06
0.00906152
-0.0572811
-0.000401587
-0.00152762
-8.36086e-07
0.00563269
0.000103675
-8.28969e-07
0.0221205
-9.73412e-07
2.47468e-06
-0.00982338
-3.41022e-07
-0.000435065
9.65141e-07
-0.000425251
-0.029798
0.000841498
-2.14626e-05
9.81627e-06
-0.0071457
0.0472019
-0.00239428
-0.157761
0.000160364
-1.00706e-05
0.114504
-0.000433323
-7.35567e-07
-0.183256
-0.0206852
4.51611e-07
-1.07185e-05
-0.00248537
0.00830302
0.000493125
-0.00109601
-8.91692e-07
-2.12611
0.00141084
2.94313e-09
-1.25209e-05
8.08781e-06
1.77664e-06
7.38182e-06
0.000666403
-0.0488959
2.4243e-06
0.00133252
-9.45419e-06
1.93258e-06
-0.0280798
-0.000227494
0.0393502
-0.00215571
0.00320819
0.000227453
0.030922
-0.0979885
3.9742e-06
7.33143e-05
-0.0255758
-0.0451097
0.564085
0.000215248
0.0385433
-0.031444
0.0383569
-9.02864e-07
-0.0645196
-1.2734e-06
-1.47075e-06
-0.000632617
0.00094142
1.94973e-06
0.00021308
-0.0298622
-1.19628e-05
7.3062e-06
16.161
-2.06552e-06
-0.00478303
0.00129945
-5.72444e-06
-0.00739856
-2.21684e-05
-0.000276001
0.0108395
-0.0119927
-0.000482927
0.00258655
-0.93256
-1.34949e-06
-7.68693e-08
-0.0432417
-0.00153612
0.0101053
-8.44822e-07
-4.98692e-06
1.83179e-06
-2.60343e-06
-0.0175934
-0.000434022
-1.04087e-06
0.084425
1.93403e-07
0.000328825
3.17434e-06
0.0324652
-0.0224713
6.65456e-06
1.09026e-05
-1.28019e-05
-4.10373e-08
-0.0419514
-1.62786e-06
-0.00685398
-0.0851011
2.60258e-07
1.06064e-07
5.97922
-3.69617
-1.96744e-06
-7.41132e-05
-1.3754e-06
6.88022e-06
1.45087e-07
-0.0458281
-1.39184e-05
-0.380349
-0.00233333
-0.0409302
6.43677e-05
-8.48036e-07
-0.000941222
-0.000938273
-4.30516e-08
0.0448603
6.2859
-0.0367633
6.86975e-06
-1.16796e-07
-0.081132
-0.010499
0.0608084
-6.43995e-08
8.04887e-08
0.426536
7.17936e-06
-0.0311337
-2.43941e-07
1.20345e-06
-1.11604e-05
-1.78549e-07
-6.5771e-07
1.93879e-08
3.38122e-06
0.0121194
1.27251e-07
-2.79468e-05
-0.00185399
-0.000202025
-2.86407e-09
-5.79902e-06
0.0469945
0.000348721
0.00442861
-2.14128e-05
0.10214
1.57489e-06
7.94597e-08
-2.43067e-05
0.000164222
-1.45349e-05
3.32876e-05
0.0535798
-0.000618084
5.17947e-05
2.51501e-05
-3.26101e-05
1.1678e-07
-0.0385847
0.00137426
0.0489713
0.000590444
-1.76453e-05
0.49459
9.14024e-05
5.49359e-07
0.00028828
-0.105921
1.56393e-08
0.0231408
-2.5118
-7.28939e-07
-0.000485584
-0.00728385
4.55541e-07
-1.93415e-06
-8.68068e-09
-3.31058e-07
-0.013109
-0.000603349
0.00157751
-0.000713803
6.59391e-08
0.105894
-7.69085e-07
4.11442e-06
-1.60922e-07
-0.000135901
0.509719
-0.331123
0.000258867
9.18487e-07
0.00193351
0.00107087
-4.3997e-06
1.06447
7.1817e-09
-0.00409096
9.94544e-07
0.178835
-0.774814
-0.000203159
0.000280804
3.70016e-07
-3.41946e-09
-7.12739e-05
-2.28641e-06
-0.000606786
-0.0551233
8.49248e-09
-0.00261954
0.00389066
0.0111648
-0.000460546
7.40158e-06
-0.107641
-5.44439e-06
-0.0808972
9.30735e-07
-1.1824e-06
0.00336374
-1.57447e-08
0.157595
-8.03647e-07
0.0692574
2.64351e-07
1.3669e-07
-2.75979e-07
5.44609e-06
-0.0282157
1.61361e-06
0.00326167
-1.47571e-05
-7.35078
-7.84356e-07
-0.131863
2.76244e-07
-0.000663423
-9.21931e-05
-7.77442e-09
-0.000294008
7.62352e-05
-1.9502e-08
0.000682338
1.10554e-05
0.000107789
3.70345e-05
-0.0162195
0.0019556
0.0269605
4.51661e-07
8.21543e-06
0.000130748
-1.09488e-05
0.000111672
-0.079017
2.54584e-06
-2.48383e-08
-1.45226e-08
-1.73766e-06
-0.00206024
0.0380658
-3.63834e-09
-0.00622845
0.000480244
-0.0981455
0.0121436
0.0700046
1.71081e-08
-6.34071e-06
0.0141315
8.79017e-05
-0.0414769
-0.113421
-0.000905711
-2.17607e-09
0.000116584
-3.43839e-08
5.21447e-06
0.000119595
-2.24213e-06
0.00649115
-0.0403248
0.000725142
-4.43591e-06
0.315296
-9.84817e-09
0.0168543
-0.0286521
0.0149052
-4.2109e-05
4.22824e-06
0.0945934
-0.000415775
0.0913853
0.00546757
0.0520102
-0.0035706
-0.00180345
3.11307e-07
5.81511e-07
-8.15771
-1.87586e-05
5.25487e-06
0.0962727
2.21276e-06
-0.000725583
4.75757e-07
-0.0021807
-4.57492e-07
-3.55635e-06
-2.86018e-05
-4.26913e-07
0.0442987
1.44327e-06
0.00862805
-1.21664e-06
1.06096e-07
-2.20437e-06
-3.50907e-05
0.0010498
-5.48726e-06
4.36443e-06
2.77654e-06
0.00144242
-0.00690765
5.5131e-06
-3.60352e-06
-1.93007e-05
-0.000248197
-0.00448655
0.00396606
7.7501e-07
-2.80591e-07
5.82345e-06
4.27907e-06
-4.14565e-06
4.3278e-06
-0.000138222
-0.94543
3.66494e-05
-0.00136935
0.00785784
7.9524e-07
0.0400513
-0.0837929
-1.95432e-07
-7.47685e-09
-2.63609e-07
-1.02077e-06
-0.0467145
-6.57062e-05
-0.0437113
0.116954
-0.00148244
0.00103213
0.0093135
-0.000327921
-0.000119144
3.06106e-06
2.40485e-07
2.11227e-05
5.35626e-05
-5.28792e-07
0.145444
-0.366748
-0.00134257
-3.08594e-05
4.24447e-06
-1.17572e-05
-0.0846707
-0.0314162
-3.57076e-08
-1.57996e-08
-0.0782663
-1.3921e-05
-0.191598
0.0210698
0.0200057
-0.0121411
0.051033
4.98618e-07
-0.139205
0.0105839
-0.137142
-2.17346e-06
-2.8846e-05
-0.00810022
-0.000608617
-0.00190921
-0.0311219
2.22465e-05
0.00066422
8.81575e-07
-2.5693e-06
0.0975417
-3.07205e-05
-1.29469e-06
0.051124
3.54221e-05
0.00078515
0.000917564
1.09385e-07
4.51722e-07
-1.53147e-05
0.0272862
0.103179
0.0163306
0.0222705
-1.85864e-07
-2.57722e-05
-0.000851865
-1.07517e-05
1.48568e-05
-6.89362e-09
-0.230441
-0.00108063
4.74889e-07
-0.0993072
-7.46838e-10
-2.58292e-05
-6.10916e-07
-0.0381725
-0.067973
0.0127548
-6.08103e-07
0.000465345
-6.21859
-0.000907172
-7.63244e-09
5.91411e-05
1.06971e-07
-8.62201e-07
-1.02688e-06
-1.48437e-05
-0.0210125
-5.23738e-06
7.4284e-06
0.0380225
6.60716e-08
0.0257755
4.59474e-07
1.5985e-06
0.00365621
1.52366e-05
-8.27359e-06
0.00584839
3.33776e-07
-0.0979505
-3.386e-07
0.0764852
-0.00202053
-0.0415461
-0.0263058
2.36156e-06
4.65045e-05
-4.34435e-07
5.63992e-05
3.57055
6.61635e-06
1.05854e-07
1.98947e-05
-0.0340676
0.348382
-0.0148121
7.13085e-07
-0.00109345
0.0461915
-1.17707e-08
-0.00183129
-0.106646
-2.09937
-0.000204608
2.74401e-05
2.56045e-06
2.32321e-06
-1.15536e-06
0.200826
4.60946e-07
4.06661e-07
-5.30473e-07
0.000248402
-0.00296471
-0.000543956
2.96027e-06
-0.00472102
4.71664e-07
-4.8032e-07
1.16414e-05
4.6022e-05
5.76436e-08
-0.0181065
-0.00529459
-0.000359826
5.3394e-08
-0.0611492
-1.47554e-05
1.27388e-06
-1.26393e-07
-2.39176e-05
0.00113826
-0.189368
-0.000458804
0.000254601
4.25297e-06
-3.72621e-08
-0.040183
0.000919736
0.00398672
-0.0672871
0.0972334
0.020373
0.000141736
7.42769e-06
-7.83342e-05
0.000393053
1.22553e-05
-0.0430052
4.54052e-07
1.20415e-06
-0.0206664
-0.092053
0.0560742
1.57672e-07
-0.00202834
-2.04786e-08
6.9775e-06
0.00305599
-0.0921603
5.21126e-06
-4.15911
2.56388e-05
0.000754955
-2.95999e-05
-1.94848e-05
-0.000111006
-9.73e-07
-1.15e-06
-0.000315824
-0.0175083
5.07649e-05
0.045656
0.17038
1.64887
-2.30801e-05
-2.14101e-06
-2.00292
-2.21989e-06
-6.92078e-05
1.05499e-05
-2.82067e-05
-0.469563
-0.000172582
-0.00070317
0.0201842
0.00413506
3.29035e-06
-1.78774e-07
-0.106052
3.13148e-05
-0.00769165
-0.0243058
0.000331926
0.0345259
-0.000975476
0.00973455
3.23958e-06
3.88296e-05
-0.000634883
0.000214901
2.68099e-06
-6.63785e-07
0.0101295
-7.65092e-06
-1.54601e-05
-0.0225133
2.77643e-05
2.39482e-07
0.0239341
0.000250778
-1.86749e-05
-0.00790498
-0.00233221
1.07243e-06
-9.66168e-07
-1.00528e-05
1.28297e-05
-0.152955
0.0123783
-0.988458
1.37334e-06
6.09303e-08
-0.00964909
0.00670459
-1.37248e-05
0.000592813
-3.89211e-05
-3.06655
3.79422e-06
0.0298612
-1.51605e-07
-0.000102894
-3.8895e-08
-0.0062126
0.00653846
-0.0468687
-0.000603754
0.838635
-0.00136263
0.00120134
1.0996e-08
-0.017842
-0.00126282
6.80684e-07
-0.0448137
0.000862003
-1.29844e-06
-0.000148377
1.42382e-08
-1.24241e-05
-0.00445389
2.45798e-07
0.0226763
-7.62291e-07
4.82262e-05
-0.00103518
0.0443827
8.49082e-07
-1.29312
-0.00170778
0.0523723
6.4849e-07
4.53868e-06
-1.60108e-08
0.000592238
2.92381e-07
-1.7937e-06
3.13746e-06
-6.9288e-07
-2.006e-06
5.47526e-05
-6.81331e-06
-0.0504773
0.00490506
-0.0038948
-9.38392e-11
-0.00745393
-9.07122e-07
-1.86462e-08
-3.46707e-08
3.20043e-08
-0.000845592
-2.97901e-06
-2.32559e-05
-2.72688e-08
-2.48105e-08
3.74689e-05
0.0232779
1.98422e-08
8.42594e-07
-0.00178007
0.000652839
0.0224872
-0.0515288
-0.00996944
1.06704e-07
2.59236e-05
-0.00021235
1.07186e-07
-0.00396204
-3.64394e-08
-0.102225
-1.9872e-06
-0.138107
0.000414124
-0.137808
-2.09881e-05
3.77375e-07
4.53874e-06
-0.00968195
-0.0376587
1.68883e-06
-0.0142755
7.50403e-06
-0.0166606
-9.56665e-07
-0.0535779
-0.0161212
1.51702e-06
-3.55349e-06
-1.25032e-05
-0.0116752
4.98103e-06
-2.47914e-06
-0.00559692
-0.239532
-1.20958e-05
-0.0298252
1.50086e-06
5.99521e-06
-0.000266121
-1.17392
-0.00109607
0.023362
0.00650513
2.24592e-06
-0.00171484
-0.0996019
0.022581
-0.0813354
-7.94587e-06
0.188055
-0.0426097
-0.0309303
-0.360742
0.00469465
-0.0948546
0.101736
-4.52915e-07
-0.0112316
0.000802762
2.07622e-06
-0.0119596
-0.00201539
-0.000321483
-1.65315e-06
-1.59314e-06
-0.00194007
0.944801
-1.97975e-05
-1.96862e-05
-1.01847e-06
-0.152294
0.0515079
0.0155405
-8.17705e-05
7.98252e-07
-0.0132956
2.24017e-06
7.77752
7.28717e-06
-1.661e-07
-0.018674
3.30536e-07
-1.65152e-07
1.1732e-06
3.81811e-06
-0.000302873
9.95555e-06
0.0246999
-0.00624885
-0.0305135
3.08863e-06
-0.00139802
-1.61164e-05
0.000175895
-1.70986e-05
-9.77371e-07
-7.53329e-08
-0.14176
0.211345
7.8415e-07
1.4578e-05
-7.80896e-09
9.26632e-08
0.078574
-0.168754
0.0171016
2.93166
-0.216567
0.00115183
-5.8535e-07
2.11168e-07
-3.46068e-07
0.00440677
0.00030185
0.013736
-0.00217349
-8.74293e-07
-0.0363543
-0.00191498
-0.000437884
-0.0440804
0.00201349
0.759993
6.72212e-07
0.0305201
6.42315e-07
-4.3294e-07
6.45702e-06
3.79985e-07
-0.0944963
-0.000303071
-0.0134559
6.49744e-06
-6.49694e-07
-0.0213148
-0.0136172
-0.0211067
2.72341e-07
-0.0524546
-0.0277263
0.00637855
-3.97654e-05
-0.137519
-1.75658e-06
1.02988e-05
6.04893e-06
5.4677e-06
-1.33966e-05
-0.000162092
-0.027636
7.97394e-06
9.29895e-07
0.134532
-1.04777e-05
3.04739e-05
4.73396e-06
0.00126418
-0.00485375
-1.30345e-06
0.000430058
-0.0817955
-8.67345e-08
-2.52431e-08
-0.00265727
-1.10366e-05
-5.88135e-07
0.304628
0.000469063
0.0139721
0.00170506
1.56973e-06
0.000260851
-3.16303e-06
-6.2883
-0.00107932
3.69432e-07
-2.17228e-05
7.53301e-07
0.0255635
9.27961e-07
-0.0649827
1.82822e-07
-2.10611e-07
0.0245401
-3.65269e-06
0.000368763
-0.0540418
0.0245497
-0.017404
-0.120515
-9.68424e-05
0.0975029
3.42287e-07
-1.14538e-05
0.141154
0.00150633
-0.000550827
0.00018715
2.54904e-06
9.28791e-07
-3.18159e-06
-0.000831375
-4.62843e-08
-0.00142284
7.02802e-07
0.0715587
6.4064e-06
-0.0814216
-0.013195
0.0228476
0.202281
-0.00176671
-3.87179e-08
0.00303854
0.70206
3.4259e-06
3.42127e-08
0.184628
0.112258
0.0270308
2.47679
4.09722e-07
0.10368
0.016407
9.0484e-06
-0.0443042
-7.72802e-07
6.30389e-07
1.99135e-06
4.72674e-05
-1.48423e-05
-2.98365e-06
0.0279493
-0.000899425
0.000292346
0.00338944
1.65332e-07
0.00105333
-1.03325e-06
-5.04408e-08
-0.186374
-0.0316931
-0.613986
6.01083e-07
-0.00140447
-1.48447
-0.00396124
0.18505
-7.07417e-08
6.93104e-07
2.85449e-07
-6.6885e-07
0.00010634
3.07106e-07
-4.21446e-05
5.91842e-09
-0.401752
0.582141
0.0118326
-9.37441e-06
-0.000473513
-0.656834
8.65305e-07
4.74555e-06
0.0327221
-8.55229e-08
-1.04238e-05
-4.36375e-07
-0.0649225
-0.0726925
0.00340492
6.64726e-07
-0.00691654
0.000868782
-0.000495409
3.75657e-07
0.00149739
-3.29541e-07
0.00265429
0.178024
0.0199329
5.65254e-07
-2.86764e-05
2.02847e-07
6.59248e-06
6.28974e-07
5.50696e-07
-4.44422e-09
0.331927
0.92115
-2.54613e-08
2.22134e-06
-0.0334237
-1.6946e-06
2.89244e-07
-8.83979e-07
-0.00245166
0.0426614
-7.6756e-05
2.35445e-07
-3.50965e-08
0.0614099
-1.28476e-06
0.00325394
6.72822e-06
-0.000923229
-1.70573e-06
8.2269e-08
-6.2555e-06
-0.00300612
-1.13071e-07
-0.006206
0.131208
3.68878e-07
-2.46424e-05
1.23686e-07
-0.000377539
0.00339513
0.000161597
0.0125077
-0.00773844
5.75574e-06
-0.0341144
0.0474218
6.4916e-07
-1.94516e-06
0.000491129
1.14949e-05
4.82286e-06
-1.4508e-05
0.00994438
-0.0261381
4.11287e-06
1.87226e-07
-0.0368874
-0.00193202
-5.08776e-05
3.6154e-07
-7.41547e-06
0.00478392
0.00818149
-0.0466477
0.00675133
-7.71517e-06
-0.0260423
-1.3356e-08
-0.00055476
0.000101943
5.2578e-05
-0.806524
2.95446e-05
-0.410759
-0.000246966
0.0353451
4.65358e-07
-2.01674e-07
4.42075e-06
4.23471e-07
0.0734089
-0.018347
0.0125328
-1.49769e-08
0.000341695
-0.000315679
2.37793e-06
-0.000900281
9.48426e-06
-0.0159181
-1.03718e-06
-0.00434655
-1.07118
-6.57014e-06
-0.00219802
-3.75352e-06
0.000782155
-0.0426664
0.0355789
-4.43038e-06
1.14094e-05
7.03086e-07
-1.96159e-05
2.92962e-06
3.7646e-07
0.00859664
-2.73238e-08
-6.03597e-08
-0.000430225
0.00284175
-1.07373e-07
-0.00177123
0.0505845
-0.00857261
0.000196657
0.0852077
6.91607e-07
-0.247819
-0.00729065
2.14281e-06
0.0413834
-0.114078
0.0100667
-0.150063
0.0998687
-6.66027e-07
3.25269e-07
8.87607e-07
-0.000407327
-2.39432e-05
5.42574e-07
0.00202446
0.000296939
-0.0306161
1.87005
-0.000580664
-1.3696e-08
0.000217427
-0.00411779
-0.165227
-6.22095e-06
0.0138808
3.61572e-07
0.000299345
-0.0214682
-0.00240812
-0.46607
3.35152
4.28953e-07
-0.0483763
-1.14629e-06
0.175041
4.6698e-06
-0.00163278
0.00202264
3.95433e-07
-0.00218953
0.0233219
4.73049e-07
7.58426e-06
3.07498e-06
4.64382e-08
0.150106
0.107194
0.0768523
8.12707e-07
-1.48062e-06
0.0229921
-2.61792e-05
3.91233e-06
3.42197e-06
-2.33295e-07
1.1189e-07
0.105805
-0.00159621
-0.172281
0.000151978
0.00014587
5.72227e-06
0.000100577
3.57484e-06
0.102671
-1.89875e-07
-0.00991872
-0.00298347
6.16095e-07
0.0520016
-4.6609e-07
4.09458e-06
0.717483
0.00162128
0.173304
2.37772e-06
8.76266e-07
1.43522e-06
2.94425e-06
1.31343e-05
2.65502e-07
0.103644
1.96128e-07
7.67717e-07
0.0214464
0.370674
0.0175831
0.284859
-7.64051e-07
-0.00102067
0.000117845
0.0387696
-0.00188146
4.06701e-06
2.29624e-06
0.103845
0.000161481
0.000226272
0.0155899
1.05579e-07
0.00475763
0.0379075
-0.00135976
-6.00843e-07
-5.40447e-06
0.0192006
-1.55787e-06
-2.30114e-06
2.34025e-07
6.77012e-07
3.08905e-07
-0.138112
-2.06222e-05
4.52663e-07
-0.0419174
-0.0122277
-1.7176e-05
-1.47316e-05
4.17999e-07
-2.06303e-09
-0.0160807
0.00880581
-0.00186981
-7.69697e-08
0.0526477
-0.0351988
-2.04666e-05
-2.3143e-07
0.0951791
-1.42706
7.87649e-07
0.00101573
6.08408e-06
0.0525913
2.1616e-07
-3.60809e-07
0.000656516
0.0521124
0.0472525
-0.00080706
-0.025906
-0.0479117
-0.0808164
-0.201634
-3.04473e-05
-2.78585e-05
-7.13102e-08
-0.085501
5.90187e-07
-0.00749764
4.80347e-06
-2.23706e-06
-9.85514e-07
-0.000105445
-5.5264e-08
-0.625006
0.000765097
-1.90683e-05
0.000510201
0.0271239
0.0632658
1.67816e-08
-0.00553002
5.62146e-06
1.95847e-06
1.29191e-05
-1.48654e-06
-0.0849768
0.039059
-0.000412324
-0.000339901
-4.00283e-06
3.27944e-06
-0.0731356
-0.000787544
-8.11704e-06
0.000196088
5.48319e-06
0.0975033
-5.9091e-07
-3.62339e-07
-9.76565e-06
0.0980077
-0.000818958
-0.000402156
-0.176055
-0.254863
2.7101e-07
0.00320407
0.124008
9.10727e-07
3.89694e-06
-0.0451225