/*--------------------------------*- C++ -*----------------------------------*\
| =========                 |                                                 |
| \\      /  F ield         | OpenFOAM: The Open Source CFD Toolbox           |
|  \\    /   O peration     | Version:  v2012                                 |
|   \\  /    A nd           | Website:  www.openfoam.com                      |
|    \\/     M anipulation  |                                                 |
\*---------------------------------------------------------------------------*/
FoamFile
{
    version     2.0;
    format      ascii;
    class       surfaceScalarField;
    location    "200";
    object      ddtCorrDdt0(phi);
}
// * * * * * * * * * * * * * * * * * * * * * * * * * * * * * * * * * * * * * //

dimensions      [0 3 -2 0 0 0 0];
oriented        oriented;


internalField   nonuniform List<scalar> 
81198
(
3.14772e-05
-3.03421e-05
-1.13483e-06
0.000136871
-7.80512e-05
-5.88226e-05
-1.37306e-05
2.38592e-05
-1.01286e-05
-0.0008631
0.000552643
0.00031046
1.47559e-05
2.53057e-06
-1.72871e-05
-4.52807e-05
0.000125272
-7.99907e-05
0.000159065
-0.00015344
-5.62406e-06
-0.000217074
0.000100396
0.000116677
-0.000118873
5.4825e-05
6.40495e-05
4.01054e-05
-2.71547e-05
-1.29505e-05
6.21515e-06
-2.88243e-05
2.26092e-05
2.74497e-05
-0.000472017
0.000444568
3.42066e-05
-7.00376e-05
3.58306e-05
-2.80132e-05
1.81846e-05
9.82832e-06
-6.83598e-05
-3.8579e-07
6.87457e-05
7.48614e-06
2.01489e-05
-2.7635e-05
-0.000139382
-7.76962e-05
-7.0517e-05
6.52544e-05
5.26292e-06
2.89491e-05
1.11563e-05
1.53374e-05
2.25746e-05
-3.79122e-05
-2.30897e-05
9.35909e-06
-5.74196e-05
4.41812e-05
1.32383e-05
-1.56377e-05
-1.64697e-05
3.21076e-05
0.000229515
1.37578e-05
-0.000243273
-2.7076e-06
6.67056e-06
-3.96286e-06
0.000505857
-0.000368306
-0.000137549
2.87399e-05
2.73731e-06
0.000128004
-6.42232e-05
-6.37814e-05
-0.000240083
0.000145131
9.49521e-05
-2.96269e-05
1.39893e-05
0.000136913
0.000368945
-3.54738e-05
8.82809e-05
-5.28082e-05
-1.43861e-05
-1.71679e-05
3.15539e-05
6.60794e-06
-0.000141295
0.000134688
-5.78697e-05
4.51846e-05
1.2685e-05
3.27001e-06
-5.65363e-05
5.32664e-05
3.05854e-05
-4.74754e-06
-2.58367e-05
7.16145e-05
6.52541e-05
-3.92434e-05
-7.63399e-06
4.68775e-05
-1.24368e-05
-4.49824e-05
-2.95943e-05
6.20365e-05
-3.2442e-05
-0.000232796
6.77465e-05
0.000165082
2.79384e-05
-2.52549e-05
-2.68343e-06
3.52145e-05
-1.73434e-06
-3.34802e-05
7.67442e-05
-5.13604e-05
-2.53837e-05
4.24938e-06
-2.58456e-05
2.15962e-05
-4.37725e-05
-7.89814e-05
0.000122754
4.64795e-05
1.7353e-05
-6.38327e-05
-3.27462e-05
4.14661e-06
2.86014e-05
-3.01079e-05
5.27672e-05
-2.26596e-05
1.74052e-05
-3.17912e-05
3.74117e-05
-1.30688e-05
-2.43404e-05
-2.19402e-05
-2.50569e-05
4.69969e-05
4.70523e-05
2.96919e-05
0.000258428
6.88381e-05
-0.000327288
8.79281e-06
-1.80323e-05
9.23946e-06
9.68594e-05
-9.79125e-05
1.05405e-06
1.22924e-05
0.000198497
-0.000210784
-0.00018035
-0.000133409
0.000313759
4.42464e-05
-6.83955e-05
2.41488e-05
5.7187e-06
2.22195e-05
-2.89592e-05
1.83531e-05
1.06071e-05
-1.66775e-05
-1.1336e-05
0.00053053
-0.000894159
0.000363628
-1.93728e-05
8.4099e-06
1.0963e-05
-2.43289e-05
3.18151e-05
-0.000230115
5.94773e-05
0.00017064
-8.90413e-05
6.60956e-05
2.29453e-05
0.000226261
-0.000206949
-1.93114e-05
-0.000251019
2.80081e-05
0.000223011
6.44387e-06
3.09695e-05
-1.87874e-05
-3.90818e-05
-1.30351e-05
-6.33768e-06
0.00015222
-0.000294581
0.000142356
6.04791e-05
-7.69258e-05
1.6447e-05
5.08251e-05
-9.86444e-05
4.78188e-05
-4.41634e-05
0.000120899
-7.67356e-05
-4.83639e-06
7.89896e-05
-7.41529e-05
5.15173e-05
-2.52404e-05
-2.62768e-05
5.66959e-05
5.38241e-06
-6.20799e-05
-1.76982e-05
1.13742e-05
6.32403e-06
0.000331755
-0.000697644
0.000365887
3.38655e-05
1.34914e-06
-1.53335e-05
0.000499111
-0.000483784
1.86143e-05
-3.70024e-05
1.83887e-05
0.000249731
-9.75112e-05
-0.000414754
0.000307619
0.00010714
0.000281537
-0.000140404
-0.000141134
4.56334e-05
1.61911e-05
-6.18251e-05
3.36103e-07
3.79128e-05
-3.82487e-05
-3.58506e-05
3.58503e-05
-4.7484e-05
3.96527e-05
7.83133e-06
-0.000181827
0.000307251
-0.000125425
3.51157e-05
-6.02548e-05
2.51389e-05
-4.35494e-05
4.783e-05
-4.28058e-06
-1.816e-05
0.000167271
-0.000149112
-0.000212632
-0.000647662
0.000860294
-0.000240201
-0.000146051
0.00038625
-4.4665e-05
4.60392e-05
-1.3742e-06
-5.69241e-05
2.68155e-05
2.09956e-05
1.37545e-05
-3.47498e-05
-0.000164144
-3.48052e-05
0.000198944
-7.71289e-06
2.81321e-05
-2.04192e-05
-5.60156e-06
-7.68118e-06
1.32827e-05
-9.0155e-05
5.46812e-05
-3.24858e-05
5.49124e-05
-2.2428e-05
-3.29088e-05
-4.67769e-07
3.33772e-05
0.000166901
0.000114636
9.49504e-05
-4.41253e-05
6.77147e-05
-4.70197e-05
-2.06936e-05
8.39681e-05
-3.63731e-05
-4.75739e-05
-1.15851e-05
-2.26845e-06
1.38535e-05
-4.47312e-05
4.50675e-05
-0.000458566
0.000166579
0.000291987
-2.82958e-05
4.47772e-05
-1.64813e-05
2.81236e-06
1.19139e-05
-1.47272e-05
-0.000204387
-4.66311e-05
0.000831127
-0.0003006
0.000163701
-0.000157094
-0.000290443
0.000108616
-0.000647911
-0.000246245
-3.49764e-05
3.54148e-05
-4.38302e-07
0.000165071
-0.000153908
-8.8823e-05
8.60003e-05
2.8221e-06
2.8708e-05
-1.69723e-05
-1.17353e-05
6.39741e-05
-5.19523e-05
-1.20213e-05
-3.03621e-05
2.7657e-05
2.70594e-06
1.46718e-05
1.40364e-05
-0.000759156
0.000527871
0.000231289
-8.80588e-05
9.90086e-05
-1.09508e-05
-3.99212e-06
6.05844e-06
-2.06632e-06
-3.48413e-05
1.65739e-05
1.82674e-05
9.31715e-05
-5.1406e-05
-4.17658e-05
-5.42481e-05
5.75181e-05
7.84546e-07
-4.82685e-05
-8.05683e-05
6.93588e-05
1.12117e-05
4.41822e-05
-4.6755e-05
2.57341e-06
0.0003943
-0.000607439
0.000213138
-4.22916e-06
-8.10515e-06
1.23343e-05
-8.94004e-08
3.12657e-06
-3.03722e-06
-0.0001628
3.12675e-05
0.000131532
-7.11961e-05
5.71331e-05
1.40634e-05
5.40049e-05
3.91664e-05
-0.000138761
0.000148718
-9.95995e-06
-4.8324e-05
3.06942e-05
1.76306e-05
-2.66549e-05
-6.23866e-05
-0.000330472
0.000319324
1.11552e-05
9.39492e-07
2.9646e-05
-0.000588151
0.000321924
0.00026622
6.12762e-05
-5.35797e-05
-7.69539e-06
5.97843e-05
-5.43126e-05
-5.47205e-06
-2.96603e-05
3.29968e-05
-3.33671e-06
0.000441784
-0.000138716
-0.000303027
-2.2747e-05
5.78625e-05
3.19093e-05
-2.90392e-05
-2.87013e-06
-0.000350649
0.000400786
-5.01471e-05
3.6418e-05
-3.02029e-05
-0.000343507
-7.14779e-06
-2.76745e-06
-5.156e-05
5.43276e-05
4.25514e-05
-5.07049e-05
8.15314e-06
-6.52631e-05
6.85035e-05
-3.23915e-06
2.78105e-05
-9.46499e-06
-1.83454e-05
-0.000114983
-4.78168e-05
-3.01e-05
-0.000113641
0.000143739
5.15618e-05
7.64425e-05
1.48202e-05
-4.42548e-05
2.94347e-05
-8.33011e-06
6.2629e-06
2.0671e-06
-2.07907e-05
1.10042e-06
1.96902e-05
-5.18319e-05
5.7032e-05
-5.20032e-06
2.67298e-07
-3.20252e-07
5.29353e-08
-0.000399053
0.000444235
-4.51822e-05
-2.34171e-05
-5.7151e-05
-1.2425e-05
-3.41374e-05
-8.39087e-07
5.26025e-05
-0.000128005
7.53978e-05
-1.44792e-05
3.09571e-05
-1.64779e-05
-6.81747e-05
0.000123626
-5.5448e-05
2.05951e-06
2.22798e-05
-2.43393e-05
1.87851e-05
-2.91081e-05
1.03246e-05
-6.27083e-05
3.3114e-05
-8.83657e-05
-3.65136e-05
0.00012488
1.88212e-05
-2.15191e-05
0.000121498
-0.00021134
8.98429e-05
-1.66659e-05
-1.35624e-05
3.02287e-05
-3.68908e-05
3.70056e-05
-1.14888e-07
0.000626429
-0.000626454
-5.27083e-05
5.99627e-05
-7.25525e-06
3.3949e-05
-3.20285e-05
-1.92058e-06
2.43374e-05
-6.15227e-06
0.000100919
-0.000234214
0.000133305
-1.01736e-05
0.000290378
0.000177788
-0.000468164
-2.98531e-05
-6.84319e-06
3.66964e-05
-2.24812e-05
9.44621e-06
-0.000224941
0.000230888
-5.94775e-06
-0.000181848
-0.000148622
-3.70591e-05
-6.68764e-06
4.37466e-05
1.98115e-06
2.70859e-05
-2.90666e-05
-0.000321653
2.8532e-05
-2.79721e-05
-5.60172e-07
4.10336e-05
-4.23245e-05
1.29098e-06
1.61436e-05
4.78306e-05
0.000198606
-0.000194294
-4.31316e-06
1.72459e-05
-2.49589e-05
-1.65013e-05
2.92534e-05
-1.27518e-05
-2.83694e-05
1.18682e-05
1.41748e-05
-7.55591e-05
4.19788e-05
-2.33642e-05
-4.40099e-06
-3.48423e-05
-9.02968e-06
-8.66857e-06
-7.9217e-07
3.34009e-06
-2.54791e-06
1.97204e-05
4.6172e-06
-2.71842e-06
-8.67684e-05
-1.65707e-05
0.000103339
-4.66735e-05
3.12396e-06
0.000616202
-0.000321613
-0.000294585
-0.000135545
0.000110339
2.52134e-05
-0.000396415
0.000465901
-6.94924e-05
-1.25529e-05
-5.25394e-06
1.78098e-05
-5.12263e-05
1.41672e-05
3.19579e-05
-4.70041e-05
1.50463e-05
0.000212189
-0.000115339
6.74893e-06
-0.000239499
5.29714e-05
-2.55482e-05
-2.74231e-05
2.61216e-06
-5.37423e-05
5.11301e-05
-6.47392e-05
5.29032e-05
1.18356e-05
-1.19308e-05
-4.54183e-07
1.23851e-05
-6.07828e-05
-9.73403e-06
-2.23835e-05
1.6434e-05
5.94938e-06
5.24605e-05
-5.52278e-05
-9.86219e-07
-2.93756e-05
-0.000379576
6.22854e-05
0.000317289
-0.000128005
0.000128004
-4.25776e-05
5.68683e-06
-3.50197e-05
-8.00643e-06
4.30264e-05
0.00071701
-0.000929642
-0.000451369
5.23164e-05
-4.41602e-05
5.57389e-05
-1.15786e-05
-1.33801e-05
-4.72373e-05
-5.69282e-05
1.2768e-05
2.36951e-05
2.92765e-05
-2.87282e-06
-8.38952e-05
5.08018e-06
-0.00039586
0.000390776
4.6309e-05
-9.09246e-05
4.46173e-05
-1.68901e-05
4.6526e-05
-2.96355e-05
1.79006e-05
-6.20861e-05
-0.00016122
-0.000141866
0.000303085
-0.000709441
0.000411216
0.000298223
2.44004e-05
-7.16278e-06
-1.72378e-05
-5.75128e-05
-7.75011e-06
-4.90324e-05
9.53417e-05
-2.57298e-05
0.000230839
-0.00020512
-0.000679169
-0.000134149
0.000813318
1.13671e-05
-1.69439e-05
5.57681e-06
7.09031e-05
-1.04239e-05
6.63081e-06
-3.86715e-06
-2.76371e-06
0.000163541
-7.65089e-06
-0.00015589
-3.45435e-05
3.43625e-05
1.80871e-07
0.000206314
-0.00029111
8.47966e-05
-4.84721e-05
5.80944e-06
4.26625e-05
-2.82511e-05
5.85977e-05
-3.03467e-05
-5.97357e-05
-0.000100374
0.000160111
7.5519e-06
-4.4348e-05
3.67962e-05
2.75055e-05
1.02646e-06
4.45464e-05
1.93831e-06
-4.64848e-05
1.04202e-05
8.01436e-06
-1.84345e-05
0.000283415
-0.000333044
4.96305e-05
2.07425e-05
3.65786e-06
8.91797e-06
-3.39432e-05
2.5025e-05
-2.23059e-05
3.71262e-05
-0.000142664
-3.19124e-05
0.000174574
-0.000126406
8.48189e-05
4.16083e-05
-4.28257e-05
-3.12983e-06
4.59553e-05
-1.73762e-05
-1.29658e-05
-4.14995e-05
5.94001e-05
4.03637e-05
-2.90177e-05
-1.1346e-05
3.21062e-05
-1.67221e-05
-1.53846e-05
0.000553395
-0.00056873
-2.10476e-05
1.24417e-05
8.60602e-06
-0.000109108
6.53358e-05
-1.3187e-06
5.68641e-06
-4.36763e-06
0.000120039
-3.03717e-05
-8.96668e-05
-3.93766e-05
7.7102e-05
-3.77249e-05
-0.000231057
6.11675e-06
-0.000299106
0.000137886
-2.48992e-05
5.74676e-05
-3.25693e-05
-4.291e-06
-5.84928e-06
1.85717e-06
-3.36044e-05
-1.47192e-05
-7.36385e-05
5.29271e-06
6.83485e-05
-0.000300427
0.000274694
0.000662562
-0.000330808
1.50163e-05
-3.64921e-06
8.26415e-06
-1.43665e-05
6.10235e-06
0.000184744
-7.41193e-05
-0.000110625
-6.46899e-07
-1.1284e-05
-5.57787e-05
-7.97566e-05
-5.71216e-05
-6.92761e-05
1.82101e-05
-4.6506e-05
0.000165617
-0.000352339
0.000186721
0.00075352
-0.000398804
-0.000354715
-5.35618e-06
3.42965e-05
-2.89404e-05
-2.47197e-06
1.67972e-06
1.91853e-06
-8.99914e-08
-1.82854e-06
5.39561e-05
-1.66069e-05
-3.7349e-05
-1.71521e-05
2.93368e-05
-1.21846e-05
-7.50526e-05
6.73171e-06
6.83223e-05
-0.00045971
0.000482481
-2.27658e-05
4.79217e-05
1.33552e-05
1.66446e-05
2.80464e-05
-4.46912e-05
-0.000789112
0.000109944
5.53548e-05
-3.12402e-05
-2.41147e-05
-0.000190565
-5.4334e-05
0.000244899
7.13725e-06
-4.2157e-05
2.31667e-05
3.05274e-05
-5.3694e-05
-6.87177e-05
0.000352134
4.75846e-05
-6.09647e-05
0.000305715
0.000255117
-0.000560786
-0.000551698
0.000421017
0.000130712
1.38093e-05
1.93034e-05
-3.31137e-05
-9.9459e-05
0.000100689
-1.22881e-06
1.29578e-05
5.50201e-06
-1.84598e-05
0.000474951
5.38548e-05
-0.000528832
0.000132539
-8.09768e-05
0.000472106
0.000282
-0.000754104
-2.42816e-05
2.76178e-05
-3.33571e-06
3.15764e-05
4.67876e-05
-7.83636e-05
-7.73331e-06
1.81536e-05
5.06796e-05
-0.000139045
-2.24479e-05
-6.63747e-05
-8.05531e-06
1.10147e-05
-2.95913e-06
4.25917e-05
-4.3832e-05
1.24028e-06
4.72105e-06
-1.03227e-05
1.30957e-05
1.47148e-05
2.27791e-08
1.89573e-06
-5.73529e-05
6.0178e-05
-2.82449e-06
9.88683e-05
-4.07271e-05
-5.81418e-05
-0.000857156
0.000609916
0.000247242
0.000647592
-0.000311423
-0.000336185
5.92852e-05
-1.65367e-05
-4.27486e-05
3.11254e-05
2.42291e-05
2.2417e-05
-4.43572e-05
-0.000386344
0.000419345
-3.30054e-05
-5.64173e-06
-2.89018e-05
-2.9342e-05
1.21899e-05
-4.52339e-05
5.25598e-05
-7.32537e-06
3.74512e-06
4.90222e-05
0.000367861
-0.000202244
9.24922e-06
-5.75435e-05
4.82943e-05
0.000118102
0.000398402
-0.000516516
-0.000218986
0.000218987
1.47314e-05
-6.46724e-06
-0.000391171
-0.000166305
0.000557447
-4.5413e-05
0.000104498
-5.90797e-05
-3.68751e-05
-1.3057e-06
3.81802e-05
2.80769e-05
-2.23583e-05
3.22395e-05
-3.60521e-05
3.81263e-06
2.37445e-06
7.67564e-06
-1.005e-05
-1.1374e-05
-3.16867e-05
4.30604e-05
1.22908e-05
-4.47044e-05
3.24135e-05
0.00030629
0.000309912
-1.26845e-05
4.46428e-05
-3.98616e-05
2.31826e-05
1.66789e-05
0.0002901
-0.000566649
0.000276551
-5.54798e-05
7.0503e-05
-1.50228e-05
4.38775e-05
3.86566e-07
-4.4264e-05
1.01509e-05
-7.77641e-06
8.00446e-05
2.5163e-05
-0.000113047
8.78842e-05
-6.8289e-06
-1.56521e-05
-1.86457e-08
7.17497e-05
-7.17314e-05
1.63102e-05
3.76462e-05
-9.39063e-06
2.23484e-05
-1.47848e-05
2.8594e-05
1.52962e-05
9.69635e-06
-2.49925e-05
-7.54262e-07
-6.91452e-05
6.9902e-05
4.8466e-06
1.4067e-05
-1.89139e-05
-6.31479e-05
5.18437e-05
1.13012e-05
1.09425e-05
-5.37683e-05
-3.24718e-05
-9.86312e-06
4.2335e-05
-0.0001178
8.76987e-05
-2.54742e-05
-2.72495e-05
5.27236e-05
5.93804e-06
-7.17937e-05
6.58561e-05
-0.000331312
-0.000378129
0.000238729
-4.01246e-05
8.05167e-05
1.57829e-06
-8.20969e-05
-0.000264016
4.50303e-05
-1.19103e-05
-0.000496998
0.000502077
3.69023e-06
-4.9532e-05
4.58416e-05
-3.16375e-05
-2.82605e-05
5.98982e-05
0.000122831
-0.000303183
4.14935e-05
5.73739e-05
4.85249e-06
2.32242e-05
-0.000164054
0.000691094
-0.000527024
-0.000757673
0.000758952
-1.27836e-06
0.000149607
-0.000212759
-6.6272e-05
2.30207e-05
-6.35049e-05
4.04845e-05
0.000114308
3.42177e-05
-0.000148527
-1.36601e-05
-1.91553e-05
3.2816e-05
-7.06957e-08
-5.57455e-06
5.64503e-06
-2.6799e-05
0.00011578
-8.89806e-05
6.00563e-05
-6.39448e-05
3.88302e-06
-3.31546e-05
0.000508117
2.99934e-05
4.67516e-05
-7.67438e-05
3.15357e-07
3.0857e-06
-3.40118e-06
6.42841e-05
-5.83456e-05
2.00416e-05
1.31682e-05
-3.32098e-05
9.27244e-05
-0.000332928
0.00045882
-0.000564782
0.000105965
1.91875e-05
-1.43412e-05
-2.13319e-06
2.04369e-06
3.62218e-05
-5.97483e-05
2.35276e-05
1.53408e-05
-1.48106e-05
-5.30236e-07
-8.80491e-05
-0.000152034
-0.000117788
0.000102572
1.52146e-05
1.96443e-05
-1.7146e-05
-2.49815e-06
1.52028e-05
-3.05918e-05
1.53891e-05
8.82264e-05
4.43123e-05
6.1126e-05
-4.74074e-05
-1.37187e-05
0.00010103
5.80356e-05
1.46185e-06
2.09917e-05
-2.2454e-05
4.27433e-05
0.000188168
-0.000230913
0.000323412
-0.000142967
-0.000180441
-0.000235405
4.48398e-05
0.000586793
-0.000390965
-0.00019583
-4.41283e-05
-3.63783e-06
4.77654e-05
0.000157625
-0.000157624
2.11799e-06
3.65043e-05
-3.86221e-05
-4.93129e-05
0.000238033
-0.000188719
5.33557e-05
-6.46713e-06
-4.68885e-05
5.58651e-05
-3.26992e-05
-6.54981e-05
-9.55378e-06
-0.000121721
-4.10012e-05
0.000162722
2.73187e-05
-8.56634e-05
5.83449e-05
-3.12935e-05
1.39172e-05
0.000826362
-0.000354254
-5.76226e-05
7.05889e-06
5.05633e-05
-8.46005e-05
2.69774e-05
-0.000213091
0.000503199
3.48984e-05
-3.58586e-05
9.60392e-07
-3.20834e-05
1.51112e-05
1.16877e-05
-2.59169e-06
-9.096e-06
-0.000183036
0.000195757
-1.27214e-05
0.000123429
6.13145e-05
4.19767e-05
-2.765e-05
-1.43267e-05
5.41375e-05
-1.15863e-05
0.000242983
0.000198804
-5.77677e-05
5.70152e-05
0.00066966
-0.000363918
0.000679768
-0.000392723
-0.000287064
1.44424e-05
-6.99221e-05
6.28842e-05
-2.78903e-05
-3.49943e-05
-0.00068502
-0.000178075
-3.24808e-05
6.90753e-05
-3.6594e-05
7.68458e-07
4.37003e-05
-4.44706e-05
-8.91548e-06
8.60229e-07
2.16802e-05
-1.74307e-05
-0.000173091
0.000333562
-0.000160471
2.62576e-05
1.5719e-05
-8.02461e-06
-1.15451e-05
1.95697e-05
-1.39651e-06
-5.04355e-05
-2.28999e-05
4.26081e-05
-1.97081e-05
6.24503e-06
-1.97643e-05
1.35195e-05
3.85793e-05
-2.68188e-05
-1.17603e-05
0.000542359
-0.000236067
-4.94745e-05
4.45719e-06
4.50177e-05
0.000108327
-0.000107823
-5.06256e-07
-0.00025743
0.000138287
0.000119146
-0.000184814
-5.90638e-05
0.000243879
9.97349e-08
-3.59504e-05
-3.68907e-05
4.75006e-05
-1.06101e-05
-7.99223e-06
1.22141e-05
-4.22254e-06
0.000770089
-0.000763383
-6.70175e-06
-2.85112e-05
-1.14897e-06
3.6054e-07
-9.32528e-08
9.38495e-05
-0.000490266
-6.35225e-06
-1.22984e-05
1.86548e-05
-7.5475e-06
-4.19269e-05
0.000112958
-5.81324e-05
1.97264e-05
-1.79219e-05
-1.80438e-06
4.99475e-05
-4.62574e-05
-0.000161438
0.000155924
5.51446e-06
1.62773e-05
3.36706e-06
-0.000156509
0.000311415
0.000336169
-1.94623e-05
6.55942e-05
-4.61317e-05
-7.06156e-06
4.35406e-06
8.63368e-05
-6.91962e-06
-7.94187e-05
-3.37738e-05
-4.23515e-05
7.6125e-05
-3.75534e-05
3.51363e-05
2.4171e-06
-1.52739e-05
2.11131e-05
-5.8392e-06
5.03384e-06
5.42512e-05
2.15999e-06
6.52992e-07
3.42539e-05
-2.90409e-05
-5.21328e-06
9.33753e-06
-5.31331e-05
4.37959e-05
2.453e-05
-2.71919e-06
-2.1811e-05
-0.000130491
0.000589313
3.44822e-05
-2.82386e-05
-6.24354e-06
-1.29528e-05
8.14565e-05
-0.00039956
0.00012587
0.00027369
-0.00056432
0.000182152
0.000382168
-4.69198e-05
3.41065e-05
-1.73024e-05
-1.68041e-05
2.03882e-05
3.65662e-05
-5.69543e-05
-4.87301e-05
4.76694e-05
1.06045e-06
6.80636e-05
-4.76933e-05
-2.03703e-05
4.92622e-05
4.09348e-06
-2.63767e-05
2.66699e-05
-2.93162e-07
-5.5769e-05
1.39296e-05
4.18394e-05
-5.37482e-05
7.34052e-05
-1.96566e-05
0.0001398
0.000183615
5.40734e-06
3.57886e-05
-2.04516e-05
-0.000254573
0.000583911
-0.000329336
-3.87464e-05
7.2953e-05
-2.44895e-05
1.76642e-05
6.82534e-06
3.61947e-05
-0.000104342
9.56091e-06
-2.71655e-05
1.76046e-05
0.000299882
-9.32107e-05
-0.000206673
3.29059e-05
-4.64199e-05
1.35141e-05
8.62303e-06
2.5631e-05
-3.91306e-05
4.94016e-05
-1.02711e-05
-2.61618e-05
4.28063e-05
-4.70589e-05
0.000161367
3.97772e-05
-9.72143e-05
5.74362e-05
0.000306597
-0.000665028
0.000358432
-2.65061e-05
-1.46609e-06
-2.63017e-05
0.000129904
-9.72081e-05
-3.27213e-05
-3.31073e-05
1.94475e-05
-5.68857e-05
-1.43104e-05
4.18535e-05
-3.16748e-05
-1.01787e-05
-1.96155e-05
-1.24677e-05
-2.23588e-05
2.00501e-05
2.30859e-06
2.18739e-05
2.58039e-06
3.50522e-05
-2.81255e-06
8.89241e-06
-4.18013e-05
-3.23677e-05
2.12889e-05
1.10788e-05
3.65058e-05
-3.70647e-06
-3.27988e-05
-0.000825003
0.000373844
0.000451156
-6.10908e-05
0.000182589
2.09245e-05
7.70732e-06
-2.86319e-05
-0.000414829
-0.00034431
1.56153e-06
0.000161979
-2.2216e-05
-4.1608e-06
0.000124037
-0.00015802
3.39824e-05
-1.28828e-05
1.91279e-05
-0.000307149
0.00042524
5.42584e-05
3.69157e-05
-9.11743e-05
0.000251933
0.000290429
1.38437e-05
7.24909e-05
-3.10075e-05
-2.10632e-05
5.20764e-05
-0.000165062
6.37689e-05
0.000101294
6.56742e-05
-3.64963e-05
-2.91779e-05
0.000229514
0.000368338
0.000412665
0.00025991
-0.000672571
-5.92989e-07
1.22807e-05
-3.53683e-05
-7.20926e-06
6.00232e-05
-2.38004e-05
9.76672e-05
1.06567e-05
-3.04638e-05
3.95763e-06
1.39744e-05
2.03337e-05
-3.43084e-05
0.00016802
-0.000217335
5.01601e-05
-3.11759e-05
-1.89839e-05
-7.80586e-05
7.80397e-05
-0.000167894
0.000290724
-1.73374e-05
-7.15203e-06
3.85319e-05
4.05976e-06
-6.6296e-05
3.4582e-05
3.17139e-05
-1.33733e-05
-2.12279e-05
3.46009e-05
3.88402e-06
5.04767e-05
-5.43526e-05
-0.000587046
0.000332475
-7.69867e-05
7.21513e-05
-1.14263e-05
6.81216e-05
-0.000134119
8.88391e-05
1.95592e-05
-5.20396e-05
1.58913e-05
1.27998e-05
-2.86909e-05
4.05524e-06
-1.9811e-05
1.57557e-05
-5.7195e-05
3.57107e-05
2.14842e-05
1.71049e-05
1.70016e-05
4.32781e-05
-2.46708e-05
-1.86073e-05
5.14028e-06
0.000365448
-0.000122455
-1.71983e-05
2.63752e-05
-9.17687e-06
-0.000362545
0.000587485
-0.000224937
-2.80683e-05
9.06267e-05
-6.25592e-05
-7.49642e-05
0.000102283
3.47582e-05
0.000119161
-0.000153921
-5.10093e-05
6.88068e-06
-2.8908e-05
0.000144111
-0.000115204
1.483e-05
-3.14958e-05
9.60406e-05
-0.000322191
0.000226146
1.49969e-05
-0.000205138
0.000190131
-3.34789e-05
1.08519e-05
2.26269e-05
6.03757e-06
-5.24824e-06
-7.8934e-07
4.81113e-05
1.75628e-05
-0.000391331
-0.000465824
-5.45267e-05
3.71632e-05
1.73636e-05
3.00433e-06
-0.000146886
0.000253469
-0.000106583
3.56657e-05
0.000149896
-0.00018556
-7.42768e-05
5.48147e-05
0.000264949
-0.00027702
1.20714e-05
-2.56081e-05
2.33749e-05
2.23324e-06
4.34078e-05
-4.19262e-05
-1.48174e-06
-4.78311e-05
1.53451e-05
9.14838e-05
0.000313491
-0.000404941
-4.13248e-05
2.99507e-05
5.63772e-06
3.99842e-07
-5.2082e-05
5.90657e-06
4.6176e-05
-0.000248631
8.60379e-05
0.000162595
7.36149e-05
-1.93566e-05
-2.20292e-05
-1.78324e-05
-5.30021e-05
0.000353523
-0.000300523
-0.000425791
-0.000113949
0.000539753
-3.60266e-05
6.58269e-07
2.08498e-05
-1.67945e-05
-0.000285061
0.00029882
-0.000342072
0.000277657
6.43972e-05
0.000159478
0.000682948
-0.000288647
-5.71909e-05
0.000403162
-0.00031166
0.000220433
9.76745e-06
-0.000230201
-0.00021388
6.69925e-05
0.000207424
1.29135e-05
-0.000220338
0.000222756
-8.97361e-05
-0.000133028
2.62851e-05
-1.67243e-05
-1.69435e-05
3.02611e-05
-1.33177e-05
7.27293e-06
-7.3438e-06
-1.43472e-05
-1.91317e-05
-5.27258e-06
-7.3447e-05
7.87178e-05
6.11229e-05
-5.40639e-05
0.000166339
9.70759e-05
-0.000263414
-2.76553e-05
1.0457e-05
-9.07297e-05
-0.000139386
0.000358519
-0.000113474
-0.000245045
-2.01609e-05
2.90246e-05
-8.86388e-06
0.000252877
0.000105642
-2.44596e-05
3.61923e-06
2.08402e-05
-4.39189e-05
9.93678e-06
3.39816e-05
7.77906e-06
7.27388e-05
-2.34526e-05
-3.51934e-05
5.86446e-05
-8.5236e-05
-0.000162352
0.000247597
-3.82987e-05
3.68331e-06
3.46153e-05
0.000222546
-0.000389307
0.000166758
2.66885e-05
-1.0797e-05
-5.01837e-05
-3.44169e-05
0.000216066
-0.000192146
-2.39188e-05
-4.56546e-05
0.000599047
2.48846e-06
7.11308e-06
-9.60146e-06
-2.07451e-05
2.39918e-05
-3.24732e-06
-0.000210907
2.87181e-05
0.000182187
4.19999e-05
-4.60714e-05
4.07152e-06
-1.50667e-05
-7.18787e-06
1.15261e-05
-4.33839e-06
5.61582e-05
-3.42891e-05
-2.18691e-05
3.5003e-05
-2.41511e-05
0.00033619
-0.000336185
3.68845e-05
3.08312e-05
2.41028e-05
-1.7826e-05
-6.27732e-06
5.30098e-05
-8.26841e-06
-4.47397e-05
-2.98531e-05
0.000222939
0.000142508
-2.84841e-05
1.15403e-05
-4.54632e-06
-1.62444e-05
3.16519e-05
1.02017e-05
-1.73e-05
-0.000100489
5.57145e-05
-4.80085e-05
-7.70618e-06
1.7511e-05
1.80262e-05
-3.55369e-05
-0.000107005
-5.80562e-05
-0.000116035
-5.38786e-06
0.000121423
-0.000421309
-0.000166842
-2.00442e-05
-9.06321e-06
-8.22674e-06
1.07152e-05
-2.20228e-05
-1.92129e-06
2.39441e-05
-7.98311e-05
4.0455e-05
-3.29412e-05
3.50593e-05
-5.47818e-07
2.4155e-05
-0.000277933
0.000253778
0.000133607
-9.5908e-05
-3.7699e-05
7.54741e-06
2.64016e-05
1.18014e-06
-2.45021e-06
1.26989e-06
-3.20581e-05
1.15268e-05
2.0531e-05
0.000233341
0.000340777
-0.000574117
1.09206e-06
-9.90005e-05
2.89655e-06
-4.00374e-05
3.71417e-05
3.3649e-06
3.97419e-05
-4.31068e-05
-0.000119957
4.01403e-05
7.98169e-05
3.10794e-05
-2.56291e-05
-5.4503e-06
2.42652e-05
-3.61536e-05
1.18885e-05
4.00085e-05
-5.62692e-05
1.62604e-05
7.42482e-06
5.84967e-06
-5.95919e-05
1.51318e-06
1.04079e-05
-1.19208e-05
-5.99379e-05
3.16866e-05
-1.29183e-06
2.72279e-05
-3.48658e-05
7.63857e-06
5.64511e-05
-4.11799e-05
-1.52711e-05
5.47587e-05
-1.05127e-05
-1.77104e-05
-3.80587e-05
-0.000237457
7.33126e-05
-3.13707e-05
1.93284e-05
1.20423e-05
2.42416e-05
3.22096e-05
3.60192e-05
-5.14966e-05
1.54773e-05
0.000104332
-6.4741e-05
-3.95912e-05
-1.67766e-05
2.82499e-05
-1.1473e-05
-4.50381e-05
4.7616e-05
-2.57642e-06
-0.000581698
-0.000156113
0.000737818
9.96203e-08
8.16651e-06
-8.2663e-06
-6.32319e-05
5.86244e-05
4.60757e-06
0.000187009
-9.52745e-05
-9.17327e-05
-4.23359e-05
5.27899e-05
-1.04538e-05
-1.2888e-05
-1.06405e-05
2.35287e-05
-4.7544e-05
-4.53791e-06
8.1832e-06
6.57305e-06
3.33414e-05
8.66976e-05
0.000224759
-0.000247904
2.31448e-05
-4.86794e-05
1.17886e-05
0.000181084
-0.000303089
0.000122011
1.19288e-05
-1.09596e-05
-9.68539e-07
3.86177e-05
-2.25851e-05
-1.60329e-05
-8.77379e-06
8.87333e-06
-2.46964e-05
-7.11572e-05
9.58525e-05
2.8929e-05
1.30498e-05
2.70619e-05
2.90963e-05
-2.20436e-05
1.56275e-05
6.41606e-06
-1.96071e-05
0.000222244
-0.000222243
1.02464e-05
1.68314e-06
8.06315e-05
3.00888e-05
-0.000110728
1.05905e-05
5.22936e-05
3.17753e-05
-6.7525e-05
3.57507e-05
-4.92594e-05
3.86175e-05
1.0642e-05
2.72396e-05
-2.52584e-05
-1.97034e-07
8.50996e-06
-8.31294e-06
-3.2412e-05
-1.54118e-05
4.78237e-05
-0.000134383
0.000424759
-7.70478e-05
7.86246e-05
-0.000165356
1.65592e-05
0.000148786
1.12214e-05
-1.10687e-05
-1.52849e-07
0.000333814
-0.000309658
4.75129e-05
2.05507e-05
-0.000152459
0.000169914
-1.74537e-05
0.000642361
-0.00036792
-0.000274439
7.20941e-06
0.00014406
-0.000151267
0.000382803
0.000259559
-0.000277531
0.000488462
-0.000210951
0.000571042
-0.000543592
0.000176507
-0.000240968
6.44625e-05
-0.000264787
0.000498129
-3.76153e-05
-0.000174444
0.000212056
1.38066e-05
1.53419e-06
-0.000526836
0.000101047
0.000262618
0.000448914
-0.000711534
-0.000274815
-5.95104e-05
0.000334332
0.000116914
0.000469876
-0.00022948
0.000536078
9.13438e-05
-0.000167211
7.5866e-05
-3.98942e-05
-7.62225e-05
0.000116116
0.000695361
-0.000164184
-0.000531177
1.90113e-05
-4.04404e-05
2.1429e-05
6.43177e-05
-4.12969e-05
8.64154e-05
-9.76949e-07
-8.54376e-05
-3.30198e-05
8.36827e-05
-5.06642e-05
6.7378e-06
-1.08003e-05
4.06254e-06
1.58781e-06
6.67411e-07
-2.2554e-06
-9.04574e-06
8.84865e-06
0.000703933
-0.000253388
-0.000450542
5.22939e-05
-4.30445e-05
2.85706e-06
4.05506e-05
-8.55777e-07
-2.52088e-05
2.41155e-05
1.09341e-06
2.52647e-07
1.09441e-06
-1.34713e-06
0.000184823
1.36818e-05
-1.62925e-05
-6.06635e-06
0.000366749
-0.000530797
0.000249956
-0.000309938
5.99838e-05
-1.95523e-05
2.57644e-05
-6.21195e-06
-2.40128e-05
1.11249e-05
-0.000181517
9.94469e-05
-0.000126246
3.07232e-05
-1.3318e-05
1.79183e-05
2.06992e-05
-4.19561e-05
-0.000100711
0.000293637
0.000537488
-0.000398845
0.000268923
0.000129932
5.72031e-06
-9.59452e-07
-4.76084e-06
4.15694e-05
-1.71088e-05
-2.4461e-05
0.000368988
-0.000200379
-0.000168609
-1.98091e-05
-1.50322e-05
2.48801e-05
4.93265e-06
-2.98125e-05
-0.000523593
0.000790191
-0.000266596
-2.38511e-06
-4.15339e-05
8.50076e-05
-4.5227e-05
-2.13359e-05
-0.000209942
0.000231275
-3.57569e-05
0.000242071
-4.06295e-05
3.69246e-05
3.70491e-06
-2.31345e-05
7.91053e-06
1.5224e-05
-2.31167e-06
-7.13252e-05
5.59345e-05
-2.06692e-05
-3.52656e-05
0.000460752
-3.69192e-06
-0.000457062
-1.55961e-05
-0.000398476
0.000226299
0.000172192
1.34326e-05
-3.56242e-06
-9.58966e-05
3.73802e-05
-0.000189838
-0.000519947
0.000417238
0.000102712
-0.000102032
-1.20819e-05
0.000114112
5.54609e-06
-3.65542e-05
-5.38646e-06
4.29435e-06
1.09213e-06
4.72079e-07
-2.04636e-06
-1.03654e-05
-3.48682e-05
7.94963e-05
-0.000434822
0.000248739
0.000186067
3.43117e-05
6.69298e-05
-0.000101238
-2.32831e-05
-9.98426e-07
-0.000142774
0.000180178
-3.74063e-05
-5.64533e-05
0.000314877
4.55868e-05
4.34625e-05
-8.90498e-05
-2.50536e-05
-5.54609e-07
5.73969e-05
-8.19213e-06
-1.36814e-05
2.18736e-05
-2.69654e-05
-8.46399e-06
3.54297e-05
3.68125e-05
-2.92606e-05
-0.00023152
0.000193903
-8.54223e-06
2.68954e-05
-1.51409e-05
-3.41186e-05
-2.96844e-06
-2.20591e-05
2.50277e-05
-3.69365e-06
-4.63656e-06
0.000264789
-4.8538e-05
-0.000216236
1.24712e-06
4.26305e-05
1.47356e-06
8.06704e-06
-9.54073e-06
-4.53818e-06
1.1276e-05
0.000126641
-0.000253784
0.000127145
-3.60967e-05
1.7071e-05
1.90256e-05
1.38606e-05
-5.0678e-06
-7.66193e-05
0.0001273
9.70459e-06
2.52983e-05
3.45273e-05
6.98048e-05
-0.000624125
3.30098e-05
0.000591124
4.78384e-05
-4.89607e-05
1.12256e-06
-1.02594e-05
-1.2875e-05
4.21345e-05
-0.000114838
7.27006e-05
-0.00051872
0.000473064
-0.000170141
0.000151982
-1.56774e-05
-6.70619e-06
0.000174589
-0.000195926
9.28219e-06
-1.74743e-05
2.42045e-05
-6.15757e-05
3.73708e-05
-3.73732e-05
5.18039e-06
3.2193e-05
2.45532e-05
2.9409e-05
-5.3962e-05
5.93063e-05
-0.000579265
1.86797e-05
-7.24277e-05
-3.79408e-05
-2.68874e-06
-0.000199498
0.000199499
4.3786e-05
-1.95208e-05
-1.82078e-07
2.23686e-05
-2.21866e-05
-2.37701e-06
-1.7434e-05
-3.44555e-05
3.39979e-05
4.5765e-07
5.94699e-05
-6.6313e-05
-1.8141e-05
-2.78093e-05
4.59502e-05
1.17562e-05
-8.70052e-06
-3.05578e-06
-9.82844e-05
-0.000113056
-3.59725e-05
5.66607e-05
-2.06879e-05
-6.58155e-05
2.34188e-05
4.23967e-05
2.9435e-05
-5.73168e-05
2.78821e-05
1.66549e-05
7.20421e-06
-4.71269e-05
1.47148e-05
6.43666e-05
-3.49314e-05
0.000194012
3.68746e-05
-1.02978e-05
1.52305e-07
1.00314e-07
-0.000605852
-0.000179407
0.000785257
0.00025
-7.34926e-05
-0.00025821
-0.000140245
-1.0856e-05
1.29941e-05
-2.1369e-06
0.000155763
-0.000172215
1.64527e-05
-0.000150003
0.000208342
-5.83381e-05
0.000233299
-3.92883e-05
-2.22099e-05
3.28315e-06
1.89266e-05
2.45791e-05
-4.67766e-05
2.21964e-05
-1.75438e-05
3.20745e-05
-1.45307e-05
1.95619e-05
-2.22805e-05
-3.22701e-05
-1.61687e-05
4.84387e-05
0.000185482
5.49696e-05
-0.000240452
0.000298103
-0.000342818
4.47157e-05
-1.47446e-06
2.10361e-05
1.70967e-05
1.50095e-05
1.12887e-05
-2.74114e-07
4.24222e-05
5.19463e-06
-0.000204218
0.000105933
0.000188705
-0.0002337
4.49948e-05
0.000160653
-0.000180668
2.00145e-05
-1.34559e-05
-4.59321e-05
5.93883e-05
3.09663e-05
-1.45958e-05
3.44402e-07
1.42515e-05
-3.56783e-05
-8.42784e-05
-7.25955e-06
-0.000318862
-1.41778e-05
-3.46981e-05
2.13247e-05
-0.00022187
-0.000192878
2.70905e-05
-1.18877e-05
3.25194e-05
-7.57621e-06
-2.49434e-05
-3.02812e-05
3.91992e-05
-7.99851e-06
2.72413e-05
-1.92428e-05
-6.31287e-05
-1.61109e-06
2.74481e-05
-1.65633e-05
-1.08849e-05
0.00022453
2.29422e-07
-4.1263e-05
-0.00034508
4.76531e-05
-4.83208e-05
6.67277e-07
-1.16982e-05
-4.77375e-05
5.94349e-05
-1.00591e-05
3.72869e-05
-0.000421999
0.000314213
-4.5094e-05
-6.26626e-06
-2.35201e-05
5.90541e-05
-3.55273e-05
-2.26716e-06
6.46588e-06
-4.19878e-06
0.000150931
4.83311e-06
0.000103702
0.000149767
7.1666e-06
-2.91895e-05
9.60979e-05
-8.855e-05
-7.54573e-06
-9.74744e-07
1.12705e-06
-0.000103396
9.5864e-05
7.53127e-06
0.000218698
-0.000824554
-5.9892e-05
5.015e-05
9.74224e-06