/*--------------------------------*- C++ -*----------------------------------*\
| =========                 |                                                 |
| \\      /  F ield         | OpenFOAM: The Open Source CFD Toolbox           |
|  \\    /   O peration     | Version:  v2012                                 |
|   \\  /    A nd           | Website:  www.openfoam.com                      |
|    \\/     M anipulation  |                                                 |
\*---------------------------------------------------------------------------*/
FoamFile
{
    version     2.0;
    format      ascii;
    class       volScalarField;
    location    "200";
    object      k_0;
}
// * * * * * * * * * * * * * * * * * * * * * * * * * * * * * * * * * * * * * //

dimensions      [0 2 -2 0 0 0 0];


internalField   nonuniform List<scalar> 
54593
(
0.000147983
0.000177995
0.00014646
0.03462
0.0204084
0.0526299
0.0183425
0.000187395
0.00017611
0.000147344
0.000154626
0.00813821
0.000394471
0.000147625
0.000172002
0.000155425
0.000187454
0.000166111
0.000147334
0.00015781
0.000146457
0.000157192
0.000147323
0.00877095
0.000144697
0.00021433
0.000147984
0.000173076
0.075935
0.000147345
0.00021432
0.000190787
0.000147045
0.0354776
0.000163226
0.000149199
0.000170703
0.000177863
0.000150936
0.000157237
0.000279968
0.000902404
0.000146078
0.000148033
0.000191002
0.000150924
0.000195755
0.000169647
0.000144939
0.000173832
0.000147048
0.000145078
0.000154229
0.000192703
0.000198556
0.000148374
0.0400047
0.00164645
0.000196093
0.000167192
0.000146096
0.000150883
0.000147636
0.0300329
0.000147774
0.000155162
0.0768056
0.000187296
0.0291613
0.0288713
0.000145006
0.000163137
0.00014775
0.0446046
0.000153202
0.000159833
0.000166555
0.000248408
0.0409338
0.000284113
0.000146529
0.0417226
0.000148027
0.0637362
0.000152101
0.0494502
0.0214656
0.000190051
0.000172987
0.000148287
0.00272781
0.0001602
0.000200632
0.000203461
0.000165497
0.0784973
0.0304269
0.000218602
0.000148644
0.000174042
0.000149356
0.0478412
0.000150183
0.000147793
0.000190072
0.000165832
0.000168959
0.000189471
0.000159576
0.00016908
0.0526785
0.000147725
0.000148311
0.000215773
0.000147696
0.00545142
0.0301177
0.028071
0.0380727
0.000199699
0.0294405
0.000149594
0.0213746
0.000169261
0.000146751
0.00021516
0.000150406
0.00014675
0.0192239
0.0799926
0.000149587
0.000148912
0.000160699
0.000149154
0.00016037
0.000679546
0.000146639
0.0264762
0.000147786
0.000148212
0.0148518
0.000168929
0.000160286
0.000763421
0.000164502
0.000186996
0.0303585
0.000170448
0.0459602
0.000150284
0.000168118
0.000149177
0.000205128
0.000202981
0.000147912
0.0745175
0.000154442
0.0732751
0.000171951
0.000148635
0.000282964
0.000153009
0.0142848
0.0768139
0.000172651
0.000149551
0.000146593
0.000146071
0.000453916
0.00014988
0.000219664
0.000597377
0.000173568
0.000149626
0.000176075
0.000146962
0.0587581
0.000152312
0.000150892
0.000263185
0.0427412
0.000143899
0.0740593
0.000149442
0.000149628
0.00551016
0.000149931
0.000152892
0.000147656
0.000359743
0.000150931
0.0250814
0.00476113
0.000147737
0.0151621
0.0308617
0.000148
0.000153908
0.000215752
0.00424541
0.000161188
0.00021369
0.000187442
0.000150098
0.000149926
0.000149896
0.000466363
0.000151883
0.000150957
0.000146372
0.000148225
0.00014762
0.000143868
0.00016037
0.000165243
0.00021352
0.0440107
0.0257479
0.00854125
0.000147988
0.000157126
0.0244023
0.00124911
0.000152075
0.000185009
0.000166028
0.000149794
0.000166072
0.000146551
0.000171444
0.000150351
0.000216987
0.00624769
0.000149592
0.000149137
0.0268758
0.000219197
0.000149151
0.000184578
0.000149125
0.000152048
0.000160678
0.06535
0.000197814
0.000151922
0.000154442
0.0573726
0.000252384
0.000145922
0.000296684
0.000197611
0.0508593
0.060812
0.000147247
0.000153003
0.000148536
0.016776
0.000151282
0.000214812
0.000157127
0.000169814
0.0481738
0.000149014
0.00508988
0.000165232
0.000146771
0.0172446
0.000145935
0.000155884
0.000149535
0.0491471
0.000451952
0.000159645
0.00014797
0.000154359
0.000147834
0.000151031
0.061894
0.000146387
0.000195136
0.000151472
0.000163183
0.000156313
0.0182101
0.0572167
0.000241945
0.00015726
0.000153195
0.000164667
0.00160004
0.052781
0.0404407
0.000147275
0.000148204
0.000184827
0.000149758
0.0472006
0.000470523
0.000147678
0.000217692
0.000255471
0.000151116
0.000148239
0.000149846
0.000147929
0.000148312
0.000174371
0.017058
0.000150211
0.000147948
0.0601784
0.000167359
0.0168269
0.000149094
0.000260658
0.0210536
0.000186829
0.000661475
0.000218063
0.00014941
0.000181531
0.00014597
0.000239889
0.000172683
0.0373142
0.000171674
0.000182188
0.000146668
0.0453611
0.000169896
0.000148399
0.00015917
0.000147778
0.000153063
0.000149892
0.00060484
0.000156846
0.0176799
0.000242079
0.000158043
0.000167226
0.000154512
0.0528837
0.000151365
0.000148314
0.000185434
0.000173778
0.000216403
0.000190175
0.0504093
0.00609209
0.000148223
0.000238057
0.000195705
0.000148267
0.000146134
0.000157979
0.000148238
0.000148399
0.000148035
0.000211787
0.000157335
0.000151709
0.0186631
0.000174061
0.000148968
0.000148239
0.0028439
0.000166552
0.000147715
0.000154766
0.000147942
0.000145957
0.000149456
0.000153588
0.000688976
0.000147668
0.003537
0.000159537
0.047887
0.0792024
0.000161185
0.000181813
0.000252015
0.000187094
0.000520185
0.00784602
0.000147773
0.0635029
0.000182155
0.00017823
0.000196129
0.000156605
0.000146148
0.014874
0.0149577
0.00321622
0.000176374
0.000174893
0.000182246
0.000152538
0.000177869
0.0333046
0.000202597
0.000237084
0.000203421
0.000146488
0.000185653
0.000147204
0.000220816
0.00024421
0.000147732
0.000148233
0.000175938
0.00014766
0.0737095
0.000169848
0.000148037
0.000148597
0.000172382
0.00016651
0.0207461
0.000172106
0.0001905
0.0217452
0.0134655
0.0596837
0.000170527
0.00593965
0.000163854
0.0791216
0.000163711
0.000253504
0.000174028
0.000181617
0.000162683
0.00014796
0.0345204
0.000176495
0.000177925
0.0152041
0.00014963
0.000146709
0.000148316
0.0180072
0.000184329
0.000147609
0.000148662
0.00020435
0.000728492
0.000617611
0.000244569
0.000174617
0.000167291
0.0339816
0.000591652
0.000164433
0.000148418
0.000151055
0.000202168
0.00014762
0.000145905
0.000423399
0.000148775
0.000146175
0.000181958
0.00021148
0.000148837
0.000169939
0.000905643
0.0182093
0.00280607
0.000160556
0.000145237
0.0154012
0.000149144
0.000149841
0.0234872
0.0181961
0.000148845
0.000176428
0.000148027
0.000181188
0.000181423
0.000148037
0.001025
0.000240288
0.00023953
0.000144681
0.00116348
0.000447021
0.000149629
0.000147394
0.000157696
0.00620968
0.000149502
0.00016578
0.000151907
0.000242437
0.000148329
0.000267859
0.0211241
0.000243178
0.000183529
0.00014698
0.000165702
0.000148641
0.000166298
0.000163745
0.000146758
0.000148415
0.000195289
0.0217807
0.000148663
0.000157908
0.0424179
0.000354347
0.00014713
0.0582087
0.000147791
0.000191001
0.000155323
0.00014947
0.000148977
0.000147939
0.00018208
0.0529598
0.054383
0.00539444
0.000145004
0.00053019
0.000152457
0.000168863
0.000147895
0.00014671
0.000146631
0.0278137
0.000148025
0.000158066
0.000169076
0.000147229
0.000151882
0.00451556
0.0732276
0.000149961
0.0187631
0.0192279
0.000146729
0.0176614
0.000146138
0.0650645
0.0001632
0.000210148
0.00112576
0.000194733
0.000192891
0.000267421
0.00720529
0.000242218
0.0331424
0.000148355
0.000149591
0.000175034
0.000169736
0.0040858
0.000149434
0.0786292
0.000148891
0.000154813
0.000195546
0.000147128
0.00015899
0.000182436
0.000153377
0.000400971
0.0406164
0.000229214
0.000299074
0.0539386
0.00065325
0.000146869
0.000145976
0.00015829
0.000146967
0.000152009
0.000148311
0.000203119
0.000151366
0.00023698
0.000161255
0.000162685
0.0230108
0.00017065
0.000179624
0.000149475
0.0548941
0.045884
0.000147216
0.000149672
0.000274488
0.017475
0.000154677
0.000148657
0.0720119
0.0380433
0.000230472
0.0171875
0.000151981
0.000156846
0.000165891
0.000223268
0.000148418
0.000149704
0.000162954
0.000189596
0.000163119
0.000151777
0.000230681
0.0372082
0.000149626
0.000145946
0.0192181
0.000201205
0.000190442
0.029454
0.000483446
0.00022323
0.0783084
0.0747786
0.000189788
0.000255883
0.000147791
0.000148672
0.000177482
0.000147232
0.000186797
0.000176178
0.00670755
0.000151309
0.0766769
0.000208354
0.000147431
0.000208561
0.000146202
0.000151762
0.000555068
0.000190013
0.0778483
0.00016034
0.0619077
0.000146885
0.000177988
0.0769073
0.0586819
0.000147787
0.000143875
0.0475686
0.000159372
0.000149543
0.00014801
0.000148671
0.00014724
0.00731742
0.000168766
0.000147632
0.000148402
0.00461062
0.000202363
0.000148655
0.000146031
0.000147909
0.000169973
0.000161487
0.000152502
0.000192255
0.0130042
0.0497783
0.000150891
0.000147781
0.000147767
0.000156327
0.00016351
0.000149596
0.0452271
0.0603302
0.000152734
0.000148243
0.000147244
0.000248858
0.0456169
0.000146031
0.000148566
0.0462292
0.000150279
0.000154669
0.000190649
0.000147613
0.00018689
0.0030047
0.000170444
0.000148226
0.000151951
0.02829
0.000166663
0.00014842
0.0504569
0.000147481
0.0298325
0.000173723
0.000158968
0.000149429
0.000146363
0.0202454
0.000147797
0.000166343
0.0565974
0.00016195
0.000148117
0.000163496
0.0141229
0.000162852
0.0157767
0.000160787
0.0842053
0.00534688
0.00704884
0.000147783
0.000298177
0.00015177
0.000148671
0.000146344
0.000146187
0.00646657
0.00294595
0.0778405
0.00016708
0.000216783
0.000147561
0.000154104
0.000148084
0.000147999
0.0279558
0.000411465
0.000264306
0.000149838
0.0477031
0.00016631
0.0714313
0.000240027
0.0654734
0.000240344
0.00021925
0.015791
0.0146351
0.000250627
0.0228731
0.00014768
0.0344481
0.0413388
0.000204535
0.0603508
0.0550689
0.0874922
0.000176689
0.0570911
0.000159022
0.000176443
0.000634634
0.000155488
0.000148177
0.000148245
0.000148093
0.0148672
0.000190368
0.000156678
0.000146557
0.000146274
0.000148087
0.00108176
0.000146602
0.0182954
0.000203669
0.00358995
0.000148063
0.000243176
0.0305604
0.000147074
0.00720722
0.0499774
0.0285538
0.0221466
0.000149671
0.000157635
0.000198093
0.000148974
0.000169202
0.0310221
0.000151828
0.0638255
0.0414281
0.000215217
0.000147888
0.000146191
0.00160561
0.000164406
0.000571042
0.000152581
0.000205724
0.000166667
0.000181243
0.0693563
0.00308365
0.000168452
0.000193774
0.000148238
0.000149701
0.000148223
0.000187799
0.000645845
0.0463256
0.000169792
0.000171848
0.0177708
0.000198585
0.000164029
0.000152063
0.000258054
0.000146438
0.000150091
0.000149058
0.0263628
0.000150973
0.000147549
0.000149307
0.000146279
0.000196994
0.000148928
0.000148018
0.00014819
0.0799375
0.00014699
0.000149653
0.0461982
0.000147223
0.000158749
0.0136444
0.000557107
0.000146167
0.000278957
0.0567077
0.0765269
0.000146536
0.0443853
0.00014648
0.000189911
0.000145923
0.000337294
0.00125168
0.000195136
0.000147877
0.00647042
0.000154416
0.000146625
0.00014597
0.000156798
0.0116015
0.000153676
0.000147931
0.0715716
0.000151487
0.000160587
0.000231219
0.000146476
0.000147978
0.000224687
0.0182551
0.000143314
0.000148081
0.0254424
0.0185167
0.000206761
0.000143266
0.0162472
0.0675536
0.0141852
0.000146256
0.00018429
0.000147129
0.000143903
0.000157983
0.000192194
0.0528553
0.000143872
0.000151018
0.000148401
0.000146278
0.0730284
0.0131756
0.000284804
0.00016555
0.000249948
0.000146606
0.0488828
0.00462206
0.0178994
0.000153592
0.02153
0.000148614
0.000148162
0.000156034
0.000149632
0.000166173
0.000147232
0.0129458
0.0526503
0.000574375
0.000171527
0.000151794
0.000219117
0.000193456
0.000198038
0.000144908
0.0197351
0.0710951
0.000147761
0.000230174
0.000148084
0.000161029
0.0272837
0.000183364
0.000149627
0.0178274
0.000148419
0.0190932
0.000180108
0.000213351
0.000170891
0.000163993
0.00018959
0.000171083
0.000146034
0.000215397
0.00017401
0.000254839
0.000167433
0.0340299
0.0473302
0.000148067
0.000147567
0.000147005
0.000147917
0.000179971
0.000148359
0.00014613
0.0248005
0.00018779
0.000165114
0.0148349
0.000155749
0.0110874
0.000146578
0.000148025
0.000222852
0.000148201
0.000160677
0.000172223
0.000211577
0.000210326
0.0180495
0.000173171
0.000210808
0.000595808
0.000170973
0.0303001
0.000150224
0.00759263
0.000189494
0.000153695
0.000176656
0.000171941
0.000318371
0.0159049
0.0621101
0.000149594
0.000155934
0.0163733
0.000147014
0.000163921
0.000181557
0.000211888
0.0570821
0.000147851
0.000192285
0.000581128
0.000148121
0.000148352
0.000143357
0.0772429
0.00016721
0.000150941
0.00424212
0.0207862
0.000147331
0.0771053
0.00937579
0.00020175
0.000217162
0.000196637
0.000181798
0.000183239
0.0129766
0.000182911
0.000146931
0.0153359
0.000148419
0.000147286
0.000146916
0.0834846
0.000149169
0.00019671
0.000151697
0.0228288
0.000173501
0.000147505
0.000154016
0.0777529
0.000145919
0.000149001
0.000147192
0.000180712
0.000149226
0.000400251
0.000162412
0.000148387
0.000176818
0.000196022
0.0210499
0.000150024
0.000217312
0.0551687
0.0431311
0.000147242
0.000158282
0.000148344
0.000147761
0.000196461
0.000158339
0.000147307
0.000152089
0.000167002
0.000147601
0.047319
0.000153674
0.000172759
0.000148147
0.00014775
0.000153815
0.000146948
0.000160207
0.000208866
0.000149837
0.000148069
0.000147776
0.00470405
0.00016788
0.0227657
0.000153381
0.0541298
0.085453
0.00022
0.000161026
0.000181546
0.000148398
0.04813
0.0222024
0.0478366
0.032658
0.000187678
0.000173458
0.000204301
0.000230435
0.000167688
0.000152009
0.000147018
0.00018234
0.0160574
0.000193866
0.00016941
0.000148219
0.000181575
0.000148194
0.0489239
0.000145207
0.000200395
0.000152024
0.000281009
0.000148021
0.000318531
0.000157593
0.000221273
0.000148022
0.000152066
0.00084663
0.0746916
0.000161645
0.000173424
0.000147705
0.000149595
0.0211232
0.0769006
0.0562362
0.000149905
0.000215813
0.000161345
0.000169578
0.000148031
0.000216546
0.000148365
0.000147668
0.000151608
0.000148388
0.0320709
0.000148359
0.00014774
0.000149746
0.000151752
0.00014984
0.000156499
0.033551
0.000156115
0.0199876
0.00705356
0.000147731
0.000181087
0.000146696
0.000151213
0.000148043
0.000385772
0.000559568
0.00014853
0.000148157
0.00015825
0.0553903
0.000387556
0.000148076
0.000145854
0.00017357
0.000147072
0.0170079
0.00166814
0.000148384
0.000157963
0.000216313
0.000181055
0.000149042
0.000193214
0.0498583
0.000148396
0.0157712
0.000149601
0.0512289
0.0142292
0.000146096
0.000174246
0.0272324
0.0658138
0.000146278
0.0001877
0.000148108
0.000146323
0.0502845
0.000152483
0.000153456
0.000148233
0.00716097
0.000196431
0.000168595
0.00022515
0.000160729
0.000150245
0.000188831
0.0309061
0.000147586
0.0310712
0.00536398
0.000162787
0.000150164
0.000154536
0.000148184
0.000187482
0.000147655
0.000149595
0.000168356
0.0317911
0.000160912
0.000149876
0.000166087
0.0542477
0.000143307
0.0155863
0.000151969
0.000239778
0.000190522
0.0206259
0.00014896
0.0542342
0.000146301
0.000143307
0.000148137
0.000157592
0.000147519
0.0369629
0.000148417
0.000148162
0.00466167
0.000147995
0.000147278
0.0189362
0.000149355
0.000147263
0.0001475
0.000318453
0.0622753
0.0157638
0.0791879
0.000687871
0.0297309
0.000147599
0.00015379
0.000399142
0.000169627
0.000224018
0.0117721
0.000155512
0.000234142
0.0415301
0.000147321
0.0694668
0.00028314
0.000147275
0.000157092
0.000149244
0.000147993
0.00014973
0.000240325
0.0553794
0.0038951
0.000203783
0.000147527
0.000171599
0.000173488
0.000147256
0.078994
0.000146403
0.000147031
0.000180198
0.000147048
0.000180603
0.000143906
0.000179654
0.00928476
0.000189856
0.00015807
0.000159154
0.0435864
0.051514
0.00016622
0.00025838
0.000160528
0.000161211
0.0161203
0.000180029
0.000147203
0.000304054
0.0524247
0.000143355
0.000151558
0.000167946
0.000179852
0.00018254
0.000191448
0.000147992
0.000334601
0.000172423
0.000148603
0.000152202
0.000149883
0.000146989
0.000148604
0.000187665
0.0195764
0.000151231
0.00032136
0.00015475
0.000148238
0.0495493
0.00016293
0.0487965
0.000201762
0.0179492
0.000167309
0.0268914
0.0202611
0.000151734
0.000173589
0.0185847
0.0529873
0.000256877
0.00018688
0.0170629
0.00019031
0.0318963
0.000148253
0.0566705
0.000147579
0.000148
0.000165937
0.000190355
0.000148158
0.000171368
0.00020668
0.000152208
0.000148581
0.00758582
0.000147579
0.0257063
0.000159593
0.000149199
0.0608887
0.000157618
0.000164785
0.0475939
0.0583567
0.000181212
0.00413711
0.000277818
0.000147562
0.000149749
0.0878798
0.000164417
0.079875
0.000146421
0.000164248
0.000147022
0.000147652
0.000392606
0.00018039
0.000148029
0.0177539
0.000146223
0.000190469
0.000157846
0.0313651
0.0522215
0.000148725
0.000157589
0.000151552
0.000148172
0.0201628
0.000147678
0.000166087
0.015013
0.000147323
0.00014717
0.00270347
0.0223296
0.00015138
0.000168558
0.000148095
0.000148779
0.000148619
0.0205676
0.000157207
0.000318687
0.000169302
0.000224291
0.000162089
0.000146394
0.000189762
0.00018963
0.000149623
0.0112161
0.00135708
0.00247268
0.000153874
0.000148088
0.0847896
0.0473849
0.0205586
0.000149772
0.00014784
0.00528567
0.000149422
0.0449714
0.000146915
0.000150838
0.000157247
0.000147748
0.000147168
0.000148988
0.000151297
0.0149563
0.000148133
0.000158352
0.000197625
0.000186902
0.000148229
0.000149253
0.0505616
0.00018992
0.0554863
0.00015578
0.0753132
0.000146971
0.000147853
0.000159063
0.00053331
0.000467013
0.00016495
0.0380029
0.000194186
0.00017435
0.000157187
0.000160041
0.000148642
0.000212436
0.000168006
0.0824942
0.000163431
0.000160081
0.00656892
0.000184451
0.000148468
0.000162801
0.000192997
0.000149128
0.000182233
0.000322683
0.000147193
0.000181265
0.000388709
0.000146371
0.000148017
0.000147712
0.000147007
0.0503064
0.000174193
0.000172338
0.000190603
0.000146185
0.000254787
0.000146846
0.000151786
0.000146909
0.000170613
0.000262916
0.0121134
0.000172906
0.000146434
0.000167689
0.000171919
0.0001487
0.00681641
0.000149156
0.000628866
0.000151005
0.0144307
0.00026732
0.000177541
0.000163562
0.000148613
0.000149532
0.000156647
0.000161787
0.00019415
0.000205682
0.000147324
0.0336501
0.0444503
0.000225583
0.000160994
0.000160373
0.0152177
0.000148784
0.0210004
0.000147161
0.000148253
0.00016698
0.00014959
0.0172885
0.00014829
0.0177302
0.000146019
0.000148123
0.000145944
0.000151401
0.000212282
0.000146989
0.000168637
0.000151488
0.0193387
0.000148011
0.000254693
0.00015505
0.000164752
0.000162021
0.000149967
0.000332645
0.000168257
0.000149762
0.00018436
0.000160072
0.00018439
0.000166591
0.00872638
0.000161442
0.0769551
0.000154992
0.000149131
0.000155449
0.000154697
0.000167309
0.058603
0.000161409
0.000149626
0.000149592
0.000147608
0.000205883
0.0834234
0.000149625
0.00555528
0.000181585
0.0771859
0.0138653
0.0107694
0.000148325
0.000165863
0.0269337
0.000163395
0.000513204
0.0121694
0.000187405
0.000149124
0.000161311
0.000149872
0.000148349
0.000170772
0.000147646
0.0541493
0.0540384
0.000192179
0.000148689
0.000198856
0.000149864
0.0782426
0.00865704
0.028006
0.000157937
0.00014949
0.018539
0.000179806
0.0838701
0.000169159
0.000416899
0.0187083
0.0174246
0.000148635
0.000147403
0.000470436
0.000153365
0.000148378
0.0201663
0.000149616
0.000187912
0.000146307
0.0475168
0.000147191
0.000148151
0.0001704
0.0001472
0.00947474
0.000158197
0.0239527
0.00014757
0.000147908
0.000147636
0.000157943
0.000191426
0.000148759
0.00014768
0.000147264
0.000208812
0.000214549
0.000159225
0.000148175
0.000162802
0.000181929
0.000207642
0.000172399
0.000148489
0.000146979
0.000151779
0.00014767
0.00015405
0.000149485
0.000166953
0.000314715
0.000170746
0.000193308
0.038886
0.000148508
0.000237933
0.0826361
0.000148067
0.00014989
0.000146928
0.000148019
0.0870812
0.000178187
0.0174567
0.000307733
0.000169829
0.000195759
0.000166438
0.000165268
0.000160205
0.00014892
0.000146026
0.00015644
0.000169144
0.000147807
0.0187661
0.0085455
0.000559234
0.000156455
0.000151568
0.000163396
0.0505192
0.0465775
0.000149881
0.000146185
0.0584841
0.000153424
0.0139932
0.0245621
0.00916548
0.0182196
0.0209635
0.00014629
0.0690697
0.0430152
0.0112009
0.000147954
0.000150846
0.000205377
0.000331087
0.000207112
0.0203909
0.00016773
0.000180811
0.000143814
0.000147623
0.0837835
0.000157518
0.000151342
0.0529433
0.000165003
0.000346755
0.000184993
0.000147863
0.000146447
0.000153406
0.000190939
0.018864
0.0237349
0.068692
0.000146851
0.00015781
0.000204132
0.000153964
0.000154411
0.000149968
0.0188051
0.000171414
0.000144252
0.0770918
0.000147726
0.00015882
0.000148013
0.000178364
0.000208808
0.045473
0.000147735
0.000182786
0.00156239
0.000163099
0.000149152
0.000173743
0.000149002
0.000146357
0.000153916
0.000151496
0.0124285
0.00016623
0.000150049
0.0203181
0.000148546
0.0260934
0.000144292
0.000148918
0.000199327
0.000160324
0.000154666
0.000237851
0.000147665
0.0492892
0.000146126
0.000226913
0.00021289
0.054352
0.00691622
0.000150871
0.000165225
0.000144903
0.000168759
0.000352474
0.000153468
0.000147873
0.00016542
0.0736327
0.00579324
0.0301156
0.000148932
0.000199096
0.0502638
0.000149156
0.000207424
0.0198676
0.00041867
0.000167138
0.000157731
0.000166036
0.000149
0.000153881
0.0156576
0.000145865
0.000146452
0.000147752
0.000180417
0.000561745
0.000194945
0.000149606
0.000168852
0.000145953
0.0001471
0.000156234
0.00017784
0.000147647
0.00862742
0.000247156
0.000168734
0.000147626
0.0449102
0.000151724
0.000146952
0.000148864
0.000155354
0.000191533
0.0142446
0.000168606
0.000182896
0.000151075
0.000148936
0.0544652
0.000164544
0.000169705
0.0653467
0.000252384
0.0295842
0.000177656
0.0001538
0.000168128
0.000162304
0.000160575
0.0101114
0.000146777
0.00014721
0.0527109
0.0607503
0.0212039
0.000148952
0.000415015
0.000149842
0.000151055
0.000171252
0.0166073
0.000152928
0.00372624
0.000157394
0.000190364
0.000158151
0.000153341
0.000189407
0.000148227
0.000147999
0.000170959
0.000248384
0.000162311
0.000244731
0.0144334
0.00029302
0.000155792
0.000147942
0.0111982
0.000147595
0.0161734
0.00015288
0.00015598
0.010967
0.000162236
0.000202753
0.0502772
0.000276811
0.000151715
0.000147362
0.0158005
0.0001659
0.0386741
0.050794
0.0424759
0.0234847
0.000213441
0.000239197
0.000148833
0.000161321
0.0535704
0.000174279
0.000150981
0.000145266
0.000510889
0.000154725
0.000153681
0.000213987
0.000157962
0.000147125
0.0744291
0.000168493
0.000153425
0.0438396
0.000211736
0.000148037
0.000151294
0.00016118
0.000152095
0.0174546
0.0807499
0.00654837
0.000146979
0.000148511
0.000179304
0.000213356
0.000166463
0.000191619
0.000167248
0.000629965
0.000148627
0.000206053
0.000147067
0.00018634
0.000149877
0.0380643
0.000200331
0.0115254
0.000202737
0.00332652
0.000343654
0.000201162
0.000149597
0.0408249
0.000192672
0.000148565
0.0218116
0.000341734
0.000147788
0.000171351
0.000149625
0.000151475
0.0413756
0.000148102
0.000214102
0.00014758
0.000165591
0.000169718
0.0503947
0.000143788
0.000335793
0.000195267
0.0564163
0.000148447
0.000151108
0.00014986
0.000183211
0.000148794
0.000151851
0.000150035
0.000148047
0.000147566
0.000173859
0.000155354
0.0864371
0.000207218
0.000238934
0.000148415
0.0454635
0.000146112
0.000148406
0.000148426
0.000149044
0.000189012
0.000149661
0.00015573
0.000148197
0.000149709
0.000161272
0.0288901
0.000148425
0.00015177
0.000180205
0.00018319
0.0689088
0.0869839
0.000207173
0.000147834
0.000165215
0.000165214
0.000148761
0.000189357
0.000149873
0.00023117
0.000147575
0.0685879
0.000196447
0.0178305
0.000155411
0.000147778
0.000152193
0.0706694
0.000243319
0.000145072
0.0294356
0.000149582
0.00017255
0.000146621
0.0561882
0.0419455
0.000148873
0.00014817
0.000156975
0.000208281
0.000151175
0.000160967
0.039235
0.016338
0.000151273
0.0623792
0.000152675
0.000153074
0.000189913
0.000313136
0.000190174
0.000190062
0.0147308
0.000148276
0.00579529
0.017317
0.082271
0.0463579
0.000161133
0.0121964
0.0537971
0.0529069
0.000259596
0.0224615
0.014734
0.000190047
0.000144596
0.0343834
0.000164211
0.000151059
0.000170543
0.0327285
0.000178716
0.000147462
0.000158343
0.000201321
0.0361532
0.000155419
0.000165914
0.000146616
0.0119288
0.022116
0.000218718
0.000168096
0.000143732
0.00397942
0.000146056
0.000494772
0.000152295
0.000148844
0.0412414
0.000147028
0.000145943
0.00015205
0.000149297
0.000167794
0.0001526
0.0104276
0.0219598
0.0496651
0.000147292
0.000221558
0.000151955
0.000180938
0.000162458
0.000150909
0.000149241
0.0172995
0.0123145
0.000149216
0.000157423
0.000149127
0.000147894
0.000287279
0.0173612
0.000210701
0.000349819
0.0108363
0.00019256
0.000148054
0.000148116
0.000147181
0.000171212
0.00017716
0.0782306
0.000568218
0.00014608
0.0729722
0.000200235
0.000161497
0.0230914
0.00018026
0.000331433
0.000144021
0.0263063
0.000148479
0.000144584
0.000148264
0.000145679
0.0776929
0.000177863
0.0439465
0.000148282
0.000148055
0.0477244
0.00737826
0.000243634
0.000148815
0.0774052
0.0446121
0.000179746
0.000188662
0.017307
0.000152794
0.000152725
0.000158789
0.000148335
0.000151463
0.000160358
0.0475942
0.000149204
0.000147266
0.0183839
0.000166093
0.000158528
0.000152286
0.000188069
0.000249069
0.000147558
0.000181435
0.053452
0.000145947
0.000146535
0.000161926
0.000151719
0.000148141
0.000259212
0.0001926
0.0397548
0.00018851
0.00015276
0.00016022
0.000148615
0.000342124
0.000163087
0.000145745
0.000155428
0.000149852
0.000265542
0.000149256
0.0118151
0.000147828
0.000147806
0.000210854
0.000148664
0.000196169
0.00024929
0.0231079
0.000232264
0.0134703
0.000168049
0.0846918
0.000148162
0.000156675
0.0189595
0.000192813
0.000182152
0.000357785
0.000148891
0.000147275
0.000149801
0.0001693
0.000146548
0.00020022
0.000146238
0.0480799
0.000148657
0.0144135
0.0332353
0.081994
0.000261342
0.000165873
0.000149677
0.000167846
0.000282991
0.00014737
0.000148403
0.0164658
0.0148862
0.000222988
0.00039598
0.000145784
0.0169743
0.0339272
0.000152236
0.0543781
0.000148047
0.000144069
0.000151673
0.000163951
0.000151675
0.000160169
0.025815
0.000201349
0.000176493
0.0519443
0.000147025
0.000242737
0.000148095
0.000149838
0.0144498
0.0576193
0.000276811
0.000146135
0.000236964
0.000277846
0.000183914
0.0142957
0.000149776
0.000153328
0.000149165
0.000145552
0.000163142
0.000148148
0.000164013
0.000149086
0.0083133
0.00587142
0.0513313
0.000165403
0.000189642
0.00923395
0.000146337
0.000149473
0.00165589
0.000149266
0.000154307
0.00014594
0.0140752
0.0492501
0.000248951
0.000148384
0.0103698
0.0411625
0.000189584
0.00014569
0.000185924
0.00014705
0.000166721
0.0201197
0.0274441
0.000146128
0.000165709
0.000145977
0.000152113
0.000155178
0.000148252
0.000149128
0.000273891
0.00581893
0.000149152
0.000145934
0.0259555
0.00014763
0.000148122
0.000147956
0.000311873
0.027542
0.000168639
0.000153217
0.000149872
0.000222081
0.00014823
0.00814449
0.000167553
0.000571968
0.000148126
0.000147028
0.000149854
0.000181404
0.000147306
0.0302215
0.0147884
0.000145685
0.00015746
0.000146222
0.000161412
0.000262061
0.000169406
0.000173777
0.000182056
0.000151524
0.0244067
0.000224057
0.000144189
0.000147581
0.000160185
0.000152175
0.000148445
0.000160977
0.0187039
0.0155374
0.000147645
0.000145953
0.0175161
0.000201202
0.000160418
0.000146759
0.000154774
0.000303433
0.000251978
0.0261326
0.0454503
0.000149486
0.000183754
0.000149706
0.000167889
0.000165391
0.000160885
0.00880039
0.000162994
0.00761655
0.000169324
0.000252119
0.00014678
0.000146868
0.000151162
0.000144245
0.0214029
0.00021275
0.0211995
0.000149676
0.000177028
0.000178491
0.000148376
0.000199197
0.000152414
0.0217399
0.000147933
0.000219498
0.00238311
0.00015222
0.000206775
0.000148154
0.000236785
0.000170925
0.0212628
0.000151132
0.000161284
0.00014398
0.000156093
0.000157795
0.000145743
0.000230484
0.000147067
0.000149785
0.000354793
0.0153334
0.000149408
0.00022377
0.0114291
0.0535897
0.000170442
0.0226624
0.000148365
0.0149562
0.000200559
0.000154607
0.0322953
0.0626728
0.00344886
0.000217287
0.0139514
0.00014551
0.000147896
0.000146336
0.000180548
0.000155303
0.000148265
0.000186201
0.00016747
0.043248
0.000389198
0.000185045
0.000149145
0.000176218
0.0353901
0.0202104
0.000154583
0.0376084
0.000145664
0.000164889
0.0442443
0.000325359
0.000293071
0.00121966
0.00014867
0.0302457
0.000147919
0.0167921
0.00014843
0.000329087
0.0487124
0.000148267
0.000205359
0.000245082
0.000148759
0.00014889
0.000147342
0.000146252
0.0185827
0.082195
0.0157702
0.000149885
0.000147622
0.0465367
0.000165915
0.000147985
0.00014735
0.000147362
0.000148768
0.0758947
0.000165905
0.000235794
0.000168825
0.000164862
0.000148368
0.00016528
0.000147409
0.044656
0.000148083
0.0259049
0.000217093
0.000148366
0.00877939
0.000147684
0.000147668
0.00795751
0.000167399
0.000227659
0.000148904
0.000148327
0.000149566
0.000147956
0.000166166
0.000148113
0.045103
0.000158045
0.000146677
0.0775214
0.0371696
0.00018715
0.000203472
0.000146883
0.00033488
0.000166664
0.0109355
0.00016691
0.000148004
0.000151929
0.0227746
0.000162804
0.000459828
0.000211881
0.000148819
0.0539974
0.0316475
0.0307302
0.000148323
0.000149592
0.0763676
0.000147636
0.000158372
0.000148639
0.000148358
0.000148175
0.000475745
0.000157245
0.000146
0.0524475
0.0128244
0.000156503
0.000159951
0.000145793
0.000149709
0.0457407
0.000535051
0.000196967
0.000147331
0.0187588
0.0408856
0.000156217
0.000147384
0.00018307
0.00745694
0.000146318
0.00016672
0.000150949
0.070858
0.000148615
0.000148282
0.000162541
0.0726182
0.0762223
0.000190404
0.0550663
0.07871
0.0376694
0.0148157
0.000160192
0.000156182
0.000147069
0.0461219
0.000148345
0.000211375
0.0001636
0.000147899
0.000147424
0.000186695
0.000149847
0.0142608
0.000188705
0.00016283
0.000190985
0.0176984
0.0274562
0.000146317
0.00308852
0.000156864
0.000154564
0.000164594
0.000151857
0.0526448
0.0161991
0.000181279
0.00018243
0.000149541
0.000147311
0.000229
0.000187244
0.000165141
0.000161252
0.000147977
0.0442503
0.000147788
0.000147277
0.000155813
0.0447869
0.000225419
0.000180049
0.000247586
0.0160907
0.000148136
0.000197349
0.0166053
0.000147203
0.000157779
0.0354559
0.000149642
0.000147921
0.000155803
0.0536046
0.0821113
0.0172263
0.000180881
0.000147916
0.0461525
0.000148212
0.00018399
0.000148085
0.0460186
0.00108239
0.00014825
0.000181125
0.00014659
0.000156433
0.000163267
0.0128397
0.0532773
0.000148155
0.0229892
0.012261
0.000167216
0.000253438
0.0295384
0.000145792
0.000235099
0.000157803
0.000190901
0.0782056
0.000145767
0.000147895
0.000146663