/*--------------------------------*- C++ -*----------------------------------*\
| =========                 |                                                 |
| \\      /  F ield         | OpenFOAM: The Open Source CFD Toolbox           |
|  \\    /   O peration     | Version:  v2012                                 |
|   \\  /    A nd           | Website:  www.openfoam.com                      |
|    \\/     M anipulation  |                                                 |
\*---------------------------------------------------------------------------*/
FoamFile
{
    version     2.0;
    format      ascii;
    class       volScalarField;
    location    "200";
    object      omega;
}
// * * * * * * * * * * * * * * * * * * * * * * * * * * * * * * * * * * * * * //

dimensions      [0 0 -1 0 0 0 0];


internalField   nonuniform List<scalar> 
54593
(
0.0253205
0.0627627
0.025099
3.61319
9.54398
4.6185
10.6408
0.0951644
0.0572741
0.0251428
0.0292613
26.4308
3.77636
0.0250779
0.107937
0.0309103
0.0950563
0.0640371
0.0251435
0.0349316
0.025097
0.0311127
0.0251328
30.8705
0.0248256
0.185964
0.0253225
0.0458359
6.60157
0.025138
0.185829
0.31401
0.0252051
4.30207
0.0527501
0.0255731
0.061943
0.0627742
0.0258925
0.0311308
1.57438
2.6697
0.0250356
0.0253222
0.396649
0.0264199
0.100687
0.0835304
0.0247431
0.0589763
0.0252068
0.0247491
0.028018
0.409649
0.131384
0.0252705
35.7193
4.31026
0.119605
0.07727
0.0250399
0.0263824
0.0250774
4.0337
0.025321
0.0305101
5.3533
0.282074
5.29395
5.27468
0.0247442
0.0521896
0.0253169
6.09091
0.0265751
0.0315531
0.0378136
1.51196
4.42882
2.05933
0.0251117
3.57313
0.0253229
5.27415
0.0270424
6.08716
9.38866
0.0901777
0.129618
0.0253429
30.3451
0.0347944
0.155518
0.271888
0.0412082
5.52198
4.49835
0.249804
0.0254026
0.0591725
0.0256118
4.12383
0.0259927
0.0253324
0.295062
0.0526881
0.0591582
0.0877732
0.0313155
0.0929318
28.9402
0.0253218
0.0253453
0.191825
0.0252574
14.3147
5.10115
4.32552
4.18403
0.150219
4.08973
0.025636
6.16786
0.0398277
0.0251258
0.730367
0.0261287
0.025127
8.37644
5.83271
0.025297
0.0254862
0.0323106
0.0255658
0.0349398
7.52492
0.0248771
4.19724
0.0253318
0.0254005
10.2599
0.0894296
0.031916
3.48838
0.0412074
0.276275
5.71407
0.0611192
5.41142
0.0256048
0.0851004
0.0255712
0.147505
0.266741
0.0252551
12.404
0.029188
12.4257
0.108402
0.0254009
0.809044
0.0280719
9.66336
5.60992
0.0451226
0.0254317
0.0250504
0.0250455
3.73705
0.0256811
0.205864
7.56066
0.135865
0.025641
0.0568588
0.0251913
24.9743
0.0274217
0.0264108
1.38958
4.33236
0.024637
6.61117
0.025644
0.0256408
38.2855
0.0254887
0.0277856
0.0250849
1.50694
0.0264163
3.9943
27.9787
0.0253124
12.8271
5.60525
0.0253047
0.0287658
0.191906
8.536
0.0360175
0.71591
0.0823358
0.0259473
0.0258842
0.025872
5.81213
0.0269129
0.0258949
0.025095
0.025404
0.0250822
0.0246355
0.0318508
0.0409155
0.201376
31.4499
3.96244
65.1054
0.0253048
0.0309141
33.1078
3.3278
0.02646
0.29822
0.0410676
0.025667
0.0641262
0.0251185
0.103839
0.0260797
0.18846
38.8773
0.0256351
0.0255417
4.43863
0.204467
0.0255638
0.297692
0.0255595
0.0264558
0.032172
5.34894
0.178338
0.0262835
0.027048
4.08129
0.338227
0.0250191
0.918596
0.176205
3.95293
4.98639
0.0252515
0.0264884
0.025207
12.6849
0.0265337
0.246812
0.0310977
0.0717928
4.12448
0.0255017
7.58762
0.0407482
0.0249841
12.8736
0.0250219
0.0309529
0.0254298
5.86995
3.42044
0.0331467
0.0253192
0.0270273
0.0252521
0.02647
5.24503
0.0250093
0.0986668
0.0254921
0.0345981
0.028719
10.4613
4.0764
1.08256
0.0312225
0.0257336
0.0413289
37.4724
3.95981
3.5731
0.0252567
0.0254108
0.0704857
0.0256618
31.0647
3.35213
0.0252573
0.196111
0.356461
0.0260582
0.0254074
0.0256757
0.0252696
0.0253276
0.0574942
10.8113
0.025577
0.0253004
4.96973
0.0571695
10.9389
0.025527
1.33313
9.89613
0.326894
1.27544
0.233858
0.0255484
0.0782471
0.0250201
0.325707
0.045135
4.47091
0.0604877
0.241516
0.0249773
4.20731
0.0406963
0.0254382
0.0340487
0.0253291
0.0281433
0.025683
5.92182
0.0288845
8.49711
0.332182
0.0304975
0.057034
0.0282291
3.92342
0.026581
0.0253291
0.156899
0.0588954
0.189895
0.196028
13.0159
42.3209
0.0254139
0.311797
0.160891
0.0253395
0.0250454
0.0354466
0.0254139
0.0253491
0.0253106
0.193242
0.0310396
0.0267204
8.96956
0.139188
0.0254907
0.0254139
4.9905
0.0382635
0.0253092
0.0274624
0.0252713
0.0250199
0.0255618
0.0286674
10.5826
0.0250692
5.34169
0.0330047
6.14847
5.87268
0.0444677
0.248798
0.33755
0.0811079
6.29259
35.8653
0.0253287
5.32178
0.252863
0.194898
0.119557
0.0287265
0.0250491
9.84399
11.0825
5.29397
0.0574367
0.153245
0.0653023
0.0273125
0.0864986
4.31842
0.241803
0.30914
0.588107
0.0249376
0.307029
0.0252316
0.259951
0.308943
0.025079
0.0254055
0.105001
0.0253093
6.27895
0.0430717
0.0253392
0.0253973
0.0446063
0.0717849
8.79396
0.060798
0.0983492
8.718
13.4532
4.41894
0.0500207
39.2779
0.0447351
5.14014
0.0519607
1.24897
0.0570566
0.064945
0.0332109
0.02532
4.431
0.13325
0.147312
11.9564
0.025641
0.0251185
0.0254268
11.8025
0.0689413
0.0252815
0.0254066
0.143232
15.668
1.27548
0.34761
0.146477
0.0700165
3.63471
5.46231
0.0492718
0.0254419
0.0265066
0.161302
0.0252842
0.0250109
3.49372
0.0254412
0.0250073
0.0939548
0.192488
0.0254514
0.0445356
2.30499
10.5273
22.723
0.0386182
0.0248752
11.1502
0.0255598
0.025675
3.91818
10.7232
0.0254538
0.0578521
0.0253381
0.238053
0.0621351
0.0253407
2.7798
0.319758
1.2533
0.0248221
31.9635
4.8192
0.025641
0.0252705
0.0301863
52.8193
0.0255475
0.0666473
0.0270886
0.300549
0.0253311
0.713988
9.59861
0.300645
0.274064
0.025129
0.0566698
0.0254018
0.0708006
0.0519911
0.0251533
0.0253535
0.255502
8.97737
0.0254057
0.0351647
3.6655
2.99106
0.0252313
22.4384
0.0253062
0.0932045
0.0293997
0.0255381
0.0254908
0.0253014
0.0650421
9.79488
4.59046
7.48694
0.0247476
4.0474
0.0272984
0.0886746
0.0252565
0.0251178
0.0251308
5.54596
0.0253397
0.0355831
0.0593832
0.0251654
0.0263494
3.76209
6.55926
0.0258878
8.38173
11.2268
0.0251492
10.5001
0.0250029
13.0854
0.035143
0.185485
34.9411
0.178018
0.130742
1.41854
48.0544
0.332968
3.41587
0.0254334
0.0256349
0.0993793
0.0443773
9.39862
0.025523
5.09987
0.0254683
0.0274629
0.116252
0.0252314
0.0337881
0.255019
0.028106
2.12912
3.68152
1.14333
2.37435
4.69267
5.06281
0.0251717
0.0250319
0.0315345
0.0251289
0.0269117
0.0253271
0.138352
0.0266896
0.275768
0.0325838
0.0332334
8.02016
0.050131
0.0626427
0.0256587
3.98497
3.93536
0.0251403
0.0256481
1.49364
8.18944
0.028471
0.025404
4.98103
4.7165
1.10453
10.9897
0.0271764
0.0308608
0.0526456
0.23801
0.0253531
0.0256532
0.0510431
0.0995091
0.0351012
0.0267466
0.308065
4.31279
0.0256404
0.0250272
12.3459
0.132071
0.0911511
4.25055
5.14314
0.23833
5.27101
5.20858
0.0978091
0.487335
0.0253085
0.0254168
0.0824165
0.0251404
0.0729394
0.128343
10.0771
0.026647
5.2689
0.196735
0.0251877
0.197896
0.0250586
0.0262524
6.66362
0.373484
5.0177
0.0409095
4.33746
0.0251761
0.14651
5.24747
5.21822
0.0253444
0.0246465
4.13249
0.0387665
0.0255515
0.0253836
0.0254075
0.0251453
43.1556
0.0907943
0.025072
0.0250808
39.2948
0.134491
0.0254141
0.0250381
0.0252591
0.0431977
0.0350852
0.0273114
0.126803
11.8787
5.42227
0.026409
0.0253437
0.0253091
0.028713
0.0438734
0.0256357
4.17354
5.58557
0.0276513
0.0254077
0.0251549
0.321346
32.8261
0.024827
0.0253864
4.1838
0.0260505
0.0291956
0.382824
0.0250723
0.33281
6.34135
0.0758997
0.0254045
0.0269942
4.46746
0.074292
0.0253537
4.09158
0.0252714
4.33667
0.0599731
0.0299463
0.0256639
0.0248549
6.94524
0.025348
0.0650313
4.84257
0.0436149
0.025168
0.0541499
19.0215
0.034311
10.5239
0.0391729
5.75291
10.7706
9.01177
0.025346
0.974982
0.0268486
0.0254086
0.0250813
0.0250548
41.2935
7.40137
5.2837
0.0690353
0.752143
0.0252607
0.0289266
0.0253943
0.0252961
4.04625
4.41331
0.556648
0.0256741
4.09196
0.0708353
5.36394
0.288812
10.0868
0.28905
0.216165
11.0698
15.9699
0.332328
7.22309
0.0253129
4.25846
8.15215
0.141902
4.48496
4.5802
9.22218
0.0587056
4.60863
0.0378028
0.171121
8.68773
0.027989
0.025409
0.0254079
0.0253961
9.12602
0.195567
0.0307192
0.0248684
0.0250592
0.0253675
2.94606
0.0251247
7.17042
0.136124
10.137
0.0251578
0.30091
4.53108
0.0252121
8.48202
5.8976
4.28463
9.04478
0.025648
0.0340005
0.125154
0.0255035
0.0514135
4.39183
0.0262696
9.75374
4.41916
0.249468
0.025262
0.0250659
34.5604
0.0504172
1.44033
0.0273398
0.149215
0.0732129
0.0769263
5.16375
3.40298
0.0414315
0.171942
0.0254071
0.0256527
0.0254038
0.173221
9.04126
5.48102
0.0435465
0.0606886
15.2317
0.131824
0.0356762
0.0272174
0.508815
0.0250216
0.0259426
0.025518
6.07714
0.0264428
0.0252576
0.0254052
0.0250165
0.125322
0.0254773
0.025384
0.0254109
8.13774
0.0251352
0.0253811
4.18072
0.0251451
0.0297556
10.7076
4.29511
0.0250608
0.936858
5.19298
5.3202
0.0251148
4.24971
0.0250242
0.378794
0.0248141
2.29312
2.31676
0.254401
0.0252602
44.3056
0.0289417
0.0251014
0.0250306
0.0330121
10.9857
0.0277511
0.0253708
6.21335
0.0260737
0.0332851
1.05103
0.025103
0.0252943
0.961844
10.2728
0.0245915
0.0253653
4.96304
9.52387
0.154191
0.0245917
15.4438
5.37965
13.6952
0.0250682
0.102624
0.025222
0.0246427
0.0313361
0.0950907
4.02739
0.0246411
0.0264644
0.0254386
0.024846
6.35366
14.9697
0.708605
0.0631349
1.18751
0.025148
4.11751
68.9709
12.7685
0.0282799
9.08985
0.0253972
0.0252538
0.031198
0.0257427
0.0411598
0.0252411
12.5169
3.91422
4.01888
0.11443
0.0268851
0.197158
0.428976
0.200301
0.0248609
10.1816
4.92446
0.0253097
0.801412
0.0253669
0.0318742
4.55596
0.146626
0.0256405
10.8419
0.0254421
9.1047
0.200079
0.186026
0.102639
0.0356643
0.0993135
0.111506
0.024824
0.184609
0.0565539
0.466829
0.047919
4.43054
4.03378
0.0253594
0.0252842
0.0251354
0.0252574
0.06347
0.0254333
0.0248365
4.36442
0.338993
0.063774
10.0193
0.0298087
22.7158
0.0251434
0.0253851
0.234172
0.0251415
0.042616
0.108973
0.175278
0.172293
8.96045
0.0627413
0.667903
2.25874
0.110569
4.28519
0.0260257
28.2836
0.100589
0.0278977
0.16984
0.118688
1.05682
10.4954
5.88247
0.0256352
0.0299521
11.26
0.0251416
0.0353802
0.0644543
0.179274
4.64366
0.0252543
0.174311
4.75918
0.0252483
0.0253509
0.0245987
5.18193
0.0781484
0.0264321
6.79999
8.18313
0.0251308
5.34992
4.41832
0.271564
0.823145
0.168223
0.0652257
0.0907876
9.40757
0.0654972
0.0251034
12.272
0.025442
0.0252509
0.0251385
6.69805
0.0255687
0.122997
0.0262641
7.11638
0.135901
0.0252907
0.0279703
5.29957
0.0250125
0.0255112
0.0252288
0.0588558
0.0252473
12.7817
0.0348631
0.0254379
0.172111
0.121274
9.87419
0.0259073
0.18918
3.99037
4.60778
0.025164
0.0307061
0.025068
0.0251747
0.162075
0.0315441
0.025127
0.0264632
0.054118
0.0252943
4.08504
0.028732
0.0629047
0.0253363
0.0251835
0.0280055
0.0251882
0.0318969
0.23198
0.0256738
0.0253614
0.0253438
9.82596
0.0481451
4.38306
0.0277233
4.07183
9.45642
0.241666
0.0413226
0.0606465
0.0254383
6.49874
9.3809
3.91241
4.31948
0.0861661
0.13743
0.141346
0.294789
0.0728445
0.0263194
0.0251995
0.0641051
7.96472
0.120055
0.0521341
0.0254036
0.0643835
0.0252403
4.10843
0.0248711
0.187927
0.0272051
0.732859
0.0253012
0.687059
0.0339579
0.224391
0.0253551
0.0272141
1.58821
5.03296
0.0459622
0.046573
0.0253183
0.0253933
8.47311
11.9342
5.69411
0.0258707
0.183405
0.0321653
0.0431804
0.0253575
0.195177
0.0254344
0.025214
0.0267417
0.0254383
4.23476
0.0254337
0.0251717
0.0256594
0.0266431
0.0256744
0.032137
4.53728
0.0301485
8.56559
16.2437
0.0251796
0.0595458
0.0251425
0.0266051
0.0251496
1.09306
1.84642
0.0253775
0.0252336
0.036004
4.53248
1.58984
0.0253646
0.0250083
0.0468384
0.0252214
13.124
24.7996
0.0254377
0.0353095
0.189367
0.23424
0.0255261
0.413217
3.90452
0.0254381
8.71728
0.0255613
4.03477
13.6581
0.0249952
0.061335
4.45996
5.7889
0.0250581
0.174355
0.0253123
0.0250396
5.25537
0.0275695
0.0277719
0.0254066
9.26424
0.191075
0.0417047
0.244599
0.0333639
0.0260353
0.0980224
5.80909
0.0252907
4.09748
7.85584
0.0334053
0.0259738
0.0271306
0.0252472
0.0748109
0.0252128
0.0256353
0.0722112
4.19979
0.043294
0.0256801
0.0685352
5.46626
0.0245993
8.30192
0.0264001
0.321177
0.0872198
10.4666
0.0255342
4.56996
0.0250393
0.0245984
0.0253363
0.0339023
0.0253
3.50899
0.0254418
0.0252436
6.85431
0.025354
0.0251658
8.94757
0.0255683
0.0250008
0.0252971
2.18559
4.35371
15.5144
9.77293
1.36683
4.37463
0.0252822
0.0276784
4.01595
0.0835129
0.727825
15.9347
0.0310095
0.32635
4.09825
0.0252558
4.97237
1.60639
0.0249844
0.0307961
0.025573
0.0253808
0.0257828
0.327304
3.99791
11.1135
0.136415
0.0252943
0.116124
0.0465586
0.025245
5.89216
0.0250089
0.0251417
0.221604
0.0252167
0.0627114
0.0246478
0.06306
8.83017
0.120304
0.0356163
0.038129
4.00544
6.24384
0.066838
0.394704
0.0414832
0.0335697
11.8032
0.063987
0.0252355
0.637266
8.22313
0.0246071
0.0267218
0.0699079
0.163427
0.0966661
0.0925222
0.025352
1.27011
0.096594
0.0253953
0.027193
0.0258525
0.025121
0.0253973
0.154925
6.7664
0.0266047
2.09445
0.028502
0.0250691
4.09098
0.0513404
6.37469
0.134864
11.4071
0.0781604
4.95793
10.057
0.0262301
0.0468054
3.88908
3.96309
0.501893
0.0734507
15.7493
0.374167
3.4857
0.0253386
4.05866
0.0252984
0.0252995
0.0650284
0.123378
0.0250524
0.114155
0.508556
0.0271849
0.0253915
10.3019
0.0252789
6.97574
0.0395423
0.0255439
5.15419
0.0343097
0.050574
5.22241
5.02958
0.0642773
5.41007
0.67007
0.0252951
0.0256599
9.18424
0.0587829
5.81471
0.0250164
0.0356969
0.0251247
0.0251372
10.3777
0.065285
0.0253384
9.55786
0.0250255
0.0834663
0.0347158
3.93398
4.07168
0.0254276
0.0344642
0.0265116
0.0252332
6.43435
0.0253109
0.0699598
9.86736
0.025222
0.0249762
6.05473
12.4702
0.0262293
0.041482
0.0253123
0.0254436
0.0254773
9.59464
0.0335418
1.15996
0.0581233
0.930116
0.0324087
0.0250135
0.0961357
0.0954305
0.0256406
9.84422
2.25954
29.1169
0.027219
0.0253694
10.6019
3.77121
9.13551
0.0256635
0.0253531
42.3583
0.025667
4.22403
0.0251961
0.0254254
0.0309126
0.0250712
0.0252276
0.0255388
0.0266451
4.83425
0.0253363
0.0332941
0.124369
0.0926937
0.0254048
0.0255535
6.40735
0.0818415
5.2755
0.0298253
5.18071
0.0251152
0.0253555
0.0340405
4.35038
3.86151
0.0360056
3.49625
0.120159
0.0571537
0.0288558
0.0407129
0.0254811
0.233627
0.0725964
5.50415
0.0511543
0.041126
33.252
0.0862012
0.0254528
0.0507538
0.42525
0.0255614
0.253973
1.22557
0.0252328
0.0644836
14.7056
0.0250966
0.0253105
0.0253324
0.0252113
4.65784
0.14509
0.126048
0.0873755
0.0250175
0.371462
0.0249915
0.0262419
0.0251889
0.0498444
0.547306
10.733
0.130353
0.0250917
0.0808305
0.0924326
0.025387
27.1999
0.025566
8.90257
0.0260218
15.289
0.680949
0.0607042
0.0514559
0.0254762
0.0256259
0.0322577
0.0387881
0.11984
0.283702
0.0252243
5.07568
4.13996
1.07273
0.0413168
0.0318274
14.5413
0.0253874
9.39336
0.0251974
0.0253347
0.0540619
0.0256354
13.1421
0.0253422
9.02461
0.0250509
0.0253373
0.0248874
0.0259534
0.236204
0.0251177
0.0883498
0.0265735
20.2429
0.0253535
0.352441
0.0303985
0.0608472
0.0392359
0.0256948
2.22157
0.0481986
0.0256625
0.102605
0.0315463
0.0863769
0.0377996
7.8502
0.0452275
5.91893
0.0303151
0.025555
0.0308513
0.0285197
0.0476552
4.10373
0.035061
0.025641
0.0256356
0.0252972
0.149354
8.0495
0.0256408
6.37403
0.09175
5.19994
5.03297
11.0554
0.0253472
0.0405804
4.23488
0.0502266
4.30661
12.2944
0.084947
0.025561
0.0423696
0.0256795
0.0253344
0.0494111
0.025286
5.27802
3.97794
0.126114
0.0253818
0.51326
0.0256784
5.85946
10.3659
6.0774
0.0342301
0.025308
9.70165
0.0637946
5.70271
0.0903326
13.5042
8.62192
9.64488
0.0254798
0.025228
1.55773
0.0277424
0.0253418
10.4005
0.0257405
0.0909058
0.0250424
4.1218
0.0252419
0.0252428
0.0489637
0.0252435
11.379
0.0357472
5.78917
0.0252977
0.025367
0.0252837
0.0342592
0.163942
0.0253824
0.0252231
0.0251547
0.211971
0.21883
0.031011
0.0252494
0.0349207
0.0634379
0.514108
0.124264
0.0253693
0.0252059
0.0269935
0.0252222
0.0278616
0.0253061
0.0750572
0.640571
0.0500247
0.099763
4.27665
0.0253747
1.293
11.0131
0.025361
0.0256826
0.0251983
0.0253389
9.43301
0.0650465
11.0572
1.10569
0.0648856
0.161197
0.0654241
0.0646599
0.040671
0.0254804
0.0250524
0.0283866
0.0407499
0.0253409
11.3837
4.31948
3.78532
0.0311155
0.0261018
0.0350539
29.138
4.89935
0.0256811
0.0250163
4.10141
0.0282073
10.2915
4.43042
10.4769
3.77706
4.06492
0.0250426
4.88867
4.13735
13.3901
0.0253184
0.0263835
0.207246
2.33749
0.152838
9.44624
0.0478494
0.0879973
0.0246391
0.0251361
6.70401
0.0324167
0.0262108
6.48883
0.036003
2.35855
0.158982
0.0253589
0.0251089
0.0276665
0.319673
10.6411
5.81208
5.46306
0.0251852
0.0311712
0.134013
0.0279742
0.0270522
0.0256949
9.43506
0.114505
0.0247215
5.19945
0.0253344
0.0336768
0.0253556
0.175728
0.695996
4.11914
0.0253295
0.0905151
2.48928
0.0486199
0.0255656
0.0472401
0.0253051
0.0250051
0.027657
0.0265816
5.6473
0.0411922
0.0259348
8.25754
0.0253841
5.0771
0.0247262
0.0254739
0.154268
0.0316868
0.028422
0.310935
0.0253165
9.0133
0.024999
0.903354
0.181119
5.29379
11.9548
0.0259285
0.0361077
0.0248592
0.0403253
0.840034
0.026985
0.0253604
0.0409471
9.9938
32.0092
4.05269
0.0254772
0.116019
6.1805
0.025566
0.153808
10.6176
2.07998
0.0476733
0.0292286
0.0412209
0.0255121
0.0276509
13.8693
0.0250116
0.0251107
0.0253326
0.0581136
4.17702
0.12457
0.0257311
0.0776375
0.0250292
0.0252163
0.0284991
0.0679795
0.0253237
8.58325
0.311816
0.0680641
0.0253204
5.60713
0.0267397
0.0251094
0.0254586
0.0295318
0.147468
12.8112
0.0770296
0.0906111
0.0265027
0.0254781
4.00915
0.0602432
0.0950578
6.34764
0.359882
4.28371
0.0677886
0.0271355
0.0414079
0.0486799
0.0319115
10.4623
0.0251583
0.0251995
4.86801
4.19799
9.88721
0.0254811
3.45479
0.0256749
0.0265015
0.0987191
9.49253
0.0267156
3.67541
0.028988
0.156016
0.0330416
0.0277556
0.0814825
0.025336
0.0253411
0.10294
0.318581
0.0329502
0.394644
11.5981
0.525955
0.0299097
0.0253191
20.4673
0.0251129
4.4081
0.0264215
0.0307731
18.2587
0.0441832
0.128079
5.49225
1.58779
0.0269598
0.0250105
10.5536
0.0370421
4.38687
4.08012
4.18886
7.98357
0.7106
0.324489
0.0254507
0.0321671
4.61374
0.0684883
0.0264474
0.0248803
17.1058
0.028449
0.0278878
0.719128
0.0293886
0.024964
8.41369
0.0625676
0.0277745
3.9916
0.179014
0.0253109
0.0261798
0.0335786
0.0272491
12.974
8.54817
29.2963
0.0251125
0.0253759
0.21116
0.239219
0.0382095
0.122327
0.0417445
1.37557
0.0254002
0.288236
0.0249988
0.0924434
0.0256803
4.41236
0.155958
8.96388
0.127995
3.63162
2.48184
0.227999
0.0256364
4.34893
0.09734
0.0254679
9.10612
2.30658
0.0253304
0.0467552
0.0256409
0.0264807
4.24224
0.0253385
0.246741
0.0253037
0.0365452
0.063838
6.15104
0.0246385
1.34181
0.113435
6.22876
0.0254489
0.0265196
0.0256778
0.103354
0.0255064
0.0270601
0.0255191
0.0253417
0.0252779
0.0473429
0.0304181
9.5474
0.219338
0.285061
0.025246
4.16003
0.0249702
0.0254395
0.025443
0.0255465
0.0946626
0.0255784
0.0298722
0.0253975
0.0256541
0.0321635
4.3861
0.0254429
0.0269926
0.225073
0.103603
8.50246
9.50324
0.195722
0.025355
0.0363787
0.0612559
0.0255024
0.357064
0.0256797
0.312053
0.0252803
4.8375
0.161952
12.4248
0.0294707
0.025329
0.0263994
5.99983
0.321207
0.0247469
4.05099
0.0257177
0.125824
0.0249825
5.58883
4.29034
0.0254602
0.0252265
0.0333595
0.194082
0.02588
0.0358475
4.34296
11.253
0.0263571
5.53808
0.0277464
0.0267893
0.0833786
1.64966
0.0964267
0.291699
9.8455
0.0250669
7.82853
11.2653
5.49714
6.94197
0.0359711
17.1553
4.0114
3.93507
0.478024
5.94691
10.2471
0.379492
0.0248079
4.25276
0.0501128
0.026506
0.0925603
4.89484
0.0618934
0.0252682
0.0360903
0.129985
12.9665
0.0294256
0.0403741
0.0249847
13.7538
4.16828
0.305037
0.0414269
0.0246315
8.41688
0.0248163
2.39703
0.0263032
0.0254539
4.32968
0.0249557
0.0248818
0.0272356
0.0252658
0.0507671
0.02629
9.22199
8.65577
3.87017
0.0251648
0.207196
0.0268848
0.0594596
0.0348575
0.0264061
0.0255784
12.3623
17.4723
0.025276
0.0307491
0.0255614
0.0253616
1.94325
12.6971
0.218735
1.1573
15.3489
0.15547
0.0253424
0.0253377
0.0250017
0.0993803
0.0515633
5.83513
4.13479
0.024969
9.94311
0.125837
0.0450699
8.12604
0.158402
1.23121
0.024692
4.95729
0.0254541
0.0248068
0.0253166
0.0249904
11.9373
0.0599803
4.20556
0.0253208
0.0253409
3.86555
12.9909
0.384152
0.0255098
5.0014
4.2448
0.1598
0.0790794
12.7723
0.0278687
0.026357
0.0306726
0.0253326
0.0265874
0.0403537
4.13742
0.0255811
0.0252085
3.98469
0.0405219
0.029809
0.0264473
0.161305
1.22319
0.025295
0.0975077
6.30629
0.0248789
0.0251351
0.0471028
0.0268266
0.0251578
0.485496
0.220687
4.14506
0.167952
0.0278026
0.0410858
0.0253753
1.34291
0.0486785
0.0250047
0.0306119
0.0253606
0.825201
0.0253899
10.7426
0.0253495
0.0250804
0.214461
0.0253863
0.102207
1.53525
4.6041
1.0161
14.6288
0.0478443
6.58663
0.0254037
0.0326972
4.11461
0.159721
0.0667731
2.49753
0.025476
0.02521
0.0257899
0.0584924
0.0251376
0.154799
0.0250638
3.94967
0.0254141
14.2134
4.15057
5.45715
0.435145
0.0678708
0.0256491
0.0816087
0.701996
0.025181
0.025439
13.8759
11.4961
0.329573
1.8978
0.0249966
11.4988
4.40755
0.0261448
3.98819
0.02534
0.0246978
0.0255384
0.0347384
0.0267263
0.0329758
4.22739
0.15599
0.0503995
4.48658
0.0251933
1.09447
0.0251594
0.0256741
10.0603
5.27091
0.664531
0.0250355
0.274993
0.74937
0.169977
12.2577
0.0256642
0.0283773
0.0255509
0.0248823
0.0405789
0.0254019
0.0571533
0.0255533
33.565
28.6459
4.26949
0.0369747
0.0834846
23.6319
0.025074
0.0256821
21.6842
0.0255823
0.0282084
0.0248959
8.93169
5.95722
1.23448
0.0254376
6.8702
4.12326
0.0834402
0.0249928
0.14457
0.0250932
0.0729808
11.4956
4.86366
0.0250332
0.0397615
0.0250024
0.0262247
0.0258975
0.0254169
0.0255601
0.649282
42.0781
0.0255639
0.0248061
6.94548
0.0253016
0.0253979
0.0253529
1.94989
6.80073
0.0416958
0.0282694
0.0256795
0.777022
0.0253325
7.80117
0.04999
3.96265
0.0252602
0.0251948
0.0256857
0.138042
0.0249995
5.74215
12.1502
0.0249946
0.0339478
0.0250238
0.0447724
1.39116
0.0402821
0.140326
0.251746
0.0259925
7.78997
0.337638
0.0247082
0.0252879
0.0413379
0.0273145
0.0253598
0.0359867
9.89819
3.71478
0.0252059
0.0249996
11.2001
0.129969
0.0395852
0.0251563
0.0284684
2.2355
1.25075
6.97937
4.12152
0.0256047
0.276197
0.0256536
0.0593595
0.0355604
0.0312832
31.7258
0.0402469
29.1438
0.0605691
0.359477
0.0251578
0.0251881
0.026554
0.0247232
4.06492
0.224303
4.36087
0.0256488
0.0511232
0.0617286
0.0250858
0.144433
0.0262139
8.56967
0.0253482
0.241878
3.01051
0.0267409
0.154486
0.0252375
0.309246
0.108859
5.7039
0.0261578
0.032578
0.024685
0.0317967
0.0307269
0.025004
0.292644
0.0252018
0.0256656
2.4588
4.41378
0.0256053
0.216887
9.9139
4.71873
0.0493515
9.49867
0.0253463
12.8951
0.160433
0.0279985
3.47777
13.6617
8.56092
0.822921
10.0236
0.0248773
0.0252243
0.0250723
0.0667562
0.0295117
0.0254185
0.184667
0.0489281
4.30603
1.70614
0.156354
0.025565
0.050283
4.35523
10.487
0.0283035
4.21639
0.0249902
0.0603448
4.65994
2.50241
0.948568
1.84559
0.0254857
5.74267
0.0253453
14.9807
0.0253559
2.55128
4.10949
0.0254211
0.148921
0.375658
0.0254995
0.0254754
0.0251664
0.0250895
4.1082
6.21322
9.35826
0.0253201
0.025266
5.55176
0.040109
0.0252561
0.0251771
0.0252742
0.0255032
5.21523
0.065163
0.408654
0.0395048
0.0601594
0.0253396
0.0355087
0.0251837
3.97044
0.0253706
6.88705
0.230719
0.0254355
12.6632
0.0253227
0.0252096
31.8331
0.0781329
0.424402
0.0254807
0.0253399
0.0254505
0.0252471
0.0455635
0.0253966
3.94353
0.0350076
0.0251366
4.99768
12.9188
0.32264
0.623632
0.0250688
2.32981
0.0459924
9.76749
0.0741836
0.0252602
0.027093
9.6082
0.0472557
4.03813
0.248266
0.0255114
4.10047
3.50186
5.18945
0.0253457
0.0255917
5.86542
0.0253044
0.0317927
0.0254806
0.0254334
0.0254005
1.13177
0.0338532
0.0250385
3.97157
9.07682
0.031817
0.0397819
0.0249994
0.0256541
4.17127
10.124
0.120444
0.0249992
12.2703
4.45191
0.0313486
0.0252776
0.232181
3.44958
0.0250758
0.0549722
0.0264359
5.36834
0.0254766
0.0253427
0.0497806
5.55861
6.02135
0.100791
4.0611
5.12919
11.3076
9.65617
0.0380018
0.0309813
0.0252026
8.14662
0.0254319
0.200016
0.0379829
0.0253153
0.0252749
0.0925535
0.0256756
14.1612
0.153496
0.0349082
0.118206
11.8027
7.16705
0.0250966
6.63858
0.0331597
0.0279947
0.0395604
0.0270575
6.60563
15.236
0.0690515
0.0651123
0.0256694
0.0251744
0.376155
0.0876309
0.0367312
0.0418281
0.0252668
4.0011
0.0252706
0.0250106
0.0310511
3.99315
0.243185
0.061379
0.404844
10.4988
0.0254006
0.169315
9.78086
0.0252014
0.0307376
5.02727
0.0256001
0.0253169
0.0283885
3.96037
6.78968
9.2393
0.0589902
0.0252586
4.19688
0.0252478
0.0669311
0.0253691
4.18835
2.09026
0.0254087
0.0681289
0.025145
0.0286409
0.0504392
10.5014
4.58682
0.025397
9.15259
10.051
0.0656364
0.458003
4.597
0.0249832
1.05455
0.0343229
0.141734
8.2781
0.0249799
0.0253218
0.0251095
0.0260427
0.0282462
0.0254744
0.0399948
6.2574
0.119761
0.0251872
0.025393
0.0253094
0.0261096
0.233941
0.0255651
6.43754
3.75653
0.0255235
4.35302
0.0306075
25.8227
0.173628
4.57244
0.0716432
0.0251171
0.0306545
0.0251716
0.0253289
5.16025
0.025499
0.0499469
0.0353464
0.191488
0.233412
0.389633
0.0322798
0.0249285
5.52359
4.57663
0.0253072
0.334512
0.025316
0.025302
0.0253976
0.0252644
0.0253725
0.0298508
0.0252698
5.00479
0.0254043
9.73658
0.146946
0.0254087
0.524619
0.0254407
0.0332462
0.0656495
5.35744
12.0778
0.0612357
0.0461863
0.503173
0.0843637
0.179372
3.95863
0.0251071
0.025461
0.025063
0.514928
0.0304072
10.7473
0.0321611
0.0553379
0.0250904
0.0313308
0.0270291
0.025314
0.0287231
0.0285242
0.0353688
2.61409
0.0253745
0.0253379
0.0262355
4.93002
0.0250884
0.0260008
0.0357577
4.19578
4.25936
0.261988
0.0888789
0.798715
0.0247535
0.0249722
0.0928323
0.196933
0.0254964
13.5933
0.025432
0.491752
0.0254385
3.79764
4.06186
0.0250185
0.0249297
5.02936
0.0253565
0.0253476
0.0315733
14.5264
0.0453505
1.06668
0.0930215
0.0254416
0.0912606
0.0726732
0.0387055
4.15101
0.142276
0.0348632
0.167854
0.0254451
0.0252197
0.0256595
0.032169
22.0803
0.024937
0.0246846
0.0661678
0.0488986
9.4739
9.10978
0.120158
0.030674
0.0488485
0.0249173
6.40936
0.0255656
4.9785
0.0603382
0.0248646
0.0256364
6.66091
0.0994296
0.0251039
0.0252825
0.0260949
0.229331
0.102037
0.0251028
0.0247572
0.02467
0.0611439
5.17535
10.7969
0.0251453
0.0255779
5.03712
0.0248238
0.196259
9.9147
0.103033
0.0737107
0.0346939
0.0255773
0.0545973
4.11104
0.0255172
1.12899
0.0794144
0.0275116
0.0254648
0.0500594
0.0259994
0.0567906
4.19202
0.0433501
0.0598286
0.0254063
0.0251113
6.63669
0.10536
12.9444
0.0249697
5.73834
0.0251062
0.0348728
0.0257154
0.0254189
0.0254761
0.0255164
12.5997
0.0249698
0.148955
0.0342104
0.0260257
0.0413055
0.025188
3.84788
0.206017
0.02552
4.34112
0.0255968
13.0904
0.0343598
0.230707
0.710503
0.0255209
16.1968
0.0300162
0.0246791
5.94852
0.0251969
4.30741
0.0249707
0.0253359
0.090189
0.0253334
0.0601562
1.68556
0.270037
0.0254031
7.5814
0.306983
6.97529
0.0251902
9.27419
14.1871
0.0254529
0.0603509
0.0253577
0.340026
0.057845
3.99442
1.53742
0.122102
0.0247618
0.0256793
0.0383548
10.3833
4.25664
1.07379
0.0253402
4.12985
0.0256186
0.0253661
0.0252999
0.151203
0.0254334
0.0254347
5.30669
0.18711
0.0353411
0.254837
0.0254798
11.4496
0.0250444
0.0354149
0.0768108
0.0248927
11.1753
5.47552
1.26748
0.604806
5.47394
0.0250897
0.0252398
0.0247169
0.0849275
0.655949
0.0252616
0.0498576
5.51657
1.18694
0.467515
0.0392546
0.0406813
0.0294087
8.88002
0.0255612
0.0253083
0.0246707
0.0657855
6.78681
3.9174
26.3406
0.0337653
5.38563
0.025337
0.0255545
0.0253548
0.0934481
0.0479946
0.18713
0.097087
0.0340548
0.0253394
0.0413111
0.0332651
0.0427615
12.1846
0.0253532
0.025312
0.124799
0.172298
0.0249046
8.17933
0.0257869
0.0253565
0.0268804
4.70311
0.0252837
0.0254489
5.05316
0.144851
11.353
0.520012
0.0251416
10.2479
0.0254412
6.02858
4.23546
0.0338252
0.255722
0.0324629
1.72603
6.60702
0.0711269
0.0249113
30.4273
0.0252742
0.0481652
0.0253363
4.15066
0.0275421
0.121575
0.0324499
0.0606689
0.0279866
0.287931
6.223
0.0258741
0.120847
0.642444
0.0875011
0.0402656
5.43387
0.0252208
0.0810631
0.0250923
0.0351652
0.025187
12.7732
13.3933
28.7722
0.0250801
2.5455
0.0699255
0.0353175
4.26152
0.0255091
0.025098
0.127204
0.0256758
0.201355
0.158659
0.0252297
0.0399144
4.59635
0.0256405
0.0253491
0.0388328
5.29212
0.049267
0.0423419
0.0315669
0.131204
0.1695
0.0381573
43.6735
7.165
0.027096
0.0250732
0.048382
0.0254247
0.0253433
4.14109
0.0250621
0.0253122
28.3522
10.4354
5.52476
4.29891
0.0251233
4.90915
0.0253735
0.0950004
11.5287
0.0255659
0.0253446
4.09418
0.0653925
0.0884566
0.0254962
0.0449913
0.0253344
0.030074
4.48643
13.1872
0.140218
0.0254379
0.0249592
0.0267325
0.0264336
4.53582
4.06236
0.0265916
2.49568
0.375892
0.731059
0.666913
4.21529
0.0254911
5.61096
7.42204
5.33848
0.0251565
0.0597756
19.5217
0.34265
0.0482759
0.0479748
0.0351038
0.398778
3.41108
0.025146
0.0254632
6.74983
11.3272
4.01458
0.0255071
0.02534
16.1542
4.47186
0.0271013
0.036764
0.0254376
0.0260175
10.3483
8.26331
0.0344015
4.25936
4.12887
0.0253193
0.0269491
10.9011
0.066064
0.0507582
10.9879
0.0251162
0.0256217
0.0253584
0.0253782
0.0261009
4.17886
0.0267158
0.02564
0.0252408
0.058137
2.84433
3.70822
0.0254594
0.377781
0.0253903
0.310191
4.38934
41.3937
0.0267854
21.0205
0.334472
0.225266
4.39297
0.236049
0.0921376
4.09098
4.08884
4.25031
0.0250423
13.2568
0.0421444
4.2766
0.0254525
0.157061
0.0246313
8.45612
0.0814864
4.02801
4.32986
0.087311
0.0254598
0.0909763
0.0856379
0.206836
0.303462
0.0251847
0.0411505
7.19582
0.389406
0.0482348
0.0725987
0.0253132
4.25168
0.0251691
21.001
4.1314
13.241
4.07905
0.0605826
3.94397
0.156257
10.6198
4.14411
4.16016
7.06846
7.13794
0.0408106
0.160466
12.9152
0.755291
0.215807
4.02034
0.0250681
0.0254378
0.0253337
0.100813
0.0253421
7.05722
0.0256719
0.0577429
0.0253108
0.0942511
0.0260643
0.0255359
0.0248561
0.0285374
0.0399331
0.0254892
0.0545865
3.40347
0.0862277
3.54946
0.0288163
11.1438
0.0251782
2.75884
0.0256353
0.0254007
0.0256643
0.0254805
22.4548
0.0398353
0.0311076
0.0253306
0.0253933
0.0252568
0.750191
0.0252158
0.0515639
5.15196
13.8405
5.0308
0.0252041
12.7959
3.96123
0.0268674
9.28521
0.0403388
0.160751
0.0614624
0.149402
0.0253406
0.0257479
0.047074
0.0269085
9.10825
0.0246895
0.0251021
6.63954
31.4657
0.0253104
0.0251599
0.135275
0.0335465
0.0254264
0.310234
0.0253196
31.3255
0.0254573
5.11768
0.0276958
0.0294158
0.704866
5.51923
24.7008
0.0397814
3.98655
0.0251718
0.0593843
0.187143
0.0253399
0.025462
0.0248907
0.0249567
0.0612716
0.0605964
4.183
11.7331
0.120512
0.124594
10.6313
4.23605
2.11255
0.0286187
0.0344227
0.025193
5.02107
0.0253322
0.0251199
0.0419045
0.025335
0.170585
0.025669