/*--------------------------------*- C++ -*----------------------------------*\
| =========                 |                                                 |
| \\      /  F ield         | OpenFOAM: The Open Source CFD Toolbox           |
|  \\    /   O peration     | Version:  v2012                                 |
|   \\  /    A nd           | Website:  www.openfoam.com                      |
|    \\/     M anipulation  |                                                 |
\*---------------------------------------------------------------------------*/
FoamFile
{
    version     2.0;
    format      ascii;
    class       volScalarField;
    location    "200";
    object      omega_0;
}
// * * * * * * * * * * * * * * * * * * * * * * * * * * * * * * * * * * * * * //

dimensions      [0 0 -1 0 0 0 0];


internalField   nonuniform List<scalar> 
54593
(
0.0253205
0.0627638
0.0250989
3.61289
9.54441
4.61854
10.6388
0.0951653
0.0572752
0.0251428
0.0292614
26.4229
3.77639
0.0250779
0.107855
0.0309103
0.0950572
0.0640472
0.0251435
0.0349317
0.025097
0.0311128
0.0251328
30.8685
0.0248256
0.185977
0.0253226
0.045835
6.60163
0.025138
0.18584
0.313705
0.0252051
4.30196
0.052724
0.0255731
0.0619364
0.0627754
0.0258925
0.0311309
1.57437
2.67321
0.0250356
0.0253222
0.396557
0.0264198
0.100685
0.0835645
0.0247431
0.0589754
0.0252068
0.0247491
0.0280181
0.409755
0.131396
0.0252705
35.72
4.31027
0.119616
0.0772613
0.0250398
0.0263823
0.0250774
4.03348
0.025321
0.0305101
5.35388
0.282322
5.29386
5.27457
0.0247442
0.0522069
0.025317
6.09065
0.0265751
0.0315531
0.0378134
1.5114
4.4289
2.05972
0.0251117
3.57282
0.025323
5.27435
0.0270425
6.08686
9.38956
0.0901856
0.129925
0.0253429
30.3448
0.0347945
0.155495
0.271937
0.0412081
5.52118
4.49819
0.249856
0.0254026
0.059172
0.0256118
4.1239
0.0259927
0.0253324
0.294933
0.0526864
0.0591559
0.0877805
0.0313155
0.0928832
28.9409
0.0253218
0.0253453
0.191834
0.0252574
14.3148
5.10106
4.32533
4.18393
0.150204
4.08952
0.025636
6.16815
0.0398265
0.0251258
0.73042
0.0261287
0.025127
8.37714
5.83262
0.025297
0.0254861
0.0323106
0.0255658
0.0349399
7.52488
0.0248771
4.19711
0.0253318
0.0254005
10.2605
0.089342
0.031916
3.42856
0.0412072
0.276435
5.71407
0.0611111
5.4113
0.0256048
0.0850939
0.0255711
0.147521
0.26661
0.0252551
12.4046
0.0291881
12.4263
0.10838
0.0254009
0.806878
0.0280719
9.66403
5.60927
0.0451217
0.0254317
0.0250504
0.0250455
3.73704
0.0256811
0.205873
7.56062
0.136055
0.025641
0.0568603
0.0251913
24.975
0.0274217
0.0264107
1.38957
4.33259
0.024637
6.61138
0.025644
0.0256408
38.2853
0.0254887
0.0277856
0.025085
1.46212
0.0264161
3.99435
27.9796
0.0253124
12.8277
5.60527
0.0253047
0.0287659
0.191914
8.53597
0.0360175
0.716271
0.0823423
0.0259473
0.0258842
0.025872
5.81275
0.026913
0.0258949
0.025095
0.025404
0.0250822
0.0246355
0.0318507
0.0409154
0.201395
31.4506
3.96255
65.1044
0.0253048
0.0309142
33.1091
3.33055
0.02646
0.298279
0.0410677
0.025667
0.0642095
0.0251184
0.103892
0.0260799
0.188467
38.8713
0.0256351
0.0255417
4.43829
0.204477
0.0255638
0.296864
0.0255595
0.0264558
0.032172
5.34909
0.178314
0.0262835
0.0270479
4.08177
0.337465
0.0250191
0.909122
0.176165
3.95319
4.98683
0.0252515
0.0264884
0.025207
12.6857
0.0265338
0.246681
0.0310979
0.0717859
4.12467
0.0255017
7.5876
0.040748
0.0249841
12.8726
0.0250219
0.0309531
0.0254297
5.86971
3.42072
0.0331467
0.0253192
0.0270272
0.025252
0.02647
5.24518
0.0250093
0.0986643
0.0254921
0.0345981
0.028719
10.4616
4.07688
1.08256
0.0312227
0.0257336
0.0413284
37.4721
3.96012
3.5728
0.0252568
0.0254108
0.0704882
0.0256618
31.0654
3.35231
0.0252573
0.196127
0.357101
0.0260582
0.0254074
0.0256757
0.0252696
0.0253276
0.0574944
10.8128
0.025577
0.0253004
4.97014
0.057167
10.9381
0.025527
1.33313
9.89522
0.327652
1.27354
0.233864
0.0255485
0.078245
0.0250201
0.325753
0.045134
4.47089
0.0604879
0.241651
0.0249773
4.20752
0.040695
0.0254382
0.0340489
0.0253291
0.0281433
0.025683
5.92179
0.0288844
8.49798
0.331955
0.0304975
0.0570339
0.0282292
3.92367
0.0265811
0.025329
0.156909
0.0588944
0.18991
0.196047
13.0142
42.324
0.0254139
0.311747
0.160888
0.0253395
0.0250454
0.0354467
0.0254139
0.0253491
0.0253106
0.193247
0.0310396
0.0267205
8.97005
0.139275
0.0254907
0.0254138
5.00981
0.0382636
0.0253092
0.0274623
0.0252713
0.0250199
0.0255619
0.0286674
10.5826
0.0250692
5.30572
0.0330046
6.14898
5.87199
0.044471
0.249716
0.337308
0.0811143
6.29268
35.8681
0.0253287
5.32189
0.252923
0.195665
0.119568
0.0287264
0.0250491
9.84294
11.0831
5.26257
0.0574381
0.153664
0.0653053
0.0273127
0.0864949
4.31828
0.241787
0.309141
0.58689
0.0249376
0.308387
0.0252316
0.260175
0.308957
0.025079
0.0254055
0.105011
0.0253094
6.27896
0.0430722
0.0253392
0.0253973
0.0446052
0.0717823
8.79251
0.0608005
0.0983564
8.71823
13.4522
4.41948
0.0500209
39.276
0.0447368
5.13991
0.0519522
1.24896
0.0570564
0.0649483
0.0332105
0.02532
4.43094
0.133299
0.147313
11.9564
0.025641
0.0251185
0.0254268
11.803
0.0689435
0.0252815
0.0254066
0.143247
15.668
1.27734
0.3481
0.146625
0.0700579
3.63442
5.4623
0.0492741
0.0254419
0.0265065
0.161264
0.0252842
0.0250109
3.49371
0.0254412
0.0250073
0.0939514
0.192497
0.0254514
0.0445362
2.34144
10.5268
22.7226
0.0386183
0.0248752
11.1511
0.0255598
0.025675
3.91828
10.7238
0.0254538
0.0578533
0.0253381
0.238117
0.0621366
0.0253407
2.7952
0.319769
1.2538
0.0248221
31.9638
4.81918
0.025641
0.0252705
0.0301863
52.8202
0.0255475
0.0666557
0.0270885
0.300632
0.0253311
0.709919
9.5996
0.300702
0.274128
0.025129
0.0566665
0.0254018
0.0708007
0.0519793
0.0251533
0.0253535
0.255506
8.97789
0.0254057
0.0351649
3.66535
2.99109
0.0252313
22.4394
0.0253062
0.093213
0.0293998
0.0255381
0.0254908
0.0253014
0.065045
9.79484
4.59083
7.48692
0.0247476
4.0481
0.0272985
0.0887214
0.0252564
0.0251178
0.0251308
5.54584
0.0253397
0.0355833
0.0593826
0.0251654
0.0263494
3.79057
6.55948
0.0258878
8.38183
11.2277
0.0251492
10.4983
0.0250029
13.0858
0.0351432
0.185499
34.9414
0.178012
0.130735
1.41854
48.0521
0.332984
3.41556
0.0254334
0.0256349
0.0993762
0.044378
9.39858
0.025523
5.09963
0.0254683
0.0274628
0.116264
0.0252314
0.0337883
0.254912
0.0281061
2.14951
3.68135
1.14286
2.37448
4.6927
5.06278
0.0251717
0.0250319
0.0315347
0.0251289
0.0269118
0.025327
0.138367
0.0266896
0.275777
0.0325838
0.033233
8.02037
0.0501324
0.0626456
0.0256588
3.98534
3.93547
0.0251403
0.0256481
1.49363
8.18956
0.0284711
0.025404
4.98043
4.71678
1.10513
10.988
0.0271764
0.030861
0.052645
0.238006
0.025353
0.0256532
0.0510484
0.0995133
0.0351014
0.0267467
0.307968
4.31288
0.0256404
0.0250272
12.345
0.132085
0.0911591
4.25048
5.14312
0.238327
5.27026
5.2079
0.0978152
0.488733
0.0253085
0.0254167
0.0824138
0.0251404
0.0729374
0.128322
10.0663
0.026647
5.26957
0.196772
0.0251877
0.198016
0.0250586
0.0262524
6.66372
0.37408
5.01756
0.0409093
4.33816
0.0251761
0.1465
5.24672
5.21829
0.0253444
0.0246465
4.1327
0.0387674
0.0255516
0.0253836
0.0254075
0.0251453
43.1518
0.0908926
0.025072
0.0250808
39.2949
0.134505
0.0254141
0.0250381
0.0252591
0.0431982
0.0350852
0.0273115
0.126796
11.878
5.42216
0.026409
0.0253437
0.0253091
0.028713
0.0438726
0.0256357
4.17373
5.58586
0.0276513
0.0254077
0.0251549
0.32146
32.8269
0.024827
0.0253864
4.18396
0.0260505
0.0291958
0.382873
0.0250723
0.332898
6.3413
0.0759068
0.0254045
0.0269943
4.46728
0.0742927
0.0253537
4.0916
0.0252714
4.33652
0.0599725
0.0299461
0.0256639
0.0248549
6.94526
0.025348
0.0650055
4.84261
0.0436208
0.025168
0.0541507
19.0216
0.034311
10.5246
0.0391731
5.75225
10.7706
9.01182
0.025346
0.975893
0.0268487
0.0254086
0.0250813
0.0250548
41.2903
7.40139
5.2843
0.0690385
0.752162
0.0252607
0.0289268
0.0253943
0.0252961
4.04634
4.41342
0.558335
0.0256741
4.09217
0.0708193
5.36356
0.288843
10.0869
0.288996
0.216181
11.0688
15.971
0.332388
7.22291
0.0253129
4.25853
8.15291
0.141916
4.48555
4.58057
9.22243
0.0587069
4.6091
0.0378032
0.171365
8.68784
0.0279889
0.025409
0.0254079
0.0253961
9.1249
0.195568
0.0307193
0.0248684
0.0250592
0.0253675
2.95681
0.0251247
7.17
0.136134
10.1369
0.0251578
0.300886
4.53092
0.0252122
8.48207
5.89735
4.28446
9.04532
0.025648
0.0340008
0.125167
0.0255034
0.0514131
4.39173
0.0262696
9.75391
4.4194
0.249582
0.025262
0.0250659
34.56
0.050418
1.41334
0.0273399
0.14923
0.073206
0.0769262
5.16339
3.40374
0.041432
0.171936
0.0254071
0.0256527
0.0254038
0.173231
9.04136
5.48088
0.0435473
0.0606915
15.2307
0.131836
0.0356763
0.0272174
0.510209
0.0250216
0.0259426
0.025518
6.07707
0.0264428
0.0252576
0.0254052
0.0250165
0.125332
0.0254773
0.025384
0.0254109
8.1375
0.0251352
0.0253811
4.18092
0.025145
0.0297554
10.707
4.29511
0.0250608
0.938008
5.19303
5.31946
0.0251148
4.24992
0.0250242
0.378294
0.024814
2.29312
2.30447
0.254403
0.0252602
44.3018
0.0289419
0.0251014
0.0250306
0.0330121
10.9861
0.0277512
0.0253708
6.21349
0.0260737
0.0332851
1.05036
0.025103
0.0252943
0.961492
10.2731
0.0245915
0.0253653
4.96289
9.52412
0.154205
0.0245917
15.4443
5.37951
13.6958
0.0250682
0.10262
0.025222
0.0246427
0.031336
0.0950988
4.02764
0.0246411
0.0264644
0.0254386
0.024846
6.35379
14.9709
0.709368
0.0631284
1.18751
0.025148
4.11763
68.9697
12.7676
0.0282801
9.09044
0.0253972
0.0252539
0.0311982
0.0257427
0.0411598
0.0252411
12.5178
3.91445
4.01889
0.114327
0.0268852
0.197168
0.428939
0.200302
0.0248609
10.1815
4.92389
0.0253097
0.80158
0.0253669
0.0318739
4.55581
0.146598
0.0256405
10.8424
0.0254421
9.10575
0.200664
0.186042
0.102698
0.0356644
0.0993178
0.111563
0.024824
0.184619
0.056554
0.466503
0.0479165
4.43048
4.03325
0.0253594
0.0252842
0.0251353
0.0252574
0.063473
0.0254333
0.0248365
4.36429
0.338901
0.0637732
10.0186
0.0298088
22.7125
0.0251434
0.0253851
0.234168
0.0251415
0.0426143
0.108922
0.175292
0.172309
8.96134
0.0627426
0.667911
2.24622
0.110563
4.28505
0.0260256
28.2823
0.100592
0.0278978
0.169738
0.118687
1.06778
10.4963
5.88284
0.0256352
0.0299523
11.2587
0.0251416
0.0353802
0.0644574
0.179291
4.64414
0.0252543
0.174299
4.75918
0.0252484
0.0253509
0.0245987
5.18122
0.0781446
0.0264321
6.80001
8.18217
0.0251308
5.34915
4.42066
0.271561
0.823745
0.168214
0.0652291
0.0907851
9.40713
0.065499
0.0251034
12.2724
0.025442
0.0252509
0.0251385
6.69742
0.0255687
0.123008
0.0262641
7.1173
0.135901
0.0252907
0.0279704
5.30017
0.0250125
0.0255112
0.0252288
0.0588543
0.0252473
12.7778
0.0348632
0.0254379
0.17191
0.121284
9.87358
0.0259073
0.189188
3.99076
4.60791
0.025164
0.0307061
0.025068
0.0251748
0.162065
0.0315445
0.025127
0.0264632
0.0541044
0.0252943
4.08455
0.028732
0.0629046
0.0253363
0.0251835
0.0280056
0.0251882
0.0318969
0.231935
0.0256738
0.0253614
0.0253438
9.8259
0.0481469
4.38288
0.0277235
4.07195
9.45668
0.241698
0.0413242
0.0606454
0.0254383
6.49842
9.38029
3.91258
4.31946
0.0861725
0.137137
0.141359
0.294941
0.0728964
0.0263194
0.0251995
0.0641067
7.96393
0.120058
0.0521329
0.0254036
0.0643866
0.0252403
4.1086
0.0248711
0.187791
0.0272051
0.726538
0.0253013
0.683231
0.033958
0.224412
0.0253551
0.0272141
1.57811
5.03381
0.0459558
0.0465724
0.0253183
0.0253933
8.4738
11.9349
5.69452
0.0258707
0.183413
0.032165
0.0431811
0.0253575
0.195185
0.0254344
0.025214
0.0267418
0.0254383
4.23462
0.0254337
0.0251717
0.0256594
0.0266432
0.0256744
0.0321372
4.53716
0.0301487
8.5646
16.2758
0.0251796
0.0595444
0.0251425
0.0266051
0.0251496
1.09198
1.81396
0.0253775
0.0252336
0.0360035
4.53283
1.62837
0.0253646
0.0250083
0.0468379
0.0252214
13.1245
24.7999
0.0254377
0.0353096
0.189381
0.233771
0.0255261
0.412826
3.90475
0.0254381
8.71666
0.0255613
4.035
13.6574
0.0249952
0.0613334
4.45979
5.78909
0.0250581
0.174382
0.0253123
0.0250396
5.2553
0.0275695
0.0277721
0.0254066
9.26431
0.191066
0.0417053
0.24459
0.033364
0.0260353
0.0980253
5.80887
0.0252907
4.09758
7.85584
0.0334049
0.0259738
0.0271305
0.0252473
0.074809
0.0252127
0.0256353
0.0721864
4.19985
0.0432998
0.0256801
0.0685267
5.46661
0.0245993
8.30257
0.0264001
0.32118
0.0872248
10.4655
0.0255342
4.5703
0.0250393
0.0245983
0.0253363
0.0339027
0.0253
3.50865
0.0254418
0.0252437
6.85429
0.025354
0.0251658
8.94674
0.0255684
0.0250008
0.0252971
2.18558
4.35442
15.521
9.77319
1.37078
4.37446
0.0252822
0.0276785
4.01598
0.083503
0.728009
15.9047
0.0310095
0.32678
4.09825
0.0252559
4.97331
1.60638
0.0249844
0.0307962
0.025573
0.0253808
0.0257827
0.32725
3.9983
11.1135
0.136425
0.0252943
0.116089
0.0465579
0.025245
5.892
0.0250089
0.0251417
0.221723
0.0252167
0.0627144
0.0246478
0.063063
8.83037
0.120298
0.0356164
0.0381291
4.00549
6.24351
0.0668529
0.395626
0.0414822
0.0335698
11.8024
0.06399
0.0252355
0.637979
8.22327
0.0246071
0.0267219
0.0699277
0.163369
0.0966626
0.0925298
0.025352
1.27801
0.096581
0.0253953
0.0271931
0.0258525
0.025121
0.0253973
0.15492
6.76674
0.0266047
2.09444
0.028502
0.0250691
4.09117
0.0513418
6.37442
0.134879
11.407
0.0781588
4.95771
10.0576
0.0262301
0.0468049
3.88952
3.9634
0.498501
0.0734493
15.7491
0.374372
3.48543
0.0253386
4.05911
0.0252984
0.0252995
0.0650316
0.123371
0.0250524
0.114152
0.508795
0.0271849
0.0253915
10.2321
0.0252789
6.97577
0.0395335
0.0255439
5.15424
0.0343099
0.050576
5.22234
5.02967
0.0642807
5.41005
0.6737
0.0252951
0.0256599
9.18454
0.0587925
5.81464
0.0250164
0.035697
0.0251247
0.0251372
10.3778
0.065288
0.0253384
9.55728
0.0250255
0.083464
0.0347158
3.93376
4.07184
0.0254275
0.0344641
0.0265117
0.0252332
6.43464
0.0253109
0.0700113
9.86795
0.025222
0.0249762
5.9899
12.4984
0.0262293
0.0414825
0.0253123
0.0254436
0.0254773
9.59496
0.0335419
1.15896
0.0581393
0.930441
0.0324082
0.0250135
0.0961422
0.095437
0.0256406
9.84391
2.19352
29.1171
0.0272189
0.0253694
10.6025
3.77128
9.13509
0.0256635
0.0253531
42.3553
0.0256669
4.22424
0.0251961
0.0254254
0.0309127
0.0250712
0.0252276
0.0255388
0.026645
4.83417
0.0253363
0.0332943
0.124382
0.0926951
0.0254048
0.0255535
6.40702
0.0818391
5.27547
0.0298255
5.18001
0.0251152
0.0253555
0.0340406
4.35038
3.86151
0.0360054
3.49588
0.120163
0.0571534
0.0288556
0.0407132
0.0254811
0.233864
0.0725887
5.50381
0.0511511
0.0411261
33.2486
0.0862005
0.0254528
0.0507516
0.42594
0.0255614
0.253788
1.24245
0.0252328
0.064487
14.7057
0.0250966
0.0253105
0.0253324
0.0252113
4.65793
0.145095
0.126036
0.0873805
0.0250175
0.37086
0.0249915
0.0262419
0.0251889
0.0498455
0.543557
10.7521
0.130355
0.0250917
0.0808167
0.0924237
0.025387
27.1925
0.025566
8.90274
0.0260218
15.2878
0.686823
0.0607055
0.0514543
0.0254762
0.0256259
0.0322582
0.0387881
0.119844
0.284021
0.0252243
5.0757
4.13993
1.07267
0.04132
0.0318274
14.5421
0.0253875
9.39392
0.0251974
0.0253347
0.054042
0.0256354
13.141
0.0253422
9.02413
0.0250509
0.0253373
0.0248874
0.0259533
0.236414
0.0251177
0.0883274
0.0265736
20.2958
0.0253535
0.353381
0.0303985
0.0608531
0.0392366
0.0256948
2.22157
0.0481979
0.0256625
0.102601
0.0315462
0.0863762
0.0377994
7.85031
0.0452143
5.91874
0.0303151
0.0255549
0.0308504
0.0285198
0.0476544
4.10428
0.035061
0.025641
0.0256356
0.0252972
0.149368
8.04924
0.0256408
6.37408
0.0917466
5.20061
5.03288
11.0549
0.0253472
0.0405805
4.23479
0.0502265
4.30679
12.2952
0.0849533
0.025561
0.0423691
0.0256795
0.0253344
0.0494102
0.025286
5.27797
3.97822
0.126109
0.0253818
0.511153
0.0256784
5.85934
10.3661
6.0773
0.0342304
0.025308
9.701
0.0637975
5.70207
0.0902993
13.5038
8.62194
9.64489
0.0254798
0.025228
1.58885
0.0277425
0.0253418
10.3998
0.0257405
0.0909107
0.0250424
4.12182
0.0252419
0.0252428
0.0489638
0.0252436
11.3787
0.0357472
5.78911
0.0252977
0.025367
0.0252837
0.0342594
0.163935
0.0253825
0.0252231
0.0251547
0.211999
0.218869
0.0310109
0.0252494
0.0349208
0.0634396
0.514169
0.124238
0.0253693
0.0252059
0.0269934
0.0252221
0.0278616
0.0253061
0.0750587
0.643084
0.0500245
0.0997725
4.2766
0.0253747
1.29271
11.0137
0.025361
0.0256826
0.0251983
0.0253389
9.43333
0.065047
11.0575
1.10326
0.0648959
0.16119
0.0653605
0.064662
0.0406718
0.0254803
0.0250524
0.0283864
0.0407495
0.0253409
11.3827
4.32947
3.78533
0.0311157
0.0261018
0.035054
29.1386
4.89957
0.0256811
0.0250163
4.10195
0.0282074
10.2928
4.43028
10.4767
3.77716
4.06467
0.0250426
4.88964
4.13728
13.3911
0.0253185
0.0263837
0.20726
2.3375
0.152851
9.44645
0.0478494
0.0879928
0.0246391
0.0251361
6.70333
0.0324169
0.0262108
6.48847
0.0360028
2.35855
0.158974
0.0253589
0.0251089
0.0276666
0.319518
10.6403
5.81197
5.4629
0.0251852
0.0311713
0.134019
0.0279743
0.0270521
0.0256949
9.43664
0.114513
0.0247215
5.20014
0.0253344
0.033677
0.0253556
0.175938
0.69633
4.11905
0.0253295
0.0905117
2.54285
0.048626
0.0255656
0.0472397
0.0253051
0.0250051
0.027657
0.0265817
5.64744
0.0411922
0.0259348
8.25727
0.0253841
5.07692
0.0247262
0.0254739
0.154236
0.0316867
0.0284221
0.310896
0.0253165
9.01398
0.024999
0.902758
0.181133
5.29408
11.9549
0.0259284
0.0361074
0.0248592
0.0403249
0.814591
0.026985
0.0253604
0.040947
9.99403
32.0068
4.05279
0.0254772
0.116027
6.18018
0.025566
0.153821
10.6183
2.07089
0.0476748
0.0292284
0.0412209
0.0255121
0.027651
13.8679
0.0250115
0.0251107
0.0253326
0.0581119
4.17704
0.124574
0.0257311
0.0776654
0.0250292
0.0252164
0.028499
0.0679791
0.0253237
8.58337
0.311859
0.068068
0.0253204
5.60755
0.0267398
0.0251094
0.0254586
0.0295319
0.14746
12.8125
0.077027
0.0906092
0.0265027
0.0254781
4.00943
0.0602368
0.0950261
6.34811
0.359229
4.28357
0.0677876
0.0271354
0.0414084
0.0486777
0.0319114
10.4626
0.0251583
0.0251995
4.86815
4.19863
9.88682
0.0254811
3.4548
0.0256749
0.0265014
0.0987057
9.49316
0.0267156
3.70706
0.0289878
0.156011
0.0330418
0.0277557
0.0814833
0.025336
0.0253411
0.102947
0.318715
0.0329499
0.394507
11.5969
0.515558
0.0299099
0.0253191
20.4811
0.0251129
4.4081
0.0264215
0.0307733
18.262
0.0441847
0.128084
5.49211
1.58776
0.0269598
0.0250105
10.5543
0.0370418
4.38693
4.08029
4.18885
7.98332
0.710594
0.324427
0.0254507
0.0321669
4.61375
0.0684869
0.0264474
0.0248803
17.1057
0.028449
0.0278879
0.719269
0.0293884
0.024964
8.41353
0.0625667
0.0277746
3.99166
0.17903
0.0253109
0.0261798
0.0335787
0.027249
12.975
8.54809
29.3031
0.0251125
0.0253759
0.211219
0.239083
0.0382096
0.122323
0.0417448
1.3765
0.0254002
0.287972
0.0249988
0.0924441
0.0256803
4.4124
0.155909
8.9642
0.127999
3.6242
2.48185
0.22799
0.0256364
4.34905
0.0973487
0.0254679
9.10643
2.30658
0.0253305
0.0467563
0.0256409
0.0264808
4.24227
0.0253385
0.246633
0.0253037
0.0365448
0.063845
6.15073
0.0246385
1.35296
0.113447
6.2284
0.0254489
0.0265196
0.0256778
0.10335
0.0255064
0.0270601
0.025519
0.0253417
0.0252779
0.0473426
0.0304182
9.54775
0.219246
0.285087
0.025246
4.16008
0.0249702
0.0254395
0.025443
0.0255465
0.0946684
0.0255784
0.0298724
0.0253975
0.0256541
0.0321632
4.38594
0.0254429
0.0269925
0.225092
0.103598
8.50231
9.5036
0.195747
0.025355
0.0363786
0.0612562
0.0255024
0.357097
0.0256797
0.312733
0.0252803
4.83846
0.161948
12.4257
0.0294708
0.025329
0.0263994
5.9999
0.321483
0.0247469
4.05108
0.0257176
0.125974
0.0249825
5.5892
4.29045
0.0254602
0.0252265
0.0333596
0.194151
0.02588
0.0358475
4.343
11.2547
0.0263572
5.53829
0.0277464
0.0267893
0.0833805
1.65586
0.0964342
0.291547
9.84546
0.0250669
7.82854
11.266
5.49698
6.94253
0.0359711
17.154
4.01169
3.93528
0.480214
5.94688
10.2478
0.378787
0.0248079
4.25283
0.050107
0.026506
0.0926484
4.89485
0.0618956
0.0252682
0.0360904
0.129999
12.961
0.0294258
0.0403742
0.0249847
13.7549
4.16781
0.304939
0.0414275
0.0246315
8.41697
0.0248163
2.33002
0.0263032
0.0254539
4.32981
0.0249557
0.0248818
0.0272356
0.0252658
0.0507694
0.0262899
9.22182
8.65581
3.87039
0.0251648
0.207205
0.026885
0.0594584
0.0348576
0.0264061
0.0255784
12.3633
17.4708
0.025276
0.030749
0.0255614
0.0253616
1.94273
12.6982
0.218576
1.13247
15.3504
0.155462
0.0253424
0.0253377
0.0250017
0.0993524
0.0515612
5.83504
4.13481
0.024969
9.94336
0.125851
0.0450726
8.12634
0.158384
1.23185
0.024692
4.95708
0.0254541
0.0248068
0.0253166
0.0249904
11.938
0.0599824
4.20566
0.0253207
0.0253409
3.8657
12.991
0.384294
0.0255098
5.00176
4.24499
0.159754
0.0790797
12.7733
0.0278688
0.0263569
0.0306726
0.0253326
0.0265875
0.0403549
4.13761
0.025581
0.0252084
3.98319
0.040522
0.0298088
0.0264473
0.161296
1.22323
0.025295
0.0975047
6.30686
0.0248789
0.0251351
0.0471211
0.0268267
0.0251578
0.483452
0.220684
4.14497
0.16794
0.0278026
0.0410841
0.0253753
1.36522
0.0486858
0.0250047
0.030612
0.0253606
0.825297
0.0253899
10.7431
0.0253495
0.0250804
0.214271
0.0253864
0.102205
1.53561
4.60393
1.01622
14.6296
0.0478449
6.58596
0.0254037
0.0326973
4.11362
0.15971
0.0667769
2.49753
0.025476
0.02521
0.0257899
0.058498
0.0251376
0.154803
0.0250638
3.94918
0.025414
14.2139
4.15066
5.45699
0.433868
0.0678834
0.0256491
0.0815827
0.696848
0.025181
0.025439
13.8746
11.4953
0.329381
1.87696
0.0249966
11.4981
4.40744
0.0261447
3.9885
0.02534
0.0246978
0.0255384
0.0347381
0.0267264
0.0329759
4.2272
0.155994
0.0503975
4.48655
0.0251932
1.09446
0.0251594
0.0256741
10.0616
5.27113
0.669353
0.0250355
0.275002
0.759822
0.170004
12.2565
0.0256642
0.0283773
0.0255509
0.0248823
0.0405782
0.0254019
0.0571533
0.0255533
33.5677
28.6419
4.26942
0.0369748
0.0834879
23.6365
0.0250739
0.025682
21.684
0.0255823
0.0282084
0.0248959
8.93214
5.95772
1.23446
0.0254376
6.87025
4.12325
0.0834436
0.0249928
0.144559
0.0250932
0.0729621
11.4944
4.86352
0.0250332
0.0397617
0.0250024
0.0262247
0.0258975
0.0254169
0.0255601
0.646985
42.0717
0.0255639
0.0248061
6.94571
0.0253017
0.0253979
0.0253529
1.94991
6.80043
0.0416964
0.0282694
0.0256795
0.776606
0.0253325
7.80115
0.0499898
3.96266
0.0252602
0.0251948
0.0256858
0.138066
0.0249995
5.7422
12.1493
0.0249946
0.033948
0.0250238
0.0447747
1.39114
0.040281
0.140272
0.251761
0.0259925
7.7902
0.337368
0.0247082
0.0252879
0.0413346
0.0273144
0.0253597
0.0359868
9.89812
3.71497
0.0252059
0.0249996
11.2003
0.129983
0.0395856
0.0251563
0.0284685
2.23546
1.25069
6.97969
4.12147
0.0256048
0.276235
0.0256536
0.0593628
0.0355597
0.0312828
31.7314
0.0402467
29.1466
0.0605707
0.359113
0.0251578
0.0251881
0.0265539
0.0247232
4.06448
0.224309
4.36079
0.0256488
0.0511208
0.0617308
0.0250858
0.144438
0.0262138
8.56977
0.0253482
0.241908
3.01812
0.0267409
0.154501
0.0252375
0.309237
0.109141
5.70366
0.0261578
0.0325779
0.024685
0.0317969
0.0307269
0.025004
0.292604
0.0252018
0.0256656
2.4588
4.41376
0.0256053
0.216899
9.91356
4.71879
0.0493502
9.49808
0.0253463
12.8969
0.160463
0.0279984
3.47749
13.6625
8.56085
0.823937
10.0229
0.0248773
0.0252243
0.0250723
0.066759
0.0295118
0.0254185
0.184655
0.0489263
4.30624
1.69106
0.156357
0.025565
0.0502815
4.35526
10.4881
0.0283035
4.21629
0.0249902
0.0603427
4.66009
2.50242
0.950681
1.83885
0.0254857
5.743
0.0253453
14.9795
0.0253559
2.55129
4.10948
0.0254211
0.148936
0.375602
0.0254995
0.0254753
0.0251664
0.0250895
4.10732
6.21249
9.35772
0.0253201
0.025266
5.5516
0.0401091
0.0252561
0.025177
0.0252742
0.0255032
5.2145
0.0651737
0.409718
0.0395038
0.0601575
0.0253396
0.035508
0.0251837
3.96974
0.0253706
6.88712
0.230741
0.0254355
12.6628
0.0253227
0.0252096
31.8282
0.0781206
0.423601
0.0254807
0.0253399
0.0254505
0.0252471
0.0455633
0.0253966
3.94282
0.0350076
0.0251366
4.99753
12.9191
0.322499
0.621748
0.0250688
2.32982
0.0459916
9.76722
0.0741957
0.0252601
0.027093
9.60748
0.0472541
4.03813
0.248145
0.0255114
4.10044
3.50159
5.18946
0.0253457
0.0255918
5.86528
0.0253044
0.0317927
0.0254806
0.0254334
0.0254005
1.12953
0.0338534
0.0250385
3.97186
9.0769
0.0318171
0.039782
0.0249994
0.0256541
4.17138
10.124
0.120456
0.0249992
12.2699
4.45215
0.0313487
0.0252776
0.231478
3.45495
0.0250758
0.0549654
0.0264359
5.36798
0.0254766
0.0253427
0.0497759
5.55825
6.02103
0.100796
4.06128
5.12952
11.3082
9.65756
0.038002
0.0309815
0.0252026
8.14721
0.0254319
0.200067
0.0379829
0.0253153
0.0252749
0.0925543
0.0256756
14.1655
0.153492
0.0349083
0.118202
11.8025
7.16662
0.0250966
6.63862
0.0331597
0.0279947
0.0395603
0.0270575
6.60621
15.2357
0.0690543
0.0651146
0.0256694
0.0251743
0.376458
0.0876363
0.0367312
0.0418269
0.0252667
4.00043
0.0252706
0.0250106
0.0310512
3.99247
0.243189
0.0613818
0.406191
10.5005
0.0254006
0.169297
9.78001
0.0252014
0.0307376
5.02758
0.0256002
0.0253169
0.0283885
3.96063
6.78908
9.23869
0.0589886
0.0252585
4.19652
0.0252479
0.0669315
0.0253691
4.18852
2.09527
0.0254087
0.068132
0.025145
0.0286408
0.0504393
10.5021
4.58715
0.025397
9.15199
10.0514
0.0656269
0.456194
4.59683
0.0249832
1.05463
0.034323
0.141727
8.27791
0.0249799
0.0253218
0.0251095
0.0260427
0.0282461
0.0254744
0.039995
6.25794
0.119763
0.0251872
0.025393
0.0253094
0.0261096
0.233949
0.0255651
6.43758
3.75657
0.0255235
4.35324
0.0306078
25.8178
0.173636
4.57273
0.0716273
0.0251171
0.0306546
0.0251716
0.0253289
5.15954
0.025499
0.0499486
0.0353466
0.191492
0.233418
0.389503
0.0322795
0.0249285
5.52373
4.5769
0.0253072
0.333564
0.0253159
0.025302
0.0253976
0.0252644
0.0253725
0.0298508
0.0252698
5.00508
0.0254043
9.73686
0.146939
0.0254087
0.526032
0.0254406
0.0332462
0.065653
5.35716
12.0767
0.0612371
0.046187
0.505038
0.0843613
0.179393
3.95828
0.0251071
0.025461
0.025063
0.514911
0.0304072
10.7461
0.032161
0.0553722
0.0250904
0.0313309
0.0270292
0.025314
0.0287231
0.0285242
0.0353689
2.61418
0.0253745
0.0253379
0.0262356
4.9303
0.0250884
0.0260008
0.0357576
4.1956
4.25955
0.261592
0.0888681
0.798857
0.0247535
0.0249723
0.0929173
0.196861
0.0254964
13.5935
0.025432
0.491693
0.0254384
3.79757
4.06191
0.0250185
0.0249297
5.03028
0.0253565
0.0253476
0.0315735
14.5255
0.0453514
1.06646
0.0930232
0.0254416
0.0912633
0.0726775
0.0387054
4.15099
0.142306
0.0348633
0.167852
0.0254451
0.0252196
0.0256595
0.032169
22.0807
0.024937
0.0246846
0.0661681
0.0488967
9.47289
9.10979
0.120169
0.030674
0.0488547
0.0249173
6.40899
0.0255656
4.97879
0.0603442
0.0248646
0.0256365
6.66045
0.0994393
0.0251038
0.0252825
0.0260949
0.22901
0.102033
0.0251028
0.0247572
0.02467
0.0611466
5.17515
10.7964
0.0251453
0.0255778
5.03803
0.0248238
0.196379
9.91546
0.103029
0.0737091
0.034694
0.0255773
0.054586
4.11104
0.0255172
1.13108
0.0794121
0.0275116
0.0254648
0.0500585
0.0259994
0.056778
4.19191
0.0433507
0.0598306
0.0254063
0.0251113
6.63675
0.105367
12.945
0.0249697
5.73742
0.0251062
0.0348729
0.0257153
0.0254189
0.0254761
0.0255164
12.5989
0.0249698
0.148971
0.0342105
0.0260256
0.0413054
0.025188
3.84783
0.206148
0.02552
4.34102
0.0255968
13.0913
0.0343598
0.230735
0.69899
0.0255209
16.1954
0.0300162
0.0246791
5.9483
0.0251969
4.30685
0.0249707
0.0253359
0.0901932
0.0253334
0.0601513
1.67367
0.270015
0.0254031
7.58181
0.307304
6.97503
0.0251902
9.27368
14.1874
0.0254529
0.0603492
0.0253577
0.339803
0.0578448
3.99442
1.53563
0.122098
0.0247618
0.0256793
0.0383547
10.3842
4.2565
1.07135
0.0253402
4.12987
0.0256186
0.0253661
0.0252999
0.15121
0.0254334
0.0254347
5.30606
0.187127
0.0353411
0.254812
0.0254798
11.4492
0.0250444
0.0354147
0.0767931
0.0248927
11.1785
5.47477
1.2675
0.602331
5.47325
0.0250897
0.0252398
0.0247169
0.0850176
0.659497
0.0252616
0.0498577
5.5168
1.18693
0.469142
0.0392545
0.0406809
0.0294086
8.88168
0.0255612
0.0253083
0.0246707
0.0657226
6.78619
3.91769
26.3322
0.0337653
5.38491
0.025337
0.0255545
0.0253548
0.0934524
0.0479953
0.187145
0.0970962
0.0340549
0.0253394
0.041311
0.033265
0.042762
12.1853
0.0253532
0.0253119
0.124813
0.172387
0.0249046
8.17972
0.0257869
0.0253565
0.0268804
4.70312
0.0252837
0.0254489
5.0525
0.144866
11.3522
0.51764
0.0251416
10.2479
0.0254412
6.02824
4.23545
0.0338254
0.256012
0.0324628
1.65758
6.60634
0.0711274
0.0249113
30.425
0.0252742
0.0481646
0.0253363
4.15067
0.0275423
0.121588
0.0324501
0.060666
0.0279865
0.288041
6.22315
0.025874
0.12086
0.640417
0.0875023
0.0402661
5.434
0.0252208
0.081061
0.0250923
0.0351652
0.025187
12.7736
13.3924
28.767
0.0250801
2.54376
0.0699234
0.0353176
4.26144
0.025509
0.025098
0.12721
0.0256758
0.201366
0.15864
0.0252297
0.0399151
4.59614
0.0256405
0.0253491
0.0388328
5.29193
0.0492599
0.0423426
0.0315671
0.13121
0.169508
0.0381572
43.6793
7.165
0.0270961
0.0250732
0.0483829
0.0254246
0.0253433
4.14088
0.0250621
0.0253122
28.3458
10.4347
5.52502
4.29878
0.0251233
4.90898
0.0253735
0.0949982
11.5286
0.0255659
0.0253446
4.09427
0.0653929
0.0884606
0.0254962
0.0449933
0.0253344
0.0300738
4.48628
13.1866
0.140233
0.0254379
0.0249592
0.0267326
0.0264335
4.52193
4.06255
0.0265916
2.49357
0.37148
0.731038
0.664494
4.21531
0.0254911
5.61116
7.42203
5.33819
0.0251565
0.0597773
19.5506
0.342445
0.0482769
0.0479745
0.035104
0.398861
3.41107
0.025146
0.0254632
6.7493
11.3275
4.01483
0.0255071
0.02534
16.1542
4.47171
0.0271014
0.0367639
0.0254376
0.0260174
10.348
8.26394
0.0344012
4.25928
4.12893
0.0253193
0.026949
10.9011
0.0660667
0.0507581
10.9865
0.0251162
0.0256217
0.0253584
0.0253782
0.0261009
4.1787
0.0267158
0.02564
0.0252408
0.0581335
2.82429
3.70795
0.0254594
0.378013
0.0253903
0.310184
4.38924
41.3932
0.0267854
21.0208
0.335245
0.225247
4.39297
0.236049
0.0921292
4.09139
4.08886
4.25094
0.0250423
13.2575
0.0421448
4.27647
0.0254525
0.157078
0.0246313
8.45602
0.0814888
4.02848
4.32871
0.0873123
0.0254598
0.0909744
0.0856167
0.206843
0.303492
0.0251847
0.0411464
6.86665
0.388093
0.0482322
0.0726004
0.0253132
4.25152
0.0251691
21.0008
4.13145
13.2406
4.07958
0.0605836
3.94389
0.156272
10.6209
4.14471
4.16015
7.06799
7.13749
0.0408107
0.160462
12.915
0.749125
0.215588
4.0208
0.0250681
0.0254378
0.0253337
0.100819
0.0253421
7.05674
0.0256719
0.0577442
0.0253108
0.0942561
0.0260643
0.0255358
0.0248561
0.0285375
0.0399326
0.0254892
0.0545708
3.45692
0.0862079
3.54914
0.0288163
11.1433
0.0251782
2.75887
0.0256353
0.0254007
0.0256643
0.0254805
22.4538
0.0398358
0.0311075
0.0253306
0.0253933
0.0252568
0.750337
0.0252158
0.0515584
5.15127
13.8333
5.03164
0.0252041
12.7951
3.961
0.0268675
9.28563
0.0403441
0.160742
0.0614636
0.149397
0.0253406
0.0257479
0.0470751
0.0269086
9.10769
0.0246895
0.0251021
6.6399
31.4627
0.0253105
0.0251599
0.135271
0.0335467
0.0254264
0.31026
0.0253196
31.3248
0.0254573
5.11854
0.0276959
0.0294157
0.704899
5.51956
24.7086
0.0397818
3.98656
0.0251718
0.0593868
0.187188
0.0253399
0.025462
0.0248907
0.0249567
0.0612744
0.0605982
4.18308
11.7326
0.120524
0.124607
10.632
4.23592
2.11255
0.0286185
0.0344227
0.025193
5.02195
0.0253322
0.0251199
0.0419051
0.025335
0.170575
0.025669
0.0258128
4.61462