/*--------------------------------*- C++ -*----------------------------------*\
| =========                 |                                                 |
| \\      /  F ield         | OpenFOAM: The Open Source CFD Toolbox           |
|  \\    /   O peration     | Version:  v2012                                 |
|   \\  /    A nd           | Website:  www.openfoam.com                      |
|    \\/     M anipulation  |                                                 |
\*---------------------------------------------------------------------------*/
FoamFile
{
    version     2.0;
    format      ascii;
    class       surfaceScalarField;
    location    "200";
    object      phi;
}
// * * * * * * * * * * * * * * * * * * * * * * * * * * * * * * * * * * * * * //

dimensions      [0 3 -1 0 0 0 0];
oriented        oriented;


internalField   nonuniform List<scalar> 
81198
(
-0.140869
0.00591075
0.134958
-0.097941
0.0481568
0.0497843
0.0811003
-0.250466
0.169365
0.00916573
-0.00506418
-0.00410155
0.00307569
-0.00748652
0.00441084
-0.00244636
0.00240184
4.45258e-05
-0.00021197
0.00011799
9.39807e-05
0.0955514
-0.0581384
-0.0374131
0.08663
-0.0635144
-0.0231156
-0.226241
0.06148
0.164761
-0.0460538
0.0870074
-0.0409536
0.000105147
-0.00202206
0.00191692
-0.0142603
0.0212815
-0.00702123
0.238194
-0.1617
-0.0764933
0.0532211
-0.0159831
-0.037238
-0.0824761
0.062582
0.0198941
0.0525826
0.0429689
0.0323955
-0.0574625
0.025067
-0.0576967
-0.168544
0.0492592
-0.0740609
0.0248017
0.24372
-0.16262
0.146808
-0.0882661
-0.0585424
-0.0892688
0.178113
-0.0888442
0.00517114
-4.30146e-05
-0.00512813
0.129051
-0.282314
0.153262
0.0767946
-0.0281562
-0.0486385
0.0537354
-0.194604
0.0509527
-0.0849568
0.0340042
0.00278343
-0.00412295
0.00133952
0.0808778
-0.170147
0.0447683
0.0320263
0.0237718
-0.0516124
0.0278407
-0.0984958
0.245707
-0.147211
-0.00182615
-0.00431651
0.00614266
0.00724511
-0.0388238
0.0315787
0.274994
-0.11625
-0.158744
-0.0682883
0.00295603
0.0653323
-0.0538806
-0.0440604
0.154996
-0.102692
-0.052304
0.0530925
0.093716
-0.00234236
-0.00604499
0.00838735
-0.0708531
0.0424336
0.0284195
-0.302361
0.112458
0.189903
-0.14801
0.172216
-0.024206
0.0137136
0.00218402
-0.0158976
0.0834091
0.033213
-0.116622
0.0424405
-0.0701036
0.027663
-0.0200817
-0.0323213
0.052403
0.0884053
-0.228106
0.1397
0.0868375
-0.0865832
-0.000254333
-0.255784
0.157288
-0.0651
0.206492
-0.141392
0.0757706
0.0516555
-0.127426
-0.00434789
0.0180615
-0.0875776
0.048759
0.0388186
-0.157517
0.349435
-0.191918
0.0152582
0.00698871
-0.0222469
-0.0642411
0.028653
0.0355881
0.0690857
-0.0332743
-0.0358114
-0.0252435
-0.00609246
0.031336
-0.202122
-0.100239
0.0320342
0.077513
-0.109547
0.156062
0.0821313
-0.00424537
0.00808032
-0.00383495
0.15017
0.0522683
-0.202438
-0.0602565
-0.0222196
0.00861251
-0.0153276
0.00671505
0.050645
-0.0393642
-0.0112808
0.0074929
-0.00630075
-0.00119216
-0.008542
0.00151014
0.00703186
-0.219506
0.154406
-0.0350479
0.042293
0.23551
-0.0853404
0.0229389
-0.0394843
0.0165454
-0.0862971
-0.0480181
0.134315
0.0559631
0.056911
-0.112874
0.114276
-0.0442773
-0.0699988
-0.00877003
-0.0226462
0.0314162
3.35207e-05
0.00297928
-0.0030128
0.0241355
-0.00639562
-0.0177398
0.343013
-0.229129
-0.113884
-0.00348367
0.00832464
-0.00484098
-0.0105027
-0.137507
0.0202935
-0.025101
0.00480743
-0.0627463
0.121635
-0.0588885
0.0378536
-0.0149146
0.00500622
-0.00357089
-0.00143533
-0.0155526
0.0625416
-0.046989
0.0321492
-0.0166166
-0.0155326
0.169916
-0.0878468
-0.0820689
-0.00530143
0.00530143
0.1183
-0.0707035
-0.0475967
0.033082
-0.0710268
0.0379447
0.0797085
-0.0250255
-0.054683
0.0593085
-0.091375
0.0320665
0.00292801
-0.00336926
0.00044125
0.0226405
0.0125031
-0.0351437
0.0436094
0.0156166
-0.0592259
0.0911814
0.0385791
-0.12976
0.0793691
0.00746846
-0.045901
-0.101846
0.147747
-0.00224556
-0.00204308
0.00428864
-0.12581
0.0532487
0.0725616
0.141025
0.0951024
-0.236127
0.0543793
-0.0306076
0.0381259
-0.0746166
0.0364907
0.0659021
-0.00696613
-0.058936
-0.0604938
0.0449412
-0.0595127
0.115476
0.00246822
0.0244315
-0.0268997
-0.018108
0.00969068
0.0084173
0.132927
0.109234
-0.242162
0.0943311
0.0755846
-0.0660436
0.043008
0.0230356
-0.110839
-0.0385703
0.14941
0.00114755
-0.00536077
0.00421322
-0.00627417
-0.00226783
-0.00708885
0.00284347
0.00487031
-0.00669646
0.0699639
-0.0368819
0.00551412
0.0025662
-0.196186
-0.0770504
0.273236
-0.00824197
0.00877422
0.0171908
0.0786689
-0.0958597
-0.249254
0.166781
0.0824724
-0.0127643
0.002698
0.0100663
-0.0576919
-0.0440354
0.101727
-0.128404
-0.12085
0.00395282
-0.0025526
-0.00140022
-0.0142212
0.0203674
-0.00614627
0.203556
-0.31895
0.115395
0.168841
-0.106724
-0.0621166
-0.0525787
0.112148
-0.0595696
0.158685
0.116309
0.0254833
0.0928169
-0.0258641
0.0206943
0.00516977
0.173481
0.0271424
-0.200624
-0.0188746
0.0351961
-0.0163215
0.116124
0.104426
-0.22055
-0.205533
0.125022
0.080511
0.00993935
-0.00259129
-0.00734806
0.0145267
-0.035505
0.0209783
-0.114381
0.0618022
0.0333137
0.0204334
-0.0537471
0.109628
-0.048418
-0.0612103
0.0144211
0.0362238
0.00173234
-0.00171266
-1.96758e-05
0.00224241
-0.0705307
0.0186775
-0.0350838
0.0164063
0.0683029
0.0881146
-0.156417
0.0201098
0.0148748
-0.0349846
0.0541755
-0.138294
0.084119
0.0333673
0.0394589
-0.0728262
0.0481972
0.0315114
-0.0850448
0.163748
-0.0787032
0.0322417
-0.0286037
-0.00363796
-0.106421
0.0603674
0.0221593
0.0100824
-0.0168947
0.0413335
-0.0244388
0.128084
0.0293962
-0.15748
-0.0242055
-0.035001
0.0592065
-0.0286361
0.091634
-0.0629979
0.00631568
0.00362366
-0.000677088
0.00216951
-0.00149242
0.0919853
-0.0410326
-0.200206
0.11979
0.080416
0.33306
-0.189096
-0.143963
0.280424
-0.164352
-0.116072
-0.0107604
0.00989658
0.000863785
0.17718
0.0982084
-0.275388
-0.0569989
0.055243
0.00175585
-0.00965513
-0.0162089
0.0166953
0.117142
-0.313328
-0.0658246
0.0939465
-0.0281218
0.249112
-0.159975
-0.0891367
0.00755365
-0.0194956
0.011942
0.0742644
-0.11607
0.0418051
0.067667
0.0408965
-0.108563
0.00738121
-0.00972357
-0.00119237
0.00348538
-0.00229301
-0.0883128
-0.148081
-0.00400266
0.0023025
0.00170016
0.112228
0.0108791
-0.123107
0.283927
0.0319164
-0.315843
0.00384765
-0.00384765
-0.070319
-0.096273
0.166592
-0.117946
0.0919035
0.0260422
-0.206206
0.0445059
0.0367316
-0.0646636
0.027932
0.0997013
0.0145161
-0.0342242
0.0197081
0.00657354
0.000101966
-0.00667551
0.119591
0.115919
0.00772113
-0.0079011
0.000179964
0.000774567
0.000957772
-0.146586
0.166056
-0.0194699
0.0321571
-0.0978985
0.0657414
-0.0212754
0.00493343
-0.00491815
-1.5289e-05
-0.102655
0.0796356
0.0230199
-0.0118369
-0.00092739
0.0360433
0.0334032
-0.0694465
-0.0836853
-0.042125
0.0340621
-0.121656
0.0875938
0.115012
-0.0809499
0.01113
-0.0279966
-0.141315
0.0785683
0.122255
0.0327412
0.194964
0.14805
-0.211871
0.00783153
0.204039
-0.168045
-0.0381611
-0.240964
-0.0450887
0.121018
-0.0759293
0.0949024
-0.0355939
-0.0244871
-0.0313461
0.0558333
0.0267977
-0.0213869
-0.00541076
-0.0258587
-0.00869634
0.0345551
-0.0105336
0.000633253
0.00990036
0.0671238
-0.21371
-0.0407677
0.103524
-0.0627565
-0.0142218
0.02948
-0.0456968
-0.0251563
-0.167225
0.122094
0.0451309
-0.0222584
-0.0010394
0.0232979
0.110625
-0.0799337
-0.0306913
0.253646
-0.283977
0.0303311
0.0550361
-0.0226406
0.255835
-0.162403
-0.0934325
-0.0441912
0.0272964
-0.10008
0.0423883
-0.0306141
-0.025962
0.0565761
-0.00144885
0.00144885
0.00706357
0.276863
-0.0996672
0.101498
-0.00183042
-0.0184357
0.0410763
-0.0526272
-0.00437169
0.275659
-0.00676607
-0.268893
0.0112965
-0.0267361
0.0294364
0.246223
-0.0397155
-0.12751
-0.0972986
0.0522099
0.0203899
0.00162666
-0.0220166
0.0726361
-0.0554458
-0.0171904
-0.0995451
-0.0428912
0.142436
-0.151481
-0.00499337
0.00840003
-0.00263321
-0.00576682
-0.0535401
0.0427524
0.0107877
-0.280658
0.234057
0.0466009
0.0355018
-0.0597073
0.0352519
0.0373842
-0.00156562
0.00144051
0.000125113
0.0262653
-0.0075208
-0.0187445
-0.278599
0.167047
0.111551
0.0812874
-0.167584
-0.329214
0.215971
0.113243
-0.00596693
0.000653126
0.00531381
0.125392
-0.11723
-0.00816185
-0.0673925
0.0327742
0.0346183
0.124607
-0.0353683
-0.089239
0.029089
-0.0663302
0.0372412
-0.00139051
0.00308126
-0.00169075
0.138131
-0.0846186
-0.0535122
0.00492731
6.12845e-06
-0.0658573
-0.0288175
0.0946748
-0.0960598
-0.108137
0.204197
0.0022023
-0.0026977
0.0004954
-0.0857105
-0.194947
0.0193595
0.0607199
-0.0800794
-0.0692884
-0.130918
-0.0371935
0.0231432
0.0140502
0.0529034
-0.0298595
-0.023044
0.0758581
0.0273792
-0.103237
-0.149127
0.155038
-0.145017
-0.00646391
-0.0718964
0.176472
-0.104575
-0.0190518
0.0929876
-0.0739357
-0.00517613
0.0254697
0.168859
-0.185564
0.0167047
-0.0257777
0.0682182
0.0422837
-0.2747
0.232416
-0.0994944
0.119613
-0.0201183
0.162292
-0.0934805
-0.0688115
0.00781165
-9.05219e-05
0.00504048
0.00335955
0.00794769
-0.00170622
-0.00624147
0.0363412
0.280879
-0.0773227
0.0511376
0.0584907
-0.0308933
0.00611663
0.0247767
-0.00187442
0.0003088
-0.00736347
0.0038798
-0.14781
-0.130788
-0.108945
0.265694
-0.156749
0.00296748
0.0552095
-0.058177
0.279112
-0.0254661
0.0127676
0.01403
0.0230606
0.0298428
-0.191878
0.0810392
0.0200131
-0.0462648
0.0262517
0.0551944
-0.0238258
-0.0313686
0.0530904
-0.144845
0.0917544
0.00868096
-0.220552
-0.2783
0.282399
-0.00409935
-0.0511047
-0.0950014
0.146106
0.0538139
-0.145629
0.0918154
0.0598538
0.0261731
-0.0860269
0.00184058
-0.0019483
0.000107721
-0.0754418
0.143745
-0.205315
0.11508
0.0902347
0.018887
0.0073783
-0.0790857
0.0442802
0.0348055
-0.00618518
-0.00196208
0.00814726
-0.124377
0.0247094
-0.00931941
0.00495417
0.00436524
-0.000585077
0.00278737
0.026323
-0.0150265
0.0525273
-0.0548764
0.00234913
0.041205
-0.0680649
0.0268599
-0.0663777
-0.0851163
0.151494
0.037283
-0.077
0.039717
0.0903382
-0.212444
0.122106
-0.0285532
0.0571235
-0.0285703
0.0652293
0.026756
-0.012114
-0.0159935
0.0281075
0.0874456
-0.0761141
-0.0113314
-0.00382375
-0.0349316
0.0387553
0.113434
-0.209493
-0.00341962
0.00222725
0.0833542
-0.0661634
-0.217081
0.00120879
0.215873
-0.105599
0.0895955
0.0160034
-0.0258104
0.166835
-0.0885245
0.0598884
-0.307635
0.0293357
-0.014227
0.0141474
7.96015e-05
-0.0128133
-0.0804241
0.0932374
0.0062382
-0.00416222
-0.00207598
0.0253283
-0.045339
0.0200107
-0.060684
-0.0443644
0.105048
-0.0468502
-0.0322355
-0.0396241
0.115395
0.00881496
-0.00637101
-0.00244394
0.0256633
0.0997289
0.152536
-0.0987217
0.0101355
-0.0669015
0.056766
-0.0431411
-0.0434421
0.052679
-0.0326659
0.0554285
0.00508803
-0.0605165
-0.0186349
-0.0281463
0.0467812
0.00767807
-0.00767807
-0.279592
0.170647
0.0364963
-0.063171
0.0266747
-0.0761133
0.0412439
0.0348694
-0.0879137
0.169301
-0.0813876
-0.304199
0.102077
0.0425424
0.02305
-0.0655925
-0.0607107
-0.140596
0.201307
0.175941
-0.0619412
-0.114
-0.202495
0.137869
0.0646253
-0.0551685
0.0306814
0.0541335
-0.0949011
0.132974
-0.0764693
-0.0565051
-0.00127511
0.00276134
-0.00148623
0.042206
-0.0243737
-0.0178324
-0.0684852
0.122255
-0.0537702
-0.203733
0.143022
-0.0218075
-0.113757
0.0681106
0.0456467
-0.106372
0.225963
0.152631
-0.100168
-0.0524628
0.0891334
-0.140238
0.224608
-0.13427
0.0644302
-0.130808
-0.0905251
0.0804614
0.0100637
0.00286397
-0.0244502
0.0215862
-0.0957475
-0.0849435
0.180691
0.0711773
-0.0300713
-0.0411059
-0.0427922
0.11865
-0.00071485
0.000148189
0.000566661
0.00279445
-0.00347153
-0.0405477
0.0534425
-0.0128948
0.0149168
0.0203442
-0.035261
-0.0348285
-0.0187116
-0.0311289
0.0671722
-0.0269824
-0.00528015
0.0322626
0.00922316
-0.00154509
0.211226
0.0283221
-0.00793216
-0.022754
-0.00115845
0.0239125
0.0205496
-0.0168699
-0.00367967
0.0394025
0.0296831
-0.100313
0.0874994
-0.189264
-0.114935
-0.00155998
0.0054003
-0.00384031
0.00499985
-0.00508206
8.22032e-05
0.0484376
0.0227397
0.0208054
0.0175623
0.0095242
-0.0270865
-0.0768735
0.0768508
2.26635e-05
0.0364687
0.0655626
-0.102031
0.00723051
0.0480557
-0.0552863
0.00101646
0.00518548
-0.00620194
0.0315164
-0.0678719
0.0363554
-0.0595208
0.0309677
-0.0222496
-0.0135874
0.035837
-0.349078
0.233804
0.115274
-0.0146682
0.029585
0.0851973
-0.236001
0.150803
-0.0053012
0.0489106
0.0437234
-0.0528364
0.009113
-0.17526
0.079513
-0.125665
-0.0798681
-0.0198197
0.0603477
-0.040528
-0.129629
0.236603
-0.106974
-0.000257877
0.00304131
0.0896301
-0.00454873
-0.0850814
-0.132129
-0.0340522
0.166181
-0.0742656
0.160345
-0.0860792
-0.0324054
0.0976346
-0.00832695
0.0374663
-0.0291394
1.90738e-05
-0.000231044
0.0268981
-0.080569
0.0536709
0.0439735
-0.0797447
0.0357711
-0.00261024
0.00101978
0.00159045
-0.00788127
0.00169609
-0.010425
0.0117313
-0.0013063
0.094407
-0.0315343
-0.0628727
0.00795298
-0.00795298
-0.0169944
-0.0508949
0.0678893
-0.006526
0.00554212
0.000983877
-0.0242814
-0.028854
0.0531354
-0.00264601
-0.0066734
0.0840716
-0.0242178
0.0899528
-0.0724929
-0.0174599
-0.138484
0.0382858
0.100199
0.0331528
-0.18228
-0.0331757
0.0210617
0.0419968
-0.0053161
-0.0366807
0.0624531
-0.0204562
0.000885328
-0.00216044
0.245698
0.0827082
-0.328406
0.262606
-0.0958241
-0.242079
0.0889779
0.153101
0.00172004
-0.00180322
8.31804e-05
0.0594236
-0.0564562
-0.183483
-0.00656892
0.190052
-0.000906974
0.128991
-0.0294936
0.0628609
-0.0196086
0.0224726
0.00206684
0.0504604
0.0191988
0.026114
-0.0453128
0.0137964
0.0284096
-0.0553435
0.0417747
0.0135689
0.00673817
0.00242756
-0.00737523
0.0188712
-0.011496
0.0145591
-0.0668898
0.0523308
0.00861488
-0.225696
-0.00656243
0.0899716
0.0375042
-0.0712871
0.0337829
0.0365162
-0.219999
-0.131492
0.237128
-0.105636
-0.00279596
-0.0079644
-0.0685147
-0.0745273
0.143042
0.105753
0.0914714
-0.197225
0.0245765
0.0485822
-0.0731587
-0.0268312
-0.0283373
0.115647
-0.134808
0.0191603
-0.106093
0.0471312
0.0589619
-0.0652125
0.0468187
0.0183938
-0.00607315
-0.00179283
0.00786598
2.73925e-05
-0.00532882
0.0770182
-0.0665269
-0.0104912
0.157785
-0.277992
0.120206
-0.00453424
0.00445147
8.27682e-05
0.140544
-0.0863686
-0.0861691
0.263349
-0.0395997
0.013741
3.41853e-05
-0.000113592
7.94065e-05
0.118431
-0.00278358
-0.0850279
0.0215135
-0.161375
0.00202673
0.159348
0.00233916
-0.0250932
0.0187761
0.0578367
-0.0766128
0.0543371
-0.186466
-0.0284809
-0.025084
0.0504123
-0.00437535
-0.0145619
0.0189373
0.292559
-0.163508
-0.028906
-0.0016479
0.0305539
-0.00721275
-0.0161491
0.0233619
0.237431
0.088962
-0.326393
0.256112
-0.145153
-0.110959
0.0581247
-0.118809
0.00502777
-0.00388022
-0.161069
0.131206
0.0298635
0.036773
0.00402586
-0.0407989
-0.103007
0.0616369
0.04137
-0.0111958
0.0549192
-0.199292
0.154638
0.0446535
-0.0591414
0.0241404
0.00445009
-0.00149259
-0.0029575
-0.0537305
0.0276717
0.0260588
-0.0234169
-0.226086
0.178394
0.0476914
-0.0422292
-0.0230671
0.0652963
0.122682
0.0311345
-0.153817
-0.00542249
0.0357022
-0.0302797
-0.0501928
0.0259113
0.157403
-0.278842
0.121438
0.136013
-0.155197
0.0191835
0.0674428
-0.0447149
-0.0227278
-0.000990714
-0.00161952
0.121775
0.000684652
0.0485746
0.00249705
-0.00666545
0.0041684
0.00580297
-0.0200632
0.0986346
-0.209224
0.110589
-0.00556276
0.0131164
-0.183535
0.117679
0.0658561
-0.0202153
0.0625204
-0.0423051
-0.0621456
0.11916
-0.0570145
-0.0468392
-0.11423
-0.0990163
-0.02311
0.122126
-0.130197
-0.0751183
-0.077845
0.000971512
-0.00883354
0.0400281
-0.0311946
-0.0129716
0.0201046
-0.00713304
-0.00450587
-0.000412275
-0.1311
-0.045159
0.0212438
0.0239151
0.102495
-0.0660265
0.0367691
-0.0222424
-0.10224
0.183226
-0.0809864
0.204494
0.0581117
0.248249
-0.161436
-0.0868139
0.00121873
-0.195427
-0.0199929
0.0625354
-0.0117072
0.0776093
0.234283
-0.13889
-0.0953931
-0.0760337
-0.0596438
0.135677
0.0210692
0.026535
-0.0476042
-0.0013648
-0.00263786
-0.135762
0.101256
0.0345066
0.0021733
0.00177952
-0.00102098
-0.00494596
0.253077
-0.0956735
0.000723811
-0.000867832
0.000144021
0.203206
-0.0974521
0.0153398
-0.0339747
-0.118168
0.0413953
0.0767723
0.02985
-0.0566812
-0.00240156
-0.0265044
-0.0569409
-0.0152839
0.0722248
0.0259108
0.0384527
-0.0643635
-0.00419819
0.00837892
-0.00418073
0.00517114
-0.0261402
-0.00423245
-0.00601973
0.0102522
-0.0841448
-0.157934
-0.269221
0.276285
-0.0663811
0.0465614
-0.0386761
-0.067417
-0.00517406
0.000668185
-0.0573637
-0.103665
0.161029
-0.000511691
-0.00601431
-0.0366066
-0.0916206
0.128227
0.0764546
0.0761759
0.0752199
-0.0358174
0.214806
-0.116171
-0.0732907
-0.0323083
0.0062577
-0.0195431
0.0132854
0.0568731
0.048063
-0.104936
0.0166285
-0.0468206
0.0301921
0.00597535
-0.0034783
0.0246878
-0.0334578
0.00162848
0.022507
-0.0022308
-0.000215564
0.00604797
-0.0134232
-0.252992
0.0657016
0.187291
0.139345
0.108341
-0.247686
0.128797
-0.0656872
-0.0631098
-0.167923
-0.0581628
-0.140611
0.0763419
0.0642695
-0.046756
0.033948
-0.0634416
0.0406188
-0.0990039
0.0583852
-0.0374515
0.059283
-0.0218315
0.114197
-0.056021
-0.0581756
-0.0890472
-0.0494371
0.000874547
0.00571785
-0.00659239
0.0714642
0.0229428
-0.0559616
-0.0193552
0.0753167
-0.019441
0.131669
0.0018528
-0.0020849
0.000232099
-0.00165404
9.88909e-05
0.00155515
0.209081
-0.153612
-0.0554692
-0.229264
-0.0629144
0.292178
-0.00736836
0.00317017
0.00290623
0.00333196
0.150458
-0.0808458
-0.0696119
0.122316
-0.000410184
-0.000540325
0.00095051
-0.002197
-0.00173636
0.00393336
0.019263
-0.0236384
0.00147547
-0.00153443
5.89562e-05
0.0399
0.0548983
-0.0947983
-0.114613
0.089267
0.0253461
0.0687038
-0.0305779
-0.0594727
0.0488533
0.0106194
0.129058
0.046883
0.0671427
-0.296406
0.0135859
-0.0396436
0.0260576
0.0771243
-0.0141501
-0.0629742
-0.0565738
-0.0615938
0.070479
0.0624955
0.0318307
-0.0579023
0.0260716
0.013417
0.0141171
-0.027534
0.0174581
-0.28668
-0.123207
0.262552
-0.00531166
0.00526865
-0.0389848
-0.0228869
0.0618717
0.0423264
-0.0358108
0.0169362
-0.0168679
-0.0169471
-0.0425256
-0.00263898
0.00329671
-0.000657731
0.00214
-0.00255018
-0.0346283
-0.0374233
0.0720516
0.0419408
-0.0625038
0.020563
-0.123426
-0.0601091
0.0619457
-0.151016
0.0890703
-0.0488129
0.0560434
0.171487
0.037594
0.0121743
-0.0774229
0.0652486
-0.0471278
0.0418117
-0.0512341
0.00497647
0.0462576
0.105993
-0.0653745
0.0139107
-0.00529818
-0.0637687
0.0129414
0.0508273
0.107769
-0.190908
0.0831389
-0.0549703
-0.00879842
0.277493
-0.170848
-0.106644
0.159535
-0.128241
-0.031294
-0.000184674
-0.0267978
0.0167016
-0.0133264
-0.00337522
-0.00585357
0.00143154
0.00442203
0.0642566
-0.0482529
-0.0160037
-0.0102896
0.00611907
0.00417056
-0.201717
-0.0512752
0.0338241
0.0286289
-0.00216599
-0.000470766
0.00263676
0.0230268
-0.0282029
0.113318
-0.221612
0.108294
0.0946644
0.152752
-0.247416
0.00116787
0.00140537
-0.00257324
0.0184446
0.0406302
-0.0590748
0.0738421
0.140121
-0.297729
0.157609
-0.0314431
-0.103853
0.135296
-0.23268
0.0790674
0.00463384
-0.00463384
-0.0257953
0.0282635
-0.20279
0.171637
0.0311532
0.124193
-0.196767
0.0725738
0.00657354
-0.0291198
0.0630679
0.141147
-0.0792012
0.212838
0.0675868
-0.178837
0.0765966
0.0871829
0.00244721
-0.116136
0.0865873
0.0295484
-0.0486594
-0.0613262
0.109986
0.0699853
-0.0440745
-0.00844
3.53278e-05
0.00840467
0.0341281
-0.0154506
-0.0549586
0.0958551
0.234799
-0.121481
-0.0756298
0.183983
-0.108354
0.0774634
0.0848286
0.0475732
-0.0645676
0.269347
-0.00083786
0.00174199
-0.000904125
0.000128162
-0.000398075
0.000269914
-0.0459133
-0.0720324
0.175941
0.0477415
-0.223682
0.219448
-0.124957
-0.0944917
-0.0212696
0.0490317
-0.0277621
-0.00649106
0.0134798
0.219976
-0.144134
-0.0758417
0.138153
-0.0782021
-0.0599505
-0.00160019
-0.00249407
0.00409426
-0.130159
0.111946
0.018213
-0.0811962
0.0943071
-0.0131109
-0.0109775
-0.00515842
0.0161359
-0.0467275
0.0170017
-0.0180411
-0.00024373
0.00332628
-0.00308255
0.0660603
-0.0369713
0.184622
-0.0924267
0.115974
-0.0235473
0.00474848
-0.00630709
0.00155861
0.0118816
-0.0371251
0.144635
-0.00862211
-0.0045505
0.00230494
0.118757
0.0751554
-0.193913
0.00606638
-0.0013179
-0.0136141
0.0874081
-0.0737941
0.060159
0.0602105
-0.12037
0.0595696
-0.132571
0.0730019
0.0528911
0.166975
-0.219866
0.00388282
0.00121439
-0.00509721
0.13291
-0.249146
0.116236
0.0597941
-0.0287545
-0.0310397
0.00173061
3.83106e-05
-0.00176892
0.0722173
-0.0581425
-0.0140748
0.0959952
0.0724405
-0.168436
-0.025586
0.0391719
-0.00210315
0.00517884
-0.103886
0.00439196
-0.00800107
0.00915877
-0.0011577
0.0754203
0.00159789
0.0106374
-0.00588985
-0.00474754
-0.00422444
0.00516421
-0.00093977
0.00694196
-0.00418459
-0.00275737
0.262717
-0.129807
0.0599143
-0.0273621
-0.0325522
-0.0967942
-0.0445204
-0.114791
0.0833476
0.249816
-0.0819743
-0.167841
0.0882285
0.00757095
-0.00757095
-0.00415799
-6.64542e-05
0.0138578
-0.0123576
-0.0015002
-0.0328629
-0.0224807
-0.0126666
0.00709151
0.00557509
0.176188
0.038105
-0.214293
-0.0528701
0.0850272
0.0882858
-0.236329
0.148043
-0.109466
0.16544
-0.0559744
0.033453
-0.0189369
0.0266717
-0.0319518
0.00232051
-0.038138
0.0358174
-0.229435
-0.0596764
0.289112
-0.00137404
0.000536182
-0.0324346
0.0270121
0.000671254
-0.000884012
0.000212758
0.0632069
-0.0326294
-0.0305775
-0.0112701
-0.0233644
0.0346345
0.0299503
0.0332566
0.0289109
0.0269866
-0.0558975
0.0030212
-0.00291606
-0.00592323
0.0081308
-0.00220757
-0.0433922
0.0221225
-0.00135861
-0.0053822
0.00674081
-0.234383
0.104754
0.0308299
-0.0174129
-0.0103723
0.042836
-0.0324637
-0.0750368
0.0400539
0.034983
0.00376047
-0.0141855
0.00249214
-0.0154637
0.00258696
0.0134303
-0.0160172
0.0489866
0.0419398
-0.0909264
-0.0165241
-0.000430521
0.0169546
0.0718675
-0.0286092
-0.0432584
-0.00657178
0.0241341
-0.0262221
-0.00477991
0.031002
0.140651
-0.0640592
-0.076592
-0.0985495
0.223963
-0.125414
0.138769
-0.207714
0.0689446
0.242926
-0.15464
0.00649459
-0.00206627
-0.00442832
-0.00900622
0.0644347
-0.0294554
-0.0851577
0.226373
0.103394
-0.247339
0.143946
0.142546
0.0634494
-0.205996
0.0631526
-0.0344996
0.151456
0.0967932
0.00287345
-0.00443344
0.0640682
-0.045214
-0.0188542
-0.00368637
0.00465878
-0.000972413
0.176199
-0.0802041
-0.0237803
0.00747389
-0.00645743
-0.138808
-0.116976
0.00335561
0.00358635
-0.0300702
-0.00712322
-0.0029764
-0.00411244
0.0034624
-0.00235436
-0.00110804
-0.193612
0.290883
-0.0972714
-0.0477457
-0.0270678
0.0748136
-0.0408599
0.0803991
-0.0395392
0.0661606
0.10268
-0.032319
-0.0398714
0.0721903
0.0155296
-0.0341882
0.0186586
0.109417
0.0501185
-0.030587
0.0217535
-0.00152226
0.00409697
-0.00257471
-0.0437715
-0.0236209
0.0429276
-0.141471
0.0985429
0.271864
-0.200796
-0.0710677
-0.00501253
-0.0258808
-0.0717115
0.0417408
0.0299707
0.0318675
-0.0538465
0.021979
0.0538358
-0.0390942
0.068385
-0.0292909
0.0273752
-0.0363773
0.0736603
0.000372245
0.000299009
-0.0337828
-0.0212465
0.0550293
0.0994496
-0.0780519
-0.0213977
-0.00133171
-0.0556092
0.195731
0.0226571
-0.218388
-0.256526
0.203562
-0.0464338
0.0565694
-0.02787
0.0176855
-0.0352859
0.0176004
0.0713623
-0.0996412
0.0282788
0.0605608
0.0268848
-0.00572268
0.00684998
-0.0011273
-0.0353247
-0.0522529
-0.122517
0.0651261
0.0573912
-0.0662212
0.106121
0.0442613
-0.0714259
0.190111
-0.118685
-0.0934706
0.101436
-0.00796587
0.0713966
0.0667342
-0.00688327
0.00552466
0.0946846
-0.0171717
0.184763
-0.0085755
0.0952459
0.045491
-0.140737
0.207971
0.125089
-0.0268476
-0.0310419
0.0578894
-0.126742
0.0582567
-0.131084
-0.12904
0.260123
0.144367
-0.242917
-0.00243773
-0.0205234
0.0229611
0.25306
-0.15942
-0.0936401
-0.246186
0.0886694
-0.00124612
-0.0021735
-0.140666
-0.0920134
0.125129
-0.0649696
-0.00503434
0.000324975
0.00470936
-0.00501308
0.00454737
0.000465704
0.22213
0.0497338
0.0277524
0.0265777
-0.0543301
0.0255037
-0.00247693
0.00289069
3.73236e-05
0.182321
0.0735139
-0.00306463
0.00154237
-0.176302
0.104877
0.0113299
0.0087561
-0.020086
-0.135592
0.226001
-0.0904088
-0.00236838
0.00645395
-0.00408557
-0.0544761
0.0206933
0.0329515
0.0344912
0.147331
-0.104403
-0.00695598
0.00695598
-0.1186
0.0374034
-0.107238
-0.101527
0.208764
-0.143361
0.251702
-0.00891779
-0.0604625
0.0693803
-0.00753638
0.00763834
0.0714008
0.0568679
-0.128269
-0.303123
0.159315
0.143808
0.00280721
-0.000504713
-0.0924008
-0.0520077
0.144409
0.122255
-0.0668292
-0.0554258
-0.0173688
0.0180977
-0.000728919
-0.203418
-0.047048
0.04854
-0.158006
-0.0162232
-0.00114564
-0.00681096
-0.00109014
-0.282958
-0.0291732
0.17172
0.00445607
0.00161809
-0.00607416
-0.00833305
0.00240981
-0.0737732
0.0346791
-0.314336
0.162535
0.151801
-0.00709975
0.00809823
-0.000998478
0.000663855
-0.000806091
0.000142236
-0.00816404
0.00135308
0.258172
-0.15563
-0.102542
0.0817979
-0.0148162
-0.0669817
0.26335
-0.16434
-0.0990102
-0.0940287
-0.146936
0.0552105
0.0579806
-0.113191
-0.0347495
0.0699624
-0.0352129
0.000147377
0.000596029
-0.000743406
-0.244304
0.150276
-0.077415
0.0583631
-0.205526
0.206735
-0.0594696
0.226444
0.00203243
0.000774786
-0.0068347
0.00842959
-0.00159488
0.0153047
-0.0498852
0.0345804
-0.0266374
0.0568556
-0.0302182
0.00530168
0.143532
0.120692
-0.264224
0.00201234
-0.00361252
-0.00441699
-0.00256919
-0.000128509
0.10596
-0.0490868
0.00236549
0.00264072
-0.141589
0.0673237
-0.174949
0.10379
0.0711593
0.0866624
-0.0673029
0.0561916
-0.131612
0.0754209
0.0971516
0.0134734
-0.139792
0.262247
-0.122455
-0.00815394
0.000152866
0.00453288
0.00428208
0.00335652
-0.0039421
0.000585581
0.0223134
-0.0343639
0.0120505
0.0354169
-0.127844
-0.0190571
-0.0367227
-0.0121084
0.0142924
-0.0465078
0.0725434
-0.0260357
0.115366
-0.277037
0.161671
-0.00759004
0.000490282
0.000619357
-0.00115968
-0.200619
0.124989
-0.0417404
0.0492561
-0.0075157
0.175498
-0.204671
-0.0501981
-0.0679279
0.118126
-0.00220796
0.00666403
0.0294885
-0.0640268
0.0345384
0.25963
0.0316878
-0.291318
-0.00732821
-0.00100484
0.0226686
-0.228195
0.000376165
0.00146441
-0.02649
-0.0151598
0.0416498
-0.0272078
0.0567032
-0.0294954
0.0202396
-0.0418695
0.0216298
-0.0511255
-0.0713917
0.0541999
0.0229243
-0.0041386
0.0267358
-0.0225972
0.0843838
-0.0300465
0.0546008
-0.0245544
-0.0583324
0.0834473
-0.0251149
0.0233662
0.0335042
-0.0568704
0.0617874
0.0233208
-0.0851082
-0.0176461
-0.00425356
0.0119495
-0.00769597
-0.124991
0.178344
-0.0533536
-0.24091
0.0892831
0.151627
0.085137
-0.172344
0.0872988
-0.0720211
0.0160596
-0.236783
0.00723801
0.229545
-0.203604
-0.000393901
-0.00515898
0.00555288
-0.014465
0.00348744
0.0417074
-0.00819857
-0.0335088
-0.00705145
-0.00138855
0.128142
-0.0842142
-0.0439283
-0.0012054
-0.000243454
-0.123615
0.267147
0.111842
-0.0241738
-0.0277358
0.0519096
-0.206155
0.248438
0.0619905
-0.0283267
-0.0336639
0.0261782
0.0270429
0.023403
-0.0563471
0.0329442
0.027328
-0.0589393
0.0316114
-0.00387322
-0.000661018
-0.0396522
-0.0375233
0.0771755
-0.00478487
-0.00788174
0.0576938
-0.0531258
-0.00456802
0.0259678
-0.0301064
-0.00501984
-0.000955883
0.00597572
-0.0486199
-0.0514603
-0.0379385
0.0237167
-0.0243008
-0.0352994
0.0596003
-0.046268
0.112388
-0.06612
0.0398055
-0.03235
-0.00745555
0.00244077
0.023527
0.0547381
-0.0192363
-0.00810666
0.00127195
0.0008299
-0.000701738
0.277088
0.0790018
0.0491407
0.00228918
9.75802e-07
-0.00229015
0.242455
-0.141874
-0.100581
0.0712347
-0.113176
0.0419411
-0.0720561
0.098566
-0.0265099
-0.0581136
0.0309058
-0.0128497
-0.00367445
-0.142591
0.070695
-0.0373297
0.0707685
-0.0334388
-0.00930371
-0.0049233
-0.104652
-0.0702973
-0.189434
0.133319
0.0561149
-0.16289
-0.120068
-0.00344897
0.000809987
0.0287303
-0.0348227
0.0669133
0.0350123
-0.101926
-0.00389677
-0.000261215
0.000931447
-0.000207636
0.0831207
0.0949922
0.00267198
0.000218703
0.0425264
-0.0214572
0.0681145
-0.0478833
-0.0202312
0.0188094
-0.0155032
-0.00330624
0.0748371
-0.0395852
0.0178967
-0.0860761
0.0481567
0.0379194
-0.00633087
-0.00146106
0.00779193
-0.00704243
0.0568128
-0.0497704
-0.108627
-0.090173
0.1988
0.000483447
0.207756
0.0243462
-0.232102
0.257114
-0.155505
-0.101609
-0.105029
0.299992
-0.0217745
0.014629
0.00714552
0.284538
0.00211489
-0.286653
0.0218529
-0.0551272
-0.134077
0.0580431
5.59906e-05
-0.000826695
0.000770704
0.0258819
0.00149291
-0.0273748
-0.139342
0.248232
-0.108889
-0.12287
0.0717722
0.0510975
0.00951918
0.00433864
0.0931159
0.121118
-0.176496
0.0553782
0.20431
-0.119113
-0.0651433
0.0855956
-0.0204523
-0.132385
-0.0559753
0.188361
-0.0451202
0.0171225
0.0279976
0.118957
-0.0436826
-0.0752745
0.00705479
-0.243838
0.0321558
0.00764978
0.0347111
-0.0615587
-0.00222508
-0.000344113
-0.117307
0.0238366
-0.0544216
-0.00730976
0.00307222
0.00423753
-0.00228193
0.00231545
0.107807
0.126475
-0.0996739
0.0553095
0.176196
-0.0520026
-0.204925
0.161226
0.0436988
0.0685189
-0.0322058
-0.0363131
0.0857591
0.0430379
0.185549
-0.102429
0.0476846
0.0744098
0.0437089
0.0291277
-0.0728366
0.273758
-0.151716
-0.122042
-0.0157378
0.0114842
-0.0847229
0.026754
-0.044644
0.0715422
-0.183235
0.0195353
0.1637
0.0364208
-0.147887
0.111466
0.0624278
-0.108696
0.171285
0.077827
-0.05747
0.0238092
0.0399986
-0.0638077
-0.148819
-0.120841
0.269661
0.078736
-0.203727
0.171622
0.133904
-0.305525
-0.00463041
-0.000543642
0.0637102
-0.086939
0.0232287
-0.040061
0.0216252
0.135364
-0.0819506
-0.0534134
-0.000934168
0.00210179
-0.00116763
-0.014901
0.0174879
-0.0163792
0.0575842
-0.0330838
0.0678232
-0.0347394
0.0492847
-0.0822254
0.0329407
0.216371
0.0196471
0.0162279
-0.035875
-0.00614302
0.000420343
0.000162123
-0.00181616
0.0145434
0.0161299
-0.0306733
0.0585798
0.013184
-0.0717637
0.0302908
-0.0198648
-0.010426
-0.0443975
-0.0306394
0.0615063
-0.0406191
-0.0208872
0.0349555
0.00681916
0.0294534
-0.128999
0.102859
0.142848
-0.0705789
0.0635364
0.00134602
0.00514857
0.0352659
-0.0699156
0.0346496
-0.0711357
0.0388167
-0.18182
0.204477
0.0775188
0.0210472
0.0870859
-0.160302
0.0732158
-0.00292538
0.00167926
0.253325
-0.095539
0.0662368
-0.0364731
-0.0297637
0.0380149
0.0568192
-0.0948342
0.0411739
-0.0258692
-0.0936447
-0.0524085
0.146053
0.0104369
0.0388507
-0.0492875
0.031746
-0.0794917
-0.0232552
0.0521661
-0.136774
-0.0451759
0.18195
0.0929133
0.0437774
-0.0549797
0.0112022
-0.0130948
0.00547656
0.00761826
0.0380157
-0.0540143
0.0159986
0.0943677
-0.0823994
-0.0119683
-0.101455
0.080068
-0.17407
0.0940017
0.000272551
-0.000238366
-0.0290887
0.0201577
0.008931
-0.000257113
-0.000376219
0.000633332
-0.0101354
0.125147
0.0185366
-0.0491507
-0.0954808
0.0452827
-0.0181821
0.0895444
0.068829
-0.205603
0.0389069