/*--------------------------------*- C++ -*----------------------------------*\
| =========                 |                                                 |
| \\      /  F ield         | OpenFOAM: The Open Source CFD Toolbox           |
|  \\    /   O peration     | Version:  v2012                                 |
|   \\  /    A nd           | Website:  www.openfoam.com                      |
|    \\/     M anipulation  |                                                 |
\*---------------------------------------------------------------------------*/
FoamFile
{
    version     2.0;
    format      ascii;
    class       volVectorField;
    location    "200";
    object      U;
}
// * * * * * * * * * * * * * * * * * * * * * * * * * * * * * * * * * * * * * //

dimensions      [0 1 -1 0 0 0 0];


internalField   nonuniform List<vector> 
54593
(
(0.989662 0.0120903 -2.64576e-22)
(1.15022 0.0234316 0)
(1.01249 0.012849 5.74841e-24)
(0.283052 -0.0263761 0)
(-0.247802 -0.00491831 0)
(-0.0864578 0.00815681 0)
(0.00264901 -0.00481062 -8.03275e-21)
(1.17478 0.0148132 1.56156e-20)
(1.14172 0.0181667 -8.30269e-21)
(1.01871 0.0273872 -2.77341e-22)
(0.984307 0.0983204 0)
(0.103539 0.00149308 -6.41421e-21)
(0.272778 0.655084 0)
(1.03498 0.0172093 3.40579e-21)
(0.873894 0.327965 5.73608e-21)
(0.891126 -0.000911093 2.6895e-20)
(1.17401 0.0130576 -2.72073e-20)
(0.854888 0.228976 -4.34948e-22)
(1.01827 0.0271487 -5.61882e-24)
(0.866499 0.0495694 2.83905e-20)
(1.01265 0.013216 1.94863e-23)
(1.06107 0.0905616 -1.05158e-20)
(1.02018 0.0265521 3.04692e-22)
(-0.245705 0.00309812 0)
(1.01669 0.00214045 0)
(1.11787 -0.0758682 -2.96688e-21)
(0.989709 0.011729 3.03449e-21)
(1.09416 -0.0318778 -4.21721e-21)
(0.113224 0.00166104 6.17807e-20)
(1.02011 0.027012 5.68071e-22)
(1.11685 -0.0758261 2.86839e-21)
(1.01011 0.445128 0)
(1.00732 0.0136062 -8.54987e-22)
(-0.235016 0.000916358 -3.3063e-20)
(0.774537 0.0925334 0)
(0.999143 -0.00016044 -3.08298e-22)
(1.11209 0.168775 -1.3684e-20)
(1.15047 0.0251146 1.80958e-20)
(1.05768 0.0159984 -6.03414e-21)
(1.06257 0.0902404 6.6035e-23)
(0.219244 0.185077 0)
(1.33393 0.175235 -3.97154e-22)
(1.01464 0.0105276 -3.04175e-22)
(0.988511 0.0115945 6.70743e-21)
(0.434598 -0.20387 -5.82798e-20)
(0.953225 0.0383649 -1.54988e-20)
(1.08928 -0.0587305 6.01427e-21)
(0.921004 0.290944 5.6898e-21)
(1.02812 0.000867416 -3.24977e-21)
(1.14652 0.08201 2.57933e-21)
(1.00725 0.0132599 0)
(1.02892 0.000445932 0)
(1.06473 0.0580494 0)
(0.437641 -0.217708 2.39933e-20)
(1.16072 -0.0361823 -1.3059e-20)
(1.00879 0.000344787 -1.48509e-22)
(0.610457 0.344187 7.52836e-20)
(1.33319 0.16633 3.11519e-20)
(1.1576 -0.0338331 -1.39401e-20)
(0.669135 -0.020795 -1.03589e-20)
(1.01436 0.0104917 3.22291e-22)
(0.945385 0.0190992 -4.59361e-21)
(1.03537 0.0170503 0)
(0.251154 -0.0191504 0)
(0.997346 0.0140803 5.70162e-21)
(0.893931 -0.00151236 0)
(0.43573 -0.0593314 0)
(0.962146 0.446926 -7.42963e-21)
(-0.277457 -0.00219892 0)
(-0.278016 -0.00229162 0)
(1.02853 0.000498139 1.21094e-23)
(0.778229 0.0970215 0)
(0.99752 0.0143349 -4.69393e-23)
(0.946969 -0.0602226 -2.17596e-20)
(1.05964 -0.00779314 -8.0054e-22)
(1.0927 0.0099378 -1.2067e-21)
(1.09632 -0.0156471 0)
(0.683109 0.639491 -9.29962e-21)
(-0.121265 0.0170847 -3.39535e-20)
(0.478999 -0.63407 0)
(1.00935 0.000872826 -8.70567e-23)
(0.288045 -0.0367229 4.90796e-21)
(0.988647 0.0111868 -8.2938e-21)
(0.668462 -0.0751905 -3.05997e-20)
(1.01008 0.07709 -1.19458e-21)
(0.906469 -0.0624636 9.19427e-21)
(-0.163271 -0.00362874 -2.8539e-21)
(1.13434 -0.038589 5.37057e-21)
(0.65863 -0.243233 0)
(0.981325 -0.000382589 1.1181e-20)
(-0.174944 -3.75079e-05 -6.10369e-20)
(1.07125 0.103747 -4.12289e-21)
(1.19077 -0.0074618 -1.03079e-20)
(1.22857 0.218226 1.69062e-20)
(1.11127 0.084311 -3.39245e-20)
(0.107209 -0.0296808 0)
(0.920001 -0.096767 -9.92865e-21)
(1.20014 -0.0231068 0)
(0.974458 0.00451393 -4.4245e-21)
(1.1483 0.0804242 2.36502e-20)
(1.0199 0.050035 -5.80767e-24)
(-0.153999 -0.0152059 0)
(0.952274 -0.00639441 0)
(0.998996 0.0130365 0)
(1.01312 0.432873 0)
(1.02609 0.204357 0)
(1.08392 0.188556 1.50058e-20)
(1.13353 -0.037905 -2.84575e-20)
(1.09157 0.00937538 1.04176e-20)
(0.637635 0.0211164 0)
(0.487887 0.226582 3.50963e-20)
(1.00026 0.0134302 1.70559e-21)
(0.980763 -0.000422674 0)
(1.11546 -0.0773288 3.56863e-21)
(0.998781 0.0232256 1.89743e-23)
(-0.177213 -0.0759929 -5.55236e-20)
(-0.272711 -0.00232102 -1.67604e-20)
(0.239885 -0.0164564 1.45311e-21)
(-0.219841 0.000784081 5.88876e-20)
(1.18899 -0.0072625 0)
(0.251823 -0.018421 0)
(0.999791 0.000183644 -4.26883e-21)
(-0.290315 -0.00261568 4.40593e-20)
(1.08109 -0.0336816 9.28171e-21)
(1.01275 0.018369 3.06231e-22)
(0.347617 0.194209 0)
(0.952211 0.0201011 -8.10683e-21)
(1.0124 0.0181813 3.52328e-22)
(0.134551 -0.00737232 -8.71497e-21)
(0.503928 -0.0602137 -1.25174e-21)
(1.01429 0.000270838 -4.75561e-22)
(1.00583 0.0469368 1.91776e-21)
(1.09442 0.00754199 0)
(0.999033 -0.000167308 2.79783e-21)
(1.07363 0.103518 1.75542e-20)
(0.185026 -0.882222 -1.60025e-21)
(1.0346 0.00073056 0)
(0.905757 -0.0941469 0)
(0.999353 0.0130544 0)
(0.993751 -0.000369337 2.92221e-22)
(-0.316383 -0.00447851 -4.23689e-20)
(0.719926 0.213089 0)
(1.09347 0.00816049 0)
(1.33512 0.263865 -1.58866e-20)
(1.09274 0.111978 8.05968e-21)
(0.971832 0.445475 5.96313e-21)
(-0.0646747 -0.0096126 -4.54017e-21)
(1.10855 0.168897 1.65647e-20)
(0.89648 -0.0754652 0)
(1.05321 0.0062326 -9.19852e-23)
(0.653435 -0.0549844 3.37245e-22)
(0.983669 0.0406001 3.4446e-21)
(1.12773 -0.065353 2.0538e-20)
(1.229 0.214284 -3.41252e-20)
(1.00356 0.0322985 -9.0459e-22)
(0.783952 0.0940662 0)
(0.985292 0.0969973 4.18268e-21)
(0.81353 0.0955923 2.00063e-20)
(0.841053 0.326122 2.31511e-20)
(0.974984 0.00739046 -1.34863e-20)
(1.27572 0.240463 1.38731e-20)
(0.919065 0.0108261 3.03825e-20)
(-0.31903 -0.00139053 8.84817e-20)
(0.0854198 -0.0219472 -2.01372e-20)
(1.09338 -0.0314906 0)
(1.04981 0.0125539 3.47255e-21)
(1.0131 0.000665086 8.44793e-23)
(1.01293 0.00831883 2.31173e-22)
(0.095596 -0.350806 9.57826e-20)
(1.00001 2.55e-05 -1.54465e-22)
(1.10653 -0.0800498 -6.91565e-21)
(0.180593 -0.795636 1.25436e-20)
(0.6564 -0.254953 -2.98741e-20)
(0.99982 0.000208103 3.78347e-21)
(1.14033 0.0156535 -3.867e-21)
(1.00789 0.0132384 0)
(0.536203 0.209526 0)
(0.94317 0.0508358 9.94726e-21)
(0.946411 0.0214798 0)
(0.239589 0.190442 0)
(-0.137766 -0.0142581 -2.11012e-20)
(1.02391 -0.000530691 -2.64924e-21)
(0.105871 0.00672131 -2.23671e-20)
(1.01833 0.0517483 1.75293e-22)
(0.999881 0.00104226 7.7806e-22)
(0.115777 0.00045799 0)
(1.05101 0.00483282 0)
(0.979751 0.0822995 2.861e-21)
(1.03512 0.0177995 -2.81027e-21)
(1.31738 0.152547 1.47979e-20)
(0.945295 0.0207519 5.07314e-21)
(0.886782 -0.0826167 5.74078e-21)
(-0.324498 -0.000107093 -1.6103e-21)
(0.997448 0.0147759 0)
(-0.329695 -0.000709859 0)
(-0.06451 -0.0101974 -4.74417e-21)
(0.990143 0.0178413 -6.83491e-21)
(0.964157 0.0862228 0)
(1.11645 -0.0773343 -3.30356e-21)
(-0.196445 -0.00611671 -7.32291e-21)
(1.07731 0.105638 0)
(0.349849 0.182682 -6.4687e-20)
(1.13546 -0.0322578 2.17723e-20)
(0.953228 -0.00617461 9.69824e-21)
(0.983157 0.0512063 8.70178e-23)
(0.984279 0.0511571 3.80615e-21)
(0.57508 -0.894889 1.41435e-20)
(1.01045 0.0754598 9.59031e-22)
(1.05804 0.0155692 -2.07271e-21)
(1.00962 0.000902663 -1.4436e-22)
(0.994063 0.00161764 0)
(1.03458 0.0178985 -2.07352e-21)
(1.02366 -0.000477398 1.25508e-21)
(1.09168 0.00362316 -8.05268e-21)
(1.11045 0.0825835 1.81692e-20)
(1.15817 -0.0587684 0)
(0.633509 0.309051 0)
(0.872561 -0.079262 3.40614e-21)
(0.11625 -0.223473 0)
(0.990584 0.017691 4.55488e-21)
(1.06575 0.084594 -6.16934e-21)
(0.824176 0.455693 6.44429e-20)
(1.33056 0.179597 6.19601e-20)
(1.06301 0.0297518 -3.86029e-21)
(0.501429 -0.248912 8.97445e-22)
(1.11804 0.0601928 1.564e-22)
(1.00002 0.000758821 0)
(0.862047 0.229845 -2.33761e-20)
(1.01126 0.0125212 8.12212e-23)
(0.846263 0.318301 -2.85286e-20)
(0.953131 0.0206373 0)
(1.08918 -0.0739154 9.1372e-21)
(-0.0494259 0.00402431 0)
(0.999865 0.00116659 0)
(0.966093 -0.00264585 -4.14068e-22)
(0.946185 -0.098377 9.25767e-21)
(1.10747 -0.0794489 1.17674e-20)
(0.999475 0.00304525 -1.28888e-22)
(0.59444 -0.363099 6.7903e-23)
(0.999454 0.00321206 0)
(1.0623 0.0301368 -3.78118e-21)
(1.09281 0.00373767 0)
(0.664611 -0.0738784 -3.15536e-20)
(1.22793 0.09787 -1.40558e-20)
(1.06282 0.0158002 3.98996e-21)
(1.05945 -0.0136576 0)
(0.227748 -0.0450628 0)
(1.09137 -0.0897318 -1.09565e-20)
(1.01387 0.00792944 3.25825e-22)
(1.27852 0.244614 5.71325e-20)
(1.22739 0.0945326 1.29444e-20)
(0.0500047 -0.0267917 6.42945e-21)
(0.61166 -0.0796334 1.13257e-20)
(1.00563 0.00879688 0)
(1.05923 -0.00713201 3.38488e-22)
(1.01334 0.000362648 -8.36651e-22)
(-0.226091 -0.00202441 -8.16771e-21)
(1.01368 0.0698309 -6.96309e-22)
(1.22269 0.0121397 -1.52668e-20)
(1.05844 0.0928154 -6.72407e-21)
(1.03585 0.250636 0)
(-0.1016 -0.0177761 0)
(0.968082 -0.00512346 0)
(-0.190879 -0.00772792 0)
(1.11145 0.0791786 2.17669e-20)
(1.03135 0.013175 -6.82593e-22)
(-0.111584 0.0035302 0)
(1.01363 0.00788454 -9.32826e-22)
(0.96393 0.104405 0)
(1.04973 0.013106 0)
(0.900948 -0.0647356 -1.80882e-20)
(0.990677 0.687567 3.48502e-20)
(1.08842 0.073701 -5.98186e-21)
(0.989893 0.0124647 -7.18447e-21)
(1.05942 -0.0130798 0)
(1.00094 0.0291935 -2.01597e-21)
(0.942789 0.0165166 -5.20769e-21)
(0.691475 -0.0769192 2.21014e-20)
(1.02348 0.0159847 0)
(1.089 -0.0581613 -5.09266e-21)
(1.01527 0.000217588 2.93377e-22)
(1.09837 -0.000146355 -1.54732e-20)
(1.08079 0.0114977 7.46194e-22)
(-0.321403 -1.61319e-05 0)
(0.230109 -0.0448941 -7.28203e-21)
(0.256799 0.00505408 2.53624e-20)
(1.06044 0.0929831 6.16742e-21)
(1.01323 0.000318311 0)
(1.09493 0.11079 0)
(0.492086 -0.997165 3.24e-20)
(0.0615987 -0.0278263 -2.16667e-20)
(0.276214 -0.0340615 -5.54659e-21)
(1.00543 0.00863857 6.7865e-22)
(1.00166 0.00736749 0)
(1.11331 -0.0404957 -7.81905e-21)
(1.00004 0.000864668 2.50218e-22)
(0.654902 0.313306 0)
(1.00564 0.676538 -2.63936e-20)
(0.999009 0.022828 -1.90461e-21)
(1.10343 -0.0783734 7.06739e-21)
(1.09435 -0.0913759 6.4459e-21)
(1.05651 0.0312647 -6.22914e-21)
(0.994252 0.00149076 2.46538e-22)
(1.00002 0.000173984 3.92327e-23)
(0.997946 0.0283194 4.42597e-23)
(1.00248 0.0386286 -2.11088e-21)
(1.14746 0.0622246 -8.96611e-21)
(0.0713627 -0.00506137 0)
(1.05257 0.00607212 -1.01404e-20)
(0.991434 0.0180084 1.82318e-22)
(0.618337 -0.0805679 0)
(1.04746 0.208431 1.91613e-21)
(-0.322971 -4.23815e-06 -1.78792e-22)
(0.966628 -0.00211219 2.86017e-21)
(0.223866 0.0368568 9.44063e-20)
(-0.106072 0.00517768 0)
(0.57982 -0.371205 1.44367e-22)
(1.17362 -0.0800426 0)
(1.17486 -0.0490903 -3.88098e-20)
(1.03811 0.0389922 -3.85607e-23)
(1.17053 0.0440842 0)
(1.01455 0.00939934 0)
(1.14849 -0.0808261 -1.02902e-20)
(1.09274 -0.0323083 3.46893e-21)
(0.828117 -0.0931449 0)
(1.12742 0.13936 -2.47854e-22)
(0.810624 0.434048 5.07713e-21)
(1.03078 0.0130502 5.31561e-21)
(-0.124275 -0.015941 1.83847e-20)
(1.08153 -0.0342592 -1.69757e-20)
(0.995726 0.00160367 -6.40707e-21)
(1.04531 0.117629 0)
(0.998845 0.0132839 0)
(0.919216 0.00889865 8.47542e-21)
(1.00002 0.000141557 0)
(0.0721201 -0.554408 -4.56893e-20)
(1.07923 0.00175405 -9.57156e-21)
(0.21259 -0.00662391 -4.94337e-21)
(1.14029 -0.0857249 0)
(1.09009 0.0305913 1.29902e-22)
(1.04266 0.208945 1.62558e-21)
(1.06617 0.0584629 5.12163e-21)
(0.23881 -0.0440818 -6.56474e-21)
(1.01485 0.0699915 0)
(1.00317 0.0385209 -1.84953e-21)
(1.1615 0.254212 -6.01249e-21)
(1.14632 0.0839568 1.06674e-20)
(1.10315 -0.0774948 -8.39315e-21)
(1.17255 0.271092 0)
(1.01206 0.135085 -1.69123e-20)
(-0.256466 -0.00649623 -6.33732e-21)
(1.00165 0.00718232 2.45949e-21)
(1.14463 -0.0815835 0)
(1.22146 0.084632 5.27588e-20)
(0.9823 0.00684372 -1.38124e-21)
(1.01427 0.0107896 0)
(0.853697 0.00718585 -2.70121e-21)
(0.99981 0.00878731 -1.17303e-21)
(0.987884 0.0285562 -4.28696e-21)
(0.989118 0.016292 4.30869e-22)
(1.15778 -0.0574791 1.70424e-20)
(1.06613 0.0862784 0)
(1.02695 0.0690964 -1.31987e-21)
(0.115907 -0.00615435 -1.45316e-20)
(0.683999 0.285835 0)
(0.968916 -0.00297145 0)
(0.999715 0.00876976 -1.23254e-21)
(1.3271 0.170072 1.63516e-20)
(1.10219 -0.00873902 -6.74723e-21)
(0.997685 0.0149972 0)
(1.06907 -0.00295586 0)
(0.997463 0.0282853 -5.28393e-21)
(1.01451 0.00918123 3.84026e-22)
(1.03808 0.0396911 3.18438e-21)
(0.913476 0.0112143 2.06449e-20)
(0.35704 -0.983412 3.82085e-21)
(1.03637 0.0151548 -2.84043e-21)
(1.31973 0.13515 1.60921e-20)
(1.08829 0.0720108 0)
(-0.0127709 0.0290079 0)
(0.115692 -0.0223174 -1.99214e-20)
(0.805773 0.0571507 -1.57888e-20)
(0.664775 0.393396 0)
(1.09223 -0.0898065 1.24578e-20)
(1.13441 -0.0319324 0)
(0.76785 0.862819 0)
(-0.312037 -0.000280653 0)
(0.999188 0.0132611 0)
(0.688269 -0.0760738 3.15508e-20)
(0.529325 -0.258979 0)
(0.50222 0.0485515 0)
(1.15666 -0.0351325 -1.45209e-20)
(1.07847 0.00202611 -1.18121e-20)
(1.01398 0.0107373 0)
(0.20456 0.0033778 5.52427e-21)
(0.191117 -0.00505022 -7.5221e-21)
(1.31735 0.130949 -1.56376e-20)
(1.14183 0.0163055 0)
(0.586833 0.194157 -6.50052e-20)
(1.12062 -0.0308957 4.64605e-21)
(1.01455 0.0801983 6.48447e-22)
(1.15897 0.154087 -1.65645e-20)
(-0.237267 0.00362925 -1.75799e-20)
(1.23751 0.168877 -1.00472e-19)
(1.14864 -0.0793234 -9.70999e-21)
(0.854351 0.539332 -2.53242e-21)
(1.01768 0.000154415 2.71768e-21)
(0.653451 0.407992 0)
(1.00593 0.0142926 0)
(1.20041 -0.0246848 0)
(1.10106 -0.0901141 1.19365e-20)
(1.03667 0.0155741 0)
(0.994062 -0.00029649 -2.7923e-22)
(1.09106 0.271898 -1.28543e-20)
(1.00073 0.0140611 0)
(0.0868663 -0.00211772 -4.12687e-20)
(1.11243 -0.00627106 2.8161e-20)
(0.988762 0.00561959 0)
(1.00261 0.0424981 2.28314e-21)
(1.09192 -0.0320758 6.05271e-21)
(0.708772 0.115942 -3.13197e-20)
(0.00650296 -0.00605804 0)
(1.13263 0.132756 0)
(1.15596 -0.0223256 -2.49936e-20)
(-0.0823456 -0.00628241 4.44436e-21)
(-0.330535 -0.000484017 6.58756e-21)
(0.384629 -0.0618399 1.19177e-20)
(1.13269 0.0757803 1.41259e-20)
(-0.242548 -0.00080203 0)
(1.03416 0.171363 9.06069e-23)
(0.193984 -0.0425053 2.62181e-20)
(0.885195 0.195929 5.3594e-21)
(0.238282 0.0306543 -1.28382e-19)
(1.1461 0.0609091 3.9969e-21)
(1.12646 -0.024518 0)
(1.08307 -0.0183297 8.19444e-21)
(0.990267 0.0123722 6.28149e-21)
(0.857849 -0.0940958 0)
(1.00007 0.351312 -2.54327e-21)
(1.00653 0.358421 0)
(0.104291 -0.00340765 1.60587e-20)
(0.999893 0.00123895 1.39213e-21)
(1.01301 0.0180813 -2.44575e-22)
(0.999314 0.00832145 -3.15427e-23)
(-0.071238 -0.00420152 -4.05e-20)
(1.11254 -0.0400816 -7.51987e-21)
(0.999126 0.0176172 0)
(0.974422 0.00718711 1.48886e-20)
(1.12683 -0.0643674 -1.07322e-20)
(0.259699 -1.22462 -4.72265e-20)
(1.17242 -0.0800416 -3.01103e-21)
(1.14241 -0.0859297 1.40921e-20)
(0.682969 0.297894 0)
(0.877651 0.255289 -1.45556e-20)
(0.282688 -0.0253181 0)
(0.103282 -0.661484 -8.55641e-21)
(0.997309 0.199717 7.773e-22)
(0.995899 0.00168114 6.9566e-21)
(0.951831 0.0386867 1.90559e-20)
(1.18778 -0.0151232 -2.04995e-20)
(0.998926 0.0173815 -7.53623e-22)
(1.01478 0.00891708 -5.88565e-22)
(0.107676 -0.332162 -1.04434e-19)
(0.985148 0.0344518 4.96636e-21)
(1.0204 0.0143598 1.47237e-21)
(1.18203 0.110985 1.6331e-20)
(1.15915 -0.056287 -3.88759e-20)
(0.97284 0.0143247 0)
(1.12304 0.0130757 0)
(1.32789 0.14598 2.91849e-20)
(-0.307082 -0.000338361 -5.65447e-23)
(-0.257158 -0.00210341 5.31914e-20)
(0.977156 0.156052 -4.0017e-21)
(1.02108 0.007012 0)
(0.162326 -0.00520116 8.00515e-21)
(0.984535 0.0407607 -5.84149e-21)
(1.00001 3.44942e-05 -3.83422e-22)
(0.894762 -0.0794747 -4.37072e-21)
(0.00104827 0.00553347 -6.53704e-21)
(0.97265 0.0147835 0)
(1.14323 0.0189243 1.76798e-20)
(0.988917 0.00626539 -9.75809e-22)
(0.541501 -0.253285 1.84582e-20)
(1.11192 -0.034838 0)
(0.988894 0.00524078 2.96698e-21)
(1.32699 0.150226 -2.75192e-20)
(1.13966 -0.0848889 0)
(0.42729 0.491444 5.53411e-20)
(1.01685 0.0022613 6.74779e-22)
(0.388575 1.02246 0)
(0.267979 -0.745557 0)
(0.999869 0.000969628 -3.94473e-22)
(1.0046 0.0120476 1.11407e-21)
(1.08883 0.0312516 8.16572e-21)
(0.0534051 0.112071 6.06752e-20)
(1.04247 0.0346944 -2.15953e-21)
(0.751871 0.155756 0)
(0.954825 0.0571954 0)
(1.10047 -0.0890926 -1.18845e-20)
(1.00409 0.0393273 0)
(1.27152 0.242337 3.97163e-20)
(-0.156075 -0.00354616 -3.55068e-20)
(1.09536 -0.0881315 -6.35682e-21)
(0.512941 -0.244722 0)
(1.01462 0.0230791 0)
(0.964796 0.227086 0)
(0.97461 0.00576158 0)
(0.708413 0.101625 3.48086e-20)
(0.879965 0.195266 -6.09221e-21)
(1.00984 0.0134213 1.91595e-22)
(0.985983 0.0264841 1.16182e-21)
(1.16868 0.306713 2.24447e-20)
(-0.0797396 -0.00545725 -2.24901e-20)
(0.97424 0.0061899 0)
(0.863045 0.0493115 -2.52165e-20)
(0.228639 -0.0341418 0)
(0.293182 0.618912 0)
(1.00614 0.00887909 0)
(0.40504 0.15442 1.42404e-22)
(0.994705 0.0156184 -2.98411e-21)
(1.13393 -0.0408459 -1.05057e-20)
(1.04584 0.0879597 9.54117e-22)
(1.04172 0.0347608 1.59035e-21)
(0.968713 0.00329308 1.22952e-20)
(0.991544 0.017496 5.35877e-21)
(1.12077 -0.0300991 -9.12548e-22)
(0.994377 0.036322 4.86643e-20)
(0.561011 -0.0762866 0)
(-0.196579 -0.0078103 1.13051e-19)
(1.02848 0.000811954 -1.9052e-23)
(1.05637 0.690618 0)
(1.01567 0.079185 0)
(0.728657 0.217121 0)
(1.00174 0.0310324 -8.65074e-22)
(1.01331 0.0182548 6.51529e-23)
(1.01085 0.0131821 0)
(-0.283572 -0.0020967 0)
(0.989072 0.00600527 1.582e-21)
(0.851377 0.00439903 1.30408e-20)
(1.08623 0.186587 -1.38713e-20)
(1.01133 0.0252582 -9.58747e-22)
(1.06215 0.0263216 3.98521e-21)
(1.15945 -0.0746316 -1.54963e-20)
(0.0996128 0.00696923 0)
(0.965015 0.0349054 -2.55941e-21)
(0.135199 -0.00668718 -8.4696e-21)
(-0.217507 -0.00338126 0)
(1.00996 0.0132268 0)
(0.0304948 0.0045283 0)
(1.02036 0.0140475 0)
(0.904375 0.119761 0)
(1.10396 0.0122593 0)
(1.15862 -0.0551864 0)
(0.229825 0.973346 4.58622e-20)
(1.2223 0.150491 -2.8905e-20)
(1.20379 0.0445074 0)
(0.23196 0.154358 6.98039e-20)
(-0.174705 0.00514076 0)
(1.1417 -0.0850654 -1.12615e-20)
(0.359078 -0.0260333 3.53369e-21)
(0.999358 0.00807125 0)
(0.99984 0.00122713 0)
(1.08703 0.267518 -1.03337e-20)
(1.1232 0.0146132 0)
(-0.201833 -0.00528195 -1.03227e-19)
(1.04258 0.0334467 2.07153e-23)
(0.184855 -0.0426924 -1.36066e-20)
(0.973664 0.0192751 -1.23714e-20)
(1.06866 -0.00370768 -7.99794e-21)
(1.15515 -0.0347233 1.18122e-20)
(1.0062 0.00880542 5.73724e-22)
(1.04331 0.116902 4.61141e-21)
(0.465913 0.0573863 -5.02386e-20)
(0.996272 0.0890021 3.09786e-21)
(1.21764 0.44063 4.06823e-20)
(0.216633 -0.031567 0)
(0.689656 0.608736 1.17229e-20)
(0.491595 -0.665377 -2.92073e-20)
(-0.0785047 0.00832584 2.72964e-20)
(0.0726488 -0.651273 0)
(1.00899 0.0139484 8.4205e-22)
(1.01291 0.00736574 3.48184e-22)
(1.084 0.0666646 8.87574e-21)
(1.01429 0.0228486 -1.54235e-22)
(1.02568 0.0727497 0)
(1.00388 0.0387769 0)
(1.12708 -0.0631038 -2.24723e-20)
(0.975589 0.0645972 0)
(1.1009 -0.0867363 1.42961e-21)
(1.09249 -0.000206366 0)
(1.08345 -0.0176087 -6.86744e-21)
(-0.271093 -0.00301424 0)
(1.13396 0.0744032 -1.60125e-20)
(1.13667 -0.00780809 8.66052e-21)
(1.01922 0.0516168 -7.61713e-24)
(0.0721275 -0.0295448 0)
(0.0567354 -0.0244531 -8.23138e-21)
(1.0159 0.0259752 0)
(1.00007 0.000481938 -7.46954e-22)
(0.226225 0.138944 -3.05083e-20)
(0.213643 -0.00635955 4.77846e-21)
(1.06231 0.0658464 0)
(0.974136 0.00508155 9.11312e-21)
(0.0297267 -0.0248633 0)
(-0.142962 -0.0116722 2.16195e-20)
(0.450981 0.479609 -5.01646e-20)
(0.0590358 0.00402525 -1.44591e-20)
(0.930993 -0.00987528 0)
(1.05471 0.0943665 6.56889e-21)
(1.02873 0.201001 0)
(1.1432 -0.0747649 0)
(0.987569 0.0290934 0)
(1.00006 0.000450788 4.38089e-23)
(0.779967 -0.0908715 0)
(1.16814 -0.0041187 -4.0451e-20)
(1.10411 0.0132465 -8.03262e-21)
(1.02833 0.0694555 0)
(1.20985 -0.0201893 0)
(0.784182 -0.0846757 -3.47665e-21)
(0.999869 0.00113476 3.69185e-22)
(1.01299 0.00713525 0)
(-0.220722 0.00538857 0)
(1.13308 -0.0582974 -6.52043e-21)
(1.13345 -0.0396919 -1.07859e-20)
(0.880058 -0.093033 7.29936e-21)
(0.226917 -0.737925 -8.39499e-21)
(1.1439 -0.0740461 0)
(0.118528 -0.0365239 0)
(0.0601871 -0.0265489 0)
(1.16147 -0.0136802 0)
(1.26534 0.0565136 -2.18931e-20)
(0.99486 0.0152374 -8.20467e-21)
(0.999467 0.0424027 -3.00021e-21)
(1.15658 0.152535 0)
(1.01633 0.0262567 3.40184e-23)
(1.09334 -0.0502555 2.4341e-21)
(0.999581 0.346199 0)
(1.29617 0.233545 -8.79733e-21)
(0.976945 0.0648352 -2.54028e-21)
(0.405535 -0.0579457 0)
(1.19598 -0.0153999 2.76528e-20)
(1.00995 0.0277418 0)
(1.19733 -0.0146952 -3.5664e-20)
(1.01361 0.0109684 -9.50518e-23)
(1.06206 0.0205625 1.87746e-21)
(0.750746 0.89126 1.72188e-20)
(0.406973 0.02573 8.67744e-20)
(0.179215 -0.0410147 -1.31969e-20)
(0.862086 0.116174 0)
(0.285807 -0.0516961 0)
(1.00875 0.0137161 -1.45172e-21)
(1.01546 0.35783 0)
(0.0914243 -0.0319495 9.13248e-21)
(0.735631 -0.0804533 -2.84734e-20)
(1.00321 0.00607755 0)
(1.02312 6.19574e-05 -1.23313e-21)
(-0.0906172 -0.0175115 0)
(0.836728 0.0425868 5.45468e-20)
(1.04283 0.0341091 2.23238e-21)
(1.00246 0.00153944 1.19833e-21)
(0.973806 9.08761e-05 0)
(1.01556 0.0263101 7.26731e-23)
(-0.145733 0.00202885 0)
(0.635444 0.0121176 1.01963e-21)
(1.03563 0.0162877 -2.21787e-21)
(1.04138 0.00100163 6.08912e-21)
(-0.22152 0.00180231 0)
(1.12588 -0.0624387 1.13047e-20)
(1.00019 0.0422221 3.18714e-21)
(1.01318 0.00835401 0)
(1.00118 0.0310362 0)
(1.11252 -0.00701944 -2.22901e-20)
(1.09956 0.0680742 -7.10997e-21)
(1.01816 0.0788793 3.24682e-22)
(1.20147 0.0443875 0)
(-0.330061 2.48512e-05 5.53235e-20)
(0.861163 -0.0764415 1.59062e-20)
(0.946389 0.0227881 -8.04064e-23)
(1.00327 0.00598605 9.14976e-24)
(0.995817 0.0151752 1.93483e-21)
(1.0807 0.0105386 1.04711e-20)
(1.03343 0.167763 -3.58099e-21)
(0.999862 0.00109769 -9.10532e-22)
(-0.061066 -0.0174261 -8.78772e-21)
(0.000425405 0.0145507 -2.971e-20)
(0.979479 0.0805659 0)
(0.994204 0.000980062 0)
(1.01347 0.0261229 0)
(1.08079 -0.083501 1.20426e-20)
(0.411625 0.232626 -1.33548e-19)
(1.03255 0.000582999 -1.37125e-21)
(0.975512 -0.00306305 -8.66075e-21)
(-0.144013 -0.0162586 1.07478e-20)
(0.98965 0.0586675 7.53822e-21)
(1.01025 0.0983277 3.11713e-22)
(0.43075 -0.139502 3.86445e-21)
(1.0352 0.0164093 0)
(0.486348 -0.240066 -1.00858e-19)
(-0.158065 0.00561814 6.47804e-20)
(1.0377 0.256024 -7.8594e-23)
(0.994059 0.00116916 2.56344e-24)
(1.00433 0.0765536 -2.79474e-21)
(-0.240004 0.00663577 -4.15137e-20)
(0.676326 -0.026132 0)
(0.986242 0.0269124 6.53638e-22)
(-0.138119 -0.0169498 0)
(1.00214 0.0163689 -2.54343e-21)
(-0.229505 0.00777589 4.37016e-21)
(1.14645 0.0932028 0)
(1.07312 -0.0167376 -2.8625e-21)
(0.991724 0.0494993 2.54432e-21)
(1.03373 0.000744912 -5.18068e-21)
(0.198952 -0.00788658 -3.48961e-21)
(1.00313 0.0036961 0)
(0.871822 0.236925 -1.18119e-20)
(-0.0592138 0.00666187 6.11233e-21)
(0.943203 0.176081 -2.35908e-21)
(1.03746 0.0209144 -2.5856e-21)
(0.774766 -0.088999 -5.00662e-20)
(-0.264136 -0.00339468 0)
(1.09777 0.000731112 2.35776e-20)
(-0.32506 -0.000137938 0)
(0.978424 0.15864 0)
(0.273459 -0.0467137 1.39949e-20)
(-0.15827 -0.0334456 4.61093e-20)
(-0.237765 -0.00681395 -6.37742e-20)
(1.00319 0.00359866 2.63889e-22)
(1.27235 0.267545 0)
(1.00893 0.0744521 -1.16798e-21)
(0.973889 -0.000464153 -4.7888e-21)
(1.01295 0.0119412 0)
(1.0139 0.0110393 -1.25982e-22)
(-0.233886 -0.000964467 0)
(-0.170801 -0.00766723 -1.11905e-19)
(0.380153 -0.0559425 -5.64111e-21)
(0.872491 0.251236 0)
(0.321686 0.100987 3.77501e-20)
(1.00012 0.0201573 2.67581e-21)
(0.962521 0.0873043 0)
(1.00229 0.003418 2.18748e-21)
(0.99153 0.021216 -3.5262e-21)
(0.859414 -0.081358 -5.73168e-21)
(0.752617 0.824328 -6.41615e-21)
(1.2681 0.0535074 0)
(1.00001 0.000625391 1.34417e-21)
(-0.0477485 -0.0190721 -7.52103e-21)
(0.703821 0.0945051 -2.258e-21)
(0.0318511 -0.0125226 -2.66785e-20)
(1.09876 -0.0876599 1.15768e-20)
(0.896502 0.0404517 1.78907e-20)
(1.09765 -0.0874143 0)
(1.13321 -0.0760844 0)
(0.122667 0.00340696 0)
(-0.335475 0.000955842 5.14781e-20)
(1.08108 -0.0843656 -1.3436e-20)
(-0.301042 -0.000565512 2.21424e-20)
(1.00052 0.0139459 0)
(0.81177 -0.0866575 7.70788e-22)
(1.04342 -0.00959673 4.08242e-20)
(1.11968 -0.0665625 0)
(0.401018 -0.0636312 -1.265e-20)
(0.542808 -0.0745924 1.61e-22)
(0.54214 0.0184152 -4.37717e-20)
(1.14486 0.0213819 1.71893e-20)
(0.515956 -0.0728823 2.53171e-21)
(0.84208 -0.0398775 -1.20422e-20)
(0.57372 0.196487 7.10324e-20)
(0.537459 0.937638 3.87444e-21)
(1.07413 0.00175934 -5.59614e-21)
(1.00212 0.00472807 -1.02929e-21)
(0.994193 0.000489053 -2.77847e-22)
(1.00232 0.00334426 -6.37853e-22)
(0.222931 0.00247435 1.06231e-20)
(1.17268 0.265697 -5.5478e-21)
(1.05285 0.0941476 5.68851e-21)
(1.03425 0.000518565 0)
(1.01487 0.0130893 -6.07975e-22)
(0.991288 -0.00122204 2.72063e-21)
(1.32891 0.165004 -4.93808e-22)
(1.01116 0.0133247 2.05975e-22)
(0.217248 0.00407974 4.5768e-23)
(1.11348 -0.0665356 1.18133e-20)
(-0.179319 -0.00406147 0)
(1.03723 0.0204218 3.12059e-21)
(1.09651 -0.0884665 -6.56246e-21)
(-0.253555 0.00327345 -1.67152e-20)
(1.00699 0.0130257 0)
(-0.236631 -0.00658553 0)
(0.89261 -0.0644156 0)
(0.238814 -0.0170713 -1.37875e-21)
(-0.12059 -0.00485251 0)
(1.00007 0.000449109 1.3813e-21)
(0.922683 0.109793 -2.45287e-22)
(1.15085 -0.0430364 0)
(1.0064 0.0477695 0)
(1.11676 0.122374 -7.53385e-21)
(0.892311 -0.0964578 8.87701e-21)
(1.06256 0.0199718 0)
(0.913684 0.0306405 -5.93265e-20)
(-0.125484 -0.0137304 3.2996e-20)
(1.22374 0.0138931 1.77219e-20)
(0.998985 0.0289034 -2.94621e-21)
(1.01222 0.00880325 0)
(0.42749 -1.05693 -3.91011e-20)
(0.974345 0.207159 -4.89172e-21)
(1.26849 0.00568003 0)
(1.01726 0.0798489 -3.61815e-22)
(1.12542 -0.0663875 -2.32341e-20)
(0.70312 0.109361 -8.29735e-20)
(1.16856 0.0433409 0)
(0.00979399 -0.0129346 -2.64811e-20)
(1.24095 -0.0184743 1.04182e-20)
(1.11265 -0.000475657 4.42587e-21)
(1.21935 0.151823 -9.15509e-21)
(0.99432 0.00215743 0)
(1.00005 0.00042602 -7.84154e-22)
(0.994099 0.00206225 -9.46288e-22)
(1.16665 0.258218 -1.39129e-20)
(0.494935 0.939014 0)
(0.899343 -0.0741686 0)
(1.11729 0.00151408 -1.34302e-21)
(1.13036 0.138002 8.85543e-21)
(-0.258207 0.0054345 -1.11122e-20)
(1.16172 -0.0350977 -1.53359e-20)
(1.10186 0.00159341 1.46408e-20)
(0.929871 -0.0081242 0)
(1.26639 0.0540895 0)
(1.02273 0.0167442 1.32342e-21)
(0.95279 0.00290178 1.40004e-20)
(0.967282 -0.00519341 -6.27702e-21)
(-0.28689 -0.00169105 -1.90696e-20)
(0.944102 0.0186237 -2.73514e-21)
(1.00042 0.0203669 -3.08732e-21)
(1.04754 0.0192178 0)
(1.01337 0.000673168 -8.52117e-23)
(1.16277 -0.030947 0)
(0.969399 -0.00360085 0)
(1.00251 0.00335022 0)
(1.00209 0.00460299 0)
(0.684236 -0.0191199 0)
(1.01359 0.0228701 0)
(1.00796 0.000165108 7.32247e-23)
(-0.117544 -0.0166347 -2.2109e-20)
(1.0151 0.0260421 -4.17311e-22)
(1.07234 -0.0165464 0)
(0.20474 0.00288825 -4.98609e-21)
(0.0369336 0.185181 -7.45439e-20)
(1.01248 0.00887984 0)
(1.23575 0.346688 0)
(0.755463 -0.0832979 3.7686e-20)
(0.0823999 -0.0289503 0)
(1.01155 0.0126375 7.92367e-23)
(-0.11009 -0.0153716 7.0746e-23)
(1.02284 0.0170581 -1.59099e-21)
(0.449585 0.226112 0)
(1.03219 8.24734e-05 -3.50476e-22)
(0.141605 -0.147002 0)
(1.25107 -0.0161479 0)
(1.17218 0.30186 2.88334e-20)
(0.999431 0.0287715 0)
(-0.229329 -0.00203518 -4.72946e-20)
(1.01007 0.0963909 0)
(1.01432 0.0178133 3.92333e-23)
(1.01311 0.00759585 -5.83791e-22)
(0.887942 0.0557277 -2.0735e-22)
(-0.309512 -0.000543685 1.51551e-21)
(1.05584 0.0649165 0)
(1.00267 0.0017216 -7.96611e-22)
(0.0736597 0.00473324 1.16874e-20)
(1.06034 0.0119814 6.48561e-21)
(1.0999 0.0430764 1.16408e-20)
(0.389953 0.401366 1.54067e-19)
(1.01219 0.012708 -6.93619e-23)
(0.991937 0.0210345 1.77862e-21)
(0.39845 0.386389 2.79161e-20)
(-0.321557 -0.00121593 0)
(1.02023 -0.000218896 -1.32815e-21)
(0.991084 -0.00101639 1.58303e-21)
(0.218409 -0.0129645 1.06332e-20)
(-0.323615 0.0019825 -4.8031e-20)
(1.12646 -0.0674349 1.05634e-20)
(1.01952 -8.94608e-05 -1.88397e-21)
(-0.317031 0.00266499 -3.28825e-21)
(0.0124396 -0.00264714 -8.87058e-20)
(-0.329701 -0.000564247 9.04556e-21)
(1.01323 0.0111733 9.3829e-23)
(1.19015 0.102218 -4.77925e-20)
(1.00657 0.0129284 8.18188e-22)
(1.02364 -0.000254049 -1.33044e-21)
(1.08 0.0721531 3.46358e-23)
(1.12577 -0.047453 -1.02954e-20)
(-0.0157211 -0.0228124 2.89816e-20)
(1.02339 -0.000199292 1.3068e-21)
(0.942614 0.0152022 -6.17169e-21)
(0.99571 0.00122892 5.86088e-21)
(1.03337 0.000571409 6.32489e-21)
(0.0883619 0.00348366 0)
(-0.334992 -0.000252048 1.25925e-20)
(1.28363 0.0885055 -2.80145e-20)
(0.809027 0.198699 3.59257e-20)
(0.241102 0.00906039 -5.36491e-20)
(1.00809 0.00508382 2.45349e-22)
(-0.128324 -0.017861 -1.06973e-20)
(0.29148 -0.446213 0)
(-0.108476 0.00499894 0)
(0.995686 0.0904797 -1.61659e-21)
(-0.16683 -0.00450155 -2.06734e-20)
(1.00186 0.0426063 -1.59202e-21)
(1.0267 0.0339169 -1.12766e-21)
(0.962072 0.106117 0)
(1.00146 0.0546932 2.17256e-21)
(1.1193 0.0591896 4.97395e-21)
(1.00575 0.0126047 8.28764e-22)
(-0.333022 -0.000187459 -1.46392e-21)
(0.240484 -0.043387 0)
(0.0343816 -0.14806 7.35995e-20)
(0.662273 -0.219934 4.8049e-22)
(1.00429 0.0751618 4.93286e-21)
(1.08062 -0.0695862 -3.70043e-21)
(0.419071 -0.194512 9.99976e-20)
(1.22939 0.152408 -2.94851e-20)
(1.01594 0.00247606 3.09869e-22)
(-0.308581 0.00312542 0)
(0.020803 -0.0245363 0)
(0.996142 0.0151081 3.26782e-21)
(1.09555 0.485011 9.60151e-21)
(0.991208 -0.000558118 -7.05494e-21)
(1.08322 -0.0127754 -7.41558e-21)
(0.227783 -0.015265 -1.27922e-20)
(1.14653 0.262549 1.97382e-20)
(0.999878 0.00119094 -6.51224e-21)
(-0.322756 0.000497738 9.14352e-20)
(0.99587 0.00111675 -7.90741e-21)
(0.0797542 -0.00642754 0)
(0.877263 0.415639 4.43704e-21)
(1.12878 -0.0729893 7.59763e-23)
(0.783943 0.295419 2.69511e-20)
(1.10208 0.00251736 -1.22331e-20)
(1.16804 -0.00529831 3.39513e-20)
(0.612977 -0.0918297 5.49081e-20)
(1.0326 0.000232279 1.45653e-21)
(1.10156 -0.0764865 1.39395e-21)
(1.14592 0.0573103 1.13137e-21)
(1.21626 -0.0260502 5.00901e-20)
(1.10266 0.129664 -2.74718e-21)
(0.86361 -0.0949067 0)
(0.537554 -0.0630405 -7.88764e-21)
(0.990472 0.000342659 1.63179e-20)
(1.00061 0.016385 -1.33378e-21)
(1.01395 0.0231081 -2.026e-22)
(1.00297 0.0323173 -8.8007e-22)
(1.13794 -0.00744334 0)
(0.998246 0.00756555 0)
(1.03291 0.000762004 -7.26079e-22)
(-0.212633 0.01255 0)
(0.442819 -0.144915 0)
(0.714354 0.0175574 3.23869e-20)
(-0.327224 0.000646425 -2.45785e-20)