/*--------------------------------*- C++ -*----------------------------------*\
| =========                 |                                                 |
| \\      /  F ield         | OpenFOAM: The Open Source CFD Toolbox           |
|  \\    /   O peration     | Version:  v2012                                 |
|   \\  /    A nd           | Website:  www.openfoam.com                      |
|    \\/     M anipulation  |                                                 |
\*---------------------------------------------------------------------------*/
FoamFile
{
    version     2.0;
    format      ascii;
    class       volVectorField;
    location    "200";
    object      U_0;
}
// * * * * * * * * * * * * * * * * * * * * * * * * * * * * * * * * * * * * * //

dimensions      [0 1 -1 0 0 0 0];


internalField   nonuniform List<vector> 
54593
(
(0.989662 0.0120916 -2.6455e-22)
(1.15023 0.023431 0)
(1.01249 0.0128488 6.39545e-24)
(0.283239 -0.0263756 0)
(-0.247803 -0.00491303 0)
(-0.0864389 0.00813586 0)
(0.00269102 -0.00481747 -8.03247e-21)
(1.1748 0.0148169 1.56183e-20)
(1.14173 0.0181637 -8.30418e-21)
(1.01871 0.0273864 -2.78557e-22)
(0.98431 0.0983213 0)
(0.103376 0.00149209 -6.41692e-21)
(0.272781 0.6551 0)
(1.03498 0.0172092 3.40704e-21)
(0.873901 0.327972 5.7352e-21)
(0.891126 -0.000908713 2.68946e-20)
(1.17403 0.0130607 -2.72122e-20)
(0.854892 0.228982 -4.34949e-22)
(1.01827 0.027148 -6.11563e-24)
(0.8665 0.0495726 2.83897e-20)
(1.01266 0.0132159 1.88422e-23)
(1.06107 0.0905627 -1.05188e-20)
(1.02018 0.0265513 3.05247e-22)
(-0.245622 0.00310004 0)
(1.01669 0.00214046 0)
(1.11782 -0.0758972 -2.96713e-21)
(0.989709 0.0117302 3.0342e-21)
(1.09416 -0.0318858 -4.21819e-21)
(0.113251 0.00163491 6.17783e-20)
(1.02011 0.0270113 5.69286e-22)
(1.1168 -0.0758532 2.86863e-21)
(1.01013 0.445133 0)
(1.00732 0.013607 -8.54336e-22)
(-0.234977 0.000905401 -3.30628e-20)
(0.774539 0.0925392 0)
(0.999143 -0.000158694 -3.08279e-22)
(1.11209 0.168775 -1.36859e-20)
(1.15048 0.0251143 1.80989e-20)
(1.05768 0.0159966 -6.03557e-21)
(1.06258 0.0902414 6.60416e-23)
(0.219244 0.18509 0)
(1.33391 0.175207 -3.96772e-22)
(1.01464 0.0105271 -3.04739e-22)
(0.988511 0.0115958 6.70683e-21)
(0.434596 -0.203858 -5.82799e-20)
(0.953226 0.0383662 -1.54978e-20)
(1.08927 -0.0587198 6.01612e-21)
(0.921011 0.290948 5.68846e-21)
(1.02812 0.00086633 -3.25065e-21)
(1.14652 0.082013 2.57965e-21)
(1.00725 0.0132606 0)
(1.02892 0.000444831 0)
(1.06474 0.0580499 0)
(0.437639 -0.217696 2.39934e-20)
(1.16075 -0.0362125 -1.30628e-20)
(1.00879 0.000344772 -1.49434e-22)
(0.610462 0.344163 7.52886e-20)
(1.33318 0.166325 3.11434e-20)
(1.15762 -0.0338611 -1.39439e-20)
(0.669134 -0.020787 -1.03588e-20)
(1.01436 0.0104912 3.22889e-22)
(0.945385 0.0191008 -4.59342e-21)
(1.03537 0.0170502 0)
(0.251348 -0.0191509 0)
(0.997347 0.0140807 5.70064e-21)
(0.893931 -0.00151005 0)
(0.435739 -0.0593737 0)
(0.962158 0.446932 -7.43267e-21)
(-0.277396 -0.00220346 0)
(-0.277958 -0.00229656 0)
(1.02853 0.000497053 1.21159e-23)
(0.778231 0.0970273 0)
(0.997521 0.0143353 -4.69432e-23)
(0.946922 -0.0602219 -2.17697e-20)
(1.05963 -0.0077965 -8.00689e-22)
(1.0927 0.00993299 -1.20694e-21)
(1.09632 -0.0156553 0)
(0.683118 0.639505 -9.29772e-21)
(-0.121265 0.0170742 -3.3956e-20)
(0.478994 -0.634055 0)
(1.00935 0.00087281 -8.76965e-23)
(0.288211 -0.036737 4.90568e-21)
(0.988647 0.0111881 -8.29306e-21)
(0.668547 -0.0752801 -3.06119e-20)
(1.01008 0.0770902 -1.19358e-21)
(0.906426 -0.0624612 9.19848e-21)
(-0.163366 -0.00362633 -2.85515e-21)
(1.13434 -0.0386153 5.37182e-21)
(0.658627 -0.243224 0)
(0.981325 -0.000380527 1.11806e-20)
(-0.174936 -3.75847e-05 -6.10324e-20)
(1.07126 0.103748 -4.12382e-21)
(1.19081 -0.00745567 -1.03101e-20)
(1.22857 0.218217 1.69072e-20)
(1.11128 0.0843125 -3.39298e-20)
(0.107239 -0.0296586 0)
(0.920139 -0.0968426 -9.92748e-21)
(1.20019 -0.0230998 0)
(0.974458 0.00451647 -4.4243e-21)
(1.14831 0.0804274 2.36531e-20)
(1.0199 0.0500346 -5.19459e-24)
(-0.153952 -0.0151876 0)
(0.952274 -0.00639245 0)
(0.998996 0.0130366 0)
(1.01313 0.432877 0)
(1.0261 0.204358 0)
(1.08393 0.188556 1.50085e-20)
(1.13353 -0.0379305 -2.84642e-20)
(1.09158 0.0093706 1.04197e-20)
(0.637635 0.0211249 0)
(0.487902 0.226589 3.50994e-20)
(1.00026 0.0134303 1.70518e-21)
(0.980763 -0.00042051 0)
(1.11541 -0.0773536 3.56891e-21)
(0.998782 0.0232272 1.89699e-23)
(-0.177216 -0.0759952 -5.55277e-20)
(-0.272652 -0.00232626 -1.676e-20)
(0.24008 -0.0164567 1.45256e-21)
(-0.219803 0.00077182 5.88873e-20)
(1.18903 -0.00725771 0)
(0.252017 -0.0184209 0)
(0.999791 0.000184665 -4.26851e-21)
(-0.290352 -0.00262083 4.40596e-20)
(1.08109 -0.0336875 9.28389e-21)
(1.01275 0.018369 3.05306e-22)
(0.347618 0.194221 0)
(0.952211 0.020103 -8.10647e-21)
(1.0124 0.0181813 3.51565e-22)
(0.134729 -0.00737629 -8.71076e-21)
(0.503909 -0.0602076 -1.25243e-21)
(1.01429 0.000270838 -4.75886e-22)
(1.00583 0.0469366 1.91686e-21)
(1.09442 0.00753675 0)
(0.999033 -0.000165537 2.79766e-21)
(1.07363 0.103519 1.75581e-20)
(0.185024 -0.882203 -1.60043e-21)
(1.0346 0.000729016 0)
(0.905866 -0.0941468 0)
(0.999353 0.0130545 0)
(0.993751 -0.000369444 2.92206e-22)
(-0.316421 -0.00448219 -4.2369e-20)
(0.71993 0.213097 0)
(1.09348 0.0081554 0)
(1.33513 0.263841 -1.58888e-20)
(1.09274 0.11198 8.06111e-21)
(0.971843 0.44548 5.96572e-21)
(-0.0647573 -0.00962064 -4.54208e-21)
(1.10855 0.168898 1.6567e-20)
(0.896526 -0.0755437 0)
(1.05321 0.00623 -9.20099e-23)
(0.653435 -0.0549762 3.37244e-22)
(0.98367 0.0406012 3.44413e-21)
(1.12771 -0.0653917 2.05416e-20)
(1.229 0.214276 -3.41273e-20)
(1.00356 0.0322992 -9.04274e-22)
(0.784024 0.0940544 0)
(0.985294 0.0969982 4.18161e-21)
(0.813604 0.0955801 2.00068e-20)
(0.841059 0.326128 2.31487e-20)
(0.974985 0.00739298 -1.34856e-20)
(1.27573 0.240452 1.38738e-20)
(0.919065 0.0108279 3.03818e-20)
(-0.319066 -0.00139376 8.84819e-20)
(0.0854554 -0.0219451 -2.01353e-20)
(1.09338 -0.0314985 0)
(1.04981 0.0125523 3.47341e-21)
(1.0131 0.000665041 8.4566e-23)
(1.01293 0.00831845 2.31725e-22)
(0.0955952 -0.350792 9.57833e-20)
(1.00001 2.55066e-05 -1.54379e-22)
(1.10647 -0.0800563 -6.91579e-21)
(0.180591 -0.795617 1.25443e-20)
(0.656397 -0.254944 -2.98745e-20)
(0.99982 0.000209039 3.78318e-21)
(1.14034 0.0156497 -3.86772e-21)
(1.00789 0.0132391 0)
(0.536229 0.209529 0)
(0.943171 0.050837 9.94665e-21)
(0.946412 0.0214815 0)
(0.23959 0.190454 0)
(-0.13779 -0.0142377 -2.11071e-20)
(1.02391 -0.000531217 -2.64999e-21)
(0.105897 0.00669443 -2.23666e-20)
(1.01833 0.0517478 1.74644e-22)
(0.999881 0.00104313 7.77966e-22)
(0.115646 0.000460008 0)
(1.05101 0.00483026 0)
(0.979754 0.0823001 2.86048e-21)
(1.03512 0.0177995 -2.8113e-21)
(1.31735 0.152532 1.47969e-20)
(0.945295 0.0207535 5.07294e-21)
(0.88683 -0.0825504 5.7404e-21)
(-0.32451 -0.000108203 -1.61026e-21)
(0.997448 0.0147765 0)
(-0.329761 -0.00070963 0)
(-0.0645945 -0.0102051 -4.74622e-21)
(0.990144 0.0178431 -6.8341e-21)
(0.964159 0.0862238 0)
(1.1164 -0.077361 -3.30381e-21)
(-0.196437 -0.00611627 -7.32233e-21)
(1.07731 0.105639 0)
(0.34985 0.182694 -6.4686e-20)
(1.13546 -0.0322808 2.17774e-20)
(0.953228 -0.00617261 9.69806e-21)
(0.983158 0.0512068 8.70176e-23)
(0.98428 0.0511576 3.80555e-21)
(0.575071 -0.894871 1.4139e-20)
(1.01046 0.07546 9.58223e-22)
(1.05804 0.0155673 -2.0732e-21)
(1.00962 0.000902639 -1.45067e-22)
(0.994063 0.00161754 0)
(1.03458 0.0178985 -2.0743e-21)
(1.02366 -0.00047792 1.25544e-21)
(1.09168 0.00361758 -8.05433e-21)
(1.11045 0.0825849 1.8172e-20)
(1.15819 -0.058828 0)
(0.633526 0.309059 0)
(0.872587 -0.0791849 3.40642e-21)
(0.116251 -0.223473 0)
(0.990585 0.0176927 4.55434e-21)
(1.06575 0.084595 -6.17088e-21)
(0.824223 0.455673 6.44449e-20)
(1.33055 0.179558 6.19382e-20)
(1.06301 0.029751 -3.86121e-21)
(0.501426 -0.248901 8.9741e-22)
(1.11805 0.0601936 1.56406e-22)
(1.00002 0.000759082 0)
(0.862052 0.22985 -2.33743e-20)
(1.01126 0.0125213 8.09243e-23)
(0.846269 0.318308 -2.85256e-20)
(0.953132 0.0206391 0)
(1.08914 -0.0738825 9.13856e-21)
(-0.0493992 0.0040201 0)
(0.999865 0.00116753 0)
(0.966093 -0.00264338 -4.14057e-22)
(0.946321 -0.0984501 9.25655e-21)
(1.10741 -0.0794573 1.17677e-20)
(0.999475 0.00304683 -1.28871e-22)
(0.594436 -0.363088 6.78838e-23)
(0.999454 0.00321364 0)
(1.0623 0.0301361 -3.7821e-21)
(1.09282 0.00373202 0)
(0.664684 -0.0739613 -3.15679e-20)
(1.22792 0.0978779 -1.40565e-20)
(1.06282 0.015798 3.99087e-21)
(1.05945 -0.0136606 0)
(0.227776 -0.0451217 0)
(1.09128 -0.0896939 -1.09549e-20)
(1.01388 0.007929 3.26382e-22)
(1.27852 0.244604 5.71343e-20)
(1.22738 0.0945413 1.2945e-20)
(0.0499295 -0.0268147 6.43255e-21)
(0.611781 -0.0797239 1.13265e-20)
(1.00563 0.00879723 0)
(1.05923 -0.00713534 3.38552e-22)
(1.01334 0.000362633 -8.3737e-22)
(-0.226134 -0.0020205 -8.17019e-21)
(1.01368 0.0698309 -6.95501e-22)
(1.22271 0.0121715 -1.52687e-20)
(1.05845 0.0928164 -6.72605e-21)
(1.03586 0.250637 0)
(-0.101631 -0.0177516 0)
(0.968082 -0.00512097 0)
(-0.190872 -0.00772741 0)
(1.11145 0.07918 2.17703e-20)
(1.03135 0.0131749 -6.82856e-22)
(-0.11149 0.00352878 0)
(1.01363 0.00788412 -9.34383e-22)
(0.963932 0.104407 0)
(1.04973 0.0131044 0)
(0.900929 -0.0647568 -1.80975e-20)
(0.990697 0.687578 3.48511e-20)
(1.08843 0.0737019 -5.98299e-21)
(0.989893 0.0124659 -7.18377e-21)
(1.05942 -0.0130828 0)
(1.00094 0.0291947 -2.0154e-21)
(0.94279 0.0165183 -5.20751e-21)
(0.691564 -0.0770115 2.211e-20)
(1.02348 0.0159843 0)
(1.08899 -0.0581513 -5.09421e-21)
(1.01527 0.000217579 2.93538e-22)
(1.09837 -0.000152973 -1.54764e-20)
(1.08079 0.0114939 7.46349e-22)
(-0.321469 -1.57176e-05 0)
(0.23014 -0.0449533 -7.28262e-21)
(0.256799 0.00506614 2.53622e-20)
(1.06045 0.0929841 6.16912e-21)
(1.01323 0.000318311 0)
(1.09493 0.110791 0)
(0.49208 -0.997147 3.23972e-20)
(0.0615245 -0.0278505 -2.16772e-20)
(0.276382 -0.034075 -5.54399e-21)
(1.00543 0.00863887 6.78139e-22)
(1.00166 0.00736741 0)
(1.1133 -0.0405113 -7.82076e-21)
(1.00004 0.000864968 2.50142e-22)
(0.654923 0.313317 0)
(1.00566 0.676547 -2.63942e-20)
(0.99901 0.0228296 -1.90417e-21)
(1.10338 -0.0783725 7.06765e-21)
(1.09425 -0.0913499 6.44495e-21)
(1.05651 0.0312644 -6.2308e-21)
(0.994252 0.00149068 2.46522e-22)
(1.00002 0.000174032 3.92122e-23)
(0.997946 0.0283209 4.42645e-23)
(1.00248 0.0386289 -2.11018e-21)
(1.14747 0.0622276 -8.9673e-21)
(0.0714905 -0.00506718 0)
(1.05257 0.00606954 -1.01426e-20)
(0.991435 0.0180101 1.82295e-22)
(0.61846 -0.0806589 0)
(1.04747 0.208433 1.91667e-21)
(-0.322903 -5.75935e-06 -1.78787e-22)
(0.966628 -0.00210971 2.86009e-21)
(0.223866 0.0368692 9.44055e-20)
(-0.105977 0.00517559 0)
(0.579815 -0.371194 1.44346e-22)
(1.17364 -0.0801347 0)
(1.17491 -0.0491355 -3.88242e-20)
(1.03811 0.0389922 -3.857e-23)
(1.17054 0.0440899 0)
(1.01455 0.00939885 0)
(1.14847 -0.0809138 -1.02925e-20)
(1.09274 -0.032316 3.46975e-21)
(0.828257 -0.0931885 0)
(1.12742 0.139361 -2.47858e-22)
(0.810632 0.434057 5.07644e-21)
(1.03078 0.0130501 5.31764e-21)
(-0.124297 -0.0159185 1.83899e-20)
(1.08153 -0.0342651 -1.69798e-20)
(0.995726 0.00160398 -6.40662e-21)
(1.04532 0.11763 0)
(0.998845 0.013284 0)
(0.919216 0.00890043 8.47523e-21)
(1.00002 0.000141595 0)
(0.0721193 -0.554392 -4.56901e-20)
(1.07923 0.00174921 -9.57353e-21)
(0.212793 -0.00662274 -4.94172e-21)
(1.14025 -0.0858076 0)
(1.0901 0.0305893 1.29919e-22)
(1.04267 0.208946 1.6261e-21)
(1.06618 0.0584635 5.1229e-21)
(0.23888 -0.0441357 -6.56382e-21)
(1.01485 0.0699915 0)
(1.00317 0.0385212 -1.84887e-21)
(1.16151 0.254208 -6.01304e-21)
(1.14632 0.0839599 1.06687e-20)
(1.1031 -0.0774936 -8.3936e-21)
(1.17255 0.271086 0)
(1.01215 0.13508 -1.69134e-20)
(-0.256516 -0.00649727 -6.33759e-21)
(1.00165 0.00718226 2.4586e-21)
(1.1446 -0.0816667 0)
(1.22146 0.0846427 5.27617e-20)
(0.9823 0.00684575 -1.38116e-21)
(1.01427 0.0107891 0)
(0.853697 0.00718931 -2.70117e-21)
(0.99981 0.0087873 -1.17278e-21)
(0.987885 0.0285581 -4.28639e-21)
(0.989119 0.0162938 4.30823e-22)
(1.1578 -0.0575365 1.70479e-20)
(1.06613 0.0862794 0)
(1.02695 0.0690965 -1.32176e-21)
(0.116073 -0.00615887 -1.45248e-20)
(0.684003 0.285844 0)
(0.968916 -0.00296891 0)
(0.999715 0.00876975 -1.23229e-21)
(1.3271 0.170084 1.63582e-20)
(1.10219 -0.00874726 -6.74865e-21)
(0.997686 0.0149978 0)
(1.06907 -0.00296017 0)
(0.997464 0.0282869 -5.28275e-21)
(1.01451 0.00918075 3.84637e-22)
(1.03808 0.0396912 3.18581e-21)
(0.913476 0.0112162 2.06444e-20)
(0.357036 -0.983391 3.82073e-21)
(1.03637 0.0151545 -2.84138e-21)
(1.31973 0.135135 1.6089e-20)
(1.0883 0.0720116 0)
(-0.0127663 0.0290009 0)
(0.115722 -0.0223151 -1.99196e-20)
(0.805775 0.0571556 -1.57885e-20)
(0.664781 0.393407 0)
(1.09215 -0.0897723 1.24557e-20)
(1.13442 -0.0319549 0)
(0.767863 0.862837 0)
(-0.312098 -0.000280978 0)
(0.999188 0.0132612 0)
(0.688346 -0.0761596 3.1565e-20)
(0.529322 -0.258968 0)
(0.502221 0.0485618 0)
(1.15668 -0.0351616 -1.45249e-20)
(1.07847 0.00202136 -1.18145e-20)
(1.01399 0.0107369 0)
(0.204376 0.003381 5.52477e-21)
(0.19132 -0.00505016 -7.51924e-21)
(1.31736 0.130898 -1.56354e-20)
(1.14184 0.016302 0)
(0.586835 0.194166 -6.50039e-20)
(1.12061 -0.0309129 4.64708e-21)
(1.01456 0.0801986 6.47332e-22)
(1.15897 0.154087 -1.65661e-20)
(-0.237241 0.00361852 -1.75801e-20)
(1.2375 0.168871 -1.00477e-19)
(1.14862 -0.0794082 -9.71204e-21)
(0.854362 0.539342 -2.53034e-21)
(1.01768 0.000154333 2.71884e-21)
(0.653457 0.408003 0)
(1.00593 0.0142935 0)
(1.20046 -0.0246784 0)
(1.10098 -0.0901074 1.19352e-20)
(1.03667 0.0155739 0)
(0.994062 -0.000296569 -2.79216e-22)
(1.09107 0.271897 -1.28563e-20)
(1.00073 0.0140614 0)
(0.0868944 -0.00214344 -4.12672e-20)
(1.11243 -0.0062801 2.81669e-20)
(0.988762 0.00562035 0)
(1.00261 0.0424982 2.28233e-21)
(1.09192 -0.0320833 6.05412e-21)
(0.708774 0.115949 -3.13191e-20)
(0.00654047 -0.00606591 0)
(1.13263 0.132757 0)
(1.15598 -0.0223441 -2.49998e-20)
(-0.0824163 -0.00628757 4.44613e-21)
(-0.330467 -0.000485176 6.58737e-21)
(0.384717 -0.0619071 1.19157e-20)
(1.13269 0.0757824 1.41278e-20)
(-0.242516 -0.000802764 0)
(1.03416 0.171364 9.06018e-23)
(0.193957 -0.0424567 2.62274e-20)
(0.885199 0.195934 5.35897e-21)
(0.238282 0.0306663 -1.28381e-19)
(1.14611 0.0609118 3.99745e-21)
(1.12647 -0.0245346 0)
(1.08307 -0.0183361 8.19618e-21)
(0.990267 0.0123733 6.28087e-21)
(0.857985 -0.0941389 0)
(1.00008 0.351316 -2.54453e-21)
(1.00654 0.358424 0)
(0.104454 -0.00341075 1.60511e-20)
(0.999893 0.00123976 1.39193e-21)
(1.01301 0.0180811 -2.43836e-22)
(0.999315 0.00832153 -3.15463e-23)
(-0.071288 -0.00420642 -4.05139e-20)
(1.11253 -0.0400969 -7.52153e-21)
(0.999127 0.0176183 0)
(0.974422 0.00718964 1.48879e-20)
(1.1268 -0.0644041 -1.0734e-20)
(0.259695 -1.2246 -4.72202e-20)
(1.17245 -0.0801441 -3.0127e-21)
(1.14237 -0.0860168 1.40942e-20)
(0.682974 0.297903 0)
(0.877657 0.255294 -1.45541e-20)
(0.282876 -0.0253168 0)
(0.103281 -0.661467 -8.55669e-21)
(0.997314 0.199719 7.76356e-22)
(0.995899 0.00168155 6.95612e-21)
(0.951832 0.038688 1.90548e-20)
(1.18782 -0.0151229 -2.05047e-20)
(0.998926 0.0173825 -7.53465e-22)
(1.01478 0.00891661 -5.89392e-22)
(0.107675 -0.332148 -1.04435e-19)
(0.985149 0.0344532 4.9657e-21)
(1.0204 0.0143594 1.47359e-21)
(1.18203 0.110989 1.63323e-20)
(1.15917 -0.0563431 -3.88884e-20)
(0.97284 0.0143272 0)
(1.12305 0.0130704 0)
(1.32786 0.145969 2.91912e-20)
(-0.307016 -0.000337886 -5.65242e-23)
(-0.257146 -0.00210317 5.31875e-20)
(0.97716 0.156054 -4.00051e-21)
(1.02108 0.00701204 0)
(0.162523 -0.00520352 8.00129e-21)
(0.984537 0.0407617 -5.84065e-21)
(1.00001 3.45034e-05 -3.83208e-22)
(0.894789 -0.0793955 -4.37127e-21)
(0.00104575 0.00552648 -6.53616e-21)
(0.972651 0.0147859 0)
(1.14324 0.0189216 1.7683e-20)
(0.988918 0.00626615 -9.75738e-22)
(0.541498 -0.253275 1.84584e-20)
(1.11192 -0.0348522 0)
(0.988894 0.00524148 2.96678e-21)
(1.32696 0.150217 -2.75146e-20)
(1.13962 -0.0849687 0)
(0.427294 0.491458 5.53389e-20)
(1.01685 0.00226131 6.75165e-22)
(0.388579 1.02248 0)
(0.267976 -0.74554 0)
(0.999869 0.000970502 -3.94427e-22)
(1.0046 0.0120481 1.11353e-21)
(1.08884 0.0312497 8.16735e-21)
(0.0534036 0.112071 6.06797e-20)
(1.04248 0.0346945 -2.16033e-21)
(0.751874 0.155763 0)
(0.954826 0.0571964 0)
(1.10039 -0.0890834 -1.18831e-20)
(1.00409 0.0393275 0)
(1.27152 0.242324 3.97174e-20)
(-0.156174 -0.00354458 -3.55231e-20)
(1.09528 -0.0881082 -6.35614e-21)
(0.512939 -0.244711 0)
(1.01462 0.0230787 0)
(0.964801 0.227089 0)
(0.97461 0.00576412 0)
(0.708415 0.101632 3.48079e-20)
(0.879969 0.195271 -6.09173e-21)
(1.00984 0.0134217 1.91299e-22)
(0.985983 0.0264862 1.16168e-21)
(1.16869 0.306708 2.24468e-20)
(-0.0798087 -0.0054623 -2.2499e-20)
(0.97424 0.00619245 0)
(0.863046 0.0493148 -2.52158e-20)
(0.228777 -0.0341695 0)
(0.293185 0.618928 0)
(1.00614 0.00887952 0)
(0.405063 0.154425 1.42414e-22)
(0.994706 0.0156194 -2.98368e-21)
(1.13393 -0.0408734 -1.05082e-20)
(1.04584 0.0879606 9.54487e-22)
(1.04172 0.0347609 1.59094e-21)
(0.968713 0.00329561 1.22948e-20)
(0.991545 0.0174976 5.35809e-21)
(1.12077 -0.0301158 -9.1275e-22)
(0.994394 0.0363273 4.86616e-20)
(0.561133 -0.0763301 0)
(-0.196572 -0.0078098 1.13042e-19)
(1.02848 0.000810848 -1.90501e-23)
(1.0564 0.690628 0)
(1.01567 0.0791853 0)
(0.72866 0.217129 0)
(1.00174 0.0310334 -8.6481e-22)
(1.01331 0.0182546 6.47592e-23)
(1.01085 0.0131823 0)
(-0.283512 -0.00210107 0)
(0.989072 0.00600597 1.58189e-21)
(0.851377 0.00440255 1.30406e-20)
(1.08624 0.186587 -1.38738e-20)
(1.01133 0.0252583 -9.57828e-22)
(1.06215 0.0263206 3.98618e-21)
(1.1595 -0.0747454 -1.55028e-20)
(0.0996387 0.00694212 0)
(0.965016 0.0349068 -2.55921e-21)
(0.135379 -0.00669194 -8.46572e-21)
(-0.217553 -0.00337643 0)
(1.00996 0.0132272 0)
(0.0304549 0.00452319 0)
(1.02036 0.014047 0)
(0.904455 0.119751 0)
(1.10396 0.0122542 0)
(1.15864 -0.0552405 0)
(0.229827 0.973364 4.5866e-20)
(1.22229 0.150489 -2.89066e-20)
(1.2038 0.0445227 0)
(0.231961 0.154371 6.98031e-20)
(-0.174653 0.00514272 0)
(1.14166 -0.0851496 -1.12632e-20)
(0.359244 -0.0260133 3.53501e-21)
(0.999358 0.00807141 0)
(0.99984 0.00122806 0)
(1.08704 0.267517 -1.03354e-20)
(1.1232 0.0146083 0)
(-0.201825 -0.0052816 -1.03219e-19)
(1.04258 0.0334468 2.0714e-23)
(0.18483 -0.0426434 -1.36115e-20)
(0.973665 0.0192774 -1.23705e-20)
(1.06866 -0.00371198 -7.99956e-21)
(1.15517 -0.034752 1.18155e-20)
(1.0062 0.00880585 5.73198e-22)
(1.04331 0.116904 4.61345e-21)
(0.465913 0.057397 -5.02381e-20)
(0.996275 0.0890026 3.09677e-21)
(1.21765 0.440623 4.06833e-20)
(0.216776 -0.0315922 0)
(0.689665 0.60875 1.17205e-20)
(0.491589 -0.665362 -2.9209e-20)
(-0.0784849 0.00830426 2.72969e-20)
(0.072648 -0.651256 0)
(1.00899 0.013949 8.41099e-22)
(1.01291 0.00736537 3.48877e-22)
(1.084 0.0666653 8.87752e-21)
(1.01429 0.0228482 -1.53727e-22)
(1.02569 0.0727499 0)
(1.00388 0.0387771 0)
(1.12706 -0.06314 -2.24763e-20)
(0.97559 0.0645977 0)
(1.10083 -0.0867275 1.4295e-21)
(1.0925 -0.000212486 0)
(1.08345 -0.0176151 -6.86889e-21)
(-0.271051 -0.0030099 0)
(1.13396 0.0744054 -1.60147e-20)
(1.13668 -0.00781945 8.66237e-21)
(1.01922 0.0516164 -7.45226e-24)
(0.0720508 -0.0295684 0)
(0.0566906 -0.0244826 -8.23409e-21)
(1.01591 0.0259746 0)
(1.00007 0.000482085 -7.4658e-22)
(0.226226 0.138956 -3.05079e-20)
(0.213846 -0.00635898 4.7771e-21)
(1.06232 0.0658471 0)
(0.974136 0.00508409 9.11272e-21)
(0.0297716 -0.0248469 0)
(-0.143013 -0.0116576 2.16271e-20)
(0.450985 0.479623 -5.01625e-20)
(0.0589587 0.00401975 -1.44614e-20)
(0.930992 -0.0098736 0)
(1.05471 0.0943676 6.57094e-21)
(1.02874 0.201003 0)
(1.14318 -0.0748348 0)
(0.98757 0.0290952 0)
(1.00006 0.000450924 4.37872e-23)
(0.779965 -0.0908657 0)
(1.16817 -0.00412345 -4.04599e-20)
(1.10412 0.0132417 -8.0342e-21)
(1.02834 0.0694557 0)
(1.20991 -0.020169 0)
(0.784281 -0.0846552 -3.47544e-21)
(0.999869 0.00113561 3.69137e-22)
(1.01299 0.00713488 0)
(-0.22064 0.00539163 0)
(1.13307 -0.0583367 -6.52184e-21)
(1.13345 -0.0397185 -1.07884e-20)
(0.880172 -0.0930368 7.29639e-21)
(0.226914 -0.737908 -8.39533e-21)
(1.14388 -0.0741157 0)
(0.118547 -0.036481 0)
(0.0602268 -0.0265316 0)
(1.16149 -0.0136921 0)
(1.26532 0.0565405 -2.18934e-20)
(0.994861 0.0152383 -8.20348e-21)
(0.999469 0.042403 -2.99936e-21)
(1.15658 0.152535 0)
(1.01633 0.0262561 3.36949e-23)
(1.09333 -0.0502571 2.43474e-21)
(0.99959 0.346202 0)
(1.29621 0.233541 -8.7992e-21)
(0.976947 0.0648357 -2.53991e-21)
(0.405539 -0.0579861 0)
(1.19602 -0.0153924 2.76597e-20)
(1.00996 0.027742 0)
(1.19737 -0.0146867 -3.56726e-20)
(1.01361 0.0109679 -9.53629e-23)
(1.06206 0.0205609 1.8779e-21)
(0.750758 0.891278 1.72228e-20)
(0.406973 0.0257408 8.67737e-20)
(0.179186 -0.0409685 -1.32021e-20)
(0.862088 0.116178 0)
(0.28584 -0.0517635 0)
(1.00875 0.0137167 -1.45013e-21)
(1.01547 0.357833 0)
(0.0914546 -0.0319179 9.13219e-21)
(0.735722 -0.0805484 -2.84842e-20)
(1.00321 0.00607739 0)
(1.02312 6.13635e-05 -1.23351e-21)
(-0.0906691 -0.0174902 0)
(0.836729 0.0425908 5.45457e-20)
(1.04283 0.0341092 2.23319e-21)
(1.00246 0.00153939 1.1974e-21)
(0.973806 9.34545e-05 0)
(1.01556 0.0263096 7.24002e-23)
(-0.145664 0.00202996 0)
(0.635444 0.012126 1.01962e-21)
(1.03563 0.0162876 -2.21865e-21)
(1.04138 0.000999612 6.09049e-21)
(-0.221527 0.00180123 0)
(1.12586 -0.062473 1.13067e-20)
(1.00019 0.0422224 3.18617e-21)
(1.01318 0.00835361 0)
(1.00118 0.0310372 0)
(1.11253 -0.00702869 -2.22947e-20)
(1.09956 0.068075 -7.11121e-21)
(1.01817 0.0788796 3.23479e-22)
(1.20148 0.0444021 0)
(-0.330029 2.2445e-05 5.53239e-20)
(0.861208 -0.0765173 1.59147e-20)
(0.94639 0.0227897 -8.0403e-23)
(1.00327 0.00598589 9.15123e-24)
(0.995817 0.0151759 1.93453e-21)
(1.0807 0.0105346 1.04733e-20)
(1.03343 0.167764 -3.58289e-21)
(0.999862 0.00109865 -9.10422e-22)
(-0.0611574 -0.0174191 -8.79182e-21)
(0.000442054 0.0145287 -2.97111e-20)
(0.979481 0.0805665 0)
(0.994204 0.000979995 0)
(1.01347 0.0261226 0)
(1.08073 -0.0834332 1.20426e-20)
(0.411643 0.232622 -1.33559e-19)
(1.03255 0.000581626 -1.37159e-21)
(0.975512 -0.00306052 -8.6605e-21)
(-0.143997 -0.0162361 1.07496e-20)
(0.989651 0.0586677 7.53666e-21)
(1.01025 0.0983284 3.11336e-22)
(0.430749 -0.13949 3.86445e-21)
(1.0352 0.0164092 0)
(0.486345 -0.240054 -1.00858e-19)
(-0.158061 0.00561851 6.47753e-20)
(1.0377 0.256025 -7.86178e-23)
(0.994059 0.00116907 2.56387e-24)
(1.00433 0.0765538 -2.79333e-21)
(-0.239995 0.00662825 -4.15153e-20)
(0.676325 -0.0261243 0)
(0.986243 0.0269144 6.53556e-22)
(-0.138072 -0.0169298 0)
(1.00214 0.0163697 -2.54268e-21)
(-0.229498 0.00776772 4.37035e-21)
(1.14645 0.0932057 0)
(1.07312 -0.0167426 -2.86307e-21)
(0.991725 0.0494996 2.54379e-21)
(1.03373 0.000743435 -5.18194e-21)
(0.199153 -0.0078868 -3.48811e-21)
(1.00313 0.00369598 0)
(0.871827 0.23693 -1.18109e-20)
(-0.0591917 0.00663929 6.11241e-21)
(0.943207 0.176084 -2.35871e-21)
(1.03747 0.0209144 -2.58653e-21)
(0.774765 -0.0889932 -5.00663e-20)
(-0.264136 -0.00339072 0)
(1.09778 0.000724676 2.35825e-20)
(-0.325122 -0.000139932 0)
(0.978427 0.158642 0)
(0.273435 -0.0466571 1.39984e-20)
(-0.158273 -0.0334454 4.61122e-20)
(-0.237756 -0.00681376 -6.37694e-20)
(1.00319 0.00359854 2.63685e-22)
(1.27236 0.267531 0)
(1.00893 0.0744522 -1.1672e-21)
(0.973889 -0.000461573 -4.78865e-21)
(1.01295 0.0119409 0)
(1.0139 0.0110388 -1.26322e-22)
(-0.23384 -0.000964256 0)
(-0.170805 -0.00766695 -1.11912e-19)
(0.380143 -0.0559698 -5.64444e-21)
(0.872497 0.251241 0)
(0.321687 0.101 3.77497e-20)
(1.00012 0.0201587 2.67514e-21)
(0.962523 0.0873054 0)
(1.00229 0.00341793 2.18608e-21)
(0.991531 0.0212179 -3.52572e-21)
(0.859463 -0.0812947 -5.73129e-21)
(0.752628 0.824344 -6.41866e-21)
(1.26808 0.0535346 0)
(1.00001 0.000625668 1.34391e-21)
(-0.0478386 -0.0190644 -7.52456e-21)
(0.703823 0.0945124 -2.25796e-21)
(0.0318917 -0.0125366 -2.66762e-20)
(1.09869 -0.0876456 1.15756e-20)
(0.896532 0.040446 1.78898e-20)
(1.09757 -0.0873968 0)
(1.13318 -0.0761405 0)
(0.122502 0.00340321 0)
(-0.335544 0.000956124 5.14798e-20)
(1.08101 -0.0842955 -1.3436e-20)
(-0.300975 -0.000566754 2.21419e-20)
(1.00052 0.0139462 0)
(0.811867 -0.0866329 7.70511e-22)
(1.04334 -0.00952262 4.08244e-20)
(1.11965 -0.0665904 0)
(0.401106 -0.0637006 -1.26479e-20)
(0.542928 -0.0746375 1.60937e-22)
(0.542169 0.0183977 -4.37697e-20)
(1.14487 0.02138 1.71924e-20)
(0.516072 -0.0729387 2.53086e-21)
(0.842079 -0.0398736 -1.20422e-20)
(0.573722 0.196497 7.1031e-20)
(0.537467 0.937658 3.87674e-21)
(1.07413 0.00175491 -5.5973e-21)
(1.00212 0.004728 -1.02874e-21)
(0.994193 0.000488991 -2.77824e-22)
(1.00232 0.00334418 -6.37441e-22)
(0.222763 0.00248009 1.06223e-20)
(1.17269 0.265692 -5.54833e-21)
(1.05285 0.0941486 5.69042e-21)
(1.03425 0.000517064 0)
(1.01487 0.0130888 -6.0942e-22)
(0.991288 -0.00122202 2.72051e-21)
(1.32889 0.164979 -4.92919e-22)
(1.01116 0.0133248 2.05286e-22)
(0.217063 0.00408428 4.57451e-23)
(1.11345 -0.0665542 1.18149e-20)
(-0.179312 -0.00406112 0)
(1.03723 0.0204218 3.12171e-21)
(1.09643 -0.0884464 -6.56167e-21)
(-0.253528 0.00326415 -1.67154e-20)
(1.00699 0.0130265 0)
(-0.236622 -0.00658532 0)
(0.892589 -0.0644336 0)
(0.239009 -0.0170718 -1.37818e-21)
(-0.120688 -0.00485415 0)
(1.00007 0.000449245 1.3806e-21)
(0.922686 0.109795 -2.45294e-22)
(1.15086 -0.0430727 0)
(1.0064 0.0477692 0)
(1.11676 0.122375 -7.53489e-21)
(0.892445 -0.0965031 8.87439e-21)
(1.06256 0.0199701 0)
(0.9137 0.0306426 -5.93233e-20)
(-0.125537 -0.0137136 3.30078e-20)
(1.22375 0.0139257 1.77239e-20)
(0.998986 0.0289048 -2.9455e-21)
(1.01222 0.00880297 0)
(0.427484 -1.05691 -3.90977e-20)
(0.97435 0.207162 -4.88977e-21)
(1.26849 0.00575791 0)
(1.01726 0.0798492 -3.60475e-22)
(1.1254 -0.0664235 -2.3238e-20)
(0.703122 0.109368 -8.29719e-20)
(1.16857 0.0433462 0)
(0.00983732 -0.0129478 -2.6479e-20)
(1.24096 -0.0183861 1.04217e-20)
(1.11266 -0.000483585 4.42677e-21)
(1.21935 0.151822 -9.15563e-21)
(0.99432 0.0021574 0)
(1.00005 0.000426148 -7.83755e-22)
(0.994099 0.00206216 -9.46224e-22)
(1.16666 0.258214 -1.39142e-20)
(0.494942 0.939034 0)
(0.899377 -0.0742364 0)
(1.1173 0.00150633 -1.34329e-21)
(1.13037 0.138003 8.85651e-21)
(-0.25816 0.00543917 -1.11093e-20)
(1.16175 -0.0351266 -1.53404e-20)
(1.10186 0.00158675 1.46438e-20)
(0.929871 -0.0081225 0)
(1.26637 0.0541161 0)
(1.02273 0.0167437 1.3244e-21)
(0.95279 0.00290378 1.4e-20)
(0.967282 -0.00519094 -6.27688e-21)
(-0.286824 -0.00169242 -1.90692e-20)
(0.944102 0.0186253 -2.73503e-21)
(1.00042 0.0203683 -3.08655e-21)
(1.04754 0.0192171 0)
(1.01337 0.000673129 -8.52991e-23)
(1.16279 -0.0309717 0)
(0.969399 -0.00359831 0)
(1.00251 0.00335012 0)
(1.00209 0.00460294 0)
(0.684203 -0.0190964 0)
(1.01359 0.0228699 0)
(1.00796 0.000165099 7.36684e-23)
(-0.117568 -0.0166115 -2.21153e-20)
(1.0151 0.0260416 -4.16054e-22)
(1.07234 -0.0165513 0)
(0.204559 0.00289085 -4.98627e-21)
(0.036934 0.185194 -7.45429e-20)
(1.01248 0.00887952 0)
(1.23577 0.346679 0)
(0.755556 -0.0833957 3.77006e-20)
(0.0824345 -0.0289278 0)
(1.01155 0.0126375 7.88508e-23)
(-0.110141 -0.0153524 7.07207e-23)
(1.02284 0.0170577 -1.59217e-21)
(0.449587 0.226123 0)
(1.03219 8.11672e-05 -3.5056e-22)
(0.141605 -0.146989 0)
(1.25111 -0.016068 0)
(1.17219 0.301855 2.88361e-20)
(0.999432 0.0287729 0)
(-0.229284 -0.00203466 -4.72941e-20)
(1.01008 0.0963916 0)
(1.01433 0.0178129 3.83934e-23)
(1.01311 0.00759546 -5.84939e-22)
(0.887944 0.0557303 -2.07339e-22)
(-0.309529 -0.000545713 1.51547e-21)
(1.05584 0.0649172 0)
(1.00267 0.00172155 -7.95972e-22)
(0.073686 0.00470654 1.16872e-20)
(1.06034 0.0119789 6.48707e-21)
(1.0999 0.0430756 1.1643e-20)
(0.389956 0.401379 1.54062e-19)
(1.01219 0.0127079 -6.85297e-23)
(0.991937 0.0210364 1.77837e-21)
(0.398454 0.386402 2.79154e-20)
(-0.321622 -0.00121543 0)
(1.02023 -0.000219171 -1.32858e-21)
(0.991084 -0.00101628 1.58296e-21)
(0.218606 -0.0129656 1.06288e-20)
(-0.323682 0.00198298 -4.80325e-20)
(1.12643 -0.0674732 1.05651e-20)
(1.01952 -8.9698e-05 -1.88461e-21)
(-0.317077 0.00266822 -3.28815e-21)
(0.0124742 -0.00267062 -8.87014e-20)
(-0.329766 -0.000563929 9.04578e-21)
(1.01323 0.0111729 9.41595e-23)
(1.19015 0.102223 -4.77963e-20)
(1.00657 0.0129291 8.17617e-22)
(1.02364 -0.000254621 -1.33083e-21)
(1.08 0.072154 3.4643e-23)
(1.12576 -0.047479 -1.02976e-20)
(-0.0158078 -0.0228029 2.89961e-20)
(1.02339 -0.000199853 1.30718e-21)
(0.942614 0.0152039 -6.17148e-21)
(0.99571 0.00122923 5.86048e-21)
(1.03337 0.000569974 6.32644e-21)
(0.0883887 0.00345662 0)
(-0.335056 -0.000253387 1.2593e-20)
(1.2836 0.0885194 -2.80151e-20)
(0.809031 0.198705 3.5924e-20)
(0.241102 0.00907246 -5.36487e-20)
(1.00809 0.00508401 2.44452e-22)
(-0.128308 -0.0178362 -1.0699e-20)
(0.291477 -0.446207 0)
(-0.108384 0.00499574 0)
(0.995688 0.0904803 -1.61598e-21)
(-0.166924 -0.00449899 -2.06824e-20)
(1.00186 0.0426065 -1.5915e-21)
(1.0267 0.0339164 -1.12862e-21)
(0.962074 0.106118 0)
(1.00146 0.0546931 2.17184e-21)
(1.11931 0.0591904 4.97473e-21)
(1.00575 0.0126054 8.28266e-22)
(-0.333084 -0.000188843 -1.46398e-21)
(0.240557 -0.0434404 0)
(0.0343813 -0.148047 7.35996e-20)
(0.662269 -0.219926 4.80481e-22)
(1.00429 0.0751619 4.93037e-21)
(1.08061 -0.0695347 -3.70177e-21)
(0.419069 -0.194501 9.99976e-20)
(1.22938 0.152405 -2.94867e-20)
(1.01594 0.00247607 3.10083e-22)
(-0.308625 0.00312921 0)
(0.0208496 -0.0245211 0)
(0.996142 0.0151088 3.26729e-21)
(1.09557 0.485015 9.60266e-21)
(0.991208 -0.000558039 -7.0546e-21)
(1.08322 -0.0127816 -7.41713e-21)
(0.227978 -0.0152662 -1.27869e-20)
(1.14654 0.262545 1.97402e-20)
(0.999878 0.00119178 -6.51138e-21)
(-0.322823 0.000498025 9.14378e-20)
(0.99587 0.00111713 -7.90688e-21)
(0.0798849 -0.006435 0)
(0.877272 0.415646 4.43564e-21)
(1.12874 -0.0730354 7.59645e-23)
(0.783948 0.295427 2.69495e-20)
(1.10209 0.00251084 -1.22355e-20)
(1.16806 -0.00530374 3.39587e-20)
(0.612976 -0.0918208 5.4908e-20)
(1.0326 0.000230936 1.45688e-21)
(1.10151 -0.0764818 1.39404e-21)
(1.14593 0.0573128 1.13153e-21)
(1.21632 -0.0260197 5.01038e-20)
(1.10266 0.129665 -2.74762e-21)
(0.863747 -0.0949526 0)
(0.537665 -0.0630171 -7.8863e-21)
(0.990472 0.000342841 1.6317e-20)
(1.00061 0.0163858 -1.33344e-21)
(1.01395 0.0231078 -2.02103e-22)
(1.00297 0.0323181 -8.79777e-22)
(1.13795 -0.00745457 0)
(0.998246 0.00756572 0)
(1.03291 0.000760587 -7.26254e-22)
(-0.212638 0.0125465 0)
(0.442818 -0.144903 0)
(0.714355 0.0175643 3.23866e-20)