/*--------------------------------*- C++ -*----------------------------------*\
| =========                 |                                                 |
| \\      /  F ield         | OpenFOAM: The Open Source CFD Toolbox           |
|  \\    /   O peration     | Version:  v2012                                 |
|   \\  /    A nd           | Website:  www.openfoam.com                      |
|    \\/     M anipulation  |                                                 |
\*---------------------------------------------------------------------------*/
FoamFile
{
    version     2.0;
    format      ascii;
    class       volVectorField;
    location    "300";
    object      ddt0(U);
}
// * * * * * * * * * * * * * * * * * * * * * * * * * * * * * * * * * * * * * //

dimensions      [0 1 -2 0 0 0 0];


internalField   nonuniform List<vector> 
53008
(
(-0.000122092 2.1465e-06 -2.6426e-22)
(-0.000325824 0.00286368 1.88635e-22)
(-3.75666e-05 -1.21802e-05 2.5985e-22)
(-0.000180421 -0.000331784 1.58376e-22)
(-0.000677998 -0.000626251 1.19685e-22)
(0.00381111 0.000556577 4.6839e-23)
(-6.48318e-06 -3.35556e-06 7.17734e-23)
(-0.000119943 -1.4251e-06 2.94074e-22)
(-8.37226e-05 2.1028e-05 7.17881e-23)
(-3.1963e-05 -1.26409e-05 4.44204e-23)
(0.00087447 -0.00143098 1.87455e-23)
(-9.35958e-05 -6.82387e-05 -1.96163e-22)
(-0.00491776 0.0018073 -2.88482e-23)
(-0.00652417 -0.0041204 2.45314e-23)
(-2.99694e-05 -2.5994e-06 0)
(-1.33192e-05 1.30505e-05 3.44798e-22)
(-2.53057e-05 -0.000119975 -1.88503e-22)
(-1.3822e-05 1.34579e-05 -5.69709e-22)
(0.00199745 0.00153043 0)
(5.36554e-05 -0.000144685 1.95634e-22)
(-3.6412e-05 -7.50897e-05 1.80594e-22)
(-0.000120929 0.000106222 6.19941e-23)
(-8.6643e-06 -2.45531e-05 2.23886e-22)
(-1.29092e-05 2.63521e-06 0)
(-3.59643e-05 -5.39929e-05 -1.73694e-22)
(-0.000441715 -0.000362136 -9.56815e-23)
(-0.0064769 -0.00402914 0)
(-0.000309717 -8.7579e-06 -2.39465e-23)
(0.00138478 -0.0046377 -6.59667e-24)
(-0.00105043 -0.00389747 1.83556e-22)
(0.00079843 0.00496486 -6.31372e-24)
(-0.000935778 0.00394457 0)
(0.00248177 -0.00084862 0)
(-4.34343e-05 -9.58468e-07 3.33459e-22)
(-6.07192e-06 -4.03447e-06 2.61527e-22)
(-8.80995e-05 3.35676e-05 1.32353e-22)
(-5.2432e-05 1.36587e-06 -3.0784e-22)
(-4.44883e-07 1.98043e-06 3.08959e-23)
(3.25567e-05 1.42599e-05 -9.72818e-23)
(-4.91313e-05 1.13247e-05 0)
(-5.20488e-05 -4.84431e-09 2.79981e-22)
(-0.000951408 -0.00240773 2.71425e-22)
(0.00106391 -0.00131441 -8.36837e-23)
(0.00203375 0.00141636 0)
(5.67876e-05 -0.000146994 -1.02147e-22)
(-1.82196e-05 8.77004e-06 -2.22554e-22)
(-9.75751e-06 -3.48966e-05 -4.285e-22)
(1.66022e-05 -0.000100391 1.67683e-22)
(-0.00103685 -0.00235905 -3.53658e-23)
(-9.53789e-06 2.13169e-05 9.19902e-23)
(2.84083e-06 -1.8841e-06 0)
(-3.2833e-05 3.50194e-05 2.78981e-22)
(-8.40834e-05 -5.64545e-05 -3.58305e-22)
(-9.49505e-06 -2.85652e-05 2.19384e-22)
(0.000481367 -0.000181839 0)
(0.00198311 0.00161623 -3.11914e-23)
(4.70196e-05 -0.000143977 0)
(-6.01367e-06 -2.18949e-06 -1.95183e-22)
(0.00500356 -0.000425738 -1.04654e-22)
(0.000201141 -0.000497426 -1.67859e-22)
(-4.2119e-05 1.77999e-05 -3.387e-22)
(-6.58746e-05 5.12661e-05 2.83577e-22)
(-0.000250306 -0.000310439 5.35665e-22)
(-0.00732075 0.000629248 -2.87067e-23)
(-0.000352713 -9.83364e-05 6.92479e-23)
(-2.05084e-05 5.59377e-05 -2.07942e-22)
(-0.00107458 -0.00377714 -2.18984e-22)
(-9.55663e-06 -3.34013e-05 1.7628e-22)
(-6.49795e-06 -2.21054e-06 -3.04801e-22)
(-1.80459e-05 1.46966e-05 -2.01384e-22)
(-0.00165716 5.77525e-05 1.09416e-22)
(-2.35457e-06 -6.67748e-07 2.44989e-22)
(-9.58033e-06 6.84113e-05 0)
(0.00254724 -0.000960415 0)
(-0.00045147 -0.000480626 2.19396e-23)
(-6.62354e-06 -6.08503e-07 0)
(-4.79563e-08 1.73189e-05 0)
(0.00371765 0.000619078 8.62715e-23)
(-1.09971e-05 1.12738e-05 0)
(-0.00138238 9.23162e-05 0)
(0.00388892 0.000527681 -3.56062e-23)
(-0.00226936 0.00258113 0)
(0.00250086 -4.21258e-05 -7.23629e-23)
(-0.000303116 -0.000256106 1.32687e-22)
(-5.20239e-05 6.97208e-05 -2.28575e-22)
(-1.8962e-05 1.51696e-05 -1.9952e-22)
(-0.000236131 0.000153942 2.25695e-22)
(-8.30398e-05 2.23565e-05 0)
(-2.09263e-05 5.4499e-05 4.46974e-22)
(0.000299129 -0.000142542 1.18512e-22)
(-0.00128738 -0.000108932 -2.61862e-23)
(-0.000284606 0.00213965 -1.7688e-22)
(-0.00234288 0.00247585 0)
(-0.000951361 3.15181e-05 6.41956e-23)
(0.00427235 0.00244544 -4.90567e-23)
(0.00180924 -0.000959994 -2.08194e-22)
(-0.00529637 -0.00220383 7.62738e-23)
(-3.69369e-05 -1.17639e-05 -2.3761e-22)
(0.00332865 0.00157512 -3.55873e-22)
(-0.000344979 -0.000228925 -3.74726e-22)
(5.08504e-05 -0.000146219 0)
(-4.85368e-05 1.07475e-05 -1.76102e-22)
(-0.00149985 -0.000521886 -5.91656e-24)
(-0.000304699 -2.12497e-05 2.13039e-23)
(-0.000129288 -4.05236e-06 0)
(-0.000997241 -0.000126682 1.38206e-22)
(-0.00205942 -0.000529932 -2.38613e-22)
(-8.52823e-05 3.4402e-05 2.40318e-22)
(0.000164954 -0.00159587 -2.73231e-23)
(-2.20117e-06 -4.19543e-08 -2.73973e-22)
(0.000159417 -0.000317674 -3.71657e-23)
(-0.00380558 0.000632367 0)
(3.76706e-08 1.59868e-05 0)
(0.00393146 0.00249254 -1.2464e-23)
(-0.00616834 -0.00249298 0)
(-2.01932e-06 -7.88502e-07 3.54944e-22)
(-5.95528e-06 -0.000118532 -2.03296e-22)
(-6.12247e-06 -5.19597e-06 -2.45632e-22)
(0.00108428 0.00527729 0)
(-0.00117067 -0.000144073 -1.94879e-22)
(-0.000714463 -0.000646192 9.36873e-23)
(-9.86822e-06 7.06952e-05 1.3907e-22)
(-4.2652e-05 -1.43124e-05 2.35583e-22)
(-0.000598461 0.000648721 6.10807e-23)
(0.0039072 0.000554959 8.97478e-23)
(-9.05228e-06 6.27684e-05 3.15356e-22)
(-0.00112329 2.96502e-05 9.39386e-23)
(-0.000330553 -0.00319062 1.55539e-22)
(0.000110262 -0.000367548 1.68158e-22)
(-2.63155e-05 2.59941e-05 -3.36854e-22)
(-0.000879822 0.00415698 0)
(-2.81312e-05 -3.36222e-05 -1.20338e-22)
(-0.000313345 -0.00024733 -1.83578e-22)
(-7.08934e-05 3.22822e-05 9.4406e-23)
(-6.25525e-06 4.77803e-06 -1.54751e-22)
(0.00489151 -0.000509771 4.9933e-23)
(-2.42599e-06 2.50626e-05 3.28615e-22)
(-0.00487167 0.00185937 0)
(-2.78782e-05 -1.88544e-05 -2.1036e-22)
(-2.21613e-05 -3.3455e-05 2.99819e-22)
(-1.17713e-05 1.07586e-05 0)
(-2.21549e-05 -3.06818e-05 0)
(-4.29482e-05 6.62757e-05 1.5648e-22)
(0.0047616 -0.00175431 -6.28332e-23)
(0.000118759 -0.000378918 -1.21686e-22)
(-4.546e-05 -1.96759e-05 -3.47326e-22)
(-3.29563e-06 -0.000117452 2.62714e-22)
(-5.66192e-06 -1.2646e-05 -1.69077e-22)
(5.59966e-06 -4.76046e-05 2.03862e-22)
(-4.14803e-05 1.33177e-05 1.45718e-22)
(-7.29151e-06 3.39466e-05 -1.54397e-22)
(-0.000176986 -0.000256275 0)
(-0.00059851 -0.000625341 -1.25361e-22)
(-0.000126092 0.000105925 1.46427e-22)
(-1.44743e-05 1.26121e-05 0)
(-8.06373e-05 -5.34727e-05 1.20694e-22)
(-0.00574618 -0.00457113 -1.00791e-23)
(0.00179188 -0.00163432 1.63278e-22)
(-5.64794e-05 2.33807e-05 3.51231e-22)
(0.000955021 -0.000171222 0)
(-0.000163013 0.000360912 1.72377e-22)
(-8.69251e-06 1.97737e-05 2.65369e-22)
(-1.54447e-05 1.22644e-05 3.124e-22)
(-0.000175328 0.00220616 1.78882e-22)
(-6.04362e-05 -8.38913e-06 -1.8913e-22)
(-9.03557e-08 1.98422e-06 -1.7672e-25)
(-2.18265e-05 2.98636e-05 0)
(-7.8607e-05 5.81385e-05 -3.34303e-22)
(-7.64589e-06 1.38965e-05 0)
(-1.49572e-05 1.2687e-05 -2.04958e-22)
(-9.48646e-05 7.49664e-05 2.52547e-22)
(-0.00395176 0.000694597 6.17152e-23)
(0.00391567 0.00256476 3.48243e-23)
(-1.35326e-05 3.80597e-05 0)
(-0.000672525 0.000614151 -6.4444e-23)
(-1.4742e-05 1.3898e-05 2.5886e-22)
(-5.27218e-05 7.33871e-05 0)
(0.00173561 -0.000911658 5.43548e-23)
(-0.000224632 0.000143137 -1.46077e-22)
(-8.63806e-05 1.31991e-05 1.13412e-22)
(-4.28338e-05 -1.45771e-05 -2.01485e-22)
(-5.86192e-05 -8.94245e-06 1.64904e-22)
(0.00197754 0.00149805 -3.03484e-22)
(-3.30482e-05 -1.72035e-05 -5.68638e-22)
(-8.73e-05 -6.43615e-05 0)
(-0.00727692 0.000707687 0)
(0.000385343 -7.70221e-05 -9.5843e-23)
(0.00386793 0.0025799 -1.39187e-22)
(-0.00168365 -0.000773544 0)
(-6.14119e-06 -1.2455e-05 0)
(-0.00315758 0.000654132 -2.49069e-23)
(-3.87677e-05 -1.55059e-05 0)
(-0.000308616 0.000102442 -5.08082e-23)
(-0.000960605 -0.000196515 2.36247e-22)
(-2.0693e-05 6.43238e-05 0)
(2.46186e-05 -7.64342e-05 -1.90939e-22)
(-0.000107367 5.92527e-05 3.02911e-22)
(-7.76247e-06 -1.29395e-05 0)
(-1.08931e-05 1.26045e-05 0)
(-2.24396e-05 2.05126e-05 -3.38831e-22)
(-0.000415987 0.000449613 0)
(-3.2354e-05 -3.0638e-05 4.2401e-22)
(-0.000119729 -6.54302e-05 -3.80856e-25)
(-2.73853e-05 -2.55008e-05 -1.4075e-23)
(0.000919678 -0.00218322 0)
(-0.0031111 -0.00104073 3.77251e-22)
(-2.24658e-05 -0.00012282 -2.07031e-22)
(-1.13315e-05 2.84912e-06 -1.59978e-22)
(-0.000104484 0.000206129 7.61689e-23)
(-6.30002e-06 -2.01219e-06 4.43572e-22)
(-0.00194559 -0.000562837 -2.19524e-22)
(-4.84294e-05 1.20913e-05 -2.05355e-22)
(-0.00238882 -0.00405061 2.86839e-22)
(-3.72373e-05 -8.22666e-06 -5.80511e-23)
(0.000143814 -0.0015527 0)
(-2.73185e-06 4.00701e-05 -1.54471e-22)
(-4.83878e-06 8.79646e-06 -3.08677e-22)
(-8.49498e-06 -2.39595e-05 -2.09757e-22)
(-7.591e-07 0.000305018 -1.97803e-22)
(-2.13932e-05 6.19338e-05 0)
(0.0029113 -0.0023394 1.37229e-23)
(-8.69407e-06 -5.61045e-06 2.88129e-22)
(0.00232369 -0.000311185 3.63539e-22)
(-8.6942e-06 -6.74273e-06 1.00651e-24)
(-6.54751e-05 2.17413e-05 1.52301e-22)
(0.00153789 0.000112708 1.11872e-22)
(-4.23743e-05 -2.23171e-05 0)
(-1.2512e-05 4.6081e-05 -3.8162e-23)
(-5.74857e-05 4.50422e-05 -2.0939e-22)
(-1.23428e-05 1.17844e-05 0)
(-0.00790591 -0.00038506 0)
(-0.00586044 -0.00196661 0)
(2.92415e-06 -4.27342e-05 -6.54716e-22)
(-0.00325641 0.000978354 0)
(-0.000689536 0.000181663 0)
(-0.00101237 -5.77864e-05 -5.85713e-22)
(1.18314e-05 -8.87573e-05 3.55279e-22)
(-6.43353e-06 5.37509e-06 0)
(-0.000434552 -0.000383748 0)
(-1.36443e-05 1.09023e-05 -2.08652e-22)
(-2.75273e-05 -3.39399e-05 2.21906e-22)
(-4.23423e-05 -8.46815e-07 -5.81896e-22)
(-0.00279626 0.00109742 -1.96121e-23)
(-4.25552e-05 1.4572e-05 0)
(-0.000119433 -8.46132e-05 0)
(-8.57246e-07 1.3845e-05 1.49292e-22)
(0.000391756 0.000117795 2.60204e-22)
(0.00292014 -0.00219334 0)
(-2.06532e-06 -2.15931e-05 1.26722e-22)
(0.000201466 -0.000477513 0)
(-4.79021e-05 -1.89669e-05 1.70343e-22)
(-2.60011e-05 1.29008e-05 -1.90559e-22)
(-2.71462e-05 -2.46707e-05 3.94646e-22)
(-2.16069e-05 1.9593e-05 0)
(-4.04676e-05 1.15324e-05 0)
(0.000211278 -0.000135082 -8.93644e-23)
(0.0047112 -0.00164956 -2.0064e-22)
(-2.2976e-05 -1.29085e-05 2.86151e-22)
(7.55134e-06 0.000301005 0)
(3.72164e-05 -0.000146743 0)
(-0.000728068 -0.000378112 0)
(0.00497808 -0.000741933 -2.91836e-22)
(-7.71745e-05 5.8019e-05 2.88082e-22)
(-3.81938e-06 -4.75426e-07 4.89713e-22)
(-1.31389e-05 4.58966e-05 3.26223e-25)
(-0.00635881 -0.0045632 5.63978e-24)
(-0.00145019 -0.00249874 -1.50139e-22)
(-7.26524e-06 -1.73924e-05 5.71309e-22)
(0.000409168 -0.000112522 0)
(0.00243242 -0.000316148 -1.89444e-22)
(7.69787e-06 -3.93586e-05 -1.94019e-22)
(-6.95869e-05 3.16245e-05 -2.45303e-22)
(-2.55026e-05 3.50494e-05 5.85467e-22)
(-0.00286699 0.000993807 5.46753e-23)
(-0.0017092 -0.0014085 0)
(-2.89472e-06 -1.76894e-05 5.18472e-22)
(0.000962046 -0.00212264 8.56426e-24)
(-0.00221417 -0.00266483 1.9427e-22)
(0.000405691 -0.000231417 1.18722e-22)
(1.2737e-05 -7.27317e-05 -4.4824e-22)
(-8.54595e-06 -2.45216e-05 0)
(-5.24157e-07 2.31489e-06 0)
(0.000406496 -0.00025021 7.09523e-23)
(-6.25924e-05 -5.42726e-05 6.099e-25)
(-4.1611e-05 -1.51607e-05 -6.09025e-23)
(2.79851e-05 9.13396e-06 2.29363e-22)
(-0.000229344 8.6442e-05 1.11322e-22)
(-0.00161368 -0.00049028 0)
(-6.67189e-05 -6.05716e-05 -1.97128e-22)
(-3.28536e-05 -1.64029e-05 1.85199e-22)
(0.00133454 0.00019926 -5.98918e-23)
(-0.00525082 -0.001531 -4.47755e-23)
(5.67708e-05 0.000427367 9.49648e-23)
(-0.00379136 0.000779153 -2.38778e-22)
(-0.000234285 0.000132547 1.80397e-22)
(-6.19343e-06 -4.4935e-07 0)
(-0.000381379 -0.000153167 1.65971e-22)
(0.00208696 -0.000773171 -4.32654e-23)
(0.000246773 -0.000175996 0)
(1.29583e-05 -9.93578e-05 1.68183e-22)
(7.46452e-05 0.000421158 0)
(-0.0017169 -0.000749108 0)
(0.00408585 -0.000338323 0)
(-0.00291276 -0.00116938 -3.52199e-22)
(-2.87297e-06 3.57888e-05 0)
(0.000403998 0.00285357 -8.7754e-23)
(-3.11865e-05 -3.1702e-06 1.12878e-22)
(-2.15344e-05 -1.30152e-05 -3.03309e-22)
(-1.44149e-06 -1.19526e-06 -5.32724e-22)
(0.00011597 0.000237249 4.12654e-22)
(-0.00787556 -0.000395574 5.57326e-23)
(-0.00238504 -0.00357607 0)
(-0.0064836 -0.00438638 3.27191e-23)
(-0.000825183 -0.00144163 -2.96643e-23)
(-0.000433001 -0.0013323 -3.87473e-23)
(-0.000104189 0.000197512 0)
(-9.20142e-10 9.37023e-08 0)
(-9.86156e-06 -4.85632e-06 1.23879e-22)
(-3.36766e-06 -1.68394e-05 2.6099e-22)
(-0.000341369 -0.000130687 1.21639e-22)
(0.00201884 -0.000788483 0)
(-0.000789129 -0.00220258 -2.78701e-22)
(-6.65036e-05 2.47338e-05 3.10237e-22)
(-0.000888163 -0.0015292 1.61115e-24)
(0.00130893 8.55756e-05 -2.11381e-22)
(-1.04804e-05 7.14504e-05 -2.84919e-22)
(-0.00578976 -0.00452918 1.02617e-23)
(8.54368e-06 -0.000193792 0)
(-1.40156e-05 1.40062e-05 0)
(-0.000102916 7.81218e-05 1.74e-22)
(0.00024682 0.00236449 0)
(-1.86258e-05 6.39105e-05 2.14882e-22)
(-6.41748e-07 2.93271e-06 0)
(-3.81048e-05 -2.98111e-05 0)
(-9.29795e-06 -2.17627e-05 2.29872e-22)
(-8.90819e-06 -6.49244e-07 -2.87085e-22)
(-0.000297127 9.13793e-05 5.17408e-23)
(5.9194e-06 -2.90459e-06 -3.91087e-22)
(-0.00532053 -0.00208553 -7.73199e-23)
(-3.60144e-05 -1.10817e-05 -1.08534e-22)
(-5.43884e-07 2.91402e-06 0)
(-7.2767e-06 9.07176e-06 1.02318e-22)
(-0.000177224 0.000356968 0)
(-3.08e-05 -2.52447e-05 4.70225e-22)
(-3.01114e-05 -3.9066e-06 4.51857e-23)
(-0.00619023 -0.00458922 1.20765e-23)
(-5.07475e-06 -9.07655e-07 2.46372e-22)
(0.00324642 0.000785212 0)
(0.00482694 -0.00082812 4.52043e-22)
(-2.93399e-05 0.0020005 2.00826e-23)
(-0.00161882 0.00111048 4.81986e-23)
(0.0003533 -0.00142735 1.58615e-23)
(1.0487e-05 -8.75986e-05 0)
(-5.07885e-06 -3.51005e-05 0)
(8.27957e-05 -0.000147279 -6.85734e-23)
(0.00341529 0.00237177 -2.6725e-23)
(-1.0257e-05 3.27088e-05 2.13081e-22)
(-2.21401e-05 4.75192e-05 1.74471e-22)
(-0.000514702 -0.000264064 0)
(-0.0014227 -0.00242787 -2.91668e-22)
(-5.49825e-06 8.17746e-05 -3.01658e-23)
(-0.000230458 9.45889e-05 1.58218e-22)
(-3.03512e-05 1.44853e-05 -3.06439e-22)
(0.000109132 -1.97532e-05 -1.80872e-22)
(-7.32767e-05 0.000385931 1.00712e-23)
(-0.00599485 0.000625575 0)
(-4.20641e-06 -1.30326e-05 -2.27166e-22)
(-1.4994e-05 -0.000354754 -1.58415e-23)
(-6.94079e-05 4.70907e-05 1.50516e-22)
(-4.31817e-05 -2.05097e-05 0)
(0.000550876 -1.24025e-05 -7.84879e-22)
(8.35221e-05 -8.77388e-05 -2.09133e-22)
(-0.000211586 0.000149078 0)
(0.0030454 -0.00214052 -2.71046e-22)
(-8.63416e-05 0.000394004 -1.24522e-23)
(-1.72986e-05 -0.000127398 5.29879e-23)
(-0.000205869 -0.000557733 -1.88588e-23)
(-0.000306629 0.000220726 8.90575e-23)
(-0.00631328 -0.00445713 0)
(0.000101737 0.00230628 0)
(-3.76701e-06 -7.99772e-07 -2.84498e-22)
(-4.17962e-05 -2.2887e-05 1.19328e-23)
(-9.56237e-05 9.54738e-05 1.84003e-22)
(4.07387e-05 -0.000149996 -2.80146e-23)
(-0.00162868 -0.00255224 5.10723e-22)
(-1.66929e-05 -8.19753e-06 0)
(-3.47978e-05 -7.81512e-05 1.90017e-22)
(-0.0051472 -0.00160588 7.95283e-23)
(-1.07243e-05 3.6052e-05 -6.56369e-24)
(-0.00408225 0.000260601 -2.74932e-22)
(-0.00231541 -0.00254694 -2.94762e-22)
(-4.5099e-06 9.1799e-07 0)
(-4.1363e-05 -2.30506e-05 2.14732e-22)
(-6.48096e-05 3.66465e-05 0)
(-4.38031e-05 -1.69044e-05 -8.97203e-23)
(-5.3083e-05 8.09527e-06 0)
(-2.22726e-05 -3.38979e-05 -3.04452e-22)
(-0.000711222 0.000154804 0)
(-0.000136163 5.58048e-05 3.36532e-22)
(0.00401573 -0.000383063 0)
(-6.60174e-05 2.49489e-05 -1.66605e-22)
(9.59814e-06 -0.000190671 2.41994e-22)
(-3.484e-05 -5.35411e-05 0)
(0.00317674 0.000867881 3.23663e-22)
(-7.64167e-06 1.36869e-05 1.67907e-22)
(-9.41793e-06 -2.72855e-05 0)
(-0.000140664 2.63838e-05 0)
(-6.73369e-05 2.09216e-05 -2.00537e-22)
(-2.9959e-05 -2.62088e-05 -4.1216e-22)
(-0.00012411 -6.61113e-05 -1.39464e-22)
(-4.43883e-06 -1.20332e-05 -5.06762e-27)
(0.00146148 0.00176449 -7.50208e-23)
(-1.90215e-06 -4.01758e-07 -7.83029e-23)
(1.42893e-05 -0.000102291 -2.73469e-22)
(-4.40711e-05 1.72784e-05 1.77831e-22)
(-0.00109866 -0.00013976 0)
(-1.12548e-05 4.74046e-06 1.47783e-22)
(6.41773e-05 -9.62637e-06 1.28368e-22)
(-2.6008e-06 -9.35398e-05 1.67466e-22)
(-7.6745e-06 1.10461e-05 3.11081e-22)
(-1.26555e-05 -1.19885e-05 -4.21158e-22)
(-2.6376e-05 3.37061e-05 3.14709e-22)
(-8.32964e-05 1.39051e-05 -4.14986e-22)
(-6.51984e-05 2.63512e-05 -2.07123e-22)
(0.00332342 -0.00160817 6.84864e-23)
(-6.5379e-06 3.48229e-05 0)
(7.90198e-05 -0.00010488 -1.42748e-22)
(6.19773e-05 -0.000136201 0)
(-0.00162097 0.00104109 -2.0445e-23)
(-3.65163e-06 -1.53412e-05 0)
(0.000995755 0.00498157 -8.45393e-24)
(-0.00154821 0.00138798 1.2064e-22)
(0.00354636 0.00330826 -4.62923e-23)
(-7.69925e-06 1.09239e-05 -1.62365e-25)
(-0.00194478 -0.000973762 7.18062e-23)
(-6.42723e-05 5.49983e-05 8.57176e-23)
(-0.00140254 -0.000488004 -3.33256e-22)
(-1.02445e-05 0.000104337 1.94285e-22)
(0.000569189 -4.22884e-05 8.88257e-22)
(-1.59775e-05 0.000102097 1.46056e-22)
(-7.70847e-06 -1.86724e-05 -4.71055e-22)
(0.000230525 -5.3447e-05 0)
(-0.000333245 -0.000106027 6.93012e-23)
(-9.14684e-05 -0.000616983 0)
(-2.25851e-05 -3.17342e-05 -1.8832e-22)
(-0.000205641 0.000361643 -1.721e-22)
(-2.11287e-05 -0.000210283 -8.12507e-23)
(0.00386316 0.00314667 2.3675e-23)
(-4.16364e-05 -1.50355e-05 7.50867e-22)
(-0.000383833 0.000363257 -1.56511e-23)
(-0.00226675 -0.0028012 -1.69826e-22)
(-5.22811e-05 4.25504e-06 2.63855e-22)
(0.000395104 -0.00157403 -1.43853e-23)
(-4.20145e-05 6.42506e-05 0)
(-4.10261e-06 -9.26846e-05 3.4802e-22)
(-0.00207661 -0.000547428 6.38109e-24)
(-2.76743e-05 1.40254e-05 0)
(-1.21178e-05 -2.57632e-05 4.44341e-22)
(-3.77669e-06 2.66365e-07 0)
(-1.12517e-05 -2.98591e-06 -2.24043e-22)
(0.00145412 -0.00435423 -2.45919e-23)
(-0.00102025 -0.000549729 -1.96796e-22)
(-3.9709e-06 -1.44116e-05 2.73032e-25)
(8.01231e-05 -0.000100439 1.43545e-22)
(0.00306693 -0.00202193 2.96632e-22)
(-0.000133104 8.70894e-05 -1.79091e-22)
(-3.25887e-05 -2.88545e-05 -1.32222e-22)
(-0.00142159 -0.000514854 3.61076e-22)
(-7.10305e-06 -1.8804e-06 -6.81797e-23)
(-2.5771e-05 2.27143e-05 1.70917e-22)
(6.26993e-05 -3.94557e-05 -2.0654e-22)
(-6.78195e-05 4.58019e-05 -3.60105e-22)
(-0.000299506 -2.91313e-05 2.14073e-23)
(-0.00571215 0.000647518 0)
(-0.000180444 -0.000491775 -4.46993e-22)
(0.000332153 -0.00158257 5.12235e-23)
(-4.47226e-05 -1.58086e-05 9.30983e-23)
(-4.32992e-05 1.4579e-05 -3.6197e-22)
(-4.93291e-05 -0.000126144 -2.46458e-22)
(0.000155924 -0.00094183 0)
(0.00351682 0.00272176 0)
(0.00141162 0.00279691 8.11811e-23)
(-6.82801e-05 3.81753e-05 0)
(8.30188e-05 -9.24024e-05 -2.65103e-22)
(0.00119388 0.000795985 0)
(-1.24505e-05 -1.21416e-05 -1.64438e-25)
(-3.05379e-05 -0.000102411 -2.27781e-22)
(-6.45541e-05 3.55119e-05 -3.41834e-22)
(-0.000574314 -0.00123627 2.22087e-23)
(-6.2384e-05 6.75633e-05 2.96867e-22)
(-4.65273e-05 -1.50647e-05 1.5129e-22)
(-2.76466e-05 1.22398e-05 -1.20649e-22)
(0.00403755 -0.000709534 0)
(-1.57619e-06 4.75995e-05 -2.88536e-22)
(-2.16893e-05 4.76009e-05 0)
(0.00228932 0.000311044 -1.75219e-22)
(-5.30693e-07 9.28964e-06 -2.72441e-22)
(0.00298844 0.00119596 1.7404e-22)
(-5.82524e-05 4.65203e-05 -1.47828e-22)
(6.50187e-08 6.32053e-06 2.87365e-22)
(-0.000352348 -0.000120383 -1.73663e-22)
(1.50951e-05 -0.00010055 -3.95879e-22)
(-0.00312647 0.00115701 0)
(0.000490103 0.000289409 -6.29244e-22)
(-5.97016e-06 1.7712e-06 3.00175e-22)
(-0.000239318 0.000110743 1.86234e-22)
(0.00234506 0.000376336 2.13852e-22)
(-0.000413302 -0.000167141 0)
(-0.000128414 8.83934e-05 1.11021e-22)
(-0.000196719 -0.000544391 1.84039e-23)
(-0.000281361 0.00211917 -2.31271e-23)
(4.64256e-05 -1.58434e-05 9.73013e-23)
(-1.10274e-05 1.45735e-05 -9.42697e-23)
(-7.46686e-06 -1.56487e-05 2.12931e-22)
(0.000483773 0.000247955 -6.67473e-22)
(-0.00536131 -0.0013836 0)
(7.94617e-06 -0.00016566 0)
(-3.30294e-05 -1.74678e-05 1.90486e-22)
(-7.4802e-06 7.75821e-05 8.86793e-24)
(-0.00271265 -0.000165891 6.12597e-25)
(-1.68703e-05 5.36118e-05 3.45562e-22)
(-0.000425283 -0.000548806 0)
(-9.74398e-06 -4.35186e-07 0)
(-0.000201957 0.000196109 -2.71471e-22)
(-9.24887e-05 9.72745e-05 -2.20583e-22)
(-0.000287723 -0.000336658 0)
(0.000452176 -0.0006986 0)
(-6.48921e-05 5.23538e-05 -1.44269e-22)
(0.0018574 0.00116688 -3.54456e-22)
(-2.08063e-08 4.96439e-06 -2.72161e-22)
(-0.00117872 -0.00373756 -5.18171e-23)
(6.16692e-06 -4.78123e-05 -2.49884e-22)
(-1.36827e-05 2.25371e-06 -5.13364e-22)
(-0.00146268 -0.00338736 -3.71435e-23)
(-2.73223e-05 -2.30841e-05 -4.33316e-22)
(2.49852e-05 -7.65658e-05 0)
(-0.0002254 -0.000511229 8.35802e-23)
(4.88895e-05 -0.000201527 2.0761e-22)
(-1.20591e-05 -1.51119e-05 -5.27553e-22)
(-9.834e-06 2.488e-05 -1.05906e-23)
(-0.000142478 -1.47628e-05 0)
(0.00262893 0.00136623 0)
(2.81244e-05 8.64749e-05 -1.64556e-22)
(1.675e-05 -0.000265917 0)
(-0.00392768 0.000607611 1.29032e-22)
(6.11616e-05 -0.000133431 -1.14659e-22)
(0.000470931 0.000307907 6.22666e-22)
(-1.37829e-05 1.10638e-05 4.30528e-25)
(-1.0103e-05 2.69215e-05 0)
(-0.00024894 0.000356154 1.66225e-22)
(0.00339541 -0.00111376 0)
(0.00123746 -0.00412007 0)
(-2.41618e-05 2.32406e-05 0)
(0.00339909 0.0021519 -1.54351e-22)
(-7.69086e-05 3.24997e-05 -2.34133e-22)
(-5.3815e-06 -1.57037e-06 0)
(0.00192838 -0.00151989 -1.65224e-22)
(-5.39569e-05 7.5018e-06 0)
(-2.94639e-05 -2.69034e-05 -3.83387e-22)
(-4.59099e-05 1.97825e-05 -1.68392e-22)
(-0.000308045 -0.000107126 -8.29228e-23)
(-1.31281e-05 -0.00107148 9.29066e-23)
(-0.000407608 -0.000312162 0)
(-0.000984774 1.07789e-05 -8.63564e-23)
(8.73208e-05 -8.67978e-05 2.40187e-22)
(1.45419e-05 -0.000257507 0)
(0.00125941 0.000769061 -2.30395e-23)
(-1.28253e-05 5.21742e-05 -1.70835e-22)
(-2.01629e-05 1.70482e-05 3.34393e-22)
(-0.000389374 -0.000312093 -1.57399e-22)
(-6.25557e-05 4.23298e-05 1.52045e-22)
(0.00113082 0.000999255 -7.30335e-22)
(0.00223988 -0.000549105 0)
(-1.3067e-05 4.94377e-05 -1.28564e-22)
(-3.09981e-05 -0.000105355 2.19936e-22)
(-1.13132e-05 1.10631e-05 -1.97731e-22)
(6.1517e-06 -0.000161422 0)
(-0.000209568 -0.000513776 -7.50043e-23)
(0.000214001 -5.01794e-05 0)
(-2.77649e-05 4.49808e-06 2.19324e-22)
(-5.34982e-05 5.25968e-06 -3.29264e-22)
(-3.92375e-06 -1.74694e-06 0)
(8.82657e-05 -8.18547e-05 2.69631e-22)
(-5.43114e-05 -5.39446e-05 4.69177e-23)
(-0.00279316 0.000868487 2.82013e-23)
(0.00254229 0.00280922 0)
(-8.65031e-06 -5.7425e-06 0)
(-5.83705e-05 2.43721e-05 -3.96442e-22)
(0.003212 -0.00154766 -1.99264e-22)
(-3.93503e-05 -2.93316e-05 0)
(-7.64884e-06 -2.5063e-05 -2.36653e-22)
(-7.03624e-06 -1.19006e-05 2.86604e-22)
(-9.38802e-05 0.000140665 0)
(-7.43274e-06 -0.000129283 -4.94029e-23)
(-2.92543e-05 -0.000216597 -8.56735e-23)
(-2.59729e-05 2.68578e-05 -4.30738e-23)
(-0.00142285 -0.00146603 0)
(-0.000236747 -0.000429937 1.98782e-22)
(-8.19458e-06 9.99672e-06 0)
(-0.00159552 -0.00250512 -4.2613e-22)
(0.00254054 0.00135303 0)
(0.000448856 -0.000668191 -1.30683e-22)
(-5.27158e-06 -3.48295e-05 0)
(-0.000400506 -0.00104058 4.97719e-23)
(0.00129942 0.0027642 -5.69987e-23)
(-0.00524475 -0.00144849 8.05088e-23)
(-0.000131966 -8.39029e-06 0)
(-6.22027e-05 3.57857e-05 3.3226e-22)
(-0.000149302 0.000224451 -1.11169e-22)
(-3.60536e-05 -1.17498e-05 -1.11342e-22)
(-2.3809e-05 2.40229e-05 3.29139e-22)
(-2.57016e-05 2.44402e-05 0)
(0.00286312 0.0012613 3.27692e-22)
(-1.75461e-05 1.2358e-05 2.11082e-22)
(0.00403338 -0.000641655 0)
(-7.59347e-06 -3.12139e-06 -4.10708e-22)
(-5.96016e-06 -1.76219e-05 2.77874e-22)
(-1.60558e-05 1.03519e-05 -1.5257e-22)
(0.00024524 -6.4167e-05 1.10309e-22)
(4.18063e-06 -4.28098e-05 0)
(0.00324698 0.00236764 0)
(-0.000692685 -0.000745146 0)
(-1.04558e-05 1.12596e-05 1.40111e-22)
(-0.0027335 -0.000153419 0)
(-3.56282e-05 1.48441e-05 -6.56805e-23)
(-7.31758e-06 -1.34219e-05 0)
(-7.47096e-06 8.69768e-06 -2.55071e-22)
(-1.00736e-05 7.29699e-05 3.15277e-22)
(0.00138831 0.000564007 -1.12417e-22)
(-2.897e-05 4.89557e-06 -4.97359e-23)
(0.000159752 -0.000182756 -1.59424e-22)
(0.000463498 0.000237967 6.05481e-22)
(-0.000806157 -0.000126003 1.68659e-22)
(0.000119379 3.02215e-05 0)
(-2.7865e-07 8.16352e-07 0)
(0.000157817 -0.0001892 -1.36121e-22)
(-1.5058e-05 1.39704e-05 0)
(-4.20218e-05 -6.3804e-05 0)
(0.000280531 -0.00016478 -1.29101e-22)
(0.00402768 0.000504687 -3.11507e-22)
(-0.00216519 -0.000420796 2.66319e-22)
(0.000430176 0.00434845 1.17353e-22)
(0.0011334 0.00102746 7.45456e-22)
(-1.16865e-05 -1.40726e-05 6.54512e-22)
(7.40671e-06 -2.62848e-05 -2.23828e-22)
(-2.66525e-05 2.92501e-05 -3.6339e-22)
(-1.78678e-05 9.32369e-06 -6.30252e-25)
(-0.00047861 -0.00130896 3.66442e-23)
(-2.94663e-06 4.18144e-05 -1.22235e-22)
(-3.54518e-06 -3.61006e-05 0)
(-8.90166e-06 7.61114e-05 -8.25265e-24)
(-8.05325e-06 -2.47122e-05 7.86175e-22)
(6.18811e-05 -0.000141666 -1.1169e-22)
(4.83446e-05 -0.000115309 0)
(-2.26051e-05 -2.19421e-05 -4.49576e-22)
(-0.00151705 -0.00254925 -1.65161e-22)
(-3.08829e-05 -7.75939e-06 0)
(-3.69039e-06 6.20093e-05 3.50239e-23)
(-8.68741e-06 -2.22884e-05 -1.81353e-22)
(-8.72854e-06 6.03879e-05 2.75947e-22)
(-0.00115558 -0.00262222 1.20617e-22)
(0.00272756 0.00111108 0)
(-0.000205713 0.00018705 0)
(-2.59789e-05 3.32608e-05 4.80383e-22)
(0.00274022 0.00124653 0)
(-0.00219836 -0.00123402 4.68844e-24)
(6.92597e-05 -0.000159869 0)
(0.0025235 0.00255979 -1.90036e-23)
(-3.98751e-05 -7.99513e-06 3.02726e-22)
(-1.06319e-05 1.99563e-05 8.9311e-23)
(-0.00034285 0.00211534 2.25319e-23)
(-0.00270981 0.00108807 0)
(-1.47308e-05 4.03021e-05 0)
(-0.00081274 0.00418086 0)
(-7.61596e-06 -1.55534e-05 0)
(-3.99637e-05 -1.4121e-05 4.24118e-23)
(-1.03607e-05 -7.1477e-06 0)
(-0.00190799 1.09796e-05 1.30219e-23)
(-0.000232718 0.000112181 -1.0108e-22)
(-3.32205e-05 -3.41248e-05 3.53672e-23)
(0.000499738 0.000354898 0)
(-2.71095e-05 -1.01615e-05 -2.10705e-22)
(-2.24899e-05 1.45962e-05 -2.16037e-22)
(-0.00145454 -0.00247358 3.09803e-22)
(-6.04304e-06 -0.000141868 -2.59267e-23)
(-3.65685e-05 1.54052e-05 4.23163e-22)
(0.00429797 -0.000505757 1.86529e-22)
(6.24705e-06 -4.34544e-05 -7.73781e-22)
(5.50549e-05 -0.000115426 2.48881e-22)
(-7.81994e-05 -4.32229e-05 0)
(-6.71136e-05 3.68744e-05 -1.25444e-22)
(-0.000133339 5.55552e-05 -2.88928e-22)
(-0.000432803 0.000555443 1.64258e-23)
(-1.51033e-05 1.37548e-05 -2.10108e-22)
(-2.21007e-05 -1.94709e-05 3.15288e-22)
(-2.33843e-05 -9.62918e-06 0)
(-0.00307307 0.00056086 2.49702e-22)
(0.000642931 0.00110947 -1.4276e-24)
(-4.29505e-05 -1.28601e-05 3.41289e-22)
(-9.79254e-06 -9.2379e-06 -6.07664e-22)
(0.000769192 -1.07946e-06 -3.14736e-22)
(7.18796e-06 -2.74632e-05 -7.71509e-23)
(-0.000416454 -0.000238254 -9.56131e-23)
(-3.1407e-06 3.88758e-05 0)
(-6.41996e-06 -4.6893e-05 4.23117e-22)
(-2.41058e-05 -9.90119e-06 0)
(-5.80029e-06 -3.83356e-06 -2.77654e-22)
(-2.33155e-05 4.03677e-05 2.89493e-22)
(-5.4325e-06 -3.50247e-05 2.41457e-22)
(-1.27541e-05 -1.8815e-05 -2.2606e-22)
(-5.59403e-05 -1.31375e-05 -9.84968e-23)
(0.00018644 0.001005 -1.55661e-22)
(-2.77439e-06 4.03989e-05 0)
(-0.00172342 -0.00102403 1.18122e-23)
(-4.07289e-05 -2.53435e-05 2.03607e-22)
(-0.000846057 0.000890557 0)
(-1.90437e-05 -2.91305e-05 -2.5305e-22)
(-9.76741e-05 0.00280924 -4.145e-22)
(-2.16912e-06 3.50438e-05 0)
(0.00283125 0.00111466 0)
(-2.998e-07 3.29014e-06 2.40602e-22)
(-1.72857e-05 6.95381e-05 -1.53704e-23)
(0.0010952 0.00509477 1.00726e-23)
(-0.000404536 -0.000107214 1.65348e-22)
(-0.00127645 -0.00327671 -2.97607e-23)
(-0.000136198 -1.43602e-05 -1.70248e-22)
(-8.27889e-05 1.51938e-05 0)
(0.0033241 0.00156408 -1.84926e-22)
(0.00148607 0.000341972 0)
(-1.77686e-05 4.60867e-06 2.37773e-22)
(-0.00134333 -0.00140025 -3.27769e-23)
(-6.06004e-05 -0.00015461 0)
(-4.87193e-05 1.26984e-05 2.27361e-22)
(0.00227569 0.00261269 8.17597e-24)
(-3.32135e-05 -3.37154e-05 7.91169e-23)
(0.000170661 0.00104001 -8.63493e-23)
(0.000487101 0.000378165 0)
(5.33828e-05 -0.000114255 1.70301e-24)
(0.00244144 4.19566e-05 -9.34674e-23)
(0.00161743 -0.0043666 3.50839e-23)
(-1.42599e-05 4.34908e-05 0)
(-0.000312183 0.000211196 -1.0529e-22)
(-8.6198e-06 -1.79524e-05 0)
(-8.42262e-05 -4.68668e-05 1.20911e-22)
(-3.31086e-06 -2.4685e-05 2.32762e-22)
(-4.31001e-06 -0.000146325 -1.81006e-22)
(-0.0001233 9.31393e-05 0)
(-6.94289e-06 -4.52872e-05 0)
(3.4048e-05 -0.000147242 0)
(-2.20959e-07 1.2431e-05 6.13354e-22)
(0.000906161 -0.000345029 -5.89389e-23)
(-0.000221919 0.000365465 1.90896e-22)
(-9.66965e-06 -0.000139442 2.78488e-23)
(-9.76286e-05 7.50774e-05 -2.18319e-22)
(3.38888e-05 -0.000150885 0)
(-1.78901e-06 5.12174e-05 -1.45693e-22)
(-0.0058131 -0.00201914 0)
(0.000337597 3.90627e-05 0)
(-0.000290636 7.20477e-05 1.13679e-22)
(0.00137988 0.00184035 6.2701e-24)
(0.00425404 -0.000554987 -3.14462e-22)
(-0.000899426 -0.0029623 0)
(-3.5313e-05 1.70437e-05 -1.42344e-22)
(-0.000805319 0.000953163 0)
(-7.62152e-05 3.37866e-05 -2.3474e-22)
(-4.33123e-06 -7.94456e-07 0)
(0.00401138 0.000487576 2.89667e-22)
(0.000312896 0.00278071 3.31748e-22)
(-6.53505e-07 1.98039e-05 1.32383e-22)
(-0.000448242 -0.000211817 2.22601e-22)
(-0.00134221 0.00262292 -3.72848e-23)
(-1.25652e-05 -0.00023627 -1.97742e-22)
(-3.45028e-05 1.30313e-05 -2.83989e-22)
(-0.000408831 -0.000408687 1.34703e-22)
(0.000815143 -0.00142977 0)
(-0.00129005 0.0025585 0)
(-0.00019907 2.72167e-05 -7.66397e-23)
(-2.26072e-05 4.38738e-05 3.16022e-22)
(-0.00152408 -0.000846565 1.86042e-22)
(-0.000259923 0.000235468 1.76957e-22)
(0.00330787 0.00350403 0)
(-3.94943e-05 -2.74284e-05 -3.74195e-22)
(-1.10002e-06 1.69204e-05 -9.26229e-24)
(5.95671e-05 -0.000139331 1.09955e-22)
(-0.00105513 0.000407442 -1.2208e-21)
(-5.08901e-05 -1.00663e-06 -1.8899e-22)
(-0.000231612 -0.000439107 1.20215e-21)
(-0.00110461 -0.00243001 0)
(-4.11178e-05 1.20657e-05 -1.88336e-22)
(2.08697e-05 -0.000365677 -1.02822e-22)
(-0.00779917 0.000102025 0)
(0.000141699 -0.00144737 0)
(-7.91869e-05 2.15693e-05 -1.18526e-23)
(-0.000281991 -0.000365944 -1.43869e-22)
(-2.0757e-05 1.37324e-05 -1.07063e-22)
(-0.000239598 -0.000361323 0)
(0.00350784 -0.00103371 -8.64209e-23)
(-3.24339e-06 4.06868e-05 0)
(-0.0025557 0.00124914 -1.35947e-22)
(-4.08221e-05 -1.49908e-05 6.71449e-23)
(-3.18427e-05 -2.52193e-05 2.25683e-22)
(-0.0049937 0.00174223 5.24838e-23)
(-2.10304e-05 7.5837e-06 2.41447e-22)