/*--------------------------------*- C++ -*----------------------------------*\
| =========                 |                                                 |
| \\      /  F ield         | OpenFOAM: The Open Source CFD Toolbox           |
|  \\    /   O peration     | Version:  v2012                                 |
|   \\  /    A nd           | Website:  www.openfoam.com                      |
|    \\/     M anipulation  |                                                 |
\*---------------------------------------------------------------------------*/
FoamFile
{
    version     2.0;
    format      ascii;
    class       volScalarField;
    location    "300";
    object      k;
}
// * * * * * * * * * * * * * * * * * * * * * * * * * * * * * * * * * * * * * //

dimensions      [0 2 -2 0 0 0 0];


internalField   nonuniform List<scalar> 
53008
(
0.000159947
0.00129059
0.000152324
0.000209937
0.0492195
0.0428364
0.000172745
0.000159733
0.000163306
0.00014988
0.000198223
0.000174441
0.0459613
0.0204784
0.000149406
0.000146695
0.000156715
0.00014676
0.0847044
0.000158565
0.000154632
0.000164643
0.00014802
0.000172052
0.000153387
0.000343812
0.0183003
0.000172817
0.00026322
0.000249405
0.000336434
0.0137558
0.0369616
0.000150679
0.000147851
0.000160641
0.000154215
0.000149781
0.000174985
0.000151654
0.000154026
0.0598056
0.000198667
0.078927
0.000158901
0.000147982
0.000147654
0.000153537
0.000212747
0.000147173
0.000151746
0.000157058
0.000157689
0.000148187
0.000181825
0.0850557
0.000158197
0.000147552
0.000274536
0.000177745
0.000150485
0.000158936
0.08061
0.0276923
0.000194473
0.000147783
0.000246859
0.000147521
0.000146291
0.000147848
0.0609495
0.000145155
0.000149129
0.0399051
0.000345505
0.000148009
0.000149806
0.0447543
0.000146151
0.0543746
0.0426348
0.0475367
0.00021197
0.00020977
0.000165495
0.000147892
0.000173986
0.000163009
0.000147793
0.000175402
0.0540636
0.0754782
0.0476817
0.000190328
0.0659271
0.000204527
0.0578968
0.000152143
0.0504036
0.0778423
0.000158549
0.000151565
0.000200248
0.00017297
0.000160721
0.0758699
0.0565339
0.000160491
0.000196818
0.000145122
0.000205432
0.0301813
0.000149847
0.0710633
0.0507444
0.000155187
0.00015581
0.000145715
0.00197358
0.0520488
0.0498049
0.000149069
0.000151159
0.00080735
0.0442267
0.000148125
0.0479484
0.000223442
0.000171622
0.00014889
0.0100545
0.000148476
0.000209842
0.000154416
0.000145606
0.00026327
0.000148752
0.0458597
0.000147763
0.000147191
0.000146521
0.000147134
0.000166494
0.00026962
0.000172267
0.000151859
0.000155652
0.000147738
0.000146718
0.000150422
0.00014915
0.0802292
0.046913
0.000164773
0.000146669
0.000157407
0.0518997
0.0736103
0.000152345
0.000287041
0.000180988
0.000147203
0.000146672
0.0768129
0.000153653
0.000149958
0.000147258
0.000158613
0.00014738
0.000151275
0.000161725
0.0525454
0.0757065
0.000147254
0.000558005
0.000147181
0.000165612
0.00020328
0.000173669
0.000165915
0.000151073
0.000153498
0.0794459
0.000149909
0.000174395
0.0297649
0.082401
0.0770497
0.0525872
0.000147772
0.0450208
0.000150176
0.000178329
0.0482321
0.000147857
0.000152661
0.000160721
0.000147806
0.000148745
0.000155063
0.000186076
0.000148972
0.000160682
0.000147739
0.000207498
0.0370211
0.000156638
0.000148592
0.000174288
0.00014573
0.0587614
0.000151542
0.000289402
0.000152434
0.000196367
0.000148141
0.000148646
0.000147994
0.000180365
0.000148209
0.000232716
0.000145274
0.000209559
0.000145266
0.000153443
0.000200049
0.000151365
0.000170393
0.000163478
0.000146521
0.0342673
0.0426498
0.000145656
0.0469025
0.000186075
0.0758174
0.000152153
0.000145622
0.0287537
0.000146732
0.0001484
0.000150628
0.000261083
0.000150533
0.000161119
0.000149772
0.000194597
0.000230996
0.000148068
0.000177178
0.000152812
0.000150072
0.000147866
0.000154818
0.000150213
0.0811376
0.000264207
0.000149561
0.000180405
0.000158032
0.000440383
0.000270422
0.000158358
0.000152781
0.000147593
0.0181912
0.0758224
0.00014783
0.0840867
0.00021105
0.000145948
0.000154199
0.000148868
0.000260753
0.041469
0.000144291
0.000207253
0.0579822
0.000179459
0.000150875
0.000148001
0.000149752
0.000179392
0.000173956
0.000152311
0.000174908
0.000171101
0.0342037
0.000174199
0.00014981
0.00059007
0.056649
0.000185839
0.0427913
0.000173642
0.000147932
0.000175858
0.000207059
0.0831452
0.000153266
0.000185784
0.0526483
0.0593454
0.0387953
0.000149521
0.00185192
0.000150201
0.000149491
0.000153359
0.000181826
0.0353363
0.000264325
0.0186379
0.041658
0.000194199
0.000173776
0.000149965
0.000148543
0.000144321
0.000174152
0.000206569
0.0622286
0.000159996
0.0429546
0.000488496
0.00014904
0.0514694
0.000161237
0.0001467
0.000162485
0.0795654
0.000147846
0.000149708
0.000150228
0.000145955
0.000145319
0.000178267
0.000146927
0.0571861
0.00015144
0.000149762
0.00014743
0.000180954
0.000148766
0.000149482
0.0154955
0.000172873
0.0461058
0.00026043
0.0676539
0.000217809
0.0429118
0.000151986
0.000148174
0.0215189
0.0829703
0.000147698
0.00014766
0.000442835
0.0757414
0.000148558
0.000171695
0.000149424
0.0185561
0.000182406
0.049066
0.00014433
0.000170263
0.000156829
0.000152169
0.0832696
0.000158922
0.000171605
0.000232586
0.000182442
0.000156905
0.000179261
0.000181787
0.0164437
0.0782081
0.000149821
0.000151329
0.000164799
0.000158388
0.0740806
0.000146469
0.000154642
0.0572115
0.000147697
0.0473668
0.0566333
0.000147352
0.00015133
0.000154575
0.000151453
0.000154225
0.00014723
0.000186169
0.000165378
0.0608077
0.000159857
0.00016092
0.000153296
0.0487628
0.000147376
0.000148216
0.000167096
0.000153724
0.000148735
0.000161005
0.00014436
0.000211805
0.000146374
0.000153637
0.000150745
0.0502196
0.000148628
0.0196832
0.000153242
0.000147662
0.000146161
0.000148986
0.000166
0.000153554
0.000232072
0.000149199
0.000158765
0.000158606
0.000216546
0.000144313
0.000373908
0.0618146
0.000406826
0.000147422
0.000209727
0.000159989
0.0329444
0.000171
0.084763
0.00017071
0.000147861
0.000188838
0.000193847
0.000179842
0.000147176
0.000181324
0.028208
0.000328659
0.00015201
0.000263632
0.0596162
0.000154029
0.0452331
0.000166627
0.000153227
0.000211895
0.000151477
0.000147811
0.000151878
0.000148507
0.000256763
0.0560879
0.000144339
0.000158738
0.000231346
0.000165318
0.000149009
0.0341687
0.000147865
0.000149082
0.000178985
0.000156747
0.00017244
0.0500121
0.000269853
0.000196951
0.000151507
0.000150625
0.000180487
0.0803307
0.00977579
0.000222992
0.000154725
0.000158943
0.000200732
0.00014614
0.000156005
0.000154498
0.000193762
0.000162947
0.000153102
0.000148842
0.044813
0.000149559
0.000147631
0.000209927
0.000149853
0.0634821
0.000163528
0.000149855
0.000174595
0.000153517
0.0453012
0.000199407
0.000147483
0.000173204
0.000210782
0.000177054
0.000165334
0.000178823
0.0769972
0.000177085
0.000148722
0.000147817
0.000198765
0.0559716
0.000159262
0.000149791
0.000148825
0.0420771
0.000149371
0.0371456
0.000148568
0.000174875
0.000164916
0.0280072
0.000185448
0.000159265
0.0290063
0.000149885
0.000246504
0.000146871
0.000146442
0.0668985
0.000147828
0.000152811
0.000178334
0.000162132
0.0001466
0.000147578
0.000170403
0.0601247
0.000173945
0.000165642
0.0434905
0.000158428
0.000199448
0.000146805
0.000147575
0.00018134
0.0635137
0.00025013
0.000149427
0.0788154
0.00015514
0.000147179
0.0733524
0.000154252
0.000148258
0.000150904
0.000172908
0.0799014
0.000178233
0.000190716
0.000159194
0.00016508
0.000200988
0.000149358
0.000151218
0.000177831
0.000157663
0.0198676
0.00020875
0.000170286
0.000156067
0.000146223
0.000159009
0.0001783
0.000187983
0.000149542
0.000154154
0.000145393
0.000159203
0.00017401
0.000255062
0.00846652
0.000148206
0.000152565
0.000229301
0.000150267
0.000148354
0.000147897
0.000164786
0.000156968
0.0286414
0.000148904
0.0421023
0.000269228
0.000147677
0.0737738
0.0614786
0.00018502
0.000148214
0.000189673
0.000222417
0.056601
0.000160762
0.000162309
0.000172697
0.000151588
0.000149651
0.000149347
0.0658541
0.000147766
0.0421518
0.000147854
0.000144893
0.00014665
0.000174569
0.000145746
0.084276
0.000468068
0.000148696
0.0397431
0.000149738
0.000145127
0.000145329
0.000148975
0.000200727
0.000149535
0.000166703
0.000198112
0.0437458
0.00705576
0.000149831
0.000166702
0.000147252
0.000154418
0.000174124
0.0439693
0.0364241
0.00354684
0.0135535
0.000146567
0.000144323
0.000148922
0.000147904
0.000194184
0.000148134
0.000148183
0.00014887
0.000145972
0.000158907
0.000156536
0.000146939
0.0701767
0.000149438
0.000149272
0.000145979
0.000148108
0.000218113
0.0636901
0.000174548
0.000169492
0.0662774
0.0392027
0.0225367
0.0876787
0.000150408
0.000146937
0.0755941
0.0606634
0.00014722
0.00652504
0.000147833
0.000150304
0.000146012
0.0626214
0.000173122
0.000149147
0.000200155
0.000147759
0.000151612
0.0701813
0.00015778
0.000149844
0.04205
0.000146158
0.000157106
0.000156575
0.000154483
0.00016495
0.000458741
0.000147264
0.000146933
0.000149539
0.0394655
0.000200024
0.000151078
0.000145939
0.000300564
0.000144344
0.000177727
0.000148124
0.000147833
0.000149633
0.000147811
0.000148987
0.00014819
0.000147647
0.000153408
0.000205188
0.000148134
0.000206227
0.000150942
0.0425068
0.000149617
0.000681411
0.000149565
0.0615669
0.00014993
0.000148288
0.000470834
0.000176522
0.0657391
0.000170537
0.000165421
0.0556839
0.000200457
0.000147968
0.0411017
0.000160477
0.000151617
0.0882494
0.000149205
0.000206172
0.0002004
0.000156858
0.000211492
0.000256557
0.000147597
0.000184238
0.000148118
0.000157257
0.000148081
0.000158047
0.000164839
0.000147805
0.000158015
0.00014974
0.000289719
0.000181366
0.000157731
0.000161807
0.000158237
0.000149509
0.0408003
0.000192344
0.000178018
0.000211737
0.0431999
0.000222296
0.000149862
0.0440806
0.000155095
0.000147683
0.0426115
0.00142443
0.000149748
0.000275782
0.0382883
0.000190755
0.000149567
0.0304212
0.000197837
0.0396736
0.00016724
0.000147694
0.0774075
0.000180956
0.000272621
0.000151045
0.00014972
0.000158614
0.000612534
0.000152389
0.000584948
0.000214421
0.000150346
0.000170674
0.0399098
0.059077
0.000161013
0.0296578
0.000151414
0.000215977
0.062862
0.000148114
0.0424847
0.000152449
0.000148874
0.0465217
0.000151845
0.00021748
0.000167687
0.000158172
0.000147596
0.000206478
0.000182068
0.000153408
0.000147861
0.0402818
0.000146672
0.0254281
0.000162747
0.000286031
0.00014795
0.000149673
0.0511802
0.000192592
0.000241031
0.0365482
0.000177744
0.0384126
0.000177149
0.000151065
0.0418091
0.000154448
0.000148516
0.000254907
0.000200039
0.000154485
0.000148444
0.000146293
0.000147635
0.000148152
0.000196926
0.0587325
0.0491356
0.000147314
0.000163339
0.000151221
0.000233663
0.00014767
0.0563145
0.0329098
0.0400668
0.000215858
0.000160174
0.000147216
0.0604982
0.000147801
0.000150244
0.000150196
0.000150488
0.000162521
0.000161087
0.000150272
0.000150232
0.000148011
0.000149935
0.000147876
0.00014725
0.000175752
0.000182464
0.000147855
0.000148194
0.0341469
0.0775545
0.000156989
0.000381136
0.000174822
0.000166016
0.000212658
0.000146804
0.000147806
0.000148072
0.000147743
0.000150515
0.000172224
0.000147374
0.00014562
0.000147253
0.000147847
0.0417069
0.000165483
0.000145298
0.000154512
0.000148537
0.000174354
0.000145509
0.033431
0.000268952
0.000147932
0.0599654
0.000374573
0.000211788
0.000177565
0.0421923
0.0654307
0.000148113
0.000147658
0.000150238
0.0402175
0.000199125
0.000152342
0.0196074
0.011752
0.000146294
0.000146891
0.000150022
0.000164317
0.000155987
0.000147948
0.00014757
0.000147624
0.000147293
0.0347127
0.000205449
0.000148838
0.0263654
0.0524679
0.000149208
0.000147698
0.000151443
0.000166663
0.0348112
0.00287543
0.0570231
0.000189476
0.00018943
0.000427061
0.000280753
0.0293531
0.000154566
0.000178548
0.000158302
0.000158416
0.0436027
0.000147603
0.0186061
0.00023671
0.000150929
0.000167178
0.000147689
0.0689248
0.000150966
0.000200461
0.000316899
0.000146149
0.0840375
0.000146658
0.000149776
0.0853816
0.000154448
0.000146309
0.0340502
0.0595272
0.000148512
0.000208094
0.000153691
0.000177734
0.000148216
0.000144334
0.0325916
0.0454158
0.00019858
0.000147749
0.000152858
0.0448997
0.00015725
0.000146919
0.00014883
0.000153447
0.000146843
0.00019976
0.000154765
0.0437121
0.000165914
0.000171591
0.0680121
0.000148425
0.000148191
0.00016673
0.000249701
0.000188909
0.0742479
0.0338316
0.000198139
0.0386644
0.000147942
0.00014733
0.00017105
0.000150886
0.000146163
0.000152971
0.000158561
0.00028762
0.000154246
0.000165953
0.000235075
0.000159733
0.0468877
0.00014837
0.000157641
0.000146772
0.000148064
0.000179125
0.000148079
0.000162188
0.000220777
0.000190326
0.0469117
0.000147282
0.000171927
0.000196861
0.000145489
0.000147727
0.000209051
0.000146865
0.000148138
0.0404508
0.00028259
0.00019106
0.000173771
0.0387243
0.000167646
0.0327739
0.000161452
0.000147261
0.000186912
0.000148201
0.00026475
0.0362461
0.000147997
0.000176644
0.000154578
0.000181401
0.044035
0.000147978
0.000208934
0.000287976
0.000157346
0.000288239
0.000215525
0.00410652
0.000164848
0.000159839
0.000199983
0.000163132
0.000145553
0.000147386
0.000168278
0.0622688
0.000146482
0.000158248
0.0754996
0.000162818
0.000154701
0.0875008
0.000148547
0.000166993
0.0746889
0.0404836
0.0355493
0.000147446
0.000153525
0.000146973
0.000154863
0.000153466
0.000216894
0.0534953
0.000157306
0.000206264
0.000153224
0.0381301
0.000145714
0.000147953
0.000157382
0.000147515
0.0435764
0.0406381
0.000168873
0.000164942
0.000149169
0.000195832
0.000147773
0.000149517
0.000156514
0.000148107
0.000207182
0.00015582
0.000178262
0.000235778
0.000144043
0.000164528
0.000160674
0.000147276
0.0363539
0.000150718
0.000180321
0.0891848
0.00020736
0.000146511
0.0680327
0.000161102
0.000149188
0.000148701
0.00434373
0.000149071
0.0423105
0.000149286
0.000147302
0.065141
0.000182398
0.000180475
0.000145731
0.000157218
0.0404708
0.000146825
0.000147761
0.0470664
0.0332669
0.000180196
0.0750368
0.000148125
0.000223334
0.000172946
0.000150973
0.000177845
0.0567277
0.0811105
0.000181738
0.000148154
0.0808217
0.000146978
0.0339009
0.0292548
0.000147792
0.0523665
0.034849
0.000173628
0.0522923
0.000148274
0.000145077
0.000144023
0.000180647
0.0845923
0.000206381
0.000150701
0.0229881
0.00014997
0.00014879
0.000173276
0.000147664
0.000150685
0.000145931
0.000186811
0.000148715
0.00015307
0.0427754
0.0236772
0.000172182
0.000148228
0.000149842
0.0848701
0.000197927
0.000189561
0.000145311
0.000169821
0.000168653
0.0568993
0.00014879
0.0390437
0.000190089
0.000150513
0.000148002
0.000149702
0.000189289
0.0650963
0.000149291
0.000159321
0.000152856
0.0001492
0.000148091
0.0743904
0.0640757
0.0467845
0.000148405
0.000180416
0.000207386
0.0607447
0.000181752
0.000222261
0.000149633
0.0891538
0.00016145
0.00017764
0.0412078
0.000149245
0.000148773
0.000153461
0.000147852
0.0264077
0.000147681
0.000190461
0.0209788
0.000144383
0.000148089
0.0539259
0.00014528
0.000146602
0.000166016
0.00015055
0.000161736
0.000172884
0.000148474
0.000147279
0.000189192
0.000144946
0.000147298
0.0306211
0.000155145
0.000147196
0.000152304
0.000149135
0.000147391
0.00014697
0.0744205
0.000147006
0.000189705
0.000187032
0.00014731
0.000149865
0.000166492
0.000153237
0.000146003
0.000188598
0.0380201
0.000149673
0.00014781
0.00014807
0.000159304
0.00015213
0.0805231
0.000197124
0.000145571
0.000149385
0.0393549
0.000154516
0.084041
0.000154601
0.0649538
0.000151024
0.000173431
0.0795505
0.0392287
0.000148017
0.000158175
0.0001454
0.000150918
0.00389152
0.00017179
0.0427077
0.000167096
0.000157448
0.00016243
0.000148702
0.0591167
0.000217221
0.000148784
0.0409156
0.000154215
0.000147374
0.000148182
0.000148647
0.000158416
0.00015511
0.0767472
0.000148461
0.0215537
0.063897
0.000172614
0.000147012
0.0891025
0.0441722
0.000148707
0.00019834
0.0773474
0.000148833
0.000208867
0.000161585
0.000167937
0.000178091
0.000309863
0.000150018
0.0473442
0.000196828
0.000145766
0.000147274
0.000145678
0.000157251
0.000202469
0.0436384
0.000145454
0.000149801
0.000148104
0.0416766
0.000160302
0.00015003
0.000149167
0.0568753
0.088849
0.000256935
0.0437254
0.0587298
0.000150578
0.000207895
0.000148471
0.00016682
0.000147325
0.000223955
0.000149867
0.000164589
0.000155335
0.000149865
0.0744919
0.000147766
0.000161606
0.0783624
0.000179358
0.000148806
0.000147734
0.000147777
0.0626834
0.00019057
0.000179162
0.000155019
0.000168079
0.0411311
0.000211698
0.000149937
0.0408133
0.000157236
0.000154814
0.0650228
0.000148824
0.0571732
0.000148505
0.0443014
0.000151132
0.000148254
0.0843637
0.000162945
0.000150079
0.000147852
0.0401622
0.0802747
0.000175336
0.000174048
0.000188873
0.069189
0.0446095
0.0873361
0.0457917
0.000151891
0.000146997
0.0001671
0.000164968
0.000149443
0.000147731
0.000162441
0.000148009
0.000148088
0.0552389
0.000155263
0.000213221
0.00015821
0.000190245
0.000148658
0.000201522
0.0415346
0.000148688
0.000213426
0.000147354
0.000208093
0.000148783
0.0690427
0.000167921
0.000174527
0.000146295
0.000147232
0.00029406
0.0410708
0.000147619
0.0554437
0.000150822
0.000147952
0.000148103
0.000161294
0.00335595
0.000199289
0.00014876
0.000156771
0.0420334
0.000148428
0.000168406
0.000147515
0.0423492
0.000148162
0.000144968
0.000156312
0.000169525
0.000154392
0.000222345
0.000148668
0.000156211
0.000174862
0.00022298
0.000148094
0.0520739
0.000147112
0.079383
0.0584595
0.00029143
0.00014814
0.000431334
0.000159767
0.00014821
0.000147867
0.000147365
0.00018437
0.000147884
0.000229504
0.000172742
0.000193739
0.000146503
0.000144292
0.000145301
0.0621778
0.000160977
0.0807911
0.000251237
0.000147738
0.05816
0.000209405
0.000150147
0.0438639
0.000148034
0.00016774
0.000156358
0.000155212
0.000150507
0.000197776
0.000177121
0.000146456
0.000220415
0.000148055
0.000148736
0.000150953
0.000148117
0.000150201
0.000152214
0.000148895
0.0787224
0.000190206
0.000211169
0.00014874
0.000150258
0.000220458
0.000165959
0.000158948
0.000145605
0.000148155
0.000179799
0.00503449
0.00014943
0.000231684
0.000148857
0.0626441
0.000192577
0.000147442
0.000145937
0.000200532
0.00016659
0.000152258
0.0607428
0.000148174
0.000152259
0.000599972
0.000172418
0.000146705
0.000162252
0.00014853
0.000171407
0.000149297
0.000219597
0.000150103
0.00015713
0.000152573
0.000169028
0.000150636
0.086406
0.0395865
0.000148161
0.000150663
0.000228847
0.0316744
0.000148042
0.000150866
0.000177071
0.0325103
0.000148303
0.000156488
0.000190716
0.000148956
0.000150922
0.000174775
0.000149738
0.000149462
0.054444
0.00984844
0.00015125
0.000147312
0.000158819
0.000145687
0.0170134
0.0365719
0.0488776
0.000158156
0.000192111
0.0833631
0.000152211
0.0634814
0.000228361
0.000148773
0.000147698
0.00016719
0.000145793
0.000152394
0.000251348
0.00016926
0.000154369
0.000185744
0.00016293
0.000168641
0.00020705
0.0525856
0.000146591
0.000158516
0.0487915
0.000222919
0.000162553
0.000205099
0.000179777
0.000148521
0.000221165
0.000164493
0.000150588
0.000154028
0.000147491
0.000265456
0.000149859
0.00014793
0.000147916
0.00016453
0.0543611
0.000196484
0.00022892
0.0518035
0.000162821
0.000635888
0.000159724
0.000148873
0.000159381
0.000167418
0.000152919
0.0357747
0.000227173
0.000153128
0.00019916
0.0199261
0.000199698
0.000148556
0.000157334
0.0322517
0.000147889
0.000147954
0.0371647
0.000151895
0.00014898
0.000171676
0.000150283
0.000161913
0.000150845
0.000187727
0.000145661
0.000905438
0.000533733
0.000177933
0.00014882
0.000198033
0.000210707
0.000148621
0.000160746
0.000147898
0.000148849
0.000152272
0.000147612
0.000145915
0.00638246
0.000236424
0.000148392
0.000149294
0.000149341
0.0596387
0.0426983
0.00014525
0.000223587
0.000162457
0.000203159
0.000148889
0.000154579
0.000147678
0.000147326
0.000151378
0.000148327
0.000166154
0.0531696
0.000191169
0.000190409
0.000147673
0.000147576
0.0306861
0.000177752
0.0538786
0.000190637
0.0559411
0.00014779
0.000163451
0.000162122
0.000168415
0.0591271
0.000189574
0.000145147
0.000145761
0.0378528
0.000206387
0.000145788
0.000173279
0.0638279
0.000146921
0.000148906
0.0521301
0.000152405
0.000211574
0.0613705
0.00015352
0.00019037
0.000153763
0.00017512
0.0393675
0.00016642
0.00014794
0.000173505
0.000198632
0.000147489
0.000166095
0.000188752
0.000150936
0.0410523
0.0555708
0.00100114
0.0581417
0.000147741
0.000149091
0.000224257
0.000223509
0.0518484
0.0743384
0.0562856
0.000172155
0.000152935
0.000143958
0.000148573
0.000165979
0.000147749
0.084364
0.000191045
0.0694205
0.000146955
0.000147818
0.000148528
0.000270792
0.000162074
0.000152855
0.000146398
0.00017501
0.000149448
0.0753512
0.0604964
0.0480184
0.0533798
0.000186499
0.00014888
0.0332354
0.000149257
0.000203049
0.000181152
0.000148541
0.0615883
0.000207415
0.000179133
0.000146925
0.000151821
0.000146851
0.0573901
0.0487294
0.000146448
0.000147933
0.0473574
0.000147864
0.0109366
0.000202299
0.000179286
0.000146912
0.000148095
0.000222682
0.000194128
0.000251487
0.000147985
0.000150018
0.000177395
0.000145835
0.000180307
0.000186909
0.000145844
0.000177448
0.000160707
0.000147851
0.000148307
0.0597706
0.000172441
0.000160206
0.000200197
0.000176301
0.0781378
0.000146436
0.000165966
0.000148219
0.0656368
0.000147773
0.000174099
0.000148792
0.000148178
0.000161613
0.000147679
0.000156639
0.000152835
0.000145128
0.00017126
0.000149936
0.000186472
0.0782246
0.000172612
0.0182624
0.0447421
0.000153824
0.000218967
0.000148083
0.000149308
0.000168224
0.0426999
0.000208912
0.00016786
0.0495976
0.0399101
0.0854962
0.000149218
0.000146947
0.000153081
0.000224031
0.000219145
0.0387889
0.000149009
0.000153561
0.000151145
0.000150215
0.000219843
0.000202591
0.000219176
0.000418994
0.000147182
0.000147851
0.000149209
0.000150105
0.000186024
0.0783949
0.000147242
0.000172368
0.00014696
0.000147883
0.0556188
0.000200508
0.000206191
0.000198135
0.0183224
0.000146984
0.000152159
0.0530979
0.000198347
0.000227515
0.0637272
0.000219632
0.000146182
0.000156777
0.0367559
0.000146702
0.0475487
0.000152399
0.000147573
0.000181509
0.000148789
0.000153392
0.0597622
0.000146495
0.0377738
0.000230989
0.000189493
0.000170639
0.0174636
0.000174658
0.000144868
0.0358974
0.0630427
0.000161573
0.000148026
0.000147815
0.000150735
0.000163412
0.000235203
0.000147525
0.000281737
0.000146754
0.000146558
0.000230264
0.000164211
0.000149213
0.000149763
0.0671994
0.000178707
0.000146533
0.000148176
0.000149241
0.000188338
0.0610967
0.00014759
0.000148245
0.000147521
0.00014798
0.000154532
0.00016251
0.000149031
0.0427945
0.00016143
0.000179797
0.000167767
0.000144966
0.0653229
0.000159113
0.000310565
0.000224323
0.000152299
0.000148119
0.000152254
0.000167936
0.0397026
0.000159871
0.00015876
0.0771419
0.000154352
0.000181087
0.000148398
0.000148597
0.000149359
0.000147887
0.0472813
0.000231966
0.000148449
0.000147657
0.000152204
0.0329406
0.000176232
0.000146664
0.000152217
0.000147371
0.000154426
0.000211518
0.000152199
0.000148015
0.000144991
0.0395056
0.0163194
0.000146478
0.000200111
0.0001721
0.000179033
0.000146861
0.000148438
0.000164435
0.000150098
0.000146436
0.00015347
0.000266989
0.000199677
0.000181032
0.0578734
0.0805873
0.00014788
0.00014955
0.000169282
0.00215653
0.000179186
0.00015009
0.0001487
0.000276584
0.000192549
0.000220163
0.000207375
0.000146566
0.0375312
0.000148061
0.000276448
0.000148503
0.000149929
0.000331554
0.000176959
0.000162654
0.000168362
0.0580143
0.0118942
0.000145495
0.000148807
0.000308661
0.000151516
0.00014621
0.000150407
0.000143941
0.0379847
0.000148228
0.000148417
0.055715
0.0314229
0.000147218
0.00014836
0.000146893
0.000147598
0.0582027
0.0791415
0.000188239
0.000201271
0.0350315
0.0846512
0.000147376
0.0422352
0.057662
0.0775224
0.0576617
0.000152124
0.000150259
0.000148729
0.000149343
0.000152316
0.00014853
0.000149921
0.0635713
0.000160481
0.000165306
0.000168854
0.0437978
0.00016275
0.0381549
0.0503987
0.0712273
0.000169238
0.000148238
0.000179091
0.000303954
0.000152281
0.000146962
0.000149396
0.0307373
0.0463127
0.000167955
0.000147118
0.0035103
0.000146015
0.000162036
0.00014868
0.0409847
0.00014455
0.000147278
0.0386089
0.000155174
0.0500612
0.000148528
0.000159075
0.00015153
0.000189176
0.000147844
0.000179511
0.000172874
0.000148108
0.000148846
0.054494
0.000298174
0.000160281
0.000164752
0.00014777
0.000277691
0.000147146
0.000145369
0.000150109
0.000148095
0.000156378
0.000164944
0.000168883
0.000149295
0.000148128
0.0189296
0.000149628
0.000161846
0.000145432
0.000150858
0.000148558
0.000148445
0.0859333
0.000146927
0.000147543
0.032385
0.000150578
0.0016135
0.0101353
0.000151419
0.000148859
0.000254779
0.000181042
0.0574635
0.000158031
0.000161984
0.000156392
0.000145641
0.081161
0.000147948
0.0480682
0.000186046
0.0001708
0.000154568
0.00022294
0.000158448
0.000149048
0.00022633
0.000147796
0.000146933
0.000158156
0.0490517
0.0630803
0.0602666
0.049982
0.00017147
0.000154422
0.000160357
0.000147712
0.000146701
0.000144125
0.000217993
0.000151378
0.000158488
0.000147281
0.0589878
0.0439243
0.000156077
0.000148118
0.000194736
0.0582753
0.000148476
0.000148283
0.0255992
0.000148057
0.000157674
0.000231023
0.000147879
0.00014997
0.00020291
0.0337675
0.000149771
0.000161032
0.000147942
0.000148011
0.000154263
0.00017013
0.0636367
0.000168276
0.000149052
0.000147592
0.000211021
0.044857
0.000147641
0.000149876
0.0435579
0.000147983
0.000199625
0.000152277
0.000147474
0.000153583
0.000226871
0.000146842
0.000149648
0.000149036
0.000153543
0.000147344
0.0392853
0.000149303
0.000172106
0.000172021
0.00014959
0.0757972
0.0545814
0.00014542
0.000166461
0.000145354
0.000168218
0.0770912
0.000160273
0.00014774
0.000154745
0.0407488
0.000147359
0.0571181
0.000153266
0.00015143
0.000189221
0.0001487
0.000146731
0.00015679
0.00105479
0.000167862
0.0493661
0.000147724
0.074463
0.000203967
0.000150387
0.0456609
0.000180981
0.000181353
0.000152332
0.000147811
0.000147633
0.000158942
0.0809018
0.000178108
0.000145449
0.000149607
0.000153822
0.0182164
0.0495238
0.0783084
0.000144535
0.000149964
0.000181625
0.000145693
0.0150145
0.000148125
0.000148624
0.0192206
0.000146588
0.000169287
0.000146376
0.000147997
0.000175482
0.000146594
0.000146865
0.000146777
0.000148673
0.0768235
0.000174067
0.0429373
0.032806
0.000152401
0.000169783
0.000212171
0.000150126
0.000280563
0.0398474
0.000165891
0.000148204
0.00014883
0.000168095
0.000276677
0.000178997
0.000150209
0.000146184
0.0879244
0.0856216
0.000147948
0.000178768
0.000222258
0.000189993
0.000217651
0.000149209
0.0236593
0.0742662
0.00014681
0.000147904
0.00653287
0.000328162
0.000185245
0.0535227
0.000156216
0.000174838
0.000149803
0.0143312
0.000164241
0.000157906
0.000165103
0.0804808
0.000147316
0.000149469
0.000154541
0.000187217
0.00014689
0.0569572
0.000181612
0.0572994
0.000147338
0.000148243
0.000180406
0.0001471
0.000211239
0.000188577
0.0699818
0.0108725
0.0610115
0.000163064
0.000147831
0.000146766
0.000149603
0.0306653
0.000187912
0.0570728
0.0111545
0.000148009
0.000149609
0.000198722
0.000148875
0.00026306
0.000147818
0.00015992
0.0608058
0.000148413
0.000161198
0.000150524
0.00018948
0.000164828
0.000149312
0.0596193
0.000207939
0.000185269
0.0573922
0.000227205
0.0488729
0.00014825
0.0713497
0.0562814
0.0583638
0.000146126
0.000146034
0.000151442
0.000177438
0.0715384
0.0400139
0.000147747
0.000147779
0.000233324
0.0577171
0.00014981
0.000148345
0.000150105
0.000146152
0.000186348
0.0384738
0.000149227
0.000195852
0.0422328
0.000232046
0.0652756
0.000180898
0.000148191
0.000144497
0.000147051
0.00015304
0.0217091
0.000169198
0.00015743
0.000179966
0.0401583
0.000147677
0.000145394
0.000186172
0.0786743
0.000162053
0.047919
0.00020817
0.000149579
0.000145579
0.00017912
0.0780062
0.000178511
0.000149285
0.000146986
0.000261586
0.0499742
0.000153109
0.000148375
0.0196142
0.000205555
0.000162953
0.000149775
0.000158765
0.000199158
0.000144376
0.0146358
0.0419438
0.000201698
0.000154239
0.000149608
0.000146818
0.000187478
0.000153258
0.000147793
0.000177224
0.000149648
0.000163025
0.0143204
0.0595184
0.0716028
0.000147661
0.000147736
0.0498302
0.000149921
0.0330801
0.000312696
0.000148322
0.000149179
0.000160455
0.00019345
0.0792267
0.000184013
0.0215315
0.000147732
0.000145702
0.000205202
0.000146358
0.000173664
0.000147703
0.000162276
0.000181723
0.000153096
0.000160993
0.00140045
0.000147958
0.00015732
0.0381249
0.000200115
0.0332014
0.000147779
0.000148534
0.000150739
0.000148461
0.000152075
0.000148848
0.000151191
0.000161229
0.0757282
0.000146866
0.000651932
0.000162222
0.000147841
0.000205926
0.000263206
0.0470983
0.000200379
0.000153153
0.0490322
0.00014935
0.000168438
0.000147317
0.0001476
0.000145208
0.000150048
0.000188924
0.0557262
0.0001489
0.000149934
0.0382407
0.000173797
0.0702978
0.00016116
0.000147977
0.000150567
0.00016437
0.00017074
0.000157598
0.000190879
0.00015739
0.000156259
0.000382072
0.000170511
0.000148145
0.0383203
0.000150673
0.000187935
0.0383119
0.000183497
0.0321955
0.0413594
0.000154357
0.0832892
0.000154324
0.000159309
0.000157456
0.000152353
0.000152109
0.0786986
0.000171816
0.0577843
0.00015207
0.000148356
0.000149384
0.00022346
0.000148329
0.000293647
0.000150768
0.000188062
0.000147444
0.000145059
0.000146291
0.0489598
0.000170732
0.000148936
0.000148832
0.000163869
0.000148516
0.000174512
0.00014629
0.000147311
0.000145643
0.0416712
0.000224456
0.000173587
0.000149113
0.000146884
0.000149361
0.00014985
0.000153241
0.00018804
0.000196869
0.000149173
0.000148463
0.000207085
0.000148234
0.085928
0.000148748
0.000149794
0.0594967
0.000158903
0.000154065
0.000258475
0.00014672
0.000174875
0.0276638
0.000148222
0.000149646
0.000148082
0.00015168
0.000147532
0.000162346
0.000267563
0.0537559
0.000149461
0.000171524
0.000188404
0.00028566
0.00014908
0.000147765
0.000146835
0.000162137
0.000223778
0.000158518
0.000149193
0.0466074
0.000163656
0.000145294
0.0837856
0.0632832
0.00015862
0.000147345
0.000252672
0.000148507
0.000145225
0.0140658
0.0344409
0.0266512
0.000148236
0.000147735
0.000160192
0.0221822
0.000147256
0.000161982
0.000156566
0.000181669
0.000163943
0.000178019
0.000144297
0.000162348
0.0419796
0.000165971
0.000147423
0.000147671
0.000164771
0.0292431
0.000165471
0.000510464
0.000147851
0.000150025
0.000174456
0.000154869
0.000148299
0.042079
0.000191562
0.0110565
0.000155215
0.000146221