/*--------------------------------*- C++ -*----------------------------------*\
| =========                 |                                                 |
| \\      /  F ield         | OpenFOAM: The Open Source CFD Toolbox           |
|  \\    /   O peration     | Version:  v2012                                 |
|   \\  /    A nd           | Website:  www.openfoam.com                      |
|    \\/     M anipulation  |                                                 |
\*---------------------------------------------------------------------------*/
FoamFile
{
    version     2.0;
    format      ascii;
    class       volScalarField;
    location    "300";
    object      k_0;
}
// * * * * * * * * * * * * * * * * * * * * * * * * * * * * * * * * * * * * * //

dimensions      [0 2 -2 0 0 0 0];


internalField   nonuniform List<scalar> 
53008
(
0.000159947
0.00129137
0.000152324
0.000209947
0.0492195
0.0428368
0.000172745
0.000159733
0.000163306
0.00014988
0.000198225
0.000174441
0.0459612
0.0204655
0.000149406
0.000146696
0.000156715
0.00014676
0.0847071
0.000158564
0.000154632
0.000164643
0.00014802
0.000172052
0.000153387
0.000343718
0.0182872
0.000172817
0.000263232
0.000249428
0.000336443
0.0137517
0.0369626
0.000150679
0.000147851
0.000160641
0.000154215
0.000149781
0.000174985
0.000151654
0.000154027
0.0598065
0.000198669
0.0789284
0.000158901
0.000147982
0.000147654
0.000153537
0.000212754
0.000147173
0.000151746
0.000157058
0.000157689
0.000148187
0.000181825
0.0850581
0.000158197
0.000147552
0.000274498
0.000177745
0.000150486
0.000158936
0.0806086
0.0276915
0.000194439
0.000147783
0.000246887
0.000147521
0.000146291
0.000147848
0.06095
0.000145155
0.000149129
0.0399061
0.000345519
0.000148009
0.000149806
0.0447547
0.000146151
0.0543754
0.0426352
0.0475378
0.000211973
0.000209766
0.000165495
0.000147892
0.000173942
0.000163009
0.000147793
0.000175401
0.0540644
0.0754777
0.0476826
0.000190328
0.0659331
0.00020453
0.0578903
0.000152143
0.0504059
0.0778409
0.000158549
0.000151565
0.000200247
0.00017297
0.000160721
0.0758683
0.0565331
0.00016049
0.00019682
0.000145122
0.000205427
0.0301782
0.000149847
0.0710686
0.0507346
0.000155187
0.000155809
0.000145715
0.00197408
0.0520494
0.0498049
0.000149069
0.00015116
0.000807346
0.0442272
0.000148125
0.0479492
0.000223443
0.000171622
0.00014889
0.0100503
0.000148476
0.000209833
0.000154416
0.000145606
0.00026327
0.000148752
0.0458596
0.000147763
0.000147191
0.000146521
0.000147134
0.000166494
0.000269605
0.000172267
0.000151859
0.000155652
0.000147738
0.000146718
0.000150422
0.00014915
0.0802278
0.046913
0.000164772
0.000146669
0.000157406
0.0518903
0.0736109
0.000152345
0.000286881
0.000180988
0.000147204
0.000146672
0.0768124
0.000153653
0.000149958
0.000147258
0.000158613
0.00014738
0.000151275
0.000161725
0.0525432
0.0757107
0.000147254
0.00055801
0.000147181
0.000165612
0.000203282
0.000173655
0.000165915
0.000151073
0.000153498
0.0794472
0.000149908
0.000174395
0.0297642
0.0823999
0.0770538
0.0525865
0.000147772
0.0450175
0.000150176
0.000178301
0.0482327
0.000147857
0.000152661
0.000160721
0.000147806
0.000148745
0.000155063
0.000186076
0.000148972
0.000160682
0.000147739
0.000207501
0.0370215
0.000156637
0.000148592
0.000174288
0.00014573
0.0587605
0.000151542
0.000289419
0.000152434
0.000196369
0.000148141
0.000148646
0.000147994
0.000180365
0.000148209
0.000232723
0.000145274
0.000209562
0.000145266
0.000153443
0.00020005
0.000151365
0.000170393
0.000163478
0.000146521
0.0342668
0.042639
0.000145656
0.0468987
0.000186075
0.0758158
0.000152152
0.000145622
0.0287534
0.000146732
0.0001484
0.000150628
0.000261074
0.000150533
0.000161118
0.000149772
0.000194597
0.000231007
0.000148068
0.000177178
0.000152812
0.000150072
0.000147866
0.000154818
0.000150214
0.0811364
0.000264202
0.000149561
0.000180405
0.000158032
0.00043998
0.000270405
0.000158359
0.000152781
0.000147593
0.0181787
0.0758211
0.00014783
0.0840855
0.000211054
0.000145948
0.0001542
0.000148868
0.000260753
0.0414695
0.000144291
0.000207257
0.0579812
0.000179458
0.000150875
0.000148001
0.000149752
0.000179392
0.000173956
0.000152311
0.000174908
0.000171101
0.0342033
0.000174199
0.00014981
0.000593678
0.0566464
0.000185838
0.0427854
0.000173568
0.000147932
0.000175859
0.000207062
0.083144
0.000153266
0.000185784
0.0526476
0.0593462
0.0387958
0.000149521
0.00185291
0.000150201
0.000149491
0.000153359
0.000181826
0.0353358
0.000264341
0.018625
0.0416586
0.000194201
0.000173776
0.000149965
0.000148543
0.000144321
0.000174152
0.000206572
0.0622295
0.000159997
0.0429551
0.000492535
0.00014904
0.0514598
0.000161237
0.0001467
0.000162485
0.0795651
0.000147846
0.000149708
0.000150228
0.000145955
0.000145319
0.000178244
0.000146927
0.0571795
0.00015144
0.000149762
0.00014743
0.000180954
0.000148766
0.000149481
0.0154836
0.000172873
0.0461061
0.000260438
0.0676537
0.000217833
0.0429125
0.000151986
0.000148174
0.0215188
0.0829743
0.000147698
0.00014766
0.000442972
0.0757401
0.000148558
0.000171695
0.000149425
0.0185561
0.000182406
0.0490648
0.00014433
0.000170263
0.000156829
0.00015217
0.0832686
0.000158921
0.000171601
0.0002326
0.000182442
0.000156905
0.000179261
0.000181815
0.0164316
0.0782078
0.000149821
0.000151329
0.000164799
0.000158388
0.0740792
0.000146469
0.000154642
0.0572087
0.000147697
0.0473613
0.0566324
0.000147352
0.00015133
0.000154575
0.000151453
0.000154225
0.00014723
0.000186169
0.000165381
0.0608086
0.000159857
0.00016092
0.000153296
0.0487632
0.000147376
0.000148216
0.000167095
0.000153724
0.000148735
0.000161005
0.00014436
0.000211804
0.000146374
0.000153637
0.000150745
0.0502203
0.000148628
0.0196833
0.000153242
0.000147662
0.000146161
0.000148986
0.000166
0.000153554
0.000232076
0.000149199
0.000158765
0.000158606
0.000216565
0.000144313
0.000373917
0.061814
0.000406512
0.000147422
0.000209727
0.000159989
0.0329441
0.000171
0.0847619
0.00017071
0.000147861
0.000188838
0.000193814
0.000179843
0.000147176
0.000181324
0.028208
0.000328503
0.00015201
0.000263579
0.0596149
0.000154029
0.0452337
0.000166627
0.000153227
0.000211888
0.000151477
0.000147811
0.000151878
0.000148507
0.000256784
0.0560882
0.000144339
0.000158738
0.000231362
0.000165318
0.000149009
0.0341683
0.000147865
0.000149082
0.000178985
0.000156747
0.00017244
0.0500108
0.000269859
0.000196954
0.000151507
0.000150625
0.000180487
0.0803315
0.00978148
0.000222991
0.000154725
0.000158943
0.000200731
0.00014614
0.000156005
0.000154498
0.000193763
0.000162947
0.000153102
0.000148842
0.0448139
0.000149559
0.000147631
0.000209929
0.000149853
0.0634828
0.000163528
0.000149855
0.000174595
0.000153517
0.0452973
0.000199411
0.000147483
0.00017318
0.000210784
0.000177055
0.000165334
0.000178824
0.0769967
0.000177085
0.000148722
0.000147817
0.000198765
0.0559692
0.000159262
0.000149791
0.000148825
0.0420765
0.000149371
0.0371454
0.000148568
0.000174875
0.000164916
0.0280069
0.000185449
0.000159265
0.0290067
0.000149885
0.000246531
0.000146871
0.000146442
0.0668967
0.000147828
0.000152811
0.000178334
0.000162132
0.0001466
0.000147578
0.000170403
0.0601252
0.000173945
0.000165642
0.0434845
0.000158428
0.000199451
0.000146805
0.000147576
0.00018134
0.0635145
0.000250149
0.000149427
0.0788202
0.00015514
0.000147179
0.073353
0.000154252
0.000148258
0.000150904
0.000172908
0.079902
0.000178233
0.000190716
0.000159194
0.00016508
0.000200987
0.000149358
0.000151218
0.000177832
0.000157663
0.0198661
0.000208753
0.000170286
0.000156067
0.000146223
0.000159009
0.0001783
0.000187983
0.000149542
0.000154154
0.000145393
0.000159202
0.000174009
0.000255068
0.00847168
0.000148206
0.000152565
0.000229303
0.000150267
0.000148354
0.000147898
0.00016479
0.000156967
0.0286414
0.000148904
0.0421028
0.000269207
0.000147677
0.0737725
0.0614791
0.000185021
0.000148214
0.000189674
0.000222416
0.0565984
0.000160762
0.000162309
0.00017264
0.000151588
0.000149651
0.000149347
0.0658549
0.000147766
0.0421528
0.000147854
0.000144893
0.00014665
0.000174568
0.000145746
0.0842797
0.000477167
0.000148696
0.0397425
0.000149739
0.000145127
0.000145329
0.000148975
0.000200727
0.000149535
0.000166703
0.000198109
0.0437463
0.00705578
0.000149831
0.000166701
0.000147252
0.000154418
0.000174123
0.0439698
0.0364236
0.00354343
0.0135516
0.000146567
0.000144323
0.000148922
0.000147904
0.000194185
0.000148134
0.000148183
0.00014887
0.000145972
0.000158907
0.000156536
0.000146939
0.0701755
0.000149438
0.000149272
0.000145979
0.000148108
0.00021812
0.0636963
0.000174548
0.000169492
0.0662785
0.0392033
0.0225366
0.0876805
0.000150408
0.000146937
0.0755935
0.0606629
0.00014722
0.00652007
0.000147833
0.000150304
0.000146012
0.0626219
0.000173107
0.000149147
0.000200156
0.000147759
0.000151611
0.0701806
0.00015778
0.000149844
0.042051
0.000146158
0.000157106
0.000156575
0.000154483
0.000164953
0.000458561
0.000147264
0.000146933
0.000149539
0.0394632
0.000200023
0.000151078
0.000145939
0.000299489
0.000144344
0.000177727
0.000148124
0.000147833
0.000149633
0.000147811
0.000148986
0.00014819
0.000147647
0.000153408
0.000205181
0.000148134
0.000206229
0.000150942
0.0425064
0.000149617
0.000681137
0.000149565
0.0615732
0.00014993
0.000148288
0.000470829
0.000176522
0.0657376
0.000170537
0.000165422
0.0556861
0.000200457
0.000147968
0.0411023
0.000160477
0.000151617
0.0882504
0.000149205
0.000206166
0.0002004
0.000156858
0.000211494
0.00025658
0.000147597
0.000184308
0.000148118
0.000157257
0.000148081
0.000158047
0.00016484
0.000147805
0.000158015
0.00014974
0.000289583
0.000181366
0.000157731
0.000161807
0.000158237
0.000149509
0.0407893
0.000192344
0.000178034
0.000211736
0.0432009
0.000222311
0.000149862
0.0440802
0.000155095
0.000147683
0.042612
0.00142466
0.000149748
0.000275745
0.0382866
0.000190753
0.000149567
0.0304209
0.000197839
0.0396723
0.00016724
0.000147694
0.077407
0.000180935
0.000272593
0.000151045
0.00014972
0.000158614
0.000612589
0.000152389
0.000584691
0.000214427
0.000150346
0.000170674
0.039909
0.0590799
0.000161013
0.0296576
0.000151414
0.000215988
0.0628628
0.000148114
0.042485
0.000152449
0.000148874
0.0465216
0.000151845
0.000217484
0.000167687
0.000158172
0.000147596
0.00020647
0.000182039
0.000153408
0.000147861
0.0402825
0.000146672
0.0254026
0.000162747
0.000285979
0.00014795
0.000149673
0.0511809
0.000192592
0.000240999
0.0365489
0.000177744
0.0384121
0.000177149
0.000151065
0.0418097
0.000154448
0.000148516
0.000254917
0.000200027
0.000154485
0.000148444
0.000146293
0.000147635
0.000148152
0.000196928
0.0587334
0.0491333
0.000147314
0.000163338
0.000151221
0.000233667
0.00014767
0.0563147
0.0329095
0.0400667
0.00021587
0.000160174
0.000147216
0.0604991
0.0001478
0.000150244
0.000150196
0.000150488
0.000162522
0.000161087
0.000150272
0.000150232
0.000148011
0.000149935
0.000147876
0.00014725
0.0001758
0.000182464
0.000147855
0.000148194
0.0341465
0.0775541
0.000156989
0.000381119
0.000174822
0.000166016
0.000212652
0.000146804
0.000147806
0.000148072
0.000147743
0.000150515
0.000172215
0.000147374
0.00014562
0.000147253
0.000147847
0.0417067
0.000165483
0.000145298
0.000154512
0.000148537
0.000174354
0.000145509
0.0334313
0.000268957
0.000147932
0.0599678
0.000374315
0.000211794
0.000177565
0.0421932
0.0654306
0.000148113
0.000147658
0.000150238
0.0402165
0.000199126
0.000152342
0.0196075
0.0117414
0.000146294
0.000146891
0.000150022
0.000164317
0.000155987
0.000147948
0.00014757
0.000147624
0.000147293
0.0347122
0.000205461
0.000148838
0.0263598
0.0524655
0.000149208
0.000147698
0.000151443
0.000166663
0.0348107
0.00287266
0.0570232
0.000189476
0.000189428
0.000426929
0.000280719
0.0293527
0.000154565
0.000178548
0.000158302
0.000158416
0.0436032
0.000147604
0.0186061
0.000236721
0.000150929
0.000167177
0.000147689
0.0689256
0.000150966
0.000200453
0.000316768
0.000146149
0.0840365
0.000146658
0.000149776
0.0853805
0.000154448
0.000146309
0.0340497
0.0595267
0.000148512
0.000208099
0.000153691
0.000177734
0.000148216
0.000144333
0.0325909
0.0454162
0.00019858
0.000147749
0.000152858
0.0449005
0.00015725
0.000146919
0.00014883
0.000153447
0.000146843
0.000199759
0.000154765
0.0437125
0.000165914
0.000171591
0.0680113
0.000148425
0.000148191
0.00016673
0.000249723
0.00018891
0.0742489
0.0338311
0.000198141
0.0386636
0.000147942
0.00014733
0.000171049
0.000150886
0.000146163
0.000152971
0.00015856
0.000287615
0.000154246
0.000165953
0.000235037
0.000159733
0.0468868
0.00014837
0.000157641
0.000146772
0.000148064
0.000179126
0.000148079
0.000162188
0.000220792
0.000190325
0.0469115
0.000147282
0.000171939
0.000196859
0.000145489
0.000147727
0.000209064
0.000146865
0.000148138
0.0404513
0.000282549
0.000191059
0.00017377
0.0387248
0.000167646
0.0327736
0.000161451
0.000147261
0.000186911
0.000148201
0.000264765
0.0362456
0.000147997
0.000176639
0.000154578
0.000181401
0.0440346
0.000147978
0.000208937
0.000288496
0.000157346
0.000288271
0.000215546
0.00402038
0.000164849
0.00015984
0.000199995
0.000163131
0.000145553
0.000147386
0.000168275
0.0622709
0.000146482
0.000158248
0.0755007
0.000162818
0.000154701
0.0875029
0.000148547
0.000166993
0.0746888
0.0404845
0.0355499
0.000147446
0.000153525
0.000146973
0.000154863
0.000153466
0.0002169
0.0534961
0.000157306
0.000206266
0.000153224
0.0381279
0.000145714
0.000147953
0.000157382
0.000147515
0.0435773
0.0406377
0.000168873
0.000164942
0.000149169
0.00019583
0.000147773
0.000149517
0.000156514
0.000148107
0.000207186
0.00015582
0.000178277
0.000235787
0.000144043
0.000164527
0.000160674
0.000147276
0.0363536
0.000150718
0.000180321
0.0891846
0.000207372
0.000146511
0.068032
0.000161102
0.000149188
0.000148701
0.00435309
0.000149071
0.0423114
0.000149286
0.000147302
0.0651396
0.000182398
0.000180475
0.000145732
0.000157218
0.0404595
0.000146825
0.000147761
0.0470671
0.0332673
0.000180196
0.0750367
0.000148125
0.00022333
0.000172946
0.000150973
0.000177845
0.0567285
0.0811117
0.000181738
0.000148154
0.080823
0.000146978
0.0339005
0.0292543
0.000147793
0.0523579
0.03485
0.000173628
0.0522903
0.000148274
0.000145077
0.000144023
0.000180647
0.0845949
0.000206378
0.000150701
0.0229783
0.00014997
0.00014879
0.000173253
0.000147664
0.000150685
0.000145931
0.000186811
0.000148715
0.00015307
0.0427764
0.0236774
0.000172181
0.000148228
0.000149842
0.0848725
0.000197926
0.00018956
0.000145311
0.000169821
0.000168653
0.0569
0.00014879
0.0390433
0.000189955
0.000150513
0.000148002
0.000149702
0.000189289
0.0650994
0.000149291
0.000159321
0.000152856
0.0001492
0.000148091
0.0743905
0.0640699
0.0467852
0.000148405
0.000180417
0.000207391
0.0607482
0.000181751
0.000222257
0.000149633
0.0891539
0.00016145
0.000177639
0.0412077
0.000149245
0.000148773
0.000153461
0.000147852
0.0264071
0.000147681
0.000190463
0.0209692
0.000144383
0.000148089
0.0539255
0.00014528
0.000146602
0.000166017
0.00015055
0.000161736
0.000172884
0.000148474
0.000147279
0.00018919
0.000144946
0.000147298
0.0306203
0.000155145
0.000147196
0.000152304
0.000149135
0.000147391
0.00014697
0.0744205
0.000147006
0.000189703
0.000187036
0.00014731
0.000149865
0.000166492
0.000153237
0.000146003
0.000188612
0.0380196
0.000149673
0.00014781
0.00014807
0.000159304
0.00015213
0.0805276
0.00019714
0.000145571
0.000149385
0.0393544
0.000154516
0.0840447
0.000154601
0.0649531
0.000151024
0.000173431
0.0795503
0.0392286
0.000148017
0.000158175
0.0001454
0.000150918
0.0038915
0.000171829
0.0427073
0.000167096
0.000157447
0.00016243
0.000148702
0.0591189
0.000217218
0.000148784
0.0409151
0.000154215
0.000147374
0.000148182
0.000148647
0.000158416
0.00015511
0.0767461
0.000148461
0.0215536
0.0638909
0.000172614
0.000147012
0.0891022
0.0441726
0.000148707
0.000198337
0.0773471
0.000148833
0.000208872
0.000161585
0.000167934
0.000178091
0.000309878
0.000150018
0.0473439
0.000196826
0.000145766
0.000147274
0.000145678
0.000157251
0.000202463
0.0436319
0.000145454
0.000149801
0.000148104
0.0416772
0.000160302
0.00015003
0.000149167
0.0568745
0.0888488
0.000256953
0.0437261
0.0587248
0.000150578
0.000207891
0.000148471
0.00016682
0.000147325
0.000223966
0.000149867
0.000164581
0.000155335
0.000149865
0.0744909
0.000147766
0.000161605
0.0783622
0.000179358
0.000148806
0.000147734
0.000147777
0.0626892
0.00019057
0.000179162
0.000155018
0.000168079
0.0411302
0.000211701
0.000149937
0.040814
0.000157237
0.000154814
0.0650284
0.000148824
0.0571739
0.000148505
0.044302
0.000151132
0.000148254
0.0843673
0.000162945
0.000150079
0.000147852
0.0401626
0.0802757
0.000175336
0.000174048
0.000188874
0.0691904
0.0446104
0.0873383
0.045792
0.00015189
0.000146997
0.0001671
0.000164972
0.000149443
0.000147731
0.000162441
0.000148009
0.000148088
0.0552366
0.000155263
0.000213227
0.00015821
0.000190245
0.000148658
0.000201512
0.0415352
0.000148688
0.000213434
0.000147354
0.000208084
0.000148783
0.0690417
0.000167921
0.000174573
0.000146295
0.000147232
0.000293633
0.041072
0.000147619
0.0554413
0.000150822
0.000147952
0.000148103
0.000161294
0.00335425
0.000199288
0.00014876
0.000156771
0.0420223
0.000148428
0.000168408
0.000147515
0.0423498
0.000148162
0.000144968
0.000156312
0.000169525
0.000154392
0.000222343
0.000148668
0.000156211
0.000174861
0.000222978
0.000148094
0.0520644
0.000147113
0.0793828
0.0584603
0.000291323
0.00014814
0.000431449
0.000159767
0.00014821
0.000147867
0.000147365
0.000184432
0.000147884
0.000229516
0.000172742
0.000193903
0.000146503
0.000144292
0.000145301
0.062172
0.000160977
0.0807921
0.000251177
0.000147738
0.0581548
0.000209407
0.000150147
0.0438635
0.000148034
0.00016774
0.000156358
0.000155212
0.000150507
0.000197777
0.000177121
0.000146456
0.000220445
0.000148055
0.000148736
0.000150953
0.000148117
0.000150201
0.000152214
0.000148895
0.078722
0.000190205
0.00021117
0.00014874
0.000150258
0.000220462
0.000165959
0.000158948
0.000145605
0.000148155
0.000179808
0.00504521
0.00014943
0.000231703
0.000148857
0.0626386
0.000192578
0.000147442
0.000145937
0.00020053
0.00016659
0.000152258
0.0607429
0.000148174
0.000152259
0.000600548
0.000172418
0.000146705
0.000162253
0.00014853
0.000171407
0.000149297
0.000219601
0.000150103
0.00015713
0.000152573
0.000169028
0.000150636
0.086405
0.0395846
0.000148161
0.000150663
0.000228918
0.0316754
0.000148042
0.000150866
0.000177071
0.03251
0.000148303
0.000156488
0.000190732
0.000148956
0.000150922
0.000174775
0.000149738
0.000149462
0.0544433
0.00984848
0.00015125
0.000147312
0.000158819
0.000145687
0.0170135
0.0365728
0.0488776
0.000158156
0.000192108
0.0833669
0.000152211
0.0634867
0.000228366
0.000148773
0.000147698
0.00016719
0.000145793
0.000152393
0.000251365
0.00016926
0.000154369
0.000185744
0.00016293
0.000168638
0.000207047
0.0525864
0.000146591
0.000158516
0.0487916
0.000222928
0.000162553
0.000205102
0.000179777
0.000148521
0.000221169
0.000164493
0.000150587
0.000154029
0.000147491
0.000265469
0.000149859
0.00014793
0.000147916
0.00016453
0.0543614
0.000196482
0.000228935
0.0517973
0.000162821
0.000647169
0.000159723
0.000148873
0.000159381
0.000167418
0.000152919
0.0357745
0.000227185
0.000153128
0.00019916
0.0199133
0.0001997
0.000148556
0.000157334
0.0322514
0.000147889
0.000147954
0.0371641
0.000151895
0.00014898
0.000171676
0.000150283
0.000161914
0.000150845
0.000187727
0.000145661
0.000894491
0.000209373
0.000177933
0.000148821
0.000198028
0.00021071
0.000148621
0.000160746
0.000147898
0.000148849
0.000152272
0.000147612
0.000145915
0.00638247
0.00023643
0.000148392
0.000149294
0.000149341
0.0596387
0.0426991
0.00014525
0.000223592
0.000162457
0.000203172
0.000148889
0.000154579
0.000147678
0.000147326
0.000151378
0.000148326
0.000166154
0.0531672
0.000191171
0.000190407
0.000147673
0.000147576
0.0306858
0.000177752
0.0538788
0.000190593
0.0559386
0.00014779
0.000163451
0.000162122
0.000168415
0.0591279
0.000189808
0.000145147
0.000145761
0.0378533
0.00020639
0.000145788
0.00017328
0.0638328
0.000146921
0.000148906
0.0521298
0.000152405
0.000211585
0.0613716
0.00015352
0.000190412
0.000153763
0.00017512
0.0393669
0.00016642
0.00014794
0.000173485
0.000198634
0.000147489
0.000166095
0.000188752
0.000150937
0.0410532
0.0555674
0.00100111
0.0581426
0.000147741
0.000149091
0.000224253
0.000223529
0.0518422
0.0743385
0.056285
0.000172155
0.000152935
0.000143958
0.000148573
0.00016598
0.000147749
0.0843664
0.000191043
0.0694212
0.000146955
0.000147818
0.000148528
0.000270821
0.000162074
0.000152855
0.000146398
0.000175016
0.000149448
0.0753493
0.0604967
0.048019
0.0533842
0.000186499
0.000148879
0.0332348
0.000149257
0.000203043
0.000181153
0.000148541
0.0615909
0.000207417
0.000179134
0.000146925
0.000151821
0.000146851
0.0573893
0.0487303
0.000146448
0.000147933
0.047357
0.000147864
0.0109366
0.000202302
0.000179285
0.000146912
0.000148095
0.000222684
0.000194129
0.00025151
0.000147985
0.000150018
0.000177396
0.000145835
0.000180306
0.000186915
0.000145844
0.000177447
0.000160707
0.000147851
0.000148307
0.0597705
0.000172441
0.000160206
0.000200197
0.000176301
0.0781361
0.000146436
0.000165967
0.000148219
0.065642
0.000147773
0.000174098
0.000148792
0.000148178
0.000161613
0.000147678
0.000156638
0.000152835
0.000145128
0.00017126
0.000149936
0.000186472
0.0782245
0.000172613
0.0182624
0.0447417
0.000153824
0.000218973
0.000148083
0.000149308
0.000168224
0.0427004
0.000208913
0.00016786
0.0495963
0.0399103
0.0854954
0.000149218
0.000146947
0.000153082
0.000224007
0.00021915
0.0387892
0.000149009
0.000153561
0.000151145
0.000150215
0.000219848
0.000202594
0.000219181
0.000418801
0.000147182
0.000147851
0.000149209
0.000150105
0.000186015
0.0783953
0.000147242
0.000172368
0.00014696
0.000147883
0.0556165
0.000200507
0.00020618
0.000198135
0.0183088
0.000146984
0.000152159
0.0530896
0.000198349
0.000227424
0.0637336
0.000219636
0.000146182
0.000156776
0.0367555
0.000146702
0.0475383
0.000152399
0.000147573
0.00018151
0.000148789
0.000153392
0.0597599
0.000146495
0.0377733
0.000230993
0.000189494
0.00017064
0.0174507
0.000174658
0.000144868
0.0358969
0.0630482
0.000161573
0.000148026
0.000147815
0.000150735
0.000163412
0.000234657
0.000147525
0.000281752
0.000146754
0.000146558
0.000230364
0.000164211
0.000149213
0.000149763
0.0672022
0.000178707
0.000146533
0.000148176
0.000149241
0.000188337
0.0610966
0.00014759
0.000148245
0.000147521
0.00014798
0.000154532
0.00016251
0.000149031
0.0427936
0.00016143
0.000179797
0.000167766
0.000144966
0.0653284
0.000159113
0.000310684
0.000224337
0.000152299
0.000148119
0.000152254
0.000167936
0.0397021
0.000159871
0.00015876
0.0771413
0.000154352
0.000181087
0.000148398
0.000148597
0.000149359
0.000147887
0.0472775
0.000231964
0.000148449
0.000147657
0.000152204
0.0329402
0.000176242
0.000146664
0.000152217
0.000147371
0.000154426
0.000211523
0.000152199
0.000148015
0.000144991
0.0395065
0.0163059
0.000146478
0.000200111
0.000172155
0.000179033
0.000146861
0.000148438
0.000164435
0.000150098
0.000146436
0.000153469
0.000266972
0.000199678
0.000180997
0.0578805
0.0805884
0.00014788
0.00014955
0.000169282
0.00215568
0.000179186
0.00015009
0.0001487
0.000276602
0.00019255
0.000220169
0.000207377
0.000146566
0.0375316
0.000148061
0.000276406
0.000148503
0.000149929
0.000327873
0.000176959
0.000162654
0.00016836
0.0580136
0.0118805
0.000145495
0.000148807
0.000308851
0.000151516
0.00014621
0.000150407
0.000143941
0.0379841
0.000148228
0.000148417
0.0557142
0.0314221
0.000147218
0.00014836
0.000146893
0.000147598
0.0581997
0.0791415
0.00018824
0.00020127
0.03502
0.0846534
0.000147376
0.0422357
0.0576591
0.0775272
0.0576589
0.000152124
0.000150258
0.000148729
0.000149343
0.000152316
0.00014853
0.000149921
0.0635658
0.000160481
0.000165306
0.000168853
0.0437971
0.00016275
0.0381544
0.0503973
0.071228
0.000169238
0.000148238
0.000179091
0.000303851
0.000152281
0.000146962
0.000149396
0.0307366
0.0463072
0.000167954
0.000147118
0.00351027
0.000146015
0.000162036
0.00014868
0.0409845
0.00014455
0.000147278
0.0386087
0.000155174
0.0500611
0.000148528
0.000159075
0.00015153
0.000189177
0.000147844
0.000179511
0.000172817
0.000148108
0.000148846
0.0544936
0.000298291
0.000160281
0.000164758
0.00014777
0.000277778
0.000147146
0.000145369
0.000150109
0.000148095
0.000156378
0.000164944
0.000168883
0.000149295
0.000148128
0.0189296
0.000149628
0.000161846
0.000145432
0.000150858
0.000148558
0.000148445
0.0859325
0.000146927
0.000147543
0.0323847
0.000150578
0.00161149
0.0101353
0.000151419
0.000148859
0.000254794
0.000181042
0.0574628
0.000158031
0.000161984
0.000156392
0.000145641
0.0811593
0.000147948
0.0480673
0.000186046
0.0001708
0.000154568
0.00022291
0.000158448
0.000149048
0.000226342
0.000147796
0.000146933
0.000158155
0.0490563
0.0630745
0.0602672
0.0499828
0.00017147
0.000154422
0.000160357
0.000147712
0.000146701
0.000144125
0.000218002
0.000151378
0.000158488
0.000147281
0.0589821
0.0439233
0.000156076
0.000148118
0.000194736
0.0582791
0.000148476
0.000148283
0.0255992
0.000148057
0.000157674
0.000230686
0.000147879
0.00014997
0.000202922
0.0337671
0.000149771
0.000161032
0.000147942
0.000148011
0.000154263
0.00017013
0.0636375
0.000168276
0.000149052
0.000147592
0.000211026
0.0448505
0.000147641
0.000149876
0.0435578
0.000147983
0.000199626
0.000152277
0.000147474
0.000153583
0.000226863
0.000146842
0.000149648
0.000149036
0.000153543
0.000147344
0.039285
0.000149303
0.00017212
0.000172015
0.00014959
0.0757966
0.0545805
0.00014542
0.000166461
0.000145354
0.000168218
0.0770915
0.000160273
0.00014774
0.000154745
0.0407487
0.000147358
0.0571135
0.000153266
0.00015143
0.000189222
0.0001487
0.000146731
0.00015679
0.00105489
0.000167863
0.0493661
0.000147724
0.0744608
0.000203977
0.000150387
0.0456615
0.000180982
0.000181353
0.000152332
0.000147811
0.000147633
0.000158942
0.0809029
0.000178121
0.000145449
0.000149607
0.000153822
0.0182044
0.0495208
0.0783069
0.000144535
0.000149964
0.00018161
0.000145693
0.0150028
0.000148125
0.000148624
0.0192207
0.000146588
0.000169287
0.000146376
0.000147997
0.000175482
0.000146594
0.000146865
0.000146777
0.000148673
0.0768239
0.00017409
0.0429379
0.0328071
0.000152401
0.000169783
0.000212173
0.000150126
0.000280729
0.0398469
0.000165891
0.000148204
0.00014883
0.000168095
0.000276472
0.000178997
0.000150209
0.000146184
0.0879265
0.0856244
0.000147948
0.000178768
0.000222254
0.000189994
0.000217655
0.000149209
0.0236506
0.0742671
0.00014681
0.000147904
0.0065398
0.000328113
0.000185244
0.0535228
0.000156216
0.000174838
0.000149803
0.0143408
0.000164244
0.000157906
0.000165102
0.0804795
0.000147316
0.000149469
0.000154541
0.000187227
0.00014689
0.0569564
0.000181612
0.0572952
0.000147338
0.000148243
0.000180406
0.0001471
0.000211243
0.000188575
0.069985
0.010882
0.061012
0.000163064
0.000147831
0.000146766
0.000149603
0.0306649
0.000187911
0.0570702
0.0111599
0.000148009
0.000149609
0.000198723
0.000148875
0.000263051
0.000147819
0.00015992
0.0608032
0.000148413
0.000161197
0.000150524
0.00018948
0.000164828
0.000149312
0.0596201
0.000207942
0.000185268
0.0573914
0.000227198
0.0488725
0.00014825
0.0713458
0.0562773
0.0583681
0.000146126
0.000146034
0.000151442
0.000177438
0.0715346
0.0400135
0.000147747
0.000147779
0.00023334
0.0577213
0.00014981
0.000148345
0.000150105
0.000146152
0.000186348
0.0384732
0.000149227
0.000195851
0.0422353
0.000232058
0.0652759
0.000180898
0.000148191
0.000144497
0.000147051
0.00015304
0.0217005
0.000169198
0.00015743
0.000179966
0.0401577
0.000147677
0.000145394
0.000186174
0.0786737
0.000162052
0.0479182
0.000208171
0.000149579
0.000145579
0.00017912
0.0780062
0.000178511
0.000149285
0.000146986
0.000261596
0.0499657
0.000153109
0.000148375
0.0196118
0.000205544
0.000162953
0.000149775
0.000158765
0.000199164
0.000144376
0.0146383
0.0419436
0.000201696
0.000154239
0.000149608
0.000146818
0.000187478
0.000153257
0.000147793
0.000177224
0.000149648
0.000163026
0.0143258
0.0595189
0.071599
0.000147661
0.000147736
0.0498298
0.000149921
0.0330799
0.000315679
0.000148322
0.000149179
0.000160455
0.000193451
0.079226
0.000184013
0.0215295
0.000147732
0.000145702
0.000205205
0.000146358
0.000173664
0.000147703
0.000162276
0.000181723
0.000153096
0.000160993
0.0014023
0.000147958
0.00015732
0.038125
0.000200115
0.033201
0.000147779
0.000148534
0.000150739
0.000148461
0.000152075
0.000148847
0.000151191
0.000161229
0.0757294
0.000146866
0.000651776
0.000162224
0.000147841
0.000205918
0.00026316
0.0470948
0.000200384
0.000153153
0.0490313
0.00014935
0.000168438
0.000147317
0.0001476
0.000145208
0.000150048
0.000188925
0.0557254
0.0001489
0.000149934
0.0382402
0.000173797
0.0702934
0.000161159
0.000147977
0.000150567
0.00016437
0.000170814
0.000157598
0.000190882
0.00015739
0.000156259
0.000382151
0.000170511
0.000148145
0.0383205
0.000150673
0.000187923
0.0383113
0.000183497
0.0321966
0.0413601
0.000154357
0.0832931
0.000154325
0.000159309
0.000157456
0.000152353
0.000152109
0.0786989
0.000171816
0.0577851
0.00015207
0.000148355
0.000149384
0.000223457
0.000148329
0.000293645
0.000150768
0.000188061
0.000147444
0.000145059
0.000146291
0.0489565
0.000170732
0.000148936
0.000148832
0.000163868
0.000148516
0.00017454
0.00014629
0.000147311
0.000145643
0.0416703
0.000224465
0.000173643
0.000149113
0.000146884
0.000149361
0.00014985
0.000153241
0.000188039
0.000196869
0.000149173
0.000148463
0.000207075
0.000148234
0.0859306
0.000148748
0.000149794
0.0594972
0.000158903
0.000154065
0.000258424
0.00014672
0.000174875
0.0276639
0.000148222
0.000149646
0.000148082
0.00015168
0.000147532
0.000162346
0.000267542
0.0537557
0.000149462
0.000171524
0.000188405
0.000285681
0.00014908
0.000147765
0.000146835
0.000162137
0.000223767
0.000158518
0.000149193
0.0465976
0.000163656
0.000145294
0.0837889
0.0632803
0.00015862
0.000147345
0.000252681
0.000148507
0.000145225
0.0140544
0.0344405
0.0266506
0.000148236
0.000147735
0.000160192
0.0221749
0.000147256
0.000161982
0.000156566
0.000181669
0.000163943
0.000178019
0.000144297
0.000162348
0.041969
0.000165971
0.000147423
0.000147671
0.000164768
0.0292066
0.000165472
0.000510177
0.000147851
0.000150025
0.000174456
0.000154869
0.000148299
0.0420763
0.000191558
0.0111167
0.000155215
0.000146221
0.0773955