/*--------------------------------*- C++ -*----------------------------------*\
| =========                 |                                                 |
| \\      /  F ield         | OpenFOAM: The Open Source CFD Toolbox           |
|  \\    /   O peration     | Version:  v2012                                 |
|   \\  /    A nd           | Website:  www.openfoam.com                      |
|    \\/     M anipulation  |                                                 |
\*---------------------------------------------------------------------------*/
FoamFile
{
    version     2.0;
    format      ascii;
    class       volScalarField;
    location    "300";
    object      omega;
}
// * * * * * * * * * * * * * * * * * * * * * * * * * * * * * * * * * * * * * //

dimensions      [0 0 -1 0 0 0 0];


internalField   nonuniform List<scalar> 
53008
(
0.0326111
2.57119
0.027343
0.40936
6.35853
4.26019
0.0729325
0.0323744
0.0439478
0.0258374
0.119294
0.0930805
3.54606
4.73705
0.0256415
0.0249776
0.0288897
0.0249841
6.25482
0.0298122
0.0276225
0.0565691
0.025378
0.069915
0.0269592
1.54276
4.69763
0.0515273
0.459232
0.371349
0.625554
3.93438
4.4501
0.0260588
0.0253575
0.0394877
0.0286329
0.0256656
0.0797485
0.026519
0.0284622
5.83317
0.120353
5.13764
0.0300486
0.0251072
0.0249972
0.0267643
0.197757
0.0252352
0.0255152
0.033309
0.0300532
0.0254042
0.0617071
6.20856
0.0295618
0.0253032
0.471024
0.0551573
0.0258573
0.0331312
10.0853
3.99126
0.31588
0.0252579
0.354414
0.0249855
0.0250421
0.0251096
17.7529
0.0248975
0.025538
4.1995
1.53394
0.0253754
0.0256685
4.16642
0.0249311
15.2763
4.26879
3.95194
0.175766
0.439756
0.0439735
0.025117
0.128228
0.0432724
0.0252581
0.0491263
11.3035
5.02711
3.96711
0.105839
7.29886
0.143654
4.74768
0.0272104
9.27368
10.4067
0.0298148
0.0264969
0.146455
0.0515147
0.0333882
6.02756
4.47218
0.0390816
0.116822
0.024892
0.307716
18.5247
0.0256755
7.22754
4.78447
0.0259508
0.0281804
0.0249485
2.34924
10.332
6.64953
0.0255179
0.0263566
16.0632
4.18463
0.0253221
12.2563
0.244855
0.0446672
0.0254692
3.81858
0.0253236
0.441659
0.0280977
0.0249201
0.433453
0.0254994
3.54051
0.025215
0.0251296
0.024981
0.0251284
0.0465268
0.467807
0.045719
0.0269703
0.0280608
0.025335
0.0248666
0.0258818
0.0255637
10.0593
5.84475
0.0571137
0.0251479
0.0298313
5.11675
4.79874
0.026733
0.808535
0.0819537
0.0252408
0.0251437
5.13399
0.0272752
0.0256932
0.025195
0.0322302
0.0252697
0.0266222
0.0358134
4.26564
7.40339
0.0252323
14.572
0.0250278
0.0440534
0.138084
0.124094
0.0515281
0.0263359
0.0271896
5.1874
0.0258507
0.0912642
3.72379
9.51976
7.42162
4.43521
0.0253407
18.7968
0.0258716
0.167437
9.29417
0.0252773
0.0262878
0.0341358
0.0253367
0.0254989
0.0303197
0.0975799
0.0254565
0.0328384
0.0252079
0.163072
4.03975
0.0287699
0.0254741
0.0608758
0.0249434
4.62829
0.0264712
0.612172
0.0274425
0.114979
0.0253365
0.0254815
0.0253739
0.084683
0.0253146
0.273666
0.0248289
0.165016
0.0248269
0.0273341
0.12141
0.0265336
0.0600907
0.0411963
0.0249795
3.81159
4.66204
0.0247938
4.44099
0.0913008
5.97795
0.0261645
0.0249198
4.03212
0.0249719
0.0253048
0.0260405
0.471619
0.0259264
0.0332346
0.0256636
0.178861
0.265065
0.0253661
0.054011
0.0267625
0.0259289
0.0252282
0.0299835
0.0258065
9.76017
0.440267
0.025442
0.0854202
0.0294973
2.6701
0.462442
0.0319668
0.0256483
0.025272
4.77905
5.62142
0.0253451
9.32868
0.172137
0.0247991
0.0279334
0.025462
0.467009
3.86241
0.024721
0.1613
3.99346
0.0569413
0.0256689
0.0253747
0.0256609
0.0568409
0.0857212
0.027316
0.0796034
0.0494955
4.0589
0.0884025
0.0258007
2.09251
4.09753
0.109155
4.44319
0.122943
0.0253656
0.056611
0.154403
9.52197
0.0266589
0.109043
4.42176
4.04828
3.92935
0.0256228
3.37894
0.0259921
0.0254186
0.0257186
0.0967734
3.72767
0.479506
4.75749
3.91253
0.109356
0.0596202
0.0256945
0.0254639
0.0247255
0.0530762
0.152137
5.85199
0.0358006
3.85764
1.82839
0.0255094
5.09944
0.0324209
0.0251534
0.0366982
5.35639
0.0252775
0.0256535
0.0259348
0.0250063
0.0248399
0.164236
0.0249693
4.74452
0.0267025
0.0256623
0.0252783
0.0815463
0.0253877
0.0256708
4.74227
0.0730731
4.11659
0.421777
4.45922
0.254546
3.92291
0.0260993
0.0253963
4.09437
6.76697
0.0252953
0.025239
2.19491
5.64169
0.0253836
0.0506478
0.0254628
4.7773
0.0899434
3.68165
0.0247323
0.0433787
0.0305541
0.02714
9.32225
0.0297722
0.106532
0.272439
0.0898958
0.0289676
0.0609912
0.229322
4.73379
5.23487
0.0253613
0.0265318
0.0403604
0.0297588
5.6829
0.0250997
0.0276186
4.15133
0.0252927
4.51084
3.93288
0.0252748
0.0265303
0.0284309
0.0265783
0.0285548
0.0251322
0.0913545
0.0562616
4.08858
0.0355373
0.0321137
0.0269017
4.04878
0.0252685
0.0254095
0.0616393
0.0275064
0.0253797
0.0332913
0.0247379
0.17318
0.0250121
0.0268377
0.0260011
10.178
0.0254802
5.35143
0.0267149
0.025304
0.0250616
0.025497
0.051644
0.0274496
0.268516
0.0255718
0.0297143
0.029763
0.24702
0.0247268
0.727165
4.2832
0.826996
0.0252766
0.192653
0.034498
4.06475
0.0576073
9.14771
0.0564134
0.0253505
0.15433
0.299485
0.0614209
0.0251312
0.0821186
4.74325
0.624219
0.0270702
1.7653
4.07896
0.0283867
3.85304
0.0471982
0.0267192
0.206549
0.026766
0.02503
0.0255503
0.0254604
0.414731
8.05031
0.0247318
0.0296806
0.266119
0.0404658
0.025462
4.03727
0.0253344
0.0255283
0.102333
0.0305074
0.050608
3.75522
0.877732
0.116478
0.0265961
0.0259589
0.125204
5.7477
6.79275
0.226797
0.0284769
0.0297933
0.123121
0.0250585
0.0284436
0.0283851
0.10869
0.0387054
0.0279006
0.0253433
4.03358
0.0256295
0.0252372
0.165563
0.0256766
4.2077
0.0412558
0.025677
0.0539078
0.026767
4.4201
0.201852
0.0252912
0.114876
0.169485
0.059258
0.0404959
0.0597887
5.17844
0.0907155
0.0254935
0.0253459
0.200012
4.05806
0.0306678
0.0257978
0.0254459
4.04697
0.0256212
4.31488
0.0254683
0.0597922
0.0406425
4.02748
0.0729999
0.0336041
9.82175
0.0256818
0.35473
0.0248764
0.0251134
4.54026
0.0252225
0.026348
0.0589944
0.0330433
0.0250288
0.0252874
0.0756039
4.11047
0.0695696
0.0370588
4.45825
0.0296133
0.202033
0.0249787
0.0252854
0.0812031
4.18168
0.369883
0.0256517
6.75144
0.0285897
0.0251256
4.7701
0.0285698
0.0253004
0.0260421
0.050561
5.77418
0.0609137
0.107083
0.0299443
0.0364184
0.124244
0.0256184
0.0265935
0.0597516
0.0317065
9.52832
0.161765
0.0590826
0.0284609
0.0249352
0.0304709
0.0589235
0.149281
0.0257003
0.028512
0.0249178
0.0299471
0.0855919
0.429854
6.01099
0.0254146
0.0268536
0.256504
0.0259576
0.0254313
0.0253434
0.0593748
0.0289755
4.73145
0.0254729
3.85431
0.876645
0.025307
5.70811
4.14891
0.0716481
0.0254043
0.0921699
0.224511
4.11622
0.0333855
0.0395631
0.124181
0.026816
0.0257391
0.0256195
4.29887
0.0250819
4.15585
0.0253336
0.0247795
0.02514
0.0473772
0.0247969
6.70353
2.92334
0.0254894
4.10645
0.0256072
0.0248061
0.0248647
0.025488
0.123453
0.0256941
0.0373215
0.194745
9.33139
8.36225
0.0256733
0.0373594
0.0250259
0.0275404
0.0470963
4.19615
4.08191
3.01953
9.0256
0.0250248
0.0246723
0.0254789
0.0250952
0.109481
0.0253347
0.0253965
0.0254596
0.0248636
0.0300197
0.0283285
0.0251251
5.7439
0.0256568
0.0255838
0.0248672
0.0253216
0.223966
6.56952
0.0589151
0.0582904
9.19838
3.94532
4.11408
6.49377
0.0259563
0.0251974
5.05141
22.7476
0.0252216
3.70577
0.0253418
0.0259269
0.0250458
17.7842
0.114762
0.0255178
0.204179
0.0252197
0.0268637
5.76516
0.02955
0.0256444
4.18376
0.024822
0.0286627
0.0291953
0.0282878
0.0544069
5.38436
0.0250357
0.0251258
0.0254411
19.8323
0.119716
0.0263271
0.0250323
0.951413
0.0246766
0.0602141
0.0253348
0.0250037
0.0254678
0.025351
0.025496
0.0253995
0.0250165
0.027123
0.213342
0.0253356
0.17392
0.0263062
4.21197
0.0254319
1.74205
0.0256302
6.6037
0.025689
0.0253309
0.953421
0.058511
4.4377
0.0761516
0.0497466
9.18697
0.122698
0.0250966
3.90189
0.0321189
0.0264987
6.52372
0.0255391
0.217572
0.204935
0.02851
0.173435
0.413785
0.0252746
0.267153
0.0253971
0.0297432
0.0253698
0.0297642
0.0571192
0.0250041
0.0295033
0.0256579
0.849201
0.0820855
0.0295517
0.0358229
0.0296852
0.0256215
4.65443
0.168532
0.159108
0.172862
4.1187
0.24217
0.0256194
4.14715
0.0285913
0.0253289
4.26877
2.52649
0.0256598
1.16703
4.25159
0.200203
0.0255573
4.02774
0.117951
4.25664
0.042156
0.0252393
9.57729
0.227804
0.453935
0.0263771
0.0256554
0.029787
5.61454
0.0265994
5.82133
0.206199
0.0258604
0.0437892
3.44434
6.01534
0.0389066
4.03903
0.026723
0.474599
4.1556
0.0253341
22.5567
0.0274169
0.025459
3.58205
0.0270396
0.221747
0.063027
0.0296586
0.0252913
0.395487
0.238841
0.026706
0.025332
4.01626
0.0250237
19.9901
0.0384938
0.494814
0.0250961
0.0255933
14.813
0.111753
0.374447
4.13222
0.0604132
4.03326
0.0774645
0.0264819
3.93913
0.027541
0.0254596
0.426805
0.231675
0.0270491
0.0253613
0.0248309
0.0253171
0.0254027
0.116178
4.03171
5.57453
0.0252605
0.0336943
0.0265551
0.275519
0.025323
3.93043
4.08273
4.4087
0.471881
0.0345836
0.0251859
4.07909
0.0252244
0.0259538
0.0259304
0.0258167
0.0421397
0.0346086
0.0260224
0.0260066
0.0253768
0.0258616
0.0253348
0.0252307
0.141572
0.0992175
0.0253316
0.0253133
4.04941
9.69939
0.0295058
1.83677
0.0481424
0.054056
0.209857
0.0250629
0.0252213
0.0253873
0.0252169
0.0258609
0.117688
0.0252663
0.0249334
0.0252406
0.0253487
4.29757
0.0498172
0.0248402
0.0276205
0.025465
0.0580521
0.0248913
9.86697
0.489048
0.0250877
5.97359
0.753646
0.201338
0.0604333
4.22036
4.35381
0.0253229
0.0252867
0.0260086
4.25164
0.118469
0.0272349
5.8862
13.9734
0.0248289
0.0251138
0.0259057
0.056709
0.0294251
0.0253683
0.0253064
0.0252421
0.0251347
3.75167
0.371279
0.0254524
19.5063
4.31
0.0255739
0.0252027
0.0265668
0.0415071
3.7819
6.15518
3.95023
0.0833295
0.187867
2.22752
0.478207
4.42904
0.027634
0.0557381
0.0299688
0.0295903
4.21215
0.0250687
5.18083
0.288286
0.02565
0.0617349
0.0250799
4.44929
0.0263443
0.260706
0.5901
0.0249397
9.14023
0.0250609
0.0256643
8.96987
0.0283174
0.0250904
3.78158
4.19703
0.0253754
0.164914
0.0275367
0.0768394
0.0253175
0.0246805
3.63977
4.13948
0.223248
0.0251877
0.0267714
9.72238
0.0325605
0.0252
0.025512
0.0284687
0.0249733
0.118667
0.0297276
4.21324
0.0567874
0.045376
4.51389
0.0253585
0.0252763
0.0415289
0.371619
0.100577
4.78586
3.82673
0.152404
4.23223
0.0250868
0.0252647
0.0443422
0.0256421
0.0248248
0.0274613
0.0301746
1.33501
0.0274603
0.0413012
0.350545
0.0342663
3.61742
0.0254342
0.0262654
0.0249665
0.0253879
0.0577254
0.0252778
0.0394011
0.240932
0.132974
3.60894
0.025182
0.104841
0.190952
0.0249367
0.0251846
0.227352
0.0251108
0.0252668
3.91464
0.483149
0.136542
0.0833175
4.55345
0.0630712
4.05614
0.0336461
0.0252309
0.100422
0.0254076
0.482
3.69483
0.0253781
0.140961
0.0275635
0.0812286
4.15387
0.0253732
0.161895
0.858449
0.0339026
0.838569
0.244044
12.7315
0.0571275
0.0346806
0.343818
0.0515591
0.0249043
0.0252681
0.0743406
5.95911
0.0250883
0.0294542
4.88552
0.0466693
0.027176
6.54224
0.0254668
0.041765
12.9099
4.33194
4.23327
0.0252852
0.0271835
0.0251744
0.0284024
0.0273874
0.227067
12.0504
0.032578
0.148874
0.0282023
4.26781
0.0249436
0.0253364
0.0328162
0.0252972
4.10967
4.29396
0.0570726
0.0588943
0.0254234
0.184963
0.0253448
0.0254894
0.0287332
0.025395
0.160856
0.0292916
0.163384
0.284115
0.0247112
0.0582357
0.0332545
0.0251822
4.21608
0.0262394
0.06271
7.30713
0.217582
0.0251219
5.78212
0.0389888
0.0254267
0.0254919
10.7624
0.0251622
4.1782
0.0255852
0.0252495
4.38248
0.1014
0.0694322
0.0249482
0.029166
4.67368
0.0251611
0.025072
10.4473
9.80139
0.0582207
13.2512
0.0253341
0.230041
0.0512306
0.0263241
0.0768529
13.1884
5.85396
0.0617132
0.0253919
5.91084
0.0251462
4.02807
9.79427
0.0250823
4.75156
4.91138
0.0518009
4.26486
0.0252892
0.0248001
0.0247074
0.058918
6.20739
0.217746
0.0257327
4.28498
0.0258703
0.0254376
0.118047
0.02518
0.0262264
0.0250011
0.0998524
0.0253116
0.0268341
4.15959
9.73928
0.0719762
0.0253325
0.025675
6.16185
0.195398
0.157169
0.0248445
0.0722063
0.0563711
9.71044
0.0255049
4.4049
0.346258
0.0258237
0.0252916
0.0257544
0.15568
6.08
0.0255859
0.0306398
0.0273899
0.0255514
0.0253726
12.2544
4.89351
19.0897
0.0254403
0.0666373
0.171979
6.08004
0.0984966
0.225002
0.0257305
7.36082
0.039031
0.0776124
4.3326
0.0255836
0.0255031
0.026716
0.0253518
4.73951
0.0250163
0.0950445
4.2543
0.0246755
0.0253305
3.83786
0.0248432
0.0251375
0.0576033
0.025652
0.0445105
0.0795495
0.025455
0.0252448
0.0798928
0.0247857
0.0252517
3.81662
0.0277452
0.0251858
0.0267456
0.0255451
0.0252782
0.0252031
12.0513
0.0251813
0.0814665
0.197446
0.0250231
0.0256787
0.0466073
0.0280021
0.0250438
0.21451
4.005
0.0257521
0.0252297
0.0253838
0.030634
0.026646
6.70281
0.313983
0.0249082
0.0256363
4.37142
0.0294119
6.76676
0.0271197
5.76845
0.0257236
0.0517939
5.33314
4.47935
0.0252941
0.0295646
0.0249172
0.0256906
39.2962
0.106511
4.20618
0.0418077
0.0293276
0.0366939
0.0253835
9.03622
0.253407
0.0255041
4.26893
0.0274595
0.0252755
0.0254108
0.0254026
0.0297614
0.0290999
5.3354
0.0254499
4.10887
4.93692
0.0505968
0.0251804
7.53701
4.19209
0.025492
0.244379
10.6274
0.0255118
0.229257
0.0327972
0.0757749
0.0550767
1.5696
0.0256982
3.63204
0.189595
0.0248517
0.025194
0.0247982
0.028683
0.246167
4.47945
0.0249317
0.0256682
0.0253301
4.31581
0.0329906
0.0258676
0.0255673
4.85589
7.61919
0.416218
18.6464
4.60469
0.0256924
0.222768
0.0254533
0.0413365
0.0250334
0.249934
0.0256788
0.0585122
0.027868
0.0258298
5.13369
0.0252128
0.0444576
5.22969
0.119497
0.0255077
0.0253378
0.0252628
6.46994
0.16307
0.0653031
0.0276552
0.0423595
3.44233
0.175278
0.02569
3.99763
0.0314742
0.0284032
6.4805
0.0255122
3.9763
0.025459
16.8807
0.0263455
0.0253349
6.59511
0.0329516
0.0257202
0.0253541
3.8872
5.81175
0.0553192
0.0697772
0.100289
8.88018
4.07702
6.48386
4.12739
0.0270455
0.0252083
0.0606074
0.0571422
0.0256523
0.0253379
0.0401559
0.0253785
0.0253869
4.01544
0.029454
0.208823
0.0313245
0.158957
0.0254044
0.238277
3.90041
0.0253054
0.216909
0.0252755
0.326059
0.0254369
4.60238
0.0383203
0.143789
0.0250875
0.0252362
0.799322
9.64295
0.0253181
4.04542
0.0260224
0.025374
0.0253764
0.032552
9.18309
0.153988
0.0254309
0.0284743
4.70104
0.0254442
0.0784509
0.0253006
3.92986
0.0253925
0.0247907
0.0317449
0.0705107
0.0272529
0.2245
0.0253745
0.0307522
0.0475109
0.227454
0.0253227
4.8057
0.0250397
5.29684
4.00875
0.785617
0.0253351
2.31061
0.033981
0.0253378
0.0253566
0.0252709
0.28146
0.0253573
0.261861
0.0778868
0.389204
0.0251256
0.0247497
0.0248641
4.80476
0.0351415
5.77477
1.55999
0.0252105
4.63312
0.165016
0.0259237
4.16451
0.0253844
0.0380481
0.0290318
0.029406
0.0259951
0.133896
0.0905426
0.0251164
0.321808
0.0253844
0.0252517
0.0256939
0.0253843
0.0257291
0.0263461
0.0254646
11.1891
0.152812
0.191439
0.0254268
0.0260211
0.214429
0.041335
0.0349782
0.0249337
0.0252801
0.169647
8.74854
0.0256507
0.373552
0.0255157
4.78553
0.172255
0.0252682
0.0249999
0.121942
0.0592047
0.0262292
4.15222
0.0253987
0.0273332
1.55601
0.0506751
0.0249573
0.0477735
0.0254668
0.0445142
0.0255948
0.210297
0.0255262
0.0334288
0.026696
0.039777
0.0262034
8.7214
4.27416
0.0252815
0.0254124
0.363356
5.46781
0.0253841
0.0256983
0.0598628
4.04156
0.025203
0.0310843
0.350661
0.0255323
0.0263015
0.0481633
0.0256586
0.0256629
4.5906
12.3008
0.0254674
0.0252468
0.03039
0.0248663
18.7933
4.69016
4.11891
0.0312549
0.162643
6.64954
0.027306
6.36394
0.258805
0.0255028
0.0252108
0.0417019
0.025007
0.0262811
0.377431
0.0576985
0.0293466
0.090975
0.0469049
0.0802056
0.221842
13.883
0.0250491
0.0295804
4.10104
0.243868
0.0404111
0.146048
0.0678534
0.0253319
0.2275
0.0396271
0.0261815
0.0283139
0.02527
0.48739
0.0256775
0.0253706
0.0253627
0.0396325
7.89867
0.228751
0.263127
5.32702
0.0429107
6.8456
0.0318123
0.0255195
0.0320103
0.041989
0.0263885
4.24504
0.256044
0.0281683
0.141086
4.75923
0.122497
0.0253507
0.0338027
4.04317
0.0253343
0.0253657
3.67592
0.026952
0.0255358
0.0500316
0.0260324
0.0393101
0.0262835
0.117546
0.0249849
5.18681
9.69109
0.0587976
0.025338
0.155938
0.168932
0.0254775
0.0348243
0.0253366
0.0255148
0.0263568
0.0252973
0.0249951
8.21497
0.288715
0.025349
0.0255843
0.0255952
4.12298
4.20102
0.0248625
0.238544
0.0373812
0.343021
0.0255213
0.0275493
0.0250696
0.0251052
0.0265345
0.0253402
0.0422455
5.58729
0.156762
0.0836858
0.0252386
0.0250685
4.30021
0.0552824
7.45823
0.399656
4.07421
0.0252438
0.0338033
0.0397086
0.0564394
4.03775
0.375913
0.0248826
0.0248007
3.99879
0.167493
0.0250061
0.0842166
6.31199
0.0251562
0.0254693
3.78645
0.0274239
0.20674
9.37025
0.0274041
0.395344
0.0275196
0.0552004
4.14722
0.0554575
0.0253358
0.122117
0.119991
0.0252686
0.0422868
0.0809764
0.0261852
4.30098
13.6513
2.21408
4.01448
0.0253309
0.0251625
0.25857
0.254133
5.34412
4.83562
4.94949
0.0458406
0.0279246
0.0246979
0.02547
0.0567849
0.0250948
6.16118
0.0858109
4.48169
0.0251403
0.0252469
0.0253445
0.692056
0.033019
0.0274251
0.025087
0.148784
0.0256571
5.48635
9.72302
9.08626
8.56848
0.0915657
0.0254634
3.85758
0.0255827
0.284924
0.0685465
0.0254645
5.9959
0.18001
0.0598455
0.0251334
0.026975
0.0251814
4.24334
3.97498
0.0250962
0.0253334
3.62865
0.0252305
12.6292
0.134475
0.0559909
0.0251573
0.0253878
0.251372
0.0997855
0.377717
0.0253712
0.0255003
0.0580606
0.0249301
0.0582893
0.193614
0.0249321
0.0766567
0.0332626
0.0253448
0.0253374
4.13359
0.0458379
0.0347772
0.121429
0.0576396
6.35819
0.0250795
0.057663
0.0253165
6.37743
0.0253366
0.04659
0.0254412
0.0251154
0.0325939
0.0252103
0.0283083
0.0267434
0.0248802
0.049082
0.0258626
0.0991725
5.19806
0.0755374
5.57471
3.4584
0.0270009
0.227918
0.0252268
0.0255896
0.0384874
3.84981
0.159796
0.0380903
3.66518
4.21141
8.77663
0.0251894
0.0251998
0.0275561
0.344089
0.209033
4.19585
0.0254983
0.0270184
0.0260716
0.025996
0.212103
0.135347
0.209217
4.3896
0.0252273
0.0253315
0.0255728
0.0257995
0.19617
5.13514
0.0251922
0.0498745
0.0251392
0.0253402
4.03169
0.121743
0.395553
0.11277
4.48589
0.0251453
0.0271368
5.20346
0.119237
0.423492
7.27988
0.211568
0.0250485
0.0288928
4.0116
0.0250599
4.75093
0.0270341
0.0252424
0.068743
0.0255044
0.0273144
4.17501
0.0251234
3.65982
0.266443
0.102325
0.065464
4.71406
0.0588278
0.0247744
3.74724
6.41729
0.0328819
0.0253856
0.0252763
0.0262193
0.0411589
1.22366
0.0252772
0.579044
0.0251472
0.0251201
1.14874
0.0360259
0.0255718
0.0256625
6.06294
0.0589189
0.0251155
0.0253095
0.0255805
0.0777863
4.17106
0.0252925
0.0253227
0.0252852
0.025378
0.0294867
0.0450895
0.025511
3.45073
0.0389043
0.0680197
0.038047
0.0248596
6.42809
0.0373325
0.880473
0.250402
0.0262326
0.0253922
0.0263761
0.0435366
4.12475
0.0346907
0.030112
5.21336
0.0274657
0.0963944
0.0254394
0.0254751
0.025621
0.0253357
13.7451
0.373762
0.0254538
0.0252882
0.0261965
4.09896
0.132331
0.0248704
0.0265406
0.02503
0.0293968
0.192282
0.0272795
0.0252753
0.0248637
4.39454
4.44373
0.0250862
0.159561
0.107582
0.0660463
0.025152
0.0253616
0.0508344
0.0256931
0.0250784
0.0267573
0.444186
0.119906
0.213136
7.34332
5.86633
0.0252328
0.0256964
0.0653523
7.59049
0.0570017
0.0259374
0.025494
0.555839
0.108951
0.223389
0.153926
0.0251233
3.99336
0.0252744
0.482879
0.0253712
0.0256888
1.31835
0.0570723
0.0371633
0.0744465
5.00604
4.30422
0.0249359
0.0254413
0.891606
0.0260759
0.0249435
0.0257633
0.0246947
4.20144
0.0254152
0.0254426
4.18252
3.76083
0.0252205
0.0252996
0.0251173
0.0252786
4.20736
5.25566
0.350405
0.125258
4.60985
6.11751
0.0250211
4.29145
4.17734
7.11231
4.14973
0.0272302
0.0255664
0.0254951
0.0255952
0.0263881
0.0253783
0.0256387
4.83697
0.0327667
0.0444278
0.0397306
3.42063
0.035439
4.20185
3.69612
4.60061
0.0458652
0.0252821
0.0947742
0.554591
0.0264006
0.0252074
0.0256335
3.84288
4.49105
0.055118
0.0252305
45.107
0.025037
0.0451357
0.0254875
3.31212
0.0247137
0.0252379
4.2136
0.0277086
3.74818
0.025351
0.03059
0.026076
0.146753
0.0251506
0.0976147
0.12524
0.0251023
0.0255145
3.85698
0.818417
0.0385988
0.0592121
0.0253431
1.44057
0.0252351
0.0248698
0.0259454
0.025339
0.030167
0.0436137
0.0451986
0.0256025
0.0253314
4.74251
0.0256404
0.0377197
0.02488
0.0261457
0.0253576
0.0254486
8.65322
0.0251209
0.0252897
4.1213
0.0256546
2.45005
4.91051
0.0266629
0.0254585
0.396829
0.0971643
5.12114
0.0310933
0.0450226
0.031862
0.0249467
6.88008
0.0253347
3.63835
0.0920707
0.0442885
0.0284088
0.392709
0.0303908
0.0253065
0.248038
0.0252454
0.0251326
0.0309503
8.64186
4.86094
5.81729
12.4332
0.0447536
0.0293662
0.0329903
0.0250798
0.0250627
0.024724
0.218369
0.0266517
0.0303962
0.0252547
4.71413
3.47044
0.0287466
0.0253315
0.214954
6.1055
0.0253676
0.0253292
4.68977
0.0253635
0.0317224
1.1113
0.0253333
0.0256952
0.245403
4.0216
0.0256637
0.0390958
0.0252983
0.0253716
0.027181
0.0476207
4.18589
0.0421344
0.0255068
0.0253135
0.198607
5.29137
0.025206
0.0256802
4.20515
0.025342
0.156881
0.0269457
0.0249847
0.0271865
0.484064
0.0251633
0.0257352
0.0255128
0.028521
0.0252607
4.43315
0.0255879
0.105202
0.115738
0.0254708
5.08777
27.2973
0.0249377
0.0405867
0.0249289
0.0421285
5.02159
0.0400171
0.0253384
0.0298299
4.36817
0.0252094
4.56359
0.02665
0.0267056
0.0914005
0.0254905
0.0251438
0.0327215
1.92259
0.0655033
3.74348
0.0250596
5.53042
0.254456
0.0257477
4.11157
0.130959
0.060724
0.0273669
0.0252773
0.0251965
0.0302723
5.80682
0.154825
0.0249353
0.0254831
0.0268341
4.82011
4.42822
10.4616
0.0247104
0.0257479
0.236259
0.0248727
4.76713
0.0253027
0.0254795
6.36828
0.0251344
0.0402528
0.0251021
0.0252731
0.0505185
0.0251282
0.0251693
0.0250966
0.0254875
4.99343
0.138887
4.23607
5.04008
0.0274538
0.0469492
0.176374
0.0259458
0.764062
4.10916
0.043056
0.0254094
0.0255142
0.0423395
0.745019
0.103064
0.0255582
0.0250766
6.74964
6.42887
0.0253
0.0564975
0.224443
0.094252
0.211527
0.0255749
4.24854
4.80148
0.0250977
0.0253583
5.25854
0.96429
0.11755
25.1736
0.03
0.058637
0.0256687
6.0384
0.0518695
0.0313078
0.0579115
5.74849
0.0251785
0.0252529
0.027548
0.209337
0.0251541
4.79343
0.0696113
4.51289
0.0252523
0.0254177
0.0942535
0.0251965
0.172632
0.077892
8.1229
5.92058
4.13379
0.0336763
0.0253456
0.0250371
0.0257127
4.27381
0.0764001
4.12044
5.47989
0.02528
0.0257207
0.159168
0.0255198
0.490036
0.0251099
0.031683
4.26897
0.0254425
0.0324463
0.0258037
0.0819497
0.039255
0.0254178
4.05226
0.156784
0.119154
4.23277
0.562124
4.7236
0.0253279
5.32365
4.48118
8.36692
0.0250663
0.0250399
0.0267211
0.0941875
5.36213
4.23064
0.0250986
0.0252602
0.275133
8.42723
0.0256699
0.0254302
0.0259425
0.0249487
0.0927266
4.26436
0.0255757
0.186718
22.4529
0.26875
16.2925
0.0680028
0.0253989
0.0247795
0.0250353
0.0268471
4.21941
0.0653711
0.0328369
0.0574936
3.33989
0.0251813
0.0248753
0.183411
12.2197
0.0410518
3.64277
0.184567
0.0257052
0.0249346
0.0664702
5.16075
0.0652912
0.0255841
0.0251756
0.479086
5.17935
0.0265947
0.0254347
3.99246
0.405602
0.0333235
0.0256644
0.0297565
0.193617
0.0247628
17.4321
3.33952
0.196214
0.0280128
0.0257163
0.0250614
0.0771925
0.0269243
0.0252604
0.0540099
0.0256435
0.0513218
5.60244
4.09477
5.28198
0.024997
0.0250722
4.87224
0.0256462
4.19593
1.12394
0.0254281
0.02557
0.0321249
0.171155
11.7228
0.113984
4.00901
0.025018
0.0248763
0.161355
0.0250982
0.0465454
0.0253137
0.0348728
0.0992783
0.0275855
0.0332086
2.84242
0.0252891
0.0315608
3.87507
0.158394
4.13859
0.0250297
0.0253782
0.0262046
0.0254512
0.0271926
0.0254559
0.0265356
0.0324506
4.89649
0.0251711
1.46074
0.0454335
0.0250835
0.260603
1.44676
18.6753
0.318752
0.0281101
3.66649
0.0255956
0.0685164
0.0252454
0.0252931
0.02484
0.0259234
0.141606
4.16667
0.0255226
0.0256897
4.17296
0.0581294
5.39334
0.03253
0.0253724
0.0256658
0.0384382
0.103626
0.0309707
0.151139
0.0339069
0.0288907
1.1597
0.0437805
0.0253359
3.87142
0.0260493
0.220851
4.28783
0.111965
5.11405
16.5264
0.0281958
6.70386
0.0281403
0.0300111
0.0313812
0.0264171
0.0262695
5.1725
0.0463933
4.00141
0.0262421
0.0253425
0.0256018
0.230087
0.0253312
1.36601
0.0262858
0.076967
0.0250289
0.0248778
0.0250744
4.44565
0.0437623
0.0254822
0.0255126
0.0503914
0.0254592
0.143747
0.0248979
0.0252651
0.0249816
3.42703
0.240271
0.129044
0.025559
0.0251553
0.0256198
0.0256763
0.0281695
0.0770342
0.108244
0.025568
0.0253625
0.269972
0.0252978
6.35187
0.0254988
0.0256675
4.0941
0.0300417
0.0269381
1.00146
0.025032
0.0492156
5.17627
0.0254046
0.0256439
0.0253242
0.0269184
0.0249946
0.0356249
0.445867
3.83762
0.0256142
0.0454118
0.0888908
0.607127
0.0253615
0.0253425
0.025009
0.0451224
0.524674
0.0341048
0.0255579
4.67442
0.0340882
0.0248681
6.43505
4.42927
0.0346887
0.0252545
0.394577
0.0254631
0.024862
4.77637
4.07851
4.67223
0.0252973
0.0251952
0.0333485
4.18082
0.0251322
0.0407353
0.0287548
0.0821414
0.0492344
0.0938118
0.0246746
0.0373637
4.64212
0.0562087
0.0252401
0.0252882
0.0540141
30.9867
0.0526716
1.38299
0.0252357
0.0259062
0.0485591
0.0285937
0.0253354
4.33332
0.206677
17.8624
0.0291337
0.0248911
5.05494
0.0251444
4.13601
0.0459817
1.49613
0.410315
3.50532
6.74725
0.0269131
0.0255253
0.0252974
0.0254419
0.224837
7.16284
0.025125
0.0252574
0.0256749
6.06576
0.0253326
0.0254265
0.138113
0.0255471
0.0834712
0.0982515
0.0248726
0.0699827
0.0256812
0.0606604
0.025333
0.0275314
0.0252196
0.0265576
0.0249952
0.0774452
9.89487
0.0277408
0.0256584
0.0360378
0.0559202
0.0251996
0.0253265
0.0320488
0.0248773
3.65146
0.0262026
0.0329762
0.025346
0.20004
4.02133
0.0247769
0.0268203
0.0256683
0.180793
0.043347
4.83071
0.085971
3.81846
0.025431
6.54
0.0251109
0.0256289
0.025221
0.0255209
0.0872504
0.0345322
7.85648
0.0572284
0.0253751
0.0256831
0.147789
0.0322322
0.0391053
0.0672514
8.36174
6.66719
0.038155
1.48674
0.0401889
0.37561
4.22287
1.25741
4.58326
0.384219
0.0251992
0.0252706
0.0270615
4.2079
0.0316614
0.0256994
0.0765599
0.0247194
0.0249439
0.0564636
0.0252554
0.0254879
0.0263123
0.0267983
0.0270241
0.0252414
0.0314696
4.46433
0.0274673
0.0248863
0.0252908
5.23636
6.25679
0.0247884
5.61916
5.48038
0.0368668
0.0248181
0.211006
6.6336
9.15161
3.77006
0.788645
4.37079
0.087059
0.0254077
0.0249521
5.1068
0.0284983
0.135578
4.50825
0.0383142
0.0283048
0.0270003
0.0262762
0.0567979
0.120402
0.0253632
0.0529034
4.8128
0.0250276
0.0249322
5.03581
0.0253393
0.101012
0.0256948
0.0249891
0.0257218
0.0253679
0.0253965
3.95014
0.0270605
0.12457
0.846581
0.0255703
0.0251461
0.0278443
4.39387
0.0249938
0.0250036
6.62645
4.73169
4.19948
0.0262768
0.11488
0.0254288
0.12219
4.85906
0.0271461
0.0705644
4.74941
0.0253155
0.173934
8.61515
0.384901
0.07541
4.20389
0.106991
0.0743355
0.208177
0.0755299
0.0817465
0.0253641
0.657162
0.0350261
4.64412
0.0252682
0.0255453
0.0255656
0.0250885
0.0259153
4.92144
0.178896
0.0468346
0.0252281
0.453658
0.0255498
0.23332
0.0449414
5.08737
0.0251045
0.0254053
0.148943
2.13406
4.33531
0.0255686
0.146948
4.10126
0.119051
0.0271988
0.0254348
0.0796939
0.719845
0.0273816
0.0377252
0.223209
0.0253052
0.0256074
4.05577
0.0768129
0.0251398
0.0259526
1.18041
0.0269805
0.0326197
0.03531
0.0256726
5.4871
0.0252979
0.0328194
0.0514872
0.10587
0.0248782
0.0252111
7.13755
0.0248804
0.0345278
0.0376879
0.0250499
0.226388
0.0259649
0.0320011
0.266444
4.03307
0.357656
0.0250695
0.23962
0.0353777
4.59226
6.75661
0.471759
4.0443
5.51998
7.19931
0.149634
5.54261
0.136058
0.0445152
3.52377
0.0251643
4.683
0.0254501
0.0248891
0.0256917
0.0840629
7.97994
0.0449614
0.0250265
0.0253897
0.0256597
0.145904
0.0372088
0.0705007
0.0252621
0.025359
0.0251467
0.0259368
0.0452133
6.79307
0.0251868
0.0862279
0.286082
5.13774
0.0449152
5.69484
0.146768
0.0253343
4.61746
0.533039
0.0756666
0.192432
0.0255499
4.19871
0.0260338
0.0262899
0.244003
4.38834
3.72842
0.0282833
0.217128
4.39909
3.47617
0.22267
0.0252447
5.02514
0.0249123
0.0551713
0.248328
0.191577
0.0272567
0.708942
0.0258648
0.0249832
0.0648988
0.025409
0.163352
0.026302
0.0256903
7.71801
0.0252607
0.497092
4.16473
0.0277352
0.382942
0.0254307
5.16454
0.0287937
4.13078
5.38099
0.271489
0.0298701
5.52317
8.44342
0.0422005
0.201262
0.0257467
0.0654062
0.755695
0.0259069
0.0386544
3.62828
0.0265851
4.34562
0.0255242
0.0254059
7.09793
0.0295398
4.16113
0.0858749
0.0281822
0.784902
0.0250496
0.0778211
0.0664295
0.0265848
0.153786
4.05835
0.025466
0.0253994
0.0256194
0.0261665
0.209521
3.50274
0.108215
0.0288372
0.0247369
0.0251652
0.0372821
0.0254594
0.0282639
0.0247632
0.061926
0.394277
5.93816
0.16604
0.0397705
0.0248251
0.278087
4.71136
0.110423
0.291232
0.0455696
6.11253
0.0295589
0.0290747
0.0254077
0.0257202
0.0251449
0.0424821
0.0530565
0.0254222
0.0253038
0.15937
0.0249641
0.0253727
0.102504
0.02545
0.0250994
0.101755
0.0477999
0.0835535
0.0443438
0.0312747
0.28329
4.69302
0.0248239
5.75358
3.96823
1.71932
0.0251082
0.0478725
0.0250102
0.0250477
0.024821
8.58596
0.0268511
0.0550903
0.025228
0.0249351
0.0446951
0.0582218
0.0712454
0.0399928
0.111958
6.22462
0.0250854
0.0254626
0.759173
0.0264472
12.7945
0.252698
0.0251336
0.0419818
4.86294
0.801545
0.0443731
0.392901
0.0325218
0.0254419
0.0251263
0.0758106
0.0253382
0.0252958
0.0929479
0.0250537
4.12735
0.0288916
0.115724
5.60889
0.0273508
5.67033
0.0260047
0.0795864
0.025204
0.0250615
0.025239
0.0259499
8.2165
0.0256073
0.0250565
0.0777719
0.0603861
4.22008
0.0251308
0.0921396
0.0253542
0.0312643
0.691286
0.0367807
0.0855385
6.57136
0.02545
0.0255097
4.1601
0.0252646
0.0271205
3.45054
0.0262274
0.025028
0.0760221
0.024732
0.144434
0.0254902
5.29035
0.0255015
0.0251658
0.235218
0.0804529
28.5269
0.539045
0.0254767
0.0253181
0.0806668
0.0254123
0.0256845
0.0551196
4.18688
0.0734212
0.0250257
0.0271171
0.150146
0.0248101
4.36951
0.0251421
0.0695516
0.123801
0.139489
0.493362
0.0749964
0.376225
1.62292
0.252911
0.0249405
0.02645
0.0248051
0.0576997
0.0258163
0.027227
4.99648
0.0700844
0.0251446
0.211683
0.0575036
0.0252781
0.0581003
0.061426
0.0829571
0.217177
4.0041
3.99935
4.89949
0.0291073
0.0256256
0.0252336
1.46101
0.0250563
0.0520421
0.0248557
0.0259614
0.0255912
0.0256221
7.59414
0.378749
0.0254374
0.0252049
0.0433863
28.3256
0.0399329
12.9777
0.0254143
0.383529
0.0266353
0.0250194
0.0354616
0.270467
4.62704
0.161381
3.72146
0.118937
0.400078
5.37294
0.0450318
0.025557
4.00098
0.0250272
0.0252014
4.02045
0.0255873
0.0252834
0.0262239
0.0295396
0.0420175
16.059
6.07354
7.15128
0.0724787
3.98225
7.24946
3.87764
0.0249767
4.17221
1.67296
0.0255999
0.0255976
0.025242
0.0250465
0.0566249
6.37794
0.0253436
0.0544886
0.025509
0.11602
0.0419633
0.0250741
0.025342
0.120848
0.0250428
4.21493
0.0390583
0.147832
0.0258691
0.0252351
0.025338
0.4889
8.50014
3.4298
0.0253115
0.0941053