/*--------------------------------*- C++ -*----------------------------------*\
| =========                 |                                                 |
| \\      /  F ield         | OpenFOAM: The Open Source CFD Toolbox           |
|  \\    /   O peration     | Version:  v2012                                 |
|   \\  /    A nd           | Website:  www.openfoam.com                      |
|    \\/     M anipulation  |                                                 |
\*---------------------------------------------------------------------------*/
FoamFile
{
    version     2.0;
    format      ascii;
    class       volScalarField;
    location    "300";
    object      omega_0;
}
// * * * * * * * * * * * * * * * * * * * * * * * * * * * * * * * * * * * * * //

dimensions      [0 0 -1 0 0 0 0];


internalField   nonuniform List<scalar> 
53008
(
0.0326111
2.57382
0.027343
0.409405
6.35867
4.26026
0.0729292
0.0323744
0.0439485
0.0258373
0.119297
0.0930804
3.54579
4.73696
0.0256415
0.0249776
0.0288897
0.0249841
6.25471
0.0298121
0.0276225
0.0565658
0.025378
0.0699156
0.0269592
1.54296
4.69751
0.0515277
0.459209
0.37137
0.625524
3.93439
4.45007
0.0260588
0.0253575
0.039487
0.0286329
0.0256656
0.0797475
0.0265191
0.0284623
5.83314
0.120356
5.13768
0.0300486
0.0251072
0.0249972
0.0267642
0.197766
0.0252352
0.0255152
0.033309
0.0300532
0.0254042
0.0617066
6.20845
0.0295617
0.0253032
0.470829
0.0551575
0.0258573
0.0331313
10.0854
3.99124
0.31585
0.0252579
0.354438
0.0249855
0.0250421
0.0251096
17.7532
0.0248975
0.025538
4.19949
1.53425
0.0253753
0.0256685
4.16648
0.0249311
15.2766
4.26886
3.95166
0.175768
0.439743
0.0439735
0.025117
0.127842
0.0432727
0.0252581
0.0491257
11.3037
5.02692
3.96684
0.105841
7.29867
0.143659
4.74781
0.0272103
9.27362
10.4068
0.0298147
0.0264969
0.146456
0.0515151
0.0333882
6.02734
4.4721
0.0390818
0.116826
0.024892
0.307946
18.5245
0.0256755
7.22735
4.78455
0.0259508
0.0281803
0.0249485
2.34928
10.3322
6.64969
0.0255178
0.0263566
16.0636
4.18469
0.0253221
12.2566
0.244866
0.0446672
0.0254692
3.81842
0.0253236
0.441628
0.0280977
0.0249201
0.433363
0.0254994
3.54024
0.025215
0.0251296
0.024981
0.0251284
0.0465267
0.467685
0.0457189
0.0269703
0.0280608
0.025335
0.0248666
0.0258819
0.0255637
10.0593
5.84487
0.0571092
0.0251479
0.0298313
5.11679
4.79902
0.026733
0.808198
0.0819534
0.0252408
0.0251437
5.13378
0.0272752
0.0256932
0.025195
0.0322302
0.0252697
0.0266222
0.0358134
4.26553
7.4032
0.0252324
14.5724
0.0250278
0.0440534
0.138087
0.124082
0.0515263
0.0263359
0.0271896
5.18743
0.0258507
0.0912646
3.72375
9.51974
7.42143
4.43516
0.0253407
18.7978
0.0258717
0.167236
9.29439
0.0252773
0.0262878
0.0341358
0.0253367
0.0254989
0.0303197
0.0975797
0.0254565
0.0328384
0.0252079
0.163077
4.03966
0.0287699
0.0254741
0.0608757
0.0249434
4.6282
0.0264712
0.612195
0.0274425
0.114983
0.0253365
0.0254815
0.0253739
0.0846824
0.0253146
0.273651
0.0248289
0.16502
0.0248269
0.0273341
0.121412
0.0265336
0.0600908
0.041196
0.0249795
3.81152
4.66208
0.0247938
4.44102
0.0913015
5.97772
0.0261645
0.0249198
4.03209
0.0249719
0.0253048
0.0260405
0.471697
0.0259264
0.0332346
0.0256636
0.178863
0.265061
0.0253661
0.0540112
0.0267625
0.0259289
0.0252282
0.0299836
0.0258065
9.76017
0.440182
0.025442
0.0854194
0.0294972
2.67521
0.462271
0.0319668
0.0256483
0.025272
4.7789
5.62154
0.0253451
9.32865
0.172141
0.0247991
0.0279334
0.025462
0.46682
3.86236
0.024721
0.161305
3.99357
0.0569409
0.0256689
0.0253747
0.0256609
0.0568405
0.0857209
0.027316
0.0796014
0.0494958
4.05887
0.0884014
0.0258006
2.11238
4.09752
0.109154
4.44323
0.122493
0.0253656
0.0566116
0.154407
9.52196
0.0266589
0.109042
4.42171
4.04841
3.92927
0.0256228
3.38161
0.0259921
0.0254186
0.0257186
0.096772
3.7276
0.47953
4.75735
3.91249
0.10936
0.0596201
0.0256945
0.0254639
0.0247255
0.0530767
0.152141
5.85196
0.0358007
3.85761
1.82094
0.0255094
5.09948
0.0324208
0.0251534
0.0366982
5.35616
0.0252775
0.0256535
0.0259348
0.0250063
0.0248399
0.164251
0.0249693
4.74465
0.0267024
0.0256623
0.0252783
0.0815461
0.0253877
0.0256707
4.74207
0.0730692
4.11666
0.421705
4.45915
0.254485
3.92289
0.0260993
0.0253963
4.09436
6.76679
0.0252953
0.0252389
2.19723
5.6418
0.0253836
0.0506481
0.0254628
4.77736
0.0899427
3.68144
0.0247323
0.0433787
0.0305541
0.02714
9.32221
0.0297721
0.10639
0.272444
0.0898952
0.0289676
0.060992
0.22938
4.73362
5.23466
0.0253613
0.0265318
0.0403603
0.0297588
5.68297
0.0250997
0.0276186
4.15133
0.0252927
4.51089
3.93297
0.0252748
0.0265304
0.0284309
0.0265784
0.0285548
0.0251322
0.0913552
0.0562471
4.08872
0.0355373
0.0321137
0.0269017
4.04885
0.0252685
0.0254095
0.0616384
0.0275064
0.0253797
0.0332913
0.0247379
0.173181
0.0250121
0.0268376
0.0260012
10.1783
0.0254802
5.35152
0.0267149
0.025304
0.0250616
0.025497
0.0516426
0.0274496
0.268512
0.0255718
0.0297142
0.0297629
0.246948
0.0247268
0.727159
4.28312
0.826249
0.0252766
0.192646
0.0344981
4.06472
0.057607
9.14767
0.0564132
0.0253505
0.154331
0.299421
0.0614216
0.0251312
0.0821184
4.74332
0.623781
0.0270702
1.76531
4.07909
0.0283867
3.85305
0.0471985
0.0267192
0.206529
0.026766
0.02503
0.0255503
0.0254604
0.414724
8.05051
0.0247318
0.0296805
0.266132
0.0404658
0.025462
4.03724
0.0253344
0.0255282
0.102332
0.0305074
0.0506083
3.75502
0.877486
0.116482
0.0265961
0.0259589
0.125203
5.74779
6.79349
0.226802
0.0284769
0.0297932
0.123121
0.0250585
0.0284436
0.0283851
0.108694
0.0387053
0.0279006
0.0253433
4.03361
0.0256295
0.0252372
0.165566
0.0256766
4.20778
0.0412558
0.025677
0.0539082
0.026767
4.42013
0.201851
0.0252912
0.114762
0.169488
0.0592586
0.040496
0.0597895
5.17822
0.0907154
0.0254935
0.0253459
0.200019
4.05802
0.0306677
0.0257978
0.0254459
4.04697
0.0256211
4.31489
0.0254683
0.0597922
0.0406422
4.02745
0.0730007
0.0336041
9.8216
0.0256818
0.354752
0.0248764
0.0251134
4.54052
0.0252225
0.026348
0.0589951
0.0330431
0.0250288
0.0252874
0.0756041
4.11054
0.0695694
0.0370587
4.45829
0.0296132
0.202032
0.0249787
0.0252854
0.0812029
4.18187
0.369882
0.0256517
6.75127
0.0285897
0.0251256
4.77037
0.0285698
0.0253004
0.0260421
0.0505612
5.77427
0.0609144
0.107085
0.0299442
0.0364184
0.124244
0.0256184
0.0265935
0.0597522
0.0317065
9.52818
0.161768
0.0590826
0.0284608
0.0249352
0.0304708
0.0589243
0.149283
0.0257003
0.0285121
0.0249178
0.029947
0.0855915
0.42969
6.01205
0.0254146
0.0268536
0.256497
0.0259576
0.0254313
0.0253434
0.0593752
0.0289755
4.73152
0.0254729
3.85428
0.876022
0.025307
5.70817
4.14897
0.0716488
0.0254043
0.0921724
0.224517
4.1162
0.0333855
0.0395635
0.123613
0.0268159
0.0257391
0.0256195
4.29896
0.0250819
4.15587
0.0253336
0.0247795
0.02514
0.0473765
0.0247969
6.70333
2.90092
0.0254894
4.10645
0.0256072
0.0248061
0.0248647
0.025488
0.123454
0.0256941
0.0373212
0.194741
9.33162
8.3623
0.0256733
0.0373592
0.0250259
0.0275404
0.0470958
4.19621
4.08189
3.01859
9.02536
0.0250248
0.0246723
0.0254789
0.0250953
0.109485
0.0253347
0.0253965
0.0254596
0.0248636
0.0300196
0.0283284
0.0251251
5.74392
0.0256568
0.0255838
0.0248672
0.0253216
0.223981
6.56937
0.0589151
0.0582903
9.19829
3.94525
4.11407
6.49353
0.0259563
0.0251974
5.05122
22.7478
0.0252216
3.70547
0.0253418
0.0259269
0.0250458
17.7845
0.11469
0.0255178
0.204183
0.0252197
0.0268637
5.76517
0.02955
0.0256445
4.18379
0.024822
0.0286626
0.0291953
0.0282878
0.0544082
5.38343
0.0250357
0.0251258
0.0254411
19.8307
0.119716
0.0263271
0.0250323
0.939267
0.0246766
0.0602147
0.0253348
0.0250037
0.0254678
0.025351
0.025496
0.0253995
0.0250165
0.027123
0.213339
0.0253356
0.173924
0.0263062
4.21203
0.0254319
1.73651
0.0256302
6.60355
0.025689
0.0253309
0.95332
0.0585115
4.43794
0.0761509
0.0497463
9.18689
0.122699
0.0250966
3.90184
0.0321188
0.0264987
6.52343
0.0255391
0.217586
0.204937
0.0285099
0.173436
0.413781
0.0252746
0.267673
0.0253971
0.0297432
0.0253698
0.0297641
0.0571366
0.0250041
0.0295032
0.0256579
0.850417
0.0820853
0.0295517
0.0358229
0.0296851
0.0256215
4.65447
0.168539
0.159179
0.172864
4.11872
0.242186
0.0256194
4.14721
0.0285913
0.0253289
4.26883
2.53157
0.0256598
1.16267
4.25162
0.200189
0.0255573
4.02772
0.117955
4.25666
0.0421561
0.0252393
9.57742
0.227241
0.45382
0.0263771
0.0256554
0.0297869
5.61484
0.0265993
5.82148
0.206211
0.0258604
0.0437892
3.44422
6.01527
0.0389068
4.03901
0.0267229
0.474631
4.15577
0.0253341
22.5606
0.0274169
0.025459
3.58178
0.0270396
0.221759
0.0630264
0.0296585
0.0252913
0.395479
0.238491
0.026706
0.025332
4.01621
0.0250237
19.988
0.0384937
0.49464
0.0250961
0.0255933
14.8133
0.111754
0.374474
4.13212
0.0604139
4.03325
0.077464
0.0264819
3.9391
0.027541
0.0254596
0.426684
0.231655
0.027049
0.0253613
0.0248309
0.0253171
0.0254027
0.116182
4.03184
5.57451
0.0252605
0.0336941
0.0265551
0.275521
0.025323
3.93055
4.08271
4.40879
0.471937
0.0345837
0.0251859
4.07923
0.0252244
0.0259538
0.0259304
0.0258167
0.0421396
0.0346086
0.0260224
0.0260066
0.0253768
0.0258616
0.0253348
0.0252307
0.141806
0.0992166
0.0253316
0.0253133
4.04938
9.69952
0.0295058
1.83742
0.0481418
0.0540579
0.209856
0.0250629
0.0252213
0.0253873
0.0252168
0.0258609
0.117561
0.0252663
0.0249334
0.0252406
0.0253487
4.29764
0.0498167
0.0248402
0.0276205
0.025465
0.0580522
0.0248913
9.86682
0.488991
0.0250877
5.97353
0.752965
0.201353
0.0604339
4.22039
4.35376
0.0253229
0.0252867
0.0260086
4.25166
0.118471
0.027235
5.8863
13.9637
0.0248289
0.0251138
0.0259057
0.0567086
0.0294251
0.0253683
0.0253064
0.0252421
0.0251347
3.75159
0.371281
0.0254524
19.5059
4.30991
0.0255739
0.0252027
0.0265668
0.0415072
3.78182
5.98453
3.95036
0.0833299
0.187845
2.23244
0.478064
4.42901
0.027634
0.055738
0.0299687
0.0295902
4.21221
0.0250687
5.1809
0.288291
0.02565
0.0617349
0.0250799
4.44952
0.0263443
0.260677
0.5897
0.0249397
9.14018
0.0250609
0.0256643
8.96981
0.0283174
0.0250904
3.78151
4.19698
0.0253754
0.164919
0.0275367
0.0768388
0.0253175
0.0246805
3.6397
4.13955
0.223205
0.0251877
0.0267714
9.7224
0.0325605
0.0252
0.025512
0.0284687
0.0249733
0.118667
0.0297276
4.21331
0.0567876
0.0453761
4.51416
0.0253585
0.0252763
0.0415289
0.371643
0.100578
4.78608
3.82665
0.152406
4.23225
0.0250868
0.0252647
0.0443422
0.025642
0.0248248
0.0274613
0.0301746
1.33344
0.0274603
0.0413011
0.350527
0.0342663
3.61736
0.0254342
0.0262654
0.0249665
0.0253879
0.0577256
0.0252778
0.0394012
0.240973
0.132964
3.60868
0.025182
0.104909
0.190951
0.0249367
0.0251846
0.227437
0.0251108
0.0252667
3.91459
0.482992
0.136562
0.0833171
4.55351
0.0630712
4.05611
0.0336461
0.0252309
0.100422
0.0254076
0.482035
3.69475
0.0253781
0.140983
0.0275635
0.0812285
4.15393
0.0253732
0.161899
0.853743
0.0339027
0.835582
0.244081
12.7784
0.0571335
0.0346806
0.343819
0.0515438
0.0249043
0.0252681
0.0743151
5.95905
0.0250883
0.0294541
4.88574
0.0466757
0.027176
6.54201
0.0254668
0.0417651
12.9101
4.33197
4.23317
0.0252852
0.0271835
0.0251744
0.0284024
0.0273874
0.227083
12.0506
0.032578
0.148876
0.0282023
4.26784
0.0249436
0.0253364
0.0328163
0.0252972
4.1097
4.29403
0.057072
0.0588894
0.0254234
0.184951
0.0253448
0.0254894
0.0287331
0.025395
0.160861
0.0292916
0.163461
0.284121
0.0247112
0.0582263
0.0332545
0.0251822
4.21608
0.0262394
0.0627108
7.30686
0.217657
0.0251219
5.78213
0.0389888
0.0254267
0.0254919
10.716
0.0251622
4.17822
0.0255852
0.0252495
4.38271
0.101399
0.0694329
0.0249482
0.0291659
4.67371
0.0251611
0.0250721
10.4476
9.80138
0.0582201
13.2515
0.0253341
0.230044
0.0512308
0.0263241
0.0768524
13.1887
5.854
0.0617128
0.0253919
5.91086
0.0251462
4.02804
9.79429
0.0250823
4.75164
4.9114
0.0518012
4.26476
0.0252892
0.0248001
0.0247074
0.0589173
6.2073
0.217749
0.0257327
4.28499
0.0258703
0.0254375
0.11788
0.02518
0.0262264
0.0250011
0.0998524
0.0253116
0.0268341
4.15962
9.73916
0.071974
0.0253325
0.025675
6.16175
0.195391
0.157167
0.0248445
0.0722064
0.0563712
9.71041
0.0255049
4.40497
0.345042
0.0258237
0.0252916
0.0257544
0.15568
6.07993
0.0255859
0.0306397
0.02739
0.0255514
0.0253726
12.2547
4.89374
19.0899
0.0254403
0.0666382
0.171986
6.07996
0.0984953
0.225005
0.0257305
7.36056
0.039031
0.077612
4.33268
0.0255836
0.0255031
0.0267159
0.0253518
4.73946
0.0250163
0.0950472
4.25429
0.0246755
0.0253305
3.83793
0.0248432
0.0251375
0.057605
0.025652
0.0445086
0.0795492
0.025455
0.0252448
0.0798913
0.0247857
0.0252517
3.81656
0.0277451
0.0251858
0.0267456
0.025545
0.0252782
0.0252031
12.0515
0.0251813
0.0814651
0.197439
0.0250231
0.0256787
0.0466071
0.0280021
0.0250438
0.214491
4.00498
0.0257521
0.0252297
0.0253838
0.030634
0.026646
6.70264
0.314034
0.0249082
0.0256363
4.37149
0.0294119
6.76656
0.0271197
5.76844
0.0257236
0.0517943
5.33292
4.47944
0.0252941
0.0295646
0.0249172
0.0256906
39.2963
0.106761
4.20624
0.0418078
0.0293276
0.0366939
0.0253835
9.03612
0.253553
0.0255041
4.26899
0.0274595
0.0252755
0.0254108
0.0254026
0.0297613
0.0290999
5.33514
0.0254499
4.10886
4.93714
0.0505971
0.0251804
7.53677
4.19215
0.025492
0.244354
10.6276
0.0255118
0.22921
0.0327971
0.0757573
0.0550766
1.56749
0.0256982
3.63177
0.189592
0.0248517
0.025194
0.0247982
0.0286829
0.246118
4.4795
0.0249317
0.0256682
0.0253302
4.31587
0.0329906
0.0258676
0.0255673
4.85584
7.61897
0.416204
18.6466
4.60479
0.0256924
0.22272
0.0254533
0.0413366
0.0250334
0.249954
0.0256788
0.0584567
0.0278679
0.0258298
5.13346
0.0252128
0.0444546
5.22948
0.119497
0.0255077
0.0253378
0.0252628
6.46981
0.163069
0.0653038
0.0276552
0.0423597
3.4422
0.175281
0.02569
3.99759
0.0314742
0.0284032
6.48037
0.0255122
3.97643
0.025459
16.881
0.0263455
0.0253349
6.59493
0.0329514
0.0257202
0.0253541
3.88714
5.81182
0.0553198
0.069777
0.10029
8.88006
4.07706
6.48364
4.12746
0.0270454
0.0252083
0.0606084
0.0571573
0.0256523
0.0253379
0.0401558
0.0253785
0.0253869
4.01539
0.029454
0.208841
0.0313245
0.158947
0.0254044
0.23827
3.90037
0.0253054
0.216934
0.0252755
0.325753
0.0254369
4.60267
0.0383199
0.144291
0.0250875
0.0252362
0.801375
9.64295
0.0253181
4.04536
0.0260224
0.025374
0.0253764
0.032552
9.07148
0.15399
0.0254309
0.0284743
4.70108
0.0254442
0.0784649
0.0253006
3.92984
0.0253925
0.0247907
0.0317449
0.0705107
0.0272528
0.224506
0.0253745
0.0307522
0.0475102
0.22746
0.0253227
4.80578
0.0250397
5.29663
4.00889
0.78619
0.0253351
2.31984
0.0339811
0.0253378
0.0253566
0.0252709
0.282559
0.0253573
0.261878
0.0778865
0.390373
0.0251256
0.0247497
0.0248641
4.80496
0.0351414
5.77484
1.56198
0.0252105
4.63323
0.165019
0.0259237
4.16457
0.0253844
0.0380477
0.0290318
0.0294061
0.0259951
0.133898
0.0905426
0.0251164
0.322106
0.0253844
0.0252517
0.0256939
0.0253843
0.0257291
0.026346
0.0254646
11.1893
0.152806
0.191446
0.0254268
0.0260211
0.214431
0.0413349
0.0349783
0.0249337
0.0252801
0.169644
8.77835
0.0256506
0.373574
0.0255157
4.78573
0.172184
0.0252682
0.0249999
0.121941
0.0592039
0.0262292
4.15223
0.0253987
0.0273332
1.56203
0.0506755
0.0249573
0.0477717
0.0254668
0.0445142
0.0255948
0.210297
0.0255262
0.0334288
0.0266959
0.0397766
0.0262034
8.72132
4.27419
0.0252815
0.0254124
0.363595
5.46784
0.0253841
0.0256982
0.0598633
4.04155
0.025203
0.0310844
0.35137
0.0255323
0.0263015
0.0481628
0.0256586
0.0256629
4.59055
12.3009
0.0254674
0.0252468
0.0303899
0.0248664
18.7935
4.69018
4.11871
0.0312549
0.162672
6.64937
0.027306
6.36383
0.258799
0.0255028
0.0252108
0.041702
0.025007
0.026281
0.377435
0.0576988
0.0293466
0.0909756
0.046898
0.0802183
0.221831
13.8833
0.0250491
0.0295803
4.10082
0.243864
0.0404112
0.146051
0.067854
0.0253319
0.227501
0.0396271
0.0261815
0.0283139
0.02527
0.487419
0.0256775
0.0253706
0.0253627
0.0396324
7.89886
0.228724
0.263143
5.32704
0.0429102
6.84529
0.0318123
0.0255195
0.0320103
0.0419891
0.0263885
4.24505
0.256061
0.0281683
0.141088
4.75913
0.1225
0.0253507
0.0338027
4.04316
0.0253343
0.0253657
3.67584
0.026952
0.0255358
0.0500316
0.0260324
0.0393101
0.0262835
0.117546
0.0249849
5.23933
9.69153
0.0587982
0.025338
0.155939
0.168935
0.0254775
0.0348243
0.0253366
0.0255148
0.0263568
0.0252973
0.0249951
8.215
0.288716
0.025349
0.0255843
0.0255952
4.12299
4.20106
0.0248625
0.238543
0.0373814
0.343033
0.0255213
0.0275493
0.0250696
0.0251052
0.0265345
0.0253402
0.0422457
5.58727
0.156787
0.0836842
0.0252385
0.0250685
4.30019
0.0552827
7.4584
0.398783
4.07417
0.0252438
0.0338031
0.0397088
0.0564392
4.03789
0.379664
0.0248826
0.0248007
3.9987
0.167498
0.0250061
0.0842164
6.31189
0.0251562
0.0254693
3.78649
0.0274239
0.206762
9.37016
0.0274041
0.395289
0.0275196
0.0552009
4.14723
0.055457
0.0253358
0.122087
0.119995
0.0252686
0.0422869
0.0809768
0.0261852
4.30102
13.6513
2.20773
4.01461
0.0253309
0.0251625
0.258551
0.254189
5.34414
4.83551
4.94946
0.0458407
0.0279246
0.0246979
0.02547
0.0567848
0.0250948
6.1611
0.0858093
4.48193
0.0251403
0.0252469
0.0253445
0.687227
0.0330189
0.0274252
0.025087
0.148853
0.0256571
5.48653
9.72298
9.08648
8.56836
0.0915667
0.0254634
3.85751
0.0255827
0.284859
0.0685476
0.0254645
5.99584
0.180017
0.0598461
0.0251334
0.026975
0.0251814
4.24326
3.97505
0.0250962
0.0253334
3.62839
0.0252304
12.6293
0.134478
0.0559901
0.0251573
0.0253878
0.251399
0.099787
0.37771
0.0253712
0.0255003
0.0580614
0.0249301
0.0582887
0.193602
0.0249321
0.0766562
0.0332626
0.0253448
0.0253374
4.13359
0.0458378
0.0347772
0.12143
0.0576401
6.35797
0.0250795
0.0576651
0.0253165
6.37731
0.0253366
0.0465893
0.0254412
0.0251154
0.0325938
0.0252103
0.0283083
0.0267433
0.0248802
0.049082
0.0258625
0.0991722
5.19787
0.0755374
5.5748
3.45817
0.0270009
0.227931
0.0252268
0.0255896
0.038487
3.84978
0.159798
0.0380899
3.6651
4.21141
8.77655
0.0251894
0.0251998
0.0275562
0.343828
0.209036
4.19586
0.0254983
0.0270183
0.0260716
0.025996
0.212105
0.135351
0.20922
4.38829
0.0252273
0.0253315
0.0255728
0.0257995
0.196177
5.13501
0.0251922
0.0498747
0.0251392
0.0253402
4.03165
0.121743
0.395517
0.11277
4.4858
0.0251453
0.0271369
5.2035
0.119241
0.423391
7.27969
0.211569
0.0250485
0.0288927
4.01158
0.0250599
4.75099
0.0270341
0.0252424
0.0687441
0.0255044
0.0273144
4.17511
0.0251234
3.65975
0.266426
0.102326
0.0654645
4.71391
0.0588278
0.0247744
3.74717
6.41716
0.0328818
0.0253856
0.0252763
0.0262193
0.0411591
1.21468
0.0252772
0.579057
0.0251472
0.0251201
1.14954
0.0360259
0.0255717
0.0256625
6.06287
0.0589195
0.0251155
0.0253095
0.0255805
0.0777853
4.17106
0.0252926
0.0253227
0.0252852
0.025378
0.0294868
0.0450874
0.025511
3.45059
0.0389043
0.0680202
0.0380466
0.0248596
6.42797
0.0373326
0.881084
0.250407
0.0262325
0.0253922
0.0263761
0.0435366
4.12476
0.0346907
0.0301119
5.21313
0.0274657
0.0963934
0.0254394
0.0254751
0.025621
0.0253357
13.7451
0.373737
0.0254538
0.0252882
0.0261965
4.09893
0.132336
0.0248704
0.0265406
0.02503
0.0293968
0.192294
0.0272795
0.0252752
0.0248637
4.39457
4.44359
0.0250862
0.159562
0.107854
0.0660468
0.025152
0.0253616
0.0508358
0.0256931
0.0250784
0.0267573
0.444046
0.119908
0.213065
7.34314
5.86637
0.0252328
0.0256963
0.0653525
7.64298
0.0570016
0.0259374
0.025494
0.555864
0.108954
0.223392
0.153928
0.0251233
3.99327
0.0252744
0.48266
0.0253712
0.0256888
1.31671
0.057073
0.0371632
0.0744119
5.006
4.30379
0.0249359
0.0254413
0.890752
0.0260758
0.0249435
0.0257633
0.0246947
4.20145
0.0254152
0.0254426
4.18245
3.76077
0.0252205
0.0252996
0.0251173
0.0252787
4.2074
5.25547
0.350519
0.125259
4.60988
6.11742
0.0250211
4.29151
4.17735
7.11212
4.14975
0.0272302
0.0255664
0.0254951
0.0255952
0.0263881
0.0253783
0.0256387
4.83719
0.0327667
0.0444277
0.0397303
3.42043
0.0354391
4.20187
3.69604
4.60086
0.0458653
0.0252821
0.0947734
0.554234
0.0264005
0.0252074
0.0256335
3.84282
4.4911
0.0551178
0.0252305
45.1071
0.025037
0.0451291
0.0254875
3.31192
0.0247137
0.0252379
4.21361
0.0277086
3.74821
0.025351
0.03059
0.026076
0.146737
0.0251506
0.0976142
0.1247
0.0251023
0.0255145
3.85706
0.816791
0.0385999
0.05923
0.0253431
1.44092
0.0252351
0.0248698
0.0259454
0.025339
0.0301671
0.0436137
0.0451987
0.0256024
0.0253314
4.74257
0.0256404
0.0377196
0.02488
0.0261457
0.0253576
0.0254486
8.65313
0.0251209
0.0252897
4.1213
0.0256546
2.4485
4.91047
0.0266629
0.0254585
0.396803
0.0971634
5.12112
0.0310933
0.0450153
0.031862
0.0249467
6.87987
0.0253347
3.6383
0.0920713
0.0442886
0.0284089
0.393405
0.0303907
0.0253065
0.248054
0.0252454
0.0251325
0.0309503
8.64177
4.86115
5.81726
12.4335
0.0447537
0.0293662
0.0329903
0.0250798
0.0250627
0.024724
0.21838
0.0266517
0.0303962
0.0252547
4.71427
3.4703
0.0287466
0.0253315
0.214944
6.10542
0.0253676
0.0253292
4.68983
0.0253635
0.0317224
1.10768
0.0253333
0.0256952
0.245351
4.02158
0.0256637
0.039096
0.0252983
0.0253716
0.0271809
0.0476208
4.18607
0.0421346
0.0255068
0.0253135
0.198612
5.29138
0.025206
0.0256802
4.20522
0.025342
0.15688
0.0269457
0.0249847
0.0271865
0.483928
0.0251633
0.0257351
0.0255128
0.028521
0.0252607
4.43323
0.0255879
0.105254
0.115704
0.0254708
5.08756
27.2979
0.0249377
0.0405867
0.0249289
0.0421286
5.02148
0.0400172
0.0253384
0.0298299
4.36825
0.0252094
4.56366
0.02665
0.0267056
0.0914029
0.0254905
0.0251438
0.0327215
1.92282
0.0655043
3.7435
0.0250596
5.53057
0.254425
0.0257477
4.11163
0.130964
0.0607235
0.0273669
0.0252773
0.0251965
0.0302722
5.80689
0.154866
0.0249353
0.0254831
0.026834
4.81999
4.42821
10.4616
0.0247104
0.025748
0.236245
0.0248727
4.76693
0.0253027
0.0254795
6.36839
0.0251344
0.0402524
0.0251021
0.0252731
0.0505184
0.0251282
0.0251693
0.0250966
0.0254875
4.99333
0.139267
4.23613
5.04003
0.0274538
0.0469493
0.176375
0.0259458
0.76349
4.10917
0.0430562
0.0254094
0.0255142
0.0423396
0.737239
0.103063
0.0255582
0.0250766
6.74939
6.42871
0.0253
0.0564975
0.224447
0.0942546
0.21153
0.0255749
4.24856
4.80172
0.0250977
0.0253583
5.25945
0.966233
0.117553
25.1737
0.03
0.0586371
0.0256687
6.03895
0.0518627
0.0313078
0.0578921
5.74818
0.0251785
0.0252529
0.027548
0.209363
0.0251541
4.79338
0.0696123
4.51295
0.0252523
0.0254177
0.0942523
0.0251965
0.172635
0.0778905
8.12273
5.92113
4.13386
0.0336761
0.0253456
0.0250371
0.0257127
4.27379
0.0763989
4.12044
5.48014
0.02528
0.0257206
0.159139
0.0255198
0.490097
0.0251099
0.031683
4.26909
0.0254425
0.0324462
0.0258037
0.0819492
0.039255
0.0254178
4.0524
0.156786
0.11915
4.23269
0.561176
4.72361
0.0253279
5.32386
4.48121
8.36676
0.0250663
0.0250399
0.0267211
0.0941867
5.36233
4.23065
0.0250986
0.0252602
0.275146
8.42708
0.0256699
0.0254302
0.0259424
0.0249487
0.0927272
4.2644
0.0255757
0.186701
22.4499
0.26876
16.2928
0.0680037
0.0253989
0.0247795
0.0250353
0.0268471
4.21942
0.0653713
0.0328369
0.0574929
3.33972
0.0251813
0.0248753
0.183406
12.2198
0.0410519
3.64273
0.184563
0.0257052
0.0249346
0.0664707
5.16057
0.0652916
0.0255841
0.0251756
0.479152
5.17938
0.0265947
0.0254347
3.9925
0.405584
0.0333233
0.0256644
0.0297564
0.193603
0.0247628
17.4381
3.33931
0.19625
0.0280128
0.0257163
0.0250614
0.0771927
0.0269243
0.0252604
0.05401
0.0256435
0.051336
5.60259
4.09484
5.28222
0.024997
0.0250722
4.87226
0.0256462
4.19594
1.11752
0.0254281
0.02557
0.0321249
0.171187
11.723
0.113977
4.00906
0.025018
0.0248763
0.161361
0.0250982
0.046545
0.0253137
0.0348728
0.0992778
0.0275855
0.0332086
2.84446
0.0252891
0.0315608
3.87502
0.158393
4.13857
0.0250297
0.0253782
0.0262046
0.0254512
0.0271926
0.0254559
0.0265356
0.0324505
4.8967
0.0251711
1.46047
0.0454411
0.0250835
0.260555
1.44741
18.6763
0.318766
0.02811
3.66646
0.0255956
0.0685141
0.0252454
0.0252931
0.02484
0.0259234
0.141624
4.16661
0.0255226
0.0256897
4.17297
0.0581294
5.39351
0.0325299
0.0253724
0.0256658
0.0384381
0.104214
0.0309707
0.151137
0.0339069
0.0288907
1.16009
0.0437805
0.0253359
3.87138
0.0260494
0.220876
4.28787
0.111964
5.114
16.5266
0.0281958
6.70368
0.0281404
0.030011
0.0313812
0.0264171
0.0262695
5.17235
0.0463935
4.00154
0.026242
0.0253425
0.0256018
0.230093
0.0253312
1.37012
0.0262858
0.0769661
0.0250289
0.0248778
0.0250744
4.44566
0.0437624
0.0254822
0.0255126
0.0503873
0.0254592
0.144174
0.0248979
0.0252651
0.0249816
3.42689
0.240282
0.129645
0.025559
0.0251553
0.0256198
0.0256763
0.0281695
0.0770334
0.108245
0.025568
0.0253625
0.269983
0.0252978
6.35171
0.0254988
0.0256675
4.09417
0.0300416
0.0269381
1.00137
0.0250321
0.0492154
5.17636
0.0254046
0.0256439
0.0253242
0.0269184
0.0249946
0.0356249
0.445722
3.8377
0.0256142
0.0454119
0.0888931
0.60717
0.0253615
0.0253425
0.025009
0.0451241
0.523586
0.0341049
0.0255578
4.67448
0.034088
0.0248681
6.43491
4.42945
0.0346888
0.0252545
0.394592
0.0254631
0.024862
4.77615
4.07849
4.67219
0.0252973
0.0251952
0.0333485
4.18085
0.0251322
0.0407354
0.0287548
0.0821413
0.0492328
0.0938108
0.0246746
0.0373637
4.64216
0.0562079
0.0252401
0.0252882
0.0540203
30.9889
0.0526734
1.37813
0.0252356
0.0259061
0.0485588
0.0285937
0.0253354
4.33335
0.206622
17.8473
0.0291338
0.0248911
5.05482
0.0251444
4.13603
0.0459813
1.49501
0.409462
3.5052
6.74702
0.0269131
0.0255253
0.0252974
0.0254419
0.224851
7.16266
0.025125
0.0252574
0.0256749
6.06571
0.0253326
0.0254265
0.138115
0.0255471
0.0834697
0.0982504
0.0248726
0.0699838
0.0256812
0.0606611
0.025333
0.0275314
0.0252196
0.0265576
0.0249952
0.0774449
9.89478
0.0277407
0.0256584
0.0360378
0.0559195
0.0251996
0.0253265
0.0320488
0.0248773
3.65142
0.0262025
0.0329763
0.025346
0.200049
4.02146
0.0247769
0.0268203
0.0256683
0.1808
0.043347
4.83091
0.0859712
3.81853
0.025431
6.48757
0.0251109
0.0256289
0.025221
0.0255209
0.0872521
0.034532
7.85629
0.0572285
0.0253751
0.0256831
0.14779
0.0322323
0.0391055
0.0672522
8.36155
6.66704
0.0381549
1.48779
0.0401907
0.3754
4.22293
1.25659
4.58323
0.384209
0.0251992
0.0252706
0.0270615
4.20793
0.0316614
0.0256994
0.0765267
0.0247194
0.0249439
0.0564635
0.0252554
0.0254879
0.0263123
0.0267982
0.027024
0.0252413
0.0314696
4.46436
0.0274673
0.0248863
0.0252908
5.23619
6.25668
0.0247884
5.61949
5.48031
0.0368676
0.0248181
0.211007
6.63332
9.15101
3.77002
0.788687
4.37083
0.0870611
0.0254077
0.0249521
5.10705
0.0284983
0.135095
4.5083
0.0383138
0.0283049
0.0270003
0.0262761
0.0567993
0.120403
0.0253632
0.0529033
4.813
0.0250276
0.0249322
5.03585
0.0253393
0.101014
0.0256948
0.0249891
0.0257218
0.0253679
0.0253965
3.95019
0.0270605
0.124579
0.848186
0.0255703
0.0251461
0.0278443
4.39404
0.0249938
0.0250036
6.6263
4.73177
4.1994
0.0262768
0.114881
0.0254288
0.122191
4.85909
0.0271461
0.0705657
4.74964
0.0253155
0.173888
8.61506
0.384817
0.075413
4.20391
0.107124
0.074358
0.208178
0.0755299
0.0817472
0.0253641
0.656004
0.0350261
4.64408
0.0252682
0.0255453
0.0255656
0.0250885
0.0259153
4.92163
0.178904
0.0468398
0.0252281
0.453501
0.0255498
0.233316
0.0449432
5.08764
0.0251045
0.0254053
0.148948
2.13555
4.33532
0.0255686
0.146949
4.1014
0.119044
0.0271988
0.0254348
0.0796934
0.719179
0.0273816
0.0377249
0.223209
0.0253052
0.0256074
4.0559
0.0768127
0.0251398
0.0259526
1.18078
0.0269805
0.0326196
0.03531
0.0256726
5.48776
0.0252979
0.0328194
0.0514872
0.105871
0.0248782
0.0252111
7.13736
0.0248804
0.0345278
0.0376871
0.0250499
0.226389
0.025965
0.0320011
0.266441
4.03304
0.357668
0.0250695
0.23967
0.0353777
4.59224
6.75644
0.471732
4.04427
5.52041
7.19913
0.149635
5.54267
0.13576
0.0445159
3.52342
0.0251643
4.6829
0.0254501
0.0248891
0.0256916
0.0840637
7.97998
0.0449548
0.0250265
0.0253897
0.0256597
0.146201
0.0372084
0.070502
0.0252621
0.025359
0.0251467
0.0259367
0.0452137
6.79281
0.0251868
0.0862287
0.286083
5.13757
0.0449136
5.69496
0.146765
0.0253343
4.61736
0.532852
0.0756663
0.192445
0.0255499
4.19882
0.0260337
0.0262899
0.244024
4.38836
3.72835
0.0282833
0.21708
4.3103
3.47703
0.222615
0.0252447
5.02517
0.0249123
0.0551651
0.248377
0.191591
0.0272567
0.704549
0.0258648
0.0249832
0.0648988
0.025409
0.163358
0.026302
0.0256903
7.7178
0.0252607
0.495717
4.16472
0.0277352
0.382932
0.0254307
5.16468
0.0287937
4.13086
5.38094
0.271496
0.0298701
5.52314
8.44337
0.0422005
0.201249
0.0257467
0.0654056
0.752766
0.0259069
0.0386542
3.62824
0.0265851
4.34549
0.0255242
0.0254059
7.09787
0.0295398
4.16107
0.0858765
0.0281822
0.784865
0.0250496
0.0778212
0.06643
0.0265848
0.153786
4.0585
0.025466
0.0253994
0.0256194
0.0261664
0.209516
3.50263
0.108218
0.0288372
0.0247369
0.0251652
0.0372822
0.0254594
0.0282639
0.0247632
0.0619269
0.393084
5.93784
0.165409
0.0397701
0.0248251
0.278091
4.71142
0.110424
0.291233
0.0455698
6.11246
0.0295589
0.0290747
0.0254077
0.0257202
0.0251449
0.0424837
0.0530799
0.0254222
0.0253038
0.159376
0.0249641
0.0253727
0.102506
0.02545
0.0250994
0.101758
0.047803
0.0835534
0.044344
0.0312747
0.284455
4.69248
0.0248239
5.75358
3.96835
1.71313
0.0251082
0.0478724
0.0250102
0.0250477
0.024821
8.58599
0.0268511
0.0550884
0.025228
0.0249351
0.0446899
0.0582182
0.0712519
0.0399933
0.111956
6.22452
0.0250854
0.0254626
0.759068
0.0264472
12.7947
0.252686
0.0251336
0.0419819
4.86297
0.801175
0.0443731
0.392908
0.0325218
0.0254419
0.0251263
0.0758107
0.0253382
0.0252958
0.0929472
0.0250537
4.12734
0.0288915
0.115724
5.60898
0.0273508
5.67045
0.0260047
0.0796473
0.025204
0.0250615
0.025239
0.0259499
8.21634
0.0256073
0.0250565
0.0777709
0.0603869
4.22001
0.0251308
0.092139
0.0253542
0.0312643
0.691261
0.0367805
0.0855381
6.57109
0.02545
0.0255097
4.1603
0.0252646
0.0271204
3.45032
0.0262274
0.025028
0.0760212
0.024732
0.144432
0.0254902
5.29009
0.0255015
0.0251658
0.23523
0.0804524
28.5272
0.538704
0.0254767
0.0253181
0.0806663
0.0254123
0.0256845
0.0551204
4.18692
0.0734219
0.0250257
0.0271171
0.150146
0.0248101
4.36955
0.0251421
0.0695522
0.123804
0.139468
0.493113
0.0749956
0.37643
1.62375
0.25293
0.0249405
0.0264501
0.0248051
0.0576998
0.0258163
0.027227
4.99665
0.0700856
0.0251446
0.211697
0.057504
0.0252781
0.0581038
0.0614268
0.0829562
0.217192
4.00416
3.99936
4.89953
0.0291073
0.0256256
0.0252336
1.46645
0.0250563
0.0519694
0.0248557
0.0259614
0.0255912
0.0256221
7.59392
0.378746
0.0254374
0.0252049
0.0433859
28.3259
0.0399328
12.9779
0.0254143
0.383526
0.0266353
0.0250194
0.0354616
0.270447
4.62647
0.161388
3.72139
0.118931
0.399968
5.37268
0.0450337
0.025557
4.00111
0.0250272
0.0252014
4.02059
0.0255873
0.0252834
0.0262239
0.0295396
0.0420178
16.0592
6.07348
7.15108
0.0724542
3.98222
7.24927
3.87773
0.0249767
4.17238
1.66432
0.0255999
0.0255976
0.0252419
0.0250465
0.056625
6.37778
0.0253436
0.0544881
0.025509
0.11602
0.0419634
0.0250741
0.025342
0.120851
0.0250428
4.21512
0.0390583
0.147835
0.0258691
0.0252351
0.025338
0.488662