/*--------------------------------*- C++ -*----------------------------------*\
| =========                 |                                                 |
| \\      /  F ield         | OpenFOAM: The Open Source CFD Toolbox           |
|  \\    /   O peration     | Version:  v2012                                 |
|   \\  /    A nd           | Website:  www.openfoam.com                      |
|    \\/     M anipulation  |                                                 |
\*---------------------------------------------------------------------------*/
FoamFile
{
    version     2.0;
    format      ascii;
    class       volScalarField;
    location    "300";
    object      p;
}
// * * * * * * * * * * * * * * * * * * * * * * * * * * * * * * * * * * * * * //

dimensions      [0 2 -2 0 0 0 0];


internalField   nonuniform List<scalar> 
53008
(
-0.082019
-0.289386
0.0549254
-0.228575
-0.402447
-0.238866
-0.113561
-0.0811003
-0.00753499
0.0322946
-0.117202
-0.100498
-0.06521
-0.119059
0.0316984
-0.0200046
-0.065533
-0.0201487
-0.240236
-0.0618661
-0.0589312
0.141225
0.0117233
-0.109354
-0.0541712
-0.28922
-0.117188
-0.126469
-0.139689
-0.160412
-0.0684145
-0.0721983
-0.160647
-0.0207133
0.00309034
0.0580814
-0.00106086
0.00586101
-0.134792
-0.0261176
-0.00154175
-0.194622
-0.11379
-0.235648
-0.0623949
-0.0259882
-0.0267373
-0.0490917
-0.158057
0.00371273
-0.0138375
0.128613
-0.0724539
0.0164839
-0.0847507
-0.245362
-0.0616969
0.00502945
-0.0979984
-0.0985925
-0.0348363
-0.0501383
-0.369722
-0.0621866
-0.139495
0.0198634
-0.160489
-0.0262789
-0.00666408
-0.02349
-0.399433
-0.00971944
0.053609
-0.160824
-0.291945
0.00287324
0.017533
-0.241578
-0.0185712
-0.404215
-0.241229
-0.0642923
-0.0955182
-0.214927
-0.0787799
-0.0236251
0.112816
-0.00626096
0.0198385
-0.0772314
-0.405507
-0.310624
-0.0643621
-0.174522
-0.277574
-0.105631
-0.0957773
0.0544544
-0.328467
-0.367717
-0.0622448
-0.0261981
-0.178332
-0.126052
-0.0851207
-0.359378
-0.375382
0.0591654
-0.130199
-0.00983636
-0.248001
-0.37274
0.0173179
-0.279491
-0.101044
-0.0132941
-0.0608233
-0.0114638
-0.067555
-0.406728
-0.404449
0.0527876
-0.00837086
-0.266001
-0.238596
0.0349877
-0.404669
-0.149887
-0.0917166
0.0335943
-0.0732638
-0.00884842
-0.208542
-0.0513934
-0.0132215
-0.0985395
0.0243253
-0.0644877
0.00415221
-0.00368762
-0.0175634
-0.003083
-0.0813991
-0.106394
-0.0924779
0.040529
-0.0599591
0.00610788
-0.0244671
-0.0291974
0.0115222
-0.375456
-0.405025
0.138057
-0.00076019
-0.07153
-0.133787
-0.184751
-0.0428375
-0.319106
-0.171431
0.00394497
-0.000575142
-0.308324
-0.0547532
0.00917072
0.00775658
-0.0628409
0.00605317
0.0742715
-0.0811589
-0.0721457
-0.291774
0.00833323
-0.291317
-0.0204095
-0.0808897
-0.104998
0.113889
-0.0332021
-0.00884121
-0.0541023
-0.236057
0.0296043
-0.0998409
-0.0619959
-0.365263
-0.300051
-0.384488
0.00600231
-0.381208
-0.0135866
0.0106855
-0.403222
0.0242378
-0.0422168
-0.0809798
0.0153044
0.0098792
0.112812
-0.182986
-0.00929495
-0.0845329
0.00241974
-0.126892
-0.116817
-0.0642879
0.0099621
-0.140807
-0.0121912
-0.374062
-0.0274267
-0.176126
0.059252
-0.129813
0.0367493
0.0246415
0.011433
-0.17251
0.0291068
-0.115035
-0.0179293
-0.0979044
-0.0180321
-0.0501405
-0.0911521
0.00328857
-0.105618
-0.0531737
-0.0179132
-0.0835685
-0.0954859
-0.0219814
-0.0759394
-0.169965
-0.359811
-0.0440846
-0.0134135
-0.406239
-0.0209335
-0.00866863
-0.0208867
-0.234182
-0.0298287
-0.0856829
0.010618
-0.231944
-0.114159
0.0301942
-0.0976025
-0.0513621
0.0504295
0.00359849
0.110584
-0.0277031
-0.36249
-0.10587
-0.0355177
-0.173084
-0.0626943
-0.301893
-0.0995256
-0.0612997
-0.0128261
0.0188331
-0.124134
-0.17524
0.0115039
-0.364531
-0.0980009
-0.0226929
-0.0503136
0.0351449
-0.232686
-0.125144
-0.0159229
-0.125822
-0.120134
-0.0847001
-0.0375499
0.01189
0.00588632
-0.0855238
-0.105105
0.0457744
-0.13308
-0.123987
-0.393986
-0.107005
0.0290714
-0.34296
-0.088602
-0.195885
-0.0808932
0.0958576
0.00275869
-0.129782
-0.102927
-0.366918
-0.0488223
-0.197583
-0.384701
-0.206702
-0.11708
0.0142255
-0.291516
0.0435231
-0.0350512
-0.0134238
-0.181302
-0.0821987
-0.176792
-0.120255
-0.132962
-0.140771
-0.138462
0.0057719
0.0195389
-0.0158801
-0.12551
-0.103235
-0.196183
-0.0155385
-0.131088
-0.340201
0.0520821
-0.132487
-0.0754784
-0.000497983
-0.0864954
-0.296755
0.0242234
0.00594421
7.61032e-05
-0.00789934
-0.0175048
0.0097366
-0.0140519
-0.0945275
0.0517184
0.00598457
0.00660711
-0.170495
-0.0127824
0.0323188
-0.125074
-0.116273
-0.249683
-0.10012
-0.29295
-0.227288
-0.140296
-0.0436289
0.0263477
-0.408744
-0.265877
0.021328
0.0158221
-0.291484
-0.177956
0.0455337
-0.125435
-0.0320502
-0.40583
-0.178927
-0.0716296
-0.0154066
-0.0966954
-0.0481784
0.0245944
-0.364988
-0.0542246
0.117334
-0.112998
-0.180119
-0.0650875
-0.119729
0.0926198
-0.123226
-0.301581
-0.00735076
0.00570371
-0.0934987
-0.0633203
-0.176426
-0.00285147
-0.059049
-0.0887292
0.0213903
-0.0805412
-0.119064
0.00162913
0.0070534
-0.0423044
-0.00323036
-0.0113859
-0.00379088
-0.169964
0.0619104
-0.205448
-0.0138826
-0.0746256
-0.0535636
-0.249702
0.00625738
0.0164794
0.012047
-0.0514572
-0.0123
-0.0857223
-0.0153245
-0.0790221
-0.00889901
-0.0501341
-0.0313754
-0.405031
0.00948329
-0.40665
-0.0507437
0.0171516
-0.00464184
0.0372735
-0.0344799
-0.0489141
-0.108237
0.0115366
-0.0558769
-0.0602458
-0.225524
-0.0156808
-0.0688855
-0.319217
-0.0788564
0.00646443
-0.182353
-0.0540263
-0.397476
-0.116503
-0.363435
-0.11497
0.0114005
-0.208835
-0.137472
-0.115252
-0.00315806
-0.171048
-0.408515
-0.0793679
0.0418334
0.0543461
-0.120972
-0.00796904
-0.140421
-0.0826582
-0.0509762
-0.19089
0.0753768
-0.0271116
-0.0117744
0.0103315
-0.137513
-0.404267
-0.0156144
-0.0553491
-0.112246
-0.100912
-0.0100186
-0.396242
0.0238211
0.0364404
-0.156808
-0.0466841
-0.124291
-0.0703186
-0.289321
-0.126789
-0.00429689
-0.0308308
-0.146276
-0.199596
-0.291257
-0.0752576
-0.0473895
-0.054753
-0.0825831
-0.00478419
-0.0635947
-0.0421163
-0.144105
-0.0689509
0.0315925
-0.0254106
-0.182109
0.0199475
0.0155416
-0.0920315
0.0111368
-0.241314
-0.0557241
0.00853176
-0.127216
-0.0491649
-0.0788042
-0.243998
0.00485237
0.066172
-0.0914977
-0.132759
-0.100374
-0.118705
-0.303642
-0.145553
0.0160314
0.00814806
-0.244527
-0.0837332
-0.0700941
0.0279432
0.0494372
-0.36988
0.0535011
-0.405603
0.0195238
-0.141358
-0.0939926
-0.407415
-0.104284
-0.0509011
-0.337923
0.0084448
-0.161309
-0.0247633
-0.00250161
-0.131728
0.00358709
-0.0427093
-0.119183
-0.073817
-0.0126133
0.0155368
-0.0403798
-0.24993
-0.134938
-0.0854714
-0.0805172
-0.0596474
-0.242118
-0.0210803
0.0157891
-0.17015
-0.185549
-0.137984
0.0436776
-0.259575
-0.0560298
-0.00675175
-0.183465
-0.0104834
0.00604154
-0.0342548
-0.122809
-0.199015
-0.130411
-0.17467
-0.0545193
-0.0845857
-0.0831697
0.05454
0.0728748
-0.128904
-0.0405342
-0.342149
-0.100304
-0.103765
-0.0639457
-0.0188847
-0.0694402
-0.118201
-0.204603
0.0369821
-0.00905913
-0.010706
-0.0539711
-0.108922
-0.230212
-0.291849
0.0044765
-0.0438929
-0.108176
-0.000695152
0.0228432
0.0232971
0.199683
-0.0648743
-0.408416
0.0343429
-0.127243
-0.283922
0.016895
-0.176576
-0.251044
-0.103405
0.0258625
-0.136848
-0.0750246
-0.0870297
-0.0856023
-0.0366148
0.245734
0.0522675
0.0485206
0.0429035
-0.24007
-0.0243249
-0.181807
0.023168
-0.017717
-0.000833337
-0.0708158
-0.0222574
-0.265663
-0.332295
0.0161814
-0.369342
-0.0291674
-0.0180952
-0.0154399
0.0512665
-0.0856183
0.0361859
-0.0724621
-0.241608
-0.406059
-0.403896
0.0057822
-0.0729007
-0.0214925
-0.0584857
-0.0774019
-0.236102
-0.385823
-0.0736033
-0.340767
-0.0127322
-0.0184199
0.0357677
-0.0255155
-0.141757
0.0365283
0.0272305
0.0501484
-0.0216793
-0.0613518
-0.0548256
-0.00198123
-0.179817
0.0293133
0.0215749
-0.0215939
0.0346369
-0.160218
-0.23661
-0.139707
-0.0950899
-0.336999
-0.121963
-0.409446
-0.274788
-0.0168992
0.00124217
-0.298387
-0.401753
0.00839321
-0.0732165
0.0153947
-0.0142148
-0.00501117
-0.402695
0.0756117
-0.00427017
-0.246898
0.00644113
0.0764917
-0.183681
-0.0670235
-0.0298207
-0.18794
-0.0232243
-0.055412
-0.068076
-0.045972
0.0619915
-0.0820581
-0.0205256
-0.00168815
-0.035107
-0.382713
-0.0766193
-0.010518
-0.0054453
-0.324534
-0.0184191
-0.131483
0.0361672
-0.027613
-0.0354631
0.0029367
0.0402118
0.0260343
-0.0262719
-0.0538021
-0.245517
0.0365505
-0.177098
0.00369138
-0.310641
-0.0362029
-0.295476
0.0144307
-0.241308
0.00902804
0.0335185
-0.0683101
-0.133635
-0.133117
-0.0419368
-0.0311034
-0.326189
-0.0883318
-0.0264271
-0.127745
-0.0792326
-0.0273673
-0.285991
-0.00455217
-0.247293
-0.245148
-0.0549787
-0.0946501
-0.136491
0.0185438
0.0875225
0.00860841
-0.0711361
0.0298594
-0.0676999
0.119286
-0.0274839
-0.0629774
0.00961654
-0.322736
-0.171805
-0.067256
-0.0826745
-0.063924
0.0199651
-0.0967157
-0.224522
-0.000244892
-0.0782897
-0.186439
-0.156961
-0.032836
-0.308232
-0.0553066
0.00228834
-0.237086
-0.297544
0.0131768
-0.244076
-0.0694935
-0.195972
-0.0277641
-0.406393
-0.117945
-0.0665682
-0.109562
0.0158015
-0.389996
0.1476
-0.0773793
0.0130925
0.0106221
-0.0607315
-0.242425
-0.0485059
-0.231622
-0.159317
-0.02826
-0.0953748
-0.0735118
-0.203798
0.0128076
-0.407455
0.0754187
-0.232402
-0.186178
0.0357597
-0.383477
0.0457794
0.0128251
-0.0615128
0.0775648
-0.162593
-0.00916869
-0.0640902
0.0156604
-0.211542
0.134463
-0.048359
0.0243836
-0.134899
-0.00988604
-0.381834
-0.0687378
-0.0775699
-0.026139
-0.0283631
-0.404106
-0.16865
-0.257293
-0.121688
-0.132401
-0.385516
-0.157095
0.0717668
-0.136448
-0.0586396
0.0197029
-0.228809
-0.245794
-0.0449027
0.0401722
-0.0235207
0.00565307
0.0084655
-0.125619
-0.193208
-0.172403
0.00458635
-0.0658206
0.038136
-0.0780299
0.00582695
-0.146261
-0.395413
-0.278095
-0.237978
-0.0606437
0.00641416
-0.194427
0.00656238
0.00114046
0.00199832
-0.0375204
-0.000984402
-0.0825523
0.0681326
0.0688298
0.0112646
0.0534679
0.0245298
0.00847105
0.0615842
-0.184294
0.0241255
0.029661
-0.395259
-0.391022
-0.0701142
-0.273892
-0.0769647
-0.0119838
-0.190807
-0.0102787
0.00415717
0.0112532
0.00582579
-0.0353393
0.241605
0.00691703
-0.0119301
0.00683708
0.010946
-0.27925
-0.032352
-0.0172791
-0.0590966
0.0102015
-0.138514
-0.0150473
-0.340411
-0.141042
-0.0262614
-0.201562
-0.0800902
-0.180032
-0.134108
-0.201567
-0.291942
0.0348401
0.0202514
0.067867
-0.0732849
-0.0969448
0.0190679
-0.405661
-0.37688
-0.023493
-0.0030661
0.0539931
0.195556
-0.0544987
0.00828199
0.00529326
0.0165129
-0.00448602
-0.0803481
-0.220673
0.0133263
-0.37849
-0.0746884
0.0226465
0.00248709
0.00071229
-0.107858
-0.0806065
-0.361
-0.145707
-0.094652
-0.192047
-0.286496
-0.0761523
-0.389865
-0.0593441
-0.0907222
-0.0687035
-0.059107
-0.233522
-0.022774
-0.405971
-0.084748
-0.0359365
0.006583
-0.0232419
-0.186809
0.0127267
-0.237942
-0.0805943
-0.0177108
-0.363287
-0.00872641
0.00947192
-0.361025
-0.0435431
-0.00340827
-0.0793985
-0.320387
0.044353
-0.124558
-0.0495692
-0.160985
0.0301078
-0.018281
-0.0674227
-0.244608
-0.241495
-0.00618852
-0.0519795
-0.335702
0.0381137
0.000227335
0.0117399
0.100775
-0.0219069
-0.0786586
0.0734949
-0.243331
0.0275257
-0.0999503
-0.150021
0.039655
-0.000991536
-0.10764
-0.159094
-0.172896
-0.194057
-0.0805024
-0.20975
-0.0705988
-0.0265998
0.00403832
-0.0966221
-0.0359972
-0.0232558
-0.0177167
-0.0693763
-0.252394
-0.058066
-0.103976
-0.25462
-0.0504591
-0.0943839
0.0220912
-0.013985
-0.0217532
0.00834793
-0.0986323
0.0141378
-0.0349396
-0.172487
-0.213403
-0.0617483
0.00562255
0.088031
-0.238853
-0.00990563
-0.00587477
-0.244885
-0.00333502
-0.000976788
-0.125691
-0.0765128
-0.216074
-0.107162
-0.228761
-0.00385573
-0.397242
-0.0867868
0.00902188
-0.184708
0.0145374
-0.178568
-0.0822658
0.00668939
-0.00476944
-0.0585857
-0.168883
-0.305881
0.00842552
-0.0970224
-0.320349
0.131257
-0.320219
-0.226657
-0.360259
0.12254
-0.0435011
-0.182836
0.20156
-0.0142339
0.00722401
0.0732903
-0.195875
-0.00361884
-0.0584672
-0.195868
0.0774639
-0.0460752
-0.27158
0.00984371
-0.108118
-0.392487
-0.200264
-0.122399
0.00466641
-0.0545144
0.00352908
-0.0539657
-0.0489325
-0.18288
-0.40446
0.0359574
-0.0939777
0.0997652
-0.0703196
-0.0120071
0.0293076
0.0418157
0.00485466
-0.18959
-0.313538
-0.0866447
0.164852
-0.027897
-0.236161
0.00288915
-0.032715
-0.0647726
0.00850774
-0.124785
-0.0538806
0.00037493
-0.0844197
-0.0137972
0.206709
-0.0848617
0.00592167
-0.404657
0.0284543
-0.116499
-0.32475
-0.241504
-0.00202412
-0.188519
0.0093305
-0.0283075
0.00981061
-0.364087
-0.0303485
-0.191342
0.0151531
0.00742636
-0.136616
-0.184112
-0.146969
-0.0116983
-0.0656013
-0.100058
0.00128914
-0.024866
-0.405738
-0.337222
-0.0829861
-0.395426
0.0360964
-0.0723605
-0.124567
0.00466304
-0.160159
-0.40369
-0.206006
-0.0855072
0.0265536
-0.206149
0.0012195
-0.398511
-0.340729
-0.0246904
-0.0950123
-0.193739
-0.124064
-0.075914
-0.00338207
-0.0180247
-0.013893
-0.0811287
-0.237255
-0.245466
-0.0412542
-0.0871756
0.0330133
0.0469393
0.0900915
-0.00402307
0.0273185
-0.00820283
-0.183315
-0.0248993
-0.0528844
-0.18856
-0.340094
-0.105464
0.0378734
0.0094657
-0.237842
-0.241547
-0.213944
-0.0170718
-0.0398335
-0.0839538
-0.339699
0.0119019
-0.312355
0.0172456
-0.0378124
0.0274427
0.0274661
-0.210019
-0.21067
0.0153406
-0.0684979
-0.0171257
0.0056904
0.0298352
-0.401336
-0.111799
-0.400584
0.0219642
-0.136588
-0.15663
-0.209607
-0.180967
-0.072063
0.0325517
-0.323124
-0.00831892
-0.160292
-0.277067
0.0363165
0.024133
-0.0483055
0.0083289
-0.0743141
-0.0264614
-0.137572
-0.0869691
-0.0186363
0.0348593
-0.124517
-0.0168457
-0.00130469
0.0302258
-0.0398685
0.1401
-0.101785
0.0094929
0.00718944
-0.0732084
-0.0178527
0.00656594
-0.0671066
-0.057757
0.00637446
-0.0411067
0.0372444
0.00322747
0.00149412
-0.399598
0.00418234
-0.0737662
-0.154947
-0.0223749
0.00580536
-0.0832408
0.0324191
-0.00509657
-0.159035
-0.392179
0.0491789
0.00824831
0.0170871
-0.0690118
-0.0401975
-0.258887
-0.174568
-0.0140903
0.0306751
-0.314587
0.0730576
-0.268373
-0.0457018
-0.188459
-0.0385852
-0.124347
-0.293725
-0.274685
0.0278112
-0.0620556
-0.0108765
-0.0381167
-0.382377
0.124849
-0.307014
-0.109032
-0.0665492
-0.0850575
-0.00829019
-0.325847
-0.22881
0.0212216
-0.315644
-0.0578989
0.00307358
0.00447635
0.0472216
-0.0629438
-0.0340886
-0.325492
0.0224535
-0.408024
-0.112639
-0.124452
0.00441393
-0.339403
-0.246078
0.0244901
-0.232687
-0.394783
0.0163326
-0.246872
-0.0779519
0.13541
-0.0929418
-0.255559
-0.0311245
-0.0673054
-0.238854
-0.0208138
0.00788489
-0.0220164
-0.0535662
-0.250976
-0.0810058
-0.0100185
0.0111697
0.0352377
-0.228955
-0.0834042
0.00592021
0.0227399
-0.387856
-0.33798
-0.139121
-0.401148
-0.0960421
-0.0407346
-0.245185
0.012689
-0.107656
-0.0216162
-0.158594
0.0090207
0.211077
-0.0583922
0.0311495
-0.323942
0.00295756
0.136469
-0.296399
-0.140176
0.0128917
0.00243892
0.021046
-0.23377
-0.215813
-0.14165
-0.0568903
-0.108979
-0.0741563
-0.0989381
0.01241
-0.13758
-0.0274304
-0.0531476
-0.238561
0.00483741
-0.175471
0.0127089
-0.404334
-0.0100943
0.0383327
-0.258164
-0.0575688
-0.0311834
0.00599234
-0.121332
-0.202299
-0.128358
-0.13561
-0.171421
-0.330946
-0.190088
-0.269944
-0.246955
0.0688066
0.00147093
-0.000801082
0.110018
0.0542367
0.0027204
-0.0325441
0.00835028
0.0169577
-0.085465
-0.0181636
-0.181631
-0.0707414
-0.215382
0.0472961
-0.249923
-0.129763
-0.0249988
-0.197101
0.0016159
-0.253804
0.0469983
-0.151121
-0.0659583
0.227477
-0.00360913
0.00662749
-0.311269
-0.3348
0.00327518
-0.085812
-0.0340797
0.00322329
0.0295205
-0.0770863
-0.364421
-0.203194
0.0461842
-0.0552924
-0.101099
0.0225745
0.137508
0.00304788
-0.138426
0.0274592
-0.0176677
0.0841119
-0.0358976
-0.0537571
-0.0742421
-0.00783682
0.00404254
-0.0672654
-0.0738038
0.0344659
-0.101124
-0.0179675
-0.29062
-0.176898
-0.308345
0.0366847
-0.325595
-0.0592353
0.0387733
0.00617928
0.00426818
0.104933
0.00824513
-0.123726
-0.100609
-0.0240812
-0.00211734
-0.0133933
-0.0151983
-0.105702
-0.0729058
-0.206785
0.057168
0.00356589
-0.0950226
-0.101172
0.00601061
-0.303187
0.00667524
-0.0648801
-0.0672839
-0.0170599
-0.0173799
-0.173191
-0.147726
-0.00244424
-0.273458
0.0114016
-0.00790928
-0.0379841
0.0266144
-0.0350128
-0.0485162
0.0502509
-0.396913
-0.216501
-0.161151
0.0324947
0.067401
-0.0933085
-0.103258
0.0221668
-0.0117118
0.00482559
-0.0305878
-0.363674
0.0375153
-0.280609
0.01611
-0.105966
-0.224785
0.0113965
-0.00839415
-0.0745206
0.0149523
-0.0452745
-0.278803
0.0232502
0.0769855
-0.297181
-0.125237
-0.0218488
0.192576
0.00505598
-0.0922673
0.0538151
-0.0925998
-0.038191
0.128363
-0.0494457
-0.0683264
0.0320751
-0.359268
-0.0697462
-0.00233253
-0.0119037
-0.278553
-0.193383
0.0084914
-0.0390837
-0.135083
-0.405778
-0.00807618
0.0042568
-0.0147548
0.0212186
0.00689086
-0.0776261
0.00582206
0.0377099
-0.386219
-0.402094
-0.0128828
0.00856873
-0.0702774
-0.0191878
-0.398229
-0.195333
-0.0651051
-0.0699996
-0.223968
-0.259981
0.0768411
-0.228264
-0.130206
0.023904
0.00578594
-0.108811
-0.00625105
-0.0457715
-0.139467
-0.0917373
0.0845029
-0.171445
0.0736541
0.133328
-0.247874
-0.405035
-0.0095794
-0.0567931
-0.0645592
-0.154589
-0.0347989
-0.105122
-0.146061
-0.00956918
-0.130412
-0.0942492
0.0310289
-0.0180373
0.0142402
-0.181032
0.00932924
0.00316678
0.00840562
-0.0955135
-0.40758
-0.22777
-0.13562
-0.151582
-0.00218405
-0.280556
-0.0799939
0.0236631
-0.0796858
-0.109705
-0.0426819
-0.407192
-0.136112
0.0992718
-0.176647
-0.124479
-0.103998
-0.00413846
0.136015
-0.405556
0.0255971
0.01308
-0.0842492
0.0266565
0.0146907
-0.124708
0.0677544
-0.0257516
0.0138102
-0.204033
-0.00698517
-0.348467
-0.307045
-0.122575
-0.0255226
-0.215037
-0.0907496
0.0248149
-0.0723797
0.0257861
0.0212559
-0.0487717
0.0149724
-0.00868941
-0.403616
-0.0777858
0.0349833
0.00413267
0.00335226
-0.279776
-0.203368
-0.0147158
-0.130793
-0.0766979
-0.214808
0.0211581
-0.0581495
-0.023838
-0.0118377
0.000535434
0.0373049
-0.101741
-0.172565
-0.22033
-0.0730257
0.0155603
-0.0223842
-0.390524
-0.099503
-0.402643
0.217747
-0.0878484
0.0154282
-0.0664819
-0.0268971
-0.0786015
-0.193619
0.255306
-0.0111756
-0.0222845
-0.11803
-0.157247
-0.00634021
-0.0933766
-0.225056
0.0021368
0.0155002
-0.122033
0.0603163
-0.195118
-0.336721
-0.049791
0.206527
-0.0522758
-0.128648
-0.361487
-0.0148454
0.0287483
0.106253
-0.112617
0.0141801
-0.100667
-0.0944227
-0.0212096
-0.202481
-0.373401
-0.298836
-0.194732
0.00962868
-0.0302616
-0.177965
-0.173655
-0.152683
-0.282538
-0.389087
-0.095802
0.0973717
-0.0139014
0.012967
0.0226567
-0.0230287
-0.234071
-0.0729783
-0.185274
0.000428424
0.0156426
-0.00431885
-0.310389
-0.0742724
-0.0131372
-0.00358343
0.220722
0.0302691
-0.17049
-0.34295
-0.407497
-0.310032
-0.168494
0.0158377
-0.0795163
0.0529384
-0.242591
-0.137363
0.0129487
-0.202569
-0.17868
-0.11458
-0.000289096
0.0576843
0.000696917
-0.353673
-0.195956
-0.00304572
0.0286599
-0.0659171
0.00496342
-0.403039
-0.10746
-0.0785144
0.00216719
0.017535
-0.176133
-0.100825
-0.1371
0.0131669
-0.0377377
-0.124118
-0.0150331
-0.082402
-0.158502
-0.014864
-0.157982
-0.0855259
0.015731
0.0368271
-0.287621
-0.0920172
-0.0560161
-0.0876425
-0.131584
-0.362243
-0.00422199
0.0352039
0.0296125
-0.229595
0.00977453
-0.0707611
0.0275415
-0.0280609
-0.0737021
0.0063103
-0.051964
-0.0517799
-0.0112024
-0.123132
0.0306528
-0.185053
-0.292117
-0.105823
-0.405504
-0.0648633
-0.0528251
-0.160221
-0.0125221
0.0215317
-0.0633813
-0.128719
-0.0856981
-0.0628047
-0.0904989
-0.067289
-0.353192
-0.0305567
0.00126096
-0.0158765
-0.277827
-0.0973988
-0.0682224
0.0493291
-0.0547366
-0.0410904
0.0427132
-0.0958899
-0.105674
-0.096378
-0.0443367
0.00606849
0.0234728
0.0149581
-0.0218979
-0.139391
-0.276144
0.00725309
-0.1228
0.000138469
0.0233795
-0.0907662
-0.0770218
-0.207766
-0.0861
-0.102258
0.00083627
0.0261166
-0.13956
-0.114558
-0.287223
-0.275492
-0.0980217
-0.00571688
-0.0652067
-0.392467
-0.00944935
-0.0997401
-0.0236886
0.0161279
-0.135733
0.0163292
-0.0492986
-0.105554
-0.00217373
-0.0852797
-0.117037
-0.172479
-0.0958653
-0.123066
-0.140341
-0.0178491
-0.0837371
-0.230525
-0.0788565
0.00394031
0.0237118
0.0135246
-0.0516634
0.0022768
0.0146743
-0.174304
0.00038982
-0.00177138
0.0393827
-0.0895928
0.0387995
0.0225275
-0.209181
-0.113233
-0.00203008
0.028651
0.0286626
-0.0791057
-0.285461
0.0148221
0.032087
0.0117084
0.00381562
0.0809642
0.0663103
0.0371784
-0.0745991
-0.00886326
-0.146514
-0.0645654
-0.0112763
-0.231714
0.128016
-0.307337
-0.156107
-0.0451699
0.017506
-0.0488247
-0.112424
-0.363697
-0.0424013
-0.0655573
-0.307812
-0.0579859
-0.17746
0.0202679
0.00960928
0.0535696
0.0251648
-0.370988
-0.278669
0.00495019
0.0199497
-0.0446936
-0.394307
-0.0176258
-0.0244689
-0.046997
-0.0225608
0.083562
-0.15866
0.0734533
0.0194226
-0.0111285
-0.195383
-0.100842
-0.00393142
-0.20851
0.109082
-0.144697
0.00151855
0.0432687
0.0358504
-0.0343718
-0.00451231
-0.0496389
-0.0960087
-0.0918515
0.0469114
-0.274097
-0.204553
0.00470387
0.031952
-0.0592371
-0.357317
-0.0911025
0.0506654
0.00536286
-0.17705
-0.160846
-0.131146
-0.0941132
-0.0016928
-0.116684
0.0135609
-0.0966779
0.0382656
0.00577938
-0.334297
-0.122521
-0.0847265
0.0672514
-0.388028
-0.0995376
-0.0100602
0.0476365
-0.310653
-0.0454711
-0.01802
-0.0382913
-0.0140011
-0.36288
0.00840634
0.0204095
-0.355127
-0.0681925
0.00823584
-0.00796785
-0.0025123
0.01826
-0.0922449
-0.288294
0.2638
-0.0806247
-0.0995386
-0.234745
-0.0233344
-0.234248
-0.0913021
-0.28068
-0.091508
0.0719065
-0.0387251
0.0134789
0.0213219
-0.0490917
0.0449542
-0.0329853
-0.114275
-0.0837543
-0.0719903
-0.0711078
-0.0664178
-0.0924297
-0.362227
-0.0896634
-0.185194
-0.117329
-0.00373282
-0.163231
-0.0820026
-0.0490593
0.000438089
0.0545409
-0.068291
-0.0811182
-0.0744599
0.00216711
-0.371943
-0.00558545
0.121686
0.0244656
-0.0597507
-0.0184486
0.0085884
-0.0673669
-0.0564751
-0.122103
-0.00157347
-0.0708866
-0.045751
-0.212691
-0.01837
-0.165653
0.252763
-0.0277184
0.0129655
-0.126291
-0.308031
0.0566613
0.205212
0.00366305
-0.189252
0.00234085
-0.0154854
0.0473361
0.0351297
-0.0438872
-0.0686581
-0.115726
0.0292172
0.0361016
-0.407382
0.0144572
-0.0508968
-0.0152165
-0.0215491
-0.00225408
0.0139841
-0.354589
-0.00227948
0.0118556
-0.407237
-0.040012
-0.0741241
-0.407138
0.0343049
0.0172046
-0.116677
-0.177066
-0.391404
-0.0703558
0.118059
0.0822185
-0.00888461
-0.364014
0.0291818
-0.0948036
-0.172999
-0.0993769
-0.0436784
-0.283032
-0.0732412
-0.00703534
-0.123279
-0.0025294
-0.000588687
-0.0734984
-0.311172
-0.110491
-0.186776
-0.407382
-0.0950915
0.080309
-0.0837899
-0.0236196
-0.0089717
-0.0136767
-0.14652
0.0431916
-0.0735611
0.0043673
-0.0956609
-0.0746666
-0.0659298
0.0357036
-0.222419
-0.209836
0.0438277
0.0331093
-0.408622
0.0302071
-0.0419526
0.00232485
0.0250035
0.0125917
-0.254792
-0.399837
0.0214677
0.0178231
0.0285749
0.0192447
-0.0530631
-0.120598
-0.189142
-0.1069
0.00796985
0.00326488
-0.182052
-0.148893
0.00621773
0.0124254
-0.273351
0.00153298
-0.207316
-0.0227314
-0.0260865
-0.054974
-0.276392
0.00149823
0.0509138
0.0403859
0.101375
0.00670965
-0.298946
0.0138593
0.0793077
0.23241
-0.0351301
-0.306664
-0.390559
-0.0084801
-0.105502
-0.00868746
-0.106468
-0.274705
0.114138
0.00348648
0.0926217
-0.273873
0.0100381
-0.0837132
-0.0484887
0.0543716
-0.139947
0.01355
0.00012452
0.114009
-0.067898
0.00564809
-0.121873
-0.0140869
-0.169868
-0.255619
-0.0384787
-0.22817
-0.149433
-0.0840285
0.0577507
0.0237899
0.00308673
-0.0664174
-0.198636
-0.0128205
-0.00952734
-0.0349293
-0.0473691
-0.126574
-0.0738852
-0.380981
-0.0184938
-0.0213883
0.159731
-0.0187684
-0.12752
0.0281603
0.00984491
-0.405168
-0.00137694
-0.071927
-0.00297207
0.0189514
-0.0919627
-0.00143804
0.00206699
-0.00465906
0.00958464
-0.271322
0.242802
-0.228064
-0.161284
0.0922322
-0.118951
-0.093907
0.0676992
-0.315935
-0.369148
-0.0922316
0.0116003
0.00491816
-0.109013
-0.314619
-0.156151
-0.0386787
-0.00398476
-0.280249
-0.253196
0.0288386
-0.0933452
-0.0730111
-0.140705
-0.130556
0.00604284
-0.0839671
-0.19596
-0.00480781
0.0113698
-0.209579
-0.309814
-0.197183
-0.400208
-0.0423552
-0.139609
0.0213623
-0.229503
0.0726313
-0.0638005
0.114685
-0.325049
0.00472415
-0.0140812
-0.0583052
-0.142866
0.0018374
-0.387527
-0.138719
-0.0821451
0.00880859
0.00857176
-0.173624
-0.00188722
-0.0963039
-0.0732942
-0.316811
-0.227788
-0.248509
-0.0703005
0.011089
-0.0136389
0.0571718
-0.392011
-0.077877
-0.0898927
-0.193776
0.022299
0.0501953
-0.216251
0.0234115
-0.246198
-0.0226338
-0.0782124
-0.105813
0.00390792
-0.0763398
-0.0385806
-0.0849132
-0.0999209
-0.0324706
-0.196477
-0.0950564
-0.197431
-0.345003
-0.258522
-0.398666
0.03503
-0.150423
-0.0853368
-0.308412
-0.00432769
-0.00548645
0.0553928
-0.148964
-0.151824
-0.0673405
-0.0223381
0.0204612
-0.111029
-0.30777
0.021887
0.0214532
0.0432593
-0.0168096
-0.1721
-0.348684
0.0151192
-0.235724
-0.382757
-0.110104
-0.402906
-0.137983
0.0268688
-0.0131874
-0.0176588
-0.0527074
-0.0830294
-0.0560914
0.0395766
-0.0808781
-0.0658949
-0.00449616
-0.0151882
-0.154406
-0.395263
0.00476379
-0.0978637
-0.180619
0.0571412
-0.0112817
-0.145561
-0.289261
-0.145351
0.00575641
0.00381691
-0.244005
-0.139229
-0.0484833
0.0229949
-0.0668047
-0.197558
-0.0654343
0.0218064
-0.0571601
-0.242438
-0.0132311
-0.377945
-0.0599683
-0.241205
-0.0488353
0.0611067
-0.0107204
-0.0942451
-0.0537232
0.0204575
-0.0968649
0.0146662
0.205816
-0.194041
-0.244975
-0.147406
-0.0268992
-0.0245312
-0.399067
-0.0322059
-0.407444
-0.329026
0.0142558
0.00687969
-0.0792612
-0.227834
-0.396586
-0.192467
-0.0664398
-0.0268409
-0.0185847
-0.155988
-0.00318299
-0.0792435
0.0166888
-0.0910695
-0.180689
-0.0151414
-0.0852858
-0.217311
0.0269777
-0.0290769
-0.108702
-0.205071
-0.390772
-0.0269064
0.0449352
0.00292568
0.0138128
0.0694487
0.0414995
0.0394439
-0.0763876
-0.208287
0.00198571
-0.164454
0.107042
-0.0253558
-0.260548
-0.167959
-0.388395
-0.206746
0.0800487
-0.0981081
0.0138885
0.00225432
0.00922299
0.015425
-0.0163431
0.051165
-0.212384
-0.343793
0.0161109
0.00576391
-0.370084
-0.13798
-0.152019
-0.0780005
0.00990834
-0.0402058
-0.0987389
0.228703
-0.0624794
-0.219259
0.136116
-0.0668443
-0.271857
-0.0979163
0.0368881
-0.109636
-0.0219662
-0.13977
-0.346497
-0.189041
-0.158703
-0.400582
-0.0458275
-0.263401
-0.0470273
-0.0541256
-0.0438201
-0.049374
-0.0475804
-0.278514
-0.10543
-0.187989
-0.0471426
0.0343726
0.0212854
-0.0732722
0.0242202
-0.247429
0.0390255
-0.0803557
-0.0235233
-0.0105299
-0.00422379
-0.0738196
-0.0949001
0.0365599
0.0235583
0.0729647
0.0220761
0.237863
-0.022305
0.00270819
-0.00717471
-0.0735641
-0.124123
0.165956
0.00765102
0.0018647
0.0176186
0.022553
0.0793969
-0.0808697
-0.0897136
0.0224418
0.0371869
-0.261716
0.0066596
-0.251511
0.0240904
0.0225772
-0.250409
-0.0620389
-0.0475529
-0.230735
-0.0137951
-0.0887809
-0.408623
0.0269928
0.00570438
0.0342803
0.0762092
-0.0261432
-0.0911737
-0.0944545
-0.126939
0.0210588
-0.100379
-0.140266
-0.181634
-0.0307817
0.00349515
-0.0182666
0.103081
-0.252749
0.0202961
0.0522836
-0.094884
-0.0682944
-0.0146985
-0.245944
-0.112247
0.0323663
0.0086887
-0.170117
0.00506398
-0.014478
-0.130698
-0.391468
-0.0726207
0.00550947
-0.00264653
-0.0802598
-0.078381
-0.00443076
-0.00211541
-0.0643092
-0.170721
0.0420154
-0.154514
-0.018217
-0.0750626
-0.0988048
0.0152074
0.0133844
0.0205716
0.0676641
-0.380156
0.00176528
-0.298894
0.00840499
0.0420678
-0.0878411
-0.047548
0.0364579
-0.0729396
-0.202105
-0.373196
-0.0357093
-0.0221371
-0.278162
-0.00140302
-0.184029
-0.0783681
-0.074388
-0.26468
-0.079494
-0.363257
0.029212
0.0213026
0.0202807
0.0330779
-0.162049
-0.276345
-0.00177098
0.00679555
0.00890463
-0.227844
0.0359777
0.00864062
-0.174756
0.0149188
-0.0736602
-0.153986
-0.0193365
-0.106402
0.0116547
0.00440013
0.00141464
0.0895123
-0.0183216
-0.0307007
-0.0263278
-0.133215
-0.339367
-0.0575942
0.0133604
-0.0819314
-0.0780558
-0.0313081
0.00575956
-0.0412296
-0.0104262
-0.0970983
-0.0445914
-0.0348863
-0.0306334
-0.195107
-0.199501
-0.0180926
-0.0488254
-0.0403372
-0.131414
-0.0963297
-0.202057
-0.0938368
-0.125078
-0.0360295
-0.354107
-0.019756
0.0168086
-0.0187141
0.0223271
-0.152678
-0.0676981
-0.336155
-0.135708
0.00974899
-0.0386457
-0.0733075
0.071287
0.0148644
-0.140719
-0.340902
-0.244607
0.0571232
-0.285369
-0.0474893
-0.278164
-0.304313
-0.154846
-0.161981
-0.189653
0.00147007
0.0117338
0.0589459
-0.0783543
-0.0776966
-0.0391246
0.0738429
-0.0137835
-0.0115521
0.150594
0.00118949
-0.0201936
-0.0481512
-0.0523175
-0.0479425
0.0162153
-0.0788817
-0.0851847
-0.0520426
-0.0102566
0.0273537
-0.285555
-0.218855
-0.0133309
-0.201698
-0.409065
-0.0430018
-0.0119437
-0.0991428
-0.284974
-0.345307
-0.120418
-0.0681278
-0.347591
-0.138479
0.0247433
-0.0225776
-0.132438
-0.0639629
0.117733
-0.0800337
-0.0656109
-0.000387465
-0.0526963
-0.0476392
0.190186
-0.0904263
0.0368484
-0.0678847
-0.210175
-0.00569153
-0.00985254
-0.121734
0.035655
-0.104903
0.00583136
-0.00919298
0.0614367
0.0438242
0.0177854
-0.0671939
-0.0546701
-0.157885
-0.316047
0.00621143
0.000170917
-0.025014
-0.109944
-0.00889146
-0.018272
-0.24427
-0.0930746
-0.343547
0.0233665
-0.0884052
0.00851789
-0.0850168
-0.403022
-0.0234454
-0.126375
-0.196699
0.0168249
-0.228347
-0.354541
-0.281478
0.12742
-0.185012
0.0933737
0.176455
-0.0997736
-0.151223
-0.0988316
0.0114892
-0.266821
-0.0898312
-0.158747
0.00287831
0.0189607
0.0363161
-0.0229281
0.0412623
-0.204999
-0.157904
0.081449
-0.013165
-0.0927452
0.0187568
-0.2462
0.0955767
-0.132866
-0.0197022
0.0113311
-0.180127
-0.270841
-0.0717079
0.0180912
-0.0742855
-0.202647
-0.200512
-0.0241977
0.0225495
-0.159924
-0.081387
-0.0117458
-0.0710487
-0.0763829
-0.00746422
-0.0383708
-0.200457
-0.153704
-0.00350894
-0.00588187
-0.242174
-0.0541666
-0.0740058
-0.078386
0.0191176
-0.208886
-0.00682415
-0.0351302
-0.0651972
-0.0889419
-0.0139621
-0.0121596
-0.364196
-0.0247541
-0.0527049
-0.048674
-0.00868271
-0.0758602
-0.00524941
-0.0790537
-0.131478
-0.406855
-0.167247
-0.00960655
-0.213692
0.106012
-0.39127
-0.263034
-0.271635
-0.399443
-0.203171
-0.28218
-0.0738348
-0.191471
0.126396
0.0532251
0.026113
-0.000802669
-0.373399
0.00496881
-0.0100877
0.0275041
-0.0980683
-0.389548
0.125417
-0.00597119
0.046088
-0.0306083