/*--------------------------------*- C++ -*----------------------------------*\
| =========                 |                                                 |
| \\      /  F ield         | OpenFOAM: The Open Source CFD Toolbox           |
|  \\    /   O peration     | Version:  v2012                                 |
|   \\  /    A nd           | Website:  www.openfoam.com                      |
|    \\/     M anipulation  |                                                 |
\*---------------------------------------------------------------------------*/
FoamFile
{
    version     2.0;
    format      ascii;
    class       surfaceScalarField;
    location    "300";
    object      phi_0;
}
// * * * * * * * * * * * * * * * * * * * * * * * * * * * * * * * * * * * * * //

dimensions      [0 3 -1 0 0 0 0];
oriented        oriented;


internalField   nonuniform List<scalar> 
79099
(
0.0424799
0.0567409
-0.0992208
-0.049736
0.0453056
0.00443042
-0.0964191
0.090752
0.00566716
-0.0398344
0.045104
-0.00526967
-0.000159823
-0.000779944
0.000939768
0.00224033
-0.00348441
0.00124408
-0.0434429
0.072334
-0.0288912
-0.0539307
0.0964106
-0.0449278
0.0665489
-0.0216211
0.0588974
0.0543918
-0.113289
-0.0588685
0.0636574
-0.00478898
0.0337007
-0.055583
0.0218822
0.0177408
-0.0111406
-0.00660021
0.0348277
-0.0335698
-0.00125792
0.0723039
0.0500845
-0.122388
-0.101365
0.187887
-0.0865226
-0.0838402
0.137591
-0.0537505
-0.189635
0.0882701
-0.0144357
0.015069
-0.000633305
0.0674104
-0.122348
0.0549377
0.145886
-0.0685309
-0.0773554
0.0698886
-0.0452903
-0.0245983
0.110439
0.125325
-0.235764
-0.0693323
0.0258895
0.0689986
-0.130917
0.0619183
-0.0477703
0.0412814
0.00648891
0.00233355
0.0324941
0.0985403
-0.0619618
-0.0365784
-0.0465582
0.00382416
0.0427341
-0.0374504
0.0555247
-0.0180743
-0.0444305
0.0398226
0.00460796
0.00908815
-0.0357891
0.0267009
-0.000648172
0.00128056
-0.000632386
0.0566045
0.0801822
-0.136787
0.351723
-0.191532
-0.160191
-0.0718043
0.0209937
0.0508106
-0.0173108
0.0905638
-0.073253
0.104376
0.191409
-0.295785
-0.0723725
0.0239395
0.048433
0.0444773
0.0641663
-0.108644
-0.100425
0.0831147
-0.0258876
0.0295892
-0.00370166
0.0659779
-0.0594193
-0.00655858
-0.00762624
0.00447275
0.00315349
0.127664
-0.060254
-0.086437
0.184699
-0.0982619
-0.0693325
0.182754
-0.113422
-0.164146
0.0947165
0.0694294
-0.00253674
-0.0477244
0.0502611
-0.291578
0.182719
0.108859
0.227851
-0.327343
0.0994915
0.0143883
0.0516471
-0.0660355
-0.0453188
-0.0508555
0.0961743
-0.250881
0.165449
0.0854316
-0.087634
0.0560396
0.0315944
0.000823545
-0.0152592
0.0607097
-0.126076
0.0653666
-0.174238
0.313375
-0.139137
-0.040649
0.0491481
-0.00849914
0.0405996
-0.0859675
0.0453679
0.151493
-0.100202
-0.0512914
0.020181
-0.0899828
0.0698018
-0.019337
0.0255329
-0.00619598
-0.000186809
-0.00594125
0.00612806
0.0297321
0.0175139
-0.047246
0.198689
-0.118384
-0.0803048
-0.0569359
0.0194855
-0.209242
0.139909
0.186109
-0.315088
0.128979
-0.116747
-0.0529807
0.169728
-0.00308551
0.0139453
-0.0108598
0.246126
0.0289805
-0.275106
-0.134566
0.104249
0.0303175
-0.00063752
-1.06519e-05
-0.0438907
-0.0038796
0.32024
-0.214176
-0.106064
-0.0658653
-0.226719
0.292584
0.00342065
-0.00118032
0.0784855
-0.208796
0.130311
-0.00874179
0.00565627
-0.00368098
0.000196574
-0.0214274
0.0112187
0.0102087
0.0526422
-0.0502822
-0.00236004
-0.0559124
0.0258375
0.0300749
0.090001
-0.0486195
-0.0413815
-0.197253
0.0805058
-0.0273212
-0.0106178
0.0379391
-0.0688298
0.023902
0.0691628
0.129526
-0.0393539
0.0867718
-0.0474179
0.00311482
-0.00613334
0.00301852
0.00167475
-0.00251448
0.000839726
-0.0106376
-0.0107898
0.0605073
-0.00511419
-0.0553931
-0.00109777
0.0272663
-0.0261685
0.00867318
0.0436615
-0.0523347
0.0174325
-0.00118529
-0.0162472
-0.0148761
-0.081543
0.0337097
-0.0378296
0.00411986
-0.0263463
0.00700933
-0.0616384
0.117009
-0.0725317
0.0060172
-0.0542941
0.0482769
0.0520493
0.0464909
0.0973607
-0.0534249
-0.0439358
0.00416123
-0.00257732
-0.00158391
0.000271529
-0.00188131
0.00160978
-0.0142513
-0.0575531
-0.0290202
-0.0222671
0.0512873
0.299003
-0.0528775
0.0351837
0.0158109
-0.0509946
0.0182252
-0.0387378
0.0205126
0.208349
-0.274215
0.0272281
-0.0283259
-0.0231828
0.00150028
0.0216825
0.291502
0.0014733
-0.292975
0.0416367
-0.117467
0.07583
0.0974031
0.125985
-0.223388
-0.0431699
-0.00254326
0.00168712
-0.00501844
0.00333132
0.00078069
-0.000940514
-0.0385313
-0.0960347
0.0282289
-0.0945562
0.0663273
0.0424254
-0.0195543
-0.0228711
-0.00323415
-0.000446828
-0.178323
0.110569
0.067754
-0.0046095
0.00671732
-0.00210782
0.047904
0.000936776
-0.0488408
0.0287892
-0.0922065
0.0634172
-0.0495936
-0.0753395
0.124933
-0.0292602
0.0383484
-0.0680467
0.166175
-0.0981282
-0.0300181
-0.0258943
-0.0731134
-0.0362304
0.109344
0.0765594
-0.213635
0.137075
-0.0446334
0.00398447
-0.156352
0.268942
-0.112589
0.00963077
0.00811
0.0814482
0.0774094
-0.158858
0.108247
-0.191898
0.0836502
0.224392
-0.138894
-0.0854976
0.0945215
-0.186958
0.0924367
-0.0230549
0.0642628
-0.0412078
0.0187848
0.0182404
-0.0370252
0.0901614
-0.0613722
0.0266917
-0.0982432
0.0715516
-0.0613132
0.10295
-0.0637645
0.216498
-0.152734
0.0598269
-0.194474
0.134648
0.0604798
-0.134097
0.0736173
-0.294557
0.224715
0.0698421
0.0151582
0.0103748
-0.000342974
-0.00043697
0.0345573
0.0353313
-0.280271
0.0943858
0.185885
-0.0960545
0.0507357
0.0326179
-0.0219546
-0.0106634
-0.00770623
0.00118605
0.00652018
0.0559149
-0.134541
0.0786264
0.0499717
-0.0565714
0.00659969
0.0682525
-0.0661661
-0.00208639
-0.151819
-0.13976
0.262974
-0.152518
-0.110455
-0.000866326
0.00254108
0.05267
-0.121692
0.0690216
0.170394
0.128113
0.0866043
0.0968228
-0.183427
-0.0839107
0.0929209
-0.00901018
-0.0559201
-0.170036
0.225956
-0.0376516
0.116273
-0.0786218
0.105368
-0.0572215
-0.0481462
-0.0182815
0.0180968
0.000184695
-0.0268001
0.0242045
0.00259564
0.128716
-0.220036
0.09132
0.0116073
0.0308181
-0.0977106
0.191809
-0.0940987
0.0230079
0.0669932
-0.0544996
0.0631728
0.0220481
-0.0493693
0.0439685
-0.0761704
0.0322019
0.103886
-0.0756571
0.132603
-0.0799331
-0.00363145
-0.00399479
-0.0700775
-0.0427838
0.112861
-0.0305673
0.064268
0.0073771
-0.00756391
0.020475
-0.024069
0.00359403
-0.00847527
-0.0183249
-0.00300817
0.00152976
0.00147841
-0.235294
0.171529
0.0332268
-0.0150016
0.0855624
0.0351823
-0.120745
0.0153476
0.0267866
-0.0421343
0.00315225
-0.00146514
-0.179355
0.0571469
0.122208
0.0245925
0.106316
-0.130908
0.0632587
0.0413316
-0.10459
-0.224031
0.146329
0.0777021
0.299717
-0.155379
-0.144338
-0.0823924
0.0727797
0.0096127
0.0328083
-0.0729249
0.0401166
0.17084
-0.0628889
-0.107951
0.030818
-0.093214
0.062396
-0.0852829
-0.0752635
0.160546
0.0415061
-0.0537146
0.0122085
-0.00229273
0.00228099
1.17444e-05
0.0635569
-0.126167
0.0626098
0.286769
-0.180413
-0.106355
-0.0521317
0.0717327
-0.019601
-0.0970187
0.214778
-0.117759
0.00137024
-0.00109871
-0.0548939
0.120258
-0.0653642
0.0503791
-0.0484148
-0.00196426
-0.0722303
-0.0169309
0.0891612
0.0342817
-0.0633019
0.105427
0.072636
-0.178063
0.176243
-0.285818
0.109575
-0.137169
0.247608
-0.0684941
0.0501596
0.0183345
-0.0523447
-0.0815659
0.133911
0.0455932
-0.0521602
0.00656698
0.301052
-0.123602
-0.17745
0.00101606
0.0511396
-0.0521557
0.121016
0.180035
0.066132
-0.133708
0.0675757
-0.0592358
0.0618908
-0.00265504
0.127258
-0.0684077
-0.0588504
0.018098
-0.0648882
0.0467902
0.0902706
-0.0624558
-0.0278148
0.0499196
0.174472
0.00527548
-0.00572466
0.000449183
-0.0299392
0.0317549
-0.00181563
-0.24968
0.120614
0.129066
0.0175499
0.00764546
-0.0251954
0.0767354
-0.0506981
-0.0260373
0.00270078
0.00146046
-0.0459837
-0.0848721
0.130856
0.198218
-0.121659
0.00156594
0.00363881
-0.00520475
-0.0947862
-0.0932628
0.188049
-0.167302
0.0992549
0.129726
-0.0731219
0.0604223
-0.0297358
-0.0306865
0.122814
-0.0623346
0.0586121
-0.11755
0.0589381
0.315868
-0.194474
-0.121394
0.0443027
0.0139346
-0.0582373
0.0470033
-0.00141012
-0.229507
0.151215
0.0782923
0.0877627
-0.0471631
0.149981
-0.108178
-0.0418024
0.119599
-0.0569969
-0.0626023
-0.110344
-0.0493217
0.159666
-0.0609934
-0.021399
0.0571829
-0.137261
0.0800785
0.0206162
-0.0253378
0.00472156
0.043195
-0.0244102
0.0671341
-0.147754
0.0806202
-0.061185
-0.00730908
0.0643179
-0.136671
0.0723534
-0.0237302
-0.0205204
0.0442506
-0.0409784
-0.00365502
-0.101896
0.0179852
0.332887
-0.164927
-0.16796
-0.0675539
-0.0858042
0.153358
-0.0384254
0.0385576
-0.000132186
-0.019954
0.00890125
0.0110527
-0.193149
0.219681
-0.026532
0.0224398
-0.0019648
-0.0514621
0.0524781
-0.136018
-0.0880026
-0.119656
0.0465424
0.077481
0.0465244
-0.124005
0.027155
0.0332673
-0.00166944
0.00208967
-0.000420227
-0.289209
0.188936
0.100273
0.0521402
-0.0106341
0.00616431
-0.000163462
-0.00600085
-0.0929518
0.0372202
0.0557316
-0.0931462
-0.0565101
0.149656
0.233158
-0.107833
-0.151153
0.255529
-0.0632604
-0.0296914
-0.0174467
0.0601277
-0.042681
0.108764
-0.0323478
-0.0764163
-0.0328844
-0.0394881
-0.00767131
-0.0639416
0.0716129
0.00549743
-9.18325e-05
-0.0054056
0.0421297
-0.0595764
0.0476045
-0.117682
0.0516115
-0.0417365
-0.00987492
-0.0120716
0.011749
0.000322565
-0.0756651
0.00913302
0.0665321
-0.0309713
0.00893416
0.0220371
0.0180878
-0.0486425
0.0305547
0.125453
0.194787
-0.0337672
-0.0456524
0.0794196
-0.037042
0.05485
-0.017808
-0.00345279
-0.0549183
0.16367
-0.108751
-0.0109184
-0.0647467
-0.00151635
-0.00149182
-5.59395e-05
-0.000875157
0.000931096
-0.00187593
-0.000416804
-0.105771
-0.155195
0.260966
-0.0528726
0.00313655
0.076593
-0.107002
0.0304088
0.144184
-0.0770498
0.238699
0.0528026
0.0523303
-0.0645252
0.0121949
0.0050819
0.000193572
-0.0493807
0.0478599
0.00152085
-0.0346861
0.0414479
-0.00676185
0.00119458
-0.00170457
0.000509992
-0.075233
0.0456889
0.0295441
-0.0747329
0.0226012
0.147801
0.150707
-0.257964
0.195863
0.0621006
-0.176224
-0.112984
-0.0431508
-0.0398223
0.0829732
0.0150395
-0.0520815
0.00295461
-0.0288422
-0.0885353
0.0175935
0.0709417
0.00197669
-0.000782108
0.0161383
0.0354732
-0.127769
0.0892374
0.0187887
0.0138293
0.028839
-0.0852285
0.0563895
-0.213697
-0.0665733
-0.104148
0.0720446
0.0321032
-0.00244696
0.0037688
-0.00132184
-0.0881046
-0.0912505
-0.0876245
-0.166285
0.25391
0.152193
-0.0845149
-0.0676786
0.266878
-0.143675
-0.123203
-0.108192
0.225444
-0.117252
0.0409497
-0.025602
-0.344205
0.240656
0.103549
0.00105692
0.0163756
0.113208
-0.089376
-0.0238324
0.227976
-0.3156
0.249227
-0.150522
-0.0987047
0.052548
0.0157044
-0.154669
0.136245
0.0184242
0.122854
-0.0505498
-0.0375141
-0.000911315
0.0498794
0.0224546
-0.00075967
-0.00262224
0.00338191
0.0018702
-0.0428486
0.000881096
-0.000538661
-0.000342435
0.054743
-0.0501372
-0.00460575
-0.000649703
0.0014329
-0.000783194
0.0897773
-0.135761
-0.122381
0.226714
-0.104332
-0.00322662
0.00406633
-0.000839709
0.0174101
-0.0180934
0.000683352
0.169179
-0.105214
-0.0639646
-0.094596
0.18411
-0.089514
-0.0429532
0.019223
-0.00799984
-0.0119541
-0.0940272
0.159192
-0.0651644
0.044871
-0.0525423
0.0740132
0.0664676
-0.140481
0.00292739
-0.00303473
0.000107339
0.0819969
-0.0480092
-0.0339878
-0.00188127
-0.0090663
0.0109476
-0.328371
0.178302
0.150069
-0.0633959
0.0971274
-0.0337315
-0.110426
0.0415764
0.0688497
-0.0526895
0.109733
-0.0570433
0.0192975
0.00314236
-0.13527
0.0891686
0.0461012
-0.0194842
0.0466473
-0.0271631
0.0483949
-0.00139161
0.0358151
0.0461819
0.121855
-0.0582985
-0.00411787
0.0600365
-0.0559187
0.0258015
0.0152418
-0.0410433
0.00387155
-0.00342011
0.000973157
-0.297146
0.296284
0.000862458
-0.076792
0.127677
-0.0508849
-0.0638112
0.101541
-0.0377301
0.120206
-0.0558885
-0.0247673
0.0167675
0.13903
-0.247285
0.108255
0.0828175
0.0630688
-0.0110543
-0.00101726
0.056621
0.112558
0.0253517
-0.0254299
7.81468e-05
0.00677822
-0.00061391
0.116388
-0.274444
0.158056
0.0252585
-0.102051
0.0439385
0.0569703
-0.100909
0.146269
-0.0809963
-0.0652725
-0.0668614
0.100306
-0.0334448
0.190125
-0.0818772
0.0404569
0.0362785
-0.0387434
-0.0191631
0.0579065
0.00120813
-0.00126407
-0.0125555
-0.0759798
-0.0623786
0.0912176
-0.061522
0.130521
0.0021603
-0.00291997
-0.154758
0.0988375
-0.132835
-0.118046
0.0633755
-0.04737
-0.0160054
0.128604
-0.0624722
-0.0261253
-0.128544
0.0992185
-0.0684005
-0.141873
-0.186498
0.0634124
-0.0391492
-0.0242632
-0.0360678
0.276252
-0.240184
-0.0788901
0.145153
-0.0662634
-0.0489129
-0.0679564
0.116869
-0.00190361
0.188118
-0.3085
0.120382
0.00247484
0.000452555
-0.157645
0.0745508
0.0830938
-0.0563272
-0.102054
0.158381
0.125913
0.109734
-0.235647
0.144407
-0.0920956
-0.0523113
-0.0241811
0.0681496
0.0250898
0.0844203
-0.10951
0.00270314
-0.0448174
0.0421143
-0.160431
-0.134126
0.116357
-0.0965248
-0.0198325
0.0444233
-0.0947844
0.0503612
0.0451849
0.00955807
-0.320873
0.144649
-0.0188295
-0.0256011
0.000549816
-0.00181319
0.00126337
-0.0394926
-0.00216286
0.0416555
0.0944693
0.0476613
0.00383797
-0.0514993
0.0802683
-0.0759826
-0.00428563
-0.00609977
0.000333408
0.00576636
0.0271915
-0.0642572
0.0370657
0.0208715
-0.00157403
0.075416
-0.0482246
0.0399454
-0.233094
-0.0418446
0.0547819
-0.0129373
-0.020109
0.0498411
-0.0408136
-0.0417754
0.082589
-0.0973761
0.0802665
-0.0544997
-0.0257668
-0.00352566
0.00232719
0.00119847
-0.0428535
0.0033609
0.0948584
-0.0681668
0.0101031
0.0178402
-0.0279434
-0.00770022
0.00753676
0.0929753
-0.00297209
-0.0900033
-0.00188062
0.00123091
0.0498717
-0.0729266
-0.0548462
-0.102798
0.0575052
-0.0597777
0.00227254
0.120809
-0.0844086
-0.0364004
0.114739
-0.190849
0.07611
0.327259
-0.159759
-0.1675
-0.172485
0.299929
-0.127444
0.0505325
-0.0509757
0.000443206
-0.00374581
0.00205906
0.00168675
-0.142571
0.0953128
0.0210445
0.0428548
0.00554011
-0.100868
0.055677
0.0451912
0.0713169
0.0995226
-0.00575407
-0.0003457
0.171805
0.0339103
-0.205715
0.0720743
-0.132092
0.0600178
-0.0583117
0.0144369
0.0438748
-0.0585093
-0.0519168
0.0914316
-0.0393822
0.011683
-0.0135643
-0.054944
0.0473305
0.00761355
0.0607928
-0.061677
0.000884245
0.0623282
0.0839407
0.0739015
-0.0397952
-0.0140158
0.053811
0.0128809
-0.0139395
0.00105859
0.0435396
0.00526284
-0.0488024
0.0447413
-0.0516493
0.006908
-0.0605386
-0.0470699
0.107609
-0.0814878
-0.0537821
-0.0619921
0.0130873
0.0489048
0.241104
-0.115192
0.128776
-0.103912
-0.0248635
0.103917
-0.0599783
-0.0719549
0.0366721
0.0352829
0.0464256
-0.0875978
0.0411722
0.0260733
0.0615268
-0.0876002
0.112582
0.0384395
-0.151022
0.000711871
-0.00116036
0.000448485
0.292479
-0.165037
-0.127443
-0.169652
0.0750563
0.0430334
0.0108422
-0.0538756
0.310431
-0.19136
-0.119071
-0.00109088
0.000735545
0.000355332
0.051507
0.0387636
-0.274628
0.00797529
0.266653
0.0365579
-0.0797088
-0.0794264
-0.0847195
0.0253968
-0.00784691
-0.062924
0.0649351
-0.00201109
0.29364
-0.194381
-0.0992589
-0.0486584
0.0152368
0.0334216
0.0566843
-0.0136508
0.0296497
-0.0768429
0.0471932
-0.0720102
-0.0288581
-0.0618765
0.0577586
0.00313873
-0.00243611
-0.000702622
0.0660302
-0.0214318
-0.0445984
0.225528
0.0341241
-0.259652
-0.272315
0.0849311
0.187384
-0.0442996
-0.0186245
-0.0116874
0.0130596
-0.0013722
-0.0455798
0.0985059
-0.0529261
-0.0672706
0.114875
0.148426
-0.0792503
-0.0691758
0.00155776
-0.00531182
0.00375406
0.13139
-0.0878218
-0.0435679
-0.00426317
0.00365027
0.000612902
-0.152071
-0.105893
0.0339208
0.0369255
-0.0708462
0.0196029
-0.0834142
0.00010855
-0.00397265
0.0038641
0.0409402
-0.0752082
0.034268
-0.0679484
0.0881294
-0.0466152
0.0378622
0.00875301
0.0390066
-0.313635
-0.0169993
-0.0399366
0.170315
-0.110488
-0.147548
0.294179
-0.14663
0.00240681
-0.0105457
0.0081389
-0.170617
0.0602724
0.106201
-0.0816085
0.0862821
-0.0638877
-0.0223944
-0.11654
0.0729274
0.0436121
0.101261
-0.180296
0.0790349
0.0993836
-0.19224
0.0928569
0.0413407
-0.0548711
0.0135303
0.000112288
-0.000965418
0.00085313
0.0787443
-0.061117
-0.0176274
-0.0329778
0.0945956
-0.0616177
-0.00460954
-0.0263617
0.0980545
-0.0536313
0.0557224
0.00921272
-0.183769
0.0889823
0.187185
-0.0878013
0.0722044
-0.0684187
-0.00378571
-0.00205419
-0.00067847
0.00273266
-0.0458434
0.0447022
0.0011412
-0.0861265
-0.02971
0.115836
0.0222557
-0.0215526
-0.000703141
-0.120081
0.0695411
0.0505401
0.258672
-0.0725638
-3.10442e-06
-0.00770312
-0.0986882
0.0318268
-0.15108
0.0702788
0.0808008
0.0589488
-0.129034
0.0700852
0.0409033
-0.0892933
0.04839
0.0134906
-0.000609729
0.0392727
-0.0785424
0.0392697
0.0675528
-0.00704551
0.123632
-0.034463
-0.0982248
0.065247
-0.0579704
-0.00402172
-0.129091
0.0911256
0.0379652
-0.106494
0.0688429
0.0850002
-0.0457275
0.0825844
0.00472968
-0.0873141
-0.0385219
-0.00637791
0.0448999
-0.0499
0.0513518
-0.00145185
-0.0401014
0.0581994
0.0347679
0.0940077
0.182825
-0.104339
0.0579452
-0.103525
0.0244056
-0.0556002
0.0137556
0.0180277
-0.0974739
0.0794463
-0.00571288
0.102227
-0.245433
0.143206
0.093181
0.0304507
0.0195806
0.0405471
0.062648
-0.035493
0.0476345
-0.00409497
0.157501
-0.296698
0.139197
0.128849
-0.0729344
0.0460699
-0.0433667
0.109856
0.0423371
-0.114544
-0.103277
0.217821
0.224439
-0.119844
-0.104595
-0.0359082
-0.00656604
0.0424742
0.0672247
0.0546307
-0.00277035
-0.000755307
-0.121022
0.0714285
-0.00169176
0.00207092
-0.000379157
-0.010951
-0.043993
-0.169559
0.113232
-0.0147448
-0.0100225
0.00104755
-0.000935263
0.0770891
-0.0361489
0.235124
-0.138941
-0.0961827
0.0297137
-0.0692717
0.039558
0.0511501
-0.00640884
6.16637e-05
0.0599596
0.0374011
-0.0705033
-0.0093892
0.0798925
-0.0278036
-0.00436193
0.0321655
0.046112
0.0670963
-0.0456309
-0.0708815
0.116512
-0.132208
0.0460811
0.000321661
-0.00141254
0.193324
-0.0860548
-0.10727
0.0015595
-0.00084763
0.136849
-0.216617
0.0797677
-0.155059
0.246745
-0.0916866
0.166538
0.0964352
-0.0418259
-0.0416574
0.0834834
-0.220876
0.107061
0.113815
0.0187711
-0.00136109
-0.039651
-0.0123533
0.0520043
0.0132955
0.212232
0.00559537
-0.00403761
0.0651961
-0.149042
0.0838456
0.194323
0.0326506
-0.226974
-0.0927316
-0.137764
0.230496
-0.039873
-0.0878957
0.0608631
-0.0596992
-0.00116386
-0.0688208
0.0868485
-0.104407
0.0439463
0.0604609
-0.0556846
0.011385
-0.00205579
0.00354903
-0.00149324
-0.000260228
0.00285023
-0.00259
-0.181002
-0.111208
0.292211
-0.0560554
-0.0483517
-0.109301
0.203858
-0.0945565
0.146742
-0.076256
-0.0704864
0.0295006
0.0503067
-0.0798073
0.00389526
-0.00299753
-0.000897732
0.000318814
-0.00472556
0.00440674
-0.00683071
-0.031595
0.0384257
-0.0441138
0.00559181
-0.0808653
0.182126
-0.269969
0.100665
-0.035841
0.113322
0.0917554
-0.178192
-0.0304769
-0.044756
-0.153845
0.0074703
0.146375
0.253982
-0.115851
-0.138131
0.107572
0.040854
-0.20161
0.0973106
0.104299
0.0297366
-0.0970111
0.0672744
0.053929
-0.118066
0.0641372
-0.241636
0.180539
0.0610975
-0.0251809
0.0125421
0.0126388
-0.054296
-0.0632783
0.117574
-0.326118
0.198147
0.127971
-0.116321
-0.0852891
-0.0912258
-0.0870969
0.0398666
-0.0525871
0.0127205
-0.0286407
-0.000195876
0.0288366
0.0742012
-0.0402804
-0.0744201
0.0379486
0.0364715
-0.0290252
0.0328023
-0.00377713
0.000320901
0.00186434
-0.00218524
0.000312758
-0.00353938
0.0131143
0.000684968
-0.0137993
0.0564494
-0.125394
0.0689448
-0.130049
-0.131495
0.261545
0.000624253
0.00503346
-0.0213274
0.016294
0.215809
-0.128774
-0.0870348
-0.0360909
-0.100925
-0.123106
0.144871
-0.0593082
0.126905
-0.276527
0.149622
0.00830488
0.0056404
-0.0306953
-0.0179631
0.121287
0.0267003
-0.147988
0.0579319
-0.00220948
0.0683326
0.0920913
-0.160424
0.0844971
0.036312
-0.0117867
-0.0133942
0.0653491
-0.115426
0.0500771
0.1441
-0.0789038
-0.00173382
0.00108182
0.000652
0.100466
-0.222663
0.122197
-0.0420595
0.100742
-0.0586821
0.0446332
-0.0989237
0.0542905
0.0498842
-0.110423
-0.0580689
0.0193255
0.00929937
-0.0298332
0.0205338
-0.186403
0.0886923
-0.0750068
-0.166629
-0.0708927
-0.0768617
-0.0278165
0.0367427
-0.00892621
-0.0377598
0.0627946
-0.0250348
-0.0486664
-0.063994
0.11266
0.308101
-0.129853
-0.178247
-0.0354746
-0.0130302
0.0485048
-0.136511
-0.133458
-0.0829626
0.0260058
0.0569568
0.0266351
-0.18048
-0.213958
0.0572757
0.156682
-0.142805
0.0719123
0.214241
0.137482
0.14608
-0.0732057
-0.0728739
0.112743
0.190965
-0.111972
-0.0789931
-0.0633472
0.128689
-0.0653417
0.046467
-0.051451
0.00498395
0.144121
0.0446496
-0.188771
-0.00724259
0.0542519
-0.0470093
-0.0594777
-0.0605733
0.120051
-0.00474779
0.00510375
-0.000355964
-0.180018
0.0899252
0.0900923
0.0380648
-0.049928
0.0118632
-0.275399
0.169628
-0.0279083
-0.000732495
0.304507
-0.134112
0.0811314
0.0566347
-0.137766
0.0161765
-0.035006
0.03483
0.043182
-0.078012
-0.00536577
0.00777258
-0.0145746
0.0559153
0.0373055
-0.0614866
-0.00190511
0.0356148
0.059397
-0.0567806
-0.00261638
-0.202371
0.134138
0.068233
-0.0020245
0.000332742
-0.114102
0.0784148
0.0356867
0.0621151
-0.0128677
0.0121753
0.000692367
0.126735
-0.00544753
0.0546278
-0.00816072
0.00913303
0.0487989
-0.118251
0.0761911
0.0489524
0.00368979
0.0340327
0.0164998
-0.159005
0.0914511
-0.00760834
0.0334099
-0.0770855
0.23419
-0.157104
-0.0317046
-0.06435
-0.118472
-0.111035
-0.049614
0.114963
-0.0030748
0.044327
-0.0412522
-0.069607
-0.14435
-0.0730387
-0.0636327
-0.117036
0.276229
-0.159192
0.000879342
0.0490924
0.0451221
0.0351444
-0.0615509
-0.0538753
0.0460488
0.059319
-0.12053
0.0474916
0.184546
0.107934
-0.000125655
-0.0298136
-0.0559644
0.0131994
0.042765
-0.0151568
-0.0283639
0.0435207
0.0421503
0.0212621
-0.00108111
-0.000652704
-0.0477557
0.0472142
0.000541502
-0.0804008
0.139083
-0.0586825
-0.00467317
-7.46177e-05
-0.0826417
-0.0374396
-0.335298
0.186477
0.148821
0.000661106
0.0480334
-0.00996864
-0.0835898
-0.200648
0.284238
-0.0190897
-0.0260848
0.0451746
0.0238378
-0.0254581
0.00162027
0.0224482
0.0309546
-0.0534028
0.0635278
-0.150987
0.0874595
-0.00265082
0.00421677
-0.012453
-0.0464154
0.0287951
-0.00495731
0.0531758
-0.0956257
0.0424499
-0.114839
-0.0406536
0.155493
-0.0114545
0.00401177
0.00744275
0.0403892
-0.0195238
-0.0208654
-0.0379577
0.0429883
-0.00503061
-0.0356783
0.0921006
-0.0564223
0.171254
0.144614
-0.0650478
-0.0451907
0.0284766
0.0167141
0.0602226
-0.132622
0.0723998
-0.027973
-0.0172177
-0.0484182
0.0458815
-0.0769141
-0.0553874
0.0939849
-0.0385975
-0.00694788
0.00773066
-0.000782781
0.0262616
-0.0277542
0.0014926
0.0844489
-0.0147053
-0.0697436
0.00351897
-0.00341042
0.0318647
0.0570362
-0.0207393
-0.0362969
-0.00288171
0.000827516
0.116479
-0.165293
0.0488137
0.030495
-0.0254615
0.0537959
0.0549683
-0.144425
0.067876
0.076549
-0.0158588
0.0113299
0.00452887
-0.103927
0.0139462
0.0899803
0.0477417
0.00131551
-0.0490572
-0.0583003
0.045179
0.0131213
-0.0475658
-0.0729645
-0.113759
-0.0784811
-0.0579819
0.0403684
0.0176135
0.0226632
0.017726
0.141215
-0.046499
-0.168789
-0.00149329
0.170282
-0.00164951
0.000429644
0.00121987
0.284329
-0.290057
0.00572809
-0.0114803
-0.0263044
0.0377848
-0.0393078
0.0857335
-0.0439567
0.00599899
-0.102069
-0.100302
-0.0855139
-0.00604883
-0.00269296
-0.0622839
0.0653943
-0.00311044
-0.000506134
-0.0465358
0.047042
-0.00120869
0.00152959
-0.0653318
-0.0176308
0.00432689
-0.00400807
0.0437529
-0.0762313
0.0324785
-0.0381172
-0.0683773
-0.00112536
-0.000524149
0.078534
0.0682083
0.13937
0.0564932
0.0310211
0.0316269
-0.0381788
0.0509973
-0.0128185
-0.0595395
-0.0648287
-0.138479
0.00951826
0.12896
0.22824
-0.127774
-0.291959
0.107222
0.184737
-0.233241
0.156155
0.0469205
0.0138723
-0.00180256
0.00105393
0.000748637
-0.00111596
0.0270875
-0.0259715
0.289567
-0.174164
-0.115403
-0.0749716
0.000793015
0.0741786
-0.0571116
0.107534
-0.0504221
-0.000871509
0.0403155
-0.039444
-0.185901
-0.106058
0.00272417
0.000706111
-0.00343028
-0.00595307
0.000199005
0.00408122
-0.00465947
0.000578255
0.0218601
0.0351761
-0.0594665
0.0889504
-0.0294839
-0.10396
-0.0737957
0.177756
-0.000594433
0.164765
-0.0964325
-0.142443
0.0579283
-0.0637195
-0.0787237
0.172749
-0.0633455
-0.109403
0.0531295
-0.0730661
0.0199366
-0.023123
0.0863817
-0.0907652
-0.00220936
0.0929745
-0.113892
0.0863479
0.0275442
-0.246232
0.109063
0.128761
-0.0516978
-0.0770628
0.0189288
-0.187718
-0.0894733
0.21819
0.0484354
-0.0304878
-0.0179477
0.0681589
-0.0158285
0.170312
-0.0389319
0.132032
-0.0931004
-0.00546019
-0.000492882
-0.00491038
-0.00654413
0.0567084
-0.0884129
0.0235576
-0.0435452
0.0199876
-0.07957
0.040216
0.0480344
-0.0623286
0.0142942
0.0503641
0.0071411
0.208377
-0.119782
-0.0885957
-0.0891687
0.149283
-0.24816
0.0988771
-0.091218
0.183309
0.0806871
0.0708058
0.010816
-0.0386196
-0.127153
0.253598
-0.126445
-0.100531
-0.123223
0.223754
-0.137504
0.260838
-0.123334
0.163816
-0.252779
0.0889623
0.00478188
-0.000700665
-0.0230144
0.0603199
-0.200114
0.0919227
0.136596
-0.0623563
-0.0742396
0.0980155
-0.2705
-0.0380659
0.0753249
-0.037259
0.112099
-0.231436
0.119337
-0.0406016
-0.00601362
9.13219e-05
-0.0466496
0.214236
-0.0800981
0.0238292
-0.028393
0.00456386
-0.041781
-0.00107251
-0.00861805
-0.0451309
0.0537489
0.070408
-0.0407583
-0.00146239
0.00225673
-0.000794345
-5.74249e-05
0.000938521
-0.186981
0.0957556
-0.109633
-0.0513445
0.160978
0.0170848
-0.10785
0.0257096
0.0030855
0.06836
-0.0401637
-0.0281963
0.092423
-0.114523
0.0220999
-0.00295356
0.00187641
0.00107715
-0.0124545
-0.0342095
0.046664
0.154288
0.0739516
0.0872904
-0.177995
0.0907044
0.0999753
0.0287854
0.00985665
-0.0457648
0.00760754
-0.0798942
0.0722867
-0.313061
0.191115
0.121946
-0.225927
0.051689
-0.0896777
0.165274
-0.0755964
-0.0886043
0.180709
-0.0921043
-0.00520362
0.00494993
0.000253694
0.0156025
-0.0554369
-0.0853928
-0.0590322
-0.040271
-0.000479737
-0.0178018
0.307389
-0.150553
-0.156836
-0.163778
0.0784953
-0.0227452
-0.0779416
0.100687
0.110305
-0.0430556
-0.0672497
-0.00482778
-0.000896877
-0.0150741
0.0446943
-0.0296202
0.00349567
-0.000771497
-0.0220986
-0.0420328
0.0641314
-0.0384035
0.0608517
-0.0193956
-0.0448263
0.000137135
0.0446891
0.00569724
-0.00649235
0.000795113
0.06034
0.0309543
-0.0796487
0.0486945
0.0626508
-0.112265
0.0449764
0.0530781
0.00347432
-0.00276019
-0.000714134
0.0857591
-0.204227
0.118468
-0.000478719
0.0378885
-0.0464592
0.00857069
-0.148707
0.0085242
0.0153241
0.0480513
0.194592
-0.108833
0.00397201
0.000584951
-0.00455696
-0.0975437
0.0618654
-0.0420633
-0.00956672
0.05163
-0.0430489
0.00126793
0.0898278
-0.207093
0.117266
0.0162398
0.0046317
0.100547
0.0955056
-0.196052
-0.293264
0.176228
-0.00278799
0.0190278
-0.0477821
0.105771
-0.0579888
0.268676
-0.194022
-0.0746536
-0.00503315
0.000310255
0.00472289
0.00239079
-0.00184098
-0.153474
0.0994983
0.0539758
-0.0339325
0.0503034
-0.0163709
0.091071
-0.0659811
0.0722701
-0.0662057
-0.00606434
0.0916722
-0.130604
0.259135
-0.173345
-0.0857906
-0.000755505
0.00676598
-0.00601047
-0.00260383
0.00346719
-0.000863358
-0.0517507
0.0135719
-0.17562
0.154441
0.0211791
0.0938893
0.0560913
-0.00294603
0.0380684
-0.0351224
0.0707115
-0.00318906
-0.0675225
-0.281887
0.175846
0.106042
0.040745
-0.223766
0.183021
0.0615761
0.0177803
-0.0793564
0.102522
0.0792906
-0.181813
0.0660077
-0.042361
-0.0236467
-0.085292
0.0300364
0.0552556
0.000816813
-0.0152903
0.0657371
-0.0504467
-0.0973117
0.0629593
0.0343524
0.000901956
0.00565376
-0.00655572
-0.131353
-0.00712542
-0.0676108
-0.0677824
0.135393
0.0666568
0.0436485
0.0155926
0.0399322
0.0727058
-0.0114177
-0.0612881
-0.00584369
0.00606473
-0.000221039
-0.000121717
0.0237516
-0.0576833
0.0339318
0.0259055
-0.000195867
0.0491629
0.165073
-0.256958
0.0902315
0.166726
-0.0957508
0.0403634
-0.108247
-0.0404596
-0.105171
-0.117491
-0.0725374
-0.0284355
0.100973
-0.0431688
0.10582
-0.0441926
0.0251029
-0.133786
0.0714297
-0.0972828
0.0563432
0.0409396
-0.0478377
0.0473316
0.0868516
-0.0182247
-0.0686268
-0.00732124
0.00683539
0.000485849
-0.229075
0.134009
0.0950655
-0.0486139
0.276465
0.18901
-0.0864872
-0.313219
0.196324
0.116895
0.0913513
-0.0481341
-0.0432172
0.0730285
-0.154528
0.0814992
-0.085635
0.0151317
-0.00308711
0.0479923
-0.0449051
0.0520786
0.0118555
-0.0639341
-0.0108984
-0.00496036
-0.22199
0.07927
0.14272
0.0484488
-0.0180691
-0.0303798
-0.0455913
0.05623
-0.0106387
0.148734
0.0985002
-0.247235
-0.152826
-0.0227936
0.00831156
-0.0546366
0.046325
0.183076
-0.0957859
0.0812292
-0.14884
0.000401477
-0.00183798
-0.0117135
0.0637922
-0.040699
0.0602796
-0.000525879
0.00360365
-0.00307777
-0.0468729
-0.0114273
0.00521972
0.00029648
-0.0055162
0.0954652
-0.0368532
0.221008
-0.125427
-0.0955815
0.0608055
-0.0579827
-0.00282274
-0.122803
0.230729
-0.107926
-0.0467676
-0.00261312
-0.00501504
0.000187254
-0.172045
-0.0754563
0.247502
0.0303337
0.0156438
-0.0459775
0.110128
-0.125479
0.0153508
0.0576128
0.0145916
0.00526111
-0.00449731
-0.000763799
-0.200959
-0.112102
0.0485787
0.00256091
0.0130793
-0.0485539
-0.0492695
0.0636578
-0.0401929
-0.0163785
-0.0519985
0.00186123
0.0272232
0.0165121
-0.0437353
0.0353803
-0.0384551
-0.0673233
0.0850059
-0.0176826
-0.0351792
-0.0120752
0.0472544
-0.00422567
-0.0387088
0.0429345
-0.238693
0.0769602
0.161733
-0.249486
0.122334
0.0268393
0.0124776
-0.0393169
0.0268196
-0.00299041
0.250825
-0.129686
-0.121139
-0.0630014
0.107978
-0.00637608
0.000532387
0.0602183
-0.0164331
-0.0437851
0.0595334
0.0521657
-0.111699
0.0133362
-0.000221858
0.109233
0.177536
0.0879478
-0.0347719
-0.0158879
0.00317439
0.0127135
-0.00218099
0.000718603
-0.00150041
0.000291714
0.0815468
0.212093
0.0692559
-0.093425
0.205022
-0.111597
-0.124305
0.0416637
0.139401
-0.054981
0.0137826
-0.0543999
0.0406172
-0.00189343
-0.00505646
0.00694989
0.0692303
0.00148128
-0.00449264
0.0515253
-0.0470327
-0.0609053
0.0870544
-0.0261492
0.0245896
0.000685029
-0.0252746
-0.215963
0.118944
0.125539
-0.194742
0.0692032
0.0706729
0.00550147
-0.0761744
0.118994
0.00176206
-0.000680244
-0.00441449
0.00536582
-0.000951325
-0.0400813
0.0617734
-0.0216922
-0.0509105
0.0184424
0.0324681
0.170073
-0.053953
-0.11612
-0.0565552
0.0109639
0.345145
-0.130903
-0.0668452
0.140858
-0.109389
0.0255486
-0.0790289
0.0182077
0.0831806
-0.0755731
0.0257929
0.0455187
-0.00763021
0.30885
-0.220165
-0.0886847
0.000251719
0.0403261
-0.0405778
0.0982061
-0.0382464
-0.119468
-0.102521
-0.00123031
-0.00303287
0.0409807
-0.101322
0.0603417
-0.0753853
0.0345717
0.011947
-0.0121493
0.000202384
0.0548573
-0.0465457
-0.137087
-0.112074
0.249161
0.0077373
-0.019524
0.0280588