/*--------------------------------*- C++ -*----------------------------------*\
| =========                 |                                                 |
| \\      /  F ield         | OpenFOAM: The Open Source CFD Toolbox           |
|  \\    /   O peration     | Version:  v2012                                 |
|   \\  /    A nd           | Website:  www.openfoam.com                      |
|    \\/     M anipulation  |                                                 |
\*---------------------------------------------------------------------------*/
FoamFile
{
    version     2.0;
    format      ascii;
    class       volVectorField;
    location    "300";
    object      U_0;
}
// * * * * * * * * * * * * * * * * * * * * * * * * * * * * * * * * * * * * * //

dimensions      [0 1 -1 0 0 0 0];


internalField   nonuniform List<vector> 
53008
(
(1.0973 -0.0477027 -1.40376e-20)
(1.27712 -0.0195521 3.37104e-20)
(0.964208 -0.0689644 -8.69176e-21)
(1.17737 -0.344176 2.21947e-20)
(0.0128008 -0.0281289 3.76451e-20)
(-0.131857 0.0157586 -5.21799e-21)
(1.11099 -0.197126 5.02451e-21)
(1.09647 -0.0464714 1.51222e-20)
(1.01489 -0.175528 3.08375e-22)
(0.987359 -0.0527057 -7.63229e-22)
(1.1317 0.0501778 3.51979e-21)
(1.08688 -0.257024 -1.31148e-20)
(0.449567 0.0447479 -3.92749e-21)
(1.01245 0.0895446 3.46099e-21)
(0.98813 -0.0468877 0)
(1.03138 -0.0136235 3.48797e-21)
(1.08188 -0.0110099 -7.87178e-21)
(1.03163 -0.0139639 -5.79614e-21)
(0.447894 0.0559822 0)
(1.07873 0.00695392 7.84801e-21)
(1.07516 -0.0171575 6.55039e-21)
(0.850815 -0.198543 -6.42538e-21)
(1.00173 -0.00948601 -1.48665e-21)
(1.10743 -0.195176 0)
(1.07034 -0.0194376 -5.64227e-21)
(1.20032 -0.424896 -1.59223e-20)
(1.02581 0.0901917 0)
(1.13854 -0.0399674 -2.27797e-21)
(1.15197 0.0806506 -1.16048e-20)
(1.17051 0.0672818 -3.27063e-20)
(1.08371 0.0715319 -6.86614e-21)
(0.998741 0.0766314 0)
(-0.0332665 0.0160696 0)
(1.03754 -0.0544622 4.04648e-21)
(1.00296 -0.00168046 -4.43234e-22)
(0.951125 -0.157634 -5.13027e-21)
(1.01795 -0.0934327 -4.30646e-23)
(1.00003 -0.000124401 -1.00185e-22)
(1.13157 -0.187706 -8.0949e-21)
(1.04299 -0.0593628 0)
(1.01852 -0.091698 4.12583e-22)
(0.780928 0.0762555 -1.88929e-20)
(1.12852 0.0519904 -1.30138e-20)
(0.187915 0.0455872 0)
(1.07929 0.00753666 -4.07871e-21)
(1.03894 -0.0161989 -2.96482e-21)
(1.03878 -0.00723846 -5.5225e-21)
(1.06512 0.00047963 4.39891e-21)
(1.16819 0.0482669 1.17654e-20)
(1.00634 -0.0106194 -1.934e-22)
(1.01817 -4.09628e-05 0)
(0.885816 -0.0622697 -2.24813e-20)
(1.08859 -0.0298415 -1.66816e-20)
(0.999999 -0.00948359 -2.10408e-21)
(1.1016 0.0377962 0)
(0.424255 0.0540858 3.28283e-21)
(1.0785 0.00559564 0)
(1.00427 -0.00792139 5.39955e-22)
(1.11242 0.0849319 -4.41692e-21)
(1.11469 0.0225367 -1.72358e-20)
(1.05056 -0.0364142 -6.5986e-21)
(1.0643 -0.102898 8.73599e-21)
(0.681657 -0.0393793 6.00171e-20)
(0.274214 0.0152076 -1.24709e-20)
(1.07791 -0.404713 6.45134e-21)
(0.998533 -0.0259067 2.43316e-21)
(1.17051 0.0661354 3.93324e-20)
(1.0382 -0.00725171 2.25415e-21)
(1.01238 -0.000774409 -1.02181e-21)
(1.03656 -0.0190438 -2.45565e-21)
(0.380366 -0.127086 3.37507e-20)
(1.01597 -0.00329007 1.16031e-21)
(0.968466 -0.0148226 0)
(-0.0193264 0.0186444 0)
(1.19839 -0.43291 4.75635e-21)
(1.00288 -0.000288033 0)
(0.999984 -0.000666762 0)
(-0.123886 0.0165106 -9.62269e-21)
(1.02911 -0.0113271 0)
(0.259932 -0.0945648 0)
(-0.131206 0.0156215 3.95847e-21)
(0.58281 0.0556159 0)
(1.11077 0.0675147 -5.45849e-21)
(1.15456 -0.377205 1.77474e-20)
(1.08871 -0.129269 -1.09879e-20)
(1.03678 -0.0195127 -2.51633e-21)
(0.835686 -0.351812 -2.24399e-20)
(1.01383 -0.173186 0)
(0.998589 -0.0263218 -5.26698e-21)
(1.09441 0.0322902 9.60334e-21)
(0.183527 -0.067852 -8.91437e-21)
(0.0753406 0.0274993 -3.97684e-20)
(0.582935 0.0564615 0)
(1.18129 -0.0135871 1.48059e-20)
(0.827934 0.0370137 -2.83476e-20)
(1.12058 0.0607001 -2.15067e-20)
(0.584988 0.0730617 3.06811e-21)
(0.964769 -0.0675345 7.94781e-21)
(1.01728 -0.0250871 -3.52405e-20)
(0.734133 -0.0496011 -4.17918e-20)
(1.0791 0.00620047 0)
(1.04304 -0.0583818 -2.63318e-21)
(1.18519 0.0137734 -1.39005e-22)
(1.13834 -0.0384054 2.02383e-21)
(1.1003 -0.0461788 0)
(0.110862 0.00579143 1.28069e-20)
(-0.0748895 -0.000386216 -2.823e-20)
(0.950298 -0.155249 -9.5664e-21)
(1.14342 0.0423634 -9.78425e-21)
(1.01606 -0.00312495 -1.28739e-21)
(1.21466 -0.259536 -5.48442e-21)
(1.08931 -0.286513 0)
(0.999984 -0.000623023 0)
(0.770048 0.0385785 -2.48312e-20)
(0.717881 0.0807897 0)
(1.01655 -9.68785e-05 2.03689e-21)
(1.07722 -0.00675498 -7.74882e-21)
(1.02034 -0.0102626 -1.42836e-21)
(1.06794 0.0715548 0)
(0.147011 -0.0611549 -6.83392e-20)
(0.0233959 -0.0294076 3.22936e-20)
(0.969278 -0.0146248 -4.41898e-21)
(1.02598 -0.0651887 1.22342e-21)
(0.789733 -0.995716 -4.38911e-20)
(-0.122854 0.017 -9.53883e-21)
(0.98671 -0.0143276 -6.71973e-21)
(0.163502 -0.0709465 3.41037e-20)
(1.16126 0.0612166 -4.7236e-20)
(1.10806 0.0148993 1.41703e-20)
(0.986605 -0.0379441 6.73957e-21)
(1.02512 0.0771166 0)
(1.02487 -0.0387191 -5.39244e-22)
(1.14781 -0.382655 -2.44747e-20)
(1.06765 -0.0561659 2.79156e-21)
(1.02214 -0.00966976 -1.00186e-21)
(1.1131 0.08452 2.29039e-21)
(0.997907 -0.00264908 -4.79836e-21)
(0.451086 0.0435543 0)
(1.01206 -0.0326873 4.61949e-22)
(1.01756 -0.0254008 6.17934e-22)
(1.02875 -0.0145759 0)
(1.01685 -0.0248334 0)
(1.09016 -0.139464 8.08742e-21)
(1.12067 0.0860641 -3.27411e-21)
(1.10876 0.0156937 -1.04007e-20)
(0.978508 -0.0713774 8.58226e-21)
(1.07634 -0.00663257 9.67377e-21)
(1.00333 -0.00716037 5.84864e-22)
(1.0357 4.67066e-06 2.20608e-21)
(1.04542 -0.0435212 2.3844e-21)
(1.00033 -0.00328767 1.02931e-21)
(0.688345 -0.0424888 0)
(-0.0141654 -0.0252948 -3.98384e-20)
(0.852951 -0.203639 -1.41453e-20)
(1.00958 -0.0100856 0)
(1.08757 -0.0298994 5.66145e-21)
(0.769608 0.0843583 -3.24496e-21)
(0.233849 0.053109 -1.0496e-20)
(1.05916 -0.0462918 8.85892e-21)
(1.28435 -0.185787 0)
(1.17565 -0.0812067 1.80847e-20)
(1.00611 -0.0104449 -5.75864e-22)
(1.00997 -0.0113871 1.00853e-22)
(0.0871047 0.0296416 3.77564e-20)
(1.07102 -0.0333929 -6.23691e-21)
(1.00001 -0.000114173 -1.93053e-23)
(1.00744 -0.0234073 0)
(1.07766 -0.0838187 -1.25076e-20)
(1.00502 -0.0110972 0)
(0.946454 -0.0338488 9.21645e-21)
(1.09487 -0.083314 1.24176e-20)
(0.556943 0.0637469 2.21659e-21)
(0.721733 0.0336516 8.41874e-21)
(1.00547 -0.0167748 0)
(0.8405 -0.983155 4.73176e-20)
(1.03252 -0.0164922 2.7302e-21)
(1.09062 -0.128413 0)
(1.12005 0.0597396 5.96926e-21)
(0.836218 -0.344022 1.45473e-20)
(1.03568 -0.197518 2.68218e-21)
(1.02638 -0.0644025 -1.0103e-21)
(1.07025 -0.0327094 5.34965e-21)
(0.192656 0.0460286 2.70841e-20)
(0.989919 -0.0540161 1.00976e-20)
(1.08732 -0.252785 0)
(0.28442 0.0173494 0)
(0.653114 -0.0296004 -9.9357e-21)
(0.711332 0.033148 -3.43105e-20)
(-0.0856195 -0.00486678 0)
(1.00331 -0.00705168 0)
(0.969926 -0.24217 -7.26391e-21)
(1.03062 -0.0538282 0)
(0.93147 -0.396126 4.35975e-22)
(0.101268 -0.0509634 8.94413e-20)
(0.995093 -0.023183 0)
(1.05794 0.0062139 -4.06869e-21)
(1.09527 -0.0708349 1.53045e-20)
(1.00075 -0.0127292 0)
(1.00086 -0.00453612 0)
(0.904667 -0.0423489 2.35214e-20)
(1.18675 -0.0551661 0)
(1.02577 -0.0439363 2.2176e-21)
(1.09999 -0.0322857 1.20019e-22)
(1.01354 -0.032478 1.70738e-23)
(1.14059 0.0580846 0)
(0.0753407 0.0199344 2.01529e-20)
(1.08071 -0.00885602 -8.41656e-21)
(1.00107 -0.00527093 9.16036e-22)
(1.14805 -0.0934952 6.5448e-21)
(1.02128 -0.0105733 2.71614e-21)
(-0.0543575 -0.000727056 -2.55735e-20)
(1.04423 -0.057069 -3.27663e-21)
(1.18385 0.0690241 -2.95645e-20)
(0.959794 -0.067998 2.12363e-21)
(1.14315 0.0414374 0)
(0.985826 -0.00455477 3.45073e-21)
(0.99751 -0.0031571 4.62011e-21)
(1.00185 -0.00953227 1.39283e-21)
(1.17455 -0.107522 -1.96971e-20)
(0.990944 -0.0279754 0)
(1.12958 0.0760127 1.20339e-21)
(1.027 -0.00630965 2.41425e-21)
(1.11315 0.0657381 2.88864e-20)
(1.02708 -0.00614771 -7.40799e-24)
(1.06638 -0.0461751 4.61177e-21)
(1.10702 0.0583621 1.07764e-20)
(1.01467 -0.0703064 0)
(1.10863 -0.167403 -2.42467e-21)
(1.06348 -0.139763 -6.77058e-21)
(1.02911 -0.0144838 0)
(0.189753 0.0202125 0)
(0.799499 0.0838855 0)
(1.03219 -0.00136346 -6.30895e-21)
(0.699629 0.0714186 0)
(1.17715 -0.0290539 0)
(0.109004 0.00580022 -5.44559e-20)
(1.05961 2.91494e-05 8.31294e-21)
(1.02243 -0.00985547 0)
(-0.185858 -0.0130337 0)
(1.03231 -0.0127901 -2.19322e-21)
(1.0246 -0.0380391 1.11784e-21)
(1.03773 -0.0534631 -6.98136e-21)
(1.2313 0.0169803 1.15552e-20)
(1.04612 -0.0440746 0)
(1.10119 -0.0290363 0)
(1.00003 -0.000774223 -8.94658e-22)
(1.21764 -0.16522 2.99854e-20)
(1.12855 0.0755351 0)
(0.992116 -0.0056017 -2.30396e-21)
(1.11363 0.0222534 0)
(1.06736 -0.0271015 5.13073e-21)
(0.970234 -0.0423973 5.77469e-21)
(1.01281 -0.034212 -8.06547e-22)
(0.907107 -0.0416234 0)
(1.04388 -0.0431939 0)
(0.675255 -0.0354221 -9.28834e-21)
(1.12013 0.0853472 -1.12721e-20)
(1.05002 -0.017078 5.52699e-21)
(1.17473 -0.109717 0)
(1.07944 0.00347245 0)
(1.19458 -0.488642 0)
(1.11404 0.0850799 -1.28222e-20)
(1.07611 -0.0835302 1.07733e-20)
(1.017 -6.89966e-05 2.76004e-21)
(0.99905 -0.019185 1.89085e-23)
(1.03143 0.0901727 1.73194e-21)
(0.506673 0.0708629 1.07639e-20)
(1.00216 -0.0109021 -3.74798e-21)
(0.607352 -0.025631 0)
(1.1132 0.0667726 -1.44442e-20)
(1.03326 0.000462796 -1.88222e-21)
(1.06655 -0.0557763 -7.4601e-21)
(0.985227 -0.0362766 -1.24308e-20)
(1.23008 0.01831 -3.35261e-20)
(0.0750621 0.0239197 0)
(1.02324 -0.00253753 3.61869e-21)
(1.13952 0.0578328 2.32218e-21)
(0.22519 0.0464145 1.5478e-20)
(1.10163 0.0340863 1.10024e-20)
(1.05232 0.00274929 -8.21117e-21)
(1.00171 -0.00969056 0)
(1.00003 -0.000145451 0)
(1.10239 0.0337463 6.54913e-21)
(1.0953 -0.238088 5.63242e-22)
(0.97306 -0.0737755 1.70683e-21)
(1.12955 -0.189913 1.80488e-20)
(1.1354 -0.0582143 9.29515e-21)
(-0.210753 -0.00623566 0)
(1.096 -0.242684 -1.32199e-20)
(0.990449 -0.0530751 -3.3556e-21)
(1.31055 -0.191011 -5.24216e-21)
(0.387836 0.0555839 -1.48413e-21)
(1.19442 -0.105182 1.03525e-20)
(0.76099 0.0766989 -8.15639e-21)
(0.856883 -0.346279 -1.46427e-20)
(1.00304 -0.000306671 0)
(1.14215 -0.0222641 1.89442e-20)
(1.11795 0.0633606 -3.90021e-21)
(0.625259 -0.0293076 0)
(1.06474 -0.0010269 4.41064e-21)
(1.19535 -0.107594 0)
(-0.0866652 -0.00591228 0)
(0.0281664 0.032437 0)
(0.0816415 0.0219344 -1.91272e-20)
(1.00005 -0.00190999 0)
(1.27265 -0.0203934 -1.65421e-20)
(0.976608 -0.050594 -3.01589e-21)
(1.04949 -0.0167806 -5.6953e-21)
(1.01749 -0.000103749 -3.05892e-21)
(1.17928 -0.132633 4.15836e-20)
(0.196398 0.0218406 1.71342e-21)
(1.18426 0.0645605 0)
(1.02393 0.0901833 6.15511e-21)
(0.0598439 0.0233708 -3.1207e-21)
(1.1529 0.0309412 -1.48404e-20)
(1.14593 -0.0940883 0)
(1 -5.75404e-06 0)
(0.999056 -0.00680475 -1.42804e-21)
(1.02321 -0.0026788 1.82641e-21)
(1.13825 -0.0250774 1.26106e-20)
(1.11832 0.0628227 0)
(0.759047 0.0727707 1.95391e-20)
(1.02822 -0.134405 2.98521e-21)
(0.0680129 0.0250715 1.64781e-22)
(1.3078 -0.186326 -1.85498e-20)
(0.969954 -0.0152328 8.98848e-21)
(0.771639 0.0853465 3.65694e-21)
(1.09218 -0.000915563 0)
(1.00934 -0.0100703 0)
(1.09991 -0.0813742 9.34147e-21)
(0.126972 0.0316019 0)
(0.995126 -0.0227651 -3.07528e-21)
(1.00004 -0.000184592 0)
(1.0177 -0.0591232 0)
(1.01665 -0.0106744 9.27039e-22)
(1.02657 -0.00683547 -2.34469e-21)
(0.935503 -0.388856 -1.25491e-21)
(1.0193 1.1834e-05 -2.22153e-21)
(0.597067 0.0738775 -2.97649e-21)
(0.96791 -0.0610714 3.46515e-21)
(1.00003 -0.000183165 0)
(1.00465 -0.0109479 -3.77814e-22)
(1.17501 -0.0795949 0)
(1.02878 -0.0400677 3.36831e-21)
(0.987505 -0.0475736 -8.72763e-22)
(1.0523 0.0898354 3.14039e-21)
(1.11354 -0.196229 1.74918e-20)
(-0.125726 0.0173706 0)
(1.11474 0.0845861 1.95596e-20)
(-0.00673905 0.0254982 1.97173e-20)
(1.22543 -0.00888074 2.03071e-20)
(0.0428464 0.0242992 2.88854e-21)
(1.05908 -0.000398257 0)
(0.995234 -0.00674346 0)
(-0.152967 -0.0205098 -2.62565e-20)
(0.572324 0.0486822 8.05514e-21)
(0.997359 -0.0172015 -2.67092e-21)
(1.00171 -0.0264471 -1.64177e-21)
(1.17589 -0.482607 0)
(0.5129 0.0703647 2.05882e-20)
(0.976826 -0.00943235 8.39504e-22)
(1.13693 -0.0584882 1.33307e-20)
(1.04693 -0.0261023 -5.4564e-21)
(-0.104102 -0.0282008 -8.97476e-20)
(1.18117 -0.092373 1.0695e-21)
(0.404001 0.0466427 0)
(1.02257 -0.00277188 -1.55294e-21)
(1.11261 0.00514728 -1.34877e-21)
(1.06345 -0.0863823 4.29369e-21)
(0.993775 -0.0777271 0)
(0.635428 -0.0252539 -8.0832e-20)
(1.07143 0.0158851 -6.75943e-21)
(0.841862 -0.320414 0)
(1.12761 0.0763469 -2.16821e-20)
(1.18209 -0.0906669 -1.32203e-21)
(1.08154 -0.00836877 2.20856e-21)
(1.13375 0.00786189 -2.29749e-21)
(0.821074 -0.432022 -9.49719e-21)
(1.04494 0.0891728 0)
(0.109667 0.0297197 0)
(1.01164 -0.000335199 -1.01069e-21)
(1.01227 -0.0703869 4.38285e-23)
(1.10577 -0.0905567 1.05472e-20)
(1.08009 0.00414055 -1.14582e-21)
(0.558539 0.0708016 -3.66059e-20)
(1.01262 -0.0129317 0)
(1.07531 -0.016401 6.9249e-21)
(0.399175 0.056803 2.64554e-21)
(0.997314 -0.0175935 8.31097e-23)
(0.706247 0.0747383 -9.10278e-21)
(0.213637 0.0449698 -2.34478e-20)
(1.00461 -0.00268329 0)
(1.01099 -0.0707727 -8.21822e-22)
(1.05866 -0.0718371 0)
(1.02084 -0.069517 -2.01225e-22)
(1.02821 -0.0899676 0)
(1.01779 -0.0258906 -6.27486e-22)
(1.17702 -0.0271958 0)
(0.93384 -0.225517 -1.46793e-20)
(0.038211 0.034546 0)
(1.02648 -0.133315 -1.54213e-21)
(1.09125 -0.000875702 1.27386e-20)
(1.06963 -0.0189961 0)
(-0.110665 0.0190314 -3.97917e-20)
(1.00495 -0.0112265 -5.96591e-22)
(0.999986 -0.00921242 0)
(0.981655 -0.241329 0)
(1.06769 -0.0465341 -6.05108e-21)
(1.02822 -0.0398002 -2.88998e-21)
(1.10129 -0.0323488 -7.99213e-21)
(1.02249 -0.00289764 1.66173e-23)
(1.09485 0.0654721 -1.04753e-20)
(1.0145 -0.000703763 -3.36299e-22)
(1.06619 -0.000780275 -7.58942e-21)
(1.04774 -0.0442651 3.16585e-21)
(0.133601 -0.0583318 0)
(1.00107 -0.00490858 -7.82291e-22)
(-0.0888516 -0.0312724 6.27822e-20)
(1.06676 -0.00608722 4.88733e-21)
(0.999933 -0.0152095 -3.1453e-21)
(1.01231 -0.00796658 -1.03024e-21)
(0.983226 -0.0366583 -7.0315e-21)
(1.0377 -0.194533 -9.3111e-21)
(1.06513 -0.050196 -5.93788e-21)
(1.12291 0.0765892 4.63942e-21)
(1.00028 -0.00308008 0)
(1.07303 0.0141154 -4.78657e-21)
(1.07716 0.00919637 0)
(1.22394 -0.00766502 -8.99853e-21)
(1.02292 -0.00268282 0)
(1.08353 0.0719633 1.08286e-23)
(-0.0673022 0.0171809 2.14762e-20)
(1.09241 0.0800386 -1.99047e-21)
(1.00478 -0.0110939 -1.4718e-23)
(1.18878 0.0275245 -2.69104e-20)
(1.06783 -0.106831 2.77226e-21)
(-0.21076 -0.00760854 -5.87663e-20)
(1.12244 -0.138598 1.3424e-20)
(0.592826 -0.0219306 9.18085e-20)
(1.12104 -0.136513 9.7151e-21)
(1.00215 -0.0106592 3.08925e-21)
(1.19361 -0.198719 0)
(1.07913 -0.396935 6.65829e-21)
(1.12985 0.0137098 0)
(1.01703 -0.0252813 -3.05923e-22)
(1.17553 -0.0756355 -1.83902e-20)
(-0.0969011 -0.0252725 -3.70135e-20)
(1.09395 0.0798939 1.02526e-21)
(0.977112 -0.0720254 -1.91991e-20)
(0.701115 -0.666985 6.0454e-21)
(0.246373 0.0491076 -1.45675e-20)
(1.02483 -0.0896069 1.37166e-21)
(0.056467 0.0266192 -2.84813e-21)
(1.09095 -0.141312 0)
(1.06694 -0.00671946 1.00549e-20)
(1.1959 0.0226097 -3.24269e-21)
(0.945211 -0.0364074 0)
(1.03939 -0.0090107 5.9283e-21)
(1.01605 -0.000143765 0)
(1.00116 -0.00584094 1.28977e-21)
(1.15015 0.0791142 -1.14145e-20)
(0.0963452 -0.0366414 -5.64993e-20)
(1.02286 -0.00280668 -1.66562e-23)
(1.0725 0.0143051 4.81129e-21)
(1.12671 0.0759323 2.35655e-20)
(1.1138 -0.0745671 -1.1447e-20)
(1.0265 -0.0439563 -7.27695e-22)
(-0.204585 -0.00754715 6.35641e-20)
(0.995938 -0.0131397 9.60332e-22)
(0.983923 -0.0389783 -3.70811e-21)
(1.14769 -0.207134 -1.95145e-20)
(1.06207 -0.0869852 -1.00971e-20)
(1.13676 -0.0374061 2.01961e-21)
(0.422202 0.0488267 0)
(1.22501 -0.35425 -8.6195e-20)
(1.14051 0.0442721 1.47926e-20)
(1.02192 -0.0699048 2.08801e-22)
(1.04709 -0.0437046 -6.43571e-21)
(1.12722 -0.26104 -2.28418e-20)
(0.438463 0.0640583 0)
(1.2248 -0.0100585 0)
(1.09086 0.0687535 1.38708e-20)
(1.06357 -0.0665214 0)
(1.07194 0.0155751 -8.66833e-21)
(1.09871 0.0590985 0)
(1.01237 -0.00777251 1.53156e-24)
(1.0799 -0.0135829 -9.1807e-21)
(1.05854 -0.0704871 -8.57463e-21)
(1.15585 0.0276844 7.63941e-21)
(1.08101 -0.116244 1.25704e-20)
(0.986515 -0.0852894 -2.72675e-21)
(1.04023 -0.0295916 -1.66736e-21)
(-0.0347081 0.0213356 0)
(0.999869 -0.00158204 3.42533e-21)
(1.00191 -0.0259796 0)
(1.10746 0.0659884 -1.31017e-20)
(1.00002 -0.000507725 1.74684e-21)
(0.00278996 0.0311713 -1.64623e-20)
(1.06577 -0.139744 -5.13009e-21)
(0.999994 -0.000375837 -1.37049e-21)
(1.13974 -0.0259901 -1.87233e-20)
(1.0652 -7.46027e-05 -1.08011e-20)
(0.720063 0.0728172 0)
(1.2307 -0.144606 -7.26197e-20)
(1.00457 -0.00832814 -8.0503e-22)
(0.892586 -0.342626 -9.77977e-21)
(1.10689 0.0665255 1.60059e-20)
(1.14487 -0.0204816 0)
(1.11314 -0.0760897 6.75461e-21)
(1.13275 0.00743533 2.35213e-21)
(0.089548 0.0274951 -4.42626e-21)
(1.13901 -0.199576 8.54651e-21)
(1.00002 -0.00603436 8.86087e-22)
(1.00303 -0.00890134 -9.88299e-22)
(1.23 -0.148254 -7.71492e-20)
(0.387456 0.054847 0)
(1.08678 -0.00223252 0)
(0.991482 -0.0532684 -3.25211e-21)
(0.972772 -0.0128157 -2.6808e-22)
(-0.197283 0.000880803 1.58261e-22)
(0.968122 -0.024395 -1.12534e-20)
(-0.11701 -0.0182472 0)
(0.999091 -0.00660584 0)
(1.15026 -0.072703 -2.47494e-20)
(1.10611 -0.0924476 -1.2644e-20)
(-0.175233 -0.0154877 0)
(1.11999 0.0346229 0)
(1.06496 -0.104692 -4.57368e-21)
(1.15868 -0.0660639 -3.42501e-20)
(1 -0.000296886 1.298e-21)
(1.17146 0.0654738 8.65948e-21)
(1.03612 0.000118477 -2.70411e-21)
(1.01016 -0.00769066 -6.60532e-22)
(0.310997 0.0584128 -1.48196e-20)
(1.01271 -0.0336217 8.93596e-22)
(1.05847 0.00644589 0)
(1.13343 0.00495811 1.04104e-20)
(1.09064 0.00551512 1.12394e-20)
(1.02423 -0.0180292 -3.5164e-21)
(1.00099 -0.016423 9.61725e-23)
(1.0286 -0.261962 0)
(-0.0350719 0.027447 0)
(1.1361 -0.155869 -1.2928e-20)
(1.10191 0.00351994 0)
(0.753436 0.0768197 4.29376e-21)
(1.0765 0.009068 -4.26953e-21)
(1.22949 -0.142139 7.15457e-20)
(1.03256 -0.0131045 -2.9112e-23)
(1.00086 -0.0166715 0)
(1.17532 -0.0702161 1.81103e-20)
(0.095124 0.0393382 0)
(1.15071 0.0765346 0)
(0.977028 -0.0387032 0)
(0.640175 0.0510891 2.80013e-20)
(1.07214 -0.056245 -7.85413e-21)
(1.0122 -0.000665779 0)
(0.225228 0.052523 1.06607e-20)
(1.02718 -0.0909413 0)
(1.01114 -0.0392488 1.3198e-21)
(1.05048 -0.0425804 -3.2827e-21)
(1.1357 -0.0284498 -8.46736e-21)
(0.457379 0.0652231 -5.98201e-21)
(1.14324 -0.0099683 0)
(1.1816 -0.012003 -1.95411e-20)
(1.07169 0.016675 7.76228e-21)
(1.10104 0.00290546 0)
(1.09932 0.0593709 -2.44389e-21)
(0.967187 -0.0217895 5.70416e-21)
(0.947805 -0.034782 -1.49542e-20)
(1.14175 -0.00978809 -1.95845e-20)
(1.05546 -0.10056 3.63531e-21)
(1.20629 -0.0860651 -7.82825e-20)
(1.11549 0.0649369 0)
(1.10729 -0.165029 -7.91843e-21)
(1.0802 -0.0129554 8.86423e-21)
(1.02954 -0.0114679 -1.85594e-21)
(1.08611 -0.0027178 0)
(1.13253 0.00554485 -9.18643e-21)
(1.18989 -0.198933 0)
(0.983077 -0.045496 -4.92358e-21)
(1.02581 -0.0905901 -1.71135e-21)
(1.01826 -0.00694346 0)
(1.07118 0.0169597 8.61043e-21)
(1.09936 -0.235271 3.72617e-21)
(1.22817 0.0175556 -2.52135e-20)
(1.24101 -0.0101111 0)
(1.00207 -0.00246739 0)
(1.06022 -0.0468341 -1.01513e-20)
(1.12284 0.0753712 -1.33998e-20)
(1.01845 -0.0595809 0)
(0.997533 -0.00706051 3.2533e-21)
(0.996368 -0.0123772 -3.94816e-21)
(0.78805 -0.160155 0)
(1.08135 -0.00747515 -2.2285e-21)
(-0.097001 -0.0273089 -3.82494e-20)
(0.985934 -0.0375833 8.90199e-22)
(0.0732795 0.024311 0)
(1.21981 -0.356912 3.27489e-20)
(1.00011 -0.0151014 0)
(0.567461 0.0709472 3.02405e-20)
(-0.0259772 0.0281257 0)
(1.11908 0.0341665 -1.55614e-20)
(0.995644 -0.00660543 0)
(1.1494 0.0234018 1.30678e-20)
(1.09059 0.0683557 -9.83661e-21)
(0.399012 0.0557425 2.60672e-21)
(1.10083 -0.0451097 0)
(1.04764 -0.1427 7.43569e-21)
(0.695415 -0.268609 2.23595e-20)
(0.967402 -0.0625729 3.528e-21)
(0.972374 -0.0376474 -9.60424e-21)
(0.977877 -0.0382631 0)
(0.0231541 0.0330556 -3.07071e-20)
(1.03707 -0.0166019 2.62906e-21)
(-0.0482495 0.0188739 0)
(0.996368 -0.0133292 5.67886e-21)
(1.02624 -0.00430307 2.23598e-21)
(1.01021 -0.0114316 -6.016e-23)
(1.0883 0.0344949 8.16554e-21)
(1.03256 -0.000928139 0)
(0.538712 0.0490115 0)
(1.25927 -0.405824 0)
(0.999973 -0.00617452 -1.32689e-21)
(-0.211338 0.000595694 0)
(1.04479 -0.0355655 -1.05888e-21)
(1.027 -0.00524372 0)
(1.02416 -0.00767564 -1.86666e-21)
(0.970795 -0.0148887 -9.81061e-21)
(1.1017 0.0591394 -1.14744e-20)
(0.983934 -0.0456012 1.098e-21)
(1.08971 0.0202949 -9.27178e-21)
(1.22754 -0.148821 7.00607e-20)
(0.0812622 -0.0506887 6.78609e-20)
(-0.123969 0.00555969 0)
(1.00002 -5.11204e-05 0)
(1.09014 0.019932 -8.17266e-21)
(1.0336 -0.0157001 0)
(1.07468 -0.0197105 0)
(1.09456 0.0304019 -1.0175e-20)
(-0.121118 0.0166571 3.32777e-20)
(-0.214306 -0.00279017 3.96126e-20)
(1.06656 0.0780917 7.48099e-21)
(1.24829 -0.0953149 7.82641e-20)
(1.02427 -0.0176371 4.32656e-21)
(1.02688 -0.000146333 -1.72981e-21)
(0.984637 -0.0367689 7.77232e-21)
(1.03836 -0.0160587 3.66044e-23)
(1.15388 0.0300603 1.43083e-20)
(0.985931 -0.00636232 2.72717e-21)
(0.99472 -0.0058983 0)
(0.972023 -0.0130192 2.49499e-22)
(1.03205 -0.00602135 7.95223e-21)
(1.07836 0.00865391 -4.36337e-21)
(1.07153 0.00757468 0)
(1.0151 -0.0222071 -4.58227e-22)
(0.636115 0.0723509 1.11921e-20)
(0.990327 -0.0483632 0)
(0.999479 -0.00225026 -4.54597e-22)
(1.03196 -0.00632251 -1.84559e-21)
(0.987043 -0.0139395 -5.77933e-21)
(1.17026 0.051935 -3.07389e-20)
(0.803887 0.0598026 0)
(1.14872 -0.07162 0)
(1.09775 -0.17355 2.81966e-20)
(0.882669 -0.0179592 0)
(0.0706063 0.0217676 -7.7441e-23)
(-0.147696 -0.021286 0)
(0.397473 0.0450951 1.96966e-20)
(1.0339 -0.0540909 3.02254e-21)
(1.00752 -0.00911441 -5.2585e-23)
(0.0757206 0.0277936 4.59367e-21)
(0.724224 -0.230551 0)
(1.00569 -0.0177618 0)
(1.04607 0.0777523 0)
(1.00068 -0.0124599 0)
(1.03123 -0.0546718 3.61555e-22)
(1.01137 -0.00400462 0)
(0.408366 -0.131454 2.22658e-22)
(0.883208 -0.339405 6.42259e-21)
(1.02137 -0.0475105 7.77085e-23)
(1.23298 -0.139058 0)
(1.01003 -0.0324149 7.39405e-22)
(0.943954 -0.0370624 1.02168e-20)
(0.639147 0.0718183 -2.11997e-20)
(1.08356 -0.00585135 -1.14162e-21)
(1.0455 -0.0360382 7.11455e-21)
(-0.0594618 0.0184141 -2.15992e-20)
(1.03399 -6.17811e-05 -7.82193e-21)
(1.0722 0.00926891 8.12997e-21)
(1.08438 -0.0308084 0)
(1.06224 -0.065969 -3.39723e-21)
(0.934553 -0.220628 1.2541e-20)
(0.673999 -0.863723 -4.96326e-21)
(1.03275 -0.0169123 -2.21436e-21)
(1.01478 -0.0220118 3.17835e-22)
(1.04966 -0.0177442 0)
(0.986559 -0.273414 5.04364e-20)
(1.09308 0.0583715 -2.7899e-22)
(1.02798 -0.0636774 2.10477e-21)
(1.01192 -0.00442675 -1.66423e-21)
(1.2853 -0.20366 -2.8225e-20)
(1.02687 -0.000335752 -5.92042e-22)
(1.14409 -0.014741 -1.18269e-20)
(0.98631 -0.00644195 0)
(1.03972 -0.00533711 5.55966e-21)
(1.05015 -0.0180111 0)
(1.00311 -0.00169196 4.38934e-22)
(0.980581 -0.0338081 -7.1119e-21)
(0.995458 -0.0068384 -3.7806e-21)
(1.03843 -0.00972318 -2.89966e-21)
(1.06995 -0.0310335 -3.16273e-21)
(1.237 -0.0813231 -1.91092e-20)
(0.985988 -0.00544411 0)
(1.18429 0.0265741 -6.09141e-21)
(1.01434 -0.0665895 -4.55788e-22)
(-0.194118 0.0102925 0)
(1.05056 -0.0135407 -4.80059e-21)
(1.2825 -0.0336036 -6.25621e-20)
(1.00003 -0.00184117 0)
(0.828709 0.0565557 0)
(1.00002 -0.000191906 -1.23501e-21)
(0.98721 -0.0248002 3.1048e-22)
(1.08199 0.0722905 6.95532e-21)
(1.14548 -0.0256593 1.93457e-20)
(0.287463 0.0564269 -9.90243e-21)
(1.03145 -0.260073 -4.6386e-21)
(1.03523 -0.190109 0)
(0.971159 -0.0200134 -1.87006e-20)
(1.10431 0.0588053 0)
(1.03928 -0.0150229 3.21468e-21)
(0.0656561 0.0232077 -2.74666e-21)
(1.0955 -0.0131342 0)
(1.0442 -0.058097 3.62776e-21)
(0.352573 0.0405372 4.20527e-21)
(1.02177 -0.0481365 2.32924e-22)
(1.23856 -0.0797122 -1.08092e-20)
(1.23216 -0.136682 0)
(1.07174 0.00875877 -7.66073e-23)
(1.10993 0.0671014 -6.89346e-21)
(1.14911 0.0799451 1.2653e-20)
(0.999262 -0.0190234 0)
(0.823309 -0.446551 9.19733e-21)
(1.00204 -0.00683791 0)
(1.08722 -0.0312897 5.52946e-21)
(0.99245 -0.00545909 -4.17875e-21)
(1.08426 -0.00522274 -8.20151e-21)
(0.873515 -0.211423 0)
(1.03958 -0.00561877 0)
(1.07971 0.00276058 0)
(1.00001 -0.000721759 -3.32936e-21)
(1.28691 -0.18304 -8.821e-21)
(1.17619 -0.0741782 2.08212e-20)
(1.08379 -0.00676428 1.22648e-21)
(1.09637 -0.0818694 -1.07936e-20)
(1.08065 0.00264438 0)
(0.999834 -0.00178933 1.7317e-21)
(0.819318 0.0842766 0)
(1.20988 -0.177283 0)
(0.950141 -0.381188 5.22232e-22)
(1.09416 0.0654193 6.95209e-23)
(-0.0518386 0.0195621 3.63082e-20)
(1.16746 0.0569316 0)
(1.04823 -0.0313152 -2.56846e-21)
(-0.185741 0.0113139 0)
(1.07138 -0.0572485 -7.71217e-21)
(1.00356 -0.000581067 0)
(-0.129052 0.0156882 -3.09239e-20)
(1.28058 -0.0312568 7.36276e-20)
(1.00001 -0.00100936 -1.01685e-21)
(1.14665 -0.471604 3.00031e-20)
(0.786695 0.0716082 -1.92385e-21)
(1.16749 -0.275284 -2.37521e-20)
(1.04332 -0.0354151 -4.42164e-21)
(-0.171671 -0.0142836 3.606e-20)
(1.13233 0.0492717 0)
(0.769541 0.0715054 0)
(1.1229 -0.051027 -5.63535e-21)
(1.00181 -0.0273791 -2.86538e-21)
(0.323482 -0.0427555 3.03577e-20)
(0.759653 -0.417691 -2.7176e-20)
(1.0921 0.0778022 0)
(1.00541 -0.0684253 2.9819e-21)
(1.00004 -0.000959681 5.60164e-23)
(1.07762 0.00842878 4.2953e-21)
(0.993302 -0.771273 3.84049e-20)
(1.06455 -0.0317574 -5.40945e-21)
(0.983815 -0.785229 -4.05192e-20)
(1.16931 0.0493265 0)
(1.0445 -0.043877 -3.08168e-21)
(1.11141 0.00821264 -8.8741e-21)
(0.274798 0.0290502 0)
(0.808193 0.0706705 0)
(0.997429 -0.155873 1.06037e-22)
(-0.16152 -0.0167932 -4.1349e-20)
(0.945107 -0.0344958 4.99076e-21)
(1.17547 -0.359754 0)
(0.0859975 0.0384328 6.48479e-21)
(0.986642 -0.00721555 0)
(0.903524 -0.291618 -5.17293e-20)
(0.973101 -0.0752478 -1.88185e-21)
(1.0055 -0.0461949 -1.66886e-21)
(0.450238 0.0444271 6.24871e-21)
(0.942703 -0.0398155 -1.14163e-20)
(1.17223 0.0499966 0)
(1.00304 -0.241303 0)
(1.08082 0.00185357 -8.98881e-21)
(1.00088 -0.0160799 -3.02472e-21)
(1.15652 -0.363471 2.03349e-20)
(0.769574 -0.42819 3.01621e-20)
(1.06436 0.000708535 -1.22441e-20)
(0.995521 -0.0131353 -2.97072e-22)
(0.0404301 0.0223601 -2.79951e-21)
(1.01521 -0.000584136 0)
(1.08096 -0.347651 -5.07866e-20)
(1.081 -0.11408 5.73185e-21)
(1.09222 0.0784668 0)
(1.03897 -0.0152939 0)
(1.04399 -0.0359661 5.76321e-21)
(0.229225 -0.0895149 0)
(1.17681 0.00229703 0)
(1.24911 -0.0302014 0)
(0.0574945 0.0189872 0)
(1.14485 -0.0156718 0)
(-0.200609 -0.00292411 0)
(1.1578 -0.136097 0)
(0.949025 -0.0338443 -4.63734e-21)
(0.0462424 0.023564 0)
(1.07485 -0.0188427 6.40806e-21)
(0.998966 -0.00695525 0)
(1.22713 0.0186509 5.55167e-21)
(1.22384 -0.201284 -1.77649e-20)
(1.06117 0.0108037 4.40318e-21)
(0.981502 -0.01951 7.8427e-21)
(1.03439 0.000101479 3.86538e-21)
(1.00391 -0.00789127 -6.50206e-22)
(1.00204 -0.00673894 7.53094e-22)
(1.13939 0.0443642 0)
(0.0290876 0.0334617 -2.56964e-20)
(0.858818 0.0800822 1.02484e-20)
(1.00546 -0.00993849 0)
(1.08311 0.0177542 0)
(0.981145 -0.0649715 -8.10263e-21)
(1.09337 0.0728511 0)
(1.00376 -0.00778782 0)
(0.122871 0.0385881 0)
(-0.214922 -0.00687888 -4.55852e-21)
(-0.185142 0.0114398 0)
(1.18061 -0.357415 0)
(1.07471 -0.101215 -3.11121e-21)
(1.00848 -0.0234092 1.56175e-22)
(0.0386998 0.033937 1.22049e-20)
(1.01 -0.032953 0)
(1.01672 -0.0598364 -1.06286e-22)
(1.01588 -0.0593163 1.11604e-22)
(1.05303 -0.0309414 3.28715e-21)
(1.00909 -0.169541 -7.33531e-23)
(1.0969 -0.0708066 -1.79675e-20)
(0.953313 -0.0189372 -7.55143e-21)
(0.952768 -0.013888 0)
(1.00187 -0.00933755 0)
(0.967537 -0.0375279 0)
(0.995474 -0.0129165 0)
(1.00546 -0.017087 0)
(0.886348 -0.370225 0)
(1.182 -0.131736 -5.01602e-20)
(0.995719 -0.0132892 -5.81812e-22)
(0.990511 -0.0270053 0)
(-0.20794 -0.00692387 8.26699e-21)
(0.32928 -0.0448599 0)
(1.08609 -0.0311432 1.745e-20)
(1.15823 -0.49121 6.59046e-20)
(1.09415 0.0316327 0)
(1.01218 -0.212643 2.52825e-21)
(1.19573 0.0243728 0)
(1.02255 -0.0204568 -1.75766e-21)
(1.01213 -0.0333047 -1.16335e-22)
(1.00175 -0.00887843 1.18478e-21)
(1.01054 -0.0321954 -3.69635e-23)
(1.05112 -0.0358935 0)
(0.704035 -0.2603 1.88561e-20)
(1.00495 -0.0122876 -8.93617e-22)
(1.02062 -0.00957874 -1.50633e-21)
(1.00567 -0.0142355 2.49811e-23)
(1.0023 -0.0104577 -3.15451e-21)
(-0.178307 0.0122454 0)
(1.03687 -0.18875 0)
(1.02625 -0.00674801 1.33133e-21)
(1.07531 -0.02118 6.84355e-21)
(1.00113 -0.00567461 -2.52331e-21)
(1.14781 -0.0683308 -6.14134e-21)
(1.02405 -0.00887631 0)
(1.13144 -0.0644914 9.64207e-21)
(1.15331 0.0808514 1.4448e-20)
(1.03901 -0.0144499 -5.41487e-21)
(0.79497 0.0706273 1.05918e-20)
(1.09392 0.0805904 -1.06054e-21)
(1.18682 0.032087 0)
(1.14611 -0.0195675 0)
(-0.0815012 0.0176928 3.9886e-20)
(-0.0269313 0.024014 2.23286e-20)
(0.98692 -0.0134149 0)
(0.998082 -0.0180352 -3.50792e-21)
(0.95367 -0.0180234 8.80693e-21)
(0.765438 0.0703615 0)
(1.11259 0.0567065 -1.07847e-20)
(0.998932 -0.0801923 0)
(-0.0789039 -0.0319768 0)
(1.21585 -0.348982 0)
(1.0344 0.000393951 0)
(1.01606 -0.0219522 0)
(0.966944 -0.0383813 -9.26792e-21)
(0.79423 -0.155558 0)
(1.07062 -0.0684024 0)
(1.00263 -0.00801399 0)
(1.00415 -0.00799027 0)
(1.00107 -0.024965 -2.60662e-22)
(1.01857 -0.0265003 4.28105e-22)
(0.198041 0.0209302 0)
(1.16986 -0.345448 -1.98465e-20)
(1.00498 -0.0455869 4.08691e-21)
(1.09376 -0.313608 -4.46374e-20)
(0.570362 0.0640036 0)
(0.999271 -0.0018505 -4.69802e-21)
(1.0134 -0.0319067 0)
(1.01717 -0.0707186 -7.5048e-23)
(1.12094 -0.0548648 0)
(0.188827 0.0210821 0)
(1.31802 -0.253451 -3.69206e-20)
(0.132011 0.0395357 0)
(1.11074 0.0451658 0)
(1.16522 -0.270556 7.13509e-21)
(1.16992 -0.494686 -7.41135e-20)
(1.0909 0.0772466 -4.73402e-21)
(-0.248769 -0.00403434 9.85038e-21)
(1.07555 -0.0203172 7.15654e-21)
(1.10722 0.0296476 0)
(1.08527 -0.00557845 8.42532e-21)
(1.07601 0.00984026 1.27493e-20)
(-0.119676 0.0165594 0)
(1.0354 -0.0173241 0)
(-0.093949 -0.0297045 0)
(1.09996 0.0760501 -1.52093e-20)
(1.0507 0.00565951 -6.34806e-21)
(0.987146 -0.241575 -4.79311e-22)
(1.03599 -0.0175518 -2.44296e-21)
(0.151116 0.0454739 2.50385e-20)
(1.00572 -0.0676909 0)
(1.20899 -0.246905 -6.33375e-20)
(1.09524 0.0804106 -3.22642e-21)
(1.02824 -0.0120104 -3.9389e-21)
(0.616414 -0.0211189 -1.24013e-20)
(1.02066 -0.0194846 4.50435e-23)
(1.00002 -0.000684724 2.14919e-21)
(0.573785 -0.0175038 1.1824e-20)
(1.05985 -0.0685921 -3.48953e-21)