/*--------------------------------*- C++ -*----------------------------------*\
| =========                 |                                                 |
| \\      /  F ield         | OpenFOAM: The Open Source CFD Toolbox           |
|  \\    /   O peration     | Version:  v2012                                 |
|   \\  /    A nd           | Website:  www.openfoam.com                      |
|    \\/     M anipulation  |                                                 |
\*---------------------------------------------------------------------------*/
FoamFile
{
    version     2.0;
    format      ascii;
    class       volScalarField;
    location    "200";
    object      ddt0(k);
}
// * * * * * * * * * * * * * * * * * * * * * * * * * * * * * * * * * * * * * //

dimensions      [0 2 -3 0 0 0 0];


internalField   nonuniform List<scalar> 
27915
(
2.08908e-07
2.66039e-06
0.000827694
-2.28268e-08
-3.97357e-08
-1.02399e-07
-5.96971e-08
0.000883444
1.48138e-08
0.00120362
-5.94494e-07
-0.0215408
0.000389844
-5.95743e-08
-5.23815e-07
6.33582e-09
0.00561976
-4.69707e-08
-2.46053e-06
0.000882414
0.00124152
8.32599e-08
0.0107516
-4.20408e-08
5.712e-09
8.73296e-09
0.00764546
-3.30383e-08
0.000301936
-2.7515e-08
-2.81358e-08
-6.02267e-07
2.81742e-08
-1.32507e-09
-0.00196828
-3.37714e-09
1.14992e-08
8.92149e-09
6.79911e-08
1.16753e-08
-6.48106e-07
1.27036e-08
8.05007e-06
-7.45832e-09
0.0116574
1.9673e-08
1.95145e-08
3.04638e-06
-1.17092e-09
3.26793e-08
0.000918874
-2.29592e-06
0.00255644
-3.52105e-08
-1.27716e-08
1.65684e-08
6.63371e-09
0.0001853
7.25152e-05
-2.60746e-08
0.000155888
7.06685e-07
0.0108177
0.000111605
-8.67993e-09
-1.7969e-06
-0.0219656
0.000917197
-0.00181003
-4.41238e-09
9.64067e-05
-4.13378e-08
-4.72452e-08
0.000688462
0.000861653
0.000424852
-2.74078e-08
-8.1059e-09
-0.00145245
-4.33925e-05
-9.53255e-08
7.58973e-08
-7.90288e-08
0.000979992
0.00437228
0.00427469
4.1725e-09
1.91482e-05
-0.00555433
-1.86174e-05
-4.99645e-09
0.00154775
2.8448e-08
0.0212736
0.000383264
0.000920169
0.0027546
0.00147459
6.74603e-07
3.00252e-09
-2.16932e-08
6.21442e-09
0.00138282
4.6864e-07
-1.46861e-06
7.05341e-08
0.00627478
-3.93824e-06
6.05186e-09
0.00127541
-0.00493021
-6.05868e-07
0.000213642
-0.00407452
-4.10458e-06
-2.7584e-06
0.00469108
-5.28876e-07
3.61746e-07
-2.73107e-10
1.1988e-08
0.000137629
3.10309e-08
7.89753e-08
6.48981e-09
0.00849786
-0.00765097
-0.000153373
-3.24469e-08
-3.49062e-08
8.40696e-07
0.00577448
0.0218145
3.96787e-05
0.00382191
-2.34445e-06
0.00131933
4.55348e-09
-4.11436e-08
3.00342e-08
2.84469e-08
-1.14532e-08
1.0399e-09
-7.20993e-05
-0.00317171
0.0009599
5.2611e-05
2.94841e-06
0.000422819
-6.04049e-08
0.00459441
4.88346e-09
1.29502e-05
-0.00697524
0.00119463
0.000357607
-0.00153831
6.46489e-09
-8.66983e-09
-1.62886e-08
4.26844e-05
-0.000588681
-3.05523e-08
-0.000282884
-0.000616515
7.4918e-09
-1.6401e-05
-0.00368759
0.00101374
2.14496e-09
-4.43361e-07
-3.84268e-08
6.6357e-09
3.01715e-06
-5.10938e-08
0.000914289
0.00122848
2.17841e-07
-1.1983e-08
-0.00027673
-0.00668066
-2.84734e-06
8.63556e-10
0.00101102
-2.58442e-06
-0.00666032
-4.02776e-09
-7.29274e-09
0.000587347
4.93121e-09
0.00446448
-1.03053e-06
-0.000378739
1.44831e-07
-1.45622e-08
5.29374e-09
-0.00766896
-0.000388861
8.39057e-09
-1.08819e-07
0.00256756
0.00272302
8.23251e-09
-4.00918e-09
0.000953458
8.35761e-05
-8.08123e-07
3.54857e-05
0.00264152
-5.91648e-09
-9.96539e-08
0.00616807
1.5872e-08
8.20016e-09
1.0903e-08
-8.95863e-10
2.28773e-05
0.000476573
-4.03781e-08
4.04804e-08
-2.4141e-08
1.90658e-06
-1.57767e-08
-1.36665e-08
-0.000537303
-0.00336631
-3.72012e-09
0.00525136
-4.63865e-08
-6.52351e-09
-8.51922e-05
4.35845e-05
0.00700919
-0.00272678
0.00141013
4.70598e-07
0.00485434
1.39853e-09
2.62785e-09
-3.03019e-08
0.00690997
-3.38983e-07
7.48594e-05
0.00263712
-2.95419e-08
-1.10921e-08
-0.00573107
5.47903e-06
-1.43447e-06
-0.000336259
-1.30871e-09
0.000818609
-3.9052e-08
-2.8237e-08
3.39801e-08
0.00181646
1.79678e-07
-6.45989e-09
-5.27869e-07
0.0064627
0.000508229
2.49097e-06
4.71942e-06
-6.53566e-05
-1.02543e-05
0.000659902
4.67363e-10
0.00430293
0.000852961
-0.00336594
1.81376e-07
-0.000630564
-0.000886193
0.000299063
-1.43413e-06
1.70668e-09
7.29876e-07
-2.88906e-07
1.64629e-08
5.52796e-08
-3.53463e-08
1.2829e-08
-3.74794e-09
3.23766e-05
0.00080697
0.00129223
0.00209687
0.00721171
-3.1368e-08
0.00386458
-9.85379e-06
-4.94298e-08
-0.000725516
-1.05171e-08
6.52434e-07
2.30984e-06
0.00503913
0.00217116
3.12081e-06
8.40727e-09
-2.01275e-05
1.27054e-05
2.95677e-08
1.019e-08
0.00500202
0.000866427
-1.26175e-07
1.46073e-08
-0.00142544
1.91017e-07
0.0055958
2.26563e-08
-0.00122081
-1.36533e-08
0.00649014
1.06785e-08
2.63673e-09
0.000961925
-0.00013238
-4.21373e-05
4.8214e-05
-1.10305e-08
4.69574e-09
-1.15856e-08
-5.26199e-06
1.04276e-05
9.77501e-06
0.000369911
7.94141e-09
4.74511e-08
6.15196e-09
6.33919e-05
-2.44801e-08
2.88092e-08
0.00194793
-2.89197e-08
-4.12276e-05
7.56032e-09
0.00687823
0.000301592
-3.10286e-08
0.000868124
-7.58156e-05
0.00375868
-2.68531e-08
6.74132e-07
2.36995e-08
-0.0121307
0.00135766
-4.73748e-08
-3.77839e-09
-2.43721e-08
0.00799847
-9.25104e-06
1.41236e-09
3.70158e-05
-4.44192e-06
1.30565e-09
-4.10388e-08
-0.00155025
1.0631e-06
1.38407e-07
-1.14722e-07
-5.57348e-09
1.75789e-07
0.000987858
-1.89098e-06
2.8588e-08
-2.88872e-08
-3.18181e-08
0.000355075
-4.03769e-08
2.2488e-06
-1.15273e-08
0.00127888
-4.82014e-08
-1.45253e-08
-1.02843e-06
-2.17588e-06
-2.82163e-08
-1.97868e-07
3.11299e-07
1.27811e-06
-0.0171073
-0.00055501
-4.71372e-07
0.0021886
3.54964e-07
1.74087e-08
0.000168835
1.78791e-08
0.00327043
0.00151576
6.85307e-09
0.00138197
2.29775e-06
-1.64406e-06
1.56339e-08
-7.89776e-09
-0.00499978
-4.19068e-08
8.36003e-07
0.000491061
1.67705e-08
-3.12205e-05
-3.85526e-06
-3.74276e-07
6.71145e-09
0.00386376
-2.65596e-08
0.000660326
-2.25788e-06
7.37917e-09
-1.52956e-08
-0.0222177
-2.61352e-08
-3.41613e-06
-4.96134e-07
2.28066e-06
-4.57629e-06
-7.67734e-05
-1.68356e-09
-1.56634e-08
0.00341616
6.05556e-05
-5.69491e-07
3.00567e-08
0.000527316
0.00268116
1.00069e-07
-0.00165915
-3.49559e-07
-0.00132248
-7.1243e-08
3.85851e-08
-1.96854e-08
-6.60144e-09
7.12299e-09
-7.73417e-05
-6.78777e-07
-0.00352808
8.96398e-05
-2.34694e-06
8.88302e-07
-2.29914e-09
5.37558e-06
0.000494024
1.72501e-08
6.17412e-06
-2.48092e-08
0.0104074
-0.00101715
-4.50998e-09
2.64333e-09
-0.00508895
0.00116315
-0.00167721
3.50498e-07
-4.91731e-09
0.00044064
3.48196e-09
2.39833e-08
0.00642811
-1.20763e-06
0.000253786
0.00546042
9.18431e-09
-2.60063e-09
0.000110818
0.000678442
-8.76183e-09
-1.44709e-08
5.72124e-05
-4.38995e-08
-0.000167154
-3.44036e-07
-9.41782e-09
2.29669e-09
-9.86594e-07
1.00013e-06
0.00282187
3.00648e-07
0.0016532
0.00217643
0.00193289
5.09978e-08
1.22901e-06
3.11777e-05
-7.98514e-06
4.41202e-08
0.00406871
0.00122972
-4.99157e-06
-7.91006e-09
0.000311951
-4.71849e-07
-6.42135e-06
-0.00538803
0.000296744
0.000472185
4.66668e-09
-5.96727e-07
0.000787077
-0.0230712
-2.97605e-05
0.000376304
-1.89243e-08
-9.61027e-08
-3.94336e-05
-0.0153564
1.75087e-08
-1.74685e-06
-2.67861e-07
-0.000621788
-9.97184e-05
0.00522131
-0.000183172
3.67032e-08
2.29829e-06
-2.14741e-07
-8.58831e-11
-4.45591e-09
-3.38836e-08
0.00339241
-6.99623e-09
-0.00286866
-3.31781e-08
0.00142333
0.000611129
0.00052886
1.31665e-08
-0.00779228
-3.3738e-05
-1.89898e-06
3.13563e-06
1.63413e-05
0.00105525
-5.6643e-08
1.81484e-06
-2.62683e-09
-2.89061e-08
-9.20784e-06
-3.32916e-09
0.000466481
1.44874e-07
0.00469412
-4.2309e-08
0.00150262
2.0773e-08
-0.000261369
-2.64499e-08
7.83184e-09
-1.40069e-06
0.00699712
-3.26044e-06
-3.41618e-05
-0.000631326
0.00444738
0.000147127
-1.42565e-08
-5.55637e-05
0.00103353
2.31396e-06
-5.95463e-08
-1.91815e-09
6.02141e-09
0.000896146
3.60991e-08
-0.00189221
7.47167e-09
2.70676e-06
0.000816354
1.00708e-06
0.00441647
1.74317e-08
0.00261838
0.000176324
-0.000437236
0.000596848
4.49736e-08
1.07731e-08
2.6266e-06
-3.70161e-07
0.00143256
0.00344461
-1.89946e-10
0.000539257
-4.63549e-09
7.3707e-09
1.07252e-05
-7.13834e-09
1.29752e-08
0.000380286
-4.20107e-07
0.00314457
4.40275e-08
0.000387991
0.00556821
-1.29899e-08
5.64333e-09
-0.00180592
-2.11998e-08
-5.60513e-09
1.7228e-08
-0.00366186
8.55986e-10
0.00509087
3.21521e-08
-8.46624e-09
-1.49223e-05
-0.000163394
-4.24251e-09
0.00431667
0.00370234
0.000277608
-4.66403e-08
8.82501e-09
0.001232
-2.13297e-08
0.000925743
-2.55935e-09
-3.27941e-08
5.12218e-09
-3.98105e-07
-3.51784e-08
2.42356e-07
-7.62132e-08
9.28791e-07
2.09665e-08
-5.28497e-09
-1.7481e-05
-0.000191474
0.000591383
1.16132e-06
0.000869766
0.00309257
-3.86366e-05
1.07401e-08
0.000312638
7.34841e-05
0.0282607
1.7975e-08
-0.00689438
8.06013e-09
3.84722e-08
-1.6039e-09
0.00529954
-4.34882e-10
-3.81701e-08
-2.5375e-08
0.000283548
0.000448785
2.93401e-05
0.00383804
0.00149974
-1.23838e-07
-0.0011191
-0.00411927
0.00335234
-4.89898e-09
1.62112e-08
-3.14037e-05
2.11279e-08
0.00181316
-2.61139e-06
6.76246e-10
0.000539401
-3.52548e-06
-1.66948e-08
-7.17637e-09
-4.26396e-09
-5.16267e-08
-1.7474e-08
-5.99054e-09
-8.59863e-10
-6.69055e-09
1.96079e-08
0.00700101
2.30376e-08
3.21472e-05
-3.43537e-08
-1.95151e-08
8.68605e-05
2.14077e-09
2.74654e-07
0.0299894
0.0006147
-6.87604e-09
2.23221e-08
6.9679e-09
-2.01886e-06
7.15944e-06
1.79334e-08
6.22989e-09
-3.94592e-06
-4.16197e-09
-0.00149834
-0.00263811
-0.000519595
2.43912e-08
0.00207038
0.000258642
2.48445e-07
1.49267e-08
-5.16352e-05
1.34829e-08
0.000996646
-1.55215e-06
-1.40109e-07
-2.57751e-08
2.30506e-08
1.94814e-08
-4.09291e-10
-1.78857e-06
0.00427286
0.00882734
6.39201e-07
3.50643e-10
-3.04036e-08
0.00211728
-0.000347994
3.12302e-08
0.00280986
-5.63728e-10
0.0152623
-3.30504e-06
-0.0181411
5.55152e-09
5.98048e-05
0.00270315
2.80897e-09
-7.64369e-07
0.00254969
1.03433e-09
-1.77931e-06
2.03004e-05
2.45657e-08
-2.73413e-08
0.000380875
-1.37675e-05
8.0419e-10
9.97857e-09
-0.0101072
0.0163702
-0.000280282
-4.85268e-07
-3.26449e-09
1.0823e-08
-1.52025e-05
-2.47613e-08
3.54925e-09
1.77348e-08
8.70285e-09
3.36604e-08
2.71192e-08
0.000164985
7.09314e-07
0.00089011
-1.79424e-08
-0.00228319
-2.12255e-08
-8.68168e-05
1.39946e-08
0.0123152
-3.23303e-08
0.000948428
-1.36171e-08
0.000462482
0.0021555
0.000119342
-7.29057e-07
-1.36483e-06
-0.000336664
0.000530634
1.85716e-08
-0.0110074
9.46297e-09
5.76908e-09
-1.79685e-05
4.4811e-08
1.20638e-08
-8.81824e-08
-3.19141e-09
-0.00506118
5.28209e-09
-1.1971e-08
-6.31823e-09
-1.38338e-06
-2.98899e-08
1.35649e-07
-3.00462e-08
0.00249758
0.000862618
-3.51355e-09
-6.39341e-09
-0.017969
5.69627e-07
3.65517e-08
-1.62915e-08
-2.34211e-08
0.00743047
0.00013392
-6.69265e-08
-4.10217e-08
1.09802e-08
6.13612e-08
0.000481722
4.22123e-09
5.54695e-06
2.07142e-06
6.89751e-09
2.15157e-07
0.000616913
0.00303922
-1.08149e-08
3.26524e-08
-0.00260073
-0.000510707
0.00377689
-1.96827e-07
2.33006e-08
0.00141671
1.31401e-06
0.00256872
1.3307e-08
-3.65156e-07
-1.091e-06
-1.29878e-06
-1.87181e-09
0.00188362
-0.000598933
9.85476e-06
2.59605e-07
0.00353657
-3.40722e-07
-6.56004e-08
6.8739e-09
-0.0162296
-3.67148e-07
-2.27984e-06
0.000909998
-1.79974e-09
-0.00253097
-0.024872
-0.00425638
-0.0226852
-0.0179105
-6.08533e-08
4.36515e-08
-2.77138e-07
-0.000262849
0.00029702
-3.75768e-09
0.00122877
-1.23961e-08
1.71301e-08
0.00388247
-3.93841e-09
1.00278e-06
-7.48729e-10
0.00219435
-1.16332e-05
2.41211e-08
-2.79956e-08
0.000204306
-0.00138115
-1.58234e-06
-0.00121748
0.00276158
0.00103472
-2.2251e-07
-3.54888e-08
-5.95269e-10
1.43395e-08
4.59637e-07
0.0205048
-0.0012263
-4.95513e-09
2.15351e-06
4.59869e-09
0.00795273
0.00185335
0.000567329
-2.48734e-08
1.12987e-06
5.24906e-08
-1.73824e-08
8.46945e-09
-0.0130406
0.000599811
0.00170245
-1.28481e-07
-1.60472e-06
0.00146324
2.07567e-06
-0.0012724
-2.58034e-08
4.74319e-08
6.35021e-07
2.99735e-08
-3.55762e-07
0.000909255
6.16588e-07
3.41798e-09
8.36678e-07
0.000600434
9.60511e-09
-2.62171e-08
9.74978e-09
-0.0030533
2.33239e-09
0.000575446
-3.298e-08
0.000335813
2.28773e-07
1.32917e-08
-1.74327e-08
-0.00259694
1.44154e-07
0.00356194
7.18143e-09
1.49943e-07
1.78399e-05
1.59592e-05
0.00932698
4.09004e-08
1.36695e-08
2.07792e-08
8.631e-06
1.48073e-09
-0.00321037
4.08624e-09
4.6778e-08
3.39696e-09
-0.000561806
-0.00528464
0.0283006
-2.4186e-08
0.00658246
-1.18519e-08
1.57439e-08
3.04846e-09
-5.40931e-07
5.0585e-09
0.0130296
-6.05725e-07
-0.000206214
1.27182e-08
7.89642e-09
-2.56504e-09
3.78197e-08
1.11822e-08
-0.0121483
-1.07592e-08
2.87658e-09
0.00164966
-0.0017776
-3.68005e-08
5.43134e-08
2.07721e-08
0.0267379
-5.10284e-07
0.0012403
2.28569e-07
-0.00124477
6.56341e-08
2.06047e-09
3.67012e-09
-3.36113e-07
0.000233438
-6.78557e-06
8.51893e-09
0.00150314
-0.00154536
0.00427553
-5.54271e-09
1.53237e-07
-3.59151e-09
-1.91671e-06
-2.54574e-07
-1.81526e-08
0.00104535
7.10296e-09
1.85134e-07
-0.00182634
-2.48579e-08
1.97624e-10
0.00196118
0.00365542
-0.00189356
-0.00170745
-0.0051836
2.71976e-08
0.00450456
0.000179545
-0.00221821
2.2441e-06
0.000400718
0.000989753
0.00101632
-0.000291948
4.62831e-08
0.00130638
0.000275895
-4.51664e-08
-7.94364e-08
-1.3385e-07
2.12678e-06
-5.92658e-05
5.81116e-07
-5.3819e-09
1.31516e-07
-0.00313422
-1.07946e-08
-4.00635e-08
0.00237239
-1.10769e-05
-1.71143e-08
0.00346564
3.90889e-08
-2.5337e-06
2.97956e-08
-0.00345608
-2.08774e-06
0.00218846
1.21453e-07
-2.42229e-06
-1.21419e-08
-0.000166055
3.32561e-08
1.58109e-08
7.04496e-09
-3.2088e-08
1.1069e-07
0.00071883
-0.000126441
-3.14637e-06
0.000518457
3.47599e-09
0.00734465
-0.00385006
1.94641e-08
-4.92346e-08
0.00467677
-2.98356e-08
0.000130958
-3.36962e-09
-7.46505e-08
4.06321e-08
-5.2829e-05
1.5173e-05
-8.79876e-09
-1.75374e-08
-0.00443216
-3.44375e-10
1.60986e-08
-3.69178e-09
-1.39024e-06
0.000649755
-3.84443e-07
-0.00151028
4.2577e-09
8.47991e-10
2.69921e-08
1.17956e-08
-1.70194e-08
3.42885e-09
-4.66457e-08
2.02653e-07
1.01473e-08
1.51549e-09
2.1369e-08
1.33607e-08
-6.8153e-08
-3.07081e-05
2.73764e-08
0.00162181
0.000677919
-2.72967e-06
-1.88421e-06
4.19781e-09
0.00103709
0.000192411
-2.13863e-08
2.13485e-07
-1.09638e-07
7.74882e-06
0.00863843
-7.90308e-07
-0.000305038
8.8859e-05
3.49481e-08
-0.0109471
1.22579e-07
0.0164418
1.90566e-08
6.39841e-06
-4.8588e-08
-0.00101077
1.67658e-09
-2.99489e-07
0.00934064
4.01267e-09
0.00294044
1.24528e-06
-1.27275e-05
1.16546e-08
3.52572e-08
-1.08938e-08
-0.00145555
-8.36409e-07
8.43337e-10
0.003319
-4.68088e-07
2.17327e-08
-2.82313e-08
-6.40004e-07
2.5174e-07
-2.63883e-06
1.69323e-08
0.000237423
-6.97092e-07
-7.54709e-07
-1.40015e-05
0.00299982
1.98066e-08
0.000489531
-1.56378e-09
5.90299e-08
-3.0942e-08
0.00138453
3.63619e-10
2.78173e-08
2.87563e-06
-2.06782e-08
-0.00380837
0.000927316
-1.0397e-08
4.14574e-09
-9.94894e-10
-1.58337e-06
8.1958e-09
0.0035984
-5.37446e-09
2.49255e-06
2.34651e-09
1.72204e-06
1.04507e-08
0.00123796
0.00143037
0.000758029
0.00116479
0.0045531
-5.19108e-08
0.000439811
-0.000939312
-0.000156778
1.28377e-07
4.52602e-06
2.00199e-09
-0.000669969
-4.81859e-08
1.39374e-08
4.52782e-06
2.13651e-08
8.68936e-08
-0.00051107
-1.73723e-08
0.00277255
-8.86888e-07
0.00143518
0.00622922
9.15088e-09
0.00300648
-0.00207919
-2.73001e-08
-1.37087e-08
1.35884e-06
-2.28685e-08
1.33346e-08
0.000444876
2.83015e-05
0.00485264
2.70401e-09
0.00118392
-1.26684e-08
0.00100484
-0.00570831
-0.00103414
0.00594266
1.55903e-06
5.73291e-06
0.000998643
0.000607297
2.58197e-05
-0.000190682
0.00136417
2.54922e-08
-1.78571e-08
0.00654364
-1.10305e-05
-1.66552e-08
-5.61404e-09
7.49068e-10
1.6515e-08
-0.00252639
2.5147e-07
-0.00149114
-0.0120125
2.92687e-08
-2.1923e-07
1.77521e-08
-6.00682e-10
8.62259e-06
-3.68087e-08
0.000137223
1.68119e-08
-2.04536e-08
2.64121e-06
0.00117014
-0.0261445
-1.01368e-06
0.000188805
9.74504e-09
2.56951e-07
-0.00308245
2.13657e-06
-2.4754e-05
-9.05128e-05
1.8502e-06
-7.91879e-05
0.000832659
-1.36483e-08
1.41655e-08
-1.22802e-06
-6.93773e-09
2.33745e-09
5.12549e-07
2.35263e-05
-1.1166e-09
-2.31366e-09
-2.78827e-08
-6.55671e-09
-0.00303429
5.5006e-07
1.00658e-05
-7.73714e-05
-8.73434e-07
-1.1125e-06
-0.00120404
-0.000816073
2.09714e-08
-2.39479e-07
-2.46288e-06
2.61019e-09
-2.90112e-10
0.00399062
-3.52162e-07
2.39398e-08
-0.00823275
1.76368e-08
-0.00468215
-1.42971e-08
3.37401e-08
2.5685e-08
1.6028e-07
0.00535399
1.14926e-08
-6.22025e-05
0.00256188
-4.12651e-09
-5.41594e-07
9.08358e-05
0.000752478
4.82839e-08
-2.03521e-07
-1.6431e-07
0.00402063
-0.0013897
2.27027e-07
-1.52335e-09
-3.40747e-08
-0.00305167
0.00128772
4.7201e-05
4.07483e-06
-0.00136787
-1.17154e-09
-0.000206044
-4.65345e-05
2.55254e-06
2.97241e-06
-0.0143142
1.98607e-08
0.00244301
-2.83941e-07
2.1636e-09
-4.98518e-05
0.00451353
5.48217e-10
0.0146179
-1.12422e-08
1.53116e-05
-4.41811e-07
-0.00200963
1.89181e-09
1.88103e-06
0.00775218
1.26536e-08
1.7627e-07
2.71523e-05
0.00132179
-0.0032334
2.79056e-06
-4.13476e-05
-9.46426e-09
3.51198e-07
0.00457027
2.90166e-07
-1.11624e-08
-1.75735e-08
0.00129736
0.000506036
0.00503812
2.68303e-05
3.82106e-09
8.92416e-09
2.73298e-09
-1.627e-08
-2.5938e-06
0.000347109
-5.15423e-06
-4.17641e-08
1.41873e-08
0.00230478
1.52886e-08
0.00444895
0.000776219
2.22369e-06
3.06416e-07
3.48699e-09
-0.00513396
1.2039e-07
1.27616e-07
-2.9974e-07
-4.91542e-07
1.30897e-08
0.00399867
-2.04385e-05
-3.40679e-09
2.52354e-06
0.004554
-2.57863e-07
0.00109871
-3.17737e-07
0.000150024
-2.48161e-05
-1.17674e-09
-2.36834e-08
5.44358e-08
0.00883479
0.00379271
-1.52295e-06
0.00326191
-0.00204671
1.55224e-08
-7.51767e-10
7.69757e-08
-4.28584e-08
-0.00154299
0.00120274
2.60011e-07
-1.50343e-06
-1.02181e-06
2.48901e-06
-5.92714e-09
-3.72094e-07
0.00130218
6.51361e-09
3.11426e-09
-9.24684e-07
5.70923e-09
-5.33734e-09
-1.95031e-08
-2.28946e-06
1.87677e-08
-0.000136836
-1.33865e-06
4.84429e-07
5.71873e-08
1.19455e-06
0.0024375
2.72956e-08
-9.56039e-05
7.86174e-06
0.00274045
7.71003e-06
0.00793099
-0.0329363
1.13736e-08
0.000514081
0.00249964
-6.78721e-09
-3.0277e-08
0.00043027
-6.6874e-07
4.14331e-05
-2.11235e-08
2.2532e-08
0.00445853
-1.67765e-07
-1.0874e-06
0.000930529
-1.49855e-06
0.00113485
-4.42948e-09
0.00434349
-0.00029545
9.55128e-07
-0.00500655
-0.000697758
0.000944776
-3.73609e-06
0.00248478
7.56747e-07
0.000644696
0.000190562
0.00104401
-0.0298366
-2.08761e-05
0.000723123
-2.09466e-08
9.41827e-06
-2.29146e-08
0.00444338
-1.00308e-06
0.000558603
-1.91223e-08
-0.000288786
1.34885e-09
7.7314e-09
8.53325e-07
-3.12694e-07
1.83538e-07
-5.67019e-10
-3.77213e-08
-5.86844e-08
-0.00231437
-1.29346e-08
9.63682e-05
1.98252e-07
0.001798
4.99126e-08
-2.22596e-09
-0.00263711
6.34076e-09
-0.00023584
7.65661e-08
-2.2255e-07
0.00707352
-1.54338e-06
0.0167243
-1.53795e-07
0.00346903
4.69841e-07
1.91551e-08
1.04913e-09
-2.94433e-08
0.00314966
0.00464035
0.00122457
1.06565e-08
-8.79706e-09
0.00814192
1.05979e-07
0.00340606
1.86733e-09
3.99303e-07
-9.61342e-09
-9.76589e-07
0.00028294
0.00197714
1.41705e-09
-1.63259e-07
0.00347145
-6.55604e-09
-0.00131814
-0.00314731
1.43045e-06
-0.000116846
-1.10387e-07
-6.56658e-08
-0.0031457
1.23724e-06
0.0028727
-7.6092e-07
6.12001e-07
-0.0294136
-0.0176892
2.86057e-08
2.98566e-08
-8.39933e-09
7.08058e-09
-2.12214e-05
0.00036111
0.00464724
-3.39934e-09
2.08781e-07
3.23177e-09
4.92476e-07
4.25871e-08
3.89845e-08
0.000289707
1.69812e-06
2.89551e-08
0.000228985
-0.00112307
-4.27384e-06
0.00325459
0.00384177
-2.42655e-08
0.000131883
-0.00140674
4.65495e-05
0.0015055
-4.42791e-08
-1.16392e-05
8.59279e-07
8.04687e-09
-0.00120867
0.0019299
1.4005e-08
0.00188236
3.88016e-10
1.57894e-08
0.00098174
6.479e-07
0.00403255
0.000291274
-2.71791e-08
0.000885426
-2.44339e-06
7.5238e-07
0.00198639
0.000416221
-5.16175e-09
-7.74709e-09
-2.18579e-08
-9.93812e-10
5.7476e-09
0.000367863
3.27518e-07
-3.25701e-08
8.49932e-05
0.00726086
-0.00293037
5.09026e-06
1.01392e-06
0.00103882
8.51733e-05
0.00200654
-1.05304e-08
7.17067e-09
7.67629e-09
7.58252e-09
7.39221e-06
-1.52883e-06
1.49103e-08
2.55461e-06
0.000726637
4.22393e-08
-3.01745e-08
-6.90781e-09
1.39223e-08
0.00145274
0.00496034
-2.44241e-08
1.52924e-08
2.48562e-08
-5.51013e-08
-2.66196e-07
-1.51285e-08
4.89918e-08
2.70166e-08
0.00250459
1.5277e-09
0.00566563
-3.85554e-08
-0.00139898
2.07294e-09
0.00123113
0.000789911
0.00339745
0.00053863
0.00331429
-2.08816e-06
-0.00871483
0.00022697
-8.87311e-07
-0.00698523
-8.80367e-08
-0.000152313
-0.00123345
0.00415981
1.39663e-08
0.000972229
-2.10863e-08
-1.21469e-05
-0.00167314
-4.90975e-06
2.09777e-07
1.54174e-07
5.37889e-08
-1.90125e-07
0.00128601
0.00385315
-1.9511e-07
0.00536909
3.18371e-05
0.00155249
2.02496e-09
-2.98795e-07
-2.434e-07
-1.04587e-05
-8.95068e-06
0.00158465
4.47176e-05
3.8633e-09
-6.52682e-07
-8.21675e-06
0.000448845
-3.37353e-08
3.13317e-08
-7.40532e-10
0.00612439
-0.00242298
-2.83378e-09
-3.57778e-08
1.40656e-06
-1.51593e-08
0.00320947
0.0013396
-9.04232e-07
0.0231853
-6.03825e-09
0.000256708
0.0258882
0.00660084
6.81532e-09
-1.56875e-06
-0.00277155
0.00940456
3.09965e-09
0.00324296
0.00586409
-1.83584e-08
3.77771e-07
-0.00349455
-1.04796e-06
0.00147007
-0.00118531
-1.76799e-08
-2.45868e-08
-9.98659e-09
1.06045e-08
1.58096e-08
-1.71441e-08
-1.00779e-06
1.60104e-09
-3.06016e-09
7.2223e-09
-2.48943e-07
2.64758e-08
8.06911e-06
2.04013e-08
0.00145634
1.89002e-07
5.82468e-06
-1.19314e-08
-1.47137e-08
-0.00451576
3.67332e-07
-6.88799e-08
-4.77368e-07
-2.27968e-07
-1.90895e-07
0.0017604
-0.00286593
0.00224059
0.000756283
0.00986705
-0.000683253
0.00030461
-3.41726e-07
-1.21379e-07
-2.68747e-08
-4.58718e-09
0.00131718
-3.66073e-08
1.22087e-08
4.82288e-08
1.69054e-09
-1.11813e-08
-7.28648e-09
4.33615e-08
5.94877e-07
0.00244665
5.77409e-07
-1.95487e-08
-3.38401e-08
-2.24073e-08
-0.000406695
-2.35708e-06
2.1135e-07
1.39423e-06
-7.32109e-07
0.0023574
-3.14295e-09
-1.25143e-06
3.37936e-07
-1.56671e-08
2.25385e-07
-0.000291108
-0.000128105
-2.71427e-06
1.18235e-09
3.3165e-07
0.0011834
-1.90819e-08
-1.75135e-06
-1.89349e-08
-2.01131e-05
0.0105747
-1.56495e-06
-2.1486e-06
-4.3116e-07
-4.03829e-08
0.000180681
1.74163e-07
0.00901744
3.78408e-05
0.00289374
0.000160724
-0.00358275
-4.65019e-09
2.89004e-08
-1.96181e-09
-0.000513613
8.33377e-09
8.45621e-05
-1.42229e-06
1.70614e-08
-0.00226122
0.00126105
3.1773e-08
1.84225e-08
-8.32038e-06
0.00108508
0.000377066
1.10073e-06
0.00105502
-3.6879e-10
4.81895e-06
-1.33863e-05
-1.84342e-07
-6.47851e-07
0.0103405
2.80299e-07
0.000627602
4.92309e-08
-0.0134503
0.00469153
-1.10398e-05
-1.54407e-08
-1.49216e-06
5.33214e-08
1.28601e-08
-1.32607e-08
1.33437e-06
-5.17883e-08
0.000723717
4.13961e-07
-5.39799e-08
2.47796e-08
0.000775166
-8.4432e-09
0.00731894
0.015176
3.51708e-05
0.00527534
-3.61812e-06
-6.74727e-06
-5.2296e-07
1.13368e-08
1.29339e-09
0.00481282
0.0107016
0.0059099
3.98195e-06
0.000166256
-2.169e-06
-0.000279953
1.57786e-08
0.00413549
-0.00125313
0.000114425
1.43995e-08
0.000297521
-0.00119668
0.00107661
6.66666e-08
-1.53499e-07
0.000787431
-1.42722e-08
0.000130358
-1.50416e-07
4.48194e-06
4.75294e-09
2.81737e-07
4.71278e-09
-1.90533e-09
1.63772e-08
-1.97182e-07
5.43976e-09
0.000283407
3.82899e-08
1.08363e-08
-0.000589415
-1.92564e-08
-1.54653e-07
6.98181e-08
6.08416e-08
0.00149774
1.74934e-06
-5.39017e-07
2.48333e-08
1.80661e-08
0.000436942
-2.10745e-08
-4.32971e-09
-3.55923e-07
0.0011606
6.73565e-09
1.99451e-06
-1.94641e-08
2.18153e-06
-5.93058e-08
4.57066e-09
0.00374197
-1.29363e-06
0.000870808
3.69307e-08
-1.71045e-06
2.10234e-08
0.000381718
-1.63454e-05
1.12827e-09
-0.012334
0.000295437
1.07778e-08
0.00344241
-1.8822e-08
-6.33783e-09
-5.44615e-07
6.46181e-07
2.07142e-08
-2.15043e-08
6.23975e-07
-7.90395e-10
4.32839e-07
1.3842e-08
2.77116e-07
9.77777e-09
-1.58954e-06
1.00676e-06
0.00403544
-4.3064e-06
-2.00119e-08
0.000367958
2.08358e-08
1.4644e-08
-6.27072e-05
-0.000215981
-0.000594498
-4.00521e-06
-0.000393945
3.77102e-05
1.87696e-07
1.22308e-07
-1.8406e-06
0.00264656
-2.54829e-07
-1.36318e-05
-6.1777e-07
-1.30641e-08
-0.00733845
1.21746e-09
-8.03647e-06
-1.41184e-06
0.00139195
-1.04374e-09
1.84703e-05
-5.15175e-07
6.1778e-07
0.00232336
-0.00230054
1.53564e-07
-2.37914e-07
0.00144352
-2.21757e-08
0.000292178
-0.00175987
6.30303e-09
-4.9259e-06
0.000237386
6.21506e-08
0.00253841
-1.69295e-08
0.00616801
-0.0066169
-4.72383e-08
1.52421e-05
4.61804e-08
6.67351e-09
-1.49859e-07
0.000250698
-3.1034e-09
1.42192e-08
0.00512962
4.22275e-08
7.70445e-05
0.00176849
4.03943e-08
-0.000723977
5.35477e-09
3.49649e-07
8.16604e-09
6.73979e-09
1.01153e-06
-7.06001e-09
-3.77129e-06
1.03389e-08
-6.98443e-09
2.34027e-09
0.00162013
-3.95582e-07
6.63883e-06
0.00310039
0.00142945
2.3851e-07
2.39335e-09
0.000308942
-1.07555e-07
3.28608e-08
-0.00564388
2.85996e-06
6.40044e-10
2.16924e-07
4.77839e-09
-3.11917e-05
-2.90082e-06
7.78245e-09
0.00115491
0.00358737
4.97895e-09
5.0315e-09
-0.000414209
0.00810163
-1.05281e-08
1.59672e-09
0.000158572
-1.81701e-06
0.0043923
-3.9432e-09
0.00618071
-4.52408e-07
-8.34281e-06
0.000218152
-0.00307248
-2.66461e-06
-0.00129442
-1.4065e-08
0.000595988
3.28954e-09
0.00134622
0.00105974
-6.83167e-09
0.0010358
-6.16236e-07
7.57896e-09
1.52735e-05
-0.00019584
0.000398032
-0.000935652
-3.38484e-08
-3.4211e-06
3.67489e-06
4.2669e-06
-1.37347e-07
4.44786e-07
6.62658e-07
0.000445043
0.00135415
0.00890242
0.000773385
-2.18561e-08
-5.1406e-06
-0.0119163
-7.13153e-09
8.47925e-09
-5.38004e-07
0.00184054
4.47582e-06
0.00882304
0.0278213
-0.000590465
2.13952e-07
0.00373365
-2.71232e-06
-1.07798e-06
-0.00395952
0.000981767
0.0118782
-3.42654e-06
3.01058e-08
0.000521833
5.00402e-09
-0.00280227
-4.99344e-08
3.27165e-08
5.48874e-07
0.000858562
0.0210408
1.03602e-05
-1.1509e-07
0.000131948
1.07482e-08
-2.04594e-07
-1.90136e-08
-1.72513e-06
-0.0183212
-1.42252e-05
0.000595818
0.00515968
0.000145481
0.00262523
-1.67636e-08
0.0006738
-1.1256e-08
0.000627184
0.000976565
1.49936e-07
5.42527e-07
0.0030317
2.82802e-06
8.18516e-09
1.50332e-08
-3.65337e-05
-3.01611e-09
9.60125e-08
-3.80144e-06
3.83955e-05
-4.34178e-09
1.14576e-06
4.95193e-06
-0.000810553
-0.00980663
4.52186e-08
4.27859e-09
0.000840277
2.94918e-08
-4.88703e-05
1.17541e-07
0.00280421
1.22636e-06
-1.51134e-07
-4.40358e-09
-2.79677e-11
0.00263421
1.0522e-07
2.99098e-07
7.29131e-07
0.000805456
-1.43049e-05
0.00449239
0.000382453
2.73146e-08
0.000497805
3.60884e-08
-2.02082e-08
1.94933e-07
0.0024802
3.63083e-08
4.76845e-08
0.00365829
-1.69627e-06
-0.000129386
1.70441e-07
-0.000551245
0.00395415
1.61738e-08
-0.00061523
3.54935e-07
2.07243e-06
-0.00293122
-0.000256059
-8.4872e-09
0.00619458
0.0245417
-0.00920948
0.00186746
0.00728529
1.50744e-07
0.00586547
-1.23846e-05
-0.00317668
-1.5155e-06
5.71396e-08
-3.07159e-08
-2.23868e-06
8.47007e-09
0.000499763
2.82681e-07
8.74848e-09
-1.87673e-07
-1.98876e-06
0.000762753
2.13643e-07
0.0012493
-1.28154e-06
-0.000133722
0.00122513
0.00705458
7.32066e-07
0.00236764
7.57704e-09
0.000904567
0.000354552
0.000795357
1.88744e-08
-1.35337e-06
1.49343e-08
0.00812491
1.20191e-05
-0.00104815
-1.81593e-05
-0.00715677
-1.38498e-06
-0.0038317
-2.63943e-08
-0.0130781
0.000409291
-8.89527e-09
3.59923e-08
0.00123347
2.9018e-07
-1.84837e-08
-2.75456e-06
0.000748895
1.50697e-08
2.65505e-08
-2.31119e-08
0.00113542
-1.5057e-07
-8.72682e-07
-2.8259e-05
-1.26738e-06
5.10521e-06
5.87572e-09
-7.04903e-08
2.21128e-08
-0.000816923
0.00659273
2.01405e-08
-1.4906e-08
2.08707e-08
-2.09137e-07
-1.08157e-08
-0.0120126
-4.92045e-07
-0.00256525
0.00257664
3.23733e-08
8.55052e-07
0.000103039
1.00035e-08
-2.45265e-08
-3.19641e-06
0.00430896
1.83403e-08
-0.00258643
-0.00898562
0.00152406
0.00157973
0.0004708
-1.53276e-06
4.92495e-08
0.00178897
9.85377e-09
-2.16778e-06
-6.17844e-08
-8.64623e-05
5.67086e-08
-0.0194902
1.98803e-08
0.00374949
-6.52076e-08
0.00323133
-2.89741e-09
2.99717e-09
-6.34695e-06
-9.22678e-10
8.02996e-09
-1.4533e-08
0.000366004
1.65771e-08
0.00188193
9.04644e-09
6.66082e-06
0.0126918
-0.000716372
0.0052959
1.44017e-08
-1.85738e-09
0.00227128
0.00387867
3.05401e-09
2.18202e-07
-2.86425e-06
0.00129837
6.99923e-09
0.0036502
-2.15707e-06
4.61215e-08
-0.00877898
0.000433241
4.26073e-07
-0.00074596
-1.4134e-06
-0.00333656
0.000977903
-2.80689e-08
1.02205e-07
0.000871784
-2.23986e-08
0.00790498
4.11576e-06
-0.000768532
0.00361484
6.17138e-08
-5.69912e-06
1.43608e-09
-1.2469e-06
-3.36936e-08
-1.33721e-07
-0.00178257
-3.93492e-09
0.00467752
1.42726e-08
-6.94724e-08
1.68865e-05
4.2951e-08
0.00232956
-0.00352063
0.000721851
-1.18475e-05
-0.00415797
1.79319e-08
-7.79729e-07
-0.000204052
-9.84735e-05
4.79746e-09
-0.001754
3.74293e-08
-4.13826e-08
0.00391308
0.00284631
1.76187e-08
-1.64474e-07
1.07541e-07
-1.66231e-08
-0.000598791
-1.06479e-07
0.000308997
-1.83657e-08
0.0013482
8.38003e-07
-3.04243e-05
2.0774e-08
-0.00153751
0.000975376
0.000138333
4.50996e-07
-0.000171331
-1.06224e-08
-0.000200549
-0.0105689
-4.1441e-08
-1.93331e-06
-8.64213e-06
-7.73699e-08
1.43487e-07
-1.32925e-06
-0.000187369
-0.000427343
-1.25458e-05
9.9686e-09
0.00011808
-3.09515e-08
0.000115773
-7.33393e-07
1.5367e-06
0.00524885
4.89841e-08
-0.000557697
-5.36586e-07
1.14662e-08
0.00174613
-0.00426691
0.000340356
-3.8039e-06
5.33406e-08
-2.46937e-06
-0.00261415
2.69766e-06
0.000542852
-0.00456456
0.000734833
0.00438451
-1.40774e-07
3.67024e-09
-2.71878e-10
-6.68288e-08
1.1328e-06
3.22802e-08
2.86613e-09
-7.57622e-08
4.81684e-06
0.0114066
0.00248052
-2.21161e-08
0.00213716
-8.34607e-07
0.00428236
-3.26967e-08
-1.56182e-05
1.73286e-06
-0.000715768
0.00212575
-9.51719e-09
0.0197559
0.000693859
9.83098e-09
1.51313e-08
0.000915282
0.000940436
-0.00150603
-1.6691e-05
7.85658e-09
5.09984e-07
-0.000164468
1.92254e-07
-1.05018e-07
0.00574663
-4.3093e-08
1.54514e-05
-0.000376013
0.0104415
-3.00535e-08
-0.00209848
2.06481e-06
-1.53942e-07
-0.00480006
-7.75822e-09
9.81635e-09
-7.62471e-08
0.000810669
0.000868853
-3.86263e-06
3.71102e-08
0.00137919
1.53031e-08
0.000244479
0.00461594
2.94294e-08
6.79481e-08
2.38606e-07
0.00084475
0.00145066
0.00208603
8.14811e-08
-0.00399706
0.00369995
-0.0022652
3.63281e-09
-0.00143405
-6.46478e-08
-2.51708e-08
1.04277e-08
0.000534522
2.15671e-06
-0.00849028
-1.15147e-05
0.0082893
6.52072e-05
1.9536e-07
-0.00337245
9.69432e-08
1.07288e-08
-0.00638356
-4.1008e-08
0.00166581
0.00132656