/*--------------------------------*- C++ -*----------------------------------*\
| =========                 |                                                 |
| \\      /  F ield         | OpenFOAM: The Open Source CFD Toolbox           |
|  \\    /   O peration     | Version:  v2012                                 |
|   \\  /    A nd           | Website:  www.openfoam.com                      |
|    \\/     M anipulation  |                                                 |
\*---------------------------------------------------------------------------*/
FoamFile
{
    version     2.0;
    format      ascii;
    class       surfaceScalarField;
    location    "200";
    object      ddtCorrDdt0(phi);
}
// * * * * * * * * * * * * * * * * * * * * * * * * * * * * * * * * * * * * * //

dimensions      [0 3 -2 0 0 0 0];
oriented        oriented;


internalField   nonuniform List<scalar> 
41499
(
-0.00027373
0.000363367
-8.9639e-05
0.00159104
-0.000593567
-0.00099747
1.11606e-05
0.000389647
-0.00040082
-1.43741e-05
-6.50365e-06
2.08783e-05
7.68421e-05
-1.37432e-05
-6.31061e-05
8.29321e-05
-0.000282592
0.000199669
-3.05287e-05
2.43202e-05
6.20745e-06
0.000292674
3.31795e-06
-0.000295983
-2.99567e-05
-1.47373e-05
4.46915e-05
0.000444034
-0.000285377
-0.000158649
0.00069295
-0.000983103
0.000290155
0.0116679
0.00452063
0.0228415
-0.0289694
0.00612777
-2.14805e-05
-9.04926e-06
0.000225424
-0.000436997
0.000211572
1.5854e-05
-3.18145e-06
-1.26748e-05
-0.0136964
0.00960739
0.00408909
2.91302e-05
-1.61327e-05
-1.29919e-05
0.000418152
0.000362246
-0.000780426
-9.89914e-06
0.000302572
0.0106858
0.0175162
-0.0282021
-0.000130503
0.000114731
1.57747e-05
-0.0615794
-0.00773631
-3.39632e-05
2.10476e-05
1.29139e-05
5.04925e-06
1.0803e-05
-6.26963e-06
1.04605e-06
5.21963e-06
0.0108967
-0.0161906
0.00529374
3.06445e-05
4.61975e-05
-0.000573038
0.000551508
2.15259e-05
6.36542e-05
9.19051e-06
-7.2842e-05
-2.197e-05
3.06351e-05
-8.66483e-06
-0.000308903
0.00124925
-0.000940334
-9.13747e-07
-2.09525e-06
3.00762e-06
1.51243e-05
2.97088e-06
-1.80992e-05
0.0014361
-0.00510806
0.00367184
2.14155e-06
1.29798e-05
2.70074e-06
-3.32604e-06
6.21951e-07
-5.8416e-06
-4.28542e-07
0.00961044
-0.00213934
-0.00747111
7.45112e-05
-4.81991e-05
-2.63105e-05
-0.000339756
-0.000105329
0.000445084
5.7469e-07
2.12477e-06
-0.00162872
0.00191723
-0.000288462
1.2684e-05
2.42012e-06
-1.51041e-05
-0.0513296
0.0236421
0.0276872
1.75893e-05
5.69226e-05
2.34116e-05
-1.47949e-05
-8.61593e-06
-0.000277338
0.00297943
-0.00270211
6.96903e-06
-5.9667e-06
-1.00298e-06
-0.000111409
6.23122e-05
4.90996e-05
0.000393525
-0.000403432
0.00518473
-0.00599807
0.000813292
-0.00946814
0.0111403
-0.00167196
9.74503e-05
-7.70645e-05
-2.03858e-05
8.97941e-06
-8.20804e-05
7.31024e-05
1.47784e-05
8.63167e-06
5.61655e-06
-3.79212e-06
-1.82621e-06
-0.0206959
0.0213814
-0.00068557
0.00848127
-0.0291773
-2.61596e-05
4.19177e-06
0.0151798
-0.0113697
-0.00381011
-0.000898006
0.000961444
-6.34369e-05
-0.0351488
-0.0161809
0.000101743
-0.000101723
-5.9989e-06
4.54462e-06
1.45355e-06
0.00422001
0.00539047
0.0220021
3.95285e-05
0.000353993
0.00447315
-0.00303706
-8.91977e-07
-2.12534e-06
3.01799e-06
0.00323505
-0.00579418
0.00255915
-1.40791e-05
-1.98838e-05
2.23844e-05
6.7488e-06
-0.0570779
-0.0224176
0.0794957
0.000342443
-0.000101695
-0.000240749
-0.00487313
0.00886758
-0.00399444
-1.34974e-05
7.71515e-05
7.22251e-06
-1.97273e-05
1.25068e-05
-0.000936791
-0.00162114
0.00255798
-0.0065828
0.00330932
0.00327346
0.000260438
-0.000177506
-8.04409e-05
9.88509e-05
-1.84106e-05
-2.92819e-05
0.000224966
-0.000195687
-0.000420376
0.000386549
3.38869e-05
0.0156746
-0.0096516
-0.00602312
0.0317815
0.0218714
-0.0536529
-1.05435e-05
1.47471e-05
-4.20765e-06
-0.00207723
0.000448598
-0.0091737
0.00372271
0.00545087
-0.00370727
-0.00287556
4.91956e-08
-5.50714e-05
5.50256e-05
0.0246668
-0.0817448
-6.66603e-05
-4.4749e-05
-0.0286332
0.00443429
0.0241994
0.000439231
-0.000520744
8.1554e-05
0.000425153
-0.000414012
0.00233696
-0.0238809
0.0215439
-0.000497759
0.000456343
4.13977e-05
9.4565e-05
-0.000992565
-1.47327e-05
1.14712e-05
3.26129e-06
1.22501e-05
4.66731e-05
-5.89285e-05
-5.89874e-06
5.98864e-08
-0.000190987
-0.000306832
-0.000702159
7.42992e-05
0.000627874
0.000596415
0.000442963
-0.00103937
-7.92672e-05
-1.17558e-06
-0.0170664
0.0097821
0.00728459
0.00529801
-0.00534639
4.82017e-05
-6.0757e-07
-5.29168e-06
-0.000545596
0.000303191
0.000242399
0.000539748
0.00503782
-0.00557763
0.00019893
-0.000538686
-0.0072219
0.0118189
-0.00459706
-0.0272393
0.0263553
0.000884181
-0.000646448
0.00594434
0.00605689
-0.000872196
0.0313919
-0.0214469
-0.00994495
0.00082282
-0.00113172
6.9527e-05
-0.000771701
1.18405e-06
5.78471e-06
4.86611e-05
-4.86099e-05
-0.00922776
0.00200584
-1.97271e-06
1.05777e-06
-9.16082e-05
-3.88943e-05
6.24562e-06
-1.75446e-06
-4.49757e-06
0.0024897
-0.0499876
0.0474982
-0.0146777
0.0365869
-0.0219094
4.58618e-05
-0.000477673
1.76223e-05
-2.67223e-05
9.10057e-06
-9.49514e-05
4.14142e-05
5.35336e-05
0.000900968
-0.000877363
-2.35991e-05
0.0138311
-0.0029344
-0.00282647
-0.0258067
0.0012891
0.000628127
-0.00335569
-0.0179503
0.021306
0.000687052
0.00374472
-0.00443179
-0.0214687
0.028001
-0.00653233
-3.17488e-06
-1.7541e-06
4.93201e-06
-8.64771e-05
8.60179e-05
4.57515e-07
9.49757e-06
3.65092e-05
-4.60045e-05
-2.03307e-06
2.0356e-06
-5.81423e-05
6.7122e-05
3.6841e-06
-8.08663e-06
4.40165e-06
0.00356196
-0.00130215
-0.00225976
-0.00137732
-0.00560599
0.00698314
-0.00030581
0.000345328
0.000373614
-1.66638e-05
-0.000356945
-0.00248158
0.00220423
0.00584137
-0.0107146
0.000160362
-0.000189644
0.00867274
0.0227192
9.12502e-07
-4.08466e-06
-0.00744105
0.00779941
-0.000358638
4.32078e-05
-0.00296677
0.00292342
0.0117938
-0.00790978
-0.00388397
-0.000616821
0.00156461
-0.000947814
-0.0027071
0.000250523
0.00245656
6.77342e-06
-6.70294e-06
-7.04544e-08
1.09802e-05
-2.66989e-06
-8.31109e-06
-2.4819e-06
2.67931e-06
-1.90772e-07
0.0027912
-0.00678954
0.00399825
0.000296113
-0.000495804
0.000199668
-3.98836e-05
-4.17273e-06
4.40577e-05
-0.00308505
0.00538063
-0.00229557
0.0251332
0.0525471
-0.0776803
1.37369e-05
-1.33879e-05
-3.52866e-07
0.00214374
-0.0095848
0.00252307
-0.00950654
0.00698333
-5.36791e-05
0.00039612
-5.79737e-06
6.53839e-06
-7.39425e-07
-0.00254975
0.000390398
0.00215934
-3.03511e-05
3.43305e-05
-3.98016e-06
2.50476e-06
3.7383e-06
0.00271732
0.000262151
-2.05186e-05
8.93249e-06
1.15854e-05
-0.00100668
0.000109921
0.000896729
-0.000364446
-0.000181153
-0.00045728
0.000526806
1.44572e-05
-7.33175e-06
-7.12509e-06
0.000199414
9.67046e-05
-0.00778041
-0.00139332
0.000154979
0.0038754
-0.00403041
-6.31278e-06
5.92807e-06
3.84328e-07
-0.000443426
0.000137597
0.00519096
-0.0045039
-0.000978266
-0.0120773
0.0130555
1.01324e-05
-9.19991e-06
-9.32808e-07
8.53643e-06
3.80599e-06
-1.23426e-05
5.4345e-05
0.000451532
-0.000505858
-1.49284e-05
4.38455e-06
-0.000628096
0.00092797
-0.00029987
-0.000817802
0.00161882
-0.000801036
-0.00919927
0.00381213
0.00538698
-0.000596796
0.000139519
-1.36703e-05
2.48509e-05
-1.11811e-05
5.63992e-06
-8.57208e-07
-4.78339e-06
-0.015754
0.0147758
0.00459925
-0.00768428
-2.28169e-06
5.87984e-06
-3.59817e-06
-0.00013445
-9.97326e-05
0.000234183
-0.0102704
0.000802394
0.0254431
-0.0167703
5.74815e-06
1.0252e-06
-6.59341e-06
9.14354e-06
-2.55263e-06
-0.000380754
-0.000625964
0.000113612
0.000260016
-0.000324065
-0.00199493
0.002319
0.00359827
-0.00499959
0.0014013
-0.00284023
0.00520811
-0.00236788
3.37269e-05
-6.36842e-05
0.000171981
5.7777e-05
-0.000229761
0.0173917
-0.0217679
0.00437597
3.63672e-06
-1.57963e-06
-2.05922e-06
1.81672e-06
3.85264e-07
-2.2026e-06
-2.83894e-06
3.73755e-06
-9.00512e-07
1.23926e-07
2.37431e-06
-2.4895e-06
-0.00102123
0.0046195
0.00729888
0.00449494
-2.16493e-05
-7.33028e-05
-8.57951e-05
6.52737e-06
-4.12597e-05
8.9975e-06
3.2258e-05
-0.00157108
0.00106438
0.000506692
-2.3091e-05
-5.89889e-05
1.0509e-05
-1.97254e-06
-0.00013382
-4.77428e-05
0.000181565
-0.0153878
-0.0118515
-1.33912e-05
-8.21831e-07
1.42126e-05
-0.0191875
-0.0308906
0.0500781
-0.000109233
2.27552e-05
1.91218e-05
1.10873e-05
-3.02092e-05
-7.04268e-05
0.000134915
-6.44911e-05
-0.00423709
0.00336351
0.000873626
0.00199234
0.0153995
0.0142795
-0.0117566
0.0305852
-0.0198995
0.000517771
-0.00117464
0.000656844
0.00915615
-0.0199478
0.0107919
1.3897e-06
-1.26164e-06
-8.00753e-06
1.69436e-06
2.71491e-05
7.35261e-06
-3.45014e-05
-0.0629639
0.0437763
0.000226484
-0.000269081
4.26035e-05
-0.00100203
0.0118314
0.0136116
1.99654e-05
-2.34232e-06
8.76779e-06
5.68917e-06
0.00351953
-0.00347645
0.000377952
-0.000377953
-0.000668678
-0.000542208
0.00121088
-0.00400563
-0.00519362
-1.85903e-05
-3.79154e-05
5.65035e-05
-0.000754729
6.28912e-05
0.000691887
-3.44543e-05
2.68177e-05
7.6371e-06
1.37582e-05
1.68773e-05
-3.18981e-05
-5.38976e-05
0.0236877
-0.0213507
-0.000299253
2.55319e-05
-8.27595e-05
4.21483e-05
4.06085e-05
0.000317036
0.000691439
-0.00100849
-0.00512993
-0.0119362
-0.000127723
0.000277819
-0.00015007
-0.000803292
0.00152078
-0.000717487
0.00171965
-0.00702387
0.00530418
-0.00313641
-0.00867057
0.0118069
0.00813063
-0.00641101
0.000393224
0.000481882
-0.000875112
-2.30954e-06
1.02272e-05
-7.91949e-06
-0.000877822
0.000249729
0.000151772
-0.000906499
-0.00887274
0.00602006
0.00285269
0.000698604
-0.000846043
0.000147373
-0.000234971
0.000371146
0.000260283
-8.3271e-05
-0.000176883
-0.00131359
0.000644911
9.34735e-06
-1.16562e-05
-0.00093876
0.000456733
0.000482047
0.000231365
-4.88083e-06
4.62199e-06
-1.81576e-05
1.35326e-05
-0.000127607
3.60034e-05
6.43682e-05
6.39643e-06
-6.12877e-06
-2.67231e-07
-1.08331e-05
1.80554e-05
0.000350441
0.00301308
-0.0355165
0.0598355
-0.024319
0.000526847
-0.000434816
-9.20261e-05
0.000974662
-0.00618039
0.00520609
0.0849741
-0.0385444
-0.0464296
7.43322e-05
-8.7828e-05
-0.000788855
0.0007638
2.5065e-05
0.010374
0.00546381
-0.0158378
-2.45937e-05
1.00783e-05
1.45176e-05
-0.000124657
-4.7771e-06
4.4233e-06
3.54394e-07
-0.000864465
-0.00147293
0.000669643
-0.0515482
-0.0246822
0.0762304
0.0356836
-0.0188977
-0.0167856
7.01109e-05
-0.00255175
1.05297e-06
7.63529e-07
-0.0130661
-0.0020807
0.0151466
0.00256978
-0.003591
1.6141e-05
1.87722e-05
-3.493e-05
-4.1861e-06
1.90374e-06
0.06425
-0.0324685
0.00175738
-0.00213741
0.000379997
0.000106914
-0.000241364
-5.46505e-06
3.90313e-06
1.56197e-06
-0.00226616
0.00132944
-0.00102281
0.000673987
0.00034874
0.0822957
-0.0476449
-0.0346506
3.01661e-05
-1.28782e-05
-1.72848e-05
-0.00807495
0.00679266
0.00128218
-4.54117e-06
-7.82196e-05
0.0193319
-3.4002e-06
1.33255e-06
2.06685e-06
1.23201e-05
-1.08478e-05
-1.47238e-06
-0.000349933
-7.04025e-05
-0.000379197
0.000412423
-0.000182451
0.000112025
-0.00430485
0.00248381
0.00182108
1.36181e-05
-2.44638e-05
1.08457e-05
2.59707e-06
-7.99473e-06
5.39957e-06
-1.09554e-06
-3.76442e-05
3.87372e-05
-0.00809226
0.00106838
-0.000247724
0.0028175
-0.00120169
-0.000801972
0.00200383
-0.000162816
-0.000410234
3.96265e-06
1.95069e-05
-2.34703e-05
2.4444e-05
-1.46491e-05
-9.79481e-06
2.17031e-06
6.64194e-06
-8.81318e-06
-0.00395439
4.18413e-05
-4.56493e-06
-3.72782e-05
3.65308e-05
-2.03967e-05
0.0193585
-0.0291026
2.74073e-05
-2.40138e-06
-2.50055e-05
-0.00853844
-1.16993e-05
0.00855011
5.63412e-06
-2.7824e-05
2.21848e-05
0.0171453
-0.00798904
0.000155378
0.000104927
-8.2129e-06
8.25447e-05
-0.00224239
-0.0026852
0.00492761
-0.000402885
2.36898e-05
0.00227221
-0.0111022
0.00883009
4.66818e-06
2.27391e-05
-0.000557037
0.00017243
0.000384609
1.07892e-05
1.93778e-05
0.0175107
-0.0321884
0.000162403
2.50108e-06
-2.70931e-05
-3.68496e-05
3.57522e-05
-2.03385e-05
4.74886e-05
0.0307821
-0.0282924
-0.00248096
-0.00561129
0.000499844
0.00011762
-0.000617458
0.00127277
0.0025223
-0.00379489
-0.00380632
0.00415907
-0.000352739
-4.26966e-06
-6.7986e-06
1.10669e-05
3.37191e-05
-1.59936e-05
-1.7729e-05
0.0820944
-0.0569612
0.000552624
1.1371e-05
-0.000563976
-0.000324214
1.16163e-05
-0.000101631
9.00155e-05
-1.39673e-05
1.03036e-05
3.66442e-06
4.86251e-05
-0.000295634
0.000247012
0.00167119
-0.000784715
-0.00088637
-0.00134975
0.00225178
-0.000902038
-1.76395e-05
-2.2292e-07
1.7865e-05
-2.00595e-05
7.56233e-06
1.24983e-05
3.48007e-06
-1.44829e-05
1.10037e-05
-0.000129396
-0.000391669
0.000521067
1.97441e-07
-2.0904e-05
2.07065e-05
0.00144221
-0.00135455
-8.76702e-05
-2.83314e-06
-1.94363e-06
-0.000336817
0.00049274
-0.00015593
-2.03212e-05
-1.59797e-05
3.51015e-05
0.000574279
-0.000163221
-0.000411077
0.0030007
-0.000304403
-0.0026963
-3.07409e-05
-3.7131e-06
-0.000528396
0.00030308
0.000225318
0.00106199
0.000490927
-0.00155294
-0.00109839
0.00139142
-0.000293029
-0.0278188
0.0103571
0.0174617
0.00202965
-0.00354762
0.00151795
0.000897055
-0.000580016
0.0745461
0.0291173
-0.000533118
0.00159501
5.81595e-05
0.00131866
-0.00285949
0.00154085
-1.96642e-05
1.9422e-06
1.7721e-05
-0.00233056
0.0049009
-0.00257028
0.000143523
0.00029337
-0.000436896
-6.93627e-06
8.81067e-06
-1.87053e-06
0.000233528
0.000210504
-0.000600447
-0.000603376
0.00120383
-0.00197615
0.000626407
6.95613e-07
5.07366e-07
-1.20096e-06
1.17902e-05
-1.15752e-05
-2.13811e-07
0.00942632
-0.00570364
2.88851e-05
4.83353e-06
0.000995533
0.000310226
-0.000344347
3.40908e-05
2.36611e-05
3.79322e-06
-2.74551e-05
0.0189593
-0.0107666
-0.00819333
-0.0016185
0.000406514
0.00121199
-0.00410913
0.00648931
-0.00238017
2.69401e-06
2.92277e-06
0.0183542
-0.02171
-0.00218193
0.00185787
-0.000446923
0.000501275
0.000360219
0.00264047
-7.24106e-06
3.0523e-07
1.10025e-05
-1.57387e-05
4.73609e-06
0.0126847
3.2942e-05
8.8957e-06
-0.00387079
0.00496174
-0.00109103
0.000855817
-0.000715251
-0.000140605
0.000489063
-0.00108951
-0.00155492
-6.35924e-05
-0.00785266
-0.000685781
8.60205e-06
-7.92376e-06
-6.78902e-07
6.24684e-05
-4.51807e-05
-1.72956e-05
-0.000936511
0.000197564
0.000738938
-0.000105325
-0.00154747
0.00165277
-0.00123978
0.000163679
0.00107601
-1.06592e-05
-6.97817e-06
0.00249868
-0.000741181
7.61117e-06
-0.000552998
0.00054539
0.000289746
-0.000229163
-6.05727e-05
-0.000694014
-0.00194345
0.00263748
-0.000383974
-0.0293782
0.0207936
0.00858465
4.48283e-05
-0.000184008
0.00013918
1.23832e-05
-1.59687e-05
3.58946e-06
2.07701e-05
-4.1108e-05
2.76341e-05
-2.42872e-05
-3.34329e-06
4.6272e-06
-4.06579e-06
-5.61281e-07
-0.00509756
0.00840687
-0.00104946
0.0011622
-0.000112843
-0.00416838
-0.00470428
0.0044648
-0.0174438
0.012979
0.0041537
-0.00309887
-0.00105483
0.00248395
-0.00202274
-0.000461218
6.98936e-06
3.13724e-06
-0.00113782
0.00155268
-0.000414862
0.000448458
-9.21504e-06
2.91329e-06
2.07484e-05
-0.00208193
0.00102464
0.00105765
-2.81034e-05
1.4433e-05
0.0182865
0.0303007
-0.0485866
0.00102555
-0.00373269
-5.72786e-06
-6.18789e-06
1.19153e-05
-1.28575e-06
5.91356e-06
-0.00448888
0.0050286
0.0390125
-0.0214963
-0.00129958
-0.00677541
0.000370829
-0.0003222
7.86111e-05
4.66376e-05
-0.000125249
-0.000252154
-0.000268568
1.19441e-05
2.99236e-06
-2.29462e-06
-0.0109589
-0.00273752
0.00137346
-0.00187615
0.000502693
0.000144055
0.000382264
-0.000526308
0.00126763
-0.00106324
-0.0002044
-3.87351e-06
1.03223e-06
3.69026e-07
-1.37604e-05
0.00481841
0.0103614
0.0250063
-0.0116789
-0.0133275
1.52874e-05
-2.60324e-06
5.60139e-05
-4.37645e-05
-0.00882497
0.00334547
0.00547947
4.37862e-05
-1.87166e-05
-2.50699e-05
0.00593272
-0.00572055
-0.00021217
-0.00070251
-0.00184724
-3.13203e-06
-1.33257e-05
1.64575e-05
9.47785e-06
1.50248e-06
-1.09807e-05
0.00523652
-0.00229673
-0.00293981
-0.00243084
0.00165847
0.000772374
0.00940154
0.0206168
-0.0300177
0.00147233
-0.000126925
-0.00134541
-0.00296291
0.00393768
0.0309083
-0.0306252
-0.000283168
-0.00440936
0.00369868
0.000710513
-6.09445e-05
-6.6661e-05
-0.00133035
0.000231986
-0.0036743
-0.00515073
-0.00391752
0.00407248
1.0719e-05
-6.18999e-06
-4.53256e-06
-0.024609
0.0340106
-0.0107746
0.0266812
-0.0159066
-0.00118281
-0.000899181
0.00061531
0.000214445
-0.000829813
-0.00035789
0.000501949
0.00064105
5.19024e-05
-0.00077964
-0.000759094
0.00153872
0.000140444
-0.00462928
0.00150594
-0.00249927
0.000993329
-0.000408414
0.000493666
-8.52486e-05
1.1648e-05
-0.000599473
-0.000115797
0.000402419
-0.000247041
0.0189905
0.0136146
-0.0326051
-0.00152537
0.00142004
0.000511047
4.04627e-05
-2.9979e-05
1.56039e-05
0.00128927
-0.000356467
0.000378599
-2.21283e-05
0.0259831
1.93039e-05
5.69016e-07
-1.98724e-05
-0.00173794
-0.00075416
0.00249212
0.000100053
-0.00114956
0.000189793
-0.000299913
-0.000305483
0.00106503
-0.000196411
-0.00086862
-0.00242977
0.000918901
0.00151085
1.41838e-05
-7.84354e-06
-6.33463e-06
0.00121181
0.000230405
-0.000284504
-0.000243882
1.18001e-05
-3.19821e-06
-9.80769e-06
4.08154e-06
-1.09997e-05
-0.00310961
-0.00213387
0.00524349
1.93184e-05
-5.70048e-06
-0.0359509
-0.0220098
2.97831e-05
6.76666e-05
8.76573e-05
-0.000311718
0.000224056
-0.00244564
0.0252871
0.000491122
-3.95842e-05
3.28107e-06
3.11549e-06
-0.00536029
-0.00242022
-9.52329e-05
7.51517e-05
0.00149544
-0.00478178
0.00328634
-0.00194128
0.00201132
0.00403189
-0.00278833
-0.00124366
-7.95608e-05
-0.000346862
0.000426398
2.2123e-06
-0.000111447
0.000438006
-0.000931148
0.000493146
5.18953e-06
2.24428e-05
-1.1279e-05
-8.78037e-06
0.00196098
-0.00566825
-4.61407e-06
2.15436e-06
2.46031e-06
-0.00758806
0.000235257
-0.000251466
1.62059e-05
-0.006761
-0.0131869
2.84082e-05
1.5376e-05
-0.000281824
-0.00011713
0.000398948
1.88262e-05
-4.40698e-06
-1.4422e-05
0.106783
-0.0322367
-1.85978e-05
4.77789e-07
4.60982e-05
-4.65761e-05
-0.000572776
-0.00219155
0.00276437
0.0373292
0.00398933
0.00124718
0.00471933
-0.00213765
-0.00258167
0.00518401
-0.0407005
-0.000233805
0.000967374
-0.000733559
-0.00516036
0.0155343
1.24101e-05
-2.37457e-05
1.13357e-05
-0.000314214
-0.000339052
0.00100817
0.000512616
0.000180395
-2.00334e-05
-1.79712e-06
-2.81729e-06
3.96472e-05
-3.91716e-05
0.000283626
0.000118787
-1.59041e-06
1.57785e-05
-0.00300894
0.00231495
-6.9353e-06
-1.17157e-05
1.86518e-05
0.000969664
0.000621385
-0.00131345
0.00288218
-0.00156869
-0.00164685
-0.000783983
0.000289396
0.000638581
2.81127e-06
-1.2968e-06
-1.5157e-06
0.0251817
0.0504995
-0.0756812
0.00269811
-0.0049404
-0.00553334
0.00383801
0.00169537
-0.00647818
0.0250508
-0.0185727
1.35263e-05
-2.80603e-06
5.31673e-06
-6.31583e-06
1.0003e-06
-0.00119694
0.000452823
-0.00107737
0.000624543
-0.000356467
7.46402e-05
0.0401461
-0.00923777
7.20981e-06
-7.80526e-06
5.95584e-07
8.27137e-05
1.12578e-05
-9.11628e-06
-5.65322e-06
5.40336e-06
2.49989e-07
0.000404307
-0.000404316
1.08646e-05
-9.5282e-06
-1.33673e-06
1.97933e-05
-1.56094e-05
-4.18347e-06
8.82921e-05
-0.0215572
0.00127565
0.00764177
0.00803262
9.26623e-06
1.51789e-05
0.00400757
-0.00140529
-0.00260229
0.00933807
-0.033219
4.94155e-05
-2.86441e-05
1.219e-05
-1.71111e-06
-1.04761e-05
-0.00311163
0.00336221
-8.31807e-06
4.46501e-08
1.17682e-05
-1.18175e-05
6.46726e-06
-4.77956e-06
-1.6892e-06
0.0186013
-0.00607939
-1.21544e-05
1.36567e-05
0.000115969
0.000949061
1.09219e-06
-3.12137e-06
-3.62388e-06
0.000268802
-0.000252964
-1.58257e-05
-0.0203035
0.00883069
0.0114728
9.61374e-06
-9.57027e-06
0.000698321
0.000244128
-0.000942464
0.00659144
-0.00431917
-0.000494581
0.000365184
2.35501e-05
5.51994e-06
-8.65514e-06
3.13423e-06
0.000156791
0.0015144
3.83808e-05
8.29207e-06
0.0792948
-0.0541131
1.38433e-05
-1.61271e-05
2.28361e-06
-6.5769e-05
7.14957e-07
6.50551e-05
9.11158e-06
3.07841e-06
8.94628e-06
0.000216477
2.61582e-05
-4.02409e-05
0.000420908
-0.00029398
-0.000126912
4.70267e-05
0.0002134
0.00174274
-0.001225
1.16781e-05
-7.05666e-06
-5.01773e-06
-8.94923e-06
0.020046
-0.0128385
-0.00720756
0.00205205
0.00150989
-0.000332019
0.000204281
0.00148914
0.000994799
0.00159045
-0.00290391
-0.00375241
0.00142203
7.31245e-05
7.63337e-06
-2.1145e-06
-0.0226995
0.0162213
-0.00571918
0.00906464
-0.0666682
0.0670554
-0.000385459
-2.82876e-06
-1.68358e-05
0.0313247
-0.00534152
1.34481e-05
-2.03818e-05
7.60656e-06
4.77864e-06
-1.10117e-05
-5.45156e-06
1.64631e-05
0.00107122
-2.33052e-05
8.19137e-05
-8.53747e-06
-7.33767e-05
0.0148856
0.00212713
-0.0315053
-0.00180594
0.000604156
0.00182672
0.00654769
-0.00837456
-0.00026881
-9.07574e-05
0.000102374
-0.00104058
0.0033728
-0.00233232
0.00455127
0.004875
-0.0035447
-0.00203175
0.00557651
1.31794e-05
-1.59412e-05
2.76128e-06
2.60898e-05
-2.22876e-05
-3.80323e-06
0.00966058
0.00929865
3.32657e-06
-5.15312e-07
-0.0227077
0.00240425
-0.000422838
0.00084092
-6.18748e-06
3.90533e-07
0.0127284
-0.0274866
0.0147581
-0.00451728
4.78507e-05
-7.0941e-05
-0.00024788
0.000395586
-0.000147748
-6.54765e-06
-3.25971e-06
-9.91721e-05
0.000101385
1.61712e-05
-7.12425e-05
5.37185e-06
-8.32256e-07
-1.53944e-05
4.77748e-06
1.06167e-05
-2.35018e-07
1.10997e-05
1.83678e-05
9.35563e-07
0.0608027
1.85126e-05
-1.65714e-05
-0.000280183
0.000262835
1.7358e-05
2.29516e-05
-8.8718e-05
4.71023e-05
-0.000294994
0.000600683
-0.00631987
-4.86218e-05
7.32311e-05
-2.46067e-05
0.000499678
-0.000288981
-0.000210694
0.0891303
-0.0239092
-0.0652188
0.0234386
-0.0107102
1.12826e-06
-2.02e-06
3.42348e-05
-1.25651e-05
-2.16703e-05
-1.49787e-06
6.22121e-07
8.73526e-07
-0.000240995
-0.000196004
0.000663956
-0.00375204
0.00308819
-2.54991e-05
1.88412e-05
6.65524e-06
1.22247e-05
1.51157e-06
-0.00100838
-0.00279792
1.44642e-06
-7.9913e-06
-0.015526
0.0041266
0.0113994
-0.00718017
0.00580279
-4.51782e-05
-4.34644e-05
1.28146e-05
3.06499e-05
2.96445e-05
-0.00443902
-0.0110151
0.0036445
0.0073711
0.00160947
-0.000137145
7.8366e-07
2.85251e-06
0.00806267
-0.0111991
-1.24025e-05
-3.10621e-05
0.000404313
-0.000779639
0.000375287
-0.000717183
0.000153444
8.23733e-05
-0.000235816
7.35868e-05
8.32699e-06
2.26261e-06
1.62493e-05
1.35775e-05
-2.1717e-05
8.13616e-06
5.57268e-06
-9.84267e-06
0.000384264
-5.05291e-05
-0.000333737
-0.000408482
-0.000469344
-0.0282682
0.046555
0.00188412
-0.00175901
-0.000125122
3.72478e-06
-1.47365e-05
-6.54017e-05
6.08593e-05
0.000114957
-0.00050806
0.000393119
-0.000427535
0.000457002
-1.00882e-05
2.08784e-05
-0.00644066
0.014578
-0.00813681
3.84559e-06
-2.57211e-05
2.18741e-05
0.0595817
0.0139366
-0.0735182
-0.000480611
0.000842905
-0.00884533
0.0285572
-0.0197118
-2.90182e-05
-1.77054e-05
4.67257e-05
0.0149766
-0.0105118
0.00171925
-0.00482888
6.94343e-06
-3.48813e-08
-6.91821e-06
2.78255e-05
-0.00020474
0.000176941
-0.00535154
0.00251136
-2.64943e-06
-1.20833e-05
0.000316711
6.75273e-05
-0.000233235
-5.27545e-05
-4.08294e-05
9.35826e-05
-8.40229e-05
2.58406e-05
5.81802e-05
-0.00126381
-0.000380992
0.00164487
-0.000798684
0.0011919
-0.000103352
4.393e-05
5.94234e-05
1.64973e-05
-1.29589e-05
-3.53878e-06
0.0127614
-0.0088806
-0.0038807
0.0285893
-0.00286838
-0.025721
-0.0321756
0.0159274
0.0162481
-0.000633212
-6.60965e-06
0.0006398
4.48177e-05
-6.34085e-05
7.6581e-06
-9.39468e-08
-7.5659e-06
0.0123339
0.0085092
-0.0208433
1.19074e-05
-1.84108e-05
1.2082e-06
4.43169e-06
-7.7345e-05
2.45913e-05
4.20828e-06
-1.87145e-06
-2.3376e-06
-1.23664e-05
3.95809e-05
-2.72212e-05
-0.000131952
-0.000105734
0.000237689
0.0250688
-0.0127352
-0.000373972
-0.000183055
0.0119556
0.0130507
2.14796e-05
-2.49089e-05
3.42609e-06
-0.00559228
0.000484201
-1.81336e-05
5.78055e-05
-3.96721e-05
-6.80727e-05
-2.62722e-06
-2.83813e-06
0.00577008
0.0538115
3.51547e-05
0.000345585
4.18248e-05
1.41902e-05
0.000540648
-0.00115748
-0.000601106
6.71908e-05
0.000533915
0.000112495
-1.0731e-05
0.00490222
-0.00211105
0.00186069
0.000667474
-0.00252814
-0.00338166
-0.00215161
0.00248432
0.00152317
2.46059e-07
8.7325e-06
-8.98047e-06
0.00672215
0.0060393
-6.45635e-06
-4.00662e-06
1.0462e-05
1.59827e-05
-4.5e-05
-0.00284341
-0.0102232
9.33823e-06
-3.35845e-06
-5.97956e-06
-1.9249e-05
2.32095e-05
-3.38135e-05
0.000205794
2.87263e-08
0.0134475
0.0222363
2.86568e-06
8.60545e-06
2.37065e-07
1.0743e-05
1.27336e-05
-4.91472e-05
-0.0015665
0.000377263
0.00118919
1.7937e-05
-8.33389e-05
-0.00180843
-0.000206026
0.00201447
-5.42399e-05
-0.000498539
0.000506151
-0.00022471
0.000228028
1.33598e-05
-9.87822e-06
-3.48147e-06
1.4937e-05
-1.25177e-05
-0.0105098
0.0295002
-0.00175753
0.00122434
-3.34935e-05
2.11226e-05
1.87041e-05
2.06801e-05
1.60329e-06
-2.22849e-05
-0.0141231
0.0134414
0.000681895
-6.27123e-05
-3.90224e-05
0.000224091
-0.000177077
-7.96588e-06
2.33189e-06
1.41645e-05
-0.000188022
5.6072e-05
0.00144496
0.00105379
-9.47606e-06
2.09592e-05
-1.14835e-05
-0.00125656
-0.000314526
0.00125198
-0.00261921
0.00136723
9.7064e-06
-1.2847e-06
-8.422e-06
-9.38387e-06
0.000348744
-0.000339351
3.24478e-06
-0.000384424
0.000381133
0.00645088
-0.000635331
-0.00581553
1.3743e-05
-4.11002e-06
-9.63171e-06
1.03916e-05
-2.04787e-05
-0.00246117
-0.0013362
0.00379744
-0.000253447
-4.64651e-05
-0.0194908
0.0699903
-0.00103782
0.00113783
-8.24913e-06
-1.72515e-05
-0.00105395
-0.00544293
0.00649681
-0.00627327
0.00356248
0.00271077
-0.0138047
0.00736391
-2.3247e-05
2.38166e-05
2.11362e-06
2.72151e-05
0.000660719
-0.00147853
0.000787202
-0.000344236
2.30618e-05
-2.1056e-06
-2.09574e-05
0.00400706
-0.00406374
5.67773e-05
-0.000319377
0.00212494
-0.00190234
-0.000222579
0.000411532
0.0317606
0.00838542
4.60048e-05
-3.39633e-05
-1.2048e-05
-6.60713e-05
-6.99647e-05
0.000136036
1.06858e-05
-2.0161e-05
-0.0240609
0.0152155
-0.00048775
0.00037132
0.000116428
-0.000100917
-0.000755634
0.000856431
-0.00137595
0.00216016
-0.000784133
-2.05381e-05
-8.28148e-05
0.00121661
-0.00367776
-0.0169272
-0.0108919
0.0127852
-0.00561369
-0.00717176
0.00900628
-0.0151525
0.00614634
0.0192649
-0.0102587
-0.000124816
2.56456e-05
5.95084e-06
3.38746e-06
0.000803059
-0.000588652
0.000486086
-0.000342233
0.00194944
-0.000443467
-2.77025e-06
1.59493e-05
-0.0110614
0.0165698
-0.0055083
-1.06481e-05
3.31635e-06
-2.5434e-07
-2.51382e-05
2.53918e-05
-0.00597459
-0.0262013
3.32988e-05
-9.17928e-06
-2.41194e-05
-0.000321888
-0.00143565
-9.06493e-06
-6.32975e-06
0.000845872
0.0031613
0.0015945
-0.00237416
1.64113e-05
2.41594e-06
-3.76003e-05
1.94651e-05
-0.000532096
0.000382012
0.00015009
0.00135337
-0.00194962
0.000596296
-0.00126102
0.00312173
0.000868771
-0.00255588
0.00168708
0.00109938
3.86999e-05
-0.000419443
1.55182e-05
-0.000648751
-8.52772e-05
9.20062e-06
2.40981e-05
2.26648e-06
-2.96395e-06
6.89318e-07
-0.000460906
-8.91855e-05
0.000550095
0.0397913
-0.0580006
0.0182089
-0.00209748
0.000476338
1.41149e-05
-0.00106474
0.000621809
0.000442932
-4.02869e-05
2.8944e-05
1.13427e-05
-0.00328292
-0.0148219
0.0181057
0.0256874
-0.00632916
-4.67831e-05
0.000356989
-3.60376e-06
2.42831e-05
-9.91377e-05
0.000651773
6.33006e-05
-0.000208677
0.000145369
1.28356e-05
-1.83306e-06
2.03233e-07
-1.70253e-06
0.0239718
0.000172358
0.00027957
-0.000451953
0.000447809
-0.000304285
7.39792e-06
-0.000289985
-0.000191373
-0.000204705
0.000396048
0.000300929
0.000168533
-0.000469457
-0.00178427
-0.00448902
-0.00238368
0.000421432
0.00196228
-7.15854e-06
-3.04526e-06
1.02045e-05
-8.8474e-06
8.84693e-06
0.00130841
0.000588551
-0.00189695
3.99019e-07
1.63929e-06
4.66584e-05
-6.48458e-07
-0.000117108
0.00359111
-0.00347401
-5.93975e-05
-0.00040649
0.000465897
2.95901e-05
-1.33121e-05
-1.62788e-05
-0.000431489
0.000442865
-0.000476522
0.000958404
-3.21961e-06
-1.80966e-07
-1.21898e-05
5.03085e-06
6.39943e-06
1.2584e-06
0.0377391
-0.00456563
-0.0331734
-5.3994e-06
-4.94961e-07
5.89385e-06
-0.0171682
0.00610684
5.80073e-05
-6.20352e-05
4.02732e-06
0.00731651
-0.00837051
-2.31e-05
-0.00101474
-4.07978e-05
2.60594e-05
1.6024e-05
-3.61313e-06
-0.00407865
-0.00151369
0.000210276
4.17158e-05
-0.000251986
-0.000521976
-7.91287e-05
3.09471e-06
2.08084e-06
-5.17322e-06
-0.000140575
0.000200152
-5.95772e-05
0.00500805
5.14562e-05
-0.00505945
-0.00217305
0.000916496
0.00318694
-0.0126842
0.00949743
9.08906e-05
-7.62158e-05
-1.46724e-05
2.10334e-06
1.63112e-07
-3.82271e-06
1.73998e-05
0.00459804
0.000410027
4.07897e-06
-6.58773e-06
2.50897e-06
-0.00293835
0.00608211
-0.00314388
5.18756e-06
3.08175e-05
6.00744e-05
6.33961e-05
-2.0652e-05
-4.27434e-05
0.000292354
-0.000352036
0.00415515
-0.00401476
0.0224624
2.58459e-06
5.5358e-05
-5.79459e-05
-0.0165911
0.0185835
-1.86096e-05
6.49341e-05
-4.63255e-05
2.19208e-05
4.16831e-06
3.50413e-06
3.0326e-06
-0.000691979
-0.00029112
-1.85438e-05
-2.17435e-05
0.0338075
0.0059837
-5.85459e-05
-0.000672427
0.000730968
0.0056485
-0.000868547
-0.00477983
-1.9186e-05
-2.96649e-06
2.21512e-05
1.51974e-05
1.23619e-06
-7.8317e-06
2.22336e-05
-1.1841e-05
2.50848e-07
-2.34974e-05
0.00844419
-5.05639e-06
1.09408e-05
-5.8821e-06
9.67068e-06
-0.000169961
0.000470882
-0.00738421
0.0387089
6.37163e-06
-4.39724e-05
0.000214934
-0.000151648
7.41214e-05
-4.71424e-05
-2.69795e-05
0.0115207
0.0555345
-0.000488983
0.000430437
-0.0126933
0.0187685
-0.00607516
-0.000121058
0.00142947
0.000174277
0.00204095
7.16311e-06
-3.47931e-06
1.10463e-05
0.00124525
0.000638878
0.00137114
-0.00821862
0.0068474
-0.000762063
-0.00104401
5.32467e-06
1.07429e-06
0.0311037
-0.0217528
-0.00935127
-0.0082168
0.00520157
0.00301525
0.00828737
-4.57681e-05
0.000124379
0.00011968
-0.000260255
1.17028e-05
-6.2183e-05
5.0479e-05
-0.00240732
-0.00189962
0.00430697
-0.000638268
0.000166273
0.00047202
-8.79024e-05
6.73641e-05
0.000579426
-0.000540641
-1.08812e-06
4.18519e-06
-6.05416e-05
0.000284531
-0.000223991
0.000767665
-0.00370599
5.59172e-05
-5.333e-05
-3.13919e-05
4.41262e-05
0.00033557
-0.000220619
-0.0605179
0.0410271
-0.00268986
0.00164929
-0.00400545
0.00099647
0.00253708
-0.00592501
0.00338803
1.53576e-05
-1.30962e-05
0.0147138
-0.00152956
-0.0131838
-0.00111442
0.00421173
-0.00309734
0.023653
0.00745062
0.0066871
-0.00222207
-0.00446506
0.012185
-0.0175788
0.00539368
0.000212477
0.000174113
0.00130388
-0.000724328
0.0025058
-0.00588735
9.94404e-05
8.94337e-05
-0.000188875
-0.000234759
-0.000200051
-0.000131827
-0.00808499
2.99158e-05
-2.81323e-05
-1.78008e-06
0.000191153
0.000260358
0.00092707
0.000423805
-0.000228033
0.000400465
4.30942e-05
-1.60457e-05
-2.70491e-05
0.000128139
0.000161608
-0.00531017
0.00266978
0.00264045
-7.16296e-06
2.10795e-06
2.8112e-05
-2.17418e-05
-0.0291003
0.0100165
0.0190837
-0.00614063
0.00739096
-0.00125034
1.42277e-05
-7.47739e-06
-6.75035e-06