/*--------------------------------*- C++ -*----------------------------------*\
| =========                 |                                                 |
| \\      /  F ield         | OpenFOAM: The Open Source CFD Toolbox           |
|  \\    /   O peration     | Version:  v2012                                 |
|   \\  /    A nd           | Website:  www.openfoam.com                      |
|    \\/     M anipulation  |                                                 |
\*---------------------------------------------------------------------------*/
FoamFile
{
    version     2.0;
    format      ascii;
    class       volScalarField;
    location    "200";
    object      k;
}
// * * * * * * * * * * * * * * * * * * * * * * * * * * * * * * * * * * * * * //

dimensions      [0 2 -2 0 0 0 0];


internalField   nonuniform List<scalar> 
27915
(
0.000158393
0.000194381
0.0269944
0.000139211
0.000145571
0.000162751
0.000132658
0.0233844
0.000144653
0.0419494
0.00017443
0.0357518
0.0036461
0.000132575
0.000138473
0.000139025
0.00434089
0.000147288
0.000205308
0.0234411
0.0043094
0.000152364
0.0229281
0.000146446
0.000139036
0.000136479
0.0255092
0.000145424
0.0131158
0.000157114
0.00014389
0.000174324
0.000135727
0.000135375
0.0267474
0.000135413
0.000150708
0.000136478
0.000211511
0.000145663
0.000155475
0.000150313
0.000217602
0.000140044
0.00927318
0.000145923
0.000141725
0.000172974
0.000147708
0.000141821
0.0250737
0.000203297
0.0230716
0.00015732
0.000158138
0.000141689
0.000142622
0.0035652
0.00354783
0.00014373
0.000233134
0.00016472
0.00845771
0.00592088
0.000145359
0.000214282
0.0368628
0.0250758
0.0266612
0.000143527
0.000392577
0.000146674
0.000147336
0.0066689
0.04064
0.000998777
0.000156885
0.000133852
0.01103
0.000255524
0.00016226
0.00014743
0.000165388
0.0204486
0.0318417
0.00375434
0.000134952
0.000224962
0.0231584
0.000237276
0.000148723
0.00630006
0.000141503
0.0296953
0.0123931
0.0284712
0.00136893
0.0404402
0.000164292
0.000128764
0.000162042
0.000136339
0.0399311
0.000149447
0.000159717
0.000147377
0.032871
0.000199605
0.000136341
0.0346085
0.0222013
0.000155125
0.000510822
0.0116086
0.000199004
0.000202493
0.0234846
0.000173485
0.000149229
0.000147686
0.000148465
0.00043573
0.000135885
0.000152311
0.000144901
0.00710295
0.0320025
0.0141527
0.000144518
0.00014278
0.0001646
0.0242844
0.0285762
0.00025495
0.0218428
0.000200275
0.000870925
0.000135006
0.000143045
0.000147966
0.000167922
0.000158266
0.000153239
0.00106007
0.0267461
0.0263908
0.013552
0.000171623
0.00114019
0.000165628
0.0225154
0.000134825
0.00015995
0.0178407
0.000638894
0.0264047
0.00929578
0.000139423
0.000142547
0.000150735
0.000186206
0.00924716
0.00013995
0.000415737
0.0071865
0.000144382
4.01867e-05
0.0248332
0.0416242
0.00015074
0.000170652
0.000147732
0.000144878
0.000174684
0.000131934
0.012501
0.0340222
0.00014842
0.000139527
0.00430708
0.0224123
0.000212606
0.000154256
0.0275517
0.000200863
0.00242762
0.000141629
0.000141191
0.019004
0.000134896
0.0214955
0.000178775
0.000409819
0.000148295
0.000129506
0.000146526
0.00359559
0.00081497
0.000149111
0.000163689
0.023749
0.0212664
0.000138856
0.0001469
0.0127906
0.0153189
0.000191023
0.000222916
0.0168047
0.000144983
0.000164862
0.0151231
0.000148555
0.000144386
0.000145662
0.000157124
0.000211164
0.000284125
0.000142954
0.000147025
0.000146049
0.000166638
0.000158544
0.000142725
0.0113304
0.0125383
0.000140264
0.00261105
0.000143433
0.000135429
0.0135276
0.000256432
0.0133753
0.0250735
0.00454014
0.000150189
0.010693
0.000157569
0.000154395
0.000139164
0.00360366
0.000152594
0.000333711
0.0206137
0.000144306
0.000139257
0.0170469
0.00559163
0.00016122
0.000350047
0.000157741
0.0287733
0.0001308
0.000144057
0.000146991
0.000960322
0.000158174
0.000143782
0.000178166
0.032164
0.030393
0.000197908
0.000218096
0.000249685
0.000218975
0.000913364
0.000138082
0.0222701
0.0292077
0.0256566
0.000149928
0.0134081
0.0135209
0.00552897
0.000160744
0.000138107
0.00015062
0.00015222
0.00013739
0.000151875
0.000142816
0.000129088
0.000133725
0.000231211
0.00645802
0.0340416
0.00925324
0.00395136
0.000157255
0.0289131
0.000283327
0.000146911
0.00962429
0.000146667
0.000150389
0.000196659
0.00541937
0.000689373
0.000170396
0.000146563
0.000262691
0.000189538
0.000141554
0.000149348
0.00465337
0.0201112
0.000164146
0.000140055
0.0129521
0.000152167
0.0030079
0.000147197
0.0272306
0.000143723
0.00370966
0.000147607
0.000128806
0.0220756
0.0154398
0.0166375
0.000245903
0.000128617
0.000138291
0.000146361
0.000207378
0.000183824
0.000212906
0.0144186
0.000143033
0.000137673
0.000140569
0.000273487
0.000146825
0.000141708
0.00110654
0.000131269
0.000201731
0.000137549
0.00990851
0.00508745
0.000157117
0.0106663
0.013152
0.0188097
0.000131162
0.000142144
0.000147023
0.0310769
0.0347026
0.000146875
0.000146234
0.000139321
0.00609353
0.000203254
0.000176195
0.000188015
0.000196005
0.000141308
0.000139371
0.00697245
0.00018376
0.000150543
0.000150235
0.000133534
0.000140557
0.00607813
0.000167473
0.000138381
0.000143535
0.000139585
0.0170076
0.000131563
0.0001899
0.000149302
0.0312771
0.00013184
0.000135493
0.000194723
0.000170548
0.000130874
0.000165673
0.000207411
0.000166891
0.0131671
0.00843429
0.000178111
0.00718288
0.000207339
0.000148269
0.00194607
0.000145034
0.0199438
0.0346563
0.000138472
0.0429958
0.000193156
0.000166138
0.00015869
0.000142393
0.0238145
0.000139468
0.000165099
0.0121181
0.000148878
0.000261772
0.000162276
0.000208794
0.000142628
0.0223172
0.000191746
0.0213242
0.0001729
0.000138488
0.000138283
0.0317306
0.00014663
0.000194413
0.00015105
0.000192154
0.000171061
0.00012256
0.000143876
0.000161434
0.0216801
0.0169916
0.000154329
0.000138322
0.0202691
0.0285484
0.000144183
0.0198612
0.000152792
0.0118322
0.000163175
0.000139051
0.000139088
0.000143251
0.000155602
0.00027718
0.000203384
0.0247524
0.000263
0.000193407
0.000190898
0.00014176
0.000161348
0.0147252
0.000148687
0.000212003
0.000129699
0.0132256
0.00694173
0.000137661
0.000157603
0.0210973
0.00413638
0.0273543
0.000141162
0.00016608
0.0127734
0.000138247
0.000167275
0.00785766
0.000160431
0.0149336
0.0227612
0.000146163
0.000140212
0.000231389
0.00299712
0.000140078
0.00016116
0.000290369
0.000139599
0.000291493
0.000168857
0.000140242
0.000140422
0.00018785
0.000174907
0.00101095
0.000171439
0.0101919
0.00368287
0.0113203
0.000151829
0.00016564
0.000274151
0.000216268
0.000137318
0.00158578
0.00346421
0.000219962
0.000151255
0.0184208
0.000173319
0.000164219
0.0179941
0.0178407
0.0163404
0.000140515
0.000150159
0.0114758
0.0117562
0.0166232
0.0151558
0.00013915
0.000152946
0.0129734
0.0155534
0.000140046
0.000189763
0.00020216
0.0139274
0.015305
0.0156634
0.0266301
0.000138852
0.00018996
0.000165953
0.000145814
0.000137608
0.000139869
0.0205566
0.000128448
0.00624662
0.000156908
0.0323343
0.00382494
0.0172266
0.000129122
0.0219615
0.0230865
0.000196842
0.000169126
0.000200798
0.0305642
0.000143663
0.000191037
0.000143161
0.000143453
0.000223615
0.000145112
0.00353884
0.000144319
0.0126945
0.000139515
0.0330208
0.00013773
0.00774918
0.000143589
0.000149556
0.000183735
0.00403295
0.000186123
0.000209396
0.00653194
0.0261507
0.000282258
0.000140649
0.0144903
0.0411991
0.000199138
0.000165342
0.000145479
0.000149571
0.0120721
0.000138841
0.019169
0.000147496
0.000195364
0.0220835
0.000173581
0.0239358
0.000135035
0.00665442
0.0120652
0.000475917
0.000610032
0.000137276
0.000141672
0.000193291
0.000172135
0.0326354
0.00427142
0.000149946
0.0181661
0.00013551
0.000142876
0.00593286
0.000138876
0.000145373
0.000560136
0.000173035
0.030116
0.000137838
0.0210903
0.00288025
0.000139273
0.00013481
0.00943312
0.00014621
0.000137883
0.000135089
0.000636969
0.000140366
0.0132642
0.000169261
0.000147637
0.0142802
0.000622922
0.000137924
0.0092007
0.0186657
0.0132188
0.000146529
0.000140736
0.00646191
0.000162046
0.00716665
0.000128626
0.000150079
0.000134824
0.000137314
0.000146558
0.000145777
0.000161896
0.000152467
0.000137446
0.000133263
0.000258302
0.00275593
0.0314463
0.000190472
0.0221089
0.0187417
0.0122466
0.000140804
0.000521853
0.000344296
0.0111447
0.000145171
0.0166131
0.00014752
0.000138978
0.000127956
0.0206043
0.000156328
0.00013152
0.00016765
0.000235753
0.0120364
0.000235355
0.0147207
0.0327743
0.000150413
0.0215101
0.0243316
0.0143654
0.000132019
0.000149193
0.000266102
0.000135183
0.000770193
0.00020452
0.000150505
0.0042445
0.000195193
0.000158504
0.000161592
0.000137523
0.000143512
0.000148973
0.000143264
0.000132181
0.000139482
0.000139912
0.00547787
0.000144997
0.0121975
0.000150016
0.00016194
0.000358496
0.000141499
0.000143484
0.0164957
0.00412685
0.000144982
0.000139268
0.000148452
0.000139442
0.000185171
0.000142411
0.000144324
0.000190469
0.000137501
0.0250907
0.0272168
0.011661
0.000143961
0.0126737
0.0232724
0.000172458
0.000148439
0.000239812
0.000144324
0.0295821
0.000160454
0.000164581
0.000167962
0.000144858
0.000148898
0.000141371
0.000195467
0.0193605
0.0115107
0.000161451
0.000127908
0.000143339
0.039931
0.0130387
0.000146836
0.029235
0.00013707
0.00775435
0.000207091
0.00596646
0.000152855
0.000244538
0.021322
0.000142761
0.000186874
0.0171262
0.000128769
0.000195472
0.0146426
0.000141568
0.000156082
0.0248997
0.000278171
0.000150922
0.000133231
0.0301498
0.0285195
0.0247056
0.000194717
0.000157667
0.000138767
0.000276578
0.000139353
0.000147756
0.000141414
0.000132564
0.000141015
0.000151401
0.000376522
0.000142843
0.00251276
0.000143113
0.0266744
0.000140981
0.0199322
0.000140482
0.00548458
0.000146173
0.0291734
0.000160786
0.0266241
0.00253382
0.00629907
0.00022524
0.000172957
0.000408783
0.0208445
0.000143548
0.0308289
0.000132883
0.000152997
0.000257993
0.000146193
0.000142944
0.000164294
0.000143943
0.00129595
0.000128851
0.000143318
0.000159779
0.000183853
0.00014326
0.000174757
0.000156466
0.0288107
0.0221787
0.000132256
0.000140103
0.0140741
0.000207334
0.000141266
0.00016112
0.00014319
0.0358776
0.00708996
0.000161424
0.000147666
0.000133154
0.000150964
0.020719
0.00014207
0.000177549
0.000165692
0.000136645
0.000145597
0.0164688
0.0162284
0.000140082
0.000146819
0.0136635
0.0119347
0.0062719
0.000202126
0.000142465
0.0249772
0.0001911
0.0293292
0.000140108
0.000177901
0.00017971
0.000159023
0.000141129
0.0154249
0.0141929
0.000173311
0.000146149
0.00335957
0.000178365
0.000135171
0.000142029
0.00346075
0.000155482
0.00020692
0.0192121
0.000150903
0.0106911
0.0103609
0.0257242
0.0170815
0.0234798
0.000143754
0.000145975
0.000151851
0.0128149
0.0205865
0.000132103
0.0128183
0.000140678
0.000149996
0.025049
0.000130706
0.000205798
0.000132201
0.0167131
0.000170856
0.000137901
0.000140702
0.015626
0.0136005
0.0001787
0.014927
0.016793
0.0159143
0.000193676
0.000157483
0.000130614
0.000143084
0.000143142
0.00896924
0.00853835
0.000140208
0.000148363
0.000151012
0.0281947
0.00119668
0.0137334
0.000143298
0.000184417
0.000158551
0.000139224
0.000147859
0.0145677
0.0280205
0.0355305
0.00016335
0.000194148
0.0361839
0.000189804
0.012235
0.000136679
0.000167838
0.000162089
0.000168235
0.000178758
0.00868281
0.000184434
0.000150771
0.000182864
0.000751357
0.000147718
0.000136625
0.000138749
0.00599319
0.000147811
0.0122632
0.000132661
0.0255857
0.000201128
0.000144495
0.000140697
0.02621
0.000157133
0.00619376
0.00014282
0.000139159
0.000210632
0.000204197
0.0347429
0.000139189
0.00014303
0.000148848
0.000217516
0.000143363
0.0300748
0.000142639
0.000139012
0.00014508
0.0138587
0.016571
0.0169623
0.00015752
0.0128887
0.000158988
0.000148979
0.000150626
0.000175045
0.000150919
0.00472151
0.000149855
0.0150521
0.000148597
0.000145312
0.000147534
0.000146776
0.000140222
0.00237879
0.000139919
0.000128802
0.0371685
0.0168164
0.000140458
0.000158887
0.000150364
0.0125005
0.000149307
0.00226531
0.000161389
0.0105628
0.000165096
0.000154629
0.0001509
0.0001639
0.00105361
0.000218542
0.000138643
0.000434394
0.00163467
0.00621066
0.000166315
0.000139612
0.000156965
0.000176073
0.000167723
0.000150485
0.0174446
0.000142964
0.000140426
0.0294935
0.00015749
0.000159177
0.0399438
0.00551963
0.0215565
0.0153574
0.015303
0.000144815
0.0297198
0.000526464
0.000547656
0.000196847
0.000361451
0.0195766
0.0185096
0.000311597
0.000157593
0.0339737
0.00168116
0.00014719
0.000164536
0.00016421
0.000192118
0.00689143
0.000141247
0.000147495
0.000144404
0.00340628
0.000139882
0.000140217
0.00116867
0.000208807
0.000140687
0.0139138
0.000146511
0.000207974
0.000140086
0.00420643
0.000189252
0.0028118
0.000145788
0.000191909
0.000158828
0.0151621
0.000150724
0.000148661
0.000146446
0.000141877
0.000173665
0.000490711
0.000339358
0.000195696
0.0135494
0.00014044
0.0271811
0.00479312
0.000129732
0.000132363
0.00441327
0.000139533
0.000268127
0.000158231
0.000162967
0.000137376
0.000256538
0.000218254
0.000158516
0.000163683
0.0241576
0.000149745
0.000147295
0.000136047
0.000193059
0.0004507
0.000152937
0.0125369
0.000143416
0.000128744
0.000144677
0.000142955
0.000155924
0.000142987
0.000149216
0.000146317
0.000132957
0.000157615
0.000129657
0.000176241
0.000163997
0.00649006
0.000161907
0.0433067
0.0287288
0.000164492
0.000189954
0.000154535
0.00977072
0.0165233
0.000161519
0.000145954
0.000178206
0.000206256
0.0170624
0.00015982
0.0132742
0.00669183
0.000150773
0.02998
0.000174077
0.029865
0.000154169
0.000166323
0.000147151
0.00278006
0.000153415
0.000208783
0.0345417
0.000127812
0.00207591
0.000167519
0.000207207
0.000137658
0.00013538
0.000207817
0.0134851
0.000169046
0.000128903
0.00287332
0.000155875
0.00015134
0.000145405
0.000182601
0.000146846
0.000163371
0.00012997
0.000921994
0.00018648
0.000184341
0.000214094
0.0259102
0.000129914
0.00146846
0.000147705
0.000151944
0.000142
0.0319653
0.000150241
0.000151376
0.000166678
0.000150454
0.0255835
0.00167681
0.000140184
0.000151251
0.000141238
0.000184512
0.000138647
0.0196152
0.000136022
0.000191021
0.000144049
0.000146313
0.000142894
0.0309253
0.0241089
0.00175753
0.0342712
0.0303735
0.000150733
0.0211957
0.0226183
0.0105479
0.000157942
0.000201924
0.000137109
0.0258617
0.000149209
0.000134986
0.000157263
0.00016213
0.000173282
0.00831257
0.000140841
0.0251925
0.000159813
0.0346761
0.0171628
0.000153392
0.00476332
0.00678025
0.000139759
0.000160884
0.000165461
0.000140774
0.000151372
0.0253255
0.000303813
0.00523361
0.000147723
0.010272
0.000145186
0.00331895
0.0269648
0.0162204
0.0126555
0.000211352
0.000160888
0.0291843
0.0247571
0.00023099
0.000315614
0.0187122
0.000139783
0.000137036
0.014631
0.000191437
0.00013097
0.000143966
0.00014131
0.000149333
0.00480845
0.000140965
0.00940312
0.0304564
0.000142415
0.000151768
0.000149279
0.000128818
0.000205277
0.000167422
0.000548356
0.000134973
0.000142821
0.000166501
0.00200312
0.0109098
0.000178147
0.000321584
0.000144109
0.000152804
0.00569796
0.000151422
0.000213258
0.000257264
0.000185048
0.000238247
0.0224122
0.000141202
0.000151908
0.000182177
0.000150016
0.000142381
0.000220671
0.000195302
0.000149959
0.000145143
0.000146568
0.000144091
0.0031025
0.000183869
0.000248013
0.000856806
0.000150943
0.000195783
0.00702671
0.008963
0.000150641
0.000153042
0.000154208
0.000142376
0.000150803
0.0270842
0.000147421
0.00013978
0.0291589
0.00014729
0.0196848
0.000130934
0.000142364
0.000157437
0.00019086
0.00216737
0.00014116
0.000131113
0.00306866
0.000147872
0.00019337
0.00182253
0.0285345
0.000151788
0.000151595
0.000194636
0.0285666
0.0315628
0.000173558
0.000157033
0.000139365
0.00406118
0.0015497
0.0145732
0.000155477
0.0208683
0.000140267
0.00724732
0.000234739
0.00020228
0.000167989
0.00998473
0.00014552
0.0199554
0.000153479
0.000150752
0.000231878
0.0264543
0.00015021
0.00469344
0.00014006
0.000243841
0.000154254
0.00677463
0.000139855
0.00018427
0.00704387
0.000145217
0.000144746
0.000196909
0.0355764
0.00569034
0.00022139
0.000218301
0.000155681
0.000152969
0.00657425
0.0001502
0.000147261
0.000157169
0.0250511
0.026463
0.0120046
0.000208621
0.000145601
0.000153378
0.000152991
0.000131388
0.000193556
0.0312313
0.000201974
0.000175719
0.000139042
0.00317225
0.000141618
0.00638938
0.0223099
0.000200572
0.000150211
0.000137396
0.012735
0.000144057
0.000175219
0.000168088
0.000184088
0.000139062
0.00919789
0.000196462
0.000146787
0.000190995
0.0306117
0.000192518
0.0213897
0.000147335
0.0268523
0.00114623
0.000128692
0.000146586
0.00013796
0.0256736
0.0148941
0.000184109
0.0124992
0.0024079
0.00014941
0.000143943
0.000140026
0.000149649
0.0257188
0.00143854
0.000147144
0.000204686
0.000165275
0.000165732
0.000142774
0.00015373
0.00340485
0.000148874
0.000150969
0.000150787
0.000140278
0.000145152
0.000139451
0.000193587
0.000143495
0.0028344
0.000192304
0.000143033
0.000168765
0.000165104
0.0162263
0.000139949
0.0127956
0.000185912
0.0130604
0.000166927
0.00721656
0.00620327
0.000144213
0.00138255
0.00519795
0.000140957
0.000166838
0.000335166
0.000191925
0.0149511
0.000143204
0.000146438
0.00216524
0.000150865
0.000181873
0.000937171
0.000188918
0.0287391
0.000143079
0.00422469
0.027151
0.000144157
0.025349
0.00938404
0.00102098
0.000197641
0.0272792
0.000142602
0.0074311
0.0153494
0.000395526
0.00673974
0.000260963
0.00346476
0.000142936
0.0001705
0.000155421
0.0153403
0.000193445
0.00432749
0.000134202
0.00509843
0.000143971
0.00013599
0.00014526
0.000176765
0.000157434
0.000150794
0.000142887
0.000132845
0.00924183
0.000152167
0.000454913
0.000148999
0.00836613
0.000137923
0.000128654
0.0259162
0.000149971
0.000281732
0.000207092
0.000152764
0.00970364
0.000184445
0.0100377
0.000164834
0.0211881
0.000144193
0.000150243
0.000137126
0.000160686
0.0164526
0.0187852
0.00273959
0.000153407
0.00013391
0.0325039
0.000145874
0.0186696
0.000144202
0.000146848
0.00014245
0.000171355
0.000698802
0.0121316
0.000147754
0.000150759
0.00485934
0.000128636
0.0145707
0.00533267
0.000164341
0.000209135
0.000164703
0.000177181
0.0255832
0.000158889
0.00133379
0.00020479
0.000146082
0.00590242
0.00401876
0.000142537
0.000144629
0.000142019
0.000148373
0.000274047
0.00720659
0.00887458
0.000135515
0.000141155
0.000144044
0.000149723
0.000147858
0.000158046
0.000526285
0.000146843
0.000144487
0.00537935
0.0267175
0.000219439
0.00189198
0.00692174
0.000140763
0.000332664
0.0263979
0.0263979
0.0031197
0.000149581
0.000230775
0.000209479
0.000142226
0.00164734
0.00877343
0.000130193
0.0438155
0.000150063
0.000143172
0.00480208
0.000143859
0.00584878
0.00116089
0.000139705
0.0226845
0.000172248
0.000153002
0.0193524
0.0156596
0.000141221
0.000140191
0.000142765
0.000147929
0.000154378
0.0173428
0.000148363
0.000139518
0.000249131
0.0075081
0.0131231
0.000198409
0.000143427
0.00308703
0.000248448
0.0365181
0.000140561
0.000139562
0.000149304
0.000150777
0.000223331
0.000163936
0.000130113
0.000195409
0.00505466
0.000145697
0.000137569
0.000165525
0.000148765
0.00214694
0.0145155
0.000155678
0.000152666
0.000135576
0.00014899
0.00015073
0.000142266
0.000147501
0.000146519
0.00695948
0.000144164
0.0025421
0.000142232
0.00288567
0.000152427
0.00965808
0.0208551
0.0139542
0.00347628
0.021211
0.000188459
0.0106064
0.00435743
0.00019383
0.00891172
0.000158577
0.000194849
0.0275787
0.00133797
0.000134948
0.00537572
0.000142657
0.000210968
0.0276344
0.000212016
0.000145245
0.000140771
0.00014433
0.000152521
0.011066
0.0156684
0.000149233
0.0156706
0.00019755
0.0415275
0.000137046
0.000209618
0.000193648
0.000181843
0.000247587
0.0327354
0.000187353
0.000146712
0.000203316
0.000205817
0.0322917
0.000142476
0.000135957
0.000147345
0.0148945
0.00656508
0.000144095
0.000147923
0.000145018
0.000142231
0.0163095
0.00256982
0.000180361
0.02023
0.000142402
0.029466
0.0159315
0.00200433
0.000153721
0.000184457
0.0136924
0.0160782
0.000136449
0.0201805
0.00779925
0.000157461
0.000148307
0.0406942
0.000165974
0.0331522
0.0141572
0.000148182
0.000140801
0.000156065
0.000148661
0.000143211
0.000154416
0.000190878
0.000139793
0.000142407
0.000150908
0.000151155
0.000139031
0.0164482
0.000156719
0.0323396
0.000146597
0.000195631
0.000140742
0.000155475
0.0215528
0.000159648
0.000145631
0.000153892
0.000167467
0.000174922
0.0187856
0.00219238
0.0214262
0.0189304
0.0368279
0.0176254
0.00445261
0.000203238
0.000168932
0.000136903
0.00014384
0.00266145
0.000142736
0.000152416
0.000136908
0.000144497
0.000140032
0.000139604
0.000146812
0.000143614
0.0155999
0.000155619
0.000149409
0.000140031
0.000155507
0.00716846
0.000161766
0.000177049
0.000193696
0.00015593
0.00518106
0.00014152
0.000170104
0.000142022
0.000161445
0.000147321
0.000438553
0.0169043
0.000192286
0.000150199
0.000142547
0.00889998
0.000147298
0.000196956
0.000143177
0.000217119
0.0162166
0.000198383
0.000156258
0.000191208
0.000147488
0.00666538
0.000176159
0.00442964
0.000244611
0.00357775
0.000748706
0.0254832
0.000142335
0.00013958
0.000145596
0.0125972
0.000142133
0.000276881
0.000182512
0.000149968
0.0272994
0.0208041
0.000140558
0.00013645
0.000270745
0.0105609
0.00713685
0.000144911
0.00770933
0.000131159
0.000216395
0.000190407
0.000170004
0.000155449
0.00622373
0.000141584
0.0147439
0.000168082
0.0130114
0.0226503
0.000214874
0.000156841
0.000163219
0.000138611
0.000163557
0.000141083
0.000166005
0.000148935
0.0226658
0.000143025
0.000149019
0.000136812
0.0295461
0.000139265
0.0371081
0.00751071
0.000225436
0.0114295
0.000201629
0.00021117
0.000150245
0.00016114
0.000141192
0.0109108
0.015938
0.00703524
0.000208182
0.00527699
0.000194486
0.028135
0.000129282
0.0126311
0.0231871
0.000294501
0.000148635
0.0016858
0.00732615
0.00221207
0.000145496
0.00017805
0.0045533
0.000134113
0.0235764
0.00015113
0.000184784
0.000151193
0.000182079
0.000127825
0.000132243
0.00012924
0.000166927
0.000146521
0.00102618
0.000147792
0.000138598
0.00643742
0.000142984
0.000164552
0.000162161
0.00014449
0.0175891
0.000163658
0.000151092
0.000142473
0.000150088
0.0142183
0.000142594
0.000139365
0.000178324
0.0176685
0.000153492
0.000203377
0.000134242
0.000203503
0.000152079
0.000150538
0.00585089
0.000186575
0.0217993
0.000147859
0.000196961
0.000153449
0.0202942
0.014758
0.000148504
0.029225
0.000893284
0.000138795
0.0144262
0.000163435
0.000157071
0.000184947
0.000150723
0.000141553
0.000155283
0.000200036
0.000153174
0.000184086
0.000174181
0.000201082
0.000132622
0.000190247
0.00014628
0.0169761
0.000191311
0.000142491
0.0140906
0.000141492
0.000138934
0.000261208
0.0110303
0.00686402
0.000204996
0.00668882
0.000257494
0.000143332
0.000146295
0.000198043
0.00298602
0.000149944
0.000208679
0.000151699
0.000145237
0.0424187
0.000185197
0.000201082
0.000182188
0.0341448
0.000129338
0.000195377
0.000154457
0.000221188
0.00238613
0.00339356
0.000145414
0.000150336
0.0357939
0.000155662
0.012737
0.00315546
0.000144509
0.000190605
0.0006332
0.000137802
0.018296
0.000154549
0.0154058
0.0313681
0.000147094
0.000188362
0.000146954
0.000142617
0.000164254
0.0302301
0.000132321
0.000155847
0.0281653
0.000145678
0.00015223
0.0359549
0.000145477
0.0137337
0.000143967
0.000150947
0.000134906
0.000141126
0.000219306
0.000151627
0.000196559
0.000155276
0.000144847
0.000192782
0.0338659
0.000160469
0.000194594
0.0141795
0.00305659
0.000147704
0.000151156
0.000554949
0.000142597
0.00014815
0.0287918
0.000200425
0.000158539
0.000146986
0.000153652
0.000210427
0.000153895
0.00014143
0.0307743
0.00792823
0.000130433
0.000141334
0.00293321
0.0386546
0.000148046
0.000151949
0.000395694
0.000199302
0.0156491
0.000137324
0.013337
0.000153918
0.000161415
0.0238974
0.00232123
0.000191469
0.00126663
0.000141796
0.0170921
0.000153102
0.00323498
0.000796242
0.000144218
0.0281468
0.000150746
0.000136006
0.00018815
0.000202087
0.013399
0.0166865
0.000144638
0.000210288
0.000191659
0.000163983
0.000150876
0.000149009
0.000150435
0.0231872
0.0405716
0.037125
0.0232706
0.00015572
0.000178885
0.0143222
0.000157269
0.000140979
0.000155074
0.037467
0.000161408
0.00540094
0.0146772
0.0037586
0.000158926
0.0158081
0.000167041
0.000194508
0.00535233
0.0224687
0.0119269
0.000194258
0.000144439
0.0235587
0.000136775
0.024601
0.000136162
0.000140677
0.000151429
0.000702494
0.00700612
0.0154804
0.000170727
0.0164699
0.000143863
0.000174393
0.000136563
0.000195104
0.0125777
0.000241156
0.0204629
0.0179526
0.00524839
0.0042778
0.000149231
0.0182346
0.000147598
0.0263474
0.00278206
0.000156304
0.000145005
0.00457978
0.000199446
0.000130407
0.000144043
0.0168509
0.000137266
0.000147709
0.000196697
0.00024821
0.000132897
0.000198956
0.000183138
0.00567098
0.0132339
0.000145666
0.000139262
0.00212657
0.000144299
0.000222061
0.00017446
0.021064
0.000162691
0.000168071
0.000139603
0.000128726
0.0151399
0.000173703
0.000182239
0.000152678
0.00994014
0.000215696
0.00841523
0.00585082
0.000150784
0.00128847
0.000142647
0.000167014
0.000157637
0.0209753
0.000136902
0.000138345
0.0211442
0.000206009
0.0242496
0.000158451
0.0256889
0.00125554
0.000153572
0.0119038
0.000154594
0.000227031
0.00618054
0.0139216
0.000142062
0.00823564
0.0107072
0.0227935
0.0200489
0.011373
0.000155873
0.0347338
0.000215308
0.00588613
0.000182832
0.00016243
0.000130521
0.000191052
0.00014066
0.00186836
0.00016182
0.000149649
0.000149605
0.000220019
0.00159012
0.000142519
0.00365809
0.000192371
0.000265819
0.0215286
0.00947116
0.000150911
0.0211341
0.000132501
0.00566129
0.0307696
0.0276832
0.000143893
0.000205219
0.000143462
0.0366034
0.000177327
0.00477193
0.000189119
0.016366
0.000189667
0.0312513
0.000137486
0.00919735
0.000785761
0.000147044
0.000184656
0.0291472
0.000147855
0.000145104
0.000166975
0.00357574
0.000143364
0.00014239
0.000140714
0.00401329
0.000165634
0.000192472
0.000275614
0.000165053
0.000158999
0.000127772
0.000137131
0.000135764
0.013215
0.0320472
0.000141377
0.000156383
0.000144745
0.000190346
0.000149685
0.00401081
0.000149938
0.0260027
0.00289701
0.000147813
0.00021067
0.000319865
0.000139458
0.000131434
0.000204369
0.0145634
0.000139395
0.00357621
0.0417796
0.000377967
0.0238504
0.0198003
0.000183032
0.00014697
0.02061
0.000143846
0.000202627
0.000135215
0.0135775
0.000138033
0.0116694
0.000153499
0.00878306
0.000136109
0.0140208
0.000130421
0.000147733
0.00021787
0.000152459
0.000136818
0.000165768
0.0194746
0.000144009
0.0216665
0.000152608
0.0124144
0.00537576
0.0111451
0.0381241
0.000145549
0.000159117
0.018834
0.0176851
0.000145141
0.000169726
0.000188347
0.0138159
0.000147469
0.0218426
0.00019095
0.000137535
0.0407076
0.0291767
0.000151253
0.0132615
0.000183318
0.0129354
0.0116546
0.000144741
0.000142284
0.00404684
0.000142819
0.0337583
0.000155299
0.0168492
0.0196388
0.00013772
0.000218671
0.000129787
0.00021025
0.000145351
0.000165136
0.0262468
0.000143844
0.0144951
0.000151237
0.00014603
0.000220398
0.000147442
0.0276981
0.00342432
0.0376948
0.00023159
0.00294979
0.000152304
0.000142568
0.02756
0.0274796
0.000136835
0.00453446
0.00014677
0.00013175
0.0284299
0.00638918
0.000156687
0.000140167
0.000144477
0.000134524
0.0118939
0.000144767
0.000677475
0.000168629
0.0108752
0.000200053
0.000269981
0.000141341
0.00692067
0.0170881
0.000276174
0.000150603
0.00573046
0.000128312
0.0161822
0.0216111
0.000137152
0.000191201
0.000183358
0.000166701
0.000157358
0.000158411
0.00829411
0.0292634
0.000255715
0.000142974
0.0131659
0.000148482
0.0184385
0.000192705
0.000204616
0.0280791
0.000144742
0.00723798
0.000192035
0.000156135
0.0175663
0.026127
0.0324256
0.000219803
0.000147006
0.000209454
0.00580893
0.000166746
0.00161495
0.0258066
0.0205597
0.00605148
0.000138643
0.000134965
0.000152857
0.000154559
0.000145247
0.000144178
0.000158234
0.000149508
0.000204533
0.0110097
0.000867216
0.00015615
0.0209754
0.000189109
0.00666551
0.000152409
0.000249774
0.000191918
0.0251992
0.0243416
0.000140026
0.0259863
0.0289637
0.000146451
0.000148344
0.014043
0.0229086
0.00688366
0.000215416
0.000141062
0.000151945
0.00528175
0.000141886
0.000163821
0.0133833
0.000136522
0.000204201
0.0174096
0.0315478
0.000147978
0.00147521
0.000163972
0.000168822
0.0336405
0.000128361
0.00014067
0.000137497
0.00367981
0.0270482
0.000220347
0.00014573
0.00331618
0.000149252
0.00058945
0.0121113
0.000150898
0.000138046
0.000144028
0.0357662
0.00353009
0.038023
0.000146007
0.0248921
0.014013
0.00641119
0.000141392
0.00410287
0.000145967
0.000136432
0.000140687
0.0174821
0.000189468
0.00964652
0.000179072
0.0111327
0.000137994
0.000147964
0.0243273
0.000168296
0.000142977
0.0162111
0.000161153
0.0324937
0.00283364
0.000147459
0.000136748
0.000145346
0.030502
0.0209475
0.0122482
0.00019195
0.000187724
0.00786504
0.00409554
0.0021913
0.00269464
0.000277879
0.000145039
0.00390704
0.000137859
0.000132446
0.000276038
0.00787547
0.000140401
0.00014678
0.00192254
0.000936609
0.000157177
0.0103355
0.000148841
0.000223909
0.000147794
0.0155415
0.0229236
0.0015772
0.000138978
0.000146354
0.0266961
0.0140652
0.0297258
0.000502968
0.0373521
0.0287316
0.0313094
0.00481875
0.0280261
0.000148296
0.00230511
0.0307203
0.0001935
0.0001409
0.00015196
0.0310158
0.000147604
0.000137777
0.0219846
0.000142866
0.0165741
0.000128646
0.0193028
0.0179251
0.0131891
0.000138097
0.000144938
0.000155954
0.000129725
0.00453741
0.000152359
0.00394235
0.0162651
0.00875103
0.000190018
0.000183735
0.00655115
0.000201638
0.000145011
0.000148801
0.0019638
0.0214961
0.00739767
0.00342476
0.000171353
0.000166011
0.000128861
0.000200631
0.000148819
0.00603828
0.000227449
0.000206176
0.000145346
0.000162204
0.000204506
0.000175489
0.0364376
0.0188294
0.000137034
0.000149806
0.000142379
0.0128534
0.000144572
0.0136897
0.000168568
0.033115
0.000135117
0.0248406
0.0135783
0.000131845
0.000142677
0.000195592
0.000192674
0.0001776
0.00743904
0.000136759
0.0211101
0.0130758
0.000140056
0.0157064
0.0084471
0.00019086
0.000163821
0.0322306
0.0284577
0.0226875
0.00494657
0.014009
0.000136002
0.00388351
0.000142947
0.00013448
0.0198968
0.00684276
0.0278773
0.00533949
0.00454991
0.000226723
0.000155431
0.000146239
0.000139191
0.0255572
0.000134824
0.000187819
0.00366358
0.0241259
0.000128009
0.000135998
0.041452
0.000158719
0.0230353
0.000148811
0.000152062
0.000148814
0.000137281
0.000184921
0.00484661
0.00554363
0.0300304
0.000505855
0.0017841
0.00477971
0.00707336
0.020099
0.000139439
0.000218399
0.000142699
0.00014277
0.00361979