/*--------------------------------*- C++ -*----------------------------------*\
| =========                 |                                                 |
| \\      /  F ield         | OpenFOAM: The Open Source CFD Toolbox           |
|  \\    /   O peration     | Version:  v2012                                 |
|   \\  /    A nd           | Website:  www.openfoam.com                      |
|    \\/     M anipulation  |                                                 |
\*---------------------------------------------------------------------------*/
FoamFile
{
    version     2.0;
    format      ascii;
    class       volScalarField;
    location    "200";
    object      k_0;
}
// * * * * * * * * * * * * * * * * * * * * * * * * * * * * * * * * * * * * * //

dimensions      [0 2 -2 0 0 0 0];


internalField   nonuniform List<scalar> 
27915
(
0.000158391
0.000194359
0.0269877
0.000139211
0.000145571
0.000162751
0.000132658
0.0233772
0.000144653
0.0419397
0.000174435
0.0359265
0.00364295
0.000132576
0.000138477
0.000139025
0.00429534
0.000147288
0.000205328
0.023434
0.00429932
0.000152364
0.022842
0.000146447
0.000139036
0.000136478
0.0254472
0.000145424
0.0131134
0.000157115
0.000143891
0.000174329
0.000135727
0.000135375
0.0267633
0.000135413
0.000150708
0.000136478
0.00021151
0.000145662
0.00015548
0.000150313
0.000217532
0.000140044
0.00917892
0.000145923
0.000141725
0.000172949
0.000147708
0.00014182
0.0250663
0.000203315
0.0230507
0.00015732
0.000158138
0.000141689
0.000142622
0.00356365
0.00354721
0.00014373
0.000231843
0.000164715
0.00837028
0.00591998
0.00014536
0.000214296
0.0370411
0.0250684
0.0266758
0.000143527
0.000391799
0.000146674
0.000147337
0.00666359
0.0406331
0.000995346
0.000156885
0.000133852
0.0110417
0.000255868
0.000162261
0.00014743
0.000165388
0.0204406
0.0318062
0.00371963
0.000134952
0.000224809
0.0232036
0.000237425
0.000148723
0.00628776
0.000141503
0.0295228
0.01239
0.0284638
0.0013465
0.0404283
0.000164286
0.000128764
0.000162042
0.000136339
0.0399199
0.000149443
0.000159729
0.000147376
0.0328207
0.000199637
0.000136341
0.0345982
0.0222412
0.00015513
0.000509084
0.0116418
0.000199038
0.000202515
0.0234463
0.000173489
0.000149226
0.000147686
0.000148464
0.000434609
0.000135884
0.00015231
0.000144901
0.00703406
0.0320652
0.014154
0.000144518
0.00014278
0.000164593
0.0242375
0.0283991
0.000254619
0.0218117
0.000200294
0.000860075
0.000135006
0.000143046
0.000147966
0.000167922
0.000158266
0.000153239
0.00106062
0.0267719
0.026383
0.0135516
0.000171599
0.00113678
0.000165628
0.0224777
0.000134825
0.000159846
0.0178977
0.000629143
0.0264017
0.00930809
0.000139423
0.000142547
0.000150736
0.000185855
0.00925192
0.00013995
0.00041802
0.0071916
0.000144382
4.03144e-05
0.0248635
0.041616
0.00015074
0.000170655
0.000147732
0.000144878
0.00017466
0.000131935
0.0124937
0.0340122
0.000148418
0.000139527
0.0043093
0.0224666
0.00021263
0.000154256
0.0275435
0.000200884
0.00248122
0.000141629
0.000141191
0.0189992
0.000134896
0.0214593
0.000178783
0.000412873
0.000148294
0.000129506
0.000146526
0.00365752
0.000818125
0.000149111
0.00016369
0.0237279
0.021244
0.000138856
0.0001469
0.0127829
0.0153182
0.000191029
0.000222627
0.0167833
0.000144983
0.000164863
0.0150733
0.000148555
0.000144386
0.000145662
0.000157124
0.000210977
0.000280222
0.000142954
0.000147025
0.000146049
0.000166623
0.000158544
0.000142725
0.0113347
0.0125657
0.000140264
0.00256816
0.000143433
0.000135429
0.0135283
0.000256079
0.0133185
0.025096
0.00452873
0.000150186
0.0106532
0.000157569
0.000154395
0.000139164
0.00354741
0.000152596
0.000333106
0.0205918
0.000144306
0.000139257
0.0170937
0.00559158
0.000161232
0.000352764
0.000157741
0.0287666
0.0001308
0.000144058
0.000146991
0.000945523
0.000158173
0.000143783
0.000178171
0.0321121
0.0303889
0.000197888
0.000218059
0.000250216
0.000219058
0.000908016
0.000138082
0.0222352
0.0292007
0.025684
0.000149926
0.0134132
0.0135281
0.00552656
0.000160755
0.000138107
0.000150614
0.000152222
0.00013739
0.000151875
0.000142816
0.000129088
0.000133725
0.00023095
0.00645181
0.0340312
0.00923607
0.00389259
0.000157255
0.0288818
0.000283409
0.000146911
0.00963014
0.000146667
0.000150383
0.000196641
0.00537869
0.000672095
0.000170371
0.000146563
0.000262853
0.000189435
0.000141553
0.000149348
0.00461239
0.020104
0.000164147
0.000140055
0.0129636
0.000152165
0.00296229
0.000147197
0.0272405
0.000143723
0.00365688
0.000147606
0.000128806
0.0220678
0.0154408
0.0166378
0.000245513
0.000128617
0.000138291
0.000146361
0.000207421
0.000183739
0.000212831
0.0144156
0.000143033
0.000137672
0.000140569
0.000272974
0.000146825
0.000141708
0.0010905
0.00013127
0.000202067
0.000137548
0.00985265
0.00508501
0.000157118
0.0106593
0.0131526
0.0187791
0.000131162
0.000142139
0.000147023
0.0311764
0.0346917
0.000146876
0.000146234
0.000139321
0.00602855
0.00020333
0.000176195
0.000187717
0.00019604
0.000141308
0.000139372
0.00698514
0.000183751
0.000150541
0.000150235
0.000133534
0.000140556
0.00607017
0.000167488
0.000138381
0.000143536
0.000139586
0.0170047
0.000131564
0.000189882
0.000149302
0.0312667
0.000131841
0.000135493
0.000194731
0.000170565
0.000130874
0.000165674
0.000207409
0.000166881
0.0133072
0.00843864
0.000178115
0.00716573
0.000207336
0.000148268
0.00194465
0.000145033
0.0199172
0.034644
0.000138472
0.0429847
0.000193137
0.000166151
0.00015869
0.000142394
0.0238551
0.000139468
0.000165092
0.0121142
0.000148878
0.000262024
0.000162309
0.000208797
0.000142628
0.0222858
0.000191746
0.0213188
0.000172918
0.000138488
0.000138283
0.0319101
0.00014663
0.000194441
0.000151055
0.000192135
0.000171099
0.000123181
0.000143876
0.000161434
0.0216524
0.0169911
0.000154334
0.000138322
0.0202646
0.0285266
0.000144182
0.0198745
0.000152795
0.0118431
0.000163176
0.000139051
0.000139088
0.000143251
0.000155602
0.000277797
0.00020339
0.0247811
0.000262273
0.000193426
0.00019089
0.00014176
0.000161305
0.0147212
0.000148687
0.000211954
0.000129699
0.0131408
0.00694982
0.000137661
0.000157603
0.0211385
0.00412691
0.027368
0.000141159
0.00016608
0.0127698
0.000138247
0.000167274
0.00780567
0.000160441
0.0149315
0.0227171
0.000146163
0.000140212
0.000230467
0.0029917
0.000140078
0.00016116
0.000289904
0.000139599
0.000292835
0.00016886
0.000140242
0.000140422
0.000187858
0.000174899
0.000988006
0.000171437
0.0101784
0.003665
0.0113047
0.000151829
0.00016563
0.000273898
0.000216333
0.000137318
0.0015529
0.00345426
0.000220003
0.000151255
0.0184183
0.000173323
0.000164271
0.0180377
0.0178381
0.0163366
0.000140515
0.000150164
0.0114694
0.0119445
0.0166235
0.0151528
0.00013915
0.000152947
0.0129737
0.0156795
0.000140045
0.000189777
0.000202162
0.0139324
0.0153057
0.0156213
0.0266315
0.000138851
0.000189941
0.000165955
0.000145814
0.000137608
0.000139869
0.0205291
0.000128448
0.00626992
0.000156908
0.0323228
0.00381998
0.0172223
0.000129122
0.022025
0.0230867
0.000196857
0.000169101
0.000200665
0.0305556
0.000143663
0.000191023
0.000143161
0.000143453
0.000223686
0.000145112
0.00353505
0.000144318
0.0126561
0.000139515
0.0330087
0.00013773
0.00775159
0.000143589
0.000149556
0.000183746
0.003976
0.000186149
0.00020967
0.00653727
0.0261147
0.000281137
0.000140649
0.0144908
0.0411908
0.00019912
0.000165342
0.000145479
0.000149571
0.0120648
0.000138841
0.0191842
0.000147496
0.000195342
0.0220767
0.000173573
0.0239
0.000135035
0.00663347
0.0120638
0.000479446
0.000605261
0.000137276
0.000141672
0.00019327
0.000172138
0.0326238
0.00424345
0.000149946
0.0181618
0.00013551
0.000142876
0.00593277
0.000138876
0.000145373
0.000557027
0.000173039
0.0300905
0.000137837
0.0210872
0.002835
0.000139273
0.00013481
0.00944761
0.00014621
0.000137883
0.000135089
0.000664114
0.000140366
0.0132231
0.000169261
0.000147637
0.0142804
0.00062336
0.000137924
0.00916565
0.0186356
0.0132166
0.00014653
0.000140736
0.00645198
0.000162046
0.00715944
0.000128626
0.000150079
0.000134824
0.000137317
0.000146559
0.000145775
0.000161897
0.000152459
0.000137445
0.000133263
0.00025842
0.00275741
0.0314416
0.000190463
0.0221016
0.0187165
0.0122469
0.000140803
0.000519439
0.000343692
0.0109151
0.000145171
0.0166705
0.00014752
0.000138977
0.000127956
0.0205614
0.000156328
0.000131521
0.000167651
0.000233413
0.0120332
0.000235118
0.0146897
0.0327622
0.000150414
0.0215193
0.024365
0.0143384
0.00013202
0.000149193
0.000266356
0.000135182
0.000755112
0.000204541
0.000150505
0.00424014
0.000195222
0.000158505
0.000161592
0.000137523
0.000143512
0.000148973
0.000143264
0.000132181
0.000139482
0.000139912
0.00542108
0.000144997
0.0121972
0.000150016
0.00016194
0.000357793
0.000141499
0.000143482
0.0162535
0.00412187
0.000144982
0.000139268
0.000148452
0.000139458
0.000185106
0.000142411
0.000144324
0.0001905
0.000137501
0.0251025
0.0272382
0.0116652
0.000143961
0.0126572
0.0232705
0.000172456
0.000148439
0.000240226
0.000144324
0.029574
0.000160467
0.000164582
0.000167962
0.000144858
0.000148898
0.000141371
0.000195482
0.0193258
0.0114387
0.000161446
0.000127908
0.000143339
0.0399139
0.0130415
0.000146836
0.0292119
0.00013707
0.00763055
0.000207118
0.00611452
0.000152855
0.000244053
0.0213001
0.00014276
0.000186881
0.0171056
0.000128769
0.000195486
0.0146424
0.000141568
0.000156082
0.0248965
0.000278235
0.000150922
0.000133231
0.0302312
0.0283878
0.024709
0.000194721
0.000157667
0.000138767
0.000276694
0.000139353
0.000147755
0.000141414
0.000132564
0.000141015
0.000151401
0.000375163
0.000142838
0.0025056
0.000143113
0.0266929
0.000140981
0.0199329
0.000140482
0.0053841
0.000146173
0.0291657
0.000160786
0.0266203
0.00251636
0.0062981
0.000225247
0.000172968
0.000411497
0.0208402
0.000143547
0.0309176
0.000132883
0.000152997
0.000258137
0.000146192
0.000142944
0.000164295
0.000143943
0.00133322
0.000128851
0.000143318
0.000159779
0.000183864
0.00014326
0.000174755
0.000156466
0.0287905
0.0221717
0.000132257
0.000140103
0.0142213
0.000207329
0.000141266
0.000161121
0.000143191
0.0358177
0.00708887
0.000161424
0.000147667
0.000133154
0.000150963
0.0207149
0.00014207
0.000177505
0.000165675
0.000136645
0.000145595
0.0164638
0.0162038
0.000140083
0.000146818
0.0136844
0.0119389
0.00624138
0.000202128
0.000142465
0.0249656
0.000191089
0.0293082
0.000140108
0.000177904
0.000179719
0.000159034
0.00014113
0.0154095
0.0141978
0.000173231
0.000146147
0.00333083
0.000178368
0.000135172
0.000142029
0.00358971
0.000155485
0.000206938
0.0192048
0.000150903
0.0107114
0.0105635
0.0257585
0.017266
0.0236256
0.000143754
0.000145974
0.000151853
0.012817
0.020584
0.000132103
0.0128079
0.000140678
0.000149996
0.0250183
0.000130706
0.00020579
0.000132201
0.0166952
0.00017095
0.000137901
0.000140703
0.0156243
0.0136117
0.000178712
0.0149368
0.0167706
0.0159059
0.000193678
0.000157483
0.000130614
0.000143084
0.000143138
0.00880253
0.00854823
0.000140208
0.000148346
0.000151012
0.0281303
0.00118138
0.0137288
0.000143298
0.000184408
0.000158551
0.000139224
0.000147859
0.0146749
0.0280156
0.0355168
0.000163351
0.000194161
0.036172
0.000189788
0.0122452
0.000136679
0.000167838
0.000162083
0.000168235
0.000178761
0.00867544
0.000184429
0.000150771
0.000182858
0.000746535
0.000147717
0.000136625
0.000138749
0.00601797
0.000147811
0.0122579
0.000132661
0.0255828
0.000201126
0.000144495
0.000140697
0.026231
0.000157132
0.00616498
0.00014282
0.000139157
0.000210487
0.000204066
0.0346674
0.000139188
0.00014303
0.000148848
0.000217444
0.000143363
0.0301011
0.000142639
0.000139012
0.00014508
0.0138633
0.0166138
0.0167326
0.00015752
0.0128354
0.000158988
0.000148979
0.000150626
0.000175049
0.000150919
0.00461514
0.00014986
0.0150538
0.000148597
0.000145312
0.000147534
0.000146775
0.000140222
0.00247611
0.000139919
0.000128802
0.0371552
0.0168318
0.000140459
0.000158887
0.000150364
0.0122839
0.000149311
0.00225524
0.000161387
0.0105728
0.000165095
0.000154629
0.0001509
0.000163903
0.00105173
0.000218593
0.000138643
0.000422049
0.00164629
0.00617646
0.000166315
0.000139611
0.000156965
0.000176088
0.000167725
0.000150485
0.0174362
0.000142963
0.000140425
0.0295086
0.00015749
0.000159177
0.039928
0.00549005
0.0215721
0.0153711
0.015345
0.000144815
0.0296836
0.000525016
0.000564136
0.000196828
0.000358172
0.0195686
0.0185013
0.000313949
0.000157593
0.0339631
0.00167865
0.000147191
0.000164537
0.000164211
0.0001921
0.0068919
0.000141243
0.000147495
0.000144403
0.00343153
0.000139882
0.000140217
0.00114933
0.000208897
0.000140688
0.0138858
0.000146511
0.000207995
0.000140086
0.00423434
0.000189269
0.00279409
0.000145787
0.000191929
0.000158828
0.0151634
0.000150724
0.00014866
0.000146446
0.000141877
0.000173664
0.000484844
0.000340387
0.000195722
0.0135452
0.00014044
0.0271216
0.00482429
0.000129732
0.000132364
0.00437538
0.000139533
0.000267056
0.000158231
0.000162967
0.000137375
0.000256966
0.00021813
0.000158516
0.000163684
0.0241936
0.000149745
0.000147294
0.000136047
0.00019307
0.000445387
0.00015294
0.0125491
0.000143416
0.000128743
0.000144677
0.000142955
0.000155924
0.000142987
0.000149216
0.000146315
0.000132957
0.000157615
0.000129657
0.000176241
0.000163997
0.0064903
0.000161907
0.0432936
0.0287233
0.000164515
0.000189969
0.000154535
0.00976228
0.0165218
0.000161519
0.000145953
0.000178207
0.000206194
0.0169922
0.000159826
0.0132766
0.00669111
0.000150773
0.0300681
0.000174076
0.0297335
0.000154169
0.000166271
0.000147152
0.00278773
0.000153415
0.000208785
0.0344661
0.000127811
0.00205205
0.000167509
0.000207309
0.000137658
0.000135379
0.000207817
0.0134968
0.000169053
0.000128903
0.0028463
0.000155879
0.00015134
0.000145405
0.000182606
0.000146844
0.000163393
0.00012997
0.000920082
0.000186485
0.000184347
0.000214205
0.0258857
0.000129914
0.00146449
0.000147705
0.000151944
0.000142
0.031954
0.000150241
0.000151376
0.000166654
0.000150454
0.0256144
0.00166931
0.000140184
0.000151251
0.000141238
0.000184525
0.000138647
0.019586
0.000136022
0.000191
0.000144049
0.000146299
0.000142894
0.0309152
0.0240975
0.0017514
0.0342618
0.030337
0.000150734
0.0211922
0.022626
0.0105492
0.000157941
0.00020189
0.000137109
0.0258669
0.000149209
0.000134986
0.000157226
0.00016213
0.000173282
0.00831711
0.000140841
0.0251698
0.00015982
0.0346645
0.0171123
0.000153392
0.00473898
0.0067972
0.000139759
0.000160884
0.00016545
0.000140774
0.000151372
0.0253219
0.000303532
0.0051943
0.000147723
0.0102623
0.000145186
0.0033108
0.0270104
0.0162287
0.0126071
0.000211341
0.000160842
0.0291762
0.0247525
0.000230781
0.000317146
0.0187011
0.000139783
0.000137036
0.0145782
0.000191525
0.00013097
0.000143967
0.00014131
0.000149333
0.00482899
0.000140963
0.00941517
0.0305532
0.000142415
0.00015177
0.000149279
0.000128818
0.000205208
0.000167422
0.000547251
0.000134973
0.000142821
0.00016648
0.00199364
0.0111227
0.000178155
0.000320052
0.000144109
0.000152801
0.00572296
0.000151405
0.000213452
0.000257992
0.000185033
0.000238883
0.0224053
0.000141202
0.000151907
0.000182187
0.000150016
0.000142381
0.000220665
0.000195108
0.000149959
0.000145143
0.000146569
0.000144091
0.00312711
0.000183864
0.000247926
0.000857277
0.00015095
0.000195792
0.00703658
0.00896949
0.000150641
0.000153044
0.000154228
0.000142376
0.000150803
0.0270519
0.000147424
0.00013978
0.0292257
0.00014729
0.0197228
0.000130934
0.000142363
0.000157437
0.000190858
0.00212381
0.00014116
0.00013162
0.0030479
0.000147872
0.000193375
0.00182174
0.0285283
0.000151788
0.000151596
0.000194636
0.028534
0.0315748
0.000173556
0.000157033
0.000139366
0.00408597
0.00153935
0.0145728
0.000155444
0.0208796
0.000140267
0.00724903
0.000235115
0.000202259
0.000167964
0.010099
0.00014552
0.0199355
0.000153481
0.000150752
0.00023228
0.0264178
0.00015021
0.00457372
0.00014006
0.000243719
0.000154257
0.00679103
0.000139855
0.000184255
0.00698135
0.000145217
0.000144745
0.000196693
0.0355657
0.00571654
0.000221362
0.000218634
0.000155681
0.000152966
0.00653716
0.000150198
0.000147261
0.000157169
0.025041
0.0264589
0.0119634
0.000208404
0.000145601
0.000153378
0.000152991
0.000131388
0.000193577
0.0312285
0.000202016
0.00017572
0.000139042
0.00315343
0.000141618
0.00635359
0.0223034
0.000200554
0.000150209
0.000137396
0.0127766
0.000144056
0.000175218
0.00016809
0.000184092
0.000139062
0.00916564
0.000196627
0.000146787
0.000190975
0.0305746
0.00019252
0.0213806
0.000147337
0.026851
0.0011464
0.000128692
0.000146586
0.000137959
0.0256017
0.0148635
0.000184122
0.0124729
0.00242436
0.00014941
0.000143943
0.000140025
0.000149649
0.0257312
0.00142875
0.000147141
0.000204698
0.000165282
0.000165712
0.000142774
0.000153733
0.00339436
0.000148874
0.000150969
0.000150795
0.000140278
0.000145152
0.000139452
0.000193606
0.000143495
0.00283528
0.000192315
0.000143029
0.000168764
0.000165095
0.0162066
0.000139949
0.0127964
0.000185849
0.0130394
0.000166865
0.00715258
0.00647209
0.000144213
0.00137837
0.00517764
0.000140957
0.000166839
0.000331644
0.00019193
0.0149508
0.000143204
0.000146438
0.00212891
0.000150867
0.000181882
0.000929667
0.00018893
0.0287295
0.000143079
0.00418951
0.0271533
0.00014415
0.0253895
0.00938985
0.00101383
0.000197671
0.027259
0.000142596
0.00742612
0.0153478
0.000387386
0.00698077
0.000261125
0.00345902
0.000142936
0.000170424
0.000155421
0.0153045
0.000193453
0.00432302
0.000134202
0.00510066
0.000143971
0.00013599
0.000145253
0.000176768
0.000157433
0.000150794
0.000142887
0.000132845
0.00926096
0.000152167
0.000454123
0.000148998
0.00835206
0.000137923
0.000128654
0.0259374
0.000149971
0.000283624
0.000207092
0.000152766
0.00964605
0.000184457
0.00990251
0.000164835
0.02116
0.000144189
0.000150242
0.000137126
0.000160686
0.0164271
0.0187477
0.00272969
0.000153407
0.00013391
0.0324376
0.000145873
0.018642
0.000144202
0.000146844
0.00014245
0.000171363
0.000696516
0.0121156
0.000147754
0.00015076
0.00483119
0.000128636
0.0145813
0.00535816
0.00016433
0.000210083
0.000164704
0.000177181
0.0256086
0.00015888
0.00131026
0.000204797
0.000146077
0.00614169
0.00416171
0.000142537
0.000144629
0.000142019
0.000148373
0.000274228
0.0072038
0.00883701
0.000135515
0.000141153
0.000144044
0.000149719
0.000147858
0.000158046
0.000523911
0.000146829
0.000144487
0.0053775
0.0267263
0.000219474
0.00186547
0.00689064
0.000140763
0.000331478
0.0264092
0.0263975
0.0031075
0.000149581
0.000230869
0.000209472
0.000142226
0.00165643
0.00875784
0.000130193
0.0438003
0.000150063
0.000143172
0.00479422
0.000143853
0.00581621
0.0011584
0.000139705
0.0226774
0.000172268
0.000152996
0.0193362
0.0156565
0.000141221
0.000140191
0.000142765
0.000147929
0.000154378
0.0173398
0.00014836
0.000139519
0.000248435
0.00744923
0.0131468
0.000198368
0.000143419
0.00307868
0.000247754
0.0365019
0.000140561
0.000139562
0.000149304
0.000150777
0.00022327
0.000163948
0.000130113
0.000195388
0.00504879
0.000145696
0.00013757
0.000165525
0.000148765
0.00213503
0.0144756
0.000155678
0.000152666
0.000135576
0.000148991
0.000150732
0.000142266
0.000147501
0.000146519
0.00693935
0.000144164
0.0024959
0.000142232
0.00289644
0.000152427
0.00964758
0.0208487
0.0139262
0.00347186
0.0211841
0.000188476
0.0106769
0.0043555
0.000193837
0.00896667
0.000158578
0.000196066
0.0275887
0.0013038
0.000134948
0.00536792
0.000142657
0.000211069
0.027648
0.000212056
0.000145243
0.00014077
0.000144329
0.000152523
0.0110556
0.0156373
0.000149235
0.0156271
0.000197292
0.041515
0.000137046
0.00020962
0.00019365
0.000181927
0.00024766
0.0327225
0.000186981
0.000146712
0.000203321
0.000205884
0.0322881
0.000142477
0.000135957
0.000147345
0.0148454
0.00658481
0.000144095
0.000147923
0.000145007
0.000142231
0.0162836
0.00255899
0.000180369
0.0200443
0.000142402
0.0294639
0.0157227
0.00195012
0.000153721
0.00018447
0.0137149
0.0160022
0.000136448
0.0201541
0.00775157
0.000157461
0.000148304
0.0407238
0.000165983
0.0331403
0.014167
0.000148182
0.000140801
0.000156065
0.000148661
0.000143211
0.000154416
0.000190886
0.000139793
0.000142407
0.000150908
0.000151157
0.00013903
0.0164481
0.000156719
0.0323277
0.000146595
0.000195584
0.000140742
0.000155475
0.0215895
0.000159645
0.000145632
0.000153896
0.000167469
0.000174924
0.0187713
0.00221461
0.021408
0.0189242
0.0367484
0.0176308
0.00445008
0.00020324
0.000168933
0.000136903
0.00014384
0.00265077
0.000142736
0.000152416
0.000136908
0.000144497
0.000140032
0.000139604
0.000146811
0.000143609
0.01558
0.000155614
0.000149409
0.000140031
0.000155507
0.00717182
0.000161786
0.000177047
0.000193686
0.000155936
0.00516191
0.00014152
0.000170114
0.00014202
0.000161445
0.00014732
0.000440902
0.0169053
0.000192308
0.000150199
0.000142544
0.00889108
0.000147298
0.00019697
0.000143177
0.000217275
0.0161313
0.000198395
0.000156275
0.000191212
0.000147489
0.00666408
0.000176158
0.00435625
0.000244296
0.00355422
0.000746854
0.0255121
0.000142335
0.000139579
0.000145596
0.0126014
0.000142133
0.00027619
0.000182523
0.000149968
0.0273178
0.020794
0.000140558
0.00013645
0.000270806
0.0105521
0.00713401
0.000144902
0.00770075
0.000131159
0.000216358
0.000190514
0.000170006
0.000155455
0.00614
0.000141582
0.0147386
0.000168081
0.0131208
0.0226123
0.000214965
0.000156841
0.000163231
0.00013861
0.000163557
0.000141083
0.000165994
0.000148935
0.02266
0.000143022
0.00014902
0.000136812
0.0295398
0.000139265
0.0370497
0.00738757
0.000225149
0.0113868
0.000201659
0.000211225
0.000150249
0.00016114
0.000141192
0.0108718
0.0158525
0.00698721
0.000208153
0.00527569
0.000194504
0.0281373
0.000129282
0.0125976
0.0231975
0.000293562
0.000148635
0.00168317
0.00733583
0.00220339
0.000145495
0.000178051
0.00454669
0.000134113
0.0235753
0.000151131
0.000184748
0.000151193
0.000182077
0.000127825
0.000132243
0.00012924
0.000166929
0.000146521
0.00102383
0.000147791
0.000138598
0.00644244
0.000142984
0.000164553
0.00016216
0.000144489
0.017577
0.000163643
0.000151096
0.000142473
0.000150088
0.0142149
0.000142595
0.000139365
0.000178327
0.0176591
0.000153492
0.000203361
0.000134242
0.000203486
0.00015208
0.000150538
0.00582041
0.000186586
0.0217923
0.000147858
0.000196975
0.000153449
0.0202911
0.0147581
0.000148504
0.0293241
0.000890891
0.000138795
0.0143984
0.000163435
0.000157071
0.000184951
0.000150718
0.000141552
0.000155283
0.000200031
0.000153174
0.000184082
0.000174181
0.000201079
0.000132622
0.00019026
0.000146272
0.0169433
0.000191346
0.000142492
0.0140875
0.000141492
0.000138934
0.000261713
0.011032
0.00686893
0.000205028
0.00669204
0.00025719
0.00014333
0.000146294
0.000198058
0.00296458
0.000149946
0.000208788
0.000151704
0.000145237
0.0424792
0.000185196
0.000201147
0.000182199
0.0341336
0.000129338
0.000195227
0.000154461
0.000221183
0.00236716
0.00341202
0.000145413
0.000150338
0.0357822
0.000155662
0.0127347
0.00316954
0.000144509
0.000190645
0.000631281
0.000137801
0.0182754
0.000154549
0.015356
0.0314219
0.000147094
0.000188238
0.000146954
0.000142617
0.000164256
0.0302281
0.000132321
0.000155846
0.0281238
0.000145678
0.000151609
0.0359406
0.000145477
0.0137396
0.000143967
0.000150944
0.000134905
0.000141126
0.000219299
0.000151627
0.00019659
0.000155276
0.000144847
0.000192782
0.0338528
0.000160472
0.000194533
0.0141542
0.00304505
0.000147702
0.000151156
0.000552446
0.000142598
0.000148149
0.0288373
0.000200402
0.000158539
0.000146985
0.000153652
0.000210686
0.000153919
0.00014143
0.0307649
0.00789954
0.000130433
0.000141334
0.00293624
0.0385892
0.000148047
0.000151949
0.000394409
0.000199317
0.0156136
0.000137324
0.0132869
0.000153922
0.000161481
0.0238956
0.00234576
0.00019149
0.00127702
0.000141796
0.0170874
0.000153102
0.00322412
0.000787583
0.000144219
0.0281384
0.000150751
0.000136006
0.000188026
0.000203653
0.0133963
0.016694
0.000144638
0.000210317
0.000191628
0.000163948
0.000150877
0.000149006
0.00015043
0.0231835
0.0405606
0.0370528
0.0232643
0.00015572
0.000178926
0.0144199
0.000157269
0.000140979
0.000155078
0.0374521
0.000161372
0.00532919
0.0144525
0.00376328
0.000158924
0.0157779
0.000167062
0.000194517
0.0053844
0.0224605
0.0118325
0.000194286
0.000144438
0.0235545
0.000136775
0.0246239
0.000136163
0.000140677
0.000151424
0.000695453
0.00683431
0.0154803
0.000170728
0.016469
0.000143863
0.000174395
0.000136563
0.000195118
0.0127274
0.00024127
0.020458
0.0179108
0.00524721
0.00425641
0.000149231
0.0182291
0.000147598
0.0263423
0.00277426
0.000156303
0.000145001
0.00455528
0.000199423
0.000130407
0.000144042
0.0168512
0.000137266
0.000147708
0.000196727
0.000247898
0.000132897
0.000198947
0.000183098
0.00567749
0.0133132
0.000145666
0.000139262
0.0021198
0.000144298
0.000222446
0.000174459
0.0210412
0.000162681
0.000168072
0.000139603
0.000128726
0.0151188
0.000173702
0.000182237
0.000152672
0.00993364
0.000215804
0.00837967
0.00584782
0.000150784
0.00128444
0.000142647
0.000167014
0.000157636
0.0209549
0.000136902
0.000138345
0.0211145
0.000206023
0.0242506
0.00015845
0.0256937
0.00122307
0.000153572
0.0119087
0.000154591
0.000227014
0.00620436
0.0139235
0.000142062
0.00818605
0.010508
0.0228683
0.0200336
0.0113138
0.000155872
0.0346876
0.000215411
0.0059119
0.000182844
0.00016243
0.000130521
0.00019107
0.00014066
0.00186418
0.000161817
0.000149649
0.000149606
0.000220035
0.00158396
0.000142517
0.00364801
0.000192381
0.000266895
0.0215185
0.00941433
0.000150905
0.0211148
0.000132501
0.00565398
0.0307668
0.0276765
0.000143893
0.00020523
0.000143462
0.0365383
0.000177229
0.00478053
0.000189266
0.0164237
0.000189678
0.0312829
0.000137487
0.00930402
0.000782432
0.000147044
0.000184655
0.0291375
0.000147853
0.000145104
0.000166997
0.00356962
0.000143364
0.00014239
0.000140714
0.00400413
0.000165635
0.000192479
0.000275847
0.000165063
0.000158958
0.000127772
0.000137131
0.000135764
0.0132215
0.0319934
0.000141377
0.000156383
0.000144745
0.000190348
0.000149685
0.00410822
0.000149942
0.0260236
0.00287651
0.000147813
0.000210663
0.00031903
0.000139458
0.000131435
0.000204395
0.0145286
0.000139395
0.00359723
0.0418534
0.000365772
0.0238373
0.0197965
0.000183044
0.00014697
0.0205952
0.000143846
0.000202644
0.000135216
0.0135782
0.000138033
0.0118284
0.000153499
0.00875225
0.00013611
0.0139945
0.000130421
0.000147733
0.000217922
0.000152459
0.000136818
0.000165768
0.0194717
0.000144009
0.0216511
0.000152608
0.0124144
0.00527221
0.0111508
0.0380821
0.000145549
0.000159117
0.0188155
0.0176536
0.000145141
0.000169724
0.00018837
0.0138062
0.000147469
0.021813
0.000190967
0.000137535
0.0407797
0.0291733
0.000151249
0.0132675
0.00018333
0.0129625
0.0116463
0.000144741
0.000142283
0.00403984
0.000142819
0.033694
0.000155266
0.0168555
0.0196096
0.00013772
0.000218717
0.000129787
0.000210261
0.000145351
0.000165137
0.0262611
0.000143844
0.0144562
0.000151237
0.000146031
0.000220258
0.000147442
0.0276791
0.00345285
0.0376901
0.000231686
0.00298326
0.000152303
0.000142575
0.0275616
0.0274803
0.000136835
0.00454876
0.000146769
0.000131751
0.0283979
0.00636619
0.000156687
0.000140169
0.000144476
0.000134524
0.0118988
0.000144768
0.000674966
0.000168629
0.0108641
0.000200046
0.000270225
0.000141341
0.00693327
0.0170802
0.000275048
0.000150599
0.00573183
0.000128312
0.0161837
0.0216969
0.000137152
0.000191217
0.000183427
0.000166702
0.000157357
0.000158422
0.00829562
0.0292673
0.000255792
0.000142974
0.013165
0.000148482
0.0184376
0.000192711
0.000204604
0.0280367
0.000144742
0.00724262
0.000192039
0.000156135
0.0175522
0.0261617
0.0324229
0.000219834
0.000147006
0.000209474
0.00583016
0.000166724
0.00161058
0.0258435
0.0205537
0.00601716
0.000138645
0.000134965
0.000152857
0.000154559
0.000145238
0.000144178
0.000158234
0.000149508
0.000204493
0.0109175
0.000846821
0.00015615
0.0209581
0.000189116
0.0066308
0.000152409
0.0002499
0.000191904
0.0252052
0.0243241
0.000140027
0.0258257
0.028958
0.000146451
0.000148344
0.0140354
0.022901
0.00689602
0.000215551
0.000141062
0.000151941
0.00528317
0.000141884
0.000163822
0.0133367
0.000136522
0.000204075
0.0174153
0.0314637
0.000147978
0.00149194
0.000163955
0.000168823
0.0336798
0.000128361
0.00014067
0.000137498
0.00367324
0.0270412
0.000220378
0.00014573
0.00330503
0.000149252
0.000587469
0.012074
0.000150898
0.000138045
0.000144026
0.0357593
0.00351839
0.0380061
0.000146006
0.0249245
0.0139829
0.00642948
0.000141392
0.00411454
0.000145968
0.000136432
0.000140687
0.0174778
0.00018945
0.00971563
0.000179165
0.0110657
0.000137466
0.000147963
0.0243545
0.000168295
0.000142977
0.0162631
0.000161153
0.0324801
0.00282289
0.000147461
0.000136747
0.000145346
0.0304931
0.021028
0.0122863
0.000191974
0.000187741
0.00790432
0.00422785
0.0021696
0.00269881
0.000276628
0.00014504
0.00394523
0.000137859
0.000132446
0.000276007
0.00812485
0.000140401
0.00014678
0.00190236
0.000924112
0.000157178
0.0103266
0.000148842
0.000223682
0.000147794
0.0156134
0.0229635
0.00160381
0.000138977
0.000146353
0.0266719
0.0140968
0.029717
0.000497373
0.0375065
0.0287327
0.0314324
0.00484509
0.0280335
0.000148292
0.00233562
0.0307537
0.000193557
0.0001409
0.00015196
0.0310057
0.000147604
0.000137777
0.0219789
0.000142866
0.0166049
0.000128646
0.0192966
0.0179285
0.0131951
0.000138097
0.000144937
0.000155588
0.000129725
0.00453295
0.000152359
0.00397853
0.0162335
0.00869925
0.000190003
0.000183762
0.00656022
0.000201646
0.000145011
0.000148801
0.00199761
0.0215738
0.00740018
0.00339954
0.000171356
0.000166012
0.000128861
0.00020061
0.000148818
0.0060599
0.000227839
0.000206191
0.000145346
0.0001622
0.000204519
0.000175495
0.0364202
0.0188223
0.000137034
0.000149806
0.000142379
0.0128351
0.000144572
0.01363
0.000168578
0.0331805
0.000135116
0.0247886
0.0135819
0.000131845
0.000142677
0.000195617
0.000192698
0.000177602
0.00745786
0.000136759
0.0211054
0.0130875
0.000140056
0.0157082
0.00856482
0.000190882
0.000163809
0.0322181
0.0284148
0.0227106
0.00497471
0.0140195
0.000136002
0.00388206
0.000142947
0.00013448
0.0198972
0.00686075
0.0278898
0.00535742
0.00455054
0.000227075
0.000155419
0.000146239
0.000139191
0.0255724
0.000134824
0.000187837
0.00366776
0.0241004
0.000128009
0.000135998
0.041436
0.000158719
0.0230664
0.000148811
0.000152064
0.000148815
0.000137281
0.000184917
0.00486967
0.00555771
0.0299523
0.000504725
0.00178046
0.00477701
0.00707921
0.0200703
0.000139439
0.000218401
0.000142699
0.00014277
0.00362179