/*--------------------------------*- C++ -*----------------------------------*\
| =========                 |                                                 |
| \\      /  F ield         | OpenFOAM: The Open Source CFD Toolbox           |
|  \\    /   O peration     | Version:  v2012                                 |
|   \\  /    A nd           | Website:  www.openfoam.com                      |
|    \\/     M anipulation  |                                                 |
\*---------------------------------------------------------------------------*/
FoamFile
{
    version     2.0;
    format      ascii;
    class       volScalarField;
    location    "200";
    object      omega;
}
// * * * * * * * * * * * * * * * * * * * * * * * * * * * * * * * * * * * * * //

dimensions      [0 0 -1 0 0 0 0];


internalField   nonuniform List<scalar> 
27915
(
0.0284909
0.0997309
3.12029
0.0237498
0.0244407
0.0315364
0.0226387
3.09023
0.0243162
3.46206
0.0443965
2.64929
0.389343
0.0226288
0.0233973
0.0238779
1.63514
0.0247585
0.150516
3.11749
0.401672
0.0258838
1.68552
0.0246606
0.0238816
0.0234691
2.5808
0.0244201
8.29844
0.0282152
0.0244993
0.042323
0.0232571
0.0232836
2.80216
0.0232907
0.0250583
0.023472
0.0770772
0.0244923
0.0269736
0.0250286
0.298942
0.0240355
1.3553
0.0245163
0.0242457
0.0399362
0.0245959
0.0238812
2.97917
0.122335
2.84184
0.0282317
0.0289669
0.0242463
0.0244894
0.384537
0.382112
0.0244882
0.338634
0.0326065
1.31025
29.9323
0.0246939
0.0809939
2.65835
3.00894
2.80899
0.0245423
0.0858903
0.0246831
0.0247668
0.596857
3.37933
0.192855
0.0280471
0.0230153
7.269
0.0477937
0.0312108
0.0247494
0.0344221
3.24169
2.72222
0.551451
0.0232374
0.32663
2.54519
0.0408338
0.0249467
0.58119
0.0238516
3.19513
9.00458
3.06906
0.431376
3.4289
0.0322233
0.0222455
0.0321502
0.0234583
3.39892
0.0256134
0.0289501
0.0247391
3.40407
0.0947424
0.0234608
3.17811
2.86856
0.0268528
0.0737628
0.908944
0.0906397
0.118165
2.2253
0.0413688
0.0255771
0.0246645
0.0249032
0.0639291
0.0232726
0.0258597
0.0242952
1.27045
1.70933
7.41706
0.0245057
0.0240431
0.0324872
2.50575
3.17438
0.429713
1.80929
0.0710607
0.69625
0.0232281
0.0240767
0.0248142
0.0276203
0.0290821
0.0254313
1.43511
2.84999
2.9522
8.7367
0.0387912
0.21014
0.0347107
2.30263
0.0232081
0.415192
5.28764
0.988522
2.76926
2.62207
0.0235204
0.0240082
0.0252375
0.193159
15.1471
0.0236768
0.125103
0.495913
0.0246561
0.35132
1.5573
3.42985
0.0251751
0.0328146
0.0248168
0.0243431
0.0413487
0.0225776
7.04673
3.15613
0.0253403
0.0234775
31.4306
2.61272
0.0324055
0.0255231
2.93357
0.071489
0.577527
0.0237773
0.0238132
4.25062
0.0232271
3.27962
0.0503209
0.711424
0.0253189
0.0222224
0.0246153
0.646953
0.180223
0.0249312
0.0326745
2.85443
2.22818
0.023388
0.0245581
7.72557
7.31351
0.0957536
0.0363992
4.11306
0.0243511
0.0338355
1.76349
0.0248015
0.0246732
0.0244181
0.0260028
0.0343593
0.626163
0.0240702
0.0246825
0.0246138
0.0301059
0.0292251
0.0240828
9.56511
0.921693
0.024066
0.632683
0.0241202
0.023191
9.15833
0.0513795
1.74801
1.54493
0.409925
0.0255894
1.73937
0.0260591
0.025611
0.0236164
0.761968
0.0259849
0.0730151
2.25343
0.0244882
0.0234826
5.08638
28.8338
0.0294586
0.890205
0.0288155
2.92116
0.0223267
0.0245135
0.0246746
0.323587
0.0283576
0.0241808
0.0512016
3.31545
3.27698
0.112113
0.055209
0.0681156
0.0559972
1.29143
0.0237362
3.29695
2.95033
2.82395
0.0255577
7.41053
8.50847
31.5187
0.0292432
0.0237409
0.0259052
0.0258617
0.0235269
0.0257388
0.0240424
0.0222913
0.023001
0.0446438
0.682942
3.15591
6.60223
0.768036
0.0282654
3.4407
0.137397
0.0247155
14.3645
0.0247177
0.0258775
0.106372
0.682374
0.574622
0.0379421
0.0248832
0.161738
0.0317143
0.0238812
0.0250621
0.62135
2.78209
0.0330056
0.0236028
5.30595
0.0260159
0.702859
0.0248591
2.76939
0.0241668
0.782751
0.024694
0.0222538
3.00125
6.90711
7.10718
0.0472282
0.0221609
0.0237647
0.0246366
0.0500306
0.0308384
0.359234
6.97113
0.0243651
0.0233992
0.0241133
0.0536778
0.0246873
0.0238975
0.648712
0.0225132
0.163084
0.0235282
1.72802
29.5189
0.028148
4.05261
8.63293
2.96887
0.0225061
0.0240864
0.0248469
1.71885
3.18085
0.0247059
0.0246187
0.0236352
1.24062
0.0486935
0.0483655
0.236264
0.0323334
0.0242491
0.0236179
0.492112
0.0644678
0.0256788
0.0252931
0.0228794
0.0237763
6.26954
0.0323606
0.0236092
0.0244662
0.0238022
5.20592
0.0225426
0.0868522
0.0249945
3.05326
0.0225666
0.0231906
0.0984528
0.0337401
0.0223272
0.0339124
0.153995
0.0343393
1.15795
2.58826
0.0513395
0.686609
0.153603
0.0248626
1.55362
0.0246942
3.6801
3.19802
0.0237806
3.53205
0.0939333
0.0316966
0.0261871
0.0238941
2.52907
0.0236292
0.0329053
8.32492
0.0250779
0.19059
0.0277527
0.15065
0.0244897
1.81343
0.099084
3.61701
0.0348422
0.023786
0.0233256
2.63348
0.0246659
0.0799517
0.0257892
0.0901368
0.0298539
0.194625
0.0241222
0.0315673
3.24209
3.41876
0.0264426
0.0236087
2.79096
3.36438
0.0243311
3
0.0261605
0.89593
0.0324071
0.0236805
0.023619
0.0243917
0.0258222
0.0517253
0.133865
2.80986
0.100503
0.0963296
0.0956325
0.0238224
0.0275616
6.10389
0.0250432
0.26833
0.0222414
1.29185
2.51683
0.0236727
0.0260024
2.87118
0.391089
2.79252
0.0238999
0.0355218
8.41143
0.0237583
0.0275488
1.91721
0.027036
7.07256
3.45471
0.0245918
0.0240645
0.297651
0.321417
0.0240352
0.0314009
0.040188
0.0236283
0.0723874
0.0320339
0.0240494
0.0240936
0.0351513
0.0414191
0.147073
0.0383286
8.16702
0.56369
4.70201
0.0257186
0.0334304
0.0393015
0.0335052
0.0233776
0.219994
0.274373
0.221373
0.0258278
4.84643
0.042909
0.0282918
2.83693
3.01231
5.41282
0.024105
0.0256053
9.93345
1.13373
3.68612
6.38443
0.0237412
0.0261593
9.84281
1.18867
0.0239478
0.0887394
0.128123
7.06642
7.03708
3.24772
2.79728
0.0236534
0.0865406
0.0342622
0.0243159
0.0236665
0.0236659
3.4104
0.0221461
0.475737
0.0280126
3.11507
0.39411
4.90426
0.0222982
2.70886
4.42109
0.10939
0.0369235
0.212059
3.06234
0.0241648
0.0857213
0.0243829
0.0244579
0.0377744
0.0247008
0.386215
0.0243411
1.75301
0.0236219
3.14607
0.0235564
0.69391
0.0244755
0.0251215
0.05421
0.79315
0.0342919
0.0395083
0.672083
3.40718
0.138061
0.0240283
7.55693
3.41235
0.116289
0.0344544
0.0247441
0.0251276
8.74292
0.0236494
2.97969
0.0249037
0.10267
2.80457
0.04015
3.34892
0.0232012
0.473492
4.07517
0.903123
0.111037
0.0233727
0.0237991
0.094803
0.0396982
3.11826
0.573127
0.0250796
4.63192
0.0233012
0.0240936
30.5762
0.0234425
0.0247271
0.512354
0.0406543
2.4989
0.0234082
2.79587
0.733567
0.0236398
0.0232179
2.66136
0.0246284
0.0236976
0.0232202
0.319882
0.0240852
3.17377
0.0277403
0.0249249
8.69058
0.243664
0.0237046
3.04843
2.94905
9.02514
0.0246751
0.0241281
5.81056
0.0321738
0.490975
0.0222257
0.025254
0.0232201
0.0231899
0.024665
0.0246721
0.0309009
0.0259463
0.0235373
0.0228505
0.141595
1.80943
3.23763
0.0937148
2.80434
4.27564
9.4313
0.0241372
0.0942141
0.0484356
1.43285
0.0247052
1.1905
0.0249028
0.0236728
0.0221125
3.41287
0.0259201
0.0225364
0.0374133
0.138555
0.904947
0.396818
6.10467
3.14579
0.0253392
3.52632
2.47588
6.07454
0.0227703
0.025157
0.190134
0.0232155
0.230739
0.145975
0.0251055
0.3562
0.0831079
0.0291716
0.0305458
0.0236523
0.0241285
0.0250027
0.0244838
0.0227955
0.0234944
0.0239337
1.00535
0.0246847
9.91976
0.0252341
0.0308353
0.0492799
0.0238336
0.0243158
1.47279
0.352858
0.0246817
0.0237181
0.0249542
0.023597
0.543628
0.024307
0.0246549
0.0311055
0.0236499
2.7138
2.82977
9.184
0.0242454
4.62361
2.62574
0.0392974
0.0247951
0.065927
0.0242786
2.96769
0.0292063
0.0333592
0.0378198
0.0246733
0.0250682
0.024257
0.106329
3.20931
1.28205
0.0270529
0.022105
0.0241212
3.50701
8.28271
0.0248258
2.58581
0.0234829
0.822689
0.161608
0.782459
0.0262554
0.0903628
3.24045
0.0239517
0.0734574
3.73793
0.022247
0.106057
7.86404
0.0238535
0.0275912
2.71207
0.597331
0.0254696
0.0229356
2.4619
2.99326
1.61686
0.0972556
0.0287466
0.0238343
0.24003
0.0237641
0.0247491
0.023829
0.0228537
0.0238164
0.0255949
0.355962
0.0242217
0.315045
0.0244458
2.85603
0.0237698
5.49121
0.0235973
0.727312
0.0246313
3.06819
0.03115
2.78929
2.19077
24.4953
0.18718
0.0286377
0.716059
2.84529
0.0245598
2.47321
0.0229025
0.0263314
0.162734
0.0247568
0.0243549
0.0333097
0.0245871
0.941584
0.0222579
0.0241684
0.0303734
0.066988
0.0241041
0.0416056
0.0277832
3.35622
3.21274
0.022785
0.0240452
1.16756
0.153482
0.0238455
0.0313611
0.0244442
3.15374
23.5624
0.0305761
0.0248029
0.0229313
0.0254853
2.79821
0.024295
0.032976
0.0349006
0.0230831
0.0246075
5.15853
3.56416
0.0240282
0.024824
2.8176
8.96116
0.45824
0.127786
0.0243071
3.17998
0.057858
2.56429
0.0239573
0.0529994
0.0517936
0.0285729
0.0241323
6.85471
6.72419
0.0298856
0.0247447
0.524609
0.0536209
0.0228407
0.0242883
0.677539
0.027314
0.156301
3.16574
0.0254583
2.66295
1.12948
2.61673
1.61768
1.66611
0.0241777
0.0247396
0.0259419
9.3911
3.09147
0.0227828
4.66578
0.0236937
0.0253665
1.62458
0.0224574
0.145871
0.022799
5.67189
0.0298315
0.0235707
0.0237421
6.82254
4.46827
0.0293131
4.11212
3.59437
4.54543
0.0935144
0.0283632
0.0224531
0.0245076
0.0242816
1.32097
11.7011
0.0240576
0.025116
0.0255181
1.92713
0.673198
6.73484
0.0244498
0.065885
0.0286374
0.0234701
0.0249068
1.16479
3.29889
3.26118
0.0320721
0.0994212
3.24866
0.0562117
6.68325
0.023406
0.0274298
0.0321261
0.0276389
0.0543692
14.5811
0.065606
0.0254664
0.0622168
1.34498
0.024704
0.0233971
0.0238354
0.476783
0.0247753
4.54357
0.0224916
3.38503
0.123331
0.0242921
0.0240354
2.90087
0.0278184
2.62958
0.0245136
0.0235026
0.0350366
0.0406267
3.72063
0.0234665
0.0245022
0.0250509
0.0360806
0.0241529
2.28235
0.02394
0.0234337
0.0244339
7.09612
2.81468
1.4827
0.0284939
1.74717
0.0295941
0.0251094
0.0251434
0.0455837
0.025493
0.985894
0.0256414
4.01185
0.0250418
0.024455
0.0247837
0.0248113
0.0239691
0.490582
0.0240057
0.0222541
3.31213
1.17953
0.0237109
0.0288232
0.0253127
1.423
0.0254941
0.299997
0.031601
8.83291
0.0275391
0.0257876
0.0254925
0.0274203
0.201337
0.249515
0.023825
0.129755
0.310573
0.69945
0.0358408
0.0235906
0.0283008
0.032482
0.0356812
0.0253548
3.80819
0.0245286
0.0237231
2.23571
0.0284503
0.0299045
3.47885
0.433804
3.81156
2.87163
2.68758
0.0246637
2.90975
0.114966
0.218535
0.0381102
0.0854711
3.4123
3.47397
0.792524
0.0281211
3.14941
0.295514
0.0247585
0.0336092
0.0330313
0.0894607
22.0662
0.0239144
0.024813
0.0243809
2.10422
0.0240012
0.0236869
0.25132
0.0402245
0.0237003
5.96135
0.0247933
0.162399
0.0239268
0.42341
0.083623
1.99624
0.0246151
0.0895831
0.029436
7.15495
0.0253923
0.0249165
0.0247255
0.0241571
0.0448446
0.186142
0.0880534
0.0713735
7.02918
0.0239926
1.89278
0.447078
0.022362
0.0224585
0.609236
0.0238023
0.0609559
0.029127
0.032189
0.023373
0.0584316
0.0323601
0.0292582
0.0331769
2.86994
0.0251659
0.0248771
0.0233995
0.0949422
0.10746
0.0261189
5.19805
0.0245942
0.0222444
0.0246516
0.02449
0.0274119
0.0243652
0.025058
0.024864
0.0229114
0.0260424
0.0223522
0.0485476
0.0331034
23.9392
0.0307163
3.5841
2.94053
0.0326287
0.0886621
0.0270152
4.03428
3.93687
0.0317667
0.0246747
0.0524444
0.031281
1.3326
0.0302372
7.90072
22.4348
0.0254069
2.48063
0.0454532
3.03283
0.0269316
0.028504
0.0247396
0.369148
0.0253869
0.16342
3.7452
0.0220918
1.37642
0.034865
0.0490291
0.0235402
0.022872
0.156221
2.81972
0.0322613
0.0222514
0.477259
0.0275414
0.0255794
0.0246223
0.0329707
0.0249751
0.0319802
0.0223868
0.188527
0.0722887
0.0674673
0.0528092
2.87199
0.0223782
0.181058
0.0249313
0.0257366
0.0241701
3.11337
0.0254115
0.0255941
0.0352943
0.0253415
2.87419
0.265533
0.0240414
0.0255321
0.0237789
0.0696239
0.0238275
3.7269
0.023394
0.0891283
0.0241057
0.0248285
0.0244837
3.02438
2.6113
0.203875
3.16846
2.99067
0.0260178
4.02435
3.71539
11.3277
0.0282427
0.0369772
0.0234898
2.65921
0.0250539
0.0232184
0.026631
0.0309234
0.0443493
0.694157
0.0237448
2.85802
0.030205
3.18817
1.35863
0.025501
2.38363
0.387723
0.0236629
0.0312351
0.0333689
0.0240526
0.0257626
2.73675
0.632488
1.52938
0.0248402
5.2509
0.024539
0.274492
4.134
3.45693
3.2638
0.308998
0.0272259
2.93726
1.54503
0.048253
0.0766588
2.8185
0.0239091
0.0234618
1.78165
0.0348172
0.0224854
0.0245292
0.0238182
0.025148
0.554311
0.023845
7.64416
2.49454
0.0239628
0.0257428
0.0251275
0.0222397
0.0384144
0.0372208
0.123287
0.0232083
0.024413
0.0355091
0.252227
1.11675
0.0490102
0.128589
0.0246295
0.0258441
0.46758
0.025625
0.0526543
0.0561312
0.0514497
0.062431
2.8707
0.0238009
0.0253998
0.0519762
0.0250562
0.0244498
0.0679314
0.212629
0.0250438
0.0245314
0.0246104
0.0245368
0.299718
0.064165
0.0380539
0.158091
0.0259524
0.102623
0.390589
2.60974
0.0253805
0.0260784
0.0265675
0.0244481
0.0251945
3.40627
0.0250004
0.0239111
4.46225
0.0248763
2.75642
0.0224815
0.0239539
0.0260153
0.0957061
0.427747
0.0237157
0.628451
1.94811
0.0249569
0.0927857
1.77796
2.90426
0.0256867
0.0256846
0.0368758
3.44295
1.64112
0.0403872
0.028348
0.0236304
0.330308
1.52904
8.13525
0.0264445
3.57264
0.0240734
0.49021
0.0465712
0.131487
0.0362059
10.0498
0.024732
1.7133
0.0262154
0.0260254
0.0458866
3.41308
0.0252671
0.960098
0.0235949
0.0369348
0.0265022
0.48461
0.0235747
0.0508033
0.639979
0.0247151
0.0244305
0.279563
3.21366
0.466849
0.276186
0.0421682
0.0272726
0.0259522
2.75038
0.0255446
0.0248894
0.0283124
1.58343
3.42253
3.32465
0.0374653
0.0246425
0.0256066
0.0262941
0.0223661
0.0667333
3.34101
0.0375952
0.0476828
0.0238582
0.381396
0.0237549
0.803272
2.84885
0.123141
0.0255303
0.0235124
2.60619
0.0242873
0.0470451
0.0361515
0.0653907
0.0238626
2.94771
0.0352874
0.0245876
0.0892134
2.68773
0.0897915
2.77016
0.0249706
2.8039
1.24332
0.0222358
0.024614
0.0233071
2.63588
5.6841
0.0553462
6.50173
1.59837
0.025221
0.0245314
0.0236052
0.0251539
2.9986
1.79081
0.0250663
0.0725229
0.0278115
0.0346511
0.0239574
0.0263146
0.335484
0.0247826
0.0255408
0.0259359
0.0239792
0.0246131
0.0238115
0.0664377
0.0245518
0.360806
0.0918501
0.0242214
0.0275306
0.032999
4.53867
0.0239182
8.92903
0.0330631
0.911664
0.0285829
0.644687
1.00325
0.0246355
0.169813
0.378417
0.0237268
0.0366173
0.415841
0.0882367
7.80029
0.0244511
0.0247363
0.40383
0.0254639
0.0511022
1.44099
0.0867495
1.72435
0.0243485
0.583271
2.86679
0.0244667
2.68546
0.86934
0.679301
0.0753546
3.32926
0.0242072
0.398934
6.37481
0.103514
1.03368
0.56491
0.329458
0.0244242
0.029053
0.02723
1.95897
0.0938663
0.340158
0.0230608
2.347
0.0245373
0.0229866
0.0246725
0.0509021
0.0279831
0.0253069
0.0240654
0.0226539
0.841127
0.0258549
1.00022
0.0253581
0.695718
0.0232851
0.022228
2.58112
0.0252129
0.600848
0.152518
0.0260999
3.31683
0.0670293
1.09699
0.0335546
1.85744
0.0244663
0.0254442
0.0235779
0.0300435
4.24431
2.27864
0.268754
0.0255837
0.0230146
3.458
0.0247813
3.14875
0.024648
0.0249118
0.0243403
0.0332841
0.141815
3.79575
0.024931
0.0254355
0.411041
0.0221591
4.11122
0.358783
0.0326074
0.528282
0.033621
0.0509201
2.91777
0.0269866
0.720559
0.0722039
0.0247911
0.989417
0.685257
0.0242656
0.0246424
0.023853
0.0246638
0.12336
0.486242
2.89143
0.0232013
0.0238236
0.024217
0.0256705
0.0247918
0.0283606
1.08889
0.0249063
0.0246294
27.8396
1.6666
0.216856
0.287388
2.84138
0.0240633
0.642851
2.96878
2.76786
0.299207
0.0251338
0.123239
0.0616326
0.0239787
0.322256
4.99494
0.0224054
3.6524
0.0250646
0.0245203
0.351813
0.0244523
2.68348
0.177146
0.0236224
3.11996
0.0316943
0.0266828
3.11815
1.14114
0.0241368
0.0240491
0.0244033
0.0249568
0.0269439
3.10859
0.0253717
0.0237933
0.0550873
1.26177
0.921893
0.0635434
0.0243455
0.325414
0.0560845
3.3558
0.0236309
0.0238476
0.0250641
0.025211
0.0705272
0.0306581
0.0224004
0.102589
0.354937
0.02475
0.0234912
0.0349706
0.0250721
0.419735
1.93554
0.0273959
0.0253685
0.0232459
0.0250109
0.0258586
0.0243701
0.0247382
0.0247456
0.385701
0.0246464
0.451246
0.0241742
0.366525
0.0259667
3.34245
2.86314
3.28613
0.269554
1.7711
0.0796997
0.863735
0.35101
0.0950484
11.2945
0.0267277
0.491622
2.78433
0.420671
0.0232111
0.362647
0.0243924
0.292181
2.8008
0.117313
0.0245514
0.0237469
0.024253
0.026004
3.55667
5.03814
0.0253189
1.75956
0.226317
3.48836
0.0235695
0.162784
0.0932634
0.0327849
0.153271
3.20997
0.185982
0.0247484
0.133081
0.0340684
3.2829
0.0241728
0.0232832
0.0246947
1.11726
0.489405
0.0242185
0.0248395
0.024619
0.0243657
3.98233
0.267636
0.0490681
1.42464
0.0243325
3.43867
1.41486
0.570792
0.0266395
0.0664557
0.919567
1.441
0.0230878
1.75322
1.66256
0.0284783
0.0253507
2.46411
0.0286369
3.14086
4.42776
0.0248563
0.024059
0.02744
0.0249756
0.0245236
0.0267979
0.0948317
0.0236873
0.0244177
0.0252128
0.0260244
0.0236958
6.977
0.0259344
3.14402
0.0249521
0.0607164
0.0240309
0.0272032
2.79567
0.0292715
0.0247431
0.0265068
0.036062
0.046098
2.8172
0.360256
3.20631
2.81112
3.2976
3.13271
0.354477
0.0582288
0.0363819
0.0234343
0.0241063
0.317107
0.0241938
0.0253425
0.023186
0.0243235
0.0240213
0.0236647
0.0246333
0.0243626
3.02361
0.0262387
0.0250952
0.0236511
0.0272839
0.499115
0.0280149
0.0500995
0.0353133
0.0271448
0.378444
0.0242753
0.0328717
0.0240173
0.0315518
0.0249881
0.115712
3.21616
0.0865449
0.0249395
0.0241546
0.690637
0.0247846
0.109636
0.0242372
0.229424
1.48049
0.114232
0.0269348
0.0852588
0.0247882
0.398385
0.0485872
0.644786
0.0535808
0.409088
0.713433
2.63987
0.0244093
0.0235205
0.0244714
4.4837
0.0239579
0.0608985
0.0575568
0.0253545
2.80939
3.34052
0.0239463
0.0231309
0.487192
12.9965
0.49702
0.0245972
21.4506
0.0224229
0.314128
0.0346507
0.0374163
0.0272582
1.25584
0.0239217
2.93553
0.0274696
7.98613
3.32439
0.267628
0.0281316
0.0303484
0.0233848
0.0268001
0.0237417
0.0338036
0.0249945
3.40179
0.0243093
0.0250118
0.0231623
3.10455
0.0238088
4.33438
0.995911
0.078759
3.04744
0.0733855
0.113358
0.0255436
0.0296343
0.0241419
2.97125
1.14814
1.66822
0.293067
0.354389
0.100132
2.30224
0.0223131
2.96011
4.02794
0.066921
0.0250397
0.314426
9.49328
0.303416
0.0246917
0.0524337
0.584454
0.0230397
2.66968
0.0255228
0.050703
0.025378
0.0599246
0.022091
0.0227533
0.0223099
0.0355064
0.0247475
0.140533
0.0249013
0.0235388
0.590018
0.0244333
0.0330257
0.0308521
0.0242826
3.3439
0.0332308
0.0257384
0.0243041
0.0253949
3.90225
0.0243822
0.0238218
0.0536167
2.96554
0.0265427
0.135513
0.02306
0.135353
0.025782
0.0250651
2.58982
0.0390974
3.2295
0.0249106
0.109512
0.0266074
4.30707
7.60494
0.0248643
2.51116
0.197177
0.0235618
5.25443
0.0329786
0.0258821
0.0676491
0.0258369
0.0242235
0.0272069
0.118636
0.0263498
0.0677992
0.04528
0.122933
0.0228602
0.091122
0.0248676
3.12305
0.0450286
0.024372
6.87434
0.0242183
0.0238276
0.125967
12.3256
0.407287
0.16002
0.401474
0.0549983
0.0242662
0.0247297
0.114364
2.18576
0.0255653
0.0494158
0.0259044
0.0244393
2.54968
0.0334744
0.0380818
0.0568103
3.16264
0.0222708
0.0326295
0.0265968
0.206916
0.429918
0.418745
0.0245408
0.0257039
3.23018
0.0273196
8.44319
0.408298
0.0246673
0.0448386
0.14134
0.0232616
2.84621
0.0268795
1.77343
4.4549
0.0247426
0.0313502
0.02466
0.0244886
0.0327863
3.40894
0.0227949
0.025885
3.51004
0.0247049
0.217814
3.28908
0.024688
7.04361
0.0243881
0.0258414
0.023222
0.0242186
0.212895
0.0256584
0.0807734
0.0257922
0.0244533
0.0903792
3.20186
0.0270366
0.4538
6.65638
0.331859
0.0252315
0.0255918
0.107949
0.0241118
0.0249107
4.18027
0.132088
0.0294194
0.0250444
0.0255622
0.260153
0.0267551
0.0237874
3.11782
0.806015
0.0224321
0.0242394
0.361682
3.81969
0.0248257
0.0253612
0.0775634
0.118845
3.11041
0.0236166
3.23628
0.0265355
0.0278583
2.68265
0.426022
0.0846737
1.70808
0.0241715
3.77133
0.0263563
0.273695
0.122891
0.0243218
2.92725
0.025692
0.0233164
0.033351
0.677812
0.87074
3.43042
0.0244834
0.0396832
0.0347449
0.0275311
0.0254541
0.0255076
0.0257004
2.69945
3.41978
3.58513
3.28316
0.0273562
0.0326333
1.16817
0.0284512
0.0241992
0.027077
3.35552
0.0271511
1.23769
1.40013
2.19591
0.0287437
4.26293
0.0343714
0.0980922
2.18912
2.83315
1.08385
0.0780349
0.0246207
3.58236
0.023532
2.76429
0.0230783
0.0239554
0.0256142
0.107938
1.18701
7.64561
0.0415771
3.92714
0.0245389
0.0452892
0.023385
0.103372
1.17058
0.133695
2.86833
3.233
27.5824
0.387083
0.025054
4.40308
0.0248336
3.31109
0.357755
0.0274185
0.0245993
2.67131
0.128425
0.0224293
0.0245555
6.64064
0.0236103
0.0248013
0.0831646
0.0519802
0.0228247
0.114356
0.0493732
0.614086
7.20749
0.0245152
0.0235701
0.330779
0.0246076
0.201441
0.0458186
3.33763
0.0325682
0.0369583
0.0235988
0.0222386
1.11713
0.0449464
0.060383
0.0265041
11.9862
0.23247
0.619395
0.374103
0.0254124
0.153962
0.0242843
0.0367311
0.0285529
1.64502
0.0233651
0.0233455
3.23242
0.148729
2.66484
0.0285285
1.5761
0.405964
0.0266289
8.56619
0.0261482
0.0338161
0.37709
7.17668
0.0238618
0.68276
1.33283
2.87257
3.58677
3.27073
0.0272296
4.55882
0.234128
0.392469
0.0566751
0.0310882
0.0223045
0.0643095
0.0241243
0.389664
0.0305752
0.0251859
0.0254403
0.208282
0.258124
0.0241187
0.33712
0.0916882
0.0584373
2.76868
1.86912
0.0258218
3.27634
0.0228431
0.368431
3.34092
2.53224
0.0245956
0.144253
0.0245616
4.27617
0.0303439
0.345609
0.0322226
3.70157
0.0897236
2.30951
0.0234892
0.875754
0.106978
0.0247524
0.0659534
2.14288
0.0252381
0.0244168
0.0339211
0.269973
0.0245518
0.0242948
0.0240547
0.342852
0.0344175
0.0905013
0.135238
0.0309896
0.0270147
0.0220852
0.0231625
0.022956
0.907554
2.89858
0.0242039
0.0278707
0.0246108
0.0824683
0.0251522
0.581164
0.0254791
2.78814
2.21732
0.0247834
0.169131
0.0588256
0.0235027
0.0223725
0.148366
1.11332
0.0237318
0.316563
2.55061
0.101955
2.87505
4.20545
0.0577641
0.024661
1.63067
0.0241871
0.136274
0.022984
10.4992
0.0233113
1.17407
0.0266092
3.32084
0.0230593
3.46965
0.0223397
0.0247822
0.222176
0.0260725
0.0233041
0.0350513
4.43557
0.0242124
3.085
0.0261842
9.88061
0.863948
12.4116
4.5138
0.0247397
0.0298512
3.10872
3.14841
0.024527
0.0322072
0.0399507
0.909595
0.0248776
1.86792
0.0636145
0.0232474
2.55806
2.8677
0.0259435
7.35581
0.0619312
0.935356
4.35764
0.0243866
0.0241239
0.340095
0.024384
4.10806
0.0263556
4.07576
1.78904
0.0232547
0.215544
0.022304
0.170895
0.0246153
0.0339544
2.91912
0.0240663
1.31068
0.0257236
0.0245208
0.0456312
0.024844
3.32287
0.311886
4.83377
0.126272
0.451917
0.0253825
0.0241862
2.97618
2.90538
0.0235387
0.339885
0.0247769
0.0224059
2.80236
0.371867
0.0258054
0.0237605
0.0244117
0.0231081
8.67543
0.0245227
0.0884736
0.0360147
3.39981
0.11852
0.128256
0.0241986
0.437396
3.89055
0.064429
0.0255653
0.621216
0.0221728
2.94708
2.99477
0.0231752
0.0626523
0.0330729
0.0368103
0.0279537
0.0288751
12.4525
2.19278
0.0558629
0.0245293
8.31809
0.0249041
5.69271
0.0908442
0.140375
3.58928
0.024308
0.394669
0.0882465
0.0274367
3.01524
1.58892
3.31204
0.210271
0.0246653
0.167727
0.386636
0.0349899
0.266973
2.47809
3.61283
0.669015
0.0234373
0.0232376
0.0262312
0.0268467
0.0246704
0.0242518
0.0292459
0.0251238
0.0369086
1.38078
0.297213
0.0257474
3.30439
0.0300845
2.62718
0.0259509
0.147307
0.0985329
1.53508
2.86905
0.0240271
3.01653
3.12521
0.0247304
0.0248404
2.90266
2.95921
0.436652
0.222185
0.0242087
0.0262462
0.355639
0.0241056
0.0328039
1.74606
0.0231101
0.064672
1.18541
2.05505
0.0248289
0.223636
0.0325867
0.0377934
4.42687
0.0221788
0.0241324
0.0232036
0.272006
3.09011
0.215966
0.024756
0.335041
0.0251811
0.121845
2.19316
0.0254418
0.0233262
0.0244054
3.23141
0.322672
3.42152
0.024829
2.46491
3.41909
0.602111
0.0242478
0.530881
0.0245036
0.0231079
0.0241408
3.00821
0.0856181
0.847186
0.0306193
1.75664
0.270379
0.0251301
2.94496
0.0316856
0.0245278
1.14902
0.0303402
3.24271
0.283889
0.0249701
0.0233543
0.0247178
3.0537
1.26351
0.958265
0.0753933
0.0641216
2.40939
0.6907
0.283759
0.364433
0.0641537
0.0245944
0.489568
0.0232819
0.0228385
0.12925
1.05611
0.0236711
0.0246321
0.2972
0.212866
0.0258038
2.77087
0.0249749
0.0391131
0.0251622
1.16008
1.60301
0.518692
0.0238335
0.0249095
3.34875
2.78341
2.9671
0.120799
2.63407
2.81995
2.54601
0.388686
2.2785
0.0251475
0.36694
2.31267
0.0361157
0.024077
0.0257691
3.02922
0.0248601
0.0232786
3.45761
0.024007
2.87438
0.0222178
3.03167
2.99151
6.8965
0.0233143
0.0243437
0.250284
0.0222476
0.344448
0.0259313
0.462811
1.14304
0.854761
0.0828272
0.0435828
11.9433
0.126477
0.0245085
0.0248757
0.459296
1.28879
0.398879
2.33085
0.0389117
0.0360497
0.0222606
0.123195
0.0251578
0.372126
0.0474078
0.150855
0.0246651
0.0307979
0.141943
0.0435834
3.3921
3.21776
0.0234639
0.0251883
0.0241897
2.89799
0.0243101
1.17432
0.0284578
2.4229
0.0232175
1.68625
7.57479
0.0227363
0.0240906
0.0706172
0.0742891
0.0518418
0.605948
0.0235018
3.29314
4.62804
0.0240433
6.18779
1.2462
0.0720895
0.0322561
3.21436
3.5851
4.69777
0.393132
4.15814
0.0230564
0.384475
0.0240925
0.0231327
5.33716
0.603818
2.79066
0.574968
0.338147
0.200656
0.0272505
0.0247661
0.0237727
2.98182
0.0232201
0.0655446
0.455057
3.28797
0.0221075
0.0234075
3.55367
0.0294446
2.93984
0.0250745
0.0258159
0.0251679
0.0232186
0.0710952
0.512047
0.601703
1.99355
0.113691
0.277029
0.341325
0.602487
1.81548
0.0239433
0.195597
0.0240802
0.024376
0.45139
11.0242
1.67616
0.186515
0.026741
0.130412
0.0235501
1.28055
0.397373
0.0241101
4.28233
0.0363633
0.0261382
0.0225318
3.29658
0.0530976
0.0236438
3.2384
0.387779
3.37538
0.0222806
4.19974
3.39215
0.347632
1.69462
0.0222028
2.88037
2.0441
0.14838
0.360886
3.66638
0.0269609
0.0768994
0.26555
0.0791418
0.0250361
0.0401466
0.0727112
2.19619
0.0444088
0.0241456
0.025853
0.0236084
0.0249284
0.0313912
0.0251206
0.0239953
2.96366
0.0238461
0.126174
0.0245286
0.0235585
0.0235573
0.0443612
0.0254205
5.21953
0.519328
3.27804
0.0231619
3.53626
2.14974
2.0575
3.19295
0.0288511
1.4249
0.0253072
2.70462
3.24921
1.11588
0.0266862
0.0412041
1.59872
0.0246514
0.0259935
0.0499946
0.0236058
0.022548
2.53311
5.17928
0.0254566
0.0513354
1.68833
0.0243177
3.51037
2.21676
0.278043
0.0240232
0.0244723
0.570327
0.0269072
0.0234027
0.0261748
2.85189
0.521375
3.00841
0.0250852
1.68934
0.161218
0.0351609
2.56088
3.53353
2.78939
0.0232741
0.715771
0.0245104
0.0241477
0.326555
2.11323
0.700971
0.405395
0.921933
0.0252439
0.0605159
3.46472
3.02319
0.0221704
0.0236596
0.0235213
2.76605
0.367503
2.62067
0.0614187
0.0888199
0.0229144
0.0505736
3.02792
3.90591
0.0243398
0.126729
0.515503
0.190256
0.025982
0.387099
0.0252777
0.0262524
0.0234905
3.25161
0.0241563
0.0237611
0.341813
7.14175
1.76112
0.30316
0.0233094
2.33878
0.0881403
0.0251246
0.0615559
0.0496924
3.24541
0.462316
2.86396
0.082647
0.0252054
1.16917
2.8617
0.0302208
0.022236
0.338746
3.06529
0.0469701
0.0236609
0.0228296
0.0294905
0.0241957
3.44635
0.024623
0.0244373
0.0381694
0.0248449
3.53834
0.0428842
3.46184
0.0240583
2.25044
0.0490033
1.76345
0.0577155
0.0241952
3.56168
0.0238184
0.0252348
0.0360199
0.0357148
0.201466
0.0242205
0.25275
0.110793
0.0287959
0.0241983
2.71773
0.0288546
0.0599997
26.8725
0.086088
0.35606
0.024471
0.378777
0.02612
0.970331
3.09901
0.2598
3.30079
0.0288946
0.0283693
0.0961011
0.118665
0.0244946
0.0242429
2.20397
0.0330736
3.14411
2.96123
1.7582
2.67878
0.0241333
0.0252179
0.601012
3.57809
0.0265314
0.0236507
0.0230811
1.4653
0.0243045
0.0221773
0.131281
0.0284977
0.0823852
0.0231872
4.2261
0.33724
0.234101
0.448934
1.94634
0.0381793
0.0231384
4.01273
1.34053
0.140636
0.0245162
0.024362
0.0241097
0.148845
0.321946
0.0288018
0.024308
0.0379006
3.05752
0.0231069
0.0232993
1.92986
0.0250124
0.0251753
0.1059
0.0245371
0.0305455
3.14503
0.0249995
7.74381
0.200464
0.594296
0.0252452
0.028362
0.0808183
0.0791663
3.24113
0.0230297
0.0229932
0.0346095
2.44976
0.0245693
2.17892
0.0231301
0.0231071
0.0317076
0.0252975
0.0373283
3.22491
2.98474
0.271628
3.11463
0.02712
0.0248209
0.276061
3.40195
0.376417
3.32396
0.023844
0.0222961
4.8006
0.0400032
0.0239626
0.358816
2.75526
0.17559
0.077779
3.25766
0.505712
0.0275282
2.33943
0.0235996
3.67256
0.0668651
2.14821
0.382626
0.292778
0.0234364
0.0299994
4.42101
0.0243453
0.0247079
0.0287519
0.0246411
0.20343
0.0235107
0.0249082
0.0223544
0.0233162
0.0249487
0.0237096
2.731
0.0253499
0.0280944
1.14373
0.0564907
0.383825
0.0222501
0.031909
0.0243137
1.62494
0.0432002
7.11492
8.81315
0.0237474
0.0243043
0.0240855
0.0359746
0.0239254
0.0235407
2.35386
0.0233047
2.78951
0.0232322
0.398364
0.0252245
4.83302
0.0253462
5.73862
0.0232151
0.024956
8.21088
0.0323085
0.21437
0.0589067
0.357854
0.085967
0.364655
1.9162
0.036969
2.48848
0.0248096
3.05078
0.0254253
0.0245676
3.52658
4.34986
0.0239578
0.0309994
0.0246236
0.0905595
3.12974
2.97545
2.22236
0.425943
0.0242304
3.23023
0.0234949
2.46204
0.0259085
0.0348594
0.208858
0.0242149
0.026836
0.0244294
0.022593
0.033761
3.50782
0.0235207
1.24509
0.0223492
0.0340842
0.0237536
2.56248
3.39777
0.10332
0.502115
0.0243656
1.44784
0.0249264
0.0232124
0.0479587
0.024322
0.0234754
3.3365
8.43095
0.0619481
0.0290103
3.30133
0.0637059
0.0265229
0.0349898
0.0535615
0.0238976
9.40274
0.0245229
0.0299439
0.0243513
0.0277495
2.48517
0.0254586
0.0433756
0.0230922
0.0240723
0.0274986
0.204468
0.0330488
0.0242733
0.117209
0.0241374
0.0245466
0.0240863
0.0235452
0.502994
4.2788
0.0245905
0.0233035
0.255323
0.0805641
0.0247159
3.10639
0.108666
3.04194
0.0452438
0.034478
0.0479869
4.55827
0.0241931
0.0222799
0.0241002
0.0407472
3.52742
0.896264
0.0242275
0.22674
0.0251168
0.0240977
0.0231208
0.0233946
0.0261249
0.0575957
1.60982
0.0414685
0.0318363
0.0617835
0.0265426
0.0379296
2.55188
0.363339
0.0348891
0.0868178
0.465632
3.68509
0.0314403
0.0240779
0.0237917
0.0243093
1.58963
0.392347
0.0251666
0.0250923
0.322876
0.475046
0.335207
0.39568
0.0564884
0.0795826
0.0357943
2.69349
0.0238086
7.91981
3.65025
2.99303
0.0242721
0.609891
0.0237367
0.0247469
0.0239432
0.0837764
0.0252644
0.0373669
0.0372534
0.316984
4.25669
0.0253209
0.0250347
0.0473253
0.0232736
0.209256
0.550874
2.64907
2.57063
0.0524874
0.0240317
0.0239724
0.0243071
0.0582682
0.0274171
0.0224128
5.40172
3.32183
0.0633407
0.0263032
0.0239984
0.449442
0.0561602
2.69529
0.0278163
0.0258004
0.0230359
0.237793
0.0240221
0.112894
0.0239631
4.83017
2.76705
0.02454
0.0241426
2.42148
0.0797724
1.68259
0.0478683
3.66751
0.343337
0.347288
0.0353347
0.0691543
0.0494494
0.047564
2.99822
0.0360372
0.0712499
2.79891
0.0274433
0.0263391
0.0248692
0.0271474
3.16564
0.025327
0.22469
2.26572
0.122139
0.0237772
4.90282
0.0233026
7.73816
3.62043
0.0231273
3.0473
0.14961
0.0246068
0.0239308
0.0765467
2.89867
0.0587837
0.560687
3.46031
0.0917323
0.0230918
0.0259699
3.09244
0.0228286
0.0360001
9.91338
0.877859
0.030283
0.362038
2.43172
0.0270288
0.0271381
0.0772811
3.09589
0.0404439