/*--------------------------------*- C++ -*----------------------------------*\
| =========                 |                                                 |
| \\      /  F ield         | OpenFOAM: The Open Source CFD Toolbox           |
|  \\    /   O peration     | Version:  v2012                                 |
|   \\  /    A nd           | Website:  www.openfoam.com                      |
|    \\/     M anipulation  |                                                 |
\*---------------------------------------------------------------------------*/
FoamFile
{
    version     2.0;
    format      ascii;
    class       surfaceScalarField;
    location    "200";
    object      phi;
}
// * * * * * * * * * * * * * * * * * * * * * * * * * * * * * * * * * * * * * //

dimensions      [0 3 -1 0 0 0 0];
oriented        oriented;


internalField   nonuniform List<scalar> 
41499
(
-0.244437
0.0114075
0.23303
-0.0799907
-0.0311691
0.11116
-0.00331996
-0.0132379
0.0165579
0.427273
-0.281303
-0.14597
0.315382
-0.33451
0.0191276
-0.00758681
-0.141664
0.14925
0.497485
-0.302594
-0.194892
-0.0256899
0.0154266
0.0102632
-0.0804876
-0.258076
0.338563
-0.0103554
-0.0129061
0.0232616
-0.0706487
-0.0986802
0.169329
0.0470302
0.000445906
-0.223143
0.465166
-0.242022
0.263756
0.23373
-0.192728
-0.224632
0.41736
-0.304973
0.367823
-0.0628496
-0.0428162
-0.114394
0.15721
-0.362673
0.194143
0.16853
0.0669877
0.0190769
-0.0860646
-0.0156159
-0.0100739
-0.36419
0.134056
0.230134
0.333706
-0.137694
-0.196012
0.116907
-0.0976045
0.249532
-0.37002
0.120488
-0.400774
0.0958005
-0.301972
0.407634
-0.105663
0.0103723
0.0521782
-0.0625505
0.328943
-0.0135603
0.0145607
-0.0143273
-0.000233374
0.215517
-0.219995
0.00447806
-0.138596
-0.188434
0.32703
-0.000685219
0.13538
-0.134694
-0.281617
-0.111018
0.392635
-0.47783
0.369608
0.108221
-0.0449773
0.0196395
0.0253378
-0.395888
-0.0819415
-0.483477
0.313061
0.170416
0.0753059
-0.377278
-0.0988932
-0.103158
0.202051
-0.193854
-0.146119
0.339973
-0.251627
0.00806428
0.243562
-0.282725
-0.200752
-0.0878953
0.049052
0.0388433
0.196797
-0.407704
0.210907
0.138477
-0.162848
0.0243713
-0.309284
0.115431
-0.126831
-0.200881
0.327712
0.0245302
-0.198075
0.173545
-0.49362
0.293956
0.199664
0.0666211
0.259105
-0.325726
-0.0286383
0.0130224
0.186753
-0.0670358
-0.119717
-0.0153314
0.0111588
0.00417261
0.0632535
-0.226576
0.163322
-0.21207
0.171743
0.0403269
0.219176
-0.346007
0.231166
0.117386
-0.348552
0.467066
-0.330534
-0.136531
0.0561758
0.41089
0.198929
-0.337525
0.114416
-0.172595
0.0581791
0.264971
-0.0371681
-0.227803
-0.0193986
0.157876
0.00910962
-0.00910962
0.364713
0.0124868
-0.3772
0.0755618
-0.174455
0.0567591
-0.0160808
-0.0125575
-0.0140233
-0.030954
0.283229
-0.470339
0.18711
0.423423
-0.15078
-0.272643
0.334724
-0.0851917
-0.142811
-0.219863
0.322289
-0.304996
-0.0172934
0.00948282
-0.018062
0.00857918
-0.44617
0.155844
0.290326
0.203197
0.0123198
0.290792
0.107431
-0.398223
0.00349261
0.00510171
-0.00859432
0.0960442
-0.406863
0.310819
0.169494
-0.177081
0.380908
-0.218822
-0.162086
-0.181686
0.0232706
0.158415
-0.002969
0.0213393
-0.0183703
-0.01705
0.0174502
-0.000400208
-0.324579
0.181485
0.143094
0.49472
-0.167758
-0.326962
-0.0533846
-0.0345107
-0.0326675
0.040702
-0.00803443
0.406164
-0.31012
0.0275964
-0.229289
0.201693
0.298112
0.0241771
-0.303386
0.370008
0.0831228
-0.0461277
-0.0369951
-0.0150159
0.0169881
-0.00197222
-0.0186868
0.0153668
0.235539
-0.103086
-0.132453
0.0308266
-0.0100858
-0.0207408
0.197828
0.0671433
0.0825765
-0.402237
0.31966
0.0292696
-0.19545
0.166181
-0.312204
0.387509
0.024048
0.00677859
0.462465
-0.212857
-0.249608
0.245688
0.0134496
-0.259138
0.206695
0.174213
0.0645562
-0.0468624
-0.0176938
0.0788241
-0.150087
0.0712625
-0.448576
0.136373
0.0265612
-0.0110236
-0.0155377
-0.0661911
0.0218524
0.0443387
0.0492514
-0.300878
-0.0156086
0.302245
-0.286636
0.330972
-0.178697
-0.152275
-0.0896688
0.168493
0.0501756
0.136577
-0.0294667
0.058713
-0.0292463
0.155217
-0.155902
0.223863
0.238602
-0.275405
-0.218216
0.281645
-0.254049
-0.300243
0.284635
-0.447367
0.16575
0.142754
0.190952
-0.527602
0.227304
0.300298
0.162271
-0.0102413
-0.15203
-0.147653
0.101844
0.0458089
0.0010084
-0.0141747
0.0932109
0.192839
-0.28605
0.319554
-0.422586
0.103033
-0.234128
0.0440141
0.190114
-0.0677483
0.0781206
0.067761
0.0153619
-0.00454664
0.0535986
-0.0715128
0.0766184
-0.00510556
0.215849
-0.133278
-0.0825708
-0.0879801
0.157454
-0.0694743
0.479235
-0.363052
-0.116183
-0.0991167
-0.276983
0.3761
-0.0661383
0.294705
-0.228566
0.431135
-0.431135
-0.0389226
-0.173148
-0.209599
0.456552
-0.246952
0.0257956
-0.0800546
0.054259
0.05285
-0.0223848
-0.0304652
-0.000598718
-0.0154821
-0.0110186
0.00017979
0.0108388
0.214969
-0.190439
-0.309207
-0.136963
-0.180586
-0.0011
0.0327953
-0.0622621
0.319819
0.159416
0.163599
-0.0704022
-0.0931965
0.00638636
0.00347815
-0.00986451
0.0468166
0.0667795
-0.113596
-0.0369578
0.0183427
0.0186151
-0.0548048
0.0799401
-0.0251353
-0.377175
0.410477
-0.0333014
-0.429474
0.07101
0.358464
0.314864
0.162323
-0.477187
-0.0375069
0.117577
-0.0800697
-0.00520142
0.0159347
-0.0107333
0.443547
-0.317581
-0.125966
0.237515
-0.390287
0.152772
-0.378444
0.294854
0.0835897
-0.22573
-0.14261
0.36834
0.105379
0.0582199
0.108673
-0.043088
-0.065585
0.0216188
-0.012136
0.398532
-0.432107
0.0335759
0.0851147
-0.286862
0.201747
0.346383
-0.169035
-0.177348
-0.269995
-0.257607
-0.199146
0.00107131
0.45882
-0.204849
-0.253971
-0.0301145
0.0133997
0.0167148
0.0203442
0.00621705
0.475223
-0.251361
-0.461313
0.213305
0.248009
-0.00977036
0.00456894
-0.00330703
-0.0293605
-0.429233
0.309659
0.119574
0.357235
-0.368903
0.0116683
0.0217248
-0.0223235
0.087215
0.128634
0.274589
-0.0736503
-0.200939
-0.468352
0.327223
0.141129
-0.30631
-0.154943
0.461253
-0.00455897
-0.0127331
0.0172921
0.135267
0.359453
0.0557468
-0.0413982
-0.0143486
0.0587142
0.107279
-0.165993
0.120834
-0.0263588
-0.0944757
0.22932
0.245903
-0.271792
-0.149366
0.421159
-0.510961
0.331744
0.179217
0.222354
0.0522353
-0.184373
0.421889
0.244988
-0.453719
0.20873
0.153587
-0.195246
0.041658
-0.00969359
-0.00563781
-0.0521096
0.0849049
-0.386918
0.00974327
0.302105
-0.455787
0.153682
-0.0140328
-0.0160816
-0.00270919
-0.00830943
-0.0925073
0.147374
-0.0548665
0.253356
-0.359626
0.106269
-0.0127967
-0.0099338
0.0227305
0.25586
-0.336348
-0.151936
0.194933
-0.0429973
0.0896807
0.0183108
-0.107991
-0.463627
0.339053
0.124573
0.256088
-0.374763
0.118675
0.263146
-0.431204
0.168058
-0.406762
0.00185464
0.404907
-0.130732
0.384088
-0.0752348
0.122051
0.396787
-0.0772329
0.413221
-0.206525
0.278214
-0.342673
0.0644587
-0.259637
-0.155846
0.415483
0.231177
-0.0594337
-0.405652
0.0993413
-0.0138331
-0.000434046
0.0142671
0.145583
0.185389
-0.175069
0.423807
-0.248738
-0.178745
0.264398
-0.085653
0.279756
-0.378872
0.339853
-0.464051
0.124198
0.0070455
-0.00987942
0.00283392
-0.128059
0.466695
-0.338636
0.128397
-0.0387164
0.0435262
0.0651468
-0.289652
-0.0745376
-0.195557
-0.238878
0.434435
-0.0647986
-0.0504039
0.115202
-0.40529
-0.00147165
0.430491
-0.0732563
-0.417582
0.319386
0.0981962
-0.00286389
-0.175881
-0.00379031
-0.205067
0.208858
0.295364
0.0190835
-0.0711932
-0.175942
0.269153
-0.341555
-0.119758
-0.000522552
0.00690891
0.0105787
-0.0105787
-0.186072
-0.0726539
0.258726
0.0144203
0.106414
0.226731
-0.0813024
-0.145429
-0.03007
0.0265711
0.00349894
0.351379
0.0176135
-0.368993
-0.344637
0.156203
0.209156
0.204064
0.0890362
0.146503
-0.0107037
-0.233734
0.422534
-0.253467
-0.169067
-0.184208
0.128343
0.0558643
0.0178037
0.0467525
0.0154279
-0.0167323
0.00130433
-0.041316
-0.0671868
0.108503
-0.222683
-0.0439006
0.266583
-0.300376
0.109471
0.190906
0.0368882
-0.259571
-0.0259786
0.0731526
-0.0471741
-0.430851
0.0867606
0.34409
0.038361
0.0173858
-0.0261273
-0.00394276
0.0629137
-0.00644227
-0.0564715
-0.401779
0.149777
0.252002
-0.0152497
-0.00917382
0.0176834
-0.00332466
-0.0143587
-0.314826
0.128754
-0.276877
-0.153973
0.418771
-0.268388
-0.150383
0.250343
-0.254133
-0.409127
0.113577
0.29555
0.339026
-0.196272
0.119804
-0.49922
0.368037
0.131183
0.453793
-0.163001
0.317721
0.148974
-0.296532
0.00281027
0.293721
-0.0259527
0.023333
0.00261964
0.000438122
-0.00216305
0.00172492
-0.128377
0.227921
-0.0995437
0.244196
-0.0409994
0.0386722
-0.0541281
0.0154558
0.107687
-0.163337
0.0556495
0.347508
-0.197058
-0.15045
0.00676093
0.397377
-0.106351
-0.291027
0.205914
0.0681652
-0.109481
-0.253097
0.328526
-0.0754295
0.142585
-0.146116
0.00353071
0.0509817
0.163988
-0.152795
0.408882
-0.179266
0.0319702
0.147295
0.238122
-0.368854
0.251022
0.117781
-0.368803
0.342272
-0.0972832
-0.127884
-0.196694
-0.000841921
0.00961698
-0.00877506
0.198624
-0.0450369
0.46299
-0.350096
-0.112894
0.00844491
-0.0049523
0.127195
-0.418596
0.291401
-0.195698
-0.0646433
0.260341
0.076549
-0.256999
0.18045
0.025901
0.0118376
-0.0377386
0.212301
0.210233
-0.198562
0.461207
-0.219644
-0.241563
-0.148079
0.436426
-0.288347
-0.0245889
0.02162
-0.0126802
0.0126985
0.0115448
-0.00449928
-0.444455
0.138443
0.306012
0.0853008
0.318729
-0.404029
0.471156
-0.131953
-0.339203
0.317419
-0.0879457
-0.229473
-0.300723
0.256823
-0.0741165
0.312239
-0.0835151
0.0585207
0.0249944
0.00366119
0.0108995
0.362585
-0.31919
-0.0433949
0.311286
0.0269183
-0.338204
0.433258
-0.26405
-0.169208
-0.126734
-0.244679
0.322547
-0.0778675
0.349925
-0.0989036
0.129342
-0.230907
-0.0558562
-0.287355
0.343211
0.056211
-0.138001
0.0817901
-0.428341
0.181062
0.247279
0.0640046
-0.128803
0.0037516
0.0139318
0.196994
0.0472029
-0.00288576
0.000769116
0.00211664
-0.0130721
0.000391932
0.0083072
-0.0105634
0.0022562
0.29398
-0.349836
-0.410371
0.122171
0.288201
0.266536
-0.189987
-0.0633357
-0.0843169
-0.00560849
0.155975
0.191533
0.229111
0.0883074
-0.293495
-0.124087
0.0106526
0.151619
-0.255695
-0.0450283
-0.176885
0.114686
0.0621986
-0.0933275
0.0369108
0.0564167
0.418592
-0.144022
-0.27457
-0.289857
0.415633
-0.125777
-0.456358
0.236508
0.21985
-0.0928769
-0.285567
-0.0797488
-0.0317858
0.111535
-0.274584
0.238712
-0.287672
0.0489595
0.469319
-0.320326
-0.148993
0.295903
-0.393164
0.0972611
0.00269847
4.75589e-05
-0.00274603
-0.123153
0.24864
-0.125487
-0.348459
0.352442
-0.00398346
0.189284
-0.317969
0.128684
-0.317173
0.405953
-0.0887806
0.00346577
0.0101976
-0.0136634
-0.180733
0.501112
-0.320378
-0.131846
0.113113
0.018733
0.408827
-0.0114492
-0.00979496
-0.019168
0.028963
0.278087
0.381894
-0.0420411
0.0430741
0.0604885
-0.103563
0.165658
0.0885041
-0.254162
-0.0874016
0.438781
-0.210685
0.164349
0.0463362
0.0933194
-0.0785977
-0.0147217
0.0456469
-0.225618
0.179971
-0.185591
0.0815917
0.103999
0.076133
-0.0304184
-0.0457146
-0.094969
-0.0892386
-0.196349
0.284388
0.0766257
0.0166937
0.215507
0.0762429
-0.0260087
-0.0502342
-0.182635
0.325469
-0.142834
0.00481143
-0.00390488
-0.000906558
-0.0095421
-0.0162336
0.0257757
-0.375627
-0.019297
0.394924
0.0150195
-0.025375
-0.0387959
0.106451
-0.0676551
-0.25536
0.132207
-0.0147011
0.294492
-0.27979
-0.417891
0.426808
-0.00891714
0.0270235
0.0136784
-0.174981
-0.281377
-0.0363003
-0.0166557
0.016491
0.000164729
0.172575
-0.293697
0.121122
0.18342
-0.0929381
-0.0904824
-0.103987
0.407711
-0.303724
-0.101527
-0.0396259
0.141153
-0.144526
0.375692
-0.0569796
-0.0145332
0.025289
-0.117796
0.0136739
-0.0182329
-0.0865137
0.252172
-0.00399294
-0.371634
-0.346209
0.451008
-0.104799
0.0348517
0.0686657
-0.313345
-0.0609252
0.168839
-0.107914
-0.0159183
-0.380342
0.39626
-0.11082
0.0720243
0.308313
-0.412301
-0.0776072
0.133818
-0.327183
0.417418
-0.0902349
-0.15285
0.188719
-0.0358683
0.035257
-0.0548513
0.0195942
0.0061466
0.0021402
-0.00828681
-0.326326
0.415345
-0.0890188
0.0368975
-0.385356
-0.00751201
0.00667009
0.0466792
-0.0202092
-0.0264699
-0.423881
0.312735
0.111146
0.0609902
-0.0536566
-0.00733366
-0.342244
0.331959
-0.191373
-0.140586
0.197687
-0.0479888
-0.149698
0.451113
-0.168384
-0.282729
-0.386219
0.0927242
0.078878
0.206686
-0.285564
-0.390855
0.335893
0.0549618
-0.285574
-0.121289
0.0502402
0.0429341
-0.0931743
-0.00450495
0.0674187
0.249778
-0.0868781
-0.1629
0.0321939
0.108959
-0.141153
-0.112737
0.142253
-0.0295157
-0.231808
-0.236543
-0.420853
0.125138
0.295715
-0.0133863
-0.00162961
0.317875
-0.1453
-0.0206892
-0.0576055
0.0782947
0.19456
-0.466353
0.117932
-0.100945
-0.0169867
-0.0536995
-0.0011053
0.438113
-0.157472
-0.280641
0.0356443
-0.426499
-0.0230477
-0.0431435
-0.209142
0.343198
0.0409054
-0.0150044
0.390906
-0.0950032
-0.173306
0.0468159
0.12649
0.00706221
0.00992591
0.194279
-0.339438
0.324737
0.0802389
-0.123055
-0.153932
0.428164
-0.274232
-0.00361657
-0.00934042
0.012957
-0.0420756
0.0538975
-0.0118218
0.370188
-0.107042
-0.413474
0.238405
-0.022543
0.136959
0.149624
0.299581
-0.449205
-0.203138
0.399935
-0.156358
0.185627
-0.0511591
-0.268306
0.319466
-0.398693
0.408323
-0.00962943
-0.408308
0.145074
0.263234
0.287497
-0.202382
0.405451
-0.197215
-0.208237
-0.288993
0.462781
-0.173789
0.325417
-0.055535
-0.269882
0.0522345
-0.178371
0.126136
-0.0682547
0.319241
-0.250986
-0.0560187
0.181648
-0.12563
-0.00445828
0.00489641
-0.342119
0.169888
0.172231
-0.00311914
0.00123337
0.00188577
0.134227
0.204798
0.236524
-0.190878
0.279529
-0.330689
-0.353552
-0.0756805
0.462436
-0.134611
-0.327825
-0.3367
0.268445
0.371666
0.0423821
-0.414049
0.0553804
-0.0760696
0.283613
-0.416467
0.132854
0.0101072
-0.0137238
0.0744156
-0.145064
-0.198431
0.449696
-0.251265
-0.0719451
0.0488974
-0.033864
-0.0241445
0.0580085
0.0108847
-0.0141923
0.00330757
0.144265
-0.0759129
-0.304429
0.0233423
-0.0195907
0.11846
0.0865692
-0.205029
0.010078
-0.00393143
-0.0126363
-0.00169107
0.216869
0.210404
-0.134983
-0.011825
0.0128121
-0.000987055
0.103209
0.239304
-0.380202
0.140898
0.156356
-0.110934
-0.0454215
0.10499
-0.0547498
0.0151306
-0.0154539
-0.0108108
-0.0395427
-0.0133221
0.0528649
-0.0119831
-0.0234161
0.0353992
0.447414
-0.155228
-0.292186
-0.0903055
-0.0415401
-0.18995
-0.020735
-0.536758
0.209575
0.288439
0.149673
0.268566
-0.00195088
0.00453477
-0.00258389
-0.301339
0.38664
0.392094
-0.353474
-0.147873
0.211127
-0.0276976
0.026205
0.00149262
0.147044
-0.370187
-0.0154445
0.00271143
-0.126936
-0.372284
-0.0243517
0.0210447
0.00433254
0.00763402
0.155942
-0.0482747
-0.107668
0.221827
-0.170845
-0.067563
-0.0213018
0.0888648
0.00545144
0.0146962
-0.0201477
0.37264
-0.0928844
0.0444939
0.0713773
-0.115871
0.276155
-0.197277
-0.0818029
0.271087
0.261644
0.14452
-0.514177
0.264523
0.249654
0.134631
-0.142175
0.403545
-0.261371
-0.11006
0.0596556
-0.358664
-0.040029
0.0319333
-0.0103117
-0.0216215
-0.0823594
0.403794
-0.321435
0.0922579
-0.288607
-0.11904
0.288143
-0.271424
-0.0167182
0.0310121
-0.169798
0.138786
-0.193021
0.249548
0.0758685
-0.415745
0.14935
0.266395
-0.254915
-0.0416164
0.0287998
-0.055227
0.0264272
0.172617
-0.06493
-0.397853
0.216268
0.181585
-0.0117546
0.00871273
0.0386217
-0.105809
-0.0541067
-0.126479
-0.212302
-0.301874
0.0840943
0.204048
0.0168246
0.00651768
0.286518
0.160896
0.0123739
0.0486163
0.337125
-0.19755
-0.139575
-0.112423
0.0324319
-0.0112122
0.00117101
0.0100412
0.190952
-0.138717
0.00462863
-0.0460268
-0.118276
-0.282663
0.400939
-0.380483
0.246555
0.133929
-0.00187038
-0.00101538
0.0838682
-0.00178637
-0.0820819
0.0483235
0.198943
-0.247266
0.291554
0.170883
-0.404587
0.400899
0.00368769
0.0752818
-0.0146218
-0.145029
0.159651
0.0230937
0.00883959
-0.145924
-0.196195
-0.390978
0.420412
-0.0294341
-0.0045598
-0.233127
-0.162761
0.402384
-0.398368
-0.00401683
-0.00962952
0.00962952
-0.363135
0.347333
0.0158027
0.134103
0.173768
-0.307871
0.046788
-0.134768
0.140595
-0.0109492
-0.0061008
0.415643
-0.104357
0.0270446
-0.0230649
-0.00397972
-0.248852
0.145766
-0.0938978
-0.292321
-0.386993
0.395614
-0.00862109
0.0455661
0.034374
0.34688
-0.415923
0.120877
0.295046
0.163554
0.260384
-0.423939
0.256379
-0.112977
0.259394
0.203388
0.0230251
-0.0625678
0.0904263
0.340709
0.366567
-0.0107612
0.0108603
-9.91157e-05
-0.33043
0.245531
0.0848986
-0.361929
-0.0539939
-0.072093
0.0481082
0.0239848
0.00876961
-0.000462402
0.0121445
-0.00867872
-0.214045
-0.312803
-0.086347
0.39915
0.00188758
0.000810895
-0.122504
-0.0729463
-0.108441
-0.272042
-0.439019
0.135843
0.303177
0.337621
-0.142241
-0.19538
0.0271747
-0.414167
-0.381331
0.188603
0.0853498
0.249374
-0.403622
0.140513
0.263109
0.0156465
0.153847
0.203802
-0.399359
-0.0616697
-0.347458
0.197508
0.271811
-0.168901
-0.00586064
0.174762
-0.0422665
0.0680621
0.0180393
-0.00261135
-0.106658
-0.00607859
-0.00907144
-0.00214073
0.00386851
0.000942923
0.00200124
-0.0212455
-0.291557
-0.207877
0.2562
-0.450422
0.182116
0.0071318
-0.269301
0.262169
-0.321785
0.13915
0.191915
-0.0887059
0.207024
0.130101
0.17205
0.279063
0.40687
-0.091322
-0.315548
-0.0553978
0.213757
-0.16486
0.048446
0.116414
0.00371599
0.122224
0.209735
-0.0386565
-0.0448586
-0.0247392
0.0036584
0.0210808
-0.00460396
-0.0149741
0.253686
-0.0109237
0.0056188
0.00530486
0.0401041
-0.0130806
-0.00732831
0.0226728
-0.0153445
-0.457331
0.167867
0.289465
-0.112974
-0.183375
0.296349
0.0595395
0.123881
0.267075
-0.385351
-0.152892
-0.177538
-0.028606
0.0955937
0.360191
0.0383407
0.284552
0.0466592
-0.331211
-0.150594
0.101732
0.129445
-0.1969
0.190786
0.00611374
0.44674
-0.158301
0.26669
0.10595
0.0758915
-0.30518
-0.259688
0.272175
0.0861235
0.269223
-0.355346
0.0169659
-0.380101
-0.169636
0.40894
0.0215559
0.192403
0.133066
-0.0108113
0.0108033
8.02611e-06
0.110686
0.226936
-0.0324421
-0.164458
-0.278542
-0.171881
0.0924503
-0.349744
0.257294
0.423353
-0.144989
-0.278364
-0.221898
0.27163
-0.0497325
-0.0611583
0.34571
0.388317
-0.105088
0.155963
-0.405082
0.249119
0.385244
-0.403818
0.0185739
0.239471
-0.464103
-0.0947659
0.0682864
0.0264795
0.136828
0.211123
-0.347951
0.0416292
-0.267359
0.274454
0.144138
0.122038
0.324701
0.00606481
-0.00415005
-0.00191477
0.0412421
0.0116079
-0.00011912
-0.128211
-0.214988
0.3432
-0.00200494
-0.0011142
0.0814357
-0.0127829
-0.0686528
0.112591
-0.168609
-0.245318
-0.218308
-0.056834
-0.243542
0.194715
-0.322926
0.0331277
-0.0124572
-0.0206705
-0.0691376
-0.1237
0.189107
-0.0654074
-0.147774
-0.0170854
0.335056
-0.142653
0.297977
-0.063527
-0.23445
-0.342088
0.0522315
0.106601
-0.0538877
-0.0527129
-0.0185705
0.0569315
0.110289
0.00764271
-0.419622
0.278646
0.140976
0.146147
0.260723
0.46144
-0.249139
-0.0218135
0.0303126
-0.00849915
-0.0110679
0.0122419
0.350583
-0.0840474
0.000180972
-0.00231984
0.00213887
-0.423121
0.211362
0.211759
0.219725
-0.278196
0.0584708
-0.0578113
0.0768882
-0.227833
0.19315
0.0346831
-0.233693
0.207603
0.0260898
0.0767207
0.173057
-0.00597163
0.00402075
-0.469154
0.151426
0.317729
0.0724659
-0.12462
0.0521538
0.00191825
-0.014715
-0.348109
0.430686
0.0660604
0.0405402
-0.0105795
0.359462
-0.2478
-0.111662
-0.0674612
-0.150747
0.218208
-0.037081
0.0246069
0.0124741
-0.0737064
0.0477279
0.358044
-0.149751
-0.208293
0.0699086
0.298327
-0.368235
0.0299889
0.00113886
-0.0311277
-0.0417657
0.0425954
-0.000829666
0.217741
-0.11558
-0.102161
0.0522232
-0.108498
0.0562751
0.0505915
0.17614
-0.20794
0.34154
-0.1336
0.0663919
0.0957398
-0.162132
-0.306634
0.0253314
-0.273572
-0.237389
0.0959837
0.263478
-0.294682
0.451557
-0.156876
-0.365291
0.304704
0.060587
0.0489861
-0.251134
0.202148
0.166568
-0.100176
-0.105822
-0.30455
0.417587
-0.267963
0.146337
0.193631
-0.339967
-0.017062
0.0367015
0.0678605
-0.336765
0.268905
0.0107642
0.276384
0.186606
0.277131
-0.0574059
-0.257323
-0.0132354
-0.18904
0.0326822
-0.0136845
-0.0232733
0.0268997
-0.0692758
0.0423761
0.00766937
0.00144025
-0.100857
0.0633503
-0.171909
-0.236205
0.408114
0.103256
-0.0193882
0.00536747
0.0216771
0.361272
-0.159512
-0.20176
-0.00603255
0.0360214
-0.287398
0.444956
-0.157559
-0.224274
-0.00941912
-0.0651136
-0.114152
0.137255
-0.282338
0.145083
0.257359
0.105226
-0.187441
0.0355047
-0.205817
0.030888
0.111697
-0.391307
-0.0109295
-0.0065795
-0.422894
0.0374988
0.145927
0.054306
0.0824036
-0.13671
0.201431
0.260009
0.0727804
-0.181349
0.108568
-0.215335
0.034244
0.0124352
0.0155527
-0.000126095
-0.442722
0.150304
0.292418
-0.22872
-0.178984
-0.0621678
0.180628
0.0432139
0.0334118
-0.34961
-0.0156808
0.0327768
0.118108
-0.335164
0.217056
0.0378099
-0.0297705
-0.00803939
-0.00423211
-0.0048775
0.177273
-0.161627
0.203573
0.309022
-0.239113
-0.204989
0.253975
-0.00967539
0.00216338
0.381079
-0.195278
-0.185801
0.20204
-0.461677
-0.236675
0.195582
0.0410932
-0.453704
0.180427
0.273277
0.294947
-0.433111
0.138164
0.00281173
0.0135129
-0.0163247
-0.0149605
0.0182466
-0.00328618
-0.238186
0.40154
-0.163354
0.269517
0.0810668
0.0464325
-0.0691122
0.0226797
-0.0151018
-0.000352131
0.390578
-0.144024
0.0611911
0.0437988
0.275824
-0.138996
0.0299853
-0.0204785
-0.0095068
0.147429
-0.193306
0.0458774
0.00364994
-0.00346897
-0.23097
-0.149232
0.018627
0.109531
0.154666
-0.0959514
0.202447
-0.188998
0.194526
-0.388192
0.193665
-0.00527107
0.00451763
0.000753431
-0.0140034
0.425344
-0.138427
-0.286917
-0.108675
-0.326949
0.181025
0.0927218
-0.128024
0.0353019
0.336305
-0.364409
0.0281038
0.21876
0.162319
-0.181253
-0.0465809
0.193433
0.0565811
-0.250014
-0.0507365
-0.0317863
0.0825228
-0.00917425
0.0290358
-0.0198616
0.152525
0.205519
0.0715601
-0.0251276
-0.124507
-0.0610832
-0.0156854
0.00365918
0.0120263
0.135922
0.0304404
-0.166362
-0.0487043
0.184626
-0.112138
0.378829
-0.146707
0.283962
-0.129518
-0.286949
0.012838
-0.00888134
0.0193186
-0.0531827
-0.369147
-0.0881847
0.0305069
-0.00866941
-0.0218375
0.363511
-0.150206
0.294032
-0.184423
-0.109609
0.0989566
0.118784
-0.0798341
-0.278526
0.35836
0.0967648
-0.0535509
0.325928
-0.239805
-0.00300862
-0.00226245
-0.400215
0.201784
0.323694
-0.406054
0.315155
-0.247295
0.0139705
-0.0102815
-0.00368901
-0.00540481
0.00800447
-0.00259966
0.2363
-0.408209
-0.00404115
0.00943204
-0.00539089
-0.0130422
0.00391066
-0.0179435
0.11582
-0.0635971
-0.0295823
0.276473
-0.356307
0.139383
-0.275472
0.13609
-0.426907
0.149991
0.276916
0.0752798
0.139912
-0.215192
0.00673809
-0.00163638
0.195087
-0.112036
0.388974
-0.276938
-0.124113
0.2196
-0.0954873
0.0334975
-0.0227474
-0.0107501
0.18145
-0.0521084
-0.00220767
-0.0144481
0.337288
-0.21918
0.0536155
-0.133364
-0.114628
-0.124995
0.239623
-0.383165
0.0369555
0.336378
0.0488661
0.168161
-0.00941674
-0.00825443
0.0176712
-0.0279596
0.0184175
0.0690075
-0.210671
-0.048056
-0.0519281
0.099984
-0.0101082
-0.0148692
0.0249774
-0.0610082
0.208437
0.00803399
-0.00188189
-0.0061521
0.383983
-0.0466747
-0.337308
0.457863
-0.457863
0.0274124
-0.211195
0.183783
-0.106943
-0.324192
0.129511
-0.0367889
-0.000858375
0.00185952
-0.00100115
-0.0693486
0.129542
-0.060193
0.177793
0.060089
-0.237882
0.0876048
-0.119391
0.0263269
0.0468258
0.309114
0.152093
0.281152
0.102831
0.0954992
-0.303439
-0.178334
0.370347
-0.192013
0.382743
0.00742641
-0.39017
0.00828382
0.0222231
-0.197541
-0.214074
0.411615
0.011208
0.0187773
0.106894
-0.0457028
-0.369168
0.111092
-0.150674
-0.247179
0.0336497
-0.0507117
0.212588
-0.234983
0.0223949
0.0645894
-0.0376896
-0.145381
0.368049
-0.222669
-0.109234
0.38392
-0.274686
0.252674
0.0576148
-0.310289
-0.198981
0.401021
0.00533557
-0.00587619
0.000540621
0.395844
-0.136446
-0.259398
0.301711
-0.162329
0.236626
0.0613519
0.309574
-0.0568995
-0.324807
0.419635
-0.0948275
0.0265648
-0.0177125
-0.00885233
-0.24185
0.133754
0.26209
-0.166124
0.321988
-0.155864
0.014408
-0.0139058
-0.0467964
-0.0251487
-0.214766
0.211025
-0.13203
-0.0789946
0.0591404
0.0692567
0.205639
-0.162905
-0.0427335
0.166639
-0.279614
-0.303278
-0.128829
0.0870775
-0.185758
-0.223865
0.0997516
-0.136877
0.212157
-0.0611958
-0.240901
0.302097
-0.000906236
0.00280233
-0.00189609
-0.161045
0.288489
-0.127444
-0.312243
-0.0766346
0.37874
0.111352
0.158164
-0.296743
0.065773
0.153045
0.40479
-0.239292
-0.165497
-0.496189
0.016671
-0.0267791
0.0852031
0.106712
0.0578074
0.257348
0.0629988
-0.177627
-0.0768559
-0.193859
0.270715
-0.20744
-0.0618611
-0.298137
0.236941
-0.0843638
0.398436
-0.314072
0.213669
-0.186256
-0.00056033
-0.390137
-0.345001
0.135401
-0.0460717
-0.29491
-0.124712
0.468479
-0.161026
-0.307453
-0.078681
0.0400245
-0.320495
0.415994
0.249263
-0.309266
0.0600029
-0.315943
0.00747984
0.308463
-0.250287
-0.00601779
-0.167289
0.266905
-0.376139
-0.221028
0.176602
0.0444257
-0.306106
-0.043833
0.349939
-0.186041
0.0270151
0.159026
0.35701
-0.204485
0.0205765
-0.0166659
-0.359333
0.213953
0.303411
0.0895588
-0.39297
0.0217284
0.00483634
0.0751545
0.13587
0.186418
-0.14892
-0.0226899
0.000876406
0.175213
0.215366
-0.00578291
-0.00514076
-0.043419
0.0557929
0.00985152
0.0701867
-0.0800382
0.18993
0.145126
-0.0701427
0.00905243
0.0610903
0.318306
0.0663655
-0.384671
0.305339
-0.0560755
0.325918
-0.245747
-0.080171
0.0845127
-0.336341
0.251829
0.0219303
-0.000591001
0.0294777
-0.00890122
0.0246789
0.0785775
-0.0665781
0.214127
-0.147549
0.0141185
0.00921453
-0.288846
-0.0270974
-0.107018
0.323964
-0.216946
-0.16417
0.0749249
-0.0663262
0.0115871
-0.287032
0.409203
-0.187532
0.327078
-0.139546
-0.294779
-0.129102
0.0637429
-0.0899857
0.0262428
0.312487
0.0923024
-0.242767
0.300575
-0.127756
-0.205112
0.332869
-0.270516
0.351177
-0.0806614
-0.460069
0.252954
0.207115
-0.00070588
6.26004e-05
0.00064328
0.278838
-0.167486
0.0275314
-0.0782679
-0.147082
0.355167
-0.208085
0.199837
-0.276879
0.0770426
0.0268155
-0.142776
0.115961
-0.0429489
-0.134996
0.396171
-0.261175
-0.112188
0.144382
0.166716
-0.012721
0.0136563
-0.311977
0.172566
0.139411
-0.0640444
0.403098
0.143668
-0.31461
0.170942
-0.337053
0.273513
0.0635402
0.0990156
-0.140686
0.0416699
-0.171294
0.26033
-0.135683
-0.210772
0.346455
-0.0418791
0.169126
-0.127247
0.0146573
-0.0118455
0.115243
-0.330288
0.215046
0.0190726
0.0144249
0.26771
-0.0678734
0.412146
-0.143276
-0.26887
0.245339
-0.442879
0.200642
-0.0175613
-0.299611
0.352635
-0.268122
-0.189037
0.107735
0.157467
0.0402192
0.318472
-0.344889
0.209206
-0.036026
-0.274633
0.310659
-0.197102
0.0341965
-0.163047
0.156036
0.00701181
-0.0296654
0.0515179
-0.0646656
0.274536
-0.209871
0.334567
-0.127543
0.345051
-0.353352
0.00830052
0.0578035
-0.105859
-0.0959483
-0.240393
0.0738878
-0.278955
0.0030401
0.346388
0.308101
0.128325
0.335456
-0.145525
0.16319
0.138522
0.0802555
-0.22053
0.140274
-0.0430348
0.31391
-0.11651
-0.1974
-0.391117
0.294077
0.0970397
0.038991
-0.326389
-0.203461
-0.218572
0.422034
0.14552
0.266626
-0.0996137
-0.0772711
-0.212159
-0.00162311
-0.00895559
-0.236006
0.193519
0.0424872
-0.0119699
0.0269895
-0.0161901
-0.0150072
0.0311973
-0.224736
-0.0494811
0.274217
0.0863482
0.0700078
-0.198252
0.191646
0.00660512
0.00287593
-0.00210681
0.00905659
0.00102145
0.0445442
-0.297388
-0.135723
0.000378669
-0.119593
0.119214
0.286398
-0.322424
0.0174474
0.0790962
-0.0965436
0.284719
-0.167725
-0.116994
0.00877652
-0.00134493
-0.00828459
-0.18405
-0.127927
0.0297048
-0.0357374
0.147005
-0.047989
-0.00177707
-0.0399887
0.229646
-0.0390561
-0.301401
-0.119451
-0.222709
0.0256512
-0.157246
-0.195324
0.352571
0.345947
0.110604
0.0229296
-0.0731956
0.050266
0.00762938
-0.00229381
0.0602592
0.353475
-0.413735
0.0322468
-0.146641
-0.0483801
-0.177238
-0.283997
0.188372
0.0956247
-0.323986
-0.104355
0.437668
-0.101363
-0.055668
-0.0685542
0.222611
-0.252976
0.0303644
0.411332
-0.133755
-0.277577
0.340563
-0.159078
-0.0576141
0.251047
-0.327901
0.17815
0.36747
-0.219852
-0.147617
0.250372
-0.346481
0.0961094
-0.288835
-0.102282
0.0198021
-0.244538
0.483185
-0.263193
-0.219992
0.159272
-0.0250338
0.0974997
0.110036
0.299848
-0.177179
-0.122669
0.0130152
-0.00473228
-0.00828294
0.33991
-0.0910425
0.397954
-0.306912
0.343579
-0.205233
-0.138346
-0.235117
0.236478
-0.00136076
-0.265541
-0.0715125
-0.0303239
0.0205289
0.0131577
-0.333223
0.320066
-0.193673
-0.0509388
0.228451
-0.177512
0.214769
-0.0520502
-0.104629
-0.291502
0.396131
0.167265
0.0073747
-0.348963
0.341588
-0.467235
0.256187
0.211047
0.132045
-0.0777395
0.000834743
-0.321329
0.000629892
0.0137944
0.331257
0.126616
-0.0808611
-0.0457549
0.292232
0.125186
0.410079
-0.125711
-0.284369
0.322361
-0.159171
-0.0260089
0.0068409
0.0739331
0.00750255
-0.402788
0.311746
-0.00801026
0.0224679
-0.0144577
-0.052339
-0.413308
0.148302
0.265006
-0.00456455
-0.0104819
0.0150465
-0.013161
0.00737809
0.00278248
-0.0116638
0.185233
0.0415604
-0.226793
-0.37962
0.130347
0.249274
-0.18147
-0.241652
0.001507
0.00455781
0.155013
0.158897
0.436761
-0.294853
-0.141908
-0.440533
0.136235
0.304298
-0.04522
0.116098
0.028285
-0.144383
0.286861
-0.194603
-0.157264
-0.302805
0.00332164
0.126265
0.158454
0.0227212
-0.00860268
0.100242
-0.0827945
0.208377
-0.384796
0.17642
-0.023016
-0.0465756
0.0695916
0.312239
-0.354273
0.0420339
0.0759335
-0.393514
0.0597645
-0.232885
0.17312
-0.356502
0.207159
0.149342
-0.211236
0.218712
-0.00747543
-0.0187384
0.0132737
0.0609282
-0.0742019
-0.0606289
-0.0700043
0.130633
0.0530813
-0.240613
-0.000147809
-0.00201524
0.301603
-0.073766
-0.227837
0.442943
-0.0712764
0.0234848
-0.0122767
-0.00860898
0.00456783
-0.00128191
0.00394082
-0.00265891
0.0258958
0.0494501
-0.0753459
-0.125409
-0.315124
0.00700042
0.105192
-0.0615899
-0.0436024
-0.407819
0.208839
-0.146665
-0.00593965
-0.00412323
0.0100629
-0.341065
0.0097758
0.33129
-0.306357
0.403726
-0.0973687
0.0357119
0.0789441
-0.114656
0.345845
-0.0954737
0.517894
-0.223915
0.031513
-0.255262
0.223749
-0.192683
-0.274552
0.277558
-0.232567
-0.044991
0.356244
-0.143102
-0.213142
-0.0897528
0.0031646
-0.00842224
0.00525764
-0.0093202
0.039025
0.358638
-0.0647074
-0.293931
-0.107776
0.249863
-0.142088
0.206456
0.0711013
0.128845
0.282487
0.11924
-0.414749
0.295508
-0.0423936
-0.105381
0.283223
-0.434003
-0.198872
0.362427
-0.200928
0.354456
-0.153528
-0.194777
-0.0418975
-0.326394
0.482197
-0.155803
-0.174914
0.183005
-0.0757262
-0.258172
0.146081
-0.349304
0.203223
-0.139771
0.407579
-0.267808
0.0893759
0.274772
-0.386808
0.102761
0.197086
-0.261261
0.406335
-0.252444
0.191436
-0.143914
0.253385
0.011302
-0.00339595
-0.00790606
-0.244315
0.0996931
-0.382418
0.181091
-0.150079
-0.377833
0.395431
-0.0175981