/*--------------------------------*- C++ -*----------------------------------*\
| =========                 |                                                 |
| \\      /  F ield         | OpenFOAM: The Open Source CFD Toolbox           |
|  \\    /   O peration     | Version:  v2012                                 |
|   \\  /    A nd           | Website:  www.openfoam.com                      |
|    \\/     M anipulation  |                                                 |
\*---------------------------------------------------------------------------*/
FoamFile
{
    version     2.0;
    format      ascii;
    class       surfaceScalarField;
    location    "200";
    object      phi_0;
}
// * * * * * * * * * * * * * * * * * * * * * * * * * * * * * * * * * * * * * //

dimensions      [0 3 -1 0 0 0 0];
oriented        oriented;


internalField   nonuniform List<scalar> 
41499
(
-0.244435
0.0114045
0.233031
-0.0800036
-0.0311643
0.111168
-0.00332006
-0.0132411
0.0165611
0.427273
-0.281303
-0.145971
0.315382
-0.33451
0.0191281
-0.0075875
-0.141661
0.149249
0.497486
-0.302594
-0.194892
-0.0256922
0.0154266
0.0102656
-0.0804873
-0.258076
0.338563
-0.010359
-0.0129038
0.0232628
-0.0706544
-0.0986722
0.169327
0.0469352
0.000409966
-0.223329
0.4654
-0.242071
0.263756
0.23373
-0.192729
-0.224629
0.417358
-0.304973
0.367823
-0.0628495
-0.0427053
-0.114472
0.157177
-0.362674
0.194143
0.168531
0.0669843
0.019074
-0.0860583
-0.0156159
-0.0100764
-0.364276
0.133913
0.230363
0.333707
-0.137695
-0.196012
0.117405
-0.0975421
0.249532
-0.37002
0.120488
-0.400774
0.0958004
-0.301972
0.407634
-0.105663
0.0102846
0.0523092
-0.0625938
0.328942
-0.0135606
0.0145653
-0.0143318
-0.000233547
0.215516
-0.219995
0.00447865
-0.138596
-0.188434
0.327031
-0.000682784
0.135369
-0.134687
-0.281617
-0.111018
0.392635
-0.47783
0.369608
0.108221
-0.0449887
0.0196807
0.025308
-0.395888
-0.0819416
-0.483477
0.313061
0.170416
0.075306
-0.377278
-0.098971
-0.10314
0.202111
-0.193854
-0.146119
0.339973
-0.251624
0.00806515
0.243559
-0.282725
-0.200752
-0.0878821
0.0490364
0.0388456
0.196797
-0.407704
0.210907
0.138894
-0.163041
0.0241471
-0.309285
0.11543
-0.126832
-0.200881
0.327712
0.0245326
-0.198099
0.173566
-0.49362
0.293956
0.199664
0.066622
0.259104
-0.325726
-0.0286415
0.0130257
0.186711
-0.0669873
-0.119724
-0.0152549
0.011069
0.00418597
0.0632527
-0.226575
0.163322
-0.21207
0.171744
0.0403263
0.219176
-0.346007
0.231166
0.117386
-0.348552
0.467234
-0.330707
-0.136527
0.0561081
0.411126
0.198929
-0.337526
0.114293
-0.172503
0.0582103
0.264978
-0.0371759
-0.227802
-0.019114
0.158008
0.00910882
-0.00910882
0.364713
0.0124868
-0.3772
0.0755274
-0.174498
0.0565812
-0.0160811
-0.0125604
-0.0140593
-0.0309294
0.283229
-0.470339
0.18711
0.423397
-0.150733
-0.272664
0.334724
-0.0851916
-0.142811
-0.219863
0.322749
-0.304814
-0.0179355
0.00948003
-0.0180612
0.00858112
-0.446131
0.155772
0.290359
0.203197
0.0123192
0.290792
0.107431
-0.398223
0.00350024
0.00511485
-0.0086151
0.0960974
-0.406889
0.310792
0.169492
-0.177079
0.380908
-0.218823
-0.162085
-0.181685
0.0232688
0.158417
-0.00296564
0.0213362
-0.0183706
-0.0171772
0.0175281
-0.000350896
-0.324835
0.181306
0.143529
0.49472
-0.167758
-0.326962
-0.0533678
-0.0345143
-0.0325934
0.040672
-0.00807865
0.406194
-0.310096
0.0275964
-0.229289
0.201692
0.297911
0.0248382
-0.303386
0.370008
0.0833549
-0.0461643
-0.0371906
-0.0150195
0.0169923
-0.00197288
-0.0186902
0.0153702
0.235521
-0.102894
-0.132628
0.0308306
-0.0100895
-0.0207411
0.197827
0.0671513
0.0825767
-0.402237
0.31966
0.0292695
-0.195451
0.166181
-0.312203
0.387509
0.0240495
0.00678107
0.46247
-0.212858
-0.249613
0.245684
0.013446
-0.25913
0.206696
0.174213
0.0646943
-0.0469412
-0.0177532
0.0787811
-0.150043
0.0712623
-0.448576
0.136373
0.0265656
-0.011026
-0.0155396
-0.0661953
0.0218115
0.0443838
0.0492498
-0.300874
-0.0155504
0.302149
-0.286599
0.331192
-0.17891
-0.152281
-0.0896637
0.168445
0.0501265
0.136585
-0.029722
0.0588876
-0.0291656
0.15521
-0.155893
0.223862
0.238608
-0.275405
-0.218216
0.281645
-0.254048
-0.300169
0.284618
-0.447367
0.16575
0.142754
0.190952
-0.527602
0.227304
0.300298
0.162251
-0.00983554
-0.152416
-0.147533
0.101547
0.0459854
0.00100803
-0.0141708
0.0932108
0.192839
-0.28605
0.319554
-0.422587
0.103032
-0.234135
0.0440212
0.190114
-0.0678602
0.0781448
0.0677848
0.0155701
-0.00455704
0.0535935
-0.0714859
0.0767642
-0.00527828
0.215843
-0.133308
-0.0825349
-0.087807
0.157228
-0.0694209
0.479235
-0.363052
-0.116183
-0.099116
-0.276983
0.3761
-0.0661384
0.294705
-0.228566
0.431135
-0.431135
-0.0389221
-0.173148
-0.209599
0.456552
-0.246952
0.0257667
-0.080044
0.0542773
0.0528608
-0.0223393
-0.0305215
-0.000596261
-0.0154849
-0.0110216
0.000179925
0.0108417
0.214989
-0.190457
-0.309255
-0.136876
-0.180587
-0.00109846
0.032725
-0.062447
0.319819
0.159416
0.163659
-0.0704653
-0.0931939
0.00638645
0.00350235
-0.0098888
0.0467212
0.0668437
-0.113565
-0.0369528
0.0183301
0.0186227
-0.0547829
0.079938
-0.0251551
-0.377175
0.410477
-0.0333014
-0.429474
0.07101
0.358464
0.314864
0.162323
-0.477187
-0.0375293
0.117631
-0.0801022
-0.00520378
0.0159387
-0.010735
0.443547
-0.31758
-0.125967
0.23754
-0.390331
0.15279
-0.378647
0.29443
0.0842172
-0.22573
-0.142609
0.36834
0.105362
0.0582974
0.108653
-0.0430127
-0.0656406
0.0216192
-0.0121392
0.398532
-0.432108
0.0335759
0.0851353
-0.286865
0.20173
0.346384
-0.169035
-0.177348
-0.269995
-0.257607
-0.199168
0.00106911
0.45882
-0.204849
-0.253971
-0.0301064
0.0133989
0.0167076
0.0203471
0.00621852
0.475227
-0.251365
-0.461313
0.213305
0.248009
-0.00977198
0.0045682
-0.00324398
-0.0293494
-0.429234
0.309628
0.119606
0.357235
-0.368903
0.0116683
0.0217284
-0.0223246
0.087173
0.12867
0.274596
-0.0735523
-0.201044
-0.468352
0.327223
0.141129
-0.30631
-0.154943
0.461253
-0.00455941
-0.0127368
0.0172962
0.135267
0.359453
0.0557519
-0.0414057
-0.0143462
0.0587208
0.107266
-0.165987
0.120909
-0.0263894
-0.0945195
0.229325
0.245902
-0.271792
-0.149366
0.421159
-0.510961
0.331744
0.179217
0.222481
0.0521154
-0.18441
0.421951
0.244988
-0.453719
0.20873
0.153589
-0.195245
0.0416561
-0.00961071
-0.00564421
-0.0523168
0.0850418
-0.386919
0.00974326
0.302105
-0.455787
0.153682
-0.0140298
-0.0160766
-0.0027101
-0.00831151
-0.0925048
0.14739
-0.0548853
0.253327
-0.359585
0.106258
-0.0127741
-0.00997596
0.0227501
0.25586
-0.336347
-0.151938
0.194933
-0.0429954
0.0895402
0.0184871
-0.108027
-0.463627
0.339053
0.124573
0.256088
-0.374763
0.118675
0.263146
-0.431204
0.168058
-0.406762
0.00185462
0.404907
-0.130723
0.384051
-0.0752941
0.122015
0.396787
-0.0772323
0.413221
-0.206526
0.278214
-0.342673
0.0644584
-0.259625
-0.155854
0.415479
0.231177
-0.0594332
-0.405652
0.0993413
-0.013832
-0.000433661
0.0142657
0.145708
0.185483
-0.175069
0.423807
-0.248738
-0.178587
0.264651
-0.086064
0.279756
-0.378872
0.339853
-0.464051
0.124198
0.00704605
-0.00988048
0.00283443
-0.128025
0.466668
-0.338644
0.128382
-0.0388415
0.0434124
0.0652409
-0.2899
-0.0743758
-0.195561
-0.238868
0.434429
-0.0648738
-0.0502426
0.115116
-0.40529
-0.00147164
0.430491
-0.0732563
-0.417582
0.319386
0.0981965
-0.00234982
-0.176237
-0.00379214
-0.205065
0.208857
0.295372
0.0189875
-0.0713043
-0.175943
0.269153
-0.341555
-0.119758
-0.00055105
0.0069375
0.0105757
-0.0105757
-0.186067
-0.0726495
0.258716
0.0144525
0.106456
0.226731
-0.0813021
-0.145429
-0.030064
0.0265706
0.00349337
0.35138
0.0176132
-0.368993
-0.344638
0.156203
0.209157
0.204065
0.0888448
0.146677
-0.0107013
-0.233734
0.422535
-0.253467
-0.169068
-0.18421
0.128338
0.0558725
0.0178457
0.0468486
0.0154289
-0.0167345
0.00130555
-0.0413094
-0.0671991
0.108509
-0.222696
-0.0438438
0.26654
-0.300351
0.109541
0.19081
0.0368226
-0.259519
-0.0259818
0.0731488
-0.047167
-0.430851
0.0867605
0.34409
0.0383681
0.0173838
-0.0261285
-0.00393547
0.0629854
-0.00649126
-0.0564941
-0.401785
0.149784
0.252001
-0.0152478
-0.0091768
0.0176813
-0.00332399
-0.0143573
-0.314815
0.128749
-0.276877
-0.153973
0.418779
-0.268392
-0.150387
0.250341
-0.254133
-0.409127
0.113577
0.29555
0.339027
-0.196272
0.119803
-0.49922
0.368037
0.131183
0.453793
-0.163001
0.317719
0.14895
-0.296244
0.00232725
0.293916
-0.0259569
0.0233365
0.00262039
0.000430569
-0.00211359
0.00168303
-0.129067
0.228233
-0.0991661
0.244196
-0.0409987
0.0386786
-0.0541343
0.0154557
0.107603
-0.16338
0.0557775
0.347508
-0.197058
-0.15045
0.00676194
0.397378
-0.106351
-0.291027
0.205921
0.0681771
-0.109487
-0.252679
0.328724
-0.0760452
0.142297
-0.145963
0.00366605
0.0509812
0.164008
-0.152795
0.408882
-0.17916
0.0319867
0.147173
0.238101
-0.368825
0.251022
0.117781
-0.368802
0.342272
-0.0972832
-0.128404
-0.196431
-0.000856309
0.00963446
-0.00877815
0.198624
-0.045035
0.46299
-0.350096
-0.112894
0.00846332
-0.00496308
0.127203
-0.418601
0.291398
-0.196368
-0.0642549
0.260623
0.0765487
-0.256999
0.18045
0.0259661
0.0117827
-0.0377488
0.212301
0.210234
-0.198718
0.461207
-0.219644
-0.241563
-0.14808
0.436426
-0.288347
-0.0245862
0.0216205
-0.0126772
0.0126952
0.0115462
-0.00450018
-0.444421
0.138423
0.305998
0.0853007
0.318729
-0.40403
0.471156
-0.131953
-0.339203
0.317419
-0.0879454
-0.229473
-0.300658
0.256814
-0.0741146
0.312216
-0.0835053
0.0585271
0.0249782
0.0036625
0.0109028
0.362585
-0.31919
-0.0433947
0.311286
0.0269185
-0.338204
0.433258
-0.26405
-0.169208
-0.126702
-0.24468
0.322547
-0.0778672
0.349925
-0.0989035
0.129188
-0.230674
-0.0558564
-0.287355
0.343211
0.0562802
-0.138001
0.081721
-0.428341
0.181063
0.247279
0.0638656
-0.128739
0.00375032
0.013931
0.196994
0.0472023
-0.00286783
0.000790607
0.00207723
-0.0130689
0.000391741
0.00828872
-0.0104739
0.00218513
0.29398
-0.349836
-0.410367
0.122169
0.288197
0.266536
-0.189987
-0.0634762
-0.0840566
-0.00560981
0.155975
0.191533
0.229111
0.0883072
-0.293495
-0.124087
0.010402
0.151849
-0.255675
-0.044983
-0.176889
0.114685
0.0622036
-0.0933377
0.0368903
0.0564474
0.418623
-0.144055
-0.274567
-0.289857
0.415634
-0.125777
-0.456358
0.236508
0.21985
-0.0935392
-0.285108
-0.0797533
-0.0317859
0.111539
-0.274581
0.238712
-0.287671
0.0489587
0.469319
-0.320326
-0.148993
0.295902
-0.393162
0.0972591
0.00268506
5.38596e-05
-0.00273892
-0.123142
0.248622
-0.12548
-0.348459
0.352442
-0.0039836
0.189285
-0.317969
0.128684
-0.317173
0.405953
-0.0887807
0.00346681
0.0102007
-0.0136676
-0.180733
0.501112
-0.320379
-0.131857
0.113124
0.0187337
0.408827
-0.0114491
-0.00979225
-0.019172
0.0289643
0.278087
0.381895
-0.0420414
0.0430694
0.0604898
-0.103559
0.165634
0.0885065
-0.25414
-0.0874013
0.438781
-0.210681
0.164346
0.0463344
0.0933108
-0.0786016
-0.0147092
0.0456558
-0.225629
0.179974
-0.185365
0.0815064
0.103859
0.0761166
-0.0303897
-0.0457269
-0.0949763
-0.0892339
-0.196951
0.284152
0.07663
0.0166808
0.215506
0.0762322
-0.0259855
-0.0502467
-0.182635
0.325469
-0.142834
0.00483046
-0.00394474
-0.00088572
-0.00954327
-0.016236
0.0257792
-0.375627
-0.0192971
0.394924
0.0150176
-0.0253766
-0.038791
0.106456
-0.0676648
-0.255344
0.132202
-0.0147011
0.294492
-0.27979
-0.417891
0.426808
-0.00891714
0.0269473
0.0137247
-0.174981
-0.281377
-0.0363084
-0.0166582
0.0164938
0.000164455
0.172574
-0.293697
0.121122
0.183267
-0.0928513
-0.0904158
-0.103974
0.407708
-0.303734
-0.101494
-0.0396784
0.141172
-0.144526
0.375692
-0.0571288
-0.0143571
0.0253066
-0.117811
0.0136775
-0.0182369
-0.0865165
0.25215
-0.00399288
-0.371634
-0.346209
0.451008
-0.104799
0.0347496
0.0686654
-0.313345
-0.0608937
0.168799
-0.107905
-0.0159253
-0.380336
0.396261
-0.110824
0.0720331
0.308326
-0.4123
-0.0775437
0.133824
-0.327183
0.417418
-0.0902349
-0.152851
0.188719
-0.0358682
0.0352646
-0.0548529
0.0195883
0.00614756
0.00215272
-0.00830028
-0.326316
0.415343
-0.0890275
0.0368976
-0.385356
-0.00753243
0.00667612
0.0466791
-0.0202048
-0.0264743
-0.423884
0.312737
0.111147
0.0609958
-0.0536409
-0.00735496
-0.342241
0.332197
-0.19154
-0.140657
0.197686
-0.0479873
-0.149699
0.451113
-0.168384
-0.282729
-0.386219
0.0927246
0.0788778
0.206687
-0.285564
-0.390855
0.335893
0.0549618
-0.285533
-0.121357
0.0502486
0.0429247
-0.0931734
-0.00447105
0.0674564
0.249742
-0.0867372
-0.163005
0.0321603
0.108984
-0.141144
-0.112757
0.142269
-0.029512
-0.231808
-0.236543
-0.420844
0.125125
0.295719
-0.0133899
-0.00162954
0.317875
-0.145301
-0.0206724
-0.0576138
0.0782861
0.19456
-0.466353
0.117783
-0.101189
-0.0165936
-0.0537078
-0.00107512
0.438113
-0.157471
-0.280641
0.0356443
-0.426499
-0.0230112
-0.0431841
-0.209459
0.343372
0.0409157
-0.0149496
0.390903
-0.0950005
-0.173307
0.0468155
0.126492
0.00706424
0.00992809
0.194278
-0.339438
0.324737
0.0803277
-0.123033
-0.153943
0.428179
-0.274236
-0.00361773
-0.00934349
0.0129612
-0.0420859
0.0539061
-0.0118202
0.370188
-0.107042
-0.413474
0.238406
-0.0225823
0.136875
0.149421
0.299676
-0.449098
-0.203138
0.399935
-0.156358
0.185628
-0.0510878
-0.268333
0.319421
-0.398694
0.408323
-0.00962924
-0.408356
0.14512
0.263236
0.287502
-0.202367
0.405451
-0.197215
-0.208237
-0.288993
0.462781
-0.173789
0.325375
-0.0555162
-0.269858
0.0522541
-0.178384
0.12613
-0.0683298
0.319074
-0.250744
-0.0560305
0.181649
-0.125619
-0.00443425
0.00486481
-0.342369
0.170137
0.172232
-0.00308435
0.00120412
0.00188023
0.134228
0.204799
0.236535
-0.190879
0.279559
-0.330647
-0.353521
-0.0757134
0.462436
-0.134611
-0.327825
-0.3365
0.26817
0.371755
0.0421655
-0.41392
0.05539
-0.0760623
0.283608
-0.416469
0.132861
0.0101101
-0.0137278
0.0744104
-0.145065
-0.198424
0.449702
-0.251278
-0.0719461
0.0489349
-0.0338762
-0.0241243
0.0580005
0.010888
-0.0141963
0.00330826
0.144265
-0.0759081
-0.304428
0.0233391
-0.0195888
0.118305
0.0864603
-0.204766
0.0100905
-0.00394294
-0.0126404
-0.0016914
0.216869
0.210404
-0.134993
-0.0118221
0.012809
-0.000986878
0.103
0.239304
-0.380202
0.140898
0.15637
-0.110928
-0.0454417
0.104989
-0.0547405
0.0151291
-0.0154515
-0.0108084
-0.0395514
-0.0133205
0.0528719
-0.0119635
-0.0234234
0.035387
0.447413
-0.155228
-0.292185
-0.0903154
-0.041542
-0.189948
-0.020733
-0.536758
0.209575
0.288439
0.149673
0.268566
-0.00192571
0.00455226
-0.00262654
-0.301339
0.38664
0.392384
-0.353297
-0.147874
0.211126
-0.0276984
0.0262075
0.00149082
0.147062
-0.370391
-0.0154485
0.00271175
-0.126936
-0.372284
-0.0243085
0.0210645
0.0043333
0.00763339
0.15593
-0.0482361
-0.107694
0.221842
-0.170861
-0.0675956
-0.0212792
0.0888747
0.00545209
0.014699
-0.0201511
0.37264
-0.0928835
0.0444904
0.0713848
-0.115875
0.276155
-0.197278
-0.0818028
0.271087
0.261628
0.144566
-0.514176
0.264523
0.249654
0.134693
-0.142177
0.403547
-0.261371
-0.110006
0.0597631
-0.358665
-0.0400292
0.0319356
-0.0103108
-0.0216247
-0.0823596
0.403795
-0.321435
0.0913953
-0.288346
-0.11904
0.288142
-0.271425
-0.0167178
0.0310167
-0.16978
0.138763
-0.193322
0.249516
0.0758583
-0.415783
0.149367
0.266416
-0.254955
-0.0412883
0.0288017
-0.0552348
0.0264331
0.172658
-0.0650555
-0.397853
0.216268
0.181585
-0.011752
0.00871546
0.0386135
-0.105813
-0.0541082
-0.126479
-0.212302
-0.301874
0.084094
0.204049
0.0168224
0.0065167
0.286518
0.160896
0.0123982
0.0485976
0.337125
-0.19755
-0.139575
-0.11243
0.0324268
-0.0112016
0.00114753
0.0100541
0.190965
-0.138711
0.00462631
-0.046032
-0.118276
-0.282663
0.400939
-0.380687
0.246146
0.134542
-0.00189263
-0.000975201
0.0839131
-0.00181755
-0.0820955
0.0483761
0.19874
-0.247116
0.291554
0.170883
-0.404587
0.400899
0.00368768
0.0752915
-0.0146254
-0.14502
0.159646
0.0230966
0.008839
-0.14625
-0.196119
-0.390978
0.420412
-0.0294341
-0.00456047
-0.233127
-0.162761
0.402385
-0.398368
-0.00401683
-0.00963278
0.00963278
-0.363135
0.347333
0.0158027
0.134103
0.173768
-0.307871
0.0467868
-0.134594
0.140585
-0.011011
-0.00616623
0.415643
-0.104357
0.0270123
-0.0230535
-0.00395883
-0.248929
0.146036
-0.0938982
-0.292321
-0.386993
0.395614
-0.008621
0.0455912
0.0343468
0.34688
-0.415923
0.120877
0.295046
0.163554
0.260384
-0.423939
0.256228
-0.112929
0.259394
0.203387
0.0230241
-0.0625755
0.0904263
0.340709
0.366567
-0.0107633
0.0108623
-9.89865e-05
-0.330265
0.245461
0.0848045
-0.361929
-0.0539938
-0.0720987
0.0481062
0.0239925
0.00871646
-0.000427738
0.0121485
-0.00868166
-0.214045
-0.312803
-0.0863469
0.39915
0.0018863
0.00079876
-0.122504
-0.0729463
-0.109083
-0.271605
-0.439019
0.135843
0.303177
0.337622
-0.142241
-0.195381
0.0271746
-0.414167
-0.381331
0.188601
0.0853496
0.249374
-0.403625
0.140516
0.26311
0.0156461
0.153846
0.203788
-0.399349
-0.0616698
-0.347458
0.197508
0.271811
-0.169063
-0.00575659
0.174819
-0.0422831
0.0680499
0.0180419
-0.002613
-0.106671
-0.0060866
-0.00908461
-0.00211697
0.00389902
0.000931442
0.00200065
-0.0212456
-0.291557
-0.207693
0.256069
-0.450376
0.182043
0.00767162
-0.269847
0.262175
-0.321785
0.13915
0.191661
-0.0886611
0.207024
0.130101
0.17205
0.279063
0.40687
-0.091322
-0.315548
-0.0554064
0.213757
-0.16486
0.0484461
0.116414
0.00359537
0.122208
0.209989
-0.0386419
-0.0448634
-0.0247547
0.00360657
0.0211481
-0.0046018
-0.0149733
0.253686
-0.0109156
0.00559162
0.00532399
0.0400675
-0.0131201
-0.00729985
0.0226895
-0.0153896
-0.457332
0.167867
0.289465
-0.112975
-0.183375
0.296349
0.0594617
0.123805
0.267075
-0.385351
-0.152708
-0.177558
-0.0286026
0.0955869
0.360191
0.0383407
0.28445
0.0468807
-0.331331
-0.150557
0.101731
0.129446
-0.196898
0.190783
0.00611492
0.44674
-0.158301
0.266691
0.105949
0.0758913
-0.30518
-0.259688
0.272175
0.0861236
0.269223
-0.355346
0.0169659
-0.380101
-0.169636
0.40894
0.0210632
0.192403
0.133066
-0.0108091
0.0108012
7.88564e-06
0.110686
0.226936
-0.0324424
-0.164455
-0.278546
-0.17183
0.0924507
-0.349745
0.257294
0.423349
-0.144987
-0.278362
-0.22262
0.271825
-0.0492056
-0.0613473
0.345797
0.388317
-0.105088
0.155962
-0.405082
0.249119
0.385244
-0.403818
0.0185739
0.239473
-0.464102
-0.0947712
0.0683167
0.0264545
0.136828
0.211123
-0.347951
0.0416291
-0.267359
0.274462
0.14416
0.122038
0.324701
0.00619062
-0.00418343
-0.00200719
0.0413001
0.0115607
-0.000118757
-0.128211
-0.214988
0.343199
-0.00200629
-0.00107807
0.0815247
-0.012812
-0.0687127
0.112578
-0.168608
-0.245318
-0.218308
-0.056899
-0.243452
0.194715
-0.322926
0.0331245
-0.0124509
-0.0206736
-0.0691318
-0.123701
0.189106
-0.0654055
-0.147775
-0.0170855
0.335056
-0.142654
0.297977
-0.0635268
-0.23445
-0.342088
0.0522316
0.106598
-0.0538873
-0.0527102
-0.0185673
0.0569353
0.110517
0.00726524
-0.419637
0.27866
0.140977
0.146147
0.260723
0.461441
-0.24914
-0.0218144
0.0303167
-0.00850233
-0.0110644
0.0122382
0.350583
-0.0840475
0.000233206
-0.00243788
0.00220468
-0.423121
0.211363
0.211759
0.21924
-0.27831
0.0590702
-0.0578074
0.0768814
-0.227761
0.192919
0.034842
-0.233693
0.207603
0.0260895
0.0765996
0.173143
-0.00598578
0.00406006
-0.469155
0.151426
0.317729
0.0724657
-0.124618
0.0521524
0.00196136
-0.0147355
-0.348109
0.430686
0.0660579
0.0405396
-0.0105777
0.359462
-0.247799
-0.111663
-0.0674605
-0.150747
0.218207
-0.0370708
0.0246099
0.0124609
-0.0737
0.0477182
0.358045
-0.149752
-0.208293
0.0699085
0.298327
-0.368235
0.0298857
0.00121094
-0.0310966
-0.0419963
0.042619
-0.000622706
0.218001
-0.11571
-0.102291
0.0522283
-0.108498
0.0562699
0.0505911
0.17614
-0.20794
0.34154
-0.1336
0.0662926
0.0956705
-0.161963
-0.306634
0.0253316
-0.273572
-0.237389
0.0959843
0.263478
-0.294682
0.451557
-0.156876
-0.365291
0.304703
0.0605873
0.0489872
-0.251133
0.202146
0.166365
-0.100072
-0.105819
-0.304548
0.417491
-0.268069
0.146336
0.193631
-0.339967
-0.0170168
0.0366974
0.0678606
-0.336766
0.268905
0.0107647
0.276384
0.186606
0.277086
-0.0578466
-0.257323
-0.0132381
-0.18904
0.0326821
-0.0136888
-0.023264
0.0269046
-0.0692764
0.0423718
0.00766848
0.00144034
-0.100897
0.0633675
-0.171924
-0.23621
0.408135
0.103284
-0.0193706
0.00534755
0.0216647
0.361272
-0.159512
-0.20176
-0.00608726
0.035973
-0.287398
0.444956
-0.157559
-0.224274
-0.00941875
-0.0650902
-0.11407
0.137255
-0.282338
0.145084
0.257359
0.105226
-0.187441
0.035503
-0.205817
0.0307778
0.111519
-0.391307
-0.0109296
-0.0065795
-0.422894
0.0374987
0.145927
0.0543187
0.0824006
-0.136719
0.201431
0.26001
0.072795
-0.181347
0.108552
-0.215334
0.034248
0.0124311
0.0155545
-0.000127926
-0.442722
0.150304
0.292418
-0.22872
-0.178984
-0.0620836
0.180389
0.0432281
0.0334019
-0.34961
-0.0156809
0.0327766
0.118108
-0.335164
0.217056
0.0379242
-0.0298784
-0.0080458
-0.00423162
-0.0048772
0.177272
-0.161625
0.203573
0.309022
-0.239113
-0.204987
0.253975
-0.00968716
0.00215473
0.381079
-0.195278
-0.185801
0.20205
-0.461675
-0.236685
0.195603
0.0410822
-0.453704
0.180427
0.273277
0.294947
-0.433114
0.138167
0.00281171
0.0135161
-0.0163278
-0.0150127
0.0182521
-0.00323943
-0.238186
0.40154
-0.163354
0.269516
0.0810669
0.0464524
-0.0691013
0.022649
-0.0150997
-0.000351752
0.390736
-0.144591
0.0611995
0.0437896
0.275824
-0.138996
0.0299938
-0.0204344
-0.00955938
0.147479
-0.193335
0.0458553
0.00376169
-0.00352849
-0.23097
-0.149232
0.018627
0.109531
0.15466
-0.0959394
0.202441
-0.188995
0.194526
-0.388192
0.193665
-0.00530365
0.00455067
0.000752982
-0.0140009
0.425326
-0.138411
-0.286915
-0.108678
-0.327206
0.180956
0.0927214
-0.128023
0.035302
0.336306
-0.364408
0.0281027
0.21876
0.162319
-0.181058
-0.0467033
0.193437
0.0565781
-0.250015
-0.0507357
-0.0317802
0.0825158
-0.00916325
0.0290185
-0.0198552
0.152525
0.205519
0.0715502
-0.0250978
-0.12437
-0.0609952
-0.0157893
0.00370455
0.0120847
0.135848
0.0305631
-0.166411
-0.04886
0.184708
-0.112137
0.378828
-0.146707
0.283962
-0.129524
-0.286945
0.0128341
-0.00887859
0.0193029
-0.0531791
-0.369147
-0.0881848
0.030597
-0.00880394
-0.021793
0.363511
-0.150206
0.294032
-0.184423
-0.109609
0.0990059
0.118995
-0.0798344
-0.278526
0.35836
0.0967674
-0.0535393
0.325928
-0.239805
-0.00301553
-0.00228813
-0.400227
0.201803
0.323694
-0.406054
0.315156
-0.247295
0.0139748
-0.0102846
-0.00369022
-0.00541583
0.00802031
-0.00260448
0.23631
-0.408234
-0.00404818
0.0094528
-0.00540463
-0.0130513
0.0039103
-0.0179401
0.11582
-0.0635919
-0.0295816
0.276473
-0.356307
0.139383
-0.275472
0.13609
-0.426903
0.149992
0.276911
0.0749582
0.140383
-0.215341
0.0067551
-0.00164025
0.195087
-0.112027
0.388969
-0.276941
-0.124113
0.2196
-0.0954874
0.0335238
-0.0226281
-0.0108957
0.181244
-0.0520558
-0.0022073
-0.014451
0.337288
-0.21918
0.0536163
-0.13337
-0.114629
-0.124993
0.239622
-0.383165
0.0369555
0.336378
0.0488661
0.167967
-0.00941811
-0.00825669
0.0176748
-0.0279632
0.0184199
0.0690075
-0.210669
-0.0480544
-0.0519264
0.0999808
-0.0101106
-0.0148705
0.0249811
-0.0609936
0.208473
0.00805334
-0.00188529
-0.00616805
0.383983
-0.0466746
-0.337308
0.457863
-0.457863
0.0274019
-0.2112
0.183798
-0.106943
-0.324192
0.12951
-0.0367889
-0.000858267
0.0018304
-0.000972134
-0.0693481
0.129545
-0.0601967
0.177793
0.0600891
-0.237882
0.0876083
-0.119394
0.0263307
0.046818
0.309114
0.152093
0.281152
0.102831
0.0954992
-0.303439
-0.178638
0.370383
-0.191746
0.382743
0.00742641
-0.39017
0.00842303
0.0221739
-0.197541
-0.214074
0.411615
0.0111488
0.018845
0.106894
-0.0456946
-0.369167
0.111091
-0.150674
-0.247179
0.0336826
-0.0506993
0.212586
-0.234983
0.0223969
0.0645936
-0.037689
-0.145381
0.368049
-0.222669
-0.109233
0.383918
-0.274685
0.252634
0.0576142
-0.310248
-0.198963
0.401013
0.00531055
-0.00577367
0.000463121
0.395843
-0.136445
-0.259398
0.301711
-0.162329
0.236626
0.0613517
0.309537
-0.0569027
-0.324807
0.419635
-0.0948275
0.0265892
-0.0177622
-0.00882704
-0.241851
0.133754
0.26209
-0.166124
0.321988
-0.155864
0.0144057
-0.0139029
-0.0468299
-0.0251162
-0.214948
0.211025
-0.132031
-0.0789941
0.0592754
0.0691063
0.205639
-0.162906
-0.0427331
0.166639
-0.279614
-0.303279
-0.128829
0.0870831
-0.185755
-0.223865
0.0997517
-0.137152
0.21211
-0.0611953
-0.240895
0.302091
-0.000952277
0.00281051
-0.00185823
-0.161044
0.288489
-0.127444
-0.312243
-0.0766346
0.37874
0.111352
0.158164
-0.296743
0.0657732
0.152977
0.40479
-0.239292
-0.165497
-0.496189
0.0166723
-0.0267829
0.0852607
0.1064
0.0578073
0.257348
0.0629971
-0.177626
-0.0768565
-0.193858
0.270715
-0.207535
-0.0623119
-0.298133
0.236938
-0.0842602
0.398284
-0.314024
0.21367
-0.186268
-0.000561757
-0.390153
-0.345001
0.135401
-0.0460718
-0.29492
-0.124717
0.468469
-0.16096
-0.307508
-0.0786748
0.0400329
-0.320495
0.415994
0.249011
-0.30909
0.0600791
-0.315877
0.00743738
0.308439
-0.250352
-0.00601742
-0.16729
0.266904
-0.376137
-0.221028
0.176603
0.0444253
-0.306087
-0.0438175
0.349904
-0.186036
0.0270137
0.159022
0.357011
-0.204485
0.0205719
-0.0166616
-0.359333
0.213953
0.303412
0.0895565
-0.392968
0.0217226
0.0048666
0.0751541
0.135871
0.186419
-0.14892
-0.0226926
0.000878199
0.175704
0.215033
-0.00576129
-0.00515432
-0.0433866
0.0557848
0.00983078
0.0702346
-0.0800654
0.18993
0.145126
-0.0702619
0.00906528
0.0611967
0.318315
0.0663313
-0.384647
0.305147
-0.0561362
0.325864
-0.245729
-0.0801347
0.0844138
-0.336199
0.251785
0.0219286
-0.000592387
0.0294673
-0.00889544
0.0246585
0.0786252
-0.0665789
0.214126
-0.147547
0.0141204
0.00921615
-0.288845
-0.0270316
-0.107018
0.323964
-0.216946
-0.164172
0.0749228
-0.0663337
0.0115837
-0.287031
0.4092
-0.187532
0.327078
-0.139546
-0.29478
-0.129103
0.0637859
-0.0900072
0.0262213
0.312487
0.0923024
-0.242768
0.300575
-0.127521
-0.205194
0.332715
-0.270467
0.351118
-0.080651
-0.460069
0.252954
0.207115
-0.000663923
1.72557e-05
0.000646667
0.278838
-0.167486
0.0275257
-0.0782614
-0.147082
0.355167
-0.208085
0.199984
-0.276864
0.0768803
0.0267913
-0.14277
0.115979
-0.0429456
-0.134999
0.396172
-0.261173
-0.112204
0.144365
0.166717
-0.0127178
0.0136527
-0.311978
0.172566
0.139412
-0.0640444
0.403098
0.143668
-0.31461
0.170943
-0.337053
0.273513
0.0635404
0.0990171
-0.140687
0.0416703
-0.171412
0.260257
-0.135715
-0.210777
0.346492
-0.0418912
0.169101
-0.127209
0.0146599
-0.0118482
0.115243
-0.330288
0.215046
0.0189411
0.0145827
0.267629
-0.0676454
0.412146
-0.143276
-0.26887
0.245338
-0.442879
0.20032
-0.0175612
-0.299611
0.352518
-0.268104
-0.189038
0.107735
0.157469
0.0402177
0.318472
-0.34492
0.209205
-0.035982
-0.274666
0.310648
-0.197102
0.0341961
-0.163048
0.156036
0.0070125
-0.0297151
0.0515265
-0.064666
0.274537
-0.209871
0.334567
-0.127543
0.345051
-0.353352
0.00830064
0.0578021
-0.105857
-0.0957972
-0.240402
0.0738889
-0.278954
0.00304749
0.346388
0.308101
0.128325
0.335456
-0.145525
0.16319
0.138522
0.0802552
-0.220529
0.140274
-0.043035
0.31391
-0.11651
-0.1974
-0.391121
0.294082
0.0970386
0.0389911
-0.326389
-0.203461
-0.218572
0.422034
0.14552
0.266626
-0.0996185
-0.0772704
-0.212159
-0.00162258
-0.00895307
-0.236004
0.193515
0.0424886
-0.0119744
0.026992
-0.0161957
-0.0149971
0.0311927
-0.22474
-0.0494638
0.274204
0.08634
0.0700302
-0.198252
0.191646
0.00660555
0.00286882
-0.00207821
0.00907934
0.00101116
0.0445442
-0.297387
-0.135727
0.000379714
-0.119594
0.119214
0.286421
-0.322403
0.0170217
0.0794325
-0.0964541
0.284725
-0.167722
-0.117003
0.00877383
-0.0013454
-0.00828738
-0.184051
-0.127927
0.0295908
-0.035678
0.147007
-0.0479898
-0.00196309
-0.0400332
0.229646
-0.0390559
-0.301409
-0.119434
-0.222709
0.0256513
-0.157274
-0.195376
0.352651
0.345947
0.110604
0.0229441
-0.0731981
0.0502541
0.00752986
-0.00221932
0.0602593
0.353475
-0.413735
0.0321565
-0.146628
-0.0483917
-0.177238
-0.283999
0.188324
0.0956752
-0.323986
-0.104356
0.437667
-0.101361
-0.0556576
-0.0685417
0.222596
-0.252977
0.0303817
0.411332
-0.133755
-0.277577
0.340842
-0.159536
-0.0576106
0.251047
-0.327902
0.17815
0.36747
-0.219853
-0.147617
0.250334
-0.346462
0.096128
-0.288838
-0.102282
0.0197885
-0.244529
0.483185
-0.263193
-0.219993
0.159214
-0.0250328
0.0974984
0.110035
0.299833
-0.177127
-0.122707
0.0129509
-0.00475527
-0.00819559
0.33991
-0.0910734
0.397859
-0.306785
0.343579
-0.205233
-0.138346
-0.235117
0.236478
-0.00136152
-0.265541
-0.0715127
-0.0303249
0.0205327
0.0131577
-0.333224
0.320066
-0.193674
-0.0509346
0.228463
-0.177528
0.214769
-0.0520544
-0.104501
-0.291539
0.39604
0.167265
0.0073747
-0.348963
0.341588
-0.467235
0.256187
0.211047
0.132055
-0.0777368
0.00083469
-0.321329
0.000607514
0.0137943
0.331257
0.126626
-0.0808708
-0.0457553
0.292232
0.125186
0.410073
-0.12571
-0.284364
0.322361
-0.159171
-0.0260109
0.00683895
0.0739881
0.00753657
-0.40266
0.311587
-0.00801236
0.0224716
-0.0144593
-0.0524163
-0.413307
0.148307
0.264999
-0.00456583
-0.0104849
0.0150507
-0.0131401
0.0073788
0.00278164
-0.0116602
0.18523
0.0415626
-0.226793
-0.379572
0.130351
0.249221
-0.18147
-0.241651
0.00160359
0.00458703
0.155013
0.158897
0.436761
-0.294853
-0.141908
-0.44052
0.136235
0.304285
-0.0452208
0.1161
0.0282853
-0.144385
0.286562
-0.195166
-0.157264
-0.302805
0.00334014
0.126275
0.15845
0.0227245
-0.0086041
0.100194
-0.0831725
0.208377
-0.384796
0.17642
-0.0230216
-0.0465729
0.0695945
0.311967
-0.354329
0.042362
0.0759338
-0.393514
0.0597706
-0.232897
0.173126
-0.356502
0.207159
0.149342
-0.211237
0.218712
-0.00747514
-0.0187408
0.0132754
0.0609174
-0.0741928
-0.0605233
-0.0699402
0.130464
0.0530811
-0.240613
-0.000110133
-0.00200346
0.301603
-0.0737657
-0.227837
0.442823
-0.0710685
0.0234498
-0.012301
-0.00862827
0.0045801
-0.00128827
0.00385972
-0.00257144
0.0258986
0.0494403
-0.0753389
-0.125405
-0.315115
0.00699595
0.105166
-0.0618416
-0.0433248
-0.407813
0.20885
-0.146728
-0.00594082
-0.00413705
0.0100779
-0.341065
0.00977587
0.33129
-0.306357
0.403726
-0.0973689
0.035861
0.0788248
-0.114686
0.345834
-0.0955
0.517894
-0.223915
0.0315128
-0.255262
0.223749
-0.192683
-0.274552
0.277558
-0.232567
-0.0449908
0.356399
-0.143273
-0.213126
-0.0897499
0.00317407
-0.00844196
0.00526789
-0.00935998
0.0389507
0.358638
-0.0647081
-0.29393
-0.107778
0.249864
-0.142086
0.206456
0.0711012
0.128845
0.282487
0.119219
-0.414744
0.295525
-0.0423939
-0.105381
0.283248
-0.433981
-0.198872
0.362427
-0.200928
0.354456
-0.153528
-0.194796
-0.0418888
-0.326242
0.48211
-0.155868
-0.17468
0.182995
-0.075729
-0.258149
0.146081
-0.349304
0.203222
-0.139769
0.407585
-0.267816
0.0889915
0.274777
-0.386804
0.102811
0.197022
-0.261259
0.406379
-0.252466
0.191472
-0.143833
0.253374
0.0112892
-0.0033721
-0.00791709
-0.244315
0.0996932
-0.382418
0.181076
-0.15006
-0.377833
0.395431
-0.0175981