/*--------------------------------*- C++ -*----------------------------------*\
| =========                 |                                                 |
| \\      /  F ield         | OpenFOAM: The Open Source CFD Toolbox           |
|  \\    /   O peration     | Version:  v2012                                 |
|   \\  /    A nd           | Website:  www.openfoam.com                      |
|    \\/     M anipulation  |                                                 |
\*---------------------------------------------------------------------------*/
FoamFile
{
    version     2.0;
    format      ascii;
    class       volVectorField;
    location    "200";
    object      U_0;
}
// * * * * * * * * * * * * * * * * * * * * * * * * * * * * * * * * * * * * * //

dimensions      [0 1 -1 0 0 0 0];


internalField   nonuniform List<vector> 
27915
(
(1.02674 -0.0276827 -4.03539e-21)
(1.059 -0.0554741 1.37883e-20)
(0.477789 -0.0269752 0)
(1.00892 -0.00175991 3.37124e-22)
(1.01223 -0.00513781 4.15261e-23)
(1.03893 -0.0372285 -4.51052e-21)
(1.01031 0.00115911 -2.67679e-22)
(0.534366 -0.0337257 7.959e-21)
(1.01168 -0.00455772 0)
(0.507589 -0.0402806 1.31518e-20)
(1.04618 -0.0512924 -3.1026e-21)
(0.426393 0.212653 0)
(0.987146 0.0885337 5.1055e-23)
(1.01035 0.0011705 2.12265e-22)
(1.01686 0.00227775 6.37828e-23)
(1.00939 -0.00233038 3.59644e-22)
(1.09336 -0.127297 9.14421e-21)
(1.0228 -0.0121348 4.51706e-22)
(1.08368 -0.068256 0)
(0.530017 -0.0324499 2.53182e-21)
(0.932145 0.117399 2.88651e-23)
(1.02488 -0.0190366 0)
(0.750838 -0.0369076 -5.10744e-21)
(1.02106 -0.011146 -3.1098e-21)
(1.00942 -0.00228658 -3.26149e-22)
(1.00654 -0.000740313 -5.23042e-22)
(0.858487 0.0325844 -5.51395e-21)
(1.01213 -0.0050388 1.78186e-22)
(0.394166 -0.00693418 0)
(1.04976 -0.0260466 3.10857e-24)
(1.02175 -0.00766263 0)
(1.02683 -0.0516693 0)
(1.00765 -0.000185258 -2.02095e-22)
(1.00633 -0.000253844 -1.65314e-22)
(0.612717 -0.09658 -4.39508e-22)
(1.0063 -0.000260461 0)
(1.00222 -3.43505e-05 2.38825e-22)
(1.0065 -0.000735519 5.60924e-22)
(0.981902 0.00198046 3.57833e-21)
(1.01388 -0.00792363 1.22349e-22)
(1.01583 -0.0163482 4.34241e-22)
(1.00218 -2.82153e-05 -2.3972e-22)
(1.072 -0.0820708 0)
(1.01162 -0.00326192 7.1005e-22)
(0.828343 0.22034 8.4247e-21)
(1.01394 -0.00812398 2.40729e-23)
(1.01565 -0.00564676 7.41071e-22)
(1.01482 -0.0110524 1.47561e-21)
(1.0057 -0.000346792 9.00449e-24)
(1.01081 -0.000841306 -7.44998e-22)
(0.540616 -0.0368945 0)
(1.06944 -0.094139 -2.61951e-21)
(-0.150026 -0.156751 -4.60364e-20)
(1.04655 -0.0277076 0)
(1.05655 -0.0247959 -3.33415e-21)
(1.0156 -0.00545206 0)
(1.0187 -0.000810688 0)
(1.0101 0.0982138 -3.57419e-22)
(1.02336 0.0882293 7.71264e-22)
(1.02168 -0.00738314 -1.46043e-21)
(1.06684 -0.174724 0)
(1.01815 -0.028809 -6.43465e-22)
(0.804519 0.224352 -4.1832e-21)
(0.209495 0.00200656 0)
(1.01646 -0.000839108 2.48339e-21)
(0.976289 0.00174341 -1.82935e-21)
(0.431184 0.200685 -1.84455e-21)
(0.53691 -0.0359272 1.86403e-20)
(0.615897 -0.100684 2.54306e-21)
(1.01765 -0.000811577 0)
(1.02991 -0.00209942 1.32795e-22)
(1.02097 -0.0114137 1.96208e-21)
(1.02313 -0.0121764 -1.20773e-21)
(0.85773 -0.0251199 0)
(0.467119 -0.0351779 0)
(1.03989 -0.00641781 -8.40333e-23)
(1.04884 -0.025893 -2.71175e-21)
(1.00679 0.000181832 -4.64097e-22)
(0.0139023 -0.237433 7.42196e-21)
(0.996638 0.00536721 -8.44654e-22)
(1.03891 -0.0365089 -3.82307e-21)
(1.01341 -0.00765875 1.61782e-22)
(1.05268 -0.0382457 0)
(0.562955 -0.0573366 2.45103e-20)
(0.141927 0.13699 0)
(0.861375 0.0891168 0)
(1.00592 -0.000201061 0)
(1.0733 -0.0822291 1.054e-20)
(0.458645 0.228554 4.26259e-22)
(1.00035 0.00540884 -1.18968e-21)
(1.0162 -0.0117186 2.8657e-22)
(0.850683 0.0109971 5.23483e-22)
(1.01065 -0.000833574 1.26024e-22)
(0.693169 0.0692718 -8.13035e-21)
(0.427468 -0.00838542 6.99431e-21)
(0.491131 -0.0296105 0)
(1.11246 0.0105085 3.35779e-22)
(0.533432 -0.0440708 -5.50845e-21)
(1.0182 -0.0277062 2.57084e-22)
(1.00762 0.000585313 1.26187e-22)
(1.06926 -0.0249168 0)
(1.00636 -0.000676117 -3.42478e-23)
(0.528037 -0.0423187 -3.24432e-21)
(1.01485 -0.000110577 -9.06724e-22)
(1.01651 -0.0195535 0)
(1.01334 -0.00747889 1.92567e-22)
(0.615108 0.0735991 5.73223e-22)
(1.03529 -0.0999526 -3.34713e-21)
(1.00632 -0.000666137 -1.1694e-22)
(0.515551 -0.0391136 -6.0398e-21)
(0.790465 -0.0358065 -8.98624e-22)
(1.01625 -0.016286 -3.77434e-23)
(1.00366 -0.0295915 -3.58058e-24)
(0.942833 0.0959933 -2.78002e-21)
(1.0319 -0.096991 -7.80848e-22)
(1.06594 -0.0967529 2.00692e-21)
(0.521853 -0.0243144 0)
(1.02677 -0.0504357 0)
(1.01508 -0.000282423 4.6041e-22)
(1.00571 -0.000338998 6.77865e-23)
(1.01617 -0.0115241 2.75105e-22)
(1.00551 -0.0254668 -5.35455e-22)
(1.0078 -0.000205856 0)
(1.02443 -0.0187881 -1.48902e-21)
(1.00191 5.35956e-05 0)
(0.684547 0.204758 3.08486e-21)
(0.675687 0.0154348 1.56422e-21)
(0.395079 0.00202303 0)
(1.01993 -0.00914798 0)
(1.01097 -0.00184981 -2.31649e-22)
(1.01717 -0.0260143 0)
(0.888884 0.023808 1.70722e-21)
(0.700129 0.0596769 0)
(1.07261 -0.0836441 0)
(0.498567 -0.0696827 -7.80214e-21)
(0.975926 -0.0397702 -4.82503e-21)
(0.877872 -0.23396 4.18836e-22)
(1.00545 -0.000116818 3.1888e-22)
(1.01122 -0.00177437 -3.01046e-22)
(1.01587 -0.0109781 -1.34438e-22)
(1.00711 -7.12151e-05 0)
(1.0576 -0.0244826 3.87845e-21)
(1.00273 -9.54006e-05 -4.54269e-23)
(1.04005 -0.0817424 0)
(0.682575 -0.036561 0)
(0.54476 -0.0380406 -1.06044e-20)
(0.318849 -0.0062796 2.06059e-20)
(1.01559 -0.0125849 1.1431e-21)
(1.0421 -0.00155229 0)
(1.05364 -0.0383112 -4.56316e-21)
(0.560779 -0.0332982 0)
(1.00545 -0.000110557 -3.24136e-22)
(1.10326 -0.0378274 4.56772e-21)
(-0.167415 -0.119647 0)
(1.12339 -0.104805 0)
(0.62566 -0.0951393 0)
(0.956435 -0.0842814 -4.41572e-22)
(1.00397 0.000112162 1.60604e-23)
(1.00279 6.26557e-05 0)
(1.01571 -0.000684302 -1.74808e-22)
(1.05967 -0.0284468 4.33603e-21)
(0.433156 -0.00764969 -7.95596e-21)
(1.01009 -0.000450782 4.7632e-22)
(1.01573 0.0181888 6.06503e-22)
(0.898056 -0.0640169 -3.82842e-23)
(1.0264 -0.00186017 0)
(1.10867 -0.0420021 2.61187e-22)
(0.483332 -0.276604 8.87956e-23)
(0.486178 -0.037938 -6.76005e-21)
(1.00106 -3.30342e-05 -2.45632e-22)
(1.00226 -0.0126661 2.08416e-21)
(1.02386 -0.0127105 -3.6029e-21)
(1.00188 5.4687e-05 0)
(1.01307 -0.010927 0)
(1.00973 0.00107358 1.29906e-22)
(0.551731 -0.11103 3.92243e-20)
(0.512331 -0.0381748 -3.81027e-21)
(1.01473 -0.00067308 2.65594e-23)
(1.00382 9.33012e-05 -4.37638e-22)
(0.367309 -0.0114132 0)
(0.45925 0.229396 -9.29783e-21)
(1.00376 -0.00263008 6.50024e-22)
(1.00335 -0.000243157 0)
(0.557707 -0.0414198 0)
(0.974161 -0.0358056 0)
(0.940685 0.0455754 -3.31169e-21)
(1.0032 7.6203e-05 0)
(1.00389 7.46162e-05 0)
(0.453089 -0.0147911 5.05877e-21)
(1.00594 -0.000198391 -4.9224e-22)
(0.900832 -0.0792759 0)
(1.04141 -0.0588863 -1.29975e-21)
(1.07436 -0.0173012 1.79899e-21)
(1.01486 -0.000857639 -4.76987e-22)
(1.01072 0.00138243 1.44595e-23)
(1.00811 -0.000599428 3.42946e-22)
(0.939395 0.0552516 2.99237e-21)
(1.01751 0.0218077 -8.26078e-23)
(1.00143 -5.95812e-06 -3.05213e-22)
(1.04783 -0.0374098 0)
(-0.149888 -0.147273 3.53322e-20)
(0.630747 -0.0573731 1.02641e-20)
(1.00431 9.45491e-05 0)
(1.00165 2.82315e-05 -3.55629e-22)
(0.55122 -0.096384 5.50444e-23)
(0.326151 -0.00729669 -1.49725e-20)
(1.0638 -0.0531801 -6.274e-21)
(1.01942 -0.0157684 6.48479e-22)
(0.343483 -0.0939147 0)
(1.01182 -0.00467396 0)
(1.0507 -0.0382367 1.78401e-21)
(0.719301 -0.222825 -5.44289e-21)
(1.00165 1.50172e-05 0)
(1.01854 -0.000260384 -2.66714e-21)
(1.00171 2.47471e-05 -8.48766e-23)
(1.01423 -0.000344108 -1.30537e-23)
(1.01737 -0.0140765 -6.47162e-22)
(1.1197 -0.10601 5.23478e-21)
(1.01111 -0.00181678 1.26521e-22)
(1.0133 -0.00727928 0)
(1.01997 -0.0107138 5.53433e-22)
(1.02078 0.00248992 7.01944e-23)
(1.05642 -0.025749 1.8632e-21)
(1.00321 1.57338e-05 0)
(0.444815 0.00216619 0)
(0.957399 0.101138 0)
(1.01215 -0.003562 0)
(0.845289 0.232504 -2.63977e-21)
(1.01143 -0.00177103 -3.11312e-22)
(1.00794 5.88651e-05 -2.86815e-22)
(0.281212 -0.0027461 -6.60063e-21)
(1.02541 -0.00363237 -4.46086e-22)
(0.748269 -0.237973 5.5935e-21)
(0.497062 -0.264472 0)
(0.921758 0.0982247 -8.81305e-23)
(1.01308 -0.0019877 -6.49458e-22)
(0.692261 -0.276252 4.74852e-21)
(1.01356 -0.000405708 0)
(1.00225 -9.86793e-05 0)
(1.00955 -0.000544562 0)
(0.825297 0.195548 -2.8679e-21)
(1.01768 -0.0154701 0)
(1.02822 -0.00421535 1.53989e-22)
(0.670417 -0.0621444 -2.51436e-20)
(1.01967 -0.00892254 -2.14786e-21)
(1.00388 0.000106382 0)
(-0.158229 -0.0879957 0)
(0.23849 0.000152359 1.93938e-20)
(1.01473 -0.0201991 4.68603e-22)
(1.07597 -0.0158195 0)
(1.05962 -0.0219261 -1.47708e-20)
(0.635687 -0.0694479 0)
(1.01184 0.00165007 0)
(1.02209 -0.00788948 0)
(1.01324 -0.00714177 0)
(1.11475 -0.00562054 0)
(1.02745 -0.0276163 4.28158e-21)
(1.01131 -0.00199836 -3.93451e-23)
(1.05212 -0.0527795 8.40368e-21)
(0.642253 0.0748453 -1.12494e-21)
(0.403352 -0.0229284 0)
(1.0586 -0.058052 7.05596e-21)
(0.976534 -0.0322026 5.22427e-22)
(0.961805 -0.0313342 4.03777e-21)
(0.976954 -0.03675 1.92841e-23)
(1.10194 -0.0768147 0)
(1.0079 -0.00159024 -1.13417e-23)
(0.889855 -0.0784038 1.3364e-20)
(0.641404 -0.0689429 0)
(0.752876 -0.00833748 0)
(1.01218 0.00109288 7.16211e-22)
(0.457319 0.00278293 0)
(0.480061 -0.018983 -7.67722e-21)
(0.373224 -0.0108385 -4.88204e-20)
(1.01524 -0.0197204 -6.77363e-22)
(1.00796 -0.00161045 0)
(1.0147 0.000483221 -4.13691e-22)
(1.01772 -0.0152767 7.75287e-23)
(1.00776 -0.000952291 0)
(1.02431 -0.0181879 2.43163e-21)
(1.01106 -0.00178963 0)
(1.00767 0.000600886 0)
(1.00668 0.000176638 3.58433e-22)
(1.02375 -0.00481517 -3.18878e-22)
(0.84881 -0.00757082 0)
(0.523587 -0.0386497 -1.69476e-20)
(0.0523426 0.0298415 -4.95935e-20)
(0.798858 0.133314 -1.74034e-21)
(1.04858 -0.0268458 2.70368e-21)
(0.814774 -0.0717985 0)
(0.92962 0.00216206 0)
(1.02197 -0.0117041 -4.5894e-22)
(0.440941 -0.0137034 8.38726e-21)
(1.01052 -0.000752594 0)
(1.01511 0.000420613 -1.20344e-22)
(1.05955 -0.0577086 0)
(0.830901 0.0147099 -4.79959e-22)
(0.819863 -0.188069 1.55006e-21)
(1.01735 -0.0124436 -1.08134e-21)
(1.0182 -0.000274159 1.55493e-21)
(0.954445 -0.139356 9.8833e-22)
(1.01865 -0.0113794 1.86239e-23)
(1.01052 -0.00149947 5.30253e-22)
(1.00073 3.83798e-05 2.05842e-22)
(0.849784 0.0590476 3.34558e-22)
(-0.0522734 -0.224113 -2.38249e-20)
(1.0475 -0.0381778 0)
(1.00358 8.94466e-05 0)
(0.0211802 -0.231162 2.27507e-20)
(1.01151 0.000785579 -6.44594e-24)
(0.815212 0.18057 -2.66033e-21)
(1.03369 -0.00586352 1.85304e-21)
(0.562886 -0.0781849 4.32737e-22)
(1.01134 -0.00193822 -5.73101e-22)
(0.813607 0.171738 3.58248e-21)
(1.00144 2.11063e-05 -4.76064e-22)
(1.00734 0.000468327 6.33013e-23)
(0.5705 -0.0618585 0)
(0.390496 0.00414813 0)
(0.299848 -0.00627371 0)
(1.02175 -0.00809675 -1.71097e-22)
(1.00947 0.0010701 0)
(1.00818 -0.00177847 1.66932e-22)
(1.01944 -0.0109855 0)
(0.982295 -0.0293355 -2.55153e-21)
(1.01701 -0.0102568 0)
(1.06789 -0.0833039 0)
(0.405746 -0.00860052 6.29758e-21)
(1.0175 -0.00750989 -2.06975e-21)
(1.00948 -0.000186828 -6.13185e-23)
(1.01302 -0.00387571 -5.16479e-22)
(1.02391 -0.00754423 3.38306e-22)
(1.01997 -0.0114804 0)
(1.01064 -0.00149473 -6.67773e-22)
(0.906969 0.290805 -1.97722e-21)
(1.0094 0.00102079 0)
(1.0935 -0.0995594 0)
(1.00808 -0.000863648 0)
(0.74566 -0.274654 -1.56347e-21)
(0.450349 -0.0432236 5.1154e-20)
(1.04775 -0.0268027 -4.9301e-21)
(-0.00250687 0.0664765 0)
(0.376721 0.00298828 5.95194e-22)
(-0.106988 -0.133224 -9.08794e-21)
(1.0092 0.000996908 0)
(1.0148 -0.000416453 0)
(1.03308 -0.00575508 1.67423e-21)
(0.679221 -0.00723144 -7.31971e-21)
(0.529251 -0.0402274 1.31402e-20)
(1.02163 -0.0116545 3.73721e-22)
(1.01914 -0.0108301 5.90029e-22)
(1.0096 -0.000598824 0)
(0.705378 0.243406 -2.1984e-21)
(0.986113 -0.0310045 5.43198e-22)
(1.056 -0.0483094 0)
(1.04346 -0.0693558 8.69803e-21)
(1.00903 0.00860504 3.17987e-22)
(1.01579 -0.00348433 -1.59517e-21)
(1.00984 -0.000372333 -3.5329e-22)
(0.899438 -0.111985 2.50401e-21)
(1.06154 -0.0508965 -9.37629e-21)
(1.01186 0.000682639 -1.1466e-21)
(1.01753 -0.0136818 1.72713e-22)
(1.00545 0.0001605 -3.18986e-22)
(1.01454 0.000222233 2.86612e-22)
(0.00731352 0.0918603 2.90254e-20)
(1.01135 -0.0235806 0)
(1.00866 -0.0011146 -6.93297e-24)
(1.02103 -0.00725811 -2.0931e-22)
(1.00917 -0.00206874 -1.80582e-24)
(0.394758 -0.009342 -6.13049e-21)
(1.00951 0.00103777 2.3252e-22)
(1.05899 -0.0523726 0)
(1.00985 -0.000634304 -5.31053e-23)
(0.609393 -0.0524261 6.46228e-21)
(1.00974 0.00108228 1.4306e-22)
(1.00808 9.36102e-05 0)
(1.07575 -0.059837 4.30317e-23)
(1.00786 -0.0243714 1.52928e-21)
(1.01203 0.00167997 1.7499e-23)
(1.03807 -0.0411471 0)
(1.06068 -0.0678133 1.58532e-20)
(1.01455 -0.0234514 -3.34972e-22)
(0.751997 0.251811 3.20377e-21)
(0.974534 -0.0874067 -7.45643e-21)
(1.05277 -0.0520653 -2.21105e-21)
(0.849257 -0.00235496 0)
(1.05958 -0.0675807 -1.73911e-20)
(1.01591 -0.0112376 1.42963e-22)
(1.04136 -0.0851943 9.34355e-21)
(1.02849 -0.00363652 5.47076e-21)
(-0.0647734 -0.108509 0)
(0.562265 -0.0445701 0)
(1.00836 -0.00199099 8.16404e-23)
(0.531087 -0.0429251 9.94447e-21)
(1.06036 -0.0556947 -1.19535e-20)
(1.01195 -0.0227034 7.28855e-22)
(1.01548 -0.00010128 1.47917e-22)
(1.00272 6.38797e-05 3.0051e-22)
(0.427217 0.232571 0)
(1.00984 -0.000402629 5.62547e-23)
(1.01711 -0.0270417 5.65973e-23)
(0.455877 -0.00914723 -1.38172e-20)
(1.03778 -0.00812313 4.71403e-21)
(0.954959 -0.167421 -7.89623e-22)
(1.0199 0.00184021 0)
(1.08616 -0.067904 6.59141e-21)
(1.01859 -0.000802318 -1.19225e-21)
(0.468587 -0.0479732 4.44709e-21)
(1.06382 -0.0522255 9.79005e-21)
(0.464655 -0.0184396 -4.85945e-21)
(1.00624 -0.0251766 -1.41693e-21)
(1.00839 -0.00199343 -5.8973e-23)
(1.00474 0.000138645 -1.16634e-24)
(0.443989 0.221573 -6.90761e-21)
(1.02009 -0.0112885 1.46122e-23)
(1.03212 -0.0882099 3.63811e-21)
(1.01169 -0.00177372 7.93137e-22)
(1.06094 -0.0552652 -5.65853e-21)
(1.02107 0.00237933 -1.85902e-22)
(1.10177 -0.102554 -4.59965e-21)
(1.00397 -3.95633e-05 2.2815e-22)
(1.06697 -0.0256247 1.38438e-20)
(0.887114 -0.0798187 0)
(0.15579 -0.16493 2.91495e-20)
(1.01088 -0.00186676 -1.02295e-22)
(1.00858 -0.00114087 5.96793e-23)
(-0.0521875 -0.222516 0)
(0.796174 -0.0740391 0)
(1.01272 0.000421069 3.0197e-22)
(0.844967 -0.092183 0)
(1.01134 -0.00212189 0)
(0.996378 0.100411 1.07032e-21)
(1.05171 -0.0356139 -3.52341e-21)
(1.00903 -0.00136008 -4.47971e-22)
(1.00944 -0.00064685 0)
(1.01815 -0.00773342 -1.11073e-21)
(1.01322 -0.000612886 -1.86736e-21)
(0.994853 0.00159762 0)
(1.06736 -0.0669275 -5.96373e-21)
(0.778362 -0.00501872 0)
(1.07866 -0.00784642 -8.14106e-22)
(1.06626 -0.0705641 0)
(1.06149 -0.0512049 -1.85126e-21)
(1.0031 6.59216e-05 -3.22771e-22)
(1.0198 -0.000691774 3.63683e-22)
(0.437572 -0.00952433 0)
(1.03696 -0.00804892 2.35444e-21)
(1.06107 -0.0805396 0)
(1.01087 0.00142208 0)
(0.583218 0.0811865 0)
(0.981516 -0.0840873 -4.1938e-21)
(1.00735 -0.00121202 -3.54687e-23)
(1.01231 -0.000499236 -6.09347e-24)
(0.799893 -0.0436876 2.96334e-22)
(0.928169 0.134977 1.57307e-22)
(0.585589 -0.0721456 -6.01219e-22)
(1.01466 6.5144e-06 -5.4269e-22)
(1.06203 -0.0357363 0)
(0.435777 -0.00914828 -1.10608e-22)
(1.0081 -0.0017465 -8.81749e-23)
(1.01254 -0.000162797 -4.22733e-21)
(1.06473 -0.121876 -5.61501e-21)
(1.01418 0.00528059 -5.36061e-22)
(0.369909 -0.00554897 -1.19762e-20)
(0.923151 -0.0744753 1.71675e-20)
(1.00122 5.29443e-05 -2.40811e-22)
(1.01213 -0.00339498 -9.22209e-22)
(1.05648 -0.171597 2.65825e-21)
(1.05594 -0.0141111 5.98803e-22)
(1.01161 -0.00339093 -7.58664e-22)
(1.06825 -0.0240984 0)
(0.996866 -0.0052606 0)
(1.01012 -0.00029352 8.50826e-22)
(1.00436 0.014906 -7.3892e-22)
(1.00374 -0.0120221 -1.57274e-23)
(1.01181 -0.00372962 -7.89765e-22)
(1.01265 -0.00365625 0)
(1.01886 -0.0231103 0)
(1.00629 -0.028374 0)
(0.987637 -0.126242 0)
(1.01433 -0.037202 -1.69374e-22)
(0.0956269 0.014408 -4.29642e-20)
(0.919952 0.112142 1.07026e-22)
(-0.0256956 0.0790636 -1.23164e-20)
(1.02392 -0.0179783 -2.39257e-21)
(1.01571 -0.0232893 0)
(0.999621 -0.00453753 6.39214e-22)
(1.00355 -0.0053211 0)
(1.00916 -0.000218921 4.39465e-22)
(0.988724 -0.145941 -1.32418e-21)
(1.0139 -0.0478981 4.25159e-22)
(1.05893 -0.0788489 0)
(1.01148 -0.000375496 5.29013e-24)
(0.382968 -0.00948365 0)
(1.0461 -0.0503397 8.30676e-21)
(1.0193 0.00477105 -6.96514e-22)
(0.845791 -0.0448975 0)
(0.893108 -0.0903812 0)
(0.429964 -0.0103585 5.33585e-21)
(1.01284 -0.0038634 0)
(1.01196 -0.00207926 2.61544e-22)
(0.536819 -0.0650092 8.71149e-21)
(0.762058 0.226602 -5.97351e-22)
(0.17811 -0.150831 5.94799e-21)
(0.402737 -0.0082159 2.73213e-21)
(1.0089 -0.00171458 -3.37048e-22)
(1.0112 0.000222991 3.81024e-22)
(0.365503 0.00329288 -9.06466e-22)
(0.748111 0.176291 0)
(1.01014 -0.00356198 0)
(1.06387 -0.0579253 5.87509e-21)
(1.067 -0.065784 -9.75936e-21)
(0.456723 0.00345798 0)
(0.385824 0.00400138 0)
(0.984581 -0.0761576 4.81689e-21)
(0.641762 -0.1036 -4.60645e-21)
(1.00895 -0.00124931 -2.33397e-22)
(1.05917 -0.0527041 -6.62257e-24)
(1.03911 -0.0415384 2.20728e-21)
(1.00328 -4.28728e-05 -2.45217e-22)
(1.00729 -0.00119225 -3.44371e-23)
(1.01007 -0.000406821 0)
(-0.0821019 -0.0872425 1.45828e-20)
(1.00931 0.00102593 0)
(0.919081 -0.158939 4.25656e-22)
(1.04596 -0.0268518 0)
(0.607779 -0.0509565 -4.69786e-22)
(0.976061 0.0986496 3.87671e-23)
(0.4408 -0.0120374 0)
(1.0076 0.00058225 -1.75105e-24)
(0.435987 0.231654 -6.08388e-21)
(0.31136 -0.0112403 -1.59553e-20)
(1.07252 -0.0699052 2.68979e-21)
(1.01806 -0.0135538 0)
(1.03981 -0.062385 1.75445e-21)
(0.507863 -0.033954 -8.09082e-21)
(1.0116 -0.00175792 6.16494e-22)
(1.06215 -0.0552329 -6.35256e-21)
(1.01798 -0.00754246 1.1445e-21)
(1.02072 -0.00713735 0)
(1.00238 0.0082373 1.91126e-23)
(1.01756 -0.000647964 0)
(1.00134 0.0875527 3.8791e-22)
(1.01228 0.000173594 0)
(0.655004 -0.265829 3.4738e-22)
(1.01 -0.000320315 -4.89521e-22)
(0.600857 -0.0503416 0)
(1.0081 -0.00101301 0)
(0.857368 0.0473487 7.85111e-21)
(1.02131 -0.0071777 2.05657e-22)
(1.02644 -0.0152507 -1.00631e-21)
(1.01494 -0.0621793 -4.79464e-22)
(0.795601 0.130333 3.03488e-22)
(1.01591 -0.0224033 0)
(1.01431 0.0126218 5.78206e-22)
(0.857556 -0.0326931 -1.68023e-22)
(0.854788 -0.0747032 0)
(0.924443 0.00920623 -1.79203e-21)
(1.01103 -0.0042168 4.14752e-22)
(0.376151 0.00440917 2.56725e-22)
(0.487532 -0.0379812 -1.44078e-20)
(1.05857 -0.0591492 -7.46822e-21)
(1.05418 -0.0376684 5.45876e-21)
(1.01765 -0.000636831 0)
(1.02614 -0.0153221 1.44209e-21)
(0.552369 -0.0769597 -3.84348e-22)
(1.00896 -0.00121392 4.9272e-22)
(0.852723 -0.0924167 0)
(1.03517 -0.00461976 0)
(1.05891 -0.0563035 -1.24878e-20)
(-0.125758 -0.191271 4.73686e-20)
(1.00805 -0.027868 1.55924e-21)
(0.877683 -0.0771159 0)
(1.00677 -0.00016557 -2.02795e-22)
(0.889796 0.0757842 2.53755e-21)
(-0.025104 0.0604934 0)
(1.03114 -0.0449705 -3.27085e-21)
(0.966055 -0.14957 -3.07182e-22)
(1.00912 -0.000198979 2.48392e-22)
(1.00295 6.15365e-05 -3.08862e-22)
(1.05968 -0.0550866 9.14195e-21)
(1.02515 -0.0473905 -2.1763e-21)
(0.596983 -0.0493762 0)
(0.904536 0.0988769 8.01842e-22)
(1.00091 -1.00716e-06 -3.83362e-23)
(0.441311 -0.0130575 0)
(1.00637 -0.000273959 -2.16432e-22)
(1.00269 3.9862e-05 -2.92307e-22)
(0.229033 -0.00184309 0)
(1.00408 0.00011694 0)
(1.02973 -0.00332314 6.45397e-21)
(0.895504 -0.222849 3.4389e-21)
(1.02488 -0.0490769 0)
(0.102435 0.146588 9.32969e-22)
(1.00962 -0.000165835 0)
(0.534804 -0.148293 -1.4294e-20)
(1.1177 0.021703 -3.24371e-22)
(1.0095 -0.000709821 2.63161e-22)
(1.00574 -0.000171475 -1.22282e-23)
(0.953738 -0.0829978 3.79632e-22)
(1.01984 -0.0109044 5.54869e-22)
(1.00762 -0.00144595 -3.39174e-23)
(1.00659 -0.000198352 -3.54388e-22)
(0.890694 0.210826 1.51236e-21)
(1.01248 -0.00362476 -8.76408e-22)
(1.00698 -0.0766557 4.38348e-21)
(1.01054 -0.000107823 0)
(1.01583 -0.000644856 -9.26544e-22)
(0.301447 -0.00585981 1.19503e-20)
(0.905616 -0.233504 3.18947e-21)
(1.00766 -0.00146946 3.52695e-23)
(1.04313 -0.0745648 1.70651e-20)
(-0.108543 -0.147263 1.26613e-20)
(0.380964 -0.00578215 2.46605e-23)
(1.02138 -0.0112554 6.89114e-22)
(1.01324 -0.00427192 1.38464e-21)
(0.0128575 0.0759827 -3.65448e-20)
(1.07021 -0.0244725 0)
(0.892687 0.0302495 3.02167e-21)
(1.00748 0.000512926 1.07849e-22)
(1.02219 -0.0154109 -1.42065e-21)
(1.0057 -0.000175842 -9.3504e-23)
(1.01649 0.00233187 -6.23531e-23)
(1.02059 -0.0112662 1.18438e-21)
(1.01274 0.000653218 0)
(1.03779 -0.0360792 3.48548e-21)
(1.01328 -0.0027489 -4.15548e-24)
(1.00783 -0.00100116 -2.19135e-22)
(1.0055 0.00016023 -3.25005e-22)
(0.934477 0.0281536 0)
(1.02326 -0.0832775 0)
(0.414917 -0.0250401 1.95118e-21)
(1.06095 -0.0514793 -1.77086e-23)
(-0.136187 -0.19101 -2.08468e-20)
(-0.0519403 -0.112774 1.18444e-21)
(0.368047 0.00195666 -2.9295e-22)
(1.01344 -0.00441529 -8.54293e-22)
(0.965999 -0.135034 0)
(0.994535 -0.0105516 -1.70315e-22)
(1.09834 -0.056326 0)
(1.02901 -0.00363408 -2.9196e-21)
(0.735053 0.189693 -1.50204e-21)
(1.03503 -0.0050312 0)
(1.00899 -0.00132631 -4.77848e-22)
(1.00832 0.000723947 0)
(0.946768 -0.0740405 -2.21143e-20)
(1.01433 -0.00034884 0)
(1.00953 0.00104282 0)
(1.06747 -0.0355186 7.65398e-21)
(0.92643 0.0232686 1.26208e-21)
(1.01699 0.0922729 3.75165e-22)
(1.06878 -0.0829098 -5.89781e-21)
(0.463365 -0.0335646 2.0785e-20)
(0.614162 -0.0519472 0)
(1.01733 -0.01371 0)
(-0.185568 -0.149045 3.43163e-20)
(0.438022 0.231939 -1.55472e-20)
(0.390966 -0.0666144 -1.76476e-20)
(1.00593 0.000224208 3.2312e-22)
(1.03934 -0.00815334 -8.08439e-21)
(0.943895 -0.166133 1.98425e-21)
(1.00693 -0.000180543 3.00986e-22)
(0.911816 -0.238597 2.0863e-21)
(1.08254 -0.0676708 0)
(1.00152 -1.23841e-05 0)
(1.03556 0.0791301 -1.2407e-21)
(1.03473 -0.0909067 -3.17091e-21)
(1.05559 -0.025999 2.19638e-21)
(1.03288 -0.0346302 1.43723e-21)
(1.00719 -0.00109614 -9.75649e-24)
(1.01154 -0.00175217 0)
(1.01638 -0.0120616 -3.06908e-22)
(1.0167 -0.000953676 -1.06568e-21)
(1.00598 0.000200084 0)
(1.00377 9.61341e-05 -4.78702e-23)
(1.01001 -0.00343623 0)
(0.7595 -0.162548 -1.42646e-21)
(1.02832 -0.00401229 -2.67862e-21)
(0.358874 0.00425545 0)
(1.02188 -0.0152221 -1.18867e-21)
(1.03382 -0.035292 -1.62334e-21)
(0.996636 -0.0139738 -2.47802e-22)
(1.011 -0.000289419 6.05117e-22)
(1.01433 -0.00083374 0)
(1.04022 -0.0412533 -2.82654e-21)
(1.04485 0.0667323 1.21955e-21)
(1.01732 -0.000713177 -1.09072e-21)
(1.0091 -0.00151166 0)
(1.01236 -0.000776834 0)
(1.01729 0.00236399 1.09572e-24)
(1.04064 -0.0682472 -2.11292e-21)
(1.01651 -0.00668056 4.22269e-22)
(1.02614 -0.00164542 3.83291e-22)
(1.01092 0.00954541 -1.25217e-21)
(1.00714 -0.00107961 1.15285e-22)
(-0.0276696 0.0918203 -4.24486e-20)
(0.675113 -0.0278309 -1.00049e-21)
(0.44422 0.00226717 0)
(1.01158 -0.0046164 -1.99376e-22)
(-0.0339916 0.0684449 1.18176e-20)
(0.872938 0.0227194 0)
(1.01368 -0.0386142 4.14657e-22)
(1.00151 2.30354e-05 0)
(0.963731 -0.0386469 -2.12954e-21)
(1.01171 -0.00472245 -1.54055e-23)
(0.631833 -0.0639957 0)
(1.01611 -0.020051 0)
(1.04628 -0.0390607 1.84503e-21)
(1.06837 -0.0353525 -1.6352e-20)
(1.02781 -0.00399976 2.5799e-21)
(1.03638 -0.00969908 -2.52438e-21)
(1.01602 -0.00361151 1.94397e-21)
(1.0895 -0.0575619 8.11795e-21)
(0.918598 -0.0797744 -1.28e-20)
(0.596861 0.116005 0)
(1.01692 0.0057897 0)
(1.00833 0.000712131 -3.47441e-23)
(1.01117 -0.00193774 5.79896e-22)
(0.598635 -0.0502387 0)
(0.416928 0.00336191 1.66406e-20)
(1.03253 -0.00593362 -4.83198e-23)
(-0.0151177 0.0511692 -4.25957e-21)
(1.00762 -0.000739541 0)
(0.967634 -0.198242 0)
(1.08384 -0.0692958 9.56764e-21)
(0.870566 -0.0127912 3.15687e-21)
(1.04789 -0.0163229 -4.77889e-21)
(1.07767 -0.017258 0)
(-0.0969293 -0.104799 0)
(1.00285 6.1726e-05 -2.41461e-22)
(1.0813 -0.0512601 -3.11694e-22)
(0.305884 -0.113726 0)
(1.00752 0.000548904 0)
(1.0887 -0.0580071 1.85736e-20)
(0.369512 0.0049842 0)
(1.01075 -0.000654125 3.43175e-22)
(1.04559 -0.0253874 -4.50885e-21)
(0.603625 -0.104384 6.19679e-21)
(1.1061 -0.0759745 7.27915e-21)
(1.02324 -0.0167356 -1.44949e-21)
(1.00647 0.000158484 -7.69135e-22)
(0.272032 0.266739 5.95434e-21)
(0.453047 0.113203 1.03363e-20)
(0.928679 0.127352 0)
(1.06995 -0.059953 -1.23482e-20)
(1.05868 -0.0222782 1.14321e-20)
(1.00889 -0.00218554 -2.72163e-22)
(0.942377 -0.194644 -1.8051e-22)
(1.00904 -0.00181085 -4.43658e-22)
(1.00808 -0.00059185 -4.50399e-22)
(1.01072 -0.000578088 8.25477e-25)
(1.00611 0.000157774 -4.40159e-23)
(1.01033 -0.00127401 -1.4551e-22)
(1.01458 -0.0121586 1.30837e-22)
(0.93735 -0.210439 1.84112e-22)
(1.01517 -0.00045521 0)
(1.05322 -0.0152285 -5.66045e-22)
(1.02087 -0.00607041 2.83418e-21)
(0.639935 -0.0913113 0)
(1.0108 -0.000269139 9.39381e-22)
(0.297985 -0.00874327 5.74099e-21)
(1.00347 7.55253e-05 2.7889e-22)
(0.978159 -0.225066 0)
(1.02034 -0.010896 -5.77205e-22)
(0.493444 -0.0306812 8.81253e-21)
(1.06831 -0.0230052 -5.53096e-21)
(0.626771 -0.0905122 -1.46231e-20)
(1.08429 -0.0787303 -8.41993e-21)
(0.313313 0.00262217 0)
(1.05817 -0.032426 -5.67931e-21)
(1.01463 0.0075895 2.51991e-25)
(1.03606 -0.0425358 3.13625e-21)
(0.520544 -0.15751 2.05351e-20)
(1.02338 -0.00286363 -2.13251e-21)
(0.270431 0.266854 9.04567e-21)
(1.00611 0.000135815 -9.22735e-23)
(1.04877 -0.0161662 9.36064e-21)
(0.962778 -0.145773 -4.48611e-22)
(1.03013 -0.00700202 0)
(1.01724 -0.00740806 9.96125e-22)
(1.05103 -0.0373886 -3.71663e-21)
(1.01773 -0.000770603 0)
(0.793841 -0.187598 0)
(1.00764 0.000589372 -2.51632e-22)
(1.00239 4.6415e-05 -5.67764e-24)
(1.06729 -0.0213196 0)
(1.05775 -0.0540959 0)
(1.01117 -0.00189893 2.79126e-22)
(1.01082 -0.0397684 2.54769e-23)
(1.0463 -0.0259577 2.3777e-21)
(0.789925 -0.074305 0)
(0.528699 -0.0314194 0)
(1.00569 0.000174938 0)
(1.01179 -0.0033202 0)
(0.755803 0.21207 4.88056e-22)
(1.05864 -0.0666904 7.12508e-21)
(1.01043 -0.00133975 0)
(1.06709 -0.0244298 -1.18836e-20)
(1.02071 -0.0064289 2.62228e-21)
(0.311511 0.155661 -2.81196e-21)
(0.292772 0.000633251 0)
(1.03757 -0.0350541 -3.43334e-21)
(1.02343 -0.0126401 3.27049e-21)
(1.00636 0.000156553 -2.25367e-22)
(1.0146 -0.0118605 3.20628e-22)
(-0.0627655 -0.218014 1.63964e-21)
(1.01674 -0.00582135 -1.54348e-21)
(1.02159 0.00283803 -2.93267e-23)
(1.02247 -0.0150058 0)
(1.00488 0.000149916 0)
(1.01236 0.000216306 -3.02188e-22)
(0.466386 -0.0130381 -1.28174e-20)
(0.28907 -0.122336 -1.11344e-20)
(1.01148 -0.00348615 3.80665e-22)
(1.03243 -0.00624625 -3.50537e-21)
(0.905723 -0.0836102 -2.87477e-21)
(0.443081 0.00289992 -1.22985e-20)
(0.90086 0.110016 2.72435e-21)
(1.0657 -0.0655405 5.30217e-21)
(1.01651 -0.00682956 -1.14652e-21)
(0.400758 -0.0781566 9.47245e-23)
(0.992507 -0.0101733 1.57877e-21)
(-0.00465743 0.0646653 0)
(1.01026 -0.00361771 8.23445e-23)
(1.08265 -0.0404352 0)
(1.04158 -0.0602267 0)
(1.01624 -0.0190193 4.50995e-22)
(1.01291 -0.00517849 2.08414e-22)
(-0.0303787 -0.138489 -1.81171e-20)
(0.454403 0.00341453 9.96773e-21)
(1.01928 -0.00374182 1.94795e-22)
(1.01256 0.000534565 0)
(0.89045 0.10668 -3.033e-22)
(1.08125 -0.0416397 -5.55797e-21)
(1.01528 0.0022508 0)
(1.01652 -0.00583292 5.33907e-22)
(0.872912 -0.0284694 1.42336e-21)
(1.02003 -0.0180864 0)
(1.07769 -0.0701065 0)
(0.559604 -0.126314 -1.99061e-20)
(1.0229 -0.0165723 -1.35124e-21)
(0.932719 -0.0802825 2.6442e-21)
(0.764585 0.255959 3.75399e-22)
(0.0629466 0.181855 0)
(0.858611 0.079221 1.04812e-20)
(0.826134 0.0857031 -7.05912e-21)
(1.01172 -0.00175382 0)
(1.0296 -0.00690789 0)
(1.01138 -0.000885433 -9.67794e-22)
(0.408044 0.00319698 -9.98774e-21)
(0.866203 -0.0894428 -3.79958e-21)
(1.00594 0.000216018 1.57269e-22)
(0.497132 0.124904 -2.1085e-20)
(1.00327 0.000119903 2.65316e-22)
(1.04297 -0.00876112 -2.31569e-21)
(0.949358 0.124765 4.10152e-21)
(1.00897 0.000929988 0)
(1.05858 -0.0655423 -1.16302e-21)
(1.0059 0.0001962 2.15272e-22)
(-0.038126 -0.128736 -1.45624e-22)
(1.01969 0.00576863 7.33497e-22)
(1.00829 -0.00104935 0)
(1.01062 -0.000292155 -1.44652e-22)
(0.355141 -0.00724527 -1.11542e-20)
(0.0426869 -0.215345 -1.32606e-20)
(1.01384 0.00872191 -5.66925e-22)
(0.0113798 -0.234066 1.39132e-20)
(0.28509 -0.12486 0)
(0.561489 -0.0946805 0)
(1.06959 -0.0589273 -8.82571e-21)
(1.04743 -0.0276621 5.68603e-21)
(1.0088 0.000906421 0)
(1.02185 -0.00306712 -1.13218e-21)
(1.01368 -0.000748279 0)
(1.12088 -0.00568048 0)
(0.0144228 -0.232846 0)
(1.01197 -0.0035132 -8.2172e-22)
(1.01752 0.000193392 0)
(1.03495 -0.0173942 -2.74363e-23)
(0.234718 0.166787 2.69007e-21)
(0.883875 0.302795 2.81852e-21)
(0.462646 -0.0110425 1.22763e-20)
(1.02084 -0.0067221 -6.4238e-22)
(1.06186 -0.0513036 9.59213e-21)
(1.03264 -0.0302177 2.46316e-21)
(1.00425 0.000108343 0)
(1.01268 -0.000856737 0)
(0.747712 0.239448 -3.62818e-21)
(0.421039 -0.0228226 1.96817e-21)
(0.583395 -0.0477236 0)
(1.03978 -0.0379091 4.89966e-21)
(1.08519 -0.0577329 5.76827e-21)
(0.536675 -0.0416529 1.33643e-20)
(0.995686 -0.0100169 -3.31839e-22)
(0.00530253 -0.242648 0)
(1.00774 -0.000388787 0)
(1.00524 -0.000160188 6.62893e-24)
(1.02176 -0.0172213 -3.1517e-22)
(1.01089 -0.000195951 0)
(1.08109 -0.0423295 -6.7279e-23)
(-0.0142901 0.0482175 2.55423e-20)
(1.06423 -0.0512292 -5.5161e-21)
(1.03568 -0.0164397 5.49492e-21)
(1.06165 -0.050296 9.64395e-21)
(1.101 -0.0777751 0)
(1.00152 2.73809e-05 -1.7549e-22)
(1.00769 -0.000368879 0)
(1.00891 -0.00213045 2.42091e-22)
(0.886514 -0.179603 -1.15872e-20)
(1.00099 9.01599e-06 0)
(0.478041 0.149517 -2.64303e-21)
(1.01342 0.00200202 0)
(0.391525 -0.0671629 0)
(1.06534 -0.0643786 4.98823e-21)
(1.01166 -0.00460104 0)
(1.01116 -0.00429894 1.63633e-22)
(0.673006 -0.089667 0)
(1.02823 -0.0266687 3.8594e-22)
(1.06082 -0.0788083 0)
(1.01866 -0.000611365 -1.40851e-21)
(1.01359 0.000382769 0)
(1.01409 -0.0200897 -3.04824e-22)
(1.02268 0.0020576 9.11842e-23)
(-0.0293803 -0.0903802 3.01278e-21)
(1.01198 0.00018448 -4.72159e-22)
(1.02158 -0.0029951 4.54556e-22)
(1.03581 -0.00986585 -1.26076e-21)
(1.0113 -0.0218181 5.75742e-22)
(1.00239 4.17639e-05 -1.3403e-22)
(0.111869 0.256647 4.74312e-21)
(1.00276 7.82399e-05 2.47054e-22)
(1.01189 0.0001975 -6.90875e-22)
(1.01389 -0.00774286 -1.52261e-22)
(0.449846 0.00322014 -1.11634e-20)
(0.857436 -0.0507238 0)
(1.04991 -0.0267154 0)
(1.05188 -0.0258489 2.13935e-21)
(0.726777 -0.251059 -7.08939e-21)
(1.05936 -0.0250546 0)
(1.03887 -0.00750197 2.10661e-21)
(1.00149 -1.6354e-05 6.26695e-24)