/*--------------------------------*- C++ -*----------------------------------*\
| =========                 |                                                 |
| \\      /  F ield         | OpenFOAM: The Open Source CFD Toolbox           |
|  \\    /   O peration     | Version:  v2012                                 |
|   \\  /    A nd           | Website:  www.openfoam.com                      |
|    \\/     M anipulation  |                                                 |
\*---------------------------------------------------------------------------*/
FoamFile
{
    version     2.0;
    format      ascii;
    class       volScalarField;
    location    "100";
    object      ddt0(omega);
}
// * * * * * * * * * * * * * * * * * * * * * * * * * * * * * * * * * * * * * //

dimensions      [0 0 -2 0 0 0 0];


internalField   nonuniform List<scalar> 
27802
(
-1.05413e-05
-3.44915e-09
3.99307e-06
8.51032e-05
3.47889e-06
1.17345
3.19352e-06
0.00120605
-7.32048e-07
-0.0435112
0.0794819
0.0208194
4.68882e-05
0.00121717
0.0948112
0.00572366
-0.153445
-1.01346e-06
0.0814463
0.16104
-0.122707
0.111245
3.08974e-07
-0.000969058
-0.00265668
5.91904e-05
-4.09879e-07
0.000225222
-1.53403e-07
-0.0857365
-0.000952033
0.000269049
-9.57442e-06
4.21997e-07
-7.5953e-08
-0.354369
-0.038298
-1.03385e-06
3.02069e-06
0.0181186
-0.00904828
-8.69321e-08
3.4704e-07
1.17362e-06
-5.05839e-05
0.0935897
3.31202e-07
-0.0663542
0.00490808
0.21899
-0.0676844
4.84268e-05
-0.109962
-0.0270457
1.39883e-06
-3.3344e-08
-0.0077403
-3.75691e-06
-8.8986e-06
0.00258344
0.137954
-2.1238e-06
9.94713e-06
-5.35603e-07
1.30848e-06
-9.645e-06
0.240828
-0.0106807
0.00386736
-1.60279e-06
1.04662e-06
-0.18132
-0.194861
-0.001688
-2.08645e-05
1.70894e-05
0.245207
0.0119506
0.0536141
-0.409599
2.47377e-07
6.32172e-07
-0.012275
-2.10074e-05
-7.93566e-06
-7.42256e-05
-4.99824e-08
0.0408365
-0.0313923
-4.24289e-07
-3.64374e-06
0.0876227
-9.08349e-07
-0.0800555
-0.224694
0.000133827
8.72222e-07
0.000198908
2.03545e-08
1.22503
3.29157e-06
2.46381e-08
0.000838593
0.104967
-0.194478
5.38282e-05
-6.49641e-07
1.25155e-06
1.29935e-06
-2.42805e-05
0.0236434
-3.61128e-06
3.92063e-07
-3.07029e-07
-4.29209e-07
-4.74726e-07
5.68522e-06
-0.0491623
0.00395444
0.000541391
0.216904
0.00229578
-0.0495078
-0.0853776
-0.33347
-0.0425644
-1.70415e-05
-6.24873e-07
-0.145433
8.89204e-07
-0.00258793
2.65703e-05
-4.59953e-06
0.00410277
-0.262392
1.48264e-05
-2.75172e-05
0.003373
-1.49349e-06
-2.73934e-06
-0.0031617
0.294952
-6.99689e-05
-7.92451e-05
-1.09431e-06
0.0515226
0.000167529
-1.86263e-05
3.87361e-06
3.09762
-6.1655e-06
2.21339
1.26208e-07
-0.0442098
-1.96185e-10
2.04662
1.41729e-05
0.000133783
1.38338e-06
3.36672e-07
-4.59896e-07
-9.133e-06
0.189784
7.13146e-07
-1.25632e-07
-2.00034e-08
-0.215932
4.28696e-06
-2.59451e-06
7.88871e-06
0.00205347
0.0283453
-0.0916747
1.18486
1.60687e-06
-0.063113
-0.631205
0.0509368
-3.7338e-07
-1.08858e-06
-0.0207444
0.202486
0.0659672
-0.0169438
1.24565e-06
-0.0307669
-0.220375
0.0225323
-0.0030546
0.0061287
0.274299
-7.01198e-09
7.37863e-06
-1.25069
3.11878e-06
-3.2767
0.403277
0.132182
-0.989399
0.0469832
0.0106824
1.52305e-07
-5.25448e-06
1.94705e-05
0.275993
-0.000243834
4.43223e-06
-1.60446e-06
0.040344
-2.74231e-07
3.78728e-06
0.00559644
8.66753e-05
0.0486962
1.2556e-06
-2.85639e-07
-0.0022864
7.05872e-06
-3.75217e-06
-3.30391e-08
-0.223616
3.72662e-06
4.55999e-06
-0.0149838
8.81974e-06
-0.00516745
-4.69281e-06
-3.03172e-05
5.93069e-07
8.84482e-06
-3.41623e-07
5.50754e-05
-0.00583501
-3.30328e-08
-6.2428e-09
0.0716648
-0.000135043
-0.00735486
-1.66477e-05
0.00947729
0.0471063
0.00683836
0.206302
-0.112181
-0.0477591
9.23654e-06
-1.20335e-06
-0.222024
1.2848e-06
-5.99889e-08
0.00438934
-2.21461e-07
0.00392535
7.14196e-06
0.0444004
-0.130919
1.61052e-05
0.00402354
-4.16311e-06
5.22478e-06
-2.38644e-07
-0.0969706
-0.00314091
-0.00282088
-5.08129e-06
5.26382e-06
-2.88185e-06
-0.0829776
-0.133405
0.000212387
0.0112329
2.05879e-05
-0.00109789
6.61029e-07
-2.41018e-07
-5.67759e-08
0.000119061
3.63078e-07
9.49552e-08
-0.113555
2.59193e-06
-8.82667e-05
0.0130061
-0.00179864
-0.193997
2.66513e-05
0.0449631
5.9768e-07
0.00256296
-0.0508766
-0.0756081
0.0620459
-0.0893958
-0.000111456
4.30721e-07
-8.27265e-06
3.26719e-06
-0.932434
0.0195225
0.000986357
0.100183
0.000116218
0.241665
0.308056
-0.02941
5.08854e-07
-0.000560945
-2.53128e-06
-0.0357301
1.03735e-07
0.206265
0.046214
0.00401237
-3.9415e-06
0.0426995
-0.133539
0.000843607
-2.91275e-08
0.000216358
0.060895
-6.12529e-08
-5.62265e-07
-0.00267901
0.238597
0.103124
-1.09358e-06
-0.00597669
-0.000616635
0.0608833
-2.91773e-07
-0.0264126
7.15827e-07
2.94835e-07
-0.00314014
-0.0187654
-4.73345e-06
-3.88926e-06
-5.15254e-07
0.00392143
1.82452e-05
-1.74165e-06
-0.362093
6.61765e-06
0.190213
-0.010427
-0.487818
1.06506e-05
-5.12147e-07
8.97441e-06
-2.51922e-08
0.123772
-0.00724375
8.99047e-07
0.00460391
-4.42921e-06
-2.02625e-07
3.10631e-06
-6.70827e-07
0.0245043
5.53254e-07
0.00955204
2.43551
-0.0846591
1.04363e-06
-1.07466e-06
-7.15192e-07
0.0234062
6.78058e-07
0.0437739
2.1109e-07
-0.00399306
-0.000524867
-0.00384243
8.93797e-06
6.16103e-06
1.60693e-06
0.00494866
-3.77334e-06
-0.00321965
-7.68532e-06
-6.67006e-07
1.42322e-07
5.21255e-06
-3.26841e-08
-2.18219e-08
0.0166573
0.000989244
-0.000490776
0.00698148
-0.026591
4.61579e-06
0.0202053
5.67288e-06
5.96844e-06
0.00443503
5.27555e-06
1.49933e-07
0.0453499
-1.1827
0.0471563
0.00076321
-0.177336
8.73085e-08
1.44053e-07
-0.00089013
-0.00550015
5.78123e-07
-1.2937e-05
-0.00150215
1.22642e-05
1.36122e-07
0.000754038
0.331578
-0.211802
0.266903
0.100121
-2.7653e-07
0.221597
2.038e-07
-0.116422
4.67778e-05
-0.0218442
-2.21786e-08
4.05736e-06
-4.73235e-06
1.20884e-05
-6.84875e-05
5.15944e-06
-3.83956e-06
0.000303149
-1.64167e-06
9.97596e-07
0.00309179
0.0262592
0.000743059
0.0170735
0.000952586
-0.021793
-7.20619e-05
5.86024e-06
-0.000265463
-0.00339212
1.00826e-05
-3.7307e-06
-0.00112328
2.4855e-05
0.000375312
6.87423e-06
-3.15497e-07
-2.72479e-07
0.0357841
0.220071
6.70867e-06
-9.41764e-08
-0.153375
1.86563e-07
0.202163
3.38802e-07
-8.33226e-06
1.03115e-05
-2.17826
-1.35604e-06
1.34299e-08
0.0861099
-1.35562e-07
-0.000497197
-0.000808564
0.000964429
-2.00536e-06
0.105531
-0.00339463
-0.00447693
-0.0104212
0.00585459
-3.33707e-05
-6.86669e-06
-4.03911e-07
-0.0212623
5.49994e-07
-0.0772551
4.39474e-06
4.02081e-05
-0.126346
-0.121121
-2.2563e-07
-1.80652e-06
5.12036e-05
7.54785e-06
1.75505e-06
4.56092e-06
5.3926e-07
0.000887763
-1.36424e-05
-0.00983715
-2.45124
-7.47635e-08
0.00971757
0.0644187
-1.46998e-05
6.73376e-06
9.84612e-07
-4.5794e-08
0.0445891
-0.0944753
-0.00032597
0.051085
-0.0170685
-3.48385e-06
-0.00385614
-1.03755e-06
-0.00179282
2.79765e-05
4.48739e-06
-2.18402e-05
8.7523e-07
7.87453e-07
0.00980318
0.0590736
6.6496e-05
-0.0433248
-0.0466793
-0.00321772
-2.33394e-06
-1.98039e-06
-0.131839
0.000324391
-5.71892e-08
0.000205214
-2.51215e-05
0.598931
0.0013288
-0.0478878
-6.29806e-05
-3.31845e-06
-0.00705855
-3.54813e-06
-2.76473e-07
-6.62098e-08
0.0439907
7.24995e-07
0.00368091
-8.55276e-06
-0.0318285
0.0392623
0.127057
1.01192e-06
-2.20897e-06
0.0543563
-0.000264602
4.3362e-07
6.09119e-05
2.6182e-06
7.1535e-06
-1.28826e-06
-0.12795
-0.000373385
0.253054
0.4849
-0.0627933
-1.07642e-06
-0.163302
0.000164245
6.9982e-06
-0.000662946
0.116562
7.3833e-08
1.61771e-06
2.68174e-07
-0.0319777
1.47824e-06
-3.39971e-07
3.80943e-07
-5.56293e-06
0.0275834
1.055e-06
0.0225231
-0.000154626
3.30829e-06
-0.00059912
-0.000411911
0.0473964
-0.0180403
0.0570244
3.0791e-07
-7.85607e-07
-2.38511e-07
-0.00768554
5.51061e-07
-0.0083543
0.800849
-0.0175851
0.0549933
-0.219473
5.08879e-06
-2.40075e-07
0.0286789
0.000860077
1.04945e-06
-4.76983e-08
-0.0707312
-0.000167742
0.0925919
0.0386606
-0.0787871
-4.24574e-05
-0.271727
0.0642591
1.07067e-06
0.164437
-0.124687
-5.85894e-05
0.00614619
-0.0675314
-1.11793e-06
0.00136329
-6.10285e-07
0.00352369
1.26815e-06
3.88076e-06
0.000171913
0.00768376
-1.13783
0.000854714
-0.0281732
1.04729e-05
-0.104418
-1.30447e-08
-2.34187e-05
0.000180795
0.0266988
-2.0928e-06
-0.0417444
7.47319e-07
-0.000497908
0.00906277
1.90665e-06
-1.86771e-06
1.78162e-05
0.0219169
0.0007777
0.423385
-7.39429e-06
-0.0168883
0.313269
0.0681328
7.22964e-06
0.00080715
-0.261234
0.0201926
-2.93343e-05
7.92134e-07
-0.047324
-0.00351162
-3.79561e-06
-0.0815534
-1.07118e-07
-0.0105456
-0.0123005
-2.59194e-08
-6.35926e-07
-0.0129529
0.0188841
-3.20644e-05
3.46721e-05
0.0174106
-5.85921e-08
-2.59002e-05
-0.0943152
5.31594e-06
0.000811035
1.06935e-06
2.09867e-06
-1.87201e-06
0.0168155
0.000163051
3.19517e-07
0.186473
2.47981e-06
5.03903e-05
0.0224284
-4.26811e-08
0.183732
-0.000150506
-1.57588e-06
6.33999e-06
-6.27033e-07
0.081683
-0.0465112
0.127352
2.25092e-06
0.0408216
0.0129928
-5.22944e-07
-0.0950712
-0.000125873
-3.22351e-08
7.01851e-07
1.37303e-06
-3.09602e-05
0.501467
1.04721e-06
-6.35395e-09
0.0407025
0.0798587
3.39939e-07
0.0436471
-0.00961051
0.165839
1.83362e-06
9.75015e-06
-2.58083e-09
-4.00482e-05
0.000364223
-1.3253e-06
-1.77441e-05
-1.82331e-08
1.09998e-05
-1.7781e-05
0.0185535
-0.00419413
-1.11403
-5.08126e-05
-0.000755587
0.000204953
-1.41738e-06
-3.06686e-07
-1.26027e-06
0.00884386
0.00241326
-0.0407256
0.0455166
0.15109
1.07773e-06
-0.150243
-1.47112e-06
2.10181e-07
0.00186898
-1.90804e-06
-0.122236
-0.573381
-0.607095
-0.0273828
0.397201
-2.71025e-06
-4.10756e-05
0.0709506
-5.64172e-05
0.0129152
-0.000459266
1.07418e-06
0.203
7.0965e-08
0.0726519
0.0786595
4.57866e-06
1.87506e-06
0.197299
7.67759e-07
-1.58479e-05
-0.590051
-0.074008
0.188842
0.0372472
-2.61693e-06
1.49525e-06
-6.53547e-06
-0.0011205
-3.35759e-07
-0.072116
-0.000133571
6.4397e-06
0.0109433
0.0334995
-0.000942
0.000165571
-1.64553e-06
9.2549e-08
-0.0923062
3.75491e-05
4.42298e-06
-0.00107933
-0.0322859
-0.000302685
-2.6559e-09
2.01031e-07
0.000129266
1.31677e-06
-0.188341
-0.0329997
0.0078335
6.14247e-06
0.000204984
1.59348e-06
0.00325434
-0.000185248
0.0112216
-0.000161338
-0.00354335
5.59827e-06
-3.74786e-05
0.0932129
9.4385e-06
0.0100836
-0.793192
-1.86709e-05
0.00104097
0.000715811
-0.0672399
-2.5318e-05
5.72585e-07
0.0360041
3.13704e-07
3.29347e-06
0.000187245
0.326719
-0.000216996
0.445083
-3.00177e-05
1.53996e-07
0.0787268
0.374941
-2.23577e-07
0.0138943
-0.000805031
-0.0325828
8.56008e-07
6.0972e-06
-8.26538e-05
1.83122e-06
0.00372444
-1.6175e-06
0.000410174
0.078258
0.173043
7.79737e-06
0.000299391
-0.021029
7.29923e-06
-1.92822e-06
4.57663e-06
-0.000826541
1.76784
3.00518e-06
1.22991e-07
-0.000358179
-0.000170792
-0.0748308
-0.000151473
-0.036522
-0.0202718
-0.345347
9.60781e-06
0.0246681
0.404806
3.82384e-05
0.0365472
-3.89553e-06
-6.10371e-06
-0.0152368
-2.29299e-07
-0.0518801
-0.24934
0.024182
-6.27462e-05
-0.127894
3.24971e-06
-0.05391
1.00656e-07
-0.088641
-0.000536993
-0.0629692
-5.30968e-05
2.01603e-07
8.78209e-06
2.11025e-07
-0.704396
-0.000387799
-7.43016e-05
-0.0144713
0.000710937
1.50598e-05
0.735704
0.00604156
-0.00319494
-0.118263
-7.57229e-05
0.00302557
-0.0936453
-5.35068e-07
-3.8815e-09
0.000111214
0.000483618
-0.531583
0.000949695
5.11303e-07
-0.00937412
-2.39231e-06
-1.93682e-06
-8.97152e-06
-1.34387e-07
-9.36178e-08
9.29405e-06
-1.64526e-07
0.000172883
2.63011e-06
1.36713e-05
-0.0329544
0.0095571
2.2111e-06
2.76508e-07
0.373985
-4.97857e-06
-0.00367593
-1.04766e-06
-0.0167944
0.000891099
0.0339468
-8.0389e-05
3.4964e-07
-1.28066e-05
0.00230411
-4.43954e-05
-4.85425e-08
0.24921
-8.83492e-09
0.00920769
1.98783e-07
-1.55947e-05
-0.180178
-1.03701
-8.82585e-07
-0.63136
-0.0198216
-0.00243776
-9.94352e-05
3.08626e-06
-0.111152
2.15992e-09
0.194612
9.05372e-06
-0.00348236
-1.24544e-06
-6.42936e-08
7.89166e-06
-0.0985962
-0.117905
-0.623131
0.133964
0.00433024
0.105605
-9.37602e-07
3.42303e-06
1.90405e-05
-0.258629
0.136506
0.000156701
5.02524e-06
-1.85087e-07
-0.0123633
0.000761889
0.0448841
2.89617e-06
-0.154164
4.18532e-05
0.0091811
3.86617e-07
6.32988e-05
0.0077939
-7.36337e-07
1.13633e-06
4.10044e-05
-4.06361e-05
3.71233e-06
1.30294e-05
-0.000690566
0.0209919
3.25608e-06
-0.000749244
0.830549
0.129182
0.000276306
0.103573
0.0425694
-1.4938e-05
9.37233e-07
-0.0059451
-0.00308044
4.65897e-06
-0.0991091
-0.0561292
0.0067781
1.82194
-0.00239403
0.0149921
3.34833e-07
0.158705
0.14739
-1.79674e-05
-2.75008e-05
-1.16635e-06
-4.71969e-06
-0.0579463
8.69717e-06
-1.28979e-05
3.28873e-07
-0.0175443
-5.22523e-08
1.0971e-06
-9.45967e-06
-2.06654e-05
-0.123507
-3.07576e-05
-0.278022
3.74242e-07
0.76979
0.000481428
4.6666e-06
-0.00116449
1.18955e-06
2.18264
-0.0631796
0.000958218
0.052833
-0.00125231
2.78499e-06
1.69804e-05
8.44179e-07
1.53038e-05
-0.0146491
-0.0311527
0.147365
-1.1384e-08
-2.65349e-07
-2.13548e-05
0.562276
4.5752e-07
1.79361e-07
-0.000146052
6.97196e-07
-0.00385267
-0.000181765
2.28732e-07
-4.38554e-07
1.65565e-06
0.0158781
2.1644e-06
3.77942e-07
-0.00115883
0.00806168
3.61541e-07
7.83613e-08
-0.0102859
3.41822e-07
3.21082e-06
-1.30836
1.83701e-05
4.67395e-07
-2.86308e-08
0.00311932
-1.79944e-07
2.38756e-06
-3.1211e-06
8.96355e-07
-0.129916
-0.00362085
-2.04777e-06
-0.155212
-2.90826e-06
0.0132967
0.189865
9.47232e-06
-0.123306
-0.0123628
1.8832e-05
3.48716e-06
6.82144e-07
-0.0321933
-0.00459496
-0.125614
0.0470775
-4.11112e-08
-0.00377029
5.16635e-06
0.0134394
7.51536e-05
0.0363359
-1.08115e-09
-0.0215381
0.0690779
0.00721691
1.48217e-07
0.0478262
-0.432091
-5.67922e-06
-0.0327307
-2.94349e-07
2.01308e-07
1.09593e-05
3.31449e-06
-3.34394e-05
-0.166558
0.0143218
1.08236e-07
5.09867e-07
0.313123
8.5149e-06
5.36961e-06
-2.24182e-06
9.24446e-07
0.13784
1.94e-07
6.91962e-06
4.09797e-05
-0.120648
3.35835e-05
-3.23434e-06
-0.0040962
-6.73764e-08
2.18982e-06
-0.0261991
-2.91782e-05
-2.49959e-05
-0.183772
-0.00279513
0.0195923
-5.1464e-05
3.93134e-05
2.54579e-06
-0.000605251
-0.164195
1.12567e-05
0.0215078
0.0442197
0.0539441
-0.000886905
-2.63613e-06
1.85769e-06
3.94979e-06
0.0221872
-0.401183
-9.21355e-06
0.000558815
-7.66762e-07
0.245834
5.4517e-07
-1.87567e-06
0.215545
-0.00040363
0.170338
1.53976e-06
-0.0378873
0.137751
8.26067e-08
-0.00249453
-1.86011e-08
-0.00383502
1.03014e-06
1.15004e-05
-3.68698e-05
0.0239021
-1.21289e-06
-9.67001e-06
0.131091
-3.65989e-07
-0.0450269
-2.86472e-05
-4.48753e-05
-0.167639
-2.27467e-06
-0.0804126
-3.57207e-05
-2.91866e-07
-0.00424479
-2.35204e-05
2.11949e-07
0.0456203
-1.32843e-06
2.01076e-07
-0.154886
-5.71824e-07
-1.86834e-07
3.51929e-05
0.144683
2.09606e-06
-9.26236e-08
5.37936e-07
1.8159e-06
1.07252e-06
0.000898436
-0.100293
-0.0444237
-0.03659
3.08536e-06
4.61061e-07
0.134092
0.0240176
-0.0542526
7.41001e-07
-0.00786069
0.00797538
-0.0137852
0.00215221
0.0125313
-3.27195e-05
-0.062176
-0.122679
-0.000964699
-9.48717e-07
-6.08832e-06
0.00282815
2.09686e-06
0.0244236
-2.73482e-05
-0.180462
0.845458
1.72451e-05
0.00774671
3.37537e-07
-2.83018
-0.146517
-0.00333178
-0.000164629
0.0239953
4.46422e-06
7.14076e-06
0.141706
-0.021957
0.00386603
7.80555e-06
1.667e-07
1.16549e-06
-4.24091e-05
-1.35835e-07
6.18514e-05
-1.48527e-06
4.51517e-06
0.094241
-0.190987
2.61564e-07
0.0628694
-2.18094e-07
-2.58132e-05
0.0363817
6.87892e-05
-3.57063e-07
9.35624e-06
-0.247944
2.62063e-08
-1.59089e-05
6.90358e-07
-0.0749199
0.00824417
-0.127667
0.22526
0.153675
0.000482639
5.74895e-06
5.87802e-06
0.113471
1.58657
0.0804263
-0.00206527
1.00797e-05
0.0481735
-0.000880248
0.0288334
5.44152e-07
-7.94088e-06
-1.81695e-06
-0.155884
0.0209019
0.159847
0.390581
-6.93423e-07
-7.37818e-05
0.156256
0.318718
-1.33924e-06
0.000516404
-0.128672
0.000537706
-0.00477852
0.556102
-1.21827e-06
0.14703
0.0995472
0.0999606
0.0162491
7.05095e-07
2.5678
-0.0138604
0.00309292
-0.0431109
1.42679e-06
0.107802
5.56625e-05
3.07977e-07
-1.83564e-07
0.0491693
-0.000138749
9.9661e-06
1.42905e-07
-0.00270003
-0.000857026
3.89668e-05
3.26132e-05
-0.036225
5.24053e-06
-1.50649e-06
0.00167006
9.72865e-06
-3.01326e-06
1.28636e-06
-2.08431e-06
6.52013e-07
-3.44617
0.027438
-0.0013271
-0.00103234
-1.05543e-05
0.0072711
-4.70115e-07
0.00180926
-1.00421e-06
0.130422
-0.410382
-1.16977e-06
-0.00431078
-0.00082993
4.20642e-06
8.90944e-05
0.0485739
-0.265181
-1.31e-07
-0.0918187
-0.256944
0.0363832
-1.82037e-06
8.21113e-08
-0.088499
0.00364908
0.00316168
0.0037156
0.000505248
0.0494237
3.5807e-07
1.35914e-05
0.235554
2.08074e-08
6.4231e-08
-1.93403e-07
0.00184131
3.37806e-07
0.28037
0.0160852
9.61628e-06
4.92777e-07
2.01321e-07
-0.000619561
0.142459
1.64001e-05
2.49404e-07
-9.51985e-06
0.0898664
-0.000152019
0.055157
-0.0634404
-0.0585561
0.000104171
-0.00536304
-0.0109069
0.108013
-0.000318596
-0.0256687
-0.000371898
1.44653e-06
1.23702e-06
-0.00715037
-2.91333e-06
-1.46742e-07
-0.000565829
-0.000655523
4.24234e-06
-0.00644214
1.79557e-05
-2.99246e-08
1.29615e-05
6.20909e-06
-0.000867411
-1.43722e-06
-2.09616e-07
2.00898e-06
-0.219999
-0.368479
-0.403963
-0.0444814
-0.0295178
-8.90717e-07
-0.106992
-3.28867e-07
1.11202e-05
-1.08898e-06
-0.0888968
1.12023e-06
-1.71169e-07
-1.93025e-06
-8.47774e-09
-1.93765e-08
-2.13782e-06
0.000731242
-0.134353
1.28548e-05
-3.24775e-07
-0.027854
1.0817e-05
-0.00123525
1.0478e-06
-0.0695758
-2.07917e-08
1.562e-07
0.0816424
1.95497e-05
2.55019e-07
0.0579867
0.0598074
0.00489168
6.34308e-07
-3.01396e-05
0.000147175
-0.000429622
-3.95462e-06
1.05066e-05
0.0296803
-0.190215
0.170366
1.63841e-07
-5.16465e-06
-0.136177
-0.064425
-0.00816382
-1.23927e-06
0.0793466
-0.00225935
3.5234e-06
-1.39919e-05
-2.02119e-06
-0.126442
0.000466542
0.0266899
-0.122138
7.55543e-06
-2.23341e-07
-0.140537
0.0326918
0.000459183
4.67187e-07
0.12175
-0.206534
8.35734e-06
2.05793e-06
-0.00102384
-0.0406473
1.7962e-06
4.24377e-07
0.0621566
-1.75088e-06
3.98322e-07
-1.47667e-06
-0.0647263
0.126825
-1.19925e-06
-1.15915e-06
-0.024499
2.60401e-06
-1.82788e-06
0.0240215
-0.0118396
-0.00553944
-0.224443
-1.61611e-07
6.24274e-06
7.18074e-06
0.0002458
0.00120133
-0.161943
-0.0296867
8.66599e-06
3.11328e-07
-0.198828
-5.70179e-07
-3.42548e-05
0.21041
3.31786e-07
-3.59962e-06
-0.128789
-0.181665
9.14276e-06
0.35965
-7.05141e-09
-8.91149e-08
1.26621e-05
-0.135036
4.57348e-09
4.56723e-06
7.34723e-07
2.17931e-05
-0.00326751
-0.136958
0.029973
-1.07874e-08
8.42538e-06
1.4665e-06
0.000531359
0.0139846
7.09324e-07
0.969062
0.000148722
-9.34242e-07
-0.000132992
4.86973e-06
-0.00212935
-0.0168036
2.50328e-07
0.00155254
5.17361e-06
-2.36797e-06
-1.00422e-05
7.44249e-06
1.03685e-11
-0.00116004
-7.3362e-10
0.00347103
0.000740738
-4.73172e-08
3.05842e-07
0.00454547
2.22011e-06
-2.5686e-07
8.1826e-07
-3.40406e-08
0.00100968
-9.18253e-06
-0.0109398
-0.925989
2.81536e-07
0.000156331
0.0603743
0.000211293
0.0739847
0.164434
-1.64589e-07
0.246455
-0.22639
9.65177e-07
0.148942
-1.52277e-06
-0.221312
-0.00730213
0.016852
-0.433035
-0.00345712
1.2715e-05
3.50299e-07
-0.0242436
2.28366e-06
0.000632797
-0.180951
0.0859364
-1.13473e-05
1.03723e-06
-0.00140863
0.000293191
-9.16814e-06
-1.3518e-05
-3.6841e-08
0.0347394
-0.000537523
0.053862
-0.00180891
3.31768e-06
-1.54571
-1.49581e-05
-0.00796918
-0.00508195
-0.00578331
-1.23158e-06
-0.0137697
1.87742e-07
-0.000420624
0.10988
0.000193399
-0.0101414
-0.0392854
0.00456774
8.23013e-07
3.46281e-07
1.05123e-06
0.610967
0.00818217
0.000825282
2.60884e-07
1.78516e-06
-2.56555e-05
1.70126e-06
-3.65449
-1.46764e-07
0.0793658
0.00163592
0.116195
0.234399
-0.00221297
-0.0243371
-0.0164168
7.9066e-08
0.0513994
0.000841258
-0.000332534
0.0980128
1.64899e-06
0.00025793
0.000396921
2.62909e-06
0.212987
2.84275e-07
0.94504
-0.0832333
1.30005e-06
0.0219641
-2.23257e-07
-1.09176e-07
1.55873e-07
1.23398
3.66146e-06
-0.191944
3.31474e-07
4.47234e-07
0.000168652
-0.00105381
-1.42459e-05
1.8307
-2.0077e-08
-4.89484
7.25383e-07
-2.56421e-08
0.131796
0.102307
-0.984141
1.24467e-07
-4.24001e-07
-4.3104e-07
-0.0510086
-0.179001
3.27587e-06
-3.77877e-06
-0.00415726
-3.68145e-05
0.147026
-4.63868e-06
-1.06477e-05
1.24594e-06
0.000163692
0.204583
-0.00224604
-0.186202
-1.68508e-07
-1.27357e-05
-5.01562e-07
1.05589e-06
0.0116651
0.0794749
4.4619e-06
8.72163e-06
-0.0358967
9.87956e-06
-0.0241079
-0.0316173
8.15585e-06
-6.06075e-06
0.0165852
-0.194339
4.8407e-06
-1.27152e-06
-5.43014e-08
1.62271e-06
0.0158187
-0.000395958
3.21327e-07
0.000580798
-0.0755602
-0.0356526
0.00118004
-9.02833e-07
0.0914608
1.39523e-05
0.00380377
-0.0992092
-0.0507522
0.127009
-0.0617631
-0.159045
-0.00245275
-1.67756e-06
-0.031511
-0.165399
-2.70288e-06
-0.00249289
1.15989e-06
-1.95565e-07
-6.78965e-05
0.00613826
-0.000189186
1.00068e-05
4.06895e-07
2.86239
1.4128e-07
-1.81127e-08
0.000152016
0.00661735
1.03396
-0.126124
-0.432257
7.59183e-08
-0.000370452
-1.67492e-06
-0.0251803
1.14411e-05
2.63086e-07
0.000136041
1.33682e-06
8.47614e-07
-0.00159191
-1.00651e-06
2.49641e-06
-0.101244
1.43343e-06
-2.7083e-05
0.0117361
2.68235e-05
0.0825669
0.000926628
-0.0748867
-1.18035e-06
0.000264899
-0.000961091
-5.58446e-07
2.42329e-06
0.00754563
-1.04052e-06
0.00326552
0.0724814
-0.00300743
8.54543e-05
-1.69502e-06
0.0147073
-9.36542e-06
-2.15165e-07
-0.665517
-0.0648386
-0.000142333
0.078722
0.382041
6.33952e-07
0.00015791
5.314e-06
-3.27496e-07
9.67199e-07
-0.130651
0.297333
0.234396
0.0132316
-0.000764396
-7.99878e-05
3.59837e-07
0.000291463
-2.06544e-05
-0.00010993
-0.0641461
-8.74843e-08
-1.50164e-09
0.000287642
3.28763e-05
0.0126899
-8.65606e-07
-1.00854e-05
-7.71072e-09
6.50427e-05
-8.11026e-08
0.175362
0.000324104
-0.00566085
6.71147e-06
0.000833068
0.00897599
0.000889804
0.0294742
-0.0140625
0.17836
3.24173e-07
-0.00235146
-4.72552e-05
4.79097e-07
0.000179288
-0.41043
-0.217277
0.000238139
0.000675239
6.09427e-08
-0.0193609
-7.40201e-06
-0.00114485
-0.000547354
-2.41322e-06
1.67096
0.0576302
-1.20554e-06
-0.124281
-0.00168197
3.44211e-06
-0.00239665
-0.0285912
4.28784
-4.42329e-06
9.79576e-07
0.775552
1.85222e-08
1.9681e-05
-0.00563763
0.324642
1.42474e-06
0.121872
-5.82875e-07
3.69028e-06
-0.000123661
4.29535e-06
-0.243395
0.000581306
-4.97453e-06
0.000784282
2.5552e-06
5.52001e-07
3.24136e-07
-3.73933e-05
-0.028006
2.80462e-07
-0.010914
0.0611329
0.00133292
0.216771
-0.00014147
-0.000311098
-0.00412621
-1.75138e-06
1.03329e-07
-0.881864
-0.0014947
-3.71881e-06
0.176176
-2.11967e-08
0.00659129
-0.0415389
-0.00225562
0.0530323
0.00353476
-2.3259e-06
-0.000440665
0.0367637
-0.000240083
-0.0457137
0.0182036
-3.6871e-08
0.0515516
6.77755e-06
-0.145591
-0.116216
-4.34935e-05
2.88924e-07
-1.27106e-05
0.0194217
-0.000851086
-1.38349e-07
7.20328e-05
0.0698106
1.10689e-06
-0.00464464
-5.38644e-05
-2.99566e-05
-0.00265461
-0.0707156
5.85564e-07
-1.05718e-07
-2.11319e-05
-0.00181181
1.9791e-07
-4.45001e-05
-0.18777
-0.390013
-4.54718e-06
-0.12872
0.337444
-0.133068
0.162436
0.0489452
0.000495905
-0.00236939
1.23472e-07
-1.20167e-06
-0.0311255
3.01783e-07
0.00760125
-0.0290575
-3.25151e-05
-2.12209e-05
-0.0230899
-1.89719e-05
2.75235
-1.12001e-08
0.00837636
1.08193e-05
9.21527e-07
0.00745166
1.31956e-06
4.30907e-06
-9.18861e-07
1.33503e-07
4.16601e-06
-0.00450855
-0.144716
3.02491e-06
-0.166083
-2.38025e-06
-1.50893e-07
0.00120012
0.000409476
8.63703e-06
-4.1421e-06
-0.044989
0.0197191
6.61011e-05
-1.04895e-07
6.29909e-06
8.04082e-06
-5.96365e-07
-0.000140735
1.06651e-07
-0.350405
-3.94876e-06
-0.173153
0.0259629
1.21514e-06
-0.00837877
-0.0103703
-6.6771e-05
0.074915
0.000162311
1.02456e-05
7.86621e-10
1.06944e-05
1.61805e-06
0.694428
-0.0132079
-5.13059e-09
-4.2872e-09
-0.00159136
1.0074e-06
-0.0010443
-3.95254e-06
5.00953e-07
0.0961262
7.96792e-07
9.76319e-06
4.1168e-06
1.25803e-08
4.90281e-06
5.27925e-07
2.87184e-06
-1.15534e-06
0.227483
0.000399312
6.75819e-06
-1.19202e-06
-0.00069112
0.605963
-4.20814e-06
-0.011296
0.000362039
0.00134656
0.000580378
7.47781e-07
-0.150502
0.2243
0.00217771
6.74474e-07
-0.0140766
2.76446e-06
0.00096503
0.00220549
5.45119e-07
0.443806
0.00105107
9.17221e-06
0.148114
-0.106922
0.00445003
0.0196979
-0.000185055
9.6389e-06
0.0797938
-1.02559e-07
9.99229e-06
0.000874631
5.54144e-06
-1.16875e-07
3.18559e-07
-0.00112688
-1.35848e-07
-0.214485
-1.48844e-05
0.00597085
-3.26073e-06
0.193627
0.207278
-0.0433747
1.56603
-2.21651e-07
0.01663
-2.30372e-06
-0.000132074
-2.41383e-06
0.0318514
0.352506
3.66168e-07
-3.49478e-06
-2.54811e-05
0.00108414
-4.8898e-07
-0.229016
-0.66299
0.000651155
-0.158779
-0.0574106
6.28621e-06
6.3625e-06
-2.11966e-05
1.70037e-06
-1.22646
1.30965e-05
-0.12649
-2.69781e-07
-0.232369
0.053436
-0.0609293
-2.76226e-05
-0.0417607
-0.077001
-0.0379976
8.21022e-06
2.12006e-07
0.00287585
1.14142e-08
4.15064e-06
0.031722
-3.09726e-08
-5.72708e-06
1.69744e-06
6.44359e-07
2.82476e-06
-2.51258e-07
6.06847e-07
0.000258561
0.274608
-0.000400608
-3.26562e-05
-3.52051e-05
0.158293
0.037971
0.0138293
0.0126004
-0.000127807
6.97089e-05
-2.40805e-05
-0.030881
-3.8202e-06
3.21614e-06
-0.458215
1.15723e-06
-5.98049e-07
0.000748063
5.85016e-07
-0.000330548
0.395239
2.38164e-05
-2.39325e-08
-9.28042e-08
1.86871e-06
-0.00304646
5.56615e-06
-0.000170074
-0.00613196
0.125204
-3.75354e-06
-6.05486e-05
-3.38999e-05
-6.73452e-06
6.57706e-06
-0.00115314
-1.12925e-09
-0.00013913
-0.160092
4.23642e-06
-0.00147569
-0.0141556
0.0294154
-0.0335531
-0.000223478
-0.231165
-0.0454854
0.00761845
0.0890407
-0.109067
0.000342726
-0.873788
-2.46738e-07
-0.00327977
-0.000128837
4.35184
0.00309374
-3.60906e-06
-1.69776e-06
0.0630281
0.0579992
-1.65245e-07
8.66882e-06
0.000111924
1.66632e-06
6.47446e-06
7.21342e-06
-0.0100124
-0.000402672
-1.21963e-06
-0.000419247
0.0937393
-1.78648e-06
2.32146e-05
0.0236842
-1.18284e-06
0.0558386
-0.000505313
3.48292e-05
0.00241926
0.0297189
0.000204589
-0.024009
0.232078
-0.154783
-0.0210192
-1.52849e-06
-1.20072e-06
-0.850909
0.549739
-3.02545e-05
-0.189118
-4.06078e-06
5.9201e-07
-7.35403e-06
-3.28826e-10
-2.45651e-05
6.04766e-07
0.00108748
-6.35849e-05
0.0347531
-0.0094043
-3.11085e-05
0.00608894
0.245157
-0.191634
2.55494e-05
-0.649092
-1.73737e-05
0.0650745
-8.36241e-07
-0.128885
0.171613
-0.00222104
-0.000953781
-0.0932243
-0.492148
0.000246965
0.00680605
-6.34058e-05
2.12303e-07
0.0155114
-0.0993385
0.0229943
8.82068e-07
2.24945e-07
-6.50067e-05
-0.228458
0.0373258
-1.0207e-05
-0.00422553
0.129671
0.00116426
0.0231563
-8.95171e-06
4.31743e-07
-3.31106e-06
-0.175526
0.000160219
0.152581
-9.41244e-07
-2.32412e-06
-1.63086e-06
0.992553
-1.16987e-05
2.83325e-06
0.0120033
-0.0186095
6.97092e-06
-0.0258771
-0.382574
1.0464e-05
0.0608461
-1.29684e-06
5.82788e-07
0.0251082
1.26457e-06
0.000135708
3.39644e-07
1.87515e-07
0.0468167
6.72052e-07
2.323e-05
-1.08998
3.51074e-06
0.07852
-2.70932e-05
0.00727203
-0.0855885
-0.00189171
0.00345644
-0.00229194
-0.011881
-0.235642
-0.00078442
5.0745e-07
-0.000103202
1.43528e-06
6.67931e-06
-0.223302
6.52294e-07
-0.204754
0.000357493
-7.64366e-08
-0.0702986
-0.548989
1.79383e-05
-0.0497291
1.01008e-05
0.396034
0.247334
4.91015e-07
2.44497e-06
-0.020741
1.02785e-05
0.0140874
0.264357
3.09309e-06
0.000138547
-1.38627e-06
0.180089
-1.03413e-09
0.0289389
-0.0777334
-3.68851e-06
-0.000140259
0.228183
-0.00816963
-4.16218e-07
0.0409035
-3.18184e-08
-0.0858882
-0.00765584
-1.46085e-06
-0.186543
9.47827e-06
-0.0535745
4.1674e-06
-0.00371189
3.82593e-06
-0.00502783
0.00366268
-0.000219876
-0.412743
0.112806
0.0278661
-0.119718
-0.0414931
-2.11571e-05
0.000574777
-1.16837e-05
-5.7546e-09
-2.78529e-07
2.67764e-06
-7.41715e-07
0.0103479
3.13408e-07
-0.0693063
2.82638e-06
-0.0540007
-1.34335e-06
4.70994e-06
-3.08088e-07
7.27697e-06
-0.0218612
0.000181384
0.15686
2.78157e-08
-0.00336509
-0.0222947
1.11399e-06
-4.06091e-06
1.02167e-05
-3.70049e-05
0.0328533
-3.50601e-05
-1.79912e-08
-0.0594613
-3.29923e-06
-0.000222974
0.000708313
-0.548838
0.00692762
-1.51301e-05
1.60055e-06
-0.00298857
-0.00069932
-0.00011789
-0.0262673
-1.73647e-06
0.0131677
6.55878e-07
-0.00944347
-0.118693
-3.25938e-06
0.0826178
2.85546e-06
7.46279e-06
3.79e-07
1.38354e-06
0.0752504
1.77122
-0.17182
0.0390756
8.20429e-05
0.00016186
-0.000124903
-0.0500754
2.32393e-06
7.62826e-07
-0.047286
0.036118
0.00015475
0.00014991
-0.00120192
0.0365141
-0.206384
-1.23814e-05
-2.31984e-08
-1.08214e-05
0.164897
-0.948064
-0.0151809
-0.129134
-3.51755e-06
2.69851e-06
7.25598e-06
-0.00023117
0.000202688
0.00567192
6.38583e-07
2.3118e-06
-7.45238e-07
-0.362571
-7.16503e-07
-0.0336168
-3.74998e-09
-5.33208e-07
0.238059
-2.94175e-09
-0.0070088
-2.4447e-08
-1.41997e-05
-2.36694e-05
-0.000122594
-0.00181158
-0.218554
0.000221529
8.91946e-07
2.6466e-07
0.000780805
-0.161619
0.0912938
-3.64657e-05
-0.00109446
0.0984189
8.62099
2.37638e-06
0.124222
-0.0012758
-0.000631602
-3.53008e-05
-0.0507923
-1.79703e-08
-0.000937062
8.51779e-06
1.44703
0.155502
5.01832e-06
4.88689e-07
0.000158422
-0.0641466
-0.0194662
-1.74749e-08
-0.0387019
-0.00215104
-0.0520098
0.00509671
-5.61353e-05
-0.00323881
-0.0270675
-2.38161e-05
-1.18794e-06
-0.0116484
1.91491
0.000482304
0.100163
0.272415
0.0500567
0.0409996
0.0204744
1.58795e-06
-0.012576
0.000140902
4.95587e-06
-2.32916e-05
1.53847e-05
0.0410854
-6.94011e-08
-2.01176e-06
0.0216852
0.000641632
6.71202e-06
1.19325
-0.03908
-0.0652412
-3.48923e-05
-0.00152392
-6.98788e-07
-1.04006e-08
-0.0248181
-0.000757486
6.24193e-07
-0.190017
6.06705e-07
-5.99607e-06
-0.0336622
-4.84803e-08
0.00111784
1.46609e-07
0.0589677
0.0322427
-7.89209e-07
2.17922e-05
0.278791
-7.13474e-06
-0.605298
1.22548e-06
0.112106
5.58528e-08
0.00274081
0.00174701
-0.0493164
1.06126e-07
-0.162124
-0.0052845
-1.72202e-06
8.61585e-06
7.5337e-07
5.60073e-07
-0.0367909
-0.031734
-0.00062983
-0.228699
0.00318757
8.14975e-06
9.78604e-05
-3.34777e-05
-1.2672e-06
7.76576e-07
0.000221877
0.250155
0.067917
0.000122497
-0.00204534
0.0674906
2.97881e-07
-2.73002e-06
5.53185e-06
-0.0321474
7.80253e-07
0.0233211
0.0810012
-0.00273675
9.16347e-06
0.192248
-6.279e-08
0.15851
0.000436136
5.28989e-06
6.87819e-08
-3.73748e-05
0.153513
1.20993e-06
-0.338498
-7.96352e-07
0.270454
7.4691e-07
-0.837353
2.68929e-05
-2.68789e-05
0.14026
-4.49687e-07
-0.0143023
6.15044e-07
8.00739e-07
-0.292267
-0.000488702
-0.0474248
-9.19224e-07
1.8121e-06
-9.61489e-08
-0.000749335
0.0489952
0.027391
7.5319e-06
-0.000167009
-1.03923e-06
0.0700547
-0.000268902
0.0852362