/*--------------------------------*- C++ -*----------------------------------*\
| =========                 |                                                 |
| \\      /  F ield         | OpenFOAM: The Open Source CFD Toolbox           |
|  \\    /   O peration     | Version:  v2012                                 |
|   \\  /    A nd           | Website:  www.openfoam.com                      |
|    \\/     M anipulation  |                                                 |
\*---------------------------------------------------------------------------*/
FoamFile
{
    version     2.0;
    format      ascii;
    class       volScalarField;
    location    "100";
    object      ddt0(k);
}
// * * * * * * * * * * * * * * * * * * * * * * * * * * * * * * * * * * * * * //

dimensions      [0 2 -3 0 0 0 0];


internalField   nonuniform List<scalar> 
27802
(
-4.68848e-08
-4.68792e-11
9.59175e-09
8.90008e-09
3.86233e-08
-0.000521979
3.81391e-08
4.70984e-07
-7.78073e-09
0.000169114
-0.00604332
1.31544e-05
-6.84015e-08
1.27041e-07
-0.00136048
-7.49547e-05
-0.000296899
-1.56681e-08
-0.00582504
0.000522586
0.00205954
-0.00140107
3.9833e-09
-6.47652e-07
-1.01473e-05
4.09196e-08
-5.73966e-09
1.05202e-07
-8.30939e-09
-2.08946e-05
-6.11671e-07
2.09392e-07
-3.88503e-08
5.59879e-09
-9.42551e-10
-0.000157147
6.88007e-05
-1.32459e-08
3.19876e-08
1.0541e-05
-9.26554e-07
-1.12244e-09
4.90076e-08
1.53339e-08
-7.24593e-08
0.000846428
3.69805e-09
-0.000168654
7.89287e-07
-0.000615535
-0.00131318
1.29069e-07
2.50711e-06
-2.57879e-07
2.23193e-08
-4.30537e-10
-5.55114e-06
-4.99525e-08
-9.8906e-08
2.07483e-07
-0.000354751
-4.8831e-09
-9.76327e-08
-6.97878e-09
1.69791e-08
-8.79667e-08
0.00480584
-5.5021e-06
4.63202e-07
-1.91741e-08
1.37355e-08
0.00223433
0.000567381
7.25215e-07
-3.91517e-09
-3.71343e-08
0.0047535
-7.33077e-05
-0.000377727
-0.000208954
-5.47727e-09
8.62006e-09
-2.33736e-06
-1.19795e-07
-7.97126e-08
3.28125e-08
-6.61799e-10
0.00065611
-0.000614316
-4.28534e-09
-4.69304e-08
-0.000685844
-1.12226e-08
-2.91375e-05
0.000402152
2.84124e-09
1.15682e-08
4.63864e-08
3.72132e-10
0.00828498
3.42722e-08
1.84137e-09
6.33774e-06
-0.000367237
0.000774009
-1.87602e-07
-6.97557e-09
1.66324e-08
1.86976e-08
-7.20162e-08
-6.12995e-05
-4.87622e-08
7.72261e-09
-3.72012e-09
1.73694e-10
-5.92957e-09
6.30866e-08
-5.01663e-06
-2.51254e-05
1.25048e-07
0.000279818
3.24393e-07
-0.000372018
-8.10104e-06
-0.00440361
-4.02431e-06
-1.07499e-07
5.50501e-08
-0.00046342
1.31733e-08
-9.74599e-07
8.78765e-08
-2.95146e-08
-4.52876e-05
-0.000852522
-2.08775e-08
9.2903e-08
4.80971e-07
-1.76515e-08
-1.86933e-08
-1.49261e-07
0.000133382
-1.31945e-08
-2.38169e-07
-1.43279e-08
0.000516426
-3.76225e-08
-8.41354e-08
2.3215e-08
0.00173101
-4.92987e-08
0.00106365
5.38025e-08
-3.82651e-05
-4.81571e-12
-0.000179116
-1.40581e-08
4.86148e-10
1.81338e-08
4.5703e-09
-5.57943e-09
-8.35474e-08
0.000467578
9.15742e-09
-1.65669e-09
-2.63348e-10
0.000495791
5.63201e-08
-1.79474e-08
3.14792e-08
-2.10142e-06
-0.000877912
-9.30441e-06
0.00127527
2.09762e-08
2.06447e-06
0.000119765
-0.00348494
-4.90791e-09
-1.25293e-08
-1.32454e-05
0.000152622
0.000679558
0.00265419
1.6477e-08
-4.07072e-06
-0.000549712
1.36019e-06
-2.22029e-06
-8.91182e-07
0.00062757
-1.02855e-10
1.86951e-08
0.000575105
4.18157e-08
-0.000949972
0.000164052
-0.00468535
0.00134762
0.0089924
2.70054e-06
1.99148e-09
-2.2588e-08
6.97694e-08
0.000657086
-5.5424e-08
5.63158e-08
-2.02414e-08
1.15077e-05
-4.31237e-09
2.56505e-08
0.00624857
9.0498e-09
0.000241491
1.6677e-08
-3.13954e-09
-9.96287e-07
3.95432e-08
-4.67289e-08
-4.25839e-10
0.000261884
4.80293e-08
4.10398e-08
3.91673e-06
5.92088e-08
-8.73989e-06
-2.49158e-08
-1.00301e-07
7.79357e-09
6.1067e-08
-4.6693e-09
9.4e-08
-3.57255e-06
-4.50894e-10
-9.29916e-11
-0.000570106
-2.27684e-07
-8.67444e-07
-1.04565e-07
1.59326e-06
0.00103636
0.000673966
0.000119129
0.00181551
0.00285057
4.91686e-08
-1.60185e-08
-0.000267103
1.72754e-08
-7.70603e-10
3.65585e-07
-2.9962e-09
1.54122e-07
3.47165e-08
0.00048561
0.00195317
4.52825e-08
7.87133e-07
-3.53153e-08
4.00008e-09
-3.20949e-09
-0.000586315
8.563e-05
-1.94971e-06
-5.09104e-08
6.98092e-08
-1.40278e-08
-5.40256e-08
0.00211703
1.98882e-07
-6.6072e-05
1.0572e-07
0.00295055
8.64456e-09
-3.26812e-09
-7.66518e-10
9.45998e-08
4.54225e-09
9.80579e-09
0.00194968
1.0889e-08
1.90868e-07
-1.06353e-05
7.62715e-07
-0.000449376
-4.08007e-08
-0.00392093
8.17717e-09
-5.47188e-07
-1.11208e-05
-5.31839e-05
-0.00040989
-0.000480061
-1.11432e-07
5.81577e-09
-7.45028e-08
9.41939e-09
-0.000467916
6.69791e-06
2.9726e-07
-0.000585912
-4.36084e-08
-0.000793876
-0.000127644
-0.000522567
6.76226e-09
-5.89146e-07
-2.72736e-08
-0.000642284
1.28572e-09
-0.000666127
1.34212e-06
9.9442e-06
-5.0279e-08
0.000243577
-0.00033428
5.42035e-08
-1.94191e-09
9.28828e-08
0.000144474
1.08915e-10
1.44557e-09
-2.17766e-06
-0.000706184
-1.26138e-05
-1.66131e-08
-8.90091e-07
1.28884e-06
0.0089983
-3.90425e-09
0.00272213
9.46096e-09
3.94086e-09
-1.62385e-06
-1.34839e-05
-2.81479e-08
-5.1274e-08
-4.79166e-09
1.21028e-06
-3.79848e-08
-1.86378e-08
-6.37277e-05
7.63765e-08
-3.80245e-05
-6.46668e-05
-0.000115383
4.63423e-08
-9.11827e-09
5.64098e-08
1.44111e-09
1.43047e-06
-2.63278e-06
1.20585e-08
6.56436e-07
-4.4943e-08
-1.77554e-09
1.76081e-08
1.20642e-09
0.00102149
7.08799e-09
-7.62404e-06
-0.000201171
-0.00123519
1.37598e-08
-8.55996e-09
-2.79362e-09
0.000678659
9.36312e-09
8.41416e-06
2.54446e-09
-3.06028e-06
-4.23448e-07
-4.9869e-05
1.01362e-07
2.57273e-08
3.86193e-08
5.51162e-07
-4.79957e-08
-2.53994e-06
-1.36087e-08
-5.51439e-08
1.89627e-09
4.60585e-08
-4.14429e-10
9.94136e-09
2.6173e-05
5.25274e-07
-2.89365e-07
0.000571542
1.61371e-06
5.66739e-08
-9.97662e-05
4.4827e-08
6.3797e-08
7.79688e-07
2.72097e-08
1.9683e-09
0.00140442
-0.000582449
0.000389211
5.81266e-07
-0.000236629
1.18308e-09
1.98727e-09
1.2806e-06
8.74612e-07
7.73873e-09
-1.28682e-08
-6.04124e-07
6.43235e-08
6.35041e-09
3.48682e-07
0.00913611
0.000480212
0.00349565
-0.000632176
-3.70264e-09
0.000663368
2.02226e-09
-1.46536e-05
-2.60385e-08
-8.10568e-05
-2.9335e-10
4.958e-08
2.243e-08
5.2348e-09
7.20494e-08
6.18146e-08
-5.20897e-08
-8.25581e-08
-2.03648e-08
5.29025e-09
5.24269e-06
-0.0055647
5.57221e-07
4.5283e-05
-3.4192e-07
-2.45413e-06
5.31798e-07
6.93721e-08
-1.04748e-07
-0.000849163
1.0625e-07
-4.97767e-08
4.13663e-07
-4.07418e-08
1.19967e-07
8.58423e-08
-3.91525e-09
-3.66344e-09
0.000631435
-0.000573652
8.68199e-08
-1.23031e-09
0.00025725
2.49851e-09
0.00881067
4.55145e-09
-8.13193e-08
5.25106e-08
0.000151725
-1.48162e-08
7.12457e-10
-0.00609477
-1.24265e-09
-2.79814e-07
-0.000135518
-1.95364e-07
-2.6115e-08
6.13429e-05
-5.84572e-06
-2.7682e-07
0.00106362
1.13357e-06
-1.23823e-07
-2.62078e-08
-5.32789e-09
0.000190883
7.12469e-09
-1.04534e-05
4.73923e-08
-2.43967e-08
0.000252272
0.00234805
-2.94578e-09
-1.54646e-08
1.52921e-07
4.08641e-08
4.12847e-08
5.82666e-08
7.2579e-09
4.79167e-07
-4.39365e-08
-1.36429e-06
0.00541604
-1.02246e-09
4.81667e-07
0.000454148
-1.75183e-08
3.9586e-08
1.30804e-08
-6.05638e-10
0.00246186
3.55628e-07
-8.22406e-08
0.000151928
0.00667926
-4.677e-08
0.000655129
-1.36426e-08
-8.29792e-06
-1.66093e-08
5.68177e-08
-7.99264e-09
1.08462e-08
6.24477e-08
-3.45951e-06
0.000225387
1.41858e-08
0.000751403
0.00748143
-2.32092e-06
-3.01127e-08
-2.5984e-08
0.000394926
2.72714e-07
-7.67113e-10
1.2398e-07
-6.12182e-08
0.000307904
1.30337e-06
-0.000395052
2.14164e-08
-2.76459e-08
6.37715e-06
-4.5736e-08
-2.84701e-09
-1.43209e-09
-0.00555359
9.74061e-09
2.38378e-05
-1.49445e-08
-1.01685e-05
4.48513e-06
0.000852835
1.27479e-08
-2.96915e-08
0.000406445
-6.56532e-08
5.41039e-09
1.9649e-07
2.11838e-08
8.75436e-08
-1.78691e-08
7.30782e-05
-1.60064e-07
6.11018e-05
0.00800554
-1.02418e-05
-1.40135e-08
0.00197374
2.99704e-07
7.02465e-08
-2.17392e-07
0.00014571
9.322e-10
1.40906e-08
3.54545e-09
0.00586771
3.46547e-08
-4.9253e-09
4.92251e-09
-5.52737e-08
6.94874e-06
2.81147e-08
-5.37057e-05
-1.72497e-07
3.94097e-08
-5.04607e-07
-1.71445e-07
-0.000457213
-0.000684337
-0.000565453
-2.76264e-09
-1.05458e-08
-2.5604e-09
0.000729134
7.21928e-09
-0.000607063
0.000194939
-3.43618e-06
0.000636324
0.00068424
2.98665e-08
-4.37355e-09
0.000380773
1.27955e-06
1.3877e-08
-6.22495e-10
0.00256579
1.90061e-06
-0.0059453
0.000357684
-6.57614e-08
-1.22203e-07
-2.20238e-05
2.09305e-05
1.4906e-08
0.00120283
0.00259175
3.09753e-08
2.76314e-06
0.00319076
8.82562e-10
-4.50815e-07
-8.73702e-09
4.19758e-07
1.67651e-08
1.51836e-08
2.02168e-08
6.07303e-07
0.000210815
1.35345e-06
-0.000600608
1.05068e-07
-0.000525339
-1.72237e-10
-1.00254e-07
1.33531e-07
3.58599e-06
-2.77682e-08
-7.33021e-06
1.10228e-09
-2.74296e-07
1.39937e-06
2.44894e-08
-2.56576e-08
1.2563e-07
4.41481e-07
6.28867e-07
-0.00012362
-5.95741e-08
0.00807459
0.0028633
-8.29691e-05
8.27924e-08
2.13512e-07
-2.97433e-05
-0.000241587
-6.08011e-08
1.07248e-08
-1.15857e-05
-2.12311e-06
-5.0087e-08
6.22147e-06
-1.39129e-09
-3.32708e-06
-1.36688e-06
-3.14548e-10
-8.73294e-09
-2.36868e-06
3.14628e-05
-9.25272e-08
-2.09514e-08
-7.50562e-05
-7.93833e-10
-1.21044e-07
-0.00047325
2.03674e-08
6.59299e-08
1.49653e-08
2.89221e-08
-2.46516e-08
-0.000892484
4.8721e-08
4.14851e-09
-0.000267501
3.23337e-08
6.28045e-10
-0.000321703
-5.70612e-10
-0.000436964
-3.11492e-08
-2.1832e-08
1.63717e-08
-8.51192e-09
-9.57011e-05
0.000706528
0.00913397
-5.32012e-09
0.000368381
0.000516986
-7.01111e-09
0.000273685
-3.80688e-07
-4.26822e-10
9.26721e-09
1.0148e-08
-9.24718e-08
0.000396695
1.39115e-08
-1.26404e-10
5.16073e-06
0.00377599
4.50815e-09
-7.63428e-05
0.000253797
5.26185e-05
2.48367e-08
1.01971e-07
-3.77427e-11
-1.21896e-07
-5.28476e-08
-1.75528e-08
-6.72834e-08
-2.40789e-10
6.92637e-08
-6.97469e-08
0.00590399
4.05681e-06
-0.00369959
-8.99405e-08
-4.7746e-07
6.23542e-08
-1.60134e-08
-2.78442e-09
-1.36129e-08
2.27615e-06
7.65711e-08
0.00384515
-0.000365116
0.00111226
1.41439e-08
0.000384895
-1.80506e-08
2.80414e-09
1.00327e-06
-2.53742e-08
-5.0738e-05
-0.00233048
-0.000330996
6.95755e-05
-0.000769839
-3.43193e-08
-2.76043e-07
-2.68676e-06
4.80769e-08
0.000367067
-2.2984e-07
1.34243e-08
-0.00084911
3.0145e-09
0.000492918
0.000890128
3.70645e-08
2.4539e-08
-0.000663331
1.01526e-08
-1.10016e-07
0.00413356
-2.89378e-05
0.000166692
-0.00491136
-3.436e-08
1.17458e-08
-2.69105e-08
-3.39488e-07
-5.39704e-09
0.000361822
-3.82763e-08
7.68151e-08
0.000537498
0.000266538
1.08758e-06
4.29564e-08
-2.10915e-08
1.50434e-09
-0.000534332
1.21206e-08
-3.10246e-08
-1.04146e-06
0.000271718
-1.0011e-06
-3.54038e-11
3.43769e-09
1.52295e-07
3.20298e-08
0.00322576
1.04468e-06
1.32282e-06
1.50475e-08
6.51122e-06
1.65361e-08
0.00207509
-2.3344e-08
0.000712205
1.79167e-07
0.000614144
1.48091e-09
5.68136e-08
0.000661984
4.66381e-08
6.96371e-07
0.000468618
-7.22812e-08
1.56913e-06
5.43461e-07
0.000267482
-2.27615e-08
7.52668e-09
-0.000704908
4.23736e-09
-7.13627e-09
-1.39631e-06
0.000355986
1.86635e-06
0.000341089
-1.80181e-07
2.06363e-09
0.000586547
0.000951798
-2.95866e-09
0.00559596
-4.25744e-07
-0.000586029
1.14656e-08
1.99904e-08
1.93242e-08
1.99167e-08
6.9469e-07
-2.09713e-08
-9.43377e-08
0.000108228
-0.000943907
3.58213e-09
4.95704e-07
-2.43881e-06
4.27675e-08
-2.56104e-08
6.08354e-08
-1.48404e-06
-7.0756e-05
6.89222e-08
1.71985e-09
3.85359e-08
-1.31881e-07
-0.00127867
-7.60692e-08
-4.0053e-06
5.50151e-06
-0.000627885
6.12553e-08
0.00174051
-0.000805936
9.14861e-08
0.000178806
-4.77345e-08
-2.1102e-08
7.42241e-06
-3.09154e-09
0.00275477
-0.000218351
-0.000820636
-2.25356e-08
0.000256016
1.04858e-07
0.00303402
1.28202e-09
2.78871e-05
-3.87248e-07
7.88402e-05
-9.03875e-08
2.59888e-09
1.08703e-07
2.86866e-09
-0.00382799
-1.17586e-06
2.53826e-08
9.57884e-07
-1.78338e-07
1.04998e-07
0.00123282
2.1165e-06
-3.155e-06
2.68852e-05
-1.46097e-08
5.59767e-07
6.20835e-05
-7.98311e-09
-4.90554e-11
-1.9194e-07
5.92921e-08
-0.00253012
3.94953e-07
6.64847e-09
-7.70101e-06
-2.34742e-08
-3.8093e-09
-7.92926e-08
-1.78482e-09
-1.23821e-09
9.89018e-08
-2.18151e-09
3.59718e-08
3.4299e-08
-5.0632e-08
0.000686716
1.89721e-06
4.52306e-08
3.66225e-09
0.000165732
-5.06668e-08
-2.08486e-06
-1.33844e-08
-7.05273e-07
7.11709e-07
-0.000662656
-6.07941e-08
3.75203e-09
-9.75046e-08
3.62476e-07
1.00672e-07
-6.47118e-10
0.000101867
-1.16318e-10
3.60392e-06
2.60231e-09
-1.10018e-07
-9.71153e-05
-0.00656134
-1.20499e-08
-0.000720801
-7.60813e-06
-1.58281e-06
7.35594e-08
3.10473e-08
6.72444e-05
4.08185e-10
-8.53244e-05
3.35665e-08
-3.19704e-07
-1.01596e-08
-8.4845e-10
4.3584e-08
2.02343e-05
0.00205431
-0.00464364
0.000297708
-4.87037e-05
0.000406593
-1.24991e-08
3.38092e-08
-2.87629e-06
9.93216e-05
-0.000306048
1.25998e-07
5.24711e-08
-2.10094e-09
0.000178402
1.41804e-07
0.00788839
2.93873e-08
-0.00461109
-4.41593e-09
5.06466e-06
5.30031e-09
9.29746e-08
1.14012e-06
-9.96968e-09
1.52903e-08
-2.19773e-07
5.32933e-08
4.14623e-08
3.08122e-10
-2.56566e-07
2.7816e-06
3.53084e-08
-1.83111e-07
0.00116662
0.000351712
-1.62632e-07
0.00357066
0.000687845
1.04328e-07
7.53451e-09
-3.74932e-07
2.61003e-06
7.24377e-08
0.00061265
-0.000603268
-4.08417e-08
0.000469319
2.96471e-07
-4.89196e-05
4.39361e-09
-0.000264831
0.000792148
-8.15715e-08
-7.22989e-09
-1.57961e-08
-4.91298e-08
-2.09971e-06
4.78272e-08
-9.78937e-08
4.33531e-09
-5.93306e-06
-6.26746e-10
1.43546e-08
-8.79017e-08
-8.4201e-08
0.000718938
-1.21796e-07
-0.00761884
1.71218e-08
-0.0250246
-1.14302e-06
6.17725e-08
-3.39167e-06
1.59066e-08
0.000254069
-0.000806197
1.48012e-06
-0.000762556
-4.34301e-07
3.66558e-08
4.0362e-08
9.05712e-09
1.01322e-07
-8.65871e-05
0.00206593
-0.000772791
-1.51981e-10
-3.71833e-09
-9.84791e-08
0.000497691
5.87462e-09
2.42224e-09
-1.1054e-07
-1.20655e-08
-4.98954e-07
-2.43322e-06
2.99109e-09
-6.04868e-09
2.29416e-08
3.55898e-07
5.01365e-09
4.98148e-09
-4.61908e-07
5.80508e-08
4.68603e-09
2.49196e-09
0.00749901
4.39698e-09
4.15415e-08
-0.000387135
2.20923e-08
9.85031e-09
-3.78364e-10
-7.05708e-09
-2.36718e-09
4.66204e-08
-3.71187e-08
1.18751e-08
-0.000230287
-0.000636175
-2.73e-08
0.000777725
-3.95484e-08
-0.000579854
-0.000413483
5.39422e-08
-0.00019852
5.51504e-05
2.81224e-08
4.4914e-08
8.94306e-09
-0.000618734
4.20984e-07
0.00235226
-0.0036605
-5.45186e-10
-2.71659e-06
4.37233e-08
-7.51693e-07
-1.6703e-08
-8.68057e-05
-1.56908e-11
-1.51053e-05
0.00100349
2.11509e-06
1.99548e-09
0.000511661
-0.00012972
-5.03288e-08
-4.14231e-06
-3.40737e-09
2.69862e-09
8.46231e-08
1.40917e-08
-8.98949e-08
-0.000403523
0.000709268
1.38462e-09
6.53827e-09
0.00122386
1.00033e-07
-4.68486e-09
-2.77227e-08
1.2286e-08
8.19139e-05
1.49796e-09
7.33069e-08
-3.46503e-08
0.000232291
7.31174e-08
-4.20072e-08
0.000604077
-1.21466e-09
8.41439e-09
-4.73164e-07
-1.21661e-07
-9.45986e-08
-0.000425418
-1.35428e-06
2.95379e-05
-4.16135e-09
7.43929e-08
4.22222e-09
-4.89294e-07
-0.00071596
-7.3671e-08
3.57522e-07
0.00316241
-0.000797614
-3.984e-07
-3.50201e-08
4.14754e-09
4.87861e-08
0.000580898
-0.00405993
-3.60202e-08
-1.12778e-07
-1.00545e-08
0.00104368
7.03539e-09
-2.45739e-08
-0.000886155
4.7769e-07
-2.09719e-06
2.01467e-08
0.00217621
0.000876542
1.04302e-09
-1.88688e-06
-2.4637e-10
1.66832e-06
1.36023e-08
-3.67016e-08
-5.12399e-08
3.2567e-06
-1.57216e-08
9.28302e-08
-2.0408e-05
-4.96573e-09
0.000638423
-1.15738e-07
-6.86357e-08
-2.09973e-05
-2.68405e-09
-0.000969583
-1.15154e-07
-3.26328e-09
-2.89725e-06
-1.03188e-07
2.83898e-09
-4.13517e-06
-2.08409e-08
2.46146e-09
-4.79759e-05
-7.77913e-09
-2.65495e-09
-2.42369e-08
0.00342365
2.75288e-08
-1.2403e-09
7.09919e-09
7.83565e-09
1.41853e-08
3.99276e-07
-0.00118137
-9.21136e-07
-3.85585e-06
3.84532e-08
6.03219e-09
-0.000282303
0.00660223
-0.00109299
9.71085e-09
-5.16605e-05
2.07972e-06
-5.41937e-05
4.71265e-07
0.00185427
-6.77497e-09
5.20513e-05
-1.9207e-05
-4.49497e-07
-1.30181e-08
-2.88241e-08
5.90371e-07
2.73424e-08
3.57278e-06
1.04636e-07
0.000215614
0.000396588
9.93148e-08
9.55499e-07
4.48789e-09
0.0402624
-0.000831516
-2.9855e-06
-1.89885e-07
1.12522e-06
3.3625e-08
2.68184e-08
0.00901405
-0.000675319
5.52497e-07
5.51574e-08
2.65685e-09
1.2195e-08
-3.82122e-08
-1.52541e-09
2.48525e-08
-1.9494e-08
5.28581e-08
-7.85495e-05
0.000159087
3.45509e-09
-0.000446599
-2.8841e-09
-1.04719e-07
-0.000639035
-2.3131e-08
-4.74764e-09
9.24895e-08
-0.000561444
1.13705e-10
-9.91737e-08
9.16305e-09
-0.00104214
8.6174e-07
-0.000767654
-0.000120001
1.13141e-05
4.28163e-06
6.82709e-08
3.21283e-08
0.00107735
-0.0021579
0.00299038
-6.40988e-07
6.29894e-08
0.000140267
-4.13404e-07
2.5577e-05
5.87115e-09
-1.76668e-08
-2.08197e-08
0.00116028
0.00459273
0.00123752
4.08558e-05
-9.18533e-09
3.0934e-08
-1.82137e-05
0.00354736
-1.81925e-08
2.59296e-07
-0.000283803
1.82088e-07
-7.5096e-07
-6.2851e-05
-1.72931e-08
2.95465e-06
-0.000578149
-0.000557815
8.52656e-07
8.34666e-09
-0.00133103
-5.8093e-07
-5.26018e-05
-6.31075e-06
1.29958e-08
0.00119572
1.67253e-08
4.21299e-09
-2.41602e-09
-0.000920203
-2.92825e-07
5.06112e-08
1.91001e-09
-1.61035e-06
-1.37599e-06
-3.48624e-08
5.67195e-08
-0.00318497
7.2916e-08
-2.00517e-08
1.088e-06
1.04946e-07
-4.01014e-08
1.71665e-08
-2.72341e-08
6.15292e-09
-0.00134963
6.66805e-05
-2.46901e-07
-3.02557e-07
-1.7962e-07
7.6685e-06
-1.82987e-09
2.02099e-07
-1.27265e-08
0.00105835
-0.00313538
-1.53749e-08
-4.72703e-05
0.000676267
3.31187e-08
1.38704e-07
0.00100852
-0.00479158
-1.73207e-09
-0.000387238
-0.000314492
0.00069311
-1.75036e-08
1.13821e-09
0.00057635
-2.80342e-07
-5.42338e-07
0.00058977
3.33401e-07
-0.00523295
4.77277e-09
-3.94544e-08
0.000482504
3.00482e-10
1.10915e-09
-2.57197e-09
1.30892e-06
4.80565e-09
0.000255248
2.47217e-06
9.06627e-08
5.91914e-09
2.7014e-09
-4.3877e-07
0.00112119
-3.39847e-07
3.48e-09
-8.49186e-08
0.000302056
-9.63301e-08
0.0013339
-0.000170347
0.000704975
-8.44777e-07
-9.38522e-07
-3.26351e-06
6.43249e-05
-3.02048e-07
0.00276783
3.89177e-08
1.90729e-08
-1.50427e-08
-2.40544e-06
7.77651e-08
-1.91636e-09
-2.18911e-06
-2.73692e-07
5.41207e-08
-5.5681e-07
1.18393e-07
-3.82294e-10
2.27368e-09
3.07051e-08
-4.43644e-07
-1.73997e-08
-2.84465e-09
2.64105e-08
-3.38191e-05
-0.00445519
-0.00606789
0.000676699
0.00264486
-1.1689e-08
-0.00114912
2.22549e-09
8.64485e-08
-1.47118e-08
0.00239679
1.45028e-08
-2.40693e-09
-2.2982e-08
2.66352e-11
-3.55139e-12
-2.26989e-08
-3.34914e-06
0.000730281
7.37283e-08
-4.29767e-09
0.00245872
7.46351e-08
-1.52871e-07
1.37485e-08
-4.38409e-06
-2.7593e-10
1.98478e-09
-0.00155131
9.98718e-08
3.22062e-09
-0.00130316
-0.0019834
1.84726e-06
-1.06538e-08
1.88027e-07
1.52003e-07
-9.45629e-07
-5.1007e-08
6.38458e-08
0.000599562
0.00264634
0.000725697
2.07432e-09
-5.13426e-08
0.000296585
0.00065981
-5.76726e-06
-1.58406e-08
0.000469802
-1.41546e-06
1.49378e-08
-1.03096e-07
-2.47812e-08
-8.12128e-05
2.85189e-07
-0.000854684
0.000516921
8.57677e-08
-2.6447e-09
0.00176643
0.000473888
2.44772e-07
6.07381e-09
-0.00513107
-4.99362e-05
3.3394e-08
2.22605e-08
1.23541e-06
-0.000702088
1.12689e-08
5.49453e-09
0.00435513
-2.31629e-08
5.29614e-09
-1.65247e-08
3.54266e-05
-0.00480124
-1.5795e-08
-1.54488e-08
-7.63742e-05
2.86933e-08
-1.82922e-08
4.35511e-05
-0.000801486
0.000637604
-0.000542962
-2.14425e-09
7.15239e-08
9.41073e-08
-3.26049e-06
1.12605e-06
-2.68157e-06
0.00218919
5.8937e-08
4.1417e-09
-0.00422787
-5.84882e-09
-5.92522e-08
0.000340687
4.4708e-09
-4.87711e-08
0.000464712
-3.67016e-05
6.61707e-08
-0.000699895
-9.31334e-11
-1.1812e-09
7.61748e-08
0.00015543
2.6535e-12
7.2754e-08
9.8669e-09
-2.16414e-08
-3.65787e-06
-5.73432e-06
4.35669e-06
-1.4349e-10
2.83579e-08
1.21624e-08
-7.32484e-08
0.000522946
9.35417e-09
-0.000466688
5.18455e-08
7.57598e-08
-5.88479e-07
7.58764e-08
-2.18442e-06
-9.39309e-07
3.17125e-09
7.44137e-06
5.76142e-08
-1.07763e-08
-5.10083e-09
8.24816e-08
7.48876e-13
4.92649e-08
-9.56885e-12
0.000583617
5.65145e-07
-6.83696e-10
6.23748e-09
-9.72811e-07
1.67021e-08
-2.96641e-09
1.11038e-08
-4.50824e-10
-2.96384e-07
-7.78926e-08
-3.16777e-06
-2.2183e-05
3.59284e-09
-9.29183e-09
0.000739124
1.21969e-07
0.00898504
-7.42653e-05
-2.24085e-09
0.00186073
0.000800034
1.28403e-08
-2.77024e-05
-2.01235e-08
-0.00049836
0.00219371
3.20647e-06
0.00758054
0.000633032
3.83595e-09
5.46979e-09
-1.47394e-05
1.38589e-08
1.76118e-07
0.000652043
-0.00608194
-3.28066e-08
1.34289e-08
-4.17659e-07
4.92051e-09
-8.76471e-08
-1.03727e-07
-4.345e-10
4.35568e-06
-3.66427e-07
-0.000432078
-1.13857e-06
4.37762e-08
0.0007132
-9.45e-08
-0.000198506
-5.36311e-06
0.000688566
-1.751e-08
0.000453607
1.11123e-09
-8.18405e-07
0.000320098
0.00545144
-3.31704e-06
-0.000583839
4.07115e-07
1.06865e-08
4.56649e-09
1.38312e-08
-6.52387e-05
0.000552515
6.5191e-07
3.48884e-09
1.42801e-08
-9.59064e-08
-1.64474e-08
-0.00135754
-1.94553e-09
3.52319e-05
1.99175e-07
1.42513e-06
-0.00064488
-1.1509e-06
4.50921e-05
-0.000653464
3.12737e-09
-0.00028241
2.35688e-06
-1.10356e-07
0.000569773
1.67965e-08
7.7081e-08
-1.77112e-07
-3.9698e-09
-2.97214e-05
3.87205e-09
0.000530263
-0.000628293
1.7545e-08
-6.4073e-05
-2.95529e-09
5.3646e-11
2.02685e-09
0.000129531
2.76664e-08
-0.000268274
7.75122e-09
7.32579e-09
1.31113e-07
-4.83955e-06
-7.92114e-08
-0.00158493
-2.62436e-10
0.000599639
9.74901e-09
-3.31268e-10
7.32372e-05
-0.0011908
-0.00165824
1.70881e-09
-6.38036e-09
-7.69856e-09
-0.000375968
0.000704369
2.68596e-08
-1.16989e-08
-4.64632e-08
-2.89774e-08
-0.000415026
-2.86091e-08
-2.59122e-08
2.94352e-08
5.09097e-08
-0.000931869
-1.43673e-06
0.00275327
-1.96311e-09
-7.57336e-08
-8.25977e-09
7.12074e-09
3.64363e-06
6.01935e-06
3.9758e-08
9.33319e-08
-2.3237e-05
-3.39965e-08
1.36202e-06
-3.93973e-05
3.21718e-08
-5.97047e-08
0.00858529
0.000478105
2.89775e-08
-1.68881e-08
-4.20032e-10
2.91637e-08
9.29572e-05
-3.42514e-07
4.2708e-09
6.11878e-08
-0.000411481
-0.000870587
4.64909e-07
-1.22124e-08
0.000180265
7.24537e-08
1.12566e-05
-1.40939e-06
-0.000634853
0.000876448
-7.13295e-06
0.00203901
-4.87425e-06
-2.08247e-08
0.000198632
0.000203401
-3.40133e-08
-1.73922e-06
1.52445e-08
-2.75181e-09
-9.61345e-08
4.75327e-06
-1.05993e-07
5.33604e-08
5.81718e-09
-0.00318593
1.82818e-09
-2.88256e-09
8.35089e-08
-7.20484e-07
3.15959e-05
0.000311234
-0.000323096
1.87716e-09
-9.57782e-08
-2.23638e-08
-3.67403e-06
-3.69876e-08
3.48973e-09
6.37774e-08
1.75694e-08
1.13764e-08
-7.52597e-07
-1.33232e-08
3.31673e-08
0.00260066
2.26331e-09
-1.20377e-07
3.68586e-06
1.062e-07
0.000176421
-5.09755e-07
0.000676988
-1.45133e-08
-1.15903e-07
-5.7965e-07
7.05899e-09
1.36686e-08
2.41501e-06
-1.39433e-08
7.79279e-07
-0.00646228
2.59129e-08
7.87967e-09
-1.55823e-08
7.8484e-06
-7.12092e-08
6.31727e-10
-0.000284186
7.13041e-05
3.58335e-06
0.00905942
0.00132686
6.29227e-09
5.12148e-08
7.14448e-08
-3.93631e-09
1.26484e-08
0.000568381
0.000690022
0.0023277
-0.000209958
-7.7855e-07
-1.6456e-07
5.733e-09
1.61309e-07
-6.01209e-08
4.11948e-07
-0.00101597
-1.34389e-09
-1.74583e-11
-3.65222e-08
-1.27873e-08
0.00767625
-7.90488e-09
-7.86295e-08
-1.03226e-10
1.41113e-08
-1.19378e-09
-0.00033524
-5.74057e-08
-6.32249e-05
7.17736e-08
2.93353e-07
-4.27984e-06
1.13484e-06
0.000455326
0.00811898
0.000756503
4.21395e-09
1.85591e-07
-2.52302e-08
6.55763e-09
-1.39751e-07
-0.000360847
-0.000640753
1.36173e-07
-2.14478e-07
1.09605e-09
0.0030943
-7.09048e-08
3.06574e-07
-2.25707e-07
-3.18432e-08
-0.00109998
0.00100747
-1.57137e-08
0.000380478
-3.37195e-06
1.30629e-08
-0.000587484
-2.86661e-05
-0.00112881
-1.22161e-08
1.27767e-08
-0.000771186
2.48657e-10
8.46949e-08
-0.000768287
0.000238059
3.17928e-08
-0.000430775
-7.83329e-09
2.16127e-08
-1.53683e-07
4.61918e-08
0.00117628
6.15185e-08
-3.26257e-08
2.08769e-07
3.36592e-08
9.27726e-09
4.27155e-09
1.21633e-08
-5.39889e-06
3.73531e-09
-9.1571e-07
2.19054e-05
1.3821e-06
-5.58474e-05
1.64582e-07
-7.40816e-08
1.09039e-06
-2.12961e-08
1.39403e-09
-0.00036889
-3.16827e-07
-4.78731e-08
0.000450153
-2.86999e-10
-6.63287e-05
0.00150182
3.55226e-06
0.00197798
0.00597028
-3.08622e-08
-1.87259e-07
0.0016193
-1.52559e-08
0.000548653
-1.31329e-06
-8.78012e-10
0.00454707
3.82663e-08
-1.12564e-05
-0.000174607
-9.2747e-08
3.87654e-09
-6.18075e-08
0.00545021
-1.12621e-06
-1.62683e-09
7.23216e-09
-5.00814e-05
1.44155e-08
0.000263976
3.43081e-06
-1.11057e-07
-9.60677e-08
-0.000399513
7.57902e-09
-1.41089e-09
-9.0244e-08
-8.53308e-07
2.46958e-09
1.80047e-08
0.000886428
0.0209424
-4.67599e-08
-0.00032237
-2.88168e-05
-0.00404717
-0.000141303
-0.00218256
8.99348e-07
-1.59135e-06
1.08624e-08
-1.59107e-08
-6.71024e-06
3.83455e-09
3.45173e-06
0.000695797
-9.46889e-08
2.38001e-08
-1.49484e-06
-5.39753e-08
0.00525285
-1.45308e-10
1.4026e-06
6.7291e-08
1.25819e-08
-3.44188e-05
1.59111e-08
4.43652e-08
-1.22264e-08
1.61496e-09
6.3306e-08
-4.23222e-06
-0.00014801
-1.70991e-08
0.00175024
5.99284e-09
-8.63666e-10
-2.26312e-06
2.11764e-07
3.56496e-08
-1.10262e-08
-5.05448e-06
-7.70038e-07
1.55479e-07
-1.69617e-09
4.9553e-08
4.73123e-08
-8.34006e-09
9.56955e-09
9.10817e-10
0.000101956
-5.18811e-08
0.000396794
0.00738229
1.60484e-08
-0.000470241
-8.24631e-06
2.88964e-07
0.00819345
9.64233e-08
8.06899e-08
2.58885e-10
-3.08344e-08
2.24576e-08
0.000310342
-2.48627e-05
-6.69919e-11
-5.72047e-11
4.04639e-05
1.3353e-08
-5.20135e-07
-5.02902e-08
6.62754e-09
0.000638876
1.04761e-08
4.94327e-08
5.58781e-08
4.27441e-11
3.87351e-08
6.42302e-09
2.14608e-08
-1.55402e-08
0.000426569
2.24334e-07
-9.4104e-10
-1.01049e-08
2.16908e-07
0.000531433
-1.50462e-08
-0.000694936
-1.22637e-06
-5.34945e-08
1.21077e-06
9.88298e-09
0.000460764
0.000968632
-1.85227e-06
9.35473e-09
-1.76476e-06
2.32176e-08
1.13105e-06
1.65457e-05
6.61282e-09
0.00105677
2.6501e-07
3.79683e-08
-0.000410945
0.00332429
9.3822e-07
7.66976e-05
1.26381e-08
5.17842e-08
-0.000558026
-1.37257e-09
9.14207e-08
6.79226e-07
-8.79379e-10
-1.5983e-09
4.25982e-09
-7.51903e-07
-2.32875e-09
0.000636748
7.6071e-08
9.90594e-07
-1.12168e-08
0.00101182
-0.00069124
-0.000621757
-0.000117623
-2.92832e-09
-5.51624e-06
-3.06297e-08
5.36202e-08
-2.53816e-08
0.00218799
-0.000574264
4.82956e-09
-1.59227e-08
-1.23311e-07
3.85031e-07
-6.53006e-09
0.00190331
-0.00252377
4.99494e-07
-0.000419407
-9.71564e-06
1.71009e-08
2.6395e-08
-6.54249e-08
1.79148e-08
0.00095437
-2.29006e-08
0.000517406
-3.79529e-09
0.000964477
6.28802e-05
0.000721478
1.52709e-08
-5.90144e-06
7.68039e-05
0.000448945
6.90359e-08
3.49702e-09
5.82065e-07
3.7393e-09
6.60653e-08
4.18588e-06
-3.57536e-11
-6.31128e-10
1.39505e-08
5.72451e-09
-1.08037e-08
-4.68294e-09
2.09155e-08
9.76289e-08
0.000797172
-1.00082e-07
4.62716e-08
-1.1756e-07
-0.000374341
-9.28196e-05
5.5122e-05
0.000594283
-5.84989e-08
7.34617e-08
-6.2769e-08
0.00675234
-5.29356e-08
4.21169e-08
-3.52666e-05
1.53097e-08
-7.441e-09
5.96751e-07
7.11106e-09
-6.58932e-07
0.00101543
1.06014e-07
-3.18577e-10
-1.20154e-09
1.62003e-08
-2.82316e-06
4.55156e-11
-7.79531e-08
-1.44143e-06
8.68971e-05
-5.02649e-08
-9.05496e-08
-1.01098e-07
9.80481e-08
2.90155e-08
1.10383e-08
-1.49001e-11
-1.8462e-07
-0.000170412
5.5177e-08
8.09812e-07
-5.99355e-06
0.00044742
0.00148132
6.93668e-07
0.000612499
-0.000718638
0.00488054
1.596e-05
-4.52326e-05
1.63784e-07
-0.000459725
-3.35685e-09
-2.82583e-06
-5.15722e-06
0.00432041
5.85235e-08
-2.09829e-08
-2.41989e-08
6.50096e-06
-4.09415e-07
-2.17279e-09
3.72771e-08
1.25341e-07
1.38502e-08
4.52478e-08
2.88438e-08
-4.91668e-06
9.05901e-10
-1.62959e-08
-2.567e-07
0.000939459
-2.3168e-08
9.64201e-08
3.01009e-06
-1.52351e-08
0.000578029
5.1967e-07
5.34773e-07
-8.35111e-07
0.00106202
2.72273e-07
0.000481123
-0.000901878
-4.41935e-05
0.000653271
-2.03497e-08
-1.65346e-08
-0.00399859
9.00794e-05
-1.19462e-07
0.00112601
-4.32571e-08
9.53122e-09
-7.75868e-08
-4.87321e-12
-8.40924e-08
7.96625e-09
-1.50466e-06
-2.22036e-07
2.42436e-06
-1.87303e-06
-1.37711e-07
1.88648e-07
-0.00148696
0.00371346
9.19731e-08
-9.57965e-05
-7.27388e-08
0.000803137
-1.14204e-08
0.00286338
0.000224265
-1.25827e-06
-1.06008e-06
-5.17625e-05
0.00355477
5.2369e-07
9.32723e-07
-1.03811e-07
3.16427e-09
1.50746e-06
-0.000237918
1.00237e-05
1.25248e-08
3.02849e-09
-5.06426e-08
-0.000254309
1.8177e-06
-2.04909e-08
-1.9011e-06
-2.7515e-05
2.24708e-07
7.19074e-05
-3.29069e-08
5.57452e-09
-4.47487e-08
0.000125117
-1.63089e-07
0.00126078
-4.35255e-09
-2.71582e-08
-2.17176e-08
0.00144661
-2.09826e-08
2.86748e-08
6.75138e-07
-0.00066685
4.67231e-08
-1.26096e-06
4.40938e-05
1.32712e-08
2.98728e-06
-1.64694e-08
3.01266e-09
-1.42826e-06
1.76922e-08
1.77998e-07
4.51172e-09
2.53789e-09
0.000611643
8.86811e-09
9.67105e-08
-0.000497596
-3.44733e-09
5.82367e-06
-1.15915e-07
-5.10166e-07
0.000313917
-0.00063391
4.89712e-08
-4.01963e-06
1.63402e-06
0.000786188
-3.47799e-07
6.62618e-09
1.01847e-08
1.78808e-08
4.52486e-08
0.000721993
5.37435e-09
-0.00534014
2.60675e-07
-5.32094e-10
0.000112317
-0.000132896
4.62045e-09
0.000158731
6.1889e-08
0.00563699
-0.000366377
1.62075e-08
1.58157e-08
-3.04746e-06
8.00049e-08
-6.44584e-05
0.00102219
1.89908e-08
1.27577e-08
6.12682e-08
0.000140483
-1.217e-11
-0.00083409
8.06945e-05
-4.80432e-08
3.5766e-08
-0.00097437
0.000415976
-5.55532e-09
-7.66294e-05
-4.21755e-10
0.000182498
-1.34162e-06
-1.90972e-08
0.000866249
6.81442e-08
-0.000426043
-3.71867e-09
-0.000204603
1.00931e-08
-2.04679e-06
-3.66648e-06
-5.42936e-08
-0.00508203
-0.000375804
3.69897e-05
0.00382475
0.00296595
-7.97211e-08
3.85674e-06
-4.77073e-08
-7.70198e-11
-3.73139e-09
3.5147e-08
-1.10647e-08
2.04344e-05
2.78958e-09
-0.000956865
3.76462e-08
-0.000452086
-1.7527e-08
4.7452e-08
-6.37057e-09
8.57796e-08
0.000645958
1.365e-07
0.000804185
3.7172e-10
0.000677221
-0.000648992
2.98583e-08
-4.05151e-08
9.20685e-08
2.95974e-07
-0.00602003
-9.72527e-08
-2.3958e-10
-0.000603565
-3.34819e-08
-2.80862e-07
5.41285e-07
-0.000808369
8.50947e-07
-6.06188e-08
2.20621e-08
-2.78367e-06
-3.16331e-07
-6.1894e-07
-0.000123436
-2.33459e-08
1.68006e-05
8.53179e-09
0.000706217
-0.00108658
-2.94731e-08
0.000642596
3.46789e-08
7.85932e-08
4.91721e-09
3.37485e-08
-0.00512159
0.000544169
-0.000213091
0.00409601
1.14796e-08
1.24575e-07
4.20361e-09
-0.000151319
3.15322e-08
1.01542e-08
-0.000184601
-0.000697571
9.67404e-08
8.1882e-08
-7.56175e-07
5.9743e-05
0.00103018
2.13493e-06
-3.08057e-10
-2.72164e-08
-0.00042477
0.000572438
-1.31007e-06
-0.000180758
-4.72018e-08