/*--------------------------------*- C++ -*----------------------------------*\
| =========                 |                                                 |
| \\      /  F ield         | OpenFOAM: The Open Source CFD Toolbox           |
|  \\    /   O peration     | Version:  v2012                                 |
|   \\  /    A nd           | Website:  www.openfoam.com                      |
|    \\/     M anipulation  |                                                 |
\*---------------------------------------------------------------------------*/
FoamFile
{
    version     2.0;
    format      ascii;
    class       volVectorField;
    location    "100";
    object      ddt0(U);
}
// * * * * * * * * * * * * * * * * * * * * * * * * * * * * * * * * * * * * * //

dimensions      [0 1 -2 0 0 0 0];


internalField   nonuniform List<vector> 
27802
(
(-0.000469189 -0.000169527 1.48516e-20)
(-8.30365e-07 -7.44031e-06 0)
(-0.000168243 -0.000402304 6.08031e-21)
(0.000290493 0.00143729 1.02221e-20)
(-0.000225624 -0.000309407 0)
(0.0108087 -0.00416331 0)
(-0.000228336 -0.000299598 0)
(0.000409119 -0.00137027 1.64643e-20)
(-0.000196578 0.000119508 1.13757e-20)
(0.0233804 0.000842669 0)
(0.0156746 -0.00774529 -3.5757e-21)
(-0.000963848 -0.00392511 -1.24034e-20)
(-0.000954517 -0.000401128 8.80806e-21)
(0.000469163 -0.00285103 -4.65152e-21)
(0.00807314 -0.0124918 1.48412e-20)
(0.00546307 -0.000312119 1.26562e-20)
(-0.00238427 0.00365235 7.78791e-21)
(-0.000204527 0.000116135 -1.0759e-20)
(0.015051 -0.00729244 0)
(0.0111909 0.00252658 -1.0993e-21)
(-0.0149141 0.00509828 -5.25812e-21)
(0.00811324 -0.0129583 0)
(-0.000110838 0.000200717 -4.5983e-21)
(0.0031091 0.00340445 0)
(-0.00227181 0.00293327 -4.03129e-21)
(-0.00101672 -0.00104108 5.44933e-21)
(-0.000141271 -0.000171795 0)
(0.000114532 0.00172429 1.17327e-20)
(-6.23119e-05 7.10367e-06 4.23589e-23)
(0.00218419 -7.34248e-05 -1.41679e-20)
(0.00326395 0.00315446 1.33059e-20)
(-0.000711876 -0.000618914 3.62367e-21)
(-0.000464611 -0.000156683 -1.42369e-20)
(6.12763e-05 8.76922e-05 5.52278e-21)
(-2.56592e-06 -0.000475604 1.13905e-20)
(0.00871045 0.000224072 2.13797e-21)
(-0.00280135 0.000183761 -1.31707e-21)
(-0.000159153 2.3416e-06 0)
(-6.37849e-05 0.000447212 0)
(-0.00205846 -0.000162122 0)
(-0.00101503 -0.00385034 5.42527e-21)
(3.57419e-07 -0.000457293 -7.5358e-21)
(-0.000941391 0.00110367 0)
(2.34131e-05 0.000145517 -7.59622e-21)
(-0.000874939 -0.000820248 -1.84216e-21)
(-0.0225168 0.00118736 -1.99104e-22)
(-5.63904e-05 -7.86231e-06 -2.32093e-22)
(0.00539637 0.00140988 0)
(-2.58397e-06 -0.00293623 6.1637e-21)
(-0.0176575 -0.014045 1.38825e-20)
(0.00850014 -0.00218174 1.56876e-20)
(-0.00105021 -0.00103989 -5.51322e-21)
(0.015418 -0.00246021 0)
(-0.00179253 -0.00495767 -1.88713e-22)
(-0.000152231 0.000351066 -7.66692e-21)
(-4.5136e-05 -1.37317e-05 0)
(0.00308574 0.0154757 -1.45846e-20)
(-0.000110053 -0.000260452 0)
(-0.000777036 -0.000676472 7.10685e-21)
(0.000867323 -0.00103617 0)
(0.0230914 -0.00258903 0)
(-5.15963e-05 -0.000459235 0)
(-0.000926774 -0.000477403 7.40459e-21)
(-7.16987e-05 1.89443e-05 -1.43376e-20)
(1.28923e-05 0.000167617 0)
(-0.000418666 2.77735e-05 -1.00825e-20)
(-0.0131734 -0.0145519 -3.86936e-23)
(0.00245353 0.0160766 0)
(0.000909882 -0.000850738 -1.26279e-20)
(-0.000369024 9.57724e-05 -9.14486e-21)
(2.71715e-05 0.000136133 -9.41543e-24)
(-0.0150565 0.0186367 8.36513e-21)
(-0.00245671 0.0149381 0)
(0.00206647 -0.0103676 0)
(3.07564e-05 -0.000544235 -1.00814e-20)
(0.000293054 0.000724361 2.9516e-23)
(-0.0133352 -0.0144371 -5.58434e-23)
(0.00269755 3.28694e-05 -4.21054e-24)
(0.0431639 0.0011239 -3.5863e-21)
(0.0116952 -0.000872487 0)
(-6.23669e-05 7.99183e-06 -4.10171e-23)
(-0.000164872 -0.000106256 -1.77223e-20)
(-0.00103897 -0.00179707 0)
(-0.000618777 -0.000222297 1.56232e-20)
(-0.000411263 -6.25485e-05 0)
(-0.0016354 0.00056474 7.93986e-21)
(-7.61958e-06 -6.64753e-05 6.50672e-21)
(-0.0365286 0.00667371 0)
(0.0153918 -0.000698048 3.1176e-21)
(-2.82493e-05 -0.000639357 9.72165e-21)
(-0.0001446 -0.000275543 3.69988e-22)
(0.0460644 -0.000193684 4.94759e-21)
(-0.000171818 8.73272e-05 0)
(0.00164156 -0.000114863 -1.36161e-20)
(-0.000424696 0.0158122 4.39469e-21)
(4.72338e-05 0.0021255 -9.21213e-21)
(-0.000169053 -9.78924e-05 1.20477e-20)
(8.6856e-05 0.00195173 -5.87299e-21)
(-4.4646e-06 -9.18219e-05 -1.00627e-20)
(-0.00333877 0.0267068 8.22664e-21)
(-5.37298e-05 0.00044572 -2.79033e-20)
(-0.000159166 0.000163582 0)
(-0.000781138 -0.00499893 3.74442e-21)
(0.0232316 -0.00183359 0)
(-0.00356664 0.0156346 1.44618e-20)
(-0.000944356 -0.000491813 1.46018e-20)
(-0.000116616 -0.000590303 -6.5834e-21)
(1.90478e-05 0.000160682 1.73867e-20)
(-0.000145839 0.000349131 -6.70736e-21)
(-0.000854557 -0.000825414 3.66177e-21)
(0.00521754 6.55086e-05 -9.22278e-21)
(-0.000134712 -0.000262866 1.23594e-21)
(5.99156e-05 0.000101625 9.75384e-21)
(-1.77371e-05 -8.78116e-05 -9.85058e-21)
(-0.000110854 -0.000608838 0)
(-6.88868e-05 1.63618e-05 -1.48259e-20)
(-0.000930852 -0.000224233 -9.90044e-22)
(-0.00256176 -0.00283618 0)
(-0.02411 0.00717762 -8.26591e-21)
(-0.00208563 0.00279484 1.43391e-20)
(0.0158178 0.0019943 0)
(0.000656678 -0.00111139 0)
(0.0214558 -0.00271623 5.5357e-24)
(-0.00253271 -0.00294533 -1.27573e-20)
(-0.0124595 0.00256003 9.44186e-21)
(-0.00162145 -0.00275495 -6.62404e-21)
(-0.000553762 -0.000147329 -2.03237e-20)
(-0.000658579 0.00103902 -1.7028e-20)
(-0.00438286 -0.00202382 1.8342e-20)
(4.66254e-05 0.000130622 9.99745e-21)
(-0.00693649 0.00369473 -1.07451e-20)
(-0.001529 -0.000577595 8.74872e-21)
(-0.000430105 8.40685e-07 2.50237e-20)
(0.00198188 -0.000320503 -1.67596e-20)
(0.00268552 0.00118049 1.3569e-20)
(-0.000116731 0.000964786 0)
(0.000373787 -0.00236739 0)
(0.000250353 -0.00294389 2.87718e-21)
(-6.6081e-05 -6.16412e-05 -9.72967e-21)
(-0.000418866 1.29235e-06 -4.32724e-24)
(0.000399937 -0.00255526 0)
(0.0256845 0.00137302 -3.61463e-21)
(-0.000248455 -0.00127965 -4.8021e-21)
(-0.00112109 -0.00108332 -6.44651e-21)
(-0.000158977 -4.35894e-06 0)
(-0.034984 -0.0062931 -9.9448e-21)
(-0.000616172 -0.00102963 -9.11364e-21)
(-0.000541839 0.00231961 1.47052e-20)
(-8.3628e-05 0.000504668 0)
(0.00553416 0.026431 -1.41446e-20)
(-0.00117419 -0.000871748 0)
(0.00305493 0.00320609 -5.39842e-21)
(-0.000953043 0.00104923 -3.0197e-20)
(0.0105421 -0.00698445 9.904e-21)
(-3.30605e-06 -4.65263e-06 2.62092e-21)
(0.0407816 0.000446298 2.212e-21)
(-0.000105209 0.000932067 0)
(8.16844e-05 0.0021475 2.32778e-20)
(-1.21947e-05 0.000200265 1.08041e-20)
(-4.44357e-05 -0.000410466 -2.80728e-21)
(-6.86373e-05 2.20938e-05 1.66417e-20)
(-0.000409798 3.86752e-05 0)
(0.00497377 -0.00718362 -1.16063e-20)
(-0.000126901 9.42339e-05 1.5797e-20)
(-9.23673e-06 -0.000118639 1.84024e-22)
(-2.87718e-06 -3.11101e-05 0)
(-0.00262741 0.0159601 -2.82556e-20)
(-0.000256551 -5.97306e-05 6.29038e-21)
(-0.000415438 4.79659e-06 -1.10651e-20)
(-0.000371038 -0.000216773 -7.08317e-21)
(-0.00179414 9.31382e-05 -1.04234e-20)
(0.0180905 0.00189822 1.56925e-21)
(-0.00380962 0.00590406 2.07177e-20)
(-0.00894146 -0.000202229 1.60203e-20)
(-0.000205666 -0.000227987 1.09229e-20)
(-0.0100647 -0.00610077 7.79042e-21)
(0.0186065 -0.00103479 3.92219e-21)
(0.00341118 0.00534611 1.462e-20)
(-6.68637e-05 1.90355e-05 1.44804e-20)
(-0.0001179 -0.000574854 0)
(-0.00416408 -0.00115051 -1.14917e-20)
(-0.0296668 -0.0100726 -1.30998e-20)
(-0.0178485 -0.000533878 0)
(-0.0211298 -0.00818879 0)
(-2.78065e-05 0.000206435 4.62266e-21)
(0.000206448 -0.00315917 8.15976e-21)
(-0.00714066 0.00367487 1.25399e-20)
(0.000718261 -0.00601195 0)
(0.0107039 0.00156229 1.40426e-20)
(-0.000140965 -0.0035988 7.64664e-21)
(-0.0011118 -0.0112005 2.31619e-20)
(-3.44379e-07 -3.05877e-05 0)
(-0.000180491 -0.000392176 8.78576e-21)
(-0.0090542 0.0249407 1.09401e-20)
(-3.41177e-05 0.000407352 1.28987e-20)
(0.00185274 0.00192698 -1.40693e-21)
(0.0327252 -0.00124712 1.50841e-21)
(0.0185083 -0.0141165 0)
(-0.0100953 0.0233346 1.95742e-20)
(-0.0371784 0.0199777 0)
(-0.00222125 -0.00058253 2.99944e-21)
(-4.21422e-05 -0.000420844 0)
(-0.000444216 -0.000134971 0)
(-0.00093161 -0.000211219 0)
(-0.000404511 -0.0104723 1.42666e-20)
(-0.0027459 -0.000341183 -1.3325e-20)
(-0.00025296 -8.23059e-05 -1.45722e-20)
(-0.000210404 9.94557e-05 -1.43931e-20)
(-0.00300965 -0.000145379 3.28632e-21)
(-0.000226026 5.58203e-05 1.33491e-20)
(-8.78457e-05 0.00049899 3.26868e-21)
(-0.0278411 0.0280655 -5.50413e-21)
(0.000209473 0.00145935 -1.05066e-20)
(-0.0087121 0.00264929 0)
(-1.27577e-05 0.000193963 -9.02972e-21)
(-0.000147263 -0.000168451 0)
(-0.0065045 0.00369361 -1.82144e-20)
(-0.000170986 -0.000450577 6.92087e-21)
(-0.000149143 -0.00033663 -6.51376e-21)
(-2.24418e-06 -5.61724e-05 0)
(-0.000173992 0.0153852 4.11254e-21)
(-0.000237249 -0.000261044 1.92362e-20)
(-0.000192637 -0.000563795 -2.87951e-23)
(-0.0148754 0.00827995 7.80116e-21)
(-0.000184859 -0.000508362 0)
(-0.00840771 0.01541 -6.73415e-21)
(-0.000555142 -0.000100269 7.37348e-21)
(-0.000524503 0.00239286 -1.64364e-20)
(4.03292e-05 9.78294e-05 8.50916e-21)
(-0.000191814 -0.000498216 -1.56373e-20)
(-2.50617e-05 -8.31499e-05 0)
(-0.00101249 -0.000266514 -1.55274e-20)
(-0.00500646 0.0150462 0)
(1.06605e-06 -0.000461304 8.75942e-21)
(-1.16776e-06 -2.53698e-05 0)
(0.00437763 -0.00142008 9.02237e-22)
(0.000315334 -0.00236326 -2.54921e-21)
(-0.0013009 -0.00217975 0)
(-0.000546907 -0.000142983 1.19016e-20)
(-0.000493533 -0.00464868 0)
(-0.0111487 0.00188989 0)
(-0.0186653 -0.00146801 1.62253e-20)
(-0.0296352 -0.0104165 -3.20444e-23)
(-0.0192448 0.015799 3.36235e-21)
(-0.0120225 0.00398842 0)
(-0.000380733 0.000837781 0)
(-0.00014364 -0.000206148 -1.73207e-20)
(0.00594103 0.00260798 0)
(-2.17866e-05 0.000204404 -5.78128e-21)
(-4.8465e-05 -9.98672e-06 -6.03479e-21)
(-0.00645681 -0.00592444 -3.20949e-21)
(-7.55068e-05 -3.51807e-05 0)
(-0.00346199 0.000993752 0)
(-0.000152293 -0.000442367 -1.32777e-20)
(-0.037344 0.00613334 1.78468e-23)
(-0.0179451 0.0165087 0)
(-0.000744623 0.00112241 9.81834e-21)
(-0.000786162 0.000881065 1.30061e-20)
(-0.000386312 6.77897e-05 -1.09283e-20)
(4.44372e-05 -0.000540619 6.27494e-22)
(-8.19079e-05 -4.70907e-05 0)
(0.0249739 0.000184276 4.00874e-21)
(-0.0223754 0.0083431 0)
(0.0100284 0.00127706 -1.15019e-20)
(-0.000378292 8.11941e-05 9.20486e-21)
(-0.000270602 -8.88104e-05 2.07177e-20)
(4.4886e-05 -0.00052027 1.44811e-21)
(0.000123457 -0.00331074 0)
(-0.0188528 0.0168538 0)
(-0.000742244 -0.000580914 -6.52499e-21)
(0.00255651 -0.000142663 0)
(-0.00104197 0.000109031 -2.38682e-20)
(-0.011917 0.0038436 2.58242e-21)
(-0.00011753 8.23712e-05 1.74087e-20)
(-7.93837e-05 -4.29656e-05 9.31369e-21)
(4.4951e-07 -0.000474512 -6.08516e-21)
(-0.00145825 -0.000538683 0)
(-2.00138e-05 -0.00016325 5.65736e-21)
(-0.000236824 9.86066e-05 -8.73829e-21)
(-0.0199471 0.0159352 7.12792e-21)
(-4.5065e-05 -0.000513924 -1.10553e-20)
(-0.00100929 -0.000249736 5.9108e-21)
(-0.00382789 0.00135794 1.35273e-20)
(0.00120892 -0.0106458 0)
(-0.00489684 0.003881 -4.67141e-21)
(8.64746e-06 0.0011105 -1.52683e-20)
(0.00287439 0.00686756 0)
(-0.000130478 0.000104537 -5.02683e-22)
(-0.00142343 0.00149754 -1.21509e-20)
(0.0112191 -0.00617833 1.12886e-20)
(-0.00189914 0.00364473 0)
(0.0435783 -0.000685224 -1.09338e-21)
(0.0246632 -0.000454398 1.53502e-20)
(-0.000791789 -0.000704414 -1.96427e-21)
(4.15164e-05 9.13765e-05 7.90996e-21)
(-0.000394626 4.81889e-05 0)
(-4.58612e-05 -0.000499094 -1.44373e-20)
(0.00232268 0.000873014 0)
(-0.00150923 -0.000108442 -1.01684e-21)
(0.000625543 -0.00129818 0)
(0.00369225 -0.00176498 0)
(-0.00126205 -0.000487883 0)
(-0.0165907 -0.0150155 7.24182e-21)
(-0.00237323 -0.00442471 -9.89293e-21)
(0.0136836 0.00751901 -5.53072e-21)
(-3.51711e-05 -0.000191013 1.76e-21)
(-0.00756843 0.00125056 4.61584e-23)
(-0.000372094 9.11958e-05 8.30555e-21)
(0.0216652 0.00421257 1.03697e-20)
(-0.000181282 0.000156549 6.66599e-21)
(-0.0162214 -0.0137831 3.93332e-21)
(0.00257181 -0.00232453 -1.51288e-20)
(0.00188618 0.001169 2.01347e-20)
(-0.000116081 -0.000278677 1.24164e-21)
(-0.00797925 0.00303206 0)
(-0.00566189 -0.00222567 1.66702e-20)
(-0.00124743 -0.00202073 0)
(-6.55857e-05 8.51632e-06 1.17252e-20)
(0.000106609 0.00174269 -1.93973e-20)
(-0.00413706 0.00218914 9.99306e-21)
(-0.000181405 0.000131174 -7.99633e-21)
(8.19028e-05 -0.000504267 4.78712e-21)
(-0.00516714 0.00940517 0)
(-0.0176712 -0.0147152 7.98839e-21)
(0.0262992 0.0016615 -8.92294e-22)
(-0.000176858 8.42973e-05 0)
(-0.000944291 -0.00176449 6.32352e-21)
(0.000694391 -0.00235811 0)
(-0.0361796 0.0191378 -2.39987e-21)
(-8.36897e-05 -5.56119e-05 1.26315e-20)
(-0.0202295 -0.00963645 -6.11292e-21)
(-0.000128705 7.75453e-05 -7.98272e-21)
(-4.3283e-05 -0.000407026 -2.52508e-20)
(-0.00563772 0.00981394 0)
(-0.00428674 -0.00119169 2.30487e-20)
(-0.000538829 -0.000107756 4.10549e-21)
(-0.000136168 -0.000351043 5.87259e-21)
(-2.66987e-05 -0.000624249 7.96211e-21)
(0.00239167 -0.00259667 -8.68855e-24)
(0.000263519 0.000761641 2.6487e-20)
(-0.000295579 -1.95867e-05 6.02406e-21)
(0.00488765 0.00285884 0)
(-0.000266383 -0.000281988 -9.52967e-21)
(-0.0015903 0.00350339 0)
(0.000627089 0.000964422 2.43817e-20)
(0.0129239 0.000514241 0)
(-0.000459235 0.000941359 0)
(-0.00025563 0.00014547 0)
(-0.000403341 0.000811302 -7.16695e-21)
(-0.000206729 0.00014419 1.13107e-20)
(0.000220532 -0.00320658 0)
(0.000154786 -0.00315863 -6.34926e-21)
(-0.000166167 -6.06869e-05 0)
(-0.000699536 0.000841905 -1.21987e-20)
(-0.000414505 -6.64909e-05 1.87323e-20)
(-0.000219708 6.40419e-05 -1.27773e-20)
(-0.000362429 -0.000238737 0)
(-0.000322706 0.000119569 -1.44623e-20)
(-0.0138711 0.00221956 5.78532e-22)
(-8.84779e-05 3.20117e-05 2.59233e-20)
(-0.00939062 0.0150596 1.65071e-20)
(-0.000457228 0.00480091 -1.68448e-23)
(0.010156 -0.00259726 -9.43003e-21)
(4.45063e-06 0.00012557 7.4752e-21)
(-0.000305766 -1.37605e-06 4.0038e-21)
(-0.000315219 -2.59299e-06 1.37456e-20)
(-0.0185167 -0.00160478 0)
(-0.000130964 0.000102522 7.6376e-21)
(-0.0038029 -0.00179488 0)
(4.62046e-05 7.74172e-05 -1.71731e-20)
(-0.00424224 0.0148738 0)
(-0.000246616 0.00033896 0)
(0.00219531 -0.00024388 7.47323e-21)
(-0.000603048 0.000440859 3.99471e-21)
(-0.000145798 -0.000438175 6.26067e-21)
(-0.000346289 0.000132914 -2.23811e-20)
(-0.0021445 -0.000530352 -2.59539e-21)
(-0.000122589 -0.000250849 -9.83373e-21)
(0.0115426 0.00269702 -1.19723e-20)
(-0.000256996 -0.00052351 -3.08735e-21)
(-0.000585396 -0.00100626 1.06791e-20)
(-4.09015e-05 -0.000408384 2.4256e-20)
(-0.000189889 -0.000560229 -1.05254e-20)
(-1.49738e-06 -5.09508e-05 5.71715e-22)
(-0.000326617 2.53918e-05 0)
(-0.0030221 -0.000173901 6.26865e-21)
(0.00096686 -0.00273331 0)
(0.00315198 0.00201727 8.40433e-21)
(-0.0181761 0.000812924 4.27726e-21)
(0.00106822 -0.00399409 0)
(-0.000244 -0.0003826 6.41157e-21)
(0.0022331 -0.0237288 7.81382e-21)
(-0.000156703 -0.000586415 1.5154e-20)
(-0.000318955 4.96986e-06 8.56852e-21)
(-0.00123947 -0.00215515 9.52658e-21)
(-0.000656016 -6.67044e-05 -1.61526e-20)
(-3.84881e-05 -0.000431964 2.86686e-21)
(-0.0351093 0.00517346 1.13779e-20)
(0.0110962 -0.0031355 2.02429e-21)
(-0.0472725 0.000727944 0)
(0.000196912 0.000696842 2.19839e-20)
(-0.0129693 0.000294216 0)
(-7.38559e-05 -4.38541e-06 1.16507e-20)
(-9.0484e-06 -0.000194729 0)
(-0.000355015 -0.010206 2.25497e-20)
(0.0017239 0.00134215 -1.79942e-20)
(-3.09805e-05 -0.000172207 1.5211e-20)
(-0.000193393 -0.000691518 0)
(-0.00720848 0.00155123 9.17182e-21)
(-0.00065722 0.000960974 8.64724e-21)
(-0.000229167 9.40913e-05 1.56664e-20)
(-0.000969142 -0.000493036 2.15444e-20)
(-0.0299817 0.02429 0)
(-0.00154498 0.0152761 -8.34083e-21)
(-0.000207578 -0.0269678 -4.07885e-21)
(0.0437712 -0.00091527 0)
(-7.92167e-05 -5.04708e-05 -8.32335e-21)
(0.00287307 -0.00728007 1.28247e-20)
(-0.000156108 0.000187622 0)
(0.0236113 -0.000357625 -1.32896e-20)
(-0.000305676 0.00155424 1.24589e-20)
(-8.70559e-05 0.000947835 3.95751e-23)
(6.00767e-07 -2.70359e-05 0)
(-0.000234617 -0.000273707 0)
(-0.000867759 -0.000266218 -1.17931e-20)
(-0.000169173 0.000887897 1.17724e-20)
(-0.00114292 -0.000889041 0)
(-0.000250248 -0.000362742 7.44253e-21)
(-0.000145798 -0.000326171 2.80011e-21)
(0.000487931 -0.00235186 4.33769e-21)
(-6.41717e-05 -8.36227e-05 1.25963e-20)
(-0.000388828 4.02582e-05 -1.93353e-23)
(-0.0141812 0.00763344 -1.3522e-20)
(0.00531822 0.00682149 -2.89542e-23)
(-8.38308e-06 0.00103874 -1.55227e-20)
(0.00162834 0.00150771 0)
(0.000370107 -0.00154855 1.11839e-20)
(-0.000426689 -0.00267667 6.58991e-21)
(-0.00662024 -0.00546546 0)
(-0.000315858 -4.29138e-07 0)
(-0.000594441 -0.00133311 -9.55927e-21)
(0.0174168 0.00185005 -1.51079e-21)
(-0.000707359 0.000461713 1.47324e-20)
(-0.000118758 -0.000239488 -1.1342e-20)
(-0.000984548 -0.00048704 -2.60722e-20)
(4.89608e-08 0.0010991 1.72482e-20)
(0.000385078 -0.00197159 4.65783e-21)
(-0.00045247 0.000432078 -3.90272e-22)
(-2.20062e-05 -0.00010271 0)
(-8.0111e-05 -4.99113e-05 1.37825e-20)
(-0.0187525 -4.06911e-05 -1.31587e-20)
(-0.0184256 -0.0140303 -7.71098e-21)
(-0.000465847 0.000418986 0)
(-0.000129979 -0.000116125 3.77922e-21)
(-0.0151037 0.000233132 1.39337e-20)
(-4.05332e-05 -0.00043863 1.23061e-20)
(-0.0294052 0.0142901 0)
(-4.81311e-05 -0.000420521 1.42453e-21)
(-0.000416967 -6.04566e-05 9.3716e-21)
(-0.000452128 0.000907676 9.26422e-22)
(-0.0171091 -0.0117592 -5.40487e-21)
(-0.000372972 8.32964e-05 1.04594e-20)
(4.76707e-05 6.90222e-05 0)
(0.0211796 -0.0135492 5.53585e-21)
(-5.32484e-05 -2.97709e-07 0)
(-0.00266058 0.00192538 -1.11818e-20)
(-0.0245445 0.00627569 5.2819e-21)
(0.00104176 -0.00277036 0)
(-0.000105349 -5.1802e-05 0)
(0.0254993 0.00236717 -8.35807e-22)
(-0.00379931 0.00130953 -1.39345e-20)
(-0.000482376 -0.00270532 0)
(-0.0121717 0.00241487 0)
(-0.00109875 -0.00694211 9.3348e-21)
(-0.00060413 -0.000211244 -8.22358e-21)
(-0.00119479 -0.000681417 2.17926e-20)
(-6.75733e-05 1.42367e-05 0)
(-0.0138465 -0.0229311 1.99986e-20)
(-2.92633e-05 -0.000207532 -1.39337e-20)
(-0.00207807 -0.001681 -3.39744e-21)
(-0.000319398 5.12937e-05 0)
(-0.000306231 0.00151063 -2.56237e-20)
(-0.0165382 -0.0013128 -3.61445e-21)
(-0.0214736 0.0162273 0)
(-0.000126521 -0.000117134 7.29156e-21)
(-0.000117484 -0.000570455 -7.5853e-21)
(0.000430511 -0.00201323 -7.2252e-21)
(-0.000163045 -0.000461986 -2.0532e-21)
(-0.00033656 0.000145139 9.90889e-21)
(-0.000272546 -6.56459e-06 0)
(-9.10911e-05 2.75115e-05 -2.84273e-20)
(-0.00413038 -0.00304149 -3.34058e-23)
(-0.000890578 0.00178687 4.05164e-22)
(-0.000303766 -0.0046567 5.65281e-22)
(-0.0126945 -0.00124597 -1.25228e-20)
(-6.51204e-05 1.17442e-05 1.50275e-20)
(-0.00224468 -0.000295228 1.11517e-20)
(-0.0455315 0.000970432 -7.93051e-21)
(-0.000177789 -0.000696157 0)
(-0.00029472 0.000771831 -2.90885e-23)
(6.41293e-07 0.000122427 -1.57047e-23)
(-6.26452e-06 -6.48519e-05 3.26839e-21)
(-0.0191247 0.0261738 0)
(-0.0103446 -0.00680571 0)
(-0.00109988 -0.000385366 -6.59157e-21)
(-0.00354597 0.00261218 -9.02019e-21)
(-0.0310634 0.00283923 2.26666e-21)
(-0.000102686 -0.000305168 0)
(-0.0187547 -7.65521e-05 2.53317e-21)
(-0.000130063 1.02547e-05 0)
(-0.00283263 -0.00440442 0)
(-0.000945286 -0.000397791 9.39762e-21)
(-0.000270406 2.29637e-06 -6.86104e-21)
(-1.46272e-05 -0.000545952 0)
(-0.000204638 -0.000361797 0)
(-0.000681408 0.00100027 -1.74123e-20)
(-0.00199291 -0.000655751 0)
(-0.0089055 0.00229186 -6.26413e-21)
(-3.58081e-05 -0.000766029 -1.74948e-20)
(-0.0161205 -0.00115116 0)
(-0.0359003 0.0155722 0)
(0.0107167 0.00251039 5.52297e-21)
(-0.000108876 -7.14651e-05 0)
(-0.0001046 -5.77841e-05 0)
(-0.0149564 -0.00272434 3.1457e-20)
(-0.00144407 -0.0009496 -7.0116e-21)
(1.01075e-06 -0.000139313 -1.78104e-20)
(-0.00103071 -0.000487641 7.31273e-21)
(-0.000927485 -0.00053934 7.18839e-21)
(-0.0055611 -0.000551464 0)
(-0.00161462 -0.000200306 7.54161e-21)
(0.0211567 -0.00309538 -1.63154e-20)
(-1.23649e-05 -0.000755084 1.75217e-20)
(-0.000397488 6.96168e-05 1.19663e-20)
(-0.00127787 -0.00610397 0)
(-9.88696e-05 -0.000305363 1.42452e-20)
(-6.36905e-05 3.05699e-06 9.20379e-21)
(-0.000129406 -0.000488106 -4.77131e-21)
(0.00788799 0.00141387 -7.0538e-21)
(-0.000164179 -9.37617e-05 9.05207e-21)
(0.00162635 0.00154541 0)
(-0.000261392 -0.000513699 0)
(0.00042684 -0.0036425 1.18518e-20)
(-0.00160905 -0.0026708 -3.29299e-21)
(-0.0208949 0.00115659 2.25605e-21)
(4.26384e-05 0.00013116 -3.65813e-21)
(-0.000109853 -6.94422e-05 0)
(-0.0463232 0.000931621 0)
(-0.00280601 -0.000200046 7.28232e-21)
(-6.5863e-05 -6.91422e-06 0)
(-0.00107299 -0.000823177 0)
(-0.000651496 -8.57782e-05 -9.14951e-21)
(-0.000295217 -0.000126363 0)
(-0.000225975 0.000122695 -2.24298e-20)
(0.0130356 -0.00297447 0)
(-0.00272909 0.000833506 1.56473e-20)
(-0.0162893 -0.0119095 0)
(-0.0255405 0.0231604 0)
(0.000445495 -0.00373059 5.20198e-21)
(-0.000256203 0.000139449 7.11526e-21)
(-0.0145667 0.0177796 -7.57041e-21)
(-0.00140947 -0.000922302 -1.3097e-20)
(-0.000313226 -5.40897e-05 0)
(0.000577191 -0.00282598 -1.47518e-20)
(0.0216769 0.00226419 3.31066e-21)
(-7.58433e-05 2.0047e-05 1.23521e-20)
(-4.9434e-05 -0.000659965 -4.69188e-21)
(-0.000154061 -0.000150596 -4.53541e-21)
(-0.0301001 0.00295952 -1.00677e-20)
(-0.000230285 0.000302152 -8.08159e-21)
(-6.56609e-05 1.62288e-05 0)
(-0.000111079 0.000217767 0)
(-0.000374119 8.21596e-05 -1.20473e-21)
(-0.00373007 -0.00167049 3.90976e-23)
(-0.000220493 0.000288981 0)
(0.00240703 -0.000178446 0)
(-0.000863003 0.00260708 1.93709e-20)
(-0.000231322 -0.000414923 2.10827e-23)
(0.00346802 0.00217673 7.01544e-24)
(-0.00283293 0.00092037 -1.33294e-20)
(-0.00689441 0.00651517 -2.62192e-21)
(0.0218294 0.00379995 6.33772e-21)
(0.0444966 -0.000775064 1.53848e-21)
(-0.000366347 8.33628e-05 -1.53717e-20)
(-9.42723e-05 -2.03017e-06 -8.89637e-21)
(-6.26906e-05 9.24275e-06 7.51915e-21)
(-0.00778861 0.00745065 1.24178e-20)
(-0.000100788 5.81477e-05 0)
(0.0145644 0.00666694 1.14152e-20)
(0.00979765 -0.00367203 -6.625e-21)
(-0.00145518 -0.00165907 0)
(-0.0185816 -0.000196296 -7.54091e-21)
(-0.0463527 -0.00122786 1.20472e-20)
(-0.00039536 -7.28286e-05 0)
(-1.30286e-05 -0.000163321 -5.70944e-21)
(-0.0478071 0.00075702 1.74793e-20)
(0.000309912 -0.00383937 -1.08213e-20)
(-0.000163071 3.64038e-05 9.86733e-21)
(-3.45139e-05 -5.81191e-06 -9.75828e-21)
(-0.0099873 0.00337739 9.73989e-21)
(-0.00400642 -0.0104393 0)
(0.0204039 -0.013427 0)
(-0.013173 0.00228264 2.57581e-21)
(0.00166574 -0.00420021 0)
(-0.000644043 -0.000257478 -1.00918e-20)
(0.000500417 -0.00373515 8.81346e-21)
(-0.00207626 -8.1906e-05 -3.17939e-21)
(-9.77277e-05 3.57229e-06 -1.08996e-20)
(-0.00985169 0.000673404 6.35305e-21)
(-0.0223283 0.0165685 -3.89106e-21)
(-0.00211843 -0.000566023 -3.71238e-23)
(-0.000542639 -0.00496255 0)
(-0.0209624 0.00236977 6.14494e-21)
(-0.000148113 -0.000491762 -3.07392e-21)
(-0.000998045 8.77418e-05 1.11338e-20)
(-0.000159766 -0.000257168 -5.56402e-21)
(0.000153769 -0.00230179 1.01248e-21)
(-0.000174776 3.76945e-05 0)
(-0.000804302 0.00133688 -6.54327e-21)
(-6.3054e-05 -0.00135767 -5.52871e-21)
(-0.0011787 -0.00220664 -1.1955e-20)
(-0.0162497 -0.0018808 1.57676e-21)
(-0.000205137 -0.00376049 9.3212e-21)
(0.0250995 -0.000121442 5.51267e-21)
(-0.000685091 0.000429272 3.81836e-21)
(0.0174919 -0.000128922 -2.38898e-21)
(-2.41948e-06 -2.45684e-05 1.10881e-20)
(-0.000548321 -0.000161737 -8.43408e-21)
(-0.000955243 -0.000490243 1.93557e-21)
(-0.000575014 -0.00260333 -6.32865e-21)
(-9.89286e-05 -7.10089e-05 8.56575e-21)
(-0.0019714 -0.00173831 -2.83154e-21)
(-7.25096e-05 5.83781e-06 -1.51071e-20)
(-0.00274688 0.0018274 0)
(-0.00142806 -0.00160709 5.05531e-21)
(-0.000212458 -0.000209994 -7.10552e-22)
(-7.83133e-05 -0.000101842 -1.184e-20)
(-0.00114506 -0.000136616 8.08693e-21)
(-3.83512e-05 -0.00275944 -1.63362e-20)
(-0.000406001 0.00109294 -1.07859e-20)
(-0.0030043 0.0032151 2.47173e-21)
(-0.000771925 -0.000321914 0)
(-0.0368529 0.0151826 5.3105e-21)
(0.00329759 -0.0287668 0)
(0.000467242 -0.0248479 -6.66956e-23)
(-0.000290643 -0.000148362 1.91963e-21)
(-0.00103186 -0.00140963 -1.36009e-20)
(0.00451205 0.00222649 0)
(-0.0117578 0.00760585 -3.96848e-21)
(-0.000767409 -0.000322332 0)
(-0.000169738 -0.000109571 -7.15131e-21)
(0.000422125 -0.0036096 0)
(0.00106664 0.00910553 -2.02406e-20)
(-0.000139496 -0.000334316 0)
(0.000461785 -0.00385663 -4.71867e-21)
(-1.61873e-06 -0.000141526 -1.03099e-20)
(-0.00149212 -0.0047056 0)
(-0.0028152 -0.00412891 0)
(-1.91479e-06 -0.000171512 5.96598e-21)
(-0.000162612 -0.000253668 1.48707e-20)
(-0.00306969 0.000721272 0)
(-0.0121496 -0.0216836 0)
(-0.000746873 -0.000339713 6.56907e-21)
(-0.000435379 0.00152284 -1.18119e-20)
(0.00260831 -1.9479e-05 -7.74349e-21)
(-1.93178e-06 -0.000110721 -1.02761e-20)
(-0.000591957 -0.000192044 0)
(0.0180289 0.000498818 0)
(-0.000210771 -0.000393659 1.89616e-20)
(-0.00112601 -0.0020931 0)
(-0.000211631 -0.000355224 -3.95818e-21)
(5.29573e-05 0.000206217 0)
(-0.000264562 0.000124747 4.1484e-22)
(0.00980231 0.00218577 5.9774e-23)
(7.15838e-05 0.00170223 3.39601e-21)
(-2.0055e-05 -0.000470726 -5.31302e-21)
(0.0436745 0.000804957 7.94238e-22)
(-0.000217826 -0.00016607 -5.45213e-21)
(0.000523491 0.00121923 -9.91249e-21)
(-0.00703424 0.00763272 9.42995e-21)
(1.40129e-06 -0.000430333 1.98625e-20)
(-0.0185262 -0.0128585 -7.38996e-21)
(-0.00190414 0.000663057 2.22356e-21)
(-0.000227178 0.000111865 1.64136e-20)
(-0.000179315 -0.000400456 -8.66066e-21)
(-8.7454e-05 4.68456e-06 8.18529e-21)
(0.000372802 0.00056044 0)
(-0.0154676 -0.00288422 -9.50496e-21)
(-0.030086 0.0134748 0)
(0.000140752 0.000210855 0)
(-0.0135633 0.00230425 -2.41318e-21)
(-0.017362 0.00157946 0)
(-8.55387e-05 8.43918e-06 8.38668e-21)
(-0.00692545 0.0080439 8.48827e-22)
(-0.00139246 -0.00102652 -1.64013e-21)
(-1.64043e-06 -3.6127e-05 0)
(-0.000131189 9.39857e-05 -2.44136e-20)
(-0.000378618 3.5866e-05 0)
(-0.000755952 -0.00034486 -2.05331e-20)
(-0.0154265 -0.00038172 0)
(-0.000165707 6.12346e-06 0)
(-1.44275e-06 -0.000118193 0)
(-0.00111699 -0.0021664 -4.87132e-21)
(-0.021869 0.0289912 -1.48211e-21)
(-4.6568e-05 -0.000429355 -1.61372e-20)
(0.00230817 0.000165733 9.45018e-21)
(-0.0220746 0.00943631 -7.71091e-21)
(-0.00119398 -0.0141695 -1.10095e-20)
(6.0936e-05 0.000189085 0)
(-0.000621231 0.000459203 0)
(5.24942e-07 -1.272e-05 0)
(-0.000631099 -0.000236972 -1.81166e-20)
(-0.00441818 -0.00220723 -4.75051e-21)
(-0.000135401 -0.000193446 1.59291e-20)
(-0.000507467 -0.000188568 1.00481e-20)
(-1.40937e-06 -2.54814e-05 0)
(-0.00067471 0.000919289 -1.85117e-20)
(-0.000782148 -0.000346759 1.13513e-20)
(-0.0264554 0.0284066 1.11332e-20)
(-0.00230175 0.00302091 0)
(0.0106243 0.0261309 0)
(-0.000898713 -0.000603266 0)
(-0.00101981 -0.00145042 6.71258e-21)
(0.000104453 0.00190199 -2.57485e-21)
(-0.000307559 -1.95424e-05 -4.19023e-21)
(-0.000184385 9.90384e-05 -3.96884e-21)
(-0.000320847 0.00012577 4.8527e-22)
(-0.00298814 -0.00188979 4.44383e-21)
(0.000191359 -0.00234031 5.17124e-21)
(-0.0218071 0.00167952 -1.13852e-20)
(-0.0119166 0.0064823 -2.03491e-20)
(-0.0119571 0.000741985 -6.47062e-21)
(-0.00016592 2.76678e-05 -8.97768e-21)
(-0.0147981 -0.00174843 -3.23042e-20)
(-0.000241602 0.000128545 -2.09428e-20)
(-2.89772e-05 -0.000465615 0)
(0.000174462 -0.00416872 -1.25879e-20)
(-0.000147433 -0.000240077 -9.95589e-21)
(0.00246444 -1.38217e-05 -1.37503e-20)
(-0.00178654 0.00916158 2.25555e-20)
(0.00842242 -0.000324165 -2.6229e-21)
(-0.00243771 0.000288824 0)
(0.0454756 0.00037521 0)
(-0.000147682 -0.000462879 -3.52359e-21)
(-0.00144098 -0.00101245 1.69363e-21)
(0.000420164 -0.00358749 -9.53198e-21)
(-0.00157953 0.000526234 -4.20906e-21)
(-0.0482365 0.000501476 -2.6452e-20)
(0.000698501 -0.00277844 -5.35199e-21)
(-0.000161619 9.0075e-05 -9.87072e-21)
(-0.0135774 -0.0138082 0)
(-7.23678e-08 -0.000107015 6.70386e-21)
(-0.0445072 0.00138566 7.49801e-21)
(-0.0215412 0.00143164 -1.74363e-21)
(-0.00038618 -8.03868e-05 1.24286e-20)
(-2.50088e-05 0.000276402 -2.01821e-20)
(-0.0158373 -0.0135662 1.26593e-20)
(-0.0001384 8.60224e-05 1.72529e-20)
(-0.000493439 -6.42907e-05 0)
(-0.009059 -0.00310872 -1.16109e-20)
(0.0212865 -0.000959607 1.42801e-20)
(0.000401004 1.04092e-05 0)
(0.00442919 0.0064494 -2.53053e-22)
(-0.000155226 -0.000472515 -6.11352e-23)
(-0.00078712 0.00138138 0)
(-0.000451439 -0.000146107 -7.7414e-21)
(-0.00046221 -0.00193954 -1.14845e-22)
(-0.000180054 8.26194e-05 -3.77811e-21)
(-0.0177652 -0.00418462 1.22146e-20)
(-0.00197349 0.000711747 -2.94234e-22)
(-0.000265767 -0.000299457 8.27077e-21)
(-0.0176849 0.00120311 0)
(-0.00768552 0.00370913 0)
(0.000173196 -0.0123176 -5.93754e-21)
(5.9291e-05 0.00173801 3.59571e-21)
(-7.53747e-05 -6.8127e-05 6.53159e-22)
(-4.3405e-05 -7.6745e-06 -4.4263e-21)
(0.0193478 0.00712078 -7.67215e-21)
(-0.0010184 -0.000269868 -2.17712e-23)
(-0.000735034 -0.000232695 -1.70666e-20)
(0.00778709 -0.00862487 -1.56772e-21)
(-0.0185604 -0.00534104 0)
(-0.00196602 0.000528444 0)
(-6.1714e-09 -5.15465e-06 -1.0403e-20)
(-5.86002e-05 -3.40543e-06 8.84801e-21)
(-0.0010412 -0.000755393 0)
(-0.000230227 0.000280812 1.49725e-20)
(-0.0206871 0.0197447 -1.2011e-20)
(0.00248076 -0.00207727 1.40397e-20)
(0.000384313 -0.00448184 0)
(-0.000158628 -0.000394086 1.90227e-21)
(-0.00109159 -0.00512094 -4.15467e-21)
(-0.000330307 0.000111453 8.09981e-21)
(-0.0322903 0.00728097 1.65607e-20)
(-0.00123971 -0.000516012 0)
(-0.0083862 0.00725396 -1.84719e-20)
(-0.00108726 -0.00137854 0)
(-0.0186393 0.000349961 -1.45746e-20)
(-3.8006e-05 -0.000454485 3.06271e-22)
(-0.00140559 0.000605406 -2.08354e-20)
(-0.0162331 -0.000681104 -7.42641e-21)
(-0.000425527 0.000903062 2.6853e-22)
(4.26692e-05 -0.00279588 1.12972e-20)
(0.0254882 0.00714461 6.80896e-21)
(-0.000511863 -0.000176901 0)
(-0.000946551 -0.00437875 0)
(1.95745e-05 0.000905602 -5.76469e-21)
(-0.00692762 0.00781709 -9.72789e-22)
(-0.000260531 -0.000873685 -7.19854e-21)
(-0.000101258 5.4095e-05 -1.29479e-20)
(0.00837811 0.00549125 1.03481e-20)
(-1.8811e-05 -0.000468717 0)
(0.00012048 0.000275001 0)
(-0.00144827 0.00133482 1.31912e-20)
(-0.00836086 -0.000782622 0)
(-0.00361053 -0.00955673 0)
(-0.0122104 -0.000509561 0)
(-0.000922766 -0.00052714 0)
(-6.19682e-05 -0.000225181 -1.10495e-20)
(-0.0431476 -0.00394105 0)
(-0.0115318 0.0235945 -2.31961e-20)