/*--------------------------------*- C++ -*----------------------------------*\
| =========                 |                                                 |
| \\      /  F ield         | OpenFOAM: The Open Source CFD Toolbox           |
|  \\    /   O peration     | Version:  v2012                                 |
|   \\  /    A nd           | Website:  www.openfoam.com                      |
|    \\/     M anipulation  |                                                 |
\*---------------------------------------------------------------------------*/
FoamFile
{
    version     2.0;
    format      ascii;
    class       surfaceScalarField;
    location    "100";
    object      ddtCorrDdt0(phi);
}
// * * * * * * * * * * * * * * * * * * * * * * * * * * * * * * * * * * * * * //

dimensions      [0 3 -2 0 0 0 0];
oriented        oriented;


internalField   nonuniform List<scalar> 
41211
(
1.03908e-05
6.61153e-05
-7.65042e-05
4.69667e-06
-4.69582e-06
3.70253e-05
-7.77031e-05
4.06794e-05
-4.48048e-05
0.000236708
-0.000191909
-0.000116926
9.30351e-05
2.38923e-05
-0.000754586
0.000216483
0.000538093
-7.85831e-05
-3.83426e-05
7.61747e-05
4.38114e-05
-0.000119988
-6.11869e-05
-4.66023e-06
6.58488e-05
-0.0013283
0.00172749
-0.00039919
0.00105445
-0.000538231
-0.000516197
-8.91761e-05
-0.000105802
0.000194954
-6.62977e-05
-5.18465e-05
0.000118147
-0.000192767
3.9627e-05
0.000153155
-0.000529909
-0.00015883
0.000688736
0.000158528
-0.000192594
3.41804e-05
-5.3291e-05
0.000200847
-0.000147554
-7.51754e-05
1.39899e-05
0.000591597
0.000462861
0.000215603
-0.000767769
0.000895545
-0.000127766
0.000111484
-0.000641379
-9.53028e-05
5.14267e-05
4.38774e-05
0.000209713
0.0002255
-0.000435227
0.000137108
-0.000254529
0.000117424
-0.000145573
0.00012788
1.76939e-05
-5.03943e-05
7.57098e-05
-2.53158e-05
0.000144723
8.13413e-05
-0.00022606
3.24159e-05
-1.76329e-05
-1.47821e-05
7.27794e-05
-2.29122e-05
-4.9822e-05
0.000392991
-0.000183281
-7.20768e-06
-6.73454e-05
7.45501e-05
7.5232e-05
-6.48406e-05
-1.4301e-05
3.23273e-05
-1.80265e-05
0.0001791
-0.000180563
1.46572e-06
-0.000399133
0.000399132
8.0306e-06
-0.000104183
5.31839e-05
-3.62173e-05
-1.69677e-05
-1.02478e-05
-0.000105421
0.000115669
-1.14318e-06
-7.30675e-05
-0.000190642
0.000101435
0.000162178
1.69244e-05
0.000189197
2.32365e-05
-0.000212424
-1.78938e-06
-4.01705e-05
4.19653e-05
0.000168912
-6.79203e-05
-0.000100985
0.000732288
-0.000740628
-8.3748e-06
-8.8212e-06
1.71946e-05
0.000142212
9.32143e-05
-0.000235432
0.000150527
-0.000150529
0.00102039
2.59656e-05
-0.00104637
-0.000136644
0.000459585
-0.000322928
1.70661e-06
-0.000147279
-0.000435464
-0.000110401
0.000545857
0.000176546
1.20573e-05
-0.000188691
0.000100555
-0.000100331
-2.26006e-07
-1.68367e-05
2.03053e-05
-3.46799e-06
-0.000644906
-0.000274723
0.000919709
-9.6487e-05
6.79103e-05
2.85764e-05
9.61953e-08
0.000107887
-0.000107981
-5.27764e-05
-6.26021e-05
0.000115376
-0.000726982
0.000789208
4.79286e-05
-7.58311e-05
2.7902e-05
5.94184e-05
6.971e-05
-0.000129124
-1.76374e-05
2.72235e-05
-9.58563e-06
-9.36368e-06
4.78513e-05
-3.84862e-05
0.00011933
-4.53874e-05
-7.39401e-05
0.000531455
-0.000896563
0.000365198
0.000351534
-0.000996411
-8.85934e-05
3.58131e-05
-2.56568e-05
-5.75776e-05
8.3233e-05
-3.63548e-05
3.45683e-05
-0.00103328
0.000470561
0.00056272
0.000153156
0.000354174
-0.000507327
0.000291124
0.000471112
-0.000762275
8.45854e-05
-4.9987e-05
-3.4593e-05
-0.000121026
0.000172432
-5.14075e-05
0.00115912
-0.000627625
-0.000107592
2.26467e-05
8.49759e-05
0.00138271
-0.0014626
0.000550123
-0.000550122
1.42989e-05
1.81176e-05
-4.09057e-08
-6.13802e-05
6.14214e-05
0.000140356
-0.000184908
4.45667e-05
0.00011012
-2.57188e-05
-8.43979e-05
6.7389e-05
-9.87323e-05
3.13449e-05
0.000254539
-0.000210751
-4.37879e-05
2.61698e-05
-9.80045e-06
-1.63683e-05
0.000420767
-0.00156289
0.00114211
0.000571561
-4.40346e-05
1.34546e-05
-0.000119836
0.000106381
0.000109226
-7.24772e-05
-3.67478e-05
-0.0012815
0.00139045
-5.1674e-05
5.6624e-05
-4.94828e-06
7.27949e-05
9.50274e-05
0.000413074
-0.0005081
-0.000281465
9.26175e-05
0.000188847
5.82586e-05
-5.83e-05
-2.69626e-06
-0.000227121
0.00022982
2.54317e-05
-2.73754e-05
1.94721e-06
0.00205262
-0.000900111
-0.00115246
0.000102587
-0.000112833
-5.05351e-05
-1.71235e-06
5.22452e-05
0.000159442
-0.000235878
7.63858e-05
6.44079e-05
-0.000791386
-0.000551402
0.000704551
-8.0695e-05
0.000140113
0.000136163
1.09389e-05
-0.0001471
-4.95334e-05
-1.05827e-05
0.000111137
7.52861e-05
9.36292e-05
-2.03036e-05
0.000178926
3.59339e-05
7.32935e-05
-3.82769e-05
2.39775e-05
-2.90496e-05
2.32499e-05
5.8022e-06
0.000162624
-2.6459e-05
-8.07375e-06
-1.75106e-05
2.55841e-05
-0.000123435
0.000126017
-2.58176e-06
0.000174071
1.71172e-05
-0.000191237
0.000813339
0.000139629
-0.00095298
0.000221964
-8.48394e-05
-0.000338655
0.000504316
4.65557e-05
-0.000109161
0.000325273
0.000481746
-0.000807011
0.000175408
-1.38563e-06
-0.000543634
0.000606099
-6.21933e-05
-6.04476e-05
-0.000115933
0.000176351
-8.58631e-05
0.000112102
-2.62378e-05
0.000140695
-0.000238025
9.73311e-05
-8.66232e-05
-9.93843e-05
0.000186035
2.96684e-05
1.41236e-05
-4.37887e-05
0.000157992
0.000458092
-0.000616088
0.000123406
5.47089e-05
-0.00017811
8.02944e-05
-8.15726e-05
1.27882e-06
7.26049e-05
-6.76261e-05
-4.97465e-06
5.91137e-05
4.71488e-05
-0.000106235
0.000244673
-9.38751e-05
-0.000150794
-0.000166397
0.000148744
1.76404e-05
-0.000165459
-2.73023e-05
4.70257e-06
-2.63567e-05
2.16573e-05
3.69645e-05
4.33292e-05
0.000164656
-0.000125024
0.000302918
-0.00163121
6.51565e-05
-0.00013603
7.08712e-05
-0.000130938
0.000136864
-5.925e-06
2.74812e-05
2.57005e-05
-0.00126805
0.000228236
0.00103981
0.000121054
-0.000125898
4.84383e-06
-0.000411888
0.000170393
0.000241496
0.000143267
-1.1685e-05
-0.000131579
0.000148866
0.00190372
0.000151391
-0.000142947
-8.44345e-06
-0.000181547
0.000342728
-0.000161164
0.0002575
-6.82975e-05
0.000191732
0.000362012
-0.000553736
-2.81318e-06
1.23418e-06
1.57959e-06
-0.00130664
0.0017121
-0.000405455
9.23444e-05
0.000152331
-0.000229796
-5.16674e-05
8.19265e-05
-3.17419e-05
-5.01792e-05
-0.000122276
0.000168113
-4.58362e-05
-2.5711e-05
6.53076e-05
5.40232e-05
0.000432452
-0.000164663
-0.000267773
-5.13446e-06
5.07542e-05
-4.56187e-05
-4.61015e-05
3.77039e-06
4.23318e-05
-1.04343e-05
1.32563e-05
-2.8216e-06
-0.000642316
-1.2945e-05
0.000655257
8.63638e-05
-4.11517e-05
-4.52123e-05
-5.24519e-05
8.94164e-05
-7.30004e-06
-6.2729e-05
7.00261e-05
0.000123328
-1.94084e-06
-0.000121375
0.000771059
-0.000452593
-0.000318465
0.000256877
-0.00030958
5.27055e-05
0.000451988
-0.000488561
3.72945e-05
-6.97438e-05
9.8678e-05
-2.89283e-05
0.000713181
-0.000825615
0.000112425
5.19453e-05
0.000498183
0.000380471
-0.000220871
-0.000159661
7.58223e-06
-2.5093e-05
-0.000114402
0.000125341
7.51105e-05
-0.00021375
0.000138658
-0.00128772
0.000133541
0.00115416
0.000637761
-0.000637418
-3.42752e-07
-0.00101172
-9.0789e-05
0.00110251
-2.60163e-05
7.42874e-05
-4.82679e-05
0.000150947
-0.000114294
-3.66463e-05
-0.000167852
-0.000206291
0.000374145
0.000186715
-6.47162e-05
-0.000121985
0.000531877
-0.000789973
0.000258096
0.000125068
-0.000131101
6.02874e-06
2.94026e-06
-0.000334
0.000331068
-1.91402e-05
1.914e-05
7.45953e-05
-3.79199e-05
-3.66776e-05
0.000985223
0.000547864
-0.00153304
-9.65025e-05
-7.93584e-06
0.000104442
-0.000105177
-7.63745e-05
-0.00130663
-0.0013949
0.000987673
0.000407205
-0.000522077
0.00150731
-0.000983494
-0.00151226
0.00249576
-5.95588e-05
0.000168055
-0.000108504
-0.000152183
2.99076e-05
-1.46613e-05
-6.02225e-05
7.48853e-05
4.3911e-08
-0.000123478
0.000394837
-0.000391883
-0.000287608
7.20616e-05
0.000215544
5.28665e-05
3.34971e-05
2.20049e-05
-6.66772e-05
4.4674e-05
9.24625e-05
-1.23982e-05
-8.00645e-05
-1.8535e-05
-4.24436e-05
6.09802e-05
0.000135833
7.43411e-06
0.000683109
0.00131756
-0.00200067
0.000167984
-0.000212786
0.000367588
-9.10875e-05
-0.000276511
3.76644e-05
4.42619e-05
-7.76329e-05
2.72367e-05
-0.000508366
0.000666354
6.55185e-05
-8.39785e-05
1.84587e-05
0.000127979
-8.0168e-05
-4.78088e-05
-1.6563e-05
-2.57871e-06
-0.000547279
0.000108837
-8.36408e-05
-2.51948e-05
7.2688e-05
5.95868e-05
-0.000132274
0.00116395
-0.00119479
3.09208e-05
-0.000127567
7.78488e-05
4.97198e-05
0.00026683
0.00100779
-0.00127461
8.15742e-05
1.85786e-05
-0.000100152
-0.00021866
-0.000193229
4.94928e-05
-2.01725e-05
-2.93254e-05
-7.19847e-05
-5.55811e-05
2.16574e-05
-2.92225e-05
7.56716e-06
-4.07117e-05
0.000126959
-8.62462e-05
0.000474361
0.000575863
-0.0010502
-0.000167391
1.22241e-05
0.000155171
-1.65634e-05
0.000160664
-0.000142064
-1.86089e-05
-0.0001562
-1.02005e-05
0.000101869
-0.0001711
6.92239e-05
-0.000115012
2.91493e-05
0.00014727
-0.000193341
4.60362e-05
0.000344526
4.52666e-05
-0.000389809
-0.000164293
0.000675133
-0.000510842
-0.00122547
-6.22474e-05
0.00114808
-0.000796641
-0.000351411
-0.000475519
0.000656853
-0.000181326
8.40705e-05
-0.0001953
0.000111231
4.99237e-05
-8.94183e-05
3.94934e-05
-0.000124344
0.000266507
-5.77572e-05
-1.87622e-05
1.92589e-06
-0.000823867
0.00049058
0.000333292
-2.6788e-05
-1.47477e-06
2.82638e-05
0.000230995
-9.02336e-05
-0.000140758
-1.2865e-06
-6.42466e-05
6.55407e-05
0.00133823
-0.000917485
-0.000696467
0.0010577
-0.000361246
-0.00017579
0.000257324
-8.15312e-05
2.37766e-05
5.05472e-05
-7.4332e-05
2.46818e-05
6.00879e-05
-8.4762e-05
4.27499e-05
4.18343e-05
2.77853e-06
-3.34379e-05
3.06602e-05
-7.12165e-05
-0.000704426
0.000775653
-0.000143246
0.000956577
-0.000235118
0.000766996
-2.52803e-05
-6.31579e-05
8.84375e-05
7.85793e-05
-6.80296e-05
-1.05464e-05
-8.86718e-05
-2.7293e-07
0.000178917
-2.79723e-05
0.000451606
6.78699e-05
-7.50815e-05
-2.40829e-05
-6.59026e-05
8.9995e-05
5.91383e-05
8.96976e-05
-0.000148834
-0.000574048
9.85315e-05
-4.94292e-06
-4.08389e-05
4.57827e-05
-3.20525e-05
5.26497e-06
-5.21225e-06
0.000181955
-5.85434e-05
-3.92703e-05
5.4156e-05
-1.48839e-05
4.4952e-05
-6.91095e-05
2.4158e-05
-0.00108503
0.000288407
-1.56828e-05
8.29142e-05
-6.72295e-05
0.000106201
-0.000104033
-2.15838e-06
-9.94304e-06
-0.000147931
0.000157887
-0.000410035
0.000701152
6.26172e-05
-0.000230467
0.000180754
3.20779e-05
-0.000212832
0.000273137
0.000107257
6.39911e-05
-2.19054e-05
-4.20854e-05
0.000176477
-9.54902e-05
-8.09875e-05
-0.000281427
0.000473134
0.000183833
2.94086e-05
-0.000213233
-0.00161022
-1.97041e-05
0.00162993
0.000978846
-0.000433423
-0.000545422
0.000103335
-0.000103237
2.60418e-05
2.34476e-05
-0.000109794
6.31e-05
4.66948e-05
6.1173e-05
-7.68539e-05
5.912e-05
-1.78981e-05
4.51327e-05
0.000122728
8.02668e-05
8.86912e-05
3.99529e-05
-0.000128639
0.00106423
-2.92537e-05
-0.00103499
0.000137926
-0.000111229
-2.66291e-05
-0.000459144
0.000569439
-0.000110295
-6.01894e-05
2.09193e-05
-0.000224416
-0.000399159
0.000623575
5.85198e-05
-8.41773e-05
-0.000381672
0.000866795
-0.000485128
6.74535e-05
-6.14395e-05
-6.01783e-06
0.00101966
-0.000643797
-0.000375878
0.000106149
-0.000219025
0.000112873
0.000115235
-7.18872e-05
-4.33532e-05
-3.95326e-05
-5.69541e-05
7.68751e-05
0.000290707
-0.000254482
0.000167858
0.000233782
-0.000155841
-7.7946e-05
-1.38109e-05
3.11695e-05
-1.73581e-05
0.000216884
-7.21602e-05
0.000204029
-9.55778e-05
-0.000108445
2.39701e-05
4.34798e-05
-5.91499e-05
-8.97586e-06
6.81292e-05
-0.000769556
-0.000197934
0.000967453
0.000219468
0.000844761
-0.00101437
3.46818e-05
0.000979665
-6.07389e-05
9.06618e-06
0.000177562
-3.71985e-05
-0.000167153
0.000159623
7.52924e-06
0.00100743
-0.00199092
3.72397e-05
-3.44605e-05
-0.00105721
4.54933e-05
-4.88035e-05
2.7123e-06
4.60918e-05
-0.000129012
-2.31715e-05
0.000140944
-0.000910516
0.000224174
-0.0001491
-1.94435e-05
0.000101018
4.51869e-05
-0.000112386
6.71991e-05
0.000107357
-9.39018e-05
-0.000156883
0.000263033
1.78634e-05
-0.000138889
-3.24795e-05
7.53297e-05
-4.28485e-05
0.000288272
2.22036e-05
-0.00031048
0.000107079
-7.18581e-05
-3.52239e-05
-7.38055e-06
0.000191228
4.06962e-05
-5.18756e-05
1.12813e-05
-8.43764e-05
-0.00031476
0.000218446
-0.000174372
-4.40633e-05
-7.36598e-05
4.61451e-06
6.90463e-05
-0.00010427
0.00018834
7.96842e-05
-7.84709e-05
-1.21205e-06
0.000152628
2.62814e-05
-0.000162002
4.77107e-05
5.30465e-05
-6.31938e-05
1.0148e-05
-4.27093e-05
6.64859e-05
4.13314e-05
5.33106e-05
-9.46395e-05
4.2139e-05
-6.06742e-05
5.19278e-05
-5.92253e-05
-1.14979e-05
-6.75109e-05
7.90091e-05
-0.000399833
0.000468057
4.21934e-05
-3.25626e-05
-9.63032e-06
-0.000781629
0.00104847
-0.000303788
0.000101314
0.000202493
-0.000446641
0.000309989
4.43103e-05
-4.97302e-05
5.42309e-06
-3.79143e-05
7.90219e-05
-4.11064e-05
-9.21398e-05
5.42257e-05
0.000590385
-0.000754676
5.70859e-05
6.90573e-06
-0.000189137
0.000227265
-3.80821e-05
3.98866e-05
-1.38504e-05
0.00098424
-0.000509864
2.48806e-05
-3.57695e-05
1.08838e-05
7.40914e-05
-1.48434e-06
-0.000134403
0.00013491
-5.06984e-07
6.85076e-05
-6.97893e-05
-3.06401e-05
-4.58871e-05
7.6527e-05
-0.000165131
0.000105577
8.14592e-05
-3.80802e-05
-4.33785e-05
0.000564119
-0.000929649
0.000365537
-6.55844e-06
-5.31854e-05
5.97418e-05
9.52708e-05
2.57809e-05
-0.000148217
1.92053e-05
0.000122036
-4.93477e-05
-1.42477e-06
-1.51389e-05
5.53263e-05
2.46847e-05
-8.00117e-05
0.00010004
-3.36328e-05
0.000166012
-0.000161656
-4.36014e-06
-0.000330152
1.53455e-05
0.000314806
-6.86815e-06
0.00066336
-0.000656498
-0.000199501
8.76735e-05
0.000111829
-5.37673e-05
0.000111531
-5.77636e-05
0.00072499
0.000914683
-0.00163959
-9.52813e-05
0.000129439
-3.41529e-05
3.36426e-05
-8.26613e-05
4.90201e-05
0.000162765
-6.0898e-05
0.000132742
-8.16217e-05
-5.11183e-05
-0.000170882
0.000152359
1.8526e-05
-0.00179044
0.00112171
0.000668716
-0.000125638
-0.000628952
0.00121227
0.00053791
-0.00175017
-8.35118e-05
-1.7068e-05
0.000100579
-6.80091e-05
0.000524873
-0.000456838
-1.84472e-05
3.28441e-05
-1.43962e-05
1.00922e-05
-5.84854e-05
4.83944e-05
-0.000325789
0.000801247
-0.000475449
5.96382e-05
5.55893e-05
-4.67518e-05
-1.34362e-05
8.33422e-05
-9.70408e-05
1.37022e-05
0.000486884
-0.000711297
-0.000223228
0.00013649
8.67382e-05
6.46341e-05
-1.96812e-05
-7.53644e-05
-5.47993e-05
0.000130163
-0.000132498
0.0017785
-0.00164601
-0.000564351
-0.00172966
0.000253654
0.00147599
-0.00157708
-2.84159e-05
-3.63607e-06
0.000177877
0.00025458
1.3752e-05
-6.42879e-05
0.000907713
0.000819758
0.000281621
-0.000135869
-0.000145752
3.80908e-05
2.62133e-06
-1.46748e-05
1.4675e-05
3.02543e-05
-7.58291e-05
0.00014802
-7.21902e-05
-0.000200454
4.70899e-05
0.000153368
3.60024e-05
0.000115388
4.78772e-05
-0.000101644
8.07289e-05
4.72501e-05
-0.000155274
0.000139809
1.5449e-05
2.38091e-05
-1.91033e-05
9.02605e-05
-4.20089e-05
-4.82502e-05
0.00116376
1.95923e-07
-0.000197591
-0.00035153
0.000549138
-0.000128255
5.11605e-05
7.70995e-05
2.73303e-05
4.52427e-05
-7.25802e-05
0.000126779
-8.29656e-05
-0.000199043
0.000121884
7.7153e-05
-0.000239108
-0.000584758
7.97091e-05
-4.60658e-05
2.44044e-05
-0.000134059
0.000109649
0.00037894
0.000392117
0.000147277
-2.2883e-05
-0.000124395
3.43232e-05
4.71365e-05
-0.000137231
6.18652e-05
-1.53024e-05
0.000196057
0.000127979
-0.000157428
2.94483e-05
3.76519e-05
8.11811e-05
-0.000118834
-7.39159e-06
-3.58668e-05
7.45151e-06
-9.28579e-05
0.000382451
-0.000289592
0.000991132
-7.79858e-05
0.000115638
-3.12347e-06
-5.30599e-05
5.61839e-05
-0.000681494
0.000613503
-0.000176803
0.00015681
1.99944e-05
-0.00200908
0.00113986
0.000869247
-2.76835e-06
9.68085e-05
-2.94185e-05
0.000123752
9.46984e-05
0.000475361
0.000663123
-0.00113858
7.49295e-05
-8.75712e-05
1.26456e-05
2.34978e-05
1.63861e-05
0.00161003
-0.000777542
-0.000832501
6.94001e-06
8.97706e-06
-1.59172e-05
0.000175968
0.000207147
-0.000383113
0.000753838
-0.000614219
-1.61304e-05
1.46441e-05
-4.75678e-05
3.29238e-05
-0.000852928
0.000135363
-0.000145299
-7.67364e-05
-0.00012231
0.000456626
-4.64037e-05
0.000176218
-0.000129849
2.18956e-05
8.82251e-05
0.000163548
-0.000126034
-3.75118e-05
-1.91406e-05
2.67223e-05
-0.0013915
-0.000306765
0.00169826
-5.44131e-05
7.66261e-06
0.000170921
-0.000160111
-1.0813e-05
-8.45927e-05
4.42348e-05
4.03594e-05
9.8557e-05
0.000183065
0.000550695
-0.000171827
-0.00037884
-0.000294284
-0.000668255
0.000962579
-5.48703e-05
5.17475e-05
1.66979e-05
-0.0001311
0.000166788
-3.88132e-05
6.93997e-05
-3.87833e-06
5.38844e-05
-8.45245e-05
-3.28846e-05
6.97682e-05
-3.68834e-05
8.46756e-06
3.37256e-05
0.000467712
-8.88835e-05
-0.00037883
-0.000211165
0.000338778
-0.000127612
-1.33164e-05
0.000160569
-0.000403472
0.000533154
-0.000129633
-1.06253e-05
2.6802e-05
-1.61754e-05
0.000172884
-6.74018e-05
-0.000105475
0.000660338
0.00107527
-0.0017356
-8.85126e-07
8.42294e-05
0.000151234
-0.000168869
1.764e-05
4.06229e-05
3.6888e-06
5.95388e-06
2.02163e-05
-0.00126415
0.0020888
-0.000824636
0.000800732
-8.75508e-05
-9.89438e-05
0.000129724
-3.07766e-05
9.87368e-05
0.000105295
-0.000786914
-0.000832797
0.00161973
9.39854e-05
-2.90342e-05
-6.49503e-05
0.000549739
-0.000642601
1.98593e-05
2.07822e-05
-4.06416e-05
-8.67128e-05
0.000210091
-0.000123263
-0.000108349
4.2056e-05
-7.34321e-05
4.05471e-05
-8.09772e-05
4.44166e-05
3.65708e-05
-2.7973e-05
0.000107302
-7.93282e-05
-8.25326e-05
-1.20904e-05
-6.15241e-05
0.000205533
-0.000296622
9.20154e-05
-1.01449e-05
-8.18671e-05
0.000158726
0.000385487
-0.000544216
-8.16845e-05
-0.00156722
0.00164896
-0.000225853
4.46563e-05
-3.00112e-05
7.81332e-06
3.68436e-05
0.000482124
-0.000552862
7.07273e-05
-0.000105228
0.000158107
-5.28669e-05
-5.84992e-05
3.84303e-05
2.00708e-05
-5.47194e-05
-6.24625e-05
0.000117183
-0.000141192
3.1415e-05
0.000109774
0.000244071
-0.000244075
-0.000119657
0.000167771
-4.8111e-05
0.000955885
-0.000630621
6.0824e-06
8.59346e-05
-5.50415e-05
7.97277e-05
0.00014154
-0.000187988
6.46381e-05
2.93478e-05
7.89826e-06
1.16129e-05
-1.95104e-05
-5.89801e-05
6.13929e-05
-2.40735e-06
0.000478289
-0.000308797
-0.000169497
-5.80436e-05
-3.33631e-06
8.69646e-05
5.21195e-05
-5.86816e-05
0.000144588
-0.000120572
-2.40189e-05
0.000125373
-0.000185817
0.000691394
-0.000760022
6.86275e-05
3.56254e-05
-5.95642e-06
-2.07945e-05
-2.6773e-05
0.00187263
-0.000288586
9.77946e-07
-1.1919e-05
-8.88515e-06
2.08038e-05
4.59001e-05
-0.000124094
7.81898e-05
7.20412e-05
6.07023e-05
0.000105736
-6.96609e-05
-3.6074e-05
-6.33427e-05
5.14404e-05
1.19037e-05
0.000350026
-0.000520155
0.000170139
-0.000317019
0.000255379
6.16406e-05
-0.00067428
0.00114962
0.00153117
-0.00166364
-0.000102458
0.000154557
-5.21052e-05
-7.32553e-05
-4.04054e-07
-0.000624127
-0.000409145
-0.000147379
4.21554e-05
-5.26484e-05
8.26249e-05
-2.99706e-05
2.31174e-05
0.000141545
0.000751302
-0.000600976
2.5807e-05
-3.33511e-05
7.5453e-06
3.98578e-05
8.25646e-05
-0.000122421
-6.56564e-05
-7.72799e-06
7.33835e-05
-0.00149676
0.000709892
0.000110975
-5.83249e-05
-5.26482e-05
-2.66161e-05
7.47556e-06
-4.13484e-05
-5.39531e-05
5.91334e-05
-8.4414e-05
-0.000230112
4.09758e-05
-4.81089e-05
0.000100602
-5.24902e-05
-8.83228e-05
6.42576e-05
-5.30061e-05
0.000309953
-0.000256947
-5.47719e-05
-6.39101e-05
0.000118682
3.20032e-07
-0.000330475
-0.000235043
-8.19762e-05
7.63059e-05
-0.000337244
0.000260967
-0.000811979
0.000430307
0.00156353
-0.0015009
-2.21587e-05
9.70865e-05
1.30785e-05
-3.4169e-05
2.1092e-05
1.36437e-05
-2.42683e-05
-0.000541623
0.000308866
0.000232763
4.45013e-05
1.31362e-06
-4.5814e-05
-0.000671869
0.000212722
-0.000607124
0.000481485
-1.97904e-05
-0.000122647
0.000142443
0.000646471
-9.19728e-05
-0.000554488
0.00163028
-0.00169936
6.90765e-05
8.27787e-05
-2.23953e-05
-6.03818e-05
4.05882e-05
-3.61599e-05
-4.42446e-06
-0.0012342
0.00177209
-0.000129029
-0.000175666
0.000304627
2.25161e-05
-6.05837e-05
3.80681e-05
8.88885e-06
3.58367e-06
-1.24718e-05
0.000456981
-2.72656e-06
-0.000454254
-0.000852014
0.000753016
9.90125e-05
0.000591364
0.00101867
-0.000576297
0.000360261
0.000216031
-0.000181203
-3.63057e-06
3.4901e-05
7.54128e-05
-0.000110312
-2.00417e-05
0.00015237
-0.000132326
9.24627e-05
-4.0976e-05
3.97706e-05
1.20583e-06
6.53155e-05
0.000345841
-0.000411156
0.000716338
-0.00101056
-5.35555e-05
0.000218139
-0.000164581
-3.39099e-05
0.000722738
-0.000992071
0.000269331
-6.70417e-05
8.0631e-06
-2.45355e-05
7.3666e-05
-4.9121e-05
-0.000108435
6.5606e-05
4.28301e-05
8.89356e-05
-0.000158584
6.96486e-05
1.88756e-05
3.68852e-05
-5.57603e-05
-0.000189353
-1.94576e-05
0.000208811
0.000125038
-8.15289e-05
-4.35085e-05
0.00011229
5.04698e-05
0.000448761
-0.000852223
0.000194118
-0.000323158
-0.000669478
-0.000297867
0.000967343
7.97258e-06
0.000139303
0.000515304
-0.000419711
9.70254e-06
-7.93738e-06
-1.7651e-06
-2.38025e-05
9.40623e-05
-7.02596e-05
-0.000135494
-0.000167473
0.000163795
3.67628e-06
3.17993e-05
-4.04926e-05
8.69505e-06
0.000146317
2.46015e-05
-2.39374e-05
1.01271e-05
0.000317669
-0.000141701
-0.00014106
0.000121273
1.7056e-05
-8.67974e-05
2.27484e-05
1.55484e-05
-3.82966e-05
0.000101303
4.14206e-05
-0.000142725
0.000209108
-9.14026e-05
-0.000117707
-1.81714e-05
0.000139173
-0.000120999
-0.000269915
0.000120051
0.000149837
0.000142483
-8.71378e-05
-5.53437e-05
-0.00165198
0.0015703
0.000129559
-0.00185929
-0.000852219
0.00157721
3.94516e-05
6.62821e-05
0.000155171
-0.000142882
-1.22892e-05
-6.13921e-05
0.000349652
-0.000125147
-0.000463915
0.000589061
5.65303e-05
8.59535e-05
5.88003e-05
-5.42573e-07
4.21317e-05
0.000655664
6.39082e-05
-0.000719565
-0.000117842
7.56446e-05
4.21974e-05
-0.000152443
0.000132398
5.06966e-05
-4.92603e-05
-1.43608e-06
-8.21909e-05
-0.000117351
0.00019948
-0.000232265
0.000145568
-1.2511e-06
-5.52489e-05
5.65029e-05
-6.77218e-05
-4.07125e-05
-0.000235863
7.4538e-05
0.000161325
-0.00170575
0.00031425
-0.000138107
8.70514e-05
5.10564e-05
-9.98495e-05
0.000261336
-0.000161485
-4.20873e-05
-6.54808e-05
4.92715e-05
0.000105824
-8.39291e-05
0.000565863
-0.000543119
-8.90903e-05
3.34207e-05
5.56689e-05
0.00016819
6.55873e-05
-8.89059e-05
6.09339e-05
9.39952e-06
-5.71019e-05
4.77001e-05
8.2606e-05
-2.11665e-05
-6.14389e-05
0.000131013
-0.000391248
0.000260244
-0.00026056
3.8964e-05
0.000221599
0.000169808
-0.00017874
8.94054e-06
0.00154478
-0.000162065
-8.64847e-05
2.85942e-05
5.78942e-05
0.000245556
-0.00018368
0.000432755
-0.000356447
0.000154214
-0.000141988
0.000919678
9.997e-05
-0.000306891
0.000111258
0.000195632
-4.65763e-05
-1.67652e-05
4.04019e-05
3.4194e-05
1.7219e-05
-3.20171e-05
1.47971e-05
1.6073e-05
-6.5887e-06
-9.48212e-06
-0.000352641
-0.000232755
0.000585395
-0.00128909
-0.00071998
-3.70166e-05
-0.000494694
-8.16017e-05
-0.000594029
-3.98449e-05
0.00063387
3.29353e-05
-1.57156e-05
-0.000386131
0.000545874
-0.000159694
-0.000173382
0.000145482
2.79083e-05
-9.74259e-06
1.53867e-05
-5.64334e-06
4.76811e-05
-5.28154e-05
3.01856e-05
6.00762e-05
-6.8993e-05
-6.91138e-05
0.000464388
-7.58575e-05
-0.000388533
-6.02546e-05
3.55868e-05
2.46688e-05
-3.45962e-05
3.33451e-05
-5.04783e-05
0.000162771
0.00133931
-0.00220679
0.000867464
-2.44443e-05
-9.55153e-05
7.48232e-05
2.06904e-05
-0.000937292
0.000794038
-0.000736996
0.000581241
0.000155769
-4.04753e-05
4.98727e-05
-0.000135544
1.14073e-06
2.18753e-06
2.50937e-06
7.28454e-05
-9.85633e-05
0.000367689
-0.000420689
5.30017e-05
8.09404e-05
-3.10181e-05
-6.77488e-05
8.2392e-05
-1.4641e-05
-1.10856e-05
1.34345e-06
0.000204294
-6.78018e-05
-1.51916e-05
0.000118324
-0.000103131
0.000999685
-0.00199316
0.000993477
-0.000155198
-9.93371e-05
-0.00145495
0.00179451
-0.00033955
-7.79357e-05
-5.01827e-05
0.000128118
2.31924e-05
0.000131979
0.000160614
-0.00016331
4.65427e-05
6.19224e-05
-2.25571e-05
-3.93698e-05
4.56463e-06
7.29782e-05
-7.75422e-05
-0.00014338
0.000207432
-6.40943e-05
0.000146911
-5.7975e-05
0.00102588
-0.00030314
0.000291003
-0.00041615
0.000500199
-0.000434883
-3.77384e-05
0.000547217
-6.5088e-05
-1.47022e-05
-4.4237e-05
5.89398e-05
0.000147703
-0.000162258
1.45551e-05
0.000171832
-8.24622e-05
-8.93801e-05
-4.39444e-05
-4.05764e-05
8.45222e-05
-0.000111274
0.000111291
-0.000151655
0.000630017
-0.000478206
-0.000386613
0.00038661
-5.94363e-05
7.85119e-05
-1.90924e-05
0.000968063
-0.00131847
0.000350381
-0.00013813
0.000102368
3.57636e-05
-1.52718e-05
1.3767e-05
-0.000134336
0.000140123
0.000114416
-0.00160042
0.000366213
0.000147945
-0.000160499
1.25531e-05
-2.86461e-05
5.45464e-05
-2.59001e-05
0.000370941
-0.000801077
0.000430124
2.41102e-05
1.32373e-06
-0.000711889
0.00178716
0.000748911
5.94304e-05
2.33485e-05
-8.10657e-05
2.34149e-05
5.76542e-05
-0.000920409
0.000276607
-5.16065e-05
2.67419e-06
4.89326e-05
0.000105173
-8.08424e-05
-2.43285e-05
0.000170864
0.00028139
0.00152954
-0.000621817
-1.07883e-05
-2.42763e-05
3.50329e-05
0.000199512
-0.000397087
-0.000103068
-3.50608e-05
-0.000269807
8.04533e-05
6.0571e-05
0.000151693
-0.000160026
8.33463e-06
4.06273e-05
2.1291e-05
-7.03015e-06
-0.000616977
0.000624003
-0.00023453
-7.23598e-05
1.40867e-05
9.29931e-05
-0.000732543
0.000138512
-0.000251511
0.000328388
-0.000112972
-0.000739192
0.000852148
-3.38742e-05
-0.000226685
-3.23808e-06
2.59862e-05
-1.38034e-05
5.34071e-06
8.46334e-06
2.62426e-05
-0.000967554
0.000941343
9.34857e-05
1.27196e-05
-2.71842e-05
-7.32235e-05
0.00010041
-0.000820328
0.000222136
0.000598176
-0.000661079
0.000654043
-0.000106564
-6.32303e-06
0.0001129
3.21512e-06
-3.21507e-06
-1.78883e-05
9.51419e-06
0.000108518
-6.26228e-05
6.28665e-05
-0.000489048
0.00143019
-0.000941124
-0.000231926
1.28972e-05
0.000186718
-3.8573e-05
7.55971e-05
-9.43555e-05
0.000107004
-5.81786e-05
-4.88265e-05
-0.00109496
0.00157549
-0.000480554
-5.34346e-05
0.000142128
-0.000425656
-0.000115964
0.000161807
-0.000148989
-1.28173e-05
-0.000153724
-0.000519401
0.000673122
-1.02375e-05
5.81659e-05
-0.00010656
0.000166459
-5.99018e-05
0.00051756
-0.000358838
0.00020279
-7.90318e-05
9.51555e-05
0.000113945
-0.00150807
0.00153426
-8.25008e-05
1.4753e-05
0.000119657
-0.000407437
0.000287763
-6.2414e-05
-6.58402e-05
4.63593e-05
-0.000432469
-7.65717e-05
-2.61074e-05
0.000102677
4.29381e-05
1.5634e-06
-0.000375641
0.000358294
1.73204e-05
-1.01143e-05
0.000179925
3.1432e-05
4.87299e-05
-8.01598e-05
8.30036e-05
9.34719e-05
7.23202e-06
0.000236831
-8.64641e-05
-0.000765514
-0.000335025
3.7848e-05
0.000297201
-6.79912e-06
-0.000134392
-2.51431e-05
8.86633e-05
-6.35186e-05
0.000296198
-0.00161197
0.00131577
0.00119127
-0.00171329
8.53596e-05
-7.20538e-05
-1.33037e-05
0.00183822
-0.000838537
-0.000367499
0.000443415
-7.59066e-05
0.00035344
-0.00102291
-4.99707e-06
-4.49183e-05
-4.41704e-05
-0.000221168
0.000167612
4.64937e-05
6.05101e-05
-0.000111097
0.000167618
-5.65186e-05
5.25809e-05
-6.72825e-05
-0.000164674
5.26889e-05
0.000111985
-0.000169975
7.43981e-05
0.000912237
-0.000263301
-0.000648962
-2.93438e-05
-5.16286e-05
1.89245e-05
-7.8416e-05
1.58544e-05
6.25626e-05
4.05159e-05
-8.44592e-05
7.96653e-05
-7.5424e-05
-4.24005e-06
8.86328e-05
-1.60189e-05
-7.26222e-05
0.0014275
-0.000236208
5.31459e-05
5.09198e-05
-0.000104065
2.32643e-05
-3.37375e-05
1.0474e-05
-1.13774e-05
-8.75674e-05
0.000366295
-0.00021702
-0.000149276
0.00037585
8.3742e-05
-0.000111403
0.000135805
0.000219263
-9.58814e-05
-0.000123379
-0.000156404
-4.30958e-05
-3.01601e-05
-5.92362e-05
8.9515e-05
-0.0001252
5.32161e-05
-0.00157641
0.00048145
0.00141168
9.16987e-05
-0.00013241
0.000179517
-8.07745e-05
-3.71129e-05
-0.000103163
7.59797e-05
-0.000175986
4.53663e-05
8.27835e-06
-5.36438e-05
-0.000742494
0.000811426
-6.88983e-05
0.000107831
0.000279427
-0.000673801
0.000394372
-1.58433e-05
0.00011918
0.000839246
0.000804509
-0.00164376
-4.77485e-06
0.000107647
-0.000102872
8.29666e-05
0.000828692
-0.000911672
-5.45213e-06
3.12596e-05
0.000536923
-0.000186919
-0.000408041
9.12324e-05
0.000316805
-6.2867e-05
-0.000106652
2.87154e-05
3.63517e-05
-1.30872e-05
-0.000137718
0.000114835
1.61925e-05
-6.96011e-05
5.34057e-05
0.000246871
-0.000982105
0.000735235
0.000901534
-0.000123206
-0.000778322
0.000243114
-3.82249e-05
-0.000204888
-0.000163576
-6.83498e-05
4.59226e-05
-0.000112233
0.000107458
-0.000355047
5.12795e-05
0.000109807
-0.0002321
0.000122286
-0.00107058
0.000198349
0.000872224
-0.000310541
9.11411e-05
0.000219383
9.51096e-05
6.84373e-05
-7.6262e-05
-1.2325e-05
1.71487e-05
-3.88244e-05
2.16694e-05
-2.02476e-05
-8.97241e-06
-2.22069e-06
-5.9221e-07
-0.00010903
-3.83424e-05
-7.42702e-05
-9.04013e-05
0.00117026
-0.00170016
0.000529896
0.000137522
-1.63744e-05
-0.000121151
4.67843e-06
3.958e-05
-4.42575e-05
0.000659924
0.00024727
-0.0009072
2.64638e-05
-8.87771e-05
6.2312e-05
-3.78194e-05
-2.60826e-05
6.39036e-05
-4.44853e-05
-4.90316e-06
-4.11981e-05
-1.78991e-05
3.30022e-05
-1.51033e-05
-0.000113823
0.000125992
-1.21694e-05
-5.62594e-05
5.42991e-05
1.96031e-06
5.85619e-05
-0.000285683
-8.898e-05
7.52706e-05
1.37133e-05
-6.15753e-05
0.000126725
0.000344268
-0.000696913
0.000113301
1.17677e-05
-5.07604e-05
7.85699e-05
-2.78083e-05
1.69462e-05
1.64899e-05
-3.3436e-05
0.000550697
-5.56542e-05
9.69867e-05
0.000705318
-4.96564e-05
4.18954e-05
-2.20368e-05
-6.26523e-05
-0.00017321
-2.92675e-05
8.50757e-05
-5.58128e-05
-0.000283344
0.000105973
0.00017735
-6.53263e-06
-6.96765e-05
-3.34716e-05
9.14213e-05
-5.79491e-05
0.000180724
-0.000109229
-7.14873e-05
-0.000218971
0.000188551
3.04225e-05
-7.31797e-06
-5.11819e-05
-4.06961e-05
0.000237392
-0.000196699
-1.65901e-06
-3.03639e-06
6.10465e-05
8.38561e-05
-0.000144897
0.000151934
-0.000176427
2.44952e-05
3.56034e-05
6.95704e-05
3.97396e-06
-6.31925e-05
-0.000620489
0.00165648
-0.00103601
-1.99171e-05
4.06988e-05
-0.000968593
0.000912424
5.61671e-05
-0.000187331
-0.000273663
0.000460994
0.000123184
1.51324e-07
-5.98054e-05
-4.83589e-05
0.000108167
-0.000115367
9.94469e-06
7.78246e-05
1.55775e-05
-7.47216e-05
-0.000547386
-0.000189617
0.000127748
5.68719e-05
-0.000184615
6.4405e-05
-0.000171228
0.000106819
-0.000123036
8.19825e-06
0.000114835
-2.60191e-05
8.12005e-06
-4.15416e-05
-4.24372e-05
0.000101459
-4.9165e-05
-0.000718578
0.00100324
-0.00162375
0.000592868
-0.000517077
-7.57902e-05
7.7072e-05
-2.97999e-06
0.000140954
0.00113277
-0.00127372
-4.09999e-05
2.10829e-05
-9.92877e-05
3.89412e-05
6.03463e-05
0.000456863
-0.000886475
0.000429656
-0.000557574
0.00044718
-0.000683421
6.5072e-05
-0.000119793