/*--------------------------------*- C++ -*----------------------------------*\
| =========                 |                                                 |
| \\      /  F ield         | OpenFOAM: The Open Source CFD Toolbox           |
|  \\    /   O peration     | Version:  v2012                                 |
|   \\  /    A nd           | Website:  www.openfoam.com                      |
|    \\/     M anipulation  |                                                 |
\*---------------------------------------------------------------------------*/
FoamFile
{
    version     2.0;
    format      ascii;
    class       volScalarField;
    location    "100";
    object      k;
}
// * * * * * * * * * * * * * * * * * * * * * * * * * * * * * * * * * * * * * //

dimensions      [0 2 -2 0 0 0 0];


internalField   nonuniform List<scalar> 
27802
(
0.000150605
0.00014994
0.000151114
0.000161971
0.00014736
0.000777651
0.000147352
0.000185427
0.000146398
0.000278686
0.0606547
0.000249845
0.000160932
0.000174747
0.0832294
0.00733359
0.0608772
0.000146467
0.0627931
0.0233134
0.0817608
0.0837192
0.000145462
0.000191624
0.000220679
0.00016082
0.000147075
0.000168609
0.000146938
0.00368973
0.000191669
0.000174469
0.000150422
0.000144145
0.000149247
0.00665993
0.0117947
0.000145853
0.000147305
0.00620131
0.000237369
0.000149305
0.000158484
0.000144052
0.00015853
0.0257491
0.000148229
0.0120674
0.000485088
0.0397527
0.0807754
0.000161059
0.0293587
0.000426034
0.000147085
0.000148961
0.000215205
0.00014783
0.000156724
0.000187268
0.0181304
0.000151083
0.000158579
0.000144718
0.000144158
0.000148516
0.0133164
0.000214965
0.000187385
0.000148087
0.000143994
0.0635214
0.0755748
0.000214782
0.000152546
0.000154101
0.0129856
0.0130073
0.0204295
0.00826589
0.000147659
0.000146806
0.000164841
0.000151438
0.000148642
0.000165716
0.000149594
0.0443812
0.0198164
0.000148291
0.000147679
0.0181794
0.000146192
0.0040624
0.0727152
0.000171234
0.000146787
0.000170213
0.000148067
0.00388558
0.00014734
0.000146101
0.000505069
0.0153571
0.0753485
0.000158917
0.000148182
0.000144123
0.00014694
0.000158217
0.00622914
0.000147708
0.000144179
0.000148059
0.000148223
0.000144677
0.000157671
0.000190356
0.0388357
0.000215904
0.0212762
0.000186221
0.0429645
0.000190234
0.0589504
0.000177462
0.000150169
0.000155679
0.0635917
0.000144307
0.000191794
0.000173208
0.000149041
0.0128179
0.0116913
0.000152873
0.000167144
0.000176168
0.000147998
0.000148957
0.000173078
0.000304894
0.000158679
0.000161762
0.00014586
0.030716
0.000158039
0.000169251
0.000147959
0.00172915
0.000161733
0.00253059
0.000158454
0.0515223
0.000149713
0.0090813
0.000152467
0.000171727
0.000144418
0.000149024
0.000144682
0.000148474
0.0897289
0.000146052
0.000149587
0.000149762
0.0744648
0.000147073
0.000148878
0.000149884
0.000173897
0.026279
0.0636185
0.0158332
0.000147098
0.000212143
0.0110448
0.0589787
0.000144653
0.000148153
0.000239274
0.0437818
0.0201286
0.0408297
0.00014452
0.000188469
0.0740454
0.000702978
0.000211809
0.000519101
0.0849145
0.000149942
0.000150635
0.000259496
0.000146812
0.0035172
0.00587532
0.0757478
0.000308382
0.0406592
0.000173288
0.000149072
0.000150104
0.000157701
0.085717
0.000177431
0.00014709
0.000146517
0.00370711
0.000146927
0.000147917
0.0502977
0.000161981
0.0327105
0.000144315
0.000147036
0.000190899
0.000149512
0.000147701
0.000149903
0.0732199
0.000147316
0.000148293
0.000217479
0.000148898
0.000217301
0.000150136
0.000169729
0.000143805
0.000148842
0.000148054
0.000162406
0.000211819
0.000149278
0.000149952
0.0198676
0.000167354
0.000168458
0.00015012
0.000497773
0.0217403
0.0474573
0.0433961
0.0580623
0.0718868
0.000151998
0.00014728
0.0157539
0.000144487
0.000148985
0.000203181
0.000147329
0.000205156
0.000149732
0.0422461
0.0594729
0.000157061
0.000181464
0.000148317
0.000152613
0.000147195
0.0237939
0.0417787
0.000210388
0.000148137
0.000147261
0.00014939
0.000195924
0.0597208
0.000173677
0.0125189
0.000158312
0.0683486
0.000146014
0.000147313
0.000149245
0.000172599
0.000148501
0.000147209
0.0582962
0.000149556
0.000167039
0.00025046
0.000214693
0.0686474
0.000155583
0.052417
0.000146018
0.000188982
0.047521
0.000250781
0.0169602
0.0254287
0.000157008
0.000143749
0.000148426
0.000149673
0.00736103
0.00352873
0.000186165
0.024542
0.000164738
0.0408797
0.00137674
0.0467892
0.000148537
0.000192499
0.000148064
0.0477263
0.000146382
0.0390062
0.000200758
0.0363619
0.000147813
0.0352197
0.0719153
0.000182836
0.000146771
0.000168314
0.0308851
0.000146368
0.0001521
0.000198991
0.0409458
0.0196378
0.000146222
0.000164413
0.000168074
0.037798
0.000147147
0.0377091
0.000146139
0.000149034
0.000199983
0.000249145
0.000150047
0.000147768
0.000148259
0.000199749
0.000154191
0.000147619
0.000269126
0.000147655
0.000237015
0.0177991
0.00713847
0.000153257
0.000146912
0.00015196
0.000146465
0.000187676
0.000186019
0.000146691
0.000181661
0.000148678
0.000146818
0.000150031
0.000147574
0.0252285
0.000145868
0.000217277
0.000382822
0.0794748
0.000143966
0.000147779
0.000147905
0.0513162
0.00014604
0.000208112
0.00014366
0.000212027
0.00017987
0.0103885
0.000152021
0.000149829
0.000148458
0.00017313
0.000147765
0.000214534
0.000152743
0.000157798
0.000149081
0.000148334
0.000149902
0.000148055
0.00843987
0.000173925
0.000191376
0.0343842
0.000259336
0.000147696
0.000287137
0.000148577
0.000147671
0.000168217
0.000151565
0.000149065
0.0494407
0.00049678
0.0307024
0.000183112
0.0828991
0.000148304
0.000148535
0.000212729
0.0385672
0.000148507
0.000154203
0.000191556
0.000155117
0.000147108
0.000159889
0.0204217
0.0746686
0.00384997
0.0194526
0.000147218
0.0889873
0.000146099
0.000270132
0.000160045
0.0206135
0.000149952
0.000147337
0.000155863
0.000151788
0.000161497
0.000147703
0.000147715
0.000167328
0.000147982
0.000148402
0.0002144
0.0375191
0.000180355
0.0355308
0.000185601
0.000171555
0.000202567
0.000147622
0.000159566
0.0263594
0.000153315
0.000147787
0.000160319
0.000155392
0.000163746
0.000150494
0.000148044
0.000147246
0.0254763
0.0399161
0.000150476
0.000146893
0.0799493
0.000149057
0.0224476
0.000149017
0.000148648
0.000153112
0.000314832
0.000148159
0.000143612
0.0603841
0.000148135
0.000175879
0.0359716
0.000174243
0.000147865
0.0228301
0.000242753
0.000171965
0.025392
0.000687905
0.000151303
0.00016232
0.000144651
0.000273556
0.000148539
0.00017205
0.000147578
0.000159321
0.00671069
0.0590158
0.000146941
0.000148126
0.000164195
0.000149401
0.000148416
0.000147163
0.000145889
0.000190096
0.000163858
0.000589429
0.00571951
0.00014547
0.000174498
0.0355493
0.000154537
0.000150843
0.000143983
0.000149622
0.0376646
0.000215919
0.000164285
0.0332264
0.0406825
0.000147867
0.0299316
0.000145729
0.000299281
0.000160617
0.000147129
0.000152511
0.000147428
0.000155614
0.00386918
0.028953
0.000154752
0.026467
0.0504059
0.00021198
0.000147849
0.000147873
0.0162101
0.000164879
0.00014973
0.000171298
0.000158373
0.00802542
0.000187433
0.0467504
0.000154611
0.000148353
0.000624726
0.000147899
0.000148126
0.000151937
0.0478311
0.000146771
0.0380992
0.000152651
0.000272261
0.000175933
0.0221836
0.000144275
0.000147833
0.0330261
0.000177452
0.000148227
0.000174855
0.000151507
0.000147588
0.000146658
0.0308398
0.00017522
0.000287468
0.0156686
0.000278245
0.000146934
0.0621075
0.000164577
0.000147705
0.000173022
0.0222179
0.000147786
0.000148694
0.000146931
0.0434235
0.000147725
0.000144639
0.000145502
0.000148114
0.000209176
0.000147508
0.0168218
0.00017166
0.000147707
0.000192421
0.00017565
0.0383894
0.0443393
0.0193373
0.00014806
0.000145351
0.000145639
0.0800066
0.000145915
0.0434278
0.000343139
0.000166468
0.0231188
0.0167274
0.000149065
0.000148036
0.0276353
0.000198129
0.000146448
0.000149216
0.0737568
0.000213463
0.0642644
0.0331539
0.000266015
0.000152
0.000254027
0.00316782
0.000147672
0.0792757
0.0593503
0.000175676
0.000579995
0.0634978
0.00015201
0.000172259
0.000147232
0.000166712
0.000146498
0.000159275
0.000158932
0.000167944
0.0203949
0.000197508
0.0385602
0.000152916
0.0191589
0.000149765
0.000150846
0.000159422
0.000170728
0.000147891
0.000171264
0.000149652
0.000175838
0.000165916
0.000147079
0.000147947
0.00016331
0.000172278
0.000180227
0.000274282
0.000154031
0.0469216
0.00243218
0.000281617
0.000147591
0.000162392
0.000258614
0.0404696
0.000153965
0.000146819
0.000272485
0.000197919
0.000147739
0.00027643
0.000149766
0.000335853
0.000267595
0.00014974
0.000147229
0.000195167
0.000256918
0.000153711
0.000159548
0.0138969
0.000149815
0.000151038
0.0209286
0.000150577
0.000183429
0.000147427
0.000145381
0.000147036
0.0246766
0.000166018
0.000149008
0.0171568
0.000147014
0.000160516
0.0413186
0.000149354
0.038159
0.000168576
0.000146672
0.000150611
0.000145365
0.014351
0.0392655
0.0233507
0.000148365
0.0336817
0.0383769
0.000145372
0.0769436
0.000164364
0.0001498
0.000146088
0.000148344
0.000153786
0.00927959
0.000146534
0.000149807
0.000167656
0.0286166
0.000149015
0.0163291
0.0444909
0.0780143
0.000145367
0.000152323
0.00014985
0.000151678
0.000188333
0.000147316
0.000150945
0.000149835
0.000155114
0.000154301
0.0469824
0.000228048
0.000661996
0.000157796
0.000162479
0.000170263
0.000147731
0.000146234
0.000147573
0.000184014
0.00016691
0.050111
0.0374061
0.0753225
0.000146489
0.0131154
0.000146798
0.000149029
0.00048572
0.000147396
0.00514776
0.0182342
0.00857016
0.0107334
0.0137196
0.000147869
0.000164489
0.000261933
0.000165278
0.0250043
0.000173306
0.000146307
0.038624
0.000148054
0.0376896
0.0261211
0.000148988
0.000145057
0.0385792
0.000146181
0.000149404
0.0199141
0.000253005
0.00692441
0.0453163
0.00014787
0.000159338
0.000150241
0.00016383
0.000146213
0.0212044
0.000168995
0.000147675
0.0354348
0.0395098
0.000217521
0.000166493
0.000147966
0.000148195
0.00102216
0.000166635
0.000153077
0.00021816
0.0242661
0.000179163
0.00014995
0.000148204
0.000174361
0.000147645
0.0640425
0.000198641
0.00078798
0.000150918
0.000495898
0.000147599
0.0522044
0.000164179
0.0765135
0.000162702
0.0348732
0.000150901
0.000162883
0.0198127
0.0001528
0.00017233
0.000455046
0.000150904
0.000198718
0.000181431
0.0718908
0.000155988
0.000145953
0.0375603
0.000148963
0.00014845
0.000186572
0.00867149
0.000211489
0.00774153
0.000158462
0.000148969
0.0331286
0.000383503
0.000149422
0.0487286
0.000183756
0.0419132
0.000146724
0.000150632
0.000174841
0.000147579
0.000163566
0.000146769
0.000160115
0.0270411
0.083722
0.000152501
0.000162765
0.000412536
0.000148929
0.000147401
0.000147235
0.000183131
0.000458206
0.000149762
0.000147993
0.000164427
0.000169105
0.0807417
0.000160008
0.000177853
0.000263704
0.0434933
0.000148935
0.0510545
0.0174683
0.000161808
0.0374251
0.000147729
0.000152787
0.000578285
0.000146922
0.0705207
0.00150045
0.0320966
0.000157105
0.021994
0.00015568
0.0679662
0.000147828
0.0343158
0.000177977
0.0140016
0.000157777
0.000148041
0.000153421
0.000146974
0.00895245
0.000222505
0.000175375
0.000197594
0.000181922
0.000155434
0.000434386
0.000181619
0.000205359
0.000279474
0.000162145
0.000186354
0.0127038
0.000148038
0.000149679
0.000164907
0.000160219
0.00531248
0.00016051
0.00014589
0.000211664
0.000147935
0.000150656
0.000148491
0.000149544
0.000149673
0.000151714
0.00014959
0.00017083
0.000147067
0.000158433
0.0434451
0.000479836
0.000148643
0.000148069
0.00633958
0.000148521
0.000197929
0.000145774
0.000197777
0.000183272
0.0381792
0.000167375
0.000147616
0.000149278
0.000162721
0.000175418
0.000149809
0.000237323
0.000149899
0.000173189
0.000149018
0.000149312
0.0225027
0.00385399
0.000145711
0.000293481
0.000215706
0.000173866
0.00015673
0.000147432
0.0162701
0.00015185
0.0807126
0.000151167
0.000163452
0.000148216
0.00014971
0.000149452
0.0332427
0.0817772
0.00256989
0.0222983
0.0124138
0.0344096
0.000145666
0.000147574
0.000204138
0.0230974
0.0166647
0.000170633
0.000149762
0.000145514
0.0260427
0.00017667
0.0333275
0.000147605
0.023593
0.000159983
0.000178578
0.000146887
0.000175285
0.000163902
0.000145355
0.000146632
0.000164828
0.000162949
0.00014761
0.000152002
0.000200178
0.000175105
0.000147192
0.000201695
0.00221996
0.0362325
0.00017894
0.04812
0.0220118
0.000156741
0.000147888
0.000226254
0.000169557
0.0001496
0.0238563
0.0289728
0.000525881
0.000293938
0.000217165
0.000236308
0.000148115
0.0224461
0.0466634
0.000168109
0.00015849
0.000145825
0.000148773
0.000212015
0.000152518
0.000149424
0.000148971
0.000171626
0.000148402
0.000146332
0.000148676
0.00015095
0.0193478
0.00015199
0.0178118
0.000150015
0.0119131
0.000185819
0.000147266
0.000180088
0.00014659
0.000289687
0.0244005
0.000198884
0.0345959
0.00021563
0.000145689
0.000157079
0.000144271
0.000158487
0.0101345
0.00655398
0.081983
0.000149812
0.000145516
0.000151722
0.000292676
0.000148217
0.00014903
0.000168501
0.000149852
0.000169445
0.000169825
0.000146435
0.000145422
0.000147772
0.000528158
0.000149892
0.000148105
0.00017246
0.000498556
0.000147767
0.00014583
0.042048
0.000148093
0.000146154
0.000284728
0.000157452
0.00014741
0.000149845
0.000187984
0.000149662
0.000148645
0.000147832
0.000148773
0.0577201
0.0225242
0.000147823
0.0762286
0.000147909
0.0414166
0.0384585
0.0001492
0.060336
0.0101005
0.000157377
0.000147032
0.000146048
0.0342971
0.000191615
0.0776411
0.00201488
0.0001498
0.000203198
0.000148536
0.000430906
0.000161384
0.0141581
0.000149951
0.000350956
0.0803136
0.000201845
0.000148579
0.0300951
0.000281145
0.000148352
0.000177726
0.000146807
0.000149049
0.000148496
0.000147931
0.000155994
0.0258737
0.0235615
0.000147824
0.000148213
0.00118008
0.000151999
0.000152533
0.000147935
0.000148763
0.0757123
0.000147221
0.000147942
0.000157506
0.0799906
0.000155687
0.000147663
0.0391183
0.00014699
0.000151156
0.00018189
0.000151898
0.000151182
0.0662025
0.000169354
0.0328649
0.000158568
0.000156523
0.000149163
0.00016402
0.0209093
0.000167523
0.000486294
0.0369374
0.0339334
0.000184974
0.000147835
0.000149853
0.000147721
0.0300801
0.0608169
0.0001507
0.000206864
0.000145214
0.0812249
0.00014821
0.000147852
0.0391926
0.000167884
0.0151119
0.000146827
0.0357569
0.0471519
0.000147791
0.000227471
0.000149824
0.000169669
0.00014402
0.000151916
0.000164377
0.000170971
0.00014729
0.000162419
0.0193341
0.000145465
0.0819828
0.000151588
0.000156431
0.000242888
0.000150769
0.0735981
0.000151743
0.000146837
0.000229589
0.000151385
0.000148911
0.000214436
0.000147013
0.000145708
0.0168874
0.00014708
0.000145557
0.00015958
0.0417676
0.000144998
0.000149833
0.000146037
0.000149169
0.000148722
0.000169268
0.0793224
0.000205781
0.000178924
0.000146976
0.000145833
0.0265117
0.0444825
0.0772234
0.000146124
0.00971823
0.000191685
0.00885756
0.00018755
0.0380171
0.000162165
0.000238184
0.000227221
0.000184676
0.000145631
0.000150094
0.000172644
0.000144969
0.000170933
0.000156956
0.0234221
0.00797854
0.000158705
0.000163965
0.000148799
0.00705914
0.0785349
0.00020663
0.000171976
0.000186892
0.00014858
0.000150612
0.0260374
0.0328568
0.0001639
0.000151482
0.000145835
0.000148606
0.000158167
0.000145442
0.000163513
0.000147972
0.00014954
0.0177556
0.0224136
0.000148982
0.0361773
0.00014954
0.000151064
0.0207032
0.000161008
0.000147004
0.000148
0.0196362
0.000146954
0.000150205
0.000146063
0.0756108
0.000192472
0.0794162
0.0827281
0.0185565
0.000178252
0.000147931
0.000149008
0.0476244
0.00127104
0.0288524
0.000196424
0.000148927
0.0227171
0.000181585
0.000241412
0.000150561
0.000162307
0.000148069
0.000630603
0.047019
0.0819793
0.00027748
0.000145312
0.000165812
0.0184506
0.0460979
0.000147982
0.000163389
0.000315072
0.000189032
0.000193814
0.000892638
0.000148021
0.000208691
0.0161612
0.0175526
0.000195054
0.000144016
0.0135745
0.000483859
0.0120269
0.000169324
0.000148585
0.0478922
0.000155655
0.000148182
0.000149547
0.0251031
0.000161771
0.000149345
0.000149082
0.000198482
0.000225218
0.000157496
0.000161012
0.0572848
0.00014726
0.000147356
0.000183938
0.000152787
0.000147675
0.000147742
0.000147882
0.000148688
0.00702902
0.0354073
0.000162674
0.000310708
0.000161515
0.000286018
0.000147464
0.00050131
0.000147275
0.0746575
0.00702572
0.000145621
0.0284027
0.0185274
0.00014854
0.000171942
0.083155
0.0189224
0.00014976
0.0209615
0.0158459
0.0539637
0.000148099
0.00014902
0.0198451
0.000358467
0.000187871
0.0418486
0.000190299
0.0468888
0.000148179
0.00015206
0.0229301
0.000149082
0.00014567
0.000149558
0.00048166
0.000148044
0.00138171
0.000174057
0.000148027
0.000148055
0.000149038
0.000178923
0.0766165
0.000160931
0.000148534
0.000148871
0.0082361
0.000167964
0.0489801
0.00027739
0.0375041
0.000173495
0.000171753
0.000173115
0.000260387
0.000179886
0.0341775
0.000164388
0.000147181
0.000154054
0.000217174
0.000158922
0.000149647
0.000198901
0.000183349
0.000147138
0.000239782
0.000163618
0.00014939
0.000152257
0.000150357
0.000181366
0.000148068
0.000147437
0.000145139
0.000294262
0.0095863
0.0149195
0.0416776
0.0535444
0.000145847
0.0794748
0.000147944
0.000148426
0.000148031
0.077625
0.000146387
0.000151177
0.000148053
0.000149175
0.000147466
0.000148004
0.000207355
0.0181081
0.000153749
0.000146977
0.0374768
0.00015463
0.000213864
0.00014641
0.0259511
0.000149911
0.000148611
0.0836907
0.000158588
0.000148197
0.0822906
0.0657383
0.000201106
0.000149694
0.000158881
0.00017252
0.000234058
0.000147768
0.000149006
0.0285155
0.0642449
0.0242835
0.000148662
0.00014797
0.0851523
0.0228283
0.000215168
0.000148063
0.0328803
0.000199562
0.000147915
0.000149125
0.000148044
0.0681517
0.000182977
0.0281151
0.0208611
0.00014765
0.000146458
0.0601243
0.0524899
0.000191459
0.000145856
0.0720142
0.0131358
0.000150017
0.000148302
0.000212848
0.000302516
0.000150384
0.000148177
0.0350424
0.000147918
0.000146737
0.000148098
0.000238164
0.0750981
0.000147392
0.00014741
0.0321144
0.000147084
0.000147958
0.000234078
0.0307891
0.0330003
0.0762259
0.000149678
0.000147588
0.000151438
0.0002061
0.000183988
0.000209439
0.0301764
0.000151249
0.000148987
0.0580764
0.000148076
0.000155239
0.0124729
0.00014676
0.000147835
0.0158224
0.000241155
0.000148659
0.0156156
0.000149773
0.000149824
0.000153812
0.0289432
0.000147677
0.000149585
0.000144074
0.000161084
0.00022505
0.000216617
0.000170463
0.000149809
0.000151044
0.000148637
0.000551875
0.042666
0.000146105
0.000383587
0.000165014
0.000158446
0.000190362
0.000149612
0.000197858
0.000462319
0.000145623
0.000313848
0.000147705
0.000149601
0.000152382
0.00014764
0.000144104
0.000212125
0.000149955
0.0184882
0.000183698
0.000147631
0.000147516
0.000587127
0.000148663
0.000148049
0.000143855
0.000149898
0.000183486
0.000151514
0.000216925
0.000247208
0.00014564
0.000157204
0.0581344
0.000170953
0.0358711
0.0133048
0.000147486
0.0337361
0.0731698
0.000143912
0.0177694
0.000147961
0.081824
0.0526187
0.000166495
0.00699802
0.0316998
0.000152313
0.000149232
0.0291409
0.000148974
0.000173898
0.076166
0.0642279
0.000163215
0.000146874
0.000213747
0.000173383
0.000148607
0.000149034
0.000149203
0.000166682
0.000176604
0.0373941
0.000191976
0.000146805
0.00900264
0.000150172
0.034881
0.000215246
0.021269
0.000146568
0.0466389
0.000146936
0.000173599
0.0210427
0.0326121
0.000207202
0.045844
0.00019649
0.000143787
0.000149007
0.000146572
0.00982694
0.0371092
0.000180615
0.000149037
0.000147918
0.000150696
0.00015469
0.00031814
0.000149586
0.000272339
0.000177553
0.000213073
0.0429257
0.000173369
0.00044627
0.0370943
0.000147095
0.0204523
0.00016779
0.000176923
0.0354581
0.00015877
0.000161138
0.00017176
0.000148314
0.0437584
0.000148193
0.000408375
0.0252029
0.00014714
0.000250292
0.000149453
0.000147258
0.000147938
0.000280179
0.000147648
0.0766474
0.000146834
0.000146951
0.000171822
0.000214103
0.000149611
0.00034968
0.000149958
0.000335051
0.00014377
0.000149914
0.000242839
0.0829407
0.000518326
0.000149087
0.000143409
0.000150387
0.0394434
0.0185689
0.000147713
0.000151902
0.000183111
0.000158831
0.0148544
0.000149654
0.000152224
0.000148032
0.000166012
0.0387002
0.000199306
0.0637741
0.000146894
0.00014955
0.000147281
0.000148462
0.000174386
0.000181614
0.000148483
0.000151253
0.00651504
0.000151782
0.000436056
0.000278743
0.000150064
0.000148719
0.0420999
0.0140446
0.000148801
0.000145806
0.000148148
0.000152234
0.0283855
0.000163005
0.000149002
0.000165097
0.0304835
0.0196414
0.000182818
0.000145185
0.0255171
0.000154589
0.000246782
0.000257683
0.0305216
0.0256652
0.000172235
0.0617078
0.000213832
0.000146906
0.0591328
0.0185036
0.000147907
0.000201725
0.000148653
0.000145376
0.000156386
0.000173418
0.000169248
0.000149296
0.000144566
0.00143407
0.000147901
0.000148194
0.000165786
0.00019261
0.000277329
0.017705
0.0188392
0.000145484
0.000177406
0.000147959
0.00016679
0.000151904
0.000149044
0.000164952
0.000146539
0.000146172
0.000183471
0.000145585
0.00014689
0.074647
0.00015109
0.000151742
0.00016778
0.00015535
0.0257974
0.000405449
0.0178582
0.000147544
0.000188309
0.000181142
0.000148165
0.000148923
0.000167909
0.000147251
0.000183573
0.0573366
0.000161483
0.00015812
0.000148066
0.000271483
0.000149528
0.000147035
0.00658592
0.0608367
0.000213705
0.0351506
0.0285762
0.000144642
0.000165506
0.000147247
0.000143479
0.000144623
0.0162545
0.021282
0.00197999
0.0406536
0.000164295
0.000179476
0.000146777
0.000172269
0.000152058
0.000164784
0.0753388
0.000148155
0.000149798
0.000157615
0.000158053
0.0376679
0.000148077
0.000149464
0.000149812
0.000161702
0.000145607
0.0164673
0.00015739
0.0434699
0.00014767
0.000163987
0.000205519
0.000196926
0.0546551
0.0461188
0.0217094
0.000148498
0.000217201
0.000155028
0.000147098
0.000164013
0.00929294
0.0692836
0.000170482
0.00017111
0.000148165
0.0266891
0.000148669
0.000372538
0.000164076
0.000147869
0.0100127
0.0218133
0.00014747
0.016077
0.000221868
0.000150807
0.0210305
0.00858725
0.000476235
0.000151774
0.000144696
0.0202382
0.000148569
0.000160635
0.0319598
0.000267523
0.000148004
0.0175614
0.000147567
0.000149083
0.000170896
0.000148195
0.0207628
0.000178099
0.00014959
0.000178367
0.000145544
0.000147403
0.000148993
0.000162618
0.000226528
0.000148862
0.000183058
0.000215474
0.000186831
0.0433129
0.000177515
0.000174605
0.000202216
0.000148036
0.000147029
0.0105508
0.000163719
0.000147661
0.0205892
0.000149909
0.000262449
0.0530848
0.000235834
0.0494666
0.0510556
0.000147857
0.00017497
0.00127177
0.000178326
0.0218696
0.000223605
0.000148053
0.0351091
0.000150704
0.00024338
0.0582009
0.000156907
0.000147121
0.00015157
0.0295453
0.000220365
0.000148119
0.000158872
0.0195825
0.000146368
0.0442395
0.000213723
0.000151458
0.000344915
0.0335869
0.000148506
0.000149793
0.000150496
0.000489082
0.000148501
0.000162882
0.078803
0.0278458
0.000147995
0.0201903
0.000233883
0.0584354
0.0791251
0.0607426
0.000181899
0.000201719
0.000148489
0.00014747
0.000224762
0.000145762
0.000167797
0.0245651
0.00015395
0.000179278
0.000498506
0.000152078
0.000452192
0.000149954
0.000171533
0.000164292
0.000144786
0.000267931
0.000148541
0.000148144
0.000145228
0.000145672
0.000149382
0.000211111
0.0178195
0.000155249
0.0743921
0.000150668
0.000145577
0.000511045
0.000179371
0.000149934
0.000152043
0.000180166
0.000234186
0.000172619
0.000148044
0.000156132
0.000149161
0.000144798
0.00017541
0.000148154
0.000255927
0.000147795
0.0135651
0.0432423
0.000146515
0.0445696
0.000181394
0.000188855
0.0295366
0.000166389
0.000148468
0.000149065
0.000153052
0.000146958
0.00717566
0.000240888
0.000149903
0.000149904
0.000291185
0.000148734
0.000182405
0.000147807
0.000146952
0.0200005
0.000146145
0.000156507
0.000147305
0.00014705
0.000148464
0.000146139
0.000148732
0.000147512
0.0161635
0.000182128
0.000149153
0.00014761
0.000168777
0.00133104
0.000149331
0.0425937
0.00017385
0.000163898
0.000168456
0.000146396
0.0180235
0.0785447
0.000209822
0.000147269
0.000181294
0.000148713
0.000196442
0.000211845
0.000146881
0.0126718
0.000163568
0.000149904
0.0246556
0.057476
0.000174528
0.0372546
0.000160211
0.00014909
0.0351679
0.00014966
0.00014809
0.000183625
0.000148701
0.000145312
0.000147715
0.000186268
0.000143529
0.0152484
0.000155514
0.000224582
0.000151906
0.0139111
0.0172615
0.0321421
0.000307833
0.000149651
0.00020871
0.000147691
0.000158636
0.000148216
0.049447
0.0143605
0.000146191
0.000149714
0.000150921
0.000171265
0.000147151
0.000419839
0.00548038
0.000177307
0.0165805
0.000172809
0.000155858
0.000150224
0.000152098
0.000148303
0.0010794
0.000154034
0.0243796
0.00014804
0.0700531
0.000286945
0.086407
0.000158727
0.00018204
0.0146441
0.0480266
0.000148134
0.000145825
0.000195329
0.000147144
0.000149361
0.00016762
0.000146419
0.000152526
0.000148519
0.000148635
0.000148496
0.000148292
0.000151425
0.000168461
0.0843052
0.000177661
0.000175817
0.000152121
0.0246364
0.0132022
0.037515
0.0458184
0.000167093
0.000164357
0.000152322
0.0449991
0.000147756
0.000146151
0.000249241
0.000148658
0.000144774
0.000179045
0.000146169
0.0001714
0.026942
0.000155475
0.000149838
0.000149386
0.000148631
0.00020888
0.000148704
0.000168418
0.000167495
0.0198964
0.000147745
0.000163407
0.000153897
0.000158479
0.000150708
0.000161334
0.000149909
0.000160854
0.018544
0.000147276
0.000406217
0.000211011
0.0492533
0.0526541
0.000170372
0.0700259
0.0248845
0.0514407
0.000240463
0.00499131
0.000177529
0.00026923
0.000147147
0.000214643
0.000212971
0.000803542
0.00018774
0.000149921
0.000146886
0.000175089
0.000208174
0.000149546
0.000151158
0.000169978
0.000148711
0.00014864
0.000150062
0.000181917
0.000163477
0.000145741
0.000520005
0.0318719
0.000147946
0.00016116
0.00017487
0.000145651
0.0313165
0.000168736
0.000163778
0.000522554
0.0870707
0.00016348
0.0501394
0.0400397
0.0219508
0.0787311
0.000147952
0.000145785
0.0111519
0.00227688
0.00015173
0.0236362
0.000148474
0.000147201
0.000148279
0.000149953
0.000151056
0.000148228
0.000173672
0.000163469
0.000205952
0.000181158
0.000157765
0.000559401
0.0400918
0.0644517
0.000161181
0.000274573
0.000151793
0.0708845
0.000145206
0.000583508
0.0219708
0.000173684
0.000220197
0.00591399
0.000875068
0.00016362
0.000163857
0.000161364
0.000148196
0.000229564
0.000302453
0.000179532
0.000144112
0.000147985
0.000158462
0.0160284
0.000224539
0.000154921
0.000196422
0.0761237
0.000160554
0.0355364
0.000163127
0.000143592
0.000147818
0.0840612
0.000187509
0.0856567
0.000151165
0.00014807
0.000147395
0.00106623
0.000156119
0.000148336
0.00019671
0.0379233
0.000150874
0.000203982
0.000271655
0.000151414
0.000223321
0.000145839
0.000147461
0.000183056
0.000146828
0.000169145
0.000149013
0.000149056
0.0297488
0.000148278
0.0001606
0.00730241
0.000148294
0.000180957
0.000153626
0.000170682
0.0371426
0.0422233
0.000333326
0.000209807
0.000207993
0.0714269
0.000184367
0.000145868
0.000168898
0.000146899
0.00014894
0.068656
0.000147722
0.0128848
0.000183262
0.000147165
0.0224267
0.00779807
0.000152696
0.0616294
0.000149022
0.0369501
0.084945
0.000148127
0.000148985
0.000171892
0.000148523
0.000255705
0.0842318
0.000148977
0.000156895
0.000157949
0.0451566
0.000149911
0.0317707
0.0112933
0.000147676
0.000173073
0.0426539
0.0255653
0.00014706
0.0170187
0.000149791
0.0214639
0.000164389
0.000148052
0.0641668
0.000148666
0.050218
0.00015044
0.0443082
0.00015043
0.000198813
0.000212522
0.000157442
0.000388518
0.0175314
0.00822937
0.0578079
0.0535863
0.000151107
0.000209486
0.000150861
0.000149817
0.000147046
0.000146991
0.000148049
0.00766705
0.000146071
0.0802359
0.000147035
0.0513053
0.000145829
0.000148217
0.000146954
0.000150823
0.0470731
0.000171987
0.022254
0.0001491
0.0288645
0.0418219
0.000147847
0.00014825
0.000148121
0.000169904
0.0428652
0.000168889
0.000149831
0.0515641
0.000147978
0.000180301
0.00017994
0.0205439
0.000163591
0.000150782
0.000146746
0.000208855
0.000198656
0.000163297
0.0472072
0.000147843
0.000233279
0.00014555
0.0200561
0.0792096
0.000148864
0.0415848
0.000147792
0.00014768
0.000145778
0.000148256
0.0643178
0.00253425
0.0173026
0.0458035
0.000161778
0.000171971
0.000169664
0.048294
0.000145525
0.000148536
0.052024
0.0376144
0.000171452
0.000165548
0.000186081
0.000272011
0.0661453
0.000184068
0.000149818
0.000152103
0.0208914
0.000262707
0.00016712
0.076694
0.000147766
0.000145681
0.000150852
0.000159764
0.000160553
0.023911
0.000146569
0.000147091
0.000145266
0.000322793
0.00014668
0.000676313
0.000149905
0.000166569
0.0141808
0.000149906
0.000197808
0.000149076
0.00015197
0.000152747
0.000174496
0.000196583
0.00206531
0.000189379
0.00014385
0.000145605
0.00018194
0.0713416
0.035786
0.00015541
0.000217739
0.02313
0.000506825
0.000149091
0.0783708
0.000426661
0.000189471
0.000162287
0.0227484
0.000149867
0.000180928
0.00014882
0.000350882
0.0175958
0.000149883
0.000143595
0.000165544
0.018999
0.0519796
0.000147938
0.0431288
0.000189167
0.0498743
0.000292793
0.000157269
0.000214534
0.000166042
0.000151308
0.000145769
0.00039373
0.00198043
0.000201052
0.021897
0.0874008
0.0498502
0.0302189
0.0453
0.000147282
0.0382608
0.000158701
0.000147884
0.000157736
0.00015383
0.0399519
0.00014982
0.000148142
0.000213893
0.000183313
0.00014816
0.000969128
0.0483179
0.0194094
0.000158598
0.000186621
0.000147306
0.000149533
0.080823
0.000216325
0.000146593
0.0201721
0.00014596
0.000148652
0.00854654
0.000149913
0.000182079
0.000143956
0.000227908
0.0292242
0.000145303
0.000158508
0.0852998
0.000148306
0.00890405
0.00014862
0.0214112
0.000147496
0.000176715
0.000163013
0.0472888
0.000148041
0.000234191
0.000279112
0.00014654
0.000148833
0.000146211
0.00014602
0.0181151
0.0471495
0.00019037
0.0149557
0.000187927
0.00014797
0.000173899
0.000155767
0.000146463
0.000147799
0.000169718
0.0411259
0.0574277
0.000172649
0.000214433
0.000208028
0.000145625
0.000148463
0.000150203
0.000255176
0.000144074
0.0089844
0.048465
0.000197037
0.000148117
0.0447969
0.000149785
0.000263957
0.00020756
0.000147967
0.000148766
0.000155772
0.0382724
0.000146952
0.000284831
0.000146562
0.0845444
0.000146081
0.00488751
0.000156265
0.000158951
0.0296211
0.000146689
0.000251344
0.000148502
0.000147174
0.0167537
0.000197507
0.0500641
0.000145481
0.000149324
0.000149189
0.00021273
0.00017948
0.000167451
0.000151035
0.000155207
0.000145867
0.0322024
0.000160642
0.0772877
0.0103194
0.0612979
0.00015705
0.000144915
0.000149821
0.00949282
0.0568079
0.000147309
0.000147274