/*--------------------------------*- C++ -*----------------------------------*\
| =========                 |                                                 |
| \\      /  F ield         | OpenFOAM: The Open Source CFD Toolbox           |
|  \\    /   O peration     | Version:  v2012                                 |
|   \\  /    A nd           | Website:  www.openfoam.com                      |
|    \\/     M anipulation  |                                                 |
\*---------------------------------------------------------------------------*/
FoamFile
{
    version     2.0;
    format      ascii;
    class       volScalarField;
    location    "100";
    object      nut;
}
// * * * * * * * * * * * * * * * * * * * * * * * * * * * * * * * * * * * * * //

dimensions      [0 2 -1 0 0 0 0];


internalField   nonuniform List<scalar> 
27802
(
0.00133607
0.00583642
0.000974642
0.00183643
0.00584323
0.000426639
0.00584244
0.000313436
0.00584471
0.000694357
0.00945055
2.69925e-05
0.000533842
5.14474e-05
0.0146216
0.00106362
0.00846586
0.00584672
0.00984394
0.00342005
0.00760424
0.0144869
0.00585189
0.000913272
0.000198558
0.000255968
0.00583212
0.00152884
0.00586186
0.000191457
0.000946289
0.000394722
0.00120776
0.00584482
0.00583436
0.000126711
0.00138578
0.00584929
0.00590053
0.000761119
2.94992e-05
0.00583449
0.00126329
0.00583513
0.000385395
0.00341942
0.00583356
0.00191416
1.30568e-05
0.0114491
0.0145613
0.000229286
0.00459066
2.17674e-05
0.00584893
0.00583351
0.000618771
0.00583812
0.000465119
0.00027642
0.00266419
0.000991735
0.000535247
0.00582869
0.00583583
0.00253565
0.00362228
0.000541492
0.000294765
0.00297153
0.00583524
0.0135427
0.0144354
0.00102198
0.000711725
0.00255015
0.0036252
0.0013515
0.00287636
0.000253001
0.00587333
0.00583277
0.00011408
0.00121186
0.00272858
0.000796292
0.00583537
0.0116389
0.00193851
0.00356944
0.00583684
0.00234514
0.00584251
0.00010002
0.0146233
0.00135942
0.00583304
0.00141455
0.00583724
0.00146633
0.00590258
0.00586266
2.2959e-05
0.00184597
0.0124678
0.000481827
0.00392162
0.00583635
0.00588634
0.000347554
0.000841409
0.00583685
0.00584523
0.00583703
0.00374517
0.00582833
0.000815757
4.08948e-05
0.00963843
0.000198089
0.00272741
0.000304411
0.00961373
3.55291e-05
0.00220595
4.97193e-05
0.00172277
0.00152392
0.00368368
0.00584625
0.00061352
0.000501116
0.00181265
0.00177047
0.000620983
0.00260126
8.33763e-05
5.11351e-05
0.00583526
0.00226618
5.3397e-05
0.000717078
0.000264978
0.000223125
0.00584847
0.00851963
0.000304676
0.00110503
0.00542417
0.000955138
0.000245117
0.000639013
0.00128025
0.0121881
0.00583566
0.000408185
0.00228035
0.00132166
0.00583945
0.00583431
0.0058288
0.00271037
0.0094565
0.00583147
0.00583544
0.00583584
0.0130873
0.00584379
0.00201467
0.00139251
0.000157674
0.0037737
0.0106346
0.000710164
0.00583708
0.000629427
0.00049647
0.0093905
0.00582831
0.00413468
9.99206e-05
0.0114688
0.00207206
0.00763033
0.00583968
3.884e-05
0.00778373
2.12275e-05
0.000733868
7.05371e-05
0.0133978
0.00583642
0.00108171
0.000537533
0.00589226
0.000843954
0.000190405
0.00997099
0.000612297
0.0083807
0.000114991
0.00583444
0.00137514
0.000814588
0.0132498
0.000552648
0.00584332
0.00584908
0.000215091
0.00587534
0.00476813
0.00918106
0.00191201
0.00664238
0.00583776
0.00583232
0.000661211
0.00163911
0.00583876
0.00583625
0.0145993
0.00584312
0.00314881
0.000872063
0.00208682
0.000709999
0.00181865
0.00113831
0.00583445
0.00234135
0.00583685
0.000603331
0.000569486
0.00583443
0.00583644
0.00163989
7.36513e-05
7.38422e-05
0.00180225
2.3976e-05
0.00248894
0.0109145
0.0114957
0.0132718
0.00696478
0.00213932
0.00583315
0.00213238
0.00583897
0.0058337
0.000463419
0.00582993
0.000125742
0.00131036
0.0111265
0.0133665
0.00152108
0.000198449
0.00267928
0.000713404
0.00582956
0.00286057
0.0106463
0.000699211
0.00295067
0.00568183
0.00157944
3.82211e-05
0.013306
0.000368299
0.00149987
0.000884558
0.00667339
0.0058306
0.0058299
0.00583433
0.000511818
0.00583332
0.00508708
0.0132361
0.00148765
0.000327994
0.000215801
0.00105952
0.00778704
0.00218963
0.00885957
0.00583258
0.000157781
0.0110075
0.000344026
0.00202734
0.00339836
0.000409859
0.00583288
0.00258814
0.00149162
0.000243324
0.000423382
0.000301859
0.00281825
0.000277754
0.0113414
6.53597e-05
0.0114302
0.00583333
0.000583828
0.00298894
0.011467
0.00586784
0.0114282
0.000304941
0.00771482
0.00583846
0.00745745
0.00430228
0.000397433
0.00585469
0.00173937
0.00612004
0.00586691
0.000725194
0.000672274
0.0113408
0.00231146
0.00584399
0.000127903
7.87605e-05
0.00740353
0.00582958
0.00701368
0.00583083
0.00583438
0.000631283
0.000104509
0.00184752
0.00583973
0.00380707
0.000294042
0.00251185
0.00444454
0.000426023
0.0055445
0.000289375
0.00330297
0.000292054
0.00188532
0.00585257
0.00211925
0.00584341
3.97276e-05
4.11251e-05
0.00583259
0.000208362
0.00289885
0.0058733
0.00133629
0.00385502
0.00348014
0.00582843
0.000645265
0.000239047
0.0132914
0.0058301
0.0042021
0.00405387
0.0118694
0.005832
5.74108e-05
0.0058327
0.000648413
0.000230713
0.00121924
0.00182088
0.00145988
0.00355976
0.00012391
0.00583721
0.000728391
0.000657607
0.000322357
0.00583448
0.00314761
0.00583627
0.00400158
0.000841306
5.76936e-05
0.000998985
0.00673231
2.85941e-05
0.00531059
0.00073744
0.00280645
0.0039376
8.93651e-05
0.0016051
0.00583439
0.0121647
0.000392782
0.00723814
0.00155103
0.00549439
0.00583217
0.00583337
0.00123318
0.00811227
0.00583327
0.000562814
0.000600788
0.00150498
0.00588006
0.000467563
0.00470036
0.0145318
0.00142517
0.00278452
0.00582982
0.0107221
0.00586362
0.000750938
0.00170222
0.00365154
0.00583643
0.00584348
0.000884924
0.00259165
0.000249061
0.00454378
0.0058385
7.81819e-05
0.0058358
0.00251987
0.000713084
0.00644372
0.00162166
0.00762483
0.000324141
5.61648e-05
0.00052301
0.00407718
0.00022211
0.00375756
0.0015656
0.00583716
0.000428298
0.00217474
0.000118708
0.00263277
0.00583728
0.00582972
0.00345908
0.0114224
0.00239091
0.00583095
0.00536033
0.00583433
0.00528308
0.00583427
0.0029095
0.00199272
0.000455752
0.00287083
0.00583178
0.00866027
0.00583407
0.000793458
0.00852044
4.81242e-05
0.00583383
0.00326297
0.000212034
7.22937e-05
0.00365175
1.59548e-05
0.00124506
0.000283077
0.00582798
0.000709973
0.00583329
7.60019e-05
0.00412787
0.00149379
0.000279872
0.0131171
0.00583071
0.00430169
0.000112154
0.0016241
0.00360301
0.0058475
0.00582839
0.000476362
0.00119674
2.69205e-05
0.000631024
0.00582879
0.000118793
0.00934793
0.000468122
0.0025205
0.00582975
0.00583547
0.00728954
0.000664312
0.000356573
0.00689823
0.00721322
0.00584014
0.00506673
0.00583855
3.20806e-05
0.000522492
0.00584718
0.000723517
0.00584069
0.00150849
0.000442689
0.00535702
0.000470166
0.0039001
0.00887059
0.000703168
0.00583411
0.0058339
0.00208506
0.000193091
0.0058358
0.000458738
0.000485318
0.000191932
0.00231808
0.0109224
0.000512075
0.00253305
1.26394e-05
0.00584049
0.00583373
0.000798426
0.00794355
0.00583255
0.00809645
0.000604964
3.87228e-05
4.99217e-05
0.00241827
0.00584488
0.00583385
0.00828892
0.000649298
0.00583333
0.000427549
0.00159069
0.00426394
0.00585008
0.00500856
0.000669387
0.000495215
0.00388006
3.49004e-05
0.00576667
0.0135968
0.000187605
0.00374784
5.45872e-05
0.00302267
0.00583065
0.0026507
0.00583255
0.00786654
0.00482432
0.00582795
0.00585354
0.00294342
5.70687e-05
0.00536133
0.002539
0.00101682
0.00534314
0.000908417
0.000644803
0.00908962
0.010354
0.0027128
0.00304821
0.00583287
0.00583309
0.0103741
0.0058292
0.0103408
0.000382887
0.000110603
0.00285548
0.00183064
0.00183975
0.00583879
0.00576637
0.00137706
0.00583258
0.00583456
0.00735392
0.00124435
0.00946953
0.00663129
2.46505e-05
0.00107487
3.39126e-05
8.88874e-05
0.0058609
0.0131022
0.0128435
0.000559361
1.92414e-05
0.00491006
0.000799447
0.000238534
0.00583475
8.40516e-05
0.0058337
0.0013754
0.000237803
8.07332e-05
0.001669
0.00141911
0.00810405
0.00157237
0.00188657
0.00583586
0.00122414
0.000496888
5.74078e-05
0.00583446
7.9796e-05
0.00590194
0.000700405
0.000116506
0.00583765
0.00583587
0.000651039
4.95437e-05
0.0018462
0.000319441
0.000946066
0.00841381
0.00119777
0.000749999
0.00422101
0.000165378
0.000460913
0.00999546
0.00086234
0.00583318
4.32043e-05
0.000658498
0.00583908
3.32108e-05
0.00583587
2.21965e-05
3.26013e-05
0.00583575
0.00583474
9.77414e-05
0.000808591
0.000814688
0.00150159
0.00158369
0.00583602
0.00128427
0.00235968
0.0011642
0.000379356
0.00584126
0.00586856
0.00549143
0.00327446
0.00153157
0.00583395
0.00183136
0.00583796
0.0021687
0.0101771
0.00583461
0.0113811
0.000710311
0.00585129
0.00112303
0.00583132
0.00141336
0.0081888
0.00544375
0.00592949
0.00669315
0.00814313
0.00583085
0.0106038
0.00020079
0.00583597
0.00583174
0.00255894
0.00086366
0.000393722
0.0058326
0.00583596
8.64484e-05
0.00575349
0.00583425
0.00220576
0.0114199
0.0138846
0.00586942
0.00175089
0.00583624
0.0011491
0.00049529
0.00583295
0.0011948
0.0058361
0.00155963
0.000963259
0.0086969
0.000214345
0.000622896
0.00045206
0.000163904
0.00145482
0.00422772
0.00586258
0.00369954
5.31767e-05
8.64167e-05
0.0038625
0.00882988
0.0132598
0.00583282
0.00131058
0.0058526
0.0058341
3.9168e-05
0.00583425
0.000110795
0.00361846
0.000178045
0.000915303
0.00127922
0.00560112
0.000173351
4.07264e-05
0.00074793
0.0045249
5.36629e-05
0.00583379
0.0114295
0.00583757
0.0101178
0.00357872
0.00192897
0.00585275
0.0114339
0.00583174
0.00194148
0.000964243
0.000660614
0.000592471
0.00771692
0.00550293
0.00129327
0.00127378
0.000121613
0.00586162
0.00426278
0.000814141
0.00444945
0.00715063
0.00877206
0.00103919
0.00162882
0.00583524
0.00583374
0.000764435
0.000279674
0.00124934
0.000857834
0.005996
0.000147385
0.00583643
0.00583358
0.000393119
0.00509508
0.0129037
0.000301155
4.75888e-06
0.000989646
1.67223e-05
0.00365153
0.0121304
0.000269725
0.0110765
0.000162583
0.0068689
0.000974366
0.000800692
0.00187365
0.00198293
5.54608e-05
0.000626557
0.00112885
0.00156246
0.0017223
0.010045
0.000390922
0.00582902
0.00828216
0.00583382
0.00562355
0.000147368
0.000354659
0.00130164
0.000311161
0.000462408
0.00583395
0.00907553
0.000584825
0.00583509
0.00950264
0.000605964
0.00932971
0.00583278
0.00108542
0.000547929
0.0043806
0.000130901
0.00585238
0.000230311
0.0047937
0.0132198
0.000735796
0.000167929
1.74267e-05
0.0019936
0.00583392
0.00584418
0.000184579
0.000597627
0.00249483
0.00583179
0.000352491
0.000960575
0.0142047
0.000210976
5.78196e-05
2.7299e-05
0.000768301
0.00203444
0.0121892
0.00211123
0.000633407
0.00819575
0.00583945
0.00131458
2.65434e-05
0.00583052
0.00656953
4.68943e-05
0.00592524
0.000384089
0.00307031
0.0010711
0.00544889
0.00583073
0.00634319
0.000847337
0.00181118
0.000477042
0.00583183
0.00151062
0.00583313
0.00190231
0.000779776
0.000587764
0.000273992
0.000182971
0.00119584
0.000216401
8.53287e-05
0.000646413
0.000331878
0.000281767
0.000270849
0.00108579
0.00583704
0.0058356
0.000198542
0.000241991
0.00203855
0.000207465
0.00583103
0.000655406
0.00318816
0.00106084
0.0023902
0.00583531
0.00583565
0.00180207
0.00583549
0.00134601
0.00583878
0.000255727
0.00967691
6.50223e-05
0.00347612
0.00583186
0.000133294
0.00291491
0.000694402
0.00583889
0.000104076
0.00171
0.00860376
7.62411e-05
0.00403014
0.00215287
0.000142021
0.000502148
0.00583598
0.000327969
0.00583625
0.000138863
0.00583401
0.00200953
0.000490139
0.00131862
0.0058376
0.000422661
0.000384476
0.000152577
0.000890564
0.00590237
0.00210281
0.000863076
0.0146128
0.00248073
0.000127383
0.00383909
0.00583576
0.00167424
0.00592641
0.0076623
0.000932501
0.00275182
0.00160065
0.0100686
0.00583724
0.00407564
0.000626347
0.00254809
0.00229223
0.000472715
0.00293473
0.00584981
0.00692509
0.000305736
0.00684121
0.00375709
0.00330858
0.0020945
0.000144986
0.00583272
0.00052063
0.000119607
0.0058322
0.00583313
0.000181861
0.000904331
0.00391304
0.00250185
0.000994086
6.07948e-05
0.00590008
0.000924845
0.00114808
0.0106425
0.000253209
0.00393663
0.00253623
0.000951053
0.00333267
3.38899e-05
0.000154373
0.0027899
0.00286509
0.00451097
5.55982e-05
0.000272804
0.000999241
0.000287601
0.00583188
0.00222186
0.0105324
0.00113874
0.000257615
0.00584701
0.00297785
0.000369769
0.00197557
0.0020849
0.00583385
9.52127e-05
0.00583314
0.00583458
0.00267723
0.00117377
0.00258862
0.000990458
0.00345746
0.00593226
0.000742354
0.000183068
0.00584447
0.000123954
0.00583331
0.000267598
0.00296863
0.00167775
0.0071297
0.000868938
0.00587217
0.00144906
0.00584618
0.000868781
0.0016513
0.00138735
0.0137734
0.00583601
0.00583091
0.00124751
0.000484405
0.00583314
0.00583408
0.000977957
0.00592039
0.000139502
6.76206e-05
0.00584224
0.00583078
0.0051277
4.83517e-05
0.00137181
0.00583213
0.000180228
5.19006e-05
0.00583206
0.00585801
0.00778372
0.00583225
0.00588083
0.00040991
0.00144643
0.00584452
0.00583613
0.000216456
0.00583568
0.00332855
0.005844
0.00583384
0.00941522
0.00248069
0.00583369
0.012358
0.00539166
0.0098098
0.0113723
0.001837
0.00945332
0.0011789
0.00144667
0.00589936
0.00583075
0.00645974
3.62838e-05
0.00700257
0.00105978
0.005836
0.000736433
0.00268053
5.43336e-05
0.00161069
0.00171473
0.00583643
2.8533e-05
0.0120138
0.000122388
0.00583333
0.00831899
0.000293035
0.00260217
5.16137e-05
0.00582946
0.00583425
0.00251962
0.00592307
0.000453696
0.00343676
0.00299095
0.00583068
0.00583305
0.000822068
0.00174175
0.000702467
0.00583611
0.00583382
0.0149339
0.00583646
0.00406642
0.00198254
0.00977418
0.000983344
0.00583488
0.00839554
0.00583213
0.000919393
8.24602e-05
0.00114029
0.00112521
0.00874782
0.000141635
0.00740841
0.000245252
0.000937818
0.00198706
0.000179204
0.00206141
0.00119147
5.52028e-05
0.00718523
0.0067629
0.000204167
0.00576362
0.00159064
0.00508244
0.0051583
0.00233358
0.00114374
0.000163233
0.00583119
0.0124191
0.00583301
0.00583353
0.011429
7.59628e-05
0.00122657
0.00588543
0.00393278
0.0105414
0.00583063
0.000739283
0.00583602
0.000152147
0.00583107
0.00297318
0.00109464
6.39308e-05
0.00583434
0.000576869
0.00212167
0.00583102
0.00976275
0.00107904
0.00045607
0.000422437
0.00112939
0.0154625
0.00105274
0.00582959
0.000710577
0.00135098
0.00583383
0.000757595
0.00556969
0.00583081
0.00189556
0.0054402
0.00583115
0.00153573
0.00324178
0.00585349
0.0058361
0.00582894
0.00192188
0.00583369
0.000294266
0.0143066
0.000588009
4.19184e-05
0.00589537
0.00583038
0.00326542
0.00813128
0.0149002
0.00583106
0.00103366
3.8601e-05
0.000833159
0.000157158
0.00419334
0.000225188
0.000604775
0.000248972
0.000623919
0.00583764
0.00138471
0.000232433
0.00585386
6.04822e-05
0.000961068
0.00275978
0.000162059
0.000881918
0.000125376
0.00583352
0.000661945
0.0131499
0.00061804
0.000983911
3.86303e-05
0.00255329
0.00276071
0.00591913
0.00596806
0.000125508
0.00225701
0.0058331
0.00279453
0.000500928
0.00584885
0.000451201
0.00583473
0.00305908
0.00226677
0.00315387
0.00583392
0.00833792
0.00583538
0.00117623
0.0020264
0.00168899
0.00583035
0.00350058
0.0017242
0.0058323
0.00177795
0.00583124
0.0154056
3.35115e-05
0.0129528
0.0134115
0.0021312
0.000128312
0.00433656
0.00195341
0.0112781
0.000818221
0.00580722
0.000594133
0.00203357
0.00322216
0.00059773
0.000302779
0.00593638
0.00118352
0.00447173
0.000693288
0.00847627
0.0118686
0.00027755
0.00583142
0.000791712
0.00210465
0.00353352
0.00583495
0.0001363
0.000671775
0.000494114
0.000693685
0.000786062
0.00583829
0.000352095
0.00178382
0.00239361
0.00027886
0.00583973
0.000817038
5.85609e-05
0.00142032
7.49147e-05
0.00291985
0.0113155
0.000919272
0.00583309
0.00583537
0.00346564
0.000221606
0.00164026
0.00583449
0.000751879
0.000783247
0.00223519
0.000167993
0.00195196
0.00584649
0.00583298
5.56304e-05
0.00164033
0.00583455
0.00542331
0.00583422
0.00245894
0.000736334
0.00850645
0.000138768
4.35586e-05
0.000221486
2.65648e-05
0.00583997
5.42799e-05
0.00583467
0.0131954
0.00230902
0.00584059
0.00562427
0.00180851
0.00353238
0.000492493
0.0107393
0.00161734
0.00583595
0.00256418
0.00118036
0.012406
0.00428137
0.00583411
0.00195127
4.73523e-05
0.000241669
0.00927462
0.000464307
0.00783672
0.005833
0.00275921
0.00227928
0.00583425
0.00583099
0.00583545
3.49997e-05
0.00583901
0.000863959
5.24941e-05
0.00341248
0.00583776
0.00583417
0.000908608
0.0121802
0.000263806
0.00583333
0.00252322
0.000310949
0.000899199
0.0121416
0.000721896
0.00756633
5.33853e-05
6.41164e-05
9.11505e-05
0.000438659
0.000954715
0.00653825
0.000103983
0.00583813
0.00595961
0.000665151
0.000992197
0.00583571
0.000664272
0.000595649
0.00578267
3.6342e-05
0.000658661
0.00583473
0.00225136
0.00285972
0.000672635
0.00517496
0.00583013
0.00585493
0.00040357
0.00304282
0.00252268
0.00906981
0.0120533
0.00583867
0.0136168
0.00405652
0.00263845
0.00583704
0.00739382
0.00583306
0.000922871
0.00539204
0.00583418
0.00584062
0.00480782
0.00062989
0.00242485
0.00140404
0.00583045
0.00703603
0.00156846
0.000924132
0.00583281
0.00436426
0.00583633
0.00583335
0.0115605
0.000864583
0.00583345
0.011674
0.00815922
0.000110559
0.00591755
0.000274236
0.000489024
2.62426e-05
0.00583884
0.00199058
0.0067028
0.0133572
0.0036016
0.00583333
0.00320722
0.00881988
0.00251304
0.000685643
0.00563487
0.00947206
0.000731428
0.00592122
0.00213515
0.00572682
0.010536
0.00134681
0.00444225
0.0021232
0.00442692
0.00584409
0.0135138
0.0116735
0.000476827
0.00583086
0.00911843
0.000957674
0.00127805
0.00348195
0.00110584
0.000519721
0.00112203
0.00583291
0.00694048
0.00583405
0.00583144
0.00430049
0.000638541
0.0100517
0.00583183
0.00583171
0.00608439
0.00590767
0.00311404
0.00025539
0.00517265
0.00612918
0.00723329
0.0058357
0.00420665
0.0018825
0.000652214
0.00240543
0.000337383
0.0061323
0.0022917
0.00583398
0.00219822
0.00537419
0.000502954
0.000471416
0.00583157
0.00583892
0.00201302
0.000356321
0.00235125
0.00160633
0.00583587
0.00583611
0.00129216
0.00440099
0.00583043
0.00254585
0.00582695
0.000294222
0.000678886
0.000388244
6.52794e-05
0.005836
0.00254457
0.00241447
4.77183e-05
0.00954988
0.00583066
0.000681436
0.00168244
0.0011165
0.000589686
0.00254754
0.000645125
6.00297e-05
0.00582906
2.96853e-05
0.0037617
0.00244258
0.000686652
0.00442052
0.00584563
0.00096093
0.00583644
0.00146976
0.00146161
0.00583039
0.00583444
1.76384e-05
0.00232986
0.00583752
0.00582629
0.00583627
0.000280922
0.00133548
0.000743956
0.000530631
0.00582904
0.000317057
0.0130626
0.000372456
0.00768484
0.00114905
0.00583016
0.00131335
0.0115868
0.00582903
0.0019784
0.00583447
0.00702766
0.0121759
8.85142e-05
0.000814009
0.0057399
0.00233858
0.00177472
0.00573322
0.00210664
0.000189532
0.0111387
0.00749501
0.00121395
0.00584863
0.000906973
5.97479e-05
0.00284155
0.00215749
0.00583428
8.27929e-05
0.000860455
0.00876886
0.000631401
0.00589296
0.000409421
0.00172011
0.00808405
0.000652795
0.00220007
0.00584923
0.0119497
0.00585149
5.07207e-05
0.00262697
0.00612302
0.000643114
0.0106887
0.000329227
0.00582824
0.00583415
0.00583279
0.000375037
0.00769176
0.00183624
0.00583441
0.00314678
0.00124513
0.00597235
0.000234135
0.00583546
0.000773965
0.000387993
0.000359773
0.0110264
0.000171484
0.00011624
0.00762998
0.00583636
0.0027889
0.000138111
0.000567655
0.00996945
0.000245498
0.000163223
5.82101e-05
0.00592708
0.011361
0.00583326
0.000720193
0.00330482
0.00583737
0.000724098
0.00583517
0.00583666
0.00583089
0.000362203
0.00590484
0.00900511
0.00583727
0.00585314
0.000445573
0.000579039
0.00161423
0.000309436
0.00583645
0.000348585
0.00582597
0.00583628
0.000572711
0.0118573
0.000646218
0.00583452
0.00583084
0.00122334
0.0083439
0.00237119
0.00491399
0.000784124
4.03998e-05
0.000291656
0.00162319
0.00207025
0.000760656
0.00430379
0.00162049
0.0114476
0.000827298
0.0130548
0.00583061
0.00193495
0.00583622
0.00312513
0.000116672
6.39085e-05
0.00275663
0.00197295
0.000592593
0.00312839
3.50436e-05
0.000715992
0.0012767
0.00272473
0.00768866
0.00130937
0.00197402
0.00584506
0.00583402
0.00593465
0.00819749
0.000163523
0.00583411
0.000113289
0.00501887
0.00189388
0.000224943
0.00583319
0.00403212
0.00157406
0.000853837
2.61982e-05
0.00511079
0.00321502
9.08486e-05
0.0135336
0.000686815
0.0058549
0.0113506
0.00200664
0.00524883
0.000688569
0.00583351
0.0058469
0.000422804
0.000132096
0.000768827
0.00173637
0.00585496
0.000822743
0.00583083
0.00583419
0.00186349
3.14082e-05
0.000489208
0.00181204
0.00148254
0.00585141
0.000570545
0.00583514
9.09189e-05
0.00311728
0.00583443
0.00189023
0.00583391
0.0058317
0.000204102
0.00583721
0.00590367
0.00741008
0.000994595
0.00115326
0.000112103
0.00116767
0.00421764
5.14145e-05
0.00248688
0.00583168
0.000512828
0.00079005
0.00383081
0.00226589
0.000136852
0.00583322
0.000216667
0.0070201
0.000187317
0.000265615
0.00441393
2.75171e-05
0.00212198
0.00561174
0.000204982
0.0109811
0.00123352
0.0074326
0.00348262
0.00585634
0.00163798
0.00584752
0.00583078
0.00583912
0.0021124
0.00261702
0.000934887
0.0100944
0.000163135
0.00111353
0.00584999
0.000385752
0.000819623
0.00012033
0.0154405
0.00583376
0.00583597
0.000416065
0.00161287
0.00718995
0.00524373
0.00217179
0.005836
0.00193372
0.00583104
0.00206886
0.000436787
0.0110075
0.00422842
0.000119177
0.000652407
0.00132947
0.0118577
0.00816934
0.00224164
0.00583334
0.000995159
0.00046238
0.00583522
0.00028464
0.00037408
0.00726604
0.000351614
5.88887e-05
0.00583381
0.00605893
0.00285516
4.4233e-05
0.000318879
0.0058346
0.000614638
0.00243235
0.0058317
0.00227147
0.000722042
0.00105354
0.00178279
0.000930515
0.000446038
0.000845789
0.00585628
0.00224636
0.0058323
0.000633026
0.00566084
0.000407261
0.00428932
0.00240721
0.00583102
0.00194549
0.00110175
0.00345385
0.00246515
0.000259393
0.00219122
0.000321559
0.0058706
0.00449499
0.00583403
0.00100507
6.73847e-05
0.00583367
4.0614e-05
0.000476731
0.00237741
0.011397
0.000333181
0.000659898
0.000148144
0.00461821
0.00583329
0.000490047
0.000144212
0.00583635
0.00222381
0.00583631
0.000139455
0.0127904
0.000611847
0.011294
0.00961789
0.00583435
0.000715252
0.000819755
0.000543484
0.00452605
3.88024e-05
0.00583761
0.00697385
0.00266006
3.09846e-05
0.00977308
0.000540871
0.00583531
0.00149467
0.00693986
0.000822416
0.00583348
0.00024127
0.00298309
0.00583311
0.0113684
0.00123883
0.00110142
4.63858e-05
0.00610834
0.00278666
0.00583599
0.00131555
6.29526e-05
0.00583333
0.000912883
0.00492094
0.00139321
0.00310387
0.00237529
0.000638066
0.00226291
0.014843
0.00759623
0.00014856
0.000709154
0.00590551
0.0058318
7.19038e-05
0.00583075
0.000113984
0.00494765
0.000835105
0.000318115
6.01621e-05
0.000829575
0.000232389
0.00583645
6.68366e-05
0.000541589
0.00585872
0.000759309
0.00267462
0.00356638
0.00583367
0.0058306
0.00306358
0.000629599
0.00208357
0.000422441
0.00443512
0.00105178
0.00585166
6.36135e-05
0.00140743
0.00136503
0.000786182
4.5908e-05
3.82083e-05
0.000450403
0.00583831
0.00149432
0.00188542
0.00582873
0.000563805
0.00583364
0.000576727
0.0058396
0.0012255
0.00823382
0.00583337
0.0109014
0.000110159
0.000471559
0.00646208
0.0020131
0.00265894
0.005834
0.0029789
0.00588809
0.000151321
0.000242614
0.00583627
0.00583628
0.000218773
0.00583372
0.000699775
0.00583922
0.00583341
0.00201228
0.00583143
0.00139097
0.00584393
0.00583344
0.00292811
0.00583543
0.00256406
0.00583176
0.00141533
0.00138775
0.00410479
0.00398519
6.81042e-05
0.000812657
0.0016546
0.00974965
4.89829e-05
0.000109711
7.54327e-05
0.0058312
0.00157239
0.0139505
0.000124098
0.00585494
4.7932e-05
0.00284967
0.00150479
0.000458153
0.00584984
0.000744218
0.000129076
0.0013566
0.00276857
0.0114867
0.000123807
0.0080679
0.000209086
0.00184982
0.00780707
0.00583563
0.00315968
0.00172957
0.0047157
0.00584614
0.00583165
0.000893945
0.00583166
0.00152154
0.000981211
3.65392e-05
0.000785664
0.00102345
0.00234256
0.00569042
0.000449332
0.00583558
0.000607411
0.00583335
0.000239274
0.00284211
0.0106997
0.00136285
0.00582878
0.00228219
0.00134126
0.000252252
0.00583036
0.000141086
0.000491615
0.0018118
0.00148116
7.54116e-05
0.000824636
0.00291667
0.000841803
0.0033111
0.000817781
0.0030159
0.0030485
0.00583821
0.0135213
0.000270321
0.00974134
0.00023465
8.30145e-05
0.00173533
0.0111418
0.00296746
0.00585897
0.000326465
0.00583136
0.00301288
7.99387e-05
0.00586735
0.000626703
0.00289241
0.00256079
0.00558215
0.00369792
0.00595121
0.000400725
0.0117074
0.000578528
0.000520014
0.00108225
0.00270551
0.00145651
0.00808794
0.0104638
0.000906493
0.00050955
0.000810348
0.00812376
0.00584011
0.00588188
0.000530698
0.00583356
0.00582849
0.00185624
0.00583596
0.000234168
0.00251871
0.00116992
0.00583611
0.00583533
0.00228809
0.000677176
0.00465583
0.000868984
0.000102734
0.00245579
0.00583662
0.000119704
0.000948439
0.00105229
0.00264418
0.000216301
0.00583629
0.000232386
0.00208012
0.0058437
3.28505e-05
0.000710632
0.0111175
0.0127452
0.00024205
0.0120823
0.00328374
0.00917427
0.000322023
0.000229084
0.00136674
0.000255237
0.00582948
0.000689453
0.000666633
0.000315051
0.000165895
0.00142057
0.00585492
5.11212e-05
0.000629716
0.00583535
0.00252107
0.000476116
0.00244097
0.00225355
0.00129395
9.42583e-05
0.000297196
0.00584414
5.18308e-05
0.00107398
0.00583484
0.000671621
4.66048e-05
0.00584033
0.00802132
7.03601e-05
0.000171837
5.51888e-05
0.0103449
0.000126433
0.0117287
0.0113934
0.0023755
0.0113885
0.00583424
0.0058415
0.00195962
0.000996528
0.00109475
0.00334044
0.00308217
0.00583707
0.00312041
0.00583644
0.00112104
0.00583233
0.000208573
0.000440626
0.000363833
4.39011e-05
0.000545628
4.75907e-05
0.0111634
0.0121516
0.000649016
0.000419535
0.00130299
0.0127664
0.00583165
0.000746214
0.00215423
0.00016818
0.000806671
0.000275077
0.000769446
0.00017292
0.000121254
0.00025216
0.00583339
3.68409e-05
0.000682857
9.10636e-05
0.00584109
0.00583163
0.000333516
0.00139649
2.64682e-05
0.000473427
0.000670154
0.0142538
0.00021389
0.00767495
0.00116564
0.00582784
0.00583619
0.00609885
0.000513673
0.0113814
0.0009299
0.00463918
0.00583285
0.000731327
0.000394032
0.00313247
0.000273948
0.00793234
0.00263931
0.000588954
0.000307646
0.00257948
0.000284929
0.00584637
0.00435592
3.9035e-05
0.00584727
0.000288795
0.00583422
0.00583429
0.00746895
0.00583239
0.000698644
0.000220916
0.00582712
6.35992e-05
0.000775355
7.81066e-05
0.00740179
0.00991532
4.24141e-05
0.000650785
0.000354877
0.0123073
0.000588529
0.00583054
0.000705656
0.00584849
0.00213879
0.013391
0.00565303
0.00375181
0.000426149
0.00583502
0.00327302
0.000323453
0.000612983
0.0112715
0.00200335
0.00120492
0.0127867
0.00590398
0.00201686
5.65535e-05
0.00249161
0.000489168
0.0106924
0.00201414
0.000336303
0.00113973
0.0110872
0.00583629
0.00577509
0.00105053
0.00583622
0.000607007
0.0107746
0.00646823
0.00583031
0.00252439
0.00583596
0.002902
0.000120229
0.00544261
0.0141751
0.00233535
0.012387
0.00115739
0.0111281
0.0011486
0.0006497
0.000654776
0.000343552
0.000117396
0.00194917
0.000723678
0.0106967
0.0117842
0.00111563
0.00133854
0.00109282
0.00583601
0.00582935
0.00583797
0.00583643
0.000935429
0.00583559
0.0141559
0.00583872
0.0122669
0.00584465
0.00331554
0.00585313
0.00224318
0.0108046
0.000449624
0.00239765
0.00583411
0.00469426
0.00940198
0.00429846
0.0027414
0.00317585
0.000303067
0.00712172
0.00111234
0.00583609
0.0125584
0.00315032
0.000230648
0.00169353
0.00177594
0.000134369
0.00110856
0.00584462
0.000674015
0.000969876
0.000170575
0.0118922
0.00583328
0.000645026
0.005856
0.00214823
0.0139429
0.00204086
0.0112286
0.0049552
0.00373659
0.00583043
0.00376186
0.00798394
0.000863358
0.00167666
0.00375781
0.00193815
0.000384323
0.000701284
0.0112869
0.00587133
0.0058333
0.0123623
0.00832022
5.68903e-05
0.00184741
0.000872802
0.000773451
0.0142128
4.12241e-05
0.00583601
0.000785732
0.00186982
0.00058584
0.000119427
0.00443407
0.00583654
0.00587317
0.00214289
0.000230335
0.000226256
0.00305152
0.00583137
0.00583836
0.00583112
0.000693086
0.00586885
8.61925e-05
0.00583628
0.00117815
0.00135455
0.00583629
0.000677338
0.00583395
0.00143196
0.000731223
0.000592025
0.000595014
0.000335725
0.000426393
0.00582889
0.00582862
0.00169335
0.00925963
0.00987641
0.000464967
0.00108058
0.00472534
0.000110795
0.00209231
0.0120108
4.66083e-05
0.000986864
0.00105073
0.00518187
0.00583615
0.000821736
0.00226306
0.000703354
0.00216387
0.00284837
0.00582729
0.00169538
0.00174444
0.0122405
0.00321679
0.00954889
0.000588092
0.0119447
3.01219e-05
0.000359317
0.000655349
9.01738e-05
0.00135587
0.00584048
5.1573e-05
0.000588208
0.000638928
0.00335227
0.0115152
0.0120649
0.00518913
0.0102873
0.00481062
0.00788797
0.000245299
0.00327027
0.000887949
0.00285815
0.00786834
0.00583604
0.00449841
0.000220313
0.000261473
0.00299611
0.000714073
0.011665
0.0033038
0.000306297
0.000773329
0.00583626
0.00583521
0.0135501
0.00106452
0.00583153
0.00224138
0.00583069
0.00265733
0.000810799
0.00583632
0.000346472
0.00584123
0.000275878
0.0074719
0.00583192
0.000252511
0.011483
0.00279969
0.000464447
0.00583341
0.00199422
0.00400138
0.000159312
0.000125258
0.0110942
0.00583217
0.000380302
0.000285196
0.00584997
0.00226244
0.00583537
0.00582911
0.00206244
0.0115513
0.000912842
0.00118988
0.000162041
0.00331215
0.000504343
0.000363637
0.00584739
0.0039862
0.00136604
0.0111129
0.00811783
0.000516394
0.000982674
0.000462088
0.00582863
0.00319129
0.00251835
0.000433227
0.00582728
0.000384897
0.0111494
0.000764842
0.00301231
0.0113245
0.00583597
0.000481673
0.000163837
0.00315802
0.00231384
0.000467542
0.0111131
0.00583081
0.000291546
0.00586587
0.0133874
0.00583187
0.00111467
0.000995746
0.000226599
0.00655927
0.00587016
2.84619e-05
0.00583325
0.00585036
0.00162604
0.000981451
0.0117399
0.00583622
0.00165255
0.00583459
0.00123486
7.22016e-05
8.58259e-05
0.00225779
0.000951796
0.00583962
0.00873653
0.000242824
0.00969105
0.000382366
0.006098
0.000397036
0.00583084
0.00583602
0.000403281
0.0119234
0.00456038
0.00547578
0.000635728
0.000253531
0.00633012
0.00066096
0.000615849
0.00589841
0.00777188
0.00249111
0.00583586
0.00444598
0.00583581
0.000419884
0.000171186
4.02121e-05
0.00583983
0.000349424
0.00743726
0.000571679
0.000275298
0.00179332
0.0116211
0.00169152
0.0118332
0.0048296
0.0106684
0.00439509
0.00261775
0.0025295
5.81607e-05
0.00384593
0.00583314
0.00529223
0.00303514
0.00475789
0.00101078
0.00284583
0.00583688
0.0136424
0.000247995
0.000953497
0.0135101
0.00296937
0.0121365
0.0131791
0.00178743
0.00583691
0.000411439
5.21324e-05