/*--------------------------------*- C++ -*----------------------------------*\
| =========                 |                                                 |
| \\      /  F ield         | OpenFOAM: The Open Source CFD Toolbox           |
|  \\    /   O peration     | Version:  v2012                                 |
|   \\  /    A nd           | Website:  www.openfoam.com                      |
|    \\/     M anipulation  |                                                 |
\*---------------------------------------------------------------------------*/
FoamFile
{
    version     2.0;
    format      ascii;
    class       volScalarField;
    location    "100";
    object      omega_0;
}
// * * * * * * * * * * * * * * * * * * * * * * * * * * * * * * * * * * * * * //

dimensions      [0 0 -1 0 0 0 0];


internalField   nonuniform List<scalar> 
27802
(
0.0262319
0.0256903
0.0265766
0.0322245
0.025219
1.81922
0.0252209
0.11158
0.025048
0.371347
6.41748
1.36891
0.0363518
0.153256
5.69145
6.89486
6.4811
0.0250511
6.3782
6.81541
10.753
5.77807
0.0248572
0.0910715
0.467213
0.0408284
0.0252181
0.0395661
0.0250667
19.2725
0.091152
0.0649103
0.0261501
0.024662
0.0255807
30.8346
8.51153
0.0249352
0.0249647
8.14747
1.20707
0.0255902
0.0307618
0.024687
0.0352755
7.52951
0.0254098
6.30482
8.07613
3.47036
5.40401
0.0413831
6.3962
4.79219
0.024974
0.0255353
0.207879
0.0253215
0.03222
0.125815
6.80411
0.0265423
0.0336647
0.0248286
0.0247023
0.0253547
3.67439
0.207594
0.126533
0.0252766
0.0246766
4.67764
5.23694
0.17508
0.0276666
0.0269104
3.58013
9.62422
7.10212
32.6746
0.0251405
0.0251692
0.059825
0.0265685
0.0253468
0.0396947
0.0256358
3.81286
10.2227
0.0253428
0.0253012
7.75125
0.0250221
23.434
4.97435
0.0437825
0.0251647
0.0421245
0.0253658
2.63915
0.0249619
0.0249206
5.31351
8.31837
5.26231
0.0341047
0.0253246
0.024694
0.0249629
0.0348594
7.40304
0.0253062
0.024666
0.0253655
0.0253295
0.0248231
0.0312784
0.383989
4.02923
0.418286
7.79914
0.117534
4.46947
0.38851
26.7261
0.184346
0.0258693
0.0284514
13.3602
0.0246837
0.109592
0.0560554
0.025539
7.23979
18.8292
0.0265724
0.0779177
0.170983
0.0253627
0.0255043
0.134234
0.422713
0.0371657
0.0434769
0.0249399
3.60491
0.0350052
0.0418746
0.0250471
1.78842
0.0424272
3.96228
0.0307642
4.22761
0.0256549
22.2316
0.0264009
0.0444993
0.0247314
0.0255427
0.0248219
0.0253477
7.48956
0.0250454
0.0256341
0.0256625
5.14375
0.0251674
0.0254886
0.0258852
0.0920132
6.9635
5.90146
22.2915
0.0252006
0.23829
22.2517
5.9304
0.024819
0.025323
0.947196
3.81585
9.71377
4.49971
0.024748
0.343062
8.52336
14.6473
0.170849
3.94945
6.33573
0.0256908
0.026253
0.491948
0.024916
4.17657
30.8537
6.73351
0.510228
4.70607
0.100196
0.0255504
0.0259853
0.0312636
6.46708
0.0646007
0.0251723
0.0250495
17.2347
0.0250075
0.0250472
5.09493
0.0322601
4.92412
0.024721
0.0252105
0.105612
0.0257028
0.0252967
0.0256848
5.0046
0.0252118
0.0253331
0.249483
0.0254819
0.235854
0.0257949
0.0425442
0.0246476
0.0254605
0.0253653
0.037302
0.201325
0.0255857
0.0256924
12.1146
0.0805034
0.0852424
0.0258566
4.98029
8.73436
4.34805
3.77333
4.37577
10.3219
0.0263293
0.0252488
7.38976
0.0247452
0.0255387
0.186562
0.0252712
0.388382
0.0258058
3.79655
4.45046
0.0294489
0.120019
0.0253303
0.0277335
0.0252497
8.31867
3.92428
0.16349
0.0252792
0.0251845
0.0256249
0.409428
4.48932
0.0626807
8.34661
0.0314539
10.2419
0.0250426
0.0252685
0.0255804
0.0549585
0.0254574
0.0250263
4.40526
0.0257067
0.0502877
0.724977
0.174614
7.58476
0.0278533
5.86995
0.0250348
0.182835
4.31755
0.615941
8.36527
7.48336
0.0326709
0.0246446
0.0253412
0.0257611
30.2595
8.33446
0.116873
8.70743
0.0480538
3.60251
21.0624
4.09372
0.0254634
0.117044
0.0252735
4.16233
0.0249465
3.41151
0.203268
4.71322
0.0253171
4.72242
15.5297
0.090438
0.0250689
0.0392421
5.04607
0.024948
0.027276
0.136593
3.60856
8.49499
0.025021
0.0577989
0.0842132
4.64729
0.0252414
4.43781
0.0250631
0.025544
0.141763
1.09616
0.0257545
0.0253039
0.0253391
0.19505
0.0269761
0.0251083
0.634424
0.0252342
0.5374
5.38889
24.4462
0.0269447
0.0251022
0.0263326
0.0250649
0.339217
0.311577
0.0251502
0.120391
0.025337
0.0249976
0.0259528
0.0251889
7.24907
0.0250269
0.236951
1.58004
5.24062
0.0246936
0.0251275
0.0251487
4.32319
0.0250411
0.595146
0.0246301
0.201486
0.100588
8.52048
0.0264634
0.0258445
0.0252326
0.0974769
0.0253143
0.183454
0.0278674
0.0346906
0.0255518
0.0253418
0.0256845
0.0251696
10.0317
0.142484
0.0892081
5.10728
1.55926
0.0252485
0.389298
0.0253913
0.025218
0.0829728
0.0263816
0.0255494
4.06393
1.27092
4.24137
0.0640795
13.9706
0.0254285
0.025463
0.166865
4.75422
0.0254586
0.0293841
0.111884
0.0280948
0.0250181
0.0356122
4.34197
5.13997
2.69918
6.98518
0.0252526
7.19329
0.0249162
0.36054
0.0313103
5.64534
0.0256923
0.025214
0.0296139
0.0261544
0.0418862
0.0252477
0.0253002
0.0803677
0.0253576
0.0253541
0.230139
5.82237
0.0581526
4.65975
0.111837
0.123153
0.181509
0.0252116
0.0393129
7.01507
0.0271714
0.0253184
0.0363159
0.0277754
0.0563933
0.0258088
0.0253618
0.0252578
7.36476
3.49279
0.0258008
0.025192
14.9161
0.0255483
4.24731
0.0255416
0.0253484
0.0268766
0.70792
0.0252977
0.0246258
6.83027
0.0253913
0.0560125
4.22181
0.146381
0.0253461
6.99588
0.673839
0.122076
6.95345
9.22393
0.0265272
0.0424995
0.0248201
0.385441
0.025464
0.108083
0.0252002
0.0307289
23.9788
4.50012
0.0252013
0.0253206
0.0586891
0.0256556
0.0252244
0.0251668
0.0250308
0.115839
0.0356243
5.05913
9.08286
0.0249571
0.106532
3.80239
0.0298236
0.0258554
0.024698
0.0256401
5.16659
0.258959
0.0445036
4.81624
4.58102
0.0253191
5.90751
0.0249597
2.42008
0.0358432
0.0251624
0.0276475
0.0252415
0.028445
8.39338
5.40421
0.0300718
6.78658
4.83863
0.172339
0.0253422
0.0253472
7.77547
0.05244
0.0256571
0.0538553
0.0336725
32.2576
0.0754166
4.28061
0.0298835
0.0253362
9.34857
0.0253231
0.0253914
0.0271963
6.02102
0.0251642
4.70564
0.0277889
1.47721
0.164545
9.17232
0.0246839
0.0253406
3.98393
0.0642358
0.0254103
0.0633741
0.0263776
0.0252174
0.0250694
6.15844
0.0563408
0.574542
4.03403
1.57196
0.0250995
4.56914
0.0522298
0.0252251
0.135699
7.3495
0.0253463
0.0254169
0.0251915
4.62662
0.0250692
0.0248181
0.0248572
0.0252754
0.598492
0.0250373
6.62519
0.0457691
0.0252546
0.0925862
0.0570491
4.22305
4.28248
7.12771
0.0252751
0.0249194
0.0249677
6.84081
0.0250317
4.19971
0.891544
0.067562
8.09585
9.13923
0.0255566
0.0253538
4.79227
0.109734
0.0251086
0.0255746
10.0303
0.170208
6.78569
4.9993
1.77739
0.0269547
1.37835
20.8671
0.0251961
6.04925
4.55095
0.06107
5.40064
12.9327
0.0272353
0.0711302
0.0252336
0.0749248
0.0251123
0.0312221
0.0378692
0.0814299
12.2323
0.107381
4.75837
0.0269381
10.1562
0.025663
0.0263248
0.0348474
0.108748
0.0253479
0.102395
0.0253564
0.0561496
0.0637578
0.0251949
0.0253513
0.0378881
0.127333
0.0575247
0.855884
0.0282094
4.77075
2.02796
0.37507
0.0252182
0.0475716
0.563337
4.04864
0.0282053
0.0251696
1.48628
0.122262
0.0253019
1.63611
0.025663
3.05129
1.85201
0.025659
0.0252332
0.285384
0.317581
0.0281062
0.0310335
8.77489
0.0256707
0.0263554
8.86998
0.0262399
0.093894
0.0252389
0.0247728
0.0251028
7.53596
0.036582
0.0255415
9.36683
0.0251825
0.030864
4.05976
0.0255979
3.35136
0.0440136
0.0250666
0.0262553
0.0249283
10.1532
4.7954
4.28846
0.0250215
5.03194
4.71269
0.0249314
6.99119
0.0516231
0.0256684
0.0250505
0.0253446
0.0281654
23.5648
0.0251233
0.0256696
0.0794933
4.97315
0.0255415
7.40258
3.89599
5.26462
0.0247668
0.0266323
0.0256759
0.026735
0.105408
0.0252558
0.0264253
0.0256738
0.0281146
0.0285107
5.09186
0.506689
1.07332
0.0332343
0.0477676
0.0421176
0.0251253
0.0249436
0.0251846
0.254291
0.0762277
12.974
4.23594
5.63215
0.0251146
10.0086
0.0250825
0.0255444
4.02421
0.0252639
25.9741
5.04386
32.3023
11.7268
10.7218
0.0252994
0.0520707
1.34941
0.0392292
5.52581
0.13903
0.0250792
3.3777
0.0253622
3.72449
7.29835
0.0255276
0.0247843
3.37251
0.0250664
0.0256134
20.6517
0.318786
11.6859
5.87203
0.0252971
0.0312786
0.0260486
0.0562096
0.0249442
4.97489
0.0445285
0.0252411
4.95539
4.50378
0.186165
0.0372006
0.0253574
0.025403
1.33979
0.049451
0.027381
0.190679
4.0473
0.127695
0.0256921
0.0254053
0.062357
0.0250576
4.86368
0.191216
13.0888
0.0264346
5.10246
0.0251939
4.30359
0.0464902
6.36835
0.0485325
5.077
0.0264221
0.0359507
10.5737
0.0267097
0.126105
0.734285
0.0263942
0.111907
0.0602206
6.31574
0.0318567
0.025039
4.5348
0.0255344
0.0250548
0.168854
24.4476
0.16248
24.8759
0.033701
0.0255349
3.6497
0.648002
0.0256075
5.12779
0.0804155
4.49271
0.025155
0.0262744
0.0585285
0.0251911
0.0542496
0.0250785
0.0396852
5.64033
5.78832
0.0276062
0.0484885
4.48902
0.0255088
0.0252663
0.0251934
0.126966
0.752782
0.0255774
0.0253769
0.0447612
0.0427744
5.41324
0.0405296
0.172691
1.60741
51.7646
0.0254916
4.18831
8.27075
0.0362961
4.56611
0.0252984
0.0271836
8.2239
0.0251988
10.7349
31.999
5.41673
0.0327435
7.16446
0.0289804
12.4738
0.0253532
5.41058
0.0575367
7.73119
0.0332693
0.0253849
0.0272451
0.0251964
4.71253
0.210183
0.0591388
0.184335
0.120848
0.0287739
2.00646
0.18127
0.16502
0.843939
0.0422298
0.122227
11.7008
0.0253619
0.0256493
0.0526397
0.0400184
2.61032
0.0418896
0.0250196
0.22899
0.0252473
0.0262798
0.025354
0.0256275
0.0256481
0.0263425
0.0256345
0.0430338
0.025188
0.0366177
4.48982
3.81544
0.025275
0.0253897
29.5512
0.0252963
0.121671
0.024966
0.306893
0.0643525
4.43723
0.0802517
0.0251914
0.0255384
0.0507962
0.0614777
0.02567
0.512611
0.025684
0.0943995
0.0255431
0.0255894
45.9123
2.93194
0.0249608
0.702709
0.290735
0.0930809
0.0302137
0.0249785
7.7382
0.0270771
5.52184
0.0259598
0.0543923
0.025334
0.0256539
0.0256764
5.61004
10.6736
2.76208
8.10202
7.75541
3.41669
0.0249547
0.0251955
0.148145
9.06664
7.26899
0.0520413
0.0255193
0.024875
3.76073
0.0757357
4.40382
0.025199
7.13241
0.0304317
0.126376
0.0251833
0.0606617
0.0565482
0.0249227
0.0251377
0.0522612
0.0359739
0.0252027
0.0262348
0.118543
0.15469
0.0249475
0.12394
1.92665
3.40348
0.0948883
12.2227
8.67859
0.0299636
0.0252448
0.939199
0.0721993
0.0255238
8.32733
6.42319
4.10714
1.06379
0.184829
0.516748
0.0253975
10.1011
4.02882
0.0404396
0.0367329
0.02494
0.025357
0.265775
0.026571
0.0255916
0.0255356
0.098071
0.0254412
0.0250801
0.0253621
0.0264004
7.47518
0.0269501
5.15449
0.025288
16.0434
0.150453
0.0251974
0.132705
0.0251298
1.0678
8.21998
0.112518
4.85195
0.180205
0.02481
0.0294416
0.0246778
0.0316297
6.13742
4.72584
5.56532
0.0256702
0.024956
0.026646
0.597835
0.0254095
0.0255448
0.0419825
0.0253112
0.0732537
0.0969652
0.0250648
0.0249405
0.0252669
5.94398
0.0258587
0.0253947
0.0810752
6.01819
0.0253371
0.0248942
4.62686
0.025392
0.0248526
0.705463
0.0296291
0.0252218
0.0256754
0.146806
0.025646
0.0252752
0.0252964
0.0255018
6.13156
9.07987
0.0253396
5.39279
0.0253035
4.22186
3.38024
0.02558
6.12165
8.56784
0.0296001
0.0249233
0.0250479
5.30962
0.402134
11.0885
1.90105
0.0256683
0.145089
0.0253803
3.34892
0.0321383
8.25646
0.0256923
2.81678
6.54725
0.33707
0.0254707
3.61725
0.961637
0.0253347
0.173152
0.0251836
0.0255472
0.0253796
0.0249754
0.0312522
7.52985
7.87748
0.0253529
0.0254092
1.433
0.0264988
0.0276481
0.0253482
0.0255001
5.06873
0.0252243
0.0252747
0.0289753
7.51936
0.0291928
0.0253069
4.65945
0.0252035
0.0265948
0.188139
0.0268705
0.026545
7.34432
0.0724443
4.436
0.0369668
0.0299704
0.0255554
0.0513658
10.1445
0.0395836
8.80905
5.14038
5.01715
0.135556
0.0252937
0.0258373
0.025254
5.83121
26.0649
0.0263033
0.349588
0.0249029
5.93222
0.0254089
0.0253452
3.42748
0.0836833
12.3192
0.0249475
9.0923
4.13217
0.0253474
0.231817
0.0256723
0.0731949
0.0246987
0.0260327
0.0363417
0.109699
0.0252453
0.0373702
9.11165
0.0249468
7.25295
0.0267421
0.0318598
0.46935
0.0263418
4.76042
0.0268278
0.0251882
0.242075
0.0264698
0.0255254
0.231941
0.0251046
0.0249892
8.91013
0.0251188
0.0249619
0.0310233
12.8828
0.0247712
0.0256735
0.0250538
0.0255579
0.0254936
0.0574174
5.24712
0.200936
0.205783
0.0249307
0.0250126
8.11783
5.02112
5.02094
0.0250595
9.40188
0.409332
10.6314
0.166062
9.06592
0.0441376
0.394105
0.46125
0.0836345
0.0249468
0.0259801
0.072928
0.0247647
0.110132
0.0301551
8.48839
35.1367
0.0320188
0.0558705
0.0255076
10.663
5.25337
0.170215
0.0463725
0.333728
0.0253923
0.0257581
4.3852
5.50562
0.0554806
0.0261292
0.0250012
0.0253945
0.0330526
0.0248667
0.0405536
0.0253606
0.0254517
7.83226
7.10824
0.0255372
4.33839
0.0256264
0.0264522
10.2165
0.0318388
0.0252136
0.0252784
11.3905
0.0251966
0.0258728
0.0250484
4.89243
0.420369
5.40188
5.76926
8.7058
0.124338
0.0252743
0.0255341
4.22182
1.54165
4.96773
0.136374
0.0254887
7.04989
0.0726519
0.579437
0.0253623
0.0340779
0.0253147
0.909325
5.17498
6.40769
0.858923
0.0249189
0.0397154
8.76534
13.0442
0.0253614
0.0540897
0.470152
0.109505
0.123355
1.13006
0.0253534
0.251171
9.05911
7.33232
0.170091
0.0246615
16.5938
4.12265
8.46777
0.0922452
0.0253917
4.23158
0.0294168
0.0254037
0.0256276
7.24303
0.0434927
0.0256354
0.0255518
0.118321
0.221016
0.0289437
0.0444052
29.3477
0.0251877
0.0252626
0.247103
0.0268829
0.0253105
0.0252661
0.0253473
0.0254172
9.5769
4.16219
0.0507688
1.95625
0.0430736
1.96148
0.0252509
3.83415
0.0252414
5.65682
3.04602
0.0249326
5.05006
10.2446
0.0253797
0.0541295
6.97474
11.712
0.0256617
8.17547
13.4266
4.34952
0.0253182
0.0255429
10.1711
2.63892
0.143802
4.51213
0.11761
5.98283
0.0254037
0.0261027
10.0583
0.0255528
0.0249821
0.0256292
3.96696
0.0253543
1.59497
0.145595
0.0252828
0.0253617
0.0255456
0.0597302
5.82919
0.0405694
0.0254629
0.0254089
26.4862
0.0416874
4.03363
0.384919
4.95718
0.141947
0.119743
0.110398
0.592911
0.0599147
4.3464
0.0601239
0.0252103
0.0258496
0.240533
0.0314099
0.0256434
0.135103
0.0805821
0.0251602
1.07535
0.0383113
0.0256036
0.02635
0.0256791
0.0714845
0.0253343
0.0252888
0.0247892
0.734112
3.15336
5.91741
4.59556
4.44256
0.0249794
5.27285
0.0251494
0.0253614
0.0253606
10.4994
0.0250961
0.0265911
0.0253332
0.0255691
0.0252483
0.0253064
0.163094
7.4688
0.0276337
0.0252086
4.43238
0.0278388
0.172391
0.0251011
5.94684
0.0256858
0.0254761
5.77467
0.0319071
0.0254047
5.56991
8.05645
0.345311
0.0252965
0.0374975
0.0563288
1.16425
0.0253078
0.0255139
4.25403
4.7782
6.74108
0.0254849
0.025245
8.3493
9.08447
0.248544
0.0253356
3.47066
0.120596
0.0249804
0.0255251
0.0253342
6.46946
0.0644163
6.32882
9.82629
0.0252265
0.0250609
4.45022
4.49625
0.121491
0.0250144
6.7927
13.718
0.0259375
0.0253363
0.167305
0.585897
0.0261231
0.0254036
5.04849
0.0253543
0.025163
0.0253166
0.373382
6.69537
0.0252738
0.0252773
5.27836
0.024897
0.0252497
0.533184
5.95238
5.38417
8.73044
0.0256487
0.0252092
0.0261806
0.158559
0.0661385
0.257195
4.22659
0.0260282
0.0255378
26.4213
0.0253367
0.0305046
18.6257
0.0251665
0.0253189
7.86106
0.510828
0.0254139
9.7184
0.0256642
0.0256719
0.0276727
6.57761
0.0253287
0.025517
0.0247254
0.0398187
0.22572
0.293137
0.104903
0.0256699
0.0259062
0.0254047
3.89966
4.46759
0.025058
0.556411
0.035347
0.0309233
0.106722
0.0255227
0.129241
3.67897
0.0249823
2.28446
0.0252201
0.0255837
0.0275419
0.0252252
0.0246516
0.164903
0.0256929
12.579
0.0656692
0.025321
0.0252836
5.80074
0.0254146
0.0253616
0.0246906
0.0256839
0.109807
0.0264962
0.239219
0.472068
0.0249852
0.0338706
4.44997
0.0562445
4.66719
11.5776
0.0252971
25.6851
5.05938
0.0246889
8.98048
0.0253598
9.76844
4.3216
0.0731718
8.58781
5.52274
0.0263798
0.0255808
5.083
0.0254951
0.0841479
5.32169
6.63407
0.0349774
0.0251125
0.172111
0.136604
0.0253446
0.0255083
0.0255735
0.0747485
0.0557198
4.26399
0.108611
0.0249118
22.0011
0.0258698
4.31485
0.207666
9.66745
0.0250577
3.90306
0.0251109
0.142524
8.00937
4.35172
0.18565
4.28933
0.169349
0.0246708
0.0255404
0.0251289
26.1977
4.82447
0.058556
0.0255445
0.025249
0.0262568
0.025901
1.37626
0.025634
0.351246
0.0731516
0.273385
3.89113
0.0852784
3.83952
4.86178
0.0252031
7.33305
0.0680393
0.0618403
3.55589
0.0373677
0.0448903
0.118254
0.0250231
3.84993
0.0254048
0.558868
7.62677
0.0252066
0.311036
0.0256125
0.0252298
0.0253714
0.762189
0.0250046
7.88712
0.0251546
0.0251063
0.055078
0.199483
0.0257426
1.10602
0.0256933
0.984995
0.0246774
0.0256866
0.42211
5.6491
0.811249
0.0255527
0.0245949
0.0261138
4.72762
7.8325
0.0250146
0.0271445
0.268171
0.0365421
9.15017
0.0256106
0.0273746
0.0251476
0.0365282
3.37901
0.119862
4.7713
0.0251936
0.0257152
0.0252358
0.025368
0.106734
0.202959
0.0253694
0.0260973
10.9944
0.0259646
4.89637
0.389584
0.0259598
0.0253558
4.66692
10.7278
0.0254698
0.0249451
0.0253939
0.0256516
3.46257
0.049423
0.0255398
0.0613317
6.07439
10.3713
0.115722
0.0248895
6.32772
0.0277968
0.288974
1.64125
5.97241
7.98153
0.10718
4.56088
0.199118
0.0250911
5.20992
9.22249
0.0253011
0.130105
0.0254825
0.0248637
0.0317996
0.0964194
0.0440449
0.0256181
0.0246913
1.72576
0.0253654
0.0254009
0.0357614
0.431467
0.559407
9.77174
12.7108
0.024863
0.0633471
0.0253566
0.0736926
0.0260234
0.0255456
0.034974
0.0251185
0.0250651
0.126742
0.0249408
0.0248812
10.0745
0.0265534
0.0267646
0.0725564
0.0286871
6.11588
3.06458
7.18158
0.0253005
0.104827
0.0659057
0.0251896
0.0255025
0.068634
0.0252435
0.121659
6.6293
0.044478
0.0359308
0.0253124
1.76799
0.0255957
0.025017
32.1346
5.54064
0.173249
4.63831
8.20233
0.0246983
0.0359497
0.0251811
0.0246072
0.0247679
7.69583
8.12977
2.11589
4.02723
0.0520112
0.0583718
0.0250901
0.0599089
0.0271994
0.061545
4.8798
0.0253962
0.025668
0.0334537
0.0298334
4.51601
0.025335
0.0255828
0.0256703
0.0318135
0.024971
7.95817
0.0331905
3.94915
0.0252209
0.0571972
0.17669
0.105353
4.60903
4.75256
9.6832
0.0254568
0.185065
0.0304359
0.0252086
0.0455528
24.8454
8.72064
0.0548917
0.114694
0.0253976
4.13641
0.0253471
2.85855
0.0442559
0.0253435
16.2769
8.96753
0.0252877
7.07881
0.212694
0.0263788
11.7965
9.22872
1.04905
0.0270425
0.0247078
9.00312
0.0254735
0.0347103
5.64582
0.656073
0.0251402
7.29436
0.0253073
0.0255333
0.0445974
0.0253172
8.42446
0.0886699
0.0255884
0.0829034
0.0247919
0.0251644
0.0255386
0.0350251
0.868287
0.0255178
0.272317
0.26819
0.0739083
3.79863
0.0783198
0.0554913
0.311833
0.0253098
0.0252052
21.5373
0.0561559
0.0253003
9.2571
0.0256856
1.02936
4.15069
0.385536
4.37949
5.12235
0.0253424
0.0549183
1.551
0.0676893
4.83231
0.880322
0.0253619
5.03397
0.0257975
1.23182
5.95615
0.0318631
0.0252123
0.0264994
4.25717
0.200029
0.0253912
0.037773
6.56394
0.0250927
3.89149
0.172521
0.0266835
2.38127
5.49911
0.0253728
0.025667
0.0261443
3.86422
0.0254574
0.0354525
16.0153
19.9891
0.0252489
8.50117
0.364177
25.8243
5.32951
7.99602
0.141902
0.129424
0.0251442
0.0252873
0.840698
0.0249988
0.0726702
4.96523
0.0283457
0.085888
3.99392
0.0272275
1.91223
0.0256927
0.115627
0.0402406
0.0247129
0.352829
0.0253837
0.0253093
0.0248948
0.024984
0.0254249
0.181888
8.55355
0.030732
16.7744
0.0262912
0.0248779
4.18817
0.0568955
0.0258974
0.0272675
0.21744
0.995358
0.0556996
0.0253573
0.0287709
0.025567
0.0248421
0.0593794
0.0253965
0.443982
0.0253092
11.0704
4.94167
0.0251167
4.08852
0.162084
0.110902
4.31681
0.0363365
0.0253695
0.0255511
0.0264265
0.0249584
33.378
0.607855
0.0256847
0.0256849
1.25587
0.0254955
0.0740512
0.0253128
0.0251914
9.93842
0.0250616
0.0290489
0.0252064
0.0252081
0.0253655
0.0250434
0.0254296
0.0252946
11.4185
0.0626304
0.0252582
0.0251886
0.0924008
1.63321
0.0256191
4.36884
0.145124
0.0571311
0.0862613
0.0251057
11.4637
5.62843
0.444168
0.0251529
0.230038
0.0254233
0.103698
0.246812
0.0251085
17.0234
0.05435
0.0258844
8.90433
4.64956
0.10626
4.61748
0.0410266
0.0255406
4.50399
0.0256459
0.0252919
0.0653813
0.0251454
0.0248561
0.0253298
0.077549
0.0246121
10.0234
0.0290478
0.883056
0.0271572
13.5908
7.36699
5.6488
0.67139
0.0256445
0.217676
0.0253183
0.037153
0.0253036
4.46757
10.5342
0.0250808
0.0256175
0.026318
0.0679358
0.0252388
2.97747
11.1641
0.0520734
11.1955
0.113076
0.0296232
0.0256327
0.0272229
0.0253379
1.33019
0.0268282
7.99825
0.0253571
4.88539
1.06021
7.91733
0.037587
0.188049
8.43937
4.3108
0.0252985
0.0248892
0.160187
0.0252333
0.0254253
0.0801361
0.0249548
0.0276888
0.0253785
0.0254027
0.0250534
0.0253427
0.0254444
0.0511229
6.25431
0.0647658
0.0619343
0.0270012
9.10475
9.06394
4.63828
4.37863
0.040483
0.0405423
0.0274108
4.68049
0.0253003
0.0248476
0.473316
0.0254832
0.024839
0.0553242
0.0250463
0.0679144
10.694
0.028764
0.0256743
0.0256003
0.0254032
0.164228
0.025152
0.0425264
0.0727365
8.10081
0.0253135
0.054789
0.0283195
0.0311605
0.0257915
0.0438719
0.0256857
0.0412404
8.91617
0.0252024
3.32396
0.216992
4.43002
4.13157
0.0643386
4.83736
7.57847
5.21015
0.530514
21.789
0.0534412
1.0634
0.0252419
0.185591
0.221635
2.53812
0.169675
0.0258937
0.0250876
0.153006
0.211152
0.0256276
0.0259648
0.0504076
0.0254214
0.0254219
0.0259641
0.181709
0.0440361
0.0249381
4.40711
29.6702
0.0253556
0.0352049
0.153326
0.0249389
3.90371
0.0921945
0.0508334
3.98491
7.55412
0.0544441
4.27513
3.51242
9.24173
6.75227
0.0253592
0.0249567
5.69719
2.28049
0.0268073
7.07729
0.0252861
0.0252183
0.0252617
0.0256926
0.026475
0.0254149
0.0818576
0.0405579
0.225073
0.228306
0.032727
3.87491
3.58939
4.95812
0.0353095
0.657429
0.0266495
5.55192
0.0248996
0.775855
10.1975
0.089205
0.200073
21.5002
1.13571
0.0505385
0.055843
0.0417297
0.0254047
0.929862
0.443816
0.155107
0.0246721
0.0253762
0.0355985
11.4794
1.03298
0.0302447
0.123919
5.07194
0.0410016
4.63
0.0349516
0.024639
0.0253278
13.7845
0.100663
6.91358
0.0265812
0.0253183
0.0252697
1.44411
0.0320447
0.0253416
0.180639
4.781
0.0258755
0.188941
0.886022
0.0260216
0.403839
0.0249452
0.025172
0.263782
0.0251104
0.0571322
0.0255413
0.0255484
3.98262
0.0254231
0.0344561
33.0639
0.0250272
0.20129
0.0282388
0.0989311
5.01875
4.25841
2.34244
0.1768
0.240019
4.95459
0.0840097
0.025018
0.0448926
0.0251174
0.0254895
4.75579
0.0252673
3.43592
0.0900131
0.025221
6.85255
24.1132
0.0277931
5.46813
0.0255209
30.6675
6.08624
0.0250894
0.025499
0.124678
0.0253838
0.52405
6.31178
0.0254982
0.033259
0.0303614
4.07143
0.0256859
5.50112
10.7507
0.0253035
0.0534863
3.95692
3.9525
0.0252234
6.74136
0.025667
7.39695
0.0576888
0.0253349
4.52823
0.0254148
4.05452
0.0261455
3.98169
0.0261391
0.137819
0.217808
0.0341545
3.30639
8.99339
11.3714
4.74169
4.53541
0.0265114
0.156499
0.0263912
0.0256711
0.0252251
0.0251785
0.0253663
8.19621
0.0250311
5.58426
0.0251828
4.18286
0.0249509
0.0253195
0.025107
0.0259229
4.35693
0.0551823
9.28032
0.0255566
6.14891
4.44838
0.0251121
0.0253082
0.0252977
0.0589717
6.01868
0.041521
0.0256731
4.10642
0.0252503
0.102667
0.0570356
11.3532
0.0537236
0.0263364
0.0251078
0.163842
0.113143
0.0500004
3.9698
0.0253447
0.361558
0.0248549
9.33616
5.27987
0.0254862
3.70282
0.0252663
0.0252244
0.0250029
0.0251902
6.24763
2.92114
10.321
12.1885
0.0320396
0.0596894
0.0462256
4.27918
0.0247856
0.0254635
4.20867
4.52055
0.11798
0.03557
0.0771479
0.351319
4.65285
0.282333
0.0256713
0.0272747
11.1717
0.45682
0.0700549
17.2975
0.0253174
0.0248045
0.0259445
0.039584
0.0411307
7.83573
0.0251346
0.0251939
0.0249122
0.46867
0.024993
7.84684
0.025685
0.0383604
10.4671
0.0256851
0.131531
0.0255532
0.0267059
0.0277779
0.0566134
0.137653
6.13544
0.114234
0.0246787
0.0249811
0.0615657
7.02746
3.62265
0.0307082
0.187147
4.89409
4.52526
0.0255328
6.10419
3.63459
0.0840432
0.0345679
4.3904
0.0256791
0.06526
0.0254548
0.484334
8.13039
0.0255565
0.0246418
0.0359129
10.8917
4.24669
0.0252492
4.51694
0.102295
4.17585
2.02924
0.0335451
0.184767
0.069756
0.0264392
0.0249584
2.84372
3.35486
0.158155
6.53119
6.68293
4.13145
5.82317
4.40331
0.0251537
4.85062
0.0373244
0.0252489
0.0308334
0.0267823
5.07525
0.0256716
0.02533
0.361749
0.109811
0.0253031
1.34905
4.14245
5.87539
0.035933
0.080666
0.0252398
0.0256259
5.37293
0.181455
0.025138
9.00137
0.0250331
0.0253355
10.5412
0.0256861
0.089726
0.0246448
0.455701
3.91095
0.0249152
0.0368747
6.31771
0.0253124
19.1762
0.0254773
10.7357
0.0251725
0.107241
0.0522103
4.26287
0.0253835
0.425899
0.979447
0.0250497
0.0254569
0.0250559
0.0250501
8.78362
4.08202
0.086564
12.571
0.169407
0.0252682
0.0579371
0.0315429
0.0250477
0.0251064
0.0412597
3.69874
6.22614
0.0552463
0.173898
0.22492
0.0249845
0.0252754
0.0256993
0.58961
0.0247241
23.3422
4.34624
0.113065
0.025296
3.95423
0.0256658
0.545278
0.356859
0.0252641
0.0254375
0.0311867
3.44268
0.025119
0.974192
0.0249855
6.31305
0.0250488
4.39078
0.0295256
0.0378248
4.5148
0.024989
1.45118
0.0254579
0.0251565
10.3057
0.108659
4.26481
0.0249273
0.0256143
0.0255698
0.166945
0.1751
0.0784102
0.025981
0.0289244
0.0249789
3.68539
0.0408092
7.91789
26.9914
10.0524
0.0332073
0.0248531
0.0256717
23.5422
4.60744
0.0251535
0.0250321
0.109407
0.0939697
4.17007
0.053329
0.0277773
0.0249275
6.40355
0.0261476
0.0256571
5.94557
0.0249362
0.0939585
0.043488
1.13824
0.0246342
0.142173
7.67731
0.0289514
42.0871
11.2315
3.80025
0.0619223
6.4118
0.0250286
4.41437
0.0253198
7.76951
0.0263895
0.20728
0.0251759
0.0255067
4.99671
7.53933
0.0253047
0.077032
7.2358
0.0247396
5.18683
0.0605963
0.0574318
5.30381
0.0253595
6.05236
4.33382
0.026576
0.0248691
19.786
0.139332
4.60907
0.0305769
0.486623
0.0259325
5.37632
0.117026
0.0251884
3.57976
0.025175
0.0255129
0.0263487
0.0331625
8.4062
0.0259151
0.0318031
8.72685
0.0426053
0.0842468
0.0268935
1.9637
0.035468
4.40042
0.0254346
0.0255059
0.0255885
0.128615
0.0430676
0.0514654
0.0327243
4.18935
4.35188
0.0719375
0.0252429
0.0493827
7.49309
0.0254955
0.0256123
6.70227
0.376584
0.0253188
0.0395841
0.735035
0.0253327
0.0563694
0.0370675
0.0253559
0.0303843
0.026195
0.024932
0.0253982
0.0306907
0.0920964
0.0383309
7.30242
0.0252232
0.0255856
4.32845
0.0259263
0.0944987
0.02564
0.025374
3.52394
0.0302656
0.0246525
0.17456
0.0249161
0.0254644
4.17678
0.0253665
4.26408
0.0249046
0.29323
0.423442
7.46336
0.0563246
0.0250337
0.0250856
5.2037
0.0256722
10.5816
0.0249084
0.02557
4.62448
0.0255964
0.0327585
4.71347
0.0364075
0.446516
0.0249222
0.025355
1.24736
4.64258
0.0249187
0.0253109
0.0509773
23.8552
0.0287401
3.61984
8.42144
0.0251203
0.0763632
0.0302896
0.0253439
0.0252828
0.0253546
0.0253375
0.0797526
0.0251037
4.52767
0.0251091
2.70384
0.107868
0.110397
18.9165
0.122866
0.201935
1.14078
0.0336311
17.8963
0.026786
0.0251343
0.0254773
0.02518
9.61959
0.039904
2.70905
0.513018
0.0255827
0.0347803
0.097382
0.0259007
0.0251126
0.0251799
24.5488
0.166879
0.0287281
0.0253344
0.0248664
0.0557044
0.0312874
0.0317834
0.0255777
0.0253356
0.0255006
0.024854
12.528
0.0429347
4.31465
10.592
0.0264831
0.0256165
8.41381
3.80947
0.043564
1.76961
0.0248547
0.0860363
0.05877
0.0253237
0.0520973
0.513362
3.96132
7.86029
0.0249263
4.41513
0.0254002
0.0943135
0.0253878
1.32148
4.44675
15.7279
0.105586
14.8364
0.879875
0.0336695
0.0349549
0.0250281
0.871294
0.0254871
0.0255801
0.0257983
8.45529
0.180189
0.0258798
0.0544356
0.0277738
0.0247673
0.0254242
0.0265396
0.0254044
0.0253311
0.0250606
0.0251489
0.025338
7.18926
4.31952
0.0253693
4.78763
0.0655455
0.0344507
0.0913766
0.0254842
0.384778
4.51875
0.551606
0.943824
0.0700068
0.0308688
0.0249315
14.435
8.04769
0.0256279
5.01726
0.0262077
0.12761
0.0254754
4.83656
0.348663
0.19541
4.81671
0.0254328
0.0251384
7.70475
0.117095
0.0252854
0.0253294
0.267599
0.0253147
0.617554
0.0248554
0.028581
0.0256938
0.0253083
0.119358
5.94545
0.62977
0.0253076
0.0251962
4.76931
0.0311844
0.0250348
4.38401
0.0386718
0.0260881
0.0253147
0.0251165
7.88558
0.0255153
0.045147
0.0338989
0.60123
0.0818734
0.0779065
0.0645967
0.411689
0.0253573
0.0255332
8.40958
0.0249737
0.0550051
0.0253196
0.0255078
0.0255676
0.0259213
0.0563829
3.63157
3.65139
5.00821
0.0252756
0.0252292
9.75987
0.025205
0.0808112
4.47934
0.039184
0.0252448
7.40589
5.56335
0.0254708
4.21603
5.99403
0.0437392
0.0255021
4.26758
8.82932
0.0253997
7.0101
21.4425
4.5245
0.298536
0.367644
7.09479
4.53971
0.0251848
4.43281
1.40701
0.0790232
0.0250626
0.0255909
13.9269
0.960279
0.415815
0.0373688
8.99069
0.0541195
0.0329196
4.61381
0.0252719
0.0929294
0.0252687
0.122533
0.0262791
3.73212
3.93522
7.18447
13.0495
6.17824
0.0263193
0.0246907
0.0251422
0.0252788
0.0252089
0.136434
1.47066
0.0274156
6.15461
0.0259365
0.49828
0.0256491
0.0256644
0.0248183
0.0408609
0.025672
0.0260237
0.0433723
0.0772683
0.0256572
0.025978
0.0270686
0.0248653
0.058152
0.0658428
0.0253021
0.0318514
0.0254902
0.740366
0.0250769
0.0272143
0.0256363
0.15377
0.0801223
0.0252984
0.0307723
0.0686931
0.0268251
0.025216
0.0255593
0.0255747
7.09738
4.34453
0.0251101
0.103665
0.0584591
0.0253959
8.40652
0.0255523
5.79771
0.0251184
0.0254536
0.0290717
0.107306
0.0436465
0.0253556
0.0253564
0.0304417
0.0307996
4.79287
3.55404
3.75787
0.0258929
0.0251158
0.0253087
0.0265866
0.02731
8.92093
0.0252229
0.0255113
0.0304765
0.154559
0.0275575
6.32156
0.025384
0.0254669
5.25704
8.29507
0.118076
0.0255002
0.0412703
11.1303
0.0248938
8.58966
0.0441029
0.0583445
9.86996
3.98844
0.0254314
0.104781
0.0254979
0.136145
0.0394496
0.0250981
0.0256879
0.0250351
0.0366433
5.12975
0.0253387
0.0253357
0.0253576
0.0541119
0.0252573
0.0246763
6.21696
7.36542
0.0249044
7.59425
0.0326467
0.131214
0.0249049
4.06094
0.0249746
0.0249358
0.429647
0.0255975
0.0633865
0.0254612
0.0258961
0.0291932
0.296727
7.36739
0.496664
0.0251027
0.0253589
0.035606
0.0346214
0.0251798
0.273668
3.87569
10.1465
0.0292677
0.0253906
0.0255984
0.0250424
1.90213
5.09462
4.24558
0.039762
0.0264317
1.21447
5.03975
0.748367
0.580809
5.09778
0.0609384
0.240904
0.0252604
0.0253004
0.0254689
0.0263605
0.0284193
0.303042
0.0346148
7.55443
0.289498
0.0253171
0.0249415
0.0348893
5.49261
0.0251049
0.429867
0.323709
0.0252477
0.0253352
0.0253086
7.65439
0.0466923
0.0267981
0.0426445
0.0398792
0.0268918
0.0310547
3.87144
3.97443
0.0246464
0.0258007
4.11922
0.0252978
0.0393565
0.0262829
0.0256932
0.0254701
6.09811
0.0255535
3.49533
0.0271043
6.95961
0.0253338
0.0253919
12.2733
9.09897
0.0248795
0.165011
8.98588
4.05875
7.53393
0.0252751
0.0364072
0.0289095
8.3283
8.03556
0.0268637
0.0599857
3.70786
0.075879
0.040248
4.6506
3.81477
0.0254652
0.0256726
0.0258708
0.183267
0.234071
0.0249889
0.0253529
0.457783
0.025159
0.0347997
0.0250725
7.15085
0.083955
9.12423
3.41867
0.0570478
3.28945
0.025342
8.46582
0.0249128
9.11645
0.024673
0.0253653
0.0710234
0.025306
3.61956
9.01841
0.0456844
0.250066
4.3401
0.0254446
0.0519641
0.0357959
5.9495
0.0283644
8.21624
0.166743
0.0253856
0.0258862
0.0262896
0.0256858
7.61326
4.99535
0.0840214
0.0292391
8.84547