/*--------------------------------*- C++ -*----------------------------------*\
| =========                 |                                                 |
| \\      /  F ield         | OpenFOAM: The Open Source CFD Toolbox           |
|  \\    /   O peration     | Version:  v2012                                 |
|   \\  /    A nd           | Website:  www.openfoam.com                      |
|    \\/     M anipulation  |                                                 |
\*---------------------------------------------------------------------------*/
FoamFile
{
    version     2.0;
    format      ascii;
    class       volScalarField;
    location    "100";
    object      omega;
}
// * * * * * * * * * * * * * * * * * * * * * * * * * * * * * * * * * * * * * //

dimensions      [0 0 -1 0 0 0 0];


internalField   nonuniform List<scalar> 
27802
(
0.0262318
0.0256903
0.0265766
0.0322252
0.025219
1.82274
0.0252209
0.11159
0.025048
0.37118
6.41812
1.36906
0.0363522
0.153264
5.69222
6.8949
6.47987
0.0250511
6.37886
6.8167
10.752
5.77897
0.0248573
0.0910637
0.467208
0.0408288
0.025218
0.0395679
0.0250667
19.2718
0.0911443
0.0649125
0.02615
0.024662
0.0255807
30.8317
8.51123
0.0249352
0.0249647
8.14762
1.20701
0.0255902
0.0307618
0.024687
0.0352752
7.53027
0.0254098
6.30428
8.07617
3.47212
5.40347
0.0413835
6.39532
4.79197
0.024974
0.0255353
0.207813
0.0253215
0.0322199
0.125837
6.80522
0.0265423
0.0336648
0.0248286
0.0247023
0.0253547
3.67624
0.207506
0.126564
0.0252766
0.0246766
4.67618
5.23538
0.175066
0.0276664
0.0269106
3.58204
9.62431
7.10255
32.6713
0.0251405
0.0251692
0.0597397
0.0265683
0.0253467
0.0396941
0.0256358
3.81318
10.2225
0.0253428
0.0253011
7.75195
0.0250221
23.4333
4.97255
0.0437836
0.0251647
0.0421261
0.0253658
2.64986
0.0249619
0.0249206
5.31352
8.31922
5.26075
0.0341051
0.0253245
0.024694
0.0249629
0.0348592
7.40323
0.0253062
0.024666
0.0253655
0.0253295
0.0248231
0.0312784
0.383654
4.02926
0.41829
7.80086
0.117553
4.46908
0.38787
26.7234
0.184019
0.0258692
0.0284514
13.359
0.0246837
0.109571
0.0560556
0.025539
7.23983
18.827
0.0265725
0.0779178
0.171004
0.0253627
0.0255043
0.134208
0.425189
0.0371652
0.0434763
0.0249399
3.60532
0.0350065
0.0418744
0.0250471
1.81037
0.0424271
3.96015
0.0307642
4.22726
0.0256549
22.248
0.0264011
0.0445004
0.0247314
0.0255427
0.0248219
0.0253476
7.49108
0.0250454
0.0256341
0.0256625
5.14203
0.0251674
0.0254885
0.0258852
0.0920267
6.96372
5.90072
22.2951
0.0252006
0.23776
22.2467
5.93081
0.0248189
0.025323
0.947022
3.81747
9.7143
4.49957
0.024748
0.342825
8.52159
14.6474
0.170825
3.9495
6.33793
0.0256908
0.026253
0.482752
0.024916
4.16753
30.857
6.73457
0.503649
4.70645
0.100269
0.0255504
0.0259853
0.0312638
6.4693
0.0645988
0.0251724
0.0250495
17.2351
0.0250075
0.0250472
5.09497
0.0322608
4.92451
0.024721
0.0252105
0.105594
0.0257028
0.0252967
0.0256848
5.00281
0.0252118
0.0253331
0.249385
0.025482
0.235827
0.0257949
0.042544
0.0246476
0.0254606
0.0253653
0.0373024
0.201274
0.0255857
0.0256924
12.1152
0.0805038
0.0852221
0.0258564
4.98037
8.73476
4.3481
3.77497
4.37487
10.3215
0.0263294
0.0252488
7.38797
0.0247452
0.0255387
0.186603
0.0252712
0.388413
0.0258059
3.7969
4.44941
0.029449
0.120052
0.0253303
0.0277335
0.0252497
8.31789
3.92426
0.163467
0.0252792
0.0251845
0.0256248
0.408867
4.48824
0.0626825
8.3467
0.031454
10.2419
0.0250426
0.0252685
0.0255804
0.0549595
0.0254574
0.0250263
4.40434
0.0257067
0.0502872
0.725038
0.174599
7.5832
0.0278535
5.87031
0.0250348
0.182855
4.31714
0.61541
8.36577
7.48264
0.0326699
0.0246446
0.0253411
0.0257611
30.252
8.33462
0.116881
8.70823
0.0480546
3.60445
21.0641
4.09348
0.0254634
0.117039
0.0252734
4.16205
0.0249465
3.41317
0.203574
4.71325
0.0253171
4.72276
15.5286
0.090445
0.0250689
0.0392439
5.04656
0.024948
0.027276
0.136567
3.61047
8.49581
0.0250209
0.0577546
0.084208
4.64778
0.0252414
4.43759
0.0250632
0.025544
0.141729
1.09601
0.0257545
0.0253039
0.025339
0.195152
0.0269762
0.0251083
0.631717
0.0252343
0.538169
5.38881
24.4423
0.0269448
0.0251022
0.0263327
0.0250649
0.34018
0.311525
0.0251502
0.12043
0.025337
0.0249976
0.0259528
0.0251889
7.24928
0.0250269
0.237031
1.60145
5.23994
0.0246936
0.0251275
0.0251487
4.32338
0.0250411
0.595521
0.0246301
0.201452
0.100584
8.52044
0.0264634
0.0258445
0.0252326
0.0975095
0.0253143
0.183428
0.0278674
0.0346905
0.0255518
0.0253418
0.0256845
0.0251696
10.0319
0.142492
0.0892041
5.10734
1.55904
0.0252485
0.389371
0.0253913
0.0252181
0.0830211
0.0263817
0.0255494
4.06428
1.26477
4.24174
0.0640856
13.9692
0.0254285
0.025463
0.166857
4.75418
0.0254586
0.029384
0.111873
0.0280949
0.0250181
0.0356186
4.34471
5.13827
2.70141
6.98598
0.0252526
7.19506
0.0249162
0.359726
0.0313107
5.64516
0.0256923
0.025214
0.0296139
0.0261545
0.0418856
0.0252478
0.0253002
0.0803704
0.0253575
0.0253541
0.230196
5.82258
0.0581585
4.65988
0.111845
0.122995
0.181511
0.0252116
0.0393109
7.01504
0.0271715
0.0253184
0.0363077
0.0277756
0.0563965
0.0258089
0.0253618
0.0252578
7.36506
3.49455
0.0258008
0.025192
14.915
0.0255483
4.24895
0.0255416
0.0253483
0.0268767
0.690796
0.0252977
0.0246258
6.83096
0.0253913
0.0560085
4.2218
0.146389
0.0253461
6.99671
0.673826
0.122045
6.95337
9.22398
0.0265269
0.0424994
0.0248201
0.385304
0.0254641
0.10746
0.0252002
0.0307292
23.9777
4.49914
0.0252013
0.0253206
0.0586897
0.0256557
0.0252245
0.0251669
0.0250308
0.115846
0.0356242
5.05905
9.06385
0.0249571
0.106616
3.8029
0.0298235
0.0258554
0.024698
0.0256401
5.16694
0.25822
0.0445008
4.81665
4.58088
0.0253191
5.90749
0.0249597
2.42006
0.0358434
0.0251624
0.0276473
0.0252415
0.028445
8.39344
5.40469
0.0300723
6.78624
4.83825
0.172313
0.0253422
0.0253472
7.77441
0.0524424
0.0256571
0.0538569
0.0336723
32.2625
0.0754272
4.28022
0.029883
0.0253362
9.34851
0.025323
0.0253914
0.0271963
6.02137
0.0251642
4.70567
0.0277889
1.47699
0.164882
9.17334
0.0246839
0.0253406
3.98436
0.0642338
0.0254103
0.0633746
0.0263776
0.0252174
0.0250694
6.15741
0.0563378
0.580491
4.03822
1.57149
0.0250995
4.56782
0.0522311
0.0252252
0.135696
7.35042
0.0253463
0.0254169
0.0251915
4.62636
0.0250692
0.0248181
0.0248572
0.0252753
0.598738
0.0250373
6.62537
0.0457678
0.0252547
0.0925812
0.0570458
4.22343
4.28234
7.12816
0.0252751
0.0249194
0.0249677
6.84074
0.0250317
4.19964
0.89619
0.0674274
8.0963
9.13747
0.0255566
0.0253538
4.7925
0.109741
0.0251086
0.0255746
10.0296
0.170207
6.78644
4.99962
1.77651
0.0269543
1.37631
20.8677
0.0251961
6.05057
4.54995
0.0610695
5.40069
12.9322
0.0272352
0.0711413
0.0252336
0.0749534
0.0251123
0.0312221
0.0378707
0.0815262
12.2198
0.107388
4.75814
0.0269381
10.1554
0.025663
0.0263247
0.0348491
0.108964
0.0253478
0.102107
0.0253564
0.0561456
0.0638384
0.025195
0.0253513
0.0378882
0.127502
0.0575309
0.858633
0.0282093
4.77061
2.03059
0.37549
0.0252183
0.0475783
0.561091
4.0488
0.0282051
0.0251696
1.48594
0.122234
0.0253018
1.63539
0.025663
3.05121
1.8519
0.025659
0.0252332
0.28528
0.317736
0.0281059
0.0310338
8.77503
0.0256707
0.0263552
8.86922
0.0262399
0.0939006
0.0252389
0.0247728
0.0251028
7.53609
0.0365833
0.0255415
9.36832
0.0251825
0.0308644
4.05994
0.0255979
3.35284
0.0440124
0.0250666
0.0262553
0.0249283
10.1539
4.79503
4.28946
0.0250215
5.03227
4.71279
0.0249314
6.99042
0.0516219
0.0256684
0.0250505
0.0253446
0.0281651
23.5689
0.0251233
0.0256696
0.0798276
4.97378
0.0255415
7.40293
3.89591
5.26596
0.0247669
0.0266323
0.0256759
0.0267346
0.105411
0.0252558
0.0264252
0.0256738
0.0281147
0.0285106
5.09201
0.506655
1.06277
0.0332339
0.0477607
0.0421192
0.0251253
0.0249436
0.0251846
0.254415
0.0762488
12.9737
4.2363
5.63336
0.0251146
10.0074
0.0250825
0.0255444
4.02423
0.0252639
25.9731
5.03921
32.2975
11.7266
10.725
0.0252994
0.05207
1.35002
0.0392287
5.52592
0.139026
0.0250792
3.37933
0.0253622
3.72507
7.29898
0.0255277
0.0247844
3.37409
0.0250664
0.0256132
20.6526
0.318191
11.6873
5.87234
0.0252971
0.0312786
0.0260485
0.056202
0.0249442
4.97431
0.0445274
0.0252411
4.95548
4.50405
0.186157
0.0372019
0.0253574
0.025403
1.33714
0.0494513
0.027381
0.190671
4.04705
0.1277
0.0256921
0.0254053
0.062358
0.0250576
4.86217
0.190952
13.0889
0.0264346
5.10245
0.0251939
4.3036
0.0464886
6.36844
0.0485315
5.07697
0.0264222
0.0359504
10.5744
0.0267098
0.126182
0.726264
0.0263941
0.111915
0.0602263
6.3152
0.0318565
0.025039
4.53508
0.0255344
0.0250548
0.168854
24.4502
0.162478
24.8795
0.0337007
0.0255349
3.65033
0.655757
0.0256075
5.1279
0.0804093
4.49245
0.025155
0.0262745
0.0585279
0.0251911
0.0542755
0.0250785
0.0396884
5.64096
5.78972
0.0276063
0.0484911
4.48886
0.0255088
0.0252663
0.0251935
0.126961
0.766708
0.0255774
0.0253769
0.0447576
0.042773
5.41265
0.0405284
0.172395
1.60723
51.7619
0.0254917
4.1885
8.27399
0.0362964
4.5664
0.0252984
0.0271836
8.22378
0.0251988
10.7345
31.9964
5.41692
0.032743
7.16344
0.0289804
12.4734
0.0253532
5.40987
0.0575324
7.73069
0.0332688
0.0253849
0.0272452
0.0251964
4.70609
0.210179
0.0591382
0.184237
0.120857
0.028774
2.00732
0.181325
0.164993
0.842098
0.0422292
0.12225
11.7
0.0253619
0.0256493
0.0526406
0.0400224
2.60601
0.0418967
0.0250196
0.228985
0.0252473
0.0262798
0.0253539
0.0256275
0.0256481
0.0263425
0.0256345
0.0430351
0.025188
0.0366179
4.48956
3.81552
0.025275
0.0253897
29.5542
0.0252963
0.121642
0.024966
0.306753
0.0643597
4.4375
0.0802514
0.0251914
0.0255383
0.0508125
0.0614773
0.02567
0.514781
0.025684
0.0944704
0.0255431
0.0255893
45.9108
2.92275
0.0249607
0.694365
0.290326
0.0930595
0.0302129
0.0249785
7.73731
0.0270771
5.52341
0.0259599
0.054362
0.025334
0.0256539
0.0256764
5.60925
10.6727
2.75591
8.10309
7.75545
3.41754
0.0249547
0.0251955
0.148144
9.06457
7.27009
0.0520425
0.0255193
0.024875
3.76063
0.0757422
4.40418
0.025199
7.13084
0.0304321
0.126445
0.0251833
0.0606622
0.0566088
0.0249227
0.0251377
0.0522615
0.0359736
0.0252027
0.026235
0.118538
0.154862
0.0249475
0.123934
1.93362
3.40451
0.0948903
12.2236
8.67893
0.0299634
0.0252448
0.939165
0.0721719
0.0255238
8.32654
6.42274
4.10719
1.07747
0.184809
0.517661
0.0253975
10.1024
4.03
0.0404395
0.0367327
0.02494
0.0253569
0.265484
0.0265711
0.0255915
0.0255356
0.0979377
0.0254412
0.0250801
0.0253621
0.0264002
7.47419
0.0269499
5.1517
0.025288
16.0478
0.150458
0.0251974
0.132699
0.0251299
1.08254
8.21947
0.112526
4.85237
0.180195
0.0248101
0.0294418
0.0246779
0.0316298
6.1373
4.72411
5.56651
0.0256702
0.024956
0.0266458
0.604198
0.0254095
0.0255448
0.0419814
0.0253112
0.0732239
0.0969645
0.0250648
0.0249405
0.0252669
5.94411
0.0258587
0.0253947
0.0810673
6.01826
0.0253371
0.0248942
4.62678
0.025392
0.0248527
0.694611
0.0296292
0.0252218
0.0256754
0.146832
0.025646
0.0252752
0.0252964
0.0255018
6.13051
9.07983
0.0253396
5.39155
0.0253034
4.22196
3.38177
0.0255801
6.12066
8.56774
0.0296003
0.0249234
0.0250479
5.30936
0.402091
11.0875
1.90122
0.0256683
0.145056
0.0253803
3.34903
0.0321389
8.25675
0.0256923
2.81662
6.5478
0.337124
0.0254707
3.61763
0.959424
0.0253346
0.172887
0.0251836
0.0255472
0.0253797
0.0249754
0.0312519
7.52851
7.8776
0.0253529
0.0254092
1.4355
0.0264988
0.0276482
0.0253482
0.0255001
5.06984
0.0252243
0.0252748
0.0289756
7.51838
0.0291931
0.0253069
4.65942
0.0252035
0.0265948
0.187941
0.0268703
0.0265448
7.34284
0.0724246
4.43616
0.0369664
0.0299707
0.0255554
0.0513614
10.1432
0.0395837
8.80922
5.14073
5.01758
0.135548
0.0252937
0.0258373
0.025254
5.8314
26.0617
0.0263032
0.349592
0.0249029
5.93419
0.0254089
0.0253452
3.42922
0.0836801
12.3205
0.0249475
9.09201
4.13327
0.0253474
0.231796
0.0256723
0.0731624
0.0246988
0.0260328
0.0363414
0.109885
0.0252453
0.0373702
9.11269
0.0249468
7.25258
0.0267419
0.0318594
0.468072
0.0263418
4.75978
0.0268275
0.0251882
0.242039
0.0264696
0.0255254
0.23228
0.0251046
0.0249892
8.90889
0.0251188
0.0249619
0.0310236
12.8842
0.0247712
0.0256735
0.0250538
0.0255579
0.0254936
0.0574247
5.24633
0.200569
0.205487
0.0249307
0.0250126
8.11891
5.02132
5.02051
0.0250595
9.40181
0.409393
10.6313
0.16608
9.06607
0.0441374
0.39384
0.460426
0.0836273
0.0249468
0.02598
0.0729495
0.0247647
0.110332
0.0301548
8.48695
35.1435
0.032019
0.0559351
0.0255076
10.6642
5.25221
0.170188
0.0463712
0.333917
0.0253923
0.0257581
4.38633
5.50545
0.0555161
0.0261292
0.0250012
0.0253945
0.0330522
0.0248667
0.040554
0.0253606
0.0254518
7.83302
7.10671
0.0255372
4.33889
0.0256264
0.026452
10.2168
0.0318394
0.0252136
0.0252785
11.3886
0.0251966
0.0258727
0.0250484
4.89184
0.420425
5.40086
5.77107
8.70703
0.124338
0.0252743
0.0255342
4.22272
1.55342
4.96836
0.136358
0.0254888
7.05027
0.0726449
0.579592
0.0253623
0.0340778
0.0253147
0.909583
5.17515
6.40896
0.862413
0.0249189
0.0397148
8.7666
13.0459
0.0253614
0.0540951
0.469014
0.10951
0.123319
1.13558
0.0253534
0.251978
9.0599
7.33312
0.170255
0.0246615
16.6143
4.12254
8.46779
0.0918589
0.0253917
4.23243
0.0294172
0.0254037
0.0256276
7.24342
0.0434916
0.0256354
0.0255518
0.1183
0.22101
0.028944
0.0444055
29.3474
0.0251878
0.0252625
0.247174
0.026883
0.0253105
0.0252661
0.0253473
0.0254172
9.54596
4.16241
0.0507573
1.95624
0.0430735
1.96154
0.0252509
3.83416
0.0252414
5.65786
3.04273
0.0249326
5.05002
10.2446
0.0253797
0.0541302
6.97512
11.6997
0.0256617
8.17473
13.4245
4.34982
0.0253182
0.0255429
10.1704
2.63895
0.143828
4.51216
0.117614
5.98322
0.0254037
0.0261028
10.0602
0.0255528
0.0249821
0.0256292
3.96697
0.0253543
1.59928
0.145743
0.0252828
0.0253617
0.0255456
0.0597252
5.83033
0.0405695
0.0254629
0.0254088
26.487
0.0416862
4.03407
0.384251
4.95671
0.141948
0.119697
0.110306
0.593597
0.0599121
4.3462
0.0601208
0.0252103
0.0258496
0.240478
0.0314099
0.0256434
0.135101
0.080577
0.0251602
1.0753
0.0383114
0.0256036
0.0263501
0.0256791
0.0714776
0.0253343
0.0252888
0.0247892
0.729147
3.15046
5.91414
4.5952
4.44232
0.0249794
5.272
0.0251494
0.0253615
0.0253606
10.4986
0.0250961
0.0265911
0.0253332
0.0255691
0.0252483
0.0253064
0.163103
7.46772
0.0276338
0.0252086
4.43215
0.0278388
0.172381
0.0251011
5.94628
0.0256858
0.0254761
5.77533
0.0319072
0.0254047
5.57039
8.05693
0.345347
0.0252966
0.0374972
0.05633
1.16426
0.0253077
0.025514
4.25427
4.77667
6.74243
0.0254849
0.025245
8.3482
9.08396
0.248534
0.0253356
3.4713
0.120577
0.0249804
0.0255249
0.0253341
6.46844
0.06442
6.32903
9.82532
0.0252265
0.0250609
4.44909
4.49651
0.121494
0.0250144
6.79368
13.7163
0.0259376
0.0253363
0.167296
0.582074
0.0261231
0.0254036
5.04899
0.0253543
0.025163
0.0253165
0.372981
6.69639
0.0252738
0.0252773
5.27816
0.024897
0.0252496
0.533325
5.95228
5.38413
8.72864
0.0256487
0.0252093
0.0261806
0.158559
0.0661481
0.255964
4.22636
0.0260283
0.0255378
26.4197
0.0253367
0.0305044
18.6273
0.0251665
0.0253189
7.86002
0.509367
0.025414
9.72129
0.0256642
0.0256719
0.0276728
6.57652
0.0253287
0.0255171
0.0247254
0.0398188
0.225694
0.2921
0.105136
0.0256699
0.0259063
0.0254047
3.89966
4.4677
0.0250581
0.56291
0.0353482
0.0309233
0.10672
0.0255227
0.129225
3.67883
0.0249823
2.28448
0.0252201
0.0255837
0.0275418
0.0252252
0.0246516
0.164893
0.0256929
12.5791
0.0656752
0.025321
0.0252836
5.80078
0.0254146
0.0253616
0.0246906
0.0256839
0.109815
0.0264961
0.239136
0.465875
0.0249852
0.0338719
4.45045
0.0562462
4.66777
11.5789
0.0252971
25.6871
5.05756
0.0246889
8.98167
0.0253598
9.76667
4.32154
0.0732883
8.59699
5.52271
0.0263799
0.0255808
5.08281
0.0254951
0.0841517
5.32024
6.63476
0.0349773
0.0251125
0.172099
0.136601
0.0253445
0.0255082
0.0255735
0.0750354
0.0557155
4.26442
0.108596
0.0249119
21.9887
0.0258697
4.31479
0.207619
9.66741
0.0250577
3.90295
0.0251109
0.14252
8.01026
4.35172
0.185585
4.28901
0.169399
0.0246708
0.0255404
0.0251289
26.2026
4.82454
0.0585626
0.0255445
0.025249
0.0262566
0.025901
1.35879
0.025634
0.351875
0.0731649
0.274421
3.893
0.0852614
3.83921
4.86165
0.0252031
7.33346
0.068042
0.0618377
3.55667
0.0373675
0.0448923
0.118267
0.0250231
3.85163
0.0254048
0.567036
7.6261
0.0252066
0.311023
0.0256125
0.0252298
0.0253714
0.773542
0.0250046
7.88558
0.0251546
0.0251063
0.0550794
0.199473
0.0257425
1.13005
0.0256933
0.961173
0.0246774
0.0256866
0.424016
5.64993
0.802092
0.0255527
0.0245949
0.0261138
4.72721
7.83107
0.0250146
0.0271445
0.26813
0.0365419
9.15135
0.0256105
0.0273746
0.0251476
0.0365295
3.38065
0.119843
4.76981
0.0251936
0.0257151
0.0252358
0.025368
0.106829
0.203618
0.0253695
0.0260974
10.9941
0.0259647
4.89618
0.38931
0.0259598
0.0253558
4.66705
10.7262
0.0254698
0.0249451
0.0253939
0.0256516
3.4627
0.04942
0.0255398
0.0613113
6.07378
10.371
0.115731
0.0248894
6.32845
0.0277969
0.289027
1.64054
5.972
7.98288
0.106687
4.5596
0.199095
0.0250911
5.20966
9.22116
0.025301
0.130085
0.0254825
0.0248637
0.031799
0.096465
0.0440434
0.0256182
0.0246913
1.74304
0.0253654
0.0254009
0.0357626
0.431521
0.566894
9.77073
12.7074
0.024863
0.0633441
0.0253566
0.0734808
0.0260235
0.0255456
0.0349751
0.0251185
0.0250651
0.12673
0.0249408
0.0248812
10.0737
0.0265534
0.0267644
0.072643
0.0286873
6.11654
3.06459
7.18098
0.0253005
0.104829
0.065898
0.0251896
0.0255025
0.0686938
0.0252434
0.121684
6.62988
0.044457
0.0359315
0.0253124
1.76811
0.0255956
0.025017
32.1293
5.54012
0.173248
4.63894
8.20538
0.0246983
0.035951
0.0251811
0.0246072
0.0247679
7.69478
8.13213
2.11789
4.02733
0.0520047
0.0583711
0.0250901
0.0599112
0.0271992
0.0615444
4.8793
0.0253962
0.025668
0.0334563
0.0298337
4.51611
0.025335
0.0255827
0.0256703
0.031814
0.024971
7.95958
0.033193
3.9491
0.0252209
0.0572026
0.176782
0.10536
4.60926
4.75245
9.68464
0.0254568
0.185046
0.0304355
0.0252086
0.0455539
24.8421
8.7189
0.0548936
0.1147
0.0253976
4.13626
0.025347
2.85854
0.0442517
0.0253435
16.2903
8.968
0.0252877
7.07781
0.212681
0.0263789
11.7964
9.22849
1.0677
0.0270425
0.0247078
9.00932
0.0254735
0.0347104
5.64577
0.656884
0.0251402
7.29533
0.0253073
0.0255333
0.0445964
0.0253172
8.42253
0.0886746
0.0255883
0.0829103
0.0247919
0.0251644
0.0255386
0.0350248
0.868067
0.0255178
0.272225
0.26882
0.073919
3.80036
0.0783193
0.0554888
0.311801
0.0253098
0.0252052
21.5302
0.0561425
0.0253003
9.25852
0.0256856
1.02941
4.15035
0.385446
4.3799
5.12238
0.0253424
0.0549148
1.5514
0.0676874
4.83194
0.880456
0.0253619
5.03439
0.0257975
1.23068
5.95522
0.0318628
0.0252123
0.0264993
4.25734
0.200022
0.0253912
0.0377736
6.56449
0.0250927
3.89145
0.17252
0.0266833
2.38125
5.49854
0.0253728
0.025667
0.0261441
3.86421
0.0254574
0.0354522
16.0138
19.9868
0.0252488
8.50013
0.36655
25.8231
5.33081
7.99641
0.141906
0.129405
0.0251442
0.0252873
0.840452
0.0249988
0.0727255
4.96499
0.0283454
0.0858885
3.99373
0.0272274
1.94584
0.0256927
0.115706
0.0402407
0.024713
0.352862
0.0253837
0.0253094
0.0248948
0.024984
0.0254249
0.181854
8.55239
0.030732
16.7734
0.0262912
0.0248779
4.18818
0.0568988
0.0258975
0.0272675
0.217056
0.995519
0.0557002
0.0253573
0.028771
0.025567
0.0248421
0.0593782
0.0253965
0.443758
0.0253092
11.069
4.94187
0.0251167
4.08845
0.162034
0.110901
4.31741
0.0363378
0.0253696
0.0255511
0.0264266
0.0249584
33.3836
0.60774
0.0256847
0.0256849
1.25584
0.0254955
0.0740429
0.0253127
0.0251914
9.93919
0.0250616
0.029049
0.0252064
0.0252081
0.0253655
0.0250434
0.0254297
0.0252946
11.4203
0.0626336
0.0252583
0.0251886
0.0923951
1.63789
0.025619
4.36874
0.145127
0.0571415
0.0862653
0.0251057
11.4625
5.63023
0.444192
0.0251529
0.229878
0.0254234
0.103706
0.246957
0.0251085
17.027
0.0543552
0.0258845
8.90552
4.64869
0.106298
4.61764
0.0410248
0.0255407
4.50463
0.0256459
0.025292
0.0653883
0.0251455
0.0248561
0.0253298
0.0775399
0.0246121
10.0217
0.0290477
0.883109
0.0271572
13.5924
7.36866
5.64845
0.685089
0.0256445
0.217742
0.0253183
0.0371519
0.0253035
4.46781
10.5371
0.0250808
0.0256174
0.0263178
0.067944
0.0252388
2.97578
11.1477
0.0520786
11.1943
0.112562
0.0296233
0.0256328
0.0272227
0.0253379
1.31991
0.0268283
7.99724
0.0253571
4.88353
1.0615
7.91684
0.0375867
0.187744
8.43876
4.3105
0.0252985
0.0248892
0.160212
0.0252333
0.0254253
0.0804015
0.0249548
0.0276888
0.0253785
0.0254027
0.0250535
0.0253427
0.0254444
0.051125
6.25651
0.0647626
0.0619341
0.0270009
9.10602
9.06424
4.63839
4.37873
0.040482
0.0405429
0.0274106
4.68024
0.0253002
0.0248477
0.469647
0.0254832
0.024839
0.0553302
0.0250463
0.0679128
10.6968
0.0287642
0.0256743
0.0256003
0.0254032
0.164203
0.0251521
0.042525
0.0726629
8.10182
0.0253135
0.054788
0.0283192
0.0311604
0.0257916
0.0438638
0.0256857
0.0412391
8.91488
0.0252024
3.32395
0.216794
4.43025
4.1313
0.0643359
4.8355
7.5781
5.21021
0.530407
21.7881
0.053444
1.05483
0.0252419
0.185564
0.221621
2.55052
0.1697
0.0258937
0.0250876
0.153486
0.211635
0.0256276
0.0259649
0.0504084
0.0254214
0.025422
0.0259642
0.181643
0.0440328
0.024938
4.40711
29.6765
0.0253556
0.0352051
0.153525
0.0249389
3.90415
0.0921904
0.0508338
3.98493
7.55435
0.0544416
4.27494
3.51429
9.2405
6.7521
0.0253592
0.0249567
5.69084
2.28481
0.0268071
7.07579
0.025286
0.0252183
0.0252617
0.0256926
0.0264748
0.0254149
0.0818659
0.0405573
0.225244
0.228193
0.0327268
3.87496
3.59136
4.95658
0.0353097
0.65447
0.0266494
5.55243
0.0248996
0.781957
10.1989
0.0891893
0.200065
21.4994
1.13727
0.0505404
0.0559014
0.0417292
0.0254047
0.929986
0.442923
0.155281
0.0246721
0.0253762
0.035598
11.4776
1.03328
0.0302446
0.123884
5.07298
0.0410114
4.63018
0.0349515
0.024639
0.0253278
13.7831
0.100664
6.9148
0.0265812
0.0253182
0.0252697
1.45794
0.0320446
0.0253416
0.18076
4.78085
0.0258755
0.188691
0.883011
0.0260216
0.404207
0.0249452
0.025172
0.26397
0.0251105
0.0571327
0.0255413
0.0255484
3.983
0.0254231
0.0344563
33.0551
0.0250273
0.201894
0.0282386
0.0990552
5.01806
4.25839
2.34247
0.176782
0.239852
4.9527
0.0840036
0.025018
0.0448917
0.0251175
0.0254895
4.75399
0.0252673
3.43428
0.0900159
0.025221
6.85198
24.1088
0.0277932
5.46773
0.025521
30.666
6.08822
0.0250894
0.025499
0.124527
0.0253838
0.522734
6.3139
0.0254982
0.03326
0.0303614
4.07286
0.0256859
5.50135
10.7501
0.0253034
0.0534852
3.95875
3.95243
0.0252234
6.74168
0.025667
7.39626
0.0576317
0.0253349
4.52673
0.0254149
4.05409
0.0261455
3.98166
0.0261391
0.137785
0.217837
0.0341528
3.30947
8.99429
11.3716
4.74072
4.53507
0.0265113
0.156504
0.0263911
0.0256711
0.0252251
0.0251785
0.0253663
8.19629
0.0250311
5.58372
0.0251828
4.18242
0.0249509
0.0253196
0.025107
0.0259229
4.35675
0.0551838
9.28159
0.0255566
6.14889
4.4482
0.0251121
0.0253082
0.0252977
0.0589711
6.01894
0.0415207
0.0256731
4.10595
0.0252503
0.102665
0.0570413
11.3488
0.0537752
0.0263363
0.0251079
0.163818
0.113137
0.0499992
3.96959
0.0253447
0.361658
0.0248549
9.33609
5.27893
0.0254862
3.70347
0.0252663
0.0252245
0.0250029
0.0251902
6.24823
2.93534
10.3197
12.1889
0.0320403
0.0596906
0.0462246
4.27878
0.0247857
0.0254635
4.2083
4.52083
0.117982
0.0355712
0.0771382
0.351685
4.6512
0.282332
0.0256713
0.0272747
11.173
0.448428
0.0699306
17.2965
0.0253174
0.0248045
0.0259445
0.0395823
0.0411331
7.83577
0.0251346
0.0251939
0.0249122
0.465733
0.0249929
7.84655
0.025685
0.0383604
10.469
0.0256851
0.131474
0.0255532
0.0267058
0.0277777
0.0566124
0.137639
6.1518
0.114236
0.0246787
0.0249811
0.0615719
7.02616
3.62338
0.0307079
0.187138
4.89489
4.57442
0.0255328
6.10518
3.63458
0.0840381
0.0345676
4.38999
0.0256791
0.0652524
0.0254548
0.49887
8.13163
0.0255565
0.0246418
0.0359142
10.8912
4.24653
0.0252492
4.51663
0.102279
4.17543
2.02928
0.0335446
0.184741
0.0695505
0.026439
0.0249584
2.84363
3.36688
0.158179
6.532
6.68512
4.13184
5.8235
4.40348
0.0251537
4.85052
0.0373255
0.0252489
0.0308332
0.0267824
5.07558
0.0256716
0.02533
0.361832
0.109816
0.0253031
1.35718
4.14214
5.87487
0.0359327
0.0806541
0.0252398
0.0256259
5.37274
0.181449
0.025138
8.99988
0.0250331
0.0253355
10.5409
0.0256861
0.0897349
0.0246448
0.456269
3.91121
0.0249151
0.0368749
6.31995
0.0253123
19.1713
0.0254773
10.7366
0.0251725
0.107256
0.0522261
4.26248
0.0253835
0.424654
0.978666
0.0250497
0.025457
0.0250559
0.0250501
8.78332
4.08177
0.0865588
12.5692
0.169432
0.0252683
0.0579379
0.0315426
0.0250477
0.0251064
0.0412615
3.70074
6.22669
0.0552473
0.173882
0.225439
0.0249845
0.0252754
0.0256994
0.589012
0.0247242
23.3424
4.34688
0.113043
0.025296
3.95576
0.0256658
0.548001
0.356862
0.0252641
0.0254375
0.0311864
3.44392
0.0251191
0.976967
0.0249855
6.31522
0.0250488
4.38473
0.0295258
0.0378246
4.51591
0.024989
1.45108
0.0254579
0.0251565
10.3034
0.108655
4.26443
0.0249273
0.0256143
0.0255698
0.166939
0.175451
0.0786081
0.0259811
0.0289231
0.0249789
3.68595
0.0408071
7.91857
26.9884
10.0521
0.033207
0.0248531
0.0256717
23.539
4.60668
0.0251535
0.0250321
0.109388
0.0939717
4.16981
0.0533265
0.0277777
0.0249275
6.40406
0.0261477
0.0256571
5.94622
0.0249362
0.0939619
0.0434847
1.13832
0.0246342
0.142185
7.67579
0.0289514
42.0862
11.2335
3.80061
0.0619294
6.41376
0.0250286
4.4146
0.0253198
7.771
0.0263896
0.207391
0.0251759
0.0255067
4.99674
7.53811
0.0253047
0.0770288
7.23628
0.0247396
5.18538
0.0606044
0.0574278
5.30248
0.0253595
6.05295
4.33302
0.026576
0.0248691
19.7848
0.139325
4.60929
0.0305768
0.48664
0.0259325
5.37769
0.117042
0.0251884
3.58172
0.0251749
0.0255129
0.0263488
0.0331626
8.40673
0.0259151
0.0318027
8.72797
0.0426053
0.0842574
0.0268933
1.96368
0.0354682
4.40067
0.0254347
0.0255059
0.0255885
0.128583
0.0430661
0.0514643
0.0327241
4.18946
4.35254
0.0719419
0.0252429
0.0493806
7.49387
0.0254955
0.0256123
6.70312
0.376604
0.0253188
0.0395823
0.73558
0.0253327
0.0563396
0.0370691
0.0253559
0.0303841
0.026195
0.024932
0.0253982
0.0306907
0.0913597
0.0383308
7.30228
0.0252232
0.0255856
4.32819
0.0259264
0.0949836
0.02564
0.025374
3.52584
0.0302659
0.0246525
0.174766
0.0249161
0.0254644
4.17701
0.0253665
4.26574
0.0249046
0.293353
0.423286
7.46446
0.0563917
0.0250337
0.0250856
5.20337
0.0256722
10.5796
0.0249084
0.02557
4.62522
0.0255964
0.0327583
4.71288
0.0364074
0.446551
0.0249222
0.025355
1.24738
4.64273
0.0249187
0.025311
0.050979
23.8544
0.02874
3.61979
8.42581
0.0251203
0.0763545
0.0302895
0.0253439
0.0252827
0.0253546
0.0253375
0.0797693
0.0251037
4.52781
0.0251091
2.70384
0.107879
0.110492
18.9027
0.122836
0.202524
1.14846
0.0336312
17.8959
0.0267861
0.0251343
0.0254773
0.02518
9.6203
0.0399048
2.6919
0.507235
0.0255827
0.0347801
0.0973801
0.0259008
0.0251126
0.02518
24.5487
0.166875
0.0287284
0.0253344
0.0248663
0.0557068
0.0312872
0.0317833
0.0255777
0.0253356
0.0255006
0.024854
12.5037
0.0429333
4.31627
10.5905
0.026483
0.0256165
8.41236
3.80881
0.0435598
1.79271
0.0248547
0.0860327
0.0587701
0.0253236
0.0520979
0.528546
3.96169
7.86096
0.0249263
4.41542
0.0254003
0.094319
0.0253878
1.32089
4.44696
15.7268
0.105663
14.8352
0.875269
0.0336662
0.0349546
0.0250281
0.871302
0.0254871
0.0255802
0.0257981
8.45366
0.180043
0.0258798
0.0543936
0.0277737
0.0247673
0.0254243
0.0265397
0.0254044
0.0253311
0.0250606
0.0251489
0.025338
7.18953
4.31929
0.0253693
4.78757
0.0657086
0.0344503
0.0913851
0.0254842
0.382968
4.5181
0.550325
0.937902
0.0697662
0.0308687
0.0249315
14.4336
8.04843
0.0256279
5.01733
0.0262077
0.127619
0.0254755
4.83637
0.348638
0.195384
4.81667
0.0254328
0.0251384
7.70516
0.11705
0.0252854
0.0253293
0.267594
0.0253146
0.6176
0.0248554
0.0285813
0.0256938
0.0253082
0.119342
5.94595
0.643054
0.0253075
0.0251962
4.76997
0.0311843
0.0250348
4.38388
0.0386726
0.026088
0.0253147
0.0251165
7.88468
0.0255152
0.0451469
0.0338998
0.601189
0.0818731
0.0779049
0.0646783
0.409355
0.0253573
0.0255332
8.40894
0.0249737
0.0550432
0.0253196
0.0255078
0.0255676
0.0259213
0.0563842
3.6323
3.65325
5.00635
0.0252756
0.0252292
9.76025
0.025205
0.0807437
4.4796
0.0391839
0.0252448
7.40625
5.56331
0.0254708
4.21568
5.99725
0.0437388
0.0255022
4.26725
8.83418
0.0253996
7.01088
21.4472
4.52474
0.298544
0.370201
7.09491
4.54011
0.0251848
4.43302
1.40406
0.07903
0.0250626
0.025591
13.9255
0.960075
0.413442
0.0373686
8.99176
0.0541249
0.0329193
4.61391
0.025272
0.0929178
0.0252687
0.122542
0.0262789
3.7327
3.93506
7.18609
13.0471
6.17822
0.0263193
0.0246907
0.0251422
0.0252789
0.0252089
0.136395
1.46685
0.0274153
6.1551
0.0259366
0.496718
0.0256491
0.0256644
0.0248183
0.040861
0.025672
0.0260237
0.0433735
0.0772644
0.0256572
0.025978
0.0270686
0.0248653
0.0581511
0.0658517
0.0253021
0.031851
0.0254902
0.740224
0.025077
0.0272145
0.0256364
0.153787
0.0801422
0.0252984
0.030772
0.0685248
0.0268251
0.025216
0.0255593
0.0255746
7.0983
4.3445
0.0251101
0.103677
0.0584586
0.0253959
8.40527
0.0255523
5.79733
0.0251184
0.0254536
0.0290713
0.107279
0.0436404
0.0253555
0.0253564
0.0304417
0.0308001
4.79287
3.55594
3.75938
0.0258928
0.0251158
0.0253087
0.0265867
0.02731
8.92058
0.0252229
0.0255113
0.0304766
0.154526
0.0275575
6.32225
0.025384
0.0254669
5.25851
8.29339
0.118088
0.0255003
0.0412685
11.1286
0.0248938
8.58975
0.0441026
0.058347
9.87134
3.9884
0.0254314
0.10476
0.0254979
0.136188
0.0394515
0.0250981
0.0256879
0.0250351
0.0366428
5.12928
0.0253387
0.0253357
0.0253576
0.0541186
0.0252572
0.0246763
6.21771
7.36619
0.0249044
7.59281
0.0326463
0.131165
0.0249049
4.06054
0.0249746
0.0249358
0.429597
0.0255974
0.0634119
0.0254612
0.0258962
0.029193
0.297351
7.36762
0.494242
0.0251026
0.0253589
0.0356061
0.0346224
0.0251798
0.273756
3.87569
10.1452
0.0292676
0.0253906
0.0255984
0.0250424
1.90203
5.09361
4.24531
0.0397613
0.0264317
1.21435
5.03826
0.737702
0.584422
5.09673
0.0609384
0.241533
0.0252604
0.0253004
0.0254689
0.0263604
0.0284191
0.30307
0.034615
7.55541
0.289491
0.0253171
0.0249415
0.0348898
5.49222
0.0251049
0.430234
0.323346
0.0252477
0.0253352
0.0253085
7.65559
0.0466903
0.0267979
0.0426437
0.0398764
0.0268919
0.0310544
3.87297
3.97479
0.0246464
0.0258005
4.11878
0.0252979
0.0393583
0.0262828
0.0256932
0.0254701
6.09847
0.0255535
3.49588
0.0271043
6.96129
0.0253338
0.0253919
12.2736
9.09879
0.0248795
0.165009
8.98492
4.05848
7.5326
0.0252751
0.0364071
0.0289092
8.32751
8.03404
0.0268635
0.0599876
3.70989
0.0758894
0.0402488
4.64898
3.81407
0.0254652
0.0256725
0.0258709
0.183237
0.234306
0.0249889
0.0253529
0.456934
0.025159
0.0347992
0.0250725
7.14992
0.0838002
9.12439
3.41975
0.0570497
3.28944
0.025342
8.46681
0.0249128
9.1154
0.0246731
0.0253653
0.071024
0.025306
3.61971
9.01909
0.0456853
0.250021
4.34027
0.0254446
0.0519645
0.0357955
5.94964
0.028364
8.21503
0.166498
0.0253856
0.0258861
0.0262896
0.0256858
7.61323
4.99553
0.0840272
0.0292391
8.84551
3.80768
0.0256866
0.0381778