/*--------------------------------*- C++ -*----------------------------------*\
| =========                 |                                                 |
| \\      /  F ield         | OpenFOAM: The Open Source CFD Toolbox           |
|  \\    /   O peration     | Version:  v2012                                 |
|   \\  /    A nd           | Website:  www.openfoam.com                      |
|    \\/     M anipulation  |                                                 |
\*---------------------------------------------------------------------------*/
FoamFile
{
    version     2.0;
    format      ascii;
    class       volScalarField;
    location    "100";
    object      p;
}
// * * * * * * * * * * * * * * * * * * * * * * * * * * * * * * * * * * * * * //

dimensions      [0 2 -2 0 0 0 0];


internalField   nonuniform List<scalar> 
27802
(
0.0372615
0.0127641
0.0793131
-0.0462421
0.0169691
-0.310924
0.0164885
-0.189978
-0.00064005
-0.0833861
-0.201814
0.343827
-0.0417047
0.359837
-0.216465
-0.424278
-0.419184
-0.00087237
-0.199987
-0.112235
-0.384571
-0.217882
-0.00955824
-0.0849055
-0.27103
0.0845148
0.00903444
-0.0579421
-0.000590047
-0.432824
-0.0840085
-0.136693
0.035954
-0.00895814
0.0260572
-0.386316
-0.423022
-0.00711331
-0.0168424
-0.421873
0.334312
0.025971
-0.0650604
-0.0074462
0.0676672
-0.169252
0.0291012
-0.424981
0.488286
-0.0285764
-0.195502
0.0811632
-0.224235
0.0471757
-0.0151517
0.0108634
-0.121227
0.0294059
0.0604627
-0.199683
-0.109486
0.0824729
-0.0122625
-0.00348787
-0.00748956
0.000123761
-0.054234
-0.123373
-0.201065
0.00817592
-0.00751361
-0.11797
-0.167352
-0.0559132
0.0981784
-0.032837
-0.0568759
-0.430547
-0.101145
-0.221437
-0.000371662
0.00714843
0.177416
0.000859786
-0.00943153
-0.0941204
0.0127869
-0.0735743
-0.349843
0.0442244
0.0241478
-0.102886
-0.00157959
-0.433592
-0.157744
-0.0692587
0.00707056
-0.0649251
0.0338492
-0.12473
-0.0170946
-0.0108835
0.185605
-0.108611
-0.163533
-0.0117374
0.0396627
-0.00762985
-0.0149014
0.0714873
-0.424635
0.0244661
-0.00889677
0.033755
0.040364
-0.00334472
-0.0523377
0.0821283
-0.0996509
-0.263881
-0.109267
-0.194695
-0.20706
0.0929285
-0.414603
0.210974
-0.00811558
-0.0537293
-0.425222
-0.00927048
-0.144536
-0.126349
0.018018
-0.431599
-0.140426
-0.0377288
0.290605
0.366924
0.0312473
0.0186214
0.349576
-0.0850612
0.166374
0.0809146
-0.00673622
-0.0304354
0.119272
-0.076591
-0.0194588
-0.124008
0.0449326
-0.348125
-0.0651531
-0.22791
0.0113607
-0.102204
-0.0368682
-0.0698374
-0.0078411
0.0237196
-0.00355779
0.000938141
-0.304548
0.00177968
0.0150734
0.0124919
-0.160404
0.0102184
0.0177915
0.0484626
-0.101529
-0.164379
-0.410869
-0.362128
0.0118354
-0.198606
-0.218719
-0.188895
-0.00342351
0.0390754
-0.185096
-0.0354605
-0.323919
-0.0495741
-0.00785857
0.432531
-0.416242
0.141158
-0.0831243
0.52192
-0.28042
0.0251754
0.0738834
-0.150833
-0.015569
-0.350403
-0.101189
-0.225783
-0.152074
-0.105033
-0.0520795
0.023516
0.0355404
-0.052566
-0.283638
-0.134814
0.0107308
-0.00154404
-0.425561
-0.0115481
-0.0191045
-0.141717
-0.0472354
-0.397827
-0.00764585
0.0087908
-0.142403
0.0595392
0.0257177
0.0251144
-0.156183
0.015501
0.0390892
-0.165208
0.0494041
-0.145896
-0.0200148
-0.0776056
-0.00719843
0.0488625
0.0335638
-0.0739924
-0.137814
0.0259091
0.0250129
-0.319013
0.295628
0.199953
-0.00865323
0.273911
-0.138639
-0.327989
-0.0363286
-0.104631
-0.375487
-0.0386092
0.0121183
-0.424948
-0.00794914
0.010833
-0.198185
0.00825205
-0.220237
0.0641469
-0.0754586
-0.111162
-0.0583283
-0.1718
0.00904415
0.0980745
0.00742488
-0.18647
-0.101602
-0.0823469
0.00441848
0.0126033
0.0617332
0.430844
-0.107631
-0.132772
-0.430894
-0.0643701
-0.36959
0.00183727
0.00805664
0.0260301
-0.123539
0.0287236
-0.0130508
-0.104903
0.0649151
-0.0778715
-0.266153
-0.054912
-0.417834
-0.042403
-0.187051
0.00126784
-0.200159
-0.229603
-0.298947
-0.104583
-0.199648
0.0620556
-0.00707375
0.00298829
0.0663708
-0.139709
-0.417861
-0.194994
-0.317769
-0.0260948
-0.0298788
-0.340424
-0.154247
0.0285157
-0.156639
0.00725411
-0.170578
-0.0117792
-0.0280223
-0.236228
-0.429351
0.0291001
-0.39959
-0.419685
-0.169384
0.000319985
-0.0583857
-0.410071
-0.0113314
0.0926347
-0.13397
-0.0303264
-0.103659
-0.00185096
0.178216
0.268925
-0.105872
0.00734392
-0.0486016
0.00250509
0.0232426
-0.135758
-0.197331
-0.0188964
0.0280831
0.0435452
-0.23338
-0.0336144
-0.0116661
-0.3112
0.0205633
-0.290303
-0.429697
-0.387429
-0.0440864
0.00150997
-0.0385687
0.000810572
0.42544
0.427888
0.00618286
-0.170529
-0.0133437
-0.0115213
0.0497095
0.0065618
-0.14368
0.00164401
-0.148406
-0.339919
-0.195869
-0.00620648
-0.013047
-0.0137462
-0.32646
0.00141899
-0.0971623
-0.00706861
-0.1357
-0.167231
-0.431546
-0.038647
0.0656594
-0.0188078
-0.0513381
0.0271476
-0.0862299
0.0928027
0.119965
0.0230361
0.039887
0.0249307
-0.0151652
-0.426652
0.290554
-0.0789871
-0.354049
0.330687
0.0229412
-0.0448392
0.0462253
0.0139415
0.200545
-0.0288673
0.0240359
-0.0629948
-0.308001
-0.0546175
-0.0615134
-0.421325
0.00983529
0.0286676
-0.0537483
-0.428452
0.0284928
0.110994
-0.153265
-0.0520555
-0.0126151
-0.0137631
-0.114742
-0.16
-0.0467982
-0.104878
0.0078788
-0.297807
-0.0112644
-0.081372
-0.0572273
-0.429073
0.0245561
0.0160697
-0.0401069
-0.035334
0.0498606
0.0228315
0.0261043
0.28477
0.0316561
0.0147299
-0.164257
-0.189651
-0.0596268
-0.421852
-0.190714
0.332652
-0.194775
0.0136349
0.154405
-0.162138
-0.0445149
0.027557
-0.0166663
-0.0421619
0.239617
-0.0309491
0.0339584
0.00775653
-0.340529
-0.0287442
-0.0311349
0.00718183
-0.411247
0.0244665
-0.0930288
0.0239249
-0.00907864
-0.0431901
-0.218273
0.0101568
-0.00693476
-0.221709
0.0301971
-0.110328
-0.100748
0.286997
0.0245421
-0.104438
-0.262273
0.328129
-0.140533
-0.104559
0.00268544
0.0103982
-0.00324586
-0.0383821
0.0283043
0.069456
0.0113876
-0.0560901
-0.0255808
-0.10555
0.00726239
0.0383695
0.241946
0.0590532
-0.0187547
0.0101512
0.00182229
-0.177185
-0.073903
0.29919
-0.373995
-0.000209151
-0.0796512
-0.0556002
0.11305
-0.0332781
-0.00603652
0.0129317
-0.155367
-0.201847
-0.0461961
-0.411558
-0.0658867
0.031638
-0.340282
-0.00313506
0.000357967
-0.0416716
0.00969264
0.0984426
0.0186918
-0.0537137
-0.419272
-0.399763
0.12138
-0.311407
-0.0904043
-0.0854562
0.025082
0.0253787
-0.0254961
0.0386354
0.0253506
-0.118902
0.00494313
-0.278628
-0.0548657
-0.206955
0.120023
0.00997529
0.0423406
0.031994
0.0293014
0.0910597
-0.193838
0.0068522
-0.422413
0.0907449
0.461876
0.203622
-0.162663
-0.00909591
0.0242911
-0.056094
-0.132907
0.0281811
-0.137882
-0.0277715
0.0164004
-0.000575826
-0.229567
-0.11827
-0.218306
-0.113475
0.449674
0.000848081
-0.116375
0.0348919
0.0161995
0.340487
-0.106041
0.00995252
0.0517371
0.00816687
-0.0636073
-0.0172505
-0.00332369
-0.00989532
0.00364837
-0.0984688
-0.0163577
-0.430956
-0.0842932
0.0238187
-0.0800982
-0.119433
-0.124032
-0.171672
-0.104369
0.0101395
-0.0025683
-0.000300648
-0.381079
0.00179798
-0.155196
-0.299717
0.12364
-0.335273
-0.0372522
0.0287424
0.034959
-0.054519
-0.0593357
0.00429772
0.0110064
-0.368936
-0.0502702
-0.221045
-0.384373
0.187289
0.00194825
0.420192
-0.426008
0.00230369
-0.337526
-0.10312
-0.132781
0.21017
-0.389725
0.0918165
-0.112022
0.0129508
0.293088
0.00462605
-0.0643607
0.176128
0.211525
-0.394859
-0.05843
-0.190375
-0.0429951
-0.361967
0.0120943
0.0180126
-0.01465
0.314206
0.0270491
0.0796523
0.000217514
-0.112216
0.120675
0.0114941
0.0307691
-0.0837267
0.363925
-0.0563615
-0.308856
-0.0214853
-0.0894502
-0.0472957
-0.0436998
0.0170534
0.129627
-0.303129
-0.116263
-0.0197391
0.0073795
0.450649
-0.111761
0.0270836
0.42496
0.0248786
0.172996
0.0236744
0.0254498
0.0125888
-0.188903
-0.0395031
-0.00894701
-0.058704
-0.429224
0.0249624
0.00279724
-0.367406
0.0714656
-0.173016
0.0186167
-0.012148
-0.000111187
-0.149103
-0.0569692
0.0265308
-0.100743
0.010629
-0.0403124
-0.123032
0.0257716
-0.0284689
-0.102077
-0.00113327
0.0741948
-0.00189192
-0.423431
-0.303422
-0.0898701
-0.0174048
-0.381744
-0.361276
-0.00168188
-0.394252
0.0490917
0.0134594
0.00198967
0.0155895
-0.0107205
-0.303547
0.00494133
0.0254155
0.213263
-0.151711
0.0243664
-0.429256
-0.101294
-0.253243
-0.0121274
-0.040012
0.0128882
0.000628995
-0.168675
0.0124022
0.0324534
0.0133727
-0.0519796
-0.0167515
-0.145008
-0.282006
-0.126288
0.0258927
0.1361
-0.0641222
-0.0123203
-0.0105486
0.00498568
-0.0125604
0.298236
-0.383621
-0.117869
-0.339889
0.00456469
-0.0241009
-0.000181869
0.0258702
0.422677
0.0149974
-0.43102
-0.182767
-0.336863
-0.421995
-0.102085
0.0309224
0.0448189
0.465216
-0.0925217
-0.0533254
0.321566
0.00330875
-0.027506
0.0340924
-0.0570155
-0.164925
0.0291117
-0.0103446
-0.0275519
0.00258373
-0.00154468
-0.394343
-0.0802227
-0.422152
-0.188537
0.0306125
-0.0645781
0.0366583
0.230752
-0.0101185
-0.0257635
-0.103398
0.0210723
-0.359668
-0.399588
-0.0528921
-0.0582178
0.0304558
0.029916
-0.0934097
-0.073367
-0.0257547
-0.0632471
-0.0260072
-0.13798
0.0123123
0.0294778
-0.135025
-0.0166727
-0.112921
-0.23554
-0.00202254
0.077689
0.104585
0.00796028
-0.0683853
-0.0224318
-0.374618
0.120302
-0.348107
0.0810602
-0.0842407
-0.311107
-0.0418752
0.363094
-0.0933549
0.030908
-0.0567557
-0.0601089
-0.39806
0.126954
0.00192791
-0.14617
0.0266811
-0.0184516
-0.191887
-0.279232
-0.0509131
-0.290665
0.00154433
0.0155843
-0.0381988
-0.154403
0.0167347
-0.147067
-0.138513
-0.192167
0.00648647
0.0712463
-0.129395
0.00846599
0.192913
-0.000564574
0.112366
-0.411429
-0.233949
0.0983115
0.126219
0.124207
0.030735
0.0147023
0.0134908
-0.183124
-0.155514
-0.0259269
0.0149374
-0.0466783
-0.0890991
-0.190757
0.159084
0.0386835
0.353719
-0.422493
0.0495946
-0.0674806
-0.102486
-0.0719435
-0.411518
0.0267167
-0.0252328
-0.008076
0.00707714
-0.376533
-0.375665
-0.160755
0.0655654
-0.0694175
-0.052828
-0.404599
0.00995364
-0.229208
-0.0962644
-0.421198
0.0242578
0.0147486
-0.0453997
0.00877602
-0.249722
-0.0660078
-0.128024
-0.23043
-0.177316
-0.0519571
-0.347482
-0.0998828
-0.130295
-0.29964
0.0152555
-0.19869
-0.411474
0.0337207
0.0113406
0.0265755
0.108294
-0.0341811
0.152511
0.000961547
-0.191368
0.00655608
0.0785686
0.0020218
0.0148885
0.0145434
-0.0362162
0.0163452
-0.0664962
0.0113302
0.163144
-0.303129
0.522544
-0.0197914
0.0144593
-0.0245417
-0.0126145
-0.109892
-0.00299356
-0.202096
-0.0594581
-0.140625
0.292226
0.00714444
-0.00820615
0.213947
-0.134385
0.0252842
-0.295673
0.012634
-0.0725875
0.0263305
-0.000260585
-0.421311
-0.172014
-0.00280965
-0.257028
-0.2497
-0.0970377
-0.0511552
-0.0171941
-0.410588
0.0913063
-0.252134
-0.0344366
0.214977
0.0419075
0.0144874
0.0589803
-0.225314
-0.38838
-0.168576
-0.377612
-0.431204
-0.0310484
-0.0028919
0.00996784
-0.109459
-0.224724
-0.109579
-0.115505
-0.0282499
-0.00869213
-0.0260521
-0.1515
-0.0692707
0.0093901
-0.26173
-0.0394964
-0.129679
0.0078226
-0.132257
0.222493
-0.00234336
0.00574752
0.0232536
-0.0831257
0.0108605
-0.0361201
-0.0718629
0.373252
-0.0165634
-0.0712933
-0.0549932
-0.0316565
-0.162298
-0.392509
-0.325298
-0.057109
0.00997474
0.447184
-0.0363612
-0.025336
-0.271318
-0.186469
0.45557
-0.312026
-0.0560185
-0.291976
0.014272
-0.27817
-0.046059
-0.0766297
0.169499
-0.0062757
-0.0132381
-0.248225
-0.0408851
-0.00882221
0.0265198
0.0178852
0.00979147
0.00334532
-0.00783846
0.0240218
-0.0379579
0.00518598
-0.180681
-0.0041835
-0.378256
-0.193336
0.0140769
-0.146438
0.00539159
-0.303375
-0.170771
-0.0575
-0.140925
-0.0643075
-0.012914
-0.0584585
-0.00915906
-0.0654852
-0.425006
-0.244506
-0.227858
0.0123987
-0.000989663
-0.0106056
-0.277024
0.0271331
0.026119
-0.088087
-0.00236502
-0.0222122
0.274282
0.00106535
-0.00138628
0.0258787
0.448431
0.0689734
0.0166772
-0.0964298
0.483549
0.00829383
-0.0104234
-0.0733416
0.01643
-0.0140324
-0.297174
-0.058485
0.00481941
0.0140456
-0.207966
0.0172556
-0.0198036
0.0299069
0.0212356
-0.422507
-0.349247
0.023913
-0.165072
0.0319962
-0.142253
-0.0278266
0.0548381
-0.41989
-0.424855
-0.057704
-0.0161765
0.00196976
-0.191105
0.378895
-0.380833
-0.127733
0.0139174
-0.110331
0.045425
0.519298
-0.0541507
-0.429816
0.0119575
0.3743
-0.362994
-0.217037
0.0283756
-0.0301269
-0.317724
0.00708237
0.0523525
0.00538457
0.025236
0.0333439
-0.0171242
0.0672374
-0.196961
-0.321733
0.0097381
0.0265524
-0.0527441
-0.0376106
0.0977034
0.0312684
0.0217532
-0.249252
0.0135238
0.0276635
-0.0433336
-0.397579
-0.048421
0.0215905
-0.347341
0.00846627
0.0790643
-0.0876075
0.00672019
0.0244828
-0.416561
-0.0240119
-0.0830929
0.170408
-0.0507411
0.0592223
0.0617902
-0.171177
-0.074729
0.496969
-0.15767
-0.146214
-0.191385
0.0296677
0.0684425
0.0237419
-0.355012
-0.426775
0.0405984
-0.252423
-0.00253927
-0.300695
0.0259607
0.023624
-0.0266409
0.277877
-0.409413
-0.0149161
-0.337774
-0.0459855
0.00972314
-0.0671039
0.0126265
-0.0337211
-0.00629819
-0.029667
-0.0755068
0.306662
0.013328
-0.0731346
-0.10483
-0.00130077
-0.384456
0.0138916
0.0620459
-0.296472
0.0797768
-0.199987
0.0123317
0.00557341
-0.0675916
-0.0098609
0.0155252
-0.16649
0.000553742
3.42377e-05
-0.397191
0.00218705
-0.000899308
-0.0582164
-0.404683
-0.0104769
0.0237826
0.00236385
0.0590813
0.0219645
-0.0955591
-0.189361
-0.191806
0.20225
-0.0160271
0.00088255
-0.280404
-0.140661
-0.202715
0.00232615
-0.43103
0.357535
-0.429779
-0.199426
-0.331728
0.0605148
-0.202502
-0.283714
-0.14018
-0.00328177
0.0337819
-0.115152
-0.0105236
0.288746
-0.0587132
-0.23134
-0.307139
-0.0643229
0.193762
0.0151961
-0.371381
-0.183062
-0.130303
-0.0859961
0.41795
0.0468373
-0.0315885
-0.0984917
-0.183712
0.186784
-0.0364183
0.000457723
0.0497545
-0.00983704
-0.00857934
-0.0613289
0.0293233
-0.0273122
-0.422676
-0.0740879
0.0263123
-0.118411
0.0169959
0.0184323
-0.330296
-0.0535906
0.0074103
0.0259975
-0.187462
0.00817897
-0.010216
0.00194842
-0.201164
0.372715
-0.179873
-0.255038
-0.408129
-0.122236
0.0276667
0.0305513
-0.049949
-0.055844
-0.154563
-0.161758
0.0490574
-0.105056
-0.130031
-0.287973
-0.00314668
-0.0717962
0.0363755
-0.0534984
-0.14991
-0.34035
-0.280406
-0.00219681
-0.0930971
-0.409095
-0.405354
0.029979
0.229336
-0.0458695
-0.171993
-0.158321
-0.142443
0.0344737
-0.246617
-0.104521
-0.107677
-0.225844
-0.00819796
-0.111315
0.514535
-0.430723
0.179283
0.0495725
-0.0500341
-0.0394722
0.0269926
0.016121
-0.147124
0.075414
0.0576924
0.0225145
-0.0958414
-0.0647574
-0.0427544
0.205001
-0.405724
0.0131099
0.0128296
-0.0165672
-0.042207
0.0213336
0.0252506
0.026256
0.0519676
-0.376236
-0.0843235
0.217122
0.503458
0.0843668
0.346284
0.019427
0.474225
0.0136659
-0.350627
-0.033385
-0.0047173
-0.430275
-0.297747
0.0463869
-0.121706
-0.366504
-0.387925
0.0190038
-0.377943
-0.378367
-0.329769
0.0374151
0.0158729
-0.269623
0.510805
-0.204155
-0.349147
-0.178804
-0.192695
0.0264039
-0.0303477
-0.2008
0.0158977
0.000212581
0.0172168
0.403759
0.0349141
-0.143631
0.375896
0.0268082
0.0340233
0.025567
-0.0979415
-0.34751
0.0599054
0.0286139
-0.00961063
-0.251892
-0.0912298
-0.063308
-0.0579555
-0.298204
0.307868
0.353784
0.0119202
-0.307707
-0.0858576
-0.0470378
0.257482
0.0131038
-0.0011705
-0.154047
-0.0685055
0.0174893
-0.131922
-0.142919
0.00911418
0.457473
-0.0849961
0.0256617
-0.0369204
-0.0306929
-0.127395
0.0382151
0.00867802
-0.0106611
-0.317901
-0.0330816
-0.262228
-0.297056
-0.0718772
-0.00243171
-0.18926
-0.0145419
0.0326413
0.0335158
-0.375741
0.00378097
0.0842162
0.0376257
0.0261941
0.0193172
0.0342819
-0.111139
-0.0325651
-0.0414312
0.00737952
-0.0471684
-0.0506961
-0.0623113
0.00393552
-0.0846391
0.024407
0.0282346
-0.213435
-0.0634878
0.0290525
-0.210749
-0.299149
-0.208048
-0.00260859
0.164837
-0.125566
0.309247
0.0278967
0.0493505
-0.0421778
-0.116769
-0.115609
0.0279661
0.00316991
-0.395408
-0.281866
-0.194662
0.0380248
-0.0315694
-0.0886729
-0.0173407
0.000106802
0.0372131
-0.410005
-0.0685681
-0.159324
-0.259834
0.018898
0.00025547
-0.111213
-0.378762
-0.177533
0.00085189
-0.224822
-0.398259
0.0628764
0.0412046
-0.0547813
-0.157873
0.073103
0.0257786
-0.151853
0.0268428
0.00630205
0.0371359
-0.201336
-0.227466
0.011503
0.0116318
-0.43015
-0.0155817
0.00739518
-0.286931
-0.174783
-0.342789
-0.415336
0.0241085
0.0141902
-0.0364647
-0.111642
-0.0525057
-0.248552
-0.0443742
-0.035441
0.0260869
-0.416537
0.0382068
0.0915198
-0.416732
0.00653644
0.0300421
-0.0234924
-0.298764
0.0443891
-0.105765
0.0117883
0.0190076
-0.0418677
-0.231926
0.00952649
-0.0257028
-0.00481128
0.0315856
-0.0768003
-0.252315
0.286665
0.0121949
-0.033469
0.0508662
0.450898
-0.360717
0.00231773
-0.0569424
-0.0525544
-0.0670676
-0.151945
-0.0264448
-0.129783
0.519826
0.00020711
0.382516
0.0134117
-0.0189222
0.0952838
0.0183431
-0.00876076
-0.0619545
0.0116879
-0.283402
-0.0625713
0.00937679
0.00709786
0.18182
0.0513215
0.0340976
-0.00510008
0.0246979
-0.18718
-0.015713
-0.151956
-0.215091
0.000403656
0.132691
-0.329053
-0.117325
-0.108207
-0.410818
0.00881862
-0.391399
-0.158487
-0.0059206
-0.412657
0.0286326
-0.413442
-0.0705941
0.289597
-0.377589
-0.345958
-0.0375826
0.060232
-0.0849702
0.056381
-0.117778
-0.157398
-0.215494
-0.0727947
0.00362627
-0.0638214
0.352535
-0.00797874
0.00140211
0.0261967
0.295368
-0.0999366
-0.119671
-0.139293
-0.0156541
-0.0604302
-0.0108269
-0.101284
-0.121012
-0.296184
-0.0012267
-0.0991765
0.00265392
0.320062
-0.38044
-0.0595882
-0.149527
-0.191707
-0.220749
-0.00591042
0.025146
0.00521331
-0.235673
-0.356713
-0.0574733
0.0227311
0.010899
0.0195008
-0.000582976
-0.344635
0.0159191
-0.0435893
-0.152505
-0.25068
-0.0325518
-0.102714
-0.223524
-0.182988
0.00509858
-0.100935
0.017414
-0.128909
-0.0398129
0.165463
0.20884
0.280775
-0.0175865
-0.0351014
0.0280646
-0.0555408
-0.178314
0.0123759
-0.0782673
0.0169575
0.0140338
0.00994863
-0.312453
-0.0177794
-0.40977
0.00386805
0.00111041
-0.122234
-0.116879
0.0133935
-0.333117
0.0235816
-0.331796
-0.00518309
0.0252556
-0.214593
-0.223477
-0.12417
0.0220182
-0.00673494
0.0751042
-0.204867
-0.0369
-0.0180868
0.0786294
0.208127
0.100044
-0.108377
-0.0182623
0.074194
-0.0169223
-0.0559007
-0.0297916
-0.0897618
-0.114698
0.00702382
0.0141009
0.0143142
0.0476031
-0.0696898
-0.0330373
0.0446348
-0.0352489
-0.429542
-0.0283364
0.0221269
-0.0403207
0.0642028
-0.0124444
-0.0863576
-0.0241392
0.0258254
-0.00555452
0.0302321
0.00275641
-0.0265139
0.110199
0.0254951
0.169636
-0.203509
-0.147915
-0.181978
-0.00354139
-0.399702
-0.0504078
-0.0483486
0.225533
-0.184316
-0.315787
0.0579141
-0.113823
-0.11851
-0.000144614
-0.404634
-0.0638087
0.0316718
-0.0907189
0.0248936
-0.00818823
0.0662189
-0.0712779
-0.0980278
0.0556556
-0.0100782
-0.168579
0.00994785
0.0299837
-0.0461982
0.353401
-0.251466
-0.0689472
-0.199427
-0.00927252
-0.131845
0.0298044
0.216156
-0.0291541
0.0222442
-0.0468445
0.00491337
0.00243488
-0.184334
-0.00333505
-0.0152763
-0.365475
0.082304
0.00238955
0.0690117
-0.0521693
-0.400564
0.512267
-0.0292037
0.0126149
-0.167114
-0.105843
-0.0152808
0.0266893
0.00983814
0.0117719
-0.187489
-0.214361
0.140007
0.163586
0.0360875
0.332054
-0.013469
-0.0120765
-0.0765472
-0.410305
-0.0468082
-0.107618
-0.319302
-0.0103077
-0.0547769
0.0120437
-0.00676559
-0.0076342
-0.0244735
-0.115952
-0.0440092
-0.115274
0.0568047
-0.0803694
0.000872118
-0.125326
0.0501048
0.238134
-0.201161
0.0293792
0.0113821
0.0602765
-0.0551761
-0.0699
0.0384711
-0.0124034
0.0120234
-0.0417141
-0.00058668
-0.109703
0.0592246
-0.115059
0.0154062
0.227311
-0.149163
-0.060644
-0.384845
-0.0871193
-0.17094
0.0287589
-0.0570996
0.117498
0.0110821
-0.0238641
-0.338606
-0.420923
-0.113837
0.322361
0.0298201
-0.0461967
-0.0106803
0.483866
-0.0418429
0.0267655
-0.098417
-0.141986
0.0122813
-0.0245448
-0.0775182
0.0755473
-0.332287
-0.429985
-0.258773
0.0766007
-0.0104338
-0.111862
0.0104058
-0.0663767
-0.174435
-0.315961
-0.0167511
-0.108822
0.0111124
0.05777
-0.0829662
0.0361234
-0.123357
-0.158339
-0.0171122
-0.160371
-0.012545
0.00600538
0.0258129
-0.079198
-0.143261
0.0152358
0.409014
-0.230494
-0.0545196
-0.0337158
-0.155708
-0.118764
-0.237611
0.0353319
0.00950527
-0.167896
0.25066
0.0237973
-0.352073
0.0237728
-0.222507
-0.0887713
-0.191892
-0.052891
-0.141744
0.0259741
-0.113631
-0.0458233
-0.138411
-0.0263648
0.48182
0.0341332
-0.150013
-0.0324456
0.403651
-0.419161
0.0212159
0.0114369
-0.0183749
-0.0567758
-0.0637562
0.0282274
0.17543
-0.426012
0.0034355
-0.0997143
-0.0475423
0.0175064
0.505804
-0.204156
0.048277
0.0239275
0.0190413
0.509442
0.0287835
-0.0809471
-0.413465
-0.392307
0.0039329
-0.381055
-0.174573
-0.402849
-0.248098
-0.295508
-0.160082
-0.0889942
-0.00373877
0.012034
-0.155653
0.000341229
0.0761447
-0.0368848
-0.00603531
-0.16444
0.517903
0.0545801
-0.349218
0.0149448
0.279861
-0.0815673
-0.0106663
-0.0406963
0.0487921
0.0346191
-0.00356183
-5.53872e-05
-0.0263255
-0.112779
-0.389775
0.126894
-0.413412
0.076409
-0.00909714
0.520315
-0.068034
0.0570465
0.0818995
0.141716
0.487814
-0.124529
0.0346998
-0.0552074
0.0558135
-0.00276381
-0.129509
0.0288965
-0.175063
0.0289736
-0.0237374
-0.133091
0.00473216
-0.141836
-0.129391
-0.176347
-0.0707698
-0.0466458
0.0378117
0.0265634
-0.0293599
-0.0152707
-0.288745
-0.277927
0.0124109
0.0122077
-0.234191
0.0214654
-0.128138
0.0293855
0.00871098
-0.337252
0.00237063
-0.0568304
0.0150916
0.00982509
0.0439048
0.00109853
0.0516428
0.0128676
-0.349198
-0.0689639
-0.0231842
0.00556939
0.29543
-0.0503805
0.0613753
-0.172298
0.304858
0.252845
0.268009
0.0040448
-0.252198
-0.297167
-0.227381
0.00203095
0.109572
0.0513608
-0.0610099
-0.226002
0.00289122
-0.132144
0.199068
0.0606038
-0.294597
-0.0872254
-0.0798143
-0.42259
0.153197
0.0546169
-0.122343
0.0150835
0.0251703
-0.0605055
-0.021097
-0.00807624
0.00814546
-0.0972207
-0.0069156
-0.0290406
-0.0472502
0.458366
0.0800823
-0.132993
-0.106297
-0.185243
-0.279602
0.0241657
-0.192831
0.0194384
0.168642
0.00908461
-0.0549039
-0.106418
0.00309059
-0.0188742
0.00438202
-0.102607
0.00819545
-0.266945
-0.343347
-0.0560602
-0.367729
0.0491486
-0.0388428
-0.029905
0.0481573
0.0415192
-0.148
-0.0307763
-0.258481
0.0346493
-0.144655
-0.291815
-0.382091
0.172448
-0.100012
-0.415306
-0.264275
0.0208065
-0.0107063
-0.216328
0.00627586
-0.0259899
0.241691
-0.0111719
0.0977199
0.0481602
0.0510969
-0.0182054
0.0441184
-0.00479087
-0.0968243
-0.289355
-0.134168
-0.134409
-0.00203178
-0.289511
-0.428703
-0.423643
-0.348739
-0.0896781
-0.0808212
0.0544988
-0.0719282
0.0276805
-0.0140976
-0.263075
0.0244472
-0.00293408
-0.0559779
0.00125066
-0.106986
-0.383394
-0.0529179
0.0137314
0.0110545
0.050426
-0.0991534
-0.0212242
-0.0937779
0.101146
-0.404055
0.0261767
0.242703
-0.0045577
-0.0675734
-0.0324103
0.138454
0.0116298
0.090582
-0.389452
0.0145286
0.384128
-0.165558
-0.378941
-0.0882879
-0.0970621
-0.147826
-0.180504
-0.149688
-0.29461
-0.430775
-0.0678382
-0.325819
0.00720236
-0.089563
-0.157378
-0.355408
-0.198149
0.0327839
-0.000535747
0.212865
-0.190419
0.0157003
-0.0343952
-0.112233
0.0522826
0.0256327
0.0575689
-0.110266
-0.0206078
-0.00545343
0.45961
-0.396364
0.0291212
-0.0717595
0.379087
-0.00431406
-0.0432141
0.286573
0.0748285
0.477527
-0.363913
0.210033
-0.268738
-0.0285559
-0.218361
-0.381751
0.0279087
-0.00398013
-0.240275
-0.048856
0.0103318
-0.124449
-0.0127579
0.0132101
-0.00831262
0.0115859
0.0276717
0.0163692
-0.114816
-0.0594658
-0.235747
0.122343
-0.000398187
0.433251
-0.028459
-0.115635
-0.0708386
-0.304544
-0.0168567
-0.369284
-0.00277073
-0.0961564
-0.222969
-0.0986186
-0.0655173
-0.429983
-0.107161
0.0868832
0.206454
0.0601438
0.0285845
0.461767
-0.0446497
-0.0882413
-0.00839322
0.0089812
0.0863156
-0.382009
0.295767
0.111864
-0.131534
-0.25259
0.121263
-0.422545
-0.0731446
-0.00607701
0.0277046
-0.41453
-0.163631
-0.338864
0.0838061
0.0370979
0.0130862
-0.164775
0.128422
0.0418189
-0.230419
-0.18226
-0.0335041
-0.188349
-0.306221
-0.0345117
-0.284226
-0.00594197
0.0059711
0.19236
0.00379006
-0.0924127
0.024776
0.0248695
-0.0404034
0.0161581
-0.0695961
-0.167039
-0.0180839
-0.0104564
0.0144054
0.102138
-0.246136
-0.156443
0.49014
-0.113164
-0.24069
-0.15
-0.144657
0.00104976
-0.105221
0.0042355
0.0530279
-0.147899
0.0253062
-0.032671
-0.167211
0.0118227
-0.0718987
-0.381795
0.100397
-0.406309
0.0499233
-0.396939
-0.25214
-0.0048011
0.0568138
0.342392
0.0385718
-0.286362
-0.302282
0.0563179
0.130042
-0.0635903
-0.0384833
0.0115376
-0.162256
-0.41571
0.0235521
-0.119865
-0.0318135
-0.0266268
0.00768795
-0.43023
0.0136139
-0.0649095
0.186632
0.0376575
-0.134959
0.0439599
-0.152744
0.075097
-0.124448
0.0726578
-0.138669
-0.155339
0.130988
-0.285805
-0.100897
-0.426514
-0.0868378
-0.070333
0.0296178
-0.0475499
0.0401013
0.0118657
0.00679799
0.0101583
0.0333526
-0.424971
0.000513454
-0.183991
0.0108693
-0.204241
-0.00524728
0.0368031
0.00198893
-0.0330433
-0.294568
-0.122324
-0.166639
0.0264037
-0.336136
-0.182066
-0.0164068
0.00712356
0.0260731
-0.100369
-0.191275
-0.0776729
0.0129126
-0.169445
0.00564248
-0.173152
-0.0582685
-0.4255
0.171883
0.033629
0.00404627
-0.097564
-0.0741288
0.0986266
-0.127987
0.0228278
-0.189436
-0.0104416
-0.303049
-0.184326
0.0161806
-0.0578753
0.0258563
0.0168461
0.000544401
-0.017868
-0.201559
-0.215126
-0.386832
-0.383512
-0.0452949
-0.121777
-0.106841
-0.220471
-0.0125516
0.0280876
-0.219778
-0.144034
0.322837
-0.0471815
-0.0976117
-0.0426212
-0.137005
0.425677
0.0132088
0.0720449
-0.296308
-0.158719
0.107596
-0.418304
0.0265895
-0.0129332
-0.0337076
0.143509
0.116671
-0.157402
0.00517744
0.0116924
-0.00225729
-0.0676942
-0.0104457
-0.265951
0.0120336
-0.0738442
-0.102495
0.0118753
-0.133817
0.0110147
-0.0212312
0.0606817
-0.124784
-0.162954
-0.314006
-0.178526
-0.00600233
0.000284156
-0.0613133
-0.412287
-0.0440211
0.09268
-0.0539475
-0.16142
-0.340307
0.0582486
-0.351739
0.47638
-0.0820876
-0.0773824
-0.0252781
0.01314
-0.104243
0.0501555
-0.096378
-0.102686
-0.0289748
-0.00594235
-0.0537717
-0.352412
-0.262353
0.00916245
-0.295099
-0.152325
-0.189883
0.368524
0.103858
-0.0877127
0.268769
-0.00800831
-0.00369947
0.516758
-0.345245
-0.159725
-0.41899
-0.274192
-0.0619452
-0.359437
-0.362853
0.0061012
-0.42557
0.171199
0.0143165
-0.0623057
-0.03213
-0.146649
0.024722
0.0400615
-0.271883
-0.185877
0.019162
-0.0801514
-0.169998
-0.0250296
0.0985973
-0.105859
0.014823
0.0112929
-0.201758
-0.0530432
0.0053881
-0.125484
0.00148572
-0.0115204
-0.432714
0.0233945
-0.169142
-0.00837419
-0.287813
-0.034028
-0.00245072
0.167737
-0.2775
0.00313631
-0.0353264
0.0247627
-0.3117
0.00512384
-0.123729
0.218269
-0.204537
0.0178305
-0.289315
-0.281584
-0.00205428
0.0501661
0.00170608
0.00225024
-0.0506269
-0.153343
-0.0818325
-0.390276
-0.202144
0.0203365
-0.129414
0.132461
-0.00147288
-0.0157825
-0.06196
-0.0281487
-0.197626
-0.123968
-0.0582281
-0.219256
0.000498182
-0.0138128
-0.0302703
-0.307163
-0.00494006
-0.0299937
-0.0528683
-0.0960108
0.0224119
-0.0378671
0.0153144
-0.299831
-0.248256
0.0157733
0.0533599
0.0862866
-0.0328564
0.00419189
-0.305901
-0.00995904
-0.29169
0.00180011
-0.216127
-0.0551595
0.167945
-0.107638
-0.0109546
0.325938
0.0283416
0.00259943
-0.0608399
-0.0730721
-0.233045
-0.00343299
0.0614906
0.0170861
-0.0534808
-0.0232159
0.224193
-0.0344358
-0.0418226
-0.00271638
-0.0379906
0.0938283
-0.285804
-0.332248
-0.362367
0.103706
-0.00363967
0.0115303
-0.0406292
-0.0851544
0.00539483
-0.0136553
-0.141268
-0.163894
-0.0371931
-0.115737
0.100481
-0.0161889
-0.210288
-0.0354065
0.0128486
-0.397822
-0.00307999
-0.171173
0.192467
0.469321
-0.00812043
-0.205379
-0.422809
0.111798
-0.425113
-0.236031
-0.0727341
-0.0591808
-0.24755
-0.0157273
-0.379451
0.0378286
-0.101883
-0.0368344
0.0306537
0.00111963
0.0123736
-0.429086
-0.126838
0.0339339
-0.0806764
-0.101008
-0.00738402
-0.171018
-0.0867881
-0.0942793
-0.172932
0.0429494
-0.365189
-0.0990739
-0.0400016
-0.00281799
-0.0223571
0.332189
-0.420645
-0.0535778
-0.250266
0.0618953
-0.118344
0.331043
0.010981
-0.027979
0.0019517
0.0125524
-0.0299785
-0.0678113
-0.426311
0.0537708
0.0176621
-0.402311
0.0232972
-0.0591807
0.0089128
0.505952
-0.0686028
-0.366755
0.0263691
0.0147717
-0.0244033
-0.127603
-0.0955449
0.0693296
0.00242984
-0.0341873
-0.0514689
-0.149682
0.00748145
0.116418
-0.264848
0.0559939
0.0112449
-0.222565
-0.224031
0.0201425
-0.0061324
-0.290629
0.0413369
0.249139
-0.044414
0.0426011
0.114884
0.0768279
-0.00575043
0.0463946
-0.0638282
0.189299
-0.0892923
-0.426228
0.012196
0.0128063
-0.0267232
-0.0327236
0.100747
0.0622238
0.0484162
-0.0286091
-0.0561319
-0.00822682
-0.182636
-0.00285803
0.0278095
-0.0650003
0.0338045
-0.101524
-0.00438808
-0.0495475
0.295678
-0.333597
0.212298
0.000664055
0.00323509
-0.20087
0.015123
-0.202097
-0.0157117
0.0588913
-0.108016
0.0128729
0.100123
-0.248114
-0.0845859
-0.29138
-0.00347343
0.0284072
0.476024
-0.425328
-0.00646057
0.0186394
-0.0979172
-0.397568
-0.0174135
0.39329
-0.10951
0.00274697
-0.13033
0.115268
0.0444948
0.0132112
0.0276427
0.0376342
-0.12008
0.00346604
-0.0728302
0.00467744
0.491184
-0.0554383
0.337039
-0.0778631
-0.125372
-0.0262439
-0.317138
-0.0700301
-0.414334
0.0861706
-0.00492581
0.0243278
-0.0177283
-0.320093
0.161917
-0.315233
-0.268658
0.0551827
-0.0807416
0.263614
-0.0336127
0.00175078
-0.0214621
-0.405504
0.35192
-0.0466118
0.0422299
-0.00303115
-0.0685979
0.123438
-0.0695567
0.0598883
0.038111
0.0145509
-0.00347286
-0.382819
-0.0961821
-0.10423
-0.0252607
-0.021234
0.0165345
-0.404612
-0.0364479
0.188064
-0.111435
-0.00771715
-0.0796609
0.25409
0.0273678
0.0117831
-0.119422
-0.040981
-0.286508
-0.00652592
-0.364715
0.0428864
0.276289
0.00911075
0.370679
-0.397565
-0.421974
-0.129587
-0.412692
-0.289915
0.135189
-0.079095
-0.00105697
0.481296
0.0531423
-0.00382184
0.00534208
-0.0265789
-0.138795
0.0469442
0.243112
0.0998813
-0.00788901
-0.0266505
-0.0302841
0.0275743
0.0408025
0.00189495
0.00574838
0.0425732
-0.151332
-0.0260783
0.0473288
-0.0437722
0.209527
0.0852064
-0.172583
0.0525024
-0.170773
-0.0809274
-0.0684098
-0.067386
0.285959
0.0646215
-0.00502182
-0.408382
-0.136435
0.0165545
-0.133919
0.0391878
0.282174
0.0515448
-0.0953152
-0.0571798
-0.0931306
-0.101079
0.0162719
7.10326e-06
-0.428325
-0.13112
0.00731544
0.0401709
-0.0507985
0.0197069
-0.274197
-0.00267232
-0.0535717
0.00304454
0.0350277
-0.0872461
-0.368194
-0.107278
0.0223896
0.010263
-0.132367
0.12972