/*--------------------------------*- C++ -*----------------------------------*\
| =========                 |                                                 |
| \\      /  F ield         | OpenFOAM: The Open Source CFD Toolbox           |
|  \\    /   O peration     | Version:  v2012                                 |
|   \\  /    A nd           | Website:  www.openfoam.com                      |
|    \\/     M anipulation  |                                                 |
\*---------------------------------------------------------------------------*/
FoamFile
{
    version     2.0;
    format      ascii;
    class       surfaceScalarField;
    location    "100";
    object      phi;
}
// * * * * * * * * * * * * * * * * * * * * * * * * * * * * * * * * * * * * * //

dimensions      [0 3 -1 0 0 0 0];
oriented        oriented;


internalField   nonuniform List<scalar> 
41211
(
-0.0760986
-0.0979475
0.174046
0.14118
0.275486
-0.164852
0.0959355
0.0689169
-0.21208
0.143461
0.0686187
0.0934191
-0.228575
0.135156
-0.0664845
-0.00786641
0.0743509
0.258995
-0.165576
-0.0570143
0.113332
-0.0563178
0.108836
0.182618
-0.291454
-0.0518829
0.0827443
-0.0308614
0.0427659
-0.00931433
-0.0334516
-0.000564771
0.0236106
-0.0230458
0.02657
0.0870914
-0.113661
0.00498598
-0.0340052
0.0290192
-0.0177727
0.0107592
0.00701347
-0.00590236
0.00637152
-0.000469155
-0.000344774
0.00129371
-0.000948937
0.315855
-0.207018
0.0369045
0.00586136
0.000950528
0.0426216
-0.0338646
-0.00875693
-0.00997378
-0.00779894
0.228412
-0.373863
0.14545
0.119704
-0.0383197
-0.0813841
0.0499375
0.0253937
-0.0753312
0.107725
-0.0403161
-0.0674093
0.392332
-0.236987
-0.155345
-0.143423
0.159397
-0.0159743
-0.523606
0.310975
0.212631
-0.0087805
0.0025503
0.0062302
0.0924699
0.0272339
-0.0672799
0.114466
-0.0471865
-0.167508
0.0914092
-0.384546
0.290752
0.0937942
-0.26601
-0.0711516
0.337161
0.0105836
-0.0105836
0.000387893
-0.0106928
-0.342229
0.218195
0.124034
0.323177
-0.213812
-0.109365
-2.19557e-05
-0.00718682
0.0265128
-0.0270775
0.14701
-0.41302
-0.208932
0.149722
0.0592101
0.48
-0.300096
-0.179904
-0.100214
-0.0156292
0.115843
0.00281163
-0.00245723
0.166384
0.142144
-0.308528
-0.000611466
-0.00511654
0.00572801
0.00995678
-0.00995678
-0.0297179
0.0150037
0.0147143
-0.00629478
0.01877
-0.0124752
0.0498051
0.0579203
0.00333001
0.00248549
-0.0058155
-0.034479
0.00605533
0.0284237
0.12558
0.12376
-0.24934
0.246573
-0.446885
0.200312
-0.0892076
0.0871234
0.00208414
0.17328
0.107828
-0.281108
0.0776023
-0.130366
0.0527636
-0.105602
0.044322
0.0612796
-0.00742488
0.00950881
-0.130573
0.0166993
0.113874
-0.00689062
-0.113134
0.120024
0.357259
-0.377017
0.0197578
0.409519
-0.144978
-0.264541
-0.289556
0.0958782
0.193678
-0.0574706
0.0335326
0.023938
-0.0809301
-0.00827752
-0.084567
-0.0210346
0.132481
0.1042
-0.236681
0.16734
0.31266
0.00942872
0.00505372
-0.0144824
0.0213436
-0.0170848
-0.00425876
0.099638
-0.0516753
-0.0479628
0.00518353
0.108967
-0.114151
-0.22662
0.0751551
0.151465
-0.0369765
-0.0204941
0.0116619
-0.00235496
-0.00930695
0.0049697
-0.00529291
-0.00711844
0.00711844
-0.282145
-0.241461
0.172743
0.186585
-0.359328
-0.088298
0.0507878
0.0375102
-0.190114
0.09572
0.0943941
-0.13704
0.237177
-0.100137
-0.144188
0.162539
-0.0183508
-0.179271
0.411345
-0.232074
-0.00283558
0.0109756
-0.00814002
-0.0115569
0.000652649
-0.241064
0.154382
0.0866822
-0.276752
0.00808358
0.268669
-0.0048569
0.00550501
0.139862
-0.312981
0.173119
-0.0087805
-0.0187352
0.0121522
0.00658298
0.0583321
-0.14685
0.0885184
-0.156276
0.32902
0.171401
-0.104779
-0.0666223
0.163409
0.112023
-0.275432
-0.036649
0.0702461
-0.0335971
0.190236
0.132941
0.305539
-0.210742
-0.0947972
-0.0208892
0.0384755
-0.0175863
0.00127934
-0.00870422
0.0156304
0.00571318
0.114596
-0.121487
0.157125
-0.25185
0.0947248
0.109423
0.261604
-0.136024
0.014512
-0.114726
0.000659869
-0.00656223
-0.308413
0.0316607
-0.240768
-0.143778
0.141894
0.137667
-0.279562
-0.072025
0.22915
0.0121729
0.355778
-0.367951
0.121354
-0.145333
0.0239786
-0.0289074
-0.0202531
0.0491605
-0.00403484
-0.000969249
0.00500409
-0.0398552
0.0897927
-0.00152692
0.00219589
0.113721
-0.0693989
-0.00190888
-0.00116896
0.00307784
-0.0403364
0.0114289
0.021552
-0.0142492
-0.00730278
-0.0163974
0.0492548
-0.0328574
0.113963
-0.199807
0.0858437
-0.222985
0.111297
0.111688
0.0035554
0.00422941
-0.0077848
-0.212719
0.3767
-0.163981
0.0299615
-0.0966673
0.0667057
-0.116562
0.00435512
0.112207
-0.18597
0.192645
-0.00667537
-0.00831687
0.00904945
-0.000732589
-0.00254526
0.000269804
0.00227545
-0.0915888
0.207202
-0.115613
0.0157573
0.0322565
-0.0480138
-0.0228761
0.0278621
0.199482
0.104601
-0.304082
-0.0785549
-0.107415
-0.000542
-0.0334632
0.0223998
-0.0742826
-0.0910918
0.0389769
0.0521149
0.0429131
-0.094297
0.0513838
-0.18676
-0.15547
0.014687
-0.00645614
-0.00823088
-0.0982004
0.0274409
0.0707595
0.0573987
-0.145219
0.0878198
-0.270688
0.266682
0.00400657
-0.077068
0.0404191
-0.111864
0.0670304
0.0448333
-0.0800156
0.0561718
0.0238438
-0.123263
-0.0856692
0.00141209
-0.00248964
0.00107755
0.247469
-0.455129
0.20766
-0.00384913
0.00532025
-0.00147113
-0.252035
0.160447
-0.0556382
0.11397
0.0528135
-0.252695
0.199881
-0.379806
0.0218466
0.357959
0.369432
-0.179075
-0.110481
0.0130894
-0.0179678
0.00487841
-0.200211
-0.15097
0.351181
0.254526
-0.438538
0.184011
-0.216136
-0.198085
0.414221
0.0123299
-0.020955
0.00862513
-0.312325
0.11211
0.200216
0.137636
-0.216191
0.105012
0.0778978
-0.18291
-0.0884118
0.0270389
0.0613729
-0.00343051
0.00220605
0.00122446
0.000740627
-0.00130163
0.000561006
-0.0621962
0.0317685
0.0304278
0.34668
-0.193323
-0.153357
-0.0320339
0.0854418
-0.0534079
-0.00112462
-0.00599383
0.0200315
-0.0438213
0.0237898
-0.0238286
0.379607
-0.127653
-0.124197
-0.0315383
0.0628093
-0.031271
0.0246127
-0.0135353
-0.0110775
0.0104013
-0.0102907
-0.000110615
0.0160263
0.0184751
-0.0345014
0.380637
-0.201495
-0.179142
0.00867945
-0.0270541
0.0183746
-0.00213706
0.00662451
-0.00448745
0.030929
-0.0123434
-0.0185855
0.0384301
-0.0759931
0.037563
-0.00294277
0.00193508
0.00100769
-0.0127102
0.00822599
0.00448422
0.230735
0.185931
-0.0733186
0.144644
-0.0713252
-0.0928831
0.0458441
0.047039
-0.195156
0.339139
-0.143983
-0.0675026
-0.012513
-0.00384913
-0.031345
0.038446
-0.007101
-0.0518241
-0.041059
0.0399205
0.0134873
-0.0534077
0.0308856
-0.0786145
0.0477289
0.00548264
-0.385288
0.0765503
0.0945418
-0.171092
-0.0221881
0.143542
-0.00706999
-0.00564023
0.115366
-0.0154395
-0.0999268
-0.253101
-0.0592242
-0.205696
0.287107
-0.0814118
0.00763824
-0.00137583
-0.00626242
0.166519
0.102559
-0.269078
-0.00265138
-0.268037
0.0203594
-0.048024
0.0276646
-0.120645
-0.0914356
0.00894614
0.000398988
-0.00934512
0.300754
-0.247941
0.209062
0.18327
0.104967
-0.075006
-0.174307
0.0430977
0.131209
-0.192849
-0.0861119
0.278961
-0.191417
0.422153
-0.00640532
-0.14285
0.281265
-0.138415
0.156881
-0.235378
0.0784973
-0.0469537
0.0846256
-0.0376719
0.0729292
-0.165818
0.092889
-0.0916472
0.0226104
0.0690368
-0.179682
-0.00190259
0.181585
0.140184
-0.0827854
0.147675
0.170047
-0.317722
0.186554
-0.113625
0.121946
0.157089
-0.279035
0.0129074
-0.120662
0.107755
0.0763245
-0.0769783
0.000653877
0.199606
-0.36768
0.168074
0.225249
-0.00866488
0.00967467
-0.00100979
-0.0192035
0.0349608
-0.0679465
0.0528017
0.0151448
0.20941
-0.0954464
-0.0185965
0.0300757
-0.0114793
0.000263816
0.000221282
-0.000485098
-0.00157932
0.00653063
-0.00495131
0.015614
0.00899868
-0.0136569
0.0150905
-0.00143363
0.0452352
-0.0416861
-0.00354909
-0.230756
0.128268
0.102488
-0.386288
0.243572
0.142716
0.00429176
-0.00490323
0.127942
0.354416
-0.107843
0.0704049
-0.0879669
0.017562
0.396793
-0.14809
-0.248703
-0.054005
-0.0134099
0.0674149
0.185824
-0.038468
-0.147356
-0.0084055
0.00556992
0.0158051
-0.0140944
-0.00171066
0.190981
-0.0879077
-0.103073
0.0765206
-0.0821576
0.00563695
-0.108723
-0.116115
0.224838
-0.102492
0.107675
0.208735
0.188831
-0.397566
0.000110752
0.00395966
-0.00407041
0.00211103
-0.00614587
-0.0457939
0.0842241
0.127057
0.117532
-0.244589
-0.301558
0.194839
0.106719
-0.0653741
0.170658
-0.00950841
0.0181879
0.00214818
-0.102274
0.0349936
0.00211859
0.00730723
-0.00942582
-0.0845705
-0.0707625
0.155333
0.0365145
0.00872072
-0.208325
0.37812
-0.169795
0.301646
0.0951475
0.346616
-0.127684
0.0111224
-0.32331
0.0244422
0.298867
-0.0708676
0.235667
-0.164799
0.0123637
0.00272687
0.187698
-0.103454
-0.0842449
-0.118564
0.106249
0.0123148
0.0450227
0.008376
-0.0533987
0.0583692
0.0412688
-0.00311822
0.000981153
-0.187265
0.213037
-0.0257719
-0.027722
0.0477536
-0.205511
-0.133677
0.339188
-0.0607631
0.0922717
-0.0315086
0.00364033
-0.00222825
0.0337116
-0.075638
0.0419263
-0.00771283
0.000105784
0.00760705
-0.00567248
0.00296138
0.0027111
-0.0273617
0.104964
0.326399
-0.178724
0.273011
-0.124596
-0.148416
0.119873
0.0678259
-0.00254526
-0.00174128
0.00492212
0.0567065
-0.0089167
-0.0886224
-0.0109591
0.0995815
-0.0284959
0.0167027
0.0117933
-0.037926
-0.0060082
0.0439342
0.000520156
0.00154318
-0.00206333
0.0344694
-0.357779
0.0524443
0.0451631
-0.0976074
-0.0990268
0.231508
0.000754427
0.000377736
-0.00113216
-0.321533
0.0973602
0.224173
-0.0159787
0.0259651
-0.00998637
0.0936805
-0.0797384
-0.013942
-0.0058249
0.00626056
-0.000435654
0.298617
-0.125337
-0.00201607
0.0109622
0.0146722
-0.0111168
-0.040967
0.101894
-0.0609272
0.248481
-0.476043
0.227562
-0.02274
-0.120683
0.00911062
3.12461e-05
-0.00914187
-0.238353
-0.08318
-0.122004
0.120637
0.00136678
-0.0328558
0.0999362
-0.0670803
-0.0206541
-0.00784189
-0.00413834
0.000135772
0.00400257
0.305081
-0.165219
-0.0428705
-0.0454275
-0.00329692
0.0469408
-0.0436439
-0.00560362
0.0455241
-0.156541
0.365275
0.0354605
-0.0194342
0.160073
0.195513
-0.355586
-0.354911
0.360394
-0.0865869
0.053731
-0.0615043
0.029966
0.00893834
-0.188621
-0.294618
0.168619
0.125999
-0.126869
-0.114195
0.0301428
0.0635377
-0.186482
-0.0401378
0.122818
-0.265036
0.142218
0.0444638
0.0342895
-0.0787534
-0.122709
0.237105
-0.114396
0.0770455
-0.0433339
0.00117959
0.00457194
-0.00575152
0.00149637
0.00908728
-0.16103
-0.0102801
0.17131
0.297537
-0.165594
-0.131943
-0.0959521
-0.134804
-0.198779
0.354282
-0.155502
0.0160252
-0.0255336
-0.00169678
-0.0253573
-0.199987
0.369845
-0.169858
0.0812525
-0.00473186
-0.139146
-0.0947774
0.233923
-0.123298
0.289817
-0.0398235
0.144835
-0.0850634
0.238311
-0.153248
-0.00054151
0.0010502
-0.361447
0.409509
-0.048062
-0.0219199
-0.0697273
-0.0502272
0.0870326
-0.0368054
-0.0129985
0.00670369
-0.222765
-0.144918
0.367683
0.124809
-0.265672
0.140864
0.299458
-0.174649
0.00432008
-0.0058994
-0.393418
0.187907
0.0534099
-0.0602312
0.00682136
0.168229
0.15817
0.00226321
0.0740613
0.0299561
0.06092
-0.0908762
-0.00904476
0.00072789
0.0879392
-0.210129
0.12219
0.0441233
0.141701
0.182783
0.0424829
-0.225266
0.0818871
-0.0510014
-0.151418
-0.148895
0.300313
0.0228076
-0.0742226
0.051415
-0.124392
0.108621
0.0157716
-0.0131013
-0.0850991
0.0767546
-0.431666
-0.0298069
0.186688
0.415384
-0.190134
-0.158295
-0.0970879
0.255383
0.0083377
-0.00240862
0.0534135
-0.0181236
-0.0352899
-0.0421213
-0.0634484
0.10557
0.000617899
0.0085795
-0.0091974
-0.0231319
-0.000334963
0.0234668
0.3218
-0.181896
-0.139904
0.0761811
-0.0464899
-0.0296912
-0.126744
-0.063542
0.190286
-0.098638
0.257486
-0.158848
-0.0428302
-0.0251163
-0.212092
0.123738
0.0883549
0.334799
0.0599693
-0.394768
0.0188398
-0.0124507
-0.00638903
0.01306
-0.0795445
-0.00686254
-0.00182747
0.00869002
-0.102707
0.112692
-0.00998472
0.00971383
-0.023448
0.0137342
0.225211
-0.438484
0.213274
-0.377734
0.222348
0.155386
-0.0975555
0.0131106
0.0844448
-0.00678228
0.00095738
-0.254333
0.288803
0.0642392
0.0606789
-0.124918
-0.062806
0.11525
0.117797
-0.223062
0.105265
-0.250896
0.180028
0.112286
0.00480128
-0.117087
0.0389789
-0.0570878
0.0181089
-0.00532458
0.0382488
-0.0658924
0.0276437
-0.00711289
0.0892363
0.212409
0.0160716
-0.00298227
0.187892
0.117647
0.0413305
0.0414139
-0.0575831
-0.106099
0.163682
0.00550821
-0.00432862
0.172508
0.244159
0.116145
0.0520239
-0.159157
0.107133
0.150246
-0.260574
0.110329
-0.0737961
-0.0380676
0.104667
0.217133
0.0771786
-0.270028
0.0041133
0.0381309
-0.0422442
-0.035381
0.234863
-0.240231
0.142657
0.097574
-0.0919407
0.0449869
0.0312295
-0.0602104
0.0289809
-0.0129488
0.122242
-0.109293
0.00533976
-0.00753491
0.00219515
0.0374446
0.0758875
0.00833599
-0.0307819
0.0224459
-0.0232099
0.0936148
-0.256291
0.157653
0.0771937
0.00890863
-0.0861023
-0.00136305
-0.00206746
-0.091482
-0.106145
0.197627
-0.286861
0.135443
0.1329
-0.0206137
-0.192966
0.00570043
0.0555495
0.000716289
-0.0562658
-0.234573
0.00799043
0.226583
0.26384
0.349121
-0.259885
-0.00159342
0.00606673
-0.00447331
-0.0130153
-0.019741
-0.214832
-0.260573
0.357831
-0.0972583
0.0328555
-0.0231417
0.287802
0.0932377
-0.38104
0.0609005
-0.0466815
-0.014219
0.356646
-0.235001
0.0979613
0.0729531
-0.233983
-0.0720923
0.0068304
0.0652619
-0.139102
0.236729
-0.0976271
0.346552
-0.178323
0.0438801
-0.00297583
-0.0409043
-0.129935
-0.161256
0.291192
-0.126551
0.00517132
0.121379
-0.00337511
0.00240586
0.0255203
0.0312278
0.293781
-0.325009
-0.00357787
-0.0178186
0.0628412
-0.0244959
0.0328319
0.000787675
0.000560952
-0.0308825
0.0303215
-0.0814499
-0.108664
-0.122524
0.0660492
0.0564743
0.367302
-0.39113
-0.0198258
0.0604375
-0.0406118
0.112877
-0.36721
-0.0722535
0.0493174
0.0229361
0.260746
-0.102343
-0.158403
-0.181972
0.124389
-0.00991393
0.00184835
0.00806558
0.0120707
0.00261889
-0.0146896
0.133838
-0.394411
-0.241636
0.113983
0.0146875
0.040862
-0.02664
-0.147667
-0.0721088
0.254892
0.12687
-0.25486
0.12799
0.00943781
-0.370884
-0.111087
0.0708962
0.0401907
-0.0576378
-0.101
0.158638
0.00405325
-0.0226497
0.0306644
-0.0602372
0.0295728
0.225325
-0.41655
0.191224
-0.0858341
0.04619
0.0396441
-0.0026863
-0.00726201
0.00994831
0.101301
-0.037062
0.0985473
0.149319
-0.247867
0.205984
-0.428748
-0.404377
0.225106
0.0650367
-0.0501184
-0.0149183
-0.0831188
0.0510849
0.0753099
-0.118462
0.0431522
-0.00148717
0.0105978
0.0202937
0.0185656
-0.0388593
-0.045211
-0.17497
0.220181
0.00750992
-0.00910333
-0.186745
-0.130666
0.31741
0.00571432
-0.037679
0.0319646
0.10632
-0.0797504
0.280124
-0.153254
-0.00646473
0.118758
-0.112293
0.298054
-0.201182
-0.0968728
-0.105189
0.000763467
-0.00592872
0.00788115
-0.00748216
-0.0781544
0.0983027
-0.0201483
0.00229843
0.0063868
-0.00868524
0.0125391
0.0209518
-0.0334909
-0.0531855
-0.245638
0.276866
0.101743
-0.347381
-0.00978902
0.0153008
-0.00551177
0.0201965
-0.0753882
0.0551917
-0.155632
-0.258838
0.41447
0.014196
0.0983134
-0.112509
0.0978528
0.0263943
-0.124247
0.00922978
-0.00922978
0.0713562
-0.122377
0.0510211
-0.00255106
0.000642185
-0.115299
0.0371442
0.0996776
-0.2084
-0.0272076
0.0277685
-0.212263
0.167052
-0.143627
-0.152227
0.295854
0.120313
0.00419627
-0.124509
0.0547249
-0.0423695
-0.0123555
0.344267
-0.157682
-0.00144253
-0.120348
-0.00404413
0.0117762
-0.0175167
0.0057405
-0.0480606
0.0316632
0.0020858
-0.00246098
0.000375178
0.0512892
-0.264008
0.00768172
0.2861
-0.00954884
0.117113
-0.00174716
0.166682
0.149672
-0.316354
-0.10257
0.106072
-0.00350176
-0.100666
-0.111426
-0.276264
0.246758
0.0295056
0.275356
-0.089444
-0.185912
-0.00555259
0.00629933
-0.000746743
0.0984136
-0.116419
0.0180053
0.00440449
-0.0764968
-0.0215489
0.0605278
-0.0191866
0.0160883
0.00309834
0.159104
0.138433
0.0135844
-0.00415572
0.0784657
-0.0582691
0.141965
-0.264151
0.122186
-0.0335523
0.0330103
0.00312792
-0.00261707
-0.236675
0.428754
-0.192078
-0.227741
0.153442
0.0742989
0.370466
-0.196899
-0.173567
0.0362313
-0.0159377
-0.162618
-0.0928538
0.255471
0.406515
-0.0392131
0.304757
-0.076345
-0.104912
0.231968
0.0634083
-0.00999839
-0.0942024
-0.219173
0.313375
0.00889616
-0.00677756
-0.139686
0.0371321
0.102554
0.277793
-0.121006
-0.156787
0.0561854
-0.0983067
0.104751
-0.00633756
0.000761626
0.00155244
-0.00231406
0.000856601
-0.000102174
0.00718235
-0.00647557
0.129881
-0.268984
-0.148346
0.371823
-0.223478
-0.172194
0.39752
0.00286379
-0.00486434
0.00200055
-0.199573
-0.198219
0.397792
-0.00015614
0.000676295
-0.0592614
0.0723214
-0.0320555
0.0652971
-0.0332416
0.0104083
-0.00145424
-0.00895403
-0.00916149
0.00921696
-5.54692e-05
-0.217194
0.0800414
0.137152
-0.119419
-0.135159
0.254578
0.00582984
-0.00765731
0.104013
-0.0747352
-0.0292776
-0.200369
0.380926
-0.180557
-0.394685
0.011046
0.383639
-0.04391
0.0159457
0.0279643
-0.0218308
-0.0491754
0.0710062
-0.00202899
0.0459091
-0.011709
0.00576471
0.00594431
-0.0343691
0.0110597
-0.111294
-0.0583018
0.169595
0.00976004
0.0107538
-0.0205139
0.00763824
0.430865
-0.429437
-0.00142823
0.000569361
-0.00476727
0.00419791
-0.00258859
0.0146593
0.00499735
-0.103762
0.0987645
0.00918654
-0.0183293
0.0401012
-0.0217719
0.0234733
0.0968396
-0.000355015
-0.0680918
0.0684468
0.138073
-0.275132
0.137059
0.0507798
-0.00536072
-0.045419
-0.16385
-0.159524
0.323373
0.196189
-0.136944
-0.0592454
-0.0219653
-0.0531078
0.075073
-0.0632543
0.0204241
-0.0335738
0.0642383
0.0729464
0.0310664
0.00139646
0.00150858
-0.00290504
0.1119
-0.203382
-0.00958559
0.00782863
-0.202541
-0.209161
0.411703
0.0814074
-0.17584
0.094433
0.119397
-0.0049315
-0.0271756
0.0321071
-0.316379
0.190421
0.125958
-0.0377116
-0.0345419
0.356857
-0.108377
-0.110131
-0.01642
0.0352894
-0.0673449
0.15022
0.19646
-0.279001
0.15591
0.123091
-0.0888232
-0.047143
0.135966
-0.0016178
0.0266563
-0.0250385
-0.125087
0.014817
0.11027
0.0533489
-0.0779499
0.024601
-0.16866
0.0612155
0.107444
0.0357049
-0.0231658
0.067018
-0.0287692
0.0515904
0.0245907
-0.0239307
-0.252333
-0.0208208
0.0705566
-0.0497357
-0.0457695
0.0902333
-0.000214307
0.00368102
-0.00346671
-0.0328823
-0.135778
-0.331858
0.175582
-0.00741039
0.0850927
-0.104075
0.0189824
0.182012
0.0895212
-0.271533
-0.0087588
0.0185188
-0.223526
-0.178447
0.401973
0.0232111
0.0109646
-0.0341757
0.0422628
-0.0365485
-0.419644
0.219046
0.200598
0.298558
-0.160485
0.0556982
0.014682
-0.0703802
0.0417413
-0.0615671
0.156175
-0.137243
-0.0189325
0.179692
-0.0821814
-0.0975101
0.00466244
0.00699947
0.191858
-0.187657
0.106207
-0.0101438
0.00992641
0.115925
-0.149222
0.0332971
-0.102424
0.0614569
0.234213
0.0638419
0.312588
-0.18628
-0.126307
-0.322602
0.200394
0.122209
-0.00115488
0.00219436
-0.00103948
-0.0885683
0.164759
-0.0761904
0.272563
0.117
-0.389563
0.00543433
-0.000464629
0.253199
0.0743099
-0.327509
0.0382052
-0.183051
-0.00265841
0.00342004
-0.183619
-0.18406
-0.0276353
0.0116566
0.135123
-0.00761544
-0.127507
0.0931224
0.182234
-0.149595
0.0762768
-0.175968
0.371187
-0.195219
-0.0105226
0.0114583
-0.000935711
-0.00326704
-0.004152
0.00741904
0.0223662
0.0385343
-0.306149
-0.00851951
-0.00318952
-0.00746265
-0.00172369
0.00918634
-0.389313
0.213345
-0.000331097
-0.00451281
0.00484391
0.114431
-0.0628771
-0.0515536
-0.410195
0.0301101
0.380084
-0.353782
0.153571
-0.103213
-0.137018
0.113315
0.0428599
0.00921049
-0.00114264
-0.00806786
0.367804
-0.219544
-0.14826
-0.162514
-0.257129
-0.03134
-0.0319143
-0.05934
0.0353619
0.0239781
0.347772
0.0109264
-0.00973082
-0.00119554
0.00682576
-0.00471474
9.40018e-05
0.00520639
-0.00530039
0.126313
0.186275
0.209096
-0.121157
0.356461
-0.21528
-0.0695314
0.165251
-0.043177
0.100434
-0.0572569
-0.186741
-0.199546
0.0808936
-0.146546
0.0656524
0.00648881
-0.416683
-0.123938
-0.0991237
0.0734887
-0.163708
0.0902197
-0.0502523
0.0354942
0.0147582
0.0639573
-0.0385637
0.0381759
0.0379995
-0.0761755
0.0132621
0.086667
-0.099929
0.047887
-0.0687078
0.0863037
0.0850974
-0.142855
-0.236443
-0.0165943
0.253037
-0.122926
-0.12234
0.245265
0.0372626
-0.0613809
0.0241184
0.0190222
0.0317576
-0.0493601
0.0310307
-0.00199197
0.00177767
-0.00136884
0.0019382
0.167435
-0.0125718
0.00278283
0.194969
0.0512497
-0.246219
0.18936
0.176539
-0.365899
0.0182391
-0.00649617
-0.011743
-0.161966
0.334787
-0.172821
0.0102398
-0.0102398
0.0789262
-0.0455593
-0.0333669
0.0112122
-0.0112122
-0.00636372
0.00902179
-0.00265807
0.00344948
-0.00456594
0.00111646
0.19694
0.0535535
-0.250494
0.0390425
-0.0115777
-0.00593901
-0.120061
-0.024127
0.00686313
-0.00103329
0.0368594
-0.00585042
-0.031009
-0.0473545
-0.233641
0.280996
-0.0249756
0.0237527
0.00122287
-0.0829516
0.246361
0.00347056
-0.0107326
0.00260175
-0.129222
-0.087972
0.144526
-0.309566
0.16504
0.017212
0.00875307
0.156726
0.191709
-0.348435
-0.223669
0.156428
0.0672409
-0.0309414
-0.0312548
0.0797966
-0.0384661
-0.00179069
0.00553966
-0.00374897
0.0522944
-0.0210649
-0.0297109
0.226651
0.0831718
0.113017
-0.0909576
-0.0607552
0.00764812
0.0531071
-0.251724
0.0152809
-0.00445628
0.0152908
-0.0108345
0.140869
-0.00574599
0.124835
-0.247543
-0.0104791
0.00301641
-0.00859237
0.00657629
-0.0967247
0.0636274
0.0330974
-0.15625
0.0676814
-0.161196
-0.117804
0.281841
-0.0673189
-0.214522
-0.0320038
-0.0387602
0.070764
-0.0931361
-0.0254278
-0.0122136
0.129637
-0.117423
-0.0381748
-0.0438646
0.0820394
0.010585
-0.0150413
0.0187598
0.0476842
-0.066444
0.210778
0.205888
0.297082
-0.130698
-0.0995091
-0.00306064
-0.25682
-0.00617767
-0.0145553
0.0207329
-0.0326792
-0.0470592
0.030929
-0.0846093
-0.0802431
0.0112679
-0.302563
0.229598
0.0729653
0.0124677
-0.0200753
0.00760758
0.0205987
-0.109221
0.0031908
-0.00032701
-0.029373
0.0734622
-0.0440892
-0.00254417
-0.00679482
0.00933899
-0.133487
0.00291347
0.141684
-0.125169
-0.0165151
0.00899935
-0.00670092
-0.124979
0.197932
-0.0245834
0.0229656
-0.0775685
0.0455647
0.15201
-0.0711169
-0.11548
0.065319
0.0501614
-0.110545
0.0975958
-0.00109177
0.000760676
0.106723
-0.0915973
-0.0151258
-0.381655
0.182082
0.000617979
0.000294555
-0.000912534
0.35638
-0.0838172
0.304775
-0.157857
-0.146917
-0.0760945
0.0153313
0.00166956
0.00756022
-0.0724042
0.0505734
-0.00873151
0.00174802
0.00698349
-0.0456302
0.143483
0.488095
-0.256384
-0.231711
-0.00499377
0.0132086
-0.00821488
-0.101323
0.049499
-0.199039
-0.197413
0.396452
-0.0429541
-0.00729826
0.0616739
-0.109241
0.0475669
-0.00129908
0.00269554
0.14428
0.157063
-0.0411384
0.110953
-0.105955
-0.190633
-0.11193
0.0694064
-0.0305826
-0.0388238
-0.0954951
0.290464
0.064016
0.0274598
-0.0914758
-0.00781651
0.00784775
0.0112088
-0.013384
0.00217524
-0.118351
0.111886
0.0411835
0.210125
-0.0796527
-0.130472
-0.353907
0.19194
-0.142425
0.280875
-0.13845
-0.0571186
0.0751435
-0.0180249
-0.0490036
-0.0523195
0.0294447
-0.178369
0.148924
-0.0844491
0.276518
-0.192069
-0.00982433
0.0851342
-0.103424
-0.0324171
0.135842
0.0141188
0.0046512
0.0757877
0.001406
-0.0664139
0.0391517
0.0272622
-0.0273615
0.00422961
-0.00117978
-0.0119808
0.0131605
0.0976516
0.0889025
0.0182501
-0.00578244
0.00530782
-0.116856
0.129763
0.00673354
-0.00822071
0.25919
0.121062
-0.133276
0.0338238
-0.391057
0.222701
0.168356
0.0286641
-0.0465844
0.0179203
-0.0391058
-0.000990496
0.00206665
-0.00107615
0.0724485
-0.0998102
-0.00223271
-0.00286028
0.00509299
0.050582
-0.143682
0.0931004
0.0152735
-0.0446676
0.0293941
0.168866
-0.405541
-0.00554177
-1.08157e-05
-0.0297026
0.119665
-0.0899628
-0.00949712
0.0922797
-0.0790176
-0.295775
0.211326
0.0891719
-0.195317
0.177038
0.131808
-0.308846
0.0831941
-0.0645489
-0.0186452
0.0377696
0.0398632
-0.0776328
-0.114575
0.0140144
0.10056
-0.084767
0.0520878
0.0241339
0.147482
-0.0969005
0.0250543
-0.0752815
-0.0492867
0.0873795
-0.0380928
0.0606691
-0.0881709
0.0275019
0.0361064
0.0399555
-0.0760619
-0.0399366
-0.0825869
-0.0300193
-0.0545477
-0.00741287
0.0100193
-0.0026064
-0.0994786
0.256568
0.353418
-0.105948
0.0313589
0.0471068
-0.015712
0.0797279
-0.041717
-0.0198455
0.0615625
-0.0835023
0.0770204
0.0064819
0.214838
-0.387597
0.172759
-0.0348559
-0.0533702
0.0882261
-0.146448
0.257527
-0.111078
0.136897
-0.147001
0.0101041
0.0939361
0.391208
-0.136682
-0.386879
0.0633979
0.323481
0.0890145
-0.20728
0.118266
0.208636
0.196272
-0.404908
-0.143105
0.0383264
0.202239
-0.335725
0.133486
-0.0720029
-0.019089
0.00435411
-0.00762115
1.86343e-05
-0.00296141
0.227985
-0.216563
-0.0114214
-0.056435
-0.240785
0.29722
-0.00991393
0.11452
-0.253665
0.00343352
0.0816591
-0.314514
0.127769
-0.0197737
0.0754719
-0.121436
0.0199146
0.101521
0.000379068
-0.00121823
0.000839165
0.0363698
0.144534
0.100662
-0.199897
0.099235
-0.030754
0.0741468
-0.0433927
0.106547
-0.121427
0.0148793
-0.39428
0.238648
-0.0800176
0.0360615
0.0439561
0.486559
-0.211073
-0.0422927
-0.038168
0.0804608
0.209657
0.137487
-0.347144
-0.0858389
-0.13783
-0.00174982
-0.0102309
0.0805399
-0.066117
-0.0144229
0.198667
-0.329333
0.0333153
0.0445816
-0.0778969
-0.102448
0.0501162
0.0523314
-0.0703542
-0.0180575
0.0569514
0.0667701
-0.123722
0.0380957
-0.251908
-0.0103125
-0.12284
0.000835849
-0.00795621
0.00805021
0.140104
-0.25862
0.118516
0.0414326
0.023747
-0.0651796
-0.126498
0.246422
-0.119924
-0.062203
-0.324676
-0.125816
0.168914
-0.00221177
0.017691
0.0249305
0.0286728
0.0518671
0.0128046
-0.0102303
-0.0025743
-0.00832181
-0.000722941
-0.00736708
-0.00947835
0.0168454
0.340464
-0.141797
0.292993
-0.165316
-0.127677
-0.0754677
-0.012005
0.0874727
0.00723472
-0.00474922
-0.0113033
-0.098296
0.112492
-0.116161
-0.125969
0.24213
0.17938
0.134738
-0.314118
-0.00608842
0.0166735
0.0923187
0.0021267
-0.0944454
-0.0195909
-0.0253646
0.0449554
0.10236
0.033758
0.0285724
-0.0623304
-0.144687
-0.089126
0.0567569
0.032369
0.186085
0.184381
0.108283
-0.00173574
-0.0178946
0.0593272
0.204611
-0.352957
0.336327
-0.160062
-0.176264
0.0865288
-0.0551699
-0.0120175
0.153701
0.0954303
-0.0534537
0.203699
0.0475074
-0.100863
0.0533559
-0.00247219
0.0229948
-0.0205227
-0.103683
0.293919
0.0934052
-0.0458977
-0.046652
0.0611283
-0.0144763
-0.0163016
0.00893449
0.102776
-0.0728202
0.0540069
-0.0387334
0.00374056
0.00666077
0.156668
-0.0247992
-0.131869
-0.137572
0.24279
-0.105219
0.00262594
-0.0169343
0.0143083
-0.0361136
-0.0436088
0.0797224
0.189753
-0.160309
-0.00675547
0.00812437
-0.0013689
-0.00284931
0.00296006
0.0129339
-0.0118664
-0.00106751
0.0730248
-0.0369184
-0.0973388
0.0456635
0.0341989
0.0428466
-0.2924
0.235965
0.00825744
-0.00883084
0.000573392
-0.00112851
-0.0138348
0.0149634
0.080374
0.0686306
-0.149005
0.0241799
0.0568502
-0.0810301
-0.340556
0.153797
-0.223153
0.128375
0.0692754
-0.0980755
0.0288001
0.0889594
-0.213938
-0.0946492
0.195312
0.326657
0.0331131
-0.066259
0.0331459
0.336618
-0.111408
-0.255812
0.208457
0.0969291
0.128873
-0.225802
0.0778566
0.0840664
-0.161923
-0.00289334
-0.00626816
-0.190495
0.148505
0.0419902
0.0416381
0.0372881
-0.229596
0.444624
-0.215027
0.0374715
0.0230426
-0.0605142
-0.00871506
0.0791275
-0.0704124
-0.275871
0.133446
0.0670128
-0.048253
0.185029
0.151297
0.0836783
-0.0548893
-0.028789
0.00354824
-0.000828086
-0.00272015
-0.042534
0.000337012
4.20555e-05
0.0471974
-0.0853721
0.317801
-0.188158
-0.129643
0.128258
0.0627223
0.135932
0.0745569
-0.159127
-0.00675761
0.00164107
0.0540841
0.02911
-0.00101589
0.0122247
-0.416372
0.200236
0.396504
-0.223339
-0.173166
-0.0869307
0.192724
-0.105793
-0.0787859
0.0317187
0.0470672
0.210488
0.121411
-0.331899
0.214347
0.168131
-0.382478
-0.15381
0.0503851
0.378556
0.0267204
-0.405276
0.0316167
0.0390515
-0.0706682
0.00895823
-0.0447982
0.03584
0.0734477
-0.272227
-0.216032
-0.173281
-0.115451
0.260294
-0.144844
0.013145
-0.000211095
-0.0677413
0.11826
-0.050519
0.0615748
-0.283935
0.22236
0.0542094
0.0385232
-0.0927326
0.000739456
0.00921733
0.39009
0.00782295
-0.397913
0.316115
-0.108401
-0.207714
0.0208386
0.0182002
-0.0390388
-0.240208
0.301782
0.309487
-0.193219
-0.116268
0.0114782
-0.0707396
-0.190499
0.170149
0.0203495
-0.399081
0.415326
-0.0162451
0.319942
-0.419607
0.0996651
0.0710145
-0.0934663
0.0224518
0.40501
-0.140396
-0.264614
0.270468
0.23115
-0.260861
0.217656
0.128585
-0.346241
0.000589674
-0.000934448
-0.00720177
-0.282485
0.290167
0.0121654
0.0095485
-0.0217138
0.170681
-0.257995
0.0873133
3.22791e-06
-0.00122146
-0.0126316
0.180197
-0.0911132
-0.0890835
0.000362338
0.0011926
-0.00155494
9.79534e-05
-0.00899571
-0.176709
-0.0137901
-0.316778
0.180773
0.136005
-0.364096
0.155771
0.00366559
-0.00215701
0.0314512
-0.0243612
-0.00709004
-0.0344016
0.000537002
-0.0388921
-0.0799214
0.399863
-0.00521692
-0.0702508
-0.207399
0.0806558
-0.00126065
0.00406172
-0.00280107
-0.065856
0.1322
-0.0663441
0.00105761
0.00986875
0.20711
0.209557
-0.02098
-0.0060625
0.0270425
-0.00504419
7.90596e-05
0.00496513
-0.0290753
-0.0441378
0.0732131
-0.18743
-0.190304
0.0100887
0.00459828
-0.0136173
0.0669662
-0.103312
0.226892
-0.12358
-0.0489245
-0.0174895
-0.408812
0.322574
0.0862379
0.228873
0.146638
-0.375511
-0.0935644
-0.0848172
0.178382
-0.293037
0.163574
0.129463
0.123279
-0.049722
-0.0735571
-0.00132081
-0.00435167
-0.00887326
-0.00141746
0.22847
-0.397623
0.169153
0.100901
0.209275
-0.310175
-0.0188084
0.0552934
-0.036485
0.205571
-0.116557
0.119757
-0.0102009
-0.109556
-0.118002
0.273912
0.273955
0.0925373
-0.366492
-0.000302228
0.00550862
-0.169443
0.325332
-0.155889
-0.2394
0.1458
0.0935993
0.237304
-0.131202
-0.106102
0.001994
-0.00650681
0.0132511
0.124257
-0.137508
-0.240281
-0.0810554
0.321336
0.00597943
-0.0085236
0.383047
-0.173985
0.12794
-0.0320049
0.0858881
-0.0551188
-0.0307693
-0.118005
-0.0724896
-0.0886261
0.166483
-0.0018245
0.0774669
-0.0458502
-0.00386065
-0.00120547
0.00506612
0.0791584
-0.0549786
0.158709
-0.101758
-0.022657
-0.130797
0.153454
0.106957
-0.0538995
-0.0530576
2.68337e-05
0.00352141
-0.0697371
0.150111
-0.00560776
-0.00434902
0.0273827
0.037654
0.000522846
9.51332e-05
-0.0457207
-0.0498718
0.0955925
0.0346287
0.196521
-0.131321
0.0635793
0.0958977
-0.00686996
0.00748786
0.0167117
0.00484033
0.161336
-0.0701805
-0.091156
-0.0765645
0.0367093
0.191941
-0.377749
0.185808
0.00553597
-0.000199713
-0.00533625
0.0928551
0.234019
-0.326874
0.0394358
-0.321921
-0.00776357
0.0388717
-0.0421686
-0.00910061
0.0111436
-0.00204297
-0.143516
-0.128467
0.271983
-0.0656454
0.0245881
0.0410573
-0.0175475
0.016419
0.397336
-0.0358212
0.0742223
-0.038401
0.288474
0.0413533
0.225433
-0.370352
-0.084147
0.224669
-0.140522
-0.158498
0.10086
-0.0336806
0.0287491
-0.073661
-0.201472
-0.128726
0.00806367