/*--------------------------------*- C++ -*----------------------------------*\
| =========                 |                                                 |
| \\      /  F ield         | OpenFOAM: The Open Source CFD Toolbox           |
|  \\    /   O peration     | Version:  v2012                                 |
|   \\  /    A nd           | Website:  www.openfoam.com                      |
|    \\/     M anipulation  |                                                 |
\*---------------------------------------------------------------------------*/
FoamFile
{
    version     2.0;
    format      ascii;
    class       surfaceScalarField;
    location    "100";
    object      phi_0;
}
// * * * * * * * * * * * * * * * * * * * * * * * * * * * * * * * * * * * * * //

dimensions      [0 3 -1 0 0 0 0];
oriented        oriented;


internalField   nonuniform List<scalar> 
41211
(
-0.0760987
-0.097948
0.174047
0.14118
0.275486
-0.164853
0.0959361
0.0689166
-0.21208
0.14346
0.0686202
0.0934201
-0.228576
0.135156
-0.0664785
-0.00786811
0.0743466
0.258996
-0.165576
-0.0570149
0.113332
-0.0563168
0.108837
0.182618
-0.291455
-0.0518722
0.0827305
-0.0308583
0.0427574
-0.00930997
-0.0334474
-0.000564053
0.0236114
-0.0230474
0.0265705
0.0870918
-0.113662
0.00498755
-0.0340055
0.029018
-0.0177685
0.0107605
0.00700794
-0.00590364
0.00637308
-0.000469436
-0.000344348
0.00129211
-0.00094776
0.315855
-0.207019
0.0368998
0.00585762
0.000948808
0.0426278
-0.0338718
-0.00875592
-0.00997469
-0.00779378
0.228413
-0.373863
0.14545
0.119702
-0.0383216
-0.0813806
0.0499365
0.0253957
-0.0753322
0.107727
-0.0403171
-0.0674094
0.392333
-0.236987
-0.155345
-0.143424
0.159397
-0.0159725
-0.523607
0.310975
0.212631
-0.00878108
0.00255048
0.0062306
0.0924667
0.0272354
-0.0672798
0.114467
-0.0471871
-0.167508
0.0914097
-0.384546
0.290751
0.0937943
-0.266011
-0.0711501
0.337161
0.0105868
-0.0105868
0.000387829
-0.0106919
-0.34223
0.218195
0.124034
0.323177
-0.213811
-0.109366
-2.19457e-05
-0.00718624
0.0265143
-0.0270783
0.147009
-0.41302
-0.208934
0.149722
0.0592118
0.48
-0.300096
-0.179904
-0.100215
-0.0156286
0.115844
0.00280574
-0.00245127
0.166384
0.142144
-0.308528
-0.000612595
-0.00511729
0.00572988
0.00995557
-0.00995557
-0.0297262
0.0150035
0.0147227
-0.00629371
0.0187663
-0.0124726
0.0498051
0.0579215
0.00333351
0.00248637
-0.00581988
-0.0344804
0.00605523
0.0284252
0.125579
0.123761
-0.24934
0.246573
-0.446885
0.200312
-0.0892024
0.0871257
0.00207675
0.173281
0.107828
-0.281109
0.0776023
-0.130367
0.0527644
-0.105601
0.0443225
0.0612787
-0.00741901
0.00950243
-0.130574
0.0166999
0.113874
-0.0068911
-0.113134
0.120025
0.357259
-0.377017
0.0197578
0.409519
-0.144978
-0.264541
-0.289557
0.0958785
0.193678
-0.0574749
0.0335397
0.0239352
-0.0809329
-0.00826952
-0.0845663
-0.0210349
0.132481
0.104201
-0.236682
0.16734
0.312659
0.009437
0.00504994
-0.0144869
0.0213423
-0.0170876
-0.0042547
0.0996356
-0.051679
-0.0479566
0.00518285
0.108968
-0.114151
-0.226619
0.0751537
0.151466
-0.0369858
-0.0204891
0.0116628
-0.00235514
-0.00930763
0.00495861
-0.00528119
-0.00712285
0.00712285
-0.282145
-0.241461
0.172743
0.186586
-0.359329
-0.0882991
0.0507892
0.0375098
-0.190115
0.0957202
0.0943948
-0.13704
0.237177
-0.100137
-0.14419
0.162541
-0.0183504
-0.179271
0.411345
-0.232074
-0.00283893
0.0109881
-0.00814918
-0.0115615
0.000653002
-0.241064
0.154383
0.0866814
-0.276753
0.00808416
0.268669
-0.00484662
0.00549385
0.139862
-0.312981
0.173119
-0.00878108
-0.0187359
0.0121489
0.00658704
0.0583344
-0.146851
0.0885168
-0.156277
0.32902
0.171401
-0.104777
-0.0666242
0.163409
0.112024
-0.275432
-0.0366656
0.0702534
-0.0335878
0.190235
0.132942
0.305539
-0.210742
-0.0947976
-0.0208905
0.0384774
-0.0175869
0.00127882
-0.00869783
0.0156348
0.00570755
0.114597
-0.121488
0.157124
-0.25185
0.094726
0.109423
0.261604
-0.136025
0.0145114
-0.114727
0.000660036
-0.00656367
-0.308413
0.0316601
-0.240768
-0.143778
0.141894
0.137667
-0.279562
-0.0720263
0.22915
0.012173
0.355778
-0.367951
0.121355
-0.145334
0.0239786
-0.0289088
-0.0202532
0.0491621
-0.00404135
-0.000970347
0.00501169
-0.0398569
0.0897934
-0.00152423
0.00219186
0.11372
-0.069398
-0.00191147
-0.00117282
0.00308429
-0.0403378
0.011429
0.0215563
-0.0142539
-0.00730238
-0.0163969
0.0492557
-0.0328588
0.113964
-0.199808
0.0858439
-0.222986
0.111299
0.111688
0.0035561
0.0042302
-0.00778629
-0.212719
0.3767
-0.163981
0.0299603
-0.0966709
0.0667107
-0.116563
0.00435468
0.112208
-0.185971
0.192646
-0.00667538
-0.00831744
0.00904999
-0.000732548
-0.00254576
0.000269435
0.00227633
-0.0915908
0.207203
-0.115612
0.0157587
0.0322553
-0.0480139
-0.0228748
0.0278623
0.199482
0.104601
-0.304083
-0.0785552
-0.107415
-0.000543321
-0.0334622
0.0223974
-0.0742695
-0.0910924
0.038978
0.0521144
0.0429142
-0.0942981
0.0513839
-0.18676
-0.15547
0.0146972
-0.00645799
-0.00823924
-0.0982014
0.0274419
0.0707595
0.057402
-0.14522
0.0878179
-0.270689
0.266682
0.00400762
-0.0770693
0.0404038
-0.111865
0.0670316
0.0448334
-0.0800142
0.0561692
0.023845
-0.123265
-0.0856687
0.00141053
-0.00249251
0.00108198
0.247469
-0.455129
0.20766
-0.00383865
0.00530652
-0.00146787
-0.252036
0.160445
-0.0556363
0.113971
0.0528129
-0.252695
0.199882
-0.379805
0.0218453
0.357959
0.369432
-0.179076
-0.110481
0.0130859
-0.0179665
0.00488054
-0.200211
-0.150971
0.351182
0.254527
-0.438538
0.184011
-0.216136
-0.198085
0.414221
0.012335
-0.0209549
0.00861987
-0.312326
0.11211
0.200216
0.137636
-0.216191
0.105012
0.0778983
-0.18291
-0.0884128
0.0270389
0.0613738
-0.00343673
0.0022097
0.00122703
0.000738568
-0.00129916
0.000560588
-0.0622001
0.0317724
0.0304277
0.346681
-0.193324
-0.153357
-0.0320396
0.0854484
-0.0534088
-0.00112503
-0.00599781
0.0200285
-0.0438195
0.023791
-0.0238286
0.379607
-0.127652
-0.124198
-0.0315389
0.062811
-0.0312721
0.0246231
-0.0135364
-0.0110867
0.0103962
-0.0102856
-0.000110611
0.0160344
0.0184759
-0.0345103
0.380637
-0.201496
-0.179141
0.00867823
-0.0270531
0.0183749
-0.00213572
0.00662616
-0.00449044
0.0309275
-0.0123429
-0.0185846
0.0384258
-0.0759868
0.0375609
-0.00294378
0.00193614
0.00100764
-0.0127103
0.00822868
0.00448158
0.230736
0.185931
-0.0733192
0.144644
-0.0713249
-0.0928911
0.0458398
0.0470513
-0.195155
0.339139
-0.143984
-0.0675018
-0.0125124
-0.00383865
-0.0313338
0.0384381
-0.00710427
-0.0518201
-0.041071
0.0399283
0.0134994
-0.0534278
0.0308861
-0.0786159
0.0477298
0.00548386
-0.385289
0.0765504
0.0945423
-0.171093
-0.0221881
0.143543
-0.00707316
-0.0056371
0.115369
-0.01544
-0.0999285
-0.253102
-0.0592245
-0.205696
0.287108
-0.0814121
0.00763751
-0.00137573
-0.00626178
0.166519
0.102559
-0.269078
-0.00265247
-0.268037
0.0203539
-0.0480346
0.0276807
-0.120646
-0.0914339
0.0089432
0.000399722
-0.00934292
0.300754
-0.247941
0.209063
0.18327
0.104972
-0.0750113
-0.174307
0.0430983
0.131209
-0.19285
-0.0861112
0.278961
-0.191417
0.422153
-0.00640093
-0.142851
0.281266
-0.138415
0.15688
-0.235378
0.0784983
-0.0469631
0.0846352
-0.0376721
0.0729302
-0.165819
0.0928886
-0.0916494
0.0226023
0.069047
-0.179683
-0.00190274
0.181586
0.140186
-0.0827839
0.147674
0.170047
-0.317721
0.186555
-0.113624
0.121946
0.157089
-0.279035
0.0129077
-0.120663
0.107756
0.0763207
-0.076983
0.000662292
0.199607
-0.36768
0.168073
0.225249
-0.00866618
0.00967583
-0.00100965
-0.0192022
0.0349609
-0.0679473
0.052803
0.0151443
0.209411
-0.0954467
-0.0185976
0.0300773
-0.0114797
0.000261021
0.00022092
-0.000481941
-0.00157801
0.00652521
-0.0049472
0.0156239
0.00899921
-0.0136661
0.0150969
-0.0014308
0.045239
-0.0416914
-0.00354765
-0.230756
0.128269
0.102487
-0.386288
0.243573
0.142715
0.00429275
-0.00490535
0.127943
0.354416
-0.107843
0.0704115
-0.0879708
0.0175593
0.396794
-0.14809
-0.248704
-0.0540068
-0.0134092
0.067416
0.185824
-0.0384675
-0.147356
-0.00841621
0.00557727
0.0158106
-0.0141029
-0.00170774
0.190982
-0.0879098
-0.103072
0.0765204
-0.082158
0.00563754
-0.108723
-0.116116
0.224839
-0.102492
0.107675
0.208735
0.188831
-0.397566
0.00011133
0.00396531
-0.00407664
0.00211215
-0.0061535
-0.0457921
0.0842179
0.127057
0.117533
-0.24459
-0.301558
0.194839
0.106719
-0.0653733
0.170658
-0.00950985
0.0181881
0.00214454
-0.102274
0.0349942
0.00211879
0.00730775
-0.00942654
-0.084571
-0.0707632
0.155334
0.0365191
0.00871996
-0.208325
0.378121
-0.169796
0.301646
0.0951475
0.346616
-0.127686
0.0111229
-0.323309
0.0244417
0.298867
-0.070868
0.235667
-0.164799
0.0123724
0.00272454
0.187699
-0.103454
-0.0842444
-0.118565
0.10625
0.0123148
0.0450227
0.00837722
-0.0533999
0.0583724
0.0412632
-0.00311872
0.000982996
-0.187267
0.213037
-0.0257702
-0.0277242
0.0477527
-0.205511
-0.133677
0.339189
-0.0607645
0.0922725
-0.0315079
0.00364256
-0.00223203
0.0337102
-0.0756382
0.0419281
-0.00769989
0.000105941
0.00759395
-0.00568032
0.00296485
0.00271548
-0.0273626
0.104965
0.326399
-0.178725
0.273012
-0.124596
-0.148416
0.119872
0.0678266
-0.00254576
-0.00174114
0.00492176
0.0567055
-0.00891736
-0.0886231
-0.0109594
0.0995825
-0.0285045
0.0167029
0.0118016
-0.0379272
-0.00600779
0.043935
0.000523781
0.00153858
-0.00206236
0.0344699
-0.357779
0.0524461
0.0451663
-0.0976124
-0.0990273
0.231509
0.000757481
0.000370771
-0.00112825
-0.321533
0.0973607
0.224173
-0.0159869
0.0259703
-0.00998337
0.0936796
-0.0797367
-0.0139429
-0.00582582
0.00626113
-0.00043531
0.298618
-0.125337
-0.00201669
0.0109599
0.0146742
-0.0111181
-0.0409688
0.101895
-0.0609266
0.248481
-0.476043
0.227562
-0.0227417
-0.120683
0.00910899
3.20122e-05
-0.00914101
-0.238353
-0.0831804
-0.122003
0.120637
0.00136623
-0.0328497
0.0999378
-0.0670881
-0.0206559
-0.00784868
-0.00413023
0.000135493
0.00399474
0.305081
-0.165219
-0.0428719
-0.0454272
-0.00329557
0.0469395
-0.0436439
-0.00561174
0.0455401
-0.156541
0.365276
0.035469
-0.0194346
0.160073
0.195513
-0.355587
-0.35491
0.360394
-0.086588
0.0537383
-0.0615061
0.0299672
0.0089385
-0.188622
-0.294618
0.16862
0.125998
-0.126869
-0.114195
0.030144
0.0635356
-0.186483
-0.0401367
0.122818
-0.265037
0.142219
0.0444615
0.0342894
-0.0787509
-0.12271
0.237105
-0.114395
0.0770456
-0.0433354
0.00117925
0.00457237
-0.00575161
0.00149704
0.0090898
-0.161032
-0.0102788
0.17131
0.297537
-0.165594
-0.131943
-0.0959512
-0.134805
-0.19878
0.354282
-0.155502
0.016024
-0.0255338
-0.00169548
-0.0253577
-0.199987
0.369845
-0.169858
0.0812528
-0.0047324
-0.139146
-0.0947778
0.233924
-0.123298
0.289817
-0.0398239
0.144836
-0.0850633
0.238311
-0.153248
-0.000538275
0.00104642
-0.361447
0.409509
-0.0480619
-0.0219136
-0.0697357
-0.0502248
0.0870318
-0.036807
-0.0129949
0.00670118
-0.222765
-0.144918
0.367683
0.124809
-0.265673
0.140864
0.299458
-0.17465
0.00431533
-0.00589334
-0.393419
0.187907
0.0534114
-0.0602331
0.00682168
0.168229
0.15817
0.00225533
0.0740654
0.0299559
0.0609203
-0.0908762
-0.00904535
0.000727901
0.0879402
-0.21013
0.12219
0.0441227
0.141701
0.182783
0.0424833
-0.225267
0.0818884
-0.0510023
-0.151419
-0.148895
0.300314
0.022803
-0.0742151
0.0514121
-0.124392
0.108621
0.0157711
-0.0131021
-0.0850993
0.0767558
-0.431666
-0.0298079
0.186688
0.415384
-0.190134
-0.158295
-0.0970881
0.255383
0.0083369
-0.00240835
0.0534122
-0.0181223
-0.0352899
-0.0421187
-0.0634485
0.105567
0.000617958
0.00857418
-0.00919214
-0.0231302
-0.000335669
0.0234659
0.3218
-0.181896
-0.139904
0.0761752
-0.0464972
-0.0296781
-0.126743
-0.063543
0.190286
-0.0986383
0.257486
-0.158848
-0.0428315
-0.0251158
-0.212094
0.123738
0.0883553
0.3348
0.059968
-0.394768
0.0188541
-0.0124597
-0.00639437
0.0130609
-0.0795394
-0.00687227
-0.00183178
0.00870405
-0.102706
0.112692
-0.00998553
0.00971442
-0.0234522
0.0137378
0.225211
-0.438485
0.213274
-0.377734
0.222348
0.155385
-0.0975528
0.0131042
0.0844486
-0.00678276
0.000956939
-0.254333
0.288803
0.0642385
0.0606797
-0.124918
-0.0628099
0.115256
0.117798
-0.223063
0.105264
-0.250897
0.180029
0.112287
0.00480172
-0.117088
0.0389799
-0.0571021
0.0181222
-0.00532006
0.0382625
-0.0658945
0.027632
-0.00710022
0.0892365
0.21241
0.0160702
-0.0029843
0.187892
0.117647
0.0413231
0.0414073
-0.0575853
-0.106098
0.163683
0.0055079
-0.00432865
0.172508
0.244158
0.116145
0.0520245
-0.159158
0.107134
0.150247
-0.260575
0.110328
-0.0737964
-0.0380685
0.104666
0.217134
0.077178
-0.270028
0.00411455
0.0381298
-0.0422444
-0.0353812
0.234863
-0.240231
0.142657
0.0975744
-0.09195
0.044987
0.0312309
-0.0602075
0.0289766
-0.0129478
0.122241
-0.109294
0.00533954
-0.00753528
0.00219573
0.0374436
0.0758882
0.00833759
-0.0307828
0.0224453
-0.023208
0.0936195
-0.256292
0.157654
0.0771935
0.00890971
-0.0861032
-0.00136611
-0.00207062
-0.0914832
-0.106145
0.197628
-0.286861
0.135443
0.132901
-0.0206142
-0.192965
0.00569886
0.0555485
0.000717556
-0.056266
-0.234573
0.00798978
0.226584
0.26384
0.349121
-0.259885
-0.00159267
0.00606366
-0.00447099
-0.0130232
-0.0197404
-0.214833
-0.260573
0.357831
-0.0972587
0.032861
-0.0231466
0.287804
0.0932364
-0.38104
0.0609167
-0.0466906
-0.014226
0.356646
-0.235002
0.0979615
0.0729521
-0.233984
-0.0720961
0.00682509
0.065271
-0.139103
0.23673
-0.0976272
0.346552
-0.178323
0.0438672
-0.00296957
-0.0408976
-0.129935
-0.161256
0.291192
-0.126552
0.00516967
0.121383
-0.00338112
0.00241078
0.0255205
0.0312277
0.293782
-0.32501
-0.00357105
-0.0178197
0.0628424
-0.0244953
0.0328329
0.000783984
0.000561326
-0.0308839
0.0303225
-0.08145
-0.108665
-0.122525
0.0660502
0.0564746
0.367302
-0.39113
-0.0198146
0.0604399
-0.0406253
0.112878
-0.367211
-0.0722548
0.0493187
0.0229361
0.260747
-0.102344
-0.158404
-0.181972
0.124387
-0.00991839
0.00184973
0.00806865
0.0120731
0.00262426
-0.0146973
0.133839
-0.394411
-0.241637
0.113984
0.0146862
0.0408623
-0.0266406
-0.147667
-0.0721093
0.254893
0.126871
-0.254861
0.12799
0.00943775
-0.370885
-0.111091
0.0708969
0.0401937
-0.0576361
-0.101003
0.158639
0.00405335
-0.022651
0.0306676
-0.0602415
0.0295739
0.225325
-0.41655
0.191224
-0.0858355
0.0461905
0.039645
-0.00269159
-0.00727064
0.00996223
0.101301
-0.0370627
0.0985461
0.149321
-0.247867
0.205983
-0.428748
-0.404377
0.225106
0.0650468
-0.0501351
-0.0149117
-0.0831252
0.0510856
0.0753107
-0.118463
0.0431524
-0.00148797
0.010597
0.0203
0.0185723
-0.0388723
-0.0452118
-0.17497
0.220181
0.0075055
-0.00909817
-0.186745
-0.130666
0.317411
0.00571503
-0.0376806
0.0319656
0.106321
-0.0797508
0.280125
-0.153254
-0.00646408
0.118758
-0.112294
0.298055
-0.201183
-0.0968721
-0.105188
0.000763537
-0.00592817
0.00787951
-0.00747979
-0.0781552
0.0983028
-0.0201476
0.00229716
0.0063837
-0.00868086
0.0125397
0.0209644
-0.0335041
-0.0531837
-0.245639
0.276866
0.101743
-0.347381
-0.00979292
0.0153053
-0.00551236
0.0201974
-0.0753895
0.0551921
-0.155632
-0.258838
0.41447
0.0141965
0.0983139
-0.11251
0.0978539
0.026394
-0.124248
0.0092278
-0.0092278
0.0713571
-0.122379
0.0510215
-0.00255871
0.000647238
-0.115299
0.0371435
0.099678
-0.208401
-0.0272087
0.02777
-0.212263
0.167052
-0.143627
-0.152227
0.295854
0.120313
0.00419578
-0.124509
0.0547211
-0.042367
-0.0123541
0.344268
-0.157682
-0.00144322
-0.120349
-0.00404365
0.0117751
-0.0175158
0.00574069
-0.0480616
0.0316647
0.00208023
-0.00245486
0.000374627
0.0512889
-0.264008
0.00768189
0.2861
-0.00956386
0.117116
-0.00174716
0.166682
0.149672
-0.316354
-0.10257
0.106073
-0.00350239
-0.100667
-0.111427
-0.276265
0.246759
0.0295059
0.275357
-0.0894445
-0.185912
-0.00555531
0.00630344
-0.000748127
0.0984162
-0.116421
0.0180049
0.00440993
-0.076506
-0.0215612
0.0605411
-0.0191858
0.016087
0.00309876
0.159105
0.138433
0.0135894
-0.00415242
0.0784668
-0.0582695
0.141965
-0.264151
0.122186
-0.0335525
0.0330092
0.00312192
-0.00261227
-0.236675
0.428754
-0.192079
-0.227741
0.153441
0.0742999
0.370466
-0.196899
-0.173567
0.0362434
-0.0159434
-0.162619
-0.0928533
0.255472
0.406515
-0.0392131
0.304758
-0.0763445
-0.104912
0.231969
0.0634101
-0.00999872
-0.094202
-0.219174
0.313376
0.00889686
-0.00677808
-0.139686
0.0371296
0.102556
0.277794
-0.121005
-0.156788
0.0561854
-0.098304
0.104753
-0.00633691
0.000760994
0.00155512
-0.00231611
0.000863123
-0.000105642
0.00716979
-0.00646351
0.129882
-0.268985
-0.148346
0.371823
-0.223478
-0.172194
0.39752
0.00286814
-0.00486682
0.00199868
-0.199574
-0.198219
0.397793
-0.000150795
0.000674575
-0.0592566
0.0723175
-0.0320553
0.0652981
-0.0332428
0.0104031
-0.00145351
-0.00894958
-0.00917459
0.00923062
-5.60229e-05
-0.217194
0.0800415
0.137153
-0.119419
-0.135159
0.254578
0.00583974
-0.00767152
0.104014
-0.0747338
-0.02928
-0.20037
0.380927
-0.180557
-0.394685
0.011046
0.383639
-0.0439136
0.0159457
0.0279679
-0.0218239
-0.0491814
0.0710054
-0.00203374
0.0459009
-0.0117044
0.00576183
0.00594259
-0.0343677
0.0110597
-0.111294
-0.0583024
0.169596
0.00976021
0.0107526
-0.0205128
0.00763751
0.430865
-0.429437
-0.00142824
0.000568854
-0.00477006
0.00420121
-0.00259435
0.0146674
0.00499779
-0.103764
0.0987658
0.00918681
-0.0183351
0.0401092
-0.021774
0.0234739
0.0968395
-0.000354819
-0.0680924
0.0684472
0.138074
-0.275133
0.137059
0.0507791
-0.00535945
-0.0454196
-0.16385
-0.159524
0.323374
0.196191
-0.136944
-0.059247
-0.0219663
-0.0531071
0.0750734
-0.0632552
0.0204237
-0.0335776
0.0642451
0.0729448
0.031069
0.00140184
0.00151096
-0.0029128
0.1119
-0.203383
-0.00958973
0.007832
-0.202541
-0.209161
0.411703
0.0814076
-0.175841
0.0944336
0.119398
-0.00493015
-0.027177
0.0321071
-0.31638
0.190421
0.125958
-0.0377128
-0.0345421
0.356857
-0.108377
-0.110133
-0.0164189
0.0352906
-0.0673459
0.15022
0.196461
-0.279001
0.15591
0.123091
-0.088824
-0.0471433
0.135967
-0.00161948
0.0266571
-0.0250376
-0.125086
0.0148159
0.110271
0.0533511
-0.0779509
0.0245998
-0.168661
0.0612162
0.107445
0.0357182
-0.0231784
0.0670169
-0.0287544
0.0515971
0.0245781
-0.0239311
-0.252334
-0.0208221
0.0705577
-0.0497356
-0.045769
0.0902305
-0.00021329
0.00368469
-0.0034714
-0.0328828
-0.135778
-0.331859
0.175582
-0.00741072
0.0850874
-0.104076
0.0189882
0.182013
0.0895206
-0.271533
-0.00875758
0.0185178
-0.223527
-0.178447
0.401973
0.0232117
0.0109656
-0.0341773
0.0422647
-0.0365497
-0.419644
0.219046
0.200598
0.298559
-0.160485
0.0557001
0.0146814
-0.0703815
0.0417549
-0.0615695
0.156176
-0.137244
-0.0189329
0.179692
-0.0821835
-0.0975088
0.00466278
0.00699999
0.191857
-0.187658
0.106208
-0.0101483
0.00993076
0.115925
-0.149222
0.0332967
-0.102425
0.0614564
0.234213
0.0638414
0.312588
-0.18628
-0.126308
-0.322603
0.200394
0.122209
-0.00115595
0.00219752
-0.00104157
-0.0885662
0.164758
-0.0761922
0.272562
0.117001
-0.389563
0.00542194
-0.000463331
0.2532
0.0743097
-0.32751
0.0382033
-0.18305
-0.00266186
0.00342285
-0.183621
-0.184059
-0.0276427
0.0116558
0.135125
-0.00761632
-0.127509
0.0931228
0.182234
-0.149596
0.0762765
-0.175968
0.371187
-0.195219
-0.0105227
0.0114583
-0.000935636
-0.00326421
-0.00415012
0.00741433
0.0223766
0.0385401
-0.306149
-0.00851555
-0.00318887
-0.00745789
-0.00172337
0.00918126
-0.389313
0.213345
-0.000328022
-0.00451717
0.00484519
0.114432
-0.0628782
-0.0515538
-0.410194
0.03011
0.380084
-0.353782
0.153571
-0.103213
-0.137018
0.113316
0.0428604
0.00920676
-0.00114203
-0.00806473
0.367804
-0.219544
-0.148261
-0.162514
-0.257129
-0.0313396
-0.0319156
-0.0593507
0.0353796
0.0239711
0.347772
0.0109271
-0.00973142
-0.00119571
0.00683324
-0.00472109
9.9916e-05
0.00520174
-0.00530166
0.126313
0.186275
0.209098
-0.121157
0.356461
-0.21528
-0.069532
0.165252
-0.04318
0.100437
-0.0572574
-0.186742
-0.199546
0.0808941
-0.146547
0.0656525
0.0064889
-0.416683
-0.12394
-0.0991232
0.0734888
-0.163709
0.0902206
-0.0502603
0.0355101
0.0147502
0.0639586
-0.0385629
0.0381877
0.0379851
-0.0761728
0.0132627
0.0866674
-0.0999301
0.0478868
-0.0687089
0.0863024
0.0850987
-0.142855
-0.236443
-0.0165941
0.253037
-0.122926
-0.12234
0.245266
0.0372637
-0.0613826
0.0241189
0.019021
0.0317581
-0.0493684
0.0310332
-0.00199427
0.00178098
-0.00137285
0.0019417
0.167435
-0.0125763
0.00278336
0.194969
0.0512501
-0.246219
0.189359
0.176541
-0.365899
0.0182378
-0.00649551
-0.0117423
-0.161966
0.334787
-0.172822
0.0102406
-0.0102406
0.0789274
-0.0455645
-0.0333629
0.0112153
-0.0112153
-0.00636324
0.00902115
-0.00265791
0.00344171
-0.00455537
0.00111366
0.196941
0.0535527
-0.250494
0.0390426
-0.0115778
-0.00593793
-0.120062
-0.0241279
0.00687597
-0.00103623
0.0368582
-0.00584913
-0.0310091
-0.0473543
-0.233642
0.280996
-0.0249786
0.0237592
0.00121942
-0.0829518
0.246361
0.00347626
-0.0107469
0.00259572
-0.129222
-0.0879722
0.144526
-0.309566
0.16504
0.0172194
0.00875086
0.156726
0.191709
-0.348435
-0.22367
0.156429
0.0672411
-0.0309423
-0.0312578
0.0797843
-0.0384612
-0.00179059
0.00553986
-0.00374927
0.0522927
-0.0210618
-0.02971
0.226651
0.0831739
0.113017
-0.090958
-0.0607565
0.00764941
0.053107
-0.251724
0.0152807
-0.00445624
0.0152958
-0.0108396
0.140871
-0.00574542
0.124835
-0.247544
-0.0104732
0.00301531
-0.00859036
0.00657367
-0.0967238
0.0636333
0.0330905
-0.156249
0.0676832
-0.161196
-0.117804
0.281841
-0.067319
-0.214522
-0.032004
-0.0387524
0.0707565
-0.0931368
-0.0254279
-0.0122134
0.129637
-0.117424
-0.0381682
-0.0438664
0.0820346
0.0105904
-0.0150466
0.0187607
0.0476843
-0.0664449
0.210778
0.205888
0.297082
-0.130698
-0.09951
-0.00306014
-0.256821
-0.00617373
-0.0145667
0.0207404
-0.0326774
-0.0470593
0.0309275
-0.0846089
-0.0802437
0.0112687
-0.302564
0.229598
0.0729657
0.0124765
-0.0200879
0.0076114
0.0205992
-0.109222
0.00319421
-0.000326072
-0.0293743
0.0734634
-0.0440891
-0.00254294
-0.00679065
0.00933359
-0.133487
0.002913
0.141685
-0.12517
-0.0165146
0.00899519
-0.00669803
-0.124981
0.197933
-0.0245842
0.0229647
-0.0775564
0.0455523
0.152011
-0.071117
-0.115481
0.0653223
0.0501591
-0.110544
0.0975963
-0.00109209
0.000764063
0.106724
-0.0915971
-0.0151266
-0.381656
0.182082
0.000621006
0.000291638
-0.000912644
0.35638
-0.0838187
0.304774
-0.157858
-0.146917
-0.0760951
0.0153306
0.0016695
0.0075583
-0.0724035
0.0505796
-0.00872881
0.00174771
0.0069811
-0.0456302
0.143484
0.488095
-0.256385
-0.23171
-0.00499616
0.0132216
-0.00822544
-0.101333
0.0495126
-0.19904
-0.197413
0.396452
-0.0429688
-0.00729154
0.0616768
-0.109244
0.0475675
-0.0013019
0.00270374
0.14428
0.157063
-0.041138
0.110954
-0.105957
-0.190633
-0.111931
0.0694073
-0.0305839
-0.0388234
-0.0954955
0.290465
0.0640173
0.0274594
-0.0914767
-0.00781515
0.00784716
0.0112015
-0.0133819
0.00218045
-0.118351
0.111887
0.0411834
0.210125
-0.0796528
-0.130472
-0.353907
0.191941
-0.142426
0.280875
-0.13845
-0.0571193
0.0751436
-0.0180243
-0.0490151
-0.0523176
0.0294443
-0.178369
0.148925
-0.0844493
0.276518
-0.192069
-0.00982424
0.0851349
-0.103427
-0.0324153
0.135843
0.0141158
0.00465055
0.0757886
0.0014049
-0.0664157
0.0391525
0.0272632
-0.0273602
0.00422995
-0.00117953
-0.0119803
0.0131599
0.0976526
0.088902
0.0182628
-0.00578627
0.00529649
-0.116857
0.129765
0.00673211
-0.00822007
0.259191
0.121063
-0.133276
0.0338253
-0.391058
0.222701
0.168357
0.0286701
-0.0465909
0.0179208
-0.0391067
-0.000992755
0.00207209
-0.00107933
0.0724486
-0.0998112
-0.00223943
-0.00286672
0.00510616
0.050582
-0.143683
0.0931013
0.0152728
-0.0446743
0.0294014
0.168866
-0.405541
-0.00554613
-9.17668e-06
-0.0296993
0.119665
-0.0899654
-0.00949661
0.0922806
-0.0790179
-0.295775
0.211326
0.089173
-0.195318
0.177038
0.131808
-0.308847
0.0831922
-0.064541
-0.0186512
0.0377624
0.0398641
-0.0776266
-0.114577
0.0140147
0.100562
-0.0847657
0.0520883
0.0241335
0.147483
-0.0969014
0.0250572
-0.075282
-0.0492876
0.0873814
-0.0380938
0.0606777
-0.0881725
0.0274949
0.0361088
0.0399548
-0.0760636
-0.0399374
-0.0825875
-0.0300187
-0.0545476
-0.007413
0.0100196
-0.00260657
-0.0994784
0.256568
0.353418
-0.105948
0.0313598
0.0471071
-0.0157114
0.0797287
-0.0417265
-0.0198318
0.0615583
-0.0835034
0.0770205
0.00648287
0.214838
-0.387598
0.17276
-0.0348612
-0.0533721
0.0882333
-0.146448
0.257527
-0.111079
0.136897
-0.147001
0.0101036
0.0939365
0.391208
-0.136681
-0.386879
0.0633976
0.323481
0.0890154
-0.207281
0.118266
0.208636
0.196271
-0.404908
-0.143106
0.0383287
0.202239
-0.335726
0.133486
-0.0720024
-0.01909
0.00435133
-0.00761554
1.77234e-05
-0.0029615
0.227985
-0.216564
-0.0114212
-0.0564351
-0.240785
0.29722
-0.00991839
0.11452
-0.253666
0.00342785
0.0816596
-0.314514
0.127769
-0.0197732
0.0754733
-0.121436
0.0199139
0.101522
0.000381361
-0.00121909
0.000837734
0.0363698
0.144535
0.100663
-0.199898
0.0992354
-0.0307555
0.0741476
-0.0433922
0.106549
-0.121428
0.0148791
-0.39428
0.238648
-0.0800173
0.0360596
0.0439577
0.486559
-0.211073
-0.0422932
-0.0381687
0.0804619
0.209656
0.137489
-0.347144
-0.0858392
-0.137831
-0.00174987
-0.0102305
0.0805449
-0.0661302
-0.0144148
0.198667
-0.329333
0.033323
0.0445744
-0.0778973
-0.102446
0.0501184
0.0523277
-0.0703552
-0.0180575
0.0569519
0.0667705
-0.123722
0.0380966
-0.251908
-0.0103131
-0.12284
0.000836453
-0.00795183
0.00805175
0.140103
-0.25862
0.118517
0.0414321
0.0237484
-0.0651805
-0.126497
0.246422
-0.119925
-0.0622028
-0.324676
-0.125816
0.168914
-0.00221262
0.0176914
0.0249363
0.0286647
0.0518802
0.0127998
-0.0102261
-0.00257369
-0.00832243
-0.000722916
-0.00736823
-0.00948745
0.0168557
0.340465
-0.141798
0.292994
-0.165316
-0.127677
-0.0754714
-0.0119979
0.0874693
0.00723917
-0.0047528
-0.0112978
-0.0982965
0.112493
-0.116162
-0.125969
0.242131
0.17938
0.134739
-0.314119
-0.00608811
0.0166785
0.0923187
0.0021271
-0.0944458
-0.0195971
-0.0253713
0.0449684
0.102361
0.0337613
0.0285608
-0.0623221
-0.144688
-0.0891273
0.0567573
0.03237
0.186085
0.184381
0.108284
-0.00173531
-0.0178959
0.059328
0.204611
-0.352957
0.336327
-0.160062
-0.176265
0.08653
-0.0551702
-0.0120182
0.153703
0.0954306
-0.0534524
0.2037
0.0475045
-0.100859
0.0533549
-0.00247366
0.0229959
-0.0205222
-0.103684
0.293919
0.0934012
-0.0458967
-0.0466399
0.0611239
-0.014484
-0.0163114
0.00894315
0.102776
-0.0728205
0.0540142
-0.0387413
0.00373869
0.00665752
0.15667
-0.0247995
-0.13187
-0.137572
0.242791
-0.105219
0.00262514
-0.0169348
0.0143096
-0.0361142
-0.0436094
0.0797235
0.189754
-0.160309
-0.0067548
0.00812278
-0.00136799
-0.00285455
0.00296588
0.0129329
-0.0118653
-0.00106767
0.0730265
-0.0369177
-0.0973358
0.0456568
0.0341973
0.0428483
-0.2924
0.235965
0.00825448
-0.00882802
0.000573546
-0.00112523
-0.013845
0.0149702
0.0803724
0.0686333
-0.149006
0.024181
0.0568495
-0.0810305
-0.340557
0.153797
-0.223153
0.128375
0.0692721
-0.098074
0.0288019
0.0889584
-0.213939
-0.0946496
0.195312
0.326657
0.0331135
-0.0662603
0.0331468
0.336619
-0.111408
-0.255812
0.208458
0.0969295
0.128873
-0.225803
0.0778568
0.0840669
-0.161924
-0.00289625
-0.00627834
-0.190496
0.148506
0.0419902
0.0416337
0.0372937
-0.229596
0.444624
-0.215027
0.0374713
0.0230423
-0.0605136
-0.00871402
0.0791273
-0.0704132
-0.275871
0.133446
0.0670139
-0.0482532
0.18503
0.151298
0.0836801
-0.0548915
-0.0287887
0.0035542
-0.000829595
-0.00272461
-0.0425365
0.000337552
4.38088e-05
0.0471986
-0.0853668
0.317801
-0.188157
-0.129644
0.128258
0.0627239
0.135932
0.0745577
-0.159129
-0.00675896
0.00164168
0.0540748
0.0291174
-0.00102008
0.0122216
-0.416372
0.200236
0.396505
-0.223339
-0.173166
-0.0869309
0.192725
-0.105794
-0.078784
0.0317223
0.0470617
0.210488
0.121411
-0.331899
0.214346
0.168132
-0.382478
-0.153811
0.050384
0.378556
0.0267204
-0.405276
0.0316173
0.039052
-0.0706693
0.00895694
-0.0447969
0.03584
0.0734475
-0.272227
-0.216032
-0.173281
-0.11545
0.260295
-0.144845
0.0131439
-0.000210981
-0.0677407
0.11826
-0.0505195
0.0615748
-0.283935
0.22236
0.0542102
0.0385234
-0.0927336
0.00073917
0.0092164
0.39009
0.00782296
-0.397913
0.316115
-0.108401
-0.207714
0.0208472
0.0182057
-0.039053
-0.240208
0.301783
0.309487
-0.193218
-0.116269
0.0114792
-0.0707358
-0.1905
0.170149
0.0203509
-0.399081
0.415327
-0.0162451
0.319942
-0.419607
0.099665
0.0710139
-0.093466
0.0224521
0.40501
-0.140397
-0.264613
0.270468
0.231151
-0.260861
0.217656
0.128586
-0.346242
0.000589088
-0.000933436
-0.00720438
-0.282485
0.290167
0.0121717
0.0095439
-0.0217156
0.170683
-0.257995
0.0873125
-2.86793e-07
-0.00121881
-0.0126392
0.180197
-0.0911139
-0.0890831
0.000362341
0.00119124
-0.00155358
9.79466e-05
-0.00899486
-0.176709
-0.0137915
-0.316778
0.180772
0.136006
-0.364097
0.155772
0.00367268
-0.00216172
0.03145
-0.0243612
-0.00708885
-0.0344067
0.000534897
-0.0388816
-0.0799213
0.399863
-0.0052234
-0.070248
-0.207399
0.0806567
-0.00125953
0.00406081
-0.00280128
-0.0658579
0.132201
-0.0663426
0.00105771
0.00986942
0.20711
0.209557
-0.0209809
-0.00606319
0.0270441
-0.00504809
8.07273e-05
0.00496737
-0.0290749
-0.0441394
0.0732144
-0.18743
-0.190303
0.0100977
0.00459956
-0.0136153
0.0669664
-0.103313
0.226893
-0.12358
-0.0489255
-0.0174902
-0.408812
0.322574
0.0862379
0.228875
0.146637
-0.375512
-0.0935642
-0.0848178
0.178382
-0.293037
0.163574
0.129463
0.12328
-0.0497217
-0.073558
-0.00132228
-0.00435804
-0.00886902
-0.00141657
0.22847
-0.397623
0.169153
0.100901
0.209275
-0.310175
-0.0187932
0.0552855
-0.0364923
0.205572
-0.116557
0.119757
-0.0102003
-0.109556
-0.118002
0.273912
0.273954
0.0925381
-0.366492
-0.000305633
0.00550737
-0.169444
0.325333
-0.155889
-0.2394
0.145801
0.0935989
0.237304
-0.131201
-0.106103
0.00199164
-0.00650881
0.0132513
0.124258
-0.137509
-0.240281
-0.0810559
0.321337
0.00597507
-0.00851801
0.383048
-0.173985
0.127941
-0.0320045
0.08589
-0.0551199
-0.0307701
-0.118006
-0.0724897
-0.0886267
0.166483
-0.00182661
0.077468
-0.0458508
-0.00386797
-0.00120839
0.00507636
0.0791587
-0.0549777
0.15871
-0.101758
-0.0226561
-0.130798
0.153454
0.106958
-0.0539006
-0.0530578
2.6867e-05
0.00352733
-0.0697397
0.150112
-0.00560692
-0.00434865
0.0273766
0.0376702
0.000525684
9.53226e-05
-0.0457213
-0.0498714
0.0955927
0.0346296
0.196521
-0.13132
0.0635798
0.0958972
-0.00686622
0.00748418
0.0167124
0.00484388
0.161337
-0.0701806
-0.0911565
-0.0765653
0.0367083
0.191941
-0.377749
0.185808
0.00553576
-0.00019665
-0.00533911
0.0928551
0.234019
-0.326875
0.039436
-0.321921
-0.00775917
0.0388718
-0.0421674
-0.00909953
0.0111421
-0.00204252
-0.143515
-0.128468
0.271984
-0.0656474
0.0245903
0.0410571
-0.0175544
0.0164292
0.397336
-0.0358213
0.0742154
-0.0383941
0.288474
0.0413539
0.225433
-0.370351
-0.0841457
0.224669
-0.140523
-0.158498
0.100862
-0.0336805