/*--------------------------------*- C++ -*----------------------------------*\
| =========                 |                                                 |
| \\      /  F ield         | OpenFOAM: The Open Source CFD Toolbox           |
|  \\    /   O peration     | Version:  v2012                                 |
|   \\  /    A nd           | Website:  www.openfoam.com                      |
|    \\/     M anipulation  |                                                 |
\*---------------------------------------------------------------------------*/
FoamFile
{
    version     2.0;
    format      ascii;
    class       volVectorField;
    location    "100";
    object      U;
}
// * * * * * * * * * * * * * * * * * * * * * * * * * * * * * * * * * * * * * //

dimensions      [0 1 -1 0 0 0 0];


internalField   nonuniform List<vector> 
27802
(
(0.987001 0.061137 8.65603e-21)
(1.00001 0.000102342 0)
(0.944751 0.0267873 9.09588e-21)
(1.0745 -0.0252662 -5.45467e-21)
(1.00421 0.021816 0)
(1.30882 0.0685986 0)
(1.00459 0.0216275 0)
(1.19613 0.101345 -3.95332e-20)
(1.01852 0.0167016 -1.38387e-22)
(1.11393 -0.101592 0)
(0.82032 -0.0448657 7.13553e-21)
(0.380969 0.470885 -7.52193e-20)
(1.06143 0.118602 -5.72568e-21)
(0.56244 -0.120068 -3.91963e-20)
(0.310612 -0.0425259 -3.15303e-20)
(-0.177238 0.0150196 -7.27358e-20)
(0.00209389 0.0224483 -3.82416e-20)
(1.01894 0.0172434 1.00163e-22)
(0.796363 -0.0479313 0)
(0.0686305 0.00745939 8.87409e-21)
(0.723765 0.0527658 2.63308e-20)
(0.319779 -0.0428029 0)
(1.02615 0.0066421 5.99363e-22)
(1.11542 -0.0528915 0)
(1.23417 0.29079 1.39639e-20)
(0.927879 0.157154 7.25474e-21)
(1.00672 0.0105493 0)
(1.08726 -0.0302092 -8.03605e-21)
(1.01283 0.000538111 -2.95704e-25)
(-0.272305 0.00255863 7.49682e-20)
(1.11434 -0.0537403 -1.31548e-20)
(1.15068 0.102212 -6.45025e-21)
(0.988344 0.0600242 -8.29779e-21)
(1.02444 -0.000839498 -6.98065e-22)
(0.999266 0.000307103 5.66986e-21)
(-0.244581 -0.00238422 -3.24159e-20)
(-0.277631 -0.00494261 3.26579e-20)
(1.02397 0.0107977 0)
(1.03635 0.00436352 0)
(-0.201157 -0.0106138 0)
(0.41539 0.462618 3.28847e-20)
(0.999351 0.000165768 -3.73753e-21)
(1.091 0.0177733 0)
(1.02188 0.000969468 8.09465e-22)
(0.949978 0.129796 -1.98087e-21)
(-0.0741852 0.0110171 -3.15835e-21)
(0.995855 0.00583506 -1.69675e-22)
(-0.154914 0.0216055 0)
(0.0218684 -0.191428 7.32967e-20)
(0.528438 -0.0432565 -4.38854e-21)
(0.336835 -0.0423943 -2.86595e-20)
(0.930594 0.162022 -7.33979e-21)
(-0.1618 -0.00699456 0)
(0.506343 0.830199 9.40541e-21)
(1.03453 0.00886219 1.57809e-21)
(1.00059 0.000213459 0)
(1.15432 -0.0685245 2.03104e-20)
(0.994691 0.0132307 0)
(0.95981 0.112302 6.62007e-21)
(1.20367 0.112284 0)
(0.266504 0.00589033 0)
(0.94129 0.00764174 0)
(1.03275 0.119581 -1.49516e-21)
(1.01655 0.00266862 7.20841e-22)
(1.02204 0.00136216 0)
(1.02251 0.0399693 4.61271e-23)
(0.983523 -0.103287 1.31283e-22)
(1.15662 -0.0683238 0)
(1.20421 0.116603 3.26003e-20)
(1.01448 0.0377073 -1.05142e-21)
(1.02193 0.000757744 1.33386e-23)
(0.352912 -0.0609496 -1.24307e-20)
(0.413978 -0.0547947 0)
(1.08307 -0.0705197 0)
(0.924163 -0.00369193 -2.01511e-20)
(1.05825 -0.0139188 4.86156e-23)
(0.989985 -0.105043 9.67492e-23)
(-0.291036 0.00471739 6.55468e-23)
(0.162293 0.00433524 1.14806e-20)
(-0.15929 -0.00352026 0)
(1.01235 0.000526465 2.86337e-25)
(1.00863 0.0113361 -1.87459e-21)
(0.814643 0.188568 0)
(1.02297 0.0678028 1.68678e-22)
(1.03174 0.0344898 0)
(1.1178 0.0366836 -9.36136e-21)
(1.00008 0.000739074 1.28509e-21)
(0.256092 -0.0429498 0)
(-0.316594 0.00142791 -5.50606e-20)
(0.981036 0.00324981 8.20788e-21)
(0.998428 0.0153955 1.47807e-22)
(0.183907 0.00333642 -1.63029e-20)
(1.01868 0.0143121 0)
(-0.196523 0.0026105 7.17007e-20)
(0.347216 -0.0510532 -7.03601e-21)
(1.09832 -0.0269138 7.60255e-21)
(1.00888 0.0117867 1.27594e-21)
(1.09417 -0.027899 4.51359e-21)
(0.991433 0.00052313 -6.58655e-21)
(1.14763 -0.100268 -1.21546e-20)
(1.03659 0.0037227 6.27526e-21)
(1.02869 0.00962572 0)
(0.276857 0.774417 8.68536e-21)
(0.252183 0.00357417 0)
(0.424096 -0.0545605 -2.35179e-20)
(1.03175 0.123093 -2.05262e-21)
(0.985552 0.0145035 -4.5917e-21)
(1.0222 0.00115775 -1.83945e-21)
(1.03405 0.00853171 1.37463e-21)
(0.945991 0.127526 4.34561e-21)
(-0.189683 0.0113483 5.30211e-20)
(0.998211 0.0151386 4.97622e-22)
(1.02438 -0.000621814 -1.22591e-21)
(0.991621 0.00224983 -6.33511e-21)
(0.984786 0.0144134 0)
(1.01627 0.00227639 7.16589e-22)
(1.0753 0.0772164 6.92884e-22)
(0.807469 0.490684 0)
(0.126242 -0.0259697 1.14494e-20)
(1.22981 0.282905 -4.78104e-20)
(0.0744978 0.00647788 0)
(1.19936 0.109306 0)
(-0.0768147 -0.012468 -1.50474e-22)
(0.791169 0.497 -2.07535e-20)
(0.413122 0.205973 -4.38956e-20)
(0.708575 0.360481 -2.51145e-20)
(1.03163 0.0517997 2.33703e-21)
(1.07938 0.0142682 1.17332e-20)
(0.201549 0.0772428 -9.40665e-20)
(1.02486 -0.000208071 -1.3045e-21)
(1.16814 -0.0145192 1.76595e-20)
(1.14469 0.0653821 -1.38087e-20)
(1.0058 0.0488723 6.90916e-21)
(-0.252055 0.00915785 8.75224e-20)
(-0.0727105 -0.00351031 -2.2664e-20)
(1.06263 -0.00109205 0)
(0.678828 -0.0891206 0)
(0.550434 -0.107704 2.21721e-20)
(0.99375 0.00772876 -5.46517e-21)
(1.00531 0.0479861 -7.40784e-24)
(0.581224 -0.116173 0)
(1.11755 -0.103937 4.04712e-21)
(0.846881 0.0427131 -1.53081e-20)
(0.929488 0.173384 -8.00912e-21)
(1.02361 0.0110585 0)
(0.374099 -0.0243543 3.70925e-21)
(0.897149 0.0977647 -1.90779e-20)
(1.1049 -0.0152895 -1.36155e-20)
(1.03969 0.00451275 0)
(1.16327 -0.0983524 2.10475e-20)
(0.967153 0.174222 0)
(1.3286 0.13556 2.62421e-20)
(1.09087 0.0194725 2.48107e-20)
(-0.0590003 -0.0189216 -2.26838e-20)
(1.00004 5.64029e-05 4.58466e-22)
(0.127981 0.00386905 -6.86897e-21)
(1.06146 -0.000530916 0)
(1.09891 -0.0279612 -1.93185e-20)
(1.02281 0.00209211 -1.19024e-21)
(0.999397 0.00393822 -1.14768e-21)
(1.01659 0.00250685 -8.41463e-22)
(1.02165 0.0396017 0)
(0.381809 -0.0357691 4.78668e-20)
(1.01247 0.00793912 4.3961e-22)
(1.00007 0.00122262 4.39276e-23)
(1.00003 0.000374426 0)
(0.391148 -0.0522697 4.56908e-20)
(1.0098 0.0222301 1.04752e-21)
(1.00599 0.0471383 -3.10074e-21)
(0.976264 0.0471146 -5.60285e-21)
(1.09498 0.254733 1.52764e-20)
(-0.0801444 -0.0069128 -2.89276e-21)
(-0.0133399 0.0130728 -1.02711e-19)
(1.09703 0.56085 -7.26448e-20)
(1.00712 0.0173362 2.02167e-21)
(1.20895 0.000595595 -1.74246e-20)
(-0.213893 -0.000609507 -8.48452e-21)
(0.827268 -0.0534988 -2.58048e-20)
(1.01632 0.00213002 -6.98725e-22)
(0.986109 0.0137376 0)
(1.07686 0.52173 3.12807e-20)
(0.487255 -0.0571943 6.03694e-21)
(-0.294962 -0.00402392 0)
(0.706255 -0.0881231 0)
(1.02284 0.00270352 -5.14069e-22)
(0.424416 -0.0605811 7.74839e-20)
(0.140127 0.0343999 -6.17275e-20)
(0.159461 -0.947683 0)
(1.11275 -0.0786505 -1.42418e-20)
(0.0459721 0.0620198 8.28639e-20)
(0.23094 -0.0414787 -8.03783e-20)
(1 5.73389e-05 0)
(0.950442 0.0248884 1.19409e-20)
(1.18827 -0.0646607 -1.71493e-20)
(1.03453 0.0032671 -2.73577e-21)
(1.32456 0.140208 6.59315e-21)
(0.0928577 -0.00118533 -4.70145e-21)
(0.660989 -0.0488515 0)
(1.18906 -0.0631707 -3.02335e-20)
(0.838099 -0.100612 0)
(1.03509 0.30317 -3.74014e-21)
(0.999483 0.00374782 0)
(0.988847 0.0566038 0)
(1.07574 0.0753581 0)
(0.242573 -0.0408722 -5.08859e-20)
(1.15456 0.0362702 2.19025e-20)
(1.00928 0.0220352 -2.31758e-21)
(1.0199 0.0179552 2.87178e-22)
(-0.243414 -0.00614821 -7.34508e-20)
(1.03058 0.0145986 -2.1298e-21)
(1.03922 0.00483596 -8.31557e-22)
(0.825787 -0.0846348 8.83034e-21)
(1.07536 -0.0243593 5.90277e-21)
(-0.267453 -0.00023756 0)
(1.02239 0.00204002 9.63451e-22)
(1.00704 0.0107838 0)
(1.16597 -0.0137957 2.95819e-20)
(0.965416 0.0227942 7.53934e-21)
(0.997341 0.0162334 -2.74888e-21)
(0.999991 0.000119621 0)
(0.349488 -0.0509684 -6.70001e-21)
(1.00546 0.0221343 4.58398e-21)
(0.985876 0.0221288 1.21032e-22)
(1.18921 -0.0346918 -1.31163e-20)
(0.975578 0.0238029 0)
(1.17633 -0.051668 1.06298e-20)
(1.04326 0.0408862 -2.08857e-21)
(1.10598 -0.0165864 1.52187e-20)
(1.0215 0.000152269 -8.77298e-22)
(0.976242 0.0243997 -1.3298e-20)
(0.991826 0.00309441 0)
(1.09504 0.0887691 1.53215e-20)
(1.16884 -0.0543535 0)
(0.999326 -6.75058e-05 4.39425e-21)
(1 6.47062e-05 0)
(-0.301352 0.00441709 -2.82372e-20)
(0.669544 -0.0847852 -1.72937e-20)
(0.768908 0.252174 0)
(1.0322 0.0505773 -1.4276e-21)
(0.175863 0.680622 0)
(-0.0182959 0.00831087 0)
(-0.172836 -0.0153662 -7.24525e-20)
(0.486116 -0.055925 2.46957e-23)
(0.308118 -0.0571984 -4.72254e-21)
(0.841574 0.0452962 0)
(1.06301 0.011887 0)
(1.00536 0.0125657 -3.17724e-21)
(-0.128713 0.0254978 0)
(1.02296 0.00251361 6.36067e-22)
(1.00063 0.000159854 -1.00413e-21)
(1.20789 0.0140952 7.51089e-21)
(1.00451 0.00408055 0)
(1.17338 0.355017 0)
(0.960843 0.0207188 -1.56096e-20)
(0.236185 -0.0386471 -2.3934e-22)
(0.319809 -0.0592644 0)
(1.08429 0.0135974 -7.29218e-21)
(1.16771 0.206549 -2.95695e-20)
(1.01393 0.0404791 -1.48266e-21)
(0.924106 -0.00630672 1.2438e-21)
(1.00509 0.00356501 0)
(-0.128127 -0.00584783 -7.57015e-21)
(0.139944 -0.0294809 0)
(1.1119 -0.0769047 1.15388e-20)
(1.01807 0.03746 5.46245e-22)
(1.00834 0.0247016 3.93809e-21)
(0.96261 -0.00615386 1.82578e-21)
(0.420935 -0.0921732 0)
(0.332084 -0.0607305 0)
(1.14706 0.102551 1.10919e-20)
(-0.276822 0.00450411 0)
(1.08816 0.0552124 2.02001e-20)
(0.882167 0.044404 -1.31425e-20)
(1.01192 0.00669246 4.77281e-22)
(1.00472 0.00419302 1.11973e-21)
(0.999253 7.20905e-05 -3.04186e-21)
(1.1421 0.0677949 0)
(0.996643 0.00246459 3.0488e-21)
(1.03255 0.0147748 1.54591e-21)
(0.319527 -0.0582298 -9.84781e-21)
(0.959862 0.00601811 -1.36811e-20)
(1.09115 0.153273 -6.11561e-21)
(1.20695 0.377254 -4.67474e-20)
(1.08205 -0.0697728 0)
(0.0770155 0.0281897 2.28695e-20)
(1.06846 -0.00941987 7.94465e-21)
(0.882104 -0.0541044 0)
(1.01345 0.00894021 -7.6511e-24)
(1.18329 0.248953 3.1531e-20)
(-0.0828288 -0.016374 -2.60695e-20)
(1.26093 0.268457 0)
(0.198266 0.00432155 4.0715e-21)
(-0.14366 -0.00606637 -3.02473e-20)
(0.957808 0.11569 -2.01139e-21)
(1.02119 0.00010254 -7.90818e-22)
(1.01972 0.0400529 0)
(0.958385 0.00638195 -1.85233e-20)
(-0.0652029 0.000844477 0)
(-0.160198 -0.00833329 2.07481e-20)
(1.19998 0.105137 0)
(-0.285574 0.00479426 0)
(1.038 0.182228 0)
(0.549093 -0.0483781 -2.41079e-21)
(0.9287 0.855869 3.94665e-20)
(0.0395705 -0.0224425 8.68853e-21)
(0.996863 0.0025271 9.33375e-22)
(1.17689 -0.00466129 -3.06309e-22)
(1.01529 0.0372129 9.72171e-22)
(0.00980655 -0.0187932 -1.91053e-20)
(1.02999 0.0107695 -1.10216e-21)
(0.528486 -0.0410374 -1.20346e-21)
(1.23455 0.0941412 4.59377e-20)
(-0.169835 0.0166915 -1.01786e-19)
(0.994896 0.013705 6.17373e-22)
(-0.25287 0.000347698 0)
(0.329474 0.106518 -8.51132e-20)
(1.18154 0.067647 0)
(1.01187 0.000593795 4.4612e-23)
(1.08756 -0.0291859 1.33073e-20)
(-0.265763 0.00311007 -5.06085e-20)
(1.02949 0.0110582 1.21551e-21)
(0.929876 -0.0113417 8.79717e-21)
(1.1621 -0.0391224 0)
(0.543854 -0.0491428 -2.73025e-21)
(0.104223 0.00546911 4.13572e-21)
(1.01912 0.0147017 0)
(0.815841 0.17903 2.01833e-20)
(0.698206 -0.15292 0)
(0.867812 -0.105303 3.28529e-21)
(1.00528 0.00386264 1.40833e-21)
(0.744642 -0.0903921 4.18159e-21)
(1.01142 0.00728494 -2.81017e-22)
(0.999485 0.00402567 -1.0036e-20)
(1.16407 -0.0400633 0)
(1.07887 0.54033 -6.65841e-20)
(1.04201 0.0407217 -1.04368e-21)
(0.995587 0.0156558 2.80471e-21)
(0.981742 0.00320987 6.60315e-21)
(1.23267 0.0900925 1.79156e-22)
(1.05907 -0.0133916 -1.08836e-20)
(1.03197 0.0209534 -9.89939e-22)
(1.28758 0.14584 0)
(1.00198 0.0267489 -3.06632e-21)
(1.25565 0.26311 0)
(-0.167721 0.024285 -1.31411e-19)
(-0.346796 -0.00105736 0)
(1.06902 0.011746 0)
(1.01806 0.0225699 0)
(1.06297 0.013097 3.61971e-21)
(1.01707 0.0170789 1.56611e-22)
(0.435908 -0.103213 0)
(0.438556 -0.0521297 -6.02634e-20)
(1.00932 0.0110057 0)
(1.16766 0.202824 2.77331e-20)
(1.03546 0.0313642 -3.3996e-21)
(1.03041 0.0140415 2.03564e-21)
(0.974925 0.0480462 0)
(1.01514 0.0310696 -1.42982e-21)
(-0.019596 0.0112966 2.225e-20)
(1.01077 0.00198342 6.48468e-22)
(1.17821 -0.0500608 -2.5799e-20)
(1.3067 0.264037 1.58946e-22)
(0.292692 -0.0397333 1.73189e-20)
(1.01988 0.00124889 -6.34221e-22)
(1.03356 0.0209733 -7.04085e-22)
(1.03449 0.0215718 -2.59988e-21)
(-0.148657 -0.0174668 0)
(1.01311 0.00861153 1.46068e-22)
(0.992444 0.518153 0)
(1.02119 -0.000150549 1.72856e-21)
(1.16689 -0.0550126 0)
(1.16963 0.165844 0)
(-0.266903 0.00750303 -3.91475e-20)
(1.06286 0.027417 -2.02453e-21)
(0.959287 0.0211357 7.42372e-21)
(1.04031 0.0206262 5.72736e-21)
(1.03745 0.29352 1.92816e-21)
(0.996349 0.0141949 -4.42586e-21)
(1.11622 -0.0801681 1.25165e-20)
(0.930331 0.0406287 -5.27263e-21)
(0.896853 0.0934006 2.23543e-20)
(0.999568 0.00384996 9.62367e-21)
(0.985064 0.0224477 -7.14157e-21)
(0.999991 0.000141474 2.59849e-22)
(1.03616 0.0214332 0)
(-0.248736 -0.00784272 -1.46215e-19)
(0.6386 -0.242207 0)
(1.10918 -0.0543446 -7.82526e-21)
(-0.256036 -0.00667427 -2.07715e-20)
(0.377094 -0.494467 0)
(0.99985 0.0246118 2.22874e-21)
(1.06924 -0.0769015 -4.22634e-21)
(0.97898 0.0194666 1.23067e-20)
(1.00834 0.0316416 1.88748e-21)
(0.770327 0.243133 3.41813e-20)
(1.05267 0.0452678 6.34979e-21)
(0.9994 0.00359758 1.21145e-21)
(0.371906 -0.0606958 -1.08411e-20)
(1.30375 0.0730184 -8.50836e-21)
(0.228125 -0.0221904 0)
(1.09198 -0.0475387 -1.58282e-20)
(0.501197 0.107378 0)
(1.00177 0.000339642 1.73988e-21)
(0.996699 0.00130625 0)
(1.08129 -0.0674307 -1.40099e-20)
(-0.160782 0.0170852 9.07335e-20)
(0.996812 0.00292917 8.0083e-21)
(0.910513 0.0318562 0)
(1.17416 -0.00486305 -1.62604e-20)
(1.07756 0.016435 -5.98397e-21)
(1.03191 0.0144524 -2.72001e-21)
(1.03316 0.129395 -4.36428e-21)
(1.02397 -0.106496 0)
(0.384709 -0.051149 1.36779e-20)
(1.04134 -0.0924158 2.46794e-21)
(0.20764 0.00443567 0)
(1.00491 0.00417949 -9.96977e-22)
(0.325103 -0.0399079 -5.33076e-20)
(1.02911 0.00929193 0)
(1.111 -0.101534 1.3881e-20)
(1.08458 -0.008121 -8.66463e-21)
(-0.141064 0.0283686 -7.53741e-23)
(0.999998 0.000104748 0)
(1.00502 0.0222986 0)
(1.06337 0.0760989 6.73849e-21)
(1.0596 0.00293228 -5.21449e-21)
(0.962785 0.170493 0)
(1.00003 0.0253023 2.65457e-21)
(0.997058 0.0158791 1.20918e-21)
(0.683394 -0.111044 2.80627e-20)
(0.993352 0.00771581 7.07536e-21)
(1.00858 0.0416807 1.08692e-22)
(1.18804 -0.0329394 2.31009e-20)
(0.997242 -0.0509471 6.85029e-23)
(1.09011 -0.0450917 1.07783e-20)
(-0.186991 0.0127321 0)
(1.19704 0.0975859 -2.703e-20)
(0.606748 0.123286 4.36192e-20)
(1.20528 0.0136364 0)
(1.00853 0.0307911 0)
(0.857492 0.0972953 -2.66787e-20)
(-0.0771714 -0.00558537 2.78404e-21)
(1.0691 0.0306064 -8.49256e-21)
(0.996071 0.013845 -5.32957e-21)
(1.03568 0.132086 6.16833e-21)
(1.06811 -0.0085367 -8.97491e-21)
(0.751142 -0.0792724 2.54538e-20)
(1.05446 0.0215795 1.58749e-22)
(0.991431 0.00272233 0)
(1.00492 0.00399966 1.5943e-21)
(-0.286884 -0.00514164 6.08322e-20)
(0.526297 -0.0445315 2.56617e-21)
(1.05463 0.0223014 0)
(1.00724 0.0082288 3.96135e-22)
(0.649861 0.135937 -6.70427e-20)
(0.999305 0.00345451 5.2617e-21)
(0.979009 -0.111456 0)
(0.999376 0.00384188 5.95365e-22)
(1.03146 0.0353278 -1.27133e-21)
(1.06807 0.0124379 -5.12658e-22)
(1.22861 -0.0122387 1.26068e-20)
(1.01275 0.0387715 1.51465e-21)
(1.02092 -0.000203379 0)
(0.837144 -0.0403269 -1.31087e-20)
(0.994873 0.00585996 0)
(1.13563 0.00611198 1.4932e-20)
(0.10957 -0.0220045 -7.40209e-21)
(0.637865 -0.254932 0)
(0.998185 0.0118433 0)
(0.112061 0.00675341 4.10959e-21)
(1.20527 0.369746 4.81319e-20)
(0.614633 0.131142 0)
(-0.0111601 0.0108314 0)
(0.341232 1.2024 -4.95753e-21)
(1.02111 0.0670876 -4.35526e-22)
(1.00314 0.172461 2.97323e-21)
(1.01603 0.00190824 0)
(1.06614 -0.0611405 -8.45395e-21)
(0.997002 0.00302208 -7.34463e-21)
(0.897928 0.334431 -3.93013e-21)
(1.01055 0.0308492 0)
(1.08331 -0.00723584 1.73933e-20)
(0.326313 -0.00137092 9.87913e-22)
(0.356217 -0.062465 0)
(1.007 0.00787746 7.8123e-22)
(0.986774 0.0140063 -5.11222e-21)
(0.746366 -0.087161 -3.94875e-20)
(0.965996 0.0217136 -2.21578e-21)
(1.04013 0.0199111 -2.59825e-21)
(1.01043 0.0244181 0)
(1.01052 0.00183305 -7.23587e-22)
(1.19051 0.0293732 3.57372e-22)
(1.10103 -0.000207866 -1.5189e-22)
(0.115944 0.663189 2.83552e-21)
(1.29934 0.308708 5.39905e-20)
(1.01271 0.00139204 -5.98291e-23)
(1.06306 0.298496 -1.17881e-20)
(0.255919 -0.0304415 6.54797e-21)
(0.907854 0.0308235 0)
(1.05713 0.00978294 6.86749e-23)
(1.01959 0.00129048 2.92617e-23)
(1.00007 0.000722834 6.58466e-22)
(0.959101 -0.074845 0)
(1.21149 -2.0538e-05 0)
(1.06101 0.156711 4.10504e-21)
(-0.250831 0.00437925 4.56419e-20)
(0.751081 -0.0968471 -2.20374e-21)
(0.99292 0.0123592 0)
(-0.268761 -0.00658717 -1.17587e-20)
(1.0188 0.00990602 0)
(0.725258 0.727764 0)
(1.06176 0.11583 -5.69942e-21)
(1.01074 0.0240055 -1.00696e-21)
(0.924134 0.00203459 0)
(1.00265 0.0199854 0)
(1.07932 0.0157571 1.17216e-20)
(-0.175599 0.0105287 0)
(-0.287398 0.000489781 3.20727e-20)
(0.898802 0.00372539 -4.22256e-20)
(-0.262342 -0.00532483 0)
(0.689699 -0.0943652 0)
(1.11529 -0.078462 -5.8978e-21)
(0.99784 0.0120258 0)
(0.997664 0.011689 0)
(0.38115 -0.00591756 -8.29915e-21)
(0.966262 0.214528 -3.82211e-21)
(0.999939 0.000184759 -8.41051e-21)
(1.1362 0.0887639 -1.12724e-20)
(1.01505 0.125244 5.26509e-22)
(-0.208027 -0.000591882 0)
(1.0861 -0.052528 -4.69521e-21)
(-0.0561699 -0.0148862 3.30445e-20)
(0.900601 0.00204117 4.24246e-20)
(1.01307 0.0410586 1.79387e-21)
(0.421556 0.93749 0)
(0.992593 0.0121683 7.94159e-21)
(0.995507 0.0069136 4.76192e-21)
(0.93245 0.0189678 -8.11039e-21)
(0.920885 -0.0495518 1.29317e-20)
(1.00877 0.0110832 9.4984e-22)
(-0.168432 0.016123 0)
(0.932661 0.0401845 0)
(0.249897 -0.247653 1.32057e-19)
(0.723836 0.352447 -1.1702e-20)
(-0.0715386 0.00867352 3.10783e-20)
(1.02456 -9.57276e-05 4.55269e-22)
(0.998316 0.0121304 0)
(0.236871 -0.0258627 0)
(1.15311 0.0341201 -1.20234e-20)
(0.99643 0.00676229 0)
(1.15334 0.0830297 0)
(1.05148 0.045921 3.51294e-21)
(1.00579 0.0285553 0)
(1.01932 0.0194889 1.41008e-22)
(-0.160841 -0.006989 0)
(1.14121 0.0220083 -2.26049e-20)
(1.22671 -0.010862 0)
(1.05583 -0.10793 0)
(0.251274 -0.294136 5.80504e-20)
(1.01876 0.0226145 6.85145e-23)
(0.325625 -0.0581649 1.13198e-20)
(0.971202 0.211333 -7.19418e-21)
(1.00621 0.0312703 0)
(0.591949 -0.131875 -1.20098e-19)
(0.0975233 0.00624214 -1.80028e-20)
(1.00312 0.00420003 1.87545e-21)
(0.973536 0.0065048 -4.69609e-21)
(1.00771 0.0112127 -5.47017e-22)
(0.708338 -0.094612 9.45455e-21)
(1.03747 0.0126779 1.80888e-21)
(1.01608 0.00174396 0)
(1.0267 0.00663211 0)
(1.01876 0.0367829 -8.92177e-23)
(1.00166 0.505012 -3.11422e-21)
(1.03614 0.0120078 0)
(-0.253571 0.00744795 0)
(1.11245 -0.0140918 -1.95424e-20)
(0.999083 0.0236478 -7.83648e-23)
(1.11038 -0.055571 3.08097e-23)
(1.14234 0.019892 1.92975e-20)
(0.0602259 -0.0203935 4.20756e-21)
(-0.0101807 -0.0166958 -1.20044e-20)
(0.203459 0.00433407 -5.63632e-21)
(1.0126 0.0375806 -2.34461e-21)
(1.01673 0.0062266 3.47058e-22)
(1.01283 0.00116119 -2.54969e-23)
(0.11471 -0.00553889 -6.72283e-20)
(1.01116 0.00433679 0)
(0.0193261 -0.0198933 -2.02299e-20)
(1.28907 0.0716996 2.72601e-20)
(0.864801 0.2457 0)
(-0.292548 -0.00420419 3.42238e-20)
(0.251126 -0.00759123 -5.98709e-21)
(0.995533 0.0469695 0)
(0.990374 0.00151772 -3.79771e-21)
(0.209674 -0.017737 -1.38383e-20)
(1.08911 -0.0609485 7.3954e-21)
(1.01089 0.0104834 6.41671e-22)
(1.00042 7.43938e-05 -1.65238e-21)
(0.826328 0.0352753 -5.0611e-20)
(1.0784 -0.0637558 0)
(0.795369 -0.0427882 0)
(-0.269015 -0.00309674 -1.31374e-20)
(0.531457 -0.626685 0)
(1.0219 0.0729161 -3.40812e-22)
(0.303155 -0.342874 9.24928e-20)
(-0.17098 -0.00337701 7.11087e-20)
(1.00934 0.000508673 -3.44812e-22)
(0.0982064 -0.027155 -3.13989e-20)
(0.373177 -0.066015 5.29382e-21)
(1.15176 0.0493145 1.75997e-24)
(0.197549 0.766284 0)
(0.923601 0.126459 -2.86953e-20)
(0.931386 0.0203865 -5.31159e-21)
(1.11824 0.185456 -1.70305e-20)
(1.00549 0.0147428 -1.09338e-21)
(0.680365 -0.0366788 6.3912e-21)
(1.01121 0.0119766 0)
(1.09075 0.0093474 5.18175e-21)
(0.836004 0.0139307 -1.96601e-20)
(0.759112 0.233811 -4.28853e-20)
(1.20843 0.276332 -7.322e-21)
(1.08825 -0.0603987 -6.32634e-21)
(-0.0761859 -0.0109726 -1.0478e-20)
(1.06738 0.0307607 -1.91136e-21)
(-0.321554 0.00159373 3.70931e-20)
(1.00003 0.000299522 2.06701e-21)
(1.00598 0.0663417 -2.18544e-21)
(1.03442 0.125991 -3.97858e-22)
(0.631785 0.152091 -3.8442e-20)
(0.996594 0.0112777 3.91357e-21)
(0.888906 0.326158 -4.42819e-21)
(1.01112 0.00050738 -5.74793e-23)
(1.13718 0.0076061 0)
(0.870497 0.238415 9.51645e-21)
(1.0075 0.0177191 -1.26516e-22)
(0.99397 0.00922786 -6.3796e-21)
(1.10561 0.0718848 -8.73732e-21)
(0.566644 0.00225009 -1.23103e-19)
(1.08711 -0.0459784 6.94436e-21)
(1.25614 0.307899 -9.57116e-21)
(1.04485 0.0777374 0)
(0.733916 -0.0972133 -6.63201e-21)
(1.0567 -0.091757 0)
(1.06848 -0.0754794 5.15245e-23)
(1.0051 0.0283951 5.20501e-22)
(0.875402 0.170388 -2.92615e-20)
(1.2826 0.142639 0)
(0.0895732 -0.0235245 6.20731e-21)
(1.04299 0.0783131 0)
(1.00872 0.0120526 -7.79385e-22)
(0.262315 -0.278115 0)
(1.14247 -0.052364 2.61132e-20)
(0.996338 0.0158236 0)
(0.273558 -0.352401 -5.01015e-20)
(0.999943 0.00041051 -4.63046e-21)
(0.448698 0.720752 0)
(0.734815 0.686039 0)
(0.999915 3.29725e-05 2.86524e-21)
(1.00572 0.0145938 2.92724e-21)
(1.15046 0.339299 0)
(1.06516 -0.0616715 0)
(1.0321 0.0828688 -1.12568e-21)
(1.08577 -0.00377612 8.4364e-21)
(-0.283293 0.00455396 3.94637e-20)
(0.999965 0.000298282 -4.69457e-21)
(1.02104 0.0651206 0)
(-0.319131 -0.00391519 0)
(0.953 0.0311101 2.44247e-20)
(1.18479 0.0689469 0)
(1.00281 0.0204704 -1.17901e-21)
(1.02953 -0.000422785 0)
(1.01993 0.0234391 1.33051e-24)
(-0.0561902 -0.00662506 -1.21687e-22)
(1.0858 -0.0257432 -2.27059e-21)
(0.998748 0.00181575 -2.60455e-21)
(0.151761 0.00412294 -2.49129e-21)
(1.00827 0.0179765 -8.91177e-22)
(1.06797 -0.0263747 4.80588e-21)
(0.0788604 -0.0235002 -1.49913e-20)
(0.999468 -0.000101861 9.88302e-21)
(0.507566 -0.0384762 2.28606e-21)
(1.12555 0.0319772 -2.78895e-21)
(1.01994 0.0195657 -3.02891e-22)
(0.950128 0.0232873 -1.17706e-20)
(1.01566 0.00552833 -2.08301e-22)
(-0.320197 0.00192198 0)
(-0.199777 -0.0120043 3.75612e-20)
(0.966117 -0.111031 0)
(1.03773 -0.00530595 0)
(-0.265689 -0.00267071 1.23188e-20)
(-0.238778 -0.00731225 0)
(1.01532 0.00526992 -1.9907e-22)
(0.0972655 0.00494327 -4.21815e-21)
(0.955394 0.209686 -1.18081e-21)
(1.00001 0.000428478 0)
(1.01237 0.00825568 -6.69149e-22)
(1.00773 0.0408553 0)
(1.03398 0.0825267 3.01714e-21)
(-0.308997 -0.00173963 0)
(1.01036 0.0106883 0)
(0.999951 1.14841e-05 0)
(0.760257 0.223185 -1.87447e-20)
(1.02256 -0.0812905 2.47772e-21)
(0.999293 0.00370565 -6.88328e-21)
(-0.282464 0.00628438 -4.80402e-20)
(0.161482 -0.033687 1.08637e-20)
(0.143559 -0.0388317 3.15165e-20)
(1.02953 -0.000792648 0)
(1.06436 0.0276981 0)
(0.999991 0.000171698 0)
(1.02321 0.0696978 -1.95599e-22)
(1.1838 0.0261671 9.86879e-21)
(1.00505 0.0122283 3.03383e-21)
(0.991632 0.0659633 5.16909e-21)
(1.00001 0.000317303 0)
(1.07745 0.0178954 1.2129e-20)
(1.03976 0.0834653 -2.77952e-21)
(0.864076 -0.0846726 -1.76807e-20)
(1.24343 0.29131 0)
(1.17113 -0.0941752 0)
(0.993901 0.125364 0)
(0.868361 0.169066 1.56175e-20)
(1.09338 -0.028639 1.96445e-21)
(1.0328 0.0214504 7.36868e-22)
(1.02848 0.0111749 5.83698e-22)
(1.01663 0.0308545 3.1962e-23)
(0.938409 0.449812 -9.66405e-22)
(0.672101 -0.0418985 3.38126e-20)
(1.03518 0.157486 5.41724e-20)
(0.0720259 -0.0198367 3.21712e-20)
(0.050099 -0.0256282 3.25851e-20)
(1.01078 0.0108052 -5.88674e-22)
(0.361877 -0.00335346 8.43542e-21)
(1.0194 0.0210465 1.06519e-22)
(0.99896 0.00263841 0)
(0.0929692 -0.439231 -1.39578e-19)
(1.00404 0.0142792 -2.30854e-21)
(-0.224148 0.00234287 6.99234e-20)
(1.1083 -0.050286 -3.85089e-20)
(-0.242832 -0.000974168 5.29706e-20)
(-0.294022 -0.00221679 0)
(0.158551 0.00124875 0)
(0.993254 0.0170306 -1.87067e-21)
(0.959261 0.213538 1.21932e-21)
(0.259779 -0.226513 -1.05763e-19)
(1.11618 0.0381056 4.85424e-21)
(0.202799 -0.0150537 2.09379e-20)
(0.607925 -0.189817 -4.21536e-20)
(1.01233 0.0113956 -4.45012e-22)
(0.539344 -0.0395578 0)
(0.991155 0.000155399 4.38189e-21)
(0.266674 -0.0342375 -6.19213e-21)
(-0.0635385 0.0111217 -2.38444e-20)
(0.995159 0.0457858 5.90112e-21)
(1.02677 0.00297025 2.84489e-21)
(0.525944 -0.0398458 -3.71412e-21)
(1.01185 0.00856203 6.29692e-22)
(1.02487 0.0480885 0)
(1.07857 0.56919 5.16097e-20)
(1.10844 -0.0989214 -1.49175e-20)
(-0.152041 -0.0175761 0)
(0.938825 -0.0521578 4.72286e-22)
(0.993481 0.017514 -3.18362e-23)
(1.09093 0.00784636 0)
(0.987696 0.0577411 -4.65434e-21)
(0.762316 0.0930506 -4.95434e-22)
(1.02795 0.0112277 5.19766e-22)
(0.395073 -0.0101245 -3.33695e-21)
(1.12687 0.0303636 3.83992e-22)
(1.0015 0.0267803 2.79161e-21)
(-0.253276 -0.00632354 0)
(-0.227216 0.000566098 0)
(1.07969 -0.0696909 3.59147e-21)
(1.08714 -0.0260992 -2.50679e-21)
(0.99429 0.00878867 3.52149e-22)
(0.995219 0.00518505 -2.36161e-21)
(1.12971 -0.110558 9.57655e-21)
(1.08676 0.152779 4.13159e-22)
(1.04961 0.0638771 6.07433e-21)
(1.09018 -0.0779376 1.17788e-21)
(0.407403 -0.0137659 0)
(1.1242 0.269967 0)
(1 7.18891e-05 -1.99263e-21)
(0.995547 0.00571645 4.66625e-21)
(1.15062 0.0850166 0)
(1.0367 0.0126877 -3.45217e-21)
(0.432114 -0.069283 1.75992e-20)
(1.23339 0.0976421 -4.23966e-20)
(0.082344 -0.759353 0)
(0.94657 0.0256777 2.74724e-21)
(0.308697 0.833851 -9.63444e-21)
(1.01382 0.0315129 9.91553e-22)
(0.414209 -0.0672831 -1.6765e-20)
(1.0346 0.178595 0)
(0.0733748 -0.00855737 1.00705e-19)
(0.884494 0.179525 0)
(-0.2507 -0.00875067 6.93215e-20)
(0.942848 0.00657875 4.85786e-22)
(1.10871 0.0366588 2.2232e-20)
(-0.285044 -0.00266941 2.99224e-20)
(1.06669 0.0115824 -1.43515e-22)
(0.568202 -0.0118711 8.63271e-20)
(1.1324 -0.108012 -8.3833e-21)
(0.993287 0.0658305 0)
(1.0866 -0.0605145 0)
(1.09062 -0.0461519 4.10627e-21)
(0.0403456 0.0033768 4.81707e-21)
(0.892683 0.0434454 -1.68887e-20)
(1.01092 0.00407544 -3.43745e-22)
(0.00599534 -0.0165328 -1.74802e-20)
(0.998609 0.00178174 0)
(1.03899 -0.00422723 0)
(1.17647 0.247839 -3.42659e-20)
(-0.289172 -0.00404462 0)
(1.07937 -0.0634593 0)
(-0.299586 -0.00180852 0)
(1.01855 0.123724 0)
(1.00051 0.00368745 -2.76443e-21)
(0.329686 -0.0287342 0)
(1.19533 -0.0636266 3.60644e-20)
(1.00013 0.00206574 -1.92987e-22)
(0.849516 -0.0827707 0)
(1.16037 0.00626362 1.42198e-20)
(-0.0618136 -0.0124836 5.44026e-21)
(1.00919 0.0112729 8.85979e-22)
(0.95316 0.0327225 -2.44872e-20)
(1.14875 0.0494036 -2.50865e-23)
(1.01326 0.031082 0)
(0.803736 0.147604 -2.50351e-20)
(1.01963 0.0206187 -8.1082e-23)
(0.899975 0.138347 1.10946e-20)
(-0.287064 0.00295694 2.02267e-21)
(0.273163 -0.0429862 -1.64848e-20)
(0.924325 0.00465486 0)
(0.877581 0.179361 -1.52847e-20)
(0.433917 0.779986 -1.15554e-20)
(0.993585 0.0443133 0)
(1.00411 0.013841 2.18473e-21)
(1.00724 0.0229006 2.91011e-21)
(1.17836 0.19737 3.34929e-20)
(1.19541 -0.0618592 -2.53602e-20)
(1.04892 0.0244375 5.30989e-21)
(1.00207 0.00788608 -2.33627e-21)
(1.06249 0.154382 -3.82431e-21)
(1.11583 0.000317782 0)
(0.344927 -0.043441 2.61391e-20)
(0.851643 0.0995566 2.20764e-20)
(0.901599 0.406473 4.01039e-21)
(0.346327 -0.467301 0)
(0.37244 0.297123 0)
(0.975432 0.0255921 -1.15691e-22)
(0.388981 -0.0634502 8.7841e-21)
(0.172642 0.00327011 0)
(1.09322 0.0864805 0)
(-0.224796 0.00510285 -4.98206e-20)
(0.996612 0.0162093 4.21691e-23)
(1.04907 0.0628873 2.01032e-21)
(0.4912 0.924118 2.71862e-21)
(1.0069 0.00727459 1.63349e-21)
(0.873897 0.0571132 5.18566e-20)
(0.804094 0.807578 0)
(-0.0502935 -0.0099163 2.83585e-21)
(0.953884 0.115534 2.27228e-21)
(0.137311 -0.0108347 0)
(1.07739 0.0480948 0)
(0.905894 0.11577 0)
(1.00302 0.00397144 -1.87628e-21)
(-0.147247 -0.00967053 0)
(1.12429 -0.0189166 2.04321e-20)
(-0.282811 -0.00260994 0)
(0.996141 0.123459 3.49669e-21)
(1.00209 0.007773 1.58e-23)
(1.07002 0.0319563 0)
(1.00762 0.0121516 0)
(1.20616 -0.0116774 2.63421e-20)
(1.09282 -0.0825413 1.0949e-20)
(1.14829 0.0413001 0)
(1.2293 0.0989937 3.61934e-20)
(1.17296 0.19752 -3.18811e-20)
(1.07631 0.0469275 3.782e-21)
(1.32205 0.271276 -4.106e-20)
(1.06376 0.357532 1.39649e-20)
(1.16059 -0.0518504 0)
(1.2423 0.335747 -1.59384e-22)
(0.998519 0.170669 2.67903e-21)
(1.20185 0.118419 -5.70474e-20)
(-0.309933 -0.000358015 0)
(0.991661 0.00353855 0)
(1.00006 4.89588e-05 1.14928e-21)
(0.979063 0.215029 2.67805e-21)
(0.904211 0.14094 -5.60035e-21)
(1.02453 -0.06265 0)
(0.857173 0.118903 -3.67957e-21)
(1.01296 0.00695013 -2.15993e-22)
(1.20415 -0.00549057 3.60978e-22)
(1.01577 0.0354843 0)
(0.945468 0.00057476 0)
(1.02076 0.0405432 0)
(1.0001 0.00132886 4.79097e-23)
(1.00003 0.000882151 0)
(1.06026 0.0308305 -7.43398e-21)
(1.00007 0.00137943 3.3111e-21)
(1.09575 -0.02817 -6.5004e-21)
(1.00793 0.0187785 -1.18884e-22)
(0.851044 0.0393043 4.19192e-20)
(-0.178218 -0.0145184 -8.15116e-20)
(0.0605597 0.0415728 -1.84484e-19)
(1.04155 0.0218116 6.92894e-21)
(1.00195 0.00704991 -9.04272e-22)
(0.219404 0.00013827 0)
(1.03449 0.0307089 1.68976e-21)
(1.14058 -0.0525476 -1.89827e-20)
(1.0188 0.0102839 0)
(1.1616 0.341024 1.02662e-20)
(1.09009 -0.0481859 0)
(0.0207596 -0.0172452 -1.85768e-20)
(0.673991 -0.102717 0)
(1.01466 0.0316333 0)
(1.03122 0.0426843 1.71904e-21)
(0.784856 0.0930422 2.39418e-20)
(1.15283 0.0570731 6.79194e-21)
(0.99996 0.000182261 2.15209e-21)
(1.26615 0.232424 6.79526e-20)
(1.00002 0.000166741 4.36363e-22)
(1.06238 0.275635 -4.15279e-22)
(0.998827 0.00208251 0)
(1.0236 0.0476336 -6.20379e-23)
(0.120751 0.140676 1.76173e-21)
(1.18865 -0.0545598 -1.79867e-20)
(1.01832 0.00959879 -4.19414e-22)
(1.25377 0.0179146 -5.0432e-20)
(1.2465 0.0644647 0)
(1.0897 0.258487 0)
(1.07479 0.0671012 0)
(1.03684 0.00466731 0)
(-0.296278 -2.2748e-05 0)
(0.931481 -0.00985018 -8.2452e-21)
(0.185251 -0.0404522 -4.05399e-20)
(1.0584 0.00811929 5.07873e-21)
(0.780254 0.118767 -5.80894e-20)
(0.983462 0.00663149 2.896e-21)
(1.00003 0.00073712 0)
(0.966066 0.0241505 0)
(-0.148837 -0.00835021 1.78186e-20)
(0.745105 0.0512719 2.6667e-20)
(1.19661 -0.0562552 -1.65215e-20)
(-0.316401 -0.00255605 0)
(-0.261011 0.00865387 -3.63015e-20)
(0.402677 -0.0311648 4.91979e-24)
(1.01827 0.00922117 4.35519e-22)
(1.01187 0.0310163 -2.39997e-21)
(1.14098 -0.0629311 0)
(-0.184147 -0.00481965 3.28133e-22)
(0.278242 0.00524137 -4.55652e-21)
(1.13336 0.0865586 1.2323e-21)