/*--------------------------------*- C++ -*----------------------------------*\
| =========                 |                                                 |
| \\      /  F ield         | OpenFOAM: The Open Source CFD Toolbox           |
|  \\    /   O peration     | Version:  v2012                                 |
|   \\  /    A nd           | Website:  www.openfoam.com                      |
|    \\/     M anipulation  |                                                 |
\*---------------------------------------------------------------------------*/
FoamFile
{
    version     2.0;
    format      ascii;
    class       volVectorField;
    location    "100";
    object      U_0;
}
// * * * * * * * * * * * * * * * * * * * * * * * * * * * * * * * * * * * * * //

dimensions      [0 1 -1 0 0 0 0];


internalField   nonuniform List<vector> 
27802
(
(0.987005 0.0611384 8.66741e-21)
(1.00001 0.000102404 0)
(0.944752 0.0267905 9.10347e-21)
(1.0745 -0.0252778 -5.45537e-21)
(1.00421 0.0218185 0)
(1.30874 0.0686313 0)
(1.00459 0.0216299 0)
(1.19613 0.101356 -3.95271e-20)
(1.01852 0.0167006 -1.34427e-22)
(1.11374 -0.101599 0)
(0.820194 -0.044803 7.14036e-21)
(0.380977 0.470916 -7.52296e-20)
(1.06144 0.118605 -5.72199e-21)
(0.562436 -0.120045 -3.92055e-20)
(0.310547 -0.0424254 -3.15501e-20)
(-0.177283 0.0150219 -7.27354e-20)
(0.00211291 0.0224191 -3.82423e-20)
(1.01894 0.0172424 9.63017e-23)
(0.796242 -0.0478722 0)
(0.0685417 0.00743905 8.86592e-21)
(0.723885 0.052725 2.63261e-20)
(0.319714 -0.0426987 0)
(1.02615 0.0066405 5.98966e-22)
(1.1154 -0.0529189 0)
(1.23419 0.290766 1.39629e-20)
(0.927887 0.157162 7.25888e-21)
(1.00672 0.0105507 0)
(1.08726 -0.030223 -8.03688e-21)
(1.01283 0.000538056 -2.86742e-25)
(-0.272322 0.00255919 7.49664e-20)
(1.11431 -0.0537657 -1.31544e-20)
(1.15069 0.102217 -6.44917e-21)
(0.988348 0.0600254 -8.3087e-21)
(1.02444 -0.000840205 -6.98813e-22)
(0.999266 0.000310927 5.6861e-21)
(-0.244651 -0.00238603 -3.2409e-20)
(-0.277609 -0.00494406 3.26459e-20)
(1.02397 0.0107977 0)
(1.03635 0.00435993 0)
(-0.201141 -0.0106125 0)
(0.415398 0.462649 3.28891e-20)
(0.999351 0.000169444 -3.7482e-21)
(1.09101 0.0177644 0)
(1.02188 0.0009683 8.09891e-22)
(0.949985 0.129803 -1.98226e-21)
(-0.074004 0.0110077 -3.15336e-21)
(0.995855 0.00583514 -1.70062e-22)
(-0.154957 0.0215945 0)
(0.0218685 -0.191404 7.33099e-20)
(0.528581 -0.0431439 -4.39788e-21)
(0.336767 -0.0423762 -2.86853e-20)
(0.930603 0.162031 -7.34398e-21)
(-0.161924 -0.00697455 0)
(0.506357 0.830239 9.40602e-21)
(1.03453 0.00885938 1.5774e-21)
(1.00059 0.00021357 0)
(1.1543 -0.0686488 2.03117e-20)
(0.994692 0.0132328 0)
(0.959817 0.112308 6.62549e-21)
(1.20366 0.112293 0)
(0.266317 0.00591106 0)
(0.94129 0.00764545 0)
(1.03276 0.119585 -1.49142e-21)
(1.01655 0.00266847 7.19412e-22)
(1.02204 0.00136082 0)
(1.02251 0.0399691 4.14508e-23)
(0.983629 -0.10317 1.31467e-22)
(1.1566 -0.0684529 0)
(1.2042 0.11661 3.25951e-20)
(1.01448 0.0377065 -1.05633e-21)
(1.02193 0.000756651 1.32579e-23)
(0.353032 -0.0610991 -1.24259e-20)
(0.413998 -0.054914 0)
(1.08305 -0.0704368 0)
(0.924163 -0.00368753 -2.01667e-20)
(1.05825 -0.0139246 4.85573e-23)
(0.990094 -0.104927 9.7162e-23)
(-0.291057 0.00471718 6.5546e-23)
(0.161947 0.00432616 1.14731e-20)
(-0.159384 -0.00351326 0)
(1.01235 0.0005264 2.77659e-25)
(1.00863 0.011337 -1.883e-21)
(0.814651 0.188582 0)
(1.02298 0.0678046 1.76817e-22)
(1.03174 0.0344903 0)
(1.11781 0.0366791 -9.3605e-21)
(1.00008 0.000739609 1.28912e-21)
(0.256384 -0.0430037 0)
(-0.316718 0.00143347 -5.50445e-20)
(0.981036 0.00325496 8.22148e-21)
(0.998429 0.0153977 1.48124e-22)
(0.183537 0.00333792 -1.62885e-20)
(1.01868 0.0143114 0)
(-0.196536 0.00261141 7.16991e-20)
(0.347218 -0.0511797 -7.04034e-21)
(1.09832 -0.0269308 7.60304e-21)
(1.00888 0.0117875 1.28167e-21)
(1.09417 -0.0279146 4.51391e-21)
(0.991433 0.000523877 -6.60118e-21)
(1.14766 -0.100483 -1.21522e-20)
(1.03659 0.00371913 6.27526e-21)
(1.0287 0.00962442 0)
(0.276863 0.774457 8.68699e-21)
(0.251995 0.00358886 0)
(0.424124 -0.0546854 -2.35335e-20)
(1.03176 0.123097 -2.04502e-21)
(0.985553 0.0145083 -4.59908e-21)
(1.0222 0.00115646 -1.8406e-21)
(1.03405 0.00852892 1.37412e-21)
(0.945998 0.127532 4.34849e-21)
(-0.189724 0.0113477 5.3021e-20)
(0.998212 0.0151407 4.98697e-22)
(1.02438 -0.000622633 -1.22709e-21)
(0.991622 0.00225055 -6.34879e-21)
(0.984787 0.0144183 0)
(1.01627 0.00227626 7.15139e-22)
(1.07531 0.0772183 6.92559e-22)
(0.807489 0.490707 0)
(0.126434 -0.0260274 1.14385e-20)
(1.22983 0.282883 -4.78062e-20)
(0.0743718 0.00646181 0)
(1.19935 0.109315 0)
(-0.0769864 -0.0124461 -1.50485e-22)
(0.79119 0.497023 -2.07592e-20)
(0.41322 0.205955 -4.38992e-20)
(0.708588 0.360504 -2.51195e-20)
(1.03163 0.0518009 2.32814e-21)
(1.07939 0.0142599 1.17319e-20)
(0.201585 0.0772592 -9.40671e-20)
(1.02486 -0.00020912 -1.30554e-21)
(1.1682 -0.0145486 1.76631e-20)
(1.1447 0.0653868 -1.38071e-20)
(1.0058 0.0488723 6.92522e-21)
(-0.25207 0.00916042 8.75207e-20)
(-0.072733 -0.00351974 -2.26667e-20)
(1.06263 -0.00109979 0)
(0.678825 -0.0891016 0)
(0.550432 -0.10768 2.21769e-20)
(0.99375 0.00772926 -5.47648e-21)
(1.00532 0.0479861 -7.41014e-24)
(0.581221 -0.116153 0)
(1.11735 -0.103948 4.04377e-21)
(0.846883 0.0427234 -1.53145e-20)
(0.929497 0.173393 -8.01381e-21)
(1.02361 0.0110586 0)
(0.374381 -0.024304 3.7108e-21)
(0.897154 0.097773 -1.90872e-20)
(1.1049 -0.0153081 -1.3616e-20)
(1.0397 0.0045087 0)
(1.16323 -0.0985654 2.10433e-20)
(0.967163 0.174229 0)
(1.32857 0.135536 2.62361e-20)
(1.09088 0.0194641 2.48079e-20)
(-0.0590841 -0.0188652 -2.26947e-20)
(1.00004 5.64405e-05 4.59981e-22)
(0.127654 0.00386543 -6.86441e-21)
(1.06146 -0.000538386 0)
(1.09891 -0.0279785 -1.93198e-20)
(1.02281 0.0020905 -1.19044e-21)
(0.999397 0.00394152 -1.15056e-21)
(1.0166 0.00250668 -8.39825e-22)
(1.02165 0.0396014 0)
(0.381769 -0.0357118 4.7851e-20)
(1.01247 0.00793837 4.44911e-22)
(1.00008 0.00122357 4.40555e-23)
(1.00003 0.000374677 0)
(0.391168 -0.0523973 4.57192e-20)
(1.0098 0.0222306 1.05113e-21)
(1.00599 0.0471383 -3.10786e-21)
(0.976267 0.0471164 -5.60918e-21)
(1.09499 0.254733 1.52723e-20)
(-0.0802902 -0.00692795 -2.89416e-21)
(-0.0133095 0.0130254 -1.02706e-19)
(1.09711 0.560855 -7.26401e-20)
(1.00712 0.0173381 2.02814e-21)
(1.20903 0.000644768 -1.74273e-20)
(-0.214042 -0.000601238 -8.4895e-21)
(0.82724 -0.0535411 -2.5828e-20)
(1.01632 0.00212987 -6.97304e-22)
(0.98611 0.0137422 0)
(1.07689 0.521739 3.12794e-20)
(0.487494 -0.057114 6.03233e-21)
(-0.294818 -0.00401969 0)
(0.706426 -0.0880584 0)
(1.02284 0.00270186 -5.14021e-22)
(0.424414 -0.0605557 7.74981e-20)
(0.140184 0.0343705 -6.17276e-20)
(0.159456 -0.947635 0)
(1.11266 -0.0786634 -1.42368e-20)
(0.0459732 0.0620487 8.28744e-20)
(0.230949 -0.041389 -8.03596e-20)
(1 5.75909e-05 0)
(0.950444 0.0248916 1.19517e-20)
(1.18834 -0.0648598 -1.71593e-20)
(1.03453 0.00326383 -2.73579e-21)
(1.32454 0.140191 6.59205e-21)
(0.0925953 -0.00117535 -4.69835e-21)
(0.660841 -0.0487381 0)
(1.18914 -0.0633555 -3.02537e-20)
(0.838398 -0.100773 0)
(1.03511 0.303175 -3.73902e-21)
(0.999483 0.00375121 0)
(0.988851 0.0566049 0)
(1.07574 0.0753598 0)
(0.242577 -0.0407883 -5.08723e-20)
(1.15458 0.036273 2.19019e-20)
(1.00928 0.0220359 -2.32582e-21)
(1.0199 0.0179544 2.82119e-22)
(-0.24339 -0.00614701 -7.34236e-20)
(1.03058 0.0145981 -2.12733e-21)
(1.03922 0.00483196 -8.31462e-22)
(0.826009 -0.08486 8.83025e-21)
(1.07536 -0.024371 5.90345e-21)
(-0.267383 -0.00025886 0)
(1.02239 0.00203846 9.63711e-22)
(1.00704 0.0107852 0)
(1.16602 -0.0138252 2.95872e-20)
(0.965417 0.0227979 7.54755e-21)
(0.997342 0.0162361 -2.75461e-21)
(0.999991 0.000120078 0)
(0.349488 -0.0510915 -6.70438e-21)
(1.00546 0.0221365 4.59646e-21)
(0.985878 0.0221334 1.21104e-22)
(1.18933 -0.0347578 -1.31217e-20)
(0.975579 0.023807 0)
(1.1764 -0.0517913 1.06342e-20)
(1.04326 0.040887 -2.08623e-21)
(1.10599 -0.0166056 1.52193e-20)
(1.02149 0.000151487 -8.78257e-22)
(0.976243 0.0244037 -1.33149e-20)
(0.991826 0.00309509 0)
(1.09505 0.0887713 1.53166e-20)
(1.16888 -0.0544741 0)
(0.999326 -6.37989e-05 4.40715e-21)
(1 6.49163e-05 0)
(-0.301388 0.00442847 -2.82223e-20)
(0.669541 -0.0847661 -1.72984e-20)
(0.768919 0.252191 0)
(1.0322 0.0505784 -1.42243e-21)
(0.175867 0.680659 0)
(-0.0182056 0.00829575 0)
(-0.172686 -0.0153547 -7.24351e-20)
(0.486354 -0.0558419 2.5008e-23)
(0.308272 -0.0573253 -4.71882e-21)
(0.841671 0.0452649 0)
(1.06302 0.0118803 0)
(1.00536 0.0125674 -3.18747e-21)
(-0.12876 0.0254771 0)
(1.02296 0.00251197 6.36224e-22)
(1.00063 0.000159935 -1.00752e-21)
(1.20794 0.0141429 7.51119e-21)
(1.00451 0.00408083 0)
(1.1734 0.355009 0)
(0.960845 0.0207223 -1.56259e-20)
(0.236484 -0.0386966 -2.39394e-22)
(0.319952 -0.0593969 0)
(1.0843 0.0135884 -7.29147e-21)
(1.16771 0.206542 -2.95646e-20)
(1.01393 0.0404786 -1.48874e-21)
(0.924106 -0.00630235 1.24479e-21)
(1.00509 0.00356539 0)
(-0.128328 -0.0058493 -7.57576e-21)
(0.140123 -0.029548 0)
(1.11182 -0.0769153 1.15353e-20)
(1.01808 0.0374593 5.50843e-22)
(1.00834 0.0247024 3.95042e-21)
(0.962609 -0.00614966 1.8281e-21)
(0.420934 -0.0921466 0)
(0.332234 -0.0608658 0)
(1.14707 0.102556 1.10899e-20)
(-0.276842 0.00450528 0)
(1.08817 0.0552115 2.01946e-20)
(0.882263 0.0443736 -1.31391e-20)
(1.01192 0.00669181 4.82943e-22)
(1.00472 0.00419336 1.12421e-21)
(0.999253 7.59048e-05 -3.05065e-21)
(1.14211 0.0677992 0)
(0.996644 0.00246592 3.05636e-21)
(1.03255 0.014774 1.54436e-21)
(0.319686 -0.0583578 -9.83954e-21)
(0.959862 0.00602226 -1.36968e-20)
(1.09116 0.153275 -6.11321e-21)
(1.20699 0.377243 -4.67446e-20)
(1.08204 -0.0696875 0)
(0.0770547 0.0281587 2.28696e-20)
(1.06846 -0.00942878 7.945e-21)
(0.88208 -0.0541591 0)
(1.01345 0.00893937 -7.81256e-24)
(1.1833 0.248941 3.15267e-20)
(-0.082918 -0.0163241 -2.60817e-20)
(1.26094 0.268427 0)
(0.197916 0.00432699 4.06666e-21)
(-0.143858 -0.00606265 -3.02691e-20)
(0.957815 0.115696 -2.01291e-21)
(1.02119 0.000101808 -7.9177e-22)
(1.01972 0.0400525 0)
(0.958385 0.00638598 -1.85437e-20)
(-0.0652221 0.000837513 0)
(-0.160186 -0.00833257 2.07409e-20)
(1.19998 0.105147 0)
(-0.285605 0.0048084 0)
(1.03801 0.182232 0)
(0.549227 -0.0482578 -2.41502e-21)
(0.928725 0.855899 3.94669e-20)
(0.0394597 -0.022501 8.69305e-21)
(0.996863 0.00252865 9.3569e-22)
(1.17695 -0.00467113 -3.06584e-22)
(1.01529 0.0372122 9.76642e-22)
(0.00963243 -0.0188266 -1.91184e-20)
(1.03 0.0107682 -1.10127e-21)
(0.528617 -0.0409269 -1.20657e-21)
(1.23453 0.0941598 4.59297e-20)
(-0.169851 0.0166822 -1.01786e-19)
(0.994897 0.0137072 6.18592e-22)
(-0.252807 0.00032338 0)
(0.329519 0.106535 -8.51133e-20)
(1.18155 0.0676632 0)
(1.01187 0.000593727 4.73752e-23)
(1.08756 -0.0291999 1.33087e-20)
(-0.26573 0.00309256 -5.06041e-20)
(1.02949 0.0110571 1.21436e-21)
(0.929876 -0.0113376 8.80493e-21)
(1.16214 -0.0391977 0)
(0.543997 -0.0490249 -2.7342e-21)
(0.104013 0.00545575 4.13276e-21)
(1.01912 0.014701 0)
(0.815849 0.179044 2.01893e-20)
(0.6982 -0.152901 0)
(0.868102 -0.105457 3.28217e-21)
(1.00529 0.00386309 1.4142e-21)
(0.744805 -0.0903158 4.1736e-21)
(1.01142 0.00728433 -2.83723e-22)
(0.999486 0.00402895 -1.00615e-20)
(1.16412 -0.0401418 0)
(1.0789 0.540339 -6.6583e-20)
(1.04201 0.0407226 -1.04231e-21)
(0.995588 0.0156587 2.81023e-21)
(0.981742 0.0032149 6.61441e-21)
(1.23265 0.0901132 1.79112e-22)
(1.05907 -0.0133977 -1.08852e-20)
(1.03198 0.0209535 -9.88476e-22)
(1.28754 0.145817 0)
(1.00199 0.0267511 -3.07316e-21)
(1.25566 0.263082 0)
(-0.167726 0.024277 -1.31407e-19)
(-0.3469 -0.00106149 0)
(1.06902 0.0117385 0)
(1.01806 0.0225688 0)
(1.06297 0.0130905 3.61908e-21)
(1.01707 0.0170778 1.60908e-22)
(0.435906 -0.103188 0)
(0.438555 -0.0521042 -6.02744e-20)
(1.00932 0.0110062 0)
(1.16767 0.202817 2.77284e-20)
(1.03546 0.0313648 -3.39377e-21)
(1.03041 0.014041 2.03328e-21)
(0.974928 0.0480481 0)
(1.01514 0.0310686 -1.43728e-21)
(-0.019484 0.0112789 2.22173e-20)
(1.01077 0.00198316 6.56005e-22)
(1.17829 -0.0501813 -2.58092e-20)
(1.30671 0.263999 1.59231e-22)
(0.292611 -0.0397119 1.73349e-20)
(1.01988 0.00124788 -6.34526e-22)
(1.03356 0.0209734 -7.03088e-22)
(1.03449 0.0215718 -2.59651e-21)
(-0.148509 -0.0174541 0)
(1.01311 0.00861072 1.48544e-22)
(0.992475 0.518167 0)
(1.02119 -0.000151167 1.7307e-21)
(1.16693 -0.0551318 0)
(1.16963 0.165841 0)
(-0.266921 0.00750498 -3.91467e-20)
(1.06287 0.0274135 -2.02384e-21)
(0.959288 0.0211392 7.43141e-21)
(1.04031 0.0206252 5.72304e-21)
(1.03747 0.293524 1.92706e-21)
(0.99635 0.014197 -4.43503e-21)
(1.11612 -0.0801901 1.25122e-20)
(0.930333 0.0406329 -5.27631e-21)
(0.896857 0.0934087 2.23652e-20)
(0.999568 0.00385324 9.64804e-21)
(0.985065 0.0224523 -7.15232e-21)
(0.999991 0.000141889 2.60552e-22)
(1.03617 0.021433 0)
(-0.248712 -0.00784126 -1.46161e-19)
(0.638592 -0.242185 0)
(1.10916 -0.0543609 -7.82521e-21)
(-0.25589 -0.00668091 -2.07663e-20)
(0.377086 -0.494435 0)
(0.999852 0.0246149 2.23355e-21)
(1.06922 -0.076712 -4.22641e-21)
(0.978981 0.0194713 1.23237e-20)
(1.00835 0.0316416 1.89278e-21)
(0.770337 0.24315 3.41897e-20)
(1.05268 0.0452683 6.3451e-21)
(0.9994 0.00360105 1.21451e-21)
(0.372187 -0.0607379 -1.08213e-20)
(1.30366 0.0730424 -8.50585e-21)
(0.228504 -0.0221965 0)
(1.09198 -0.0475443 -1.58306e-20)
(0.501301 0.107376 0)
(1.00177 0.000339679 1.74607e-21)
(0.996699 0.00130784 0)
(1.0813 -0.0673489 -1.40127e-20)
(-0.160796 0.0170746 9.07335e-20)
(0.996812 0.00293058 8.0281e-21)
(0.910515 0.0318618 0)
(1.17422 -0.00487531 -1.62631e-20)
(1.07757 0.0164273 -5.98322e-21)
(1.03192 0.0144517 -2.7172e-21)
(1.03317 0.129399 -4.35329e-21)
(1.02422 -0.106692 0)
(0.384721 -0.0512712 1.36871e-20)
(1.04134 -0.0922025 2.46557e-21)
(0.207288 0.00444293 0)
(1.00491 0.0041799 -1.00098e-21)
(0.325081 -0.0398499 -5.32892e-20)
(1.02911 0.00929043 0)
(1.11081 -0.101531 1.38693e-20)
(1.08459 -0.00813347 -8.66476e-21)
(-0.141064 0.0283606 -7.51988e-23)
(0.999998 0.000104972 0)
(1.00503 0.0223008 0)
(1.06338 0.076101 6.73433e-21)
(1.0596 0.00292516 -5.21419e-21)
(0.962794 0.1705 0)
(1.00003 0.0253052 2.66018e-21)
(0.997059 0.0158818 1.21169e-21)
(0.68339 -0.111025 2.80712e-20)
(0.993353 0.00771649 7.09e-21)
(1.00858 0.0416804 1.08749e-22)
(1.18816 -0.0330002 2.31114e-20)
(0.997199 -0.0509998 6.88497e-23)
(1.09011 -0.0451 1.07801e-20)
(-0.187004 0.0127201 0)
(1.19704 0.0975982 -2.7026e-20)
(0.606751 0.123307 4.36275e-20)
(1.20533 0.0136804 0)
(1.00854 0.0307911 0)
(0.857497 0.097306 -2.66893e-20)
(-0.0773118 -0.00560016 2.78539e-21)
(1.06911 0.0306027 -8.48999e-21)
(0.996072 0.0138469 -5.34041e-21)
(1.03568 0.13209 6.15519e-21)
(1.06811 -0.00854553 -8.9753e-21)
(0.751139 -0.0792565 2.54628e-20)
(1.05447 0.0215761 1.58689e-22)
(0.991432 0.00272317 0)
(1.00492 0.00400006 1.60082e-21)
(-0.286734 -0.0051414 6.08177e-20)
(0.526445 -0.044419 2.57069e-21)
(1.05463 0.022298 0)
(1.00725 0.00822974 3.97888e-22)
(0.649982 0.135937 -6.70439e-20)
(0.999305 0.00345804 5.275e-21)
(0.979246 -0.111572 0)
(0.999377 0.00384527 5.9686e-22)
(1.03146 0.0353283 -1.26786e-21)
(1.06807 0.0124306 -5.1258e-22)
(1.22875 -0.0121439 1.2611e-20)
(1.01275 0.0387709 1.52051e-21)
(1.02092 -0.00020393 0)
(0.836974 -0.0402179 -1.31134e-20)
(0.994873 0.00585998 0)
(1.13565 0.00609659 1.49326e-20)
(0.109766 -0.022055 -7.39507e-21)
(0.637856 -0.25491 0)
(0.998186 0.0118437 0)
(0.111858 0.00673438 4.10658e-21)
(1.2053 0.369735 4.81289e-20)
(0.614637 0.131163 0)
(-0.0110617 0.0108121 0)
(0.341241 1.20245 -4.95509e-21)
(1.02112 0.0670893 -4.39937e-22)
(1.00315 0.172466 2.98556e-21)
(1.01603 0.00190813 0)
(1.06625 -0.0609559 -8.46505e-21)
(0.997002 0.00302377 -7.3628e-21)
(0.897944 0.334444 -3.93202e-21)
(1.01055 0.0308488 0)
(1.08331 -0.00724796 1.73934e-20)
(0.326447 -0.00136037 9.91297e-22)
(0.356389 -0.0625954 0)
(1.007 0.0078784 7.84629e-22)
(0.986775 0.0140109 -5.12068e-21)
(0.746363 -0.0871448 -3.95014e-20)
(0.965997 0.0217174 -2.21824e-21)
(1.04013 0.0199099 -2.59631e-21)
(1.01043 0.0244182 0)
(1.01052 0.00183283 -7.31878e-22)
(1.19054 0.0293977 3.57514e-22)
(1.10104 -0.00022219 -1.51852e-22)
(0.115947 0.663227 2.83589e-21)
(1.29944 0.30872 5.39937e-20)
(1.01271 0.00139194 -5.65208e-23)
(1.06308 0.298499 -1.17837e-20)
(0.256284 -0.0304496 6.5357e-21)
(0.907856 0.0308291 0)
(1.05713 0.00977677 6.87391e-23)
(1.01959 0.0012895 2.92555e-23)
(1.00007 0.000723356 6.60515e-22)
(0.959254 -0.0750549 0)
(1.21157 3.434e-05 0)
(1.06101 0.156714 4.10204e-21)
(-0.250802 0.00435833 4.5638e-20)
(0.751331 -0.0968708 -2.19971e-21)
(0.992921 0.0123617 0)
(-0.26861 -0.00658665 -1.17559e-20)
(1.01881 0.00990594 0)
(0.72528 0.727799 0)
(1.06176 0.115833 -5.69545e-21)
(1.01074 0.0240055 -1.01074e-21)
(0.924134 0.002039 0)
(1.00265 0.0199883 0)
(1.07933 0.0157491 1.17201e-20)
(-0.175581 0.0105331 0)
(-0.287327 0.000471551 3.20682e-20)
(0.898802 0.00373156 -4.22519e-20)
(-0.262212 -0.00531566 0)
(0.689987 -0.0944907 0)
(1.11521 -0.0784826 -5.89576e-21)
(0.997841 0.0120264 0)
(0.997665 0.0116895 0)
(0.381271 -0.00589568 -8.33146e-21)
(0.966273 0.214535 -3.82626e-21)
(0.999939 0.000185881 -8.43402e-21)
(1.13621 0.0887678 -1.12704e-20)
(1.01506 0.125248 5.3057e-22)
(-0.207982 -0.000587468 0)
(1.08611 -0.0525264 -4.69679e-21)
(-0.0563392 -0.0148612 3.30674e-20)
(0.900601 0.00204726 4.24511e-20)
(1.01308 0.041058 1.80065e-21)
(0.421566 0.937539 0)
(0.992594 0.0121708 7.95689e-21)
(0.995508 0.00691359 4.77243e-21)
(0.932451 0.0189718 -8.11677e-21)
(0.920821 -0.0495624 1.29424e-20)
(1.00877 0.011084 9.54118e-22)
(-0.168445 0.0161108 0)
(0.932663 0.0401886 0)
(0.249893 -0.247623 1.32082e-19)
(0.723848 0.352469 -1.17045e-20)
(-0.0713703 0.00866429 3.10297e-20)
(1.02456 -9.6781e-05 4.55661e-22)
(0.998317 0.0121309 0)
(0.237242 -0.0258704 0)
(1.15313 0.0341218 -1.20229e-20)
(0.99643 0.00676236 0)
(1.15334 0.0830363 0)
(1.05149 0.0459217 3.51012e-21)
(1.00579 0.0285563 0)
(1.01932 0.0194879 1.32587e-22)
(-0.160943 -0.00696459 0)
(1.14123 0.0220017 -2.26048e-20)
(1.22684 -0.0107657 0)
(1.05604 -0.108117 0)
(0.251271 -0.294106 5.80619e-20)
(1.01876 0.0226134 7.14154e-23)
(0.325741 -0.0583076 1.13149e-20)
(0.971214 0.21134 -7.20207e-21)
(1.00621 0.0312707 0)
(0.591944 -0.131853 -1.20129e-19)
(0.0973502 0.00622397 -1.79889e-20)
(1.00312 0.00419987 1.88209e-21)
(0.973537 0.00651012 -4.70265e-21)
(1.00771 0.0112139 -5.49267e-22)
(0.70858 -0.0946367 9.43688e-21)
(1.03748 0.0126755 1.80787e-21)
(1.01609 0.00174383 0)
(1.02671 0.00663037 0)
(1.01877 0.0367822 -8.98515e-23)
(1.00169 0.505025 -3.11447e-21)
(1.03614 0.0120055 0)
(-0.253591 0.00744941 0)
(1.11246 -0.0141128 -1.95432e-20)
(0.999085 0.0236512 -7.84236e-23)
(1.11035 -0.0555886 3.06985e-23)
(1.14236 0.0198847 1.92974e-20)
(0.0602802 -0.0204457 4.20617e-21)
(-0.0103562 -0.016726 -1.20118e-20)
(0.203101 0.00434043 -5.62975e-21)
(1.0126 0.03758 -2.35332e-21)
(1.01673 0.00622661 3.45289e-22)
(1.01283 0.00116111 -2.38463e-23)
(0.114773 -0.00559881 -6.72097e-20)
(1.01116 0.00433633 0)
(0.01921 -0.019945 -2.02378e-20)
(1.28899 0.0717281 2.72524e-20)
(0.864813 0.245713 0)
(-0.292399 -0.00420268 3.42155e-20)
(0.251499 -0.00758144 -5.97951e-21)
(0.995536 0.0469701 0)
(0.990375 0.00151904 -3.80581e-21)
(0.210058 -0.0177432 -1.38116e-20)
(1.08911 -0.0609178 7.39671e-21)
(1.01089 0.0104831 6.45722e-22)
(1.00042 7.44406e-05 -1.65792e-21)
(0.826409 0.0352476 -5.05968e-20)
(1.07844 -0.063672 0)
(0.795205 -0.0426802 0)
(-0.26891 -0.0031151 -1.31349e-20)
(0.531444 -0.626652 0)
(1.02191 0.0729181 -3.46211e-22)
(0.303151 -0.342844 9.25136e-20)
(-0.170963 -0.00337634 7.10823e-20)
(1.00934 0.000508645 -3.48117e-22)
(0.0982856 -0.0271608 -3.13866e-20)
(0.373355 -0.0661482 5.28886e-21)
(1.15177 0.0493191 1.93075e-24)
(0.197553 0.766323 0)
(0.923769 0.12644 -2.86934e-20)
(0.931387 0.0203904 -5.31565e-21)
(1.11824 0.185455 -1.70262e-20)
(1.00549 0.0147449 -1.09677e-21)
(0.680364 -0.0366602 6.39289e-21)
(1.01121 0.0119763 0)
(1.09075 0.00933669 5.18139e-21)
(0.836005 0.0139416 -1.96684e-20)
(0.759121 0.233829 -4.28958e-20)
(1.20856 0.27635 -7.322e-21)
(1.08825 -0.0603686 -6.32751e-21)
(-0.0763873 -0.0109713 -1.04859e-20)
(1.06739 0.0307573 -1.91068e-21)
(-0.321694 0.00159472 3.70847e-20)
(1.00003 0.00029972 2.07366e-21)
(1.00598 0.066343 -2.19069e-21)
(1.03443 0.125995 -3.96875e-22)
(0.63179 0.152112 -3.84496e-20)
(0.996594 0.0112782 3.92193e-21)
(0.888922 0.326172 -4.42986e-21)
(1.01112 0.000507336 -6.10395e-23)
(1.1372 0.00759149 0)
(0.870509 0.238428 9.52008e-21)
(1.00751 0.0177208 -1.26932e-22)
(0.993971 0.00922868 -6.39265e-21)
(1.10562 0.0718859 -8.73529e-21)
(0.566644 0.00227227 -1.23127e-19)
(1.08711 -0.0459871 6.94601e-21)
(1.25616 0.307873 -9.57051e-21)
(1.04485 0.07774 0)
(0.734212 -0.0973357 -6.6235e-21)
(1.05667 -0.0915286 0)
(1.06848 -0.075281 5.18933e-23)
(1.0051 0.0283963 5.21779e-22)
(0.87541 0.1704 -2.92731e-20)
(1.28257 0.14262 0)
(0.0896665 -0.0235855 6.20455e-21)
(1.043 0.0783157 0)
(1.00872 0.0120535 -7.82835e-22)
(0.262311 -0.278086 0)
(1.14246 -0.0524371 2.61149e-20)
(0.996339 0.0158263 0)
(0.273555 -0.35237 -5.01126e-20)
(0.999943 0.00041165 -4.64289e-21)
(0.44871 0.72079 0)
(0.734837 0.686072 0)
(0.999915 3.43531e-05 2.87339e-21)
(1.00572 0.0145958 2.9363e-21)
(1.15049 0.339293 0)
(1.06525 -0.0614973 0)
(1.03211 0.0828716 -1.12254e-21)
(1.08577 -0.00378833 8.43631e-21)
(-0.283314 0.00455414 3.94632e-20)
(0.999965 0.000299175 -4.7073e-21)
(1.02104 0.0651221 0)
(-0.319275 -0.00391923 0)
(0.953001 0.0311133 2.44467e-20)
(1.18479 0.0689637 0)
(1.00281 0.0204733 -1.18185e-21)
(1.02953 -0.000424444 0)
(1.01993 0.0234381 1.49961e-24)
(-0.0562695 -0.00664249 -1.22012e-22)
(1.0858 -0.0257568 -2.2708e-21)
(0.998748 0.00181954 -2.61142e-21)
(0.151411 0.00411642 -2.48969e-21)
(1.00827 0.0179779 -8.94265e-22)
(1.06796 -0.0263844 4.80661e-21)
(0.0789158 -0.0235614 -1.49863e-20)
(0.999468 -9.84036e-05 9.91216e-21)
(0.507716 -0.0383731 2.29157e-21)
(1.12556 0.031972 -2.78877e-21)
(1.01995 0.0195648 -2.96962e-22)
(0.95013 0.0232906 -1.17812e-20)
(1.01566 0.00552829 -2.06564e-22)
(-0.3202 0.00191751 0)
(-0.199652 -0.0119812 3.75562e-20)
(0.966359 -0.111139 0)
(1.03773 -0.00530765 0)
(-0.265581 -0.00268925 1.23164e-20)
(-0.238639 -0.00732505 0)
(1.01532 0.00526985 -1.97325e-22)
(0.0973209 0.0048792 -4.21739e-21)
(0.955406 0.209695 -1.18182e-21)
(1.00001 0.00042877 0)
(1.01237 0.00825493 -6.77347e-22)
(1.00773 0.040855 0)
(1.03399 0.0825295 3.0072e-21)
(-0.308873 -0.00173658 0)
(1.01036 0.0106882 0)
(0.999951 1.24367e-05 0)
(0.760266 0.223202 -1.87492e-20)
(1.02274 -0.0815222 2.47884e-21)
(0.999293 0.00370911 -6.90068e-21)
(-0.282482 0.0062831 -4.80396e-20)
(0.161658 -0.0337629 1.0854e-20)
(0.143569 -0.038718 3.15192e-20)
(1.02953 -0.000794163 0)
(1.06437 0.0276944 0)
(0.999991 0.000171803 0)
(1.02321 0.0696998 -2.05036e-22)
(1.18384 0.0261849 9.86885e-21)
(1.00505 0.0122298 3.0434e-21)
(0.991636 0.0659649 5.17639e-21)
(1.00001 0.00031751 0)
(1.07746 0.0178881 1.21271e-20)
(1.03976 0.0834681 -2.77434e-21)
(0.864288 -0.0849007 -1.76855e-20)
(1.24345 0.291285 0)
(1.17105 -0.094386 0)
(0.993908 0.125369 0)
(0.868369 0.169077 1.56234e-20)
(1.09338 -0.0286543 1.96461e-21)
(1.0328 0.0214506 7.35825e-22)
(1.02848 0.0111742 5.83105e-22)
(1.01663 0.0308535 3.21996e-23)
(0.938433 0.449827 -9.64923e-22)
(0.6721 -0.0418796 3.38214e-20)
(1.03536 0.157472 5.41692e-20)
(0.0721204 -0.0198887 3.21542e-20)
(0.050195 -0.0256345 3.25725e-20)
(1.01078 0.010805 -5.92368e-22)
(0.361997 -0.00333942 8.46863e-21)
(1.0194 0.0210454 9.84511e-23)
(0.99896 0.00264216 0)
(0.0929679 -0.439197 -1.3961e-19)
(1.00404 0.0142811 -2.31508e-21)
(-0.224168 0.002343 6.99229e-20)
(1.10831 -0.0503582 -3.85421e-20)
(-0.2429 -0.00097158 5.29509e-20)
(-0.294003 -0.00221909 0)
(0.158187 0.00124581 0)
(0.993255 0.0170343 -1.87411e-21)
(0.959272 0.213546 1.22037e-21)
(0.259775 -0.226484 -1.05783e-19)
(1.1162 0.0381014 4.85373e-21)
(0.203186 -0.0150578 2.08974e-20)
(0.60792 -0.189794 -4.21656e-20)
(1.01233 0.0113949 -4.48801e-22)
(0.539454 -0.039447 0)
(0.991155 0.000156267 4.39155e-21)
(0.267031 -0.0342489 -6.18052e-21)
(-0.0633651 0.0111103 -2.3807e-20)
(0.995162 0.0457865 5.91053e-21)
(1.02677 0.00296803 2.8451e-21)
(0.526072 -0.039737 -3.72481e-21)
(1.01185 0.00856135 6.35788e-22)
(1.02488 0.048089 0)
(1.07864 0.569203 5.16043e-20)
(1.10827 -0.0989145 -1.49048e-20)
(-0.152044 -0.0175758 0)
(0.938788 -0.0522084 4.72913e-22)
(0.993483 0.0175178 -3.18948e-23)
(1.09093 0.00783529 0)
(0.9877 0.0577423 -4.66039e-21)
(0.76232 0.0930662 -4.95572e-22)
(1.02795 0.0112271 5.1914e-22)
(0.395217 -0.010091 -3.3486e-21)
(1.12688 0.030358 3.83971e-22)
(1.0015 0.0267827 2.7977e-21)
(-0.253134 -0.00633331 0)
(-0.227154 0.000536372 0)
(1.07969 -0.0695922 3.59204e-21)
(1.08714 -0.0261132 -2.50701e-21)
(0.994291 0.00878923 3.52874e-22)
(0.995219 0.00518513 -2.36699e-21)
(1.12956 -0.110614 9.5675e-21)
(1.08677 0.152781 4.1319e-22)
(1.04961 0.063879 6.06783e-21)
(1.09011 -0.0778688 1.17754e-21)
(0.407553 -0.0137231 0)
(1.12422 0.269963 0)
(1 7.19326e-05 -1.99896e-21)
(0.995548 0.0057165 4.67676e-21)
(1.15063 0.0850227 0)
(1.03671 0.0126854 -3.45029e-21)
(0.43228 -0.0694415 1.75904e-20)
(1.23337 0.0976586 -4.23891e-20)
(0.082341 -0.759317 0)
(0.946571 0.0256809 2.74959e-21)
(0.308705 0.833892 -9.63624e-21)
(1.01382 0.031512 9.95908e-22)
(0.414468 -0.0673421 -1.67353e-20)
(1.03461 0.178599 0)
(0.073442 -0.00861577 1.00676e-19)
(0.884503 0.179536 0)
(-0.250551 -0.00875361 6.93047e-20)
(0.942848 0.00658242 4.86232e-22)
(1.10873 0.036654 2.22293e-20)
(-0.284914 -0.00266399 2.99175e-20)
(1.06669 0.0115752 -1.43495e-22)
(0.568202 -0.0118486 8.63446e-20)
(1.13219 -0.10807 -8.37597e-21)
(0.993292 0.0658319 0)
(1.0866 -0.0604794 0)
(1.09062 -0.0461592 4.10691e-21)
(0.0403994 0.00331458 4.81624e-21)
(0.892685 0.0434524 -1.68977e-20)
(1.01093 0.00407501 -3.47675e-22)
(0.00592714 -0.0165767 -1.74838e-20)
(0.99861 0.00178551 0)
(1.03899 -0.00422944 0)
(1.17648 0.247828 -3.42613e-20)
(-0.289105 -0.00403836 0)
(1.0794 -0.0633826 0)
(-0.299488 -0.00180444 0)
(1.01855 0.123728 0)
(1.00051 0.00368926 -2.7723e-21)
(0.330033 -0.0287029 0)
(1.19543 -0.0638137 3.60856e-20)
(1.00013 0.00206742 -1.93526e-22)
(0.849721 -0.0829938 0)
(1.16041 0.00625374 1.4221e-20)
(-0.0620125 -0.01248 5.44437e-21)
(1.00919 0.0112735 8.90222e-22)
(0.953162 0.0327257 -2.45093e-20)
(1.14876 0.0494073 -2.52349e-23)
(1.01327 0.0310812 0)
(0.803742 0.147618 -2.50426e-20)
(1.01963 0.0206177 -7.53576e-23)
(0.899982 0.138356 1.10996e-20)
(-0.287028 0.00294246 2.02247e-21)
(0.273118 -0.0428648 -1.64907e-20)
(0.924325 0.00465925 0)
(0.87759 0.179373 -1.52906e-20)
(0.433929 0.780025 -1.15588e-20)
(0.993588 0.0443141 0)
(1.00411 0.0138428 2.19092e-21)
(1.00725 0.022902 2.91861e-21)
(1.17837 0.197363 3.34875e-20)
(1.19551 -0.0620386 -2.53717e-20)
(1.04892 0.0244357 5.3069e-21)
(1.00207 0.00788577 -2.34301e-21)
(1.0625 0.154385 -3.82158e-21)
(1.11584 0.00030108 0)
(0.344861 -0.0434305 2.61631e-20)
(0.851648 0.0995677 2.20848e-20)
(0.901619 0.406488 4.01358e-21)
(0.34632 -0.467268 0)
(0.372431 0.297117 0)
(0.975434 0.025596 -1.15694e-22)
(0.389248 -0.0635037 8.76853e-21)
(0.172273 0.00326793 0)
(1.09323 0.0864825 0)
(-0.22477 0.00507725 -4.98167e-20)
(0.996614 0.0162121 4.22544e-23)
(1.04907 0.0628892 2.0083e-21)
(0.491213 0.924165 2.72197e-21)
(1.0069 0.00727546 1.64064e-21)
(0.874023 0.0570813 5.18444e-20)
(0.804105 0.807601 0)
(-0.0504292 -0.00993954 2.83709e-21)
(0.95389 0.11554 2.27401e-21)
(0.137667 -0.0108442 0)
(1.0774 0.0480934 0)
(0.90606 0.115739 0)
(1.00302 0.00397128 -1.88292e-21)
(-0.147353 -0.00965279 0)
(1.1243 -0.018944 2.04333e-20)
(-0.282795 -0.00261298 0)
(0.996148 0.123464 3.50262e-21)
(1.00209 0.00777272 1.58211e-23)
(1.07003 0.0319527 0)
(1.00762 0.0121529 0)
(1.20608 -0.0115319 2.63424e-20)
(1.09273 -0.0824769 1.09443e-20)
(1.14831 0.041302 0)
(1.22929 0.0990092 3.6187e-20)
(1.17297 0.197513 -3.1876e-20)
(1.07632 0.0469261 3.78065e-21)
(1.32206 0.271237 -4.10575e-20)
(1.06378 0.357536 1.39611e-20)
(1.16061 -0.0519516 0)
(1.24233 0.335725 -1.59479e-22)
(0.998528 0.170675 2.68558e-21)
(1.20184 0.118425 -5.70383e-20)
(-0.309944 -0.00036356 0)
(0.991661 0.00353934 0)
(1.00006 4.89919e-05 1.15308e-21)
(0.979075 0.215036 2.68233e-21)
(0.904218 0.140949 -5.60299e-21)
(1.0245 -0.0624215 0)
(0.857179 0.118914 -3.68098e-21)
(1.01296 0.00694946 -2.20906e-22)
(1.20425 -0.00545571 3.61457e-22)
(1.01577 0.0354835 0)
(0.945468 0.000578402 0)
(1.02077 0.0405429 0)
(1.0001 0.0013299 4.80498e-23)
(1.00003 0.00088282 0)
(1.06026 0.030828 -7.43104e-21)
(1.00007 0.00138056 3.32041e-21)
(1.09575 -0.0281862 -6.50088e-21)
(1.00793 0.01878 -1.19277e-22)
(0.851046 0.0393143 4.19371e-20)
(-0.178092 -0.0144909 -8.15001e-20)
(0.0605611 0.0416001 -1.8451e-19)
(1.04156 0.0218105 6.92383e-21)
(1.00195 0.00704969 -9.06926e-22)
(0.219504 0.000143267 0)
(1.03449 0.0307095 1.68692e-21)
(1.14057 -0.0526179 -1.89843e-20)
(1.0188 0.0102837 0)
(1.16162 0.341017 1.02652e-20)
(1.09009 -0.0481907 0)
(0.0207218 -0.0172951 -1.85776e-20)
(0.673987 -0.102698 0)
(1.01466 0.0316324 0)
(1.03122 0.042685 1.71327e-21)
(0.78486 0.0930567 2.39491e-20)
(1.15285 0.057079 6.79132e-21)
(0.99996 0.000183208 2.1581e-21)
(1.26615 0.232391 6.79472e-20)
(1.00002 0.000166842 4.37736e-22)
(1.06239 0.275638 -4.15284e-22)
(0.998827 0.0020863 0)
(1.0236 0.047634 -6.75637e-23)
(0.120739 0.140664 1.76199e-21)
(1.18877 -0.0547307 -1.79982e-20)
(1.01832 0.00959866 -4.16926e-22)
(1.25377 0.0180279 -5.04199e-20)
(1.24647 0.0645102 0)
(1.08971 0.258486 0)
(1.07479 0.0671023 0)
(1.03684 0.00466364 0)
(-0.296294 -2.9879e-05 0)
(0.93148 -0.00984617 -8.25218e-21)
(0.185252 -0.0403345 -4.05442e-20)
(1.0584 0.00811274 5.07804e-21)
(0.78026 0.118782 -5.81059e-20)
(0.983463 0.00663625 2.90084e-21)
(1.00003 0.000737661 0)
(0.966067 0.0241541 0)
(-0.148958 -0.00832707 1.7828e-20)
(0.745222 0.0512316 2.66618e-20)
(1.19673 -0.0564402 -1.65321e-20)
(-0.316278 -0.00256465 0)
(-0.261028 0.00865621 -3.63009e-20)
(0.402947 -0.0311009 4.98096e-24)
(1.01827 0.00922109 4.32953e-22)
(1.01187 0.0310157 -2.40886e-21)
(1.14095 -0.0630138 0)
(-0.184274 -0.00480475 3.27752e-22)
(0.278107 0.00526123 -4.54524e-21)
(1.13337 0.0865625 1.23208e-21)
(1.05102 0.0118576 -2.65852e-22)
(1.02523 0.0076894 0)