/*--------------------------------*- C++ -*----------------------------------*\
| =========                 |                                                 |
| \\      /  F ield         | OpenFOAM: The Open Source CFD Toolbox           |
|  \\    /   O peration     | Version:  v2012                                 |
|   \\  /    A nd           | Website:  www.openfoam.com                      |
|    \\/     M anipulation  |                                                 |
\*---------------------------------------------------------------------------*/
FoamFile
{
    version     2.0;
    format      ascii;
    class       volScalarField;
    location    "100";
    object      ddt0(k);
}
// * * * * * * * * * * * * * * * * * * * * * * * * * * * * * * * * * * * * * //

dimensions      [0 2 -3 0 0 0 0];


internalField   nonuniform List<scalar> 
27915
(
-6.34775e-08
-9.49874e-07
7.69757e-05
0.000499653
2.36085e-07
-9.76394e-08
0.00325587
-1.3012e-07
3.77596e-07
-2.11832e-07
1.30207e-08
-6.30386e-08
-3.8817e-06
-0.000637502
-0.00455273
9.03375e-08
0.00197193
-6.75113e-08
-0.0019216
4.41734e-08
-0.00060414
-8.78469e-08
0.0021482
-6.20502e-08
3.7662e-09
-5.47671e-08
4.47914e-08
2.47999e-06
0.000504831
-0.000439477
-3.90479e-07
3.97412e-09
0.0015118
4.34121e-08
-0.00151289
4.42445e-08
-4.4748e-08
-9.96584e-08
1.62138e-06
-8.04297e-08
4.03507e-09
-8.4867e-08
2.41025e-10
1.38992e-06
-6.66102e-06
2.49516e-10
-3.90907e-08
-3.45142e-08
-4.31195e-08
6.23092e-08
-4.81881e-08
1.57674e-06
2.95164e-06
-8.79395e-08
-0.000110826
0.000450889
-0.00296024
1.61461e-08
-8.68765e-08
8.73629e-05
4.93584e-09
-3.46073e-08
5.30605e-07
-0.000852885
8.31116e-10
3.68421e-08
-2.85649e-07
-1.2881e-06
-0.00280722
4.10789e-08
-9.57339e-08
-0.000448013
-1.21405e-09
-4.50668e-08
-8.4257e-09
-1.12048e-07
1.16658e-06
4.40076e-08
4.18491e-05
-6.84444e-08
-8.95358e-08
-8.32967e-08
-5.59862e-08
6.24079e-08
0.000611222
7.08902e-09
-4.16378e-08
3.91224e-08
0.000155653
-1.02751e-07
4.04846e-08
0.00095659
9.03957e-08
-4.32836e-07
2.48688e-08
-8.10377e-08
0.00469061
3.80609e-08
-6.39779e-09
-0.00252537
7.11237e-10
3.59216e-10
0.00029561
-9.32883e-08
-2.04492e-09
2.20543e-08
1.76338e-08
-6.97598e-08
-1.09427e-07
-2.38055e-07
-1.02557e-08
2.29723e-08
-0.000629425
-0.00101104
-0.00187291
-6.64062e-06
0.00374469
-3.28097e-08
3.72932e-07
-9.67864e-09
-1.54486e-06
3.61458e-07
-8.56717e-08
-6.69851e-08
-4.37809e-08
-8.49942e-09
2.69082e-08
0.000357086
-8.31317e-07
6.49918e-08
-8.75383e-08
1.06984e-08
8.1054e-09
0.000111237
-0.000649222
6.53751e-05
4.40201e-09
-4.70462e-08
2.43466e-08
6.65938e-09
0.000599206
0.000144642
3.82527e-08
-0.00497957
-6.13702e-08
1.60422e-08
8.62476e-08
-0.00225145
-1.2387e-06
1.73056e-08
1.19723e-08
4.80631e-08
1.00388e-06
0.00167026
5.76023e-07
5.40874e-08
9.57449e-09
-2.23281e-08
1.77555e-08
4.03501e-08
1.60078e-06
1.75227e-07
1.1554e-06
-4.58488e-08
2.32834e-08
-2.0678e-08
1.06297e-05
-1.28114e-06
8.49158e-09
-8.55556e-07
0.00130754
-2.65796e-08
0.00226799
-3.36431e-09
1.8801e-10
4.51975e-06
-1.70349e-09
-6.63823e-08
7.88025e-08
-0.00014225
-1.8266e-08
-3.12494e-07
-4.16387e-09
0.00438782
-0.000895308
3.67194e-07
9.49521e-07
-1.88123e-09
7.18732e-05
-1.32237e-08
-8.96437e-08
9.23167e-06
-1.79367e-09
-2.50208e-09
-1.49332e-09
-0.000576476
-6.51237e-08
3.39943e-08
3.34418e-05
0.00274383
-2.14326e-07
-0.00036751
1.85372e-08
0.00025017
-4.32881e-08
2.9383e-08
-0.00265986
4.38855e-08
6.42609e-09
3.19222e-06
-0.000739105
-6.64512e-08
-0.00282654
3.1112e-08
-2.54279e-07
3.01943e-08
4.75531e-06
0.00426488
3.6413e-07
1.90698e-08
-0.00250471
3.54591e-06
-4.42742e-07
-1.46476e-08
2.39204e-08
-9.21987e-08
-1.60378e-07
-8.7828e-08
-0.000118984
-4.62861e-08
0.0032172
5.34852e-09
0.00034201
6.24842e-08
-2.09585e-08
-4.55708e-08
0.00305095
-9.73518e-08
5.45427e-05
5.03123e-09
1.18504e-10
0.00162183
0.0479061
3.53165e-07
-1.56313e-08
4.59838e-08
-5.26724e-06
3.52949e-08
-2.56148e-06
9.04818e-07
6.62905e-09
-1.06951e-07
2.90994e-06
5.76009e-09
-6.7378e-08
5.31827e-08
-1.15553e-07
-3.12563e-08
-1.85075e-06
-0.000551263
-0.000195939
1.10105e-07
-9.55718e-10
-4.51064e-09
-7.9049e-08
3.21597e-06
-1.42103e-08
-1.18159e-08
9.87729e-07
-3.34713e-08
-8.58938e-08
8.7062e-09
-0.00298117
-1.05147e-07
2.92484e-09
-0.000109125
3.80985e-08
-0.00224423
-0.00107412
0.000135796
4.75113e-06
0.000611246
8.53458e-08
0.000394638
2.54758e-08
7.30336e-08
4.67048e-08
1.67434e-08
0.000258796
-0.000194514
-3.66448e-07
-6.75572e-08
-3.8368e-08
-3.67303e-07
4.00065e-08
2.08557e-09
-9.01175e-08
-0.000710597
-4.18187e-07
2.13465e-08
8.09414e-06
4.19312e-08
4.54974e-08
2.5693e-09
-7.24249e-07
0.000504038
3.09027e-08
-0.000129444
-2.84345e-08
-3.39871e-06
-0.00140941
-0.000622651
0.000249626
2.15168e-08
0.000187511
7.19774e-10
1.5496e-08
4.18034e-09
-1.22693e-07
-1.66416e-07
0.00438093
-6.06546e-09
-1.56701e-08
-9.73755e-08
4.60532e-06
3.12474e-08
3.6452e-09
-1.25755e-07
1.60791e-08
3.64698e-07
-3.45341e-08
-0.000465399
2.6944e-08
0.000411158
0.000111754
3.79811e-07
5.44599e-07
8.14001e-06
-3.3758e-07
5.07518e-08
4.6244e-08
-2.49204e-07
-1.24713e-07
-3.50655e-07
0.000130114
-0.00056103
-8.67994e-08
-5.2433e-08
-1.08516e-06
1.54452e-08
6.36933e-08
-0.000253952
3.53064e-06
4.12846e-08
-0.000915264
-1.26097e-07
-6.76376e-08
2.63929e-08
-0.000565503
-2.05016e-06
-0.00284468
3.27498e-08
6.83283e-09
-1.81144e-06
-1.35932e-07
2.78971e-09
-0.00842761
-6.67603e-07
7.29027e-08
-7.66155e-08
-8.19638e-08
2.68512e-06
1.09867e-07
4.89536e-08
4.73353e-07
-3.57038e-08
-4.15385e-08
-5.69961e-08
-0.00175847
4.93707e-08
-0.000641445
-6.72529e-08
-5.8976e-06
-1.02321e-07
2.3267e-08
-7.78853e-09
-7.34565e-07
-9.30347e-08
-0.0324135
-3.05348e-07
0.000260421
5.58045e-08
-1.56415e-07
-3.6026e-08
2.27884e-08
9.54349e-08
-0.0050956
0.00198638
-7.28536e-08
4.16744e-06
0.000135248
-2.87877e-08
-1.47476e-08
9.57615e-10
0.000499557
-5.07584e-08
-2.25742e-07
-1.46014e-08
4.51641e-07
-5.01255e-08
1.49571e-08
-4.73679e-08
2.37446e-09
2.16299e-08
-9.78499e-08
-1.47671e-06
1.15722e-08
-1.3889e-06
-1.05213e-07
5.25804e-09
0.000253817
-1.05619e-06
4.64215e-07
0.000111387
-4.8315e-08
9.32114e-06
-4.22858e-08
3.64878e-08
2.07635e-08
8.9431e-09
5.71615e-08
-1.74608e-08
-1.12533e-07
-1.99145e-06
-0.000682222
5.94193e-08
-1.42884e-08
0.00480485
1.45414e-08
-0.00070099
2.5571e-09
-6.7094e-09
0.0215813
2.45764e-06
1.17759e-08
5.33913e-07
8.48265e-09
-0.00247671
-1.02134e-07
3.1332e-08
3.8136e-08
4.03128e-08
4.69441e-09
-0.000512322
-9.59891e-09
1.18086e-07
1.00355e-05
-3.21637e-08
1.14024e-07
-7.98579e-05
-0.000738792
3.30337e-09
9.89136e-06
-6.57501e-09
-0.00298628
2.47857e-09
0.00168642
0.000481203
-8.12402e-08
2.13712e-07
2.27227e-06
-7.04451e-08
-0.00100122
1.16425e-09
1.4967e-10
1.67488e-06
-1.39427e-06
-0.000483541
1.33469e-08
1.76245e-07
1.19998e-07
-1.17233e-07
-0.000417356
-0.00138786
-3.71014e-08
-3.79666e-09
6.31108e-08
1.18415e-07
1.51517e-07
5.64022e-08
-3.85084e-08
3.41852e-08
-0.000866162
-3.97569e-08
-7.72716e-08
5.52863e-08
2.70528e-10
3.79561e-08
2.32067e-06
6.45274e-08
-9.35312e-08
-4.95556e-08
-2.30021e-07
-0.00350136
-0.000644094
-2.32132e-06
-9.25465e-08
-1.45808e-08
1.61374e-08
-3.92429e-08
-8.84421e-09
-4.72103e-08
-8.10497e-08
-2.01418e-09
-0.00285647
-0.000566194
2.12504e-08
-9.51397e-08
-0.000730176
6.20029e-08
-1.30568e-07
3.50127e-09
6.15352e-09
0.00235361
-5.13571e-08
1.0807e-07
3.19561e-06
-4.84173e-08
-6.61537e-08
1.14156e-07
5.67395e-08
-8.65742e-08
6.1908e-09
-1.03329e-08
-4.09308e-08
5.7734e-08
4.74883e-09
0.000358939
-2.92983e-07
-2.17825e-07
1.23313e-10
-1.01089e-07
3.04146e-09
3.19639e-08
7.88195e-09
1.59098e-08
6.43194e-08
3.34575e-08
-0.000443623
-2.11771e-09
0.00458064
-0.000754307
9.11066e-06
-6.97249e-09
-0.000816676
5.43897e-06
4.42122e-08
-3.67797e-09
-2.90757e-05
6.37771e-08
4.67573e-08
1.49207e-10
-0.0496554
-9.36538e-08
4.39454e-06
-9.12048e-08
-1.36908e-08
3.8463e-06
-0.000253218
-3.36075e-08
4.22089e-08
1.76924e-10
4.79613e-08
1.61292e-07
8.84326e-08
1.01475e-08
3.22673e-05
-0.00341258
2.72915e-06
-4.79862e-08
4.25314e-06
2.97957e-06
1.39259e-08
4.025e-09
5.27843e-06
-3.59764e-08
5.21979e-08
-1.6248e-07
-0.000547098
-1.19634e-07
-4.5532e-08
-8.4765e-08
-5.57633e-10
-0.000572362
0.000810589
-5.06282e-07
-0.0220352
0.000638675
-0.000751612
3.17854e-08
0.00651133
-0.00168753
-0.000601993
2.08412e-08
7.59135e-06
-9.91631e-08
-8.07111e-08
7.19042e-08
4.71988e-08
-2.61755e-07
6.5218e-09
-3.26623e-08
-8.42389e-08
-1.19634e-07
1.43843e-06
0.000796546
5.657e-08
5.79418e-08
-1.81498e-09
2.76178e-08
1.08306e-08
-0.000705486
0.000517467
-2.34639e-06
-7.25548e-09
-9.33623e-05
4.97267e-08
-7.03471e-08
7.05183e-07
3.39555e-08
1.56155e-10
8.11259e-07
2.13541e-08
-0.000475443
-9.86525e-08
-5.52901e-08
0.000307558
-4.38221e-07
-1.49124e-07
3.70503e-10
2.17385e-09
-3.73033e-09
-3.65338e-05
1.51161e-06
-2.04441e-07
-0.00368995
-9.75683e-08
-0.000648281
-2.20569e-08
0.00443334
1.62886e-08
-4.7643e-08
-4.56987e-08
-3.8995e-08
-9.95919e-07
4.98271e-08
-3.09899e-08
3.25285e-08
-8.11547e-08
-0.000302644
-3.003e-08
-6.40821e-09
-1.98938e-06
3.50808e-08
2.64852e-08
5.45341e-09
-3.66482e-08
4.47972e-06
2.88123e-08
-4.66762e-08
-3.19322e-08
1.28196e-08
-3.64142e-06
-6.32887e-09
-1.52788e-08
2.16132e-06
1.7973e-08
-5.3761e-08
-0.000854717
5.40621e-09
-5.44752e-08
-0.0010919
-0.000895297
7.46272e-05
8.12588e-09
-1.25767e-07
-8.37073e-09
-1.42046e-09
1.17183e-07
2.63145e-09
4.75765e-08
-6.95215e-09
-4.09711e-08
4.68277e-08
-0.00104101
0.00058124
8.82198e-07
-2.79432e-07
-0.000212356
1.21182e-07
6.77011e-10
8.12168e-07
-8.61856e-08
-8.88315e-09
-7.38149e-08
3.3509e-08
9.45129e-06
4.76361e-08
1.05603e-07
1.31957e-08
-7.78353e-09
-0.00195276
1.15505e-07
-0.000739192
2.14606e-06
7.55206e-06
-8.53503e-08
-3.53594e-08
-1.78887e-08
3.01116e-09
-2.60561e-09
3.48954e-10
-1.09557e-07
-1.8979e-08
3.82226e-08
1.1035e-08
1.37244e-08
6.43245e-08
1.41196e-06
-0.000763555
-2.82422e-08
6.55734e-09
6.59245e-08
9.19295e-08
-1.14729e-08
-1.17978e-07
2.18862e-08
2.82117e-09
4.04805e-10
2.0175e-06
9.44445e-06
3.35529e-08
-1.58943e-08
0.00112142
-2.45601e-08
3.99145e-08
-0.000958585
-1.5731e-08
0.000249245
-9.94789e-10
-1.06351e-07
-3.41798e-07
-1.21731e-06
-5.18689e-09
-3.74923e-08
-9.59688e-08
-4.94434e-08
1.89512e-08
-2.66014e-07
-0.000583178
-1.07194e-07
-0.000932482
3.80836e-09
-0.00108891
-6.05975e-08
-1.1846e-07
0.00122488
-1.25224e-07
-2.81188e-07
2.5134e-08
1.63536e-07
6.62812e-08
3.2795e-08
-2.96365e-08
1.04517e-08
-8.63854e-08
8.62118e-07
5.24945e-05
-1.89349e-07
-4.71326e-08
-1.78238e-08
-8.67181e-08
-0.00027102
-2.09411e-09
-1.64376e-08
-1.27093e-06
5.72799e-09
1.62958e-08
-0.000329009
0.000638679
-9.90339e-08
-1.00312e-08
1.42739e-08
-2.61564e-08
-0.000323049
6.82517e-10
-1.2265e-06
-0.000577488
2.58114e-08
4.51461e-07
-3.98597e-08
2.22573e-06
1.06909e-08
4.45079e-08
6.3557e-06
6.85598e-08
-4.21709e-07
-4.571e-08
0.000775839
1.64898e-07
2.59262e-08
2.49869e-08
0.000900671
4.71411e-08
-3.54291e-08
-0.000966588
9.70532e-06
0.0006772
-4.10099e-09
6.72666e-08
0.00207774
-0.0034942
-0.000835231
6.39069e-07
-8.60953e-09
2.2015e-08
5.70742e-08
-1.38177e-07
-3.72248e-07
-0.000645319
-3.72892e-11
1.04376e-06
-4.77575e-08
1.72499e-07
-0.00578655
5.40454e-08
-7.17406e-05
-1.39897e-06
-0.00178197
1.03721e-08
-1.5817e-07
8.84892e-08
1.95745e-09
1.46416e-08
9.05706e-08
1.86138e-08
-2.60921e-07
-2.51591e-08
3.65403e-08
1.49192e-08
8.11403e-08
9.26554e-08
9.34988e-08
1.55589e-06
-1.20061e-06
-0.0011413
6.6798e-09
8.02961e-09
3.30173e-06
6.71462e-08
1.38355e-06
-0.000838676
0.000762259
0.0282555
-1.75358e-09
-1.28585e-07
-9.60001e-08
-0.000839758
5.82779e-08
-4.1146e-08
9.47093e-09
2.13011e-06
1.1028e-08
9.86082e-07
0.000342266
5.57728e-08
-3.02715e-08
-1.18284e-08
-0.00119177
-6.45731e-09
-6.63442e-09
-7.43446e-08
-9.59749e-08
-3.77343e-06
-9.4813e-09
6.88488e-09
-1.54654e-08
4.42061e-08
-0.000382111
-3.10677e-10
-3.97091e-08
-3.14776e-09
-2.63521e-08
-4.80595e-08
0.00279395
-7.96452e-08
-3.03992e-08
3.84441e-07
-2.7732e-08
9.61368e-09
2.22134e-08
-7.92212e-08
-0.00412648
7.46866e-08
9.26022e-08
-2.60421e-08
-6.83195e-10
7.87662e-06
7.40846e-07
0.000170435
7.21187e-09
-0.00114889
7.60188e-08
4.74117e-08
-4.8738e-09
-8.42615e-07
-1.26165e-05
-7.20666e-09
3.43474e-07
-9.73077e-08
-6.87585e-08
-3.94095e-08
0.00226104
9.26477e-09
3.90975e-07
-0.00135836
-3.00904e-08
-2.4089e-07
-2.91408e-08
-3.48646e-08
6.33203e-09
1.00275e-07
0.0022111
-2.29043e-07
-5.24435e-08
-2.35991e-08
0.000115814
-1.10239e-08
1.02229e-07
-1.42754e-07
-3.27657e-09
-3.01919e-08
2.34652e-08
-3.81019e-08
3.55623e-06
6.0423e-06
-1.36966e-08
-1.04763e-07
-0.00854751
-0.000698278
-0.000368505
2.33363e-06
-0.000389196
-7.31083e-08
2.67048e-08
-1.96544e-08
-0.00543437
-0.000935668
-8.2572e-09
-2.17253e-08
-4.80753e-08
-1.59337e-07
0.000739591
6.59092e-05
5.61566e-08
-8.22622e-09
4.35316e-09
-1.88699e-09
-2.78071e-08
4.73058e-06
-7.21605e-09
-0.000651218
1.43479e-08
2.51125e-08
1.29412e-08
7.93671e-07
5.99016e-08
-0.00694583
4.6538e-08
2.05717e-08
-6.09131e-08
-3.2342e-06
-0.00775676
-0.00105344
2.59422e-07
-8.72267e-09
-7.85633e-08
-6.05713e-07
2.84204e-06
2.88744e-06
3.98215e-08
-2.06392e-08
-7.15714e-08
2.74287e-08
0.000560349
1.29842e-07
4.08441e-06
-1.82293e-07
-7.57636e-09
2.45892e-08
2.55058e-08
6.10078e-08
1.57922e-08
7.26031e-06
-3.62821e-08
9.46135e-08
-0.000877983
-5.61517e-09
-2.713e-08
-0.000654955
-2.53871e-09
-6.51497e-08
5.22274e-08
-2.16832e-05
1.49276e-09
-4.61496e-08
0.00620159
-0.00716481
-0.000362121
5.61589e-09
2.87672e-08
-0.00349867
-2.10113e-08
-8.01094e-08
-1.45224e-08
-8.90045e-05
5.87894e-08
-1.48723e-08
-0.000869338
-9.21215e-06
4.73177e-08
0.00518846
1.758e-09
6.82197e-08
-0.000256811
3.19713e-08
2.30847e-08
-2.21338e-08
-7.60538e-05
-6.57289e-08
-9.89183e-10
7.5344e-07
0.00362386
-1.42572e-07
1.13686e-07
-1.74558e-08
2.51818e-09
7.63249e-07
7.72867e-08
-1.59849e-08
-5.39204e-08
-8.62414e-09
1.81323e-09
-3.30365e-07
-2.0663e-08
-7.38298e-07
3.80703e-08
-1.30036e-06
-1.73825e-08
6.63801e-08
-5.98143e-09
-3.55171e-07
-8.16146e-08
-0.000586248
2.8327e-08
4.17837e-09
-0.00470985
-3.26268e-08
2.55137e-06
3.27177e-08
-5.61061e-08
2.53382e-06
6.63981e-09
2.41766e-08
1.01447e-07
-3.83759e-08
0.000626969
-3.58194e-06
-8.8906e-08
3.3903e-06
9.68929e-06
1.20641e-07
-1.35631e-08
7.5355e-05
-7.27573e-09
7.30624e-07
-3.05515e-08
-0.000706781
0.000984805
-8.45062e-07
0.000592695
5.60977e-09
-2.13725e-05
-8.36487e-08
3.50741e-08
7.93643e-08
3.43779e-05
9.78005e-08
-4.46811e-08
-4.84007e-08
-1.00305e-07
-6.58027e-11
-6.55265e-10
-0.00422896
-1.47887e-08
-0.000892301
-6.90873e-07
0.0372099
5.79715e-09
6.88949e-08
3.86462e-06
-0.000431816
3.49352e-08
-4.30382e-07
-1.08346e-07
5.49202e-09
-1.94926e-09
0.00465379
-1.03955e-07
-3.24788e-09
-0.000660425
-1.00986e-07
-4.6175e-09
0.00010878
0.00511625
-6.24554e-08
1.93324e-08
6.92664e-08
3.21357e-06
-0.00033942
4.84199e-08
1.0293e-09
-7.92682e-07
-1.59989e-08
-0.000622691
4.71751e-10
-0.00993559
-1.507e-08
0.00200386
-2.15398e-08
-1.5226e-06
-0.0036945
0.000266232
0.000759646
-0.000281887
-1.51544e-08
0.00173848
-8.31245e-08
3.87042e-05
-9.67794e-08
-2.01597e-09
1.02278e-06
4.11047e-06
-1.11979e-07
2.38633e-08
-0.00374536
1.02824e-08
-1.49623e-06
-7.67172e-10
-5.77613e-08
-0.000784165
-1.03075e-07
0.000641563
1.59882e-08
4.20734e-09
-0.00282237
-2.60787e-08
5.53123e-08
-2.9994e-08
-9.3443e-08
-3.30697e-08
4.84894e-08
-4.857e-08
4.41429e-08
2.17996e-09
-3.33591e-08
0.00081725
-1.74536e-07
0.000196909
5.7215e-06
4.59718e-08
1.54479e-07
5.16442e-08
3.31456e-08
-0.00183352
-4.6195e-06
-9.74637e-08
-4.85125e-07
4.92356e-08
-2.33592e-06
-3.46836e-07
1.14452e-08
4.04456e-06
4.7179e-06
2.63414e-07
1.4051e-09
1.96404e-08
-4.23041e-08
-0.000301222
-1.48914e-07
2.0766e-08
-3.27898e-08
-0.00572006
2.39418e-09
2.60762e-06
-3.06624e-09
-0.000331565
3.97454e-08
-5.34505e-08
-1.41958e-08
-1.15778e-08
-0.00754411
-2.41732e-07
-3.79775e-08
-1.55222e-07
4.51691e-06
4.1656e-07
-1.30993e-07
5.22435e-06
1.23262e-06
-0.00125594
-1.14668e-07
-0.00150065
1.83186e-09
2.83778e-08
0.00539759
-0.00174448
0.00101612
1.45384e-08
-7.09408e-10
-1.50085e-08
3.55732e-08
0.000249188
2.98497e-09
7.80267e-08
1.26268e-05
2.36321e-06
-1.1455e-05
1.31929e-08
7.928e-06
3.21959e-09
-2.16768e-06
6.18595e-08
5.18781e-08
-3.0111e-08
2.42477e-08
-1.05442e-09
-0.000197763
-3.04573e-08
0.00221616
6.98054e-06
-5.9601e-08
1.61688e-06
6.15046e-05
-9.90648e-09
5.12771e-08
-3.33262e-08
1.37023e-07
1.49586e-08
9.30824e-08
-2.1562e-10
-1.70971e-08
-9.35313e-08
8.05272e-09
-0.000459651
-6.18727e-08
9.45176e-08
4.53255e-06
-0.00406523
1.20931e-09
-0.00140381
6.43972e-09
-5.41248e-09
-5.35522e-09
-1.41862e-07
-6.94751e-06
-0.000623429
2.45582e-06
-2.10675e-09
1.67167e-07
2.22797e-07
-2.48778e-09
-7.41027e-09
-1.82182e-07
2.90184e-09
2.60882e-10
6.9307e-08
-4.47829e-06
0.000279102
1.03964e-08
-8.27856e-07
5.6583e-06
2.65212e-06
5.65135e-08
-0.000303578
0.0043667
1.05909e-07
9.17887e-08
8.12055e-06
-1.74203e-07
1.37264e-08
9.58252e-08
1.2523e-09
-2.27069e-08
1.03997e-07
-5.0303e-08
-3.30686e-07
5.76162e-10
1.908e-08
2.14803e-08
-0.000767953
2.50801e-08
6.22328e-06
-3.51738e-06
0.000287984
-1.00069e-08
2.31058e-08
-1.86312e-07
3.48562e-08
1.50162e-07
6.63983e-08
-0.000601945
-2.13028e-08
-1.86984e-06
6.89642e-08
2.72972e-10
3.77308e-06
-1.14299e-08
-0.0100599
-1.82611e-08
4.51223e-08
-1.44995e-07
-0.000460162
1.58686e-08
2.02222e-08
0.000582993
-3.69896e-08
-2.83648e-08
-1.81594e-08
-0.000127159
-7.351e-09
-8.93865e-08
-3.11792e-07
-0.0017819
-0.000604904
-5.00391e-09
-0.000616895
4.9815e-10
-1.57461e-07
0.00414113
4.40088e-05
5.47125e-09
-0.00233048
1.19489e-08
0.000831626
1.02907e-06
-0.000287273
-5.07125e-07
3.00169e-09
-7.68509e-08
4.55486e-07
3.33885e-05
4.74137e-08
-2.79784e-08
3.35436e-08
5.60162e-06
-6.69488e-08
3.21754e-08
-1.40361e-07
2.07807e-09
3.96138e-08
2.21331e-07
-4.36524e-05
-1.72688e-06
-3.45868e-08
-0.00143814
5.99444e-05
-7.62719e-08
-4.01236e-09
0.000130077
2.35898e-08
3.73833e-08
-4.18268e-08
1.69319e-09
-9.03689e-09
4.76857e-08
-1.49978e-08
0.0011168
0.00081245
1.65209e-09
-1.9178e-09
-5.19056e-07
3.42668e-08
-0.00145533
5.13367e-07
-7.98932e-08
7.12696e-06
-6.92097e-06
2.16741e-09
4.20594e-10
0.00036741
7.5383e-09
-1.69357e-08
-2.01611e-09
3.19711e-09
1.92401e-08
1.1467e-08
-0.000615187
1.03051e-08
-8.45652e-08
-0.000451786
3.40671e-06
1.14912e-06
-6.98368e-08
-5.93905e-07
-0.000768231
1.06745e-07
3.19252e-08
-0.000139758
-3.74803e-07
-9.1451e-10
0.00392983
-0.00171272
1.04218e-08
-4.82248e-08
-0.00199028
-1.21513e-07
0.000496564
-7.94567e-08
-8.93865e-09
-4.25055e-08
3.03637e-06
-1.00545e-07
-6.74653e-08
5.41357e-08
-0.000180325
-2.32643e-06
3.22227e-07
3.02786e-09
-1.43083e-09
0.0024011
4.70497e-10
2.55126e-08
-0.000199135
-7.7259e-05
-6.64939e-08
-5.58156e-10
-0.000175298
-8.14053e-08
-0.00101251
-0.000614886
-3.16943e-08
3.37267e-08
-3.19659e-08
3.66297e-08
-7.14686e-09
-6.58824e-09
-7.24157e-07
2.25056e-08
-0.00482461
0.00413284
-1.66446e-08
-0.00161385
-1.30486e-06
-4.22881e-08
7.8369e-08
-0.0067445
-1.04745e-07
-7.36523e-07
-3.90327e-07
0.000114148
1.3445e-06
2.5277e-09
-9.86881e-08
-3.49443e-08
1.86151e-09
-0.000450238
1.52193e-08
4.43275e-09
1.27641e-06
0.000316006
-8.90221e-07
1.08358e-07
-5.39955e-06
-1.0888e-06
1.84377e-07
-8.64872e-07
1.18821e-07
-0.000626136
1.53282e-08
-3.22603e-07
0.00180516
8.52465e-06
-1.41156e-07
1.11846e-08
-4.72977e-05
6.58662e-08
-0.000428852
-0.000545167
-7.99967e-09
-6.21941e-08
-7.24389e-08
2.72418e-06
-1.53924e-09
1.0599e-08
-0.00218673
-2.11027e-07
-1.61202e-08
-1.46605e-09
3.13248e-09
1.00425e-10
-9.14282e-08
-0.00486656
-0.00741867
-6.49286e-09
-1.82544e-08
6.61586e-09
1.13662e-08
-1.0154e-06
-0.000907346
-8.84404e-09
4.26419e-07
6.37416e-08
-2.41259e-08
3.17335e-06
-2.38003e-09
4.56389e-06
-0.000478317
-4.9625e-07
-6.74972e-08
-1.13799e-07
0.000422435
0.000306844
-5.0758e-09
-3.87637e-08
-1.09299e-08
4.06572e-09
-0.00070472
-5.32607e-08
-1.01433e-07
2.91534e-08
0.000463877
-7.54775e-07
5.90498e-08
1.43907e-05
6.87232e-08
-4.1175e-08
3.89647e-06
-0.00764447
-1.71726e-08
-1.39016e-08
9.45256e-09
5.53457e-09
1.36033e-07
-4.91119e-09
-5.30774e-08
-3.94772e-08
-2.68399e-08
-5.26762e-08
-9.33069e-07
-3.09505e-08
-1.00973e-07
5.66461e-07
-1.12753e-09
1.3395e-08
-6.68987e-09
-6.60957e-09
-1.75228e-08
2.44192e-08
3.74207e-08
-9.70449e-08
-2.08259e-08
4.27651e-10
-3.96038e-08
0.000621142
2.31153e-08
-8.48074e-08
-5.92821e-09
-9.07623e-09
1.95143e-08
-8.95592e-09
-2.13218e-06
-7.37376e-09
3.31292e-08
2.37376e-08
1.28122e-08
-1.77446e-08
0.000542116
5.13841e-08
-0.000658838
2.99077e-10
-0.00039419
0.000351087
2.05715e-08
-2.57377e-08
-0.00127338
3.44245e-08
-0.00538574
1.1847e-05
-0.00655978
-1.35403e-06
-7.61883e-08
-0.00517124
2.39302e-07
-6.14882e-07
1.02107e-06
2.66973e-09
6.0526e-08
4.40558e-05
-5.53618e-10
-0.000342967
-3.79727e-08
2.24713e-08
1.06783e-08
-4.04882e-08
-1.16761e-08
-5.73045e-06
-0.00439423
-0.000953789
9.60741e-08
-0.000471269
5.32305e-08
-6.47693e-08
-7.87084e-08
-1.2613e-08
-8.134e-07
-3.45356e-08
-4.04887e-08
-6.59839e-09
1.72601e-08
3.11327e-09
-0.000554697
-7.49795e-08
-0.00122647
1.21472e-08
1.5992e-08
-3.35975e-08
2.13819e-06
1.11186e-09
-1.88846e-08
-0.000156969
-0.000852841
-1.97648e-09
6.1247e-08
6.9492e-08
1.17425e-08
-1.98763e-07
-0.000412677
3.71667e-10
-1.83391e-08
-3.99125e-08
-1.32585e-08
-0.00199993
-5.01134e-08
5.43934e-08
-3.00911e-09
3.15175e-06
-0.00276457
5.79786e-08
-0.00784669
1.08021e-07
-4.28344e-07
-0.00538817
0.000862552
-0.00702355
0.00073074
-0.00421856
1.62648e-09
3.35802e-09
2.62057e-08
2.64677e-07
-0.00641521
-0.000638626
1.81855e-09
2.46108e-07
6.05193e-09
-2.70064e-08
3.53836e-08
-1.32699e-07
0.000919887
2.45026e-09
-0.000121736
-3.59246e-08
-8.92717e-08
-0.00171815
-7.66819e-08
0.00171348
3.06232e-09
-3.2696e-07
7.70186e-08
-1.96754e-07
4.31615e-09
1.50769e-09
-2.3474e-09
-2.20669e-09
-0.0100273
-0.000678378
2.0976e-08
-7.43192e-09
-0.000654786
5.43775e-08
-1.03226e-07
-0.000162633
-0.000688035
-1.13048e-08
-9.95075e-09
-1.57282e-06
-0.00624818
-0.000387592
-2.32415e-08
4.55642e-08
-0.000287215
-3.34149e-08
-0.000654581
-8.83877e-08
-6.7991e-06
-9.43739e-08
4.98023e-07
-4.34005e-08
-2.12576e-08
-1.68226e-07
-7.70094e-07
-6.9377e-07
-8.94544e-08
-3.32427e-08
-0.000955811
-0.000377145
-1.05059e-08
-0.000762089
-5.74573e-08
-1.24955e-08
-8.69573e-08
0.000232948
-4.64794e-08
-0.00140177
4.85933e-08
-2.97078e-07
-3.9503e-05
-3.0019e-08
-0.000518068
-6.7138e-08
3.39969e-06
1.56234e-07
-1.53946e-08
2.16583e-10
-0.000343673
2.23168e-08
3.09151e-06
0.00720683
2.59077e-06
8.27979e-09
4.68805e-08
-1.69637e-07
7.6062e-08
-6.01468e-08
2.364e-09
-0.000379992
1.05895e-07
6.68509e-08
-5.70299e-08
-0.000266515
3.82512e-08
6.42645e-08
-3.01952e-08
4.01612e-05
-6.68144e-08
-0.000356294
-6.08171e-08
9.39109e-06
6.2525e-08
7.85526e-07
-2.36553e-06
-7.52719e-08
-6.11466e-08
-9.11549e-08
-0.00268284
2.29399e-09
0.00020013
-7.1465e-08
-6.71559e-08
9.10348e-08
-0.00389272
2.25241e-08
-1.02619e-07
-6.6471e-08
-6.66825e-08
-3.37119e-09
1.97515e-09
-2.50099e-08
5.29923e-08
0.000289051
-1.01116e-07
0.000344036
3.51851e-07
-3.59307e-08
0.0001364
3.88546e-07
3.22128e-06
-0.00208307
6.49876e-08
-0.00144896
-0.00378156
-9.03495e-08
-3.59822e-08
5.71792e-09
6.50265e-08
-3.73179e-08
7.57732e-07
1.74137e-10
-4.72255e-07
1.18478e-09
2.67608e-07
-9.34646e-08
4.87444e-10
1.04417e-06
-1.52282e-07
-2.66596e-08
-4.23546e-09
-0.00032322
-0.000658906
0.00112327
-8.16931e-10
-9.74877e-08
-0.000567812
6.4767e-08
0.000642768
-7.78296e-08
-1.33279e-07
9.50546e-08
-3.66156e-08
7.30794e-08
6.44955e-07
-1.65998e-07
-0.00340479
3.65584e-10
1.09836e-07
-1.55394e-08
-7.71438e-08
4.29932e-08
-1.17925e-08
-0.00507052
-3.08014e-08
-5.28718e-07
-4.05855e-07
-0.0102212
3.10385e-08
1.73749e-06
-7.73175e-07
-4.43768e-08
-5.75293e-08
0.000991337
3.6328e-06
-1.79971e-05
0.000367457
-5.80806e-08
-0.0032453
2.86772e-08
-6.42029e-08
0.000351457
-1.51879e-09
-4.63452e-08
-7.58261e-09
3.61647e-05
-5.25873e-09
-1.0751e-07
1.61142e-08
-4.30828e-07
-3.13256e-08
-3.94661e-08
-1.69033e-07
-1.06131e-07
-5.86091e-07
-0.000470241
1.13373e-06
3.53347e-08
-1.55966e-07
-0.000460702
-1.37558e-09
6.70051e-07
-1.36619e-08
3.00251e-06
6.11812e-08
-9.82106e-08
-3.54442e-08
-1.02275e-07
-3.37614e-07
-6.31827e-08
-7.93458e-09
0.000704339
-0.00034071
-2.65498e-08
1.0015e-08
-0.000562966
-8.84349e-08
0.000496917
-2.10563e-06
-0.000943671
-1.26511e-06
1.15893e-06
0.000247257
4.92977e-08
-1.13427e-08
-5.39069e-09
3.57323e-08
-1.63008e-07
-1.34947e-09
-0.00113286
0.00787067
4.30047e-06
-0.00112372
-1.56207e-08
-1.64473e-08
6.83172e-06
2.14595e-05
1.15139e-08
-1.99683e-07
8.19042e-08
-0.000213448
-1.19148e-08
3.58981e-06
-0.00117816
9.68861e-06
6.04963e-07
9.21327e-09
-8.18262e-12
-1.00904e-08
9.47599e-08
-0.000626984
-5.8766e-06
9.50285e-06
1.52785e-05
0.000730233
-2.24043e-08
9.92137e-09
-1.06768e-06
-0.000544774
-0.00413868
9.93311e-09
-2.04223e-06
-7.49683e-07
3.85929e-08
-5.0541e-09
-1.42945e-08
-0.000389405
7.18493e-09
3.26959e-07
7.27563e-05
0.0019236
-2.84622e-08
-0.0013321
3.88061e-09
-1.05096e-07
-2.07706e-09
-6.04451e-09
-2.20513e-07
-9.17547e-09
-0.00160197
-0.000655274
2.86566e-07
-0.00152109
-2.06404e-07
-1.8597e-08
1.0592e-10
7.1001e-08
-1.68858e-09
-0.00307138
1.39585e-07
1.03187e-07
7.78754e-10
0.000449167
0.00234932
6.89123e-09
-9.64044e-08
-6.17067e-08
0.00237681
-0.00634885
1.15741e-07
-1.58344e-08
-2.25412e-08
-3.64759e-09
3.77185e-08
0.000654503
6.58006e-10
-2.70689e-06
-6.03779e-05
2.50062e-08
-0.0100307
-0.000685898
1.12574e-07
0.000500129
-6.16164e-08
1.93683e-05
5.82221e-07
-2.76421e-05
-7.35883e-08
0.0034109
-1.20442e-09
-1.09267e-06
1.42807e-07
-2.20279e-07
1.65438e-08
5.29127e-09
-4.00452e-10
-1.73699e-08
-9.91691e-05
7.03009e-06
-1.01146e-07
0.000701165
0.00389234
-1.48512e-08
0.000749556
3.65758e-08
-0.00216491
-0.00541025
-1.62029e-06
1.19951e-06
-0.000204302
0.00243243
0.000310185
-1.84122e-07
1.10986e-07
-0.00201337
-0.000383526
-0.000533246
7.99025e-08
3.0689e-07
-1.45806e-08
2.39697e-09
4.36102e-08
-1.57068e-08
4.27259e-08
-0.00387132
6.82711e-09
8.56395e-08
-5.18366e-08
7.28225e-06
-1.09659e-08
-7.1506e-09
1.39461e-08
-5.06713e-07
-1.49556e-08
-4.31564e-08
-8.36262e-08
-7.70363e-09
3.147e-08
2.67592e-08
-2.04646e-08
-0.00220155
-3.09144e-08
-5.63699e-08
-1.0594e-07
1.93564e-08
3.22577e-08
2.8444e-08
8.58896e-06
-1.41511e-06
4.66741e-08
2.74797e-08
-4.26356e-08
-1.35232e-08
-0.000316486
2.76476e-08
-2.40616e-08
-0.000293905
-2.07761e-08
-4.74113e-06
-1.50666e-07
-2.78222e-08
-1.57875e-07
-1.04812e-07
-7.99054e-06
2.44862e-06
1.11877e-07
7.56339e-07
2.98748e-08
-2.10843e-09
-3.83527e-08
-0.000608842
-3.45528e-08
-4.32967e-08
-4.47824e-08
4.32619e-08
-1.05042e-08
1.10679e-07
-1.58972e-07
-0.000193301
7.37592e-08
1.2969e-08
-0.000140285
7.47684e-08
-0.00470362
-6.64338e-08
-6.51117e-07
-7.00268e-08
4.80774e-07
-7.4753e-08
-4.81479e-07
-0.00461023
3.18151e-08
-0.00039746
3.53658e-07
-5.60835e-09
-0.00082455
-3.70799e-09
4.63313e-08
1.54651e-08
-6.1094e-08
1.77713e-08
-0.000621568
2.49677e-10
6.40005e-08
1.07424e-07
-0.00223307
-5.83887e-09
9.30371e-08
-2.54549e-08
-1.4641e-07
-2.82809e-08
-8.55919e-10
-9.1287e-10
-2.82672e-09
1.17837e-06
6.29008e-09
0.000452831
-0.000278697
4.31082e-09
-1.51933e-05
-1.77065e-07
-6.12317e-08
0.000486322
-0.000708066
-0.00585018
0.000422872
0.000683123
-1.47599e-05
-3.78388e-08
2.63914e-08
1.05435e-07
9.15606e-08
-0.00395439
-8.07213e-08
-5.95446e-07
-0.00707557
3.31757e-08
-0.000532671
1.29642e-07
-0.000327349
-8.02043e-08
-1.8901e-08
2.22426e-08
-3.10585e-08
7.78914e-07
-0.00645352
-1.48203e-06
-2.14148e-06
-7.12768e-08
-2.51745e-09
1.95529e-05
-1.11764e-06
4.39873e-06
9.9228e-08
1.41615e-08
-0.000804499
-0.00737941
-2.05705e-08
-3.20176e-08
3.02832e-09
1.25057e-08
-1.6377e-08
3.21565e-08
-0.00114456
1.75564e-08
3.19704e-09
-0.000745534
-0.000530553
4.81241e-08
-1.07286e-07
-5.89666e-09
-0.00040342
3.57507e-09
-1.71734e-08
-3.48996e-05
-0.00081571
4.35773e-09
-2.10128e-08
-0.000432301
-3.35818e-07
-6.94817e-10
-3.18834e-07
6.17152e-10
0.000528988
-4.07783e-09
-1.81662e-06
0.00203925
3.91964e-08
-8.98303e-07
2.09084e-09
-8.09013e-08
7.16653e-10
-1.01517e-07
5.79613e-09
2.97927e-06
-8.85207e-08
3.51489e-08
-1.0684e-08
-4.37863e-08
9.04638e-06
-0.000267796
7.26465e-08
7.75836e-09
7.76423e-09
2.70329e-09
-0.00459446
-0.000589477
-0.000480997
-4.35402e-08
1.23892e-07
-4.52808e-08
4.21517e-08
-9.46178e-08
0.000446271
3.86327e-08
-3.62692e-08
-0.000625913
-0.000835699
-4.65386e-07
2.83405e-08
-2.84573e-09
3.02678e-08
4.87147e-08
1.84647e-09
6.43138e-08
1.29225e-08
-4.95461e-08
9.25208e-08
0.000103291
3.92648e-07
-7.02404e-08
-1.35098e-07
-1.41816e-08
-0.0101882
-0.000801394
-3.23731e-07
-0.00150869
-0.000546867
1.61392e-08
-0.00125285
-4.17775e-06
1.50361e-08
-0.000257561
-0.00170828
-2.2209e-06
-3.42644e-08
-5.79194e-09
-1.75923e-08
-3.9436e-08
0.000192381
5.91437e-07
4.16749e-08
-3.21389e-07
-2.7123e-08
-5.81521e-09
-0.00061813
0.000583409
3.35449e-07
1.12185e-06
2.29483e-08
1.94777e-06
-7.62394e-08
0.00071291
6.70153e-06
-0.000615857
9.68446e-08
3.43739e-08
-7.27458e-08
-2.7575e-07
-1.5389e-08
-0.00387657
-0.000389561
-2.03212e-07
-0.00229106
6.80673e-05
0.00122659
-0.00609802
-4.58509e-06
3.63517e-08
-3.91864e-06
9.78288e-06
5.40163e-08
-0.00814491
-6.09142e-09
1.06533e-09
0.00265918
1.29212e-08
-1.95072e-08
-1.82361e-08
-1.04213e-06
5.93104e-08
8.18337e-09
-0.000140499
3.14525e-09
-0.000534931
-0.000285157
-1.31963e-05
2.85588e-07
1.37033e-08
-1.31168e-07
1.3325e-08
-2.51133e-06
-4.21192e-07
9.92378e-09
3.22265e-06
-7.31343e-07
1.33365e-07
-6.65121e-09
-8.23378e-07
-1.21831e-08
-7.24462e-06
7.89912e-07
9.29982e-08
-7.47721e-09
-1.27012e-09
-0.000473229
-2.3097e-07
-3.94237e-08
1.398e-05
-6.56192e-09
1.953e-08
-4.60052e-08
0.000837116
4.7056e-09
-1.15182e-07
-2.7435e-08
-0.000172827
-1.96557e-08
-1.86035e-05
3.81812e-08
-0.00352108
-2.49237e-05
-0.000227778
-7.68558e-08
8.8798e-08
-2.67546e-07
9.62443e-08
-6.13341e-08
-1.5058e-10
-0.000346704
-6.91026e-07
-2.06436e-08
-1.10467e-07
0.000162684
3.61952e-08
1.75005e-07
3.55302e-08
0.000301269
-0.0021974
-3.30749e-08
6.61678e-08
-9.62272e-08