/*--------------------------------*- C++ -*----------------------------------*\
| =========                 |                                                 |
| \\      /  F ield         | OpenFOAM: The Open Source CFD Toolbox           |
|  \\    /   O peration     | Version:  v2012                                 |
|   \\  /    A nd           | Website:  www.openfoam.com                      |
|    \\/     M anipulation  |                                                 |
\*---------------------------------------------------------------------------*/
FoamFile
{
    version     2.0;
    format      ascii;
    class       volScalarField;
    location    "100";
    object      ddt0(omega);
}
// * * * * * * * * * * * * * * * * * * * * * * * * * * * * * * * * * * * * * //

dimensions      [0 0 -2 0 0 0 0];


internalField   nonuniform List<scalar> 
27915
(
-3.37703e-06
-0.00377521
0.0454885
0.112185
0.000466235
-9.37327e-06
-0.137297
-0.000154871
0.000475465
-0.000305119
3.47367e-05
-9.73515e-06
-0.0190335
-0.142
0.213339
2.97378e-05
-0.02717
3.08779e-05
0.102612
1.132e-05
-0.135982
-7.84739e-06
-0.0322932
-3.19882e-06
2.99541e-07
-3.9996e-06
3.38809e-06
0.039852
0.125724
-0.0074787
-0.00224265
3.58354e-07
-0.025719
1.07676e-05
0.0964092
3.27826e-06
-4.58107e-06
5.24351e-06
0.00107151
-1.21646e-05
2.99274e-07
-2.40622e-05
9.07785e-09
0.00315117
0.00229088
1.90303e-08
-4.92207e-06
-0.000151547
-1.73788e-06
5.41232e-06
-0.000173375
0.00337052
0.00276538
-1.08873e-05
-0.205104
0.0676629
0.000397189
6.75398e-07
-8.23081e-06
0.016611
4.79722e-07
-0.000107589
0.00128311
-0.678705
6.2657e-08
-2.94733e-05
-0.000379655
-0.00367606
0.0254014
1.99494e-05
-2.36459e-05
0.00576113
-9.35902e-08
-3.50281e-06
-6.0269e-06
-0.000288164
0.00154065
2.25076e-05
0.0583811
-1.09553e-05
-2.69069e-05
-1.02e-05
-4.2685e-06
4.99096e-06
0.169816
5.17369e-07
-1.56754e-06
2.03373e-05
-0.222976
-6.73805e-06
3.22704e-06
0.627129
2.94735e-05
-0.00226065
8.5421e-06
-0.000196723
0.173899
-3.67435e-05
-1.37767e-07
0.14342
3.78846e-08
2.77757e-08
0.217381
-2.559e-05
-1.56883e-07
-6.62674e-06
1.53318e-06
-0.000240365
-0.000626413
-0.000318117
-7.73599e-07
5.19069e-06
-2.3128
-0.0550991
-0.0903606
0.00218556
-0.130195
-3.02332e-06
0.000508245
-6.76074e-07
-0.00172047
0.000505178
-0.000703897
6.15092e-05
-3.69342e-06
-6.05369e-07
6.29174e-06
-0.12578
-0.000332897
2.04533e-05
-1.01675e-05
8.02563e-07
6.17911e-07
0.0649699
0.0295545
-0.0420639
3.26629e-07
-3.67147e-06
1.65767e-05
4.86734e-07
0.112547
0.00966568
-1.78084e-05
0.196176
-0.000234001
5.84635e-07
1.3751e-05
-0.0249152
-0.00141335
7.52618e-07
3.4708e-07
2.51007e-05
0.00210235
-0.0338201
0.00145894
2.66902e-05
-4.91017e-06
-3.99234e-06
6.94138e-06
-1.58241e-05
0.000253107
0.000558229
0.00156326
-1.61685e-06
2.37832e-06
-1.21021e-05
0.0129899
-0.00425432
-4.75764e-06
-0.00339216
-0.0422461
-3.88348e-06
-0.0326792
-2.61241e-07
1.37733e-08
0.00410376
-0.000130083
-3.26433e-06
1.21247e-05
-0.334431
-4.07237e-06
-0.000411439
-3.23004e-07
0.950547
-0.0550166
0.000497572
0.00185157
-1.42635e-07
0.0506336
-1.15956e-05
-1.13763e-05
-0.00114087
-1.35565e-07
-1.98036e-07
-1.14854e-07
0.0242378
-9.46082e-06
2.88346e-05
-0.0100151
-0.151198
-0.00151635
-0.868425
1.20545e-05
0.441822
-5.30415e-06
-3.23e-05
-0.00339955
2.1413e-05
-3.86981e-05
0.00462467
-0.139487
-3.73181e-06
0.138354
7.76664e-06
-0.000384552
2.23575e-06
0.00429969
-0.12002
0.000657786
-7.74841e-05
-0.0164332
0.00327274
-0.00171775
-1.09284e-06
1.00996e-05
8.31265e-06
-0.000175906
-1.20168e-05
-0.323207
-2.01053e-06
-0.127903
3.78765e-07
0.227256
2.66878e-05
-3.96503e-06
-2.2802e-06
0.772995
-9.43361e-06
-0.0140549
3.76808e-07
4.34513e-09
-0.0454389
-6.59134
0.000484212
-1.18147e-06
2.16525e-05
0.00386509
8.81475e-06
-0.0146264
0.00216316
4.94642e-07
-0.000181512
0.00264528
4.52634e-07
4.33129e-05
1.79351e-05
-0.000189201
-1.12524e-05
-0.0023875
0.0876397
0.0099543
1.78941e-05
-7.64032e-08
-3.78291e-07
2.8136e-05
0.00291086
-1.10504e-06
-8.90011e-07
0.00192293
-4.03521e-06
-7.24793e-06
6.50438e-07
0.0759717
-9.54454e-06
7.72495e-07
-0.139003
-1.45421e-05
-0.0334858
-0.114852
-0.0770567
0.00502218
-0.115504
3.10092e-05
0.0139663
1.52819e-05
2.40641e-05
0.000159733
3.86776e-06
-0.0739159
-0.000527145
0.00184588
4.17496e-05
-3.34514e-06
-0.00214174
-3.92898e-05
1.24588e-07
-1.11333e-05
-0.0650734
-0.0014269
1.96265e-06
0.00229952
3.09448e-06
3.3621e-05
1.85077e-07
0.00154537
0.119968
2.32302e-06
-0.217764
-2.51986e-06
-0.000737727
-1.01558
0.0582927
0.179227
4.75569e-06
0.022289
6.60306e-08
8.06115e-07
3.21355e-07
-8.61152e-05
-0.0005195
0.0280115
-4.81286e-07
-2.10178e-06
-8.42441e-06
0.00445508
1.22942e-05
2.91213e-07
-0.000291385
0.000187191
0.000636275
-3.20605e-06
-0.133356
9.41012e-06
-0.015268
-0.0526414
0.000489526
0.00131335
0.00216381
-0.00205215
1.69824e-05
2.02898e-05
-0.000379293
-0.000118231
0.000425592
-1.15064
0.00214869
-7.66209e-06
4.89061e-05
0.00305174
-2.23257e-05
0.000236669
0.100415
0.00288989
3.56413e-05
-0.0384031
-0.000945042
-1.85354e-05
2.09959e-06
0.0138869
-0.00140433
-0.00518677
2.51456e-06
4.92656e-07
-0.00191554
-0.000317071
2.11253e-07
-1.80464
-0.000784058
0.000148743
2.79831e-05
-2.31416e-05
0.00188396
3.59989e-05
4.2914e-05
0.000865915
-6.1104e-06
-4.55685e-06
-3.04961e-06
-0.0772465
2.14062e-05
-0.00648418
-1.12442e-05
0.00447393
-0.000223401
1.72904e-06
-0.000366786
-8.36402e-05
5.84823e-06
0.463932
-0.00101615
0.0221657
2.59557e-05
-0.00045004
9.90347e-05
-7.34761e-06
1.77982e-06
-24.4108
0.895576
-1.18878e-05
0.00447538
0.201514
3.30197e-05
-1.11628e-06
7.33534e-08
0.133865
-8.12553e-06
-0.00117226
-1.10317e-06
0.000573661
8.23781e-05
1.13728e-06
-0.000148057
1.80244e-07
-0.000102869
-1.03113e-05
-0.00884968
8.85569e-07
-0.00406212
-3.99432e-05
3.95471e-07
0.0179675
-0.00469929
0.000843721
-0.0770229
-6.41744e-05
0.140601
8.72734e-05
2.90023e-06
1.62255e-06
1.68341e-06
3.05453e-05
3.53465e-05
-0.000233908
-0.0106034
0.00916563
3.13893e-05
-1.08226e-06
0.0830622
1.09606e-06
-0.676761
1.97095e-07
-5.0691e-07
0.15983
0.00377883
8.84886e-07
0.0014941
-0.000123628
-0.0235766
-2.63964e-05
2.2411e-06
-1.85607e-05
-3.73692e-05
3.47004e-07
0.156709
-7.34184e-07
2.22258e-05
0.0101706
-2.58209e-06
4.06264e-05
0.0818507
-0.158349
2.4885e-07
-0.00159203
-9.04807e-05
-0.244387
-8.387e-05
1.35978
0.142252
-1.06895e-05
0.000411052
0.00350504
-5.29869e-06
-0.112495
1.23597e-07
1.11187e-08
0.00349626
-0.00515272
-0.116813
2.91901e-06
0.000201786
1.32228e-05
-0.000361371
-0.117893
-0.104487
-1.70605e-06
-1.75264e-07
1.43522e-05
2.23677e-05
0.000155726
1.83209e-05
-3.07758e-06
-4.57623e-05
-0.335824
-1.62966e-06
-2.43665e-05
2.02786e-05
1.92098e-08
-3.38834e-05
0.00451999
3.45024e-05
-1.04523e-05
-4.10507e-06
-0.000169956
0.139558
0.131275
0.00402941
-0.000289131
-1.09172e-06
0.00106378
-4.70716e-06
-5.01943e-07
-2.2742e-06
-0.000302479
-1.56227e-07
0.0239386
-0.0138645
1.59975e-05
-1.0537e-05
0.0125274
0.000136117
-0.000407601
2.8932e-07
4.03784e-07
1.51771
-0.000150736
3.26481e-05
0.00295912
-9.49157e-06
-7.12134e-06
1.90121e-05
1.85733e-05
-7.42789e-06
4.61336e-07
-7.92561e-07
-9.33388e-06
1.67199e-05
2.07415e-08
-0.0217678
-0.000435011
-0.000349508
9.21813e-09
-1.07898e-05
1.72019e-07
-0.000203038
2.8218e-07
1.22012e-06
3.83756e-05
2.57018e-06
-0.0965063
-1.60889e-07
-0.0298748
-0.131583
-0.00181293
-5.43076e-07
0.0160864
0.00283859
3.35011e-06
-5.15029e-06
-0.221931
1.21058e-05
5.20943e-05
9.12928e-09
12.7307
-1.03806e-05
0.0043325
7.08317e-06
-1.04033e-06
0.00558338
-0.079277
-1.71741e-06
3.48896e-06
1.34606e-08
3.59639e-06
0.000684014
5.04855e-05
7.27577e-07
-0.0392899
0.0833462
-0.177265
-4.23881e-06
0.00417876
0.0029153
1.04888e-06
6.46613e-07
0.0035486
-9.99968e-05
7.9978e-06
0.000930578
-0.0097713
-8.91496e-05
-0.000454067
-7.66179e-06
-4.4931e-08
-0.0296371
0.0109528
-0.000416693
0.612689
-0.143494
0.130545
-3.6591e-05
0.100455
0.138324
0.0353679
-7.08399e-05
0.00187
-2.7229e-05
-8.84602e-06
5.7367e-06
1.53438e-05
-0.0007156
4.77054e-07
-3.60014e-06
9.36761e-06
-0.000326042
0.00245112
-0.0791907
4.31309e-05
4.38661e-06
-1.40911e-07
9.59876e-06
-2.12785e-05
0.113989
-0.12919
0.00375528
-5.45349e-07
-0.0710278
1.18004e-05
-6.04681e-06
0.00100875
-3.99135e-05
1.16912e-08
0.00123482
1.43906e-05
0.0299846
-0.000180872
5.45946e-05
-0.0259842
-0.000837344
-0.0004419
2.87014e-08
1.63782e-07
-2.72729e-07
-0.111267
0.00228059
-0.00084583
0.0744263
9.63621e-07
0.00547715
-1.83115e-06
7.73068
1.20645e-06
-8.55705e-06
-3.04025e-06
-1.51087e-06
-0.0034016
1.15255e-05
-1.30016e-06
-2.98588e-05
-1.07511e-05
-0.345921
-8.18803e-06
-4.84076e-07
-0.00152637
-4.3171e-05
1.10602e-05
4.0638e-07
-1.32361e-06
0.00229438
2.37547e-06
-2.27204e-06
-3.30028e-06
9.19762e-07
-0.000714232
-4.9205e-07
-1.08543e-06
0.00286982
1.47852e-05
-4.02341e-06
0.108404
4.0303e-07
5.54681e-05
-0.0298086
-0.0153958
0.38983
6.05006e-07
-0.000359359
-8.99699e-05
-1.04653e-07
2.05646e-05
-0.000127463
1.38564e-05
-5.30881e-07
-3.6138e-06
6.04889e-06
-0.00565624
0.0509978
0.00127539
-0.000953383
1.18897
5.12989e-05
5.1382e-08
0.00124126
-6.92361e-05
-6.7901e-07
-0.000193468
2.74785e-06
-0.0005888
3.70283e-05
0.00196143
9.53687e-06
-5.733e-07
0.133453
2.02596e-05
0.111278
0.00409976
0.0378582
1.01192e-05
-0.000359689
-1.28254e-06
2.28379e-07
-2.02482e-07
2.59267e-08
-0.000188944
-1.45851e-06
-3.79123e-05
-1.09662e-05
-2.50624e-05
2.32274e-05
0.00241397
-0.202448
-8.26372e-06
4.91129e-07
5.2604e-06
2.619e-06
-8.76067e-07
-0.000191932
-8.96876e-05
2.30409e-07
3.06591e-08
0.00239399
0.000114572
5.12578e-06
-9.6819e-05
-0.0617991
-1.89867e-06
-2.22522e-05
-0.0455372
-5.41313e-06
0.115518
-7.26324e-08
-9.4731e-06
-0.000466213
-0.00376528
-3.97576e-07
-9.42661e-06
-0.000241714
-2.85316e-05
8.14583e-06
0.0229746
0.0286181
-9.86252e-06
0.115577
2.84606e-07
0.00373449
-3.25803e-06
-0.000289481
-0.0303933
-0.000170284
-0.000409863
2.10908e-06
0.00012249
2.22e-05
-4.48167e-05
-0.000132817
7.81512e-07
-1.21066e-05
0.00123172
0.205653
-0.000711723
3.41123e-05
-8.38436e-06
-9.47271e-06
-0.0113891
-2.11085e-07
-1.23564e-06
-0.00392401
4.28454e-07
-2.45769e-05
0.0185598
0.109005
-8.6029e-06
-7.43911e-07
1.07218e-06
-3.6012e-06
0.00313942
4.42882e-08
-0.00478349
-0.809567
-8.88581e-05
0.000598757
-1.03801e-05
0.00332224
-4.03428e-07
2.44989e-05
0.0428123
9.13542e-06
-0.000910473
-2.59131e-06
0.0983752
0.00011391
2.05668e-06
1.94622e-06
1.3
3.48771e-06
-3.85787e-06
-0.130395
-0.000871716
-0.0199984
-3.13264e-07
3.23799e-05
0.463084
0.0251642
-0.159111
-0.00200689
-6.51615e-07
9.87733e-06
7.87048e-06
-0.000751277
-0.000616661
-0.0321529
1.10242e-06
0.00145316
-0.000102121
0.000556804
0.127062
4.19869e-06
-0.124497
0.00134646
0.141285
8.1331e-07
-0.000468365
3.60758e-05
1.46462e-07
1.16232e-05
3.6483e-05
-7.51767e-05
-0.000375859
-1.83343e-06
0.000143268
-7.80321e-05
-2.84385e-05
2.93507e-05
9.8913e-06
-0.161451
0.00157547
0.00980392
2.29373e-07
-1.00741e-05
0.00497778
3.85273e-05
0.00229521
0.173479
-0.0104026
0.288477
-1.39296e-07
-0.000136275
-0.000126278
-0.156025
2.43294e-05
2.83246e-05
2.651e-06
0.00243537
8.33005e-07
0.00138328
-0.0828612
2.6525e-05
3.2737e-05
-4.3915e-06
0.017321
-3.58487e-07
-4.99304e-07
-5.93481e-06
-9.5211e-06
-0.000884498
-6.91093e-07
5.30518e-07
-1.20168e-06
0.000109364
-0.0349011
-3.96189e-09
-3.08068e-06
-1.97469e-07
-8.89563e-07
-3.48808e-06
-0.147282
-6.31016e-06
-2.97259e-06
0.000464686
-0.0001437
7.25183e-07
1.15305e-05
-0.000223109
0.0453693
1.06051e-05
1.00618e-05
-1.9318e-07
-7.00959e-08
0.00222144
0.0015702
0.0832475
1.72472e-06
-0.0205199
8.014e-06
3.62101e-06
-0.000124295
-0.0037301
0.222929
-5.53179e-07
0.00057913
-8.49854e-06
1.0945e-05
-2.9762e-06
-0.124583
6.93959e-07
0.000467623
-0.00698843
-2.2776e-06
-0.00034052
-6.79018e-06
-1.61282e-06
-8.24394e-05
9.2955e-06
-0.157551
-0.000343168
-4.02487e-06
-1.70562e-06
0.208735
-8.1367e-07
3.15359e-05
-0.00177742
-2.41695e-07
-1.01133e-06
2.52166e-06
-2.92841e-06
0.00587428
0.072149
1.58488e-07
0.000891463
-0.335001
-0.136754
0.00318822
0.0031202
-0.135265
-7.70816e-06
1.97783e-06
-1.43204e-06
0.15719
0.190675
-6.49305e-07
-5.44328e-07
-1.00312e-05
-0.000659645
0.10724
-0.174014
4.47756e-05
-6.11221e-07
3.18184e-07
-1.41725e-07
-6.85851e-06
0.00334235
-6.07703e-07
-0.128047
9.39568e-07
1.85098e-06
9.39585e-07
0.00725922
0.000215877
-0.0465935
3.47601e-05
6.111e-06
-9.37458e-06
-0.000587793
-0.484128
-0.0617415
0.000768625
-6.54717e-07
-6.22503e-06
-0.00289563
0.00278726
0.0421531
4.02577e-05
-1.61078e-06
-2.20287e-05
2.07657e-06
-0.109046
0.00016331
0.00465235
-0.000659563
-3.79944e-07
1.82679e-06
1.86089e-06
1.94466e-05
1.20869e-06
0.0718389
-0.000431882
-1.67869e-05
-0.0715686
-4.1792e-07
-9.63064e-05
0.0779707
-1.83592e-07
-0.000115904
2.46296e-05
-0.153826
1.11052e-07
-2.05249e-06
-0.0228574
-0.0686018
0.169406
4.19454e-07
2.22963e-06
0.023547
-9.13956e-05
-7.51668e-06
-5.85654e-07
0.0500154
2.36048e-05
-1.11343e-06
-0.0507083
-0.0613656
-3.51619e-05
0.0596543
2.56057e-07
3.23888e-05
-0.0173532
2.43702e-06
1.50707e-06
-1.65285e-06
0.0789059
-5.03678e-06
-8.44185e-08
0.000995756
1.06938
-0.000332779
0.000194385
-1.61955e-06
1.91823e-07
0.0017231
-3.33303e-05
9.46977e-08
-2.84411e-06
-6.9916e-07
1.37148e-07
0.000798725
-9.18584e-05
-0.00294018
-3.54713e-05
-0.0042205
-1.31727e-06
3.98249e-05
-4.75463e-07
-0.00168467
-6.80486e-06
-0.0247654
4.04559e-06
2.73697e-07
0.047824
-2.91644e-06
0.00328029
-4.84289e-05
-1.45245e-05
0.0040106
5.00352e-07
1.78457e-06
3.05249e-05
-1.67229e-06
-0.0242415
0.00430342
-1.15704e-05
0.0045694
-0.000740314
0.000199814
-7.01649e-07
0.0722472
-5.48946e-07
0.000960308
-2.33179e-06
0.124024
-0.0689228
-0.00381806
-0.122966
4.18497e-07
0.0234083
-7.25141e-06
2.81263e-06
0.00011602
-0.0586553
0.000160831
-0.000183957
-2.99424e-06
2.27558e-06
-9.8481e-09
4.30844e-06
0.157032
-6.06542e-05
0.00969663
0.000580938
-5.60988
4.40606e-07
-4.9161e-05
0.00469884
-0.149242
5.23468e-06
8.41402e-06
-1.5394e-05
-0.000119156
-1.67926e-07
0.095506
-2.22849e-05
-2.28312e-07
-0.056051
-7.08254e-07
-3.47082e-07
0.200052
0.0773675
-1.27071e-05
2.00639e-06
2.1017e-05
0.00485313
-0.152964
3.65294e-06
9.00642e-08
-0.000290887
-7.35807e-07
-0.034895
3.0732e-08
-0.330141
1.8477e-06
-0.184369
-1.61952e-06
-0.00108407
0.137414
-0.074534
0.0210988
-0.0949661
-1.14584e-06
-0.174021
-7.15304e-06
-0.024054
-9.12079e-06
-1.55801e-07
0.00134017
0.0117414
0.00271231
2.22253e-06
0.033371
7.7303e-07
-0.000994705
-6.6945e-08
-3.22105e-06
-0.0795998
-1.03973e-05
0.0419408
1.43375e-06
3.1651e-07
0.0109355
-1.87899e-06
3.95813e-05
-2.35841e-06
-7.66204e-06
-2.28962e-05
3.70111e-06
-9.65681e-05
2.37485e-05
1.66056e-07
-1.2438e-06
0.0222958
-0.00042762
-0.0185254
0.0224812
6.32831e-06
8.32076e-05
3.52801e-05
-0.00159838
-0.0484185
-0.0464273
-1.05236e-05
0.00234026
3.82313e-06
0.00166975
-0.00123981
8.47766e-07
0.00424101
0.00404611
0.000753961
1.06207e-07
-8.80699e-05
-9.28843e-06
-0.0891947
-0.000359142
1.62033e-06
-1.27965e-06
0.120812
-5.42009e-06
0.0044261
2.10932e-05
-0.183804
-2.22974e-05
-0.000901528
8.92824e-05
-9.30855e-07
0.0485942
-0.00141117
-2.92708e-06
-0.000373934
0.00389442
0.00286365
-0.000114066
0.00433817
0.00306599
0.0291269
-7.4291e-05
-0.0367197
1.38421e-07
2.14757e-06
1.01666
0.225097
-0.0208697
-1.79691e-07
-7.78059e-08
-1.1455e-06
1.40999e-05
0.124496
2.25112e-07
0.000325289
-0.00975463
0.00428662
-0.0453473
1.01745e-06
0.00414972
2.42967e-07
-0.0142537
0.000142659
8.78638e-06
-2.34448e-06
-8.74348e-06
-8.63623e-08
-0.198443
6.7685e-05
-0.161252
-0.0255975
-8.774e-06
0.00338162
0.0405817
-1.05172e-06
6.90797e-06
-0.000289223
0.000159785
1.14078e-06
4.99599e-05
-2.02574e-08
-1.30156e-06
-9.42521e-06
-8.32623e-05
-0.0201987
-0.000261163
5.06288e-05
0.0611264
0.0328634
9.26792e-08
0.0404863
4.77137e-07
-3.96944e-07
-8.84823e-07
-0.000280087
-0.0333722
-1.15047
0.00308344
-1.60736e-07
0.00117195
0.00121404
-1.86195e-07
-5.53401e-07
-0.00059994
2.86408e-07
2.33426e-08
4.0981e-05
-0.0228775
-0.115635
1.70567e-06
0.00476599
-0.00373822
0.00440816
1.88509e-05
-0.0120407
0.468081
4.38482e-05
-7.70605e-06
0.00204406
0.000931568
1.02984e-06
0.000154165
1.09511e-07
-2.25705e-06
2.99189e-05
-2.70478e-06
-0.0011698
4.35546e-08
3.29666e-05
1.61836e-06
-0.183708
2.00284e-06
0.00166115
-0.0257992
-0.183575
-7.78129e-07
1.60958e-06
-0.00109218
-4.95598e-05
9.42933e-05
5.03793e-05
-0.0423046
-9.54752e-07
-0.0306551
7.00288e-06
2.30074e-08
0.0401497
-6.16553e-05
-0.180724
-1.8751e-06
3.41596e-06
-0.00030779
-0.0146153
1.5125e-06
0.000280888
-0.0156431
-1.51008e-06
-1.29823e-06
-1.49059e-05
0.180652
-5.53404e-07
-1.07436e-05
-0.00120127
-0.0767716
-0.00557625
-2.61852e-07
0.00850303
3.7501e-08
-0.000183849
0.662122
-0.0141116
4.10893e-07
0.190332
9.30722e-07
-0.0671097
0.00401698
-0.0172536
-0.00249786
4.32229e-07
0.0012998
0.00307128
-0.026052
3.56999e-06
-2.11037e-06
2.67155e-05
0.0012717
-4.00825e-06
2.55517e-06
-0.000227265
1.58684e-07
3.15633e-06
0.000736836
0.0619778
-0.0282293
-2.70628e-06
0.00534844
0.633653
-0.000105066
-3.1146e-07
0.0872414
0.000241242
-4.12849e-05
-1.85738e-06
1.18464e-07
-7.05359e-07
3.68792e-06
-1.13932e-06
-0.0191603
-0.0644464
1.26088e-07
-1.42951e-07
-0.00522464
2.98077e-06
-2.86184
0.00123394
-6.58479e-06
-0.0287254
0.0205055
-8.8226e-05
3.16786e-08
0.0288527
6.40745e-07
-1.19009e-06
-1.53247e-07
-1.89411e-05
-7.63745e-05
5.72218e-07
-0.0190146
7.60304e-07
-9.21877e-06
-0.138296
0.00283669
0.00361931
-7.86375e-05
-0.00222626
-0.0834794
4.49884e-05
2.16349e-05
-0.019535
-0.000499489
-4.65277e-08
-0.0936061
-0.0738226
3.43847e-06
-9.49761e-06
0.191538
-8.0119e-05
0.127554
-8.53713e-06
-6.73889e-07
-2.66429e-06
0.00274628
-1.80645e-05
-9.58694e-06
1.44374e-05
-0.123594
-0.00931337
0.000539437
2.28484e-07
-1.10425e-07
-0.16421
3.55228e-08
-6.97033e-05
-0.052585
0.0120457
-1.06574e-05
-4.01238e-08
-0.013442
-3.99737e-05
-0.0717314
-0.0461567
-2.77984e-05
1.04841e-05
-0.000159196
-4.39798e-05
-5.37173e-07
-4.97647e-07
-0.00323126
-8.03357e-06
0.119339
-0.0948228
9.94609e-05
-0.086037
0.00237273
9.38536e-05
-2.16839e-05
0.111792
-1.86451e-06
-0.00145284
0.00721652
0.054983
0.00827298
-2.33828e-05
-8.19561e-06
8.36197e-05
3.40072e-07
-0.0818163
4.23288e-06
-7.82511e-07
0.00340293
0.155748
0.000311472
3.26177e-05
-0.0514992
-0.0051538
0.000188543
0.000517945
0.00148392
0.143845
1.14065e-06
-0.0011213
-0.143759
-0.0175619
-0.000295112
8.68118e-07
0.214129
0.000353092
0.0144928
0.123728
-6.02733e-07
-0.000266482
-1.18413e-05
0.00468034
-1.17891e-07
7.96784e-07
0.174682
-0.000637093
-1.21926e-06
-1.58469e-07
2.19639e-07
8.11067e-09
1.15584e-05
0.123445
0.07835
-4.82536e-06
-1.38232e-06
4.84727e-07
8.65812e-07
0.00273903
-0.154431
0.000135448
-0.00449212
0.000436309
-0.000128922
0.0654457
-1.76964e-07
-0.0460445
-0.339901
-0.00239725
-3.89605e-06
2.13517e-05
0.253949
0.0230924
-3.8538e-07
-2.82352e-06
-5.12083e-07
2.77134e-07
-0.124018
-8.56151e-06
-7.74984e-06
-2.01032e-05
-0.112384
-0.00277058
2.59231e-05
0.132233
4.00392e-05
-4.30896e-06
0.0045188
0.0866043
-1.29833e-06
-1.03038e-06
7.21617e-07
4.09125e-07
0.000111359
0.000100979
-5.03598e-06
-1.82511e-06
-2.60675e-06
0.00029224
-0.00290767
-2.65909e-06
-9.10544e-06
0.00066769
-8.55798e-08
-0.000113325
-5.11493e-07
-1.00268e-05
-1.3305e-06
1.75551e-06
-6.05004e-06
3.38636e-06
-8.34323e-06
2.41472e-08
-2.90406e-06
-0.027015
2.01609e-06
-1.16125e-05
-5.38987e-06
-6.86142e-07
-0.000106861
-5.29528e-05
-0.00156408
-5.45726e-07
-4.95701e-05
-6.87172e-05
9.87481e-07
-1.34541e-06
0.0258495
0.000233678
0.0606526
2.10626e-08
-0.0272783
0.12858
1.55824e-06
-1.16291e-06
0.219536
2.61819e-06
-0.0338951
0.00510349
0.0767248
-0.00413887
-6.72089e-06
0.0757495
0.00063312
-0.00123457
0.00192507
1.76622e-07
4.78297e-06
-0.0111711
-3.11797e-07
-0.0503948
-0.000106035
-5.91585e-06
-2.51042e-06
-2.57618e-06
-9.43042e-07
-0.0300189
0.00321878
-0.0598925
5.16691e-05
0.091506
4.08572e-06
-9.57677e-06
-6.40462e-06
-9.52738e-07
0.00653393
0.000103085
-8.17399e-06
9.03581e-05
1.28792e-06
9.64063e-07
-0.079009
0.000232802
-0.132476
1.3411e-05
4.66595e-06
-3.09669e-06
0.00419519
8.42784e-08
-2.75254e-05
-0.0560023
-0.0445283
-1.5293e-07
4.95328e-06
2.27314e-05
8.78377e-07
-0.00032213
-0.0116254
2.81107e-08
-8.14093e-07
-2.99224e-05
-1.00791e-06
-1.96191
-7.46681e-06
1.37723e-05
-2.26476e-07
0.00277597
-0.000935646
2.57142e-05
0.311974
0.000146213
5.25328e-05
-0.0078223
0.0268497
0.0714301
0.0340618
-0.00291207
1.23096e-07
2.6728e-07
1.01877e-05
0.000273288
0.0980653
0.0333009
-8.78024e-07
0.00062482
4.75327e-07
-1.27216e-06
2.71812e-06
-0.000128343
-0.0178531
1.85745e-07
-0.158444
-3.25757e-06
-1.06906e-05
-0.0450457
-6.86593e-06
-0.167434
3.81474e-07
-0.00180497
2.66504e-05
-0.00446143
3.29152e-07
1.87326e-06
-1.78957e-07
-1.68003e-07
-0.358909
-1.31771
1.67866e-06
-5.6492e-07
-0.0536394
0.000704781
-1.28561e-05
-0.0611965
-0.0580743
-6.41662e-07
-3.08417e-06
0.00283279
0.11671
-0.0124957
-0.000129067
3.47589e-06
0.166452
-2.35071e-06
-0.0938142
-8.07149e-06
-0.0289917
-9.48925e-06
0.00119072
-3.31196e-06
-2.4042e-06
-0.000293239
0.00616412
-0.00313346
-9.23378e-06
-2.81944e-06
0.0020189
-0.0606285
-8.09524e-07
0.00407037
-4.72921e-06
-1.37753e-06
-1.17163e-05
0.0256302
-2.34555e-06
0.235828
3.66451e-06
-0.00101788
0.0330807
-2.34523e-06
0.0555973
-3.9412e-06
0.00476854
0.00058834
-1.18095e-06
1.95391e-08
-0.400546
-6.47677e-06
0.00435576
0.0355683
0.00438847
6.17405e-07
3.52691e-06
-0.000827119
2.63903e-05
-4.42762e-06
1.80395e-07
-0.142102
2.84173e-05
5.13445e-05
-1.19237e-05
-0.0666105
-2.30765e-05
5.23611e-06
-2.3127e-06
0.205214
-3.77513e-06
0.113102
2.06702e-05
-0.00184981
8.78192e-06
0.00113819
-0.00229071
-6.083e-06
-4.51975e-06
9.93975e-06
-0.0143909
4.90595e-07
-0.1263
-0.000267288
-9.68941e-06
0.000125909
0.233182
1.64864e-06
-7.76804e-06
-1.14881e-05
-1.10809e-05
-2.50437e-07
1.49782e-07
-0.000266361
0.000317514
0.030571
-8.2994e-06
-0.0738157
0.00179743
-3.03172e-06
0.38018
0.000472983
0.00277668
-0.0388367
4.84342e-05
-0.117809
0.0311453
-7.15204e-06
-2.79744e-06
4.159e-07
2.76119e-05
6.82013e-05
0.00147088
-2.26003e-07
-0.000587088
8.33467e-08
0.000284144
-7.76038e-06
1.38529e-07
0.0019437
-0.000274472
-8.91431e-07
-3.73911e-07
-0.0179501
-0.0541649
0.360873
-7.94667e-08
4.14074e-06
0.0304422
5.40485e-06
0.119781
-6.77806e-06
-0.000126397
5.56068e-05
-3.16692e-06
3.07589e-05
0.000794259
2.88744e-05
0.0183092
2.89057e-08
3.32647e-05
-1.17937e-06
-0.000130913
3.24985e-06
-8.13122e-07
0.073165
-2.70126e-06
0.00298692
-0.000526035
-0.219624
-2.85056e-05
-0.0247261
-0.000184611
3.47411e-05
-1.0649e-05
-0.0309617
0.00432742
-0.0682745
-0.216432
-1.60055e-05
0.020367
2.15468e-06
-8.24675e-06
-0.319594
-1.09707e-07
-0.000157724
-5.66585e-07
-0.50712
-3.8781e-07
-8.34425e-05
3.64836e-05
0.00480908
-9.90714e-07
-1.14402e-05
-0.000225023
-8.61268e-06
-0.00199544
0.0134517
0.00249522
2.68209e-06
-0.0011903
-0.0868196
-1.10212e-07
0.00142691
-1.03549e-06
0.00419643
0.000170224
-1.03233e-05
0.000149617
-0.000474384
-0.00197481
-2.93775e-05
-6.02609e-07
-0.0347405
-0.0646632
0.000131448
8.20769e-07
0.139046
-1.02451e-05
0.120116
-0.0781956
-0.123508
0.000477178
0.00276932
0.206376
-3.00947e-07
0.000185901
-4.90558e-06
-1.26649e-05
-0.000830228
-6.03251e-08
-0.142735
0.219364
0.00359092
-0.13353
-9.16421e-05
-1.25476e-06
0.000803598
0.0207892
8.46981e-07
-0.000327747
-3.45383e-05
-0.0922767
-8.97757e-07
0.00288823
0.0865131
-0.00156357
-0.00609258
7.02972e-07
1.751e-07
-7.22956e-07
3.84301e-05
-0.152916
-0.054673
-0.00113575
0.0051573
0.119487
-1.71526e-06
7.38559e-07
-0.00385347
-0.014709
0.0333692
2.06317e-06
0.0011172
-0.025863
-3.58355e-05
-0.000137065
-1.07519e-06
-0.026419
5.36141e-07
0.00072745
0.12478
0.167619
-2.17438e-06
0.105509
3.01238e-07
-9.9115e-06
0.000116953
-4.73105e-07
-0.000664713
1.2925e-06
-0.0757059
-0.0515513
0.000628283
-0.0976057
2.38008e-05
-7.50432e-07
9.75255e-09
1.54532e-05
-1.32982e-07
0.0391627
0.000175354
4.87648e-05
5.89248e-08
0.181132
-0.0630641
5.32964e-07
-1.30973e-05
-4.6298e-06
-0.157106
0.136468
1.34987e-05
-1.19806e-06
-2.53174e-06
-2.76821e-07
-2.30433e-05
0.0352344
4.95129e-08
0.000752552
0.00268926
2.0994e-06
-0.359282
-0.115062
4.44031e-05
0.0410385
-4.67246e-06
-0.0453578
0.000680727
0.0553245
1.524e-05
-0.00540594
-1.14068e-07
-0.00831075
5.91724e-05
-0.00109272
-7.75642e-06
6.42294e-06
-2.7579e-08
-1.30714e-06
-0.123418
0.00204553
-9.45963e-06
0.0346372
0.0310268
-1.17673e-06
-0.0352628
1.1672e-05
-1.17208
0.151775
0.00338333
0.00165485
0.338097
-0.152383
0.0473089
-0.000474842
4.12286e-05
-0.0625462
-0.00588052
-0.0211372
0.000405326
0.000750474
-1.10049e-06
1.8156e-07
5.13524e-06
-1.19045e-06
3.25611e-06
0.242819
6.3133e-07
3.64513e-05
-8.17998e-06
0.122518
-8.31786e-07
-5.54954e-07
1.06541e-06
-0.000615105
3.54439e-07
-2.19733e-06
-1.18163e-05
-5.91909e-07
-7.57311e-05
7.6251e-06
-1.46059e-06
0.0485293
-1.14714e-06
-4.22043e-06
-0.000182837
-7.9068e-06
1.46208e-05
2.40691e-06
0.00799927
-0.000453001
3.59705e-06
-4.98976e-05
-2.01034e-06
-9.97823e-07
0.0693852
3.60664e-05
-2.35961e-06
-0.087502
-1.60674e-06
0.00473913
-0.00127509
-2.04877e-06
-0.00129835
-8.71451e-06
-0.0152609
0.00486561
2.30462e-05
0.00100142
8.55885e-06
-1.59863e-07
-3.80918e-05
-0.0317125
-2.99064e-06
-1.13262e-05
-3.40905e-06
3.08583e-05
-7.99545e-07
5.07941e-05
-0.000194015
-0.148579
4.16108e-05
9.93494e-07
-0.019842
2.38762e-05
0.0325611
-5.42291e-06
-0.00287121
-4.13207e-05
0.00119711
-6.51204e-06
-0.0580147
0.139692
-1.47529e-05
-0.0302187
0.00100175
-4.22895e-07
0.139398
-2.829e-07
3.54102e-06
1.4149e-06
-1.81549e-05
6.22046e-06
-0.00796225
1.91609e-08
4.3765e-05
3.18719e-05
0.102194
-4.47185e-07
5.10689e-05
-1.97466e-06
-0.000367212
-2.23844e-06
-7.12892e-08
5.41944e-08
-2.13807e-07
0.00253041
4.69758e-07
0.0391963
0.15194
3.24113e-07
-0.080462
-0.000574693
-0.000240962
0.161921
-0.191926
-0.0538919
0.226096
0.0348423
0.219547
-0.000140776
5.18223e-06
4.32895e-05
5.30601e-05
-0.048719
-8.04769e-06
-0.000688347
-0.967258
4.54099e-06
0.00571741
0.000578924
0.0893822
-9.12628e-06
-1.58487e-05
1.81458e-06
-2.34451e-06
0.00105609
0.111956
-9.72307e-05
0.0227308
-0.000247515
-2.01968e-07
0.125309
-0.00114296
0.0037159
4.18829e-05
1.09738e-06
-0.142406
0.0943701
-6.38079e-07
-6.97202e-06
2.07989e-07
9.40519e-07
-1.24296e-06
-1.35502e-05
-0.140926
4.98245e-06
5.08073e-08
-0.137042
-0.0433891
3.66962e-06
-1.00477e-05
-4.72225e-07
-0.0247218
2.60096e-07
-1.24081e-06
0.198773
-0.0981058
3.30882e-07
-9.55105e-05
0.152699
-0.00042881
0.000118419
-0.000442083
1.81165e-07
0.104831
-3.05459e-07
-0.00808424
-0.163557
5.4293e-05
-0.00292478
0.000317323
2.03004e-06
5.42442e-08
-9.07722e-06
6.22185e-07
0.00446134
-1.0013e-05
2.9844e-06
-1.71259e-06
-1.00314e-05
0.000693757
-0.0115512
2.22139e-05
5.95481e-07
5.75575e-07
2.08638e-07
0.205107
0.00627044
0.110057
-0.00017536
3.53115e-05
-3.41822e-06
5.43652e-06
-7.99038e-06
0.0693774
-4.07124e-05
-3.92165e-05
-0.167785
0.299947
-0.00237403
1.44798e-05
-1.15408e-06
2.26174e-06
3.64364e-06
1.38984e-07
2.64216e-05
9.66904e-07
-3.7167e-06
1.22965e-05
-0.102612
0.00101788
-5.38795e-06
-0.000188571
-1.03065e-06
-0.234487
-0.0682222
-0.000416787
-0.076631
-0.0619044
-1.97729e-05
0.099273
-0.00445742
1.14775e-06
0.0260217
0.216376
0.00216684
0.000100677
-4.31589e-07
-1.28265e-06
-2.93131e-06
0.0501897
0.000825006
0.00021869
-0.00157104
7.28802e-05
-3.12245e-07
-0.172152
-0.106196
0.000373376
0.00314863
1.70127e-06
0.00383945
1.81099e-05
0.0109221
0.00316118
-0.0447559
3.93574e-05
8.64759e-06
-0.000126388
-0.00098935
-1.14757e-06
-0.396447
-0.16664
-0.00062077
0.0785668
0.568929
0.16048
-0.015326
-0.00563292
-1.44269e-05
-0.00077115
-0.0013588
4.17605e-05
0.0504149
-1.78464e-07
2.01655e-07
-0.138115
1.01394e-06
-1.48701e-06
-1.38952e-06
-0.00109174
1.40091e-05
6.10818e-07
0.201707
2.38054e-07
-0.00634004
-0.170401
-0.0439291
-0.0102932
1.04083e-06
-6.18091e-05
1.01314e-06
-0.00132828
-0.00117125
7.42473e-07
0.0550081
-0.0023069
0.000200521
-4.7563e-07
-0.00330524
8.99207e-05
-0.0328896
0.00127417
5.12565e-05
5.6472e-07
2.06239e-06
-0.0719681
-0.000353155
-0.000115968
0.113665
-2.78548e-06
1.44327e-06
-3.47927e-06
-0.193456
3.53495e-07
-0.000388404
-2.11796e-06
-0.0678221
-4.12232e-07
-0.0768096
-0.000137989
0.225936
-0.0566567
0.000828185
-6.47547e-06
-1.15078e-05
-0.000910626
4.97282e-05
-9.82403e-06
-9.49023e-06
-0.0276099
-0.00304928
-1.67552e-06
-0.000154943
0.0931639
2.90515e-06
0.000248226
2.69754e-06
0.1566
-0.0520919
-7.22979e-06
1.47111e-05
-8.24968e-06
0.0699485
1.68617e-06
0.22242
0.0359454
-0.00323149
0.164841
-0.0389866
7.18038e-08
1.69057e-07
-5.18324e-07
0.0741174
-8.64003e-06
-0.0593375
4.88757e-07
0.00101969
3.24603e-06
0.00143045
1.20825e-07
-0.000337827
0.00331079
-0.00115628
0.00225466
-0.0296351
-0.0200438
-1.53436e-06
-0.000909597
-0.118768
2.5191e-08
0.00686043
-5.607e-06
-0.000157197
5.0927e-05
-0.000134728
1.42214e-06
0.192816
4.30727e-08
0.0234056
3.42052e-08
-0.00751324
0.000360939
-1.67058e-06
4.65488e-08
0.00166113
3.02844e-05
2.25047e-05
-0.00525186
-1.50038e-05
0.00112219
0.00164038
-0.000182746
-2.77806e-06
-1.17456
0.00171178
0.108193
0.00402869
1.03709e-07
-0.592802
0.00196062
0.00270536
-2.62221e-06
-0.0378857
5.71039e-06
-5.70892e-07
0.206458
-0.0513777
2.92904e-06
4.90774e-05
-2.57486e-06
-0.000406046
-0.000214516
-0.000331263
0.126137
-0.0152296
-0.000267182
-8.96835e-07
-4.14193e-05
-0.00012262
1.75752e-06
-0.000970322
4.5285e-06
1.14406e-05
0.0029158
-5.23788e-06
-9.58203e-06
-0.00114369
2.94787e-05
-5.42287e-06
-0.000138766
0.00141539
-2.40204e-06
-1.67495e-05
-1.67996e-06
-2.89276e-05
-0.00133753
0.177484
0.00412553
0.00152986
1.0604e-06
-0.107601
-6.53729e-05
1.1841e-06
-0.000264994
3.46335e-05
0.0017412
0.00210293
-0.00212191
-6.85559e-06
2.81457e-06
0.00529287
-0.145072
0.00180837
1.0607e-06
-6.19176e-07
-2.65799e-06
6.699e-07
-0.207307
-0.00344306
-8.66205e-06
2.68306e-07
0.0337414
0.0195253
-0.153248
-0.097611
-1.58412e-06
-0.000203656
-4.21989e-05
0.000130372
0.00397441
3.72839e-06
-0.00634792
-0.00193097
-0.0913729
3.20194e-07
0.182325
-0.0468441
5.06901e-08
-9.06677e-05