/*--------------------------------*- C++ -*----------------------------------*\
| =========                 |                                                 |
| \\      /  F ield         | OpenFOAM: The Open Source CFD Toolbox           |
|  \\    /   O peration     | Version:  v2012                                 |
|   \\  /    A nd           | Website:  www.openfoam.com                      |
|    \\/     M anipulation  |                                                 |
\*---------------------------------------------------------------------------*/
FoamFile
{
    version     2.0;
    format      ascii;
    class       volVectorField;
    location    "100";
    object      ddt0(U);
}
// * * * * * * * * * * * * * * * * * * * * * * * * * * * * * * * * * * * * * //

dimensions      [0 1 -2 0 0 0 0];


internalField   nonuniform List<vector> 
27915
(
(0.000394241 0.000256051 -7.64281e-21)
(-0.0018524 -0.00368456 3.76074e-21)
(-0.00196201 -0.000236982 0)
(-0.0211182 0.00208171 -2.85213e-22)
(0.00227722 0.0020372 7.48628e-22)
(0.000534181 0.000539888 2.23811e-21)
(-0.0159155 -0.0151405 0)
(0.00160136 -0.00107274 -2.32253e-21)
(0.001416 0.00310164 0)
(-0.000803994 0.0015647 -1.11929e-23)
(0.000629926 -0.00131478 0)
(0.000207086 -0.000442395 1.35143e-21)
(-0.00368007 0.00321718 2.20505e-21)
(0.0330998 -0.00663676 4.8082e-21)
(0.0243438 0.0212423 1.19233e-21)
(0.000742057 -0.000364312 5.81701e-21)
(-0.00281016 -0.0195383 1.98392e-22)
(0.00159659 -0.000213615 -2.12213e-22)
(0.0109692 0.00348733 0)
(0.000446173 -0.000187538 -4.97806e-25)
(0.033653 -0.00667126 -4.41454e-21)
(0.000293268 -0.00017002 -5.72231e-21)
(-0.00260702 -0.0193447 4.79405e-22)
(0.000389851 0.000231669 4.09416e-21)
(8.85109e-05 -2.11951e-05 6.00696e-21)
(0.000275094 4.05809e-05 -1.53787e-20)
(0.000135751 -0.000323007 -9.75306e-21)
(0.00178044 -0.00409477 -3.26538e-21)
(-0.0205089 0.00253125 3.01947e-22)
(0.00764777 0.0061113 -2.44363e-21)
(-0.000983439 0.00067508 5.09586e-21)
(0.000169787 0.000114629 2.36165e-21)
(-0.00137956 -0.0187887 3.7333e-21)
(0.000448454 -0.000184482 6.47943e-24)
(0.00994965 0.00441888 -1.08092e-21)
(0.000144798 -0.000348319 -5.70194e-21)
(0.000223336 -0.000492944 -5.04423e-21)
(0.00124366 0.000216105 0)
(0.000899063 -0.00229911 -4.07697e-21)
(0.000705457 0.000830456 -3.15929e-21)
(8.27435e-05 -2.46277e-05 -1.16441e-20)
(0.00100041 -0.000242195 5.79224e-21)
(9.96786e-05 3.87292e-05 5.58857e-21)
(0.010485 0.00591139 -2.1716e-21)
(0.008194 -0.0125229 0)
(3.93228e-05 -1.41539e-05 -6.16404e-21)
(0.000163401 -0.00058708 -4.19511e-21)
(-7.43997e-05 0.00169956 3.87065e-21)
(0.000323676 0.000214305 0)
(0.000310507 3.1667e-05 0)
(-6.47977e-05 0.00172103 3.91613e-21)
(0.00989908 0.00613586 2.40832e-21)
(-0.00829427 0.00347335 -3.29707e-21)
(0.000729586 0.000780251 0)
(-0.00951901 0.00115166 0)
(0.014941 0.00298488 -2.47524e-21)
(0.0208804 0.00034267 0)
(-4.21192e-05 1.02903e-05 -4.18189e-22)
(0.000293091 -0.00016185 -5.57171e-21)
(-0.00862964 -0.00835329 0)
(0.000170271 9.66296e-05 0)
(0.00148997 -0.000299798 1.48558e-21)
(0.00552854 0.00183089 -3.49851e-21)
(-0.00148646 0.00368596 -1.84898e-21)
(4.75858e-06 -5.87251e-05 0)
(0.000234946 0.00131663 0)
(4.09413e-05 0.00169158 -2.79184e-21)
(0.00195243 -0.00745527 -1.78876e-21)
(0.0253733 0.00727431 4.57821e-21)
(0.000362765 -0.000544451 0)
(0.00103502 -0.000206775 1.08535e-21)
(0.00714312 0.00648984 2.12609e-21)
(6.92065e-05 7.45214e-06 0)
(0.00024584 1.97838e-05 0)
(0.000935599 -0.000416695 0)
(0.000719185 -0.000151772 2.30423e-21)
(-0.00273184 0.00463717 -5.03132e-21)
(0.000885651 -0.000448819 6.80551e-21)
(-0.000681576 -0.000348149 0)
(0.000235233 -0.00040819 -5.40777e-21)
(0.0010101 -0.000229359 -6.0191e-21)
(0.000727725 0.000817246 0)
(0.000268042 3.08548e-05 8.56938e-21)
(0.00030322 2.78953e-05 3.64415e-21)
(0.00989442 0.00292096 3.73165e-21)
(0.000104576 1.56711e-05 0)
(0.000321172 0.000193361 0)
(0.000378839 -0.000525887 8.26964e-21)
(-0.0291376 0.0104788 -2.79375e-21)
(0.0014376 -0.00036 3.51817e-21)
(0.000132433 -0.000427526 -6.79518e-21)
(0.000310912 -0.0274813 0)
(0.000734263 -0.000346841 4.98673e-21)
(-0.000991761 0.000489513 -5.14721e-21)
(0.000306667 -0.000503721 0)
(-7.55112e-05 0.00171026 -4.83033e-21)
(-0.000480786 0.0152683 -1.35398e-21)
(1.99519e-05 0.00121275 2.24028e-21)
(0.000201847 -0.000422504 5.85659e-21)
(0.0132814 0.0179174 -2.25265e-22)
(0.000182934 -0.000293174 -6.54937e-21)
(3.49166e-05 -1.11583e-05 0)
(0.0136278 0.0020101 0)
(0.00102576 -0.000225573 0)
(7.28327e-05 1.55141e-05 6.56772e-21)
(-9.63434e-05 0.000445942 -4.97795e-21)
(3.46017e-05 -0.000103297 1.19799e-21)
(0.00134475 6.09359e-05 0)
(0.0019396 -0.000272944 -7.14831e-21)
(-0.000719453 0.00155575 -5.30364e-21)
(7.77101e-05 -0.000293344 0)
(0.000427087 -0.000207634 -5.79339e-21)
(-0.0174172 0.0107195 0)
(0.0327707 0.00646799 1.3858e-21)
(-0.00119883 -0.00595827 -1.86651e-21)
(0.00849125 -0.0119175 0)
(-0.0168879 -0.0147923 1.35516e-23)
(0.000229464 -0.000380786 5.95482e-21)
(0.00160433 0.00302051 0)
(3.46923e-05 3.13747e-05 2.02224e-21)
(0.00627571 -0.00953624 -3.5416e-21)
(0.00177332 0.00287655 -2.51537e-21)
(0.00138306 0.00086427 -3.74099e-21)
(0.00167625 -0.000224957 -4.73578e-22)
(0.000611971 2.41538e-08 6.01363e-21)
(4.14315e-05 2.83773e-05 2.12505e-21)
(0.000439025 -0.000207662 1.21289e-20)
(0.0100558 -0.014397 9.87645e-22)
(-0.0017074 -0.00131396 -2.62259e-21)
(0.000746665 -0.00032839 0)
(0.000713506 0.000752031 -1.61993e-21)
(0.000101849 -4.03487e-06 -6.91316e-22)
(0.000107135 1.10198e-05 -2.83419e-21)
(-0.00170077 -0.000401609 0)
(0.0458357 -0.000276032 -3.27815e-21)
(-0.00261899 0.000170826 3.7189e-21)
(8.52508e-05 -3.83102e-05 0)
(0.000250471 4.88887e-06 0)
(0.000266708 -0.000810213 0)
(0.000102784 1.5307e-05 0)
(-0.0179377 -0.00179338 -1.71905e-21)
(-0.00847309 -0.00879957 0)
(-0.000182208 0.000737008 2.64795e-22)
(0.025908 0.0216922 -4.64285e-22)
(0.00135188 -8.74853e-06 -8.07024e-22)
(-4.0168e-05 1.09773e-05 3.49524e-21)
(0.00046259 -3.80447e-05 2.72419e-21)
(0.0173757 -0.00430063 -3.59753e-21)
(0.00659322 -0.00896679 2.56976e-21)
(6.71237e-05 1.99564e-06 6.75384e-21)
(6.79155e-05 4.55011e-06 0)
(0.000883953 -0.000443769 -7.90482e-21)
(-0.00834734 -0.00349092 3.93184e-21)
(-0.00137524 -0.018729 0)
(0.00583502 0.00191914 0)
(0.000870168 -0.000450569 -8.24918e-21)
(-9.66866e-05 0.000333055 -4.45114e-21)
(0.00014024 0.000559272 0)
(0.000227958 -0.000533554 7.36949e-23)
(-1.40177e-05 0.000854323 0)
(0.000966376 -0.00231858 0)
(0.0064637 -0.000979114 1.7325e-21)
(-0.00245551 0.0047532 3.60581e-21)
(0.000306422 0.000251168 -3.79425e-21)
(0.00037992 7.35296e-05 2.04648e-22)
(0.000420822 0.00099974 2.52855e-21)
(-0.00189825 -0.000201552 0)
(-0.000262556 -0.00588609 0)
(-9.12345e-05 0.00032708 -2.52999e-21)
(-0.00150361 -0.00353374 6.7338e-21)
(-0.00103706 0.00696665 -2.15285e-21)
(0.000144281 0.000552548 -4.47127e-21)
(-0.00334618 -0.0198309 3.68902e-21)
(6.67586e-05 -4.10578e-07 0)
(1.28765e-06 -2.6126e-05 0)
(-0.00622323 0.0102469 0)
(-0.00011028 0.00211942 -3.18988e-21)
(0.000377644 0.000291422 -7.73649e-21)
(0.000460084 -2.94653e-05 1.26326e-21)
(-0.00726711 0.00244313 -1.5496e-21)
(0.000111625 0.000549515 3.13717e-21)
(9.21257e-05 0.00166744 1.4655e-21)
(7.38218e-05 -1.58152e-06 0)
(-0.00231097 -0.00130193 8.94525e-22)
(0.0331604 0.00632903 0)
(0.00174521 0.00302807 0)
(0.00431008 0.00485016 0)
(7.68205e-05 7.99612e-06 1.43462e-23)
(-0.00184935 -0.000540785 -3.98322e-21)
(0.00095523 -0.000403002 4.97246e-22)
(0.000296723 -0.000275673 -9.18922e-21)
(-0.0158778 0.00682725 0)
(7.53953e-05 4.40583e-06 -6.38728e-21)
(7.49746e-05 -1.70797e-06 -1.78207e-23)
(7.00801e-05 1.20412e-05 3.47404e-21)
(0.0410504 -0.00235009 3.80183e-21)
(0.00022123 -0.000445584 -7.29148e-21)
(0.00108137 0.0016159 -2.79303e-21)
(-0.00279121 -0.000227076 4.82256e-21)
(-0.0141861 -0.0150209 0)
(0.000807943 0.00137405 0)
(-0.0180243 0.0225472 1.8449e-21)
(0.000940136 0.00155063 0)
(0.00744949 -0.0265184 0)
(0.000168301 -0.000585576 4.20763e-21)
(0.000257709 0.00133933 0)
(0.0248711 0.0047286 0)
(0.000830291 -0.00039046 0)
(-0.000519901 0.0010791 -1.45003e-21)
(0.00181171 0.0132083 9.48788e-22)
(0.010371 -0.00695739 4.86918e-21)
(0.000366738 0.000292961 7.87857e-21)
(0.0147395 0.0186354 6.4586e-22)
(0.00043713 -0.00019515 -1.08677e-20)
(-0.0004181 0.00155552 -2.69928e-21)
(0.000110226 -7.70669e-05 -5.19122e-21)
(-0.00620882 0.0107832 -9.3388e-22)
(-0.0180784 -0.0147546 -8.15931e-23)
(0.0026269 0.00251303 1.5069e-21)
(9.61556e-05 0.00158038 -4.52644e-22)
(0.0185928 -0.00290716 -2.49032e-21)
(-0.0133 -0.00811132 -3.13347e-22)
(0.00127547 -0.00349043 -1.5217e-21)
(8.29267e-05 -0.000210014 -1.15476e-20)
(0.000922336 -0.000444439 7.45588e-21)
(0.00128269 0.000243406 -2.73517e-21)
(0.000934625 -0.000771494 0)
(0.000288449 -0.000300182 0)
(-0.00811928 0.00155511 0)
(0.000294821 0.000250563 1.81422e-21)
(-0.00352624 -0.0203986 -2.91565e-21)
(0.000103737 2.64372e-05 0)
(0.0128121 0.00249416 -8.16318e-22)
(0.000861034 -0.000452702 8.82873e-21)
(0.00012215 0.00055972 -6.06076e-21)
(0.000451659 8.61141e-05 1.18597e-21)
(0.00962698 0.00090827 -1.52012e-21)
(0.000545997 0.000558247 0)
(-0.0184059 0.0214912 -9.26449e-22)
(0.000104138 -9.64471e-05 3.83959e-21)
(7.65758e-05 1.30384e-05 8.70598e-24)
(-0.00171411 0.00628265 0)
(-0.0128074 -0.00834423 7.6192e-21)
(0.00189348 0.00287418 4.64239e-21)
(9.16361e-05 -8.5235e-05 -1.26895e-20)
(0.000404632 -0.000525545 8.68944e-21)
(0.00595115 -0.0143125 -3.71612e-21)
(0.000450873 -0.000196582 6.04542e-21)
(-0.00411032 0.00311808 -6.55324e-21)
(-0.00835439 -0.00404559 -5.64281e-21)
(0.000103667 2.87875e-05 0)
(-0.000261996 0.00161809 1.96524e-21)
(-0.00918166 0.00172531 2.67517e-21)
(0.000178233 -0.00028759 0)
(0.00152199 0.000276411 -5.56972e-21)
(0.000479154 -0.000364734 -3.54621e-21)
(-0.000243742 0.00163771 6.27157e-22)
(0.000421079 0.000975444 -1.43181e-21)
(0.00515898 -0.00934317 -1.81146e-22)
(0.0102962 0.0149607 1.38795e-21)
(0.00391457 0.00523169 1.96872e-21)
(0.000493897 -7.14501e-05 -1.14263e-23)
(6.87814e-05 3.8874e-06 -6.12314e-21)
(0.000143009 0.000207083 0)
(0.00146647 0.000198822 -2.57231e-21)
(-0.00959703 0.00219937 -1.84613e-21)
(2.50916e-05 0.000169432 5.85047e-21)
(8.18526e-05 -0.000261539 -5.82156e-21)
(0.00401111 0.00487097 -1.09476e-22)
(0.000159845 -0.000602614 0)
(0.000284262 -0.00022053 5.55518e-21)
(0.000100918 1.24576e-05 6.23661e-22)
(0.0216397 0.000420576 3.32524e-21)
(0.00144884 -0.000307422 2.37284e-21)
(0.000382554 -0.000245792 0)
(0.00193757 -0.0123874 -6.66229e-22)
(-1.50341e-05 0.000830919 0)
(0.0188287 -0.00337787 7.53026e-21)
(0.0351003 -0.00093227 6.24847e-21)
(-0.0017534 -0.0113976 -1.59785e-22)
(-0.0132148 -0.00738061 -6.38563e-22)
(0.00781897 -0.0151933 2.28805e-22)
(0.000758068 -0.0003707 -3.228e-21)
(0.0174713 0.00379787 -1.66389e-21)
(0.000250003 -0.000789348 -6.16209e-21)
(0.000764104 -0.000357432 -1.66765e-22)
(0.00546921 -0.00172393 2.40707e-21)
(0.000413853 -0.000220557 -8.67901e-21)
(-0.0166339 0.022189 -9.55507e-22)
(0.00362016 0.00484779 -1.10144e-21)
(-0.00685262 -0.00572134 1.23324e-21)
(0.00151341 0.000219847 8.84253e-21)
(0.000205773 -0.000530319 0)
(-0.000881252 0.000833271 -9.97717e-22)
(-2.6731e-05 0.00122976 1.38048e-21)
(7.10445e-05 1.08505e-05 0)
(0.000289317 -0.000299356 0)
(0.0148992 0.00161787 0)
(0.00148082 -0.00365353 0)
(0.000117376 -0.000538244 -9.80121e-21)
(-0.0101594 0.0138258 0)
(0.000299905 0.000108021 1.08275e-21)
(0.000636863 -0.0012634 4.02829e-21)
(0.0001001 3.47605e-05 -1.06048e-20)
(-0.00623132 -0.00563456 1.96656e-21)
(-0.0208111 0.00306874 2.48666e-21)
(0.000112076 -7.31743e-05 0)
(-0.00891924 0.00219411 -1.58607e-21)
(0.000228962 -0.00037952 -3.74437e-21)
(0.00225439 -0.00711057 5.05359e-21)
(0.00400892 0.0033499 3.93793e-21)
(0.0411362 -0.0018509 3.81079e-21)
(-0.0139867 0.00974799 -9.49739e-22)
(0.000426729 -0.000220138 1.81395e-23)
(-0.0101215 -0.00861214 -1.78873e-22)
(7.08736e-05 1.03776e-05 -4.52239e-21)
(6.8561e-05 2.39405e-06 -2.17107e-21)
(0.000101498 2.82859e-05 0)
(0.00147117 -0.000823281 -4.13519e-21)
(0.00218654 0.00149873 -2.47709e-21)
(-0.00193756 0.0137961 -1.83771e-21)
(9.48442e-05 1.13686e-05 5.38859e-21)
(5.77291e-05 -0.000548234 7.20547e-22)
(0.000583709 0.000590688 -3.89773e-21)
(0.00525132 0.0168059 3.06591e-22)
(0.00029867 -0.000567762 0)
(0.000153395 -0.000192613 -4.4735e-21)
(0.00216441 -0.00190746 0)
(0.00223198 0.000293966 -3.54754e-22)
(0.00253727 0.00259016 1.41145e-21)
(0.000199449 -0.000533022 -9.36929e-21)
(0.00719783 -0.00998695 -3.12639e-21)
(0.000281107 -0.00082234 5.78913e-21)
(0.0163685 0.00496755 -2.09291e-21)
(-0.00250171 -0.0114415 6.57621e-23)
(0.00153671 0.00314282 0)
(0.00599838 0.00168454 1.17711e-21)
(-0.0102239 0.012987 7.72006e-22)
(-0.000785002 0.000788924 0)
(0.00045821 -0.00035761 4.15736e-21)
(0.000839435 -0.000391315 8.36308e-22)
(-0.000479255 0.00150725 -1.56457e-21)
(0.0013383 -0.000786385 0)
(0.00208922 0.00158764 2.7341e-21)
(0.00478983 -0.00148326 -2.32174e-21)
(0.0147332 -0.00383267 0)
(0.000289489 -0.000196781 0)
(0.00214016 -0.000399216 0)
(0.0012235 -0.00212836 -6.25536e-21)
(-0.000431046 0.000783161 -1.86541e-21)
(0.00530344 -0.00153585 -1.84436e-21)
(0.00638369 0.0151302 -9.61534e-23)
(-0.0110983 -0.000504526 0)
(0.00107118 0.00167585 1.14293e-21)
(0.0304623 0.0080247 -1.36639e-21)
(0.00132867 0.000992905 6.28971e-21)
(0.000955193 -0.000275932 6.67442e-21)
(0.0001129 -0.000519138 1.23188e-20)
(0.0404749 -0.0027296 -3.72945e-21)
(0.00349822 -0.00209378 2.24744e-21)
(0.0218681 0.00124711 1.32544e-21)
(0.000281414 0.000119768 8.04675e-21)
(5.92932e-05 8.28773e-07 -5.92532e-21)
(0.00566866 -0.00962724 0)
(0.0023102 -0.00179539 0)
(6.7266e-06 -0.000150621 -5.27898e-21)
(0.00267844 -0.00405278 0)
(0.00121412 -0.00219358 -7.41346e-21)
(0.00101827 -0.000458833 0)
(0.00145992 0.000143233 -2.53395e-21)
(0.00098512 -0.000248145 5.93004e-21)
(-0.0102476 -0.0104387 0)
(0.00072093 -0.000357516 -6.15345e-21)
(0.00108176 -0.00102353 -3.50207e-21)
(0.00324574 0.00271482 -2.02453e-21)
(0.000310017 -0.000330596 5.575e-21)
(0.000206484 0.000581338 0)
(0.000404524 0.00018066 1.04546e-23)
(0.0197186 -0.00495211 -6.04596e-22)
(0.000389049 -0.000542253 -9.5073e-21)
(0.0061849 0.012962 -1.73799e-21)
(0.000243997 -0.000389259 0)
(0.00693212 -0.014575 3.96839e-21)
(0.00249755 -0.00190488 -4.44939e-21)
(0.000111158 -3.55544e-05 0)
(0.00200781 -6.92837e-05 -1.94957e-21)
(-0.00202893 -0.00132781 2.83956e-21)
(0.00118843 0.000474588 -4.47017e-21)
(-0.00412498 -0.0165227 0)
(0.00217416 -0.00318538 0)
(0.0209517 0.0033743 0)
(0.000914778 0.00180948 2.3463e-21)
(0.00208094 -0.000111251 -2.28806e-21)
(0.00175369 0.000415277 0)
(-0.00010293 0.000450005 3.24716e-21)
(-0.000495404 0.0024803 0)
(0.00430046 -0.00240655 0)
(0.0150486 0.00361701 1.49796e-21)
(0.000270412 -0.000340895 -2.78195e-21)
(-0.00393805 0.012135 -8.41845e-23)
(-0.0122764 0.0103564 1.41379e-21)
(0.00125618 0.00107674 2.75774e-22)
(9.51901e-05 -9.75167e-05 -5.70329e-21)
(6.64995e-06 -5.4872e-05 1.10898e-21)
(-0.0199093 0.00351548 -2.64591e-21)
(0.000162443 -0.000522576 0)
(0.000800389 0.00120748 2.07564e-21)
(9.25308e-05 -0.000105761 1.05566e-20)
(0.00128791 0.00347799 -2.93455e-21)
(0.00195113 -0.000199024 0)
(0.00010419 -8.52128e-05 1.14699e-20)
(-8.97089e-05 0.00161267 0)
(6.06297e-06 -0.000128849 0)
(-1.94896e-05 0.00211648 7.67346e-23)
(0.00055976 0.000585062 -4.60782e-21)
(-0.00406269 -0.000196832 -3.09423e-21)
(9.94553e-05 -6.11226e-05 -7.79114e-21)
(0.00147081 -0.00768341 -1.0172e-21)
(0.00100437 -0.00046889 -6.4272e-21)
(0.000108958 -0.000103344 -8.08205e-21)
(-0.00996544 -0.00892006 1.72017e-22)
(-0.00316259 -0.00133944 2.00629e-21)
(0.00308811 0.00272623 0)
(-0.000943142 -0.0117889 0)
(0.00106101 -0.000215082 5.62002e-21)
(0.00205892 -0.00299994 3.61283e-21)
(0.00196963 -0.000138094 0)
(0.000286871 0.000114335 -8.80757e-21)
(2.64932e-05 -0.000115249 7.6672e-22)
(0.000398215 -0.000234785 -1.11953e-20)
(0.000465024 -0.000741297 5.28271e-21)
(0.00128249 0.00112504 0)
(0.00263888 -0.00178521 4.0826e-21)
(-0.00378144 2.19312e-05 3.50728e-22)
(0.0214431 0.0115263 -1.96558e-21)
(0.000521574 -0.000762058 0)
(8.39029e-05 -0.00020168 0)
(-0.0222831 -0.016265 -2.8091e-21)
(0.000107676 -0.000112622 -4.47523e-21)
(-0.0017876 0.0035392 -2.18937e-21)
(3.39826e-05 -0.000322194 -5.91893e-22)
(9.27406e-05 -3.71115e-05 0)
(0.00264084 -0.0159526 0)
(0.000561297 0.0100657 2.30108e-22)
(0.000100503 -7.26979e-05 -5.82868e-22)
(0.0072985 0.00116736 0)
(4.41395e-06 0.00208219 -6.92491e-23)
(0.0198186 -0.00184827 6.46346e-22)
(0.0010701 -0.000178855 0)
(0.000165868 -0.000411066 0)
(-0.000173373 0.000763803 -1.35722e-21)
(2.94826e-05 0.00124737 7.14858e-22)
(0.000104336 3.10849e-05 -5.66964e-21)
(0.0124967 0.00578008 0)
(7.24923e-05 -1.03743e-05 7.38837e-21)
(0.00053908 -0.000139109 0)
(-0.00135621 -0.000119431 0)
(0.000243914 8.74011e-05 0)
(0.000730615 -0.000370515 0)
(0.00412934 0.0132505 0)
(0.00919003 -0.00735547 -3.26769e-21)
(0.000118315 -9.8734e-05 0)
(-0.00853963 0.017247 0)
(-0.00015116 0.00144314 2.83626e-23)
(0.0194864 0.00127128 -3.13794e-22)
(-0.0001301 0.0014331 -4.24627e-22)
(0.00889832 -0.00938327 2.46646e-22)
(-0.0191749 0.00448533 1.69252e-21)
(0.000323464 -0.000190111 -4.45231e-21)
(0.00216596 0.00200129 2.30379e-21)
(-9.70335e-05 0.00891454 2.65673e-22)
(0.000264262 -0.000218421 0)
(0.0360493 -0.00124504 -6.35687e-21)
(6.21524e-05 5.00335e-06 -4.5018e-21)
(1.56863e-06 -2.40009e-05 8.47263e-21)
(0.00938327 0.00700005 6.75741e-22)
(-0.00352793 -0.00136666 4.38406e-21)
(0.00818705 -0.00940799 3.50433e-21)
(0.000411541 -0.000234287 3.10058e-21)
(0.00145268 0.00223494 0)
(-0.00040873 0.00253729 1.90252e-22)
(0.000673191 -0.000141684 -1.32786e-21)
(0.00701803 -0.0100264 2.91632e-21)
(0.0314285 0.000673389 -8.74536e-21)
(0.00041642 8.04975e-05 4.67535e-21)
(0.000151052 0.000201748 2.71757e-21)
(0.000619282 -0.000212633 -3.79018e-21)
(0.000555011 -0.000150698 -5.07855e-21)
(0.00138083 0.00217673 0)
(0.000481648 -0.000346512 -1.0416e-20)
(0.000258235 7.22925e-05 0)
(5.61235e-05 0.00132013 0)
(-0.00518849 -0.00594208 -2.04252e-21)
(0.000533916 2.40095e-05 2.05172e-23)
(0.000974514 -0.000250434 -6.04827e-21)
(0.000887059 0.00180931 0)
(3.0789e-06 -2.52302e-05 0)
(0.000191848 0.00131896 0)
(0.00937176 0.00992377 0)
(0.000545124 -0.000774863 -5.48029e-21)
(0.000723963 0.000673238 -7.42351e-21)
(0.000320045 4.07914e-05 0)
(0.00882137 -0.00441344 0)
(0.0245906 0.0149364 0)
(0.0137375 -0.00161347 0)
(-0.00223679 -0.0161297 4.97993e-21)
(0.00267579 -0.00021372 -1.17945e-21)
(2.56576e-05 0.000176278 -3.71471e-21)
(-0.0053823 -0.000467818 0)
(0.000199348 0.000592851 5.09647e-21)
(4.37878e-05 2.0372e-05 0)
(0.000276451 0.000292352 -7.24932e-24)
(0.00274093 -0.000134032 0)
(9.86673e-05 3.82068e-05 0)
(0.0249242 0.00661263 -7.81821e-21)
(0.0147639 -0.00419236 1.99443e-21)
(0.00130287 -0.000874871 -1.64976e-21)
(0.000735206 0.000699447 7.09549e-21)
(0.00558539 0.0121048 -3.03947e-22)
(0.00170767 0.00142237 -2.75846e-21)
(0.00189335 -0.000366621 4.34639e-21)
(0.000145228 -0.000174326 -5.28314e-21)
(5.29849e-05 -2.71893e-06 -3.82871e-21)
(0.00498509 0.001736 -8.899e-22)
(-0.000111725 0.00160391 0)
(0.000592524 -0.000275701 0)
(-0.00851203 0.00399644 2.82764e-21)
(0.000167475 -0.00047204 3.35527e-21)
(0.000338382 -3.71854e-05 0)
(0.000507932 -8.6235e-05 -4.06312e-21)
(0.000480078 -0.000361391 3.52547e-21)
(0.000294132 -0.000134578 6.26497e-21)
(0.000100554 2.07049e-05 1.18732e-21)
(9.2479e-05 3.79714e-06 -1.38956e-20)
(0.000341828 -0.000324615 2.88733e-21)
(0.000718774 -0.000293936 0)
(-3.30706e-05 1.29922e-05 -1.02209e-21)
(0.0168743 0.00562194 2.3204e-21)
(0.00829368 -0.00460248 -2.78969e-22)
(0.00203641 -0.00027568 -3.90327e-21)
(1.61997e-05 -8.47994e-06 0)
(0.000638999 0.000590088 -3.38296e-21)
(0.000150523 -0.000180379 -1.20282e-21)
(0.00196854 9.27954e-05 0)
(6.58834e-05 6.2944e-06 0)
(0.000156348 -1.52048e-05 1.15738e-21)
(0.000550436 -0.00075304 5.53501e-21)
(0.000295579 -4.0899e-05 -9.23713e-22)
(-0.0211907 -0.014386 0)
(7.29104e-05 1.53429e-05 -4.2622e-21)
(-0.0216875 -0.0149519 2.62227e-21)
(0.0350268 -0.00506606 8.18719e-21)
(-0.0165583 0.00616267 0)
(8.72445e-05 -0.000122826 7.06994e-21)
(0.0217237 0.011927 3.28074e-21)
(-0.0141327 -0.00591697 5.00374e-21)
(0.000109573 -0.000182452 0)
(5.20872e-05 0.000545327 3.58341e-21)
(-0.0101226 -0.00642428 3.32222e-21)
(0.000627585 -0.00021187 0)
(0.00233823 0.000331594 7.5953e-22)
(3.56704e-05 -0.000441144 -2.63821e-21)
(0.0181435 0.0209548 3.66934e-21)
(0.000554627 0.000640577 6.05879e-21)
(0.00516914 0.017648 -7.26067e-22)
(0.00119766 0.000440384 4.85604e-21)
(6.95679e-05 -4.26738e-05 -7.62852e-21)
(-0.0125282 -0.00917371 1.24926e-21)
(0.00459112 -0.0105142 0)
(0.000520254 1.7603e-05 0)
(0.000128313 -0.000399459 0)
(3.62123e-06 -2.45062e-05 -1.09958e-20)
(0.000123519 -0.000262006 5.11777e-21)
(-0.00398237 0.000911471 0)
(0.000801968 -0.000575988 0)
(6.41028e-05 -7.86662e-06 -6.60086e-21)
(-0.00209733 -0.0108711 0)
(0.0177433 0.0199452 -1.43081e-22)
(-0.00667012 0.00575794 0)
(0.0003179 5.20694e-05 0)
(-0.00454112 0.0122083 0)
(-0.0114609 -0.00913768 0)
(0.000120143 -9.3382e-06 -5.7031e-21)
(0.00019775 -0.000424886 -5.8029e-21)
(-0.0110958 0.00420804 -2.15384e-21)
(0.00153 -0.000335098 1.74355e-21)
(0.000536397 -0.000139763 -6.29838e-21)
(-0.0050325 -0.000542461 0)
(0.0402472 -0.00322314 0)
(0.0013971 -0.000868554 -2.67458e-22)
(0.00181746 -0.000350663 -4.01368e-21)
(0.000295784 -0.000119184 8.89345e-21)
(6.89699e-05 -2.21616e-06 0)
(0.0173176 -0.000186039 6.35847e-21)
(0.00640722 0.00401126 1.606e-21)
(0.00288264 -0.00165705 -8.99756e-22)
(0.0285735 0.00454227 1.14532e-21)
(0.0178869 -0.0121866 -2.33391e-21)
(0.0116566 0.0058371 0)
(0.000221 0.00133615 0)
(-0.0256422 -0.016939 4.06774e-22)
(0.0198688 0.000978636 -1.59794e-22)
(0.0167137 -0.00121805 0)
(2.09807e-05 0.00148765 -1.82109e-21)
(-0.0110322 0.0117022 0)
(0.00105788 -0.000204109 -1.55639e-21)
(0.00044938 0.00066611 -5.13711e-21)
(0.000327565 2.49173e-05 -7.22697e-21)
(0.000761253 -0.000306634 0)
(0.0046886 -0.00379362 5.84015e-22)
(0.000141377 -0.000175054 -4.25127e-21)
(0.000173018 0.000541722 -3.30181e-21)
(0.00120869 0.000564644 2.19924e-21)
(0.000653189 -0.000183706 0)
(0.00219618 0.00694609 1.46801e-22)
(0.00418791 -0.015949 3.4782e-21)
(0.000675388 -0.00096606 0)
(0.000290921 3.13046e-05 8.51963e-24)
(6.93514e-05 9.88233e-06 -8.762e-22)
(0.000309674 -0.000527202 0)
(0.000404385 0.00128394 -8.1564e-22)
(0.0143387 -0.00166496 0)
(0.0192354 -0.0114592 1.94736e-21)
(-0.00164981 -0.0168919 -5.50575e-21)
(9.21746e-05 -2.51129e-05 0)
(-0.0185146 -0.0140143 0)
(0.000458928 -0.000183043 0)
(0.000262614 -0.000339169 0)
(0.00106915 0.00440083 0)
(0.000166629 0.00133928 -8.01093e-22)
(2.17935e-06 -1.97373e-05 1.13613e-20)
(0.00125786 0.00473458 -1.80552e-21)
(0.000212035 -0.000570522 0)
(0.0349365 -0.00363507 2.9191e-21)
(-0.000240747 0.00160052 5.82526e-24)
(0.00157566 0.000371241 4.78001e-23)
(0.0157846 0.00684763 -2.08335e-21)
(0.0078537 -0.0051727 0)
(0.000477386 -0.000282337 0)
(1.34844e-06 -5.33537e-05 0)
(1.63005e-06 -0.000225453 -5.58513e-22)
(0.000134596 -3.50089e-05 0)
(0.00209676 0.0053735 7.31729e-22)
(-0.00892752 -0.00240277 -4.12354e-21)
(8.44904e-05 0.000118794 -4.16352e-22)
(0.0188526 0.0208259 -8.66946e-23)
(0.00123624 0.000162552 1.23372e-21)
(0.0155103 -0.000784948 0)
(0.000123007 0.000361346 0)
(0.00496365 -0.00292378 4.05836e-21)
(0.000161154 -1.39631e-05 -2.69784e-21)
(0.000160433 -0.000485074 0)
(0.000706875 -4.29927e-05 -8.70717e-21)
(0.000334493 0.000169077 -7.92334e-21)
(4.46979e-05 -0.00555743 0)
(0.000451857 -0.000174255 -5.71933e-21)
(0.000417015 5.36549e-05 9.57146e-21)
(-0.000237189 0.000950414 -2.4236e-21)
(0.000323227 -0.000202519 0)
(-0.00444566 0.00493475 0)
(0.000291981 0.000814394 0)
(0.000100244 2.4345e-05 -9.53906e-21)
(0.00322166 -0.00178188 0)
(-4.48155e-05 0.00123571 0)
(0.000923844 -0.00045372 -6.99541e-21)
(0.000174127 0.000111393 0)
(0.000335226 0.000147787 3.78711e-21)
(-0.0143002 -0.00673799 -5.50775e-21)
(0.000113254 -0.000502984 -5.97733e-21)
(0.000256775 0.00033712 0)
(0.000168561 0.000525922 1.56334e-21)
(7.02037e-05 1.13286e-07 2.58824e-21)
(0.00181808 -0.0075878 -4.48952e-21)
(5.10353e-05 6.35878e-05 7.32551e-21)
(0.000176034 0.000286519 5.99097e-21)
(-0.00227519 0.00777539 -1.37857e-21)
(0.000210634 -0.000578858 -6.22907e-21)
(0.000703264 -1.90176e-05 7.39152e-21)
(0.0101923 0.00602189 0)
(8.63064e-05 -4.91169e-05 0)
(0.00157818 0.000307013 0)
(0.0293148 0.00872683 -1.38904e-21)
(0.00775522 0.0145698 1.52544e-21)
(0.0260428 0.0172322 0)
(9.27183e-05 -2.79537e-05 0)
(0.000604919 -0.000185556 3.00027e-21)
(-0.000189304 0.00142115 -2.65496e-23)
(6.57975e-05 -0.000128867 1.08175e-20)
(0.000526559 -0.0001155 -4.9553e-21)
(-0.000103644 0.0021787 0)
(0.000745079 -0.000306043 0)
(7.42994e-05 2.33828e-06 -7.86582e-21)
(0.00022499 -0.000493734 7.31941e-21)
(0.000494051 -0.00011334 5.84565e-21)
(0.000739059 0.000487144 0)
(-0.0250331 -0.000270867 4.10529e-22)
(0.000537868 0.00503533 1.05779e-21)
(0.00239186 -0.00334241 0)
(0.00482247 -0.00149179 1.81154e-21)
(0.0007886 -0.000552747 9.20727e-21)
(1.28928e-06 -5.54671e-05 -1.09854e-21)
(0.00142201 0.0047045 1.99384e-21)
(0.00189618 -0.00136347 -1.46158e-21)
(2.38356e-05 -0.000160028 1.37642e-20)
(0.000908003 -0.000140808 -6.32315e-21)
(0.000108209 -0.000476739 -8.07787e-22)
(-0.0149023 0.0101451 -5.60081e-22)
(0.0004838 -0.000809502 -5.47159e-21)
(0.00142011 -0.00148988 -2.43907e-21)
(0.000866811 -0.000377713 7.59415e-22)
(4.81068e-05 6.11627e-05 -7.37999e-21)
(0.0202956 0.000714907 -2.7775e-21)
(0.000515122 -0.000103427 0)
(0.0103977 0.0156687 8.98086e-22)
(0.0101188 0.00978011 0)
(0.00129071 0.00460305 0)
(0.00122256 0.000519434 1.59696e-22)
(0.0020381 4.89974e-05 1.02561e-21)
(0.00016018 0.00031609 5.16524e-21)
(0.000122046 -0.000102871 2.12991e-21)
(9.92595e-05 2.30174e-05 -5.70233e-21)
(9.53975e-07 -2.59493e-05 0)
(-0.000237772 0.00160508 -1.0895e-21)
(0.000220878 -0.000379028 -3.34962e-22)
(0.00013646 0.0013195 -3.13072e-21)
(0.000678906 0.00144749 0)
(0.000402318 0.00130084 -1.48796e-21)
(0.000497898 -0.000335331 0)
(0.0023278 0.00674831 1.0845e-21)
(0.00653396 -0.00868786 4.14025e-21)
(0.000274913 0.000806001 -2.11192e-24)
(9.52826e-05 -8.46015e-05 -8.14825e-21)
(0.00031853 2.7387e-05 2.85671e-21)
(-0.000664346 0.00243076 -2.08613e-21)
(7.01294e-05 -2.21884e-05 0)
(0.00117339 -0.000780475 -2.30785e-21)
(0.000148511 0.00186079 0)
(0.000141699 -0.000160704 0)
(5.9567e-06 -4.69817e-05 -3.21455e-21)
(-0.00932491 -0.00130408 4.21358e-21)
(-0.0063344 0.0180942 -1.34005e-21)
(0.000528536 -0.000114388 2.94683e-21)
(-0.000193534 0.00142842 1.77514e-21)
(0.00193648 -0.0170124 -3.85153e-21)
(0.00012006 0.000372524 -1.50887e-21)
(-6.79664e-05 0.000904385 -2.53617e-21)
(0.0315182 0.00736721 5.63734e-21)
(0.000804161 0.00127369 3.16613e-21)
(-0.000728783 0.000270111 0)
(6.08191e-05 -0.000140775 -9.41203e-21)
(0.000913918 0.000358899 0)
(-0.000277345 0.00139985 0)
(0.000452336 -0.00628264 -3.47094e-21)
(9.35587e-05 1.88715e-05 0)
(0.000301346 -0.000299492 -6.71227e-21)
(0.000912288 -0.000293275 6.46836e-21)
(0.00105388 -0.00023724 -2.70212e-21)
(0.00134181 -0.000871708 7.31271e-21)
(0.00100786 0.00490435 -2.28048e-21)
(0.0169219 -0.00129814 1.46418e-21)
(0.000901935 0.000374946 5.20653e-22)
(0.0107533 0.00573961 0)
(9.37159e-05 -2.16055e-05 0)
(0.000836508 0.000417591 0)
(0.000405231 0.000203963 2.63668e-21)
(0.000902957 -0.000305835 -7.44373e-21)
(0.000188783 -0.0179568 -3.66114e-21)
(0.00171646 -0.00104892 4.32474e-21)
(-0.000357148 0.00151915 3.14532e-21)
(5.54439e-05 -0.000405633 3.5501e-21)
(0.000738738 0.00246206 0)
(0.000485512 -0.000359197 1.55517e-20)
(-0.000100718 0.0012271 3.00362e-21)
(0.00151282 -0.000397018 0)
(9.77392e-05 -5.97388e-05 0)
(0.000292916 -0.000284354 3.3564e-21)
(0.000385356 0.00490433 1.05739e-21)
(0.0150781 0.00173016 -1.41967e-21)
(0.000168824 0.000104203 0)
(0.00136128 0.000851163 0)
(0.000237668 0.00081059 4.7451e-21)
(0.000279225 -0.000332581 0)
(0.00541177 0.00490447 1.20817e-21)
(0.000202698 0.000159968 3.03488e-21)
(8.14004e-05 -0.000182173 1.70194e-20)
(0.00063644 -0.00661254 3.91345e-21)
(9.44987e-05 -8.2695e-05 -6.01839e-21)
(-0.000404124 0.00081336 8.70623e-24)
(0.00576692 0.00631612 2.05138e-21)
(-0.0171528 -0.00239153 7.09586e-22)
(0.000561895 0.000435393 -2.87505e-21)
(3.6584e-05 6.16895e-05 9.74506e-21)
(0.000103904 -8.3076e-05 0)
(0.000799544 0.00123836 -3.9015e-21)
(0.0061126 0.00591012 0)
(7.27677e-05 -6.83168e-06 4.47846e-22)
(-0.00297054 -0.00167005 0)
(-0.0171933 0.0231445 -2.03227e-21)
(0.000184264 0.00188779 0)
(0.00115335 0.00344844 0)
(0.000278881 -0.000309383 9.44773e-21)
(0.000242744 0.00922045 -2.02493e-21)
(-3.50599e-05 1.02425e-05 2.20766e-21)
(0.00111121 -0.000806397 3.30182e-21)
(9.69673e-06 0.00299844 -1.17058e-21)
(0.000506602 -0.000130079 6.12708e-21)
(0.00644307 -0.00502325 2.47396e-21)
(0.000593087 1.94437e-05 -6.20096e-21)
(-0.0148506 -0.00335895 -1.27114e-21)
(0.000814516 0.0025028 8.42411e-22)
(5.55486e-05 -0.000392489 0)
(0.000113436 -4.79076e-05 5.28308e-21)
(0.0126791 -0.00816813 -1.78005e-23)
(0.00012223 -0.000385731 0)
(0.000161131 -0.00059889 0)
(0.0343749 -0.00323992 -8.37822e-22)
(-0.00774874 0.0172679 1.63395e-21)
(-0.00248396 0.00775093 8.71172e-22)
(3.01555e-05 -0.000417529 0)
(0.00084609 -0.000454845 0)
(0.0297801 0.0049794 1.35578e-21)
(0.0212472 0.00158788 -6.42794e-22)
(0.0119927 -0.000419182 2.4684e-21)
(0.00162017 0.00408121 6.35219e-21)
(3.34153e-05 -0.00018972 -8.58609e-21)
(0.000855196 -0.000383102 0)
(0.00052595 -0.000141355 2.96296e-21)
(0.00176558 0.000789799 -2.23247e-21)
(0.00822804 -0.00524005 0)
(0.00806885 0.0156554 4.84741e-22)
(0.000410488 -7.06806e-05 1.20948e-21)
(-0.00412146 0.00337177 0)
(0.00112806 -0.00027223 0)
(0.00634967 -0.0013363 -3.92118e-21)
(0.0294027 0.0135522 0)
(0.000283328 3.81712e-05 3.42318e-21)
(0.00179633 -0.0120689 6.89407e-22)
(-0.00528622 -0.00630321 -5.19566e-22)
(0.000114361 -0.0157507 0)
(5.79479e-05 -7.1914e-06 1.22397e-20)