/*--------------------------------*- C++ -*----------------------------------*\
| =========                 |                                                 |
| \\      /  F ield         | OpenFOAM: The Open Source CFD Toolbox           |
|  \\    /   O peration     | Version:  v2012                                 |
|   \\  /    A nd           | Website:  www.openfoam.com                      |
|    \\/     M anipulation  |                                                 |
\*---------------------------------------------------------------------------*/
FoamFile
{
    version     2.0;
    format      ascii;
    class       surfaceScalarField;
    location    "100";
    object      ddtCorrDdt0(phi);
}
// * * * * * * * * * * * * * * * * * * * * * * * * * * * * * * * * * * * * * //

dimensions      [0 3 -2 0 0 0 0];
oriented        oriented;


internalField   nonuniform List<scalar> 
41582
(
-0.000111743
4.48132e-05
6.69283e-05
0.000299599
-0.00027739
-2.2214e-05
9.71054e-05
-6.64815e-05
-3.0654e-05
-0.000876242
-3.2327e-05
0.000908608
-0.000223808
0.000341167
-0.000117346
0.00016877
-0.000138424
-3.03438e-05
-5.39582e-05
-0.00103318
0.00108711
0.000187794
-8.05373e-05
-0.000107256
4.11995e-06
0.00027895
-0.000283077
-0.000203324
0.000133904
6.94223e-05
0.00011932
-0.000143775
2.4462e-05
9.28892e-05
-8.31981e-05
-9.68872e-06
-0.000211554
0.000345749
-0.000134207
0.00127215
-0.00145437
0.000182331
-0.00187545
0.000906975
0.000968511
5.99353e-05
5.86301e-05
-0.000118562
-0.000678441
-0.000355061
0.0010335
0.000131463
2.6943e-05
-0.000158408
0.000383046
0.000312471
-0.000695529
-1.31723e-05
6.71534e-05
-5.39828e-05
-0.000156519
0.00142869
6.76599e-05
-7.8817e-05
1.1157e-05
-4.71166e-06
-0.000673736
-3.76898e-05
-7.40536e-05
4.11779e-05
-1.37909e-05
-2.73864e-05
-4.74022e-05
8.15393e-05
-3.41351e-05
2.2525e-05
6.06847e-05
-8.32099e-05
0.000215741
-3.09305e-05
-0.00086518
-1.10756e-05
-0.000389869
2.38343e-05
0.000366039
-9.3094e-05
7.08504e-05
2.22422e-05
-7.49547e-05
4.79553e-05
2.70004e-05
-0.000489308
-0.000466684
0.000956028
-6.13701e-05
4.81989e-05
-9.42534e-05
0.00047729
8.27867e-05
-6.02602e-05
6.21093e-05
-0.000111668
4.95564e-05
0.000174132
-0.000144005
-3.01248e-05
0.000154833
-0.00015832
3.48926e-06
-1.19393e-05
0.00015072
-0.000138784
3.93772e-05
-1.58619e-05
-2.3514e-05
0.000146257
-0.000128567
-1.76876e-05
3.63078e-05
-3.0922e-05
-5.38517e-06
0.000282346
-0.000836372
0.000554029
0.00113291
-0.000578401
-0.000554424
-1.17738e-05
-5.26257e-06
1.70363e-05
0.000102845
-0.000133279
3.0434e-05
0.000220386
-7.48141e-05
-0.000145572
-0.000106631
4.13038e-05
6.53271e-05
2.38224e-05
-6.54812e-05
4.16597e-05
0.000124079
9.63071e-05
0.000800921
-0.000518573
0.000697745
-0.000510086
-0.000187651
0.000126067
-0.000195717
6.9651e-05
0.000470268
4.36734e-06
-0.000474625
0.000348804
-0.0005145
-0.000798628
0.000950177
-0.00015155
2.09307e-05
6.92384e-05
-1.57715e-06
0.000152035
0.000244249
-0.00039628
-4.33967e-05
-3.15565e-05
-0.000132105
1.06187e-05
0.000121481
0.000284215
-0.000497915
0.000213703
0.000148026
-0.00011365
-3.43637e-05
-1.93866e-05
2.48906e-05
-5.50308e-06
9.78711e-05
0.000103336
-0.000201205
0.000183435
-5.88026e-05
-0.00012463
-0.000427666
0.000429541
-1.87721e-06
0.000987688
-0.00140186
0.000414161
8.46245e-05
1.71918e-06
-8.63463e-05
-0.000149118
0.000120432
2.86915e-05
1.68743e-07
-0.000390042
-2.90307e-05
1.4793e-05
1.4239e-05
-3.0269e-05
7.02262e-05
-3.99585e-05
-0.000133163
8.10737e-05
5.20858e-05
6.05608e-05
-7.76216e-05
1.70633e-05
-8.89819e-05
0.000409449
-0.000320465
-0.000131963
8.61112e-05
4.58456e-05
6.94694e-05
7.48068e-05
-5.92065e-06
-6.88832e-05
0.0001159
3.03582e-05
0.000114127
-7.2504e-05
2.51015e-05
7.10856e-05
-4.72631e-05
-0.000198244
3.48768e-05
-1.67515e-05
-1.81245e-05
-4.30971e-05
-6.35341e-05
8.97367e-05
-5.11717e-06
0.000771393
0.0011738
-0.00194519
4.49721e-05
9.96349e-05
-0.000144614
-2.1404e-05
9.85058e-05
-7.71011e-05
0.00196319
-0.00123107
-0.000732124
-6.40179e-05
0.000123952
-7.64968e-05
-1.6595e-05
2.12076e-06
-6.84419e-05
6.63222e-05
-6.33755e-05
0.000187454
0.000765622
-0.000410162
-0.000355482
0.000185632
-0.00011438
-7.12554e-05
6.54509e-05
3.51865e-05
-0.000100638
0.000293951
0.000625582
-0.000919435
6.67381e-05
2.9547e-05
-9.6285e-05
-1.57959e-05
4.02222e-06
0.000730119
-0.000365539
-0.000364562
-3.32163e-05
-3.13121e-05
1.17266e-05
1.95865e-05
8.03268e-05
-7.89172e-05
-1.41239e-06
-2.21065e-05
3.37168e-05
-1.16098e-05
-0.000110284
0.000100111
1.0174e-05
-0.000126791
-1.34404e-05
0.000140233
-9.47549e-05
-0.000108567
2.45649e-05
7.35722e-05
-9.81381e-05
9.26544e-05
-5.45406e-05
-3.81149e-05
-0.000132896
0.000904284
-0.000834923
0.00134304
-0.000508109
0.000418084
-0.000254824
-0.000163233
0.000683124
0.000924966
-0.000978902
6.742e-05
3.05425e-05
-9.79596e-05
-1.1304e-05
0.000284873
-0.00027354
-2.02531e-05
2.20639e-05
-1.81085e-06
0.000761986
-0.000421881
-0.000340074
0.000281382
-2.42516e-06
-0.000278936
0.000141848
-8.59397e-05
-5.59237e-05
0.000178849
-4.73867e-05
-9.58636e-05
9.77156e-05
-1.85536e-06
-1.75289e-05
-2.72426e-06
5.39129e-05
3.87421e-05
0.00093228
-0.000348368
-0.000583916
5.2467e-05
0.000106046
-0.000158522
-6.52034e-05
0.000119404
-5.42013e-05
-0.000105545
-9.01706e-05
-3.5687e-05
1.89007e-05
1.67868e-05
5.70362e-06
2.91744e-05
6.02493e-05
3.68406e-05
-0.00142431
0.00131538
1.06351e-05
9.4679e-06
2.99102e-05
-6.9347e-05
3.90781e-05
-6.92481e-05
0.000102872
-3.36232e-05
-3.74185e-05
2.06674e-05
0.000784168
-0.000626062
-0.000158102
-0.000338184
0.00049022
0.000138875
-0.000101878
-3.6998e-05
-0.000925979
-0.000949482
-9.87274e-05
-1.15573e-05
5.41825e-06
1.55094e-05
-5.77067e-05
8.43707e-05
-2.66643e-05
-0.000877414
0.000764364
0.000113045
0.000432244
0.000329751
3.35999e-05
-1.96803e-05
-1.39176e-05
-2.84578e-05
3.06367e-05
-2.17881e-06
-9.77407e-05
-3.42246e-05
-0.000687994
0.000477973
0.000210026
-0.00084437
-0.00018043
0.000464647
-2.50058e-05
-7.27339e-05
-7.27586e-05
1.23797e-05
6.03785e-05
-9.66829e-05
-1.9309e-05
0.000115994
-7.54307e-06
-6.21405e-05
6.96865e-05
-0.000168209
6.67682e-05
0.000101444
0.000174951
-2.01194e-05
-0.000550634
0.00047033
8.02915e-05
0.000293372
-0.000382352
-4.23674e-05
8.36714e-05
7.06273e-05
-8.21874e-05
1.15611e-05
-0.000180334
1.52621e-05
0.000165073
2.04687e-05
0.000409109
-0.000253242
-0.000155863
1.11465e-06
-7.38727e-05
0.000209421
9.01739e-05
6.1267e-05
0.000229327
-0.000290589
4.24748e-05
-0.000139156
-0.000690882
0.000686159
2.58301e-05
-2.77742e-05
1.94465e-06
-1.93852e-05
0.000937543
-0.000349641
-0.000587903
0.000125733
-0.000216967
9.1238e-05
-3.73978e-05
8.22113e-05
-8.07121e-05
2.30039e-05
-0.000513397
6.3729e-05
0.000449719
0.000110018
1.66744e-05
-0.000126691
0.000125618
5.78201e-05
2.95435e-05
-3.71317e-06
0.000128273
7.48503e-05
-0.00020318
-0.00136889
0.000533973
0.000270086
-0.000106819
0.000466519
-0.000359679
-3.81998e-05
2.86933e-05
9.50645e-06
-9.39148e-05
5.38742e-05
4.00244e-05
-7.71657e-05
0.000127054
-4.98913e-05
-7.38646e-05
2.60039e-05
4.78609e-05
-0.000777951
0.00107235
-0.000294413
-1.36622e-05
-2.45372e-05
-3.09621e-05
3.07988e-05
1.63577e-07
-1.56606e-05
-1.33695e-05
-1.58626e-05
0.00127797
-0.0012621
6.57825e-05
2.711e-05
0.000205122
-0.000208012
2.89428e-06
4.64418e-05
-0.000113763
-0.000919435
-9.85994e-05
2.43612e-05
7.42202e-05
0.000661332
0.00106343
-0.00172477
-0.000235246
0.000222656
1.25857e-05
0.000538556
0.00142464
-8.61998e-06
0.000111465
0.00017879
-8.09208e-05
-0.00121654
0.000921964
0.000294544
2.0809e-05
8.45864e-05
-0.000105394
-9.85332e-05
0.000123488
-0.000418785
-0.000419857
0.000838644
0.00060655
-2.74261e-05
-0.000579094
6.05216e-05
-9.79202e-05
-0.00062812
0.000922101
9.49702e-05
-4.10555e-05
0.000172614
-0.000112821
-5.97915e-05
1.08334e-05
1.61356e-05
-2.69695e-05
0.000457922
0.000479628
0.00113034
-0.000205419
0.000227674
0.000132412
-0.000360089
-9.60531e-05
-0.000101097
0.000197147
0.000792343
-0.000868373
7.60198e-05
0.00125264
-0.000808636
-0.000444019
2.29532e-05
0.000205387
-0.000228337
-2.89075e-05
6.92073e-05
-4.02991e-05
-0.000139199
9.69285e-05
4.22671e-05
4.9742e-05
0.000124392
0.000105234
-3.2348e-05
-7.28673e-05
1.18262e-05
5.84149e-05
-7.02409e-05
0.000467236
3.04097e-06
3.87047e-05
-8.10715e-05
-0.000476398
0.000977123
-2.32526e-05
-1.41655e-05
0.000517351
0.000212769
-0.000107708
8.27004e-05
9.07097e-05
0.000101675
-6.27176e-05
-3.8955e-05
0.000395266
-0.000266983
5.12157e-05
0.000117554
0.000810249
0.000809169
-0.00161943
-1.63824e-05
-3.57143e-05
5.20959e-05
-2.57775e-05
1.65406e-05
9.23805e-06
0.000222479
-0.00016123
0.00012596
0.000508202
-0.000634185
0.000253298
-0.000255722
4.93632e-06
-3.17699e-05
2.68356e-05
-8.21773e-05
9.25767e-05
-1.04022e-05
-0.000120083
-0.000695181
0.000815336
3.36004e-05
0.000106078
-0.000317645
-0.000483902
-0.000204081
-2.58556e-05
3.50302e-05
-9.17385e-06
0.000143383
6.78085e-05
-0.000211187
0.000657231
-0.000632271
-2.49564e-05
0.000106908
-4.01699e-05
-0.000160986
0.000190629
-2.96472e-05
-8.87862e-05
8.463e-05
4.1569e-06
-1.25572e-05
0.000155942
-1.3582e-05
-0.000166753
-9.15407e-05
0.000641543
-0.000549969
-0.000787958
0.000127309
0.000660641
5.17379e-05
0.000239678
-0.000291419
8.86413e-05
-7.04604e-05
-1.81793e-05
3.20997e-05
-1.73067e-05
3.41697e-05
3.6786e-05
-7.09561e-05
0.000173064
-0.000161878
-1.11909e-05
0.000604947
5.22941e-05
6.36474e-05
-2.47455e-05
-3.88995e-05
8.20042e-05
-5.74398e-05
0.000295489
-0.000402315
0.00010175
-0.00011037
6.18035e-05
-7.75927e-05
1.57904e-05
-2.64038e-05
-9.28323e-06
3.13518e-05
0.000726377
-0.000757776
-0.000109022
0.000153991
7.34038e-05
-4.74118e-05
-2.59915e-05
-0.000106434
-0.00043943
0.000545866
-4.91543e-05
-0.000119052
-8.50711e-05
0.00123795
-0.00152556
0.000287618
-0.000365959
-8.11526e-05
0.000447103
0.000749017
0.000503635
0.000780657
0.000151611
-5.95036e-05
0.000118131
-0.000208309
0.000629106
-0.0004208
-9.95991e-05
3.03516e-05
7.9117e-05
-0.000131013
5.18939e-05
0.000135033
-0.000362768
0.000227753
9.16997e-05
-5.54854e-05
-3.62145e-05
-0.000718203
0.00152845
-0.000161995
0.00021373
2.28324e-05
0.000399154
-0.000421988
1.20762e-05
-0.000125525
4.92876e-05
7.62373e-05
9.34936e-06
6.14999e-05
0.000120457
6.83674e-05
-0.000188826
-2.55613e-05
2.19406e-05
3.61952e-06
-2.1469e-05
-5.23957e-05
-0.000182547
-0.000416544
0.000599084
0.0002875
-0.000264545
-2.40081e-05
-8.36658e-05
0.000107674
-0.00135859
0.000537729
0.000820775
-7.63184e-05
6.28426e-05
1.34739e-05
0.000129505
-1.01804e-05
7.69088e-06
2.8617e-05
-0.000437104
0.000459939
-0.0008854
2.0225e-05
3.78869e-05
-2.70532e-05
-4.61578e-05
-4.56414e-05
0.000113061
-0.000525994
5.39696e-05
0.000472064
0.000297926
-0.000149901
0.0013144
-0.00133026
-0.00048268
-0.000211924
0.000694348
3.71583e-05
1.97964e-05
-0.000357975
-2.68457e-05
1.28565e-06
2.16632e-05
1.19374e-05
1.29329e-05
-3.61847e-05
-0.000170882
9.98653e-05
7.10099e-05
0.000107549
3.72474e-05
-0.000144815
0.000312229
0.000453368
3.27794e-05
5.94762e-06
-3.87254e-05
0.000102338
-1.33995e-05
-9.9428e-05
-5.49675e-05
0.000154395
0.00117297
-0.000462283
-0.000710708
6.88579e-05
5.0618e-06
-7.39179e-05
4.23331e-05
3.66715e-05
-7.90032e-05
0.000324674
-0.000181657
-0.000143013
0.000233761
-0.000207205
-2.65554e-05
-0.000149959
0.000377631
-8.78728e-05
-3.76515e-05
-0.000596359
0.00016801
0.000428348
1.40536e-05
8.88168e-05
0.000403519
-0.000611818
-0.000425625
5.96585e-05
0.000288997
-0.000388839
0.000208404
-0.000541321
-0.000817267
5.65457e-05
-4.72006e-05
-2.15957e-05
-6.71895e-05
9.97639e-05
-7.89554e-05
0.000145075
2.75444e-05
7.82739e-05
-0.000143004
6.47186e-05
-3.25303e-05
0.000140077
-0.000264125
1.96504e-05
0.000244474
0.00027566
-0.000536327
0.00026067
-1.7013e-05
0.000131809
8.00324e-06
-0.000139815
-0.000142772
0.000172651
-2.98867e-05
0.000175966
-0.000112693
0.000418238
-0.000283203
0.000476806
0.000231518
-0.000708242
-0.00066722
0.000779094
-0.000111879
-3.38089e-05
0.00023893
-0.000597574
0.00146737
-0.000869788
6.9656e-05
7.21823e-05
7.53375e-05
-0.00012604
5.07041e-05
8.77354e-05
-0.000111744
8.68228e-05
0.00119114
0.000116126
0.000197493
-0.000313607
-0.00101049
0.000211848
7.14427e-05
-2.86208e-07
-7.11565e-05
1.47234e-05
4.03604e-06
-1.8759e-05
-0.000513415
0.0001807
0.000143976
4.51888e-05
-4.52319e-05
4.30674e-08
8.65082e-05
-0.000179662
9.3159e-05
3.29674e-05
-0.00017574
-5.66618e-05
0.000114929
-5.82735e-05
-0.000176717
1.48343e-05
-7.44593e-05
-5.41071e-05
1.74055e-05
0.000748872
-0.000766223
-5.79802e-05
-5.12784e-05
0.000109258
8.80505e-05
-0.000150904
6.28522e-05
-0.000107409
0.00031983
-0.000212441
-2.80041e-05
6.61083e-05
-3.81002e-05
7.25967e-05
4.26877e-05
-0.000115283
9.80316e-05
-3.3651e-05
-6.43807e-05
0.000998478
-0.000862302
-0.00013618
7.56044e-06
0.0006723
-0.000167403
-0.000504851
7.42066e-05
6.02085e-07
0.000709466
-0.000829549
0.000351264
-0.00017056
2.97512e-05
-2.80025e-07
-2.94696e-05
-0.000105517
0.000144216
-3.87006e-05
-0.000133545
0.000185997
-9.06514e-05
0.000159529
-6.88796e-05
0.000744154
0.000228009
-0.000972196
8.34459e-06
-0.00024528
0.00023694
-0.000736479
0.000586144
9.53273e-05
-0.000208082
0.00011275
-0.000148444
4.29262e-05
-0.000201104
0.000179508
2.15937e-05
0.000101916
-2.15906e-05
-0.000140153
0.000295422
-0.000155269
-0.000150818
0.000237321
-0.000366054
-0.00039151
0.000757557
-7.7238e-05
6.84615e-05
8.77884e-06
0.000306116
0.000542017
-0.000848108
0.000258686
-0.000741564
0.000240004
-0.000107186
-0.000132822
-9.30385e-06
-3.17757e-05
4.10803e-05
-1.94519e-05
2.37208e-05
-4.26832e-06
-0.000798169
-8.7224e-05
0.000103312
-8.02358e-05
-2.30768e-05
-1.82007e-05
-8.04112e-05
4.05353e-05
-3.55992e-05
-2.87531e-05
-0.000287951
0.000316674
0.000193371
-4.31697e-06
-0.000189057
-4.15103e-05
4.25083e-05
-9.96929e-07
4.04778e-05
0.000157828
-0.000198305
-2.15614e-06
4.73451e-05
-0.000271629
0.000103189
0.000168447
2.89022e-05
-0.00012833
0.000216097
-3.62628e-05
-0.000179836
3.7812e-05
-4.95024e-06
-3.2861e-05
4.19523e-05
-0.000469619
-0.000128721
7.20552e-05
3.72712e-05
-5.3653e-05
-0.000456453
0.000476249
-0.00016432
-8.5336e-05
0.000249654
0.000196386
-0.000303804
0.000304407
-0.000385558
-1.98525e-06
-7.88202e-05
8.08075e-05
0.000124783
-0.000207431
8.26381e-05
0.000202419
-9.05019e-06
5.48501e-06
6.59585e-05
-3.11091e-05
9.00449e-06
8.84706e-05
-5.31456e-05
-3.5325e-05
9.67409e-05
-0.000100065
3.3273e-06
0.000151509
8.84941e-05
0.000170153
0.000181111
1.3356e-05
0.000202739
0.000371732
0.000523063
-0.000894752
0.000112002
-1.52594e-05
-4.28497e-05
-2.45943e-05
6.74443e-05
-0.000295376
-0.00101424
0.0013096
-5.48904e-05
1.74952e-05
3.73962e-05
0.000108022
-0.000221646
-7.08277e-06
0.000111192
-0.000104106
1.21298e-05
2.60733e-05
-3.82028e-05
-0.000164694
0.00090883
-0.000439635
-0.000285935
0.000725559
4.5453e-06
3.3267e-05
-0.000235212
-0.000288805
0.000524021
-0.000147399
-0.000124226
-0.000857629
-1.07452e-05
-0.000148762
0.000116315
3.24523e-05
-0.000114404
5.70675e-05
5.73372e-05
6.15472e-05
7.73276e-05
0.000120191
6.54399e-05
-3.3572e-05
7.71776e-06
-0.000275564
0.000670648
-0.000395089
2.52621e-05
-1.68673e-05
-8.39227e-06
0.000105978
-6.44692e-05
-4.15086e-05
2.44337e-05
-2.32547e-05
7.25282e-05
-4.92743e-05
-0.000114722
5.67404e-05
-5.43815e-05
0.00053128
0.000270899
0.00033568
-1.34571e-05
-3.82708e-05
5.17272e-05
-0.000180306
0.000973244
-0.000793016
-0.000159294
-2.25282e-05
0.00018182
-0.000760231
0.000791554
3.12662e-05
-0.000190558
0.000791134
-0.000520446
-0.000270987
0.000788131
-7.15348e-05
-0.000716611
-3.5692e-05
-2.7905e-05
6.3597e-05
-0.000301915
7.8113e-05
0.000345919
0.000301695
-0.000647621
-1.66635e-05
7.39405e-05
-5.72776e-05
-8.81512e-05
0.00132611
-2.98207e-05
1.91358e-05
1.06855e-05
1.57498e-05
-1.57475e-05
-0.000233295
0.000793649
-0.000560333
-0.00025487
9.05476e-05
-0.000373568
-0.000222787
3.29846e-05
-0.000219513
0.000283128
-6.36075e-05
-0.000250528
0.000110376
5.8741e-05
1.82189e-06
0.000535504
-0.000367492
-0.00102688
0.00143199
-0.000405101
-9.08654e-05
6.0668e-05
3.02004e-05
-2.8813e-05
6.29842e-05
0.000119118
-6.96033e-05
-4.9513e-05
6.50806e-05
4.08976e-05
-0.000277818
5.83074e-05
-4.51294e-05
7.98426e-05
-3.47152e-05
2.46488e-05
-7.31995e-05
4.85521e-05
-0.000110994
-7.0547e-05
0.00018154
1.8413e-05
0.000399677
-2.67626e-05
8.76071e-05
-6.08469e-05
-0.000115116
4.06583e-05
-0.000121363
0.000216686
-1.94509e-05
7.62703e-05
0.000107894
-0.000184161
-0.000212565
0.000940272
-0.000727694
9.08942e-05
2.11075e-05
0.000191939
-0.000100522
-9.14126e-05
1.60738e-05
-5.69426e-05
4.08701e-05
-0.000353256
-0.000256846
0.000610165
0.000644608
-0.00138065
0.00073605
-0.000636278
0.000674111
-3.78327e-05
-0.000714918
-0.000298561
0.0010135
0.000184806
-0.00017679
-8.02228e-06
3.18596e-05
3.17892e-05
-0.000221072
0.000386302
-0.000165234
-2.9356e-05
0.000101953
-2.20528e-05
4.5243e-06
4.66467e-05
4.75988e-05
-9.42459e-05
1.66846e-05
0.000168121
3.30508e-05
-3.79972e-05
4.94743e-06
-8.43609e-06
0.00099612
-0.000314718
0.000590369
8.05613e-05
-0.000146124
6.55589e-05
8.63955e-05
0.000457219
0.000215066
-8.98552e-05
0.000251434
-0.000161575
7.05875e-07
-0.0001275
-3.11846e-05
-4.51758e-05
7.63615e-05
1.26871e-05
3.55504e-06
-1.62464e-05
2.92126e-05
-0.000144385
0.000184861
-5.17951e-05
0.000103682
-5.18873e-05
0.000364173
0.000333573
-8.1066e-05
5.566e-06
7.55016e-05
-5.51637e-05
-1.26514e-05
6.78164e-05
2.21602e-06
8.64257e-05
3.95009e-05
6.04652e-05
8.77398e-06
-4.06711e-05
1.42676e-05
1.76879e-05
1.19656e-05
-2.96532e-05
3.26631e-05
-6.06669e-05
-5.08311e-05
0.00011259
-6.17598e-05
-1.31947e-05
1.07048e-07
1.30795e-05
-0.000308974
0.000712459
-0.000591806
0.000238545
-0.000140716
0.000127275
-7.6477e-06
5.64118e-06
2.00695e-06
5.78905e-05
-0.000141981
8.40874e-05
-7.72732e-05
4.60894e-05
-0.000117638
0.000147313
-2.96736e-05
-2.45629e-05
-3.89418e-06
1.25955e-05
-4.74346e-05
3.4837e-05
0.000104391
-1.3498e-05
2.24132e-05
4.5659e-05
-6.80725e-05
8.04753e-05
0.001026
-0.00110647
-2.33553e-05
-7.95649e-06
0.000866997
-0.00116237
0.00130325
1.3123e-05
-0.00131635
0.00032333
-0.00110128
5.66174e-05
-3.77119e-05
-1.89045e-05
0.000972585
-0.000600829
-0.00120883
0.000772274
0.000436568
2.6426e-05
2.66421e-05
-5.30686e-05
-0.000111661
9.01543e-05
2.15084e-05
-0.000167815
-0.000475254
0.000643063
4.66229e-05
7.24968e-05
0.000252207
-1.84467e-05
-0.000113152
-3.7339e-05
0.000150492
-0.00075473
0.000880686
-0.000135351
-2.51933e-06
0.000137867
0.000640542
0.000532435
-0.000156942
6.62886e-05
2.24474e-05
2.44428e-06
-2.48904e-05
-7.63803e-05
-0.000732226
-3.0914e-05
0.000425919
-0.000394999
-9.54872e-05
6.87248e-05
-9.72619e-05
7.58573e-05
-1.004e-05
8.83347e-06
1.2069e-06
-4.52407e-05
-2.67663e-05
7.2007e-05
0.000232212
-0.000265477
3.3257e-05
6.14798e-05
-0.000110135
4.86565e-05
1.55263e-05
-8.0508e-07
1.7347e-05
-0.000442979
0.00065342
-0.00128152
-0.000101832
0.000387905
-0.000286095
6.36752e-05
-4.76e-05
-0.000360989
0.000667122
-0.000687212
0.000610852
4.62935e-05
-3.65148e-05
-9.76251e-06
-4.04416e-05
0.000105891
-0.000477095
0.000779543
-0.000302429
-0.000127469
-4.6422e-06
-0.000108429
6.62149e-05
4.22121e-05
-0.000352424
0.000131355
0.00134649
-0.00125963
-9.26093e-05
-0.000125438
0.000126146
6.73125e-05
-6.84771e-06
1.54471e-05
1.66526e-05
-0.000537869
0.000442263
0.000127427
-0.000257774
7.86548e-05
0.000122555
-0.000201214
0.00128888
-0.00168036
-0.00091228
0.000584787
0.000327436
0.000763919
-0.000345063
-0.000418861
0.000179606
-0.00114208
-0.000313258
0.00145532
-0.00125172
0.000724757
0.000526952
-0.000428987
-0.000184604
0.000613593
0.000121643
6.93034e-05
-0.000190942
0.00107147
-0.000448721
-0.00062276
-2.83276e-05
8.09809e-05
-0.000153812
7.28307e-05
-2.1622e-05
-4.37603e-05
6.53817e-05
-4.49161e-05
0.000106356
-6.14394e-05
0.000486853
-0.000271019
-0.000215836
3.06476e-05
-7.58226e-05
-0.000143644
7.46455e-05
6.90001e-05
-0.000102805
0.000166907
-6.41044e-05
4.07051e-05
1.80346e-05
-0.000602929
0.00015788
0.000445055
0.000602933
0.000177712
9.28107e-06
-0.000102075
9.27978e-05
-3.87732e-05
-3.05474e-05
6.93206e-05
-2.92748e-05
1.61812e-05
1.30939e-05
-7.2929e-05
7.50501e-05
0.000207096
-3.24346e-05
-0.000174662
-1.27755e-05
-0.000623505
-0.000792441
-0.000119882
1.97239e-05
-0.000734632
-1.89307e-05
3.106e-05
-0.000935634
0.00101608
2.08892e-05
4.62654e-05
-6.93626e-05
0.000101729
-3.23645e-05
0.000455025
-0.00032735
-0.000127682
-7.12497e-05
0.000179143
-3.1788e-07
-9.7221e-06
-0.00018959
-0.000206134
0.000395718
-4.96775e-06
6.81832e-05
-6.32135e-05
0.0011944
-0.000103202
-0.00109127
0.000113001
-0.000187961
7.49578e-05
-0.000143766
0.000187628
-4.38642e-05
-0.000642226
0.00033328
0.000321152
0.000280211
-0.000601397
3.72261e-05
-2.98296e-06
-3.42438e-05
1.2366e-05
1.25251e-05
-8.01687e-05
3.70027e-06
7.64687e-05
-3.56817e-05
4.7683e-05
-1.20007e-05
-0.000126935
0.000321078
-0.000194159
-0.000748206
0.000537403
0.000210801
-1.79721e-05
3.86921e-06
1.41118e-05
-0.000491277
0.00114468
-0.000140965
-3.03513e-06
-5.79779e-06
7.96265e-05
1.44526e-05
-9.40782e-05
0.000300769
-0.000373454
7.26892e-05
4.50655e-05
-3.24714e-05
-1.15836e-05
-6.94814e-05
0.000112485
-9.94219e-05
-1.30569e-05
-0.000106518
6.3422e-05
0.000171121
0.000237991
6.82879e-05
-4.73969e-05
-5.46774e-05
-3.61876e-05
-8.92219e-05
-5.58407e-05
0.000145057
3.00381e-05
-6.57296e-05
-0.000304579
0.000202729
-0.000121545
0.000142502
-2.09574e-05
3.94027e-05
-1.41525e-05
-2.52496e-05
-0.000178847
0.000295063
-4.88185e-05
0.000169274
-6.16866e-05
-7.75126e-05
5.20214e-06
-5.18777e-05
4.66758e-05
-4.61409e-05
-6.03784e-05
-0.000459811
-2.05943e-05
0.00010833
4.37704e-05
-0.000103625
5.98547e-05
-7.10792e-05
-7.25644e-05
-3.06735e-05
1.09939e-05
-0.000110344
-0.00041564
-1.63737e-05
-7.536e-06
2.39102e-05
5.84787e-05
2.1601e-05
-8.00784e-05
0.000591245
-0.000365884
-0.000225357
-5.66686e-05
5.17022e-05
9.36078e-05
1.88765e-05
-0.000724879
0.000379643
0.000345225
4.02132e-05
-3.07451e-05
4.68629e-05
-0.00129283
0.000695265
-0.000847219
0.000679814
-0.00111847
0.00183661
-0.00071814
5.8024e-06
2.69153e-05
-3.27174e-05
5.04876e-05
-9.7801e-06
0.000168274
-0.000190799
-4.14161e-05
5.98882e-05
-1.84712e-05
-8.8727e-05
1.62246e-05
7.2501e-05
0.000213331
-8.75989e-05
-0.000119067
7.41506e-05
1.47654e-05
1.04977e-05
-4.52425e-05
0.000107352
2.3655e-05
6.86758e-05
-9.23326e-05
-4.87555e-05
8.11695e-06
4.06168e-05
0.000126253
-0.0003793
-3.80715e-05
0.000417368
0.000252592
-0.000244243
-8.86286e-06
-0.000255263
-4.81989e-05
0.000109676
-3.63523e-06
0.000162286
-0.00035188
-0.000149667
0.000152198
-2.52258e-06
2.19965e-05
2.09943e-05
-4.29886e-05
-5.23141e-05
6.96637e-05
-1.73465e-05
8.48242e-05
-0.000105419
0.00115632
-0.000662729
-0.0004936
9.37979e-05
1.88253e-07
-9.39832e-05
8.90137e-05
-0.000172908
8.39004e-05
-3.16396e-05
0.000107576
-7.59368e-05
1.47355e-05
-3.11095e-05
-0.000525359
-8.65101e-05
-0.000275174
-0.000512829
-0.00097015
0.000757567
0.000213131
-0.000301225
8.81028e-05
5.67249e-05
2.65778e-05
7.19159e-05
2.38172e-05
-9.5733e-05
4.06972e-05
-5.41535e-05
-1.87239e-05
-1.08642e-05
2.95894e-05
1.7246e-05
-1.72435e-05
0.000180811
5.15171e-05
-0.000107229
5.57117e-05
-0.000174641
0.000103392
-0.000253439
0.000108173
0.000145263
6.85982e-05
0.000138497
-4.94918e-05
8.22873e-05
-3.27984e-05
-0.000216163
-0.000386767
-0.000552137
0.000201511
0.000350658
4.8613e-05
-0.000170159
4.97678e-05
-3.80017e-05
-1.17661e-05
3.39858e-05
-5.56078e-05
0.00024365
-0.000183422
-6.02281e-05
5.58044e-06
-7.06102e-05
-7.23992e-05
0.000115613
-0.000232184
0.000116571
-7.8376e-05
3.09509e-05
4.74257e-05
-1.96381e-05
1.68721e-05
2.76657e-06
-0.000635917
0.000525237
0.000110682
0.00029863
0.000754696
-0.00105339
-2.42409e-05
-7.16477e-05
9.58849e-05
-4.56505e-06
0.000172842
0.000854057
-0.000251138
-6.20435e-06
8.58315e-05
8.28046e-05
-0.000151686
6.8882e-05
0.00149678
-0.00115681
-0.000339953
-0.000217768
6.56113e-05
0.000152152
4.42464e-05
-4.11468e-05
-3.10974e-06
-5.25178e-05
1.11019e-05
5.13905e-05
-0.000120606
6.92193e-05
3.81762e-05
0.000106161
-0.000144337
-0.000285698
-0.00015238
0.000438082
4.57238e-06
-2.32952e-05
-6.98403e-05
6.50136e-05
4.82186e-06
9.35237e-05
-8.90245e-06
-8.46209e-05
-8.35846e-05
8.16008e-05
0.000143401
-6.28469e-05
-5.31948e-05
0.000266331
-0.000606873
0.000177886
0.000125827
-7.44375e-05
-0.000341738
-0.000383146
5.67431e-06
3.55039e-05
-4.6299e-05
-2.46439e-06
6.03417e-05
7.9855e-05
1.36691e-05
0.000387364
0.000154974
3.2822e-05
4.63245e-05
-0.000159143
7.81046e-05
-9.30717e-05
1.49673e-05
9.78516e-05
0.000166348
-0.0002642
3.03506e-05
-0.000134463
0.00016385
-2.93864e-05
-0.000124711
-2.76563e-06
-3.24353e-05
3.69805e-05
-5.52001e-05
6.70253e-05
-0.00040263
2.33283e-05
0.000100965
-0.000466487
-1.38525e-05
-4.11447e-06
0.000118033
-0.000206969
8.89355e-05
0.000101161
4.62293e-05
-0.000147391
-9.06534e-05
1.61799e-05
7.44733e-05
-4.70694e-05
0.000295861
-0.00024879
-5.92422e-05
6.3227e-05
-3.98335e-06
-5.84394e-05
2.95339e-05
0.000113637
-0.000399335
3.38067e-05
1.2174e-05
-4.59827e-05
6.40569e-05
0.000111913
0.000299944
3.60785e-05
-0.000336012
0.0002524
0.000531771
-0.00011877
0.000119707
-9.36524e-07
-2.94262e-05
1.36377e-05
1.57879e-05
-3.92038e-05
-2.30536e-06
-4.24911e-05
-0.000175277
0.000351396
-5.14467e-05
3.07467e-05
-1.60064e-05
-1.47389e-05
0.000154839
-0.000240178
0.0014705
-0.000101009
0.00021662
-0.000298946
0.000270157
-5.83002e-05
-1.15415e-05
0.000717232
-0.000371331
-1.30958e-05
-1.03026e-07
4.71398e-05
7.23094e-05
-0.000119453
-0.000117921
9.0488e-05
2.74376e-05
-7.33456e-05
9.65826e-05
-2.32374e-05
-0.000303124
-0.000245965
0.000549065
9.48056e-05
2.94203e-05
-0.000124229
-0.000752495
0.000266406
0.00048611
-0.000118683
0.000216529
8.63152e-05
-8.21451e-06
-3.01782e-06
3.27672e-05
0.000742704
4.85728e-05
-2.76287e-05
-6.96329e-05
-7.92199e-06
0.000109671
-0.00118688
-5.37536e-05
0.00124065
0.000735303
-0.000915642
7.027e-05
0.000247178
-0.000317458
-0.000113486
0.000131884
-1.83962e-05
5.31307e-05
5.99795e-05
-0.000113111
0.00173572
-0.000446847
-0.00106224
0.000723116
0.000339113
-9.89245e-05
0.000529198
-0.000430273
0.000259253
-6.79957e-05
-0.000191262
-2.82295e-05
5.02271e-05
-0.000108788
7.71477e-05
-2.05271e-05
-8.79029e-05
-7.06916e-05
0.000142533
-7.184e-05
-0.000270654
-0.000637481
-0.000209704
-1.85274e-05
6.99499e-05
-5.14219e-05
0.00021341
-0.00043021
0.000216802
6.59794e-05
4.2586e-05
-0.000108566
-0.000268698
-0.000281941
0.00141037
-0.00165112
0.000240724
-6.6298e-05
2.75254e-05
-0.000510144
0.000403696
-2.43399e-05
-0.000389716
0.000414054
0.00071636
-0.000881073
1.67217e-05
-1.4086e-05
5.13131e-05
0.000108766
-6.71089e-05
-4.16531e-05
1.33126e-05
3.12663e-05
-4.4578e-05
-0.000175456
-5.97907e-05
7.7864e-05
3.09034e-05
5.18034e-05
0.000142117
-0.000193911
-0.000130171
0.000156162
-2.59813e-05
-9.79785e-05
2.95844e-05
6.83945e-05
-0.000133991
2.21532e-05
0.000111839
0.000173447
6.79112e-05
-0.000128373
6.04633e-05
-0.000118134
5.41161e-05
-1.12174e-05
7.28461e-05
-6.16276e-05
0.000573
-0.00110885
0.0005358
-0.000461423
-0.00014575
9.94535e-05
-6.32438e-05
4.21551e-06
5.9029e-05
-0.000102893
-0.000150548
-0.000761752
0.000343
-9.38032e-05
0.000108812
-1.501e-05
-0.00027023
-0.000554668
-0.000139335
0.000693973
-0.000236266
0.000363659
0.000121106
5.8022e-06
-3.67237e-05
5.23489e-05
3.86258e-05
-9.09708e-05
-0.000175501
0.000126738
4.87769e-05
-0.00109872
-7.41684e-05
0.00117294
-7.33311e-05
8.88568e-05
-1.5524e-05
0.000210098
-0.000111079
-9.90213e-05
4.65108e-05
-0.000114004
6.74913e-05
-9.85126e-05
-1.54356e-05
4.07582e-05
-2.53199e-05
0.000222945
0.000167617
-0.00039056
-0.0002383
0.000537278
-0.00029899
-8.19752e-05
9.30496e-05
-1.10746e-05
0.000102912
-4.91568e-05
7.34983e-05
-2.43398e-05
-7.00991e-05
-7.56225e-05
1.87616e-06
5.82573e-05
-6.01333e-05
8.13544e-05
-1.42639e-05
-6.70889e-05
6.03874e-05
-7.70516e-05
-0.000106449
0.000463602
-0.000575775
0.000112253
-1.23203e-05
-1.71073e-05
7.4519e-05
-4.38707e-05
0.000104803
-5.32867e-05
-0.000114361
-1.96276e-05
-0.000200683
-0.000315262
0.000515945
-4.26182e-05
8.53214e-05
-4.27037e-05
-8.01662e-05
2.22646e-05
5.79045e-05
4.55365e-05
-8.81549e-05
4.90116e-05
-9.20743e-05
4.30608e-05
9.44201e-05
3.83814e-07
-0.000818203
0.000341806
-6.74912e-05
6.3916e-05
3.57369e-06
-8.618e-05
-2.47728e-05
0.000110952
2.81579e-05
-0.000269993
0.000241804
0.000118393
-0.000193204
-2.66326e-05
6.06411e-05
-8.39926e-05
3.16791e-05
1.35331e-05
0.000828438
-0.000841976
-0.000100936
2.75896e-05
6.21261e-05
-7.33425e-05
-7.12717e-05
0.000105072
-3.37946e-05
-1.81996e-06
-6.14241e-05
0.000530134
0.000572668
-0.000203282
-0.000369371
-1.10823e-05
5.53239e-05
2.02576e-05
-0.000578918
-0.000713904
-7.76222e-05
5.19093e-06
7.2432e-05
-3.72985e-05
7.41974e-05
-3.68991e-05
8.34613e-05
0.000134804
-0.000218264
-0.000203633
0.000128726
7.49055e-05
0.00041349
0.000164076
-0.000577333
5.84998e-05
2.28547e-05
-0.000364652
0.000214692
-0.000113132
-5.63733e-06
0.000134214
-0.000196098
6.18787e-05
-7.1335e-05
8.2573e-05
-1.12367e-05
-0.000855041
-0.000133807
0.000988856
2.99229e-06
-3.58158e-05
3.28236e-05
-0.000270802
-0.00124041
0.000661509
-0.000105138
4.8942e-05
5.61958e-05
1.81524e-05
0.000126925
5.13692e-05
2.60092e-05
-7.73795e-05
-1.0794e-05
-8.50712e-05
4.27023e-05
0.000157722
-0.00020042
3.84715e-05
0.000205177
-0.000422548
0.0010137
-0.000591243
4.91471e-05
-0.000179313
4.27315e-05
3.88095e-05
-2.60525e-05
-7.19246e-05
0.000672203
7.33441e-05
-1.43466e-05
-5.89965e-05
6.32888e-05
-0.000116202
5.29127e-05
-0.00011995
-5.55435e-05
3.02306e-05
-5.78303e-05
2.76005e-05
0.000102015
-5.30033e-05
-1.1108e-05
-5.63553e-05
6.74631e-05
-2.93392e-05
-5.08257e-05
-0.000669795
0.000262772
-6.73522e-05
-0.000195426
-3.5748e-05
9.91218e-05
-6.33766e-05
2.11196e-05
-0.000170781
-0.00218415
0.000841195
0.00134295
0.00130996
-0.00143533
0.000125432
0.0015504
-0.00147054
0.000392639
0.00019861
0.000436356
9.91513e-05
-3.15512e-06
-5.2008e-05
-1.51554e-05
-2.99495e-05
4.51063e-05
-1.52585e-05
8.71746e-05
-2.65053e-05
-0.00133166
0.00135815
-0.000789065
0.000234382
-2.34596e-05
1.13146e-05
1.21421e-05
-6.1773e-05
-3.02999e-05