/*--------------------------------*- C++ -*----------------------------------*\
| =========                 |                                                 |
| \\      /  F ield         | OpenFOAM: The Open Source CFD Toolbox           |
|  \\    /   O peration     | Version:  v2012                                 |
|   \\  /    A nd           | Website:  www.openfoam.com                      |
|    \\/     M anipulation  |                                                 |
\*---------------------------------------------------------------------------*/
FoamFile
{
    version     2.0;
    format      ascii;
    class       volScalarField;
    location    "100";
    object      k_0;
}
// * * * * * * * * * * * * * * * * * * * * * * * * * * * * * * * * * * * * * //

dimensions      [0 2 -2 0 0 0 0];


internalField   nonuniform List<scalar> 
27915
(
0.00014911
0.000202747
0.0296982
0.0587614
0.000174619
0.000151688
0.0829367
0.000177797
0.000176588
0.000179716
0.000159742
0.00014897
0.000260857
0.0456179
0.0626221
0.000153625
0.0417375
0.000170663
0.078701
0.000150751
0.0445764
0.000147704
0.0429173
0.000149087
0.000146996
0.00014718
0.000147668
0.000258773
0.0607071
0.0603255
0.000191238
0.0001459
0.0422029
0.00015079
0.0846667
0.000147657
0.00014792
0.000161743
0.000168098
0.000154904
0.000147532
0.000160781
0.00014801
0.000207772
0.00020606
0.000149059
0.000148465
0.00016649
0.000148268
0.000147565
0.000167427
0.000207492
0.00019982
0.000154828
0.000427853
0.0259712
0.055253
0.000148756
0.000147683
0.0604827
0.000145915
0.000168694
0.000188619
0.00182101
0.000149907
0.000157487
0.000172313
0.000213427
0.0585389
0.000153409
0.000161139
0.0640454
0.000147693
0.000146916
0.000160069
0.000171857
0.000189485
0.000157417
0.00995143
0.000149108
0.00016065
0.000155008
0.00014713
0.000147503
0.0248851
0.00014555
0.000148247
0.000153343
8.18621e-05
0.00017089
0.00014779
0.00134864
0.000153427
0.000190855
0.000152766
0.000167709
0.0137996
0.000157164
0.000147473
0.0666771
0.00014717
0.000149155
0.0818458
0.000161195
0.000147897
0.000149881
0.000148054
0.000171832
0.000172585
0.000179199
0.00014877
0.000150746
0.000262495
0.0490381
0.0175312
0.000205205
0.0802121
0.000147432
0.000176485
0.000144439
0.000230115
0.000176239
0.000181598
0.0001712
0.000150953
0.000144672
0.00015079
0.0506866
0.000189075
0.000153381
0.00015471
0.000147785
0.000145534
0.0307152
0.0225762
0.0137571
0.000147474
0.000146959
0.000155362
0.000145544
0.066094
0.0629467
0.000153565
0.061736
0.000171
0.00015001
0.000149621
0.0534666
0.000227503
0.000148065
0.000147878
0.00015748
0.000200252
0.0435138
0.000189966
0.000157068
0.000149005
0.000148667
0.000152833
0.000153083
0.000168434
0.000194082
0.000189273
0.00014832
0.000148381
0.000153805
0.00702879
0.000207799
0.000148832
0.000199827
0.0653971
0.00014864
0.0428046
0.000147833
0.000149949
0.000206549
0.000172041
0.000149177
0.000149486
0.000493511
0.000148566
0.000173024
0.000147907
0.0058534
0.0475483
0.000176607
0.000188976
0.000148139
0.0277093
0.000161664
0.000148478
0.000221915
0.000148168
0.000148073
0.000147768
0.0252777
0.000148969
0.000163745
0.0112391
0.0849502
0.000187321
0.000104237
0.000162267
0.000214185
0.000148418
0.000157639
0.0578598
0.000155565
0.000159341
0.000209354
0.072436
0.000149021
0.0658427
0.000150743
0.000176973
0.000147798
0.000207846
0.0763127
0.000177841
0.000162019
0.0540695
0.000212369
0.00019206
0.000148632
0.000159031
0.000162133
0.000174784
0.000148612
0.000429754
0.00014819
0.0451259
0.000145591
0.0807607
0.000156856
0.000148686
0.000149247
0.00393111
0.000151863
0.000149799
0.000147075
0.000148183
0.0651834
0.00769343
0.000176344
0.000148466
0.000153429
0.000206856
0.000150781
0.000260548
0.000200344
0.000147969
0.000166827
0.000200717
0.000147192
0.000165681
0.000152223
0.000167131
0.000153686
0.000227902
0.0555637
0.0510195
0.00014968
0.000147653
0.00014581
0.000165196
0.000201541
0.000144269
0.000148723
0.000188858
0.000148362
0.000147649
0.000147832
0.0492491
0.000170154
0.000150703
0.0772176
0.000152764
0.054538
0.0489653
0.0730295
0.000212172
0.0498083
0.000153946
0.0286887
0.000155229
0.000153899
0.000192039
0.000150746
0.000150265
0.0480214
0.000199753
0.000165658
0.000147949
0.000190632
0.000157751
0.000145452
0.000148436
0.0607977
0.000192394
0.000147972
0.000223518
0.000147457
0.000159701
0.000147955
0.000198965
0.0591527
0.000147821
0.000482551
0.00014742
0.000197335
0.00264362
0.0215492
0.0620975
0.000150784
0.0620328
0.000145487
0.000147276
0.000145585
0.000175817
0.000193869
0.0231756
0.000146168
0.000149318
0.000152496
0.000225605
0.000153353
0.000147028
0.000183816
0.000173109
0.000177837
0.000147968
0.0736528
0.00015551
0.0325342
0.0702186
0.000176787
0.000190199
0.000221312
0.000190143
0.000152146
0.000155826
0.000177806
0.000175226
0.000193886
0.00028855
0.0499496
0.000147666
0.000173561
0.000168237
0.000156065
0.000191387
0.0555584
0.00020395
0.000164062
0.0491754
0.000182819
0.000159473
0.000147956
0.0268686
0.000191045
0.0561677
0.000147296
0.000148152
0.000230535
0.000183358
0.000149687
0.00346091
0.000168422
0.000161837
0.000165226
0.000160335
0.000210154
0.000153375
0.00016107
0.000180821
0.000150138
0.000149125
0.000149047
0.0549305
0.000153497
0.0636486
0.000149145
0.000207345
0.000184279
0.000147831
0.000174359
0.000189379
0.000160178
0.00130533
0.000190295
0.0270827
0.000164463
0.000174703
0.000167881
0.000150038
0.000177327
0.0125001
0.00291585
0.000149159
0.000208768
0.06444
0.000162124
0.000148498
0.000149904
0.0609655
0.000148935
0.000185355
0.000148495
0.000178375
0.000173019
0.000147507
0.000165287
0.000149723
0.000170905
0.000152367
0.000217503
0.000147537
0.000214476
0.000161384
0.000147052
0.0640714
0.000205465
0.000180531
0.072714
0.000167713
0.000185681
0.000173107
0.000147348
0.000148041
0.000150735
0.000155732
0.000162508
0.000184024
0.000215122
0.0511566
0.000155861
0.000148634
0.0334166
0.000147414
0.00125974
0.000149288
0.000148414
0.000234133
0.000199778
0.000147496
0.000194833
0.000170218
0.0550255
0.000161609
0.000147546
0.000153817
0.000157576
0.000147998
0.0859148
0.000148279
0.000150259
0.0050133
0.00014686
0.000153538
0.0538779
0.075221
0.000146895
0.000230525
0.000161983
0.0278028
0.000161812
0.0019791
0.0613493
0.000148674
0.000173866
0.000197213
0.000147355
0.0476805
0.000147884
0.000149957
0.000206871
0.000210288
0.0713706
0.000150775
0.000170726
0.000177104
0.000172431
0.0721233
0.0529484
0.000148881
0.000145896
0.000150958
0.000150296
0.000169767
0.00015225
0.000146967
0.000158411
0.00266504
0.00015
0.000160151
0.000164426
0.000149952
0.000157704
0.000212742
0.000156362
0.000154383
0.000147813
0.000209586
0.0607874
0.0662609
0.000208943
0.000180046
0.000144282
0.000193779
0.000149146
0.000145167
0.000148168
0.000181766
0.000148028
0.0583716
0.0532255
0.000163362
0.000154595
0.0665974
0.000167756
0.000171231
0.000147016
0.000148151
0.00380445
0.000165366
0.000152051
0.000200407
0.000149291
0.000148194
0.000149782
0.000152281
0.000147725
0.000147864
0.000148256
0.000150021
0.000152747
0.000149146
0.0344943
0.000208968
0.000173401
0.000149408
0.000153021
0.000146996
0.00017552
0.000146864
0.000145746
0.000155884
0.00014743
0.000108922
0.000147974
0.0422328
0.0455843
0.000221756
0.000148602
0.0523989
0.000213004
0.000147818
0.000148869
0.000255685
0.000150991
0.000173752
0.000149133
0.00181663
0.000152406
0.000229989
0.000160238
0.000148346
0.000211993
0.0689618
0.000149801
0.000147789
0.000149784
0.00014775
0.000190297
0.000156256
0.000148121
0.0676698
0.0624848
0.000297258
0.000147788
0.000209054
0.000211006
0.000145344
0.000147462
0.000206755
0.000168691
0.000149743
0.000193373
0.0298328
0.000175814
0.000170635
0.000147707
0.000147583
0.0249127
0.0294433
0.000181561
0.00026022
0.0413147
0.0872474
0.000157826
0.0285673
0.0674326
0.0362383
0.00016118
0.000219514
0.000161646
0.000151533
0.000147734
0.000153568
0.000196239
0.00014707
0.000148628
0.000160516
0.000172549
0.000191755
0.0480496
0.00015774
0.000147377
0.000147807
0.000153024
0.000156859
0.0605038
0.0402144
0.000210724
0.000148356
0.00016303
0.000150759
0.000147672
0.000182623
0.000158037
0.000149825
0.000183989
0.000153175
0.0261793
0.000166696
0.000165926
0.037909
0.000208812
0.000174876
0.000149911
0.000149647
0.000146558
0.000541065
0.000200637
0.000179887
0.0614803
0.000161817
0.0237045
0.000146602
0.000869577
0.000145792
0.00014924
0.000152122
0.000148259
0.000204258
0.000150721
0.000148824
0.000156165
0.0001487
0.00106881
0.000151528
0.000148174
0.000190291
0.000157969
0.000158972
0.000146238
0.000148239
0.000213261
0.000147938
0.000148151
0.000148492
0.000145639
0.000197854
0.000144207
0.000146801
0.000195781
0.000153308
0.000152098
0.0877002
0.000147437
0.00016598
0.051407
0.0608889
0.000192328
0.000147619
0.000173117
0.000161998
0.000148812
0.000150041
0.000172404
0.000153259
0.000148246
0.000147875
0.000149287
0.0878536
0.027717
0.000185033
0.000190905
0.000302926
0.000156057
0.000149905
0.000184007
0.000169024
0.000148498
0.000169647
0.000147924
0.0002257
0.000155539
0.000165458
0.000156641
0.000144205
0.0639381
0.00014998
0.0573895
0.000213604
0.000286779
0.0001605
0.000175688
0.000146729
0.000146876
0.000148161
0.000149955
0.000166928
0.000147368
0.000157919
0.000159585
0.000157126
0.000152252
0.000191461
0.0810078
0.000151349
0.000147302
0.000147666
0.000178495
0.00014831
0.000175273
0.000165636
0.000146975
0.000149667
0.000200873
0.000232325
0.000149666
0.00016218
0.046586
0.000146602
0.000154118
0.0491155
0.000158927
0.0396781
0.000148875
0.000155835
0.000177144
0.000208074
0.000148187
0.00015017
0.000167088
0.000167394
0.000163812
0.000297329
0.0390223
0.000155746
0.087435
0.000146912
0.086338
0.00014908
0.000167126
0.0440415
0.000177892
0.000176793
0.000148011
0.000170691
0.000152326
0.000158218
0.000167952
0.000147524
0.00014869
0.000184754
0.0826841
0.000179348
0.000162497
0.000151306
0.000148147
0.048144
0.000146638
0.000148593
0.000209396
0.000147233
0.000156261
0.0602424
0.0673708
0.000151518
0.000144105
0.000147489
0.000158653
0.0563106
0.000147572
0.000204619
0.000212775
0.000165889
0.000178323
0.000150123
0.000197581
0.000154354
0.000161103
0.0456596
0.000149432
0.000205547
0.000150591
0.0710413
0.00017093
0.000148004
0.000147798
0.00164793
0.000147805
0.000148332
0.048343
0.000230958
0.0418082
0.000148856
0.000156343
0.000381231
0.0547042
0.0139797
0.000261787
0.000148522
0.000156431
0.000149694
0.000182008
0.00020937
0.0562934
0.000149562
0.000191091
0.000166954
0.000194025
0.0562217
0.000147308
0.0760638
0.000198708
0.000157299
0.000148125
0.000175253
0.00015377
0.000149786
0.000161929
0.000153852
0.00016148
0.000172662
0.000146954
0.000161979
0.000161536
0.000160741
0.000153144
0.000148523
0.0447597
0.000199258
0.087946
0.000146697
0.000159384
0.000209199
0.000155961
0.000200616
0.0605965
0.0319589
0.00628471
0.000148041
0.000171359
0.000166275
0.0499614
0.000153568
0.000161768
0.000149779
0.000201153
0.000145346
0.000189871
0.0756436
0.00015354
0.000162219
0.000150657
0.0866926
0.000146734
0.000146857
0.000147394
0.00015226
0.000198776
0.000144119
0.000147095
0.000147349
0.000161861
0.0312781
0.000147059
0.00014694
0.000147051
0.000148267
0.000150593
0.0460911
0.000147426
0.000147811
0.000177109
0.000166239
0.000147587
0.000153072
0.000169238
0.0535066
0.000149502
0.000148596
0.000151732
0.000146657
0.000221646
0.000189143
0.0364174
0.000150751
0.0523275
0.000148401
0.000147765
0.000175909
0.000200346
0.067618
0.000146848
0.000176926
0.000151327
0.000160107
0.000146306
0.0840273
0.000147475
0.000177243
0.0542951
0.000147309
0.000178089
0.000149887
0.000150761
0.000161643
0.000179197
0.0859821
0.000172243
0.000147205
0.000146964
0.0657027
0.00014633
0.000152799
0.000166309
0.000148787
0.000148234
0.000147671
0.000146948
0.000211062
0.000314403
0.000149711
0.000168737
0.0144588
0.0456104
0.0252537
0.000196875
0.0745099
0.00014814
0.000148017
0.000146744
0.060387
0.0615782
0.000148356
0.000148216
0.000149445
0.000180484
0.0702841
0.04624
0.000158081
0.000148684
0.000145495
0.000148954
0.000149965
0.000205155
0.000146772
0.0444648
0.000146252
0.000146355
0.000147508
0.000244157
0.000165388
0.0209365
0.000161072
0.000152624
0.000148791
0.000197792
0.0112743
0.0491193
0.000194384
0.000148232
0.000147412
0.000194179
0.000199816
0.000184682
0.000159747
0.000146655
0.000159971
0.000146559
0.0386757
0.000169082
0.000209453
0.000178984
0.000145545
0.0001464
0.000146403
0.000152941
0.000147465
0.000307747
0.000163101
0.00017568
0.045583
0.000146462
0.000168003
0.0261703
0.000148825
0.000161172
0.000153587
0.000280092
0.00014981
0.000148242
0.0403862
0.0184514
0.0850318
0.000147175
0.000147195
0.052061
0.000162427
0.000147728
0.000148328
0.000170694
0.000154097
0.000146391
0.0476647
0.000228677
0.000178158
0.0335417
0.000146304
0.000156626
0.0453116
0.000147577
0.000148033
0.000146656
0.000100196
0.000151036
0.000148074
0.000184177
0.00660538
0.000182814
0.000169709
0.000147755
0.000149373
0.000189609
0.000171507
0.000151665
0.000149256
0.000146329
0.000149817
0.000193243
0.000162355
0.000196781
0.000156906
0.000208566
0.000144607
0.000155985
0.000146281
0.000188042
0.000147629
0.0551752
0.000149242
0.000146273
0.0507532
0.000147852
0.00019774
0.000158722
0.0001589
0.000199511
0.000147071
0.000146354
0.000153105
0.000147861
0.0365675
0.000209384
0.000148535
0.000208912
0.000232231
0.000169523
0.000150865
0.048799
0.000148583
0.000183923
0.000145605
0.0872099
0.0335336
0.000201359
0.080548
0.000147387
0.0259192
0.000147654
0.000147406
0.000162019
0.000182337
0.00016863
0.000167261
0.000150906
0.000159672
0.000147734
0.000156965
0.000260892
0.000166827
0.0524377
0.000193325
0.00358474
0.000147048
0.000176072
0.000210136
0.0452485
0.000149519
0.000187839
0.000171498
0.000168775
0.000148115
0.018307
0.000162049
0.000146571
0.0591207
0.00015929
0.000148821
5.83265e-05
0.0293381
0.000158163
0.000147983
0.000153124
0.000208443
0.0452243
0.00014714
0.000146985
0.000188136
0.000152756
0.0552697
0.000147703
0.0154312
0.000152762
0.0473547
0.000144653
0.00018885
0.0604421
0.0741286
0.0375851
0.0706501
0.000148464
0.086986
0.000147749
0.000189518
0.000151582
0.000147878
0.000189868
0.0596026
0.000204501
0.000148379
0.0547004
0.000147951
0.000189085
0.000148223
0.000149328
0.0643257
0.000154129
0.0456435
0.000148054
0.000147912
0.05801
0.000146914
0.00016103
0.000145507
0.000150894
0.000161137
0.000147221
0.000163681
0.000157596
0.000149261
0.000148265
0.0331858
0.000181961
0.000175231
0.000258454
0.000149442
0.000170896
0.00015571
0.00016556
0.0532577
0.00018848
0.000154364
0.000203809
0.000147194
0.000174416
0.000188178
0.000147826
0.000209649
0.000206578
0.00019442
0.000149857
0.000161213
0.000149845
0.024902
0.000183112
0.000148039
0.000147703
0.0560844
0.000160028
0.000212624
0.000160898
0.0803623
0.000154332
0.00016307
0.000166258
0.000147012
0.0503022
0.000187812
0.000146285
0.00018262
0.000205736
0.000168526
0.000177256
0.000239737
0.000222099
0.0873416
0.000166622
0.0196957
0.000149695
0.000146562
0.00560321
0.0634427
0.030602
0.000152662
0.000147164
0.00014837
0.000153533
0.0427744
0.00014966
0.000173353
0.029295
0.000212899
0.000220359
0.000145311
0.061027
0.000149612
0.000298019
0.00016802
0.000164021
0.000145404
0.000150577
0.000147116
0.00014725
0.00016503
0.0865275
0.000237741
0.000148849
0.000207473
0.0273673
0.00014746
0.000163557
0.000174599
0.000169322
0.000147435
0.000156332
0.000148
0.000144641
0.000147961
0.000161697
0.0304482
0.000171558
0.000156236
0.000202902
0.0490468
0.000149904
0.0832649
0.000148055
0.000148816
0.000149621
0.000169903
0.000260924
0.000235171
0.000197103
0.000147971
0.000165723
0.000222799
0.000148767
0.000148383
0.000176819
0.000147165
0.000148745
0.000156067
0.00029344
0.0505421
0.000149786
0.00025022
0.000174161
0.000217184
0.000153441
0.0499077
0.000123935
0.000153703
0.000169406
0.000242792
0.0001804
0.000147743
0.000168417
0.000146767
0.00014784
0.000151764
0.000149317
0.00018545
0.000149663
0.000157359
0.000147921
0.0786197
0.000147671
0.000214077
0.000276545
8.38103e-05
0.000144121
0.000148009
0.00018509
0.000160859
0.000171007
0.000158295
0.0582959
0.000147241
0.000186591
0.000148342
0.000146736
0.000232317
0.000166485
0.0200724
0.000147812
0.000147651
0.000173534
0.034647
0.000148056
0.000173236
0.069273
0.000147806
0.000147418
0.000160616
0.0834007
0.000148859
0.000148379
0.000187822
0.0556446
0.0255249
0.000147634
0.0278137
0.000149708
0.000174756
0.00541549
0.0114125
0.000147132
0.0623894
0.000145401
0.0347895
0.000282851
0.047074
0.000192109
0.000148256
0.000184706
0.000206442
0.0341189
0.000147808
0.000145542
0.000159968
0.000214216
0.000148999
0.000147511
0.000169923
0.000149468
0.000147774
0.000205083
0.0389276
0.000186645
0.000146742
0.0551732
0.000639228
0.000168534
0.000148218
0.0311896
0.000174269
0.000158065
0.000147968
0.000145555
0.000144151
0.000147749
0.000148339
0.0692415
0.0362736
0.000149227
0.000148801
0.000206218
0.000147669
0.000506647
0.00019384
0.00014751
0.000244936
0.000207914
0.000161863
0.000149707
0.0653
0.000151007
0.000147466
0.000148016
0.000156647
0.000161924
0.000147029
0.0288976
0.000146148
0.000148138
0.0442095
0.000201458
0.000207533
0.000168499
0.000194061
0.0639434
0.000153765
0.000162934
0.0297386
0.000177316
0.000146667
0.0725293
0.0544464
0.000151343
0.000149396
0.0685168
0.000166689
0.059546
0.000151704
0.000148806
0.000150101
0.000203392
0.000162138
0.000148788
0.00015069
0.0750389
0.000174046
0.000176196
0.000149353
0.000148914
0.0469475
0.000149661
0.000161785
0.0322874
0.0436829
0.000149007
0.000149091
0.0607824
0.000193755
0.0479441
0.0565379
0.000161374
0.000151835
0.000176355
0.00015827
0.000148658
0.000146045
0.000197629
0.000150376
0.0578573
0.07191
0.000166751
0.0546047
0.000203578
0.000178844
0.000158935
0.0545147
0.000161233
0.000213258
0.000245527
0.0258794
0.000244758
0.000156866
0.000156579
0.000167359
0.000148271
0.0509956
0.00015117
0.000152337
0.000221775
0.0541325
0.000192909
0.000152483
0.000287552
0.000168814
0.000171092
0.000193442
0.000166933
0.0866154
0.000147461
0.000185381
0.0871668
0.000231797
0.000174122
0.000145028
0.000162211
0.000172825
0.0277198
0.0261682
0.000148629
0.000176631
0.000149123
0.000209009
0.000146653
0.000147813
0.0619065
0.000178752
0.000148601
0.00014598
0.000145547
0.000149474
0.000164749
0.0578961
0.0498376
0.000148722
0.00014845
0.000148301
0.000145068
0.000204162
0.0507079
0.000165991
0.000206916
0.000205114
0.000164793
0.000212316
0.000148812
0.000295009
0.00100089
0.000191514
0.000149008
0.000169537
0.000185021
0.0646324
0.000148123
0.000146936
0.000147476
0.000148074
0.0444964
0.000148969
0.000156654
0.000154727
0.078971
0.00019656
0.000153618
0.000209048
0.000156139
0.000147934
0.000210342
0.051022
0.000146835
0.000145624
0.000144929
0.000145538
0.000168985
0.000180865
0.000149636
0.000149102
0.00014726
0.000188536
0.000204764
0.000147273
0.00015225
0.000183428
0.000148191
0.000169022
0.000145981
0.000160457
0.000148494
0.000147802
0.00016289
0.000159777
0.000151423
0.000148053
0.000146888
0.0381852
0.000148017
0.00014869
0.000148964
0.000148272
0.000158758
0.000160315
0.000191467
0.000148539
0.000160447
0.000177349
0.000146171
0.000148479
0.0690708
0.000173776
0.025373
0.000148746
0.0353019
0.0383561
0.000148004
0.000149486
0.0631512
0.000147783
0.0167736
0.000246367
0.0546859
0.000207851
0.00014775
0.0580963
0.000180407
0.000208798
0.000189008
0.000148687
0.00014749
0.0307221
0.000148082
0.0287851
0.000168397
0.000150203
0.000152488
0.00015188
0.000145801
0.000305328
0.0181867
0.0479055
0.000156178
0.0337806
0.000147282
0.000148823
0.000147489
0.000148641
0.000254835
0.00017311
0.000150078
0.000165979
0.000148019
0.000150928
0.0652333
0.000168243
0.0525043
0.000152699
0.000152508
0.0001478
0.000213564
0.000149195
0.000161747
0.031059
0.0479325
0.000147872
0.000147528
0.000152236
0.000147647
0.000172035
0.0573672
0.000149709
0.000147189
0.000161449
0.000146385
0.00107446
0.000148772
0.000150731
0.000148775
0.000202294
0.0575909
0.000155115
0.0380716
0.000183713
0.000188598
0.0189783
0.0313732
0.0535474
0.0332536
0.0151502
0.000149236
0.000147019
0.000153076
0.000174914
0.0536308
0.0242748
0.00015816
0.000180219
0.000145267
0.000147367
0.000147246
0.000170933
0.0374355
0.000149333
0.0450191
0.000148425
0.000148343
0.0525086
0.00014777
0.0864018
0.000146305
0.00018911
0.000153794
0.000173998
0.000147033
0.000149968
0.000148087
0.000148023
0.0145711
0.000356947
0.000148039
0.000148472
0.0582279
0.000166979
0.000163049
0.0301282
0.0611746
0.000157403
0.0001507
0.000209858
0.0577653
0.0305234
0.000164619
0.000147797
0.0845506
0.000146929
0.0664507
0.000151918
0.00024676
0.00014797
0.000188365
0.000146914
0.000148402
0.000171831
0.000207984
0.000196499
0.000151948
0.000146936
0.0523512
0.0494632
0.000146778
0.0512746
0.000150997
0.00014829
0.000148586
0.0625931
0.00014821
0.0639421
0.000147746
0.00018386
0.0467518
0.000146702
0.0231076
0.00014908
0.00020785
0.000205475
0.000148361
0.000149149
0.00456922
0.000150163
0.000204602
0.0339102
0.000207381
0.000147734
0.000147114
0.00017858
0.000152219
0.000150936
0.000149281
0.0442259
0.000152226
0.000158753
0.000154009
0.0282124
0.000154595
0.000147857
0.000146859
0.000162769
0.000149093
0.0309907
0.000160556
0.000227455
0.000149506
0.000183545
0.000241224
0.000147612
0.000147126
0.000164417
0.0555718
0.000147584
0.0782896
0.000194718
0.000156439
0.000167418
0.0642197
0.000148028
0.00016189
0.000155366
0.000155727
0.000148269
0.000149522
0.000166145
0.000178589
0.0632569
0.000151983
0.000146001
0.000218581
0.000147244
0.000196129
0.00017697
0.000202259
0.0538419
0.000158881
0.0547233
0.0528584
0.000150664
0.000147761
0.000145489
0.000153609
0.000178278
0.000193986
0.000148075
0.000177476
0.000147513
0.000174574
0.000150993
0.000147589
0.000188808
0.000172805
0.000147546
0.000146015
0.0487319
0.0594068
0.000155604
0.000146628
0.000159984
0.0203547
0.000147828
0.067528
0.000147642
0.000172762
0.000156325
0.000147828
0.000153678
0.000184156
0.000159173
0.0535752
0.000149092
0.000152085
0.000144157
0.000184635
0.000147808
0.000145891
0.058248
0.000147771
0.000203777
0.000176328
0.0187087
0.000156135
0.000291768
0.000243386
0.000162444
0.000153971
0.0332464
0.000207475
0.0238407
0.000127311
0.000158563
0.0567494
0.000147658
0.00015618
8.90583e-05
0.000146568
0.000166344
0.000148725
0.000257854
0.000146485
0.000176328
0.000159642
0.000207521
0.000151925
0.000153899
0.000181947
0.000155979
0.00019393
0.0672556
0.000222896
0.000147898
0.000183346
0.067513
0.000147828
0.00019408
0.000148683
0.000206602
0.000166717
0.000153006
0.000172007
0.000178226
0.000189851
0.00016139
0.000148512
0.0401767
0.0277223
0.000167682
0.000147211
0.0863845
0.000148266
0.0574111
0.000247534
0.0474172
0.000249563
0.000222446
0.0102787
0.000163324
0.000205975
0.000148631
0.000152413
0.000178095
0.00014673
0.0528892
0.0217035
0.000204124
0.0509066
0.000162195
0.000144221
0.000215303
0.016761
0.000147236
0.000172247
0.000171604
0.0711091
0.000148541
0.000203994
0.0573183
0.000225431
0.000207979
0.000145852
0.00014959
0.000144284
0.000153769
0.0750551
0.000361361
0.000223599
0.0152069
0.070235
0.000147783
0.000144964
0.000203267
0.0275964
0.0469509
0.000152007
0.000198496
0.000268954
0.000157471
0.000171331
0.000147112
0.0364205
0.000147496
0.000181193
0.000158094
0.000229012
0.000146908
0.0585247
0.00014701
0.000161356
0.000172862
0.000145995
0.000195922
0.000157437
0.0544016
0.0600997
0.000190033
0.0540654
0.000159199
0.000151462
0.000149036
0.000151067
0.000147759
0.058755
0.00016955
0.0001552
0.000149667
0.0589169
0.0448245
0.000144827
0.000157392
0.000147141
0.0469716
0.0577993
0.000175992
0.000148483
0.000148417
0.000148083
0.000154525
0.0435364
0.000149713
0.000198371
0.0599738
0.000147536
0.0139241
0.0693903
0.000153685
0.0349994
0.000147129
0.0201116
0.000164836
0.041484
0.000160843
0.0241026
0.000145896
0.000210567
0.000171141
0.00017805
0.000150138
0.000157034
0.000146625
0.000148539
0.041087
0.000213792
0.000152778
0.071204
0.0205226
0.000145709
0.0400344
0.000151891
0.00126468
0.0603984
0.000205801
0.000189128
0.000111421
0.0861899
0.0612132
0.00018127
0.000153578
0.0548717
0.0274174
0.0312551
0.000189799
0.000181995
0.000148548
0.000149684
0.0001489
0.000144276
0.000147828
0.0641679
0.000145806
0.000153779
0.000148848
0.000185969
0.000148567
0.000146055
0.000147991
0.000178164
0.000150529
0.00014902
0.00014873
0.000148217
0.000165492
0.000151746
0.000145799
0.0587616
0.000147652
0.000147118
0.000165493
0.000150305
0.000156145
0.000147633
0.000241192
0.000192616
0.000147675
0.000161216
0.000148027
0.000147284
0.0389181
0.000160857
0.000147745
0.0244163
0.000144597
0.00020955
0.000186131
0.00014733
0.000165076
0.000156147
0.000284521
0.000212041
0.000150404
0.00018382
0.000152037
0.000148248
0.000185164
0.0541564
0.000148298
0.000149986
0.000146956
0.000155838
0.000143942
0.00015598
0.000174118
0.0441907
0.000156117
0.000147452
0.0624334
0.000152291
0.0431228
0.000147645
0.000193916
0.00016249
0.000195174
0.000147668
0.000291312
0.0592652
0.000153346
0.0281323
0.000194687
0.000148254
0.0661221
0.000148779
0.000147768
0.000147733
0.000159431
0.000152194
0.0296043
0.000149201
0.000158709
0.0001528
0.0733745
0.000148298
0.000156159
0.000146724
0.000173527
0.000145404
0.000149101
0.000145793
0.00014882
0.000204702
0.000147251
0.0393748
0.0709385
0.000146998
0.00058411
0.00017776
0.000170983
0.0470324
0.0797598
0.0178125
0.000153556
0.0440392
0.000122957
0.00016838
0.000149751
0.000153728
0.000156203
0.00900773
0.000148039
0.000178515
0.00655711
0.000149293
0.0691606
0.000188849
0.0342421
0.000148166
0.000156186
0.000148044
0.000145502
0.000184135
0.0546779
0.000193085
0.000224814
0.000171926
0.000148029
0.00173745
0.000184154
0.000204918
0.000153805
0.000145436
0.0474665
0.054102
0.00014954
0.000149903
0.000148156
0.000147225
0.000148412
0.000153055
0.0523514
0.00015234
0.000147749
0.0720423
0.0339725
0.000147432
0.000153876
0.000146396
0.0402122
0.000146815
0.000147089
0.0625911
0.066456
0.000148122
0.000162311
0.0854788
0.000173486
0.000180155
0.000177254
0.000146615
0.0556028
0.00014829
0.000216916
0.0875539
0.00016187
0.000204196
0.000171964
0.000165193
0.000149917
0.000152248
0.000148181
0.000206632
0.000148229
0.000147699
0.000148645
0.000158427
0.000234198
0.0251506
0.000151922
0.000145431
0.000144867
0.000149342
0.06263
0.0238258
0.0289949
0.000169456
0.000152177
0.000146953
0.000149231
0.000156555
0.033698
0.000157829
0.000185467
0.0496977
0.000156883
0.000191684
0.000156174
0.000150885
0.000147371
0.000147805
0.000149718
0.000153684
0.000147585
0.000146952
0.00014927
0.075323
0.000187699
0.000147294
0.000170914
0.00014545
0.0177248
0.044319
0.000173248
0.0536056
0.0625249
0.00015504
0.0870485
0.000244296
0.000147433
0.0266255
0.0630645
0.000210769
0.000167826
0.000148287
0.000147385
0.000146604
0.000145443
0.000180906
0.000177106
0.000186648
0.000165431
0.000147106
0.0775055
0.0793489
0.000176243
0.000222364
0.000147818
0.000209865
0.000160873
0.044469
0.000212226
0.058566
0.000153837
0.000152043
0.000184929
0.000182303
0.000145531
0.0100092
0.078146
0.000178276
0.059566
0.000262201
5.32043e-05
0.0209578
0.000242134
0.000152662
0.00019921
0.00023032
0.000157917
0.0496497
0.000150122
0.000151919
0.0840931
0.000147439
0.000144466
0.000144401
0.000183414
0.000150632
0.000147504
0.0625753
0.000149416
0.0296577
0.0792106
0.000731908
0.000330651
0.000147884
0.00016605
0.000145396
0.000193958
0.000204755
0.000147717
0.000282733
0.000201244
0.000169892
0.000146051
0.00019871
0.000166289
0.000286852
0.000184065
0.000156344
0.000149536
0.000151387
0.0651886
0.000172454
0.000167874
0.000144146
0.000150723
0.000147937
0.000146947
0.0864784
0.000146998
0.000179926
0.000145553
0.0285048
0.000149778
0.000448557
0.000172437
0.0650622
0.000180383
0.0500753
0.000152605
0.000169434
0.000191183
0.000155306
0.000148928
0.000159213
0.0318784
0.00019626
0.000147403
0.000172539
0.0394616
0.000147582
0.000173023
0.000147685
0.0585752
0.0563313
0.000149837
0.000150707
0.000151205
0.0297591
0.000147657
0.0648596
0.065897
0.000208629
0.0604964
0.0315712
0.000149776
0.00014958
0.000147027
0.0361604
0.0001515
0.0218758
0.000147353
0.000182357
0.00014973
0.000190935
0.000150739
0.000234096
0.000197515
0.00018727
0.000210179
0.032708
0.0502367
0.000148407
0.000181672
0.0544735
0.000148998
0.000246281
0.000149943
0.000170436
0.000156136
0.00016471
0.000147458
0.0623701
0.000149711
0.0568371
0.000149244
0.0546145
0.000173488
0.000148295
0.000146648
0.000168864
0.000161879
0.000151887
0.000211195
0.000153277
0.000188334
0.0001895
0.000169228
0.000147399
0.000335392
0.000182891
0.05853
0.000209218
0.0001472
0.00407644
0.000242276
0.000200729
0.000148274
0.035849
0.000159439
0.000147866
0.0613971
0.0343903
0.000147876
0.000156166
0.000146732
0.000175631
0.000180841
0.000176156
0.0577438
0.0410696
0.000171637
0.000148392
0.000157905
0.000176769
0.00014735
0.000183803
0.000147435
0.000149456
0.000205766
0.000159004
0.000155073
0.000187563
0.000153748
0.000147336
0.000166488
0.000199007
0.00014737
0.000155882
0.000148673
0.000161382
0.000193766
0.0570823
0.0232278
0.000236059
0.000145411
0.0529051
0.000171906
0.000152546
0.000171684
0.000153712
0.000189052
0.000168317
0.0512559
0.000149904
0.000147909
0.000210079
0.0849575
0.0341682
0.000145425
0.000146221
0.000148413
0.000146567
0.007184
0.000203444
0.000150122
0.000149414
0.0246504
0.0562643
0.000279722
0.0701543
0.00014674
0.000169808
0.000168977
0.000167963
0.00019972
0.000147168
0.0391698
0.0001901
0.0250734
0.000146949
0.0613491
0.000277554
0.000149664
0.000176244
0.0305443
0.00014576
0.000149351
0.0495171
0.0483775
0.0550979
0.00015016
0.000150273
0.000149312
0.0542436
0.0636595
0.000173038
0.0559352
0.000148176
0.0315988
0.06837
0.000148503
0.0523106
0.00014985
0.000195941
0.000204817
0.0757819
0.000146828
0.000154128
0.000170743
0.069478
0.000152025
0.0634856
0.000167259
0.085855
0.000172485
0.000153906
0.00014729
0.000178779
0.000148362
0.000145708
0.000147059
0.000218348
0.000159673
0.00014981
0.0293275
0.000158033
0.0475263
0.00014722
0.000154624