/*--------------------------------*- C++ -*----------------------------------*\
| =========                 |                                                 |
| \\      /  F ield         | OpenFOAM: The Open Source CFD Toolbox           |
|  \\    /   O peration     | Version:  v2012                                 |
|   \\  /    A nd           | Website:  www.openfoam.com                      |
|    \\/     M anipulation  |                                                 |
\*---------------------------------------------------------------------------*/
FoamFile
{
    version     2.0;
    format      ascii;
    class       volScalarField;
    location    "100";
    object      nut;
}
// * * * * * * * * * * * * * * * * * * * * * * * * * * * * * * * * * * * * * //

dimensions      [0 2 -1 0 0 0 0];


internalField   nonuniform List<scalar> 
27915
(
0.00301115
0.000304359
0.00542827
0.0138646
0.000857458
0.00192644
0.0102255
0.000458066
0.00101528
0.00162326
0.000224876
0.00201435
0.000423836
0.0130138
0.0117139
0.000862242
0.009705
0.000560128
0.00756739
0.00113244
0.0127888
0.00418717
0.0107811
0.00281995
0.00582922
0.00585004
0.00583729
2.59943e-05
0.0140659
0.011945
0.00022496
0.00585671
0.00997053
0.00123484
0.0076536
0.00583772
0.00405732
0.000800857
7.83976e-05
0.00155596
0.00583063
0.000693793
0.00583244
0.000487607
0.000888937
0.00583367
0.00276444
0.00164659
0.00376734
0.00413428
0.00169114
0.000546477
0.00139667
0.00155975
0.00021447
0.00446696
0.0124147
0.00592138
0.00407043
0.0137612
0.00585643
0.00018453
0.000559304
0.00037323
0.00583629
0.00190518
0.00170748
0.000371133
0.0136813
0.000567683
0.000645815
0.012019
0.00583037
0.00584292
0.000507329
0.000285133
0.0015719
0.000586956
0.00035401
0.00190096
0.000691324
0.00153931
0.0058483
0.00455328
0.00386071
0.00583373
0.00371795
0.000674458
0.000169099
0.000536068
0.00584136
0.000572128
0.000850163
0.000244029
0.000714606
0.00160092
0.00258516
0.00204539
0.00584048
0.0104892
0.00583475
0.0058341
0.00606251
0.000699446
0.0058308
0.00424887
0.00583728
0.000204875
0.000151468
0.00152251
0.00583353
0.00119564
0.000166646
0.0135484
0.00197397
0.00094306
0.0100452
0.00584352
0.000973898
0.00583336
0.000429822
0.000979701
0.000166345
0.000604846
0.00179828
0.00583664
0.00109918
0.0125939
0.0017558
0.000979017
0.00148249
0.00583225
0.00583391
0.00522661
0.00395582
0.00189354
0.00583051
0.00584331
0.000440604
0.0058331
0.0143148
0.0140512
0.00269324
0.0112974
0.000201056
0.00593879
0.00182331
0.0122616
0.000441968
0.00589128
0.00587851
0.000542709
0.00129885
0.0108565
0.000527146
0.000532798
0.00516708
0.00448434
0.000663824
0.00275888
6.96648e-05
0.000468375
0.00155888
0.00367209
0.00273349
0.00199028
0.000996139
0.00035169
0.00481669
0.000293802
0.0098832
0.00430049
0.0102509
0.00583143
0.00583644
0.00122581
0.00148275
0.00289358
0.00189233
0.0002091
0.00450379
0.00169775
0.00583287
0.00120921
0.0132255
0.000955943
0.000650868
0.00583124
0.00488423
0.00047975
0.0026738
0.000833627
0.00583132
0.00583195
0.00583049
0.00535245
0.00207087
0.00120917
0.00167438
0.0109564
0.000173814
0.000115936
0.00120705
0.000200758
0.00289228
0.00175506
0.0136146
0.000808311
0.00252164
0.000845111
0.0143716
0.00325772
0.0106345
0.00128107
0.00163026
0.00583455
0.00119331
0.00973431
0.000790034
0.00167771
0.0122447
0.000892105
0.000348744
0.00583343
0.00051595
0.000796546
0.000399412
0.00239382
0.000190093
0.00435271
0.0107858
0.00583288
0.00698525
0.000682252
0.00419517
0.00262627
0.00115767
0.00194012
0.000426191
0.00583
0.0058346
0.0106721
0.000363319
0.000864844
0.00583325
0.00062758
0.00101333
0.00115421
0.000425798
0.00128795
0.00583304
0.00196486
0.00133123
0.00583431
0.000709911
0.000813184
0.00190184
0.00193144
0.000459444
0.014182
0.0107607
0.00184455
0.00583026
0.00585888
0.000750011
0.00130231
0.00583469
0.00583348
0.000719031
0.0029407
0.00513332
0.0058323
0.00307033
0.000544673
0.00116274
0.0145575
0.00256907
0.0126453
0.013624
0.0145424
0.000902595
0.0113353
0.000867865
0.00556312
0.000446577
0.000880964
0.000418942
0.00119535
0.000376595
0.0104192
0.00131425
0.000715957
0.00418571
0.000226007
0.00207042
0.00582908
0.00267183
0.0131891
0.000345406
0.00458399
0.000903398
0.00454018
0.000235438
0.0058324
0.00135037
0.0139313
0.00583426
0.000229538
0.00584274
0.00123175
0.00038158
0.00374177
0.0142491
0.00109541
0.0139883
0.00582936
0.00587811
0.00583236
0.000456236
0.000145315
0.00407179
0.00583195
0.00181655
0.00175426
0.000773902
0.00061156
0.00583186
0.000366754
0.000615954
0.000899804
0.00366981
0.0145346
0.000418194
0.00724234
0.014488
0.000999093
0.000490848
0.000914553
0.000215119
0.000979449
0.000709024
0.00157186
0.000427557
0.000145483
0.000168027
0.0113597
0.00401473
0.000129065
8.08989e-05
0.00251828
0.00041618
0.0141013
0.00117136
0.00115957
0.0135217
0.000178639
0.000653913
0.0049713
0.00610487
0.00132362
0.0129729
0.0051039
0.00583527
0.000467031
0.000436373
0.00583577
0.000260177
7.74882e-05
0.000372018
0.000710726
0.000597184
0.000929472
0.000899574
0.000240392
0.000665077
0.00129741
0.00376311
0.00294408
0.0132521
0.000616771
0.0093694
0.00185914
0.000973789
0.000405319
0.00583358
0.000144154
0.00169323
0.000958715
0.000591811
0.000373028
0.00488207
0.00131468
0.000141282
0.00075139
0.00385564
0.00148874
0.000563072
0.000982072
0.00190235
0.00118177
0.0142662
0.0010332
0.00583321
0.0058363
0.0141044
0.00217293
0.000188129
0.00583325
0.000996046
0.000544318
0.00583166
0.0018644
0.00583587
0.00145753
0.00195051
0.000350713
0.00583147
0.000362303
0.000430781
0.00583007
0.0141933
0.000297571
0.000692159
0.0145366
0.000274769
3.67059e-05
0.000662013
0.0046578
0.00583764
0.00117435
0.000494435
0.00110235
0.000422147
0.000334155
0.0137253
0.000422513
0.00583343
0.00438542
0.00583151
0.000275207
0.00583468
0.00583245
0.00027176
0.000871761
0.00583134
0.000485054
0.00152047
0.0128233
0.000623066
0.0058385
0.0025408
0.00201513
0.0058331
0.00716944
0.00583414
0.00131547
0.000791961
0.00584459
0.000832956
0.0138798
0.0132932
0.00582995
0.000804647
0.00185893
0.00197737
0.00196642
0.000594249
0.0141472
0.00260937
0.000794023
0.00102203
0.00582041
0.0133879
0.00589126
0.00583645
0.000549532
0.000313236
0.0144771
0.00110294
0.00100026
0.00144198
0.000309568
0.0145185
0.0140951
0.0028803
0.00586013
0.00146083
0.00150421
0.00104547
0.0007832
0.00584632
0.00197621
0.000435372
0.00199906
0.000702902
0.0012816
0.00583646
0.00185916
0.000609049
0.000412721
0.00147166
0.00408296
0.000389627
0.0133565
0.0033718
0.000942503
0.000104138
0.00583553
0.00173034
0.00381031
0.00584616
0.00421777
9.54539e-05
0.0058323
0.0129397
0.0121643
0.00022495
0.00149163
0.00916244
0.000901242
0.000145696
0.00583149
0.00583519
0.000928555
0.00166195
0.000963371
0.0013774
0.00168654
0.00294152
0.00168041
0.000807833
0.00449601
0.00583228
0.00583385
0.00138726
0.00107638
0.0059266
0.00809915
0.000407222
0.000143119
0.00583488
0.00180007
0.00583199
0.000137104
0.00585818
0.00584505
0.000411222
0.00463949
0.00028758
0.0058309
0.0053944
0.012994
0.000828474
0.00583292
0.0139425
0.00089289
0.00583638
0.00450912
0.00013788
0.00142148
0.000676831
0.00583416
0.000109335
0.00187071
0.000803888
0.000909579
0.00583389
0.000899707
0.0144215
0.00233136
0.00584057
0.0058359
0.00583697
0.00201573
0.000518619
0.00583544
0.014169
0.0103877
0.000171168
0.00372153
0.00111236
0.000915558
0.00583757
0.00583971
0.001135
0.000209231
0.00193299
0.00176444
0.00748345
0.000443733
0.000153944
0.00387725
0.00583016
0.0033062
0.00564942
6.26981e-05
0.000106335
0.0120903
0.00771526
0.0018175
0.00397888
0.00445543
0.00702432
0.00182859
0.000932269
0.000679612
0.00224732
0.00406174
0.000906262
0.000370208
0.0058315
0.0043249
0.000925406
0.000309784
0.000902839
0.0109899
0.000330468
0.00456428
0.00583051
0.000678325
0.00172683
0.00301228
0.0118575
0.000905982
0.00583238
0.000534539
0.00128709
0.00439951
0.00106938
0.00186908
0.00583606
0.000988058
0.000622269
0.00601535
0.00194383
0.000717964
0.00953162
0.000402174
0.000292132
0.00583628
0.00583553
0.00582988
0.000218402
0.00128715
0.000257551
0.0102137
0.00079194
0.00285158
0.00588183
0.000106662
0.00584661
0.00183602
0.00148739
0.00381389
0.000324342
0.00116279
0.00292149
0.00234028
0.00220541
0.000364225
0.00255095
0.00583248
0.00127991
0.00205775
0.000529292
0.00584072
0.00366754
0.000883101
0.00508726
0.00413148
0.00433185
0.0058439
0.00116538
0.00582734
0.0058815
0.001274
0.00058737
0.00143775
0.00829617
0.00583057
0.000696221
0.0139254
0.00854606
0.000208401
0.00583137
0.000300798
0.00194822
0.00583317
0.00171961
0.00144704
0.00105845
0.00583425
0.00417725
0.00228397
0.00947513
0.00397758
0.00100968
0.00036742
0.000180042
0.000523639
0.00583629
0.00099287
0.000115785
0.00583348
0.000278455
0.00533581
0.000810052
0.000461418
0.000125781
0.000662895
0.00582695
0.00412187
0.0016212
0.0136976
0.000567788
0.000322595
0.000949714
0.000149058
0.00588154
0.00583007
0.00583389
0.00583645
0.0019764
0.00584074
0.00192287
0.00155617
0.0019139
0.000795993
0.00098075
0.0137952
0.00262583
0.00583046
0.00420361
0.00151092
0.00583404
0.000423478
0.00159234
0.00583121
0.00583555
0.00128847
0.00080238
0.00199251
0.001877
0.0111582
0.00588221
0.00251939
0.0135435
0.00135599
0.00631137
0.00583334
0.00124764
0.00159038
0.000343858
0.00583386
0.00125771
0.000413929
0.000303872
0.000201669
0.000305435
0.00799216
0.00124966
0.00826824
0.00582881
0.00895272
0.00292677
0.000395238
0.0107367
0.000432352
0.00155429
0.00555029
0.0011634
0.000864375
0.00220092
0.000195145
0.00583134
0.00257242
0.00103705
0.00459708
0.00022608
0.000963043
0.00264686
0.00323538
0.0106488
0.00587353
0.00583337
0.000359969
0.00583018
0.00224653
0.0115877
0.0143308
0.00193368
0.00582673
0.00583174
0.00137878
0.0109028
0.00583029
0.000292195
0.000221294
0.00158467
0.00104433
0.00143396
0.00112353
0.00598032
0.000269403
0.00914085
0.0020602
0.000380327
0.00198045
0.0142634
0.00107985
0.00572452
0.00583346
0.000555729
0.00584035
0.00306395
0.0135083
0.000806668
0.0105578
0.0058335
0.000648367
0.000335539
0.0116683
0.000813142
0.000368392
0.00583347
0.000763814
0.00192284
0.00015274
0.000408368
0.00798017
0.00168362
0.00196143
0.000281275
0.000414445
0.0115491
0.00485462
0.014573
0.00136646
0.000102259
0.00583537
0.000309811
0.000647157
0.00583601
0.00124984
0.000627648
0.00182866
0.00162051
0.00583588
0.000169739
0.00185909
0.000429846
0.000961502
0.0025423
0.0127977
0.00134109
0.00979564
0.0058477
0.00139979
0.000820206
0.000418927
0.00128432
0.0143547
0.00674365
0.000374514
0.00583241
0.000369107
0.000144292
0.0136843
0.000630164
0.00105085
0.00210885
0.00127079
0.00584175
0.00180425
0.0145382
0.000631502
0.00101073
0.00115779
0.00898361
0.00584703
0.00583274
0.00551608
0.00190051
0.00112347
0.00582649
0.00583129
0.00583983
0.000170539
0.00594367
0.00583326
0.00583882
0.00583352
0.00355426
0.00198136
0.0118541
0.00493259
0.00449809
0.00106429
0.00160782
0.00583136
0.000629716
0.000286294
0.00976782
0.00209979
0.00264451
0.00135756
0.00584636
0.000918328
0.000619965
0.00634845
0.00111515
0.0140492
0.00253486
0.00583739
0.00146968
0.000280451
0.0140667
0.00583237
0.000928254
0.002045
0.00101894
0.00588338
0.00943591
0.00583105
0.00107751
0.0142704
0.00584078
0.00141014
0.00138696
0.00175657
0.00185969
0.00151183
0.00989615
0.00165431
0.00565959
0.00583574
0.0142186
0.00583769
0.000998714
0.000158695
0.00583323
0.00359539
0.00393158
0.0058382
0.000912909
0.000224352
0.00220331
0.000109493
0.00310563
0.0130048
0.0046749
0.00132644
0.0145585
0.00350645
0.00583806
0.00588217
0.0108805
0.0143172
0.00583384
0.00350838
0.00160226
0.000155093
0.0142879
0.0130267
0.000309546
0.0058334
0.00583118
0.00583368
0.0014053
0.00118338
0.00584745
0.0127592
0.0058549
0.005851
0.00583146
0.000551556
0.00013897
0.00506424
0.000292233
0.000715904
0.00213544
0.00114066
0.00250678
0.0135826
0.000457324
0.00583386
0.00584142
0.000272115
0.00139034
4.17449e-05
0.000248849
0.00588148
0.000602944
0.00585169
0.0114848
0.00100799
0.00114295
0.000153116
0.0058517
0.00585013
0.00585069
0.00104764
0.0058389
0.000228893
0.000312389
0.00141838
0.0128061
0.00582987
0.000195337
0.00351458
0.00583332
0.000409459
0.000607979
0.00018896
0.00583609
0.00387533
0.00552433
0.00448838
0.00699511
0.00583014
0.00528068
0.0103527
0.00199203
0.00385433
0.0059065
0.000351978
0.000860362
0.00583741
0.0132338
0.000180977
0.00147515
0.00446779
0.00586518
0.000596664
0.0101493
0.00583878
0.00583754
0.00588164
0.000246327
0.00179428
0.00583303
0.0013784
0.00147319
0.000394125
0.000892095
0.00471888
0.00583489
0.000629284
0.00145212
0.00155807
0.00264435
0.00583814
0.00583612
0.00177068
0.00198124
0.000311619
0.00203433
0.000346399
0.00584208
0.000456122
0.00583521
0.000202795
0.00486622
0.0125628
0.00230934
0.005841
0.0100404
0.00443616
0.0014488
0.00193168
0.000643116
0.00107622
0.00583094
0.00585059
0.000889713
0.00457483
0.00874947
0.000949825
0.00264455
0.000882033
0.000801939
0.00090516
0.0059458
0.00912338
0.00583284
0.00140743
0.00586786
0.00818181
0.00700597
0.000281445
0.0138304
0.00583048
0.00455611
0.00431917
0.00461783
0.000379663
0.00039345
0.000914601
0.00027999
0.00181541
0.000873902
0.0058307
0.000686603
0.000173368
0.000188466
0.0139765
0.00176556
0.000234065
0.00583098
0.00141482
0.00103561
0.0129223
0.00219529
0.00180717
0.000533273
0.0014689
0.00583144
0.00518131
0.000643144
0.00582992
0.0129683
0.000894185
0.00583343
8.26631e-05
0.00390408
0.000730547
0.00470858
0.000986112
0.000852104
0.012909
0.00525391
0.00583212
0.00177237
0.00119795
0.0125161
0.00583066
0.00343726
0.0012492
0.0123949
0.00584594
0.00146281
0.0119489
0.0145482
0.00798421
0.014491
0.00583322
0.0104696
0.00432393
0.000632569
0.00208551
0.00583068
0.00172002
0.0136198
0.00109028
0.00281524
0.0122946
0.00583327
0.00136957
0.00583478
0.0026776
0.0134521
0.00149941
0.0109779
0.00550207
0.0058323
0.0134747
0.00584801
0.000256665
0.00586601
0.00215058
0.00048893
0.00511443
0.00192047
0.000303032
0.00583462
0.00367084
0.00617881
0.000384093
0.000594201
2.53616e-05
0.00215697
0.00126097
0.00043513
0.000150027
0.0126087
3.8128e-05
0.00150135
0.00111302
0.00510363
4.92773e-05
0.000340624
0.00583246
0.00111971
0.00122018
0.000471488
0.00583624
0.000320223
0.00145247
0.00367407
0.000397765
0.00584375
0.00477811
0.0116255
0.00051415
0.000580796
0.000200863
0.0140206
0.00254912
0.000330826
0.000868415
0.00584696
0.00810465
0.000176519
0.00588244
0.000394654
0.00123996
8.42627e-05
0.000426779
0.000713811
0.000483759
0.00882905
0.000508634
0.0021949
0.00583566
0.00585261
0.00105972
0.013988
0.00549322
0.000696108
0.00583492
0.0058338
0.000588604
0.00672814
0.00583568
0.00064353
0.006017
0.000599704
0.000171692
0.00583767
0.0137999
0.00583556
0.000341227
0.000883489
0.00130035
0.00586523
0.00354858
0.00583422
0.000392535
0.000866811
0.0103239
0.000727276
0.00208652
0.000558336
0.00505587
0.00584139
0.00122087
0.000127364
0.00104809
0.00583168
0.000470412
0.00583236
0.00584217
0.00357537
0.00181095
0.00547157
0.000183851
0.000513634
3.90529e-05
0.0100008
0.00583632
0.00901104
0.00583375
0.00583342
0.00164833
0.000378972
0.00041832
0.000220829
0.00160037
0.00583092
0.000144565
0.00049181
0.00583309
0.00583387
0.000305293
0.00583437
0.00583279
0.000429606
0.00031531
0.0124921
0.00158359
0.000562184
4.97342e-05
0.000610337
0.000945864
0.0109709
0.000157711
0.000715642
0.00147907
0.000751982
6.59737e-05
0.00583229
0.000948565
0.00582986
0.00381537
0.00103218
0.00266756
0.000295383
0.00583558
0.000338893
0.00583403
0.0143503
0.00584158
0.000881911
0.000372876
0.000231105
0.00582678
0.00583848
0.000190589
0.00167445
0.00122891
0.000339283
0.0131178
0.0057128
4.28177e-05
0.00312374
0.00583005
0.000164144
0.000199861
0.00430948
0.0037035
0.00583641
0.000396684
0.00691204
0.0051782
0.000633414
0.0114793
0.00459073
0.00550277
0.000500793
0.00814234
0.00583366
0.00289319
0.000351381
0.0141672
0.00526888
0.00583191
0.00617731
0.00583571
0.000405265
0.000995298
0.00144868
0.00583003
0.0139453
0.00584228
0.0079024
0.000325684
0.0105117
0.000251655
0.00340216
6.0405e-05
0.00102584
0.00810528
0.00583965
0.00586513
0.000230625
0.000874043
0.00333618
0.00431051
0.000375658
0.00583499
0.00584153
0.000417527
0.00791463
4.15587e-05
0.00583962
0.0143298
0.000400605
0.000386842
0.00583446
0.00451531
0.00057218
0.00191824
0.00433165
0.00583074
0.00582724
0.00583757
0.00583343
0.0105965
0.00846478
0.00583449
0.00583315
0.000243841
0.00402434
0.000221221
0.000510933
0.00475812
0.000706701
0.000103107
0.0018598
0.0058357
0.0143024
0.0010427
0.00584192
0.00583099
0.00173461
0.0017283
0.0058636
0.00682781
0.00584146
0.00325425
0.0127161
0.00131347
0.000997316
0.000384941
0.00031025
0.0136465
0.000683845
0.00120867
0.00638716
0.0016578
0.00582984
0.0105883
0.0125251
0.00148982
0.00172735
0.00854272
0.000511867
0.0139929
0.00210037
0.00583358
0.00205566
0.00118443
0.000661468
0.00227079
0.00118584
0.0145774
5.83321e-05
0.000729235
0.00583486
0.00583355
0.0114209
0.00583556
0.00181284
0.00663908
0.00930592
0.00183156
0.00583403
0.0137123
0.000410194
0.0133677
0.0126233
0.000477362
0.000955958
0.00149997
0.00195383
0.00583312
0.00582848
0.000276937
0.00356722
0.0123549
0.00931635
0.000601402
0.0130511
0.00112272
0.000477151
0.000357362
0.0094728
0.000791821
0.00039721
0.000494506
0.000683697
0.000702793
0.00171988
0.001217
0.000683127
0.00346888
0.0103114
0.00155608
0.000721277
0.000494233
0.00813863
0.00179985
0.00100264
0.000351813
8.12454e-05
0.000986521
0.00176038
0.000145292
0.00743966
0.00583849
0.000300694
0.0097227
0.000743657
0.000401634
0.00583251
0.000248626
0.000728082
0.00677177
0.00336961
0.00583305
0.000139167
0.00197111
0.000669601
0.00582999
0.00583243
0.0140613
0.00032472
0.00583341
0.00583467
0.00583107
0.00583494
0.000649377
0.0123007
0.00913613
0.0046372
0.00583343
0.00299686
0.00583329
0.00110129
0.0137639
0.000138025
0.000234806
0.000402126
0.00152471
4.46778e-05
0.00583329
0.000298611
0.000248073
0.000252187
0.00315501
0.000548823
0.000245725
0.0142474
0.00583244
0.00584616
0.00584096
0.00583372
0.0127574
0.0021814
0.00119454
0.00230523
0.0144345
0.000314512
0.000626567
3.70281e-05
0.000447024
0.00369343
0.00103057
0.00908232
0.00588286
0.00585892
0.00583231
0.00583218
0.00107059
0.000482133
0.00320551
0.00271009
0.00591194
0.0019715
0.000351605
0.00591176
0.00207903
0.00135294
0.00583458
0.00147307
0.00582847
0.000474178
0.00583347
0.00583371
0.00127558
0.000894736
0.00259882
0.00583302
0.00584475
0.00937032
0.00542858
0.00212654
0.00437704
0.00583267
0.000377129
0.00209485
0.0012282
0.00583291
0.00161056
0.00143708
0.00584246
0.00583345
0.014468
0.000639024
0.00305758
0.00583274
0.00731048
0.00154976
0.00583484
0.00233711
0.0141633
0.00583444
0.00422853
0.000703172
0.00849681
0.00021714
0.00393526
0.0105296
0.000579405
0.000396305
0.00078531
0.0059044
0.00419051
0.00660016
0.00385823
0.00512235
0.000195985
0.00397702
0.00071325
0.0015059
0.00586163
0.000298333
0.00463225
0.0133196
0.000473335
0.0058917
0.00496249
0.00216687
0.00518889
0.00583332
0.000523608
0.000569469
0.00136939
0.000136141
0.00583469
0.00104714
0.014067
0.000117175
0.0139813
0.000686228
0.000723039
0.00375252
0.000571073
0.00583428
0.00047387
0.00634154
0.0132635
0.00583065
0.00444344
0.000811428
0.00583179
0.00164609
0.011921
0.00583571
0.0058435
0.000499959
0.00583795
0.000536226
0.00218744
0.00127694
0.00583316
0.00124737
0.0124651
0.000479498
0.00133769
0.00159369
0.00191339
0.00475305
0.00546823
0.00863539
0.00614787
0.00394594
0.00583453
0.00582892
0.000651599
0.00115542
0.00868389
0.00465128
0.00600305
0.000595512
0.00584319
0.00561175
0.00515353
0.000393492
0.00835511
0.00583477
0.0128577
0.00429393
0.00280705
0.0120378
0.00423427
0.0105103
0.0058644
0.000211181
0.000870053
6.47587e-05
0.00583176
0.00210714
0.00583121
0.00583107
0.00329688
0.000293381
0.00527349
0.00583264
0.0128871
0.000157173
0.000667249
0.00598116
0.0130241
0.000665297
0.00111902
0.000251761
0.00812783
0.00806685
0.0015961
0.00583666
0.00770073
0.00583697
0.0137136
0.00170375
0.000303903
0.00338214
0.000569751
0.00584389
0.00295123
0.00162969
0.000974005
0.000272904
0.00154704
0.00583774
0.0139892
0.0115307
0.00583252
0.0137764
0.00182944
0.0032396
0.00244504
0.0140611
0.00407103
0.0140427
0.00583748
0.000319174
0.00952757
0.00584051
0.0046163
0.00317327
0.00092854
0.000420142
0.00583338
0.00583423
0.000449531
0.00406915
0.000981439
0.00480837
0.000686441
0.00583182
0.00535711
0.000232137
0.000836933
0.00170271
0.00583467
0.0127189
0.00105621
0.000316987
0.00183108
0.00506832
0.00228711
0.00338653
0.00584543
0.000201909
0.00307188
0.00469931
0.000980185
0.000797787
0.00201186
0.00103737
0.000510261
0.00494094
0.00584606
0.000648112
0.0128827
0.00584212
0.0144889
0.000390333
0.000849794
0.00100325
0.0105567
0.00529363
0.000729852
0.00159083
0.00156647
0.00583442
0.00583513
0.000128495
0.000519985
0.0141382
0.00177828
0.00047915
0.000432161
0.00590258
0.000210158
0.00105755
0.00125469
0.012672
0.000354805
0.0139045
0.0101682
0.00220045
0.00461707
0.00583152
0.000634495
0.000490549
0.00172516
0.00464222
0.00157062
0.0058302
0.00114793
0.00210406
0.00584279
0.000714422
0.000393464
0.00496182
0.00583385
0.0108358
0.0129073
0.000192296
0.00587252
0.000923832
0.00334796
0.00346853
0.0140343
0.00445339
0.000129721
0.000463504
0.00389411
0.000639243
0.00138706
0.000223583
0.0120725
0.00583392
0.000907464
0.00583643
0.00041964
0.0058358
0.00586311
0.0105011
0.00468722
0.000101478
0.00157676
0.00408322
0.00238556
0.00029585
0.000506747
0.000972424
0.00208512
0.00662864
0.00103134
0.00443295
0.000292098
0.000702817
0.0129367
0.00583322
0.000905597
0.000139675
0.00582955
0.00170823
0.00583329
0.000139946
0.00582991
0.000430987
0.000223052
0.000985785
0.00152246
0.00184791
0.00155649
0.00109911
0.000316984
0.0117715
0.000476291
0.00583538
0.000149654
0.0142912
0.00583072
0.00171553
0.00583343
0.000801987
0.000132732
0.00173409
0.000105397
9.95395e-05
0.000223686
0.000556341
0.00583271
0.0100111
0.00466573
0.000122417
0.00583373
0.0080882
0.00288867
0.0138021
2.77054e-05
0.0133467
0.000569492
0.00048011
0.00153149
0.00132632
0.000387059
0.00471011
0.00270891
0.00023179
0.00584786
0.0139173
0.00319906
0.00126852
0.0138564
0.00192996
0.00583713
0.000870857
0.00298182
0.00583421
0.00164736
0.00132306
0.0145076
0.00583308
0.00117469
0.0143662
0.00080697
0.000221355
0.00585341
0.00167801
0.00583092
0.000726128
0.0144766
0.000241645
0.000816849
0.00290325
0.0142431
0.0046272
0.00583281
0.00032306
0.00435219
0.00983074
0.000791964
0.00138448
0.000335094
0.00195584
0.00154422
0.00583612
0.00772608
0.00583091
0.000616325
0.000286696
0.000202846
0.00590496
0.0143924
0.00583133
0.000742298
0.000568236
0.00582968
0.000381494
0.000706123
0.0142228
0.0128593
0.0020335
0.0141561
0.000231253
0.00595517
0.00583378
0.00155553
0.00583043
0.0135508
0.000991553
0.000676263
0.00583561
0.00784712
0.0112722
0.00583207
0.000876604
0.00584707
0.0120288
0.00975959
0.001387
0.00583325
0.00263172
0.00583236
0.00254178
0.0102394
0.00583574
0.00140271
0.0136418
0.00583891
0.00319027
0.0135626
0.000725398
0.00663298
0.00584485
0.00368084
0.000102495
0.00892684
0.00104577
0.00424814
0.00583373
0.000275602
0.00117085
6.76721e-05
0.00351363
0.000694703
0.00582951
0.00583342
0.0120117
0.00096754
0.00178642
0.014456
0.00368735
0.0058612
0.0098741
0.000865248
0.000626592
0.011282
0.0010476
0.00143533
0.000147261
0.0104919
0.0139578
0.000384233
0.000689943
0.0130789
0.00560955
0.00816041
0.00194777
0.000608511
0.00583323
0.00583575
0.00252596
0.00583594
0.00583606
0.0108926
0.00585288
0.000660683
0.00209093
3.39016e-05
0.00583313
0.00583316
0.00583389
0.00160451
0.00188132
0.00279918
0.00228381
0.00583263
0.00149904
0.000929211
0.00586452
0.0142597
0.00474398
0.00584728
0.000378785
0.00354068
0.000770976
0.00411294
0.000736442
0.00181108
0.00583702
0.00030749
0.00443716
0.00583846
0.00775884
0.000208536
0.00480467
0.00359332
0.00584533
0.000885072
0.000197621
0.0058407
0.00011253
0.00118001
0.000368844
0.000650206
0.00150162
0.00115431
0.00132706
0.00583454
0.000424141
0.0123123
0.00451753
0.00136349
0.00583972
0.000423066
0.00583549
0.000615677
0.000410312
0.0127088
0.000438951
0.00583142
0.0139126
0.000859147
0.00915147
0.00480308
0.000279023
0.000528043
0.000445389
0.00468578
0.000298335
0.0116135
0.0028771
0.00601359
0.000451251
0.00583212
0.00352828
0.00583324
0.00583667
0.00566374
0.000618442
0.00134192
0.00700594
0.00583414
0.000343974
0.000958055
0.00697461
0.00583419
0.00051511
0.00590158
0.000391449
0.00586801
0.00583411
0.00583338
0.00583334
0.00108876
0.00583034
0.00838434
0.00374347
0.00583112
0.00020238
0.000148135
0.000196908
0.00451547
0.0143547
0.00445339
0.000194504
0.0104594
0.00020191
0.000218382
0.00163686
0.000654431
0.000489697
0.00250043
0.00313021
0.00147664
0.00164558
0.00224181
0.0116046
0.00187275
0.00596588
0.0033161
0.0016667
0.0058372
0.00586709
0.00102969
0.00915631
0.00180318
0.000164931
0.000211866
0.00583153
0.000364972
0.00145468
0.00125455
0.000725733
0.00583931
0.0133533
0.00869067
0.00235507
0.00132048
0.00583467
0.00583342
0.00583368
0.00290981
0.0139346
0.00118947
0.00390567
0.014351
0.00934592
0.00431083
0.00148464
0.00583474
0.0089265
0.00582875
0.00583587
0.0142982
0.0138443
0.00583436
0.00167169
0.00778601
0.00170566
0.000485435
0.00148824
0.00584598
0.0135267
0.0058342
0.00035151
0.0109025
0.000277113
0.000353869
0.000110691
0.000397549
0.00583632
0.00174823
0.00379691
0.000726048
0.00302209
0.00388613
0.00233713
0.000659447
0.0007934
0.00455378
0.000890848
0.005832
0.00583254
0.00583473
0.0101045
0.00451727
0.00423576
0.000194866
0.000968678
0.00584512
0.00230975
0.00126007
0.00604508
0.00197403
0.000424777
0.0135968
0.0001992
0.000240065
0.000712671
0.00107501
0.00470337
0.00583917
0.00583585
0.000619802
0.00583179
0.0058423
0.00221029
0.0118464
0.000514025
0.0058464
0.000414425
0.00585532
0.00392781
0.0124496
0.00183891
0.0141992
0.0137933
0.00211681
0.00825033
0.000535562
0.00583795
0.00644623
0.0140421
0.000894228
0.000719147
0.00583215
0.00584069
0.00588951
0.000399808
0.0010375
0.000563167
0.000217397
0.000821618
0.00583451
0.0142444
0.0143896
0.00114059
0.000477451
0.00583343
0.000573494
0.000960151
0.0112115
0.00100355
0.0126483
0.000647892
0.0014434
0.000411867
0.000315105
0.00585752
0.00218512
0.0145193
0.000333235
0.0141935
0.000212532
6.28226e-05
0.0051329
0.000525186
0.00263848
0.0011518
0.000784881
0.000351001
0.00818097
0.00592854
0.000802802
0.0103657
0.00583851
0.00584524
0.00584445
0.00145552
0.00120192
0.00583105
0.0143044
0.00583492
0.0050863
0.0144953
0.000203073
0.000258339
0.00583319
0.000523622
0.00584057
0.00118354
0.000379905
0.00583184
0.000252593
0.000337921
0.00092752
0.00583364
0.000297292
0.000851115
0.000390047
0.000873705
0.000507891
0.00228717
0.00149699
0.0141042
0.00162757
0.000229996
0.000278146
0.00112895
0.00583398
0.00584021
0.0124271
0.00583006
9.25685e-05
0.00586435
0.00536354
0.00210035
0.000221973
0.000624814
0.0121163
0.000590609
0.0107574
0.00140169
0.00132706
0.000349677
0.000608978
0.00211508
0.00141667
0.00869907
0.000300284
0.00584157
0.000479151
0.00679922
0.00583786
0.000809782
0.00583399
0.00186173
0.0134634
0.00138602
0.00127062
0.00202516
0.00474227
0.00584182
0.0121393
0.0143437
0.000355323
0.0141844
0.00755269
0.00583588
0.00583534
0.00588186
0.00678595
0.00230777
0.00245321
0.00583052
0.00101744
0.00211037
0.00186332
0.00593978
0.000790155
0.00103039
0.000334037
0.000914531
0.00838053
0.0118091
0.00300613
0.000311618
0.0139871
0.00583352
0.000559305
0.00287816
0.000425688
0.000578335
0.00178517
0.00583209
0.0142847
0.00583572
0.0143881
0.00583428
0.0123075
0.000818404
0.00315991
0.00582943
7.48818e-05
0.000308795
0.000928212
0.000324424
0.00294995
0.000490991
0.00138613
0.000375868
0.0058428
0.000277599
6.42297e-05
0.00793102
0.000962547
0.00583011
0.00101919
0.000755024
0.00132369
0.00302064
0.00785278
0.00054754
0.00589907
0.0125038
0.00975249
0.00570486
0.000468606
0.0058387
0.00157292
0.00157772
0.000233503
0.0138756
0.0100184
0.000323001
0.00583295
0.00202602
0.000148107
0.00484123
0.000332832
0.00444374
0.00181052
0.00105921
0.00134583
0.00116393
0.000321525
0.000620532
0.00584645
0.00160173
0.00135857
0.00584162
0.00169751
0.0024559
0.000560613
0.00121358
0.00258982
0.00424329
0.000783689
0.0058396
0.0140929
0.00146849
0.000704506
0.00160698
0.000637459
0.00136623
8.75596e-05
0.013802
0.00363113
0.00551947
0.000920926
0.0112952
0.00665081
0.00584043
0.00583005
0.0029607
0.00584643
0.00160132
0.000323883
0.00131538
0.00583501
0.00277977
0.0128114
0.000184028
0.00933981
0.00584443
0.000157342
0.000547182
0.00100264
0.000876523
0.00514251
0.00486916
0.000253085
0.00421616
0.00582994
0.0142821
0.000609591
0.00583559
0.0014398
0.00760546
0.00584856
0.00583457
0.0116645
0.0134856
0.00855429
0.0011734
0.00158225
0.00583449
0.0142775
0.0140817
0.000655644
0.0130015
0.0031683
0.00723569
0.0137321
0.00583213
0.0140797
0.00583612
0.000417641
0.000443998
0.0145663
0.00584616
0.00149211
0.000191212
0.0100756
0.000999575
0.00670921
0.000214144
0.00768942
0.000482907
0.00239635
0.00583984
0.00147013
0.00583286
0.00584791
0.00591071
3.72671e-05
0.000223369
0.00583596
0.00526115
0.00030417
0.00625267
0.00583459
0.00095204
0.000969211
0.00889536
0.00490737
0.000455301
0.00583294
0.00964266
0.000854944
0.00754893
0.00285839
0.000417751
0.00711426
0.00583172
0.00156941
0.00583355
0.00136561
0.000402835
0.00256878
0.00419646
0.00583352
0.000774829
0.00114152
0.000336709
0.000549908
0.000327083
0.00387831
0.00583387
0.00583176
0.000544409
0.00312953
0.00168404
0.000204787
0.010649
0.00590088
0.00582826
0.0101267
0.00207372
0.00195343
0.000160851
0.00121879
0.000302192
0.00232896
0.00583395
0.00342169
0.000260985
0.00146773
0.00113113
0.00583094
6.80937e-05
2.98083e-05
0.0058331
0.00583074
0.000913432
0.000925554
0.00696764
0.00112815
0.000841597
0.00583212
0.00316669
0.00109743
0.014574
0.00459907
0.000121384
0.00158303
0.00157192
0.0102396
0.00583848
0.000561085
0.00584448
0.0011456
0.000476588
0.00228612
0.000528714
0.00583182
5.77479e-05
0.00583412
0.000472959
0.00149838
0.00279245
0.0013359
0.00100201
0.00190012
0.00195052