/*--------------------------------*- C++ -*----------------------------------*\
| =========                 |                                                 |
| \\      /  F ield         | OpenFOAM: The Open Source CFD Toolbox           |
|  \\    /   O peration     | Version:  v2012                                 |
|   \\  /    A nd           | Website:  www.openfoam.com                      |
|    \\/     M anipulation  |                                                 |
\*---------------------------------------------------------------------------*/
FoamFile
{
    version     2.0;
    format      ascii;
    class       volScalarField;
    location    "100";
    object      omega;
}
// * * * * * * * * * * * * * * * * * * * * * * * * * * * * * * * * * * * * * //

dimensions      [0 0 -1 0 0 0 0];


internalField   nonuniform List<scalar> 
27915
(
0.0253892
0.205502
5.47114
4.23853
0.0525387
0.0262571
6.80561
0.0695402
0.0547852
0.0588653
0.0395223
0.025499
0.615387
3.50495
5.16369
0.028127
3.98394
0.0493297
10.398
0.0262673
3.4852
0.0252302
3.98238
0.0253848
0.0252172
0.0251588
0.0252975
1.69759
4.31618
4.99792
0.162466
0.0249116
4.0107
0.0262836
9.96256
0.0252936
0.0252816
0.0350161
0.0836765
0.0279153
0.0253029
0.0350143
0.025377
0.177293
0.180736
0.0255515
0.0253731
0.0372353
0.0251885
0.0251467
0.0383756
0.174708
0.143086
0.0279276
1.99078
5.81489
4.3527
0.0251218
0.0252296
4.39523
0.0249153
0.0642184
0.0955234
4.86072
0.0256853
0.0291792
0.044223
0.246641
4.27709
0.0284877
0.0353098
5.32838
0.0253317
0.0251442
0.0353225
0.0641175
0.0908421
0.0320141
18.6349
0.0255444
0.034815
0.028029
0.0251577
0.0251364
6.44701
0.0249498
0.0251871
0.0283184
0.49136
0.0505279
0.0253007
2.37053
0.0279684
0.159238
0.0278029
0.038667
5.35274
0.0288454
0.0252502
5.64764
0.0252229
0.0255661
12.221
0.0354059
0.0253648
0.0254001
0.0253635
0.0747849
0.0888893
0.0575977
0.0255026
0.0262731
1.54494
3.61887
8.8735
0.175554
6.8085
0.02523
0.0548216
0.0247609
0.320559
0.054564
0.131006
0.0502966
0.0261332
0.0247869
0.0262899
4.02492
0.0883761
0.0278538
0.0278551
0.0253392
0.0249463
5.87686
5.70577
7.26556
0.0252935
0.0251499
0.0308154
0.0249514
4.6175
4.47988
0.0267428
5.23812
0.0715268
0.0252593
0.0257022
4.27898
0.304204
0.0251329
0.0251557
0.0321768
0.154183
4.00928
0.100448
0.0316543
0.0251775
0.0251778
0.0278835
0.026572
0.0867601
0.123942
0.0900128
0.0251924
0.0253207
0.0270889
7.05612
0.224351
0.025139
0.186373
6.08472
0.0251783
3.9736
0.025351
0.0256918
0.16853
0.0450585
0.0253955
0.0256508
2.35472
0.0251532
0.0452788
0.0253575
4.8696
3.59467
0.0552231
0.0924912
0.0254044
5.67333
0.037763
0.0253675
0.266293
0.0254089
0.02539
0.025344
4.72178
0.0254977
0.0355128
6.71257
6.74025
0.162043
0.872356
0.0338247
1.07666
0.0253618
0.0293154
4.24827
0.0297824
0.0300952
0.178112
5.0398
0.0253594
5.63751
0.0262591
0.0528052
0.0253316
0.174208
6.84188
0.0592357
0.0327524
4.3051
0.238086
0.132209
0.0254794
0.034079
0.0354624
0.0640516
0.0254001
2.25574
0.0251655
3.88929
0.0249604
11.562
0.0314175
0.0251791
0.0254709
3.41651
0.0263396
0.352907
0.0252273
0.0253972
6.10909
21.503
0.0549161
0.0254517
0.0284355
0.195305
0.0262774
0.611853
0.155559
0.0253675
0.0372021
0.150794
0.0252287
0.0400135
0.0272811
0.0375204
0.0270421
0.314305
3.91759
4.74111
0.0257227
0.0253252
0.0248871
0.039504
0.154777
0.024726
0.0254948
0.0916565
0.0253525
0.0252285
0.0253471
16.0326
0.0489082
0.0262538
5.30425
0.0264232
4.26503
3.59341
5.0219
0.235111
4.04146
0.0284182
5.15752
0.0306255
0.0283084
0.116908
0.0262672
0.406369
4.60879
0.151988
0.0399863
0.025288
0.161234
0.0292181
0.0249528
0.025359
4.60925
0.132319
0.025309
0.247491
0.0251464
0.0393661
0.0253679
0.147337
4.24631
0.0253368
2.09774
0.0252313
0.126494
6.89847
5.75775
4.35813
0.0262888
4.43473
0.0249576
0.0250549
0.0249616
0.0641149
0.237692
5.70047
0.0250633
0.025616
0.0266366
0.2504
0.0284198
0.0252112
0.0899022
0.0524587
0.0590505
0.0252917
5.06717
0.0311288
4.49268
4.84673
0.0553733
0.101823
0.242061
0.158105
0.0272274
0.0300857
0.0544832
0.06303
0.237308
1.44771
4.39671
0.0252299
0.099051
0.0848112
0.0279547
0.113697
3.9398
0.174137
0.0358602
3.63624
0.136865
0.0335975
0.0253092
4.40043
0.0915752
4.32784
0.0251289
0.0253891
0.321054
0.0874733
0.0256499
13.3297
0.0864211
0.0391846
0.0395621
0.0345439
0.226124
0.0280134
0.0414901
0.0670317
0.0259701
0.0253028
0.0253866
4.14397
0.0284462
5.93693
0.0255582
0.196625
0.0905886
0.0253414
0.0988277
0.0896111
0.0328807
1.71107
0.119764
5.54782
0.0361005
0.103773
0.0430115
0.0254447
0.0543019
21.9889
2.97221
0.0255602
0.176686
4.51706
0.0343054
0.0254574
0.0256847
4.32273
0.0254909
0.145485
0.0254567
0.058518
0.0534916
0.0252941
0.0358434
0.0256556
0.0434446
0.0265666
0.325928
0.0253002
0.254587
0.0382594
0.025223
4.51434
0.239357
0.0662408
5.00221
0.0542007
0.307776
0.0535072
0.0251332
0.0253597
0.0262705
0.0311521
0.0346816
0.0889455
0.314295
3.72677
0.0313271
0.0254796
7.62866
0.025279
4.557
0.0255863
0.0254463
1.43768
0.134291
0.0252937
0.122653
0.0424429
4.2895
0.0357875
0.0252712
0.0268519
0.0291295
0.0253721
9.82766
0.0254158
0.0259729
6.33034
0.0251274
0.028131
3.88171
5.22309
0.0251966
0.286591
0.0324797
14.0484
0.0323451
3.35561
4.33679
0.0254116
0.0510763
0.12276
0.0252049
3.56086
0.0251022
0.0256932
0.170975
0.27048
4.92962
0.0262895
0.0448331
0.0541091
0.065236
4.96745
3.75572
0.025362
0.0248965
0.0262675
0.0259906
0.0433211
0.0273144
0.0251383
0.0297363
6.10523
0.025726
0.034334
0.0360271
0.0256923
0.029299
0.197164
0.0320916
0.027693
0.0252251
0.203437
4.54903
19.65
0.22167
0.155595
0.0247247
0.11199
0.025303
0.0248312
0.0251509
0.169364
0.0253807
4.30699
4.37519
0.0471903
0.0278154
5.92698
0.0413352
0.08203
0.0252107
0.0253892
4.12015
0.0358906
0.0270616
0.145516
0.0256033
0.0252959
0.0257633
0.0273307
0.0252299
0.0253527
0.0254131
0.0259017
0.0273618
0.0251655
4.25937
0.201722
0.0954524
0.0256061
0.0269176
0.0252051
0.104614
0.02507
0.024935
0.031334
0.0250971
0.289634
0.0253776
7.83578
3.50763
0.267756
0.0254764
3.75775
0.238605
0.0253271
0.0251962
1.85272
0.0262771
0.0535408
0.025562
10.6989
0.0265559
0.268593
0.0329483
0.0254283
0.235659
4.78174
0.025665
0.0253039
0.0256659
0.0253128
0.0944066
0.0312382
0.025383
4.70972
5.66953
1.73678
0.0252212
0.178948
0.230493
0.0248981
0.0252516
0.1822
0.0644913
0.0257087
0.109594
3.98592
0.0640998
0.0782945
0.0252282
0.0253137
7.53378
5.21289
0.208862
1.2215
3.4176
9.61597
0.0294133
7.19277
15.1319
5.15829
0.0319179
0.235528
0.0358601
0.0261389
0.0251707
0.0279544
0.142132
0.02522
0.0251845
0.0331216
0.0652019
0.100532
4.0688
0.0344549
0.0251187
0.0253506
0.028041
0.0288706
20.0839
3.39183
0.232572
0.0254366
0.298817
0.0262667
0.0252423
0.0691838
0.0295305
0.0256723
0.0733778
0.0282226
4.35145
0.0371227
0.0401844
3.97744
0.20292
0.0720539
0.025686
0.0256441
0.0251392
2.47606
0.155886
0.0976721
5.649
0.0352183
8.31094
0.0249246
7.12844
0.0249361
0.0255889
0.0267555
0.0251948
0.202169
0.0262454
0.0253567
0.0280921
0.0254205
2.9278
0.0260298
0.0254049
0.0884117
0.0293574
0.0340577
0.0250377
0.0251938
0.241533
0.0253093
0.0251391
0.0251565
0.0249216
0.129827
0.0247465
0.0249597
0.116358
0.0283452
0.02672
9.24205
0.0252869
0.0402718
3.69097
5.9116
0.925914
0.0253146
0.0669333
0.032447
0.0255114
0.0258696
0.0456774
0.0276951
0.0254095
0.025277
0.02554
8.57624
6.96946
0.0760426
0.12116
1.67741
0.0309939
0.025685
0.0735001
0.0803527
0.0254562
0.0582794
0.0253104
0.278718
0.0309605
0.060431
0.0308028
0.024748
15.5081
0.0258493
4.00674
0.201471
0.889169
0.0331159
0.107678
0.0249474
0.0251928
0.0253965
0.0256928
0.0373492
0.025231
0.0294197
0.0311078
0.0290367
0.0272893
0.099437
5.67705
0.0259781
0.0252642
0.025161
0.0568442
0.0254214
0.0632602
0.0366344
0.0252048
0.0256474
0.155914
0.289639
0.0256687
0.0326332
4.05451
0.024923
0.027041
3.62592
0.0307026
6.28709
0.0255213
0.0289665
0.0529712
0.222738
0.0254013
0.0259798
0.0488328
0.052731
0.048876
0.973483
4.88199
0.0288872
9.5369
0.0252045
8.73261
0.0253897
0.0485989
4.03798
0.0694729
0.0524716
0.0253285
0.0440398
0.0273305
0.0294993
0.0619584
0.0252985
0.0254185
0.0750905
13.1819
0.0948866
0.0350034
0.0259475
0.025306
4.52088
0.0249659
0.025473
0.229211
0.0252536
0.0280755
5.19862
4.70149
0.0262279
0.0247316
0.0252907
0.0305342
4.88593
0.0253113
0.232309
0.942602
0.0369398
0.0582857
0.0259576
0.124193
0.0258103
0.0403556
4.99512
0.0256041
0.18761
0.0259731
4.98111
0.0443759
0.0253298
0.0253362
2.97907
0.0253077
0.0253477
3.57818
0.286408
3.96044
0.0255175
0.0308567
1.04633
4.42624
17.1839
0.710621
0.0254604
0.0305919
0.025692
0.14008
0.204547
5.89424
0.0256932
0.0974283
0.0526938
0.123781
4.78693
0.0251102
5.21946
0.145411
1.48186
0.025384
0.0725864
0.0286148
0.0256657
0.033524
0.028682
0.0321472
0.045081
0.025181
0.046644
0.0322155
0.0372105
0.0277301
0.0253419
3.49747
0.148572
8.68566
0.0250862
0.0309467
0.177558
0.0314722
0.156214
4.22089
4.74002
17.3674
0.0253824
0.0567761
0.0610974
3.65051
0.0285259
0.0340164
0.0256944
0.158303
0.0248806
0.0923527
5.20327
0.0284944
0.0344724
0.0262385
8.8497
0.0250954
0.0251781
0.0252061
0.026508
0.132413
0.0247351
0.0252251
0.0252316
0.0463127
5.26191
0.0252104
0.0251661
0.0252079
0.0252116
0.0259708
3.89
0.0252017
0.0252721
0.0554674
0.0370319
0.0253092
0.0281275
0.0571584
4.49499
0.0256295
0.0253583
0.0265733
0.0250852
0.241427
0.0953651
5.73665
0.0262805
3.72393
0.0253171
0.0253136
0.0515487
0.205046
4.80694
0.0251782
0.0568763
0.0261384
0.0323987
0.0248676
7.30832
0.0252913
0.0558938
3.80397
0.0252208
0.0551982
0.0258547
0.0260622
0.0322425
0.0583715
6.62529
0.0445752
0.0251588
0.0251835
4.62097
0.0250665
0.0274779
0.0611874
0.0255068
0.0252017
0.0251302
0.02517
0.231228
1.40159
0.0256535
0.0785115
4.63367
3.50677
5.40135
0.121457
5.11776
0.0252863
0.0253537
0.0249472
5.32224
4.30049
0.0254302
0.0252065
0.02566
0.128165
4.91955
3.54966
0.035195
0.0254884
0.0249512
0.0255334
0.0258915
0.173395
0.0251002
3.48451
0.0249794
0.0250136
0.0252952
0.351602
0.0595072
4.12313
0.0401461
0.0276928
0.0254526
0.126146
4.4728
3.61571
0.124159
0.0254089
0.0252014
0.164955
0.143734
0.28727
0.0390094
0.0249351
0.0341973
0.0250457
3.36796
0.0425829
0.179599
0.120215
0.0248722
0.0250252
0.0250232
0.0274929
0.0252556
1.34474
0.0432282
0.0514268
3.55893
0.0251227
0.0626486
7.44472
0.0255129
0.0381081
0.0285279
1.48136
0.0256695
0.025166
7.31959
4.09807
9.93239
0.0252439
0.025118
4.41238
0.0327439
0.0252271
0.0251127
0.483138
0.0284606
0.025078
3.60121
0.608894
0.0560632
7.51675
0.0249445
0.0312053
4.46432
0.0252753
0.0253588
0.0249345
0.305708
0.0261395
0.0253854
0.0729515
4.50282
0.0868326
0.0440603
0.0252695
0.0256
0.0969438
0.0445611
0.0265414
0.0254629
0.0250644
0.0256707
0.109133
0.0326997
0.166231
0.0286817
0.227602
0.0247527
0.0314711
0.0250686
0.152573
0.0252311
4.39158
0.0255235
0.0250425
4.50572
0.0252761
0.126077
0.0299004
0.0329977
0.133226
0.0252225
0.0250154
0.0277355
0.0250938
4.17997
0.220415
0.025379
0.176046
0.289683
0.0437104
0.0253734
5.34885
0.0254735
0.0722561
0.024814
9.27194
4.78756
0.209485
5.62151
0.0252787
5.68885
0.0252327
0.0251423
0.0394497
0.295108
0.0423273
0.0535669
0.0261107
0.0324977
0.0253372
0.0310746
1.33623
0.0587016
3.75134
0.109494
16.6784
0.0252184
0.0520292
0.182529
3.5013
0.0256145
0.0838054
0.0517426
0.0404399
0.0253993
3.54042
0.0362275
0.0251411
4.55847
0.0321842
0.0255117
0.726548
7.52519
0.0320209
0.0253086
0.0276609
0.173981
3.50309
0.0250902
0.0252026
0.0843112
0.0272109
4.41549
0.0253321
4.46624
0.0272365
3.82181
0.0247441
0.0850107
4.59788
5.09552
4.70819
4.8753
0.0254515
6.59879
0.0252297
0.300082
0.0262315
0.0253621
0.092439
4.37618
0.187568
0.0253195
4.44666
0.0253633
0.0859819
0.0254034
0.0254706
4.78138
0.0275846
4.15823
0.0253354
0.0253608
4.30342
0.025122
0.0413353
0.0248051
0.0259762
0.0369167
0.0251051
0.03375
0.0344205
0.025582
0.0252037
5.37196
0.0852712
0.296947
1.66554
0.0255978
0.0442073
0.0311113
0.0580972
4.22272
0.345836
0.0277008
0.183111
0.025097
0.150933
0.114955
0.0253455
0.180884
0.169333
0.124035
0.0256769
0.0396322
0.0258243
6.77711
0.0878922
0.0253328
0.0250749
4.76772
0.0353343
0.195324
0.042361
5.56483
0.0271317
0.0431159
0.0400506
0.0251433
5.28215
0.165687
0.024868
0.0866399
0.165951
0.0842751
0.068376
0.309683
0.251219
8.9495
0.0437339
8.96782
0.0256517
0.0250422
5.32916
4.53451
5.57235
0.0277478
0.0252213
0.0254327
0.0285264
6.35784
0.0256457
0.0519478
4.86873
0.197364
0.529303
0.024892
4.42229
0.0256381
0.873322
0.0418048
0.0355537
0.0247908
0.0256272
0.025216
0.339285
0.0384
6.72043
0.326965
0.0254647
0.174318
5.41307
0.0252439
0.0349946
0.105775
0.0427655
0.0252817
0.0314183
0.0253757
0.0247581
0.0252687
0.0323147
5.56413
0.0763048
0.0313213
0.578715
4.42071
0.0256846
9.23907
0.025379
0.025511
0.0257155
0.0539461
0.623605
1.04271
0.123173
0.0253769
0.0588406
0.259611
0.025504
0.0254347
0.0783994
0.0252238
0.0255015
0.0315091
0.930542
4.04608
0.0257816
0.394188
0.150477
0.216625
0.0278798
4.54889
1.05372
0.0284895
0.041758
0.322959
0.192111
0.025332
0.0419448
0.0251751
0.025222
0.026868
0.0254779
0.111607
0.0256466
0.0339684
0.0253549
5.47817
0.0252793
0.242799
0.741576
0.372484
0.0247342
0.0253507
0.143473
0.0318205
0.044346
0.0350589
4.44366
0.0250055
0.310559
0.0253033
0.0251689
0.68475
0.0572007
4.63902
0.0252175
0.0252983
0.0610923
5.01202
0.025333
0.0528756
6.03502
0.0250924
0.0250189
0.0360836
9.55627
0.0255173
0.0253475
0.112248
3.9267
4.84355
0.0253148
4.50176
0.0256538
0.0634778
5.47711
7.8781
0.0252369
4.47254
0.0248878
4.40324
0.868489
4.47804
0.160802
0.0253396
0.245869
0.201247
4.20951
0.0253111
0.0248148
0.0396781
0.245139
0.0253322
0.0251098
0.0544146
0.0256158
0.0252971
0.175037
4.91838
0.3141
0.0251287
3.84944
1.59939
0.0518147
0.0254039
6.90775
0.0555005
0.0294912
0.0251131
0.0249633
0.0247374
0.02531
0.0254291
6.06821
4.28601
0.0255767
0.0255094
0.273938
0.0251355
2.23811
0.117941
0.0252028
0.34667
0.453626
0.0324151
0.0256537
4.56588
0.0264285
0.0252427
0.0253844
0.0287613
0.0326465
0.0250748
4.23162
0.0250191
0.025305
3.47638
0.153399
0.208101
0.0511892
0.149148
4.68525
0.0285417
0.0345209
4.65582
0.053144
0.025158
6.4529
4.16406
0.0264047
0.0256476
5.58428
0.0441464
4.25574
0.0262072
0.0255085
0.0257712
0.171742
0.0363733
0.0254403
0.0262283
5.14753
0.135433
0.0552087
0.0255967
0.0255272
3.89791
0.0256464
0.0325684
4.86299
4.69403
0.0255135
0.0255554
4.43259
0.127047
3.58596
4.47847
0.0371111
0.0269951
0.0522648
0.0296069
0.0254851
0.0250572
0.185643
0.0255645
4.67979
6.48302
0.0407947
3.84766
0.181316
0.0696819
0.0355588
4.87964
0.0345258
0.230295
0.353947
37.1782
0.329225
0.0288982
0.0293305
0.0422832
0.025341
4.13199
0.0263155
0.0274678
0.247911
6.53988
0.107177
0.02728
0.817226
0.0863629
0.0452789
0.109883
0.0637356
9.70958
0.0252568
0.111019
7.21261
0.311792
0.0627401
0.0248655
0.649787
0.0509672
4.09292
7.76462
0.0254805
0.109745
0.0255476
0.177377
0.0251549
0.0253433
4.40137
0.0814466
0.0254742
0.0250194
0.0249606
0.0256171
0.0392018
4.70357
4.77406
0.0251641
0.0254481
0.0253038
0.024869
0.185378
3.68358
0.0613291
0.301778
0.177032
0.0354076
0.747242
0.0255108
0.988061
4.01911
0.160102
0.025345
0.0477504
0.765282
4.53662
0.0253964
0.0251336
0.0252485
0.0253825
3.48745
0.0254996
0.0294452
0.0274477
5.47126
0.164089
0.0285607
0.703148
0.0315873
0.0252848
0.183561
4.87754
0.0249597
0.0248551
0.0248493
0.0249542
0.0418809
0.0754029
0.025451
0.0254239
0.0249089
0.0870474
0.198897
0.0249118
0.0265479
0.0702244
0.0253988
0.0408439
0.0250461
0.0361118
0.0254555
0.0253358
0.0342039
0.0325464
0.0259811
0.0253819
0.0251316
4.07566
0.0253307
0.0254218
0.0252178
0.0254208
0.0353574
0.0308461
0.0927315
0.0254656
0.0314661
0.0542045
0.0250188
0.025453
4.77435
0.053507
8.29668
0.0255018
4.82851
20.6113
0.0253656
0.0255703
4.45807
0.0253295
3.95652
0.33394
5.39234
0.303584
0.0252265
5.51349
0.0693395
0.205247
0.0920867
0.0251824
0.0251302
4.65481
0.0253132
5.61898
0.0617518
0.0254705
0.0275852
0.0266229
0.0248738
1.02331
3.91842
3.59605
0.0314824
5.73295
0.0251113
0.0254473
0.0251991
0.0254814
0.411941
0.0534305
0.0259374
0.0611992
0.0253688
0.0263846
4.637
0.0739992
3.75463
0.0277598
0.02762
0.0252192
0.201668
0.0255721
0.0377872
4.89751
3.61335
0.0253612
0.0251356
0.0272804
0.0253177
0.0443735
4.81202
0.025654
0.0250066
0.037178
0.0250746
1.97406
0.0254468
0.026249
0.0255051
0.162197
4.28977
0.0303109
28.4285
0.0701646
0.0868245
3.98373
5.73862
5.33067
5.40991
3.83078
0.0255781
0.0252224
0.0280669
0.0510307
4.77218
5.21786
0.0263466
0.0685
0.024861
0.0250197
0.025122
0.0551677
4.48143
0.0255937
3.50125
0.0251505
0.0253417
4.22547
0.0252287
6.51157
0.024948
0.156236
0.0282409
0.133352
0.0252125
0.0257649
0.0253956
0.0253853
4.39528
1.19835
0.0253306
0.0254554
4.51789
0.0639729
0.0372864
5.03696
4.6966
0.0314957
0.0262622
0.318734
5.32926
3.78342
0.0352384
0.0253223
9.46035
0.025172
4.70882
0.0265171
0.660388
0.0252687
0.0948029
0.0251397
0.02536
0.0441729
0.213529
0.18139
0.0265272
0.02517
3.74172
4.14621
0.0251655
3.72146
0.0261353
0.0253412
0.0253955
4.45162
0.0251498
4.55261
0.0253099
0.100222
4.90697
0.025118
5.00475
0.0253496
0.171248
0.17759
0.0254331
0.0255645
10.1581
0.0254673
0.156229
7.06435
0.169748
0.0253325
0.0250824
0.0950467
0.0272455
0.0261032
0.0255851
3.47693
0.0270856
0.0359009
0.0272777
5.566
0.0272447
0.0251838
0.0251236
0.807588
0.0253625
6.59411
0.0328525
0.285202
0.0256253
0.0720351
0.376409
0.0252336
0.0251666
0.0386959
4.31201
0.025262
5.40352
0.131843
0.0300463
0.0403576
5.23317
0.0253297
0.0355465
0.0281772
0.0284203
0.0254128
0.0256245
0.0628309
0.0669183
4.47436
0.0264592
0.310148
0.239164
0.0249457
0.934968
0.0555377
0.161224
4.24757
0.0360292
3.93483
4.44253
0.0258778
0.025265
0.0249487
0.0285929
0.0679589
0.112449
0.025313
0.053116
0.0253015
0.0504861
0.0260137
0.02526
0.0909438
0.0595996
0.0250576
0.025029
4.49709
4.60218
0.888329
0.0249685
0.0327725
6.07836
0.0251782
4.71733
0.0252347
0.0930036
0.0315433
0.0252238
0.0286099
0.0724831
0.0382611
4.41026
0.0255561
0.0270827
0.0246995
0.0901952
0.0253278
0.0248828
5.54296
0.0252671
0.405742
0.0510954
4.56179
0.0280608
0.986251
0.379315
0.0349091
0.0272693
5.01676
0.169773
5.37804
0.294997
0.0324657
4.38467
0.0253133
0.0298177
0.656394
0.0251422
0.0370717
0.0254958
1.14866
0.0251264
0.0648252
0.0393379
0.210511
0.0266714
0.0271753
0.0645533
0.0290256
0.14764
5.61763
0.255985
0.0253451
0.149621
4.72385
0.0253533
0.113134
0.0254882
0.165054
0.0647837
0.0268897
0.0967523
0.142962
0.157924
0.0364985
0.0254619
4.01378
5.94111
0.0706782
0.0252344
9.3236
0.0253255
4.15987
1.49028
3.55215
0.387878
0.251973
6.71278
0.0346041
0.182423
0.0251444
0.0262842
0.0922684
0.0250912
3.79958
6.80392
0.160942
3.67322
0.0326046
0.0247074
0.247295
5.62112
0.0252366
0.0446938
0.0447836
4.90141
0.0254652
0.173683
3.98914
0.27945
0.312254
0.0249175
0.0257015
0.0247447
0.0285762
5.18422
1.49521
0.273827
5.23793
4.93156
0.0252716
0.0248532
0.201519
6.33982
4.39167
0.0271677
0.143361
0.802609
0.0291054
0.0440087
0.0252072
4.71356
0.0252955
0.0705288
0.553158
1.14644
0.0248787
4.06562
0.0252104
0.0349332
0.052484
0.0250434
0.139936
0.0316181
3.82406
4.67322
0.0934521
3.81836
0.038366
0.0254337
0.0255471
0.0263198
0.0253428
4.33407
0.0431645
0.0298365
0.0256472
7.50856
3.97821
0.0248329
0.0306973
0.0251647
3.90651
5.25074
0.0520223
0.0254545
0.025363
0.02539
0.0272207
4.25238
0.0256545
0.141404
4.39629
0.0252678
4.33932
4.85821
0.0284109
5.27717
0.0251724
5.46392
0.060965
4.64709
0.0333493
5.68018
0.025009
0.31162
0.0444239
0.165458
0.0255004
0.0312476
0.0251522
0.0254634
3.4205
0.221023
0.0268024
4.92596
5.5742
0.02486
4.05509
0.0270338
1.9904
5.34968
0.196439
0.0895155
0.741196
6.9596
4.38576
0.0837346
0.0283224
4.18553
4.88707
3.82956
0.0924509
0.073032
0.0254657
0.0256496
0.025418
0.0247219
0.0253301
5.19506
0.0249119
0.0286405
0.0254625
0.314758
0.0254696
0.0250388
0.0253675
0.0545224
0.0259828
0.0254019
0.025426
0.0254116
0.0365433
0.0269303
0.0248612
4.11958
0.0250743
0.02516
0.0455172
0.0255504
0.0303491
0.0251768
0.327604
0.104744
0.0252997
0.0396076
0.0251161
0.0252264
5.01564
0.0422257
0.0252671
6.79425
0.0247372
0.218367
0.146884
0.0252246
0.0620966
0.0291321
0.771205
0.193246
0.0260305
0.0720223
0.0268363
0.0254086
0.0912013
4.39818
0.0251253
0.0258916
0.0251648
0.0314745
0.0246667
0.0308094
0.062139
3.47705
0.0315656
0.0252859
4.48745
0.027315
4.36375
0.0252416
0.162672
0.0382259
0.124834
0.0252404
0.97644
4.71596
0.0266167
4.6776
0.124408
0.0254203
18.7387
0.0255054
0.0253173
0.0252805
0.0336273
0.0269136
4.22489
0.0255738
0.035876
0.0275038
10.5177
0.0254188
0.0312544
0.0248618
0.0616134
0.024779
0.0255567
0.0249929
0.0255119
0.188022
0.0252561
4.69666
18.9493
0.0252093
2.8857
0.114773
0.0719517
10.4167
5.55597
3.98918
0.804718
4.21102
0.607956
0.0613273
0.025763
0.0285509
0.0314066
3.58962
0.0252908
0.0548116
3.95036
0.0255351
5.71713
0.088358
5.73921
0.0253116
0.0285194
0.0253622
0.0247997
0.073034
4.83203
0.107073
0.607437
0.0748249
0.0253843
4.76077
0.0679004
0.163369
0.0286012
0.0249065
3.55418
5.18964
0.0255827
0.0258613
0.0253923
0.0252381
0.0254405
0.0264806
3.75627
0.0269967
0.0252009
5.0196
3.63455
0.0251389
0.0274669
0.0250904
4.50446
0.0251881
0.0252043
4.37754
4.79978
0.0253879
0.0326876
9.37799
0.0458137
0.0730135
0.0531646
0.0250796
4.11092
0.0254174
0.310922
6.9326
0.041872
0.194767
0.0973691
0.0446294
0.0256869
0.0265383
0.025329
0.165431
0.025319
0.0251865
0.0254116
0.0325226
0.295273
5.52255
0.0270115
0.0249368
0.0248377
0.0255955
5.2438
5.27334
6.84435
0.0665532
0.0271227
0.025141
0.0255263
0.0292636
5.57504
0.0292902
0.0929845
3.65473
0.752458
0.16174
0.0303778
0.0263716
0.0250881
0.0253128
0.0256548
0.0286057
0.025307
0.025153
0.0255558
5.18954
0.0933886
0.0251939
0.0546713
0.0248406
4.49183
3.55935
0.0454739
3.77441
4.53266
0.0276706
9.71585
0.391958
0.0252542
4.13008
4.49013
0.23568
0.0428343
0.0254259
0.0252342
0.0248923
0.367655
0.0645836
0.0623694
0.140665
0.0389723
0.0252131
5.35851
5.51464
0.0535865
0.249863
0.0253398
0.18431
0.0334104
3.96689
0.211529
4.62996
0.0286239
0.0268432
0.0919707
0.0960292
0.0248451
4.56658
5.38201
0.0799273
4.19543
1.23698
1.10089
4.07346
0.388765
0.0263998
0.135395
0.293545
0.0349609
5.16663
0.025322
0.0271041
6.59202
0.0252528
0.0247151
0.0247073
0.0657215
0.0261953
0.0252964
4.37448
0.0256072
5.83005
5.4644
3.60351
1.2799
0.0253521
0.042969
0.0248941
0.103914
0.184658
0.0253294
1.11945
0.177296
0.0440942
0.025036
0.182257
0.0400267
0.735274
0.0743635
0.0313924
0.0255928
0.0264105
4.62167
0.0448909
0.0589447
0.518686
0.0262621
0.0253578
0.0251611
6.28241
0.0252137
0.156398
0.0248199
5.31429
0.0256708
2.02011
0.0505612
5.36749
0.304628
4.65482
0.0269545
0.0417961
0.121806
0.0299625
0.0254909
0.0308511
3.66425
0.166064
0.0252334
0.0554099
5.80404
0.0252802
0.0498136
0.0253146
31.464
4.1827
0.0258274
0.0262253
0.02611
6.27649
0.025276
5.34057
4.59437
0.220902
4.26515
4.17968
0.0256647
0.0256335
0.0249967
5.32806
0.0261028
8.91131
0.0252726
0.0684587
0.0256839
0.0968729
0.025378
0.29636
0.123908
0.11134
0.229804
3.90226
4.25278
0.0253613
0.092975
3.89372
0.0255417
0.366306
0.0255671
0.0531804
0.0309685
0.0352679
0.0252839
4.36628
0.0256543
3.94936
0.0255806
4.33178
0.0506523
0.0253413
0.0251565
0.0866704
0.0418541
0.0269991
0.272804
0.026599
0.0951309
0.0908436
0.0526471
0.0252274
1.18643
0.219827
5.3969
0.217323
0.0252482
3.98048
0.320982
0.151661
0.025338
4.56496
0.0346003
0.025066
4.90733
3.52605
0.0253078
0.0314733
0.0251309
0.0502502
0.0617706
0.0875021
4.1618
4.10005
0.0636826
0.0254403
0.0292939
0.112682
0.025079
0.0984389
0.025128
0.025642
0.194276
0.0307341
0.0284919
0.113784
0.0286523
0.0252008
0.0373112
0.146472
0.0252275
0.0283191
0.0254149
0.0363528
0.102984
22.0425
5.47282
0.301303
0.0249008
3.75325
0.0451312
0.0276491
0.0440642
0.0286037
0.0892868
0.0825032
3.71318
0.0254413
0.0253109
0.228097
6.54634
5.13682
0.0248997
0.0250805
0.0253618
0.0250696
4.4813
0.199219
0.0259575
0.0256064
8.86588
4.38969
1.51872
6.53111
0.0251076
0.0742569
0.0469947
0.0410595
0.134241
0.0250889
8.05028
0.146667
5.94674
0.025206
4.29559
0.457223
0.0256468
0.0522051
4.01545
0.0249224
0.0255976
4.24391
3.58687
5.23602
0.0259761
0.0259646
0.0255913
3.79841
4.52073
0.0516364
4.21686
0.0253107
4.36689
4.97834
0.0254629
3.71459
0.0256764
0.141664
0.170481
5.20236
0.0251153
0.0275977
0.0727895
5.84645
0.0270373
8.21235
0.0598003
10.4984
0.0555092
0.0269282
0.0252216
0.055388
0.0254356
0.0249163
0.0248801
0.853661
0.0394792
0.0256701
5.57598
0.0351939
7.60144
0.0252323
0.0289075
0.107906
4.18177
0.0251544
0.0307877
0.0254351
6.88169
0.0272943
4.62141
0.0262391
0.0317736
4.59836
0.0254306
0.0592471
0.025291
0.0511623
6.57544
0.0253768
0.0252273
0.0254539
0.0290384
0.026272
0.0940824
0.0629655
0.185361
11.9095
0.0252226
0.0251977
0.0372727
4.28089
16.7995
0.431737
3.92806
0.0249357
0.0247941
3.89973
0.0284553
0.0298302
0.0463411
0.0281257
0.14749
7.7945
0.0253998
0.0253255
0.600571
0.0269887
0.123541
0.0252466
0.219383
1.26347
0.0253594
0.0252206
0.0446204
0.159937
4.75429
0.0286703
0.0754116
0.0254641
5.29564
4.54978
5.11206
3.64068
0.946395
0.0351727
0.0524148
7.10597
0.025317
0.170637
0.0249646
0.0267525
0.342143
0.0260242
0.0687704
0.0252245
0.173286
0.025566
0.29719
0.0421759
0.0264519
0.0907317
0.157527
0.0255654
0.0290274
0.148923
0.0252113
6.62141
0.0459621
0.0252448
0.255012
0.0280066
1.95826
0.0339068
4.8807
0.122769
0.998441
0.0948622
0.0766986
0.162302
4.47054
0.025448
0.0273562
0.0253114
0.0906347
0.0269881
0.0254623
0.02972
0.0247886
4.88768
4.83819
0.0380523
0.0268578
0.0254875
3.43585
0.0276905
0.0376589
0.146755
0.299476
0.0256081
0.0251254
6.06604
4.16058
0.0305402
5.17379
0.0253173
5.88523
0.0253627
5.52527
0.0255793
0.302212
0.024995
2.06884
7.51564
0.0296475
0.0271923
5.59664
0.0256138
0.025582
0.195849
0.173319
0.0435484
0.0256935
0.0841834
0.0301496
4.97338
0.0248221
0.0254575
0.025468
0.025077
0.0256723
5.52293
3.96335
0.0253582
3.63935
0.0902693
0.0257742
0.0246544
0.025303
0.0253034
0.0645731
0.166629
4.11198
0.0255607
0.0252283
3.75773
4.61514
0.0320784
3.84944
3.91285
0.0413318
0.0253939
0.0253704
5.62743
0.156189
0.11159
0.0509603
4.01221
0.0256094
0.0959934
0.0251363
0.0662342
8.0646
0.0253267
0.315379
4.40062
0.232396
0.0271813
0.0251415
0.211126
0.112623
0.0335552
4.54642
0.0675334
4.52066
8.01552
4.88558
10.338
4.12335
5.09732
0.0708285
0.122132
11.8095
0.0253255
3.84534
6.43523
5.27979
3.62028
3.89737
0.0251175
4.44806
4.48812
0.0251112
0.0246835
0.0269528
4.66036
0.0254207
0.0367038
0.0255927
5.01397
2.66799
0.0286595
0.0656496
0.041026
0.0251203
0.0248602
0.0411226
0.0446977
0.495238
3.56397
3.591
0.0253477
5.37714
3.39705
3.476
0.0430837
0.0265008
0.0373639
4.72749
0.149396
4.44926
0.177457
0.0254258
0.0251173
3.90409
0.0253987
4.63872
0.0250926
0.208097
14.6117
0.717252
0.0254865
16.394
0.0251356
0.0260185
0.0254708
0.025336
0.0941274
0.148618
0.0264392
0.236507
0.801609
3.6664
0.0252251
0.105938
0.173383
6.92135
0.0248862
0.0250308
7.17025
0.175211
0.4467
0.0279628
0.0248685
3.77335
0.0286783
0.0248477
0.0286477
0.31965
0.0251375
0.0256611
0.0253676
0.0248164
0.0673604
0.384345
3.5881
0.0247499
17.4929
0.0257115
0.0267491
0.0256546
0.0408193
0.0302367
0.0295133
0.0330578
5.06496
0.0368759
0.0754697
0.0949151
13.7238
0.0529361
14.7234
4.88433
0.213901
0.0250601
0.264988
0.02494
0.0255504
0.0881883
0.0257726
0.0253157
0.0342053
0.313556
0.376087
0.0686523
0.025625
0.0252946
0.0314737
0.0347066
0.0253574
6.32175
4.65339
2.57482
0.0259857
5.44193
0.216476
0.0268482
0.0254378
0.0256481
0.0253721
4.41435
0.0253219
0.0367158
7.23653
3.64321
0.0248076
0.146474
0.249735
0.0250752
0.0579989
0.0259373
0.0260854
0.213617
0.353668
0.796773
0.0264012
0.0438156
0.151206
0.0269781
4.70307
0.0250981
0.0256923
0.11402
0.0248807
0.0854815
0.137914
0.0273752
4.38764
0.0247138
0.118198
0.134104
0.0309619
0.0261344
0.0255813
0.0253444
1.28692
0.0250881
0.0269783
0.149035
0.0411299
0.025264
0.0283728
12.115
4.90493
0.0683634
0.0246666
5.27763
7.19073
0.0245992
0.0274449
0.0319532
0.0250261
0.0255344
3.67866
0.0264168
4.00445
0.0600635
0.0253367
0.0253324
0.0251675
0.0252905
0.16349
0.062993
0.0553383
0.221211
0.0254357
0.0249524
0.0594418
0.0836351
5.72543
0.0256091
0.0288018
0.23978
6.35715
0.025595
0.220799
0.0606517
5.70719
0.0254697
0.795624
0.0273171
0.393878
0.0482467
0.16791
0.0268462
0.112074
4.49621
0.0280195
5.53367
0.0252896
0.0497273
0.0362725
0.210429
28.3254
0.0332001
4.41438
3.05837
0.0253326
4.05461
0.0253236
0.0655386
4.56698
5.05588
0.240602
5.46594
0.030877
0.0253546
0.0251684
0.029165
0.311494
0.0425671
4.80652
3.90212
0.044146
0.726813
8.63517
0.0249525
0.396748
0.117405
0.0253016
0.0256756
0.026923
0.027486
0.0253378
0.0417359
0.025403
0.0495794
0.0253327
0.15988
0.0251952
4.49681
5.03568
0.0248918
0.0262804
0.0299102
0.0254343
0.113945
0.0856277
0.0421028
0.0252277
0.0254725
0.0907309
0.233278
0.0256053
0.0270838
0.0252741
0.20948
0.0255995
0.0255202
0.117228
0.0269483
0.0261027
5.6784
0.430735
4.84761
0.0270284
0.0249655
0.0260021
4.90559
0.0369623
0.0254593
3.88698
3.58439
0.0251955
0.185156
0.497576
0.0248177
6.81931
0.0256193
0.0249879
0.0286797
3.79729
5.34135
0.0347326
0.0405945
0.0526222
0.0269044
6.03669
0.0249272
0.02542
7.93647
0.036097
0.0360832
0.0316027
0.0253335
4.06524
0.0251266
0.0723022
0.0253878
4.79463
0.03137
3.87785
5.00183
3.65103
0.0254438
0.0255762
0.0547601
0.0246909
0.0407589
6.44436
0.0714559
0.0686394
4.56259
0.0287152
3.969
4.45806
0.0251316
0.0256048
0.0256856
0.0248105
0.0251174
0.0248711
6.69851
0.0248975
0.0276204
0.025598
0.0315953
1.30112
0.0275278
0.308617
0.209189
0.0700329
4.57819
0.0266805
0.0251871
0.0426178
0.0254184
0.163972
0.250379
0.0367558
0.317988
0.0308734
0.0254356
0.163361
4.08119
0.122932
0.108542
0.341885
0.0256094
4.59561
4.58312
0.0255277
0.710936
4.10954
0.027774
0.0407156
0.603865
4.32258
0.0251712
0.0286845
0.159997
4.63829
6.90477
1.77803
9.95746
0.144311
4.44177
0.0438602
0.0255903
0.0254626
0.0248457
4.39708
8.53925
0.0252773
0.0690942
0.0254135
0.0294905
0.303662
0.0251078
4.04814
0.024657
0.0253182
0.0262049
0.0253279
0.330434
0.0500193