/*--------------------------------*- C++ -*----------------------------------*\
| =========                 |                                                 |
| \\      /  F ield         | OpenFOAM: The Open Source CFD Toolbox           |
|  \\    /   O peration     | Version:  v2012                                 |
|   \\  /    A nd           | Website:  www.openfoam.com                      |
|    \\/     M anipulation  |                                                 |
\*---------------------------------------------------------------------------*/
FoamFile
{
    version     2.0;
    format      ascii;
    class       volScalarField;
    location    "100";
    object      omega_0;
}
// * * * * * * * * * * * * * * * * * * * * * * * * * * * * * * * * * * * * * //

dimensions      [0 0 -1 0 0 0 0];


internalField   nonuniform List<scalar> 
27915
(
0.0253892
0.205533
5.47078
4.23763
0.0525349
0.0262572
6.80671
0.0695415
0.0547814
0.0588678
0.039522
0.0254991
0.615549
3.50609
5.16198
0.0281268
3.98416
0.0493294
10.3972
0.0262672
3.48629
0.0252303
3.98264
0.0253849
0.0252172
0.0251588
0.0252975
1.69735
4.31518
4.99797
0.162484
0.0249116
4.01091
0.0262835
9.96178
0.0252936
0.0252816
0.035016
0.0836675
0.0279154
0.0253029
0.0350145
0.025377
0.177268
0.180717
0.0255515
0.0253732
0.0372365
0.0251885
0.0251467
0.038377
0.174682
0.143064
0.0279277
1.9924
5.81435
4.35269
0.0251218
0.0252297
4.3951
0.0249153
0.0642192
0.0955131
4.86621
0.0256853
0.0291795
0.0442261
0.246671
4.27688
0.0284876
0.03531
5.32833
0.0253317
0.0251442
0.0353225
0.0641198
0.0908297
0.0320139
18.6346
0.0255445
0.0348152
0.0280291
0.0251577
0.0251364
6.44566
0.0249498
0.0251871
0.0283182
0.493136
0.0505279
0.0253007
2.36554
0.0279681
0.159256
0.0278028
0.0386686
5.35134
0.0288457
0.0252502
5.6465
0.0252229
0.0255661
12.2192
0.0354061
0.0253648
0.0254002
0.0253635
0.0747868
0.0888943
0.0576002
0.0255026
0.026273
1.56337
3.61931
8.87424
0.175536
6.80954
0.02523
0.0548175
0.0247609
0.320573
0.05456
0.131011
0.0502962
0.0261332
0.0247869
0.0262899
4.02592
0.0883787
0.0278537
0.0278552
0.0253392
0.0249462
5.87634
5.70553
7.2659
0.0252935
0.02515
0.0308153
0.0249514
4.6166
4.47981
0.026743
5.23655
0.0715287
0.0252593
0.0257021
4.27918
0.304216
0.0251329
0.0251557
0.0321766
0.154166
4.00955
0.100436
0.0316541
0.0251775
0.0251778
0.0278835
0.0265721
0.0867573
0.123938
0.0900002
0.0251925
0.0253207
0.027089
7.05601
0.224386
0.025139
0.186401
6.08506
0.0251783
3.97386
0.025351
0.0256918
0.168497
0.0450595
0.0253955
0.0256507
2.35742
0.0251532
0.0452821
0.0253575
4.86196
3.5951
0.0552191
0.0924764
0.0254044
5.67292
0.0377631
0.0253676
0.266302
0.025409
0.02539
0.025344
4.72159
0.0254977
0.0355125
6.71265
6.74146
0.162055
0.879277
0.0338247
1.07314
0.0253619
0.0293157
4.24829
0.0297822
0.0300955
0.178074
5.04092
0.0253595
5.63641
0.026259
0.0528083
0.0253316
0.174174
6.84284
0.0592305
0.032753
4.30522
0.23806
0.132223
0.0254794
0.034079
0.0354624
0.0640531
0.0254002
2.25833
0.0251655
3.89032
0.0249604
11.5602
0.0314173
0.0251791
0.0254709
3.41029
0.0263397
0.353011
0.0252273
0.0253972
6.10946
21.5098
0.0549122
0.0254517
0.0284354
0.195274
0.0262774
0.61198
0.155542
0.0253675
0.0372036
0.150772
0.0252287
0.0400132
0.027281
0.0375219
0.0270422
0.314324
3.91688
4.74103
0.0257226
0.0253252
0.0248871
0.0395038
0.154754
0.024726
0.0254948
0.0916411
0.0253525
0.0252286
0.0253471
16.0319
0.0489083
0.0262538
5.30537
0.0264233
4.26529
3.59433
5.02252
0.235072
4.04239
0.028418
5.15741
0.0306254
0.0283082
0.116907
0.0262671
0.406951
4.60879
0.151973
0.0399859
0.025288
0.161251
0.0292184
0.0249528
0.0253591
4.60977
0.13233
0.025309
0.247473
0.0251464
0.0393658
0.0253679
0.147324
4.24534
0.0253368
2.09948
0.0252313
0.1265
6.90664
5.75728
4.35669
0.0262888
4.43456
0.0249576
0.0250549
0.0249616
0.0641156
0.237697
5.70024
0.0250633
0.025616
0.0266367
0.250364
0.0284197
0.0252112
0.0899046
0.0524572
0.0590454
0.0252917
5.06824
0.0311288
4.49281
4.84716
0.0553693
0.101812
0.242044
0.158121
0.0272272
0.0300855
0.0544862
0.063031
0.23731
1.45197
4.39669
0.0252299
0.0990504
0.0847829
0.0279549
0.113695
3.93899
0.174114
0.0358599
3.63655
0.136872
0.0335977
0.0253092
4.40032
0.0915864
4.32787
0.0251288
0.0253891
0.321069
0.0874759
0.0256499
13.3091
0.0864237
0.0391834
0.0395619
0.0345441
0.226109
0.0280131
0.0414898
0.0670247
0.0259701
0.0253028
0.0253866
4.14458
0.0284461
5.93699
0.0255582
0.196589
0.0905905
0.0253414
0.0988308
0.0896117
0.0328806
1.70638
0.119773
5.54764
0.0361003
0.103776
0.0430107
0.0254447
0.0543019
22.1864
2.96378
0.0255603
0.17665
4.51545
0.0343051
0.0254574
0.0256847
4.32166
0.025491
0.145494
0.0254567
0.0585134
0.053491
0.0252941
0.0358446
0.0256556
0.0434454
0.0265667
0.326002
0.0253002
0.25462
0.0382598
0.025223
4.5142
0.239394
0.0662341
5.00283
0.0542012
0.306742
0.0535065
0.0251332
0.0253597
0.0262705
0.0311519
0.0346814
0.0889474
0.31438
3.72669
0.0313268
0.0254797
7.62798
0.025279
4.56247
0.0255863
0.0254463
1.43525
0.134261
0.0252937
0.122641
0.0424439
4.28968
0.0357877
0.0252712
0.0268521
0.0291298
0.0253721
9.8264
0.0254158
0.0259727
6.33026
0.0251275
0.0281307
3.88104
5.22436
0.0251966
0.286604
0.0324804
14.0504
0.0323458
3.34474
4.33565
0.0254117
0.0510729
0.122732
0.0252049
3.56176
0.0251022
0.0256932
0.170947
0.270522
4.93056
0.0262895
0.0448315
0.0541089
0.0652389
4.9684
3.75656
0.025362
0.0248965
0.0262674
0.0259905
0.0433198
0.0273143
0.0251384
0.0297366
6.10795
0.025726
0.0343342
0.0360269
0.0256923
0.0292993
0.197127
0.0320913
0.027693
0.0252251
0.203439
4.5479
19.6489
0.221638
0.155598
0.0247247
0.111981
0.025303
0.0248312
0.025151
0.169367
0.0253807
4.30679
4.3753
0.0471902
0.0278155
5.92688
0.0413341
0.0820328
0.0252107
0.0253892
4.10823
0.0358918
0.0270613
0.145492
0.0256034
0.025296
0.0257632
0.0273305
0.02523
0.0253527
0.0254131
0.0259018
0.0273616
0.0251655
4.25954
0.201726
0.0954551
0.0256061
0.0269177
0.0252051
0.104616
0.02507
0.024935
0.0313337
0.0250971
0.290198
0.0253776
7.83602
3.50869
0.26777
0.0254764
3.75761
0.238583
0.0253271
0.0251962
1.85452
0.026277
0.0535404
0.025562
10.6144
0.026556
0.268558
0.0329483
0.0254283
0.235614
4.78238
0.025665
0.0253039
0.0256659
0.0253128
0.094401
0.0312378
0.025383
4.71004
5.66887
1.7382
0.0252213
0.178914
0.23047
0.0248981
0.0252516
0.182172
0.0644921
0.0257086
0.109586
3.986
0.0641005
0.0782979
0.0252282
0.0253137
7.53402
5.2128
0.208868
1.21696
3.41875
9.61492
0.0294136
7.19196
15.1308
5.158
0.0319184
0.235513
0.0358603
0.026139
0.0251706
0.0279543
0.142138
0.02522
0.0251846
0.0331216
0.0652045
0.100512
4.06944
0.0344545
0.0251186
0.0253506
0.0280409
0.0288708
20.083
3.39287
0.232543
0.0254366
0.29934
0.0262666
0.0252424
0.0691757
0.0295309
0.0256723
0.0733678
0.0282225
4.35121
0.0371242
0.040184
3.97765
0.202927
0.0720574
0.025686
0.0256441
0.0251392
2.47695
0.155868
0.0976788
5.64841
0.0352183
8.3109
0.0249246
7.07476
0.0249361
0.0255889
0.0267556
0.0251948
0.202196
0.0262453
0.0253567
0.0280923
0.0254206
2.93058
0.0260299
0.0254049
0.0884239
0.0293577
0.0340576
0.0250377
0.0251938
0.241515
0.0253093
0.0251391
0.0251566
0.0249216
0.129832
0.0247465
0.0249597
0.116335
0.0283451
0.0267201
9.24118
0.0252869
0.0402714
3.69121
5.91173
0.92279
0.0253146
0.0669362
0.0324477
0.0255114
0.0258695
0.0456784
0.027695
0.0254095
0.0252771
0.02554
8.57628
6.96905
0.0760323
0.121168
1.66947
0.0309935
0.025685
0.0734901
0.0803527
0.0254562
0.058281
0.0253104
0.278722
0.0309602
0.0604138
0.0308027
0.024748
15.507
0.0258492
4.00584
0.201438
0.888895
0.0331159
0.107681
0.0249474
0.0251928
0.0253965
0.0256928
0.0373507
0.025231
0.02942
0.0311079
0.0290369
0.0272892
0.0994177
5.67868
0.0259782
0.0252642
0.0251609
0.0568441
0.0254214
0.0632618
0.0366351
0.0252048
0.0256474
0.155894
0.289638
0.0256687
0.0326339
4.05501
0.024923
0.0270412
3.62629
0.0307026
6.28616
0.0255213
0.0289666
0.052975
0.222769
0.0254013
0.0259799
0.0488346
0.0527312
0.0488759
0.973259
4.88176
0.0288873
9.53597
0.0252045
8.73258
0.0253897
0.0486013
4.03823
0.0694743
0.0524749
0.0253284
0.0440388
0.0273303
0.0294997
0.0619594
0.0252985
0.0254186
0.0750806
13.1802
0.0948923
0.0350031
0.0259476
0.025306
4.52097
0.0249659
0.025473
0.229243
0.0252536
0.0280757
5.19846
4.70062
0.0262279
0.0247316
0.0252907
0.0305342
4.8859
0.0253113
0.232347
0.94906
0.0369405
0.0582809
0.0259576
0.124166
0.0258103
0.0403554
4.99478
0.025604
0.187617
0.0259731
4.98032
0.044375
0.0253298
0.0253362
2.9686
0.0253077
0.0253477
3.57922
0.286414
3.9606
0.0255175
0.0308564
1.0429
4.42604
17.1852
0.71062
0.0254604
0.0305918
0.025692
0.140086
0.204552
5.8945
0.0256932
0.0974166
0.0526946
0.123777
4.78591
0.0251102
5.22046
0.1454
1.48071
0.025384
0.0725902
0.0286145
0.0256657
0.0335239
0.0286817
0.0321478
0.045084
0.025181
0.0466428
0.0322162
0.0372107
0.0277299
0.0253418
3.49876
0.148559
8.68557
0.0250862
0.0309468
0.177518
0.0314719
0.156195
4.21949
4.7401
17.3445
0.0253824
0.0567772
0.0610995
3.65176
0.0285257
0.0340162
0.0256944
0.158284
0.0248806
0.0923416
5.20394
0.0284942
0.0344722
0.0262385
8.84955
0.0250954
0.0251781
0.0252062
0.0265081
0.13242
0.0247351
0.0252251
0.0252316
0.0463119
5.26219
0.0252104
0.0251661
0.0252079
0.0252116
0.0259709
3.89118
0.0252018
0.0252721
0.0554636
0.0370331
0.0253092
0.0281274
0.0571602
4.49462
0.0256295
0.0253582
0.0265733
0.0250852
0.241409
0.0953525
5.73598
0.0262805
3.72409
0.0253171
0.0253136
0.0515496
0.205076
4.80515
0.0251782
0.0568717
0.0261384
0.0323987
0.0248677
7.30932
0.0252913
0.0558901
3.80402
0.0252208
0.0552009
0.0258548
0.0260622
0.0322432
0.0583714
6.62655
0.044578
0.0251588
0.0251835
4.6193
0.0250665
0.0274776
0.0612022
0.0255068
0.0252017
0.0251302
0.02517
0.23118
1.40106
0.0256535
0.0785039
4.63636
3.50786
5.40132
0.121432
5.11885
0.0252863
0.0253537
0.0249472
5.32098
4.29895
0.0254302
0.0252065
0.02566
0.12817
4.9187
3.55105
0.0351947
0.0254884
0.0249512
0.0255334
0.0258915
0.173369
0.0251002
3.48554
0.0249794
0.0250136
0.0252952
0.351543
0.0595053
4.12351
0.0401458
0.0276928
0.0254527
0.126151
4.47669
3.6162
0.124153
0.0254089
0.0252015
0.164978
0.143711
0.286937
0.039009
0.0249351
0.0341974
0.0250456
3.36883
0.0425816
0.179561
0.120221
0.0248722
0.0250252
0.0250232
0.0274928
0.0252556
1.34418
0.0432313
0.0514269
3.5595
0.0251227
0.0626494
7.44409
0.0255129
0.0381091
0.0285277
1.4826
0.0256695
0.025166
7.31977
4.09863
9.93103
0.0252439
0.025118
4.41219
0.0327446
0.0252271
0.0251127
0.482736
0.0284604
0.0250781
3.60161
0.60936
0.0560635
7.51627
0.0249445
0.031205
4.46446
0.0252753
0.0253588
0.0249345
0.305102
0.0261395
0.0253854
0.0729435
4.49421
0.0868353
0.0440587
0.0252695
0.0256
0.09693
0.0445613
0.0265414
0.0254629
0.0250644
0.0256707
0.109127
0.0327004
0.166254
0.028682
0.227637
0.0247527
0.0314708
0.0250686
0.152587
0.0252312
4.39178
0.0255235
0.0250425
4.50533
0.0252761
0.126051
0.0299008
0.0329978
0.133194
0.0252225
0.0250153
0.0277352
0.0250938
4.18017
0.22038
0.0253791
0.176009
0.289689
0.0437088
0.0253734
5.34827
0.0254735
0.0722484
0.024814
9.27094
4.78811
0.209515
5.6225
0.0252787
5.68867
0.0252327
0.0251423
0.0394487
0.295589
0.042326
0.0535683
0.0261108
0.0324977
0.0253372
0.0310746
1.335
0.058702
3.75125
0.10949
16.7225
0.0252184
0.0520296
0.182491
3.5025
0.0256144
0.0838053
0.0517427
0.0404409
0.0253993
3.53966
0.0362277
0.0251411
4.55892
0.0321842
0.0255117
0.724963
7.52457
0.032021
0.0253086
0.0276607
0.173942
3.50432
0.0250902
0.0252026
0.0843134
0.0272109
4.41577
0.0253321
4.46889
0.0272364
3.82329
0.0247441
0.0850193
4.59677
5.09613
4.70801
4.87606
0.0254515
6.60019
0.0252298
0.300273
0.0262316
0.0253621
0.0924282
4.37609
0.187546
0.0253194
4.44639
0.0253633
0.0859899
0.0254034
0.0254706
4.78202
0.0275847
4.1579
0.0253354
0.0253608
4.30332
0.025122
0.0413349
0.0248051
0.0259763
0.0369169
0.025105
0.0337508
0.0344203
0.025582
0.0252037
5.37178
0.0852747
0.297078
1.66535
0.0255977
0.0442066
0.031111
0.0581087
4.2231
0.346124
0.0277009
0.183092
0.0250969
0.150928
0.114964
0.0253454
0.18085
0.1693
0.124029
0.0256769
0.0396329
0.0258244
6.77783
0.0878952
0.0253328
0.0250749
4.76675
0.0353343
0.195289
0.0423607
5.5663
0.0271319
0.0431232
0.0400499
0.0251433
5.28176
0.165698
0.024868
0.0866429
0.16592
0.0842524
0.068377
0.30965
0.251194
8.94926
0.0437345
8.96812
0.0256517
0.0250422
5.32116
4.5327
5.57251
0.0277478
0.0252213
0.0254327
0.0285263
6.35684
0.0256457
0.0519452
4.86881
0.19733
0.529643
0.024892
4.42226
0.0256381
0.873445
0.0418036
0.0355536
0.0247908
0.0256273
0.025216
0.340671
0.0383995
6.72172
0.327166
0.0254648
0.174291
5.41274
0.0252439
0.0349946
0.105777
0.0427642
0.0252817
0.0314179
0.0253757
0.0247581
0.0252688
0.0323153
5.56429
0.0763069
0.0313209
0.578286
4.42045
0.0256846
9.23874
0.025379
0.025511
0.0257155
0.0539483
0.623881
1.0519
0.123149
0.0253769
0.0588297
0.259601
0.025504
0.0254348
0.0784042
0.0252238
0.0255015
0.0315088
0.930686
4.047
0.0257816
0.394148
0.150521
0.216589
0.0278797
4.54899
1.04995
0.0284891
0.0417581
0.322945
0.192104
0.025332
0.0419436
0.0251751
0.025222
0.0268677
0.025478
0.111616
0.0256466
0.0339681
0.0253549
5.47964
0.0252793
0.242786
0.741741
0.373907
0.0247342
0.0253507
0.143482
0.0318209
0.0443453
0.0350585
4.444
0.0250056
0.310801
0.0253032
0.0251689
0.68438
0.0572012
4.64047
0.0252175
0.0252983
0.0610948
5.01214
0.025333
0.0528734
6.03515
0.0250925
0.0250189
0.0360837
9.55481
0.0255173
0.0253476
0.112258
3.92731
4.84359
0.0253148
4.50169
0.0256538
0.0634793
5.4716
7.87821
0.0252369
4.471
0.0248878
4.40377
0.868474
4.47818
0.160822
0.0253396
0.24586
0.201222
4.20972
0.0253111
0.0248148
0.0396779
0.245129
0.0253322
0.0251098
0.0544164
0.0256158
0.0252971
0.175031
4.91789
0.314312
0.0251288
3.84939
1.59438
0.0518156
0.0254039
6.90705
0.0554986
0.0294915
0.0251131
0.0249633
0.0247374
0.02531
0.0254291
6.06837
4.28652
0.0255767
0.0255094
0.273979
0.0251354
2.26104
0.117931
0.0252028
0.346902
0.453538
0.0324158
0.0256537
4.56566
0.0264285
0.0252427
0.0253844
0.0287614
0.0326471
0.0250748
4.23177
0.0250191
0.0253051
3.47749
0.153377
0.208072
0.0511899
0.149166
4.68592
0.0285413
0.0345207
4.65598
0.053148
0.025158
6.45365
4.16465
0.0264046
0.0256477
5.58275
0.044147
4.25472
0.0262073
0.0255085
0.0257712
0.17172
0.0363735
0.0254403
0.0262281
5.14853
0.135489
0.0552044
0.0255967
0.0255272
3.89923
0.0256464
0.032569
4.86342
4.69393
0.0255136
0.0255554
4.4327
0.127047
3.58653
4.47884
0.0371114
0.026995
0.052266
0.0296073
0.0254851
0.0250572
0.185669
0.0255645
4.67883
6.48379
0.0407939
3.84834
0.181297
0.0696812
0.0355589
4.87874
0.0345258
0.230307
0.353889
37.178
0.32916
0.0288984
0.0293306
0.0422825
0.025341
4.13264
0.0263155
0.0274678
0.247884
6.53863
0.107174
0.0272798
0.817624
0.0864011
0.0452774
0.109878
0.0637234
9.70842
0.0252568
0.111028
7.21376
0.311924
0.0627426
0.0248655
0.648061
0.0509645
4.0928
7.76363
0.0254806
0.109747
0.0255477
0.177339
0.0251549
0.0253433
4.39996
0.0814518
0.0254742
0.0250194
0.0249606
0.0256171
0.0392017
4.70257
4.77344
0.0251641
0.0254481
0.0253038
0.024869
0.185356
3.68481
0.0613283
0.301815
0.177029
0.0354086
0.746666
0.0255108
0.98842
4.02187
0.160121
0.0253451
0.0477502
0.763159
4.53644
0.0253964
0.0251337
0.0252485
0.0253825
3.48845
0.0254996
0.0294453
0.0274478
5.47217
0.164112
0.0285605
0.702109
0.031587
0.0252849
0.183525
4.87684
0.0249597
0.0248551
0.0248493
0.0249542
0.04188
0.0754021
0.0254511
0.0254239
0.024909
0.087045
0.198921
0.0249118
0.026548
0.070219
0.0253988
0.0408448
0.0250461
0.0361119
0.0254555
0.0253358
0.034204
0.0325463
0.0259812
0.0253819
0.0251316
4.07587
0.0253307
0.0254219
0.0252179
0.0254209
0.0353582
0.0308465
0.092744
0.0254656
0.0314665
0.054205
0.0250187
0.025453
4.77414
0.0535053
8.2962
0.0255018
4.82873
20.6103
0.0253656
0.0255703
4.4563
0.0253294
3.95681
0.333896
5.39173
0.30362
0.0252265
5.51288
0.0693344
0.205257
0.0920713
0.0251824
0.0251302
4.6549
0.0253132
5.61938
0.0617526
0.0254706
0.0275852
0.0266229
0.0248738
1.02351
3.9184
3.59653
0.031482
5.73221
0.0251112
0.0254474
0.0251991
0.0254814
0.411889
0.0534296
0.0259375
0.0611988
0.0253688
0.0263846
4.63764
0.073997
3.75568
0.0277597
0.02762
0.0252192
0.201634
0.0255721
0.0377874
4.89796
3.6137
0.0253612
0.0251355
0.0272802
0.0253177
0.0443761
4.81211
0.025654
0.0250066
0.0371782
0.0250746
1.98973
0.0254469
0.0262489
0.0255051
0.162175
4.28977
0.0303107
28.4259
0.0701634
0.086824
3.98381
5.7384
5.33011
5.40963
3.83081
0.0255781
0.0252224
0.0280668
0.0510285
4.7714
5.21759
0.0263466
0.068495
0.024861
0.0250197
0.025122
0.0551687
4.48157
0.0255937
3.50252
0.0251505
0.0253418
4.22582
0.0252287
6.51291
0.024948
0.156251
0.0282407
0.133379
0.0252125
0.0257649
0.0253956
0.0253853
4.39818
1.20888
0.0253306
0.0254554
4.51832
0.0639681
0.0372865
5.03745
4.69706
0.0314957
0.0262622
0.318713
5.32832
3.78352
0.0352394
0.0253222
9.45901
0.025172
4.70958
0.0265172
0.660632
0.0252688
0.0947934
0.0251398
0.02536
0.0441752
0.21348
0.181415
0.0265273
0.02517
3.7417
4.14669
0.0251655
3.72142
0.0261354
0.0253412
0.0253956
4.45142
0.0251498
4.55072
0.0253099
0.10023
4.9067
0.0251181
5.00431
0.0253496
0.17121
0.177585
0.0254331
0.0255645
10.1607
0.0254673
0.156194
7.06407
0.169713
0.0253325
0.0250824
0.0950536
0.0272453
0.0261032
0.0255851
3.47807
0.0270854
0.0359005
0.0272778
5.56653
0.0272449
0.0251837
0.0251237
0.80598
0.0253626
6.59321
0.0328523
0.285216
0.0256252
0.072026
0.376429
0.0252336
0.0251666
0.0386958
4.31212
0.025262
5.40454
0.131845
0.0300463
0.0403566
5.2313
0.0253297
0.0355466
0.0281773
0.0284204
0.0254128
0.0256245
0.0628331
0.0669158
4.47412
0.0264592
0.310712
0.23915
0.0249457
0.931921
0.0555339
0.161201
4.24787
0.0360288
3.93576
4.44228
0.0258779
0.025265
0.0249487
0.0285926
0.0679583
0.112437
0.025313
0.0531207
0.0253015
0.0504838
0.0260138
0.02526
0.0909282
0.0596017
0.0250576
0.025029
4.49723
4.60261
0.88543
0.0249685
0.0327725
6.07812
0.0251782
4.71637
0.0252347
0.0930045
0.0315428
0.0252238
0.0286097
0.0724767
0.0382608
4.41011
0.0255561
0.0270824
0.0246995
0.0901963
0.0253278
0.0248828
5.54238
0.0252671
0.405711
0.0510996
4.56356
0.028061
0.986449
0.379318
0.0349088
0.0272694
5.01701
0.169738
5.37859
0.296616
0.0324658
4.3845
0.0253133
0.0298177
0.658916
0.0251422
0.0370729
0.0254958
1.15448
0.0251264
0.0648259
0.0393376
0.210472
0.0266714
0.0271753
0.064555
0.0290256
0.147656
5.61752
0.255965
0.0253451
0.14963
4.72455
0.0253533
0.113123
0.0254882
0.165021
0.0647823
0.0268897
0.0967509
0.142965
0.157939
0.0364987
0.0254619
4.01405
5.94163
0.0706771
0.0252344
9.32248
0.0253256
4.15891
1.49069
3.55314
0.387875
0.251951
6.71116
0.0346041
0.182421
0.0251444
0.0262843
0.092275
0.0250912
3.80072
6.8022
0.160913
3.67429
0.0326053
0.0247074
0.247288
5.62096
0.0252366
0.0446965
0.0447839
4.90215
0.0254653
0.173659
3.98844
0.279463
0.312303
0.0249175
0.0257015
0.0247447
0.0285759
5.18545
1.49567
0.273836
5.23788
4.93061
0.0252717
0.0248532
0.20155
6.33994
4.3914
0.0271677
0.143352
0.802809
0.0291057
0.0440098
0.0252072
4.71377
0.0252955
0.070523
0.552148
1.14509
0.0248787
4.06476
0.0252104
0.0349333
0.0524831
0.0250434
0.139941
0.0316181
3.82466
4.67363
0.093447
3.81913
0.0383658
0.0254337
0.0255471
0.0263197
0.0253428
4.33375
0.0431631
0.0298362
0.0256472
7.5071
3.97872
0.0248329
0.0306974
0.0251648
3.90776
5.24964
0.0520221
0.0254545
0.025363
0.02539
0.0272209
4.2521
0.0256545
0.141398
4.39627
0.0252678
4.34221
4.85913
0.0284106
5.27684
0.0251724
5.46428
0.0609613
4.64664
0.0333492
5.68022
0.025009
0.31169
0.0444234
0.165468
0.0255005
0.0312476
0.0251522
0.0254634
3.42149
0.221007
0.0268025
4.92569
5.57394
0.02486
4.05537
0.0270337
1.99977
5.34847
0.196411
0.0895022
0.738476
6.96082
4.38538
0.0837385
0.0283221
4.18603
4.88712
3.82973
0.0924476
0.073026
0.0254658
0.0256496
0.025418
0.0247219
0.0253301
5.19311
0.0249119
0.0286402
0.0254626
0.313853
0.0254696
0.0250388
0.0253675
0.0545273
0.0259827
0.0254019
0.0254261
0.0254116
0.0365439
0.0269302
0.0248613
4.11919
0.0250743
0.02516
0.0455186
0.0255504
0.030349
0.0251768
0.327543
0.104747
0.0252997
0.039608
0.0251162
0.0252264
5.01508
0.0422254
0.0252671
6.79495
0.0247372
0.218329
0.146894
0.0252246
0.0621062
0.0291322
0.771336
0.193207
0.0260303
0.0720143
0.0268363
0.0254086
0.0912017
4.39843
0.0251253
0.0258917
0.0251649
0.0314743
0.0246667
0.030809
0.0621406
3.47824
0.0315653
0.0252858
4.48761
0.0273148
4.36349
0.0252417
0.162695
0.0382262
0.124825
0.0252404
0.976897
4.71484
0.0266169
4.67784
0.1244
0.0254203
18.7376
0.0255054
0.0253172
0.0252805
0.0336275
0.0269135
4.22495
0.0255738
0.0358756
0.0275036
10.5168
0.0254188
0.0312539
0.0248618
0.0616164
0.024779
0.0255567
0.0249929
0.0255119
0.188002
0.0252561
4.69634
18.9481
0.0252093
2.88624
0.114777
0.0719536
10.4154
5.5575
3.98963
0.802884
4.21074
0.606182
0.0613284
0.0257629
0.0285505
0.0314062
3.59001
0.0252908
0.0548171
3.95815
0.025535
5.71708
0.0883533
5.7385
0.0253116
0.0285195
0.0253622
0.0247997
0.0730255
4.83113
0.107074
0.607229
0.0748269
0.0253843
4.75983
0.0679096
0.163339
0.0286008
0.0249064
3.55532
5.18889
0.0255827
0.0258614
0.0253923
0.0252381
0.0254405
0.0264807
3.7574
0.0269967
0.0252009
5.0207
3.6349
0.0251388
0.027467
0.0250904
4.50465
0.0251881
0.0252043
4.37595
4.80057
0.0253879
0.0326883
9.37676
0.0458172
0.0730125
0.0531681
0.0250796
4.11008
0.0254174
0.310986
6.93391
0.0418715
0.194791
0.0973664
0.0446294
0.0256869
0.0265384
0.025329
0.165395
0.0253191
0.0251864
0.0254116
0.0325227
0.295268
5.52265
0.0270113
0.0249368
0.0248377
0.0255955
5.24216
5.27329
6.84347
0.0665546
0.0271224
0.0251411
0.0255263
0.0292636
5.57448
0.0292905
0.0929848
3.65607
0.750067
0.161759
0.0303777
0.0263716
0.0250881
0.0253128
0.0256548
0.0286055
0.025307
0.025153
0.0255557
5.19036
0.0933805
0.0251939
0.0546727
0.0248406
4.49373
3.55989
0.0454772
3.77502
4.53316
0.0276707
9.71505
0.391994
0.0252542
4.12987
4.48839
0.235663
0.0428335
0.0254259
0.0252342
0.0248924
0.367241
0.064577
0.0623677
0.140678
0.0389717
0.0252131
5.3599
5.5155
0.0535835
0.249838
0.0253398
0.184279
0.0334103
3.9668
0.211504
4.63032
0.0286236
0.0268431
0.0919717
0.0960371
0.0248451
4.56975
5.38335
0.0799323
4.19479
1.23242
1.09958
4.07359
0.38881
0.0263999
0.135401
0.293556
0.0349605
5.16623
0.025322
0.0271041
6.59314
0.0252528
0.0247151
0.0247073
0.0657303
0.0261952
0.0252964
4.37286
0.0256072
5.83011
5.46577
3.60359
1.28
0.0253521
0.0429694
0.0248941
0.103925
0.184668
0.0253294
1.11895
0.177315
0.0440926
0.025036
0.182284
0.040026
0.735542
0.0743533
0.031392
0.0255928
0.0264105
4.62225
0.0448937
0.0589456
0.517756
0.0262621
0.0253578
0.0251611
6.28396
0.0252137
0.156401
0.0248199
5.31483
0.0256708
2.02074
0.0505622
5.36568
0.305043
4.65481
0.0269546
0.0417962
0.121813
0.0299621
0.0254909
0.0308512
3.66447
0.166089
0.0252335
0.0554112
5.80329
0.0252802
0.0498116
0.0253146
31.4628
4.18312
0.0258274
0.0262252
0.0261101
6.27592
0.0252759
5.33878
4.59408
0.220928
4.26383
4.17999
0.0256647
0.0256335
0.0249967
5.32747
0.0261029
8.91179
0.0252726
0.0684505
0.0256838
0.0968614
0.025378
0.296362
0.123881
0.111349
0.229787
3.9025
4.25293
0.0253614
0.0929823
3.89466
0.0255417
0.366252
0.0255671
0.0531816
0.0309681
0.035269
0.0252839
4.36473
0.0256543
3.94916
0.0255806
4.33183
0.0506494
0.0253413
0.0251565
0.0866564
0.0418538
0.0269989
0.272845
0.0265991
0.095122
0.0908304
0.0526485
0.0252274
1.19586
0.219813
5.39603
0.217291
0.0252482
3.98518
0.320966
0.151639
0.0253381
4.56526
0.0346002
0.025066
4.90567
3.52646
0.0253078
0.0314729
0.025131
0.0502534
0.0617723
0.0875048
4.16079
4.10017
0.0636847
0.0254403
0.0292943
0.112683
0.025079
0.0984467
0.0251279
0.0256419
0.194252
0.0307342
0.028492
0.113793
0.0286521
0.0252009
0.0373124
0.146461
0.0252275
0.0283192
0.0254149
0.036353
0.102995
22.041
5.47279
0.301291
0.0249008
3.75411
0.0451318
0.0276491
0.0440663
0.0286035
0.0892728
0.0824871
3.7132
0.0254413
0.0253109
0.228055
6.54751
5.13681
0.0248997
0.0250805
0.0253619
0.0250696
4.48296
0.199247
0.0259576
0.0256064
8.86561
4.38952
1.51993
6.53189
0.0251076
0.0742583
0.0469951
0.0410585
0.134209
0.0250889
8.05033
0.146682
5.94747
0.025206
4.29412
0.4576
0.0256468
0.0522058
4.01566
0.0249224
0.0255976
4.24404
3.58807
5.23526
0.0259762
0.0259644
0.0255913
3.79861
4.52084
0.0516354
4.21723
0.0253108
4.36712
4.97916
0.0254629
3.71489
0.0256764
0.141671
0.170468
5.20349
0.0251153
0.0275977
0.0727907
5.84589
0.027037
8.21073
0.059801
10.4972
0.0555105
0.0269283
0.0252216
0.0553936
0.0254356
0.0249163
0.0248801
0.853241
0.0394788
0.0256701
5.57672
0.0351935
7.60026
0.0252323
0.0289074
0.107883
4.18217
0.0251544
0.0307875
0.0254351
6.88261
0.0272941
4.62176
0.0262392
0.0317735
4.5984
0.0254306
0.059249
0.025291
0.051162
6.57938
0.0253768
0.0252273
0.0254539
0.0290382
0.026272
0.0940892
0.0629634
0.185389
11.908
0.0252226
0.0251977
0.037273
4.28375
16.7987
0.432222
3.92839
0.0249357
0.0247941
3.89985
0.0284556
0.0298306
0.0463096
0.0281258
0.147511
7.79563
0.0253998
0.0253255
0.600836
0.0269887
0.123545
0.0252466
0.219371
1.2636
0.0253594
0.0252206
0.0446188
0.159904
4.75468
0.0286704
0.0754012
0.0254641
5.29579
4.54032
5.11307
3.64016
0.943187
0.0351738
0.0524192
7.10709
0.025317
0.17061
0.0249646
0.0267522
0.341927
0.0260243
0.0687687
0.0252245
0.173237
0.025566
0.298154
0.0421772
0.026452
0.0907177
0.157494
0.0255655
0.0290276
0.148939
0.0252113
6.61857
0.045962
0.0252448
0.254989
0.0280068
1.96028
0.0339066
4.88111
0.12274
0.998697
0.0948445
0.0767029
0.162322
4.46875
0.025448
0.0273563
0.0253114
0.0906385
0.0269878
0.0254623
0.0297203
0.0247886
4.88604
4.83718
0.0380539
0.0268576
0.0254875
3.4369
0.0276905
0.0376584
0.146771
0.299976
0.0256082
0.0251254
6.06561
4.15953
0.0305401
5.17397
0.0253173
5.8849
0.0253627
5.52335
0.0255793
0.302222
0.024995
2.0612
7.51603
0.0296472
0.027192
5.59637
0.0256138
0.025582
0.195825
0.173308
0.0435489
0.0256935
0.0841592
0.0301495
4.97236
0.0248221
0.0254575
0.025468
0.025077
0.0256723
5.52236
3.96247
0.0253582
3.64043
0.0902631
0.0257742
0.0246544
0.025303
0.0253034
0.0645721
0.166598
4.1111
0.0255607
0.0252283
3.75807
4.61392
0.032079
3.85088
3.91211
0.0413314
0.0253938
0.0253704
5.62679
0.156203
0.11158
0.0509581
4.01249
0.0256095
0.0959834
0.0251363
0.0662328
8.06509
0.0253267
0.315398
4.40093
0.232406
0.0271811
0.0251415
0.211098
0.112629
0.033556
4.54693
0.0675365
4.52025
8.01572
4.88504
10.3373
4.12301
5.09679
0.0708276
0.122136
11.8143
0.0253255
3.84674
6.4361
5.2811
3.63031
3.8995
0.0251176
4.44998
4.48857
0.0251112
0.0246835
0.0269525
4.66324
0.0254207
0.036704
0.0255927
5.01493
2.66365
0.0286592
0.0656518
0.0410272
0.0251202
0.0248602
0.0411239
0.0446982
0.494803
3.56526
3.59229
0.0253477
5.3768
3.39811
3.47721
0.0430858
0.0265007
0.037364
4.72754
0.149416
4.44753
0.177432
0.0254258
0.0251173
3.90427
0.0253987
4.63869
0.0250926
0.208129
14.6108
0.717225
0.0254865
16.3928
0.0251356
0.0260183
0.0254708
0.025336
0.094133
0.148628
0.0264393
0.236489
0.801554
3.66595
0.0252251
0.105938
0.173373
6.92287
0.0248862
0.0250308
7.17131
0.175204
0.44654
0.027963
0.0248685
3.76602
0.028678
0.0248478
0.0286478
0.319617
0.0251375
0.0256611
0.0253676
0.0248164
0.0673524
0.384368
3.58954
0.0247499
17.492
0.0257116
0.0267492
0.0256546
0.0408183
0.0302367
0.0295133
0.033058
5.06514
0.036876
0.0754726
0.0949015
13.7224
0.0529327
14.7224
4.88458
0.213858
0.0250601
0.264969
0.02494
0.0255505
0.0881846
0.0257726
0.0253157
0.0342051
0.313542
0.376056
0.0686443
0.025625
0.0252946
0.0314733
0.0347063
0.0253574
6.32173
4.65294
2.56907
0.0259855
5.44192
0.216437
0.0268482
0.0254378
0.0256481
0.0253721
4.4146
0.0253219
0.0367165
7.23788
3.6444
0.0248076
0.146471
0.249752
0.0250752
0.0579944
0.0259373
0.0260855
0.213535
0.353751
0.79654
0.0264012
0.0438163
0.151178
0.0269781
4.70293
0.0250981
0.0256923
0.113996
0.0248807
0.085485
0.137914
0.0273752
4.38784
0.0247138
0.118203
0.134098
0.0309619
0.0261344
0.0255813
0.0253444
1.28508
0.0250881
0.0269781
0.149031
0.041129
0.0252641
0.0283731
12.1136
4.90322
0.0683731
0.0246666
5.27706
7.19181
0.0245992
0.0274451
0.0319533
0.0250261
0.0255345
3.67984
0.0264168
4.00422
0.0600643
0.0253367
0.0253324
0.0251675
0.0252905
0.163514
0.0629949
0.0553368
0.221186
0.0254357
0.0249524
0.0594424
0.0836391
5.72475
0.0256091
0.028802
0.239818
6.3578
0.0255949
0.220761
0.0606524
5.70614
0.0254697
0.795466
0.0273171
0.39393
0.0482468
0.167873
0.026846
0.112084
4.49631
0.0280194
5.53354
0.0252895
0.0497275
0.0362728
0.210461
28.3256
0.0332
4.41853
3.056
0.0253326
4.05488
0.0253236
0.0655319
4.56734
5.05341
0.240574
5.46607
0.030877
0.0253547
0.0251684
0.0291651
0.31153
0.0425684
4.80624
3.90523
0.044145
0.72658
8.63488
0.0249524
0.396718
0.117335
0.0253016
0.0256756
0.0269228
0.027486
0.0253378
0.0417349
0.025403
0.0495807
0.0253327
0.159856
0.0251953
4.49553
5.03409
0.0248918
0.0262805
0.0299101
0.0254344
0.113932
0.0856232
0.0421016
0.0252277
0.0254725
0.0907334
0.233317
0.0256053
0.0270839
0.0252741
0.209436
0.0255995
0.0255202
0.117206
0.0269485
0.0261028
5.67726
0.430429
4.84948
0.0270286
0.0249655
0.0260021
4.9038
0.0369623
0.0254593
3.888
3.58527
0.0251955
0.185125
0.497671
0.0248177
6.8202
0.0256193
0.0249879
0.0286794
3.79795
5.34099
0.0347326
0.0405939
0.0526248
0.0269042
6.03602
0.0249272
0.02542
7.93707
0.0360972
0.0360833
0.0316028
0.0253336
4.06563
0.0251266
0.0722952
0.0253878
4.79664
0.0313705
3.8772
5.00262
3.65253
0.0254439
0.0255762
0.0547591
0.0246909
0.0407603
6.44473
0.0714548
0.0686425
4.56067
0.0287149
3.96811
4.45776
0.0251316
0.0256048
0.0256856
0.0248105
0.0251174
0.0248711
6.69971
0.0248975
0.0276206
0.025598
0.0315951
1.29787
0.0275279
0.308569
0.2092
0.0700317
4.57696
0.0266806
0.0251871
0.0426165
0.0254185
0.163942
0.250366
0.036756
0.318729
0.030873
0.0254357
0.163383
4.08015
0.12294
0.10852
0.34182
0.0256093
4.59602
4.58383
0.0255277
0.714337
4.10862
0.0277742
0.0407155
0.603932
4.32221
0.0251713
0.0286842
0.159976
4.63829
6.90566
1.79589
9.99772
0.144302
4.44171
0.0438609
0.0255903
0.0254625
0.0248457
4.39729
8.53892
0.0252773
0.0691043
0.0254135
0.0294909
0.303637
0.0251078
4.04978
0.024657
0.0253182
0.0262049
0.0253279
0.330389
0.0500172
0.0316261
0.104725
0.0252202
0.0248909
0.0320728
18.0945