/*--------------------------------*- C++ -*----------------------------------*\
| =========                 |                                                 |
| \\      /  F ield         | OpenFOAM: The Open Source CFD Toolbox           |
|  \\    /   O peration     | Version:  v2012                                 |
|   \\  /    A nd           | Website:  www.openfoam.com                      |
|    \\/     M anipulation  |                                                 |
\*---------------------------------------------------------------------------*/
FoamFile
{
    version     2.0;
    format      ascii;
    class       volScalarField;
    location    "100";
    object      p;
}
// * * * * * * * * * * * * * * * * * * * * * * * * * * * * * * * * * * * * * //

dimensions      [0 2 -2 0 0 0 0];


internalField   nonuniform List<scalar> 
27915
(
-0.0335183
-0.24913
-0.423893
-0.187256
-0.121148
-0.0483604
-0.284467
-0.159978
-0.113351
-0.0915999
0.14645
0.0473458
-0.30797
-0.108644
-0.109548
-0.0154395
-0.111484
-0.126264
-0.368615
0.0348602
-0.107186
0.014377
-0.110788
-0.0327766
0.000722054
0.00313572
0.0236238
0.168412
-0.183678
-0.388393
-0.226152
-0.0181997
-0.111677
0.0362177
-0.375935
0.0237079
0.0288015
-0.092485
0.245085
-0.063601
0.00450285
-0.0782228
0.0108391
-0.173662
-0.0994459
0.00617287
0.04339
-0.075948
-0.0286394
-0.0109139
-0.0770238
-0.170914
-0.108898
-0.0640042
-0.334946
-0.109956
-0.10536
-0.0125147
0.0137055
-0.272244
-0.0178534
-0.0612633
-0.160981
-0.352602
0.0239532
-0.0649955
-0.0723138
-0.249517
-0.105404
0.0848999
-0.082669
-0.387128
0.00382117
0.0019468
-0.0474344
-0.127576
-0.111109
-0.0266186
-0.428637
0.0476728
-0.0787544
-0.0641913
0.00305392
-0.0112467
-0.113641
-0.00869284
-0.0280326
0.0831189
-0.107444
-0.127709
0.029108
-0.109686
-0.016164
-0.223634
0.0858183
-0.0769271
-0.187514
-0.0605018
0.0198686
-0.144431
0.00989411
0.00622743
-0.398844
-0.0823534
0.00441842
-0.034786
0.0324501
-0.104061
-0.0715936
-0.090794
0.0191172
0.0414447
-0.106833
-0.103796
-0.341499
-0.0988353
-0.280826
0.0173087
-0.115043
-0.0116302
-0.252283
-0.115916
-0.168307
-0.12855
-0.0383474
-0.0114596
0.0407272
-0.114021
-0.0951949
-0.0255464
-0.0627809
0.00994312
-0.00900944
-0.424053
-0.103173
-0.423063
0.00424153
0.00236733
0.119347
-0.00851974
-0.204904
-0.269222
-0.0463742
-0.109516
-0.0968561
-0.0126153
0.00651919
-0.107215
-0.248495
-0.00940554
-0.00741838
-0.0241343
-0.103774
-0.112384
-0.16264
-0.0206936
-0.0307898
-0.0325095
0.0931121
-0.0482239
0.241998
-0.185839
-0.111522
-0.0285878
0.00375751
-0.0574352
-0.421472
-0.250117
-0.0302165
-0.243433
-0.182401
-0.0320818
-0.117418
0.00352108
0.024056
-0.118982
-0.0890963
-0.0334839
0.00657983
-0.340397
-0.0316185
-0.0731246
0.00334244
-0.231029
-0.106045
-0.116664
-0.14309
0.00478264
-0.423965
-0.0548449
0.029667
-0.109947
0.00495402
0.00416369
0.00405238
-0.106307
0.046525
-0.0916883
-0.42597
-0.284788
-0.201715
-0.113758
-0.0870476
-0.10877
0.0425943
-0.0657381
-0.105454
-0.0296449
-0.0536007
-0.137183
-0.344552
-0.0331116
-0.141234
0.0385196
-0.0870914
0.01864
-0.119625
-0.280925
-0.126498
-0.0722063
-0.10691
-0.105385
-0.212791
0.0194954
-0.0357328
-0.0944927
-0.148531
0.0330552
-0.339588
-0.0282461
-0.115379
-0.00812915
-0.402413
-0.0192933
-0.0321283
-0.0319112
-0.229597
-0.0494998
-0.115942
0.00230743
0.0255367
-0.184727
-0.370625
-0.117326
0.0166296
0.0806791
-0.101195
0.0377091
-0.312399
-0.10369
0.0140273
-0.0670953
-0.107369
0.00963584
-0.107262
0.0569531
-0.0670973
-0.0567851
-0.253606
-0.109882
-0.399218
-0.00178989
0.00360062
-0.0190762
-0.105853
-0.107901
-0.0147224
0.0191486
-0.141393
0.0420061
0.015329
0.0101957
-0.394496
-0.124732
0.0495762
-0.311136
-0.0473761
-0.107355
-0.105674
-0.294906
-0.105365
-0.11284
-0.017331
-0.1085
0.11761
-0.0233059
-0.188788
0.0443002
-0.116593
-0.400935
-0.102314
-0.108109
0.0305177
-0.225972
-0.0608983
-0.00693263
0.0303264
-0.368678
-0.213546
0.0352021
-0.117619
-0.00601178
0.142033
0.0106411
-0.101932
-0.18021
0.0182193
-0.335707
0.016854
-0.0955507
-0.351138
-0.10616
-0.150263
0.0436438
-0.266526
-0.00673537
-0.00964849
-0.00792366
-0.150314
-0.209663
-0.18834
-0.00396946
0.0607333
-0.0524993
-0.145551
0.0929892
0.00457288
-0.179798
-0.131102
-0.125246
0.031092
-0.32628
0.118598
-0.109182
-0.291752
-0.114918
-0.165182
-0.117087
-0.220826
0.0571764
-0.0308106
-0.087822
-0.14843
-0.21593
-0.224423
-0.343591
0.0151471
-0.067388
0.193682
-0.0482469
-0.185762
-0.118394
-0.106373
-0.0921745
-0.102389
-0.175689
-0.0691356
0.0347878
-0.106728
-0.0877071
-0.105511
-0.00583955
0.0283697
-0.255059
-0.177506
0.0172224
-0.327394
0.200743
-0.037378
-0.106629
-0.0759207
-0.10467
-0.00629013
0.0702054
-0.134892
0.0549528
-0.0347595
-0.0321535
-0.108355
0.082913
-0.165441
0.0473904
-0.101327
-0.180439
0.0157163
-0.0938888
-0.095913
-0.0859077
-0.307071
-0.203473
-0.10677
-0.0907451
-0.0905742
-0.114714
-0.0351765
-0.0965361
-0.36699
-0.219253
0.0449466
-0.124194
-0.152569
-0.0918444
0.0157624
0.0226785
-0.177981
0.0506658
-0.194239
0.0164096
-0.114913
-0.134646
0.00748001
-0.0727443
0.0169656
-0.0883095
-0.0512817
-0.280465
0.00697955
-0.253542
-0.0346337
0.00231192
-0.263346
-0.262418
-0.13297
-0.297326
-0.0837983
0.150423
-0.132771
-0.00611194
0.0328569
0.0470801
0.0968019
-0.0931387
-0.178596
-0.277184
-0.105718
0.0969475
0.0188167
-0.317394
0.00680852
-0.34718
0.0170083
0.00922052
-0.303002
-0.131362
0.00655799
-0.17558
-0.0874127
-0.106993
-0.0863179
0.0217792
-0.0471407
-0.0616493
0.0137415
-0.387949
0.0252826
-0.00593363
-0.417484
-0.000205709
-0.00593229
-0.119914
-0.337533
0.00137205
-0.121162
-0.0663345
-0.392028
-0.0661728
-0.253443
-0.173371
0.0278686
-0.119159
-0.128197
0.0115949
-0.105193
-0.010525
0.0243899
-0.167144
-0.267593
-0.328272
0.0464211
-0.106819
-0.096728
-0.132245
-0.323491
-0.104939
-0.0299142
-0.0192852
-0.0236502
-0.00729798
-0.10494
0.0531734
0.000756674
-0.063927
-0.336292
-0.0341041
-0.0736557
-0.0901537
0.0228158
-0.0648056
-0.16208
0.0946025
-0.0615715
0.00680002
-0.217196
-0.105384
-0.386671
-0.103991
-0.108364
-0.0149874
-0.102562
-0.0351247
-0.0113447
-0.0285088
-0.118061
0.0100399
-0.107675
-0.345016
0.0296856
-0.0626982
-0.164476
-0.107576
-0.0616314
0.00396388
0.0289285
-0.222847
-0.0722126
0.0227408
-0.109601
0.055278
0.0142795
-0.00293739
0.0551447
0.0131596
0.00998629
0.0214343
0.0538818
-0.0260633
-0.012388
-0.108936
-0.216918
-0.0737933
0.00648144
-0.0549113
0.00399556
-0.107949
-0.00706814
-0.0133794
0.0916597
-0.0175401
-0.106317
0.00461781
-0.321077
-0.107247
-0.109402
0.0109092
-0.104802
-0.105676
0.0247386
-0.0327154
-0.326725
-0.0253247
-0.132892
0.0223514
-0.292082
-0.0522336
-0.145403
-0.0865762
0.0253016
-0.105008
-0.311665
-0.0332173
0.0287836
0.0075707
0.0245109
-0.101992
0.0311112
0.0282843
-0.290139
-0.140431
-0.343895
0.00620207
-0.12332
-0.104773
-0.0119923
0.0193799
-0.109713
-0.057407
-0.0246634
-0.101995
-0.106981
-0.151246
-0.0600577
0.0125285
0.00336055
-0.36255
-0.11648
-0.0173977
-0.216767
-0.113026
-0.385799
-0.0656787
-0.293836
-0.39137
-0.352747
-0.0690508
-0.115646
-0.0862071
-0.0475826
-0.0111111
-0.0312846
-0.207883
0.00435889
-0.0321541
-0.0876579
-0.132764
-0.133153
-0.111582
0.103519
-0.0112672
0.00390408
0.088211
-0.0664144
-0.380468
-0.114224
-0.104202
0.00932575
-0.106056
0.0330721
0.019349
-0.119007
-0.0651611
0.0076639
-0.12151
0.0973871
-0.108188
-0.0681626
-0.108153
-0.109253
-0.220524
-0.149598
0.0238109
0.0237291
-0.000700544
-0.349208
-0.104523
-0.17842
-0.138952
-0.0923821
-0.351153
-0.0232541
-0.272754
-0.0137535
0.0551614
-0.0431991
-0.0281448
-0.244504
0.0318062
-0.0291255
-0.0527076
0.0285672
-0.350238
-0.0466448
0.010729
-0.0870354
-0.0611236
-0.0329593
-0.00676734
-0.0276291
-0.105639
0.0340471
-0.0287278
-0.0314035
-0.00914609
-0.0961939
-0.0118012
-0.0230462
-0.120616
0.0996804
-0.0437854
-0.381116
0.00423939
-0.109449
-0.103123
-0.161587
-0.181377
0.00670411
-0.137054
-0.0651033
0.0084447
-0.00335906
-0.090206
-0.0296164
0.0254869
0.0281948
-0.0234914
-0.355784
-0.200267
-0.119145
-0.205168
-0.227234
0.0287902
0.0242689
-0.122435
0.0480045
0.0279936
-0.106984
0.0336889
-0.111943
0.10038
0.102088
-0.0400712
-0.0117836
-0.393092
-0.00247223
-0.111008
-0.164769
-0.319113
-0.0881693
-0.104743
-0.0231849
0.00136337
0.0201442
0.0232624
-0.0681329
0.016011
-0.0642837
-0.0777314
-0.0671696
0.0496842
-0.133161
-0.337735
-0.0459437
0.00377562
-0.0108548
-0.0968859
0.0255106
-0.150116
-0.0810297
0.00325661
0.00790213
-0.105259
-0.124241
-0.0265186
-0.0654193
-0.111706
-0.0236332
-0.05066
-0.102655
-0.077604
-0.421692
0.00859508
-0.0670085
-0.0846304
-0.248146
0.0203338
0.0574053
-0.0930345
-0.0817343
0.0267806
-0.325359
-0.353388
-0.0666138
-0.38149
0.000433224
-0.363543
-0.0328552
-0.0937898
-0.111832
-0.15872
-0.0860135
0.0361807
-0.098705
0.0515755
-0.0604671
-0.0492733
0.00647908
0.0336048
-0.117885
-0.401794
-0.173408
-0.0949121
-0.0453652
0.0270788
-0.396505
-0.0210621
0.0197521
-0.25056
0.00314298
-0.0491479
-0.394441
-0.206932
-0.0471082
-0.0119511
0.00777261
-0.0767709
-0.392223
0.00369644
-0.25885
-0.115311
-0.082025
-0.113413
0.0572457
-0.129433
-0.0124432
0.0317511
-0.411845
-0.0209452
-0.220599
-0.0375575
-0.20745
-0.100017
0.0356876
0.0152939
-0.248859
0.0291506
0.0411726
-0.106544
-0.122075
-0.123798
0.0256314
-0.0145544
-0.213336
-0.109208
-0.382255
-0.305917
0.0277222
-0.0383321
-0.0232274
-0.161572
-0.220732
-0.162159
0.0237533
-0.107434
-0.0738718
-0.188136
-0.102008
-0.0108314
-0.30556
-0.10129
-0.304244
0.0288567
-0.152827
0.0501142
0.0208456
-0.0862667
0.0482866
-0.0682331
-0.0778859
0.00506323
0.151427
-0.0692396
-0.0278283
-0.0146837
-0.00805775
-0.110257
-0.101733
-0.361518
-0.0050216
-0.0768664
-0.138445
0.0872127
-0.104333
-0.115251
-0.115762
-0.344035
0.0106449
-0.129539
0.0253077
-0.108394
0.0745689
-0.0913556
-0.0295871
-0.105011
-0.0140903
-0.107486
-0.288608
0.0777487
-0.0925986
0.0542242
-0.363752
-0.0040436
0.00289448
0.0119084
-0.0513665
-0.0952803
-0.0118069
0.00436192
0.015687
0.154008
-0.384268
0.00628585
0.0043357
0.00637222
-0.0270476
-0.0375723
-0.116115
0.0103524
0.0273677
-0.110573
-0.0762154
0.00678071
0.0955276
-0.103249
-0.104335
-0.0206021
-0.00764513
-0.0394134
-0.00473717
-0.116036
-0.153754
-0.424567
0.0490545
-0.10392
-0.00341639
0.0254879
-0.0927991
-0.249877
-0.153404
0.00266266
-0.123709
-0.0458846
-0.0855833
-0.023651
-0.322431
0.00570439
-0.111885
-0.103722
0.0140642
-0.0888384
0.0663174
-0.0370109
-0.0672393
-0.0975824
-0.279626
-0.0780194
0.00256503
0.00552093
-0.153304
-0.0042473
-0.0108187
0.0311867
0.0102576
-0.027059
-0.0194907
0.00480452
-0.104895
-0.286439
-0.0309017
0.0534017
-0.11471
-0.108394
-0.101886
-0.121155
-0.322052
0.0144458
0.0323152
-0.0235115
-0.117367
-0.117033
0.0287574
-0.0263518
0.0568575
-0.155537
-0.20858
-0.112465
0.105609
0.0261967
-0.00785809
0.0258474
0.067248
-0.109605
-0.00368698
-0.108675
-0.00895848
-0.0115765
0.00708031
-0.22603
0.0972752
-0.105982
0.0303203
0.0854498
0.0458055
-0.0945928
-0.115261
-0.104044
-0.186543
0.0211792
0.0107207
-0.234786
-0.108346
0.144251
0.125114
-0.0232132
-0.0717754
-0.00959231
-0.112287
-0.105437
-0.126515
-0.146765
-0.0112072
-0.0103917
-0.0108455
-0.0259406
0.019535
-0.293134
-0.0300789
-0.0956908
-0.103417
-0.00131928
-0.0454955
-0.331657
0.01016
-0.0307438
0.0802147
-0.323226
0.0207797
-0.0288675
-0.296628
-0.105222
-0.392025
0.00288137
-0.00608359
-0.107219
-0.0633718
0.0112619
-0.0121162
-0.180465
-0.025071
-0.00348333
-0.100491
-0.257997
-0.0956638
-0.298377
-0.0194247
-0.0160668
-0.397141
0.0222786
0.0318749
-0.0235424
-0.107489
-0.0410751
0.0136218
-0.112723
-0.233472
-0.178119
-0.111594
0.0266022
0.0139409
-0.154428
-0.0923478
-0.0380959
-0.0326835
-0.00465455
0.0187423
-0.101396
-0.0625175
-0.234978
-0.0602491
-0.25192
-0.016476
0.0902508
-0.00422928
-0.212295
0.0164381
-0.347862
-0.0253441
-0.00658062
-0.107388
0.028054
-0.117771
-0.0624602
-0.0642305
-0.129886
0.00358232
-0.0110999
-0.0121474
-0.0268076
-0.1147
-0.103257
0.0301369
-0.134363
-0.123107
-0.110268
-0.0122491
-0.412024
0.0106457
-0.112624
-0.021247
-0.385178
-0.132213
-0.252879
-0.285327
0.0040023
-0.103303
0.0162477
-0.00564261
-0.0407434
-0.106836
-0.108111
-0.0776931
-0.0387641
-0.0841791
0.00465797
-0.0447839
-0.29943
-0.0262619
-0.104748
-0.101252
-0.317647
0.00361375
-0.0955362
-0.129008
-0.110543
-0.0256708
-0.0968726
-0.130258
-0.085157
0.00436037
-0.113019
-0.0897948
-0.000493172
-0.369382
-0.0823461
0.0259367
-0.243559
-0.299238
-0.0634755
0.0357317
-0.0237498
-0.135737
-0.11035
-0.0109892
0.004238
-0.0947038
-0.0410988
-0.358558
0.00467668
-0.107563
-0.0401685
-0.115956
-0.0174389
-0.0895482
-0.104528
-0.29184
-0.174437
-0.313893
0.0160318
-0.285044
0.0119157
-0.10673
-0.0475348
0.00426742
-0.108255
-0.276947
-0.103216
0.00282036
-0.104368
0.0145975
-0.0902228
0.0303715
-0.0334892
-0.369234
-0.0603571
-0.176654
0.0373236
0.0102098
-0.101924
-0.00143906
0.0670336
-0.0209457
-0.0434728
-0.0514289
-0.00957967
-0.0600841
0.129983
0.0158206
-0.0276279
-0.17346
-0.177377
-0.107049
0.124071
-0.0243608
-0.0974968
0.100103
0.0372508
-0.110356
0.0890954
-0.0614749
-0.1028
-0.0107045
0.275692
-0.204051
0.0107505
-0.125505
-0.117836
-0.183189
0.0185478
-0.00117266
0.0512748
-0.38694
-0.180919
0.0368964
-0.0256162
-0.105959
-0.044724
-0.156758
0.126279
-0.321446
-0.0507879
-0.0325844
-0.106905
-0.00361672
-0.114584
-0.202542
-0.0233457
-0.179989
-0.117145
0.175501
-0.157388
-0.151988
-0.200713
-0.364843
-0.106514
-0.341553
0.0238883
-0.0101505
-0.253892
-0.11438
-0.144691
0.0921356
0.00965993
0.0248794
0.0935572
-0.421507
0.0206548
-0.12849
-0.103654
-0.160699
-0.24781
-0.0123575
-0.279807
0.0203959
-0.317958
-0.109013
-0.0889397
-0.0206918
-0.0392389
0.00804707
-0.106928
-0.104077
-0.288235
-0.110155
0.0468028
-0.169706
-0.425537
0.019147
-0.0877057
-0.0765274
-0.104531
0.00713759
0.0395877
0.0102359
-0.0164485
0.0194376
-0.0684744
-0.376735
-0.0920481
0.0420231
0.00559339
-0.10654
0.0230959
-0.363999
0.017698
0.0255236
0.0273189
-0.118968
-0.311464
-0.106241
-0.116875
0.00480135
0.0431926
-0.21199
0.00900299
0.0287867
-0.161095
0.00904622
0.00580786
0.0822101
-0.322441
-0.10981
0.0264716
-0.251156
0.265281
-0.160308
-0.0275031
-0.393526
-0.210739
0.0363257
-0.0928251
-0.153437
-0.0186769
0.0100825
-0.106696
0.000712064
0.00375682
0.0229405
-0.0327211
-0.202705
0.00844419
0.129625
0.0186371
-0.338227
0.0258113
-0.106036
-0.317659
-0.106473
-0.0118043
0.0328157
-0.1945
-0.0729453
-0.0986592
0.0769336
-0.345468
-0.0239356
0.0634408
-0.00276816
0.00042243
-0.247861
-0.020718
-0.107943
0.00310121
0.0220843
-0.142578
-0.376637
0.0373862
-0.132059
-0.178076
-0.0263012
-0.0250649
-0.0508091
-0.392838
0.0187277
0.0299726
-0.202124
-0.10556
-0.104773
0.00261421
-0.10335
0.00858387
-0.14861
-0.282319
-0.424711
0.00257835
-0.10855
-0.014142
-0.120207
-0.315445
-0.39535
-0.228484
0.0432701
-0.0304403
-0.103653
-0.1044
0.0289002
-0.0207148
0.127738
-0.105923
-0.0336126
-0.0181344
-0.118096
0.0240436
0.0287778
-0.200366
-0.258483
0.0843499
0.000503696
-0.10361
-0.24604
-0.106028
0.0252653
-0.423747
-0.137017
-0.0637014
-0.0275112
-0.0073144
-0.0116849
0.0259062
0.0180891
-0.181746
-0.121437
0.0156316
0.00887839
-0.265743
-0.0185082
-0.106296
-0.17394
0.00923627
-0.112148
-0.206687
-0.0673853
0.00828715
-0.252481
0.0546078
0.019182
0.00474144
-0.0664392
-0.0711399
-0.00767138
-0.105032
-0.00808013
0.0276616
-0.111862
-0.108434
-0.104008
-0.107288
-0.226458
-0.3605
0.0347805
-0.0886633
-0.102692
-0.0843589
8.28879e-05
-0.233966
-0.110751
-0.0341659
0.0566851
-0.142922
-0.10601
-0.174785
-0.0482815
0.0187523
-0.035177
-0.105946
-0.0896939
0.0254873
0.0287767
-0.31394
0.126449
-0.122948
0.0169614
0.0260862
-0.11555
0.00815587
-0.0723245
-0.398871
-0.409521
0.0467099
0.022596
-0.299537
-0.197418
-0.103728
-0.370972
-0.0572883
0.0604107
-0.0925403
-0.0630492
0.0119675
-0.00367671
-0.244085
-0.0386214
-0.10308
-0.239774
-0.108668
-0.104936
-0.102362
-0.158001
0.0409889
-0.102055
-0.0900149
-0.232098
-0.225507
-0.390843
-0.161924
-0.0671531
-0.0715684
-0.112831
0.043897
-0.112057
-0.0328164
0.0925722
-0.196194
-0.413733
-0.0998033
-0.00711448
-0.322599
0.184562
-0.107257
-0.100426
0.0123154
-0.386329
0.0191053
-0.200776
-0.319662
-0.108645
-0.145871
-0.0111963
-0.194517
-0.126562
-0.10844
-0.310538
0.0117697
-0.12163
0.0451566
-0.148908
-0.000170026
0.0110788
-0.105884
-0.17142
0.0191225
-0.00632316
-0.00749204
0.00653658
-0.104857
-0.102645
-0.101526
-0.0320799
0.0210091
0.00423714
-0.011181
-0.102789
-0.108629
0.0731884
-0.26254
-0.204424
-0.0749013
-0.0410485
0.00979798
-0.328337
-0.33245
-0.226683
-0.0333517
-0.122128
-0.233619
-0.257485
0.0105808
0.000261013
0.0197383
0.017865
-0.108755
0.0503028
-0.0717083
-0.0565621
-0.287554
-0.231779
0.077164
-0.0154847
0.0853027
0.0293343
-0.127836
-0.103919
-0.0234222
-0.0195514
-0.0115261
-0.00809914
-0.100677
-0.162974
-0.0376598
-0.0309536
-0.024974
-0.0997949
-0.240056
-0.025248
-0.0505454
-0.10787
0.0262035
-0.0863359
-0.00397349
-0.0425059
0.0219138
0.0160834
-0.0851559
-0.0843762
-0.0461518
0.0138781
0.000329884
-0.116044
0.036312
0.0314024
-0.033301
0.0117798
0.03784
-0.0554945
-0.0873913
0.0111057
-0.0719025
-0.0947856
-0.00842311
0.0212579
-0.248514
-0.131674
-0.332528
0.00575481
-0.384025
-0.420215
0.0232209
-0.0310944
-0.117511
0.0187228
-0.103628
-0.159924
-0.120861
-0.267214
0.00997538
-0.126765
-0.147625
-0.224365
-0.140775
-0.0103582
-0.0125018
-0.104016
0.0375633
-0.385822
-0.0579332
-0.0345085
0.0925583
-0.0413408
-0.0200191
-0.329373
-0.108399
-0.103702
0.0540772
-0.305904
-0.0099987
0.026556
0.00871125
0.0162114
-0.255406
-0.134269
0.0584965
0.0652533
0.0228017
0.0592554
-0.334378
0.0503869
-0.106526
0.0937912
0.0869977
0.00459325
-0.166374
0.0223041
-0.057397
-0.401699
-0.103326
0.00410714
-0.0121215
0.0460337
0.00816692
-0.0792541
-0.391785
0.00801616
-0.0235301
-0.0599687
-0.00389451
-0.10671
0.0473386
0.0300513
0.00959824
-0.106603
-0.105519
0.100758
-0.402028
-0.0993628
-0.097416
-0.103172
-0.170527
-0.113264
-0.182586
-0.108601
0.0161494
0.000877038
0.0904523
-0.105718
-0.104049
-0.103034
-0.0100166
-0.145905
-0.0151053
-0.0246533
-0.00637795
-0.126013
-0.144268
0.0141614
-0.111413
-0.0310814
0.0289614
-0.11071
0.010615
-0.287053
-0.0190587
-0.218205
-0.020663
0.121683
0.00446828
-0.0304193
0.00517329
0.00500629
-0.107493
-0.10723
0.0370636
0.010228
-0.369053
0.0185181
-0.0959415
-0.40097
-0.373736
-0.0495554
0.0560388
-0.273139
-0.113552
-0.108875
-0.073956
0.0248615
-0.39132
0.00499923
-0.34135
-0.0466192
-0.291624
0.0188578
-0.160846
0.00142573
0.0441794
-0.0805238
-0.103585
-0.240685
-0.0476644
0.00520647
-0.104587
-0.112964
0.00193751
-0.104935
-0.039965
0.0427379
0.0318331
-0.259296
-0.0290644
-0.117628
0.0249945
-0.192153
-0.409785
-0.000481655
-0.107889
-0.0340377
-0.132832
-0.20352
0.0181506
0.0218029
-0.375301
-0.0346622
-0.131117
-0.286885
-0.148642
0.00826745
-0.0120367
-0.168547
0.0421581
-0.0400206
0.0163852
-0.109898
-0.0107626
0.0690867
-0.0590689
-0.391503
-0.0506646
-0.0157963
-0.000754545
-0.108353
-0.0337573
-0.290609
-0.0873428
-0.112311
-0.0222263
-0.120147
-0.265466
0.0174813
0.0048349
-0.102902
-0.105432
0.0229569
-0.299733
-0.199419
-0.0611252
-0.10341
-0.115604
0.0368179
-0.0917047
-0.0654329
-0.0668742
0.0297092
0.0240078
0.0781748
-0.15143
-0.254322
-0.0495061
-0.106291
-0.208899
-0.0260789
-0.236173
-0.113475
-0.107021
-0.106684
0.0716184
-0.107463
-0.105425
-0.0422916
0.0255558
-0.00806509
0.0710059
-0.155133
-0.104785
0.0374353
-0.0813006
0.00344334
-0.105759
-0.0438544
0.0232137
-0.139249
-0.138552
-0.0244005
-0.00567163
-0.39451
-0.370719
-0.206928
-0.0207118
-0.086191
-0.105359
-0.0151053
-0.203123
0.0173165
-0.0656013
0.0515737
0.005297
0.0672558
-0.108644
0.162004
-0.106089
0.0088552
0.0208948
-0.0153694
-0.178454
0.0233276
-0.0202513
-0.127086
0.0261175
-0.197038
-0.0809324
-0.107342
-0.0518338
-0.326466
-0.266634
-0.0939458
-0.0587003
-0.143249
-0.128832
-0.412402
-0.106332
-0.0647958
-0.104038
0.0135624
-0.0590947
-0.124254
-0.000766864
-0.0747106
0.0260172
-0.206414
-0.00112179
-0.153034
0.148127
-0.103543
-0.0407754
-0.0580259
-0.0945356
-0.0682143
-0.223351
-0.3864
-0.203966
0.023489
-0.169953
-0.327301
0.00442969
-0.10434
0.0187951
-0.137945
0.0621717
-0.0549303
-0.0168815
-0.088445
-0.222673
-0.070931
0.0105116
-0.121773
-0.384766
0.0547434
0.00925448
-0.385659
0.0285429
-0.165494
0.0773714
-0.107089
-0.24629
-0.199382
-0.327709
-0.0863304
-0.207386
-0.0315217
-0.0467315
-0.163141
-0.00466343
-0.107677
-0.284066
-0.113824
-0.107886
-0.0634557
-0.0155317
-0.106423
-0.422121
0.0107648
-0.0803506
-0.0933638
-0.310898
0.0137519
-0.106737
-0.102642
-0.111217
-0.26627
-0.0167397
0.0250874
-0.0117269
0.0453572
-0.333729
-0.335556
-0.110266
-0.422275
-0.20275
0.027279
-0.0115373
-0.24553
-0.368197
-0.105934
0.0808121
-0.100612
-0.301449
-0.063145
-0.0881629
0.00886896
-0.385245
0.00528964
-0.145477
-0.188519
-0.295036
-0.024299
-0.103501
0.00360371
-0.089259
-0.131564
-0.00396532
-0.204325
-0.0479273
-0.104419
-0.376205
-0.102474
-0.106076
0.165532
-0.011886
0.00873594
-0.0234797
0.00386733
-0.10173
-0.105999
0.0114897
0.00909434
-0.412409
-0.11277
-0.0118618
-0.0697404
0.00437008
-0.113344
-0.110216
-0.0969684
0.0169055
0.044771
0.0102081
-0.0500172
-0.178392
0.00925987
-0.0999102
-0.284652
0.0216979
-0.106884
-0.341826
0.0279708
-0.204001
0.00595816
-0.422025
0.196114
-0.256287
-0.0887207
-0.179677
-0.00647193
-0.272844
-0.0973996
-0.00549467
-0.0379469
-0.0430546
-0.000414824
0.0217751
-0.111926
-0.109092
-0.0537313
-0.24001
-0.182426
-0.0200137
-0.125268
0.0602825
-0.114263
-0.115468
-0.102936
-0.113274
-0.198355
-0.304554
-0.242791
-0.176196
0.0259809
-0.106509
-0.101879
-0.10719
-0.10115
-0.147843
0.0158165
0.0147808
-0.0225577
-0.0151652
0.0242049
-0.116825
-0.0167755
0.0548525
0.0485726
0.168956
0.0136599
-0.00506762
0.0182903
-0.0820049
-0.0340278
-0.0308356
0.0323091
0.0116543
-0.0820799
0.0629218
-0.0207599
-0.103288
-0.0250847
0.00365038
-0.077202
-0.0385779
-0.0336076
-0.00315333
-0.11188
-0.0978247
0.023075
0.00268694
-0.0279991
0.0137726
-0.289838
0.120686
0.0260447
-0.387023
-0.0172127
-0.103177
-0.201234
0.0147196
0.201906
-0.069761
-0.318971
-0.158073
-0.0106987
-0.11334
-0.0322734
0.0301032
-0.177952
-0.360156
-0.0303257
0.0522265
0.00442341
0.109653
-0.0152105
0.0137373
-0.145206
-0.110447
0.0770068
0.00674739
-0.299703
0.047988
-0.106127
0.0196468
-0.232391
-0.0757497
-0.178242
0.0187003
-0.324388
-0.103957
-0.044043
-0.102064
-0.183563
0.00842734
-0.419453
0.010657
0.0243937
0.027612
-0.0672285
-0.034243
-0.103713
0.0063164
0.0782099
-0.00847494
-0.369029
0.0294612
0.03489
-0.0238029
-0.142203
-0.0208407
0.0220749
-0.00619209
0.0105596
-0.103716
0.00349411
-0.205384
-0.423685
0.00324653
-0.336904
-0.134635
-0.0925569
-0.421192
-0.336064
-0.109662
-0.24355
-0.173867
-0.192461
-0.063942
0.0214149
0.0399849
0.0482156
-0.108132
0.0265119
-0.0789406
-0.111758
-0.0251135
-0.384975
-0.100607
-0.288804
0.0290533
-0.0663406
0.0314304
-0.0210334
-0.114579
-0.102593
-0.098502
-0.240374
-0.107305
0.00404196
-0.320008
-0.0825233
-0.115393
0.0415777
-0.0124875
-0.107739
-0.109839
-0.0310587
0.065619
0.025375
0.00908825
0.0247039
-0.0435468
-0.107745
-0.0354818
0.000307394
-0.344194
-0.10749
-0.00731385
-0.0589283
-0.00363272
-0.385317
0.00011723
0.00842327
-0.138763
-0.358524
0.0229183
-0.0644536
-0.389697
-0.0715613
-0.16005
-0.0858156
-0.00513526
-0.167546
0.0300512
-0.276487
-0.307296
0.0121434
-0.236093
-0.00906695
-0.0760905
0.0224987
-0.0512493
0.0412404
-0.139346
0.027492
-0.00327324
0.0505215
-0.0594969
-0.126669
-0.101441
0.0417014
-0.00866023
-0.011873
0.022147
-0.119107
-0.104796
-0.304625
-0.0740095
0.0046999
0.00136767
-0.0238742
-0.0712854
-0.208741
-0.0618902
-0.180137
-0.109823
-0.200677
-0.22885
-0.0353366
0.0574234
-0.0177031
0.0282568
0.0146608
0.0736978
0.00830962
0.00293697
-0.0166153
-0.296385
-0.163074
0.00943335
-0.127101
-0.0189042
-0.106177
-0.103353
-0.0717473
-0.105314
-0.336101
-0.0592186
-0.382886
-0.273445
0.0181213
-0.110346
-0.110517
-0.1044
-0.114059
0.0083314
0.0166769
-0.0242896
-0.124981
-0.118031
-0.145073
-0.205648
-0.105737
0.00817536
-0.332182
-0.280521
-0.10901
-0.195182
0.0149886
-0.165173
-0.0894484
-0.134552
-0.109261
-0.377905
0.0438888
-0.0314162
-0.180723
-0.187575
-0.0193471
-0.133174
-0.322768
-0.169358
-0.103681
-0.179275
-0.295281
-0.109649
-0.272502
-0.0475334
-0.0960207
-0.114232
0.118372
-0.10987
-0.0107016
0.0867575
-0.269229
0.0185119
-0.0172267
-0.0170194
-0.0817012
0.0256483
0.00567167
-0.135708
0.0220761
-0.369178
-0.318032
-0.34335
-0.332444
0.0142519
-0.102185
-0.0133607
-0.0898421
-0.220499
0.00841959
-0.281943
-0.231498
-0.109578
-0.00530537
-0.240902
-0.107512
-0.317971
-0.126969
0.0368887
-0.0299033
-0.0353809
-0.328793
-0.0791906
-0.0616174
-0.186435
0.0537809
0.0183173
0.00398744
-0.296977
0.00200974
-0.099277
-0.0207908
-0.398592
-0.0320037
-0.345817
-0.127719
-0.123923
-0.106079
-0.398207
-0.0485912
-0.0920818
-0.202544
0.0128493
0.047373
-0.0765174
-0.109116
-0.235367
0.0171057
-0.135367
-0.421623
0.0222908
-0.11979
0.0163808
-0.41396
-0.106884
0.0644204
0.0269609
-0.0450562
-0.183317
0.0254169
-0.122207
-0.24734
-0.244008
-0.1485
-0.102319
0.0247671
0.0237819
-0.0224922
-0.320828
-0.0472843
-0.341937
0.00404139
-0.119292
-0.028423
-0.108011
-0.00999979
-0.12538
-0.127138
-0.201301
-0.104208
-0.103996
-0.110676
0.0453177
-0.184395
-0.107307
0.00618744
-0.236331
-0.0393447
-0.123895
0.013599
-0.0735773
0.00845709
-0.141457
0.00891343
-0.103362
0.00727605
-0.105866
-0.120275
0.0425371
-0.000346757
0.255677
0.00825567
0.0395462
-0.270422
-0.0459055
-0.163449
-0.112919
-0.113553
0.0160533
-0.106155
-0.0456823
-0.116971
-0.102976
0.00146412
-0.133396
-0.157287
-0.106893
0.0405666
-0.402421
-0.0388662
-0.0117751
-0.106888
-0.109406
0.0321017
0.0600643
0.000540472
-0.0840045
-0.0937335
-0.149448
-0.161788
-0.133877
-0.124427
0.0131382
-0.0601706
-0.11899
-0.0185339
-0.1911
-0.0108726
0.00732782
-0.104054
-0.0769454
-0.062177
-0.203924
0.0700078
0.0108491
-0.0774309
-0.101116
0.0156939
-0.0649404
0.051271
-0.0728193
-0.0900296
-0.417151
-0.103922
-0.129302
-0.0127073
-0.107614
-0.0924662
0.0938684
-0.0818371
0.0633442
-0.115073
0.158382
-0.104316
-0.037246
0.0330285
-0.103883
-0.271908
-0.369447
-0.0130465
-0.00294583
0.0451964
-0.00606694
-0.146141
-0.243205
0.0586456
0.0184139
-0.338671
-0.108306
-0.327797
-0.245194
-0.00235725
-0.052488
-0.119625
-0.10409
-0.132856
-0.0117641
-0.321016
-0.222307
-0.399321
0.00167892
-0.141068
-0.201566
0.00876009
-0.0940954
-0.105359
-0.0150317
0.0064458
-0.112009
-0.108027
-0.110558
0.0675632
-0.0108359
0.00735252
-0.103742
-0.28596
-0.129741
-0.107021
0.0286426
-0.102565
-0.365094
0.00533665
-0.103931
0.00675996
-0.208433
-0.192219
-0.317128
-0.00172903
-0.0601708
-0.084859
-0.1628
0.0193185
-0.41135
-0.0333603
-0.386135
-0.1353
-0.0497818
0.0137648
-0.0798029
0.0128188
-0.0149514
-0.0239968
-0.0605472
0.163703
0.00677242
-0.131393
0.119001
-0.420879
0.0104779
-0.0280753
-0.131019
-0.119669
-0.0309762
0.103635
0.0133564
-0.284036
0.0441998
-0.401786
-0.0456838
0.122033
-0.114252
0.00592361
-0.0927196
0.0136897
-0.0970728
-0.367668
0.0436902
0.00934385
0.02473
-0.0292862
0.0513695
-0.18669
-0.146412
-0.240375
-0.421904
0.00840574
0.00360704
-0.0722756
-0.105673
-0.419291
-0.108163
-0.114736
-0.0257493
-0.0113654
-0.114197
-0.059168
-0.0615322
0.192749
-0.0587773
-0.224562
-0.401206
0.0207207
0.039328
-0.281703
-0.0481887
-0.0937761
0.00456403
-0.057607
0.0710327
0.0139288
0.00320898
-0.110276
-0.13261
-0.399946
-0.0639264
-0.12873
0.00539286
-0.425291
-0.284093
-0.316122
-0.110853
-0.251136
-0.0727423
-0.0816558
-0.302959
0.0280401
-0.16557
-0.0118703
-0.00616671
-0.114181
-0.0465155
-0.154127
0.00537066
0.0742356
0.0255304
-0.106377
-0.0848439
-0.0455782
-0.114665
-0.129889
0.0439784
-0.0622674
-0.225376
0.000190524
-0.286269
0.0484994
0.00940654
-0.20578
-0.0527474
-0.331568
-0.0881671
-0.288372
-0.129959
-0.329072
-0.129232
-0.157363
-0.231077
-0.11909
0.00627578
-0.0574022
0.0164585
-0.155114
0.018198
0.00541535
-0.0622573
-0.0212001
-0.106003
-0.103208
-0.0703922
0.0249209
0.0194926
-0.110408
0.0874965
-0.018789
-0.222271
-0.106385
-0.038547
-0.000846433
-0.176183
-0.157501
0.119374
-0.101252
0.0139738
-0.162534
0.00893084
-0.203156
0.0167406
-0.123551
-0.022886
-0.278825
-0.306469
0.00701372
-0.0101191
-0.133081
0.0217765
0.00983993
-0.102932
-0.19541
-0.107847
0.0249144
0.16668
0.100601
-0.204235
-0.0148235
-0.0380707
0.00543593
-0.00309643
0.0248551
-0.108127
-0.120469
0.0114974
-0.107646
0.00183901
0.02749
-0.0165001
-0.0281743
0.0221006
-0.149703
-0.11604
-0.163609
0.0212393
0.0150482
-0.105641
-0.101405
-0.0700451
-0.114009
-0.119556
0.0748271
0.0259865
0.0179584
-0.402046
-0.217921
-0.10355
-0.10724
-0.102896
-0.0385787
-0.106529
0.00104698
-0.151552
-0.34971
0.0343189
-0.136932
-0.101903
-0.23212
-0.00794348
-0.00158245
-0.104399
-0.140995
-0.0604424
-0.359838
-0.00293939
-0.104718
-0.321077
-0.104452
-0.366214
-0.172039
-0.24689
-0.0384404
-0.0928442
-0.37681
0.0237992
-0.115557
-0.401619
-0.336314
-0.106534
-0.360078
-0.00187151
-0.106127
-0.13105
-0.01894
-0.0152986
0.0322862
-0.119612
0.00578219
-0.0646848
0.00637385
-0.359465
-0.11116
0.0661787
-0.0944098
-0.0851122
-0.0179096
-0.0147175
-0.0838094
-0.110725
-0.182615
-0.109686
-0.109872
0.0230338
-0.178015
-0.111166
-0.109993
-0.0808811
-0.0368156
-0.095756
-0.391586
-0.227455
-0.114009
-0.17605
0.0121331
-0.03091
-0.110012
0.0223959
-0.39989
-0.00248689
-0.252023
-0.393021
-0.314807
0.015907
-0.421112
-0.019275
-0.0209077
-0.0244585
0.0377093
-0.168504
-0.201671
-0.048524
-0.114637
-0.321134
-0.11107
0.0140802
-0.0988709
-0.1963
-0.33783
-0.0240016
-0.00452084
-0.306198
-0.199513
-0.0174215
-0.0499147
-0.0151784
-0.299557
0.0591791
-0.0234429
-0.0664646
-0.11085
0.00107613
0.0190182
0.0112726
-0.0154262
-0.122989
-0.270077
-0.111551
-0.0144428
-0.405483
0.0283605
-0.0459907
0.0100357
-0.104642
-0.0762562
-0.0728718
-0.0678977
-0.101538
-0.092705
-0.1277
-0.11165
-0.40324