/*--------------------------------*- C++ -*----------------------------------*\
| =========                 |                                                 |
| \\      /  F ield         | OpenFOAM: The Open Source CFD Toolbox           |
|  \\    /   O peration     | Version:  v2012                                 |
|   \\  /    A nd           | Website:  www.openfoam.com                      |
|    \\/     M anipulation  |                                                 |
\*---------------------------------------------------------------------------*/
FoamFile
{
    version     2.0;
    format      ascii;
    class       surfaceScalarField;
    location    "100";
    object      phi;
}
// * * * * * * * * * * * * * * * * * * * * * * * * * * * * * * * * * * * * * //

dimensions      [0 3 -1 0 0 0 0];
oriented        oriented;


internalField   nonuniform List<scalar> 
41582
(
-0.229798
0.178372
0.051426
0.00536453
0.0673433
-0.0727078
0.00582374
-0.00369138
-0.00213236
0.00107118
0.00217993
-0.00325111
0.0107967
0.0839184
-0.0947151
0.111349
-0.219792
0.108443
0.018658
0.00834513
-0.0270031
0.112674
-0.101509
-0.0111648
-0.104433
0.098773
0.00566003
0.0370656
-0.103029
0.0659635
-0.00775069
-0.0620599
0.0698106
0.0172886
-0.148401
0.131112
0.090649
-0.0862828
-0.00436627
0.018581
-0.015859
-0.00272202
-0.0278137
0.0259817
0.00183193
0.019668
0.114293
-0.133961
0.0380941
-0.0368556
-0.00123856
0.0995757
0.0110459
-0.110622
0.00904385
0.0329479
-0.0419917
0.0393846
0.103818
-0.143203
0.00197109
0.0166099
0.0813865
-0.202426
0.121039
0.041027
-0.00293282
-0.169343
-0.0604556
0.470086
-0.24287
-0.227216
-0.135339
0.285895
-0.150556
0.270619
-0.123198
-0.147421
0.0422113
-0.0189019
0.00400806
-0.00293688
0.00062685
0.00112837
-0.00175522
0.0701972
-0.084146
0.0139488
-0.373122
0.107874
0.265248
0.0375187
-0.0342425
-0.00327615
-0.0862419
0.125626
-0.0200792
0.029123
0.168854
0.101765
-0.118497
-0.0714003
0.189897
0.13501
-0.139829
0.00481852
0.0549691
-0.0109375
-0.0440316
-0.146572
0.145579
0.0009933
0.459783
-0.260385
-0.199398
0.139177
-0.14184
0.00266295
0.361925
-0.19325
-0.168674
0.0735528
-0.0902733
0.0167205
0.0496364
-0.0690762
0.0194398
-0.405928
0.0683512
0.337577
-0.110911
-0.0691314
0.180043
0.00265644
-0.125271
0.122614
-0.267965
0.207123
0.0608419
0.111354
-0.227358
0.116003
0.124841
-0.122185
0.0846414
-0.0110887
-0.0721394
0.0820419
-0.00990253
0.163165
-0.113275
-0.0498901
-0.0662706
-0.0013823
0.067653
0.00247004
-0.00313901
-0.0230333
0.0295518
-0.00651849
-0.52247
0.196733
-0.115346
-0.00272499
0.00233988
0.000385107
-0.116557
-0.256565
-0.0922007
0.00712009
0.0850806
0.0230478
-0.0893071
0.0662593
-0.0531775
0.0782084
-0.0250309
-0.296878
-0.00570004
0.302578
-0.171268
0.151279
0.0199892
-0.00773244
0.0981775
-0.0904451
-0.0615032
-0.0158135
0.0773166
0.0247075
-0.0283327
0.00362522
-0.0160581
0.0918518
-0.0757938
-0.143919
0.128979
0.0149397
0.000861703
-0.000234853
-0.416468
0.243728
0.17274
-0.144328
0.290873
-0.146545
-0.129176
0.112536
0.0166406
0.103356
-0.117629
0.0142734
-0.0839283
0.0121749
0.0717534
-0.116266
0.118931
-0.00266522
0.000244032
0.167286
-0.162994
-0.00429231
0.126782
0.0123946
0.0165931
-0.271031
0.135692
0.240474
-0.129119
-0.000980271
0.314759
-0.107907
-0.206853
-0.198324
-0.0696407
0.0882383
-0.104296
-0.000200621
-0.0573922
0.0575928
0.0155442
0.0917227
-0.107267
-0.229973
0.13841
0.0915626
0.000711401
0.0481302
-0.0488416
-0.133108
0.152776
0.0829212
-0.012724
0.120861
-0.124678
0.0038172
0.133999
-0.009158
0.0103537
-0.0553191
0.0449655
-0.0162222
-0.130318
0.14654
-0.122703
0.244628
-0.121925
0.0250444
-0.00384327
-0.0212012
-0.115646
0.306165
-0.190519
-0.433974
0.0280458
0.0198914
-0.00540102
-0.0144903
-0.017137
-0.454153
0.245087
0.209066
0.102549
0.112661
-0.21521
0.176389
0.112839
-0.289228
-0.0803469
0.093955
-0.0136081
-0.0667238
-0.0189138
0.0856376
-0.0559468
0.0930124
0.384151
-0.17952
-0.204631
0.18214
-0.0601135
-0.122027
0.0513429
-0.0515435
-0.00957479
0.0128244
-0.0032496
-0.00952733
0.0596298
-0.0501025
-0.0177078
-0.00813819
0.0267962
-0.101657
0.214878
-0.11322
-0.114504
0.109589
0.00491467
-0.471059
0.233202
0.237857
0.0524788
-0.0723606
0.0198818
0.111094
-0.123516
0.0124224
0.0780752
0.000398767
-0.0784739
0.120869
-0.021293
-0.165136
0.174752
-0.00961598
-0.192746
-0.278313
0.0638833
0.118257
0.0286637
-0.0324675
0.00380381
-0.0712892
-0.00839035
0.0796796
-0.123028
0.143787
-0.0207593
-0.161335
0.0480598
-0.354026
0.209055
0.14497
0.0323229
0.282437
0.00362715
0.00219659
-0.00642896
0.00578085
0.00227502
0.270208
0.189575
-0.282566
0.138239
-0.109023
0.0531246
0.0558988
-0.347805
0.239898
-0.00556909
0.00302746
0.00254163
-0.0012293
-0.00149569
-0.0860269
-0.0883635
0.17439
-0.0252781
-0.00253557
-0.0881219
0.00777501
-0.237009
-0.285461
-0.129719
0.182727
-0.0530077
-0.0265979
0.0327815
-0.00618362
-0.0264947
0.0789735
0.49857
-0.293221
-0.20535
-0.45218
0.456446
-0.00426652
-0.11909
0.00282446
0.0685103
-0.0692899
0.00077955
0.000663086
-0.058047
0.0810948
-0.0805079
-0.0385822
-0.0562547
0.209357
-0.153103
-0.254691
0.216561
0.0381301
0.115645
-0.121135
0.00548975
-0.0447465
0.166587
-0.121841
0.0255481
0.029421
-0.0961492
0.0926169
0.00353233
-0.0870758
0.00314749
0.0899952
0.117128
0.208597
-0.198153
-0.0104446
-0.182583
0.18203
0.00055258
0.00172046
-0.0104218
0.0832665
-0.0728446
-0.232629
0.176374
-0.0751209
0.0804855
-0.0411936
0.0182164
0.0229772
-0.192846
-0.0618452
0.014755
0.026272
0.381163
-0.406131
0.0249677
0.119788
-0.0474399
0.0711596
-0.0237197
-0.0939787
-0.0034539
0.0974326
0.088288
0.0900843
-0.179592
0.0498728
0.0688708
0.00735796
-0.0762288
-0.112401
0.232938
-0.120537
0.0868695
-0.094602
0.427524
-0.0463613
0.0485829
-0.0666371
0.0180542
-0.0131222
0.00354741
-0.00341024
0.0798029
0.0150475
-0.0948504
-0.52077
0.355513
0.165257
-0.00562244
0.0027648
0.00285764
-0.106768
0.126917
-0.0201486
-0.168031
0.167498
0.00053264
0.0700168
-0.0577372
-0.0122796
-0.197973
-0.322798
-0.421788
0.427303
-0.0055153
-0.162271
-0.254198
0.000668976
0.0073064
-0.00797538
0.135419
-0.11813
0.133014
-0.0147005
-0.118313
0.00352578
-0.0128581
0.0212032
0.000122037
-0.0749814
0.0748594
-0.0745574
0.0285796
0.0459777
-0.121534
-0.00253009
0.124064
-0.0528649
0.0535763
-0.198954
0.0880426
-0.0195034
-0.151764
-0.0265636
0.0230895
0.00347407
0.0790289
0.0542382
-0.133267
-0.0529824
-0.127327
-0.0831726
0.0679617
0.0152109
-0.000129032
0.000247187
-0.000118156
0.214241
-0.125953
0.00432493
0.0207195
0.192173
-0.128289
-0.000763417
0.106967
-0.106204
-0.0887474
0.239815
-0.151068
-0.0666067
0.0191668
-0.0322201
0.024082
0.123031
-0.0359823
-0.0870488
0.145595
-0.137214
-0.00838141
0.0303137
-0.0257527
-0.00456099
-0.0727671
0.0734788
-0.000711667
0.0950799
-0.0282592
-0.0668207
0.261563
0.107742
-0.369305
-0.129723
0.125258
0.00446499
0.0132848
0.121725
0.100198
-0.0864726
-0.0137256
0.167153
-0.00790949
-0.159244
-0.0721599
0.00588929
0.20975
-0.119755
-0.0286317
-0.00345176
-0.137099
-0.210705
0.0195984
0.000292951
-0.120333
0.0398255
0.10416
0.226432
-0.105033
-0.121399
0.0662824
-0.0176995
-0.062552
0.173901
-0.0727121
0.0249727
0.0477394
0.176669
-0.413907
0.237238
-0.32597
0.245016
0.0809537
-0.0181666
-0.023027
-0.0456216
0.0539405
-0.00831886
-0.00884126
-0.114675
-0.23144
-0.0276599
0.2591
0.00464518
0.0965773
-0.101222
0.0673324
-0.0586462
-0.00868621
0.105931
0.0219505
0.0686985
0.0687174
-0.000207078
-0.14491
0.314618
-0.169708
0.100514
-0.119157
0.018643
-0.0656561
0.0808093
-0.0151531
0.162602
-0.278249
-0.134175
0.126648
0.00752673
-0.166586
0.0878738
0.0787123
0.119599
-0.019085
-0.155397
-0.0271861
0.0672969
0.00496022
-0.0722571
-0.00498137
-0.00677373
0.0117551
0.00309038
-0.0042864
0.00119602
0.187574
-0.133853
-0.053721
0.468389
-0.224661
-0.161934
0.281339
-0.119405
0.121962
-0.139525
0.0175628
-0.0790492
0.013393
0.0723001
-0.339282
0.266982
0.18943
0.19472
0.084945
-0.00514206
-0.0988787
-0.100075
0.268616
-0.166745
-0.101872
-0.211433
-0.142593
0.0180106
0.0247563
-0.0427669
-0.0974445
0.112989
0.142667
-0.026844
-0.115823
0.00394437
-0.00172326
-0.00222111
-0.180969
0.136222
0.00371581
0.0142988
-0.0162723
0.00197353
0.00164621
-0.00158007
-6.61368e-05
-0.0646552
-0.00811193
-0.00330224
0.0319659
-0.0234974
0.13779
-0.000783773
0.00358536
-0.00280158
-0.028349
-0.0806744
0.136087
-0.150134
0.0140465
-0.00379281
-0.0585386
0.0623314
0.180842
-0.0576572
-0.123184
-0.0331041
-0.0396079
0.00491971
-0.00182933
0.0510832
-0.0695639
0.0184807
-0.0122127
-0.0415518
-0.117644
0.159196
-0.0753389
-0.00880717
0.137843
-0.152097
0.0142542
-0.332789
0.333257
-0.000468006
-0.177393
0.0093621
0.000473697
0.00279552
-0.00326922
0.0856576
0.00942234
-0.266468
0.177863
0.0886051
0.0581536
-0.0714605
0.0133069
-0.175297
0.226624
-0.0513271
0.0695392
-0.0772899
0.176723
0.185201
0.0716382
-0.020555
0.00175435
0.0022537
0.183427
-0.272174
-0.00328914
-0.239315
0.137658
-0.0564325
0.0745817
-0.0181492
0.0160343
-0.0692117
0.00753632
-0.00686735
-0.00268813
0.00753715
-0.00484902
0.120728
-0.0023121
0.0010828
-0.40819
0.0754006
0.338791
0.159779
0.205478
-0.342578
-0.107917
0.102895
0.00502167
0.0856889
-0.0487906
-0.0368983
0.0499913
-0.0396376
0.392211
-0.00834639
-0.383865
0.054517
-0.159801
0.0347009
-0.178609
0.143908
0.0191571
0.0533476
-0.0725047
0.114031
-0.104209
-0.00982223
0.393032
-0.179504
-0.213527
0.0982192
-0.104719
0.00649973
0.103083
-0.113678
0.0105952
0.0401267
0.0829044
-0.162132
0.12058
0.00027055
0.000936919
-0.00120747
0.0768858
-0.0237613
0.00379664
-0.00458041
0.00143475
0.000211454
0.00515613
-0.0766038
0.0185567
0.0706071
-0.0124535
-0.0816652
0.00632633
-0.0986988
-0.0678874
0.128055
-0.0490264
-0.0932298
0.0924664
0.0953688
-0.0999396
0.00457086
0.0492974
0.0363915
-0.0693463
0.0156897
0.0536566
-0.00111455
0.00559077
-0.00447622
0.0661903
0.0600024
0.0110416
-0.0710441
0.00189627
0.0471069
-0.0490032
-0.11516
-0.0589178
0.0784969
-0.0822897
-0.00414173
0.00939878
-0.00525704
0.0697037
-0.0795937
0.00988997
0.103945
0.0290681
-0.00344363
0.0131382
-0.00969462
-0.0116108
0.089686
0.110227
-0.135972
0.0257442
-0.125503
-0.140966
-0.000621215
0.00792762
-0.0211993
0.0877747
-0.0665754
-0.0288482
0.00581489
0.149037
0.0999826
-0.24902
0.231228
0.0846269
-0.315855
-0.00506367
0.094415
0.00380417
-0.214262
-0.146878
0.361139
0.0408604
-0.0568498
0.0159894
0.0404226
-0.0385263
-0.0847192
0.117667
-0.0329473
-0.133123
-0.00640204
-0.106121
-0.0357186
-0.0573928
-0.00647813
0.0638709
-0.0119529
-0.109027
0.12098
-0.0027201
-0.0726387
0.0753588
0.048044
0.0358937
-0.0839377
-0.174944
0.136051
0.0388932
0.227137
-0.162938
-0.0641986
0.231522
-0.151603
-0.0799199
0.0267331
-0.0304418
0.00370873
0.0928835
0.00697368
0.0205486
-0.0275223
0.0352829
0.132003
0.0616645
0.00566791
0.104342
-0.00992674
0.182547
0.0912275
-0.273775
-0.0727562
0.0766843
-0.00392815
0.0158383
-0.0871275
-0.135073
0.132213
0.00285905
0.0629387
-0.0724777
0.00953907
0.0853354
-0.0840753
-0.00126008
-0.00402959
0.00351874
0.16392
-0.0947807
-0.0691391
-0.0791536
0.00639741
-0.110667
0.126407
-0.0157396
-0.0946514
0.1972
-0.102612
0.00902188
0.0935898
-0.0110111
0.0518715
-0.052457
-0.0131885
0.0656455
-0.15858
0.029103
0.129477
0.0694204
-0.0641982
-0.0052222
-0.010213
0.0075249
0.121343
-0.132028
0.0106845
0.193298
-0.350275
0.156977
-0.332619
0.01969
0.312929
0.00467077
-0.00291642
0.0945479
0.072146
-0.166694
0.0790143
-0.0788923
0.119084
-0.350524
0.112615
-0.105826
-0.00678904
0.109061
0.00641293
-0.115474
-0.101029
0.321027
-0.219998
0.137278
-0.0959661
-0.0413121
-0.379851
0.16559
-0.00117076
0.101411
-0.100241
0.154831
-0.12013
-0.0642653
0.00124742
0.0630179
0.165219
0.189478
-0.354696
-0.0727961
0.0112929
-0.119643
0.0349235
0.390312
-0.213642
-0.000386966
-0.00192513
0.0167165
0.0680976
-0.0848141
0.0913832
-0.0433392
-0.00229989
0.000719821
-0.0093292
-0.075497
0.0848262
0.00900226
-0.0428916
0.0338894
0.1152
-0.00613905
-0.0780187
0.227056
-0.0477685
0.224157
0.174129
-0.0441238
-0.130005
0.134488
-0.0454041
-0.0890838
0.14685
-0.0255065
0.0896383
0.0147035
0.00521253
-0.0694778
0.00853298
0.00223031
-0.0107633
0.0672002
0.0672877
0.196927
-0.372911
0.175984
-0.0290425
0.0566669
-0.0276244
-0.163079
-0.162845
0.325924
0.0453389
0.0328695
-0.400955
0.274248
0.126707
0.233971
0.166478
-0.400448
0.0766878
-0.0137492
0.081183
-0.0907293
0.00954639
-0.177873
0.343091
-0.0243629
-0.0549826
0.0793455
-0.112365
0.111194
-0.0295267
0.00377398
-0.143151
0.121686
0.0214647
-0.11778
0.233493
-0.115713
-0.159559
0.073532
0.137315
-0.153537
-0.307515
0.162606
-0.0157733
0.0181275
-0.00235418
0.342186
-0.181275
-0.160911
0.194716
-0.0935945
-0.101122
0.00264572
-0.181837
0.301785
-0.119948
-0.116224
0.104271
-0.00826738
0.00412565
-0.00122326
0.00109423
0.164773
-0.391558
0.226786
-0.0668043
0.0101913
0.0566131
-0.12669
0.133681
-0.00699083
-0.0434841
0.0614947
-0.133428
0.006738
0.0702055
-0.022505
-0.0477005
-0.00229062
-0.00307273
0.00536335
0.00869814
-0.151734
0.143036
-0.0822404
0.0930371
-0.0761547
0.0751235
0.00103119
0.107149
0.129701
-0.236849
0.000571472
0.0137273
-0.482476
0.351031
0.131445
0.25742
0.159247
-0.0643731
0.0799137
-0.0155406
0.0769631
-0.0602466
0.000827997
-0.000557448
0.116471
0.00857677
0.100471
-0.109047
0.00131943
-0.103931
0.0960137
0.00734232
5.11883e-05
0.00088573
-0.0152491
0.0198355
-0.00458642
-0.222637
0.103443
0.119194
-0.274779
0.112845
0.175254
-0.0579683
-0.117285
0.0942582
0.100458
-0.106701
0.115277
0.0257524
0.0927474
-0.1185
0.177785
-0.294551
0.116767
-0.127673
0.146977
-0.0193044
0.047847
-0.0573743
-0.0395251
0.162128
-0.122603
-0.127513
0.0213915
0.0766629
0.0872569
0.0840477
-0.167934
0.141769
0.0261652
-0.0652471
0.0801163
-0.0148692
-0.0211575
0.0883577
0.138227
-0.163062
0.0248349
0.0926875
-0.188108
0.0954201
-0.0776411
0.00821325
0.0694278
0.0225776
-0.026482
0.0039044
-0.0312359
0.0371038
-0.0058679
0.0612201
-0.0565136
-0.00470651
0.0615735
-0.0753816
0.013808
0.283135
-0.210834
0.051319
-0.0782318
0.0269128
0.166923
0.0602136
-0.454967
0.262221
-0.117982
0.235647
-0.117665
-0.0112718
0.0728453
0.21064
-0.379412
0.168772
0.00495903
0.0197484
0.00399028
-0.00510484
0.080305
-0.0859426
0.00563757
-0.0231076
0.0210371
-0.0140634
-0.12112
0.111476
0.00964385
0.0052355
-0.0719593
0.176708
-0.343608
0.1669
0.209652
0.0907518
-0.300404
0.0138254
0.114346
0.0229319
-0.12863
0.158103
-0.0294732
-0.0669162
-0.00522314
-0.148559
0.14307
0.00548948
-0.177805
-0.0200451
0.197851
0.0266597
0.160914
0.113626
0.104444
0.0922886
-0.403124
0.191691
0.217915
0.108294
-0.326209
-0.0229891
-0.151955
-0.0177074
0.142648
-0.124941
0.26665
0.151148
-0.417798
-0.00120382
0.00500046
-0.0710881
-0.00655299
-0.0767579
0.0578441
-0.402434
0.41917
-0.0167365
0.164879
-0.144638
-0.0202412
-0.17008
0.346788
-0.0848614
0.079181
0.0056804
-0.343174
-0.109006
0.105577
-0.315995
0.210418
0.0689743
-0.0901318
0.106666
0.13305
-0.239717
0.0411697
-0.0609827
0.019813
-0.283681
-0.170472
-0.0509135
0.021871
0.0160532
-0.00368211
-0.0123711
0.00481749
0.0651993
0.219202
0.0603751
-0.279578
0.0117283
-0.00319529
0.0721974
-0.0639632
-0.00823423
0.290557
-0.138061
-0.152496
-0.0936054
-0.128502
0.222107
0.0611856
0.000389037
-0.0615746
0.0300013
0.145253
0.127798
-0.0247147
0.30739
-0.385169
0.0777795
-0.0120202
-0.0336014
-0.194088
0.13121
0.0628782
-0.0395439
0.0587011
-0.143231
0.00815856
0.330285
-0.148449
-0.181836
0.0555775
0.0179012
-1.24531e-05
-0.000948905
0.000961358
-0.191058
0.151533
-0.15792
-0.0720531
-0.366861
-0.0501541
0.417015
0.141871
-0.274137
0.132266
-0.0747885
0.0631967
0.0115918
0.000135022
-0.0948319
0.0946969
0.261184
-0.0299559
0.000536777
0.000897977
0.0324847
-0.0281598
0.0594637
-0.0697239
0.0102601
0.203119
-0.110431
0.0698824
-0.000462031
0.0659492
-0.0103717
0.394041
-0.288857
-0.105184
-0.236082
0.11338
0.013426
-0.0620032
0.0485771
-0.0877524
-0.00444828
-0.213061
0.0957077
0.117353
0.0797709
-0.0284519
0.00848897
-0.00911018
-0.0125481
-0.0717193
0.0769548
0.201789
-0.0973448
0.242157
0.226231
0.00920922
-0.00745226
0.00269159
-0.00313132
0.0190369
0.0425108
-0.0615478
0.0561855
-0.069374
-0.0120897
0.0184629
-0.00637322
0.0217869
-0.0185534
-0.0032335
-0.0166553
0.0114489
0.0435256
-0.0549744
-0.0525835
0.0395901
0.0129935
0.00671549
0.0024977
-0.0092132
0.118067
-0.140377
0.0223099
-0.0537412
0.0656205
-0.0118792
-0.0141715
-0.0850305
-0.102308
0.187338
-0.0412247
-0.154415
0.19564
-0.101102
0.147882
-0.0467801
0.0785263
-0.0933522
0.0148259
-0.181456
-0.162152
-0.0897648
0.231449
-0.141685
-0.141039
0.119448
0.0215912
0.0840063
0.0120075
-0.0647637
0.0752196
-0.0104559
0.0311568
-0.034459
0.0767551
-0.0833267
0.00657159
-0.102823
-0.135778
0.238601
-0.413488
0.179908
0.23358
-0.0155484
0.136409
0.110998
-0.149885
0.0388863
0.00845459
-0.0396905
-0.0171106
0.00502086
0.0669118
-0.00569174
-0.100197
0.334167
0.0620132
-0.0208436
-0.0161194
0.119938
-0.242254
0.147552
0.094702
0.0139634
-0.0990945
0.0851311
0.16059
-0.0188208
-0.457305
0.0904446
-0.113463
0.0637813
0.0496816
0.122731
-0.0155546
-0.107177
0.0085226
0.000603041
-0.00912564
0.118249
0.0167252
-0.134974
-0.118808
0.115119
0.003689
-0.00578712
0.0045833
0.0778802
-0.00965631
-0.0682239
0.107916
-0.0444878
-0.063428
-0.252268
0.246568
-0.192511
0.410372
-0.217861
-0.147161
0.343924
-0.196763
0.0656756
-0.00785052
-0.0578251
0.0806832
-0.0705418
-0.0101415
-0.0708007
0.089336
-0.0185353
0.00735335
0.0251314
-0.112799
-0.0270299
0.000778992
0.279691
-0.225203
-0.054488
0.0357135
-0.0590197
0.0233062
0.290477
-0.1849
-0.140478
-0.00808111
0.168763
-0.151464
-0.0172988
-0.286183
0.0878588
-0.0802274
0.0698056
0.108457
-0.124576
-0.109236
-0.113401
0.168495
-0.157887
-0.010608
0.129624
-0.120926
0.0706638
-0.0112001
0.101636
0.0987916
-0.200428
0.391623
-0.203887
-0.187736
-0.0813466
0.0601473
0.146749
-0.00890597
-0.021942
-0.107781
-0.15377
-0.134772
0.288542
-0.192952
-0.0932308
0.00754229
-0.240903
0.1154
-0.141926
-0.0921497
0.234076
-0.240867
0.151102
-0.448309
0.155089
-0.0711241
0.0146916
0.159577
-0.308061
0.148483
0.27416
-0.182485
-0.0916752
-0.00402184
0.0698485
-0.0658267
0.0358991
0.0868323
0.136122
0.0326411
-0.0232238
0.00215675
0.0210671
0.461381
-0.191173
0.00784038
-0.0134952
0.0100516
-0.00825365
0.0288022
-0.00843187
0.0605252
-0.0520933
0.186055
0.174067
-0.360122
0.0871295
-0.00312326
0.109798
0.023883
-0.431028
0.170145
0.260883
-0.184783
0.0579573
0.126826
-0.00298569
-0.090993
-0.148213
0.047111
0.211692
0.130494
-0.222463
0.103966
0.0864709
0.110684
-0.197155
-0.0259434
0.0270872
-0.00114379
5.6626e-05
0.0614221
-0.0809445
0.0195224
0.0877407
-0.00240527
-0.00992343
-0.0594229
-0.100597
0.100732
0.377208
-0.0617014
-0.0517614
-0.0782717
0.0582145
0.0200572
-0.313965
0.287051
0.0269143
-0.0653195
0.0870338
-0.0217144
-0.126659
-0.114244
-0.0585993
0.0687708
-0.0101714
0.117536
-0.0965371
-0.0209988
-0.0049877
-0.0583043
0.063292
-0.0900765
0.135841
-0.0457642
0.3653
-0.205722
-0.0278272
-0.158123
0.00409576
-0.00907713
-0.0832165
0.0179695
0.0630497
0.00124313
-0.0642929
-0.00882525
-0.00817709
0.309476
-0.190268
-0.119208
0.378721
-0.213948
-0.250569
-0.0331048
0.283674
0.271395
0.145272
-0.000908499
-0.125136
-0.115391
0.240527
0.0183469
0.142243
-0.0799743
0.127163
-0.0471886
0.145313
-0.0343146
0.00891878
0.0997002
-0.108619
-0.0833951
0.0186314
-0.00293386
0.00472624
-0.00179238
0.194363
-0.0927266
0.235077
-0.406173
0.171096
0.126316
-0.167541
0.00760274
0.0802213
-0.087824
0.14901
-0.00363954
-0.0963001
-0.112063
0.0120606
0.100002
-0.171955
-0.158882
0.330838
-0.270088
-0.133975
0.404062
0.0704356
-0.0635155
-0.00692017
0.0720597
-0.0606066
-0.0114531
-0.0862019
-0.111948
0.19815
0.139915
-0.0301174
-0.00281765
0.0339744
0.242748
0.0369427
0.143073
0.00926812
-0.152341
0.0129996
-0.0118177
-0.00118186
-0.119205
0.137257
-0.0180513
0.00113139
-0.00285544
0.00172405
-0.140584
-0.290444
0.125134
-0.142581
0.0174472
0.113419
-0.111028
-0.0023911
0.0742486
-0.0762309
0.00198229
-0.0216988
-0.22887
-0.19147
0.0871631
0.104307
0.0906463
0.00874538
-0.0993917
-0.0901115
0.0807823
0.0905345
-0.0102295
0.0678281
-0.00477839
0.00852873
-0.00181324
0.14449
-0.0193556
-0.0192464
-0.00397743
0.15407
0.316017
-0.0261352
0.000191814
0.0621797
0.0985961
-0.00794982
-0.0370602
0.0481718
0.0645021
0.0929358
0.0140313
-0.165429
-0.0497744
0.215203
-0.104585
0.113168
-0.00858356
0.101666
-0.11488
-0.0475742
0.162454
-0.0796811
-0.00807136
-0.354793
0.17692
-0.0208322
0.187985
-0.0211707
0.0825928
0.00967721
-0.0150782
-0.0868827
0.016082
0.143525
-0.131916
-0.0116091
-0.127208
0.197348
-0.0701403
-0.192824
0.170022
0.0228022
0.00427541
-0.00538893
0.00111352
-0.285378
0.129307
0.156072
-0.00243972
0.264003
0.0819234
-0.00767471
0.392496
-0.153034
-0.239462
-0.143723
0.0285635
-0.000461812
-0.000236909
0.000698721
-0.00360101
-0.00196808
-0.0696218
0.181582
-0.11196
-0.222617
-0.194169
0.416786
-0.26037
0.159341
-0.13
0.0107948
-0.00256658
0.00210476
0.423757
-0.24098
-0.182777
-0.00518412
0.0732817
-0.0495847
-0.109991
-0.00207186
0.019778
0.0928371
-0.0566521
-0.134818
0.000540449
-0.0766952
0.361194
-0.0945445
-0.0214713
0.0780645
-0.0565932
0.00115808
0.00216216
-0.00332024
-0.112418
0.197776
-0.0853575
0.0111299
-0.0763388
0.065209
0.179694
0.0406761
-0.220371
0.00805541
-0.00129568
-0.00675972
-0.111722
0.00713772
0.0980784
-0.263507
-0.126941
0.309488
0.0212041
0.0490014
-0.263694
0.105774
-0.183363
0.0844842
-0.0119563
-0.0032402
0.0151965
-0.063376
-0.00342827
0.00509817
-0.00358377
-0.0015144
0.178547
0.174207
-0.352754
0.101241
0.0194816
-0.120723
0.0660248
-0.0098393
-0.0326927
0.0230225
0.00967021
0.0121699
0.0380111
-0.050181
-0.00567856
0.0653948
-0.0597162
-0.296491
-0.017474
-0.138062
0.0479856
-0.0796687
-0.133392
0.00626593
0.0697108
-0.0759767
0.00679215
-0.0340806
0.025827
-0.0201305
0.157658
-0.137528
-0.0887323
0.0774389
0.0112935
0.0688908
0.0311268
-0.100018
-0.0646569
-0.0314923
0.0331972
-0.0286459
-0.00455134
-0.238463
0.13564
0.002214
0.00173037
-0.0605679
0.072418
-0.0118501
0.0667916
0.00989621
0.294279
0.0201716
0.0877442
0.1405
-0.0263967
-0.114103
-0.445683
0.310138
0.135545
0.0110389
-0.132573
0.0486745
0.0918253
-0.14683
0.134188
0.0126419
-0.0921316
-0.00555306
0.0976846
-0.33766
0.236043
0.101617
-0.0646353
0.0576154
0.00701988
-0.028763
0.0947384
-0.116555
0.0218171
-0.150894
0.017786
-0.0388508
0.186364
-0.147513
-0.000118547
-0.0141616
0.0142802
0.0110702
-0.0305785
0.00444328
-0.117284
-0.155905
0.273189
-0.129041
0.0490671
-0.0281598
-0.0550128
0.0120625
0.0810497
-0.0931122
0.0113934
-0.013059
0.0101987
0.00286027
-0.00105459
0.00374619
-0.0211364
0.174666
-0.367916
0.0137138
0.0885626
-0.102276
-0.0767312
0.0743498
0.00238141
-0.0192759
0.00408234
0.0151936
-0.0116515
0.109265
-0.0976132
0.114265
-0.134742
0.0204777
0.112517
-0.227403
0.114886
-0.000106126
-0.182426
0.315497
-0.133071
-0.096205
0.0281883
0.0680167
-0.00159678
-0.00197363
0.0035704
-0.00497586
0.105336
-0.10036
-0.0177632
-0.0193778
0.142911
-0.123533
-0.0247742
-0.00580427
-0.143792
0.274404
-0.130613
0.157946
0.136782
-0.294728
0.236391
-0.129242
-0.0392572
-0.0132057
-0.0572538
0.0704595
0.160355
-0.382972
0.15686
-0.338316
0.112139
-0.237275
-0.00433905
-0.0602962
0.00232173
0.00719441
-0.00951614
0.109857
0.1649
-0.274757
-0.320398
0.171405
0.148993
0.269856
-0.159999
0.187418
-0.252313
0.064895
0.165039
0.0146555
0.0026449
-0.0312766
-0.279044
0.180498
0.0985462
0.0865272
-0.20418
0.117653
-0.105489
0.0284043
0.0770849
-0.107993
-0.0172777
-0.168738
0.100091
-0.0983775
0.033058
0.00186258
0.0246568
-0.0265193
-0.208409
0.095991
0.147956
-0.186807
-0.127967
0.16229
-0.0343229
0.160104
-0.277389
0.0168658
0.0723199
0.0148218
-0.0871417
-0.00211251
0.0032439
0.0985435
-0.00321151
-0.0102837
-0.178574
-0.0201144
0.198688
0.176046
0.0855847
-0.261631
0.0961408
-0.0976911
0.00155031
0.0738728
-0.00257776
-0.071295
0.00435056
-0.0123423
0.00799172
0.302943
-0.144997
-0.065765
0.105892
-0.188056
0.118434
0.00694047
-0.132743
0.125802
-0.253697
-0.00824735
0.261944
0.00444856
0.0241613
-0.0286098
-0.175893
-0.175641
0.351534
-0.0857112
-0.0148506
0.0116391
-0.115456
-0.121516
0.236973
-0.0935255
0.000295694
0.184914
-0.147208
-0.0377067
-0.0180839
-0.147052
-0.139966
0.127004
0.0129617
0.0866396
-0.0790369
-0.00696914
-0.0106687
0.0176379
-0.101357
0.00922494
0.198253
0.087642
-0.245526
-0.0921344
-0.00586248
0.328232
-0.208467
-0.119766
0.132918
-0.149904
0.0169853
-0.0714104
-0.00532087
-0.307918
-0.0640613
0.371979
0.278433
-0.091015
-0.0645099
-0.162831
0.227341
-0.227662
-0.0927364
0.00855646
0.077088
-0.0432193
-0.0338687
-0.081591
0.19822
-0.116629
-0.0126025
-0.0656692
-0.0505441
0.043647
0.00689712
0.0174695
-0.0146871
-0.00278238
0.00683083
-0.00650762
-0.0638407
0.0598188
-0.00147674
0.00152793
-0.0306043
-0.147201
-0.258266
0.135511
0.122755
0.215567
0.0939084
0.0163067
-0.0311491
0.0148424
-0.003419
-0.00963995
-0.151642
-0.163096
0.314738
-0.204076
-0.048237
-0.155057
0.143801
0.0112561
-0.0736695
0.0799355
0.00445439
-0.018561
0.0184425
-0.00475939
0.0815145
-0.381775
0.275335
0.10644
-0.356851
0.150085
0.206765
0.17483
0.17768
-0.352509
0.0573489
0.127566
0.0579813
-0.0445553
0.124873
-0.268664
0.00161053
-0.187163
-0.261147
-0.291932
0.238078
0.0538539
0.331734
-0.142257
0.0686496
-0.0634373
-0.00521231
0.0696315
-0.0746192
-0.0494283
0.0442378
0.00519043
-0.0893004
0.0678291
-0.0113544
-0.113323
0.0985958
0.0872984
-0.185894
0.0627675
-0.0759731
-0.0404482
-0.0100959
-0.0107284
-0.00200331
0.0127317
0.0874252
0.00519164
-0.027712
0.245627
-0.122746
-0.156298
0.00211259
0.0756591
-0.0777717
0.0194721
0.0625698
0.0508973
-0.0418951
0.0715591
-0.0738195
0.00226044
0.3236
-0.108033
-0.0172852
0.283233
-0.177053
-0.10618
-0.00369891
-0.0137653
0.107947
-0.117959
0.0100121
0.0752506
-0.0662622
-0.00898845
0.00295866
-0.0766282
-0.210793
-0.244174
0.28643
-0.103889
-0.182541
0.186566
0.0998642
0.125017
-0.142725
-0.129488
-0.106594
0.0376602
0.0394278
0.10187
0.00364773
-0.105518
0.107066
-0.104378
-0.00268774
-0.00198952
-0.00962976
0.0116193
-0.206137
-0.1405
0.346637
-0.0905906
0.0109095
0.00172241
0.0392158
-0.347133
-0.0249043
0.0916014
-0.00577418
0.0669598
-0.180219
-0.265464
0.091768
-0.0381334
0.0495823
-0.0393934
-0.0100348
-0.0155605
0.0170244
-0.00146388
0.247733
0.144763
0.129528
0.117911
-0.247439
-0.00486762
-0.0281
0.0329677
0.124256
-0.118708
-0.00554803
-0.10622
0.207601
-0.10138
0.409263
-0.355615
-0.0536486
-0.066278
0.0578461
0.0356472
0.10044
0.318354
-0.118931
-0.199424
-0.000122617
0.0134623
-0.0583711
0.0449088
-0.00705883
0.0872801
-0.0547403
-0.00149853
0.0562388
-0.282749
0.13618
0.146568
-0.019092
0.0061077
-0.00183229
-0.234532
0.116752
-0.135349
-0.122917
0.0983974
0.00586533
0.049678
-0.0555433
-0.214837
0.0966324
0.118205
0.15007
0.151504
-0.301574
-0.0557977
0.0853294
-0.0295317
-0.053782
-0.0128551
0.081749
-0.0956565
0.0139075
0.110655
-0.105527
-0.00512881
0.0869817
0.119905
-0.206887
0.20273
-0.356432
0.153702
0.0833172
-0.0109973
-0.119965
0.101201
0.0187641
-0.160454
0.0324867
0.235573
-0.1574
-0.0781732
0.270637
0.057595
-0.414292
0.035161
0.379131
0.0756947
0.00407616
0.0135279
0.110728
0.0752744
0.00701185
-0.0822862
0.0192298
-0.149547
0.00703552
-0.330712
0.16293
0.167782
0.0810368
0.39359
-0.00137916
-0.000783055
0.0776277
-0.0768447
0.261702
-0.159187
-0.102515
-0.00115369
0.00514397
-0.114123
-0.0846753
0.198799
-0.282887
0.129117
-0.0331741
0.0350367
-0.135935
0.0650322
-0.0792651
0.0142329
0.157105
-0.13991
-0.0171955
0.113084
0.0142231
-0.127308
0.0817234
0.169478
0.174791
-0.344269
-0.105366
-0.0179753
-0.241595
0.104042
0.137553
-0.00460795
0.00112385
0.00348409
0.0671407
-0.0605312
-0.00660955
0.161784
0.00571447
-0.0752923
0.0641715
0.0111208
0.00868368
0.00869787
0.101958
-0.0139227
0.423186
-0.00090507
0.00206315
0.344663
-0.12546
-0.0842611
0.0284633
0.165774
0.100872
-0.266645
0.00254051
0.000797757
0.00103372
-0.00183148
0.0686887
-0.00427972
0.00736945
-0.00308973
0.224583
0.236797
-0.000980861
0.00348211
-0.00250125
0.0949574
-0.253316
0.0301361
0.0875304
0.0494789
-0.0569069
0.00742802
0.122095
-0.113397
0.0930529
-0.0241621
0.215428
-0.113366
0.130233
-0.0168676
0.260526
-0.41315
0.152624
0.123797
-0.13189
0.0080933
0.0760118
-0.00922015
-0.0775483
0.0801603
-0.00261202
-0.00960214
0.0118769
-0.00227475
0.0769303
-0.00123556
0.0190078
0.0349326
0.331113
-0.161635
0.108386
0.0783483
-0.0160055
-0.0623428
-0.0147281
0.0166128
-0.00188475
-0.198919
0.112717
-0.00446418
0.0739386
-0.0694744
-0.0146666
0.106389
-0.109719
0.101465
0.0082541
-0.298022
-0.123766
0.0150314
-0.0507382
-0.127865
0.110944
0.0169215
-0.33744
0.190279
0.00282118
-0.00367208
0.000850904
0.01195
-0.125316
-0.181648
0.360195
0.0342139
-0.071791
0.0375771
0.00192664
-0.0210322
0.130294
-0.109262
0.0105837
0.16728
-0.141708
0.01868
-0.00733057
-0.0139555
0.0167181
-0.00276257
-0.140092
0.24432
-0.104228
0.136074
0.256958
0.0765852
-0.0849755
-0.154291
0.125312
0.0289791
0.00499955
-0.00465836
-0.000341193
-0.030433
0.290959
-0.0405909
0.0514596
-0.0108686
-0.140131
-0.0141601
-0.0306544
0.0269746
0.00367978
0.221205
0.110205
-0.331411
-0.07219
0.0779049
-0.00571489
-0.000554691
0.0231323
0.00109448
-0.00269126
0.000604392
0.0009436
-0.00154799
-0.00126782
0.00125537
0.312382
-0.00571167
0.0158016
-0.0100899
0.0955687
-0.00682309
0.056302
-0.14793
-0.071862
0.442897
-0.19781
-0.0461233
-0.0500817
0.00172036
-0.00252098
0.000800615
0.0615855
0.0102211
-0.0718067
0.0571763
0.151421
-0.0080359
0.182004
0.103425
-0.285429
0.0138662
-0.0860562
-0.340078
0.197867
0.142211
0.0835677
0.152005
-0.00115889
0.00163258
0.142432
-0.163432
0.0209999
0.000947714
0.000378397
-0.00132611
0.176228
-0.273994
0.0977656
-0.2264
-0.0161628
-0.0104008
-0.288514
0.17095
0.117564
-0.0814231
0.078703
0.283614
-0.11784
-0.0746776
-0.11537
0.190047
0.0156266
-0.122395
0.105331
0.130985
-0.236316
-0.130974
-0.00623281
-0.106329
0.0282112
0.0781176
0.317574
0.0545974
-0.372171
0.0854806
-0.00149963
0.00210402
0.087862