/*--------------------------------*- C++ -*----------------------------------*\
| =========                 |                                                 |
| \\      /  F ield         | OpenFOAM: The Open Source CFD Toolbox           |
|  \\    /   O peration     | Version:  v2012                                 |
|   \\  /    A nd           | Website:  www.openfoam.com                      |
|    \\/     M anipulation  |                                                 |
\*---------------------------------------------------------------------------*/
FoamFile
{
    version     2.0;
    format      ascii;
    class       surfaceScalarField;
    location    "100";
    object      phi_0;
}
// * * * * * * * * * * * * * * * * * * * * * * * * * * * * * * * * * * * * * //

dimensions      [0 3 -1 0 0 0 0];
oriented        oriented;


internalField   nonuniform List<scalar> 
41582
(
-0.229797
0.178372
0.0514255
0.00536213
0.0673455
-0.0727076
0.00582296
-0.00369085
-0.00213211
0.00107822
0.00218018
-0.0032584
0.0107985
0.0839157
-0.0947142
0.111347
-0.219791
0.108444
0.0186584
0.00835343
-0.0270118
0.112672
-0.101508
-0.011164
-0.104433
0.0987708
0.0056623
0.0370673
-0.10303
0.065963
-0.00775165
-0.0620587
0.0698104
0.0172879
-0.1484
0.131112
0.0906507
-0.0862855
-0.00436519
0.0185708
-0.0158473
-0.00272346
-0.0277986
0.0259745
0.00182415
0.0196676
0.114293
-0.13396
0.0380995
-0.0368527
-0.00124683
0.0995746
0.0110457
-0.11062
0.00904076
0.0329453
-0.0419861
0.0393847
0.103818
-0.143203
0.00197233
0.0165984
0.0813859
-0.202425
0.121039
0.0410269
-0.00292743
-0.169342
-0.060455
0.470086
-0.24287
-0.227216
-0.135339
0.285894
-0.150556
0.270619
-0.123199
-0.14742
0.0422096
-0.0189016
0.00401502
-0.00293681
0.000629978
0.00112817
-0.00175815
0.070198
-0.0841466
0.0139486
-0.373121
0.107874
0.265248
0.0375225
-0.0342387
-0.00328379
-0.0862414
0.125626
-0.0200784
0.0291192
0.168853
0.101765
-0.118497
-0.0713994
0.189897
0.135009
-0.139827
0.00481876
0.0549678
-0.0109362
-0.0440316
-0.146572
0.145578
0.000994412
0.459782
-0.260385
-0.199397
0.139176
-0.141839
0.00266309
0.361924
-0.19325
-0.168674
0.0735505
-0.0902665
0.0167161
0.0496274
-0.0690716
0.0194442
-0.405928
0.0683513
0.337577
-0.110912
-0.0691303
0.180042
0.00265466
-0.12527
0.122615
-0.267964
0.207123
0.0608414
0.111354
-0.227357
0.116003
0.12484
-0.122186
0.084635
-0.0110846
-0.072145
0.082046
-0.009901
0.163164
-0.113274
-0.0498907
-0.0662744
-0.00138232
0.0676568
0.00246727
-0.00313491
-0.0230269
0.0295441
-0.00651724
-0.52247
0.196732
-0.115346
-0.00272623
0.00233795
0.000388283
-0.116557
-0.256565
-0.0921996
0.00712
0.0850796
0.0230455
-0.0893031
0.0662576
-0.0531787
0.0782093
-0.0250306
-0.296878
-0.00570024
0.302578
-0.171269
0.151278
0.0199908
-0.00773391
0.098178
-0.0904441
-0.0614997
-0.0158169
0.0773166
0.0246996
-0.0283214
0.00362188
-0.0160588
0.0918518
-0.0757931
-0.143918
0.128978
0.0149395
0.000861709
-0.000231731
-0.416468
0.243728
0.17274
-0.144327
0.290872
-0.146545
-0.129175
0.112535
0.0166402
0.103356
-0.117629
0.0142733
-0.0839276
0.0121716
0.071756
-0.116265
0.11893
-0.00266559
0.000243603
0.167286
-0.162994
-0.00429176
0.126781
0.0123944
0.0165922
-0.27103
0.135692
0.240473
-0.129119
-0.000978685
0.314759
-0.107907
-0.206852
-0.198324
-0.0696402
0.0882376
-0.104296
-0.000206848
-0.0574015
0.0576084
0.0155439
0.0917219
-0.107266
-0.229973
0.138409
0.0915632
0.000695644
0.0481401
-0.0488357
-0.133107
0.152775
0.0829218
-0.0127239
0.12086
-0.124677
0.00381667
0.134
-0.0091595
0.0103476
-0.0553159
0.0449683
-0.0162236
-0.130317
0.14654
-0.122703
0.244627
-0.121924
0.0250421
-0.00384827
-0.0211938
-0.115647
0.306165
-0.190519
-0.433974
0.0280457
0.0198855
-0.00539809
-0.0144874
-0.0171367
-0.454153
0.245087
0.209065
0.102548
0.112662
-0.21521
0.176389
0.112839
-0.289227
-0.080346
0.0939541
-0.0136082
-0.0667227
-0.0189137
0.0856365
-0.055946
0.0930133
0.38415
-0.17952
-0.20463
0.18214
-0.060113
-0.122027
0.0513439
-0.0515508
-0.00956812
0.0128136
-0.00324551
-0.00953066
0.0596318
-0.0501012
-0.0177133
-0.00814562
0.026804
-0.101658
0.214878
-0.11322
-0.114504
0.109587
0.00491687
-0.471059
0.233202
0.237857
0.0524727
-0.0723572
0.0198845
0.111091
-0.123516
0.0124246
0.078074
0.000399457
-0.0784735
0.120867
-0.0212927
-0.165135
0.174751
-0.00961597
-0.192746
-0.278313
0.0638829
0.118257
0.0286562
-0.0324646
0.00380847
-0.0712897
-0.00839119
0.0796809
-0.123027
0.143786
-0.0207588
-0.161334
0.0480605
-0.354025
0.209055
0.14497
0.0323228
0.282436
0.00362667
0.00219629
-0.00641753
0.0057703
0.00227493
0.270208
0.189575
-0.282566
0.138238
-0.109023
0.0531238
0.0558991
-0.347804
0.239898
-0.00557538
0.00303247
0.00254291
-0.00122661
-0.00149962
-0.086028
-0.0883627
0.174391
-0.0252707
-0.00252794
-0.0881211
0.0077751
-0.237009
-0.285461
-0.129719
0.182726
-0.0530075
-0.0265909
0.0327754
-0.00618449
-0.0264982
0.0789709
0.49857
-0.293221
-0.205349
-0.452179
0.456446
-0.00426651
-0.119089
0.00282474
0.0685158
-0.0692937
0.000777892
0.000669842
-0.0580456
0.0810911
-0.0805077
-0.0385816
-0.0562541
0.209357
-0.153103
-0.25469
0.216561
0.0381292
0.115645
-0.121135
0.00548919
-0.0447451
0.166587
-0.121842
0.0255467
0.0294211
-0.0961448
0.0926131
0.00353167
-0.0870782
0.00315057
0.0899955
0.117127
0.208597
-0.198152
-0.0104447
-0.182581
0.18203
0.000551254
0.0017203
-0.0104251
0.0832685
-0.0728434
-0.232629
0.176374
-0.0751226
0.0804848
-0.0411942
0.0182146
0.0229796
-0.192846
-0.0618441
0.0147605
0.0262664
0.381163
-0.40613
0.0249677
0.119788
-0.0474475
0.0711624
-0.0237149
-0.0939797
-0.00345216
0.0974318
0.0882883
0.0900836
-0.179591
0.0498726
0.0688749
0.00735743
-0.0762324
-0.112402
0.232938
-0.120536
0.0868685
-0.0946024
0.427524
-0.0463612
0.0485819
-0.0666378
0.0180559
-0.0131112
0.00354312
-0.00341241
0.0798037
0.0150438
-0.0948475
-0.52077
0.355513
0.165257
-0.00562169
0.00276437
0.00285732
-0.106768
0.126916
-0.0201482
-0.16803
0.167498
0.000532252
0.070023
-0.0577458
-0.0122772
-0.197973
-0.322797
-0.421788
0.427303
-0.0055153
-0.162271
-0.254198
0.000669098
0.00729614
-0.00796523
0.135418
-0.11813
0.133012
-0.0146989
-0.118313
0.00352541
-0.0128572
0.0212106
0.00012283
-0.0749816
0.0748588
-0.0745626
0.0285711
0.0459916
-0.121532
-0.00253188
0.124064
-0.0528692
0.0535649
-0.198954
0.0880417
-0.0195048
-0.151764
-0.0265538
0.0230821
0.00347169
0.0790287
0.0542375
-0.133266
-0.0529816
-0.127328
-0.0831692
0.0679651
0.0152041
-0.000133899
0.0002474
-0.0001135
0.214241
-0.125952
0.00432996
0.0207121
0.192172
-0.128289
-0.00076481
0.106968
-0.106203
-0.0887475
0.239815
-0.151068
-0.0666104
0.0191629
-0.0322292
0.0240836
0.123029
-0.0359834
-0.0870459
0.145596
-0.137213
-0.00838299
0.0303073
-0.0257458
-0.00456156
-0.0727771
0.0734853
-0.000708142
0.0950798
-0.0282609
-0.0668189
0.261563
0.107741
-0.369305
-0.129721
0.125257
0.00446465
0.0132844
0.121724
0.100197
-0.0864723
-0.013725
0.167153
-0.00790996
-0.159243
-0.0721637
0.00588925
0.20975
-0.119755
-0.0286279
-0.00345959
-0.137099
-0.210705
0.0195942
0.00029125
-0.120333
0.0398248
0.104159
0.226431
-0.105032
-0.121399
0.0662793
-0.0176975
-0.0625524
0.1739
-0.0727185
0.0249661
0.0477524
0.176669
-0.413907
0.237237
-0.32597
0.245016
0.0809537
-0.0181684
-0.0230258
-0.045624
0.0539379
-0.00831383
-0.00884329
-0.114673
-0.23144
-0.0276596
0.259099
0.00464584
0.0965765
-0.101222
0.0673334
-0.0586407
-0.00869276
0.10593
0.0219497
0.068701
0.0687213
-0.000205463
-0.14491
0.314617
-0.169708
0.100513
-0.119158
0.0186447
-0.0656614
0.0808143
-0.0151529
0.162602
-0.278248
-0.134173
0.126646
0.00752696
-0.166585
0.0878731
0.0787123
0.1196
-0.0190862
-0.155396
-0.0271847
0.0672977
0.00495507
-0.0722527
-0.00497509
-0.00677474
0.0117498
0.00308995
-0.00428831
0.00119836
0.187573
-0.133852
-0.0537209
0.468388
-0.22466
-0.161934
0.281339
-0.119404
0.121961
-0.139524
0.0175629
-0.079054
0.0133926
0.0722996
-0.339282
0.266982
0.18943
0.194721
0.0849426
-0.00513884
-0.0988795
-0.100074
0.268616
-0.166744
-0.101872
-0.211433
-0.142593
0.0180104
0.0247505
-0.0427609
-0.0974437
0.112988
0.142667
-0.0268436
-0.115823
0.00394519
-0.00171971
-0.00222548
-0.180968
0.136223
0.00371646
0.0142888
-0.0162601
0.00197124
0.00164914
-0.00157939
-6.97429e-05
-0.0646612
-0.00811594
-0.00330847
0.0319646
-0.023497
0.13779
-0.000782102
0.00358034
-0.00279823
-0.0283482
-0.0806747
0.136087
-0.150133
0.0140461
-0.0037939
-0.0585357
0.0623296
0.180841
-0.0576568
-0.123184
-0.0330983
-0.0396202
0.004921
-0.00183104
0.0510831
-0.0695672
0.0184841
-0.0122128
-0.0415508
-0.117644
0.159195
-0.0753389
-0.00880767
0.137842
-0.152097
0.0142557
-0.332789
0.333257
-0.000468035
-0.177393
0.00936252
0.000475177
0.00279885
-0.00327403
0.0856553
0.00942446
-0.266468
0.177864
0.0886042
0.0581644
-0.0714648
0.0133003
-0.175296
0.226624
-0.0513272
0.0695382
-0.0772898
0.176723
0.185201
0.0716417
-0.0205586
0.00176145
0.00225357
0.183426
-0.272174
-0.00328875
-0.239315
0.137657
-0.0564283
0.0745813
-0.018153
0.0160319
-0.0692105
0.00752576
-0.00685666
-0.00268428
0.00753887
-0.00485459
0.120728
-0.00231228
0.00108567
-0.40819
0.0754006
0.338791
0.159779
0.205478
-0.342577
-0.107916
0.102894
0.0050211
0.085688
-0.0487909
-0.0368971
0.0499889
-0.0396413
0.392211
-0.00834644
-0.383865
0.0545162
-0.159801
0.0347017
-0.178608
0.143907
0.0191477
0.0533512
-0.0724989
0.114031
-0.104209
-0.00982163
0.393031
-0.179505
-0.213527
0.0982166
-0.104718
0.00650088
0.103081
-0.113677
0.0105954
0.0401279
0.0829014
-0.162131
0.12058
0.000275344
0.00093555
-0.00121089
0.0768857
-0.023762
0.00379342
-0.00457552
0.00143818
0.000210955
0.00515381
-0.0766007
0.0185551
0.0706114
-0.0124469
-0.0816656
0.00632671
-0.0986986
-0.0678868
0.128054
-0.0490257
-0.093231
0.0924661
0.0953682
-0.0999385
0.00457034
0.0492976
0.0363904
-0.0693442
0.0156895
0.0536546
-0.00111676
0.00559508
-0.00447833
0.0661905
0.0600014
0.0110416
-0.071043
0.00189742
0.0471055
-0.0490029
-0.115161
-0.0589169
0.0784936
-0.0822875
-0.00414565
0.00939729
-0.00525164
0.0697091
-0.0795999
0.00989084
0.103946
0.0290662
-0.00343882
0.0131265
-0.00968766
-0.0116114
0.0896854
0.110227
-0.135971
0.0257438
-0.125503
-0.140965
-0.000621905
0.00791804
-0.0212003
0.0877731
-0.0665729
-0.02884
0.00581316
0.149036
0.0999826
-0.249019
0.231228
0.0846269
-0.315855
-0.00505955
0.0944136
0.00380302
-0.214262
-0.146877
0.361139
0.0408597
-0.0568483
0.0159886
0.0404223
-0.0385249
-0.0847187
0.117666
-0.0329469
-0.133121
-0.00640216
-0.106121
-0.0357181
-0.057393
-0.00648411
0.0638771
-0.0119524
-0.109026
0.120979
-0.00272081
-0.0726375
0.0753583
0.0480449
0.0358911
-0.083936
-0.174944
0.136051
0.0388935
0.227136
-0.162938
-0.0641977
0.231522
-0.151602
-0.0799194
0.0267251
-0.0304349
0.0037098
0.0928834
0.00696831
0.0205499
-0.0275182
0.0352823
0.132003
0.0616589
0.00567456
0.104339
-0.00992537
0.182547
0.0912275
-0.273774
-0.0727553
0.0766832
-0.00392784
0.0158393
-0.087129
-0.135072
0.132212
0.0028596
0.062933
-0.0724798
0.0095468
0.0853353
-0.0840733
-0.00126199
-0.00402371
0.00351406
0.163919
-0.094779
-0.06914
-0.0791524
0.00639706
-0.110665
0.126405
-0.0157398
-0.0946522
0.197201
-0.102611
0.0090195
0.093591
-0.0110101
0.0518698
-0.0524541
-0.0131853
0.0656394
-0.158579
0.0291024
0.129477
0.0694179
-0.0642025
-0.00521538
-0.0102151
0.00753085
0.121341
-0.132027
0.0106856
0.193298
-0.350275
0.156977
-0.332619
0.0196898
0.312929
0.00467719
-0.00291574
0.0945471
0.0721466
-0.166694
0.0790145
-0.0788917
0.119084
-0.350524
0.112615
-0.105824
-0.00679158
0.109059
0.00641296
-0.115472
-0.101028
0.321027
-0.219998
0.137278
-0.0959674
-0.0413105
-0.379851
0.165589
-0.00116858
0.101411
-0.100242
0.15483
-0.120129
-0.064267
0.0012477
0.0630193
0.165218
0.189478
-0.354696
-0.0727964
0.0112967
-0.119642
0.0349229
0.390311
-0.213642
-0.000383325
-0.00192896
0.0167178
0.0680983
-0.0848161
0.0913816
-0.0433368
-0.00230232
0.000722926
-0.00932919
-0.0754964
0.0848256
0.00900125
-0.04289
0.0338887
0.115198
-0.00613898
-0.0780188
0.227055
-0.0477682
0.224157
0.174128
-0.0441233
-0.130005
0.134487
-0.0454033
-0.0890838
0.146849
-0.0255072
0.089637
0.014702
0.00521243
-0.0694795
0.00853003
0.00222611
-0.0107561
0.0671993
0.0672878
0.196927
-0.372911
0.175984
-0.0290401
0.056675
-0.0276349
-0.163078
-0.162845
0.325924
0.045338
0.0328713
-0.400955
0.274248
0.126708
0.23397
0.166478
-0.400448
0.0766892
-0.0137562
0.0811865
-0.090727
0.00954057
-0.177873
0.343091
-0.024361
-0.0549803
0.0793413
-0.112363
0.111195
-0.0295198
0.00377403
-0.14315
0.121685
0.0214644
-0.117779
0.233493
-0.115714
-0.159559
0.0735314
0.137314
-0.153537
-0.307515
0.162605
-0.0157711
0.0181221
-0.00235101
0.342186
-0.181275
-0.160911
0.194715
-0.093594
-0.101121
0.00264554
-0.181837
0.301784
-0.119947
-0.116223
0.104271
-0.00826704
0.00412139
-0.00122541
0.00109152
0.164773
-0.391558
0.226785
-0.0668028
0.0101834
0.0566194
-0.126689
0.133681
-0.00699229
-0.043478
0.0614884
-0.133428
0.00673953
0.0701991
-0.0225007
-0.0476984
-0.00229693
-0.00307218
0.00536911
0.00869843
-0.151734
0.143035
-0.082238
0.0930365
-0.0761575
0.0751211
0.00103639
0.107149
0.1297
-0.236849
0.000572162
0.0137167
-0.482476
0.35103
0.131445
0.25742
0.159247
-0.0643712
0.0799073
-0.0155362
0.0769651
-0.0602473
0.000830985
-0.000555641
0.116471
0.00857853
0.100468
-0.109047
0.00132144
-0.103932
0.0960132
0.0073423
4.68822e-05
0.000888668
-0.0152408
0.019824
-0.00458319
-0.222636
0.103442
0.119194
-0.274779
0.112845
0.175253
-0.0579678
-0.117285
0.0942577
0.100458
-0.106698
0.115277
0.0257527
0.0927468
-0.1185
0.177785
-0.294551
0.116766
-0.127672
0.146978
-0.0193059
0.0478469
-0.0573775
-0.0395249
0.162127
-0.122602
-0.127512
0.0213912
0.0766639
0.0872552
0.0840479
-0.167934
0.141768
0.0261667
-0.0652453
0.0801087
-0.0148634
-0.0211582
0.0883576
0.138226
-0.163062
0.0248356
0.0926874
-0.188107
0.0954198
-0.0776383
0.00821532
0.0694229
0.0225724
-0.0264709
0.00389848
-0.0312308
0.0370984
-0.00586759
0.0612258
-0.0565112
-0.00471462
0.0615721
-0.0753801
0.0138081
0.283134
-0.210835
0.0513208
-0.0782349
0.0269141
0.166923
0.0602128
-0.454967
0.262221
-0.117983
0.235647
-0.117664
-0.0112719
0.072844
0.21064
-0.379412
0.168772
0.00495912
0.0197404
0.00399282
-0.00510958
0.0803044
-0.0859414
0.00563704
-0.0231083
0.0210335
-0.0140652
-0.121119
0.111474
0.00964514
0.00523549
-0.0719582
0.176708
-0.343608
0.1669
0.209652
0.0907517
-0.300404
0.0138252
0.114348
0.0229304
-0.12863
0.158103
-0.0294728
-0.0669191
-0.00522584
-0.148559
0.14307
0.00548887
-0.177805
-0.020045
0.19785
0.0266597
0.160913
0.113626
0.104444
0.0922885
-0.403123
0.19169
0.217915
0.108294
-0.326209
-0.0229894
-0.151955
-0.0177069
0.142647
-0.12494
0.26665
0.151148
-0.417798
-0.00120135
0.00499477
-0.0710833
-0.00655492
-0.0767567
0.057843
-0.402434
0.41917
-0.0167365
0.164878
-0.144636
-0.0202418
-0.17008
0.346788
-0.0848605
0.0791798
0.00568063
-0.343173
-0.109006
0.105577
-0.315994
0.210418
0.0689734
-0.0901317
0.106666
0.13305
-0.239716
0.041169
-0.0609909
0.0198219
-0.283681
-0.170472
-0.0509205
0.0218803
0.0160427
-0.0036822
-0.0123605
0.00481486
0.0652081
0.219202
0.0603754
-0.279577
0.0117205
-0.00319046
0.0722071
-0.0639694
-0.00823769
0.290557
-0.138061
-0.152496
-0.0936045
-0.128502
0.222107
0.061187
0.000392824
-0.0615798
0.0300009
0.145252
0.127796
-0.0247145
0.307391
-0.385169
0.0777783
-0.012014
-0.0336101
-0.194087
0.13121
0.0628771
-0.039549
0.0586968
-0.14323
0.00815803
0.330285
-0.148449
-0.181836
0.0555782
0.0179071
-1.218e-05
-0.000952341
0.000964521
-0.191057
0.151532
-0.157919
-0.0720537
-0.366861
-0.0501542
0.417015
0.141872
-0.274137
0.132266
-0.0747904
0.0631989
0.0115915
0.000134528
-0.094831
0.0946965
0.261184
-0.0299559
0.000536658
0.000901523
0.0324795
-0.0281495
0.0594645
-0.069727
0.0102624
0.203118
-0.110431
0.0698853
-0.000467392
0.0659548
-0.0103766
0.394041
-0.288857
-0.105184
-0.236082
0.113379
0.0134299
-0.0620094
0.0485795
-0.0877514
-0.00444824
-0.21306
0.0957071
0.117353
0.0797737
-0.028453
0.00847815
-0.00910005
-0.0125474
-0.0717183
0.0769538
0.201788
-0.0973447
0.242157
0.226231
0.00921354
-0.00745581
0.00269061
-0.00312929
0.0190363
0.0425099
-0.0615462
0.0561752
-0.0693604
-0.0120824
0.0184582
-0.00637582
0.0217808
-0.0185506
-0.00323013
-0.0166567
0.011458
0.0435281
-0.0549861
-0.0525735
0.0395842
0.0129892
0.00671894
0.00249918
-0.00921813
0.118066
-0.140377
0.0223114
-0.0537498
0.065624
-0.0118742
-0.0141712
-0.0850312
-0.102307
0.187338
-0.0412245
-0.154414
0.195639
-0.101102
0.147881
-0.0467796
0.0785224
-0.09335
0.0148276
-0.181456
-0.162152
-0.0897637
0.231449
-0.141685
-0.141038
0.119446
0.0215917
0.0840059
0.0120073
-0.0647588
0.0752183
-0.0104595
0.0311519
-0.0344604
0.076755
-0.0833258
0.00657085
-0.102822
-0.135778
0.2386
-0.413487
0.179907
0.23358
-0.0155478
0.136408
0.110997
-0.149884
0.0388877
0.00845469
-0.0396855
-0.0171042
0.0050218
0.0669117
-0.00568586
-0.100196
0.334167
0.0620207
-0.0208517
-0.0161196
0.119938
-0.242253
0.147551
0.0947022
0.0139597
-0.0990919
0.0851321
0.16059
-0.0188223
-0.457305
0.0904447
-0.113461
0.0637829
0.0496784
0.122731
-0.0155552
-0.107176
0.00851299
0.000603862
-0.00911685
0.118248
0.0167267
-0.134975
-0.118806
0.115117
0.00368935
-0.00578199
0.00458065
0.0778777
-0.00965858
-0.0682191
0.107915
-0.0444878
-0.0634277
-0.252269
0.246568
-0.19251
0.410372
-0.217862
-0.147161
0.343924
-0.196763
0.0656766
-0.00785311
-0.0578235
0.0806892
-0.0705461
-0.0101431
-0.0708006
0.089336
-0.0185354
0.00735729
0.0251222
-0.112797
-0.0270299
0.000779042
0.27969
-0.225203
-0.0544872
0.0357118
-0.0590172
0.0233054
0.290477
-0.1849
-0.140478
-0.00808055
0.168762
-0.151463
-0.0172987
-0.286182
0.0878583
-0.0802288
0.0698037
0.108456
-0.124576
-0.109235
-0.113401
0.168495
-0.157886
-0.0106092
0.129624
-0.120925
0.0706662
-0.0112017
0.101637
0.0987905
-0.200427
0.391623
-0.203887
-0.187736
-0.0813452
0.060145
0.146749
-0.00890733
-0.0219415
-0.10778
-0.15377
-0.134772
0.288542
-0.192952
-0.0932303
0.00754594
-0.240903
0.115399
-0.141926
-0.0921488
0.234075
-0.240866
0.151102
-0.448309
0.155089
-0.0711232
0.0146949
0.159577
-0.308061
0.148483
0.27416
-0.182485
-0.0916746
-0.00402659
0.0698515
-0.0658249
0.0358995
0.0868319
0.136121
0.0326409
-0.023218
0.0021537
0.0210643
0.46138
-0.191172
0.00784
-0.0134849
0.010046
-0.00824688
0.0287968
-0.00842293
0.0605104
-0.0520875
0.186055
0.174067
-0.360122
0.0871291
-0.00312319
0.109797
0.0238845
-0.431027
0.170144
0.260883
-0.184783
0.0579571
0.126825
-0.0029874
-0.0909923
-0.148212
0.0471104
0.211692
0.130494
-0.222462
0.103965
0.0864707
0.110683
-0.197154
-0.025943
0.0270871
-0.00114413
5.56098e-05
0.0614251
-0.0809442
0.0195191
0.0877386
-0.00240331
-0.00992336
-0.0594208
-0.100596
0.100731
0.377208
-0.0617027
-0.0517586
-0.0782705
0.0582132
0.0200572
-0.313966
0.287051
0.0269146
-0.0653191
0.0870333
-0.0217142
-0.126659
-0.114243
-0.0586086
0.068776
-0.0101674
0.117535
-0.0965371
-0.020998
-0.00498842
-0.0583029
0.0632913
-0.0900763
0.13584
-0.0457636
0.3653
-0.205722
-0.0278229
-0.158123
0.00409797
-0.00907306
-0.0832087
0.0179634
0.063048
0.00124555
-0.0642936
-0.00882571
-0.0081773
0.309475
-0.190268
-0.119207
0.378721
-0.213948
-0.250569
-0.0331047
0.283674
0.271394
0.145272
-0.000909954
-0.125136
-0.11539
0.240526
0.0183483
0.142242
-0.0799723
0.127162
-0.0471898
0.145312
-0.0343157
0.00891918
0.0996995
-0.108619
-0.0833933
0.0186345
-0.00292944
0.00472461
-0.00179518
0.194362
-0.0927252
0.235076
-0.406172
0.171096
0.126316
-0.167541
0.00760078
0.0802228
-0.0878235
0.14901
-0.00363898
-0.0962995
-0.112064
0.0120625
0.100001
-0.171955
-0.158883
0.330837
-0.270088
-0.133975
0.404062
0.0704407
-0.0635197
-0.00692103
0.0720573
-0.0606126
-0.0114447
-0.0862017
-0.111948
0.198149
0.139915
-0.0301188
-0.00282447
0.0339764
0.242748
0.036942
0.143073
0.00926934
-0.152342
0.0129876
-0.0118085
-0.00117911
-0.119204
0.137256
-0.0180525
0.00113104
-0.00285511
0.00172407
-0.140583
-0.290444
0.125134
-0.14258
0.0174466
0.113419
-0.111029
-0.00238994
0.0742509
-0.0762297
0.00197878
-0.0216988
-0.22887
-0.191469
0.0871626
0.104307
0.0906456
0.00874545
-0.099391
-0.0901108
0.0807816
0.0905334
-0.010229
0.0678285
-0.00478053
0.00853361
-0.00181467
0.144489
-0.019355
-0.0192436
-0.00397435
0.15407
0.316016
-0.0261348
0.000191849
0.0621792
0.0985955
-0.00794993
-0.0370632
0.0481705
0.0645018
0.0929355
0.0140325
-0.16543
-0.0497736
0.215203
-0.104585
0.113167
-0.00858144
0.101666
-0.114879
-0.0475755
0.162455
-0.07968
-0.00807134
-0.354793
0.17692
-0.0208318
0.187985
-0.0211675
0.0825926
0.00967639
-0.0150745
-0.0868826
0.016082
0.143524
-0.131914
-0.0116098
-0.127208
0.197348
-0.0701391
-0.192823
0.170022
0.0228016
0.00427578
-0.00539129
0.00111551
-0.285378
0.129306
0.156072
-0.00243925
0.264003
0.0819225
-0.00767151
0.392495
-0.153034
-0.239462
-0.143724
0.0285626
-0.00046422
-0.00023719
0.00070141
-0.00360305
-0.00197233
-0.0696209
0.181581
-0.11196
-0.222617
-0.194169
0.416786
-0.26037
0.159341
-0.13
0.0107962
-0.00256939
0.00210517
0.423757
-0.24098
-0.182777
-0.00518535
0.0732836
-0.0495965
-0.10999
-0.0020736
0.0197804
0.092835
-0.0566516
-0.134818
0.000534692
-0.0766922
0.361195
-0.0945445
-0.0214717
0.0780639
-0.0565922
0.00115902
0.00216143
-0.00332045
-0.112418
0.197775
-0.0853573
0.0111323
-0.0763369
0.0652046
0.179694
0.0406759
-0.22037
0.00806144
-0.00129781
-0.00676364
-0.111721
0.00713599
0.0980777
-0.263507
-0.126941
0.309488
0.0211981
0.049001
-0.263694
0.105775
-0.183363
0.0844833
-0.0119468
-0.00323975
0.0151866
-0.0633819
-0.00342092
0.00509765
-0.00358579
-0.00151186
0.178548
0.174206
-0.352754
0.101241
0.0194811
-0.120722
0.066011
-0.00983583
-0.0326841
0.0230167
0.00966746
0.0121707
0.0380069
-0.0501776
-0.00568065
0.0653953
-0.0597146
-0.296491
-0.0174744
-0.138061
0.047985
-0.0796686
-0.133392
0.00626649
0.0697096
-0.0759761
0.00679434
-0.0340755
0.0258287
-0.0201304
0.157657
-0.137527
-0.088734
0.0774423
0.0112917
0.0688903
0.0311265
-0.100017
-0.0646548
-0.03149
0.0331859
-0.0286326
-0.00455328
-0.238463
0.13564
0.00221808
0.00172712
-0.0605678
0.0724212
-0.0118534
0.0667857
0.00990345
0.294279
0.0201717
0.0877438
0.140499
-0.0263961
-0.114103
-0.445683
0.310138
0.135545
0.0110403
-0.132573
0.0486739
0.091825
-0.14683
0.134187
0.0126435
-0.0921305
-0.00555431
0.0976848
-0.337659
0.236042
0.101617
-0.0646342
0.0576152
0.00701898
-0.0287644
0.0947378
-0.116554
0.0218166
-0.150893
0.0177855
-0.0388507
0.186363
-0.147512
-0.000123131
-0.0141527
0.0142759
0.0110739
-0.0305773
0.00444247
-0.117284
-0.155905
0.273189
-0.129041
0.0490683
-0.0281537
-0.0550155
0.0120633
0.0810488
-0.0931121
0.0113955
-0.0130544
0.0101998
0.00285461
-0.0010527
0.00374331
-0.0211365
0.174666
-0.367916
0.0137134
0.0885623
-0.102276
-0.0767298
0.0743488
0.00238102
-0.0192671
0.00408291
0.0151842
-0.0116509
0.109264
-0.0976131
0.114263
-0.134742
0.0204785
0.112516
-0.227402
0.114886
-0.000105362
-0.182426
0.315496
-0.133071
-0.0962068
0.0281869
0.0680198
-0.00159484
-0.00197794
0.00357278
-0.0049752
0.105335
-0.10036
-0.017764
-0.0193774
0.14291
-0.123533
-0.0247736
-0.00580365
-0.143792
0.274404
-0.130612
0.157945
0.136782
-0.294728
0.236391
-0.129242
-0.0392564
-0.0132094
-0.0572492
0.0704586
0.160355
-0.382972
0.156859
-0.338315
0.112138
-0.237274
-0.00433813
-0.0602961
0.00232334
0.00719693
-0.00952027
0.109858
0.164899
-0.274757
-0.320398
0.171405
0.148993
0.269855
-0.159998
0.187418
-0.252312
0.0648946
0.165038
0.0146555
0.00265145
-0.0312793
-0.279044
0.180497
0.0985461
0.0865279
-0.20418
0.117652
-0.105489
0.0284064
0.077083
-0.107994
-0.0172761
-0.168738
0.10009
-0.0983768
0.0330578
0.0018625
0.0246501
-0.0265126
-0.208408
0.0959908
0.147955
-0.186806
-0.127967
0.16229
-0.0343226
0.160104
-0.277388
0.0168616
0.0723153
0.0148234
-0.0871387
-0.00211241
0.00324346
0.0985433
-0.00320685
-0.010278
-0.178573
-0.0201144
0.198688
0.176047
0.0855841
-0.261631
0.0961402
-0.0976922
0.00155207
0.0738744
-0.00257878
-0.0712956
0.00434726
-0.0123436
0.00799635
0.302942
-0.144997
-0.0657621
0.10589
-0.188055
0.118435
0.00693939
-0.132741
0.125802
-0.253696
-0.00824801
0.261944
0.00445541
0.0241623
-0.0286177
-0.175893
-0.175641
0.351534
-0.085709
-0.0148406
0.0116338
-0.115455
-0.121517
0.236972
-0.0935256
0.00029467
0.184914
-0.147208
-0.0377061
-0.0180838
-0.147051
-0.139966
0.127003
0.0129633
0.0866393
-0.0790385
-0.00696574
-0.0106769
0.0176426
-0.101357
0.00922638
0.198253
0.0876417
-0.245525
-0.0921338
-0.00586787
0.328232
-0.208466
-0.119766
0.132918
-0.149903
0.0169849
-0.0714094
-0.00532042
-0.307918
-0.0640609
0.371979
0.278432
-0.0910145
-0.0645098
-0.162831
0.227341
-0.227662
-0.092736
0.0085618
0.0770859
-0.0432187
-0.0338672
-0.0815907
0.198219
-0.116628
-0.0126026
-0.0656679
-0.0505266
0.0436403
0.00688632
0.017459
-0.0146756
-0.00278337
0.00681841
-0.00649583
-0.0638438
0.0598172
-0.00148023
0.00152711
-0.0306043
-0.147201
-0.258266
0.135511
0.122755
0.215567
0.0939077
0.0163069
-0.0311384
0.0148315
-0.00341266
-0.00964179
-0.151642
-0.163096
0.314738
-0.204075
-0.0482367
-0.155056
0.143801
0.0112555
-0.0736684
0.0799349
0.00445839
-0.0185557
0.0184326
-0.00475862
0.0815136
-0.381775
0.275335
0.10644
-0.35685
0.150085
0.206765
0.174831
0.177678
-0.352509
0.0573483
0.127566
0.0579867
-0.0445568
0.124872
-0.268664
0.00161167
-0.187162
-0.261147
-0.291932
0.238078
0.0538538
0.331734
-0.142256
0.0686436
-0.0634297
-0.00521391
0.0696301
-0.0746185
-0.0494232
0.0442304
0.00519284
-0.0892998
0.0678281
-0.0113538
-0.113323
0.0985964
0.0872976
-0.185894
0.0627628
-0.0759722
-0.0404431
-0.0100836
-0.0107204
-0.00200054
0.0127209
0.0874211
0.00519205
-0.0277119
0.245627
-0.122746
-0.156297
0.00211342
0.0756594
-0.0777728
0.0194713
0.0625746
0.0508956
-0.0418943
0.0715591
-0.0738186
0.00225958
0.3236
-0.108032
-0.0172849
0.283233
-0.177053
-0.106179
-0.00370209
-0.013758
0.107945
-0.117958
0.0100137
0.0752486
-0.0662665
-0.00898216
0.00295919
-0.0766276
-0.210793
-0.244174
0.28643
-0.103889
-0.182541
0.186566
0.099864
0.125017
-0.142724
-0.129488
-0.106594
0.0376599
0.039426
0.101869
0.00364795
-0.105517
0.107065
-0.104379
-0.00268574
-0.0019872
-0.00962078
0.011608
-0.206137
-0.1405
0.346637
-0.0905895
0.0109094
0.0017223
0.0392153
-0.347133
-0.0249038
0.0916013
-0.00577798
0.066965
-0.180219
-0.265464
0.0917673
-0.038136
0.049594
-0.0393859
-0.0100373
-0.0155585
0.0170191
-0.00146054
0.247732
0.144763
0.129528
0.117911
-0.247439
-0.00486765
-0.0280931
0.0329608
0.124257
-0.118708
-0.00554945
-0.10622
0.2076
-0.10138
0.409263
-0.355615
-0.0536486
-0.0662643
0.0578414
0.0356473
0.100439
0.318354
-0.11893
-0.199423
-0.000123655
0.0134633
-0.0583703
0.044907
-0.00705685
0.0872796
-0.0547555
-0.00149262
0.0562481
-0.282748
0.13618
0.146568
-0.0190915
0.00610982
-0.00183404
-0.234531
0.116753
-0.135349
-0.122917
0.0983966
0.00587745
0.0496689
-0.0555464
-0.214836
0.096632
0.118204
0.15007
0.151504
-0.301574
-0.0557947
0.0853293
-0.0295346
-0.0537821
-0.0128556
0.081749
-0.0956552
0.0139062
0.110655
-0.105525
-0.00513012
0.0869824
0.119904
-0.206887
0.202731
-0.356432
0.153702
0.0833141
-0.0109987
-0.119965
0.101199
0.018766
-0.160453
0.0324864
0.235572
-0.1574
-0.0781727
0.270637
0.0575947
-0.414292
0.0351613
0.379131
0.0756979
0.00407585
0.0135295
0.110728
0.0752734
0.00701415
-0.0822876
0.0192312
-0.149548
0.00703877
-0.330712
0.162929
0.167782
0.0810367
0.39359
-0.00137913
-0.000782438
0.0776276
-0.0768451
0.261701
-0.159186
-0.102515
-0.00115601
0.00514883
-0.114123
-0.0846751
0.198798
-0.282886
0.129116
-0.0331657
0.0350282
-0.135934
0.0650372
-0.0792661
0.0142289
0.157106
-0.139909
-0.0171969
0.113084
0.0142227
-0.127307
0.0817212
0.169478
0.174791
-0.344269
-0.105366
-0.0179749
-0.241594
0.104041
0.137553
-0.0046052
0.0011218
0.00348339
0.0671441
-0.0605272
-0.00661687
0.161783
0.00571481
-0.0752893
0.0641753
0.011114
0.00867537
0.00869922
0.101955
-0.0139227
0.423186
-0.000904453
0.00206348
0.344662
-0.12546
-0.084261
0.0284663
0.165774
0.100871
-0.266645
0.00253711
0.000796563
0.00103676
-0.00183333
0.0686891
-0.00427768
0.00737254
-0.00309486
0.224583
0.236797
-0.00097876
0.00347578
-0.00249702
0.0949575
-0.253315
0.0301361
0.0875295
0.0494778
-0.0569145
0.00743671
0.122095
-0.113395
0.0930522
-0.0241619
0.215427
-0.113364
0.130232
-0.0168678
0.260526
-0.41315
0.152624
0.123796
-0.131889
0.00809292
0.0760129
-0.00922722
-0.0775475
0.0801593
-0.0026118
-0.00959848
0.0118687
-0.00227019
0.0769328
-0.00123497
0.0190061
0.0349318
0.331112
-0.161634
0.108387
0.0783457
-0.0159986
-0.0623471
-0.0147163
0.0166037
-0.00188743
-0.198918
0.112716
-0.00446419
0.0739398
-0.0694756
-0.0146662
0.106388
-0.10972
0.101464
0.00825586
-0.298022
-0.123766
0.0150428
-0.0507441
-0.127864
0.110943
0.0169213
-0.337439
0.190279
0.00282392
-0.00367682
0.000852896
0.0119503
-0.125315
-0.181647
0.360195
0.0342119
-0.07178
0.0375681
0.00191954
-0.0210319
0.130293
-0.109261
0.0105846
0.167279
-0.141707
0.0186795
-0.00732419
-0.0139451
0.0167099
-0.00276472
-0.140091
0.24432
-0.104228
0.136074
0.256957
0.0765857
-0.0849768
-0.15429
0.125311
0.0289787
0.00500442
-0.00466255
-0.00034187
-0.030433
0.290959
-0.0405838
0.0514437
-0.0108599
-0.14013
-0.0141599
-0.0306551
0.0269693
0.00368582
0.221206
0.110205
-0.331411
-0.0721885
0.0779045
-0.00571599
-0.000549693
0.0231221
0.00109764
-0.00269248
0.000604871
0.000936683
-0.00154155
-0.00127123
0.00125905
0.312381
-0.00571933
0.0158082
-0.0100889
0.0955686
-0.0068316
0.0563094
-0.14793
-0.071861
0.442897
-0.19781
-0.0461223
-0.0500844
0.00171709
-0.00252058
0.000803489
0.0615853
0.0102268
-0.0718121
0.0571762
0.15142
-0.00803404
0.182004
0.103425
-0.285429
0.0138674
-0.0860559
-0.340078
0.197867
0.142211
0.0835671
0.152005
-0.0011619
0.00163708
0.14243
-0.163431
0.0210006
0.000941315
0.000384921
-0.00132624
0.176228
-0.273994
0.0977663
-0.2264
-0.0161576
-0.0103962
-0.288514
0.17095
0.117563
-0.0814227
0.0787019
0.283614
-0.11784
-0.0746768
-0.11537
0.190046
0.0156262
-0.122394
0.105331
0.130984
-0.236315
-0.130974
-0.00623429
-0.106328
0.0282103
0.0781178
0.317573
0.0545982
-0.372171
0.0854801
-0.00149386
0.00209873
0.087862