/*--------------------------------*- C++ -*----------------------------------*\
| =========                 |                                                 |
| \\      /  F ield         | OpenFOAM: The Open Source CFD Toolbox           |
|  \\    /   O peration     | Version:  v2012                                 |
|   \\  /    A nd           | Website:  www.openfoam.com                      |
|    \\/     M anipulation  |                                                 |
\*---------------------------------------------------------------------------*/
FoamFile
{
    version     2.0;
    format      ascii;
    class       volVectorField;
    location    "100";
    object      U;
}
// * * * * * * * * * * * * * * * * * * * * * * * * * * * * * * * * * * * * * //

dimensions      [0 1 -1 0 0 0 0];


internalField   nonuniform List<vector> 
27915
(
(1.04575 -0.0207133 1.02155e-20)
(1.23836 -0.085223 -4.34021e-20)
(-0.114231 -0.0231811 0)
(0.0746134 0.0485915 -4.26031e-21)
(1.12764 -0.00240617 -5.19075e-21)
(1.0608 -0.0222262 -4.61594e-21)
(0.550475 0.0620535 0)
(1.16304 -0.0644661 1.80217e-20)
(1.11939 0.0142655 0)
(1.09896 0.0369542 8.06755e-23)
(0.861933 -0.106562 0)
(0.975242 -0.0260655 1.42187e-21)
(1.27483 -0.175585 -2.86745e-20)
(0.398903 0.0241144 -1.85531e-20)
(0.557554 0.0698067 -1.04969e-20)
(1.03097 -0.0841778 -3.02877e-21)
(0.808631 0.0538046 -9.98693e-22)
(1.13338 -0.0569786 1.24624e-21)
(0.755898 -0.0572531 0)
(0.984879 -0.0595601 -1.16522e-22)
(0.390367 0.0238424 1.69059e-20)
(1.00326 -0.0287079 -2.17812e-21)
(0.78988 0.0536833 -2.41684e-21)
(1.04508 -0.021066 -5.43148e-21)
(1.00558 -0.00137496 1.49005e-22)
(1.01132 -0.0238903 -1.37453e-21)
(0.99655 -0.0157268 -5.32439e-21)
(0.570547 -0.621587 -1.6576e-20)
(0.0930942 0.0524757 4.09325e-21)
(-0.0385291 -0.00645509 3.93926e-20)
(1.21097 -0.164245 -4.93487e-20)
(1.02733 -0.00971594 -1.68329e-21)
(0.807539 0.0522713 -1.75984e-20)
(0.983495 -0.0602123 -5.79773e-23)
(0.649559 -0.0442328 1.46922e-20)
(0.996457 -0.0161838 -3.14318e-21)
(0.992051 -0.0240993 -3.46971e-21)
(1.1029 -0.0506662 0)
(0.721764 -0.192659 -2.46086e-20)
(1.0758 -0.0206569 9.49213e-21)
(1.00397 -0.00566504 -1.48339e-21)
(1.08948 -0.0830601 -1.75722e-20)
(1.00199 -0.00809892 1.57278e-21)
(1.16926 0.0447989 5.13461e-20)
(1.10867 0.0703915 0)
(1.0005 -0.000195779 -1.02214e-21)
(0.979666 -0.0190862 -3.99185e-21)
(1.08574 0.0240792 -1.73597e-20)
(1.04026 -0.017472 0)
(1.02424 -0.0270642 0)
(1.08666 0.0247985 -1.7901e-20)
(1.16662 0.0442048 -5.66263e-20)
(1.11189 0.047762 1.79057e-20)
(1.07607 -0.0228779 0)
(1.3122 -0.133555 0)
(0.0900555 0.00908496 1.74258e-20)
(0.644359 0.0409737 0)
(1.01725 0.000242351 2.50229e-22)
(1.00381 -0.028517 -2.00198e-21)
(-0.0480583 0.0334595 0)
(1.027 -0.00989652 0)
(1.05641 -0.221098 -3.08584e-21)
(1.16188 0.0096205 4.10808e-20)
(1.31004 -0.166652 2.58631e-20)
(1.00001 -0.000257108 0)
(1.0764 0.0042108 0)
(1.08174 0.0373562 1.25199e-20)
(1.24156 -0.033498 2.59664e-20)
(0.538592 0.0393192 -1.57724e-20)
(0.93478 -0.0565994 0)
(1.09364 -0.0784472 -3.68811e-21)
(-0.000545223 -0.00779695 -3.39323e-20)
(1.00319 -0.00270174 0)
(1.01133 -0.0200411 0)
(1.05872 -0.115289 0)
(1.12739 -0.150233 -1.12455e-20)
(1.11434 0.0404178 3.29006e-20)
(1.03983 -0.109575 -5.57848e-21)
(-0.120232 0.0619355 0)
(0.974863 -0.0284153 -5.76303e-21)
(1.09005 -0.0810571 1.82546e-20)
(1.0764 -0.0217658 0)
(1.01124 -0.0232696 7.62119e-22)
(1.02439 -0.0264436 -1.29694e-21)
(0.0701105 0.00916896 -3.3969e-20)
(1.0161 -0.0073752 0)
(1.0397 -0.0177321 0)
(0.937005 -0.0571133 1.59719e-20)
(1.11099 0.0484947 1.26259e-20)
(1.13453 -0.0661636 -2.10046e-20)
(0.992703 -0.0153588 -4.49369e-21)
(1.12306 0.0735692 0)
(1.03183 -0.0817561 -2.42496e-21)
(1.20933 -0.159657 4.94733e-20)
(0.935028 -0.0459366 0)
(1.08653 0.025786 2.20469e-20)
(1.09644 0.102575 -2.85534e-20)
(1.07202 0.00911463 -7.76653e-21)
(0.998904 -0.0203459 2.83488e-21)
(0.534996 0.0857556 -1.21145e-20)
(1.00481 -0.0165679 -1.76196e-21)
(1.00043 -0.0001401 0)
(0.426897 -0.0746839 0)
(1.09312 -0.0805009 0)
(1.00259 -0.00235573 8.08253e-22)
(1.04607 0.00341968 9.79162e-21)
(0.991985 -0.00482562 7.83426e-22)
(1.09632 -0.215503 0)
(1.05449 -0.269698 1.93248e-20)
(1.09817 0.0366155 2.72584e-20)
(0.999652 -0.00489762 0)
(0.978624 -0.0565865 -5.99173e-21)
(1.11481 0.0482688 0)
(0.327023 0.0250646 -4.61805e-21)
(1.22862 -0.0774336 2.30695e-20)
(1.10749 0.07055 0)
(0.598602 0.0652886 1.11467e-20)
(1.00076 -0.0227019 2.57898e-21)
(1.12095 0.0122278 0)
(1.01708 -0.000520882 -9.96224e-22)
(1.24489 -0.00192799 6.80703e-20)
(1.12216 0.0098466 1.77369e-20)
(1.14791 -0.241804 2.62295e-20)
(1.13544 -0.055738 2.91158e-21)
(1.05208 -0.0394055 -8.68e-21)
(1.0169 -0.000569005 -1.00728e-21)
(0.979235 -0.0580278 1.23647e-20)
(0.661995 0.0433497 -4.24751e-21)
(1.1023 0.0485356 1.29204e-20)
(1.04064 -0.0765734 0)
(1.07493 -0.0232347 4.52086e-21)
(1.00274 -0.00938664 -1.80227e-22)
(1.01642 -0.00735461 8.96271e-22)
(-0.100226 -0.0246416 0)
(0.201168 0.00504934 1.08204e-20)
(-0.266701 -0.00560028 -9.19513e-20)
(1.00421 -0.00576815 0)
(1.01106 -0.0203649 0)
(0.899133 -0.041628 0)
(1.0158 -0.00710256 0)
(0.104743 0.0566914 -2.53869e-20)
(-0.0282982 0.0369905 0)
(1.05839 0.00931384 -7.44358e-22)
(0.579788 0.0697469 4.7648e-21)
(1.09013 -0.213866 2.80022e-21)
(1.01692 0.000222292 -2.05848e-21)
(1.01112 -0.0524963 5.28764e-22)
(0.670437 0.0414883 1.24236e-20)
(1.2411 -0.000969379 -4.99103e-20)
(1.01429 -0.000310319 -2.33343e-21)
(1.01223 -0.0004763 0)
(1.03733 -0.110822 6.5161e-21)
(1.11047 0.0501285 -1.86676e-20)
(0.788034 0.0525494 0)
(1.16341 0.0116064 0)
(1.03446 -0.109477 5.31097e-21)
(1.04169 0.00319865 7.76743e-21)
(1.0434 -0.00658497 0)
(0.92817 -0.034413 1.48285e-22)
(1.06009 0.00406629 0)
(0.721669 -0.205322 0)
(1.18503 0.00135802 -2.4695e-20)
(1.11482 0.0398515 -2.35291e-20)
(1.04031 -0.0165019 4.43616e-21)
(1.01282 -0.0388675 2.43402e-23)
(1.06922 -0.00919006 -7.09778e-21)
(-0.191895 -0.013628 0)
(1.24103 -0.0561925 0)
(1.04101 0.00290612 4.27057e-21)
(1.2335 -0.0849704 -7.54205e-20)
(0.637748 0.0954105 -2.61451e-20)
(1.04304 -0.00700647 6.49294e-21)
(0.794414 0.0540364 -1.96545e-20)
(1.00289 -0.000457558 0)
(1 -0.000109222 0)
(1.1173 0.0509066 0)
(1.09731 0.0254002 1.64673e-20)
(1.04584 -0.0197169 1.04936e-20)
(1.01106 -0.0513702 2.50488e-22)
(1.31372 -0.146884 2.01512e-20)
(1.04249 -0.00565831 -4.62758e-21)
(1.08238 0.037993 -6.63954e-21)
(1.00297 -0.000359079 0)
(1.19053 0.0890029 2.71988e-20)
(0.311828 0.0229526 0)
(1.12245 0.0117798 0)
(1.14439 0.0254519 0)
(1.00209 -0.00172484 1.83403e-23)
(-0.11273 -0.0229476 9.83318e-20)
(1.06502 -0.122243 -9.57088e-22)
(0.990792 -0.0334307 -6.74393e-21)
(1.1106 0.0497712 0)
(1.00194 -0.00170212 -8.59163e-22)
(1.00224 -0.00032395 -3.11078e-23)
(1.00296 -0.00258816 3.95273e-22)
(0.244829 0.00743719 -1.55487e-20)
(0.976023 -0.0265348 -7.57617e-21)
(1.10135 -0.00596385 1.38347e-20)
(-0.237748 -0.00920351 -1.1246e-19)
(0.485564 0.0601482 0)
(1.17986 -0.22604 0)
(1.11349 0.0592489 -1.30339e-20)
(1.09704 -0.00587311 0)
(1.12933 0.0734195 0)
(0.98052 -0.0191789 3.9329e-21)
(1.07716 0.00368036 0)
(0.551949 0.0387481 0)
(1.04356 -0.0923697 0)
(1.06562 0.0223418 5.21628e-21)
(1.13223 0.0550842 -1.29094e-20)
(0.00743416 0.0152321 -6.99969e-20)
(1.04527 -0.0191899 -1.04821e-20)
(0.547449 0.085093 3.75481e-20)
(0.981346 -0.0579961 -1.07298e-20)
(1.09513 0.0353102 1.34121e-20)
(0.99951 -0.0126458 -2.32861e-21)
(1.11751 0.0515653 6.98157e-21)
(0.667661 0.0664475 1.08343e-20)
(1.13198 0.00423203 -1.16412e-20)
(1.08278 0.0145614 1.91966e-21)
(0.662738 0.0414182 8.6102e-21)
(1.11401 0.0500179 1.33629e-21)
(1.20898 -0.0573216 1.63579e-20)
(0.999483 -0.00564138 -5.16397e-21)
(1.0478 -0.115515 -8.52062e-21)
(1.10472 -0.0494122 1.15332e-20)
(1.15201 -0.0906897 0)
(0.987855 -0.0334187 0)
(1.3147 -0.137835 0)
(1.03981 -0.0161111 -2.08367e-21)
(0.70843 0.05589 1.88023e-20)
(1.01541 -0.00712504 0)
(0.387096 -0.0621781 1.78226e-20)
(1.03295 -0.107742 -5.52961e-21)
(1.04316 -0.00593048 9.01223e-21)
(1.0448 -0.0269897 -1.45539e-21)
(1.20843 0.0882788 -4.34924e-20)
(1.06198 -0.0222835 0)
(1.10618 0.0605104 7.01019e-21)
(1.00582 -0.00620666 2.54755e-22)
(0.996544 -0.00780009 3.19448e-23)
(0.642986 0.0968355 0)
(0.933437 -0.805216 -4.64512e-20)
(1.12352 0.00935156 -3.29098e-20)
(1.00012 -0.006709 -4.98414e-21)
(0.93918 -0.0612749 1.64439e-20)
(1.11115 0.0679374 2.29264e-20)
(0.981916 -0.0591324 5.86384e-21)
(1.27848 -0.171045 8.4797e-20)
(1.11061 0.0503607 2.68133e-20)
(1.00124 -0.00982285 0)
(1.07752 0.0307759 -8.33823e-21)
(1.11126 0.0481961 -1.39725e-20)
(1.00487 -0.0161907 0)
(1.11644 -0.0451416 2.82369e-20)
(0.962685 -0.0658593 -4.98265e-21)
(1.0774 0.0314314 -2.65231e-21)
(1.06862 -0.00995588 3.88902e-21)
(1.24566 -0.00830369 3.17702e-21)
(0.277108 0.0414173 -1.06535e-20)
(-0.0909589 -0.00825949 -3.78718e-20)
(1.01853 -0.0527799 -7.64551e-23)
(1.00331 -0.00255033 -6.24441e-22)
(1.0281 -0.00795461 0)
(1.11516 -0.0488233 1.28526e-20)
(1.11149 0.0482982 9.54179e-21)
(1.02132 -0.00224811 -3.71048e-21)
(0.999616 -0.00517713 -2.5312e-21)
(1.14265 0.0253435 1.16149e-21)
(0.981111 -0.0184019 0)
(1.00247 -0.027529 2.17717e-21)
(1.00254 -0.00908745 1.62589e-22)
(1.01019 -0.207364 -7.15953e-20)
(1.13188 -0.0646487 -1.36253e-20)
(0.971217 -0.0514028 0)
(0.073668 0.0337368 2.50903e-20)
(1.05922 0.00363354 0)
(0.64656 0.0405961 -2.58803e-20)
(0.387911 0.0242295 -2.06946e-20)
(0.044559 0.0392153 2.98054e-20)
(1.11356 0.0499362 2.80984e-21)
(0.683697 0.0453309 -1.01893e-21)
(1.03263 -0.0857371 1.46653e-21)
(0.110541 0.0109948 1.10233e-20)
(0.9014 -0.0398619 -1.55918e-20)
(1.0383 -0.0822596 1.26031e-22)
(1.18834 -0.00870454 -3.21668e-20)
(0.976003 -0.055084 -9.36155e-21)
(1.1066 0.0613661 7.59016e-21)
(-0.11353 -0.00849185 2.15297e-20)
(1.11019 0.0519088 -5.73192e-21)
(1.11719 -0.0470895 -4.46103e-20)
(0.990784 -0.0225225 0)
(1.20926 -0.169578 9.67847e-21)
(1.07237 0.0111089 -4.95021e-21)
(1.01268 -0.00145981 0)
(0.990287 -0.0325058 0)
(-0.0791619 -0.000395331 0)
(1.21002 -0.0539355 0)
(0.987951 -0.0137237 -7.5715e-21)
(1.11361 0.0550424 0)
(1.01975 -0.0272392 -2.17547e-22)
(0.867387 -0.107677 1.34872e-20)
(1.00217 -0.00841619 -2.88508e-21)
(1.10974 0.0520719 -9.32962e-21)
(0.0875685 0.0505684 3.4733e-20)
(0.999744 -0.012557 0)
(1.31151 -0.143491 2.0191e-20)
(1.00106 -0.0222912 -1.62579e-21)
(1.1038 0.060791 -2.44272e-20)
(1.29938 -0.167599 -5.4963e-20)
(0.227683 0.00528036 -1.55021e-20)
(0.1871 0.0585144 -1.47525e-20)
(0.976566 -0.0566007 -6.20534e-23)
(-0.0298568 0.0376151 -7.03948e-21)
(1.01246 -0.00135266 1.02822e-21)
(1.01482 -0.000348867 7.73316e-22)
(1.0151 -0.00685709 0)
(1.15444 -0.0682884 2.98433e-20)
(1.17254 -0.289369 2.14141e-20)
(1.03717 0.103287 -2.91509e-20)
(1.00988 -0.00104414 -7.15855e-22)
(0.963626 -0.00696982 8.74573e-22)
(1.06501 -0.0232469 9.15019e-21)
(1.13724 0.0654098 -7.63079e-21)
(0.927526 -0.0448831 0)
(1.00668 -0.0118409 -6.02016e-22)
(1.18129 -0.0505987 0)
(1.13775 -0.0334986 2.38719e-21)
(1.1307 0.00515396 -1.10454e-20)
(0.990253 -0.0223619 -6.78619e-21)
(0.0227361 0.0229743 6.02217e-20)
(0.899528 -0.0452601 1.49377e-20)
(0.126454 0.0142797 1.39219e-20)
(0.0148764 0.036495 3.23113e-20)
(1.12079 0.0137492 0)
(1.16586 0.0109949 -1.50427e-20)
(1.11364 0.0542682 -5.37683e-21)
(1.20484 -0.171402 0)
(0.962651 -0.0643328 5.84137e-21)
(1.04494 -0.0938292 -8.9669e-22)
(1.09579 0.0361751 7.82022e-21)
(1.15265 -0.0734039 0)
(1.17829 -0.28652 -2.49764e-20)
(1.09649 -0.536511 2.24922e-20)
(-0.175864 0.00619107 0)
(1.00265 -0.0280253 0)
(1.04507 -0.290627 0)
(0.775751 -0.243701 -3.1272e-20)
(1.06055 0.0170778 5.9271e-21)
(1.18559 -0.00972674 2.35254e-20)
(0.246219 0.0434462 1.42283e-21)
(1.11133 0.048866 0)
(1.10162 -0.00450607 -5.77715e-21)
(0.310873 0.0261737 4.70919e-21)
(1.15434 -0.24141 -4.45291e-20)
(1.08069 -0.086077 -1.75018e-20)
(0.98835 -0.0132137 9.24104e-21)
(0.254865 0.0083338 1.52658e-20)
(1.09474 0.058729 -1.16722e-20)
(0.619666 0.0399906 -4.44431e-21)
(1.01918 -0.0253773 -1.48822e-21)
(0.994939 -0.00661261 -3.55096e-21)
(1.24673 -0.00547131 0)
(1.17916 -0.0486973 0)
(1.00001 -0.00132897 -2.11706e-21)
(1.08826 -0.7131 0)
(0.764111 -0.246977 -3.94638e-20)
(1.0469 -0.139946 0)
(1.11585 -0.0508433 1.22357e-20)
(1.08721 -0.0842433 -1.68654e-20)
(1.11428 0.0521699 0)
(1.02233 -0.0851105 1.03582e-21)
(0.936426 -0.165048 -7.38267e-21)
(1.1392 0.00729514 1.80473e-20)
(0.966963 -0.0391141 7.17613e-21)
(1.0461 -0.00925082 0)
(1.04457 -0.0225216 7.93009e-23)
(0.607632 0.0384151 2.09513e-21)
(0.936753 -0.0605802 -1.83624e-20)
(0.63156 0.0948606 -2.46692e-20)
(0.97494 -0.0296878 0)
(1.11125 0.0690472 -2.44413e-20)
(1.18145 -0.0451258 4.2626e-20)
(1.00082 -0.0117756 0)
(1.07431 -0.275879 6.51233e-21)
(1.103 0.0484028 -1.39101e-20)
(1.09717 -0.0396118 1.75229e-20)
(1.30335 -0.0251139 0)
(1.20128 -0.047008 0)
(0.114924 0.0095345 0)
(1.10022 4.22194e-05 -1.16891e-20)
(1.06955 -0.281268 7.98918e-21)
(1.12308 -0.0380423 0)
(1.04659 0.00393864 -6.41951e-21)
(1.10353 0.029619 0)
(0.989203 -0.62683 0)
(1.20745 0.0901952 2.23864e-20)
(0.976974 -0.0329647 -2.99458e-21)
(1.12101 0.0527931 7.24842e-22)
(0.217154 0.0625342 2.63188e-20)
(1.102 -0.0210618 -1.25992e-21)
(1.00033 -0.00642289 -2.1333e-21)
(1.00003 -0.000330732 5.31732e-22)
(0.107285 0.053593 -3.66732e-20)
(0.972673 -0.0203707 0)
(1.17436 -0.221512 -1.65175e-20)
(1.00019 -0.00648105 4.14875e-21)
(1.1203 0.0180834 2.12262e-20)
(1.14096 -0.0474763 0)
(1.00399 -0.00962962 2.2821e-21)
(1.08295 0.0232134 0)
(1.00002 -0.00118335 0)
(1.09682 0.0235241 -3.91393e-22)
(1.06387 -0.0227319 1.03122e-20)
(1.2588 -0.134285 3.63461e-20)
(1.00393 -0.0088106 -1.47201e-21)
(1.24488 -0.0360025 1.42847e-20)
(1.04459 -0.137344 7.11501e-21)
(1.00595 -0.00654534 -5.54014e-22)
(-0.0116443 0.0401088 6.03664e-21)
(1.24566 -0.120208 -2.28814e-20)
(1.13732 0.00731148 0)
(0.0415927 0.0387299 0)
(1.08626 -0.17075 -1.72957e-20)
(0.733475 -0.454354 1.59933e-20)
(1.13951 -0.0458529 0)
(1.01958 -0.0259725 1.62893e-21)
(0.991593 -0.00468684 5.1382e-22)
(0.973476 -0.0533953 -1.28205e-20)
(0.920565 -0.0775956 1.23411e-20)
(1.10309 -0.0199561 0)
(1.17984 -0.0428303 -3.91868e-20)
(1.2558 -0.137985 -4.07128e-21)
(0.283864 0.0315136 8.57244e-21)
(0.919914 -0.0800314 0)
(0.999643 -0.00571235 0)
(1.12255 0.019481 5.23109e-20)
(1.00443 -0.00978352 -8.44953e-22)
(1.31857 -0.164875 3.04693e-20)
(1.00002 -0.00286557 -2.33801e-22)
(1.00143 -0.00481566 0)
(1.29758 -0.0226515 0)
(1.12935 0.0471898 -2.43603e-21)
(1.00413 -0.00875686 -1.01227e-22)
(1.17484 0.0153233 0)
(1.09603 0.0226309 3.53192e-22)
(0.640135 0.0405555 -2.22341e-21)
(1.09708 -0.0754641 0)
(0.997639 -0.0181553 0)
(1.05922 0.00937467 3.86774e-21)
(1.07308 0.00944827 -2.52125e-21)
(1.00131 -0.00958821 -1.90734e-21)
(0.415414 -0.0390221 0)
(0.996954 -0.00668851 4.0079e-21)
(1.02234 -0.0572606 0)
(-0.157326 -0.011717 0)
(1.01301 -0.0200187 0)
(1.02185 -0.0870939 0)
(0.229424 0.0402609 0)
(0.0356751 0.0178078 4.82838e-20)
(1.00671 -0.00657203 0)
(1.11502 0.0590174 0)
(1.07716 0.0202808 -1.1389e-22)
(1.16474 -0.240042 6.61688e-21)
(1.07711 0.0195531 1.68825e-21)
(1.24766 0.0684048 7.20519e-20)
(0.121736 0.0545929 2.2678e-20)
(0.992236 -0.0369105 -3.07306e-21)
(1.12583 -0.00278621 -1.5615e-20)
(1.1272 0.044593 -2.56227e-21)
(1.00499 -0.0241592 0)
(0.376763 0.0226829 2.10989e-20)
(1.01548 -0.0002915 1.87116e-21)
(1 -8.99476e-05 4.17015e-21)
(1.16268 0.0455388 -1.49772e-20)
(1.25065 -0.119636 -5.0861e-20)
(-0.00101875 0.0212682 -6.82354e-20)
(0.97401 -0.0550181 3.64972e-21)
(1.11443 0.00275788 0)
(1.10383 0.0286402 -1.06484e-21)
(1.13192 -0.149735 6.98496e-21)
(0.00723024 0.0233348 -6.29087e-20)
(0.432786 0.0281552 2.8689e-20)
(1.04261 -0.0251348 -5.37877e-21)
(1.02841 -0.00833221 -2.07651e-21)
(1.03891 -0.055758 2.94455e-21)
(1.02364 -0.0575103 1.17949e-21)
(1.11277 0.00226953 0)
(0.966541 -0.067564 -1.38051e-20)
(1.01259 -0.0213154 0)
(1.0752 0.0103296 0)
(1.30276 -0.0879269 2.5376e-20)
(1.04764 -0.0335162 8.08695e-23)
(1.08492 -0.0837869 1.72214e-20)
(1.09971 0.000829462 0)
(1.00002 -0.000151314 0)
(1.07609 0.00603335 0)
(1.15619 0.0542903 0)
(0.922043 -0.0844983 -1.23364e-20)
(1.0738 -0.0253979 2.05385e-20)
(1.00961 -0.0316121 0)
(1.21225 0.0118354 0)
(0.531657 0.0478939 0)
(0.7461 -0.194978 0)
(1.11557 0.060404 -2.45395e-20)
(1.07091 -0.332603 4.71958e-21)
(1.02168 -0.00228097 2.40476e-21)
(1.10839 0.047725 0)
(1.04645 -0.00884951 -8.05214e-21)
(1.01671 -0.000407549 0)
(1.03989 -0.0148284 -7.4613e-23)
(1.07945 -0.336827 0)
(1.00209 -0.00749526 0)
(0.554311 0.0406957 2.69038e-20)
(-0.155378 0.00744742 -3.57205e-20)
(0.973005 -0.193153 -9.24722e-22)
(1.07498 -0.0249813 -1.96704e-20)
(0.582551 0.0925168 -4.14991e-21)
(1.11603 -0.0135553 1.60858e-20)
(1.04646 -0.265166 -8.846e-21)
(1.00669 -0.0108991 -5.63917e-22)
(0.994675 -0.00599155 -2.30228e-21)
(1.19658 0.0905375 -3.08947e-20)
(1.08246 0.0241226 0)
(0.995346 -0.075786 0)
(1.11224 0.0479508 -1.58408e-20)
(0.96799 -0.0211423 4.05937e-21)
(1.00373 -0.0353693 0)
(1.01961 -0.0536195 2.87661e-22)
(0.964442 -0.0680686 4.75982e-21)
(1.00427 -0.0293284 2.20015e-21)
(1.00252 -0.00872699 3.09913e-22)
(0.998519 -0.00813037 -6.75819e-21)
(0.968079 -0.0380798 3.55336e-21)
(1.04127 -0.0704887 0)
(1.01686 0.000136166 5.8494e-22)
(0.138679 0.0158797 -1.4179e-20)
(1.21247 0.00848466 5.15614e-21)
(1.05465 -0.277086 9.66972e-21)
(1.0002 -0.000100646 0)
(1.06745 -0.024622 8.13207e-21)
(1.00683 -0.0112782 -1.28406e-22)
(1.0878 -0.272835 0)
(1.01249 -0.000596451 0)
(1.02224 -0.0106064 -5.87018e-22)
(0.9255 -0.0842844 1.24594e-20)
(1.0296 -0.0221348 5.48224e-22)
(1.11719 0.0492474 0)
(1.00241 -0.00226885 -5.55447e-22)
(1.06205 0.0153539 -4.54451e-20)
(0.385434 0.0226366 -3.03047e-20)
(1.11064 0.0493703 0)
(1.00095 -0.00462629 1.91896e-21)
(0.299591 0.0327514 -1.43792e-20)
(1.11315 0.0492655 -2.17221e-20)
(0.9961 -0.0130427 0)
(1.0436 -0.00299324 -5.63604e-21)
(1.31401 -0.0844668 -4.12371e-20)
(1.04039 -0.0551176 0)
(1.13924 -0.0313405 -5.40923e-21)
(0.999458 -0.00275459 -1.26451e-21)
(1.02274 -0.928375 -1.08804e-20)
(1.06451 -0.0209123 -1.3806e-20)
(1.13627 0.0670276 1.85872e-20)
(1.09781 -0.0411665 -1.90324e-20)
(0.997143 -0.00594765 -4.116e-21)
(1.11417 0.0506561 -5.37572e-21)
(-0.0173864 0.0271027 0)
(1.04668 -0.0329463 0)
(0.993015 -0.0148625 0)
(1.00005 -0.000328112 -2.21978e-21)
(0.996104 -0.0144238 2.9638e-21)
(1.10753 0.0450563 0)
(0.984249 -0.111649 0)
(0.994874 -0.00705207 -3.97059e-21)
(-0.0108114 0.0339723 0)
(0.609627 0.0891108 -1.07929e-20)
(1.3059 -0.181288 0)
(1.01011 -0.0312988 0)
(1.1201 0.0528799 0)
(1.11391 0.0510809 0)
(1.01965 -0.00749931 2.47099e-21)
(0.999228 -0.0200576 -2.80889e-21)
(1.1119 0.0489108 1.14382e-20)
(1.05146 -0.224828 -3.63216e-21)
(1.03915 -0.0429698 5.41131e-21)
(1.10791 0.0476797 0)
(0.270607 0.0102764 0)
(1.15526 -0.0711424 1.92831e-21)
(1.04712 -0.257108 8.9988e-21)
(1.0048 -0.0291393 2.93206e-21)
(1.00353 -0.00262535 0)
(-0.300111 0.00160978 -9.9919e-20)
(0.0792469 0.0129887 -1.60077e-20)
(0.951143 -0.416855 5.61679e-22)
(1.21614 0.0864531 7.46139e-21)
(0.444691 0.0307775 1.72049e-20)
(0.452443 -0.0365075 0)
(1.07691 0.0054678 0)
(1.12682 0.0380125 -1.08123e-20)
(0.81425 -0.14949 3.33126e-21)
(-0.249917 0.00384791 0)
(1.07981 0.0151914 7.41305e-21)
(1.11305 0.053079 0)
(1.09666 -0.0778234 5.21024e-21)
(1.05988 -0.0170314 1.07002e-20)
(1.02475 -0.0289239 2.64765e-21)
(1.04609 -0.0737442 0)
(1.20557 -0.0197674 -8.07008e-21)
(1.00633 -0.0106898 -5.20223e-22)
(1.04316 -0.00817166 4.67986e-21)
(1.09856 -0.0365565 -9.1052e-21)
(1.13307 -0.144988 0)
(1.13329 0.0360846 -1.48031e-21)
(0.725175 0.0475581 -1.56438e-20)
(0.910247 -0.106633 0)
(1.02409 -0.0250889 -2.92883e-24)
(1.00287 -0.00195701 -9.83319e-23)
(0.932516 -0.0464847 0)
(1.07779 -0.00192814 2.87199e-21)
(0.848551 -0.247573 0)
(0.428186 0.0281986 -1.3935e-20)
(1.11628 0.0610409 2.66789e-20)
(1.00149 -0.00506862 0)
(1.11652 0.0497739 0)
(0.986497 -0.0611028 0)
(0.999343 -0.0261812 0)
(1.12297 0.0255603 0)
(1.07641 0.00717927 2.98036e-21)
(1.00003 -0.00027413 2.29041e-21)
(1.12509 0.0267047 1.45204e-20)
(0.923778 -0.0323622 0)
(0.271433 0.00899623 -1.40682e-20)
(1.07854 0.029637 -6.18866e-23)
(1.1172 -0.0414101 -2.44611e-22)
(0.155322 0.0192943 1.37294e-20)
(1.21586 0.00371997 0)
(1.14855 -0.136139 0)
(0.999986 -0.000244297 0)
(0.999869 -0.000874217 -2.73898e-22)
(1.0084 -0.00656036 0)
(1.29118 -0.290231 -1.22171e-20)
(1.11064 0.0495092 1.9868e-20)
(1.17061 -0.158196 3.08532e-21)
(0.621845 0.0903755 -1.19901e-20)
(1.10288 -0.0528974 -5.06499e-21)
(-0.303794 0.00176287 0)
(1.03291 -0.00697107 0)
(1.07014 -0.766242 -3.10996e-20)
(1.02277 -0.0109045 1.31977e-21)
(0.968241 -0.020082 0)
(1.05707 -0.0466877 1.40902e-20)
(1.03995 -0.018746 8.6532e-21)
(1.23637 -0.0562525 0)
(0.987707 -0.0604148 -4.71637e-21)
(1.04188 -0.0257561 -1.03413e-20)
(1.06464 0.0136445 7.90808e-21)
(0.991506 -0.0373237 0)
(1.30843 -0.177627 0)
(1.0587 -0.0091594 0)
(1.00168 -0.0068772 -2.62481e-21)
(1.0941 0.0579842 0)
(1.07255 0.0119586 0)
(1.04502 -0.117184 8.01836e-21)
(1.01668 -0.0140433 0)
(1.03939 -0.0190105 -4.08013e-21)
(1.11364 0.0493092 2.39314e-20)
(0.988957 -0.0134602 -4.46994e-21)
(1.03999 -0.013509 0)
(1.04234 -0.00821828 -2.24684e-21)
(1.01469 -0.000692993 -8.84341e-22)
(1.10468 0.0605884 2.1573e-20)
(1.01745 -0.00155597 -3.53418e-21)
(1.03304 -0.00961334 -5.65351e-21)
(1.12101 0.0442289 1.08808e-20)
(0.921351 -0.0327149 -1.34698e-20)
(1.05763 -0.0454911 -1.19574e-20)
(0.43549 -0.0297229 0)
(1.00435 -0.00612572 0)
(1.11829 -0.0433971 0)
(0.333181 0.0279634 4.94181e-21)
(0.665627 0.0960485 2.09539e-20)
(1.17639 0.0940781 0)
(1.00367 -0.00784086 0)
(1.13703 -0.144157 -1.64564e-20)
(1.07612 0.0209482 1.06598e-22)
(1.00082 -0.00277784 2.38237e-21)
(1.02012 -0.0561012 4.72471e-22)
(1.0983 0.0251249 0)
(1.04456 -0.0726725 0)
(0.996747 -0.00700107 -4.36667e-21)
(0.992602 -0.0237288 4.85844e-21)
(1.03778 -0.0386727 -4.76213e-21)
(0.589755 -0.0176522 0)
(-0.12445 0.0112115 7.90687e-21)
(1.12253 0.0307321 -8.38521e-21)
(1.20284 -0.0445138 0)
(1.08886 -0.553393 -1.60433e-20)
(0.986736 -0.10993 7.3234e-21)
(0.999993 -0.000220731 -5.4056e-22)
(1.12601 0.026128 -1.66544e-20)
(0.930367 -0.288247 -2.2614e-21)
(0.996601 -0.00200396 7.72265e-21)
(1.10817 -0.160538 2.48038e-20)
(0.989357 -0.0129378 -5.94049e-22)
(1.11071 0.051562 3.1767e-21)
(0.917378 -0.0719904 -1.29297e-20)
(0.887013 -0.231951 -7.73274e-21)
(1.05358 -0.0943198 -1.08146e-21)
(1.01737 -0.00140588 3.51931e-21)
(0.854067 -0.158552 6.08033e-20)
(1.01926 -0.0553539 0)
(0.296679 0.0435529 -7.25995e-21)
(1.15851 0.0553879 0)
(1.26804 -0.258534 0)
(1.09902 -0.0381279 -6.61268e-22)
(1.08314 -0.278185 -4.20689e-21)
(1.03304 -0.00871896 -4.90282e-21)
(1.00684 -0.00689773 7.54136e-23)
(0.998965 -0.00918593 -2.65332e-21)
(1.00001 -0.000142455 0)
(1.07843 0.030358 4.64516e-21)
(1.00157 -0.0213305 -1.35345e-22)
(1.07558 0.0076959 1.1487e-20)
(1.08832 -0.00419944 0)
(1.07842 -0.00127824 5.35115e-21)
(0.969827 -0.0696431 0)
(1.13362 0.0352609 -1.08281e-20)
(0.109636 0.01858 -5.99934e-20)
(1.05785 -0.00870396 4.63749e-24)
(1.00495 -0.00675309 -8.36217e-22)
(1.0244 -0.0284397 -1.00658e-21)
(1.10371 0.0314505 1.17329e-20)
(0.996929 -0.00628382 0)
(1.15382 -0.0766602 1.5687e-20)
(1.0906 0.0172728 0)
(1.00686 -0.0101456 0)
(1.00008 -0.000576078 -6.66101e-22)
(1.11079 0.0490513 -2.05663e-20)
(1.11726 0.0608264 1.341e-20)
(1.04078 -0.0399886 -2.8031e-21)
(1.07626 0.0216264 -7.15239e-21)
(0.747739 0.0493733 1.73507e-20)
(1.03327 -0.00673694 1.51173e-21)
(1.06252 0.00700132 7.44501e-21)
(0.317143 0.0250485 -1.87507e-20)
(1.08856 -0.0108253 -1.24563e-20)
(-0.0612906 -0.0259008 0)
(1.00073 -0.00262891 -2.10745e-21)
(1.07951 -0.0398971 0)
(1.0929 0.0369032 0)
(1.23983 -0.048607 4.54077e-20)
(0.998899 -0.00891343 0)
(0.964539 -0.0370823 -8.7618e-21)
(1.09848 -0.137151 -2.26273e-20)
(1.0847 -0.166089 8.06387e-21)
(0.974874 -0.198651 6.22167e-21)
(1.27349 -0.255309 3.47879e-20)
(-0.237434 0.00293299 -2.49257e-20)
(1.07916 -0.0389265 -1.50336e-21)
(0.47705 -0.0337263 0)
(1.00585 -0.00142443 0)
(0.630329 -0.0222994 0)
(1.04528 -0.0221816 -3.36113e-21)
(1.09964 -0.135057 2.58439e-20)
(0.785773 0.0509757 1.71509e-20)
(1.1623 -0.0613372 -3.3404e-20)
(1.09416 0.0355277 -1.56304e-20)
(0.988045 -0.00734627 2.64265e-21)
(1.10658 0.0128453 0)
(0.967919 -0.0701227 2.03541e-20)
(1.07192 0.0135197 -1.08009e-20)
(1.04495 -0.221399 0)
(1.00404 -0.00841729 0)
(0.987325 -0.0341763 2.73116e-21)
(1.12139 0.0306285 -8.13205e-21)
(0.531941 -0.0957933 3.05184e-20)
(1.16608 -0.158919 0)
(1.10495 -0.0279176 0)
(1.05721 -0.00729601 -1.04137e-20)
(0.993143 -0.0300946 0)
(-0.122764 -0.00641745 -2.17143e-20)
(1.03114 -0.0115905 -2.53933e-21)
(0.999366 -0.00581443 7.61356e-21)
(1.24168 -0.04598 -5.11977e-20)
(1.00512 -0.00610265 -5.2846e-22)
(1.06143 0.0170837 -4.75309e-24)
(-0.0236638 -0.00843998 -3.62251e-20)
(0.113678 0.0585746 1.06382e-20)
(1.0598 -0.0252759 5.74467e-21)
(1.01746 -0.00114148 -4.79438e-21)
(1.00389 -0.00978425 0)
(1.0878 -0.0117459 1.53896e-20)
(-0.0604934 -0.00729938 0)
(1.00365 -0.00366954 4.50859e-23)
(1.24343 -0.115227 0)
(1.11259 0.0599894 1.40081e-20)
(1.09152 0.0168386 0)
(1.11892 0.0185967 0)
(0.964875 -0.0360235 1.22391e-20)
(1.12823 0.0451532 2.03261e-20)
(1.01557 -2.06065e-05 -1.28356e-21)
(0.976389 -0.165254 2.86237e-21)
(-0.0910497 -0.0116465 2.86033e-20)
(1.03567 -0.0422935 -4.23624e-21)
(1.21611 -0.00338397 -4.13834e-20)
(1.05117 -0.0369714 8.74424e-21)
(0.154011 0.0637271 -1.90466e-20)
(1.10788 0.0125445 -4.94669e-21)
(0.988493 -0.00758526 0)
(1.00104 -0.0119468 1.9661e-21)
(1.24961 0.069893 -5.30402e-22)
(0.992811 -0.0143561 0)
(0.981865 -0.0186943 0)
(0.400266 0.0237412 2.89557e-21)
(1.11575 0.0593144 -1.49085e-20)
(0.113293 0.0263739 -1.38066e-20)
(0.998413 -0.00202295 0)
(1.02865 -0.105908 0)
(1.20939 0.0849074 5.56532e-20)
(0.666403 0.0427604 2.21106e-21)
(1.16706 -0.380885 -5.01926e-20)
(1.25609 -0.268491 -9.03167e-20)
(0.996843 -0.00202158 -4.80616e-21)
(1.05176 -0.0931692 0)
(1.03786 -0.0432876 -2.27389e-21)
(1.13739 -0.263441 1.49462e-20)
(1.21583 0.0068241 0)
(0.72409 0.0980912 6.48474e-21)
(0.995518 -0.0495616 7.74751e-22)
(1.11137 0.0433033 0)
(1.07559 -0.173454 0)
(1.18733 -0.000337026 5.61405e-20)
(0.659018 0.0521488 0)
(1.02355 -0.0245108 -1.23926e-21)
(0.0619774 0.0337905 -2.59974e-20)
(1.10939 0.0529968 2.46039e-21)
(1.30003 -0.016859 0)
(0.994611 -0.00641669 7.38805e-21)
(1.1517 -0.134043 3.41285e-20)
(0.96797 -0.0849777 -7.95225e-21)
(0.999953 -0.000882234 4.64668e-21)
(1.09641 -0.00732156 0)
(0.969538 -0.0870622 -2.62386e-22)
(1.07906 0.0166721 6.60617e-21)
(1.08686 0.0346586 1.45014e-20)
(1.00809 -0.0167989 -9.34539e-22)
(0.849719 -0.149674 0)
(1.07998 0.0161426 -3.88015e-21)
(1.03837 -0.135532 0)
(1.03037 -0.0799634 3.60031e-21)
(1.02339 -0.0388756 -3.47371e-22)
(0.438756 0.0282947 0)
(1.10986 0.0527678 0)
(0.581688 -0.0191624 0)
(1.01683 -0.0192023 -5.45726e-22)
(1.08753 -0.00480813 0)
(1.13358 0.0546122 -3.75541e-23)
(0.929771 -0.088826 0)
(1.11075 0.0497572 -1.95255e-20)
(0.312309 0.0516807 0)
(0.0920282 0.0149636 1.48311e-20)
(1.03137 -0.71759 3.4832e-20)
(1.00197 -0.00779446 0)
(1.13365 -0.111975 0)
(0.967273 -0.241713 0)
(0.447787 0.0276031 -9.83971e-21)
(0.944768 -0.0689845 -1.64925e-20)
(1.10157 -0.024031 -2.21182e-20)
(1.04349 -0.0381779 -5.52656e-21)
(1.11088 0.0492742 2.16827e-20)
(1.02211 -0.0076957 2.00572e-23)
(1.11157 0.0420756 1.5164e-20)
(0.0795668 0.0428862 5.35634e-20)
(0.941826 -0.0653608 1.01209e-21)
(1.10273 -0.0228356 2.28894e-20)
(0.966996 -0.0470965 -1.70811e-20)
(0.617435 -0.0227669 0)
(1.01604 -0.0194856 -6.45625e-22)
(1.00794 -0.0121786 -1.35506e-21)
(1.00482 -0.0247101 1.76516e-21)
(1.06375 -0.0217261 3.71704e-21)
(1.10332 0.064052 1.85756e-20)
(1.01727 -0.00105222 1.59675e-21)
(1.00617 -0.0103273 1.13859e-21)
(1.00176 -0.0208517 0)
(0.847706 -0.14357 -1.62906e-20)
(-0.260547 -0.00184886 -2.6765e-20)
(1.00645 -0.0142911 -7.85057e-22)
(1.00909 -0.0183851 0)
(1.00653 -0.0147042 7.90537e-22)
(1.03918 -0.0212605 4.17599e-21)
(1.05116 -0.0361271 -7.66178e-21)
(0.687229 0.05328 -2.00584e-20)
(1.00609 -0.0256763 0)
(0.993316 -0.0227663 0)
(1.11658 0.0182636 -2.33485e-20)
(1.08603 0.0228949 0)
(1.00376 -0.00816836 8.36929e-22)
(0.925522 -0.0349157 1.09222e-20)
(1.10445 -0.159632 -3.11568e-20)
(0.692351 0.0438546 -8.5929e-21)
(1.03536 -0.0435109 4.2196e-21)
(1.02309 -0.0397975 1.76279e-21)
(1.05358 -0.0481992 1.01979e-20)
(1.01642 -0.0186097 -5.21818e-22)
(1.11294 0.053815 6.95164e-21)
(1.15492 0.0172782 -9.96028e-21)
(-0.0868678 -0.0256116 0)
(0.971626 -0.0531797 0)
(0.339223 0.0293908 2.5895e-23)
(1.01912 -0.0384729 7.39528e-23)
(0.995474 -0.0141802 0)
(1.10037 0.0294296 -1.09949e-21)
(1.23559 -0.118911 1.08493e-20)
(0.261251 0.0688658 1.05365e-20)
(1.00803 -0.0118955 5.43825e-22)
(1.12895 0.00502313 -2.33036e-20)
(1.0586 -0.0250656 -1.03174e-20)
(1.0964 -0.027554 -6.5542e-23)
(1.03291 -0.00263935 1.39294e-21)
(0.625645 0.0334562 0)
(1.00425 -0.00789921 8.65746e-23)
(1.11775 0.0175711 0)
(0.363259 0.032016 0)
(1.00293 -0.0214979 0)
(1.09672 0.0359479 6.4522e-22)
(0.957416 -0.014314 -3.94138e-21)
(1.05076 -0.0395475 -1.50545e-21)
(1.07812 0.0181488 0)
(1.10421 0.0322755 -1.32214e-21)
(0.419641 0.0626715 -2.23361e-20)
(1.08708 0.0338106 -9.62747e-21)
(1.01184 -0.0242864 3.53198e-22)
(1.0077 -0.0166892 1.48168e-21)
(0.228262 0.0648462 3.65692e-21)
(1.0142 -0.0135271 -7.8469e-22)
(1.02677 -0.0788378 8.77034e-22)
(0.960297 -0.242396 3.14025e-22)
(1.00074 -0.0036054 -2.4748e-21)
(1.03898 -0.0202896 4.31351e-23)
(1.03175 -0.0227879 5.58787e-21)
(1.00867 -0.0182138 -5.55417e-22)
(1.1145 0.0516289 3.08699e-21)
(1.19163 -0.436385 -2.3109e-20)
(1.04458 -0.0351239 0)
(0.925753 -0.282253 2.13571e-21)
(1.02324 0.069156 -2.33471e-21)
(0.392583 0.0232654 -2.45307e-21)
(0.181761 0.00675239 -1.02518e-20)
(1.12118 0.0451887 -1.21277e-20)
(0.0337095 0.0251747 6.11285e-20)
(1.00357 -0.0346441 8.33862e-22)
(0.991734 -0.00650308 0)
(1.03337 -0.00840383 -5.73427e-21)
(0.61369 0.0738759 -2.46998e-21)
(0.322227 0.0535367 2.89096e-21)