/*--------------------------------*- C++ -*----------------------------------*\
| =========                 |                                                 |
| \\      /  F ield         | OpenFOAM: The Open Source CFD Toolbox           |
|  \\    /   O peration     | Version:  v2012                                 |
|   \\  /    A nd           | Website:  www.openfoam.com                      |
|    \\/     M anipulation  |                                                 |
\*---------------------------------------------------------------------------*/
FoamFile
{
    version     2.0;
    format      ascii;
    class       volVectorField;
    location    "100";
    object      U_0;
}
// * * * * * * * * * * * * * * * * * * * * * * * * * * * * * * * * * * * * * //

dimensions      [0 1 -1 0 0 0 0];


internalField   nonuniform List<vector> 
27915
(
(1.04574 -0.0207153 1.01747e-20)
(1.23838 -0.0851935 -4.33813e-20)
(-0.114215 -0.0231791 0)
(0.0747829 0.0485747 -4.25318e-21)
(1.12762 -0.00242248 -5.18368e-21)
(1.06079 -0.0222306 -4.6026e-21)
(0.550602 0.0621752 0)
(1.16303 -0.0644575 1.80054e-20)
(1.11937 0.0142406 0)
(1.09897 0.0369416 8.0611e-23)
(0.861928 -0.106552 0)
(0.975241 -0.0260619 1.42462e-21)
(1.27486 -0.175611 -2.86646e-20)
(0.398637 0.0241672 -1.85295e-20)
(0.557359 0.069636 -1.04829e-20)
(1.03097 -0.0841749 -3.00681e-21)
(0.808653 0.0539609 -9.97132e-22)
(1.13337 -0.0569768 1.24479e-21)
(0.75581 -0.0572812 0)
(0.984875 -0.0595585 -1.16512e-22)
(0.390096 0.0238956 1.68844e-20)
(1.00325 -0.0287065 -2.19402e-21)
(0.7899 0.053838 -2.41305e-21)
(1.04507 -0.0210678 -5.40964e-21)
(1.00558 -0.00137479 1.69289e-22)
(1.01132 -0.0238906 -1.42364e-21)
(0.996549 -0.0157242 -5.34621e-21)
(0.570533 -0.621554 -1.65864e-20)
(0.0932592 0.0524556 4.08637e-21)
(-0.0385902 -0.00650418 3.93834e-20)
(1.21098 -0.16425 -4.93213e-20)
(1.02733 -0.00971686 -1.67141e-21)
(0.807549 0.0524216 -1.75725e-20)
(0.983491 -0.0602108 -5.79963e-23)
(0.649478 -0.0442684 1.46897e-20)
(0.996456 -0.016181 -3.15604e-21)
(0.992049 -0.0240953 -3.48122e-21)
(1.10289 -0.050668 0)
(0.721756 -0.192641 -2.46182e-20)
(1.07579 -0.0206636 9.47084e-21)
(1.00397 -0.00566484 -1.51913e-21)
(1.08947 -0.0830582 -1.75424e-20)
(1.00199 -0.00809922 1.58766e-21)
(1.16918 0.0447517 5.1282e-20)
(1.1086 0.070492 0)
(1.0005 -0.000195665 -1.04035e-21)
(0.979665 -0.0190815 -3.99993e-21)
(1.08575 0.0240656 -1.73212e-20)
(1.04026 -0.0174737 0)
(1.02423 -0.0270644 0)
(1.08666 0.0247846 -1.78619e-20)
(1.16654 0.0441558 -5.65556e-20)
(1.11196 0.0477338 1.78803e-20)
(1.07607 -0.0228842 0)
(1.31227 -0.133565 0)
(0.0899365 0.00906093 1.74108e-20)
(0.644191 0.0409704 0)
(1.01725 0.000242268 2.47587e-22)
(1.00381 -0.0285157 -2.01757e-21)
(-0.0479897 0.0335267 0)
(1.027 -0.0098973 0)
(1.0564 -0.221095 -3.07939e-21)
(1.16183 0.00960593 4.10347e-20)
(1.31005 -0.166682 2.58566e-20)
(1.00001 -0.000256631 0)
(1.0764 0.00420022 0)
(1.08173 0.0373426 1.24893e-20)
(1.24155 -0.0334382 2.59514e-20)
(0.538388 0.0392603 -1.57621e-20)
(0.934777 -0.056595 0)
(1.09363 -0.0784456 -3.68231e-21)
(-0.000602363 -0.00784908 -3.39246e-20)
(1.00319 -0.0027018 0)
(1.01132 -0.0200413 0)
(1.05871 -0.115285 0)
(1.12739 -0.150232 -1.12339e-20)
(1.11436 0.0403804 3.28503e-20)
(1.03983 -0.109571 -5.55181e-21)
(-0.120222 0.0619476 0)
(0.974861 -0.028412 -5.77421e-21)
(1.09004 -0.0810553 1.82237e-20)
(1.07639 -0.0217724 0)
(1.01124 -0.0232699 7.89483e-22)
(1.02439 -0.0264438 -1.2827e-21)
(0.0700322 0.00914544 -3.39359e-20)
(1.0161 -0.00737533 0)
(1.03969 -0.0177336 0)
(0.937002 -0.057109 1.59896e-20)
(1.11122 0.0484101 1.26135e-20)
(1.13451 -0.0661607 -2.09815e-20)
(0.992701 -0.0153553 -4.5077e-21)
(1.12306 0.0737898 0)
(1.03182 -0.0817533 -2.40623e-21)
(1.20934 -0.159661 4.94456e-20)
(0.935026 -0.0459325 0)
(1.08653 0.0257723 2.19986e-20)
(1.09645 0.102454 -2.85086e-20)
(1.07202 0.00910487 -7.7464e-21)
(0.998902 -0.0203425 2.84937e-21)
(0.53489 0.0856123 -1.20931e-20)
(1.00481 -0.0165655 -1.78032e-21)
(1.00043 -0.00014001 0)
(0.426788 -0.0746998 0)
(1.09311 -0.0804991 0)
(1.00259 -0.00235585 8.28498e-22)
(1.04607 0.00341609 9.75124e-21)
(0.991985 -0.00482478 7.8541e-22)
(1.09631 -0.215503 0)
(1.05447 -0.269696 1.92923e-20)
(1.09817 0.0366029 2.72062e-20)
(0.999652 -0.00489526 0)
(0.978621 -0.0565848 -6.00644e-21)
(1.11496 0.0481822 0)
(0.32676 0.0250124 -4.61507e-21)
(1.22863 -0.0773861 2.30658e-20)
(1.10743 0.0706456 0)
(0.598737 0.0654076 1.1137e-20)
(1.00075 -0.0226989 2.59446e-21)
(1.12094 0.0122035 0)
(1.01708 -0.000521133 -9.85308e-22)
(1.24484 -0.00185136 6.80253e-20)
(1.12214 0.00982353 1.77114e-20)
(1.1479 -0.241811 2.62094e-20)
(1.13543 -0.0557362 2.90827e-21)
(1.05207 -0.0394055 -8.65058e-21)
(1.0169 -0.000569232 -9.96022e-22)
(0.979232 -0.0580261 1.23957e-20)
(0.661913 0.0434646 -4.24173e-21)
(1.10231 0.048546 1.28965e-20)
(1.04064 -0.0765708 0)
(1.07492 -0.0232408 4.51049e-21)
(1.00274 -0.00938661 -1.82116e-22)
(1.01642 -0.00735471 8.84117e-22)
(-0.100213 -0.0246383 0)
(0.200801 0.00505146 1.08108e-20)
(-0.26668 -0.00560162 -9.19173e-20)
(1.00421 -0.00576785 0)
(1.01106 -0.0203649 0)
(0.899131 -0.0416214 0)
(1.0158 -0.00710268 0)
(0.104887 0.0567061 -2.53462e-20)
(-0.0282309 0.0370612 0)
(1.05839 0.0093079 -7.41932e-22)
(0.57958 0.0695726 4.75815e-21)
(1.09012 -0.213866 2.79647e-21)
(1.01692 0.000222203 -2.03658e-21)
(1.01112 -0.052496 5.37423e-22)
(0.670297 0.0415221 1.24132e-20)
(1.24104 -0.000897312 -4.9877e-20)
(1.01429 -0.000310336 -2.30183e-21)
(1.01223 -0.000476336 0)
(1.03733 -0.110818 6.48511e-21)
(1.11054 0.0501561 -1.86393e-20)
(0.788044 0.0526992 0)
(1.16336 0.0115912 0)
(1.03445 -0.109473 5.27934e-21)
(1.04169 0.00319597 7.73178e-21)
(1.0434 -0.00658947 0)
(0.928168 -0.0344087 1.48423e-22)
(1.06009 0.00405941 0)
(0.721661 -0.205303 0)
(1.18498 0.00136602 -2.46715e-20)
(1.11484 0.0398132 -2.3493e-20)
(1.04031 -0.0165039 4.41593e-21)
(1.01282 -0.0388681 2.49947e-23)
(1.06922 -0.00919808 -7.07957e-21)
(-0.19188 -0.0136264 0)
(1.24104 -0.0561453 0)
(1.04101 0.00290348 4.25058e-21)
(1.23351 -0.0849422 -7.5382e-20)
(0.637757 0.0953552 -2.61005e-20)
(1.04304 -0.00701091 6.46501e-21)
(0.79444 0.054195 -1.96237e-20)
(1.00289 -0.000457554 0)
(1 -0.000109007 0)
(1.11735 0.0508242 0)
(1.09731 0.0253832 1.6436e-20)
(1.04583 -0.0197192 1.04517e-20)
(1.01105 -0.0513699 2.54488e-22)
(1.31378 -0.146904 2.01467e-20)
(1.04249 -0.00566273 -4.60748e-21)
(1.08238 0.0379796 -6.6235e-21)
(1.00297 -0.000359066 0)
(1.19055 0.089014 2.71644e-20)
(0.311562 0.0229015 0)
(1.12244 0.0117555 0)
(1.14435 0.0254131 0)
(1.00209 -0.0017249 1.83156e-23)
(-0.112715 -0.0229432 9.82933e-20)
(1.06501 -0.12224 -9.54924e-22)
(0.99079 -0.0334285 -6.76632e-21)
(1.11073 0.0497159 0)
(1.00194 -0.00170215 -8.78622e-22)
(1.00224 -0.000323936 -3.10761e-23)
(1.00296 -0.00258826 4.06088e-22)
(0.244499 0.00745591 -1.55276e-20)
(0.976021 -0.0265312 -7.59108e-21)
(1.10134 -0.00597681 1.38111e-20)
(-0.237726 -0.00920165 -1.12418e-19)
(0.485677 0.0602689 0)
(1.17985 -0.226051 0)
(1.11364 0.0590675 -1.30179e-20)
(1.09703 -0.00588556 0)
(1.12927 0.0736322 0)
(0.980519 -0.0191742 3.94116e-21)
(1.07716 0.0036696 0)
(0.551749 0.0387096 0)
(1.04355 -0.0923665 0)
(1.06563 0.0223331 5.20073e-21)
(1.13222 0.0549782 -1.2891e-20)
(0.00735046 0.0152877 -6.9978e-20)
(1.04527 -0.0191923 -1.04396e-20)
(0.547331 0.0849439 3.74823e-20)
(0.981343 -0.0579945 -1.07579e-20)
(1.09513 0.0352976 1.3385e-20)
(0.999509 -0.0126452 -2.34071e-21)
(1.11756 0.0514785 6.97206e-21)
(0.667806 0.0665662 1.08253e-20)
(1.13196 0.00421191 -1.16256e-20)
(1.08278 0.0145487 1.91542e-21)
(0.662588 0.0414408 8.60306e-21)
(1.11412 0.0500823 1.33455e-21)
(1.20897 -0.0572937 1.63469e-20)
(0.999482 -0.00563968 -5.18874e-21)
(1.0478 -0.115511 -8.49039e-21)
(1.10471 -0.0494141 1.15157e-20)
(1.152 -0.0906836 0)
(0.987852 -0.0334163 0)
(1.31477 -0.137848 0)
(1.03981 -0.0161131 -2.07396e-21)
(0.708458 0.0560534 1.87658e-20)
(1.01541 -0.00712525 0)
(0.386993 -0.062198 1.78163e-20)
(1.03295 -0.107738 -5.49583e-21)
(1.04316 -0.00593497 8.97331e-21)
(1.0448 -0.0269903 -1.44949e-21)
(1.20836 0.088273 -4.34365e-20)
(1.06197 -0.022288 0)
(1.10632 0.0603377 7.00167e-21)
(1.00582 -0.00620589 2.67201e-22)
(0.996544 -0.00780018 3.19217e-23)
(0.643001 0.0967857 0)
(0.933517 -0.80519 -4.64399e-20)
(1.12351 0.00932852 -3.28626e-20)
(1.00012 -0.0067083 -5.01374e-21)
(0.939177 -0.0612707 1.64631e-20)
(1.1111 0.0680522 2.28771e-20)
(0.981912 -0.0591308 5.87952e-21)
(1.27851 -0.17107 8.47681e-20)
(1.11068 0.0503927 2.67724e-20)
(1.00124 -0.00982308 0)
(1.07753 0.0307629 -8.31712e-21)
(1.11134 0.0481819 -1.39529e-20)
(1.00487 -0.0161884 0)
(1.11643 -0.0451438 2.81988e-20)
(0.962681 -0.0658564 -4.99124e-21)
(1.0774 0.0314182 -2.64551e-21)
(1.06861 -0.00996371 3.87893e-21)
(1.24562 -0.00822865 3.17501e-21)
(0.277026 0.0412982 -1.06421e-20)
(-0.0909901 -0.00830143 -3.78604e-20)
(1.01852 -0.0527793 -7.64284e-23)
(1.00331 -0.00255036 -6.43708e-22)
(1.02809 -0.00795627 0)
(1.11515 -0.0488249 1.28352e-20)
(1.11157 0.0482801 9.52821e-21)
(1.02132 -0.00224948 -3.67719e-21)
(0.999616 -0.00517502 -2.54385e-21)
(1.14262 0.0253045 1.15998e-21)
(0.98111 -0.018397 0)
(1.00247 -0.0275272 2.19239e-21)
(1.00254 -0.00908754 1.64293e-22)
(1.01002 -0.207368 -7.15623e-20)
(1.13187 -0.0646462 -1.36097e-20)
(0.971214 -0.0514008 0)
(0.073652 0.033836 2.5076e-20)
(1.05922 0.00362685 0)
(0.646408 0.0406225 -2.58589e-20)
(0.38763 0.0242365 -2.06769e-20)
(0.0445726 0.0393066 2.97829e-20)
(1.11367 0.0499948 2.80602e-21)
(0.683633 0.0454523 -1.01752e-21)
(1.03262 -0.0857341 1.45448e-21)
(0.110402 0.0109642 1.10142e-20)
(0.901398 -0.0398556 -1.56032e-20)
(1.03829 -0.0822567 1.25376e-22)
(1.1883 -0.00869058 -3.21374e-20)
(0.976 -0.0550823 -9.3831e-21)
(1.10673 0.0611878 7.58116e-21)
(-0.113558 -0.0085307 2.15232e-20)
(1.11024 0.0519543 -5.72274e-21)
(1.11718 -0.0470912 -4.455e-20)
(0.990782 -0.0225183 0)
(1.20927 -0.169585 9.67313e-21)
(1.07237 0.011099 -4.93764e-21)
(1.01268 -0.00145989 0)
(0.990285 -0.0325033 0)
(-0.0792814 -0.00040866 0)
(1.21001 -0.0539062 0)
(0.98795 -0.0137193 -7.5901e-21)
(1.11369 0.0549311 0)
(1.01975 -0.0272401 -2.13581e-22)
(0.867382 -0.107667 1.34962e-20)
(1.00217 -0.00841646 -2.91363e-21)
(1.10979 0.0521168 -9.31427e-21)
(0.0877362 0.0505444 3.4675e-20)
(0.999743 -0.0125564 0)
(1.31158 -0.143509 2.01859e-20)
(1.00106 -0.0222882 -1.63553e-21)
(1.10379 0.060848 -2.43759e-20)
(1.29934 -0.167627 -5.49489e-20)
(0.227352 0.00529513 -1.54808e-20)
(0.187213 0.0584366 -1.47275e-20)
(0.976562 -0.0565989 -6.2086e-23)
(-0.0297762 0.0376844 -7.03211e-21)
(1.01246 -0.00135274 1.00927e-21)
(1.01482 -0.000348886 7.63097e-22)
(1.0151 -0.00685732 0)
(1.15443 -0.0682818 2.98151e-20)
(1.17252 -0.289381 2.13998e-20)
(1.03719 0.103178 -2.91047e-20)
(1.00988 -0.00104423 -6.94988e-22)
(0.963626 -0.00696539 8.75735e-22)
(1.06501 -0.0232516 9.12634e-21)
(1.1372 0.0652751 -7.61948e-21)
(0.927524 -0.0448785 0)
(1.00667 -0.0118393 -6.1573e-22)
(1.18128 -0.0505834 0)
(1.13773 -0.033501 2.38437e-21)
(1.13068 0.00513322 -1.10305e-20)
(0.990251 -0.0223576 -6.80668e-21)
(0.022678 0.0230542 6.01979e-20)
(0.899526 -0.0452534 1.49488e-20)
(0.126324 0.0142398 1.39103e-20)
(0.014896 0.0365869 3.22854e-20)
(1.12078 0.013724 0)
(1.16581 0.0109815 -1.50261e-20)
(1.11373 0.0541637 -5.36997e-21)
(1.20485 -0.171408 0)
(0.962648 -0.0643299 5.85145e-21)
(1.04493 -0.093826 -8.93282e-22)
(1.0958 0.0361629 7.80455e-21)
(1.15264 -0.0733976 0)
(1.17827 -0.286533 -2.49606e-20)
(1.09645 -0.536499 2.24766e-20)
(-0.175982 0.00622164 0)
(1.00265 -0.0280237 0)
(1.04505 -0.290624 0)
(0.775742 -0.243684 -3.12889e-20)
(1.06056 0.0170715 5.90812e-21)
(1.18554 -0.00971431 2.35035e-20)
(0.246176 0.0433274 1.42164e-21)
(1.11142 0.0488696 0)
(1.10161 -0.00451951 -5.76754e-21)
(0.310629 0.026109 4.70609e-21)
(1.15433 -0.241418 -4.44954e-20)
(1.08068 -0.0860748 -1.74692e-20)
(0.988349 -0.0132095 9.26443e-21)
(0.25454 0.00835555 1.5245e-20)
(1.09471 0.0587458 -1.16444e-20)
(0.61949 0.0399799 -4.44104e-21)
(1.01918 -0.0253783 -1.45885e-21)
(0.994939 -0.0066126 -3.56163e-21)
(1.24669 -0.00539398 0)
(1.17914 -0.0486829 0)
(1.00001 -0.00132776 -2.1287e-21)
(1.08822 -0.713071 0)
(0.764101 -0.24696 -3.94833e-20)
(1.04689 -0.139942 0)
(1.11584 -0.0508445 1.22191e-20)
(1.0872 -0.0842413 -1.68356e-20)
(1.11436 0.0522531 0)
(1.02233 -0.0851076 1.01399e-21)
(0.936417 -0.165039 -7.39286e-21)
(1.13917 0.00727342 1.80244e-20)
(0.96696 -0.0391114 7.18808e-21)
(1.0461 -0.00925548 0)
(1.04456 -0.022523 7.92744e-23)
(0.607473 0.0384542 2.09324e-21)
(0.93675 -0.0605758 -1.83828e-20)
(0.631511 0.0947572 -2.46254e-20)
(0.974938 -0.0296847 0)
(1.1112 0.0691642 -2.43888e-20)
(1.18143 -0.0451105 4.259e-20)
(1.00082 -0.0117753 0)
(1.07429 -0.275878 6.50317e-21)
(1.10302 0.0484133 -1.38845e-20)
(1.09716 -0.0396156 1.74938e-20)
(1.30339 -0.0249864 0)
(1.20127 -0.0469824 0)
(0.114757 0.00950739 0)
(1.10021 2.76937e-05 -1.16687e-20)
(1.06953 -0.281267 7.9783e-21)
(1.12307 -0.0380456 0)
(1.04659 0.00393501 -6.39305e-21)
(1.10353 0.029599 0)
(0.989168 -0.626798 0)
(1.20733 0.0901641 2.2351e-20)
(0.976972 -0.032962 -3.00059e-21)
(1.12104 0.0526956 7.23824e-22)
(0.217253 0.0624516 2.6274e-20)
(1.10199 -0.0210704 -1.25783e-21)
(1.00033 -0.00642209 -2.1469e-21)
(1.00003 -0.000330287 5.33738e-22)
(0.107445 0.0535653 -3.66118e-20)
(0.972672 -0.0203664 0)
(1.17436 -0.221521 -1.65062e-20)
(1.00019 -0.00648019 4.17338e-21)
(1.12029 0.0180555 2.11948e-20)
(1.14094 -0.0474746 0)
(1.00399 -0.00962893 2.31527e-21)
(1.08295 0.0232004 0)
(1.00002 -0.00118232 0)
(1.09682 0.023507 -3.90645e-22)
(1.06386 -0.0227366 1.02843e-20)
(1.25883 -0.134284 3.6332e-20)
(1.00393 -0.00881011 -1.49474e-21)
(1.24487 -0.0359409 1.42768e-20)
(1.04458 -0.137341 7.0892e-21)
(1.00595 -0.00654451 -5.80157e-22)
(-0.0115649 0.0401805 6.03012e-21)
(1.24568 -0.120197 -2.28718e-20)
(1.13729 0.00728967 0)
(0.0415997 0.0388245 0)
(1.08625 -0.170748 -1.72699e-20)
(0.733459 -0.45433 1.60055e-20)
(1.13949 -0.0458518 0)
(1.01958 -0.0259734 1.59679e-21)
(0.991593 -0.00468591 5.15085e-22)
(0.973473 -0.0533934 -1.28477e-20)
(0.920561 -0.0775896 1.23528e-20)
(1.10308 -0.0199652 0)
(1.17982 -0.042816 -3.91538e-20)
(1.25583 -0.137986 -4.06964e-21)
(0.283693 0.031421 8.56566e-21)
(0.91991 -0.0800252 0)
(0.999642 -0.00571072 0)
(1.12272 0.0196114 5.22894e-20)
(1.00443 -0.00978261 -8.58026e-22)
(1.31858 -0.164903 3.04613e-20)
(1.00002 -0.00286298 -2.35127e-22)
(1.00143 -0.00481536 0)
(1.29756 -0.0225247 0)
(1.12935 0.0471091 -2.4326e-21)
(1.00413 -0.00875628 -1.02949e-22)
(1.17478 0.0153141 0)
(1.09603 0.0226142 3.52517e-22)
(0.639975 0.0405697 -2.22162e-21)
(1.09707 -0.0754626 0)
(0.997638 -0.018152 0)
(1.05922 0.00936851 3.85545e-21)
(1.07308 0.00943824 -2.51484e-21)
(1.00131 -0.00958845 -1.92174e-21)
(0.415314 -0.0390685 0)
(0.996954 -0.00668841 4.02211e-21)
(1.02233 -0.0572595 0)
(-0.157316 -0.0117163 0)
(1.013 -0.0200194 0)
(1.02184 -0.0870909 0)
(0.229393 0.0401533 0)
(0.0356012 0.0178664 4.82697e-20)
(1.00671 -0.00657124 0)
(1.11509 0.0588788 0)
(1.07716 0.0202692 -1.13608e-22)
(1.16458 -0.240053 6.61421e-21)
(1.07711 0.0195416 1.68408e-21)
(1.24759 0.0684814 7.19795e-20)
(0.12189 0.0545575 2.26398e-20)
(0.992233 -0.0369089 -3.08436e-21)
(1.12581 -0.00280224 -1.55933e-20)
(1.1272 0.0445215 -2.5586e-21)
(1.00499 -0.0241575 0)
(0.376474 0.0226924 2.10808e-20)
(1.01548 -0.00029154 1.84868e-21)
(1 -8.97493e-05 4.18387e-21)
(1.16261 0.0454828 -1.49579e-20)
(1.25067 -0.119625 -5.08405e-20)
(-0.00108485 0.0213435 -6.82082e-20)
(0.974006 -0.0550162 3.65717e-21)
(1.11442 0.00273995 0)
(1.10383 0.0286198 -1.06296e-21)
(1.13191 -0.149734 6.97818e-21)
(0.00717348 0.0234151 -6.28822e-20)
(0.432534 0.0281493 2.86671e-20)
(1.04261 -0.0251355 -5.35561e-21)
(1.02841 -0.00833382 -2.06234e-21)
(1.03891 -0.0557562 2.92919e-21)
(1.02364 -0.0575091 1.16131e-21)
(1.11275 0.00225207 0)
(0.966537 -0.0675612 -1.38312e-20)
(1.01259 -0.021316 0)
(1.0752 0.010319 0)
(1.3028 -0.0878796 2.53713e-20)
(1.04764 -0.0335164 8.08209e-23)
(1.08492 -0.0837848 1.7191e-20)
(1.09971 0.000814936 0)
(1.00002 -0.000151107 0)
(1.07608 0.00602274 0)
(1.15612 0.0542109 0)
(0.922039 -0.084492 -1.2349e-20)
(1.07379 -0.0254033 2.04917e-20)
(1.00961 -0.0316124 0)
(1.21217 0.011871 0)
(0.53146 0.0477737 0)
(0.74599 -0.194965 0)
(1.11559 0.0605332 -2.44955e-20)
(1.07089 -0.332602 4.71374e-21)
(1.02168 -0.00228238 2.38369e-21)
(1.10843 0.0477285 0)
(1.04645 -0.00885427 -8.0202e-21)
(1.01671 -0.000407712 0)
(1.03989 -0.0148307 -7.459e-23)
(1.07943 -0.336825 0)
(1.00209 -0.00749556 0)
(0.554111 0.0406421 2.68859e-20)
(-0.155497 0.00748084 -3.57098e-20)
(0.972995 -0.193146 -9.30669e-22)
(1.07497 -0.0249869 -1.96256e-20)
(0.582507 0.0924202 -4.14254e-21)
(1.11602 -0.0135667 1.60624e-20)
(1.04644 -0.265163 -8.82688e-21)
(1.00669 -0.0108977 -5.80454e-22)
(0.994675 -0.00599151 -2.30917e-21)
(1.19654 0.0905247 -3.08549e-20)
(1.08246 0.0241097 0)
(0.995341 -0.0757838 0)
(1.11231 0.0479184 -1.58185e-20)
(0.967989 -0.0211385 4.06566e-21)
(1.00373 -0.035369 0)
(1.01961 -0.0536188 2.73723e-22)
(0.964438 -0.0680657 4.76857e-21)
(1.00427 -0.0293273 2.21786e-21)
(1.00252 -0.00872715 3.13146e-22)
(0.998519 -0.00813039 -6.78762e-21)
(0.968077 -0.0380772 3.55963e-21)
(1.04127 -0.0704863 0)
(1.01686 0.000136061 5.78721e-22)
(0.138545 0.0158345 -1.41676e-20)
(1.2124 0.00852178 5.15174e-21)
(1.05463 -0.277083 9.65206e-21)
(1.0002 -0.000100577 0)
(1.06745 -0.0246268 8.11133e-21)
(1.00683 -0.0112767 -1.32172e-22)
(1.08778 -0.272836 0)
(1.01249 -0.000596501 0)
(1.02224 -0.0106063 -5.81724e-22)
(0.925496 -0.0842784 1.24722e-20)
(1.02959 -0.0221345 5.4422e-22)
(1.11736 0.0493625 0)
(1.00241 -0.00226897 -5.68494e-22)
(1.06222 0.0154736 -4.54288e-20)
(0.385153 0.0226768 -3.02705e-20)
(1.11077 0.0493202 0)
(1.00095 -0.0046253 1.93774e-21)
(0.299417 0.0326556 -1.43678e-20)
(1.11327 0.0493123 -2.16941e-20)
(0.996099 -0.0130413 0)
(1.0436 -0.00299763 -5.61169e-21)
(1.31409 -0.0844156 -4.1228e-20)
(1.04038 -0.0551159 0)
(1.13922 -0.0313432 -5.40302e-21)
(0.999457 -0.00275104 -1.26956e-21)
(1.02268 -0.928699 -1.0884e-20)
(1.06451 -0.0209174 -1.37687e-20)
(1.13623 0.0668861 1.85595e-20)
(1.0978 -0.04117 -1.90008e-20)
(0.997142 -0.00594729 -4.13045e-21)
(1.11428 0.0507292 -5.36847e-21)
(-0.0174238 0.027187 0)
(1.04668 -0.0329464 0)
(0.993014 -0.0148593 0)
(1.00005 -0.000327915 -2.25104e-21)
(0.996103 -0.0144217 2.97479e-21)
(1.10756 0.0450488 0)
(0.984243 -0.111644 0)
(0.994873 -0.007052 -3.98267e-21)
(-0.0107951 0.0340596 0)
(0.609485 0.0889512 -1.07742e-20)
(1.30595 -0.181334 0)
(1.0101 -0.0312992 0)
(1.12014 0.0527818 0)
(1.114 0.0511536 0)
(1.01965 -0.00749923 2.44479e-21)
(0.999226 -0.0200542 -2.82325e-21)
(1.11199 0.0488766 1.14231e-20)
(1.05144 -0.224825 -3.62457e-21)
(1.03915 -0.0429687 5.38437e-21)
(1.10795 0.0476838 0)
(0.270283 0.0103021 0)
(1.15525 -0.0711354 1.92652e-21)
(1.0471 -0.257105 8.98102e-21)
(1.0048 -0.0291384 2.95742e-21)
(1.00353 -0.00262534 0)
(-0.30025 0.00161121 -9.98959e-20)
(0.0791967 0.0129564 -1.59916e-20)
(0.95112 -0.416841 5.57702e-22)
(1.2159 0.0864174 7.4447e-21)
(0.444547 0.0308751 1.71679e-20)
(0.452349 -0.0365544 0)
(1.07691 0.00545706 0)
(1.12703 0.0381485 -1.08061e-20)
(0.81409 -0.149498 3.33003e-21)
(-0.250051 0.00385757 0)
(1.07981 0.0151795 7.39595e-21)
(1.11314 0.0529847 0)
(1.09665 -0.0778217 5.20195e-21)
(1.05987 -0.0170368 1.06684e-20)
(1.02475 -0.0289241 2.61956e-21)
(1.04609 -0.0737418 0)
(1.20553 -0.0197369 -8.06378e-21)
(1.00633 -0.0106884 -5.33369e-22)
(1.04316 -0.00817601 4.65964e-21)
(1.09855 -0.036561 -9.09029e-21)
(1.13307 -0.144986 0)
(1.13327 0.0360289 -1.47825e-21)
(0.72514 0.0476855 -1.56219e-20)
(0.910242 -0.106625 0)
(1.02409 -0.0250892 -2.94307e-24)
(1.00287 -0.00195709 -1.01063e-22)
(0.932513 -0.0464804 0)
(1.07779 -0.00193846 2.86548e-21)
(0.848436 -0.24756 0)
(0.42803 0.0282904 -1.39055e-20)
(1.11629 0.0611761 2.66317e-20)
(1.00149 -0.00506841 0)
(1.11667 0.0498859 0)
(0.986494 -0.0611013 0)
(0.999341 -0.0261785 0)
(1.12296 0.025525 0)
(1.07641 0.0071685 2.97331e-21)
(1.00003 -0.000273971 2.32272e-21)
(1.12508 0.0266667 1.44994e-20)
(0.923776 -0.0323576 0)
(0.271152 0.00902527 -1.40446e-20)
(1.07854 0.0296241 -6.18602e-23)
(1.11718 -0.041413 -2.44275e-22)
(0.155196 0.0192394 1.37179e-20)
(1.21579 0.00376164 0)
(1.14854 -0.136136 0)
(0.999986 -0.000243863 0)
(0.999869 -0.000872405 -2.74863e-22)
(1.0084 -0.00656007 0)
(1.29116 -0.290274 -1.22117e-20)
(1.11071 0.0495281 1.98384e-20)
(1.17061 -0.158197 3.08311e-21)
(0.621695 0.0902088 -1.19691e-20)
(1.10287 -0.0528987 -5.05735e-21)
(-0.303919 0.00176911 0)
(1.03291 -0.00697397 0)
(1.07011 -0.766221 -3.10947e-20)
(1.02277 -0.0109044 1.30752e-21)
(0.96824 -0.0200781 0)
(1.05706 -0.0466873 1.40478e-20)
(1.03995 -0.0187474 8.61284e-21)
(1.23637 -0.0562079 0)
(0.987704 -0.0604134 -4.73181e-21)
(1.04188 -0.0257565 -1.02948e-20)
(1.06464 0.0136369 7.88472e-21)
(0.991503 -0.037322 0)
(1.30847 -0.177667 0)
(1.0587 -0.00916594 0)
(1.00168 -0.00687739 -2.65025e-21)
(1.09408 0.0579986 0)
(1.07255 0.0119487 0)
(1.04502 -0.11718 7.98999e-21)
(1.01668 -0.0140442 0)
(1.03938 -0.0190116 -4.06092e-21)
(1.11375 0.0493627 2.39005e-20)
(0.988957 -0.0134562 -4.48135e-21)
(1.03998 -0.0135117 0)
(1.04234 -0.0082225 -2.23735e-21)
(1.01469 -0.000692994 -8.72295e-22)
(1.10467 0.0606492 2.15281e-20)
(1.01745 -0.00155648 -3.49573e-21)
(1.03303 -0.00961564 -5.62117e-21)
(1.12102 0.0441664 1.08648e-20)
(0.921349 -0.0327103 -1.34811e-20)
(1.05763 -0.045491 -1.19213e-20)
(0.435408 -0.0297712 0)
(1.00435 -0.00612532 0)
(1.11828 -0.0433995 0)
(0.332947 0.0278931 4.93856e-21)
(0.665566 0.0959322 2.09168e-20)
(1.17618 0.0939406 0)
(1.00367 -0.00784063 0)
(1.13703 -0.144155 -1.64407e-20)
(1.07612 0.0209367 1.06334e-22)
(1.00082 -0.0027768 2.41258e-21)
(1.02011 -0.0561003 4.55326e-22)
(1.0983 0.0251074 0)
(1.04455 -0.07267 0)
(0.996747 -0.00700107 -4.38167e-21)
(0.9926 -0.0237249 4.87537e-21)
(1.03778 -0.0386718 -4.73695e-21)
(0.589748 -0.0176564 0)
(-0.124249 0.0112137 7.89521e-21)
(1.12253 0.0306917 -8.37292e-21)
(1.20282 -0.0444869 0)
(1.08882 -0.55338 -1.60321e-20)
(0.98673 -0.109926 7.35196e-21)
(0.999993 -0.000220281 -5.42369e-22)
(1.126 0.0260902 -1.66307e-20)
(0.930352 -0.288236 -2.2666e-21)
(0.9966 -0.00200265 7.74492e-21)
(1.10816 -0.160537 2.47735e-20)
(0.989356 -0.012934 -5.95594e-22)
(1.11083 0.0514802 3.17289e-21)
(0.917374 -0.0719839 -1.29417e-20)
(0.887001 -0.231939 -7.74004e-21)
(1.05358 -0.0943167 -1.07823e-21)
(1.01737 -0.00140637 3.48064e-21)
(0.853904 -0.158556 6.07821e-20)
(1.01925 -0.0553531 0)
(0.296597 0.0434283 -7.25147e-21)
(1.15843 0.0553097 0)
(1.26803 -0.25857 0)
(1.09901 -0.038132 -6.602e-22)
(1.08313 -0.278186 -4.20188e-21)
(1.03304 -0.00872149 -4.87459e-21)
(1.00684 -0.0068969 8.24938e-23)
(0.998965 -0.0091861 -2.66588e-21)
(1.00001 -0.000142241 0)
(1.07843 0.0303451 4.63349e-21)
(1.00157 -0.0213275 -1.36226e-22)
(1.07558 0.00768529 1.14593e-20)
(1.08831 -0.00421106 0)
(1.07842 -0.00128869 5.33908e-21)
(0.969823 -0.0696404 0)
(1.1336 0.0352067 -1.08131e-20)
(0.109584 0.0186494 -5.99787e-20)
(1.05785 -0.00871043 4.62311e-24)
(1.00495 -0.00675241 -8.61828e-22)
(1.02439 -0.02844 -9.95516e-22)
(1.10371 0.031431 1.17122e-20)
(0.996929 -0.00628363 0)
(1.15381 -0.0766539 1.56723e-20)
(1.0906 0.0172578 0)
(1.00686 -0.0101443 0)
(1.00008 -0.0005757 -6.75196e-22)
(1.11087 0.0490613 -2.05364e-20)
(1.11731 0.060681 1.33919e-20)
(1.04078 -0.0399877 -2.79008e-21)
(1.07626 0.0216149 -7.13451e-21)
(0.747723 0.0495093 1.73264e-20)
(1.03327 -0.00673993 1.50298e-21)
(1.06252 0.00699404 7.423e-21)
(0.31689 0.0249891 -1.87383e-20)
(1.08856 -0.0108355 -1.2432e-20)
(-0.0612847 -0.0259029 0)
(1.00073 -0.00262777 -2.13363e-21)
(1.0795 -0.0399 0)
(1.09291 0.0368919 0)
(1.23982 -0.0485567 4.53832e-20)
(0.998898 -0.00891357 0)
(0.964537 -0.0370798 -8.77604e-21)
(1.09847 -0.137149 -2.25962e-20)
(1.08469 -0.166087 8.05155e-21)
(0.974863 -0.198644 6.24701e-21)
(1.27348 -0.255348 3.47733e-20)
(-0.237569 0.00294329 -2.49189e-20)
(1.07915 -0.0389295 -1.50025e-21)
(0.476963 -0.0337724 0)
(1.00585 -0.00142425 0)
(0.630322 -0.022303 0)
(1.04527 -0.0221832 -3.34743e-21)
(1.09963 -0.135054 2.58081e-20)
(0.78577 0.0511193 1.71258e-20)
(1.16229 -0.0613288 -3.33734e-20)
(1.09416 0.0355154 -1.55988e-20)
(0.988045 -0.00734301 2.64866e-21)
(1.10657 0.0128256 0)
(0.967915 -0.0701198 2.03934e-20)
(1.07192 0.0135098 -1.07729e-20)
(1.04494 -0.221396 0)
(1.00404 -0.0084168 0)
(0.987323 -0.034174 2.73912e-21)
(1.12139 0.0305892 -8.12e-21)
(0.531819 -0.095807 3.05077e-20)
(1.16608 -0.15892 0)
(1.10494 -0.0279244 0)
(1.05721 -0.00730252 -1.03812e-20)
(0.993141 -0.0300919 0)
(-0.122807 -0.00645679 -2.17083e-20)
(1.03114 -0.0115918 -2.5238e-21)
(0.999366 -0.00581296 7.65007e-21)
(1.24168 -0.0459271 -5.117e-20)
(1.00512 -0.00610199 -5.47615e-22)
(1.06144 0.0170772 -4.7714e-24)
(-0.0237099 -0.00849068 -3.62152e-20)
(0.113816 0.0585941 1.06213e-20)
(1.0598 -0.0252794 5.72804e-21)
(1.01746 -0.00114198 -4.74234e-21)
(1.00389 -0.00978358 0)
(1.0878 -0.0117558 1.53596e-20)
(-0.0605422 -0.00734682 0)
(1.00365 -0.00366948 4.64968e-23)
(1.24345 -0.115214 0)
(1.11273 0.0598033 1.39915e-20)
(1.09152 0.0168234 0)
(1.11892 0.018569 0)
(0.964873 -0.036021 1.22588e-20)
(1.12823 0.0450792 2.02974e-20)
(1.01557 -2.06884e-05 -1.26999e-21)
(0.97638 -0.165247 2.87337e-21)
(-0.0910497 -0.0116704 2.85925e-20)
(1.03566 -0.0422924 -4.21102e-21)
(1.21606 -0.00334353 -4.13506e-20)
(1.05116 -0.0369716 8.71379e-21)
(0.15413 0.0637545 -1.90164e-20)
(1.10787 0.0125244 -4.93856e-21)
(0.988493 -0.00758211 0)
(1.00104 -0.0119464 1.97926e-21)
(1.24951 0.0699597 -5.30335e-22)
(0.99281 -0.014353 0)
(0.981864 -0.0186895 0)
(0.39999 0.0237668 2.89282e-21)
(1.11581 0.0591756 -1.48888e-20)
(0.113314 0.0263119 -1.379e-20)
(0.998413 -0.00201959 0)
(1.02865 -0.105904 0)
(1.20915 0.0848682 5.55751e-20)
(0.666232 0.0427471 2.2094e-21)
(1.16696 -0.380882 -5.01715e-20)
(1.25608 -0.268524 -9.02755e-20)
(0.996843 -0.00202004 -4.82007e-21)
(1.05176 -0.0931661 0)
(1.03786 -0.0432865 -2.26145e-21)
(1.13738 -0.263447 1.49343e-20)
(1.21577 0.00686632 0)
(0.724025 0.0979661 6.47337e-21)
(0.995515 -0.0495611 7.78074e-22)
(1.11141 0.043276 0)
(1.07558 -0.173452 0)
(1.18728 -0.000326156 5.60876e-20)
(0.658782 0.0520396 0)
(1.02355 -0.0245111 -1.22579e-21)
(0.0619625 0.0338873 -2.59826e-20)
(1.10943 0.053047 2.45622e-21)
(1.30003 -0.0167281 0)
(0.99461 -0.00641662 7.40989e-21)
(1.1517 -0.13404 3.40989e-20)
(0.967965 -0.084974 -7.96835e-21)
(0.999953 -0.000881217 4.6667e-21)
(1.0964 -0.00733353 0)
(0.969533 -0.0870585 -2.62322e-22)
(1.07906 0.0166603 6.59072e-21)
(1.08686 0.034646 1.44689e-20)
(1.00808 -0.0167975 -9.54003e-22)
(0.849712 -0.149662 0)
(1.07998 0.0161306 -3.87096e-21)
(1.03836 -0.135528 0)
(1.03037 -0.0799607 3.57128e-21)
(1.02339 -0.0388756 -3.42146e-22)
(0.438554 0.028382 0)
(1.10991 0.0528186 0)
(0.581673 -0.0191739 0)
(1.01683 -0.0192034 -5.32509e-22)
(1.08753 -0.00481949 0)
(1.13356 0.0545087 -3.75602e-23)
(0.929766 -0.08882 0)
(1.11082 0.049781 -1.94965e-20)
(0.312261 0.0515489 0)
(0.091975 0.0149248 1.48163e-20)
(1.03132 -0.717597 3.48258e-20)
(1.00197 -0.00779476 0)
(1.13364 -0.111972 0)
(0.96726 -0.241705 0)
(0.447547 0.0276531 -9.82892e-21)
(0.944764 -0.0689804 -1.65139e-20)
(1.10156 -0.0240388 -2.20822e-20)
(1.04348 -0.0381772 -5.50274e-21)
(1.11096 0.0492896 2.16511e-20)
(1.02211 -0.00769597 1.98772e-23)
(1.1116 0.0420469 1.51402e-20)
(0.0795916 0.0429864 5.35211e-20)
(0.941823 -0.0653565 1.0133e-21)
(1.10272 -0.0228438 2.28521e-20)
(0.966993 -0.0470942 -1.71114e-20)
(0.617417 -0.0227789 0)
(1.01603 -0.0194867 -6.25253e-22)
(1.00794 -0.0121774 -1.40671e-21)
(1.00482 -0.0247084 1.78044e-21)
(1.06375 -0.0217309 3.7069e-21)
(1.10329 0.0641133 1.85346e-20)
(1.01727 -0.00105265 1.5794e-21)
(1.00617 -0.0103259 1.16821e-21)
(1.00176 -0.0208487 0)
(0.847699 -0.143558 -1.6301e-20)
(-0.260655 -0.00186381 -2.67591e-20)
(1.00645 -0.0142893 -7.98563e-22)
(1.00909 -0.0183842 0)
(1.00653 -0.0147023 8.04258e-22)
(1.03917 -0.0212612 4.15584e-21)
(1.05115 -0.0361273 -7.63501e-21)
(0.687233 0.0534368 -2.00196e-20)
(1.00609 -0.0256751 0)
(0.993314 -0.0227622 0)
(1.11658 0.0182374 -2.33126e-20)
(1.08603 0.0228812 0)
(1.00376 -0.00816804 8.49933e-22)
(0.925521 -0.0349112 1.09319e-20)
(1.10444 -0.15963 -3.11185e-20)
(0.692172 0.0438346 -8.58656e-21)
(1.03536 -0.0435098 4.19454e-21)
(1.02309 -0.0397975 1.73684e-21)
(1.05357 -0.0481985 1.01639e-20)
(1.01641 -0.0186108 -5.0913e-22)
(1.11303 0.0537141 6.94276e-21)
(1.15487 0.0172528 -9.94846e-21)
(-0.086857 -0.025613 0)
(0.971623 -0.0531777 0)
(0.338996 0.0293149 2.58524e-23)
(1.01912 -0.0384733 7.11603e-23)
(0.995473 -0.014178 0)
(1.10038 0.0294118 -1.09746e-21)
(1.23561 -0.118901 1.0844e-20)
(0.26133 0.0687813 1.05181e-20)
(1.00803 -0.0118944 5.66714e-22)
(1.12893 0.00500241 -2.32719e-20)
(1.05859 -0.025069 -1.02864e-20)
(1.09639 -0.0275606 -6.54271e-23)
(1.03291 -0.00264214 1.38484e-21)
(0.62577 0.0335699 0)
(1.00425 -0.00789869 8.82852e-23)
(1.11774 0.0175447 0)
(0.363041 0.0319346 0)
(1.00293 -0.0214952 0)
(1.09672 0.0359354 6.43956e-22)
(0.957415 -0.0143103 -3.94647e-21)
(1.05075 -0.0395473 -1.50009e-21)
(1.07812 0.0181371 0)
(1.10421 0.0322556 -1.31981e-21)
(0.419738 0.0627894 -2.23171e-20)
(1.08708 0.0337978 -9.60587e-21)
(1.01183 -0.0242869 3.67228e-22)
(1.0077 -0.0166876 1.51171e-21)
(0.228357 0.0647657 3.65056e-21)
(1.0142 -0.0135281 -7.64562e-22)
(1.02676 -0.0788352 8.66498e-22)
(0.960284 -0.242388 3.15089e-22)
(1.00074 -0.00360408 -2.50018e-21)
(1.03897 -0.0202905 4.30935e-23)
(1.03175 -0.0227876 5.55196e-21)
(1.00867 -0.0182128 -5.67369e-22)
(1.11459 0.0517112 3.08271e-21)
(1.19159 -0.43639 -2.30971e-20)
(1.04458 -0.0351236 0)
(0.925738 -0.282242 2.14062e-21)
(1.02298 0.0689567 -2.33162e-21)
(0.392309 0.0233122 -2.45018e-21)
(0.181421 0.00673924 -1.02451e-20)
(1.1212 0.0451231 -1.211e-20)
(0.0336614 0.02526 6.11029e-20)
(1.00357 -0.0346437 8.40186e-22)
(0.991734 -0.00650195 0)
(1.03337 -0.00840652 -5.70155e-21)
(0.613471 0.0736948 -2.46638e-21)
(0.322182 0.053399 2.88691e-21)